/*--------------------------------*- C++ -*----------------------------------*\
  =========                 |
  \\      /  F ield         | OpenFOAM: The Open Source CFD Toolbox
   \\    /   O peration     | Website:  https://openfoam.org
    \\  /    A nd           | Version:  8
     \\/     M anipulation  |
\*---------------------------------------------------------------------------*/
FoamFile
{
    version     2.0;
    format      ascii;
    class       volVectorField;
    location    "3300";
    object      U;
}
// * * * * * * * * * * * * * * * * * * * * * * * * * * * * * * * * * * * * * //

dimensions      [0 1 -1 0 0 0 0];

internalField   nonuniform List<vector> 
48000
(
(-0.0164875 3.4282e-07 0.0180477)
(-0.0354 1.08434e-07 0.01673)
(-0.0484584 1.46599e-07 0.00820068)
(-0.0519467 8.0183e-08 2.32759e-05)
(-0.047699 3.60253e-08 -0.00589863)
(-0.0383052 1.69124e-08 -0.00986604)
(-0.0253194 -7.4927e-09 -0.0124791)
(-0.0101758 -4.28743e-08 -0.014155)
(0.00662928 -7.69653e-08 -0.0150422)
(0.0239183 -9.34549e-08 -0.0152994)
(0.0415588 -9.08354e-08 -0.0152321)
(0.059156 -7.71327e-08 -0.0149576)
(0.0764973 -5.88194e-08 -0.014543)
(0.0934252 -4.1062e-08 -0.014033)
(0.109826 -2.65941e-08 -0.0134585)
(0.125618 -1.61696e-08 -0.0128415)
(0.140743 -9.34685e-09 -0.012198)
(0.15516 -5.20827e-09 -0.0115397)
(0.168843 -2.79442e-09 -0.0108758)
(0.181777 -1.35905e-09 -0.010213)
(0.193954 -3.76761e-10 -0.0095567)
(0.205375 4.53239e-10 -0.00891106)
(0.216047 1.26801e-09 -0.00827936)
(0.22598 2.0923e-09 -0.00766424)
(0.235189 2.95276e-09 -0.00706773)
(0.243693 3.78466e-09 -0.00649145)
(0.251511 4.56135e-09 -0.00593664)
(0.258666 5.25429e-09 -0.00540423)
(0.265184 5.85775e-09 -0.00489486)
(0.271088 6.34509e-09 -0.00440897)
(0.276407 6.73915e-09 -0.00394676)
(0.281167 7.04183e-09 -0.00350829)
(0.285395 7.27027e-09 -0.00309344)
(0.289119 7.43208e-09 -0.00270196)
(0.292368 7.5425e-09 -0.00233348)
(0.295167 7.61864e-09 -0.00198752)
(0.297544 7.65672e-09 -0.00166352)
(0.299525 7.67385e-09 -0.00136084)
(0.301136 7.65862e-09 -0.00107877)
(0.302402 7.63007e-09 -0.000816562)
(0.303346 7.58438e-09 -0.000573435)
(0.303993 7.51204e-09 -0.000348586)
(0.304364 7.43589e-09 -0.000141171)
(0.30448 7.35213e-09 5.00693e-05)
(0.304361 7.27218e-09 0.00022577)
(0.304027 7.18842e-09 0.000386375)
(0.303495 7.09514e-09 0.000532998)
(0.302783 7.0228e-09 0.000666581)
(0.301907 6.95998e-09 0.00078797)
(0.300881 6.90477e-09 0.00089796)
(0.299719 6.85337e-09 0.000997321)
(0.298435 6.81911e-09 0.00108679)
(0.297041 6.81339e-09 0.00116709)
(0.295547 6.8172e-09 0.00123889)
(0.293965 6.83814e-09 0.00130286)
(0.292304 6.87431e-09 0.00135959)
(0.290573 6.9257e-09 0.00140969)
(0.28878 6.98091e-09 0.00145369)
(0.286932 7.05514e-09 0.00149211)
(0.285037 7.13319e-09 0.00152543)
(0.283101 7.21885e-09 0.00155411)
(0.281129 7.30451e-09 0.00157854)
(0.279127 7.4054e-09 0.00159914)
(0.277099 7.50248e-09 0.00161624)
(0.275051 7.60337e-09 0.00163018)
(0.272984 7.70236e-09 0.00164127)
(0.270904 7.80134e-09 0.00164978)
(0.268814 7.89462e-09 0.00165598)
(0.266716 7.99741e-09 0.00166009)
(0.264612 8.08117e-09 0.00166234)
(0.262506 8.16111e-09 0.00166293)
(0.260399 8.24868e-09 0.00166203)
(0.258293 8.32672e-09 0.0016598)
(0.25619 8.39715e-09 0.00165641)
(0.254091 8.46187e-09 0.001652)
(0.251998 8.51517e-09 0.00164668)
(0.249911 8.57037e-09 0.00164057)
(0.247831 8.60843e-09 0.00163379)
(0.24576 8.63889e-09 0.00162642)
(0.243699 8.66553e-09 0.00161857)
(0.241647 8.69979e-09 0.00161031)
(0.239605 8.71311e-09 0.00160171)
(0.237573 8.72643e-09 0.00159286)
(0.235553 8.73214e-09 0.00158381)
(0.233544 8.73784e-09 0.00157463)
(0.231546 8.73213e-09 0.00156536)
(0.22956 8.7226e-09 0.00155608)
(0.227585 8.70737e-09 0.00154682)
(0.225621 8.69404e-09 0.00153762)
(0.223669 8.67119e-09 0.00152854)
(0.221728 8.64453e-09 0.00151962)
(0.219798 8.62359e-09 0.00151089)
(0.217879 8.59312e-09 0.00150239)
(0.21597 8.57028e-09 0.00149415)
(0.214071 8.54172e-09 0.00148622)
(0.212182 8.50174e-09 0.00147861)
(0.210302 8.46937e-09 0.00147136)
(0.20843 8.44462e-09 0.00146451)
(0.206568 8.41415e-09 0.00145807)
(0.204712 8.37798e-09 0.00145207)
(0.202864 8.34561e-09 0.00144655)
(0.201023 8.32277e-09 0.00144153)
(0.199187 8.29992e-09 0.00143702)
(0.197357 8.28278e-09 0.00143306)
(0.195532 8.26564e-09 0.00142967)
(0.19371 8.25993e-09 0.00142687)
(0.191891 8.2485e-09 0.00142469)
(0.190075 8.2523e-09 0.00142314)
(0.18826 8.24849e-09 0.00142225)
(0.186446 8.26372e-09 0.00142203)
(0.184632 8.27704e-09 0.00142252)
(0.182817 8.30368e-09 0.00142372)
(0.181 8.33985e-09 0.00142567)
(0.17918 8.36459e-09 0.00142837)
(0.177356 8.41028e-09 0.00143185)
(0.175528 8.46548e-09 0.00143613)
(0.173694 8.5321e-09 0.00144122)
(0.171853 8.61014e-09 0.00144715)
(0.170004 8.68819e-09 0.00145392)
(0.168147 8.78337e-09 0.00146157)
(0.16628 8.88235e-09 0.0014701)
(0.164401 8.99656e-09 0.00147953)
(0.162511 9.12981e-09 0.00148988)
(0.160607 9.26306e-09 0.00150116)
(0.158689 9.40393e-09 0.00151338)
(0.156756 9.56764e-09 0.00152657)
(0.154806 9.73896e-09 0.00154073)
(0.152838 9.92551e-09 0.00155588)
(0.150851 1.01311e-08 0.00157202)
(0.148844 1.03291e-08 0.00158917)
(0.146815 1.05613e-08 0.00160733)
(0.144764 1.07897e-08 0.00162651)
(0.142689 1.10372e-08 0.00164673)
(0.14059 1.13037e-08 0.00166797)
(0.138463 1.15664e-08 0.00169026)
(0.13631 1.18596e-08 0.00171358)
(0.134128 1.21527e-08 0.00173793)
(0.131916 1.24687e-08 0.00176332)
(0.129673 1.27809e-08 0.00178974)
(0.127397 1.31121e-08 0.00181718)
(0.125089 1.3451e-08 0.00184564)
(0.122746 1.38089e-08 0.00187509)
(0.120368 1.41553e-08 0.00190552)
(0.117953 1.45322e-08 0.00193692)
(0.1155 1.49015e-08 0.00196926)
(0.113008 1.52899e-08 0.00200251)
(0.110478 1.56896e-08 0.00203665)
(0.107906 1.61046e-08 0.00207163)
(0.105293 1.65501e-08 0.00210743)
(0.102639 1.69879e-08 0.00214399)
(0.099941 1.74638e-08 0.00218127)
(0.0971999 1.79587e-08 0.0022192)
(0.0944148 1.84765e-08 0.00225773)
(0.0915853 1.90171e-08 0.00229678)
(0.0887109 1.95958e-08 0.00233628)
(0.0857915 2.02088e-08 0.00237614)
(0.082827 2.08446e-08 0.00241626)
(0.0798174 2.15299e-08 0.00245654)
(0.0767628 2.22304e-08 0.00249686)
(0.0736635 2.29881e-08 0.00253708)
(0.0705202 2.37419e-08 0.00257706)
(0.0673335 2.45262e-08 0.00261664)
(0.0641044 2.53295e-08 0.00265564)
(0.060834 2.61062e-08 0.00269385)
(0.0575238 2.68752e-08 0.00273105)
(0.0541756 2.7591e-08 0.00276698)
(0.0507915 2.8242e-08 0.00280135)
(0.0473738 2.88017e-08 0.00283385)
(0.0439255 2.92433e-08 0.00286411)
(0.04045 2.95898e-08 0.00289172)
(0.0369509 2.98373e-08 0.00291622)
(0.0334329 2.99819e-08 0.00293706)
(0.0299009 3.01152e-08 0.00295365)
(0.0263609 3.02561e-08 0.00296529)
(0.0228195 3.04845e-08 0.00297117)
(0.0192845 3.08843e-08 0.00297037)
(0.0157645 3.14934e-08 0.00296182)
(0.0122697 3.23386e-08 0.00294427)
(0.00881176 3.33552e-08 0.00291624)
(0.0054031 3.44212e-08 0.00287586)
(0.00206482 3.53083e-08 0.0028208)
(-0.00119948 3.54377e-08 0.00274228)
(-0.004347 3.48438e-08 0.002637)
(-0.007365 3.41128e-08 0.00250769)
(-0.0102223 3.32219e-08 0.00235304)
(-0.0128858 3.2529e-08 0.00216831)
(-0.0153179 3.25442e-08 0.00194642)
(-0.0174722 3.38844e-08 0.00168091)
(-0.0192951 3.68692e-08 0.00136311)
(-0.0207227 4.14303e-08 0.000982392)
(-0.0216789 4.67071e-08 0.000525861)
(-0.0220762 5.08951e-08 -2.21905e-05)
(-0.021805 5.09788e-08 -0.000675069)
(-0.0207558 4.54431e-08 -0.00144531)
(-0.0188057 3.70977e-08 -0.00234036)
(-0.0158441 3.51636e-08 -0.00333787)
(-0.0118158 4.81842e-08 -0.00433376)
(-0.0069916 6.02758e-08 -0.00498362)
(-0.00143794 5.34232e-08 -0.00374889)
(0.000807911 -1.41023e-08 0.00120033)
(-0.0164884 3.42806e-07 0.0180467)
(-0.0354 1.08432e-07 0.0167297)
(-0.0484581 1.46597e-07 0.00820037)
(-0.0519465 8.01822e-08 2.29942e-05)
(-0.0476987 3.6025e-08 -0.00589887)
(-0.0383049 1.69123e-08 -0.00986628)
(-0.0253191 -7.49264e-09 -0.0124793)
(-0.0101755 -4.2874e-08 -0.0141552)
(0.00662955 -7.69648e-08 -0.0150425)
(0.0239186 -9.34543e-08 -0.0152996)
(0.0415591 -9.08348e-08 -0.0152323)
(0.0591563 -7.71323e-08 -0.0149578)
(0.0764975 -5.88191e-08 -0.0145432)
(0.0934254 -4.10618e-08 -0.0140332)
(0.109826 -2.6594e-08 -0.0134587)
(0.125618 -1.61695e-08 -0.0128417)
(0.140743 -9.34681e-09 -0.0121981)
(0.15516 -5.20826e-09 -0.0115399)
(0.168843 -2.79441e-09 -0.0108759)
(0.181777 -1.35905e-09 -0.0102132)
(0.193954 -3.7676e-10 -0.00955685)
(0.205375 4.53238e-10 -0.0089112)
(0.216047 1.26801e-09 -0.0082795)
(0.22598 2.09229e-09 -0.00766437)
(0.235189 2.95275e-09 -0.00706786)
(0.243693 3.78465e-09 -0.00649158)
(0.251511 4.56135e-09 -0.00593677)
(0.258666 5.25428e-09 -0.00540435)
(0.265184 5.85774e-09 -0.00489498)
(0.271088 6.34508e-09 -0.00440908)
(0.276407 6.73914e-09 -0.00394687)
(0.281167 7.04182e-09 -0.0035084)
(0.285395 7.27026e-09 -0.00309355)
(0.289119 7.43207e-09 -0.00270207)
(0.292367 7.54249e-09 -0.00233359)
(0.295167 7.61863e-09 -0.00198762)
(0.297544 7.65671e-09 -0.00166362)
(0.299525 7.67384e-09 -0.00136094)
(0.301136 7.65861e-09 -0.00107886)
(0.302402 7.63006e-09 -0.000816657)
(0.303346 7.58437e-09 -0.000573529)
(0.303993 7.51203e-09 -0.000348679)
(0.304364 7.43589e-09 -0.000141263)
(0.30448 7.35213e-09 4.99784e-05)
(0.304361 7.27217e-09 0.00022568)
(0.304027 7.18841e-09 0.000386286)
(0.303495 7.09513e-09 0.00053291)
(0.302783 7.02279e-09 0.000666494)
(0.301907 6.95997e-09 0.000787883)
(0.300881 6.90477e-09 0.000897874)
(0.299719 6.85337e-09 0.000997235)
(0.298435 6.8191e-09 0.00108671)
(0.297041 6.81339e-09 0.001167)
(0.295547 6.81719e-09 0.00123881)
(0.293965 6.83813e-09 0.00130277)
(0.292304 6.8743e-09 0.00135951)
(0.290573 6.9257e-09 0.00140961)
(0.28878 6.9809e-09 0.00145361)
(0.286932 7.05514e-09 0.00149203)
(0.285037 7.13319e-09 0.00152535)
(0.283101 7.21885e-09 0.00155402)
(0.281129 7.30451e-09 0.00157846)
(0.279127 7.4054e-09 0.00159905)
(0.277099 7.50248e-09 0.00161616)
(0.27505 7.60337e-09 0.0016301)
(0.272984 7.70235e-09 0.00164119)
(0.270904 7.80134e-09 0.0016497)
(0.268814 7.89461e-09 0.0016559)
(0.266716 7.9974e-09 0.00166001)
(0.264612 8.08116e-09 0.00166226)
(0.262506 8.16111e-09 0.00166284)
(0.260399 8.24867e-09 0.00166194)
(0.258293 8.32671e-09 0.00165972)
(0.25619 8.39714e-09 0.00165633)
(0.254091 8.46186e-09 0.00165191)
(0.251998 8.51516e-09 0.00164659)
(0.249911 8.57036e-09 0.00164049)
(0.247831 8.60843e-09 0.0016337)
(0.24576 8.63888e-09 0.00162634)
(0.243699 8.66552e-09 0.00161848)
(0.241646 8.69978e-09 0.00161022)
(0.239605 8.7131e-09 0.00160163)
(0.237573 8.72642e-09 0.00159277)
(0.235553 8.73213e-09 0.00158373)
(0.233544 8.73784e-09 0.00157454)
(0.231546 8.73212e-09 0.00156528)
(0.22956 8.7226e-09 0.00155599)
(0.227585 8.70736e-09 0.00154673)
(0.225621 8.69403e-09 0.00153754)
(0.223669 8.67118e-09 0.00152846)
(0.221728 8.64453e-09 0.00151954)
(0.219798 8.62358e-09 0.00151081)
(0.217879 8.59312e-09 0.0015023)
(0.21597 8.57027e-09 0.00149407)
(0.214071 8.54171e-09 0.00148613)
(0.212182 8.50173e-09 0.00147853)
(0.210302 8.46936e-09 0.00147128)
(0.20843 8.44461e-09 0.00146442)
(0.206567 8.41415e-09 0.00145798)
(0.204712 8.37797e-09 0.00145199)
(0.202864 8.34561e-09 0.00144647)
(0.201023 8.32276e-09 0.00144144)
(0.199187 8.29991e-09 0.00143694)
(0.197357 8.28277e-09 0.00143298)
(0.195532 8.26564e-09 0.00142959)
(0.19371 8.25992e-09 0.00142679)
(0.191891 8.24849e-09 0.0014246)
(0.190075 8.2523e-09 0.00142306)
(0.18826 8.24849e-09 0.00142216)
(0.186446 8.26371e-09 0.00142195)
(0.184632 8.27703e-09 0.00142244)
(0.182817 8.30368e-09 0.00142364)
(0.181 8.33984e-09 0.00142559)
(0.17918 8.36459e-09 0.00142829)
(0.177356 8.41027e-09 0.00143177)
(0.175528 8.46547e-09 0.00143605)
(0.173694 8.53209e-09 0.00144114)
(0.171853 8.61014e-09 0.00144706)
(0.170004 8.68818e-09 0.00145384)
(0.168147 8.78336e-09 0.00146149)
(0.16628 8.88234e-09 0.00147002)
(0.164401 8.99656e-09 0.00147945)
(0.162511 9.12981e-09 0.00148979)
(0.160607 9.26306e-09 0.00150107)
(0.158689 9.40392e-09 0.0015133)
(0.156756 9.56763e-09 0.00152649)
(0.154806 9.73895e-09 0.00154065)
(0.152838 9.9255e-09 0.00155579)
(0.150851 1.01311e-08 0.00157193)
(0.148844 1.03291e-08 0.00158908)
(0.146815 1.05613e-08 0.00160724)
(0.144764 1.07897e-08 0.00162643)
(0.142689 1.10372e-08 0.00164664)
(0.14059 1.13037e-08 0.00166789)
(0.138463 1.15664e-08 0.00169017)
(0.13631 1.18596e-08 0.00171349)
(0.134128 1.21527e-08 0.00173784)
(0.131916 1.24687e-08 0.00176323)
(0.129673 1.27809e-08 0.00178965)
(0.127398 1.31121e-08 0.00181709)
(0.125089 1.3451e-08 0.00184554)
(0.122746 1.38088e-08 0.001875)
(0.120368 1.41553e-08 0.00190543)
(0.117953 1.45322e-08 0.00193682)
(0.1155 1.49015e-08 0.00196916)
(0.113008 1.52898e-08 0.00200241)
(0.110478 1.56896e-08 0.00203655)
(0.107906 1.61046e-08 0.00207153)
(0.105293 1.655e-08 0.00210733)
(0.102639 1.69879e-08 0.00214389)
(0.099941 1.74638e-08 0.00218116)
(0.0971999 1.79587e-08 0.00221909)
(0.0944148 1.84765e-08 0.00225761)
(0.0915853 1.90171e-08 0.00229666)
(0.0887109 1.95958e-08 0.00233616)
(0.0857916 2.02088e-08 0.00237602)
(0.082827 2.08446e-08 0.00241614)
(0.0798174 2.15299e-08 0.00245641)
(0.0767628 2.22304e-08 0.00249673)
(0.0736636 2.2988e-08 0.00253695)
(0.0705202 2.37419e-08 0.00257693)
(0.0673335 2.45262e-08 0.00261651)
(0.0641044 2.53295e-08 0.0026555)
(0.060834 2.61062e-08 0.00269371)
(0.0575239 2.68752e-08 0.0027309)
(0.0541757 2.7591e-08 0.00276683)
(0.0507915 2.8242e-08 0.0028012)
(0.0473739 2.88017e-08 0.00283369)
(0.0439256 2.92433e-08 0.00286395)
(0.04045 2.95898e-08 0.00289156)
(0.036951 2.98372e-08 0.00291605)
(0.0334329 2.99819e-08 0.00293689)
(0.029901 3.01152e-08 0.00295347)
(0.026361 3.0256e-08 0.0029651)
(0.0228196 3.04845e-08 0.00297098)
(0.0192845 3.08842e-08 0.00297018)
(0.0157645 3.14934e-08 0.00296162)
(0.0122697 3.23386e-08 0.00294407)
(0.00881179 3.33551e-08 0.00291603)
(0.00540313 3.44211e-08 0.00287564)
(0.00206485 3.53082e-08 0.00282058)
(-0.00119945 3.54376e-08 0.00274206)
(-0.00434697 3.48437e-08 0.00263678)
(-0.00736497 3.41127e-08 0.00250746)
(-0.0102223 3.32218e-08 0.0023528)
(-0.0128858 3.25289e-08 0.00216807)
(-0.0153178 3.25442e-08 0.00194618)
(-0.0174721 3.38843e-08 0.00168067)
(-0.0192951 3.68692e-08 0.00136285)
(-0.0207227 4.14302e-08 0.000982131)
(-0.0216789 4.6707e-08 0.000525585)
(-0.0220762 5.0895e-08 -2.2489e-05)
(-0.0218051 5.09787e-08 -0.000675394)
(-0.0207558 4.5443e-08 -0.00144566)
(-0.0188057 3.70976e-08 -0.00234073)
(-0.0158441 3.51635e-08 -0.00333822)
(-0.0118159 4.81843e-08 -0.00433409)
(-0.00699189 6.02763e-08 -0.00498404)
(-0.00143848 5.34227e-08 -0.00374963)
(0.00080733 -1.41019e-08 0.00119864)
(-0.0136516 -3.16687e-08 0.0398325)
(-0.0198976 -7.72492e-09 0.0254331)
(-0.0198261 8.80279e-09 0.010561)
(-0.0160208 1.18048e-08 -0.00247798)
(-0.00896917 1.25796e-08 -0.0124046)
(0.000671839 7.80039e-09 -0.0194343)
(0.0123327 -7.68063e-10 -0.0241932)
(0.0254343 -9.08712e-09 -0.0272827)
(0.039553 -1.40433e-08 -0.0291063)
(0.054286 -1.47953e-08 -0.0299921)
(0.0693547 -1.25118e-08 -0.0302467)
(0.0845057 -8.94052e-09 -0.0300461)
(0.0995533 -5.4073e-09 -0.0295177)
(0.114352 -2.69933e-09 -0.0287503)
(0.128791 -1.04789e-09 -0.0278083)
(0.142784 -3.35914e-10 -0.0267396)
(0.156267 -2.91175e-10 -0.0255804)
(0.169191 -6.27645e-10 -0.0243587)
(0.181522 -1.10832e-09 -0.0230966)
(0.193235 -1.58328e-09 -0.0218117)
(0.204316 -1.96877e-09 -0.020518)
(0.214756 -2.2348e-09 -0.0192271)
(0.224554 -2.38376e-09 -0.0179486)
(0.233712 -2.44087e-09 -0.01669)
(0.242238 -2.42516e-09 -0.0154579)
(0.250144 -2.36091e-09 -0.0142574)
(0.257443 -2.27238e-09 -0.0130927)
(0.264151 -2.17101e-09 -0.0119674)
(0.270286 -2.06535e-09 -0.0108841)
(0.27587 -1.96541e-09 -0.00984473)
(0.280922 -1.8707e-09 -0.00885088)
(0.285465 -1.78217e-09 -0.0079035)
(0.289522 -1.70222e-09 -0.0070031)
(0.293115 -1.63035e-09 -0.00614985)
(0.296268 -1.56705e-09 -0.00534354)
(0.299005 -1.50899e-09 -0.00458367)
(0.301349 -1.45806e-09 -0.00386949)
(0.303322 -1.41475e-09 -0.0032)
(0.304947 -1.37953e-09 -0.00257404)
(0.306246 -1.35193e-09 -0.00199026)
(0.30724 -1.33241e-09 -0.00144721)
(0.307951 -1.32004e-09 -0.000943335)
(0.308397 -1.30719e-09 -0.000476978)
(0.308598 -1.30242e-09 -4.64408e-05)
(0.308572 -1.30718e-09 0.000350054)
(0.308337 -1.31242e-09 0.000714328)
(0.307909 -1.3186e-09 0.00104816)
(0.307304 -1.32526e-09 0.0013533)
(0.306537 -1.33002e-09 0.00163147)
(0.305622 -1.33573e-09 0.00188437)
(0.304571 -1.33906e-09 0.00211363)
(0.303397 -1.34096e-09 0.00232084)
(0.302112 -1.34001e-09 0.00250755)
(0.300726 -1.33858e-09 0.00267523)
(0.299249 -1.33382e-09 0.00282528)
(0.29769 -1.32716e-09 0.00295905)
(0.296059 -1.32193e-09 0.00307781)
(0.294362 -1.31193e-09 0.00318276)
(0.292608 -1.30194e-09 0.00327503)
(0.290802 -1.29337e-09 0.00335568)
(0.288951 -1.28338e-09 0.0034257)
(0.287062 -1.27338e-09 0.00348601)
(0.285138 -1.26482e-09 0.00353747)
(0.283184 -1.25435e-09 0.00358088)
(0.281206 -1.24531e-09 0.00361698)
(0.279206 -1.23674e-09 0.00364646)
(0.277189 -1.22722e-09 0.00366994)
(0.275158 -1.21914e-09 0.00368801)
(0.273115 -1.21057e-09 0.0037012)
(0.271064 -1.20486e-09 0.00371)
(0.269006 -1.2001e-09 0.00371486)
(0.266945 -1.19392e-09 0.00371621)
(0.264881 -1.18773e-09 0.00371441)
(0.262817 -1.1825e-09 0.00370982)
(0.260754 -1.17964e-09 0.00370276)
(0.258693 -1.17536e-09 0.00369352)
(0.256636 -1.17489e-09 0.00368238)
(0.254585 -1.17299e-09 0.00366957)
(0.252538 -1.17204e-09 0.00365534)
(0.250499 -1.17061e-09 0.00363988)
(0.248466 -1.17061e-09 0.0036234)
(0.246442 -1.17157e-09 0.00360607)
(0.244426 -1.17109e-09 0.00358806)
(0.242418 -1.17252e-09 0.00356951)
(0.24042 -1.17157e-09 0.00355058)
(0.23843 -1.17348e-09 0.0035314)
(0.236451 -1.17396e-09 0.00351208)
(0.23448 -1.17586e-09 0.00349275)
(0.23252 -1.17824e-09 0.00347352)
(0.230569 -1.17967e-09 0.00345447)
(0.228627 -1.18205e-09 0.00343572)
(0.226694 -1.18301e-09 0.00341734)
(0.224771 -1.18396e-09 0.00339943)
(0.222857 -1.18539e-09 0.00338207)
(0.220951 -1.18682e-09 0.00336533)
(0.219053 -1.18777e-09 0.00334928)
(0.217163 -1.18825e-09 0.003334)
(0.21528 -1.18968e-09 0.00331956)
(0.213404 -1.19064e-09 0.00330601)
(0.211535 -1.19254e-09 0.00329341)
(0.209672 -1.19397e-09 0.00328184)
(0.207814 -1.1935e-09 0.00327134)
(0.205961 -1.19493e-09 0.00326197)
(0.204112 -1.1935e-09 0.00325378)
(0.202267 -1.19303e-09 0.00324682)
(0.200424 -1.19255e-09 0.00324115)
(0.198584 -1.1916e-09 0.00323682)
(0.196745 -1.18923e-09 0.00323386)
(0.194907 -1.1897e-09 0.00323233)
(0.193068 -1.18685e-09 0.00323227)
(0.191229 -1.18447e-09 0.00323373)
(0.189387 -1.18257e-09 0.00323674)
(0.187543 -1.18114e-09 0.00324136)
(0.185696 -1.17972e-09 0.00324761)
(0.183844 -1.17686e-09 0.00325555)
(0.181987 -1.17449e-09 0.0032652)
(0.180123 -1.17211e-09 0.0032766)
(0.178253 -1.16973e-09 0.0032898)
(0.176374 -1.1664e-09 0.00330482)
(0.174486 -1.1645e-09 0.0033217)
(0.172587 -1.16307e-09 0.00334047)
(0.170677 -1.16165e-09 0.00336117)
(0.168755 -1.15784e-09 0.00338381)
(0.16682 -1.15641e-09 0.00340842)
(0.16487 -1.15451e-09 0.00343504)
(0.162905 -1.15261e-09 0.00346369)
(0.160923 -1.15071e-09 0.00349438)
(0.158923 -1.14928e-09 0.00352713)
(0.156905 -1.15023e-09 0.00356196)
(0.154867 -1.1469e-09 0.00359888)
(0.152807 -1.14833e-09 0.00363791)
(0.150726 -1.15119e-09 0.00367904)
(0.148621 -1.15167e-09 0.00372229)
(0.146491 -1.15357e-09 0.00376764)
(0.144337 -1.15452e-09 0.0038151)
(0.142155 -1.15881e-09 0.00386465)
(0.139946 -1.16071e-09 0.00391629)
(0.137709 -1.165e-09 0.00396998)
(0.135441 -1.17071e-09 0.00402571)
(0.133143 -1.17737e-09 0.00408344)
(0.130812 -1.18594e-09 0.00414314)
(0.128449 -1.1926e-09 0.00420476)
(0.126052 -1.20402e-09 0.00426825)
(0.123621 -1.21402e-09 0.00433355)
(0.121154 -1.22306e-09 0.00440059)
(0.11865 -1.23543e-09 0.00446929)
(0.116109 -1.24495e-09 0.00453957)
(0.11353 -1.25733e-09 0.00461133)
(0.110913 -1.2697e-09 0.00468447)
(0.108256 -1.28398e-09 0.00475885)
(0.10556 -1.29493e-09 0.00483436)
(0.102824 -1.30873e-09 0.00491084)
(0.100047 -1.3192e-09 0.00498813)
(0.0972291 -1.33157e-09 0.00506606)
(0.0943706 -1.34585e-09 0.00514443)
(0.0914713 -1.35822e-09 0.00522302)
(0.0885313 -1.37155e-09 0.00530161)
(0.0855508 -1.38773e-09 0.00537993)
(0.0825303 -1.40486e-09 0.00545771)
(0.0794702 -1.4258e-09 0.00553463)
(0.0763715 -1.44865e-09 0.00561035)
(0.073235 -1.4753e-09 0.0056845)
(0.0700619 -1.50956e-09 0.00575666)
(0.0668537 -1.5543e-09 0.00582639)
(0.0636121 -1.60855e-09 0.00589317)
(0.060339 -1.67613e-09 0.00595645)
(0.0570368 -1.75608e-09 0.00601562)
(0.0537081 -1.8446e-09 0.00606997)
(0.0503559 -1.95215e-09 0.00611874)
(0.0469837 -2.06732e-09 0.00616108)
(0.0435955 -2.19011e-09 0.006196)
(0.0401958 -2.31289e-09 0.00622243)
(0.0367896 -2.42711e-09 0.00623914)
(0.0333826 -2.52229e-09 0.00624472)
(0.0299814 -2.59367e-09 0.0062376)
(0.0265932 -2.62889e-09 0.00621596)
(0.0232264 -2.62984e-09 0.00617772)
(0.0198904 -2.607e-09 0.00612047)
(0.0165957 -2.5794e-09 0.00604139)
(0.0133542 -2.57083e-09 0.00593695)
(0.0101801 -2.62508e-09 0.00580342)
(0.00708783 -2.73359e-09 0.00563385)
(0.00409554 -2.87255e-09 0.00542267)
(0.00122214 -3.06863e-09 0.0051664)
(-0.00151124 -3.28564e-09 0.00485794)
(-0.00407561 -3.42175e-09 0.00448949)
(-0.00644465 -3.39034e-09 0.0040511)
(-0.00858606 -3.08957e-09 0.00353108)
(-0.0104644 -2.47851e-09 0.00291521)
(-0.0120402 -1.61236e-09 0.00218711)
(-0.0132705 -7.50975e-10 0.00132852)
(-0.01411 -4.25456e-10 0.000319801)
(-0.0145134 -1.32682e-09 -0.000853906)
(-0.0144356 -3.69492e-09 -0.00219876)
(-0.0138447 -5.96783e-09 -0.00370077)
(-0.0127292 -3.67588e-09 -0.00528854)
(-0.0111147 6.29333e-09 -0.00675785)
(-0.00904109 2.23482e-09 -0.00763443)
(-0.00645003 -2.55922e-08 -0.00668633)
(-0.00390637 -3.05418e-07 -0.0020524)
(-0.013652 -3.16682e-08 0.0398319)
(-0.0198976 -7.72475e-09 0.0254328)
(-0.019826 8.80257e-09 0.0105607)
(-0.0160207 1.18046e-08 -0.00247816)
(-0.00896902 1.25794e-08 -0.0124048)
(0.000671988 7.80029e-09 -0.0194345)
(0.0123328 -7.68055e-10 -0.0241933)
(0.0254344 -9.08703e-09 -0.0272828)
(0.0395531 -1.40432e-08 -0.0291064)
(0.0542861 -1.47951e-08 -0.0299922)
(0.0693548 -1.25117e-08 -0.0302468)
(0.0845057 -8.94045e-09 -0.0300462)
(0.0995534 -5.40726e-09 -0.0295178)
(0.114352 -2.69931e-09 -0.0287504)
(0.128791 -1.04788e-09 -0.0278084)
(0.142784 -3.35912e-10 -0.0267396)
(0.156267 -2.91173e-10 -0.0255804)
(0.169191 -6.27642e-10 -0.0243588)
(0.181522 -1.10831e-09 -0.0230967)
(0.193235 -1.58327e-09 -0.0218117)
(0.204316 -1.96876e-09 -0.020518)
(0.214756 -2.23479e-09 -0.0192272)
(0.224554 -2.38375e-09 -0.0179486)
(0.233712 -2.44086e-09 -0.01669)
(0.242238 -2.42515e-09 -0.0154579)
(0.250144 -2.3609e-09 -0.0142574)
(0.257442 -2.27237e-09 -0.0130928)
(0.26415 -2.171e-09 -0.0119674)
(0.270286 -2.06535e-09 -0.0108841)
(0.27587 -1.9654e-09 -0.00984475)
(0.280922 -1.87069e-09 -0.0088509)
(0.285465 -1.78217e-09 -0.00790352)
(0.289521 -1.70221e-09 -0.00700312)
(0.293115 -1.63035e-09 -0.00614987)
(0.296268 -1.56705e-09 -0.00534356)
(0.299005 -1.50898e-09 -0.00458369)
(0.301349 -1.45806e-09 -0.00386951)
(0.303322 -1.41475e-09 -0.00320002)
(0.304947 -1.37953e-09 -0.00257406)
(0.306246 -1.35192e-09 -0.00199028)
(0.30724 -1.33241e-09 -0.00144724)
(0.30795 -1.32003e-09 -0.000943358)
(0.308397 -1.30718e-09 -0.000477001)
(0.308598 -1.30242e-09 -4.64645e-05)
(0.308572 -1.30718e-09 0.00035003)
(0.308337 -1.31241e-09 0.000714304)
(0.307909 -1.3186e-09 0.00104813)
(0.307304 -1.32526e-09 0.00135327)
(0.306537 -1.33002e-09 0.00163145)
(0.305621 -1.33573e-09 0.00188434)
(0.304571 -1.33906e-09 0.0021136)
(0.303397 -1.34096e-09 0.00232082)
(0.302112 -1.34001e-09 0.00250753)
(0.300726 -1.33858e-09 0.0026752)
(0.299249 -1.33382e-09 0.00282526)
(0.29769 -1.32716e-09 0.00295903)
(0.296059 -1.32192e-09 0.00307779)
(0.294362 -1.31193e-09 0.00318274)
(0.292608 -1.30194e-09 0.00327501)
(0.290802 -1.29337e-09 0.00335566)
(0.288951 -1.28338e-09 0.00342567)
(0.287061 -1.27338e-09 0.00348598)
(0.285137 -1.26482e-09 0.00353744)
(0.283184 -1.25435e-09 0.00358086)
(0.281206 -1.24531e-09 0.00361696)
(0.279206 -1.23674e-09 0.00364644)
(0.277189 -1.22722e-09 0.00366992)
(0.275158 -1.21913e-09 0.00368799)
(0.273115 -1.21057e-09 0.00370117)
(0.271064 -1.20486e-09 0.00370997)
(0.269006 -1.2001e-09 0.00371484)
(0.266945 -1.19392e-09 0.00371618)
(0.264881 -1.18773e-09 0.00371438)
(0.262817 -1.1825e-09 0.0037098)
(0.260754 -1.17964e-09 0.00370274)
(0.258693 -1.17536e-09 0.0036935)
(0.256636 -1.17489e-09 0.00368235)
(0.254584 -1.17298e-09 0.00366955)
(0.252538 -1.17203e-09 0.00365532)
(0.250499 -1.17061e-09 0.00363986)
(0.248466 -1.17061e-09 0.00362338)
(0.246442 -1.17156e-09 0.00360605)
(0.244425 -1.17109e-09 0.00358804)
(0.242418 -1.17252e-09 0.00356949)
(0.24042 -1.17157e-09 0.00355056)
(0.23843 -1.17348e-09 0.00353138)
(0.236451 -1.17395e-09 0.00351206)
(0.23448 -1.17586e-09 0.00349273)
(0.23252 -1.17824e-09 0.00347349)
(0.230569 -1.17967e-09 0.00345445)
(0.228627 -1.18205e-09 0.0034357)
(0.226694 -1.18301e-09 0.00341732)
(0.224771 -1.18396e-09 0.00339941)
(0.222857 -1.18539e-09 0.00338205)
(0.22095 -1.18682e-09 0.00336531)
(0.219053 -1.18777e-09 0.00334926)
(0.217163 -1.18825e-09 0.00333398)
(0.21528 -1.18968e-09 0.00331954)
(0.213404 -1.19063e-09 0.00330599)
(0.211535 -1.19254e-09 0.00329339)
(0.209672 -1.19397e-09 0.00328182)
(0.207814 -1.1935e-09 0.00327132)
(0.205961 -1.19493e-09 0.00326195)
(0.204112 -1.1935e-09 0.00325376)
(0.202267 -1.19303e-09 0.0032468)
(0.200424 -1.19255e-09 0.00324113)
(0.198584 -1.1916e-09 0.00323679)
(0.196745 -1.18922e-09 0.00323384)
(0.194906 -1.1897e-09 0.00323231)
(0.193068 -1.18685e-09 0.00323225)
(0.191229 -1.18447e-09 0.00323371)
(0.189387 -1.18257e-09 0.00323672)
(0.187543 -1.18114e-09 0.00324134)
(0.185696 -1.17972e-09 0.00324759)
(0.183844 -1.17686e-09 0.00325553)
(0.181987 -1.17448e-09 0.00326518)
(0.180123 -1.17211e-09 0.00327658)
(0.178253 -1.16973e-09 0.00328978)
(0.176374 -1.1664e-09 0.0033048)
(0.174486 -1.1645e-09 0.00332168)
(0.172587 -1.16307e-09 0.00334045)
(0.170677 -1.16164e-09 0.00336115)
(0.168755 -1.15784e-09 0.00338379)
(0.16682 -1.15641e-09 0.0034084)
(0.16487 -1.15451e-09 0.00343502)
(0.162905 -1.15261e-09 0.00346367)
(0.160923 -1.15071e-09 0.00349436)
(0.158923 -1.14928e-09 0.00352711)
(0.156905 -1.15023e-09 0.00356194)
(0.154867 -1.1469e-09 0.00359886)
(0.152807 -1.14833e-09 0.00363789)
(0.150726 -1.15119e-09 0.00367902)
(0.148621 -1.15166e-09 0.00372227)
(0.146491 -1.15357e-09 0.00376762)
(0.144337 -1.15452e-09 0.00381508)
(0.142155 -1.15881e-09 0.00386463)
(0.139946 -1.16071e-09 0.00391627)
(0.137709 -1.16499e-09 0.00396996)
(0.135441 -1.17071e-09 0.00402569)
(0.133143 -1.17737e-09 0.00408342)
(0.130812 -1.18594e-09 0.00414312)
(0.128449 -1.1926e-09 0.00420474)
(0.126052 -1.20402e-09 0.00426823)
(0.123621 -1.21402e-09 0.00433353)
(0.121154 -1.22306e-09 0.00440056)
(0.11865 -1.23543e-09 0.00446927)
(0.116109 -1.24495e-09 0.00453955)
(0.11353 -1.25733e-09 0.00461131)
(0.110913 -1.2697e-09 0.00468444)
(0.108256 -1.28398e-09 0.00475883)
(0.10556 -1.29492e-09 0.00483433)
(0.102824 -1.30873e-09 0.00491081)
(0.100047 -1.3192e-09 0.00498811)
(0.0972291 -1.33157e-09 0.00506603)
(0.0943706 -1.34585e-09 0.0051444)
(0.0914714 -1.35822e-09 0.00522299)
(0.0885313 -1.37155e-09 0.00530158)
(0.0855508 -1.38773e-09 0.0053799)
(0.0825303 -1.40486e-09 0.00545768)
(0.0794702 -1.4258e-09 0.0055346)
(0.0763715 -1.44864e-09 0.00561032)
(0.073235 -1.47529e-09 0.00568447)
(0.0700619 -1.50956e-09 0.00575663)
(0.0668537 -1.5543e-09 0.00582636)
(0.0636121 -1.60855e-09 0.00589314)
(0.0603391 -1.67613e-09 0.00595642)
(0.0570368 -1.75608e-09 0.00601558)
(0.0537081 -1.8446e-09 0.00606994)
(0.0503559 -1.95215e-09 0.00611871)
(0.0469838 -2.06732e-09 0.00616104)
(0.0435956 -2.1901e-09 0.00619597)
(0.0401958 -2.31289e-09 0.0062224)
(0.0367896 -2.4271e-09 0.0062391)
(0.0333826 -2.52228e-09 0.00624468)
(0.0299814 -2.59367e-09 0.00623756)
(0.0265932 -2.62889e-09 0.00621592)
(0.0232264 -2.62984e-09 0.00617768)
(0.0198904 -2.60699e-09 0.00612043)
(0.0165957 -2.57939e-09 0.00604135)
(0.0133542 -2.57083e-09 0.00593691)
(0.0101801 -2.62508e-09 0.00580338)
(0.00708785 -2.73358e-09 0.0056338)
(0.00409555 -2.87255e-09 0.00542263)
(0.00122215 -3.06862e-09 0.00516635)
(-0.00151123 -3.28563e-09 0.00485789)
(-0.00407559 -3.42174e-09 0.00448944)
(-0.00644463 -3.39033e-09 0.00405105)
(-0.00858605 -3.08956e-09 0.00353103)
(-0.0104644 -2.4785e-09 0.00291516)
(-0.0120402 -1.61236e-09 0.00218706)
(-0.0132705 -7.50973e-10 0.00132846)
(-0.01411 -4.25456e-10 0.000319739)
(-0.0145134 -1.32682e-09 -0.000853976)
(-0.0144356 -3.69491e-09 -0.00219884)
(-0.0138447 -5.96782e-09 -0.00370085)
(-0.0127292 -3.67588e-09 -0.00528862)
(-0.0111147 6.29337e-09 -0.00675794)
(-0.00904124 2.23486e-09 -0.00763457)
(-0.00645035 -2.55922e-08 -0.00668657)
(-0.00390712 -3.05414e-07 -0.002053)
(-0.00533307 -9.52509e-09 0.0524251)
(-0.00521231 -8.46549e-09 0.0247539)
(0.000139478 2.42825e-09 0.00463845)
(0.00729725 7.29688e-09 -0.0109386)
(0.0158936 1.00286e-08 -0.0227386)
(0.0257066 8.86928e-09 -0.03137)
(0.0366054 5.81292e-09 -0.0374508)
(0.0483951 2.90124e-09 -0.041544)
(0.0608676 1.20983e-09 -0.0440994)
(0.0738244 9.752e-10 -0.0454784)
(0.0870766 1.80235e-09 -0.04598)
(0.100444 3.0088e-09 -0.0458215)
(0.113778 4.09627e-09 -0.0451655)
(0.126953 4.78017e-09 -0.044134)
(0.139869 5.00337e-09 -0.0428193)
(0.152443 4.84156e-09 -0.0412924)
(0.164612 4.42989e-09 -0.0396087)
(0.176325 3.89734e-09 -0.0378122)
(0.187543 3.34599e-09 -0.0359378)
(0.198239 2.83843e-09 -0.0340141)
(0.208392 2.40558e-09 -0.0320644)
(0.217989 2.05698e-09 -0.0301077)
(0.227023 1.78689e-09 -0.0281601)
(0.235494 1.5794e-09 -0.0262347)
(0.243403 1.42615e-09 -0.0243424)
(0.250758 1.30955e-09 -0.0224923)
(0.257566 1.22103e-09 -0.0206919)
(0.263842 1.15393e-09 -0.0189473)
(0.269598 1.09873e-09 -0.0172633)
(0.274851 1.05661e-09 -0.0156437)
(0.279618 1.02306e-09 -0.0140914)
(0.283918 9.9379e-10 -0.0126084)
(0.287769 9.71185e-10 -0.011196)
(0.291192 9.52387e-10 -0.0098548)
(0.294207 9.36921e-10 -0.00858486)
(0.296835 9.25262e-10 -0.00738576)
(0.299096 9.15268e-10 -0.0062566)
(0.30101 9.05036e-10 -0.00519612)
(0.302597 8.95994e-10 -0.00420271)
(0.303878 8.85524e-10 -0.00327452)
(0.30487 8.74341e-10 -0.00240943)
(0.305594 8.63871e-10 -0.00160516)