/*--------------------------------*- C++ -*----------------------------------*\
  =========                 |
  \\      /  F ield         | OpenFOAM: The Open Source CFD Toolbox
   \\    /   O peration     | Website:  https://openfoam.org
    \\  /    A nd           | Version:  8
     \\/     M anipulation  |
\*---------------------------------------------------------------------------*/
FoamFile
{
    version     2.0;
    format      ascii;
    class       volScalarField;
    location    "2000";
    object      alphat;
}
// * * * * * * * * * * * * * * * * * * * * * * * * * * * * * * * * * * * * * //

dimensions      [1 -1 -1 0 0 0 0];

internalField   nonuniform List<scalar> 
48000
(
5.92146e-05
6.56411e-05
8.03467e-05
9.1982e-05
0.000101548
0.000109541
0.000116485
0.000122829
0.000128561
0.000133857
0.000138795
0.000143433
0.000147813
0.00015197
0.00015593
0.000159712
0.000163332
0.000166805
0.000170139
0.000173344
0.000176426
0.000179391
0.000182244
0.000184989
0.000187629
0.000190169
0.000192609
0.000194954
0.000197206
0.000199366
0.000201436
0.00020342
0.000205318
0.000207133
0.000208866
0.000210519
0.000212095
0.000213594
0.00021502
0.000216373
0.000217656
0.00021887
0.000220017
0.0002211
0.000222119
0.000223077
0.000223975
0.000224815
0.000225598
0.000226331
0.000227017
0.000227651
0.000228237
0.000228774
0.000229265
0.000229711
0.000230113
0.000230474
0.000230795
0.000231077
0.000231322
0.000231531
0.000231704
0.000231845
0.000231953
0.000232029
0.000232076
0.000232094
0.000232084
0.000232047
0.000231983
0.000231895
0.000231783
0.000231647
0.000231488
0.000231308
0.000231107
0.000230885
0.000230644
0.000230383
0.000230103
0.000229806
0.000229491
0.000229159
0.000228811
0.000228446
0.000228066
0.00022767
0.000227259
0.000226833
0.000226394
0.00022594
0.000225472
0.00022499
0.000224495
0.000223987
0.000223466
0.000222932
0.000222385
0.000221825
0.000221253
0.000220668
0.00022007
0.00021946
0.000218838
0.000218203
0.000217556
0.000216897
0.000216224
0.00021554
0.000214842
0.000214132
0.000213409
0.000212673
0.000211924
0.000211162
0.000210387
0.000209598
0.000208795
0.000207979
0.000207148
0.000206303
0.000205444
0.00020457
0.000203682
0.000202778
0.000201859
0.000200924
0.000199973
0.000199007
0.000198024
0.000197024
0.000196008
0.000194974
0.000193924
0.000192855
0.000191768
0.000190664
0.00018954
0.000188398
0.000187237
0.000186057
0.000184857
0.000183637
0.000182396
0.000181136
0.000179854
0.000178552
0.000177228
0.000175883
0.000174515
0.000173126
0.000171714
0.00017028
0.000168822
0.000167341
0.000165837
0.000164309
0.000162756
0.00016118
0.000159578
0.000157951
0.000156298
0.00015462
0.000152914
0.000151182
0.000149423
0.000147635
0.000145819
0.000143973
0.000142097
0.000140189
0.00013825
0.000136276
0.000134268
0.000132222
0.000130139
0.000128014
0.000125846
0.000123632
0.000121367
0.000119049
0.000116674
0.000114238
0.000111749
0.000109196
0.000106547
0.000103789
0.000100903
9.78635e-05
9.46388e-05
9.11847e-05
8.74424e-05
8.33799e-05
7.88565e-05
7.36854e-05
6.77448e-05
6.2701e-05
0.000424737
0.000209347
5.92316e-05
6.56583e-05
8.03476e-05
9.19827e-05
0.000101549
0.000109542
0.000116485
0.000122829
0.000128562
0.000133858
0.000138796
0.000143433
0.000147814
0.000151971
0.00015593
0.000159712
0.000163333
0.000166805
0.00017014
0.000173344
0.000176426
0.000179391
0.000182244
0.000184989
0.00018763
0.000190169
0.00019261
0.000194955
0.000197206
0.000199366
0.000201437
0.00020342
0.000205318
0.000207133
0.000208866
0.000210519
0.000212095
0.000213594
0.00021502
0.000216373
0.000217656
0.00021887
0.000220017
0.0002211
0.000222119
0.000223077
0.000223975
0.000224815
0.000225598
0.000226331
0.000227017
0.000227651
0.000228237
0.000228774
0.000229265
0.000229711
0.000230113
0.000230474
0.000230795
0.000231077
0.000231322
0.00023153
0.000231704
0.000231845
0.000231952
0.000232029
0.000232076
0.000232094
0.000232084
0.000232046
0.000231983
0.000231895
0.000231783
0.000231647
0.000231488
0.000231308
0.000231107
0.000230885
0.000230643
0.000230383
0.000230103
0.000229806
0.000229491
0.000229159
0.000228811
0.000228446
0.000228065
0.00022767
0.000227259
0.000226833
0.000226394
0.000225939
0.000225472
0.00022499
0.000224495
0.000223987
0.000223466
0.000222932
0.000222385
0.000221825
0.000221252
0.000220668
0.00022007
0.00021946
0.000218838
0.000218203
0.000217556
0.000216897
0.000216224
0.00021554
0.000214842
0.000214132
0.000213409
0.000212673
0.000211924
0.000211162
0.000210387
0.000209598
0.000208795
0.000207978
0.000207148
0.000206303
0.000205444
0.00020457
0.000203681
0.000202778
0.000201858
0.000200924
0.000199973
0.000199007
0.000198024
0.000197024
0.000196008
0.000194974
0.000193923
0.000192855
0.000191768
0.000190664
0.00018954
0.000188398
0.000187237
0.000186057
0.000184857
0.000183637
0.000182396
0.000181136
0.000179854
0.000178552
0.000177228
0.000175883
0.000174515
0.000173126
0.000171714
0.00017028
0.000168822
0.000167341
0.000165837
0.000164309
0.000162756
0.000161179
0.000159578
0.000157951
0.000156298
0.00015462
0.000152914
0.000151182
0.000149423
0.000147635
0.000145819
0.000143973
0.000142097
0.000140189
0.00013825
0.000136276
0.000134268
0.000132222
0.000130139
0.000128014
0.000125846
0.000123632
0.000121367
0.000119049
0.000116674
0.000114238
0.000111749
0.000109196
0.000106547
0.000103789
0.000100903
9.78635e-05
9.46388e-05
9.11848e-05
8.74425e-05
8.33799e-05
7.88559e-05
7.3682e-05
6.7731e-05
6.26651e-05
0.000424576
0.000208824
5.64116e-05
0.000415135
0.000659062
0.0008284
0.000955857
0.00106028
0.00114965
0.00122773
0.00129779
0.00136144
0.00141988
0.00147402
0.00152451
0.00157187
0.00161651
0.00165873
0.00169879
0.00173691
0.00177324
0.00180794
0.00184111
0.00187286
0.00190326
0.0019324
0.00196033
0.00198711
0.00201279
0.00203741
0.002061
0.00208361
0.00210526
0.00212598
0.00214581
0.00216477
0.00218288
0.00220017
0.00221667
0.00223239
0.00224735
0.00226159
0.00227511
0.00228795
0.00230011
0.00231162
0.0023225
0.00233277
0.00234243
0.00235151
0.00235998
0.00236778
0.00237498
0.00238166
0.00238786
0.00239359
0.00239887
0.00240374
0.00240818
0.00241224
0.0024159
0.0024192
0.00242214
0.00242473
0.00242699
0.00242893
0.00243055
0.00243187
0.00243289
0.00243363
0.0024341
0.0024343
0.00243425
0.00243395
0.0024334
0.00243262
0.00243161
0.00243038
0.00242894
0.00242729
0.00242544
0.00242338
0.00242114
0.00241871
0.00241609
0.0024133
0.00241033
0.00240719
0.00240388
0.00240041
0.00239678
0.00239299
0.00238905
0.00238495
0.0023807
0.0023763
0.00237175
0.00236706
0.00236222
0.00235724
0.00235212
0.00234686
0.00234145
0.00233591
0.00233022
0.0023244
0.00231843
0.00231233
0.00230609
0.0022997
0.00229318
0.00228651
0.0022797
0.00227274
0.00226564
0.0022584
0.002251
0.00224346
0.00223577
0.00222792
0.00221992
0.00221177
0.00220345
0.00219498
0.00218634
0.00217754
0.00216857
0.00215943
0.00215013
0.00214064
0.00213098
0.00212114
0.00211112
0.00210092
0.00209052
0.00207994
0.00206916
0.00205819
0.00204702
0.00203565
0.00202407
0.00201229
0.0020003
0.00198809
0.00197567
0.00196303
0.00195017
0.00193708
0.00192377
0.00191023
0.00189645
0.00188244
0.0018682
0.0018537
0.00183897
0.00182399
0.00180875
0.00179326
0.00177752
0.00176151
0.00174524
0.0017287
0.00171189
0.00169479
0.00167742
0.00165976
0.00164181
0.00162355
0.00160499
0.00158611
0.00156691
0.00154737
0.00152749
0.00150724
0.00148663
0.00146562
0.0014442
0.00142235
0.00140003
0.00137723
0.00135389
0.00132999
0.00130546
0.00128023
0.00125422
0.00122729
0.00119925
0.00116998
0.00113943
0.00110744
0.00107375
0.00103802
0.000999756
0.000958215
0.000912141
0.00085905
0.000797461
0.000723624
0.000630188
0.000499836
0.000287
3.93394e-05
5.64262e-05
0.000415168
0.000659116
0.000828443
0.000955896
0.00106032
0.00114968
0.00122777
0.00129783
0.00136148
0.00141992
0.00147405
0.00152454
0.0015719
0.00161654
0.00165876
0.00169882
0.00173694
0.00177327
0.00180797
0.00184114
0.00187288
0.00190329
0.00193243
0.00196036
0.00198714
0.00201281
0.00203743
0.00206102
0.00208363
0.00210528
0.002126
0.00214583
0.00216479
0.0021829
0.00220019
0.00221669
0.00223241
0.00224737
0.00226161
0.00227513
0.00228796
0.00230013
0.00231164
0.00232252
0.00233278
0.00234245
0.00235152
0.00236
0.00236779
0.002375
0.00238168
0.00238787
0.0023936
0.00239889
0.00240375
0.0024082
0.00241225
0.00241592
0.00241921
0.00242215
0.00242475
0.002427
0.00242894
0.00243056
0.00243188
0.0024329
0.00243365
0.00243411
0.00243432
0.00243426
0.00243396
0.00243341
0.00243263
0.00243162
0.00243039
0.00242895
0.0024273
0.00242545
0.00242339
0.00242115
0.00241872
0.0024161
0.00241331
0.00241034
0.0024072
0.00240389
0.00240042
0.00239679
0.002393
0.00238906
0.00238496
0.00238071
0.00237631
0.00237176
0.00236707
0.00236223
0.00235725
0.00235213
0.00234687
0.00234146
0.00233592
0.00233023
0.00232441
0.00231844
0.00231234
0.0023061
0.00229971
0.00229319
0.00228652
0.00227971
0.00227275
0.00226565
0.00225841
0.00225101
0.00224347
0.00223578
0.00222793
0.00221993
0.00221177
0.00220346
0.00219499
0.00218635
0.00217755
0.00216858
0.00215944
0.00215013
0.00214065
0.00213099
0.00212115
0.00211113
0.00210092
0.00209053
0.00207995
0.00206917
0.0020582
0.00204703
0.00203566
0.00202408
0.0020123
0.0020003
0.0019881
0.00197568
0.00196304
0.00195018
0.00193709
0.00192378
0.00191024
0.00189646
0.00188245
0.0018682
0.00185371
0.00183898
0.00182399
0.00180876
0.00179327
0.00177753
0.00176152
0.00174525
0.00172871
0.00171189
0.0016948
0.00167743
0.00165977
0.00164181
0.00162356
0.001605
0.00158612
0.00156691
0.00154738
0.00152749
0.00150725
0.00148663
0.00146563
0.00144421
0.00142235
0.00140004
0.00137723
0.0013539
0.00133
0.00130546
0.00128024
0.00125422
0.0012273
0.00119925
0.00116999
0.00113944
0.00110745
0.00107376
0.00103803
0.000999763
0.000958221
0.000912147
0.000859054
0.000797462
0.000723623
0.000630226
0.000500091
0.000286925
3.93151e-05
6.87748e-05
0.000627191
0.00111598
0.00148144
0.00177131
0.00201247
0.00221978
0.00240194
0.0025648
0.00271226
0.00284708
0.00297133
0.00308658
0.00319406
0.00329475
0.00338944
0.00347877
0.00356327
0.0036434
0.00371954
0.00379199
0.00386103
0.00392691
0.00398981
0.00404992
0.00410738
0.00416235
0.00421494
0.00426525
0.00431339
0.00435944
0.00440349
0.00444562
0.00448588
0.00452435
0.00456109
0.00459616
0.00462962
0.00466151
0.00469188
0.00472079
0.00474828
0.0047744
0.00479918
0.00482268
0.00484492
0.00486593
0.00488575
0.00490438
0.00492179
0.00493803
0.00495322
0.00496742
0.00498066
0.00499299
0.00500445
0.00501507
0.00502488
0.00503391
0.00504217
0.00504971
0.00505654
0.00506269
0.00506818
0.00507302
0.00507725
0.00508088
0.00508392
0.0050864
0.00508834
0.00508975
0.00509064
0.00509103
0.00509094
0.00509037
0.00508935
0.00508787
0.00508597
0.00508364
0.00508089
0.00507774
0.0050742
0.00507027
0.00506596
0.00506128
0.00505624
0.00505085
0.0050451
0.00503901
0.00503258
0.00502581
0.00501872
0.0050113
0.00500356
0.00499551
0.00498713
0.00497845
0.00496945
0.00496014
0.00495053
0.00494061
0.00493039
0.00491986
0.00490902
0.00489788
0.00488643
0.00487468
0.00486261
0.00485024
0.00483756
0.00482456
0.00481125
0.00479762
0.00478367
0.00476939
0.00475479
0.00473986
0.00472459
0.00470898
0.00469303
0.00467673
0.00466009
0.00464308
0.00462572
0.00460798
0.00458988
0.0045714
0.00455254
0.00453329
0.00451365
0.0044936
0.00447316
0.0044523
0.00443102
0.00440932
0.00438719
0.00436462
0.00434161
0.00431815
0.00429424
0.00426986
0.00424502
0.00421969
0.00419389
0.0041676
0.0041408
0.00411351
0.0040857
0.00405737
0.00402852
0.00399913
0.0039692
0.00393872
0.00390767
0.00387606
0.00384387
0.00381108
0.0037777
0.0037437
0.00370908
0.00367382
0.00363791
0.00360133
0.00356406
0.00352609
0.00348739
0.00344794
0.00340772
0.00336669
0.00332483
0.0032821
0.00323845
0.00319384
0.00314822
0.00310154
0.00305371
0.00300465
0.00295429
0.0029025
0.00284916
0.00279411
0.00273716
0.00267807
0.00261655
0.00255224
0.00248476
0.00241372
0.0023385
0.00225831
0.0021721
0.00207843
0.00197526
0.00185961
0.00172706
0.00157214
0.00138663
0.00115696
0.000861278
0.000466724
5.16286e-05
6.87758e-05
0.000627236
0.00111605
0.00148152
0.00177139
0.00201255
0.00221986
0.00240202
0.00256489
0.00271234
0.00284716
0.00297141
0.00308666
0.00319414
0.00329483
0.00338951
0.00347884
0.00356334
0.00364347
0.0037196
0.00379205
0.00386109
0.00392696
0.00398986
0.00404997
0.00410743
0.0041624
0.00421498
0.00426529
0.00431343
0.00435948
0.00440353
0.00444565
0.00448591
0.00452438
0.00456112
0.00459619
0.00462964
0.00466153
0.0046919
0.00472081
0.0047483
0.00477442
0.0047992
0.00482269
0.00484493
0.00486595
0.00488577
0.00490439
0.0049218
0.00493805
0.00495324
0.00496743
0.00498067
0.004993
0.00500446
0.00501508
0.00502489
0.00503391
0.00504218
0.00504972
0.00505655
0.0050627
0.00506818
0.00507303
0.00507725
0.00508088
0.00508393
0.00508641
0.00508834
0.00508975
0.00509064
0.00509103
0.00509094
0.00509037
0.00508935
0.00508788
0.00508597
0.00508364
0.00508089
0.00507775
0.0050742
0.00507027
0.00506596
0.00506128
0.00505624
0.00505085
0.0050451
0.00503901
0.00503258
0.00502581
0.00501872
0.0050113
0.00500356
0.00499551
0.00498713
0.00497845
0.00496945
0.00496014
0.00495053
0.00494061
0.00493039
0.00491985
0.00490902
0.00489788
0.00488643
0.00487468
0.00486261
0.00485024
0.00483756
0.00482456
0.00481125
0.00479762
0.00478367
0.00476939
0.00475479
0.00473985
0.00472459
0.00470898
0.00469303
0.00467673
0.00466008
0.00464308
0.00462571
0.00460798
0.00458988
0.0045714
0.00455254
0.00453329
0.00451364
0.0044936
0.00447315
0.00445229
0.00443102
0.00440932
0.00438719
0.00436462
0.00434161
0.00431815
0.00429424
0.00426986
0.00424501
0.00421969
0.00419389
0.00416759
0.0041408
0.00411351
0.0040857
0.00405737
0.00402852
0.00399913
0.0039692
0.00393871
0.00390767
0.00387606
0.00384386
0.00381108
0.0037777
0.0037437
0.00370908
0.00367382
0.00363791
0.00360133
0.00356406
0.00352609
0.00348739
0.00344794
0.00340772
0.00336669
0.00332483
0.00328209
0.00323845
0.00319384
0.00314822
0.00310153
0.0030537
0.00300465
0.00295429
0.0029025
0.00284916
0.00279411
0.00273716
0.00267807
0.00261655
0.00255223
0.00248476
0.00241372
0.0023385
0.00225831
0.0021721
0.00207843
0.00197526
0.00185961
0.00172706
0.00157214
0.00138662
0.00115695
0.000861332
0.000466586
5.16557e-05
7.80913e-05
0.000751107
0.00141656
0.00194724
0.00238225
0.00275045
0.00307007
0.00335283
0.00360668
0.00383717
0.00404833
0.00424317
0.00442402
0.00459271
0.00475071
0.00489921
0.0050392
0.0051715
0.00529681
0.00541573
0.00552875
0.00563632
0.00573882
0.00583657
0.00592987
0.00601897
0.00610411
0.00618549
0.00626329
0.00633768
0.00640882
0.00647683
0.00654185
0.00660399
0.00666338
0.0067201
0.00677426
0.00682595
0.00687526
0.00692227
0.00696706
0.00700971
0.00705028
0.00708885
0.00712548
0.00716023
0.00719316
0.0072243
0.0072537
0.00728138
0.00730737
0.00733182
0.00735478
0.00737633
0.00739651
0.00741539
0.00743301
0.00744942
0.00746466
0.00747877
0.00749179
0.00750376
0.00751471
0.00752468
0.00753369
0.00754178
0.00754899
0.00755532
0.00756082
0.0075655
0.0075694
0.00757252
0.00757491
0.00757656
0.00757752
0.00757779
0.00757739
0.00757634
0.00757465
0.00757235
0.00756943
0.00756593
0.00756185
0.00755719
0.00755198
0.00754623
0.00753993
0.00753311
0.00752577
0.00751792
0.00750956
0.0075007
0.00749135
0.00748151
0.00747119
0.00746039
0.00744911
0.00743736
0.00742514
0.00741245
0.00739929
0.00738566
0.00737157
0.00735701
0.00734199
0.00732649
0.00731053
0.00729409
0.00727718
0.00725979
0.00724192
0.00722357
0.00720472
0.00718539
0.00716556
0.00714522
0.00712438
0.00710302
0.00708114
0.00705873
0.00703579
0.00701231
0.00698828
0.00696369
0.00693854
0.00691282
0.00688651
0.00685962
0.00683213
0.00680403
0.00677532
0.00674598
0.006716
0.00668538
0.0066541
0.00662216
0.00658954
0.00655624
0.00652223
0.00648753
0.0064521
0.00641594
0.00637904
0.00634138
0.00630296
0.00626376
0.00622377
0.00618298
0.00614137
0.00609892
0.00605563
0.00601148
0.00596645
0.00592053
0.0058737
0.00582593
0.00577722
0.00572754
0.00567686
0.00562516
0.00557242
0.00551861
0.0054637
0.00540764
0.00535042
0.00529198
0.00523227
0.00517126
0.00510889
0.00504508
0.00497979
0.00491291
0.00484438
0.00477409
0.00470192
0.00462775
0.00455143
0.00447279
0.00439161
0.00430767
0.00422068
0.00413031
0.00403613
0.00393767
0.00383433
0.00372543
0.00361012
0.00348731
0.00335562
0.00321323
0.0030577
0.00288579
0.00269313
0.00247377
0.00221957
0.00191994
0.00155945
0.00111755
0.00057568
5.96101e-05
7.8092e-05
0.000751141
0.00141663
0.00194733
0.00238236
0.00275057
0.00307019
0.00335296
0.00360681
0.0038373
0.00404845
0.00424329
0.00442414
0.00459282
0.00475082
0.00489932
0.0050393
0.0051716
0.00529691
0.00541582
0.00552884
0.00563641
0.0057389
0.00583665
0.00592994
0.00601904
0.00610418
0.00618556
0.00626336
0.00633774
0.00640887
0.00647688
0.0065419
0.00660404
0.00666342
0.00672014
0.0067743
0.00682599
0.0068753
0.0069223
0.00696709
0.00700974
0.00705031
0.00708888
0.00712551
0.00716026
0.00719318
0.00722432
0.00725372
0.00728139
0.00730739
0.00733183
0.00735479
0.00737634
0.00739652
0.0074154
0.00743302
0.00744942
0.00746466
0.00747877
0.00749179
0.00750376
0.00751471
0.00752468
0.00753369
0.00754179
0.00754899
0.00755532
0.00756082
0.0075655
0.00756939
0.00757252
0.0075749
0.00757656
0.00757752
0.00757778
0.00757738
0.00757633
0.00757465
0.00757234
0.00756943
0.00756592
0.00756184
0.00755719
0.00755198
0.00754622
0.00753993
0.0075331
0.00752576
0.00751791
0.00750955
0.00750069
0.00749134
0.0074815
0.00747118
0.00746038
0.0074491
0.00743735
0.00742513
0.00741244
0.00739928
0.00738565
0.00737156
0.007357
0.00734198
0.00732648
0.00731052
0.00729408
0.00727717
0.00725978
0.00724191
0.00722356
0.00720471
0.00718538
0.00716555
0.00714521
0.00712436
0.00710301
0.00708113
0.00705872
0.00703578
0.0070123
0.00698826
0.00696368
0.00693853
0.0069128
0.0068865
0.00685961
0.00683212
0.00680402
0.0067753
0.00674596
0.00671599
0.00668537
0.00665409
0.00662215
0.00658953
0.00655622
0.00652222
0.00648751
0.00645208
0.00641592
0.00637902
0.00634137
0.00630295
0.00626375
0.00622376
0.00618296
0.00614135
0.00609891
0.00605562
0.00601147
0.00596644
0.00592052
0.00587369
0.00582592
0.00577721
0.00572752
0.00567685
0.00562515
0.00557241
0.0055186
0.00546368
0.00540763
0.00535041
0.00529196
0.00523226
0.00517125
0.00510887
0.00504507
0.00497977
0.0049129
0.00484437
0.00477408
0.00470191
0.00462774
0.00455142
0.00447278
0.0043916
0.00430766
0.00422067
0.00413029
0.00403612
0.00393766
0.00383432
0.00372542
0.00361011
0.00348731
0.00335562
0.00321322
0.00305769
0.00288578
0.00269313
0.00247377
0.00221957
0.00191994
0.00155945
0.00111757
0.000575652
5.96156e-05
8.55533e-05
0.000838061
0.00163192
0.00229278
0.00284767
0.00332425
0.00374198
0.00411418
0.00445017
0.00475661
0.00503842
0.00529931
0.00554215
0.0057692
0.0059823
0.00618293
0.00637232
0.00655153
0.00672141
0.00688273
0.00703613
0.00718217
0.00732136
0.00745412
0.00758083
0.00770184
0.00781746
0.00792797
0.0080336
0.00813459
0.00823116
0.00832348
0.00841174
0.00849611
0.00857674
0.00865378
0.00872736
0.0087976
0.00886465
0.0089286
0.00898957
0.00904768
0.00910301
0.00915566
0.00920573
0.00925329
0.00929844
0.00934123
0.00938173
0.00942001
0.00945611
0.00949018
0.0095223
0.00955254
0.00958098
0.00960769
0.00963273
0.00965617
0.00967807
0.00969847
0.00971744
0.00973502
0.00975126
0.00976621
0.0097799
0.00979238
0.00980368
0.00981385
0.00982292
0.00983092
0.00983788
0.00984383
0.00984881
0.00985284
0.00985594
0.00985815
0.00985947
0.00985995
0.00985958
0.00985841
0.00985644
0.00985369
0.00985018
0.00984592
0.00984093
0.00983523
0.00982881
0.0098217
0.00981391
0.00980544
0.00979631
0.00978652
0.00977608
0.00976499
0.00975327
0.00974092
0.00972793
0.00971433
0.0097001
0.00968524
0.00966977
0.00965369
0.00963698
0.00961966
0.00960171
0.00958315
0.00956396
0.00954415
0.0095237
0.00950263
0.00948091
0.00945855
0.00943554
0.00941187
0.00938754
0.00936255
0.00933687
0.00931051
0.00928346
0.0092557
0.00922723
0.00919804
0.00916812
0.00913745
0.00910604
0.00907385
0.00904089
0.00900715
0.0089726
0.00893724
0.00890105
0.00886402
0.00882615
0.0087874
0.00874777
0.00870725
0.00866582
0.00862347
0.00858018
0.00853593
0.00849071
0.0084445
0.00839728
0.00834904
0.00829977
0.00824943
0.00819802
0.00814551
0.00809188
0.00803712
0.00798119
0.00792408
0.00786576
0.00780621
0.00774539
0.00768329
0.00761986
0.00755508
0.00748891
0.00742131
0.00735225
0.00728167
0.00720953
0.00713577
0.00706034
0.00698318
0.00690422
0.00682337
0.00674056
0.00665568
0.00656864
0.00647931
0.00638755
0.00629323
0.00619616
0.00609615
0.00599298
0.00588637
0.00577604
0.00566162
0.0055427
0.00541877
0.00528926
0.00515346
0.00501051
0.00485941
0.00469891
0.00452746
0.00434309
0.0041433
0.0039249
0.00368373
0.00341439
0.00310985
0.00276085
0.00235582
0.00187985
0.00131564
0.000656603
6.54382e-05
8.5554e-05
0.000838093
0.00163199
0.00229289
0.00284779
0.00332439
0.00374213
0.00411434
0.00445033
0.00475677
0.00503858
0.00529947
0.0055423
0.00576935
0.00598245
0.00618307
0.00637246
0.00655166
0.00672154
0.00688285
0.00703625
0.00718229
0.00732147
0.00745422
0.00758093
0.00770194
0.00781756
0.00792805
0.00803368
0.00813467
0.00823123
0.00832355
0.00841181
0.00849618
0.0085768
0.00865383
0.00872741
0.00879765
0.00886469
0.00892864
0.00898962
0.00904772
0.00910304
0.00915569
0.00920576
0.00925332
0.00929846
0.00934125
0.00938175
0.00942003
0.00945613
0.0094902
0.00952231
0.00955255
0.00958099
0.0096077
0.00963274
0.00965618
0.00967808
0.00969848
0.00971745
0.00973503
0.00975127
0.00976621
0.0097799
0.00979238
0.00980368
0.00981385
0.00982292
0.00983091
0.00983788
0.00984383
0.00984881
0.00985283
0.00985594
0.00985814
0.00985947
0.00985994
0.00985958
0.0098584
0.00985643
0.00985368
0.00985017
0.00984591
0.00984092
0.00983522
0.0098288
0.00982169
0.0098139
0.00980543
0.0097963
0.00978651
0.00977607
0.00976498
0.00975326
0.00974091
0.00972792
0.00971431
0.00970008
0.00968523
0.00966976
0.00965367
0.00963697
0.00961965
0.0096017
0.00958314
0.00956395
0.00954413
0.00952369
0.00950261
0.00948089
0.00945853
0.00943552
0.00941186
0.00938753
0.00936253
0.00933686
0.0093105
0.00928344
0.00925569
0.00922722
0.00919803
0.0091681
0.00913744
0.00910602
0.00907384
0.00904088
0.00900713
0.00897258
0.00893722
0.00890103
0.00886401
0.00882613
0.00878738
0.00874776
0.00870724
0.00866581
0.00862345
0.00858016
0.00853591
0.00849069
0.00844448
0.00839726
0.00834903
0.00829975
0.00824942
0.008198
0.00814549
0.00809187
0.0080371
0.00798118
0.00792406
0.00786575
0.00780619
0.00774538
0.00768327
0.00761984
0.00755506
0.00748889
0.00742129
0.00735223
0.00728165
0.00720951
0.00713575
0.00706033
0.00698317
0.0069042
0.00682335
0.00674054
0.00665566
0.00656862
0.00647929
0.00638754
0.00629321
0.00619615
0.00609614
0.00599296
0.00588636
0.00577602
0.0056616
0.00554268
0.00541876
0.00528925
0.00515344
0.0050105
0.0048594
0.0046989
0.00452744
0.00434307
0.00414329
0.00392489
0.00368372
0.00341439
0.00310985
0.00276085
0.00235582
0.00187985
0.00131565
0.000656597
6.5439e-05
9.18891e-05
0.000907794
0.00179957
0.00256276
0.00321496
0.00378178
0.00428283
0.00473224
0.00514014
0.00551394
0.00585915
0.00617996
0.00647962
0.0067607
0.00702527
0.00727501
0.00751133
0.0077354
0.00794822
0.00815063
0.00834338
0.00852712
0.00870241
0.00886976
0.00902962
0.00918238
0.00932841
0.00946804
0.00960158
0.0097293
0.00985145
0.00996827
0.01008
0.0101868
0.0102889
0.0103865
0.0104797
0.0105688
0.0106538
0.0107349
0.0108123
0.0108861
0.0109565
0.0110234
0.0110872
0.0111478
0.0112054
0.01126
0.0113119
0.011361
0.0114074
0.0114514
0.0114929
0.011532
0.011569
0.0116038
0.0116365
0.0116672
0.011696
0.011723
0.0117482
0.0117716
0.0117934
0.0118136
0.0118323
0.0118495
0.0118652
0.0118795
0.0118924
0.0119041
0.0119145
0.0119236
0.0119315
0.0119383
0.0119439
0.0119484
0.0119519
0.0119543
0.0119556
0.011956
0.0119554
0.0119539
0.0119514
0.011948
0.0119437
0.0119385
0.0119325
0.0119256
0.0119179
0.0119093
0.0118999
0.0118898
0.0118788
0.011867
0.0118545
0.0118412
0.0118271
0.0118122
0.0117966
0.0117802
0.0117631
0.0117452
0.0117265
0.0117071
0.011687
0.011666
0.0116443
0.0116218
0.0115986
0.0115745
0.0115497
0.0115241
0.0114977
0.0114705
0.0114424
0.0114136
0.0113839
0.0113533
0.0113219
0.0112897
0.0112565
0.0112225
0.0111875
0.0111517
0.0111149
0.0110771
0.0110384
0.0109987
0.010958
0.0109163
0.0108736
0.0108298
0.010785
0.0107391
0.0106921
0.010644
0.0105947
0.0105443
0.0104927
0.0104399
0.0103859
0.0103307
0.0102742
0.0102164
0.0101573
0.0100969
0.0100351
0.0099719
0.0099073
0.00984126
0.00977374
0.00970472
0.00963416
0.00956202
0.00948826
0.00941285
0.00933575
0.0092569
0.00917626
0.00909378
0.0090094
0.00892306
0.00883468
0.00874421
0.00865155
0.00855663
0.00845934
0.00835959
0.00825725
0.00815219
0.00804427
0.00793334
0.0078192
0.00770165
0.00758046
0.00745536
0.00732605
0.00719219
0.00705336
0.00690909
0.00675883
0.00660194
0.00643763
0.006265
0.00608295
0.00589015
0.005685
0.00546554
0.00522931
0.00497327
0.00469361
0.00438552
0.00404295
0.00365827
0.00322195
0.00272223
0.0021455
0.00147804
0.000722963
7.03876e-05
9.18899e-05
0.000907827
0.00179965
0.00256288
0.0032151
0.00378193
0.004283
0.00473242
0.00514032
0.00551412
0.00585933
0.00618014
0.0064798
0.00676088
0.00702545
0.00727519
0.0075115
0.00773556
0.00794837
0.00815078
0.00834353
0.00852726
0.00870255
0.00886989
0.00902974
0.0091825
0.00932852
0.00946815
0.00960168
0.00972939
0.00985154
0.00996836
0.0100801
0.0101869
0.010289
0.0103866
0.0104798
0.0105688
0.0106539
0.010735
0.0108124
0.0108862
0.0109565
0.0110235
0.0110872
0.0111478
0.0112054
0.0112601
0.0113119
0.011361
0.0114075
0.0114514
0.0114929
0.011532
0.011569
0.0116038
0.0116365
0.0116672
0.011696
0.011723
0.0117482
0.0117716
0.0117934
0.0118136
0.0118323
0.0118495
0.0118652
0.0118795
0.0118924
0.0119041
0.0119145
0.0119236
0.0119315
0.0119383
0.0119439
0.0119484
0.0119519
0.0119543
0.0119556
0.011956
0.0119554
0.0119539
0.0119514
0.011948
0.0119437
0.0119385
0.0119325
0.0119256
0.0119179
0.0119093
0.0118999
0.0118898
0.0118788
0.011867
0.0118545
0.0118412
0.0118271
0.0118122
0.0117966
0.0117802
0.0117631
0.0117452
0.0117265
0.0117071
0.0116869
0.011666
0.0116443
0.0116218
0.0115986
0.0115745
0.0115497
0.0115241
0.0114977
0.0114705
0.0114424
0.0114136
0.0113839
0.0113533
0.0113219
0.0112896
0.0112565
0.0112225
0.0111875
0.0111516
0.0111148
0.0110771
0.0110384
0.0109987
0.010958
0.0109163
0.0108736
0.0108298
0.010785
0.0107391
0.0106921
0.010644
0.0105947
0.0105443
0.0104927
0.0104399
0.0103859
0.0103307
0.0102742
0.0102164
0.0101573
0.0100969
0.0100351
0.00997188
0.00990728
0.00984124
0.00977372
0.0097047
0.00963414
0.009562
0.00948824
0.00941283
0.00933573
0.00925688
0.00917624
0.00909376
0.00900938
0.00892304
0.00883466
0.00874419
0.00865153
0.00855661
0.00845932
0.00835957
0.00825723
0.00815217
0.00804426
0.00793332
0.00781918
0.00770163
0.00758044
0.00745534
0.00732604
0.00719217
0.00705334
0.00690907
0.00675882
0.00660192
0.00643762
0.00626499
0.00608293
0.00589014
0.00568499
0.00546553
0.0052293
0.00497326
0.0046936
0.00438551
0.00404294
0.00365827
0.00322195
0.00272223
0.0021455
0.00147804
0.000722958
7.03878e-05
9.77458e-05
0.000967097
0.00193773
0.00278307
0.00351455
0.00415612
0.00472729
0.00524255
0.00571258
0.00614524
0.00654647
0.00692078
0.00727168
0.00760194
0.00791379
0.00820903
0.00848918
0.00875547
0.00900897
0.0092506
0.00948114
0.00970127
0.00991161
0.0101127
0.010305
0.010489
0.0106651
0.0108335
0.0109948
0.0111491
0.0112968
0.0114381
0.0115734
0.0117027
0.0118264
0.0119447
0.0120577
0.0121658
0.0122689
0.0123674
0.0124614
0.0125511
0.0126366
0.0127181
0.0127957
0.0128695
0.0129397
0.0130065
0.0130698
0.01313
0.0131869
0.0132408
0.0132919
0.0133402
0.0133858
0.0134288
0.0134693
0.0135075
0.0135434
0.0135771
0.0136087
0.0136382
0.0136658
0.0136914
0.0137152
0.0137372
0.0137575
0.0137762
0.0137932
0.0138087
0.0138227
0.0138352
0.0138463
0.013856
0.0138644
0.0138715
0.0138773
0.0138819
0.0138852
0.0138874
0.0138885
0.0138884
0.0138872
0.013885
0.0138817
0.0138774
0.0138721
0.0138657
0.0138584
0.0138501
0.0138409
0.0138307
0.0138195
0.0138075
0.0137945
0.0137807
0.0137659
0.0137502
0.0137336
0.0137162
0.0136978
0.0136786
0.0136584
0.0136374
0.0136155
0.0135927
0.013569
0.0135443
0.0135188
0.0134924
0.013465
0.0134367
0.0134074
0.0133772
0.0133461
0.0133139
0.0132808
0.0132467
0.0132116
0.0131754
0.0131382
0.0131
0.0130607
0.0130203
0.0129788
0.0129361
0.0128924
0.0128474
0.0128013
0.012754
0.0127055
0.0126557
0.0126047
0.0125524
0.0124988
0.0124438
0.0123875
0.0123298
0.0122707
0.0122102
0.0121483
0.0120848
0.0120198
0.0119533
0.0118852
0.0118155
0.0117442
0.0116712
0.0115964
0.01152
0.0114417
0.0113616
0.0112797
0.0111958
0.01111
0.0110221
0.0109322
0.0108402
0.0107459
0.0106494
0.0105506
0.0104494
0.0103456
0.0102393
0.0101303
0.0100184
0.0099037
0.0097859
0.0096649
0.00954052
0.00941259
0.00928091
0.00914524
0.00900533
0.00886089
0.00871157
0.00855701
0.00839677
0.00823034
0.00805714
0.00787649
0.00768759
0.0074895
0.0072811
0.00706107
0.00682781
0.00657941
0.00631354
0.00602737
0.00571741
0.00537939
0.00500805
0.00459693
0.00413813
0.00362209
0.00303757
0.00237234
0.00161626
0.000779835
7.47486e-05
9.77466e-05
0.00096713
0.00193781
0.00278319
0.00351469
0.00415629
0.00472747
0.00524275
0.00571278
0.00614545
0.00654668
0.00692099
0.00727188
0.00760214
0.00791398
0.00820923
0.00848936
0.00875565
0.00900915
0.00925077
0.0094813
0.00970143
0.00991176
0.0101128
0.0103052
0.0104891
0.0106652
0.0108337
0.0109949
0.0111492
0.0112969
0.0114382
0.0115735
0.0117028
0.0118265
0.0119448
0.0120578
0.0121658
0.012269
0.0123675
0.0124615
0.0125512
0.0126367
0.0127181
0.0127957
0.0128696
0.0129398
0.0130065
0.0130699
0.01313
0.0131869
0.0132409
0.0132919
0.0133402
0.0133858
0.0134288
0.0134694
0.0135075
0.0135434
0.0135771
0.0136087
0.0136382
0.0136658
0.0136914
0.0137152
0.0137372
0.0137576
0.0137762
0.0137932
0.0138087
0.0138227
0.0138352
0.0138463
0.013856
0.0138644
0.0138715
0.0138773
0.0138819
0.0138852
0.0138874
0.0138885
0.0138884
0.0138872
0.013885
0.0138817
0.0138774
0.013872
0.0138657
0.0138584