/*--------------------------------*- C++ -*----------------------------------*\
  =========                 |
  \\      /  F ield         | OpenFOAM: The Open Source CFD Toolbox
   \\    /   O peration     | Website:  https://openfoam.org
    \\  /    A nd           | Version:  8
     \\/     M anipulation  |
\*---------------------------------------------------------------------------*/
FoamFile
{
    version     2.0;
    format      ascii;
    class       surfaceScalarField;
    location    "2000";
    object      phi;
}
// * * * * * * * * * * * * * * * * * * * * * * * * * * * * * * * * * * * * * //

dimensions      [1 0 -1 0 0 0 0];

internalField   nonuniform List<scalar> 
119360
(
-2.83406e-07
-1.34004e-11
2.8342e-07
-4.66938e-07
5.5918e-13
1.83675e-07
-5.23075e-07
1.8453e-12
5.61917e-08
-4.7512e-07
8.35097e-13
-4.79132e-08
-3.57092e-07
-2.73578e-13
-1.17991e-07
-1.94838e-07
-1.09304e-12
-1.6222e-07
-6.05627e-09
-1.63305e-12
-1.8875e-07
1.96805e-07
-1.7856e-12
-2.0283e-07
4.05189e-07
-1.71749e-12
-2.08354e-07
6.13951e-07
-1.67109e-12
-2.08735e-07
8.19656e-07
-1.63734e-12
-2.05679e-07
1.02005e-06
-1.58516e-12
-2.00374e-07
1.21368e-06
-1.52352e-12
-1.93597e-07
1.39958e-06
-1.45163e-12
-1.85883e-07
1.57721e-06
-1.36018e-12
-1.77599e-07
1.74624e-06
-1.25077e-12
-1.6901e-07
1.90656e-06
-1.13833e-12
-1.603e-07
2.05819e-06
-1.03946e-12
-1.51606e-07
2.20123e-06
-9.62693e-13
-1.43022e-07
2.33587e-06
-9.06933e-13
-1.34618e-07
2.46233e-06
-8.68908e-13
-1.26442e-07
2.58087e-06
-8.47231e-13
-1.18527e-07
2.69178e-06
-8.37212e-13
-1.10894e-07
2.79536e-06
-8.2661e-13
-1.03557e-07
2.8919e-06
-8.02546e-13
-9.65225e-08
2.98171e-06
-7.61524e-13
-8.97912e-08
3.06509e-06
-7.12174e-13
-8.33611e-08
3.14233e-06
-6.64879e-13
-7.72275e-08
3.21373e-06
-6.22635e-13
-7.13831e-08
3.27957e-06
-5.81807e-13
-6.58198e-08
3.34012e-06
-5.39813e-13
-6.05283e-08
3.39563e-06
-5.00206e-13
-5.54986e-08
3.44637e-06
-4.70175e-13
-5.07207e-08
3.49257e-06
-4.54687e-13
-4.61842e-08
3.53446e-06
-4.51246e-13
-4.18789e-08
3.57227e-06
-4.51968e-13
-3.77946e-08
3.60621e-06
-4.4972e-13
-3.39215e-08
3.63647e-06
-4.41504e-13
-3.02504e-08
3.66326e-06
-4.31235e-13
-2.67719e-08
3.68675e-06
-4.23435e-13
-2.34775e-08
3.70712e-06
-4.20521e-13
-2.03588e-08
3.72454e-06
-4.20022e-13
-1.74077e-08
3.73917e-06
-4.1522e-13
-1.46167e-08
3.75117e-06
-4.00704e-13
-1.19785e-08
3.76067e-06
-3.75724e-13
-9.48647e-09
3.76781e-06
-3.45526e-13
-7.13397e-09
3.77274e-06
-3.19574e-13
-4.91492e-09
3.77558e-06
-3.06529e-13
-2.82347e-09
3.77644e-06
-3.10623e-13
-8.53428e-10
3.77545e-06
-3.30122e-13
1.00033e-09
3.77272e-06
-3.59307e-13
2.74206e-09
3.76836e-06
-3.92447e-13
4.37697e-09
3.76246e-06
-4.25615e-13
5.91043e-09
3.75513e-06
-4.58436e-13
7.34726e-09
3.74645e-06
-4.91535e-13
8.69202e-09
3.73651e-06
-5.25494e-13
9.94902e-09
3.7254e-06
-5.57815e-13
1.11225e-08
3.7132e-06
-5.84002e-13
1.22164e-08
3.69998e-06
-5.98671e-13
1.32347e-08
3.68581e-06
-5.99615e-13
1.41812e-08
3.67077e-06
-5.89332e-13
1.50596e-08
3.65491e-06
-5.75704e-13
1.58733e-08
3.6383e-06
-5.69042e-13
1.66259e-08
3.621e-06
-5.79368e-13
1.73204e-08
3.60305e-06
-6.11731e-13
1.79602e-08
3.58452e-06
-6.64661e-13
1.85483e-08
3.56545e-06
-7.30094e-13
1.90876e-08
3.54589e-06
-7.95473e-13
1.95812e-08
3.52587e-06
-8.47098e-13
2.00318e-08
3.50545e-06
-8.74368e-13
2.04422e-08
3.48465e-06
-8.72106e-13
2.08149e-08
3.46352e-06
-8.41117e-13
2.11525e-08
3.44209e-06
-7.88576e-13
2.14573e-08
3.42038e-06
-7.2478e-13
2.17316e-08
3.39842e-06
-6.60997e-13
2.19775e-08
3.37624e-06
-6.06263e-13
2.2197e-08
3.35387e-06
-5.65796e-13
2.23921e-08
3.33133e-06
-5.40733e-13
2.25646e-08
3.30863e-06
-5.27549e-13
2.27163e-08
3.2858e-06
-5.20332e-13
2.28489e-08
3.26286e-06
-5.12616e-13
2.2964e-08
3.23982e-06
-4.98683e-13
2.3063e-08
3.21669e-06
-4.74619e-13
2.31476e-08
3.19349e-06
-4.39453e-13
2.32189e-08
3.17023e-06
-3.94211e-13
2.32785e-08
3.14692e-06
-3.42253e-13
2.33274e-08
3.12357e-06
-2.87574e-13
2.33668e-08
3.10019e-06
-2.34034e-13
2.33979e-08
3.07678e-06
-1.85628e-13
2.34215e-08
3.05336e-06
-1.45188e-13
2.34388e-08
3.02992e-06
-1.1388e-13
2.34505e-08
3.00647e-06
-9.2564e-14
2.34575e-08
2.98302e-06
-8.06014e-14
2.34606e-08
2.95957e-06
-7.68267e-14
2.34606e-08
2.93613e-06
-8.00463e-14
2.34582e-08
2.91268e-06
-8.89559e-14
2.34542e-08
2.88924e-06
-1.02417e-13
2.34491e-08
2.86581e-06
-1.19737e-13
2.34436e-08
2.84238e-06
-1.39971e-13
2.34384e-08
2.81895e-06
-1.62481e-13
2.34341e-08
2.79553e-06
-1.86794e-13
2.34311e-08
2.7721e-06
-2.11414e-13
2.34301e-08
2.74868e-06
-2.34867e-13
2.34317e-08
2.72525e-06
-2.55961e-13
2.34362e-08
2.70181e-06
-2.73225e-13
2.34442e-08
2.67836e-06
-2.85938e-13
2.34562e-08
2.6549e-06
-2.9357e-13
2.34727e-08
2.63141e-06
-2.96235e-13
2.3494e-08
2.6079e-06
-2.94459e-13
2.35206e-08
2.58435e-06
-2.89296e-13
2.3553e-08
2.56077e-06
-2.82135e-13
2.35915e-08
2.53714e-06
-2.73975e-13
2.36366e-08
2.51346e-06
-2.65621e-13
2.36886e-08
2.48972e-06
-2.58154e-13
2.3748e-08
2.46592e-06
-2.51604e-13
2.38151e-08
2.44204e-06
-2.46247e-13
2.38905e-08
2.41807e-06
-2.42028e-13
2.39744e-08
2.39401e-06
-2.38615e-13
2.40674e-08
2.36985e-06
-2.35922e-13
2.41698e-08
2.34558e-06
-2.33896e-13
2.4282e-08
2.32118e-06
-2.3298e-13
2.44046e-08
2.29665e-06
-2.33757e-13
2.45378e-08
2.27198e-06
-2.37088e-13
2.46822e-08
2.24715e-06
-2.44332e-13
2.48381e-08
2.22215e-06
-2.55823e-13
2.50058e-08
2.19697e-06
-2.7181e-13
2.51859e-08
2.1716e-06
-2.91378e-13
2.53786e-08
2.14602e-06
-3.12139e-13
2.55844e-08
2.12023e-06
-3.3129e-13
2.58036e-08
2.0942e-06
-3.45529e-13
2.60367e-08
2.06793e-06
-3.51552e-13
2.6284e-08
2.04139e-06
-3.47666e-13
2.65459e-08
2.01458e-06
-3.33178e-13
2.68227e-08
1.98747e-06
-3.09863e-13
2.7115e-08
1.96006e-06
-2.81414e-13
2.74229e-08
1.93232e-06
-2.52714e-13
2.77469e-08
1.90424e-06
-2.29122e-13
2.80872e-08
1.87581e-06
-2.15522e-13
2.84442e-08
1.847e-06
-2.13773e-13
2.88179e-08
1.8178e-06
-2.22489e-13
2.92088e-08
1.78819e-06
-2.37477e-13
2.96171e-08
1.75816e-06
-2.51882e-13
3.00429e-08
1.72768e-06
-2.58599e-13
3.04865e-08
1.69674e-06
-2.52298e-13
3.09481e-08
1.66532e-06
-2.31315e-13
3.14278e-08
1.6334e-06
-1.98258e-13
3.19257e-08
1.60097e-06
-1.59373e-13
3.24417e-08
1.568e-06
-1.2193e-13
3.29759e-08
1.53448e-06
-9.0955e-14
3.35281e-08
1.50039e-06
-6.78901e-14
3.40981e-08
1.46571e-06
-4.92661e-14
3.46856e-08
1.43042e-06
-2.8505e-14
3.52903e-08
1.39452e-06
-7.21638e-16
3.59119e-08
1.35797e-06
3.59157e-14
3.65497e-08
1.32078e-06
7.68274e-14
3.72032e-08
1.28291e-06
1.15102e-13
3.78714e-08
1.24436e-06
1.45328e-13
3.85534e-08
1.20511e-06
1.67893e-13
3.9248e-08
1.16516e-06
1.89404e-13
3.99539e-08
1.12449e-06
2.19907e-13
4.06695e-08
1.0831e-06
2.6365e-13
4.13933e-08
1.04097e-06
3.15747e-13
4.2123e-08
9.98115e-07
3.62876e-13
4.28562e-08
9.54522e-07
3.91132e-13
4.35901e-08
9.10196e-07
3.95045e-13
4.43216e-08
8.65144e-07
3.83915e-13
4.5047e-08
8.19375e-07
3.7445e-13
4.57623e-08
7.72906e-07
3.78975e-13
4.64628e-08
7.25755e-07
3.95989e-13
4.71433e-08
6.77949e-07
4.13197e-13
4.77976e-08
6.29521e-07
4.17999e-13
4.84187e-08
5.80513e-07
4.11449e-13
4.89985e-08
5.30974e-07
4.0723e-13
4.95279e-08
4.80966e-07
4.17055e-13
4.99964e-08
4.30563e-07
4.39926e-13
5.03918e-08
3.79851e-07
4.6213e-13
5.07001e-08
3.28934e-07
4.73732e-13
5.09048e-08
2.77934e-07
4.75064e-13
5.09868e-08
2.26996e-07
4.72677e-13
5.09237e-08
1.76292e-07
4.68292e-13
5.06893e-08
1.26026e-07
4.60743e-13
5.02521e-08
7.64374e-08
4.56635e-13
4.9573e-08
2.7816e-08
4.66516e-13
4.86057e-08
-1.9481e-08
4.8278e-13
4.72808e-08
-6.50073e-08
4.91218e-13
4.55099e-08
-1.08249e-07
5.02876e-13
4.32254e-08
-1.48624e-07
5.33629e-13
4.03589e-08
-1.8544e-07
5.61773e-13
3.67983e-08
-2.17842e-07
5.57165e-13
3.2385e-08
-2.44796e-07
5.62994e-13
2.69369e-08
-2.65048e-07
6.15397e-13
2.02354e-08
-2.77075e-07
6.18561e-13
1.20084e-08
-2.79046e-07
5.90972e-13
1.95208e-09
-2.68903e-07
8.12794e-13
-1.01619e-08
-2.44497e-07
1.12949e-12
-2.44265e-08
-2.03993e-07
1.14747e-12
-4.0527e-08
-1.46957e-07
1.45572e-12
-5.7063e-08
-7.85659e-08
2.08211e-12
-6.84211e-08
-1.77532e-08
1.06593e-12
-6.08502e-08
-3.99458e-13
-1.77974e-08
-2.83372e-07
2.83431e-07
-4.66941e-07
1.83674e-07
-5.23076e-07
5.61914e-08
-4.75117e-07
-4.79123e-08
-3.57087e-07
-1.17989e-07
-1.94831e-07
-1.62218e-07
-6.04892e-09
-1.88748e-07
1.96812e-07
-2.02829e-07
4.05194e-07
-2.08353e-07
6.13955e-07
-2.08734e-07
8.1966e-07
-2.05678e-07
1.02006e-06
-2.00372e-07
1.21368e-06
-1.93596e-07
1.39959e-06
-1.85881e-07
1.57721e-06
-1.77598e-07
1.74624e-06
-1.69008e-07
1.90656e-06
-1.60299e-07
2.05819e-06
-1.51604e-07
2.20123e-06
-1.4302e-07
2.33587e-06
-1.34616e-07
2.46233e-06
-1.2644e-07
2.58087e-06
-1.18525e-07
2.69178e-06
-1.10893e-07
2.79536e-06
-1.03556e-07
2.8919e-06
-9.65209e-08
2.9817e-06
-8.97896e-08
3.06508e-06
-8.33595e-08
3.14233e-06
-7.72258e-08
3.21373e-06
-7.13815e-08
3.27957e-06
-6.58182e-08
3.34011e-06
-6.05267e-08
3.39563e-06
-5.54971e-08
3.44637e-06
-5.07193e-08
3.49256e-06
-4.61828e-08
3.53446e-06
-4.18775e-08
3.57227e-06
-3.77932e-08
3.6062e-06
-3.39202e-08
3.63647e-06
-3.02491e-08
3.66325e-06
-2.67707e-08
3.68675e-06
-2.34762e-08
3.70712e-06
-2.03575e-08
3.72454e-06
-1.74063e-08
3.73917e-06
-1.46153e-08
3.75116e-06
-1.19772e-08
3.76066e-06
-9.48519e-09
3.76781e-06
-7.13274e-09
3.77274e-06
-4.91374e-09
3.77557e-06
-2.82231e-09
3.77644e-06
-8.52278e-10
3.77545e-06
1.00149e-09
3.77272e-06
2.74323e-09
3.76836e-06
4.37816e-09
3.76246e-06
5.91164e-09
3.75512e-06
7.34851e-09
3.74644e-06
8.69332e-09
3.73651e-06
9.95039e-09
3.7254e-06
1.11239e-08
3.7132e-06
1.22179e-08
3.69998e-06
1.32363e-08
3.68581e-06
1.41828e-08
3.67077e-06
1.50612e-08
3.65491e-06
1.58749e-08
3.6383e-06
1.66275e-08
3.62099e-06
1.7322e-08
3.60305e-06
1.79618e-08
3.58452e-06
1.85499e-08
3.56545e-06
1.90894e-08
3.54588e-06
1.9583e-08
3.52587e-06
2.00337e-08
3.50545e-06
2.04442e-08
3.48465e-06
2.0817e-08
3.46352e-06
2.11546e-08
3.44208e-06
2.14594e-08
3.42037e-06
2.17337e-08
3.39842e-06
2.19795e-08
3.37624e-06
2.2199e-08
3.35387e-06
2.23941e-08
3.33133e-06
2.25666e-08
3.30863e-06
2.27183e-08
3.2858e-06
2.28508e-08
3.26286e-06
2.29659e-08
3.23982e-06
2.30649e-08
3.21669e-06
2.31494e-08
3.19349e-06
2.32207e-08
3.17023e-06
2.32802e-08
3.14692e-06
2.3329e-08
3.12357e-06
2.33684e-08
3.10019e-06
2.33994e-08
3.07678e-06
2.34229e-08
3.05335e-06
2.34401e-08
3.02992e-06
2.34517e-08
3.00647e-06
2.34587e-08
2.98302e-06
2.34617e-08
2.95957e-06
2.34617e-08
2.93613e-06
2.34592e-08
2.91268e-06
2.34551e-08
2.88924e-06
2.345e-08
2.86581e-06
2.34445e-08
2.84238e-06
2.34392e-08
2.81895e-06
2.34348e-08
2.79553e-06
2.34318e-08
2.7721e-06
2.34308e-08
2.74868e-06
2.34323e-08
2.72525e-06
2.34369e-08
2.70181e-06
2.34449e-08
2.67836e-06
2.34569e-08
2.6549e-06
2.34734e-08
2.63141e-06
2.34948e-08
2.6079e-06
2.35215e-08
2.58435e-06
2.35539e-08
2.56077e-06
2.35924e-08
2.53714e-06
2.36375e-08
2.51346e-06
2.36895e-08
2.48972e-06
2.37489e-08
2.46592e-06
2.38161e-08
2.44203e-06
2.38914e-08
2.41807e-06
2.39753e-08
2.39401e-06
2.40682e-08
2.36985e-06
2.41706e-08
2.34558e-06
2.42829e-08
2.32118e-06
2.44054e-08
2.29665e-06
2.45386e-08
2.27198e-06
2.4683e-08
2.24715e-06
2.48388e-08
2.22215e-06
2.50066e-08
2.19697e-06
2.51867e-08
2.1716e-06
2.53794e-08
2.14602e-06
2.55852e-08
2.12023e-06
2.58045e-08
2.0942e-06
2.60376e-08
2.06792e-06
2.62849e-08
2.04139e-06
2.65468e-08
2.01458e-06
2.68237e-08
1.98747e-06
2.7116e-08
1.96006e-06
2.74239e-08
1.93232e-06
2.77479e-08
1.90424e-06
2.80882e-08
1.87581e-06
2.8445e-08
1.847e-06
2.88188e-08
1.8178e-06
2.92096e-08
1.78819e-06
2.96178e-08
1.75816e-06
3.00436e-08
1.72768e-06
3.04873e-08
1.69674e-06
3.09489e-08
1.66532e-06
3.14286e-08
1.6334e-06
3.19264e-08
1.60097e-06
3.24425e-08
1.568e-06
3.29766e-08
1.53448e-06
3.35288e-08
1.50039e-06
3.40987e-08
1.46571e-06
3.46861e-08
1.43042e-06
3.52908e-08
1.39452e-06
3.59123e-08
1.35797e-06
3.65501e-08
1.32078e-06
3.72035e-08
1.28291e-06
3.78716e-08
1.24436e-06
3.85535e-08
1.20511e-06
3.9248e-08
1.16516e-06
3.99538e-08
1.12449e-06
4.06694e-08
1.0831e-06
4.13931e-08
1.04097e-06
4.21227e-08
9.98116e-07
4.28558e-08
9.54523e-07
4.35896e-08
9.10197e-07
4.43209e-08
8.65144e-07
4.50462e-08
8.19376e-07
4.57614e-08
7.72906e-07
4.64619e-08
7.25756e-07
4.71423e-08
6.7795e-07
4.77965e-08
6.29522e-07
4.84175e-08
5.80513e-07
4.89972e-08
5.30975e-07
4.95266e-08
4.80967e-07
4.99951e-08
4.30564e-07
5.03905e-08
3.79852e-07
5.06987e-08
3.28935e-07
5.09033e-08
2.77934e-07
5.09852e-08
2.26997e-07
5.09221e-08
1.76293e-07
5.06877e-08
1.26027e-07
5.02504e-08
7.64382e-08
4.95713e-08
2.78166e-08
4.86039e-08
-1.94804e-08
4.72791e-08
-6.50066e-08
4.55082e-08
-1.08248e-07
4.32237e-08
-1.48624e-07
4.03572e-08
-1.85439e-07
3.67964e-08
-2.17841e-07
3.23833e-08
-2.44795e-07
2.69352e-08
-2.65048e-07
2.02336e-08
-2.77074e-07
1.20065e-08
-2.79045e-07
1.95034e-09
-2.68903e-07
-1.01635e-08
-2.44498e-07
-2.4428e-08
-2.03993e-07
-4.05279e-08
-1.46956e-07
-5.70632e-08
-7.85681e-08
-6.84196e-08
-1.77564e-08
-6.08509e-08
-1.77997e-08
-1.59266e-07
-5.24682e-12
4.4282e-07
-1.69921e-07
4.129e-13
1.94419e-07
-1.19668e-07
7.99394e-13
5.98095e-09
-3.0595e-08
7.22098e-13
-1.36952e-07
8.88336e-08
5.99386e-13
-2.37389e-07
2.31104e-07
4.62062e-13
-3.04462e-07
3.89224e-07
3.45306e-13
-3.46843e-07
5.57468e-07
2.45572e-13
-3.71049e-07
7.31338e-07
1.79145e-13
-3.82201e-07
9.07148e-07
1.51458e-13
-3.84523e-07
1.08216e-06
1.4313e-13
-3.80667e-07
1.25436e-06
1.3635e-13
-3.72553e-07
1.4223e-06
1.26399e-13
-3.61516e-07
1.58495e-06
1.18718e-13
-3.48509e-07
1.74159e-06
1.18911e-13
-3.34221e-07
1.89175e-06
1.25933e-13
-3.19155e-07
2.03515e-06
1.33933e-13
-3.0368e-07
2.17163e-06
1.38943e-13
-2.88068e-07
2.30115e-06
1.40872e-13
-2.72521e-07
2.42373e-06
1.40573e-13
-2.57186e-07
2.53948e-06
1.38269e-13
-2.42171e-07
2.64852e-06
1.33717e-13
-2.27555e-07
2.75103e-06
1.29054e-13
-2.1339e-07
2.8472e-06
1.27728e-13
-1.99713e-07
2.93725e-06
1.3144e-13
-1.86547e-07
3.02137e-06
1.38331e-13
-1.73903e-07
3.09981e-06
1.44693e-13
-1.61785e-07
3.17279e-06
1.48413e-13
-1.50191e-07
3.24054e-06
1.50383e-13
-1.39111e-07
3.30327e-06
1.52638e-13
-1.28537e-07
3.36121e-06
1.55705e-13
-1.18455e-07
3.41458e-06
1.57863e-13
-1.0885e-07
3.46358e-06
1.56888e-13
-9.9706e-08
3.50842e-06
1.52201e-13
-9.10061e-08
3.54928e-06
1.45553e-13
-8.27334e-08
3.58637e-06
1.39797e-13
-7.4871e-08
3.61987e-06
1.36671e-13
-6.74023e-08
3.64994e-06
1.35554e-13
-6.03108e-08
3.67676e-06
1.34405e-13
-5.35806e-08
3.70049e-06
1.31376e-13
-4.71963e-08
3.72129e-06
1.26356e-13
-4.11431e-08
3.7393e-06
1.21214e-13
-3.54068e-08
3.75467e-06
1.18501e-13
-2.99737e-08
3.76754e-06
1.19587e-13
-2.48307e-08
3.77803e-06
1.23764e-13
-1.99655e-08
3.78627e-06
1.28465e-13
-1.53659e-08
3.79239e-06
1.30745e-13
-1.10207e-08
3.79649e-06
1.28736e-13
-6.91868e-09
3.7987e-06
1.22706e-13
-3.04929e-09
3.79911e-06
1.14133e-13
5.97286e-10
3.79784e-06
1.05251e-13
4.02979e-09
3.79497e-06
9.78819e-14
7.25759e-09
3.7906e-06
9.2355e-14
1.02903e-08
3.78482e-06
8.81292e-14
1.3137e-08
3.77772e-06
8.44169e-14
1.5806e-08
3.76937e-06
8.12492e-14
1.83056e-08
3.75986e-06
7.94312e-14
2.06437e-08
3.74927e-06
8.0413e-14
2.28279e-08
3.73765e-06
8.52043e-14
2.48657e-08
3.72508e-06
9.37079e-14
2.67642e-08
3.71162e-06
1.04227e-13
2.85303e-08
3.69734e-06
1.1406e-13
3.01708e-08
3.68229e-06
1.20235e-13
3.16922e-08
3.66652e-06
1.2086e-13
3.31008e-08
3.6501e-06
1.15812e-13
3.44028e-08
3.63306e-06
1.06957e-13
3.5604e-08
3.61545e-06
9.74581e-14
3.67102e-08
3.59732e-06
9.10673e-14
3.77269e-08
3.57871e-06
9.0925e-14
3.86594e-08
3.55966e-06
9.85092e-14
3.95129e-08
3.5402e-06
1.13525e-13
4.02922e-08
3.52037e-06
1.33915e-13
4.1002e-08
3.5002e-06
1.56466e-13
4.1647e-08
3.47972e-06
1.77689e-13
4.22315e-08
3.45895e-06
1.9464e-13
4.27596e-08
3.43794e-06
2.05486e-13
4.32353e-08
3.41668e-06
2.09878e-13
4.36623e-08
3.39522e-06
2.08792e-13
4.40443e-08
3.37357e-06
2.04011e-13
4.43848e-08
3.35175e-06
1.97763e-13
4.46871e-08
3.32978e-06
1.92007e-13
4.49541e-08
3.30767e-06
1.88149e-13
4.5189e-08
3.28544e-06
1.86768e-13
4.53945e-08
3.2631e-06
1.87729e-13
4.55733e-08
3.24067e-06
1.90269e-13
4.5728e-08
3.21815e-06
1.93277e-13
4.58609e-08
3.19556e-06
1.95532e-13
4.59744e-08
3.1729e-06
1.96e-13
4.60705e-08
3.15018e-06
1.93984e-13
4.61513e-08
3.12741e-06
1.89009e-13
4.62186e-08
3.1046e-06
1.81047e-13
4.62744e-08
3.08175e-06
1.70444e-13
4.63204e-08
3.05886e-06
1.57687e-13
4.63581e-08
3.03594e-06
1.43462e-13
4.63891e-08
3.01299e-06
1.2846e-13
4.64148e-08
2.99002e-06
1.13326e-13
4.64367e-08
2.96702e-06
9.86784e-14
4.64562e-08
2.94399e-06
8.49289e-14
4.64744e-08
2.92094e-06
7.25048e-14
4.64926e-08
2.89787e-06
6.17391e-14
4.6512e-08
2.87478e-06
5.28365e-14
4.65338e-08
2.85166e-06
4.60468e-14
4.6559e-08
2.8285e-06
4.14532e-14
4.65886e-08
2.80532e-06
3.90766e-14
4.66238e-08
2.78211e-06
3.87921e-14
4.66654e-08
2.75886e-06
4.03013e-14
4.67144e-08
2.73557e-06
4.3174e-14
4.67716e-08
2.71223e-06
4.69106e-14
4.68381e-08
2.68884e-06
5.10947e-14
4.69145e-08
2.6654e-06
5.51748e-14
4.70019e-08
2.6419e-06
5.88246e-14
4.71009e-08
2.61833e-06
6.17944e-14
4.72124e-08
2.59469e-06
6.39455e-14
4.73373e-08
2.57097e-06
6.53298e-14
4.74763e-08
2.54716e-06
6.59786e-14
4.76303e-08
2.52326e-06
6.60965e-14
4.78001e-08
2.49926e-06
6.58641e-14
4.79865e-08
2.47514e-06
6.54616e-14
4.81904e-08
2.4509e-06
6.49655e-14
4.84125e-08
2.42654e-06
6.44589e-14
4.86538e-08
2.40204e-06
6.38552e-14
4.8915e-08
2.37739e-06
6.31509e-14
4.91969e-08
2.35257e-06
6.20789e-14
4.95003e-08
2.32759e-06
6.06599e-14
4.98261e-08
2.30243e-06
5.88141e-14
5.01749e-08
2.27708e-06
5.67741e-14
5.05477e-08
2.25152e-06
5.49422e-14
5.0945e-08
2.22574e-06
5.38389e-14
5.13677e-08
2.19974e-06
5.40748e-14
5.18165e-08
2.17349e-06
5.60177e-14
5.22921e-08
2.14699e-06
5.99798e-14
5.27952e-08
2.12021e-06
6.57252e-14
5.33265e-08
2.09316e-06
7.28584e-14
5.38867e-08
2.06581e-06
8.03594e-14
5.44763e-08
2.03814e-06
8.72774e-14
5.50961e-08
2.01015e-06
9.23914e-14
5.57465e-08
1.98182e-06
9.4938e-14
5.64283e-08
1.95313e-06
9.45008e-14
5.71419e-08
1.92407e-06
9.13367e-14
5.78878e-08
1.89462e-06
8.65488e-14
5.86665e-08
1.86476e-06
8.15181e-14
5.94782e-08
1.83449e-06
7.78197e-14
6.03234e-08
1.80378e-06
7.66054e-14
6.12024e-08
1.77262e-06
7.8243e-14
6.21151e-08
1.74099e-06
8.22675e-14
6.30619e-08
1.70888e-06
8.73884e-14
6.40426e-08
1.67627e-06
9.17946e-14
6.50571e-08
1.64315e-06
9.42302e-14
6.61053e-08
1.6095e-06
9.39249e-14
6.71866e-08
1.5753e-06
9.14269e-14
6.83007e-08
1.54055e-06
8.80893e-14
6.94467e-08
1.50522e-06
8.52721e-14
7.06239e-08
1.4693e-06
8.37316e-14
7.18313e-08
1.43279e-06
8.29059e-14
7.30674e-08
1.39566e-06
8.14765e-14
7.43308e-08
1.35792e-06
7.78683e-14
7.56195e-08
1.31954e-06
7.18384e-14
7.69316e-08
1.28053e-06
6.4268e-14
7.82644e-08
1.24087e-06
5.7461e-14
7.96151e-08
1.20055e-06
5.30132e-14
8.09803e-08
1.15959e-06
5.0758e-14
8.23563e-08
1.11797e-06
4.81906e-14
8.37386e-08
1.0757e-06
4.2126e-14
8.51223e-08
1.03279e-06
3.07393e-14
8.65018e-08
9.89234e-07
1.5446e-14
8.78704e-08
9.45055e-07
6.93897e-17
8.92211e-08
9.00265e-07
-1.17753e-14
9.05454e-08
8.54887e-07
-1.9304e-14
9.18341e-08
8.08947e-07
-2.54727e-14
9.30764e-08
7.62476e-07
-3.36051e-14
9.42604e-08
7.15514e-07
-4.43118e-14
9.53722e-08
6.68106e-07
-5.46993e-14
9.63964e-08
6.20309e-07
-6.14161e-14
9.73152e-08
5.72188e-07
-6.43305e-14
9.81082e-08
5.23817e-07
-6.67522e-14
9.87523e-08
4.75285e-07
-7.16233e-14
9.92209e-08
4.26695e-07
-7.83956e-14
9.94833e-08
3.78166e-07
-8.52374e-14
9.95039e-08
3.29836e-07
-9.24191e-14
9.92416e-08
2.81864e-07
-1.01696e-13
9.86482e-08
2.34436e-07
-1.11855e-13
9.76669e-08
1.87766e-07
-1.17836e-13
9.62294e-08
1.42104e-07
-1.17663e-13
9.42547e-08
9.77323e-08
-1.16428e-13
9.16382e-08
5.49747e-08
-1.16865e-13
8.82537e-08
1.42019e-08
-1.14672e-13
8.39842e-08
-2.41413e-08
-1.13021e-13
7.86878e-08
-5.95403e-08
-1.26593e-13
7.21827e-08
-9.14279e-08
-1.4809e-13
6.42579e-08
-1.19168e-07
-1.40582e-13
5.46622e-08
-1.42054e-07
-1.1266e-13
4.31056e-08
-1.59322e-07
-1.2973e-13
2.92607e-08
-1.70196e-07
-1.68032e-13
1.28096e-08
-1.73911e-07
-1.3721e-13
-6.46475e-09
-1.69827e-07
-1.00725e-13
-2.85304e-08
-1.57585e-07
-1.09635e-13
-5.27888e-08
-1.37132e-07
-1.04791e-13
-7.75398e-08
-1.07436e-07
-2.94292e-13
-9.81466e-08
-6.51973e-08
-4.65405e-13
-1.03125e-07
-1.89815e-12
-8.30182e-08
-1.59251e-07
4.42827e-07
-1.69918e-07
1.94417e-07
-1.19665e-07
5.97729e-09
-3.0592e-08
-1.36955e-07
8.88364e-08
-2.37391e-07
2.31106e-07
-3.04463e-07
3.89226e-07
-3.46844e-07
5.57469e-07
-3.7105e-07
7.31339e-07
-3.82202e-07
9.07149e-07
-3.84524e-07
1.08216e-06
-3.80668e-07
1.25436e-06
-3.72554e-07
1.4223e-06
-3.61516e-07
1.58494e-06
-3.48509e-07
1.74159e-06
-3.34222e-07
1.89175e-06
-3.19156e-07
2.03515e-06
-3.03681e-07
2.17163e-06
-2.88069e-07
2.30114e-06
-2.72521e-07
2.42373e-06
-2.57186e-07
2.53947e-06
-2.42172e-07
2.64852e-06
-2.27555e-07
2.75103e-06
-2.1339e-07
2.8472e-06
-1.99714e-07
2.93724e-06
-1.86547e-07
3.02137e-06
-1.73904e-07
3.09981e-06
-1.61786e-07
3.17279e-06
-1.50191e-07
3.24053e-06
-1.39112e-07
3.30327e-06
-1.28538e-07
3.36121e-06
-1.18456e-07
3.41458e-06
-1.0885e-07
3.46358e-06
-9.97063e-08
3.50841e-06
-9.10063e-08
3.54928e-06
-8.27336e-08
3.58637e-06
-7.48713e-08
3.61986e-06
-6.74025e-08
3.64994e-06
-6.0311e-08
3.67676e-06
-5.35808e-08
3.70049e-06
-4.71965e-08
3.72129e-06
-4.11433e-08
3.7393e-06
-3.54069e-08
3.75467e-06
-2.99738e-08
3.76753e-06
-2.48309e-08
3.77802e-06
-1.99656e-08
3.78627e-06
-1.53661e-08
3.79238e-06
-1.10209e-08
3.79649e-06
-6.91885e-09
3.7987e-06
-3.04945e-09
3.79911e-06
5.97134e-10
3.79783e-06
4.02964e-09
3.79496e-06
7.25745e-09
3.7906e-06
1.02902e-08
3.78482e-06
1.31368e-08
3.77771e-06
1.58058e-08
3.76937e-06
1.83055e-08
3.75986e-06
2.06436e-08
3.74926e-06
2.28278e-08
3.73765e-06
2.48656e-08
3.72508e-06
2.6764e-08
3.71162e-06
2.85301e-08
3.69734e-06
3.01706e-08
3.68229e-06
3.1692e-08
3.66652e-06
3.31007e-08
3.65009e-06
3.44026e-08
3.63305e-06
3.56039e-08
3.61545e-06
3.671e-08
3.59732e-06
3.77267e-08
3.57871e-06
3.86592e-08
3.55966e-06
3.95127e-08
3.5402e-06
4.0292e-08
3.52037e-06
4.10018e-08
3.5002e-06
4.16468e-08
3.47972e-06
4.22313e-08
3.45895e-06
4.27593e-08
3.43793e-06
4.3235e-08
3.41668e-06
4.36621e-08
3.39522e-06
4.40441e-08
3.37357e-06
4.43846e-08
3.35175e-06
4.46868e-08
3.32978e-06
4.49539e-08
3.30767e-06
4.51888e-08
3.28544e-06
4.53943e-08
3.2631e-06
4.55732e-08
3.24067e-06
4.57279e-08
3.21815e-06
4.58608e-08
3.19555e-06
4.59742e-08
3.1729e-06
4.60703e-08
3.15018e-06
4.61511e-08
3.12741e-06
4.62185e-08
3.1046e-06
4.62743e-08
3.08174e-06
4.63203e-08
3.05886e-06
4.6358e-08
3.03594e-06
4.6389e-08
3.01299e-06
4.64147e-08
2.99001e-06
4.64366e-08
2.96701e-06
4.64561e-08
2.94399e-06
4.64743e-08
2.92094e-06
4.64925e-08
2.89787e-06
4.65119e-08
2.87478e-06
4.65337e-08
2.85165e-06
4.65589e-08
2.8285e-06
4.65885e-08
2.80532e-06
4.66237e-08
2.78211e-06
4.66653e-08
2.75886e-06
4.67143e-08
2.73556e-06
4.67716e-08
2.71223e-06
4.6838e-08
2.68884e-06
4.69145e-08
2.6654e-06
4.70019e-08
2.6419e-06
4.71009e-08
2.61833e-06
4.72124e-08
2.59469e-06
4.73373e-08
2.57097e-06
4.74763e-08
2.54716e-06
4.76302e-08
2.52326e-06
4.78e-08
2.49925e-06
4.79864e-08
2.47514e-06
4.81903e-08
2.4509e-06
4.84124e-08
2.42654e-06
4.86537e-08
2.40204e-06
4.89148e-08
2.37739e-06
4.91967e-08
2.35257e-06
4.95002e-08
2.32759e-06
4.9826e-08
2.30243e-06
5.01748e-08
2.27708e-06
5.05476e-08
2.25152e-06
5.09449e-08
2.22574e-06
5.13677e-08
2.19974e-06
5.18165e-08
2.17349e-06
5.22921e-08
2.14699e-06
5.27952e-08
2.12021e-06
5.33264e-08
2.09316e-06
5.38866e-08
2.06581e-06
5.44762e-08
2.03814e-06
5.50959e-08
2.01015e-06
5.57464e-08
1.98182e-06
5.64282e-08
1.95313e-06
5.71418e-08
1.92407e-06
5.78877e-08
1.89461e-06
5.86663e-08
1.86476e-06
5.94781e-08
1.83449e-06
6.03233e-08
1.80378e-06
6.12022e-08
1.77262e-06
6.2115e-08
1.74099e-06
6.30618e-08
1.70888e-06
6.40425e-08
1.67627e-06
6.5057e-08
1.64315e-06
6.61051e-08
1.6095e-06
6.71865e-08
1.5753e-06
6.83005e-08
1.54055e-06
6.94466e-08
1.50522e-06
7.06238e-08
1.4693e-06
7.18311e-08
1.43279e-06
7.30673e-08
1.39566e-06
7.43306e-08
1.35792e-06
7.56194e-08
1.31954e-06
7.69314e-08
1.28053e-06
7.82643e-08
1.24087e-06
7.96149e-08
1.20055e-06
8.09802e-08
1.15959e-06
8.23562e-08
1.11797e-06
8.37385e-08
1.0757e-06
8.51222e-08
1.03279e-06
8.65016e-08
9.89235e-07
8.78703e-08
9.45055e-07
8.9221e-08
9.00266e-07
9.05453e-08
8.54888e-07
9.1834e-08
8.08947e-07
9.30764e-08
7.62476e-07
9.42603e-08
7.15514e-07
9.53722e-08
6.68107e-07
9.63964e-08
6.2031e-07
9.73151e-08
5.72188e-07
9.81082e-08
5.23817e-07
9.87523e-08
4.75285e-07
9.92209e-08
4.26695e-07
9.94832e-08
3.78166e-07
9.95039e-08
3.29836e-07
9.92416e-08
2.81864e-07
9.86482e-08
2.34436e-07
9.76669e-08
1.87767e-07
9.62294e-08
1.42104e-07
9.42548e-08
9.77325e-08
9.16382e-08
5.49749e-08
8.82537e-08
1.4202e-08
8.39843e-08
-2.41411e-08
7.86878e-08
-5.954e-08
7.21828e-08
-9.14275e-08
6.42581e-08
-1.19168e-07
5.46624e-08
-1.42053e-07
4.31058e-08
-1.59322e-07
2.9261e-08
-1.70196e-07
1.28099e-08
-1.73911e-07
-6.46449e-09
-1.69826e-07
-2.85301e-08
-1.57585e-07
-5.27884e-08
-1.37133e-07
-7.75393e-08
-1.07435e-07
-9.81465e-08
-6.51982e-08
-1.03125e-07
-8.30131e-08
-1.91935e-08
-2.08524e-12
4.62063e-07
4.54125e-08
3.49071e-13
1.29857e-07
1.40266e-07
3.56158e-13
-8.88614e-08
2.48758e-07
3.29336e-13
-2.45437e-07
3.69134e-07
3.06177e-13
-3.57758e-07
5.00224e-07
2.86898e-13
-4.35546e-07
6.40053e-07
2.56518e-13
-4.86667e-07
7.86429e-07
2.13693e-13
-5.1742e-07
9.3713e-07
1.79255e-13
-5.32898e-07
1.08984e-06
1.58417e-13
-5.37229e-07
1.24261e-06
1.4559e-13
-5.33428e-07
1.39381e-06
1.35643e-13
-5.23758e-07
1.5422e-06
1.25678e-13
-5.09895e-07
1.68678e-06
1.17233e-13
-4.93086e-07
1.82683e-06
1.12913e-13
-4.74267e-07
1.96182e-06
1.12351e-13
-4.54139e-07
2.09138e-06
1.12396e-13
-4.33235e-07
2.21527e-06
1.10078e-13
-4.11956e-07
2.33336e-06
1.05231e-13
-3.90605e-07
2.44559e-06
9.98742e-14
-3.69412e-07
2.55197e-06
9.52979e-14
-3.48548e-07
2.65255e-06
9.10685e-14
-3.28139e-07
2.74744e-06
8.69016e-14
-3.08278e-07
2.83676e-06
8.40531e-14
-2.89029e-07
2.92065e-06
8.38448e-14
-2.70435e-07
2.99928e-06
8.54094e-14
-2.52525e-07
3.07281e-06
8.62802e-14
-2.35312e-07
3.14142e-06
8.50311e-14
-2.18801e-07
3.2053e-06
8.27898e-14
-2.02987e-07
3.26463e-06
8.1787e-14
-1.87862e-07
3.31959e-06
8.27202e-14
-1.73411e-07
3.37036e-06
8.37957e-14
-1.59618e-07
3.41712e-06
8.28103e-14
-1.46465e-07
3.46005e-06
7.91916e-14
-1.3393e-07
3.49931e-06
7.46362e-14
-1.21992e-07
3.53507e-06
7.16178e-14
-1.10629e-07
3.5675e-06
7.10366e-14
-9.98209e-08
3.59673e-06
7.17495e-14
-8.95445e-08
3.62293e-06
7.15396e-14
-7.97792e-08
3.64625e-06
6.9019e-14
-7.05044e-08
3.66681e-06
6.4696e-14
-6.16999e-08
3.68475e-06
6.06489e-14
-5.33464e-08
3.7002e-06
5.90599e-14
-4.54253e-08
3.71329e-06
6.07304e-14
-3.79186e-08
3.72414e-06
6.4663e-14
-3.08091e-08
3.73286e-06
6.871e-14
-2.40802e-08
3.73956e-06
7.07969e-14
-1.7716e-08
3.74434e-06
6.9992e-14
-1.17011e-08
3.74731e-06
6.68469e-14
-6.02073e-09
3.74858e-06
6.27078e-14
-6.60998e-10
3.74822e-06
5.89382e-14
4.39094e-09
3.74633e-06
5.62824e-14
9.14806e-09
3.743e-06
5.44852e-14
1.36236e-08
3.73831e-06
5.28198e-14
1.78302e-08
3.73234e-06
5.07988e-14
2.17799e-08
3.72516e-06
4.85194e-14
2.54842e-08
3.71685e-06
4.69043e-14
2.89546e-08
3.70748e-06
4.70726e-14
3.22018e-08
3.69711e-06
4.98533e-14
3.52364e-08
3.68581e-06
5.51477e-14
3.80687e-08
3.67364e-06
6.17674e-14
4.07086e-08
3.66064e-06
6.79291e-14
4.31657e-08
3.64689e-06
7.16899e-14
4.54493e-08
3.63242e-06
7.18825e-14
4.75685e-08
3.6173e-06
6.8472e-14
4.95322e-08
3.60156e-06
6.26346e-14
5.13486e-08
3.58524e-06
5.6374e-14
5.30262e-08
3.5684e-06
5.19868e-14
5.45728e-08
3.55107e-06
5.13033e-14
5.5996e-08
3.53328e-06
5.51821e-14
5.73032e-08
3.51508e-06
6.3318e-14
5.85015e-08
3.49649e-06
7.4493e-14
5.95977e-08
3.47754e-06
8.66864e-14
6.05985e-08
3.45826e-06
9.78719e-14
6.15099e-08
3.43869e-06
1.06346e-13
6.23381e-08
3.41884e-06
1.11153e-13
6.30888e-08
3.39874e-06
1.12199e-13
6.37675e-08
3.37841e-06
1.10174e-13
6.43795e-08
3.35787e-06
1.06304e-13
6.49297e-08
3.33713e-06
1.01967e-13
6.54231e-08
3.31623e-06
9.84147e-14
6.5864e-08
3.29516e-06
9.64024e-14
6.62569e-08
3.27396e-06
9.63798e-14
6.66058e-08
3.25262e-06
9.81614e-14
6.69147e-08
3.23116e-06
1.01175e-13
6.71872e-08
3.2096e-06
1.04634e-13
6.74269e-08
3.18794e-06
1.07657e-13
6.76372e-08
3.16619e-06
1.0943e-13
6.7821e-08
3.14437e-06
1.09284e-13
6.79816e-08
3.12247e-06
1.06863e-13
6.81216e-08
3.1005e-06
1.01993e-13
6.82438e-08
3.07847e-06
9.48705e-14
6.83507e-08
3.05639e-06
8.58499e-14
6.84447e-08
3.03425e-06
7.55057e-14
6.85281e-08
3.01206e-06
6.44937e-14
6.86031e-08
2.98983e-06
5.34158e-14
6.86718e-08
2.96755e-06
4.29502e-14
6.87361e-08
2.94523e-06
3.36121e-14
6.8798e-08
2.92286e-06
2.58076e-14
6.88593e-08
2.90045e-06
1.98315e-14
6.89218e-08
2.878e-06
1.58034e-14
6.8987e-08
2.85551e-06
1.37166e-14
6.90567e-08
2.83296e-06
1.34147e-14
6.91324e-08
2.81037e-06
1.46394e-14
6.92155e-08
2.78773e-06
1.69934e-14
6.93076e-08
2.76504e-06
2.00916e-14
6.941e-08
2.74229e-06
2.34691e-14
6.95241e-08
2.71948e-06
2.67165e-14
6.96512e-08
2.6966e-06
2.95025e-14
6.97926e-08
2.67365e-06
3.16085e-14
6.99495e-08
2.65063e-06
3.29112e-14
7.01233e-08
2.62753e-06
3.33727e-14
7.03151e-08
2.60434e-06
3.31593e-14
7.05262e-08
2.58106e-06
3.23787e-14
7.07578e-08
2.55768e-06
3.12806e-14
7.10111e-08
2.5342e-06
3.00749e-14
7.12873e-08
2.5106e-06
2.8963e-14
7.15877e-08
2.48688e-06
2.81407e-14
7.19134e-08
2.46303e-06
2.7681e-14
7.22657e-08
2.43904e-06
2.76376e-14
7.26457e-08
2.4149e-06
2.79273e-14
7.30547e-08
2.3906e-06
2.8472e-14
7.34939e-08
2.36614e-06
2.91121e-14
7.39643e-08
2.3415e-06
2.97193e-14
7.44672e-08
2.31667e-06
3.02102e-14
7.50037e-08
2.29165e-06
3.0604e-14
7.55748e-08
2.26641e-06
3.10134e-14
7.61817e-08
2.24096e-06
3.16657e-14
7.68254e-08
2.21527e-06
3.27828e-14
7.7507e-08
2.18933e-06
3.44967e-14
7.82275e-08
2.16314e-06
3.68872e-14
7.89879e-08
2.13668e-06
3.98674e-14
7.97891e-08
2.10994e-06
4.3205e-14
8.06321e-08
2.0829e-06
4.65426e-14
8.15178e-08
2.05555e-06
4.94257e-14
8.2447e-08
2.02788e-06
5.13964e-14
8.34206e-08
1.99987e-06
5.2236e-14
8.44392e-08
1.97151e-06
5.18509e-14
8.55037e-08
1.94278e-06
5.04423e-14
8.66145e-08
1.91368e-06
4.84751e-14
8.77723e-08
1.88418e-06
4.65808e-14
8.89775e-08
1.85427e-06