/*--------------------------------*- C++ -*----------------------------------*\
  =========                 |
  \\      /  F ield         | OpenFOAM: The Open Source CFD Toolbox
   \\    /   O peration     | Website:  https://openfoam.org
    \\  /    A nd           | Version:  8
     \\/     M anipulation  |
\*---------------------------------------------------------------------------*/
FoamFile
{
    version     2.0;
    format      ascii;
    class       volScalarField;
    location    "3700";
    object      alphat;
}
// * * * * * * * * * * * * * * * * * * * * * * * * * * * * * * * * * * * * * //

dimensions      [1 -1 -1 0 0 0 0];

internalField   nonuniform List<scalar> 
48000
(
5.16918e-05
8.95545e-05
0.000110867
0.000126574
0.000139745
0.000150831
0.000160448
0.00016899
0.000176845
0.000184101
0.000190826
0.000197113
0.000203021
0.000208592
0.000213863
0.000218862
0.000223611
0.000228128
0.000232429
0.000236527
0.000240432
0.000244153
0.000247698
0.000251075
0.000254289
0.000257346
0.000260252
0.000263011
0.000265628
0.000268107
0.000270453
0.000272669
0.00027476
0.00027673
0.000278582
0.000280319
0.000281947
0.000283467
0.000284885
0.000286203
0.000287425
0.000288554
0.000289593
0.000290546
0.000291434
0.000292245
0.00029298
0.00029364
0.000294229
0.00029475
0.000295207
0.000295601
0.000295938
0.000296218
0.000296444
0.00029662
0.000296748
0.00029683
0.000296868
0.000296865
0.000296822
0.000296743
0.000296627
0.000296479
0.000296298
0.000296087
0.000295848
0.000295581
0.000295289
0.000294972
0.000294632
0.00029427
0.000293887
0.000293483
0.000293061
0.000292621
0.000292163
0.000291689
0.000291198
0.000290693
0.000290173
0.000289639
0.000289092
0.000288531
0.000287958
0.000287372
0.000286774
0.000286165
0.000285544
0.000284913
0.00028427
0.000283616
0.000282951
0.000282276
0.00028159
0.000280894
0.000280187
0.000279469
0.000278741
0.000278002
0.000277253
0.000276492
0.000275721
0.000274939
0.000274145
0.00027334
0.000272524
0.000271696
0.000270855
0.000270003
0.000269138
0.000268261
0.00026737
0.000266467
0.00026555
0.000264619
0.000263674
0.000262715
0.000261741
0.000260752
0.000259747
0.000258727
0.000257691
0.000256639
0.00025557
0.000254484
0.000253381
0.00025226
0.00025112
0.000249963
0.000248786
0.000247591
0.000246375
0.00024514
0.000243885
0.000242609
0.000241312
0.000239994
0.000238654
0.000237292
0.000235908
0.000234501
0.000233071
0.000231618
0.00023014
0.000228639
0.000227113
0.000225562
0.000223986
0.000222384
0.000220756
0.000219102
0.000217422
0.000215714
0.000213979
0.000212216
0.000210424
0.000208604
0.000206754
0.000204875
0.000202965
0.000201024
0.000199052
0.000197048
0.000195011
0.000192939
0.000190834
0.000188692
0.000186514
0.000184297
0.000182042
0.000179745
0.000177406
0.000175022
0.000172591
0.000170111
0.000167578
0.00016499
0.000162343
0.000159633
0.000156859
0.000154028
0.000151131
0.000148141
0.000145048
0.000141837
0.000138492
0.000134994
0.000131317
0.000127427
0.000123281
0.00011883
0.000114041
0.00010877
0.000102852
9.60275e-05
8.78397e-05
7.74365e-05
6.42302e-05
0.000205981
5.16923e-05
8.95549e-05
0.000110868
0.000126574
0.000139745
0.000150831
0.000160448
0.00016899
0.000176845
0.000184101
0.000190826
0.000197114
0.000203021
0.000208592
0.000213863
0.000218862
0.000223611
0.000228128
0.00023243
0.000236527
0.000240432
0.000244153
0.000247698
0.000251075
0.000254289
0.000257346
0.000260252
0.000263011
0.000265628
0.000268107
0.000270453
0.000272669
0.00027476
0.00027673
0.000278582
0.000280319
0.000281947
0.000283467
0.000284885
0.000286203
0.000287425
0.000288554
0.000289593
0.000290546
0.000291434
0.000292245
0.00029298
0.00029364
0.000294229
0.00029475
0.000295207
0.000295601
0.000295938
0.000296218
0.000296444
0.00029662
0.000296748
0.00029683
0.000296868
0.000296865
0.000296822
0.000296743
0.000296627
0.000296479
0.000296298
0.000296087
0.000295848
0.000295581
0.000295289
0.000294972
0.000294632
0.00029427
0.000293887
0.000293483
0.000293061
0.000292621
0.000292163
0.000291689
0.000291198
0.000290693
0.000290173
0.000289639
0.000289092
0.000288531
0.000287958
0.000287372
0.000286774
0.000286165
0.000285544
0.000284913
0.00028427
0.000283616
0.000282951
0.000282276
0.00028159
0.000280894
0.000280187
0.000279469
0.000278741
0.000278002
0.000277253
0.000276492
0.000275721
0.000274939
0.000274145
0.00027334
0.000272524
0.000271696
0.000270855
0.000270003
0.000269138
0.000268261
0.00026737
0.000266467
0.00026555
0.000264619
0.000263674
0.000262715
0.000261741
0.000260752
0.000259747
0.000258727
0.000257691
0.000256639
0.00025557
0.000254484
0.000253381
0.00025226
0.00025112
0.000249963
0.000248786
0.000247591
0.000246375
0.00024514
0.000243885
0.000242609
0.000241312
0.000239994
0.000238654
0.000237292
0.000235908
0.000234501
0.000233071
0.000231618
0.00023014
0.000228639
0.000227113
0.000225562
0.000223986
0.000222384
0.000220756
0.000219102
0.000217422
0.000215714
0.000213979
0.000212216
0.000210424
0.000208604
0.000206754
0.000204875
0.000202965
0.000201024
0.000199052
0.000197048
0.000195011
0.000192939
0.000190834
0.000188692
0.000186514
0.000184297
0.000182042
0.000179745
0.000177406
0.000175022
0.000172591
0.000170111
0.000167578
0.00016499
0.000162343
0.000159633
0.000156859
0.000154028
0.000151131
0.000148141
0.000145048
0.000141837
0.000138492
0.000134994
0.000131317
0.000127427
0.000123281
0.000118831
0.000114041
0.00010877
0.000102852
9.60273e-05
8.78391e-05
7.74356e-05
6.42355e-05
0.000205987
7.78169e-05
0.000576611
0.000913569
0.0011495
0.00132528
0.00146874
0.00159179
0.00169998
0.00179636
0.00188349
0.0019632
0.00203668
0.00210483
0.00216835
0.00222777
0.00228353
0.00233599
0.00238544
0.00243212
0.00247624
0.00251799
0.00255752
0.00259496
0.00263044
0.00266407
0.00269594
0.00272613
0.00275474
0.00278182
0.00280746
0.00283171
0.00285463
0.00287627
0.00289669
0.00291594
0.00293407
0.00295111
0.00296711
0.0029821
0.00299614
0.00300924
0.00302144
0.00303276
0.00304315
0.00305242
0.00306087
0.00306859
0.00307564
0.00308206
0.00308788
0.00309314
0.00309785
0.00310204
0.00310574
0.00310896
0.00311172
0.00311405
0.00311596
0.00311747
0.00311859
0.00311935
0.00311976
0.00311983
0.00311958
0.00311902
0.00311817
0.00311703
0.00311562
0.00311395
0.00311203
0.00310987
0.00310749
0.00310488
0.00310205
0.00309903
0.0030958
0.00309239
0.00308879
0.00308501
0.00308106
0.00307694
0.00307266
0.00306822
0.00306363
0.00305889
0.00305399
0.00304896
0.00304378
0.00303846
0.00303301
0.00302741
0.00302169
0.00301583
0.00300983
0.0030037
0.00299744
0.00299105
0.00298452
0.00297787
0.00297107
0.00296415
0.00295708
0.00294988
0.00294255
0.00293507
0.00292745
0.00291969
0.00291179
0.00290374
0.00289553
0.00288718
0.00287867
0.00287001
0.00286119
0.0028522
0.00284305
0.00283373
0.00282424
0.00281458
0.00280474
0.00279472
0.00278451
0.00277412
0.00276354
0.00275277
0.00274179
0.00273062
0.00271924
0.00270765
0.00269586
0.00268384
0.00267161
0.00265916
0.00264648
0.00263357
0.00262043
0.00260705
0.00259343
0.00257956
0.00256545
0.00255108
0.00253646
0.00252158
0.00250644
0.00249103
0.00247535
0.0024594
0.00244316
0.00242665
0.00240984
0.00239275
0.00237536
0.00235767
0.00233968
0.00232138
0.00230276
0.00228382
0.00226456
0.00224496
0.00222502
0.00220474
0.00218411
0.00216311
0.00214175
0.00212
0.00209786
0.00207532
0.00205236
0.00202896
0.00200512
0.00198082
0.00195602
0.00193071
0.00190487
0.00187845
0.00185143
0.00182377
0.0017954
0.00176628
0.00173632
0.0017054
0.00167335
0.00164008
0.00160557
0.00156972
0.00153235
0.00149326
0.00145216
0.00140869
0.00136233
0.00131232
0.00125738
0.00119558
0.0011258
0.00104513
0.000948642
0.000827469
0.000663709
0.000416653
5.58341e-05
7.78173e-05
0.000576621
0.000913583
0.00114951
0.00132529
0.00146876
0.0015918
0.0017
0.00179638
0.0018835
0.00196321
0.00203669
0.00210484
0.00216836
0.00222778
0.00228354
0.002336
0.00238545
0.00243213
0.00247625
0.002518
0.00255753
0.00259497
0.00263045
0.00266408
0.00269595
0.00272614
0.00275475
0.00278183
0.00280747
0.00283171
0.00285463
0.00287628
0.0028967
0.00291595
0.00293407
0.00295111
0.00296711
0.00298211
0.00299614
0.00300925
0.00302145
0.00303276
0.00304316
0.00305243
0.00306087
0.00306859
0.00307564
0.00308206
0.00308789
0.00309314
0.00309786
0.00310205
0.00310574
0.00310896
0.00311173
0.00311405
0.00311596
0.00311747
0.0031186
0.00311936
0.00311976
0.00311984
0.00311959
0.00311903
0.00311817
0.00311703
0.00311563
0.00311396
0.00311204
0.00310988
0.00310749
0.00310488
0.00310206
0.00309903
0.00309581
0.00309239
0.00308879
0.00308501
0.00308106
0.00307695
0.00307267
0.00306823
0.00306363
0.00305889
0.003054
0.00304896
0.00304379
0.00303847
0.00303301
0.00302742
0.00302169
0.00301583
0.00300984
0.00300371
0.00299745
0.00299105
0.00298453
0.00297787
0.00297108
0.00296415
0.00295709
0.00294989
0.00294255
0.00293508
0.00292746
0.0029197
0.00291179
0.00290374
0.00289554
0.00288719
0.00287868
0.00287001
0.00286119
0.0028522
0.00284305
0.00283374
0.00282425
0.00281458
0.00280474
0.00279472
0.00278452
0.00277413
0.00276355
0.00275277
0.0027418
0.00273062
0.00271924
0.00270766
0.00269586
0.00268385
0.00267162
0.00265916
0.00264648
0.00263357
0.00262043
0.00260705
0.00259343
0.00257956
0.00256545
0.00255109
0.00253647
0.00252159
0.00250644
0.00249103
0.00247535
0.0024594
0.00244317
0.00242665
0.00240985
0.00239275
0.00237536
0.00235768
0.00233968
0.00232138
0.00230276
0.00228382
0.00226456
0.00224496
0.00222503
0.00220475
0.00218411
0.00216312
0.00214175
0.00212
0.00209786
0.00207532
0.00205236
0.00202897
0.00200513
0.00198082
0.00195602
0.00193072
0.00190487
0.00187846
0.00185144
0.00182377
0.00179541
0.00176628
0.00173632
0.0017054
0.00167335
0.00164009
0.00160558
0.00156972
0.00153236
0.00149326
0.00145217
0.00140869
0.00136233
0.00131232
0.00125738
0.00119558
0.00112581
0.00104513
0.000948643
0.000827467
0.000663708
0.000416653
5.58283e-05
9.56783e-05
0.000874465
0.0015553
0.00206514
0.00246607
0.00279818
0.00308313
0.00333345
0.00355677
0.00375834
0.00394198
0.00411045
0.00426585
0.00440983
0.0045437
0.00466854
0.00478523
0.00489452
0.00499706
0.00509341
0.00518405
0.0052694
0.00534984
0.00542572
0.00549733
0.00556495
0.00562882
0.00568917
0.00574621
0.00580012
0.00585107
0.00589923
0.00594473
0.00598772
0.00602832
0.00606665
0.00610281
0.0061369
0.00616902
0.00619924
0.00622765
0.0062543
0.00627923
0.00630243
0.00632384
0.00634368
0.0063621
0.00637919
0.00639504
0.00640972
0.00642328
0.00643578
0.00644726
0.00645776
0.00646733
0.00647601
0.00648383
0.00649082
0.00649702
0.00650245
0.00650715
0.00651115
0.00651447
0.00651713
0.00651917
0.0065206
0.00652144
0.00652173
0.00652147
0.00652068
0.00651939
0.00651761
0.00651536
0.00651264
0.00650949
0.0065059
0.00650189
0.00649747
0.00649266
0.00648746
0.00648188
0.00647594
0.00646963
0.00646297
0.00645596
0.00644861
0.00644093
0.00643291
0.00642456
0.00641589
0.00640689
0.00639758
0.00638794
0.00637799
0.00636773
0.00635715
0.00634625
0.00633504
0.0063235
0.00631165
0.00629948
0.00628699
0.00627417
0.00626103
0.00624755
0.00623374
0.00621959
0.0062051
0.00619026
0.00617507
0.00615952
0.00614361
0.00612734
0.0061107
0.00609367
0.00607627
0.00605847
0.00604028
0.00602168
0.00600268
0.00598326
0.00596342
0.00594315
0.00592244
0.00590128
0.00587968
0.00585761
0.00583508
0.00581207
0.00578858
0.0057646
0.00574012
0.00571513
0.00568963
0.0056636
0.00563704
0.00560994
0.00558229
0.00555409
0.00552531
0.00549596
0.00546602
0.00543549
0.00540436
0.00537261
0.00534023
0.00530722
0.00527356
0.00523925
0.00520427
0.00516861
0.00513225
0.0050952
0.00505742
0.00501891
0.00497964
0.00493962
0.00489881
0.0048572
0.00481478
0.00477151
0.00472737
0.00468235
0.00463642
0.00458953
0.00454167
0.0044928
0.00444288
0.00439186
0.00433969
0.00428633
0.00423172
0.00417577
0.00411843
0.00405959
0.00399916
0.00393702
0.00387303
0.00380702
0.00373879
0.00366809
0.00359462
0.00351811
0.00343828
0.00335471
0.00326689
0.00317416
0.00307569
0.0029704
0.00285681
0.00273294
0.00259594
0.00244183
0.00226627
0.00206217
0.00181856
0.00151804
0.00113241
0.000620734
6.80191e-05
9.56787e-05
0.000874476
0.00155532
0.00206517
0.0024661
0.00279821
0.00308316
0.00333348
0.0035568
0.00375837
0.00394201
0.00411048
0.00426588
0.00440986
0.00454373
0.00466856
0.00478525
0.00489454
0.00499708
0.00509343
0.00518407
0.00526942
0.00534986
0.00542574
0.00549734
0.00556496
0.00562883
0.00568918
0.00574622
0.00580013
0.00585108
0.00589924
0.00594474
0.00598773
0.00602833
0.00606666
0.00610282
0.00613691
0.00616903
0.00619925
0.00622766
0.00625431
0.00627923
0.00630243
0.00632384
0.00634369
0.0063621
0.00637919
0.00639504
0.00640972
0.00642328
0.00643578
0.00644726
0.00645777
0.00646734
0.00647601
0.00648383
0.00649082
0.00649702
0.00650245
0.00650716
0.00651115
0.00651447
0.00651714
0.00651917
0.0065206
0.00652145
0.00652173
0.00652147
0.00652069
0.0065194
0.00651761
0.00651536
0.00651265
0.00650949
0.0065059
0.00650189
0.00649748
0.00649266
0.00648746
0.00648189
0.00647594
0.00646963
0.00646297
0.00645596
0.00644861
0.00644093
0.00643291
0.00642456
0.00641589
0.00640689
0.00639758
0.00638795
0.006378
0.00636773
0.00635715
0.00634625
0.00633504
0.00632351
0.00631166
0.00629949
0.00628699
0.00627417
0.00626103
0.00624755
0.00623374
0.00621959
0.0062051
0.00619026
0.00617507
0.00615952
0.00614362
0.00612734
0.0061107
0.00609367
0.00607627
0.00605847
0.00604028
0.00602168
0.00600268
0.00598326
0.00596342
0.00594315
0.00592244
0.00590128
0.00587968
0.00585761
0.00583508
0.00581207
0.00578858
0.0057646
0.00574012
0.00571513
0.00568963
0.0056636
0.00563704
0.00560994
0.0055823
0.00555409
0.00552531
0.00549596
0.00546603
0.00543549
0.00540436
0.00537261
0.00534023
0.00530722
0.00527356
0.00523925
0.00520427
0.00516861
0.00513226
0.0050952
0.00505742
0.00501891
0.00497964
0.00493962
0.00489881
0.0048572
0.00481478
0.00477151
0.00472737
0.00468235
0.00463642
0.00458953
0.00454167
0.0044928
0.00444288
0.00439186
0.00433969
0.00428633
0.00423172
0.00417577
0.00411843
0.00405959
0.00399916
0.00393702
0.00387303
0.00380702
0.00373879
0.00366809
0.00359462
0.00351811
0.00343828
0.00335471
0.00326689
0.00317416
0.00307569
0.0029704
0.00285681
0.00273294
0.00259594
0.00244183
0.00226627
0.00206217
0.00181856
0.00151804
0.00113241
0.000620736
6.80203e-05
0.000108369
0.00105647
0.00198748
0.00272659
0.00332961
0.00383818
0.00427841
0.00466693
0.00501472
0.00532938
0.00561643
0.00587996
0.00612311
0.00634837
0.00655771
0.00675278
0.00693495
0.00710539
0.00726509
0.00741495
0.00755572
0.0076881
0.0078127
0.00793007
0.00804071
0.00814508
0.00824358
0.00833659
0.00842445
0.00850749
0.008586
0.00866023
0.00873043
0.00879684
0.00885965
0.00891907
0.00897527
0.0090284
0.00907863
0.00912608
0.00917088
0.00921312
0.0092529
0.00929026
0.00932525
0.00935805
0.00938881
0.00941764
0.00944468
0.00947
0.0094937
0.00951585
0.00953652
0.00955577
0.00957367
0.00959027
0.00960562
0.00961977
0.00963276
0.00964464
0.00965544
0.00966522
0.00967399
0.00968181
0.0096887
0.00969469
0.00969981
0.0097041
0.00970757
0.00971026
0.00971218
0.00971337
0.00971383
0.0097136
0.00971269
0.00971111
0.00970889
0.00970604
0.00970257
0.0096985
0.00969385
0.00968861
0.0096828
0.00967643
0.00966952
0.00966206
0.00965406
0.00964553
0.00963647
0.0096269
0.0096168
0.00960619
0.00959507
0.00958343
0.00957128
0.00955862
0.00954545
0.00953177
0.00951757
0.00950285
0.00948762
0.00947186
0.00945557
0.00943875
0.0094214
0.0094035
0.00938505
0.00936606
0.0093465
0.00932637
0.00930567
0.00928439
0.00926251
0.00924004
0.00921696
0.00919327
0.00916895
0.00914399
0.00911839
0.00909214
0.00906521
0.00903761
0.00900933
0.00898034
0.00895065
0.00892023
0.00888908
0.00885719
0.00882453
0.00879111
0.0087569
0.00872189
0.00868608
0.00864944
0.00861197
0.00857364
0.00853445
0.00849438
0.00845342
0.00841154
0.00836874
0.008325
0.0082803
0.00823462
0.00818795
0.00814027
0.00809157
0.00804181
0.00799099
0.00793907
0.00788605
0.00783189
0.00777657
0.00772007
0.00766235
0.0076034
0.00754318
0.00748165
0.00741879
0.00735455
0.0072889
0.0072218
0.00715319
0.00708302
0.00701125
0.00693781
0.00686263
0.00678564
0.00670677
0.00662591
0.00654298
0.00645786
0.00637043
0.00628053
0.00618802
0.00609271
0.00599437
0.00589277
0.0057876
0.00567853
0.00556515
0.005447
0.00532354
0.00519417
0.00505814
0.0049145
0.00476209
0.0045994
0.00442454
0.0042351
0.00402787
0.00379861
0.00354172
0.00324992
0.00291352
0.00251843
0.00204473
0.00146544
0.000756064
7.74535e-05
0.00010837
0.00105649
0.0019875
0.00272662
0.00332964
0.00383822
0.00427845
0.00466697
0.00501476
0.00532942
0.00561647
0.00588
0.00612315
0.0063484
0.00655774
0.00675281
0.00693498
0.00710542
0.00726512
0.00741498
0.00755575
0.00768813
0.00781273
0.00793009
0.00804073
0.0081451
0.0082436
0.00833661
0.00842447
0.00850751
0.00858601
0.00866024
0.00873045
0.00879685
0.00885967
0.00891908
0.00897528
0.00902841
0.00907864
0.00912609
0.00917088
0.00921313
0.0092529
0.00929027
0.00932526
0.00935806
0.00938881
0.00941765
0.00944468
0.00947
0.0094937
0.00951585
0.00953652
0.00955578
0.00957367
0.00959027
0.00960562
0.00961977
0.00963276
0.00964464
0.00965544
0.00966522
0.00967399
0.00968181
0.0096887
0.00969469
0.00969981
0.0097041
0.00970757
0.00971026
0.00971218
0.00971337
0.00971383
0.0097136
0.00971269
0.00971111
0.00970889
0.00970604
0.00970257
0.0096985
0.00969384
0.00968861
0.0096828
0.00967643
0.00966952
0.00966205
0.00965406
0.00964553
0.00963647
0.0096269
0.0096168
0.00960619
0.00959507
0.00958343
0.00957128
0.00955862
0.00954545
0.00953177
0.00951757
0.00950285
0.00948762
0.00947186
0.00945557
0.00943875
0.00942139
0.0094035
0.00938505
0.00936605
0.00934649
0.00932637
0.00930567
0.00928439
0.00926251
0.00924004
0.00921696
0.00919327
0.00916895
0.00914399
0.00911839
0.00909213
0.00906521
0.00903761
0.00900933
0.00898034
0.00895065
0.00892023
0.00888908
0.00885718
0.00882453
0.0087911
0.0087569
0.00872189
0.00868608
0.00864944
0.00861196
0.00857364
0.00853445
0.00849438
0.00845341
0.00841154
0.00836874
0.00832499
0.00828029
0.00823462
0.00818795
0.00814027
0.00809156
0.00804181
0.00799098
0.00793907
0.00788604
0.00783188
0.00777657
0.00772006
0.00766235
0.0076034
0.00754317
0.00748165
0.00741879
0.00735455
0.0072889
0.00722179
0.00715318
0.00708302
0.00701125
0.0069378
0.00686263
0.00678564
0.00670676
0.00662591
0.00654298
0.00645786
0.00637042
0.00628053
0.00618802
0.0060927
0.00599437
0.00589276
0.0057876
0.00567853
0.00556515
0.00544699
0.00532354
0.00519417
0.00505814
0.0049145
0.00476208
0.0045994
0.00442454
0.0042351
0.00402787
0.00379861
0.00354172
0.00324991
0.00291352
0.00251843
0.00204473
0.00146544
0.000756065
7.74539e-05
0.000118659
0.00118034
0.00229631
0.00322022
0.00399259
0.00465336
0.00523041
0.00574267
0.00620324
0.00662143
0.00700405
0.00735621
0.00768186
0.00798413
0.00826553
0.00852814
0.0087737
0.00900369
0.00921942
0.009422
0.00961243
0.00979161
0.00996033
0.0101193
0.0102693
0.0104108
0.0105444
0.0106706
0.0107899
0.0109027
0.0110094
0.0111104
0.011206
0.0112966
0.0113824
0.0114636
0.0115406
0.0116136
0.0116827
0.0117482
0.0118102
0.0118689
0.0119244
0.0119769
0.0120264
0.0120731
0.0121172
0.0121588
0.012198
0.0122351
0.01227
0.0123029
0.0123339
0.0123631
0.0123905
0.0124162
0.0124403
0.0124628
0.0124838
0.0125034
0.0125216
0.0125385
0.0125541
0.0125684
0.0125815
0.0125934
0.0126042
0.012614
0.0126226
0.0126302
0.0126368
0.0126424
0.0126471
0.0126509
0.0126537
0.0126557
0.0126568
0.0126571
0.0126565
0.0126551
0.012653
0.01265
0.0126463
0.0126418
0.0126366
0.0126306
0.0126239
0.0126165
0.0126083
0.0125995
0.0125899
0.0125796
0.0125686
0.0125569
0.0125445
0.0125314
0.0125176
0.012503
0.0124878
0.0124718
0.0124552
0.0124378
0.0124196
0.0124008
0.0123812
0.0123608
0.0123397
0.0123178
0.0122951
0.0122717
0.0122475
0.0122224
0.0121966
0.0121699
0.0121423
0.012114
0.0120847
0.0120546
0.0120236
0.0119917
0.0119589
0.0119251
0.0118904
0.0118548
0.0118181
0.0117805
0.0117418
0.0117022
0.0116614
0.0116197
0.0115768
0.0115328
0.0114877
0.0114415
0.0113942
0.0113456
0.0112959
0.0112449
0.0111927
0.0111392
0.0110845
0.0110284
0.010971
0.0109123
0.0108522
0.0107906
0.0107276
0.0106632
0.0105972
0.0105298
0.0104607
0.0103901
0.0103178
0.0102438
0.0101682
0.0100907
0.0100115
0.00993041
0.0098474
0.00976243
0.00967543
0.00958634
0.00949508
0.00940158
0.00930575
0.0092075
0.00910674
0.00900334
0.00889719
0.00878815
0.00867607
0.00856078
0.00844209
0.0083198
0.00819364
0.00806336
0.00792862
0.00778906
0.00764426
0.00749371
0.00733684
0.00717298
0.00700135
0.006821
0.00663084
0.00642948
0.00621526
0.00598607
0.00573932
0.0054717
0.00517905
0.00485598
0.00449571
0.00408934
0.00362574
0.00308998
0.00246287
0.00172219
0.000859302
8.49913e-05
0.000118659
0.00118036
0.00229633
0.00322026
0.00399263
0.00465341
0.00523046
0.00574272
0.00620329
0.00662148
0.00700409
0.00735626
0.00768191
0.00798418
0.00826557
0.00852818
0.00877374
0.00900373
0.00921946
0.00942203
0.00961246
0.00979164
0.00996037
0.0101194
0.0102693
0.0104108
0.0105444
0.0106706
0.0107899
0.0109027
0.0110094
0.0111104
0.0112061
0.0112966
0.0113824
0.0114636
0.0115406
0.0116136
0.0116827
0.0117482
0.0118102
0.0118689
0.0119245
0.0119769
0.0120264
0.0120731
0.0121172
0.0121588
0.012198
0.0122351
0.01227
0.0123029
0.0123339
0.0123631
0.0123905
0.0124162
0.0124403
0.0124628
0.0124838
0.0125034
0.0125216
0.0125385
0.0125541
0.0125684
0.0125815
0.0125934
0.0126042
0.012614
0.0126226
0.0126302
0.0126368
0.0126424
0.0126471
0.0126509
0.0126537
0.0126557
0.0126568
0.0126571
0.0126565
0.0126551
0.012653
0.01265
0.0126463
0.0126418
0.0126366
0.0126306
0.0126239
0.0126165
0.0126083
0.0125995
0.0125899
0.0125796
0.0125686
0.0125569
0.0125445
0.0125314
0.0125176
0.012503
0.0124878
0.0124718
0.0124552
0.0124378
0.0124196
0.0124008
0.0123812
0.0123608
0.0123397
0.0123178
0.0122951
0.0122717
0.0122474
0.0122224
0.0121965
0.0121699
0.0121423
0.012114
0.0120847
0.0120546
0.0120236
0.0119917
0.0119589
0.0119251
0.0118904
0.0118548
0.0118181
0.0117805
0.0117418
0.0117022
0.0116614
0.0116196
0.0115768
0.0115328
0.0114877
0.0114415
0.0113942
0.0113456
0.0112959
0.0112449
0.0111927
0.0111392
0.0110845
0.0110284
0.010971
0.0109123
0.0108522
0.0107906
0.0107276
0.0106632
0.0105972
0.0105298
0.0104607
0.0103901
0.0103178
0.0102438
0.0101682
0.0100907
0.0100115
0.0099304
0.0098474
0.00976242
0.00967543
0.00958633
0.00949507
0.00940157
0.00930574
0.0092075
0.00910673
0.00900333
0.00889718
0.00878814
0.00867606
0.00856078
0.00844209
0.00831979
0.00819364
0.00806335
0.00792861
0.00778906
0.00764425
0.00749371
0.00733684
0.00717298
0.00700134
0.006821
0.00663083
0.00642948
0.00621525
0.00598607
0.00573931
0.0054717
0.00517905
0.00485598
0.00449571
0.00408934
0.00362574
0.00308998
0.00246287
0.00172219
0.0008593
8.49913e-05
0.000127395
0.00127867
0.00253566
0.00360704
0.00451882
0.00530787
0.00600231
0.00662227
0.00718218
0.00769248
0.00816094
0.00859344
0.00899451
0.00936778
0.00971615
0.010042
0.0103474
0.010634
0.0109034
0.0111568
0.0113954
0.0116202
0.0118323
0.0120324
0.0122213
0.0123998
0.0125685
0.012728
0.012879
0.0130219
0.0131572
0.0132855
0.013407
0.0135223
0.0136316
0.0137353
0.0138337
0.0139271
0.0140157
0.0140999
0.0141798
0.0142556
0.0143275
0.0143957
0.0144604
0.0145217
0.0145797
0.0146348
0.014687
0.0147364
0.0147833
0.0148277
0.0148698
0.0149096
0.0149472
0.0149828
0.0150164
0.0150482
0.015078
0.0151061
0.0151326
0.0151573
0.0151805
0.0152022
0.0152224
0.0152411
0.0152585
0.0152745
0.0152893
0.0153027
0.0153149
0.015326
0.0153358
0.0153445
0.0153521
0.0153586
0.015364
0.0153684
0.0153718
0.0153741
0.0153755
0.0153759
0.0153753
0.0153738
0.0153713
0.0153679
0.0153636
0.0153583
0.0153522
0.0153452
0.0153372
0.0153284
0.0153186
0.015308
0.0152964
0.015284
0.0152707
0.0152565
0.0152413
0.0152253
0.0152083
0.0151905
0.0151717
0.0151519
0.0151312
0.0151096
0.015087
0.0150634
0.0150388
0.0150133
0.0149867
0.0149591
0.0149304
0.0149007
0.01487
0.0148382
0.0148052
0.0147712
0.014736
0.0146997
0.0146622
0.0146235
0.0145836
0.0145425
0.0145001
0.0144565
0.0144116
0.0143654
0.0143178
0.0142689
0.0142186
0.014167
0.0141138
0.0140593
0.0140033
0.0139457
0.0138867
0.013826
0.0137638
0.0137
0.0136345
0.0135674
0.0134985
0.0134279
0.0133555
0.0132813
0.0132052
0.0131272
0.0130473
0.0129654
0.0128815
0.0127955
0.0127074
0.0126171
0.0125246
0.0124297
0.0123325
0.0122329
0.0121308
0.0120261
0.0119187
0.0118086
0.0116956
0.0115797
0.0114607
0.0113385
0.011213
0.0110839
0.0109513
0.0108148
0.0106742
0.0105294
0.0103801
0.0102259
0.0100666
0.00990184
0.0097311
0.00955394
0.00936979
0.009178
0.00897782
0.00876835
0.00854857
0.00831725
0.00807293
0.00781384
0.00753785
0.00724234
0.00692411
0.0065792
0.00620267
0.00578842
0.00532878
0.00481416
0.00423272
0.00357008
0.00280891
0.00193219
0.000944115
9.13585e-05
0.000127396
0.00127868
0.00253568
0.00360707
0.00451886
0.00530792
0.00600236
0.00662233
0.00718223
0.00769254
0.008161
0.00859349
0.00899457
0.00936783
0.0097162
0.0100421
0.0103475
0.0106341
0.0109034
0.0111568
0.0113954
0.0116203
0.0118323
0.0120324
0.0122213
0.0123998
0.0125685
0.0127281
0.012879
0.0130219
0.0131573
0.0132855
0.013407
0.0135223
0.0136316
0.0137353
0.0138337
0.0139271
0.0140157
0.0140999
0.0141798
0.0142556
0.0143276
0.0143958
0.0144604
0.0145217
0.0145798
0.0146348
0.014687
0.0147365
0.0147833
0.0148277
0.0148698
0.0149096
0.0149473
0.0149828
0.0150165
0.0150482
0.015078
0.0151061
0.0151326
0.0151573
0.0151805
0.0152022
0.0152224
0.0152411
0.0152585
0.0152745
0.0152893
0.0153027
0.0153149
0.015326
0.0153358
0.0153445
0.0153521
0.0153586
0.015364
0.0153684
0.0153718
0.0153741
0.0153755
0.0153759
0.0153753
0.0153738
0.0153713
0.0153679
0.0153636
0.0153583
0.0153522
0.0153451
0.0153372
0.0153284
0.0153186
0.015308
0.0152964
0.015284
0.0152707
0.0152565
0.0152413
0.0152253
0.0152083
0.0151905
0.0151716
0.0151519
0.0151312
0.0151096
0.015087
0.0150634
0.0150388
0.0150132
0.0149867
0.0149591
0.0149304
0.0149007
0.01487
0.0148381
0.0148052
0.0147712
0.014736
0.0146996
0.0146622
0.0146235
0.0145836
0.0145425
0.0145001
0.0144565
0.0144116
0.0143654
0.0143178
0.0142689
0.0142186
0.0141669
0.0141138
0.0140593
0.0140033
0.0139457
0.0138867
0.013826
0.0137638
0.0137
0.0136345
0.0135674
0.0134985
0.0134279
0.0133555
0.0132813
0.0132052
0.0131272
0.0130473
0.0129654
0.0128815
0.0127955
0.0127074
0.0126171
0.0125246
0.0124297
0.0123325
0.0122329
0.0121308
0.0120261
0.0119187
0.0118086
0.0116956
0.0115797
0.0114607
0.0113385
0.011213
0.0110839
0.0109513
0.0108148
0.0106742
0.0105294
0.0103801
0.0102259
0.0100666
0.00990183
0.0097311
0.00955394
0.00936979
0.009178
0.00897781
0.00876835
0.00854856
0.00831724
0.00807292
0.00781383
0.00753784
0.00724234
0.00692411
0.00657919
0.00620267
0.00578841
0.00532878
0.00481416
0.00423272
0.00357008
0.00280891
0.00193219
0.000944112
9.13585e-05
0.000135135
0.00136286
0.00273315
0.00392385
0.00495061
0.00584729
0.00664164
0.00735439
0.00800075
0.00859199
0.00913653
0.00964081
0.0101098
0.0105476
0.0109572
0.0113414
0.0117024
0.012042
0.0123619
0.0126635
0.012948
0.0132168
0.0134707
0.0137107
0.0139377
0.0141525
0.0143559
0.0145485
0.014731
0.014904
0.015068
0.0152236
0.0153713
0.0155115
0.0156447
0.0157712
0.0158915
0.0160057
0.0161144
0.0162177
0.0163159
0.0164094
0.0164982
0.0165827
0.016663
0.0167393
0.0168118
0.0168808
0.0169464
0.0170088
0.0170682
0.0171246
0.0171782
0.0172291
0.0172776
0.0173235
0.0173672
0.0174086
0.0174478
0.017485
0.0175202
0.0175534
0.0175848
0.0176143
0.0176422
0.0176683
0.0176928
0.0177158
0.0177372
0.0177571
0.0177755
0.0177926
0.0178082
0.0178225
0.0178355
0.0178472
0.0178576
0.0178668
0.0178747
0.0178815
0.0178871
0.0178915
0.0178948
0.0178969
0.0178979
0.0178978
0.0178966
0.0178943
0.0178909
0.0178865
0.0178809
0.0178743
0.0178666
0.0178578
0.0178479
0.017837
0.017825
0.0178119
0.0177977
0.0177824
0.017766
0.0177484
0.0177298
0.01771
0.0176891
0.0176671
0.0176438
0.0176194
0.0175938
0.017567
0.017539
0.0175097
0.0174792
0.0174474
0.0174143
0.0173799
0.0173442
0.0173071
0.0172687
0.0172289
0.0171876
0.017145
0.0171008
0.0170552
0.0170081
0.0169594
0.0169092
0.0168574
0.016804
0.0167489
0.0166922
0.0166338
0.0165736
0.0165117
0.0164479
0.0163824
0.016315
0.0162457
0.0161744
0.0161012
0.016026
0.0159487
0.0158693
0.0157878
0.0157041
0.0156182
0.01553
0.0154394
0.0153465
0.0152512
0.0151533
0.0150529
0.0149499
0.0148442
0.0147357
0.0146244
0.0145101
0.0143929
0.0142725
0.014149
0.0140221
0.0138918
0.013758
0.0136205
0.0134792
0.0133339
0.0131844
0.0130306
0.0128722
0.0127091
0.0125409
0.0123673
0.0121881
0.0120029
0.0118112
0.0116126
0.0114067
0.0111927
0.0109699
0.0107376
0.0104949
0.0102406
0.00997354
0.00969213
0.00939465
0.00907897
0.00874256
0.00838238
0.00799473
0.00757513
0.00711812
0.00661708
0.00606389
0.00544874
0.0047598
0.00398346
0.00310458
0.00211091
0.00101687
9.69308e-05
0.000135135
0.00136287
0.00273318
0.00392389
0.00495065
0.00584733
0.00664169
0.00735444
0.00800081
0.00859205
0.00913658
0.00964086
0.0101099
0.0105476
0.0109573
0.0113415
0.0117024
0.012042
0.0123619
0.0126635
0.0129481
0.0132168
0.0134707
0.0137107
0.0139377
0.0141525
0.0143559
0.0145485
0.014731
0.014904
0.015068
0.0152237
0.0153714
0.0155116
0.0156447
0.0157713
0.0158915
0.0160058
0.0161144
0.0162177
0.016316
0.0164094
0.0164982
0.0165827
0.016663
0.0167393
0.0168119
0.0168808
0.0169465
0.0170088
0.0170682
0.0171246
0.0171782
0.0172292
0.0172776
0.0173236
0.0173672
0.0174086
0.0174478
0.017485
0.0175202
0.0175534
0.0175848
0.0176143
0.0176422
0.0176683
0.0176929
0.0177158
0.0177372
0.0177571
0.0177755
0.0177926
0.0178082
0.0178225
0.0178355
0.0178472
0.0178576
0.0178668
0.0178747
0.0178815
0.0178871
0.0178915
0.0178948
0.0178969
0.0178979
0.0178978
0.0178966
0.0178943
0.0178909
0.0178865
0.0178809
0.0178743
0.0178666
0.0178578
0.0178479
0.017837
0.017825
0.0178119
0.0177977
0.0177824
0.017766
0.0177484
0.0177298
0.01771
0.0176891
0.0176671
0.0176438
0.0176194
0.0175938
0.017567
0.017539
0.0175097
0.0174792
0.0174474
0.0174143
0.0173799
0.0173442
0.0173071
0.0172687
0.0172289
0.0171876
0.017145
0.0171008
0.0170552
0.0170081
0.0169594
0.0169092
0.0168574
0.016804
0.0167489