/*--------------------------------*- C++ -*----------------------------------*\
  =========                 |
  \\      /  F ield         | OpenFOAM: The Open Source CFD Toolbox
   \\    /   O peration     | Website:  https://openfoam.org
    \\  /    A nd           | Version:  8
     \\/     M anipulation  |
\*---------------------------------------------------------------------------*/
FoamFile
{
    version     2.0;
    format      ascii;
    class       volScalarField;
    location    "3700";
    object      epsilon;
}
// * * * * * * * * * * * * * * * * * * * * * * * * * * * * * * * * * * * * * //

dimensions      [0 2 -3 0 0 0 0];

internalField   nonuniform List<scalar> 
48000
(
1.47818
5.64914
10.7183
15.9496
21.4651
26.9893
32.4882
37.9581
43.5017
49.0788
54.6559
60.2387
65.8183
71.3871
76.9367
82.4586
87.9435
93.382
98.7643
104.081
109.321
114.475
119.535
124.49
129.332
134.053
138.646
143.102
147.416
151.583
155.597
159.454
163.15
166.684
170.052
173.255
176.29
179.158
181.859
184.395
186.767
188.977
191.026
192.918
194.693
196.324
197.808
199.149
200.35
201.417
202.355
203.169
203.863
204.443
204.913
205.279
205.545
205.715
205.796
205.79
205.702
205.537
205.299
204.991
204.617
204.181
203.687
203.138
202.536
201.885
201.189
200.448
199.667
198.846
197.99
197.099
196.176
195.223
194.241
193.232
192.198
191.139
190.058
188.955
187.831
186.688
185.526
184.346
183.15
181.937
180.708
179.464
178.206
176.933
175.647
174.347
173.034
171.708
170.37
169.019
167.656
166.28
164.893
163.494
162.082
160.659
159.223
157.776
156.317
154.846
153.363
151.868
150.36
148.841
147.31
145.766
144.21
142.641
141.061
139.468
137.862
136.244
134.614
132.972
131.317
129.65
127.971
126.279
124.576
122.861
121.134
119.396
117.647
115.886
114.115
112.333
110.541
108.74
106.928
105.108
103.279
101.442
99.5972
97.7452
95.8866
94.0219
92.1516
90.2765
88.3971
86.5141
84.6282
82.7401
80.8505
78.9601
77.0697
75.1801
73.292
71.4061
69.5234
67.6445
65.7703
63.9015
62.039
60.1835
58.3358
56.4966
54.6666
52.8466
51.0373
49.2393
47.4532
45.6796
43.9191
42.1721
40.4391
38.7205
37.0167
35.3278
33.6544
31.9971
30.3576
28.7433
27.1515
25.5718
24.0029
22.4439
20.8934
19.3498
17.8111
16.2747
14.7374
13.198
11.6655
10.1216
8.55774
6.9641
5.32712
3.62919
1.85209
0.196275
1.47822
5.64922
10.7184
15.9498
21.4653
26.9895
32.4884
37.9583
43.5019
49.079
54.6562
60.2389
65.8186
71.3873
76.9369
82.4588
87.9437
93.3822
98.7645
104.081
109.321
114.476
119.535
124.49
129.333
134.054
138.646
143.102
147.417
151.583
155.597
159.454
163.15
166.684
170.052
173.255
176.29
179.158
181.859
184.395
186.767
188.977
191.026
192.918
194.693
196.324
197.808
199.149
200.35
201.417
202.355
203.169
203.863
204.443
204.913
205.279
205.545
205.715
205.796
205.79
205.702
205.537
205.299
204.991
204.617
204.181
203.687
203.138
202.536
201.885
201.188
200.448
199.667
198.846
197.99
197.099
196.176
195.223
194.241
193.232
192.198
191.139
190.058
188.955
187.831
186.688
185.526
184.346
183.15
181.937
180.708
179.464
178.206
176.933
175.647
174.347
173.034
171.708
170.37
169.019
167.656
166.28
164.893
163.494
162.082
160.659
159.223
157.776
156.317
154.846
153.363
151.868
150.36
148.841
147.31
145.766
144.21
142.641
141.061
139.468
137.862
136.244
134.614
132.972
131.317
129.65
127.971
126.279
124.576
122.861
121.134
119.396
117.647
115.886
114.115
112.333
110.541
108.739
106.928
105.108
103.279
101.442
99.5972
97.7452
95.8866
94.0218
92.1516
90.2765
88.3971
86.5141
84.6282
82.7401
80.8505
78.9601
77.0697
75.1801
73.2919
71.4061
69.5234
67.6445
65.7703
63.9015
62.039
60.1835
58.3358
56.4966
54.6666
52.8466
51.0373
49.2393
47.4532
45.6796
43.9191
42.1721
40.4391
38.7205
37.0167
35.3278
33.6544
31.9971
30.3576
28.7433
27.1515
25.5718
24.0029
22.444
20.8934
19.3498
17.8111
16.2747
14.7374
13.198
11.6655
10.1216
8.55775
6.96411
5.32716
3.62924
1.85203
0.19627
6.71051
5.75435
7.36693
9.33328
11.4767
13.7034
15.9739
18.2645
20.5853
22.9331
25.3024
27.6909
30.0953
32.5123
34.938
37.368
39.7979
42.2227
44.6372
47.0361
49.4138
51.7649
54.0838
56.3653
58.6039
60.7948
62.9331
65.0144
67.0345
68.9897
70.8766
72.6922
74.4339
76.0996
77.6876
79.1965
80.6255
81.974
83.2419
84.4293
85.5367
86.5651
87.516
88.3925
89.2034
89.9441
90.6139
91.2139
91.7458
92.2117
92.6141
92.9553
93.2378
93.4643
93.6372
93.759
93.8323
93.8595
93.8429
93.785
93.688
93.5541
93.3854
93.1839
92.9517
92.6906
92.4024
92.0888
91.7514
91.3917
91.0112
90.6113
90.1933
89.7583
89.3075
88.8419
88.3626
87.8705
87.3664
86.8511
86.3253
85.7899
85.2453
84.6921
84.1309
83.5622
82.9864
82.4039
81.8151
81.2202
80.6197
80.0137
79.4025
78.7863
78.1653
77.5397
76.9095
76.2748
75.6359
74.9927
74.3454
73.694
73.0384
72.3788
71.7152
71.0475
70.3757
69.7
69.0201
68.3362
67.6481
66.9559
66.2595
65.559
64.8541
64.1451
63.4317
62.714
61.992
61.2656
60.5348
59.7996
59.06
58.316
57.5676
56.8148
56.0577
55.2963
54.5306
53.7606
52.9865
52.2083
51.4261
50.64
49.8501
49.0564
48.2593
47.4587
46.6548
45.8479
45.038
44.2254
43.4103
42.5929
41.7735
40.9522
40.1293
39.3051
38.4799
37.6539
36.8274
36.0008
35.1743
34.3483
33.523
32.6989
31.8761
31.0552
30.2363
29.4199
28.6063
27.7958
26.9887
26.1854
25.3862
24.5914
23.8013
23.0162
22.2364
21.4622
20.6938
19.9315
19.1755
18.4259
17.683
16.9469
16.2178
15.4958
14.7811
14.0738
13.3745
12.6837
12.001
11.3245
10.6542
9.99016
9.33162
8.67819
8.02939
7.38478
6.7442
6.10847
5.47959
4.85427
4.23202
3.61424
3.00667
2.42851
1.95488
2.27631
6.71062
5.75432
7.36687
9.3332
11.4766
13.7033
15.9738
18.2643
20.5852
22.933
25.3023
27.6907
30.0952
32.5121
34.9378
37.3679
39.7978
42.2225
44.637
47.0359
49.4136
51.7647
54.0836
56.365
58.6037
60.7946
62.9329
65.0142
67.0343
68.9895
70.8763
72.6919
74.4336
76.0993
77.6873
79.1963
80.6253
81.9738
83.2416
84.429
85.5364
86.5648
87.5157
88.3922
89.2031
89.9438
90.6136
91.2136
91.7455
92.2114
92.6138
92.955
93.2376
93.464
93.6369
93.7588
93.8321
93.8592
93.8427
93.7848
93.6877
93.5538
93.3851
93.1837
92.9515
92.6904
92.4021
92.0885
91.7511
91.3914
91.011
90.6111
90.193
89.758
89.3072
88.8417
88.3624
87.8702
87.3661
86.8508
86.3251
85.7896
85.245
84.6919
84.1307
83.562
82.9862
82.4037
81.8148
81.22
80.6195
80.0135
79.4023
78.7861
78.1651
77.5394
76.9092
76.2746
75.6357
74.9925
74.3452
73.6938
73.0382
72.3786
71.715
71.0473
70.3755
69.6998
69.0199
68.336
67.6479
66.9557
66.2593
65.5588
64.854
64.1449
63.4315
62.7138
61.9918
61.2654
60.5346
59.7994
59.0598
58.3158
57.5674
56.8147
56.0576
55.2961
54.5304
53.7605
52.9864
52.2082
51.426
50.6399
49.8499
49.0563
48.2591
47.4585
46.6547
45.8477
45.0379
44.2253
43.4102
42.5928
41.7734
40.9521
40.1292
39.305
38.4798
37.6538
36.8273
36.0007
35.1742
34.3482
33.5229
32.6988
31.876
31.0551
30.2362
29.4198
28.6062
27.7957
26.9886
26.1853
25.3861
24.5913
23.8012
23.0161
22.2364
21.4622
20.6938
19.9314
19.1754
18.4258
17.6829
16.9469
16.2178
15.4958
14.781
14.0738
13.3744
12.6837
12.0009
11.3244
10.6542
9.99013
9.33158
8.67816
8.02936
7.38476
6.74418
6.10845
5.47957
4.85425
4.23201
3.61424
3.00667
2.42851
1.95489
2.27642
12.4729
7.71671
8.17444
9.34675
10.7682
12.3169
13.9421
15.6181
17.334
19.0823
20.8574
22.6551
24.4718
26.3039
28.1481
30.0006
31.8578
33.7155
35.5696
37.4158
39.2497
41.0666
42.8621
44.6317
46.3708
48.0754
49.7412
51.3643
52.9411
54.4683
55.9428
57.3619
58.7231
60.0245
61.2643
62.4413
63.5544
64.603
65.5868
66.5057
67.3601
68.1508
68.8789
69.5463
70.1557
70.7073
71.2015
71.6395
72.0225
72.3523
72.6308
72.86
73.0418
73.1783
73.2717
73.3241
73.3375
73.3139
73.2554
73.164
73.0414
72.8897
72.7105
72.5056
72.2766
72.0251
71.7525
71.4604
71.15
70.8226
70.4795
70.1217
69.7504
69.3665
68.9709
68.5646
68.1484
67.723
67.2891
66.8474
66.3984
65.9428
65.481
65.0135
64.5407
64.0631
63.5809
63.0945
62.6042
62.1103
61.6129
61.1123
60.6087
60.1021
59.5929
59.081
58.5666
58.0498
57.5306
57.0091
56.4854
55.9595
55.4313
54.901
54.3685
53.8338
53.2969
52.7578
52.2166
51.673
51.1272
50.5791
50.0287
49.4759
48.9208
48.3632
47.8032
47.2407
46.6758
46.1083
45.5383
44.9657
44.3906
43.8129
43.2327
42.6499
42.0646
41.4768
40.8864
40.2937
39.6985
39.1009
38.501
37.8989
37.2947
36.6884
36.0801
35.4699
34.858
34.2444
33.6294
33.0129
32.3953
31.7766
31.1571
30.5368
29.9161
29.295
28.6738
28.0527
27.4319
26.8116
26.1921
25.5736
24.9564
24.3406
23.7265
23.1144
22.5045
21.897
21.2923
20.6905
20.0919
19.4968
18.9053
18.3177
17.7343
17.1552
16.5806
16.0108
15.4459
14.8862
14.3317
13.7827
13.2392
12.7015
12.1696
11.6436
11.1237
10.6101
10.1028
9.60202
9.10759
8.61918
8.1367
7.66004
7.18909
6.72426
6.26547
5.81297
5.3673
4.92949
4.50119
4.08379
3.6806
3.29889
2.95523
2.69389
2.68516
4.46865
12.4731
7.71666
8.17435
9.34664
10.7681
12.3168
13.942
15.618
17.3338
19.0822
20.8573
22.655
24.4716
26.3038
28.1479
30.0005
31.8576
33.7153
35.5695
37.4157
39.2495
41.0664
42.8619
44.6315
46.3707
48.0752
49.741
51.3641
52.941
54.4682
55.9427
57.3617
58.723
60.0243
61.2642
62.4411
63.5542
64.6028
65.5866
66.5055
67.36
68.1507
68.8788
69.5461
70.1555
70.7071
71.2014
71.6393
72.0224
72.3522
72.6307
72.8598
73.0416
73.1782
73.2716
73.324
73.3373
73.3138
73.2553
73.1638
73.0413
72.8896
72.7104
72.5055
72.2765
72.025
71.7524
71.4603
71.1499
70.8225
70.4794
70.1216
69.7503
69.3664
68.9708
68.5645
68.1483
67.7229
67.289
66.8473
66.3983
65.9427
65.4809
65.0134
64.5406
64.063
63.5808
63.0945
62.6042
62.1102
61.6128
61.1122
60.6086
60.1021
59.5928
59.0809
58.5665
58.0497
57.5305
57.0091
56.4853
55.9594
55.4312
54.9009
54.3684
53.8337
53.2969
52.7578
52.2165
51.673
51.1272
50.5791
50.0286
49.4759
48.9207
48.3632
47.8031
47.2407
46.6757
46.1082
45.5382
44.9657
44.3905
43.8129
43.2326
42.6499
42.0646
41.4767
40.8864
40.2936
39.6984
39.1009
38.501
37.8989
37.2946
36.6883
36.08
35.4699
34.8579
34.2444
33.6293
33.0129
32.3953
31.7766
31.157
30.5368
29.916
29.2949
28.6738
28.0527
27.4319
26.8116
26.1921
25.5736
24.9563
24.3405
23.7265
23.1144
22.5045
21.897
21.2923
20.6905
20.0919
19.4968
18.9053
18.3177
17.7342
17.1551
16.5806
16.0108
15.4459
14.8862
14.3317
13.7827
13.2392
12.7015
12.1696
11.6436
11.1237
10.6101
10.1028
9.602
9.10758
8.61917
8.13668
7.66003
7.18908
6.72425
6.26546
5.81296
5.36729
4.92948
4.50119
4.08378
3.68059
3.29889
2.95523
2.69389
2.68517
4.4686
18.1239
10.0494
9.67294
10.3727
11.4393
12.6886
14.0466
15.4767
16.9584
18.4792
20.0304
21.6057
23.2003
24.8099
26.4309
28.0596
29.6925
31.326
32.9563
34.5797
36.1924
37.7903
39.3696
40.9262
42.4565
43.9564
45.4225
46.8511
48.2391
49.5833
50.8809
52.1294
53.3266
54.4705
55.5595
56.5923
57.5678
58.4855
59.3449
60.1459
60.8889
61.5742
62.2028
62.776
63.2953
63.7615
64.1756
64.5387
64.852
65.1173
65.3361
65.5103
65.6417
65.7321
65.7835
65.7978
65.7769
65.7227
65.6371
65.5218
65.3786
65.2092
65.0152
64.7984
64.56
64.3017
64.0248
63.7307
63.4205
63.0955
62.7567
62.4053
62.0422
61.6684
61.2846
60.8918
60.4906
60.0818
59.666
59.2439
58.8159
58.3825
57.9443
57.5017
57.055
56.6047
56.1509
55.6941
55.2344
54.7722
54.3076
53.8408
53.372
52.9013
52.4289
51.9548
51.4791
51.0019
50.5233
50.0434
49.5621
49.0794
48.5955
48.1103
47.6238
47.1361
46.647
46.1566
45.6649
45.1718
44.6773
44.1815
43.6841
43.1854
42.6851
42.1833
41.6799
41.1749
40.6684
40.1602
39.6503
39.1388
38.6256
38.1108
37.5942
37.076
36.556
36.0345
35.5112
34.9864
34.46
33.9321
33.4027
32.8718
32.3396
31.8061
31.2714
30.7356
30.1987
29.6609
29.1224
28.5831
28.0433
27.503
26.9625
26.4218
25.8812
25.3408
24.8007
24.2612
23.7225
23.1846
22.6479
22.1125
21.5786
21.0464
20.5162
19.9881
19.4623
18.9391
18.4186
17.9011
17.3868
16.8759
16.3686
15.865
15.3654
14.87
14.3788
13.8922
13.4103
12.9332
12.461
11.994
11.5322
11.0758
10.625
10.1797
9.74022
9.30663
8.87905
8.45759
8.04229
7.63317
7.23028
6.83377
6.44383
6.06083
5.68517
5.31772
4.95951
4.61214
4.27804
3.9609
3.66713
3.40904
3.21329
3.14999
3.4905
6.61603
18.1241
10.0494
9.67284
10.3726
11.4392
12.6884
14.0465
15.4765
16.9583
18.4791
20.0302
21.6055
23.2001
24.8097
26.4307
28.0595
29.6924
31.3258
32.9562
34.5796
36.1922
37.7901
39.3694
40.9261
42.4563
43.9563
45.4223
46.851
48.2389
49.5831
50.8808
52.1293
53.3264
54.4703
55.5593
56.5921
57.5677
58.4854
59.3448
60.1458
60.8887
61.5741
62.2027
62.7759
63.2952
63.7614
64.1755
64.5386
64.8519
65.1172
65.336
65.5102
65.6416
65.732
65.7834
65.7977
65.7769
65.7227
65.637
65.5217
65.3785
65.2091
65.0152
64.7983
64.56
64.3017
64.0248
63.7306
63.4204
63.0954
62.7567
62.4053
62.0422
61.6683
61.2846
60.8917
60.4906
60.0818
59.666
59.2438
58.8158
58.3825
57.9443
57.5017
57.055
56.6046
56.1509
55.694
55.2344
54.7722
54.3076
53.8408
53.372
52.9013
52.4288
51.9547
51.479
51.0019
50.5233
50.0433
49.562
49.0794
48.5955
48.1103
47.6238
47.136
46.647
46.1566
45.6648
45.1718
44.6773
44.1814
43.6841
43.1853
42.685
42.1832
41.6799
41.1749
40.6683
40.1601
39.6503
39.1388
38.6256
38.1107
37.5942
37.0759
36.556
36.0344
35.5112
34.9864
34.46
33.9321
33.4027
32.8718
32.3396
31.8061
31.2714
30.7356
30.1987
29.6609
29.1223
28.5831
28.0432
27.503
26.9625
26.4218
25.8812
25.3408
24.8007
24.2612
23.7225
23.1846
22.6479
22.1125
21.5786
21.0464
20.5162
19.988
19.4623
18.9391
18.4186
17.9011
17.3868
16.8759
16.3686
15.865
15.3654
14.8699
14.3788
13.8922
13.4103
12.9332
12.461
11.994
11.5322
11.0758
10.6249
10.1797
9.74022
9.30662
8.87905
8.45759
8.04229
7.63316
7.23028
6.83376
6.44383
6.06083
5.68517
5.31771
4.95951
4.61214
4.27804
3.9609
3.66713
3.40904
3.21329
3.14999
3.49051
6.61601
23.7923
12.5784
11.4648
11.8024
12.6308
13.6986
14.9067
16.2056
17.5672
18.9738
20.4136
21.8782
23.3613
24.8578
26.3635
27.8747
29.3878
30.8995
32.4063
33.905
35.3921
36.8641
38.3177
39.7495
41.1559
42.5338
43.8798
45.1908
46.464
47.6964
48.8856
50.0292
51.1251
52.1716
53.1671
54.1104
55.0004
55.8364
56.6182
57.3455
58.0185
58.6375
59.2034
59.717
60.1794
60.5917
60.9548
61.2699
61.5384
61.7616
61.9412
62.0788
62.1762
62.235
62.2572
62.2445
62.1987
62.1217
62.015
61.8805
61.7199
61.5347
61.3266
61.097
60.8475
60.5793
60.2939
59.9924
59.6762
59.3463
59.0038
58.6496
58.2849
57.9104
57.5269
57.1353
56.7363
56.3305
55.9186
55.5011
55.0786
54.6515
54.2203
53.7854
53.3472
52.9059
52.462
52.0157
51.5672
51.1168
50.6646
50.2109
49.7558
49.2994
48.8418
48.3831
47.9235
47.463
47.0016
46.5394
46.0765
45.6128
45.1483
44.6832
44.2173
43.7506
43.2833
42.8151
42.3462
41.8765
41.4059
40.9345
40.4622
39.989
39.5148
39.0397
38.5635
38.0864
37.6081
37.1288
36.6484
36.1668
35.6842
35.2004
34.7154
34.2293
33.7421
33.2538
32.7643
32.2738
31.7822
31.2896
30.7961
30.3016
29.8062
29.3101
28.8132
28.3157
27.8176
27.319
26.8201
26.3209
25.8215
25.3222
24.8229
24.3239
23.8253
23.3272
22.8297
22.3332
21.8376
21.3432
20.8502
20.3587
19.8689
19.381
18.8952
18.4116
17.9305
17.452
16.9763
16.5037
16.0342
15.5681
15.1056
14.6468
14.1919
13.7411
13.2945
12.8524
12.4147
11.9818
11.5538
11.1307
10.7128
10.3001
9.89286
9.49117
9.09517
8.70503
8.3209
7.94294
7.57129
7.20615
6.84774
6.49637
6.15247
5.81661
5.48957
5.17248
4.86688
4.57502
4.30043
4.04843
3.82821
3.65688
3.57092
3.66635
4.31556
8.7434
23.7925
12.5784
11.4647
11.8023
12.6306
13.6985
14.9066
16.2055
17.567
18.9736
20.4134
21.878
23.3611
24.8576
26.3634
27.8746
29.3877
30.8993
32.4062
33.9048
35.3919
36.864
38.3176
39.7493
41.1558
42.5337
43.8797
45.1907
46.4638
47.6963
48.8854
50.0291
51.125
52.1715
53.167
54.1102
55.0002
55.8363
56.6181
57.3454
58.0184
58.6374
59.2033
59.7169
60.1794
60.5916
60.9547
61.2699
61.5383
61.7615
61.9411
62.0787
62.1761
62.235
62.2572
62.2445
62.1987
62.1216
62.015
61.8805
61.7198
61.5347
61.3266
61.097
60.8474
60.5793
60.2938
59.9924
59.6761
59.3462
59.0037
58.6496
58.2848
57.9103
57.5269
57.1353
56.7363
56.3305
55.9186
55.5011
55.0786
54.6515
54.2203
53.7854
53.3471
52.9059
52.462
52.0157
51.5672
51.1168
50.6646
50.2109
49.7558
49.2993
48.8418
48.3831
47.9235
47.463
47.0016
46.5394
46.0765
45.6128
45.1483
44.6831
44.2172
43.7506
43.2832
42.8151
42.3462
41.8765
41.4059
40.9345
40.4622
39.989
39.5148
39.0397
38.5635
38.0863
37.6081
37.1288
36.6484
36.1668
35.6842
35.2004
34.7154
34.2293
33.7421
33.2538
32.7643
32.2738
31.7822
31.2896
30.7961
30.3016
29.8062
29.3101
28.8132
28.3156
27.8176
27.319
26.82
26.3209
25.8215
25.3222
24.8229
24.3239
23.8252
23.3271
22.8297
22.3332
21.8376
21.3432
20.8502
20.3587
19.8689
19.381
18.8952
18.4116
17.9305
17.452
16.9763
16.5037
16.0342
15.5681
15.1056
14.6468
14.1919
13.7411
13.2945
12.8524
12.4147
11.9818
11.5538
11.1307
10.7128
10.3001
9.89286
9.49117
9.09517
8.70503
8.3209
7.94294
7.57129
7.20615
6.84774
6.49637
6.15247
5.81661
5.48957
5.17248
4.86688
4.57502
4.30043
4.04843
3.82821
3.65688
3.57092
3.66635
4.31558
8.7434
29.4442
15.2315
13.4368
13.4701
14.1162
15.0572
16.1679
17.3864
18.6773
20.0183
21.3945
22.7954
24.2132
25.642
27.077
28.5143
29.9503
31.3818
32.8058
34.2192
35.6191
37.0025
38.3665
39.7081
41.0244
42.3126
43.5698
44.7932
45.9804
47.1287
48.236
49.3001
50.3192
51.2915
52.2156
53.0905
53.915
54.6887
55.4109
56.0817
56.701
57.2692
57.7868
58.2546
58.6736
59.0446
59.3687
59.647
59.8808
60.0715
60.2206
60.3297
60.4003
60.4342
60.433
60.3986
60.3324
60.2364
60.1122
59.9613
59.7855
59.5862
59.365
59.1234
58.8628
58.5845
58.2897
57.9798
57.6559
57.3191
56.9703
56.6107
56.2412
55.8625
55.4755
55.081
54.6796
54.272
53.8589
53.4407
53.018
52.5912
52.1609
51.7273
51.2909
50.8519
50.4107
49.9676
49.5227
49.0764
48.6287
48.1799
47.7301
47.2795
46.8281
46.376
45.9234
45.4702
45.0167
44.5627
44.1083
43.6536
43.1985
42.7431
42.2873
41.8313
41.3748
40.918
40.4608
40.0032
39.5451
39.0866
38.6276
38.168
37.7079
37.2472
36.7859
36.3239
35.8613
35.398
34.9339
34.4692
34.0037
33.5374
33.0704
32.6027
32.1342
31.6649
31.1949
30.7242
30.2528
29.7808
29.3082
28.835
28.3613
27.8871
27.4126
26.9377
26.4626
25.9873
25.512
25.0367
24.5616
24.0867
23.6122
23.1382
22.6648
22.1922
21.7205
21.2498
20.7804
20.3123
19.8457
19.3808
18.9177
18.4567
17.9978
17.5412
17.0872
16.6359
16.1874
15.742
15.2998
14.8609
14.4256
13.994
13.5662
13.1425
12.7229
12.3078
11.8971
11.491
11.0897
10.6934
10.3022
9.91622
9.53565
9.16065
8.7914
8.42807
8.07089
7.72007
7.37586
7.03857
6.70856
6.38632
6.07244
5.76774
5.47329
5.19055
4.92156
4.66926
4.43805
4.2348
4.07125
3.96923
3.97494
4.21022
5.1482
10.8596
29.4444
15.2314
13.4367
13.47
14.116
15.057
16.1677
17.3863
18.6772
20.0182
21.3943
22.7952
24.213
25.6418
27.0768
28.5141
29.9502
31.3817
32.8056
34.219
35.6189
37.0023
38.3663
39.7079
41.0243
42.3125
43.5696
44.7931
45.9802
47.1286
48.2359
49.3
50.319
51.2914
52.2155
53.0904
53.9149
54.6886
55.4108
56.0816
56.7009
57.2691
57.7867
58.2545
58.6735
59.0445
59.3686
59.6469
59.8808
60.0715
60.2206
60.3296
60.4003
60.4341
60.433
60.3985
60.3324
60.2364
60.1121
59.9613
59.7854
59.5862
59.365
59.1234
58.8628
58.5844
58.2897
57.9798
57.6559
57.319
56.9703
56.6107
56.2411
55.8624
55.4755
55.0809
54.6796
54.272
53.8588
53.4406
53.0179
52.5912
52.1608
51.7273
51.2908
50.8519
50.4107
49.9676
49.5227
49.0764
48.6287
48.1799
47.7301
47.2795
46.8281
46.376
45.9234
45.4702
45.0166
44.5626
44.1083
43.6535
43.1985
42.7431
42.2873
41.8312
41.3748
40.918
40.4608
40.0032
39.5451
39.0866
38.6275
38.168
37.7079
37.2472
36.7859
36.3239
35.8613
35.398
34.9339
34.4692
34.0037
33.5374
33.0704
32.6027
32.1341
31.6649
31.1949
30.7242
30.2528
29.7808
29.3082
28.835
28.3613
27.8871
27.4126
26.9377
26.4626
25.9873
25.512
25.0367
24.5616
24.0867
23.6122
23.1382
22.6648
22.1922
21.7205
21.2498
20.7804
20.3123
19.8457
19.3808
18.9177
18.4567
17.9978
17.5412
17.0872
16.6359
16.1874
15.742
15.2998
14.8609
14.4256
13.994
13.5662
13.1425
12.7229
12.3078
11.8971
11.491
11.0897
10.6934
10.3022
9.91622
9.53565
9.16065
8.7914
8.42808
8.07089
7.72007
7.37586
7.03857
6.70857
6.38632
6.07244
5.76774
5.47329
5.19055
4.92156
4.66926
4.43805
4.2348
4.07125
3.96923
3.97494
4.21022
5.14822
10.8596
35.1435
17.9686
15.5427
15.3094
15.8067
16.6516
17.6938
18.8591
20.105
21.4051
22.7414
24.1014
25.4762
26.8589
28.2442
29.628
31.0067
32.3772
33.7368
35.0829
36.4128
37.7242
39.0146
40.2815
41.5225
42.7351
43.917
45.0659
46.1795
47.2557
48.2924
49.2879
50.2403
51.1484
52.0106
52.826
53.5937
54.313
54.9836
55.6052
56.1778
56.7018
57.1776
57.6057
57.9871
58.3226
58.6131
58.8599
59.0639
59.2267
59.3496
59.4341
59.4816
59.4939
59.4726
59.4191
59.3353
59.2227
59.0829
58.9175
58.7281
58.5161
58.2831
58.0304
57.7594
57.4714
57.1676
56.8493
56.5176
56.1735
55.8181
55.4523
55.0771
54.6932
54.3014
53.9026
53.4973
53.0863
52.67
52.2492
51.8241
51.3955
50.9635
50.5287
50.0914
49.6519
49.2105
48.7675
48.3231
47.8775
47.4309
46.9835
46.5354
46.0867
45.6376
45.1881
44.7384
44.2884
43.8383
43.3881
42.9378
42.4875
42.0371
41.5866
41.1361
40.6856
40.2349
39.7843
39.3335
38.8825
38.4315
37.9802
37.5288
37.0771
36.6252
36.1729
35.7204
35.2675
34.8142
34.3605
33.9064
33.4519
32.9969
32.5415
32.0856
31.6292
31.1724
30.7151
30.2573
29.7992
29.3406
28.8817
28.4224
27.9628
27.503
27.043
26.5828
26.1226
25.6624
25.2022
24.7423
24.2825
23.8232
23.3643
22.906
22.4483
21.9915
21.5356
21.0807
20.6271
20.1748
19.7239
19.2747
18.8273
18.3818
17.9384
17.4972
17.0584
16.6221
16.1886
15.758
15.3303
14.9059
14.4849
14.0673
13.6535
13.2434
12.8374
12.4354
12.0378
11.6446
11.2561
10.8723
10.4934
10.1196
9.751
9.38789
9.0304
8.67875
8.33317
7.99391
7.66128
7.3356
7.01729
6.70685
6.40489
6.1122
5.82981
5.55905
5.30175
5.0604
4.83858
4.64162
4.47789
4.3615
4.31886
4.40593
4.77041
5.98603
12.9704
35.1437
17.9685
15.5426
15.3093
15.8066
16.6514
17.6936
18.8589
20.1049
21.4049
22.7412
24.1013
25.476
26.8587
28.244
29.6278
31.0065
32.3771
33.7367
35.0827
36.4127
37.7241
39.0145
40.2814
41.5223
42.735
43.9169
45.0658
46.1794
47.2555
48.2923
49.2877
50.2402
51.1482
52.0105
52.8259
53.5936
54.3129
54.9835
55.6051
56.1777
56.7017
57.1775
57.6056
57.987
58.3225
58.6131
58.8598
59.0639
59.2267
59.3495
59.434
59.4816
59.4939
59.4725
59.4191
59.3353
59.2227
59.0829
58.9175
58.7281
58.5161
58.283
58.0303
57.7593
57.4713
57.1676
56.8493
56.5176
56.1735
55.8181
55.4523
55.077
54.6931
54.3014
53.9026
53.4973
53.0863
52.67
52.2491
51.8241
51.3954
50.9635
50.5287
50.0914
49.6519
49.2105
48.7675
48.3231
47.8775
47.4309
46.9834
46.5353
46.0867
45.6376
45.1881
44.7384
44.2884
43.8383
43.3881
42.9378
42.4874
42.037
41.5866
41.1361
40.6855
40.2349
39.7842
39.3334
38.8825
38.4315
37.9802
37.5288
37.0771
36.6252
36.1729
35.7204
35.2675
34.8142
34.3605
33.9064
33.4519
32.9969
32.5415
32.0856
31.6292
31.1724
30.7151
30.2573
29.7992
29.3406
28.8817
28.4224
27.9628
27.503
27.043
26.5828
26.1226
25.6624
25.2022
24.7422
24.2825
23.8232
23.3643
22.906
22.4483
21.9915
21.5356
21.0807
20.6271
20.1748
19.7239
19.2747
18.8273
18.3818
17.9384
17.4972
17.0584
16.6221
16.1886
15.758
15.3303
14.9059
14.4849
14.0673
13.6535
13.2434
12.8374
12.4354
12.0378
11.6446
11.2561
10.8723
10.4934
10.1196
9.751
9.38789
9.0304
8.67875
8.33317
7.99391
7.66128
7.3356
7.0173
6.70685
6.40489
6.1122
5.82981
5.55905
5.30175
5.0604
4.83858
4.64162
4.47789
4.3615
4.31886
4.40593
4.77041
5.98605
12.9704
41.1314
20.8173
17.7708
17.2917
17.6608
18.4288
19.4199
20.5478
21.7634
23.036
24.345
25.6761
27.019
28.3661
29.7119
31.0518
32.3823
33.7007
35.0043
36.2911
37.5588
38.8055
40.0293
41.2281
42.4
43.5432
44.6556
45.7353
46.7805
47.7894
48.7603
49.6915
50.5817
51.4295
52.2337
52.9933
53.7076
54.3759
54.998
55.5735
56.1024
56.585
57.0216
57.4128
57.7593
58.0618
58.3214
58.5389
58.7156
58.8527
58.9516
59.0135
59.04
59.0326
58.9928
58.9221
58.8221
58.6944
58.5405
58.3618
58.16
57.9365
57.6925
57.4296
57.1491
56.8522
56.54
56.2139
55.8748
55.5239
55.162
54.7902
54.4094
54.0202
53.6237
53.2203
52.8109
52.396
51.9762
51.5521
51.1241
50.6928
50.2585
49.8216
49.3824
48.9413
48.4986
48.0545
47.6092
47.163
46.7161
46.2685
45.8206
45.3722
44.9237
44.4751
44.0264
43.5777
43.1291
42.6806
42.2322
41.784
41.336
40.8882
40.4405
39.993
39.5457
39.0986
38.6515
38.2046
37.7577
37.3109
36.8641
36.4173
35.9705
35.5236
35.0766
34.6295
34.1823
33.7348
33.2872
32.8394
32.3914
31.9431
31.4946
31.0459
30.5969
30.1477
29.6982
29.2486
28.7987
28.3487
27.8986
27.4484
26.9981
26.5478
26.0976
25.6475
25.1976
24.748
24.2987
23.8498
23.4014
22.9537
22.5066
22.0604
21.6151
21.1709
20.7278
20.286
19.8456
19.4068
18.9697
18.5344
18.1011
17.6699
17.241
16.8144
16.3905
15.9693
15.5509
15.1355
14.7233
14.3145
13.9091
13.5073
13.1093
12.7153
12.3253
11.9396
11.5583
11.1815
10.8095
10.4424
10.0803
9.72359
9.37232
9.02675
8.68713
8.35374
8.02689
7.70694
7.39431
7.08951
6.79316
6.506
6.22901
5.96341
5.71079
5.47332
5.25393
5.05685
4.88832
4.75816
4.68292
4.69346
4.85559
5.34295
6.82992
15.0829
41.1316
20.8172
17.7707
17.2916
17.6607
18.4286
19.4197
20.5476
21.7633
23.0358
24.3448
25.6759
27.0188
28.366
29.7117
31.0516
32.3822
33.7005
35.0042
36.2909
37.5586
38.8054
40.0291
41.2279
42.3999
43.543
44.6554
45.7352
46.7804
47.7893
48.7602
49.6914
50.5816
51.4294
52.2335
52.9932
53.7075
54.3759
54.9979
55.5734
56.1023
56.5849
57.0215
57.4127
57.7592
58.0618
58.3213
58.5389
58.7156
58.8527
58.9515
59.0134
59.04
59.0325
58.9927
58.922
58.8221
58.6943
58.5404
58.3618
58.16
57.9364
57.6925
57.4296
57.1491
56.8521
56.54
56.2139
55.8748
55.5238
55.162
54.7902
54.4093
54.0202
53.6236
53.2203
52.8108
52.396
51.9762
51.5521
51.1241
50.6928
50.2584
49.8215
49.3824
48.9413
48.4986
48.0545
47.6092
47.163
46.7161
46.2685
45.8205
45.3722
44.9237
44.475
44.0263
43.5777
43.1291
42.6806
42.2322
41.784
41.336
40.8882
40.4405
39.993
39.5457
39.0985
38.6515
38.2046
37.7577
37.3109
36.8641
36.4173
35.9705
35.5236
35.0766
34.6295
34.1822
33.7348
33.2872
32.8394
32.3914
31.9431
31.4946
31.0459
30.5969
30.1477
29.6982
29.2486
28.7987
28.3487
27.8986
27.4484
26.9981
26.5478
26.0976
25.6475
25.1976
24.748
24.2987
23.8498
23.4014
22.9537
22.5066
22.0604
21.6151
21.1708
20.7278
20.286
19.8456
19.4068
18.9697
18.5344
18.1011
17.6699
17.241
16.8144
16.3905
15.9693
15.5509
15.1355
14.7233
14.3145
13.9091
13.5073
13.1093
12.7153
12.3253
11.9396
11.5583
11.1815
10.8095
10.4424
10.0803
9.72359
9.37232
9.02675
8.68713
8.35374
8.02689
7.70694
7.39431
7.08951
6.79316
6.50601
6.22901
5.96341
5.71079
5.47332
5.25393
5.05685
4.88832
4.75816
4.68292
4.69346
4.8556
5.34296
6.82994
15.0829
47.3243
23.7777
20.1156
19.4034
19.6577
20.361
21.3121
22.4123
23.6061
24.8586
26.1468
27.4546
28.7708
30.0871
31.3975
32.6973
33.9834
35.2528
36.5036
37.7339
38.942
40.1266
41.286
42.4189
43.5239
44.5995
45.6441
46.6564
47.6348
48.5779
49.4844
50.3527
51.1818
51.9705
52.7177
53.4227
54.0846
54.703
55.2775
55.8078
56.294
56.7361
57.1346
57.4897
57.8023
58.073
58.3025
58.492
58.6424
58.7549
58.8307
58.8712
58.8777
58.8515
58.7943
58.7074
58.5923
58.4504
58.2833
58.0924
57.8791
57.6449
57.3909
57.1187
56.8294
56.5243
56.2045
55.8712
55.5255
55.1683
54.8006
54.4233
54.0373
53.6434
53.2424
52.8349
52.4215
52.0031
51.5799
51.1527
50.7219
50.288
49.8513
49.4122
48.9711
48.5282
48.084
47.6385
47.1921
46.7449
46.2972
45.8491
45.4007
44.9522
44.5036
44.0551
43.6067
43.1585
42.7106
42.2629
41.8156
41.3686
40.922
40.4757
40.0298
39.5842
39.139
38.694
38.2494
37.8051
37.3611
36.9172
36.4736
36.0302
35.5869
35.1437
34.7006
34.2576
33.8146
33.3716
32.9286
32.4856
32.0425
31.5994
31.1563
30.7131
30.2698
29.8264
29.383
28.9396
28.4961
28.0527
27.6093
27.1659
26.7227
26.2796
25.8367
25.3941
24.9518
24.5099
24.0685
23.6276
23.1873
22.7478
22.309
21.8712
21.4344
20.9987
20.5643
20.1312
19.6995
19.2695
18.8412
18.4148
17.9903
17.568
17.1479
16.7302
16.3151
15.9026
15.493
15.0864
14.6829
14.2826
13.8857
13.4925
13.1029
12.7172
12.3355
11.9581
11.5849
11.2163
10.8524
10.4934
10.1394
9.79079
9.44767
9.11034
8.77908
8.45421
8.1361
7.82518
7.52194
7.227
6.94106
6.66503
6.40002
6.14747
5.90922
5.68774
5.48644
5.31015
5.16603
5.06534
5.02712
5.08669
5.31991
5.92687
7.68462
17.2132
47.3246
23.7776
20.1154
19.4032
19.6575
20.3609
21.3119
22.4122
23.6059
24.8584
26.1466
27.4545
28.7707
30.0869
31.3973
32.6972
33.9832
35.2527
36.5035
37.7337
38.9419
40.1264
41.2858
42.4188
43.5238
44.5993
45.644
46.6563
47.6347
48.5778
49.4842
50.3526
51.1817
51.9704
52.7176
53.4226
54.0845
54.7029
55.2774
55.8077
56.2939
56.7361
57.1345
57.4897
57.8022
58.0729
58.3025
58.4919
58.6423
58.7548
58.8307
58.8711
58.8776
58.8515
58.7943
58.7073
58.5922
58.4504
58.2833
58.0924
57.8791
57.6448
57.3909
57.1187
56.8294
56.5243
56.2045
55.8712
55.5255
55.1683
54.8006
54.4233
54.0373
53.6434
53.2424
52.8348
52.4215
52.003
51.5799
51.1527
50.7219
50.288
49.8513
49.4122
48.9711
48.5282
48.084
47.6385
47.1921
46.7449
46.2972
45.8491
45.4007
44.9521
44.5036
44.0551
43.6067
43.1585
42.7106
42.2629
41.8156
41.3686
40.9219
40.4757
40.0297
39.5842
39.1389
38.694
38.2494
37.8051
37.3611
36.9172
36.4736
36.0302
35.5869
35.1437
34.7006
34.2575
33.8146
33.3716
32.9286
32.4856
32.0425
31.5994
31.1563
30.713
30.2698
29.8264
29.383
28.9396
28.4961
28.0527
27.6093
27.1659
26.7227
26.2796
25.8367
25.3941
24.9518
24.5099
24.0685
23.6276
23.1873
22.7478
22.309
21.8712
21.4344
20.9987
20.5643
20.1312
19.6995
19.2695
18.8412
18.4148
17.9903
17.568
17.1479
16.7302
16.3151
15.9026
15.493
15.0864
14.6828
14.2826
13.8857
13.4925
13.1029
12.7172
12.3355
11.9581
11.5849
11.2163
10.8524
10.4934
10.1394
9.79079
9.44768
9.11034
8.77908
8.45421
8.1361
7.82518
7.52195
7.227
6.94106
6.66503
6.40002
6.14747
5.90922
5.68774
5.48645
5.31015
5.16603
5.06534
5.02712
5.08669
5.31991
5.92688
7.68465
17.2132
53.7259
26.8533
22.5757
21.6384
21.7868
22.4338
23.3518
24.4302
25.6067
26.8427
28.1128
29.3995
30.6904
31.9769
33.2525
34.5128
35.7544
36.975
38.1728
39.3464
40.4947
41.6168
42.7116
43.7783
44.8159
45.8235
46.8001
47.7445
48.6558
49.5328
50.3744
51.1796
51.9473
52.6766
53.3666
54.0166
54.626
55.1943
55.721
56.2061
56.6494
57.051
57.4113
57.7305
58.0093
58.2483
58.4482
58.6099
58.7343
58.8226
58.8759
58.8954
58.8823
58.8381
58.764
58.6614
58.5318
58.3765
58.1969
57.9944
57.7704
57.5261
57.2629
56.9821
56.6848
56.3723
56.0456
55.7059
55.3542
54.9914
54.6186
54.2365
53.846
53.448
53.0431
52.632
52.2154
51.7938
51.3679
50.9381
50.5049
50.0688
49.6301
49.1892
48.7464
48.3022
47.8566
47.41
46.9626
46.5147
46.0663
45.6177
45.1689
44.7202
44.2715
43.8231
43.3749
42.9271
42.4797
42.0326
41.5861
41.14
40.6944
40.2494
39.8048
39.3607
38.9171
38.4739
38.0312
37.589