/*--------------------------------*- C++ -*----------------------------------*\
  =========                 |
  \\      /  F ield         | OpenFOAM: The Open Source CFD Toolbox
   \\    /   O peration     | Website:  https://openfoam.org
    \\  /    A nd           | Version:  8
     \\/     M anipulation  |
\*---------------------------------------------------------------------------*/
FoamFile
{
    version     2.0;
    format      ascii;
    class       volScalarField;
    location    "3700";
    object      k;
}
// * * * * * * * * * * * * * * * * * * * * * * * * * * * * * * * * * * * * * //

dimensions      [0 2 -2 0 0 0 0];

internalField   nonuniform List<scalar> 
48000
(
0.0290575
0.0747684
0.11459
0.149359
0.182061
0.212092
0.240001
0.266235
0.291563
0.315979
0.339485
0.362225
0.384261
0.405641
0.4264
0.446566
0.466156
0.485181
0.503649
0.521564
0.538927
0.555738
0.571994
0.587694
0.602837
0.617419
0.63144
0.6449
0.657797
0.670134
0.681912
0.693135
0.703806
0.713932
0.723518
0.732573
0.741103
0.74912
0.756631
0.763649
0.770183
0.776246
0.781847
0.787001
0.791821
0.796236
0.800243
0.803854
0.807083
0.809946
0.812458
0.814634
0.816488
0.818035
0.819289
0.820263
0.82097
0.821424
0.821637
0.821621
0.821387
0.820947
0.820311
0.81949
0.818493
0.817331
0.816011
0.814542
0.812932
0.81119
0.809321
0.807334
0.805233
0.803026
0.800719
0.798315
0.79582
0.79324
0.790577
0.787836
0.785022
0.782136
0.779183
0.776164
0.773084
0.769943
0.766745
0.763491
0.760183
0.756823
0.753411
0.74995
0.74644
0.742882
0.739276
0.735625
0.731927
0.728183
0.724394
0.720559
0.71668
0.712754
0.708784
0.704768
0.700706
0.696597
0.692442
0.68824
0.68399
0.679692
0.675344
0.670948
0.666501
0.662004
0.657455
0.652853
0.648199
0.643491
0.638728
0.63391
0.629036
0.624105
0.619117
0.614071
0.608966
0.603801
0.598576
0.593291
0.587944
0.582535
0.577064
0.571531
0.565934
0.560274
0.554551
0.548763
0.542912
0.536996
0.531017
0.524973
0.518866
0.512694
0.50646
0.500162
0.493801
0.487379
0.480894
0.474348
0.467742
0.461076
0.454351
0.447568
0.440727
0.433831
0.426879
0.419872
0.412813
0.405701
0.398538
0.391325
0.384063
0.376753
0.369397
0.361994
0.354547
0.347055
0.33952
0.331942
0.324322
0.316659
0.308955
0.301208
0.293418
0.285585
0.277707
0.269782
0.261809
0.253784
0.245705
0.237571
0.229385
0.22118
0.212937
0.204595
0.196139
0.187552
0.178811
0.169892
0.160762
0.151378
0.141689
0.131642
0.121244
0.110295
0.0986197
0.0859621
0.0719066
0.0557256
0.0362558
0.021136
0.029058
0.074769
0.114591
0.149359
0.182062
0.212093
0.240002
0.266236
0.291564
0.31598
0.339485
0.362226
0.384262
0.405641
0.426401
0.446567
0.466156
0.485182
0.50365
0.521565
0.538928
0.555738
0.571995
0.587695
0.602837
0.61742
0.631441
0.6449
0.657797
0.670134
0.681912
0.693135
0.703806
0.713932
0.723519
0.732573
0.741104
0.74912
0.756631
0.763649
0.770184
0.776246
0.781848
0.787001
0.791821
0.796236
0.800243
0.803854
0.807083
0.809946
0.812458
0.814634
0.816488
0.818035
0.819289
0.820263
0.82097
0.821424
0.821637
0.821621
0.821387
0.820947
0.820311
0.81949
0.818493
0.817331
0.816011
0.814542
0.812932
0.81119
0.809321
0.807334
0.805233
0.803026
0.800718
0.798315
0.79582
0.79324
0.790577
0.787836
0.785022
0.782136
0.779182
0.776164
0.773084
0.769943
0.766745
0.763491
0.760183
0.756823
0.753411
0.74995
0.74644
0.742882
0.739276
0.735625
0.731927
0.728183
0.724394
0.720559
0.71668
0.712754
0.708784
0.704768
0.700706
0.696597
0.692442
0.68824
0.68399
0.679691
0.675344
0.670948
0.666501
0.662004
0.657455
0.652853
0.648199
0.643491
0.638728
0.63391
0.629036
0.624105
0.619117
0.614071
0.608966
0.603801
0.598576
0.593291
0.587944
0.582535
0.577064
0.571531
0.565934
0.560274
0.55455
0.548763
0.542912
0.536996
0.531017
0.524973
0.518866
0.512694
0.50646
0.500162
0.493801
0.487378
0.480894
0.474348
0.467742
0.461076
0.454351
0.447568
0.440727
0.433831
0.426879
0.419872
0.412813
0.405701
0.398538
0.391325
0.384063
0.376753
0.369397
0.361994
0.354547
0.347055
0.33952
0.331942
0.324322
0.316659
0.308955
0.301208
0.293419
0.285585
0.277707
0.269782
0.261809
0.253784
0.245705
0.237571
0.229385
0.22118
0.212937
0.204595
0.196139
0.187552
0.178811
0.169892
0.160762
0.151379
0.141689
0.131642
0.121244
0.110295
0.0986198
0.0859622
0.0719066
0.0557256
0.0362567
0.0211361
0.0759622
0.19148
0.272707
0.344314
0.409963
0.471595
0.530068
0.585745
0.639232
0.690869
0.740877
0.789428
0.836644
0.882614
0.927399
0.971038
1.01356
1.05497
1.09528
1.13447
1.17256
1.20951
1.24532
1.27998
1.31347
1.34577
1.37688
1.40678
1.43548
1.46296
1.48922
1.51426
1.53809
1.56072
1.58215
1.6024
1.62148
1.63941
1.6562
1.67189
1.6865
1.70004
1.71255
1.72405
1.73458
1.74417
1.75286
1.76067
1.76764
1.7738
1.77918
1.78381
1.78773
1.79096
1.79354
1.79551
1.79688
1.79769
1.79797
1.79774
1.79703
1.79586
1.79426
1.79225
1.78985
1.78709
1.78399
1.78055
1.77681
1.77278
1.76847
1.7639
1.75909
1.75405
1.74878
1.74331
1.73764
1.73179
1.72575
1.71956
1.7132
1.70669
1.70003
1.69324
1.68631
1.67926
1.67208
1.66479
1.65738
1.64986
1.64223
1.6345
1.62667
1.61873
1.6107
1.60256
1.59434
1.58601
1.57759
1.56908
1.56047
1.55176
1.54296
1.53407
1.52508
1.51599
1.50681
1.49752
1.48814
1.47866
1.46907
1.45938
1.44958
1.43968
1.42967
1.41955
1.40932
1.39898
1.38852
1.37794
1.36725
1.35644
1.34551
1.33446
1.32328
1.31197
1.30055
1.28899
1.2773
1.26549
1.25354
1.24146
1.22925
1.21691
1.20443
1.19182
1.17908
1.1662
1.15318
1.14004
1.12675
1.11334
1.09979
1.08611
1.0723
1.05836
1.04429
1.0301
1.01577
1.00133
0.98676
0.972071
0.957263
0.94234
0.927302
0.912152
0.896893
0.881527
0.866056
0.850482
0.834808
0.819037
0.80317
0.78721
0.771158
0.755017
0.738787
0.722471
0.706069
0.689581
0.673007
0.656348
0.639601
0.622764
0.605836
0.588812
0.571686
0.554453
0.537106
0.519634
0.502028
0.484277
0.466357
0.44823
0.429881
0.411285
0.392394
0.373163
0.35353
0.333416
0.312725
0.291324
0.269054
0.245737
0.221073
0.194642
0.165804
0.133455
0.0948691
0.0374751
0.0759631
0.191481
0.272708
0.344315
0.409964
0.471596
0.530068
0.585745
0.639233
0.690869
0.740877
0.789428
0.836644
0.882614
0.927399
0.971038
1.01356
1.05497
1.09528
1.13447
1.17256
1.20951
1.24532
1.27998
1.31347
1.34577
1.37688
1.40678
1.43548
1.46295
1.48922
1.51426
1.53809
1.56072
1.58215
1.6024
1.62148
1.6394
1.6562
1.67189
1.6865
1.70004
1.71255
1.72405
1.73458
1.74417
1.75286
1.76067
1.76764
1.7738
1.77918
1.78381
1.78772
1.79096
1.79354
1.79551
1.79688
1.79769
1.79797
1.79774
1.79702
1.79586
1.79426
1.79225
1.78985
1.78709
1.78399
1.78055
1.77681
1.77278
1.76847
1.7639
1.75909
1.75405
1.74878
1.74331
1.73764
1.73179
1.72575
1.71956
1.7132
1.70669
1.70003
1.69324
1.68631
1.67926
1.67208
1.66479
1.65738
1.64986
1.64223
1.6345
1.62667
1.61873
1.6107
1.60256
1.59433
1.58601
1.57759
1.56908
1.56047
1.55176
1.54296
1.53407
1.52508
1.51599
1.50681
1.49752
1.48814
1.47866
1.46907
1.45938
1.44958
1.43968
1.42967
1.41955
1.40932
1.39898
1.38852
1.37794
1.36725
1.35644
1.34551
1.33445
1.32328
1.31197
1.30054
1.28899
1.2773
1.26549
1.25354
1.24146
1.22925
1.21691
1.20443
1.19182
1.17908
1.1662
1.15318
1.14003
1.12675
1.11334
1.09979
1.08611
1.0723
1.05836
1.04429
1.0301
1.01577
1.00133
0.986759
0.97207
0.957263
0.942339
0.927301
0.912152
0.896893
0.881526
0.866055
0.850481
0.834808
0.819036
0.80317
0.787209
0.771158
0.755016
0.738787
0.72247
0.706068
0.68958
0.673007
0.656347
0.6396
0.622764
0.605836
0.588811
0.571686
0.554453
0.537105
0.519634
0.502028
0.484277
0.466356
0.44823
0.42988
0.411284
0.392394
0.373163
0.353529
0.333416
0.312724
0.291324
0.269054
0.245737
0.221073
0.194642
0.165804
0.133455
0.0948692
0.037474
0.114835
0.273068
0.374817
0.461837
0.541697
0.617124
0.689197
0.758481
0.825392
0.890219
0.95317
1.0144
1.07404
1.13215
1.18881
1.24405
1.2979
1.35037
1.40146
1.45116
1.49946
1.54635
1.5918
1.63581
1.67834
1.71939
1.75893
1.79696
1.83345
1.86841
1.90183
1.93371
1.96405
1.99286
2.02015
2.04594
2.07023
2.09306
2.11445
2.13442
2.15301
2.17023
2.18614
2.20076
2.21413
2.2263
2.23731
2.24719
2.25599
2.26374
2.27049
2.27628
2.28115
2.28514
2.28829
2.29064
2.29223
2.2931
2.29328
2.29281
2.29171
2.29003
2.2878
2.28504
2.28178
2.27806
2.27389
2.26931
2.26433
2.25898
2.25328
2.24724
2.2409
2.23425
2.22733
2.22015
2.21272
2.20505
2.19716
2.18906
2.18076
2.17227
2.1636
2.15475
2.14573
2.13656
2.12724
2.11777
2.10815
2.0984
2.08852
2.0785
2.06836
2.05809
2.04771
2.0372
2.02657
2.01582
2.00496
1.99398
1.98289
1.97168
1.96035
1.9489
1.93734
1.92566
1.91386
1.90193
1.88989
1.87772
1.86542
1.853
1.84045
1.82776
1.81495
1.80199
1.78891
1.77568
1.76231
1.7488
1.73514
1.72134
1.70738
1.69328
1.67902
1.66461
1.65005
1.63532
1.62044
1.60539
1.59019
1.57482
1.55929
1.54359
1.52773
1.51171
1.49551
1.47915
1.46263
1.44594
1.42909
1.41207
1.39488
1.37754
1.36003
1.34236
1.32453
1.30655
1.28841
1.27012
1.25168
1.23308
1.21435
1.19547
1.17645
1.15729
1.138
1.11857
1.09902
1.07934
1.05954
1.03962
1.01958
0.999424
0.979159
0.958784
0.938301
0.917712
0.897018
0.87622
0.855317
0.834309
0.813195
0.791972
0.770637
0.749185
0.72761
0.705906
0.684062
0.662067
0.639908
0.617568
0.595023
0.572243
0.549198
0.525848
0.502144
0.478047
0.453483
0.428368
0.402596
0.376032
0.348497
0.31979
0.2896
0.257469
0.222646
0.183598
0.135711
0.0579536
0.114836
0.273069
0.374818
0.461837
0.541698
0.617124
0.689197
0.758481
0.825392
0.890218
0.95317
1.0144
1.07403
1.13215
1.18881
1.24405
1.2979
1.35037
1.40146
1.45116
1.49946
1.54635
1.5918
1.63581
1.67834
1.71939
1.75893
1.79696
1.83345
1.86841
1.90183
1.93371
1.96405
1.99286
2.02015
2.04594
2.07023
2.09306
2.11445
2.13442
2.153
2.17023
2.18614
2.20076
2.21413
2.2263
2.23731
2.24719
2.25599
2.26374
2.27049
2.27628
2.28115
2.28514
2.28829
2.29064
2.29223
2.2931
2.29328
2.2928
2.29171
2.29003
2.2878
2.28504
2.28178
2.27806
2.27389
2.26931
2.26433
2.25898
2.25327
2.24724
2.24089
2.23425
2.22733
2.22015
2.21272
2.20505
2.19716
2.18906
2.18076
2.17227
2.16359
2.15475
2.14573
2.13656
2.12724
2.11776
2.10815
2.0984
2.08851
2.0785
2.06836
2.05809
2.0477
2.0372
2.02657
2.01582
2.00496
1.99398
1.98289
1.97168
1.96035
1.9489
1.93734
1.92566
1.91386
1.90193
1.88989
1.87772
1.86542
1.853
1.84045
1.82776
1.81494
1.80199
1.7889
1.77568
1.76231
1.7488
1.73514
1.72134
1.70738
1.69328
1.67902
1.66461
1.65004
1.63532
1.62044
1.60539
1.59019
1.57482
1.55929
1.54359
1.52773
1.5117
1.49551
1.47915
1.46263
1.44594
1.42908
1.41206
1.39488
1.37754
1.36003
1.34236
1.32453
1.30655
1.28841
1.27012
1.25167
1.23308
1.21435
1.19547
1.17645
1.15729
1.13799
1.11857
1.09902
1.07934
1.05954
1.03961
1.01958
0.999423
0.979158
0.958783
0.938301
0.917712
0.897018
0.876219
0.855317
0.834309
0.813194
0.791971
0.770636
0.749184
0.72761
0.705905
0.684061
0.662067
0.639908
0.617568
0.595022
0.572243
0.549197
0.525847
0.502144
0.478047
0.453483
0.428368
0.402596
0.376032
0.348496
0.31979
0.2896
0.257469
0.222646
0.183598
0.135711
0.0579539
0.14732
0.342518
0.460907
0.559035
0.648754
0.733588
0.814911
0.893383
0.969391
1.04319
1.11496
1.18482
1.2529
1.31925
1.38393
1.44699
1.50844
1.5683
1.62657
1.68325
1.73832
1.79177
1.84359
1.89375
1.94223
1.98903
2.03412
2.07748
2.11911
2.15899
2.19713
2.23351
2.26815
2.30105
2.33222
2.36167
2.38944
2.41552
2.43996
2.46279
2.48402
2.50371
2.52189
2.53859
2.55386
2.56775
2.58031
2.59156
2.60157
2.61038
2.61803
2.62458
2.63006
2.63452
2.63802
2.64059
2.64229
2.64314
2.6432
2.6425
2.64109
2.639
2.63627
2.63293
2.62902
2.62457
2.6196
2.61416
2.60825
2.60192
2.59518
2.58806
2.58058
2.57277
2.56463
2.55619
2.54746
2.53847
2.52922
2.51972
2.51
2.50006
2.48992
2.47957
2.46904
2.45832
2.44744
2.43638
2.42517
2.4138
2.40228
2.39062
2.37881
2.36686
2.35477
2.34255
2.33019
2.3177
2.30508
2.29234
2.27946
2.26644
2.2533
2.24003
2.22663
2.21309
2.19942
2.18561
2.17167
2.15758
2.14336
2.12899
2.11448
2.09982
2.08502
2.07006
2.05495
2.03968
2.02425
2.00867
1.99292
1.97701
1.96093
1.94468
1.92826
1.91166
1.8949
1.87795
1.86083
1.84352
1.82604
1.80837
1.79052
1.77249
1.75427
1.73586
1.71727
1.69849
1.67953
1.66038
1.64104
1.62153
1.60182
1.58194
1.56187
1.54162
1.5212
1.5006
1.47982
1.45888
1.43776
1.41648
1.39504
1.37343
1.35167
1.32975
1.30768
1.28547
1.26311
1.24061
1.21797
1.1952
1.1723
1.14926
1.12611
1.10283
1.07943
1.05591
1.03228
1.00852
0.984654
0.960669
0.936565
0.912341
0.887993
0.863516
0.838904
0.81415
0.789243
0.764172
0.738922
0.713475
0.687808
0.661893
0.635697
0.609182
0.582301
0.555001
0.527209
0.498852
0.469823
0.439988
0.409172
0.377147
0.343597
0.308005
0.269445
0.225848
0.170766
0.0752482
0.147321
0.342519
0.460908
0.559035
0.648754
0.733587
0.81491
0.893383
0.969391
1.04319
1.11496
1.18482
1.2529
1.31925
1.38393
1.44699
1.50844
1.5683
1.62657
1.68325
1.73832
1.79177
1.84359
1.89375
1.94223
1.98903
2.03411
2.07748
2.1191
2.15899
2.19712
2.23351
2.26815
2.30105
2.33222
2.36167
2.38943
2.41552
2.43996
2.46279
2.48402
2.50371
2.52188
2.53859
2.55386
2.56775
2.58031
2.59156
2.60157
2.61038
2.61803
2.62457
2.63006
2.63452
2.63802
2.64059
2.64228
2.64314
2.6432
2.6425
2.64109
2.639
2.63627
2.63293
2.62902
2.62457
2.6196
2.61415
2.60825
2.60192
2.59518
2.58806
2.58058
2.57277
2.56463
2.55619
2.54746
2.53847
2.52921
2.51972
2.51
2.50006
2.48991
2.47957
2.46904
2.45832
2.44744
2.43638
2.42517
2.4138
2.40228
2.39061
2.3788
2.36685
2.35477
2.34255
2.33019
2.3177
2.30508
2.29233
2.27945
2.26644
2.2533
2.24003
2.22663
2.21309
2.19942
2.18561
2.17167
2.15758
2.14336
2.12899
2.11448
2.09982
2.08502
2.07006
2.05495
2.03968
2.02425
2.00867
1.99292
1.97701
1.96093
1.94468
1.92826
1.91166
1.89489
1.87795
1.86083
1.84352
1.82604
1.80837
1.79052
1.77249
1.75427
1.73586
1.71727
1.69849
1.67953
1.66038
1.64104
1.62152
1.60182
1.58194
1.56187
1.54162
1.5212
1.5006
1.47982
1.45888
1.43776
1.41648
1.39503
1.37343
1.35167
1.32975
1.30768
1.28547
1.26311
1.24061
1.21797
1.1952
1.17229
1.14926
1.12611
1.10283
1.07943
1.05591
1.03227
1.00852
0.984654
0.960668
0.936565
0.912341
0.887992
0.863515
0.838904
0.814149
0.789243
0.764172
0.738922
0.713475
0.687808
0.661892
0.635696
0.609181
0.582301
0.555001
0.527209
0.498851
0.469823
0.439988
0.409172
0.377146
0.343597
0.308005
0.269445
0.225848
0.170766
0.0752483
0.176625
0.405042
0.539363
0.648055
0.746492
0.839277
0.928201
1.01408
1.09734
1.17824
1.25695
1.33357
1.4082
1.48091
1.55174
1.62075
1.68794
1.75335
1.81698
1.87882
1.93888
1.99715
2.05362
2.10826
2.16107
2.21203
2.26113
2.30835
2.35369
2.39713
2.43868
2.47833
2.51609
2.55195
2.58595
2.61808
2.64837
2.67685
2.70353
2.72846
2.75165
2.77316
2.79302
2.81127
2.82796
2.84313
2.85684
2.86913
2.88004
2.88964
2.89796
2.90507
2.911
2.91582
2.91957
2.9223
2.92406
2.92489
2.92484
2.92396
2.92229
2.91987
2.91673
2.91293
2.90849
2.90345
2.89784
2.8917
2.88506
2.87794
2.87037
2.86238
2.85399
2.84523
2.83612
2.82667
2.8169
2.80684
2.79649
2.78588
2.77502
2.76392
2.75259
2.74104
2.72929
2.71733
2.70519
2.69287
2.68037
2.6677
2.65486
2.64187
2.62872
2.61541
2.60196
2.58836
2.57462
2.56073
2.5467
2.53253
2.51821
2.50376
2.48916
2.47442
2.45954
2.44452
2.42935
2.41403
2.39856
2.38295
2.36718
2.35126
2.33518
2.31895
2.30255
2.28599
2.26926
2.25237
2.2353
2.21806
2.20065
2.18305
2.16528
2.14732
2.12918
2.11085
2.09234
2.07363
2.05473
2.03563
2.01634
1.99685
1.97716
1.95728
1.93719
1.9169
1.89641
1.87572
1.85483
1.83374
1.81244
1.79095
1.76926
1.74737
1.72529
1.70301
1.68054
1.65787
1.63502
1.61199
1.58877
1.56537
1.54179
1.51804
1.49412
1.47003
1.44578
1.42137
1.3968
1.37208
1.34721
1.32219
1.29703
1.27173
1.2463
1.22073
1.19503
1.1692
1.14325
1.11716
1.09096
1.06462
1.03816
1.01157
0.984841
0.957978
0.930972
0.903815
0.876497
0.849006
0.821329
0.793446
0.765337
0.736975
0.708329
0.679361
0.650027
0.620273
0.590033
0.559226
0.527749
0.495464
0.462202
0.427707
0.391628
0.353354
0.311737
0.26414
0.202427
0.0906159
0.176626
0.405043
0.539364
0.648055
0.746491
0.839276
0.9282
1.01408
1.09734
1.17824
1.25695
1.33357
1.4082
1.48091
1.55174
1.62075
1.68794
1.75335
1.81698
1.87882
1.93888
1.99715
2.05362
2.10826
2.16107
2.21203
2.26113
2.30835
2.35369
2.39713
2.43868
2.47833
2.51608
2.55195
2.58595
2.61808
2.64837
2.67685
2.70353
2.72846
2.75165
2.77316
2.79302
2.81127
2.82796
2.84313
2.85684
2.86912
2.88004
2.88964
2.89796
2.90507
2.911
2.91582
2.91957
2.9223
2.92406
2.92489
2.92484
2.92396
2.92229
2.91987
2.91673
2.91293
2.90849
2.90345
2.89784
2.8917
2.88506
2.87794
2.87037
2.86238
2.85399
2.84523
2.83611
2.82666
2.8169
2.80684
2.79649
2.78588
2.77502
2.76392
2.75259
2.74104
2.72928
2.71733
2.70519
2.69287
2.68036
2.66769
2.65486
2.64186
2.62871
2.61541
2.60196
2.58836
2.57461
2.56073
2.5467
2.53252
2.51821
2.50376
2.48916
2.47442
2.45954
2.44452
2.42935
2.41403
2.39856
2.38295
2.36718
2.35126
2.33518
2.31895
2.30255
2.28599
2.26926
2.25236
2.2353
2.21806
2.20064
2.18305
2.16528
2.14732
2.12918
2.11085
2.09234
2.07363
2.05473
2.03563
2.01634
1.99685
1.97716
1.95727
1.93719
1.9169
1.89641
1.87572
1.85483
1.83374
1.81244
1.79095
1.76926
1.74737
1.72529
1.70301
1.68054
1.65787
1.63502
1.61199
1.58877
1.56537
1.54179
1.51804
1.49412
1.47003
1.44578
1.42137
1.3968
1.37208
1.34721
1.32219
1.29703
1.27173
1.2463
1.22073
1.19503
1.1692
1.14325
1.11716
1.09096
1.06462
1.03816
1.01157
0.984841
0.957978
0.930972
0.903814
0.876496
0.849006
0.821328
0.793446
0.765337
0.736975
0.708329
0.679361
0.650027
0.620273
0.590033
0.559226
0.527749
0.495464
0.462202
0.427707
0.391628
0.353354
0.311737
0.26414
0.202427
0.0906159
0.203592
0.46391
0.613587
0.73273
0.839565
0.939755
1.03554
1.12795
1.2175
1.30446
1.38901
1.47126
1.55131
1.62921
1.70502
1.77879
1.85054
1.92031
1.9881
2.05394
2.11782
2.17974
2.23971
2.29772
2.35376
2.40782
2.45989
2.50997
2.55805
2.60413
2.6482
2.69026
2.73033
2.7684
2.8045
2.83863
2.87082
2.90108
2.92946
2.95597
2.98065
3.00355
3.02469
3.04413
3.06191
3.07808
3.09268
3.10576
3.11739
3.1276
3.13646
3.14401
3.1503
3.1554
3.15935
3.16221
3.16402
3.16484
3.16471
3.16368
3.1618
3.15911
3.15565
3.15147
3.1466
3.14108
3.13496
3.12825
3.12101
3.11324
3.105
3.0963
3.08716
3.07763
3.06771
3.05742
3.0468
3.03586
3.02461
3.01308
3.00127
2.9892
2.97689
2.96434
2.95157
2.93859
2.92541
2.91202
2.89845
2.8847
2.87077
2.85666
2.84239
2.82796
2.81337
2.79862
2.78371
2.76865
2.75344
2.73808
2.72257
2.7069
2.69109
2.67513
2.65901
2.64274
2.62631
2.60973
2.59299
2.5761
2.55904
2.54181
2.52442
2.50687
2.48914
2.47123
2.45316
2.4349
2.41646
2.39784
2.37903
2.36003
2.34084
2.32146
2.30188
2.2821
2.26212
2.24194
2.22156
2.20096
2.18016
2.15915
2.13793
2.1165
2.09486
2.073
2.05093
2.02865
2.00615
1.98344
1.96051
1.93737
1.91403
1.89047
1.8667
1.84273
1.81855
1.79417
1.76959
1.74481
1.71984
1.69467
1.66932
1.64378
1.61805
1.59215
1.56608
1.53983
1.51341
1.48683
1.46009
1.4332
1.40615
1.37895
1.3516
1.32411
1.29648
1.26871
1.2408
1.21276
1.18458
1.15627
1.12782
1.09923
1.07049
1.04162
1.01259
0.983403
0.95405
0.924518
0.894794
0.864862
0.834699
0.804283
0.773584
0.742565
0.711185
0.67939
0.647118
0.614285
0.580788
0.546489
0.511195
0.474628
0.436366
0.395703
0.351246
0.299816
0.231748
0.104703
0.203593
0.46391
0.613587
0.732729
0.839565
0.939755
1.03554
1.12795
1.2175
1.30446
1.38901
1.47126
1.55131
1.62921
1.70502
1.77879
1.85054
1.92031
1.9881
2.05394
2.11782
2.17974
2.23971
2.29772
2.35376
2.40782
2.45989
2.50997
2.55805
2.60413
2.6482
2.69026
2.73033
2.7684
2.8045
2.83863
2.87081
2.90108
2.92946
2.95597
2.98065
3.00355
3.02469
3.04413
3.06191
3.07807
3.09268
3.10576
3.11739
3.1276
3.13646
3.14401
3.1503
3.1554
3.15935
3.16221
3.16402
3.16484
3.16471
3.16368
3.1618
3.1591
3.15565
3.15147
3.1466
3.14108
3.13496
3.12825
3.12101
3.11324
3.105
3.0963
3.08716
3.07763
3.0677
3.05742
3.0468
3.03586
3.02461
3.01308
3.00127
2.9892
2.97689
2.96434
2.95157
2.93859
2.9254
2.91202
2.89845
2.8847
2.87076
2.85666
2.84239
2.82796
2.81337
2.79862
2.78371
2.76865
2.75344
2.73808
2.72257
2.7069
2.69109
2.67513
2.65901
2.64274
2.62631
2.60973
2.59299
2.5761
2.55904
2.54181
2.52442
2.50687
2.48914
2.47123
2.45316
2.4349
2.41646
2.39784
2.37903
2.36003
2.34084
2.32146
2.30188
2.2821
2.26212
2.24194
2.22156
2.20096
2.18016
2.15915
2.13793
2.1165
2.09486
2.073
2.05093
2.02865
2.00615
1.98344
1.96051
1.93737
1.91403
1.89047
1.8667
1.84273
1.81855
1.79417
1.76959
1.74481
1.71984
1.69467
1.66932
1.64378
1.61805
1.59215
1.56608
1.53983
1.51341
1.48683
1.46009
1.4332
1.40615
1.37895
1.3516
1.32411
1.29648
1.26871
1.2408
1.21276
1.18458
1.15627
1.12781
1.09922
1.07049
1.04162
1.01259
0.983403
0.954049
0.924518
0.894794
0.864861
0.834699
0.804283
0.773584
0.742565
0.711185
0.67939
0.647117
0.614285
0.580788
0.546488
0.511195
0.474628
0.436366
0.395703
0.351246
0.299816
0.231749
0.104703
0.229081
0.520194
0.685138
0.81474
0.929894
1.03726
1.13954
1.23799
1.33322
1.42557
1.51524
1.60236
1.68703
1.7693
1.84926
1.92694
2.00238
2.07564
2.14673
2.21568
2.28251
2.34723
2.40985
2.47039
2.52883
2.58518
2.63945
2.69163
2.74172
2.78971
2.83563
2.87946
2.92122
2.96091
2.99855
3.03416
3.06775
3.09936
3.129
3.1567
3.18251
3.20646
3.22859
3.24894
3.26756
3.28449
3.29979
3.3135
3.32569
3.33639
3.34567
3.35358
3.36017
3.36549
3.36961
3.37258
3.37444
3.37525
3.37506
3.37392
3.37188
3.36898
3.36527
3.36078
3.35557
3.34968
3.34313
3.33597
3.32823
3.31994
3.31114
3.30186
3.29211
3.28193
3.27135
3.26038
3.24905
3.23737
3.22538
3.21307
3.20047
3.1876
3.17447
3.16109
3.14747
3.13362
3.11956
3.10528
3.09081
3.07614
3.06128
3.04625
3.03103
3.01564
3.00008
2.98436
2.96847
2.95242
2.93621
2.91983
2.9033
2.88661
2.86976
2.85275
2.83558
2.81825
2.80076
2.7831
2.76528
2.74729
2.72912
2.71079
2.69228
2.6736
2.65473
2.63568
2.61645
2.59703
2.57742
2.55762
2.53762
2.51742
2.49702
2.47642
2.45561
2.4346
2.41337
2.39193
2.37028
2.3484
2.32631
2.30401
2.28148
2.25872
2.23575
2.21255
2.18913
2.16548
2.14161
2.11751
2.09319
2.06865
2.04388
2.0189
1.99369
1.96827
1.94263
1.91677
1.89071
1.86444
1.83796
1.81127
1.78439
1.75731
1.73004
1.70258
1.67493
1.6471
1.61909
1.59091
1.56255
1.53403
1.50534
1.47649
1.44749
1.41833
1.38902
1.35956
1.32995
1.30019
1.27029
1.24025
1.21005
1.17971
1.14922
1.11858
1.08778
1.05681
1.02567
0.994344
0.962823
0.931089
0.899124
0.866905
0.834404
0.801588
0.768414
0.734831
0.700776
0.666165
0.630888
0.594797
0.557683
0.519232
0.478949
0.436005
0.388774
0.333572
0.259345
0.117865
0.229082
0.520195
0.685138
0.814739
0.929893
1.03726
1.13954
1.23799
1.33322
1.42557
1.51524
1.60236
1.68703
1.7693
1.84926
1.92693
2.00238
2.07564
2.14673
2.21568
2.28251
2.34723
2.40985
2.47038
2.52883
2.58518
2.63945
2.69163
2.74171
2.78971
2.83563
2.87946
2.92122
2.96091
2.99855
3.03416
3.06775
3.09936
3.12899
3.1567
3.18251
3.20646
3.22859
3.24894
3.26755
3.28449
3.29979
3.3135
3.32569
3.33639
3.34567
3.35357
3.36016
3.36549
3.36961
3.37258
3.37444
3.37525
3.37506
3.37392
3.37188
3.36898
3.36526
3.36078
3.35557
3.34968
3.34313
3.33597
3.32823
3.31994
3.31114
3.30186
3.29211
3.28193
3.27135
3.26038
3.24905
3.23737
3.22538
3.21307
3.20047
3.1876
3.17447
3.16109
3.14747
3.13362
3.11956
3.10528
3.09081
3.07614
3.06128
3.04625
3.03103
3.01564
3.00008
2.98436
2.96847
2.95242
2.9362
2.91983
2.9033
2.88661
2.86976
2.85275
2.83558
2.81825
2.80076
2.7831
2.76528
2.74729
2.72912
2.71079
2.69228
2.6736
2.65473
2.63568
2.61645
2.59703
2.57742
2.55762
2.53762
2.51742
2.49702
2.47642
2.45561
2.4346
2.41337
2.39193
2.37027
2.3484
2.32631
2.30401
2.28148
2.25872
2.23575
2.21255
2.18913
2.16548
2.14161
2.11751
2.09319
2.06865
2.04388
2.0189
1.99369
1.96827
1.94263
1.91677
1.89071
1.86444
1.83796
1.81127
1.78439
1.75731
1.73004
1.70258
1.67493
1.6471
1.61909
1.59091
1.56255
1.53403
1.50534
1.47649
1.44749
1.41833
1.38902
1.35956
1.32995
1.30019
1.27029
1.24025
1.21005
1.17971
1.14922
1.11858
1.08778
1.05681
1.02567
0.994344
0.962822
0.931089
0.899124
0.866905
0.834404
0.801588
0.768414
0.734831
0.700776
0.666164
0.630888
0.594797
0.557683
0.519232
0.478949
0.436006
0.388774
0.333572
0.259345
0.117865
0.254413
0.574966
0.754988
0.89502
1.01845
1.13288
1.24143
1.34558
1.44609
1.54336
1.63763
1.72904
1.81772
1.90374
1.98719
2.06811
2.14657
2.22263
2.29633
2.36771
2.4368
2.50363
2.56824
2.63063
2.69082
2.74882
2.80466
2.85832
2.90983
2.95918
3.00639
3.05146
3.09441
3.13525
3.17399
3.21065
3.24525
3.27781
3.30837
3.33694
3.36358
3.38831
3.41117
3.4322
3.45145
3.46897
3.48481
3.49901
3.51163
3.52271
3.53233
3.54052
3.54735
3.55287
3.55713
3.56019
3.5621
3.56292
3.56269
3.56147
3.55931
3.55625
3.55234
3.54762
3.54215
3.53595
3.52907
3.52154
3.5134
3.5047
3.49545
3.48568
3.47544
3.46474
3.45361
3.44208
3.43016
3.41788
3.40526
3.39232
3.37907
3.36552
3.35171
3.33763
3.32329
3.30872
3.29392
3.2789
3.26366
3.24823
3.23259
3.21676
3.20074
3.18455
3.16817
3.15162
3.13489
3.118
3.10093
3.0837
3.0663
3.04873
3.031
3.0131
2.99503
2.97679
2.95838
2.9398
2.92105
2.90212
2.88301
2.86372
2.84425
2.8246
2.80476
2.78473
2.7645
2.74408
2.72346
2.70264
2.68162
2.66039
2.63895
2.6173
2.59543
2.57334
2.55104
2.52852
2.50577
2.48279
2.45959
2.43616
2.4125
2.38861
2.36448
2.34012
2.31553
2.2907
2.26564
2.24035
2.21482
2.18905
2.16306
2.13684
2.11038
2.0837
2.05679
2.02965
2.0023
1.97472
1.94693
1.91892
1.89071
1.86228
1.83366
1.80483
1.7758
1.74658
1.71717
1.68757
1.65779
1.62784
1.5977
1.5674
1.53692
1.50628
1.47548
1.44451
1.41339
1.38211
1.35067
1.31907
1.28732
1.25541
1.22334
1.19111
1.15871
1.12614
1.09338
1.06044
1.02729
0.993932
0.960337
0.926487
0.892355
0.857909
0.823107
0.787898
0.752216
0.715973
0.679054
0.641296
0.602465
0.562209
0.519963
0.474766
0.424781
0.365852
0.285629
0.130338
0.254414
0.574967
0.754988
0.89502
1.01845
1.13288
1.24143
1.34558
1.44609
1.54336
1.63763
1.72904
1.81772
1.90374
1.98718
2.06811
2.14657
2.22263
2.29633
2.36771
2.4368
2.50363
2.56824
2.63062
2.69082
2.74882
2.80466
2.85832
2.90983
2.95918
3.00639
3.05146
3.09441
3.13525
3.17399
3.21065
3.24524
3.27781
3.30837
3.33694
3.36358
3.38831
3.41117
3.4322
3.45145
3.46897
3.48481
3.49901
3.51163
3.52271
3.53233
3.54052
3.54735
3.55287
3.55713
3.56019
3.5621
3.56292
3.56269
3.56147
3.55931
3.55625
3.55234
3.54762
3.54215
3.53595
3.52906
3.52154
3.5134
3.5047
3.49544
3.48568
3.47544
3.46474
3.45361
3.44208
3.43016
3.41788
3.40526
3.39232
3.37907
3.36552
3.35171
3.33762
3.32329
3.30872
3.29392
3.2789
3.26366
3.24822
3.23259
3.21676
3.20074
3.18455
3.16817
3.15162
3.13489
3.118
3.10093
3.0837
3.0663
3.04873
3.031
3.0131
2.99503
2.97679
2.95838
2.9398
2.92105
2.90212
2.88301
2.86372
2.84425
2.8246
2.80476
2.78473
2.7645
2.74408
2.72346
2.70264
2.68162
2.66039
2.63895
2.6173
2.59543
2.57334
2.55104
2.52852
2.50577
2.48279
2.45959
2.43616
2.4125
2.3886
2.36448
2.34012
2.31553
2.2907
2.26564
2.24035
2.21482
2.18905
2.16306
2.13683
2.11038
2.0837
2.05679
2.02965
2.0023
1.97472
1.94693
1.91892
1.89071
1.86228
1.83365
1.80483
1.7758
1.74658
1.71717
1.68757
1.65779
1.62784
1.5977
1.5674
1.53692
1.50628
1.47548
1.44451
1.41339
1.38211
1.35067
1.31907
1.28732
1.25541
1.22334
1.19111
1.15871
1.12614
1.09338
1.06044
1.02729
0.993932
0.960337
0.926487
0.892355
0.857909
0.823107
0.787898
0.752216
0.715973
0.679054
0.641296
0.602465
0.562209
0.519963
0.474766
0.424781
0.365852
0.285629
0.130338
0.279349
0.628826
0.823735
0.974147
1.10582
1.2272
1.34186
1.45148
1.55695
1.65877
1.7572
1.85246
1.94466
2.03391
2.1203
2.20393
2.28485
2.36315
2.43889
2.51212
2.58291
2.65129
2.71731
2.781
2.8424
2.90153
2.9584
3.01305
3.06549
3.11572
3.16377
3.20965
3.25337
3.29495
3.33441
3.37176
3.40703
3.44024
3.47142
3.50059
3.5278
3.55307
3.57645
3.59798
3.61769
3.63564
3.65187
3.66643
3.67938
3.69076
3.70063
3.70905
3.71607
3.72174
3.72612
3.72926
3.73122
3.73205
3.73181
3.73054
3.72829
3.72511
3.72106
3.71617
3.71048
3.70405
3.69691
3.6891
3.68065
3.67161
3.662
3.65186
3.64122
3.6301
3.61853
3.60654
3.59414
3.58137
3.56824
3.55478
3.54099
3.5269
3.51251
3.49785
3.48293
3.46776
3.45234
3.4367
3.42083
3.40475
3.38846
3.37196
3.35528
3.3384
3.32133
3.30408
3.28665
3.26904
3.25125
3.23329
3.21515
3.19684
3.17835
3.15969
3.14086
3.12185
3.10266
3.08329
3.06374
3.04401
3.02409
3.00399
2.98369
2.96321
2.94253
2.92165
2.90057
2.87929
2.85781
2.83611
2.8142
2.79208
2.76974
2.74718
2.7244
2.7014
2.67816
2.6547
2.631
2.60707
2.58291
2.55851
2.53387
2.50898
2.48386
2.4585
2.43289
2.40704
2.38094
2.3546
2.32802
2.3012
2.27413
2.24682
2.21928
2.19149
2.16347
2.13522
2.10673
2.07801
2.04906
2.01989
1.9905
1.96089
1.93106
1.90102
1.87078
1.84032
1.80967
1.77882
1.74777
1.71653
1.6851
1.65349
1.62169
1.58972
1.55757
1.52525
1.49275
1.46009
1.42725
1.39425
1.36108
1.32774
1.29423
1.26054
1.22668
1.19263
1.1584
1.12396
1.08932
1.05446
1.01936
0.984
0.948356
0.912395
0.876076
0.839345
0.802135
0.764351
0.725868
0.686506
0.646006
0.603973
0.559775
0.512324
0.459576
0.396934
0.310827
0.142339
0.27935
0.628826
0.823735
0.974147
1.10582
1.2272
1.34186
1.45148
1.55695
1.65876
1.7572
1.85246
1.94466
2.03391
2.1203
2.20393
2.28485
2.36315
2.43889
2.51212
2.58291
2.65129
2.71731
2.781
2.8424
2.90153
2.9584
3.01305
3.06548
3.11572
3.16377
3.20965
3.25337
3.29495
3.33441
3.37176
3.40703
3.44024
3.47142
3.50059
3.5278
3.55307
3.57645
3.59798
3.61769
3.63564
3.65187
3.66643
3.67938
3.69076
3.70063
3.70905
3.71607
3.72174
3.72612
3.72926
3.73122
3.73205
3.73181
3.73054
3.72829
3.72511
3.72106
3.71616
3.71048
3.70405
3.69691
3.6891
3.68065
3.67161
3.662
3.65186
3.64122
3.6301
3.61853
3.60654
3.59414
3.58137
3.56824
3.55478
3.54099
3.5269
3.51251
3.49785
3.48293
3.46776
3.45234
3.4367
3.42083
3.40475
3.38846
3.37196
3.35528
3.3384
3.32133
3.30408
3.28665
3.26904
3.25125
3.23329
3.21515
3.19684
3.17835
3.15969
3.14086
3.12185
3.10266
3.08329
3.06374
3.04401
3.02409
3.00399
2.98369
2.96321
2.94253
2.92165
2.90057
2.87929
2.85781
2.83611
2.8142
2.79208
2.76974
2.74718
2.7244
2.7014
2.67816
2.6547
2.631
2.60707
2.58291
2.55851
2.53386
2.50898
2.48386
2.45849
2.43289
2.40704
2.38094
2.3546
2.32802
2.3012
2.27413
2.24682
2.21928
2.19149
2.16347
2.13521
2.10673
2.07801
2.04906
2.01989
1.9905
1.96089
1.93106
1.90102
1.87078
1.84032
1.80967
1.77882
1.74777
1.71653
1.6851
1.65349
1.62169
1.58972
1.55757
1.52525
1.49275
1.46009
1.42725
1.39425
1.36108
1.32774
1.29423
1.26054
1.22668
1.19263
1.1584
1.12396
1.08932
1.05446
1.01936
0.984
0.948356
0.912395
0.876076
0.839345
0.802135
0.764351