/*--------------------------------*- C++ -*----------------------------------*\
  =========                 |
  \\      /  F ield         | OpenFOAM: The Open Source CFD Toolbox
   \\    /   O peration     | Website:  https://openfoam.org
    \\  /    A nd           | Version:  8
     \\/     M anipulation  |
\*---------------------------------------------------------------------------*/
FoamFile
{
    version     2.0;
    format      ascii;
    class       volVectorField;
    location    "3700";
    object      U;
}
// * * * * * * * * * * * * * * * * * * * * * * * * * * * * * * * * * * * * * //

dimensions      [0 1 -1 0 0 0 0];

internalField   nonuniform List<vector> 
48000
(
(-0.0164758 3.04862e-07 0.0180176)
(-0.0362939 4.19415e-08 0.0174682)
(-0.0499673 3.69235e-08 0.00896982)
(-0.0544148 1.31276e-08 0.000657366)
(-0.0507118 -2.96979e-09 -0.00545339)
(-0.0417073 -1.50962e-08 -0.00959451)
(-0.0289262 -2.33657e-08 -0.0123558)
(-0.0137917 -2.87911e-08 -0.0141585)
(0.0030407 -3.28992e-08 -0.0151865)
(0.0206168 -3.42432e-08 -0.0155696)
(0.0385482 -3.23548e-08 -0.0155745)
(0.0565455 -2.95563e-08 -0.0153573)
(0.0743462 -2.62135e-08 -0.0149884)
(0.0917871 -2.2627e-08 -0.0145146)
(0.108745 -1.89948e-08 -0.0139684)
(0.125129 -1.54958e-08 -0.0133731)
(0.140874 -1.21948e-08 -0.0127453)
(0.155932 -9.15277e-09 -0.0120976)
(0.170272 -6.39626e-09 -0.0114394)
(0.183872 -3.9253e-09 -0.0107781)
(0.196719 -1.73608e-09 -0.0101193)
(0.208809 1.96147e-10 -0.00946744)
(0.220144 1.8866e-09 -0.0088262)
(0.23073 3.34672e-09 -0.0081984)
(0.240578 4.59933e-09 -0.00758636)
(0.249703 5.65777e-09 -0.00699193)
(0.25812 6.54298e-09 -0.00641661)
(0.265851 7.27208e-09 -0.00586155)
(0.272916 7.8527e-09 -0.00532769)
(0.279338 8.29054e-09 -0.00481569)
(0.285142 8.61988e-09 -0.00432602)
(0.290354 8.83119e-09 -0.00385899)
(0.294998 8.95493e-09 -0.00341473)
(0.299103 8.98919e-09 -0.00299325)
(0.302694 8.94922e-09 -0.00259441)
(0.305798 8.85404e-09 -0.00221797)
(0.308443 8.69604e-09 -0.00186359)
(0.310654 8.49996e-09 -0.00153085)
(0.312458 8.26962e-09 -0.00121924)
(0.31388 8.00121e-09 -0.000928185)
(0.314945 7.72137e-09 -0.000657084)
(0.315678 7.41679e-09 -0.000405283)
(0.316102 7.1103e-09 -0.000172074)
(0.31624 6.78478e-09 4.37319e-05)
(0.316112 6.46496e-09 0.000242664)
(0.315742 6.15848e-09 0.000425037)
(0.315147 5.85389e-09 0.000591919)
(0.314347 5.56454e-09 0.000744229)
(0.31336 5.29232e-09 0.000882791)
(0.312203 5.03152e-09 0.00100839)
(0.310892 4.78786e-09 0.00112181)
(0.309441 4.56513e-09 0.0012238)
(0.307865 4.36525e-09 0.00131511)
(0.306178 4.1806e-09 0.00139647)
(0.30439 4.0245e-09 0.00146858)
(0.302514 3.88934e-09 0.00153211)
(0.300561 3.77131e-09 0.00158772)
(0.298539 3.66471e-09 0.00163603)
(0.296458 3.59237e-09 0.00167763)
(0.294326 3.53717e-09 0.00171308)
(0.292151 3.48958e-09 0.00174292)
(0.28994 3.47816e-09 0.00176763)
(0.287698 3.47435e-09 0.00178769)
(0.285432 3.48767e-09 0.00180354)
(0.283147 3.51432e-09 0.00181559)
(0.280847 3.55811e-09 0.00182421)
(0.278537 3.61522e-09 0.00182977)
(0.27622 3.68565e-09 0.00183258)
(0.2739 3.77131e-09 0.00183296)
(0.27158 3.86459e-09 0.00183117)
(0.269262 3.95977e-09 0.00182747)
(0.266949 4.06257e-09 0.0018221)
(0.264643 4.18059e-09 0.00181527)
(0.262345 4.30242e-09 0.00180718)
(0.260058 4.42235e-09 0.001798)
(0.257782 4.54989e-09 0.0017879)
(0.255519 4.68314e-09 0.00177702)
(0.253269 4.8221e-09 0.00176551)
(0.251034 4.95345e-09 0.00175347)
(0.248814 5.0867e-09 0.00174102)
(0.246609 5.22947e-09 0.00172827)
(0.24442 5.37034e-09 0.0017153)
(0.242247 5.5093e-09 0.0017022)
(0.240091 5.65016e-09 0.00168903)
(0.237951 5.78722e-09 0.00167588)
(0.235827 5.92047e-09 0.00166279)
(0.233719 6.05372e-09 0.00164984)
(0.231627 6.19458e-09 0.00163706)
(0.229552 6.32403e-09 0.00162451)
(0.227491 6.44966e-09 0.00161223)
(0.225446 6.57911e-09 0.00160026)
(0.223416 6.70093e-09 0.00158865)
(0.2214 6.82466e-09 0.00157741)
(0.219398 6.9484e-09 0.0015666)
(0.217409 7.06832e-09 0.00155622)
(0.215432 7.17492e-09 0.00154633)
(0.213468 7.27771e-09 0.00153694)
(0.211516 7.38431e-09 0.00152807)
(0.209574 7.49091e-09 0.00151976)
(0.207642 7.59179e-09 0.00151203)
(0.20572 7.69268e-09 0.00150489)
(0.203806 7.79167e-09 0.00149838)
(0.2019 7.88684e-09 0.00149251)
(0.200001 7.9706e-09 0.00148731)
(0.198108 8.05816e-09 0.00148278)
(0.196221 8.15143e-09 0.00147897)
(0.194338 8.239e-09 0.00147587)
(0.192458 8.31704e-09 0.00147351)
(0.190581 8.39889e-09 0.00147192)
(0.188706 8.48645e-09 0.0014711)
(0.186831 8.55879e-09 0.00147108)
(0.184956 8.63683e-09 0.00147188)
(0.18308 8.71297e-09 0.0014735)
(0.181201 8.79292e-09 0.00147597)
(0.179319 8.87287e-09 0.0014793)
(0.177432 8.94901e-09 0.00148352)
(0.17554 9.02706e-09 0.00148863)
(0.173641 9.10129e-09 0.00149465)
(0.171734 9.18124e-09 0.0015016)
(0.169818 9.25548e-09 0.00150948)
(0.167892 9.33923e-09 0.00151832)
(0.165955 9.41728e-09 0.00152813)
(0.164005 9.50865e-09 0.00153891)
(0.162042 9.60002e-09 0.00155069)
(0.160063 9.68568e-09 0.00156347)
(0.158069 9.78466e-09 0.00157726)
(0.156057 9.89126e-09 0.00159207)
(0.154027 9.98263e-09 0.0016079)
(0.151977 1.00968e-08 0.00162478)
(0.149907 1.02034e-08 0.00164269)
(0.147813 1.03291e-08 0.00166165)
(0.145697 1.04395e-08 0.00168165)
(0.143556 1.05613e-08 0.0017027)
(0.141389 1.06984e-08 0.0017248)
(0.139194 1.08354e-08 0.00174794)
(0.136972 1.09839e-08 0.00177213)
(0.13472 1.11362e-08 0.00179735)
(0.132437 1.12999e-08 0.00182359)
(0.130123 1.14522e-08 0.00185085)
(0.127775 1.16311e-08 0.0018791)
(0.125393 1.18101e-08 0.00190834)
(0.122976 1.20119e-08 0.00193854)
(0.120523 1.22098e-08 0.00196968)
(0.118033 1.24116e-08 0.00200173)
(0.115505 1.26286e-08 0.00203467)
(0.112937 1.28609e-08 0.00206845)
(0.11033 1.30931e-08 0.00210305)
(0.107681 1.33444e-08 0.00213841)
(0.104992 1.36109e-08 0.00217449)
(0.10226 1.38774e-08 0.00221124)
(0.099485 1.41591e-08 0.0022486)
(0.0966672 1.44523e-08 0.0022865)
(0.0938057 1.47645e-08 0.00232487)
(0.0909004 1.51071e-08 0.00236363)
(0.0879509 1.54726e-08 0.00240269)
(0.0849573 1.58533e-08 0.00244196)
(0.0819196 1.62607e-08 0.00248133)
(0.0788381 1.66985e-08 0.00252069)
(0.0757131 1.71592e-08 0.0025599)
(0.0725452 1.76732e-08 0.00259882)
(0.0693352 1.82062e-08 0.0026373)
(0.0660839 1.87582e-08 0.00267517)
(0.0627927 1.93636e-08 0.00271222)
(0.0594629 1.99727e-08 0.00274825)
(0.0560964 2.06047e-08 0.00278301)
(0.052695 2.12367e-08 0.00281625)
(0.0492613 2.1884e-08 0.00284765)
(0.045798 2.25198e-08 0.0028769)
(0.0423082 2.31137e-08 0.0029036)
(0.0387957 2.37191e-08 0.00292734)
(0.0352647 2.43016e-08 0.00294763)
(0.0317198 2.48688e-08 0.00296393)
(0.0281666 2.54361e-08 0.00297561)
(0.0246114 2.60377e-08 0.00298196)
(0.0210611 2.6624e-08 0.00298218)
(0.017524 2.72217e-08 0.00297531)
(0.0140091 2.78004e-08 0.00296027)
(0.010527 2.83486e-08 0.0029358)
(0.00708951 2.87636e-08 0.00290034)
(0.00371203 2.89654e-08 0.00285197)
(0.000408254 2.86913e-08 0.00278585)
(-0.00280393 2.78156e-08 0.00269529)
(-0.00589259 2.67344e-08 0.0025804)
(-0.00884174 2.58054e-08 0.00244293)
(-0.0116191 2.53333e-08 0.00227977)
(-0.0141926 2.57826e-08 0.00208541)
(-0.0165231 2.77319e-08 0.00185397)
(-0.0185649 3.16762e-08 0.00157883)
(-0.0202643 3.75469e-08 0.00125131)
(-0.0215574 4.45598e-08 0.0008612)
(-0.0223692 5.09027e-08 0.000395813)
(-0.0226129 5.36058e-08 -0.000159211)
(-0.0221825 5.02707e-08 -0.000816177)
(-0.0209724 4.14684e-08 -0.00158691)
(-0.0188646 3.22473e-08 -0.0024768)
(-0.0157567 3.18056e-08 -0.00346007)
(-0.011611 4.48568e-08 -0.00442763)
(-0.00668756 5.75499e-08 -0.00502815)
(-0.00115545 5.84028e-08 -0.00371634)
(0.00103237 9.44182e-09 0.00145095)
(-0.0164768 3.04858e-07 0.0180167)
(-0.0362941 4.19412e-08 0.0174678)
(-0.0499672 3.69233e-08 0.00896958)
(-0.0544146 1.31276e-08 0.000657143)
(-0.0507115 -2.96977e-09 -0.0054536)
(-0.041707 -1.50961e-08 -0.00959472)
(-0.0289259 -2.33656e-08 -0.012356)
(-0.0137914 -2.8791e-08 -0.0141587)
(0.00304095 -3.28991e-08 -0.0151867)
(0.020617 -3.4243e-08 -0.0155698)
(0.0385484 -3.23546e-08 -0.0155747)
(0.0565457 -2.95562e-08 -0.0153575)
(0.0743464 -2.62134e-08 -0.0149885)
(0.0917873 -2.26269e-08 -0.0145147)
(0.108745 -1.89947e-08 -0.0139686)
(0.125129 -1.54958e-08 -0.0133732)
(0.140874 -1.21948e-08 -0.0127454)
(0.155933 -9.15275e-09 -0.0120977)
(0.170272 -6.39625e-09 -0.0114395)
(0.183872 -3.92529e-09 -0.0107782)
(0.196719 -1.73607e-09 -0.0101194)
(0.208809 1.96147e-10 -0.00946756)
(0.220144 1.8866e-09 -0.00882632)
(0.23073 3.34671e-09 -0.00819852)
(0.240578 4.59932e-09 -0.00758647)
(0.249703 5.65776e-09 -0.00699204)
(0.25812 6.54297e-09 -0.00641672)
(0.265851 7.27207e-09 -0.00586166)
(0.272916 7.85269e-09 -0.00532779)
(0.279338 8.29053e-09 -0.00481579)
(0.285142 8.61987e-09 -0.00432612)
(0.290354 8.83118e-09 -0.00385909)
(0.294998 8.95492e-09 -0.00341483)
(0.299103 8.98919e-09 -0.00299335)
(0.302694 8.94921e-09 -0.0025945)
(0.305798 8.85403e-09 -0.00221806)
(0.308443 8.69603e-09 -0.00186368)
(0.310654 8.49995e-09 -0.00153094)
(0.312458 8.26961e-09 -0.00121932)
(0.31388 8.0012e-09 -0.000928272)
(0.314945 7.72136e-09 -0.000657169)
(0.315678 7.41678e-09 -0.000405367)
(0.316102 7.11029e-09 -0.000172157)
(0.316239 6.78477e-09 4.365e-05)
(0.316112 6.46496e-09 0.000242583)
(0.315741 6.15847e-09 0.000424958)
(0.315147 5.85389e-09 0.000591841)
(0.314347 5.56454e-09 0.000744151)
(0.31336 5.29232e-09 0.000882714)
(0.312203 5.03152e-09 0.00100832)
(0.310892 4.78785e-09 0.00112174)
(0.309441 4.56513e-09 0.00122373)
(0.307865 4.36525e-09 0.00131504)
(0.306178 4.18059e-09 0.0013964)
(0.30439 4.02449e-09 0.00146851)
(0.302514 3.88934e-09 0.00153204)
(0.300561 3.77131e-09 0.00158765)
(0.298539 3.66471e-09 0.00163596)
(0.296458 3.59237e-09 0.00167756)
(0.294326 3.53717e-09 0.00171302)
(0.292151 3.48958e-09 0.00174285)
(0.289939 3.47815e-09 0.00176756)
(0.287698 3.47435e-09 0.00178763)
(0.285432 3.48767e-09 0.00180348)
(0.283147 3.51432e-09 0.00181553)
(0.280847 3.55811e-09 0.00182415)
(0.278537 3.61521e-09 0.00182971)
(0.27622 3.68565e-09 0.00183252)
(0.2739 3.77131e-09 0.0018329)
(0.27158 3.86459e-09 0.00183111)
(0.269262 3.95977e-09 0.00182741)
(0.266949 4.06256e-09 0.00182204)
(0.264643 4.18059e-09 0.00181521)
(0.262345 4.30242e-09 0.00180712)
(0.260058 4.42234e-09 0.00179794)
(0.257782 4.54988e-09 0.00178784)
(0.255519 4.68314e-09 0.00177696)
(0.253269 4.8221e-09 0.00176545)
(0.251034 4.95345e-09 0.00175341)
(0.248814 5.0867e-09 0.00174096)
(0.246609 5.22947e-09 0.00172821)
(0.24442 5.37033e-09 0.00171524)
(0.242247 5.50929e-09 0.00170214)
(0.240091 5.65016e-09 0.00168897)
(0.237951 5.78722e-09 0.00167582)
(0.235827 5.92047e-09 0.00166273)
(0.233719 6.05372e-09 0.00164977)
(0.231627 6.19458e-09 0.001637)
(0.229552 6.32402e-09 0.00162445)
(0.227491 6.44966e-09 0.00161217)
(0.225446 6.5791e-09 0.0016002)
(0.223416 6.70093e-09 0.00158859)
(0.2214 6.82466e-09 0.00157735)
(0.219398 6.94839e-09 0.00156653)
(0.217409 7.06832e-09 0.00155616)
(0.215432 7.17491e-09 0.00154627)
(0.213468 7.27771e-09 0.00153688)
(0.211516 7.3843e-09 0.00152801)
(0.209574 7.4909e-09 0.0015197)
(0.207642 7.59179e-09 0.00151197)
(0.20572 7.69268e-09 0.00150483)
(0.203806 7.79166e-09 0.00149832)
(0.2019 7.88684e-09 0.00149245)
(0.200001 7.97059e-09 0.00148724)
(0.198108 8.05816e-09 0.00148272)
(0.196221 8.15143e-09 0.0014789)
(0.194338 8.23899e-09 0.0014758)
(0.192458 8.31703e-09 0.00147345)
(0.190581 8.39889e-09 0.00147185)
(0.188706 8.48645e-09 0.00147104)
(0.186831 8.55878e-09 0.00147102)
(0.184956 8.63683e-09 0.00147181)
(0.18308 8.71297e-09 0.00147343)
(0.181201 8.79292e-09 0.0014759)
(0.179319 8.87286e-09 0.00147924)
(0.177432 8.949e-09 0.00148345)
(0.17554 9.02705e-09 0.00148856)
(0.173641 9.10129e-09 0.00149458)
(0.171734 9.18123e-09 0.00150153)
(0.169818 9.25547e-09 0.00150941)
(0.167892 9.33923e-09 0.00151825)
(0.165955 9.41727e-09 0.00152806)
(0.164005 9.50864e-09 0.00153884)
(0.162042 9.60001e-09 0.00155062)
(0.160063 9.68567e-09 0.0015634)
(0.158069 9.78466e-09 0.00157718)
(0.156057 9.89126e-09 0.00159199)
(0.154027 9.98263e-09 0.00160783)
(0.151977 1.00968e-08 0.0016247)
(0.149907 1.02034e-08 0.00164261)
(0.147813 1.03291e-08 0.00166157)
(0.145697 1.04395e-08 0.00168157)
(0.143556 1.05613e-08 0.00170262)
(0.141389 1.06984e-08 0.00172472)
(0.139194 1.08354e-08 0.00174787)
(0.136972 1.09839e-08 0.00177205)
(0.13472 1.11362e-08 0.00179727)
(0.132437 1.12999e-08 0.00182351)
(0.130123 1.14522e-08 0.00185076)
(0.127775 1.16311e-08 0.00187902)
(0.125393 1.18101e-08 0.00190825)
(0.122976 1.20118e-08 0.00193845)
(0.120523 1.22098e-08 0.00196959)
(0.118033 1.24116e-08 0.00200165)
(0.115505 1.26286e-08 0.00203458)
(0.112937 1.28608e-08 0.00206837)
(0.11033 1.30931e-08 0.00210296)
(0.107681 1.33444e-08 0.00213832)
(0.104992 1.36109e-08 0.0021744)
(0.10226 1.38774e-08 0.00221115)
(0.099485 1.41591e-08 0.0022485)
(0.0966672 1.44523e-08 0.0022864)
(0.0938058 1.47645e-08 0.00232477)
(0.0909004 1.51071e-08 0.00236353)
(0.0879509 1.54726e-08 0.00240259)
(0.0849573 1.58533e-08 0.00244186)
(0.0819196 1.62607e-08 0.00248123)
(0.0788381 1.66985e-08 0.00252058)
(0.0757131 1.71592e-08 0.00255979)
(0.0725452 1.76732e-08 0.00259871)
(0.0693352 1.82062e-08 0.00263719)
(0.0660839 1.87582e-08 0.00267505)
(0.0627927 1.93636e-08 0.0027121)
(0.059463 1.99727e-08 0.00274813)
(0.0560964 2.06047e-08 0.00278289)
(0.0526951 2.12367e-08 0.00281612)
(0.0492614 2.18839e-08 0.00284753)
(0.045798 2.25198e-08 0.00287677)
(0.0423083 2.31137e-08 0.00290347)
(0.0387958 2.3719e-08 0.0029272)
(0.0352647 2.43015e-08 0.00294749)
(0.0317198 2.48688e-08 0.00296379)
(0.0281667 2.54361e-08 0.00297547)
(0.0246114 2.60376e-08 0.00298182)
(0.0210612 2.66239e-08 0.00298202)
(0.017524 2.72217e-08 0.00297515)
(0.0140091 2.78004e-08 0.00296011)
(0.0105271 2.83486e-08 0.00293563)
(0.00708954 2.87636e-08 0.00290017)
(0.00371206 2.89654e-08 0.0028518)
(0.000408281 2.86913e-08 0.00278567)
(-0.0028039 2.78156e-08 0.00269511)
(-0.00589257 2.67343e-08 0.00258022)
(-0.00884171 2.58054e-08 0.00244274)
(-0.0116191 2.53333e-08 0.00227958)
(-0.0141926 2.57825e-08 0.00208522)
(-0.0165231 2.77318e-08 0.00185378)
(-0.0185649 3.16761e-08 0.00157863)
(-0.0202642 3.75469e-08 0.00125111)
(-0.0215574 4.45598e-08 0.000860986)
(-0.0223692 5.09026e-08 0.000395586)
(-0.0226129 5.36057e-08 -0.000159455)
(-0.0221825 5.02706e-08 -0.00081644)
(-0.0209725 4.14683e-08 -0.0015872)
(-0.0188646 3.22472e-08 -0.0024771)
(-0.0157568 3.18055e-08 -0.00346036)
(-0.0116111 4.48567e-08 -0.00442792)
(-0.00668777 5.75502e-08 -0.00502853)
(-0.00115586 5.84029e-08 -0.00371699)
(0.00103194 9.44185e-09 0.00144954)
(-0.0143193 3.19736e-08 0.0408936)
(-0.0210875 3.93667e-09 0.0267619)
(-0.0214054 5.25789e-09 0.0118147)
(-0.0179879 6.87181e-10 -0.00143003)
(-0.0111673 -1.05848e-09 -0.0116618)
(-0.00167864 -2.62519e-09 -0.0189898)
(0.00994934 -3.90731e-09 -0.0240292)
(0.0231145 -4.85818e-09 -0.0273567)
(0.037381 -5.52827e-09 -0.0293992)
(0.0523485 -5.81952e-09 -0.0304734)
(0.0677166 -5.80524e-09 -0.030873)
(0.0832333 -5.67102e-09 -0.0307947)
(0.0986999 -5.4283e-09 -0.030367)
(0.113964 -5.13037e-09 -0.029683)
(0.128907 -4.80341e-09 -0.0288093)
(0.143436 -4.46646e-09 -0.0277953)
(0.157481 -4.13712e-09 -0.0266788)
(0.170987 -3.82491e-09 -0.0254886)
(0.183915 -3.53174e-09 -0.0242478)
(0.196235 -3.26332e-09 -0.0229744)
(0.207927 -3.01489e-09 -0.0216834)
(0.218979 -2.79121e-09 -0.0203868)
(0.229384 -2.59037e-09 -0.0190945)
(0.239142 -2.40856e-09 -0.0178149)
(0.248256 -2.2496e-09 -0.0165548)
(0.256733 -2.10873e-09 -0.0153202)
(0.264584 -1.98641e-09 -0.0141156)
(0.271823 -1.88171e-09 -0.0129452)
(0.278466 -1.79414e-09 -0.0118121)
(0.284529 -1.72132e-09 -0.010719)
(0.290032 -1.66183e-09 -0.00966802)
(0.294996 -1.61614e-09 -0.00866063)
(0.299441 -1.57949e-09 -0.007698)
(0.303389 -1.55426e-09 -0.00678084)
(0.306864 -1.53998e-09 -0.00590953)
(0.309887 -1.52808e-09 -0.00508411)
(0.312482 -1.52474e-09 -0.00430435)
(0.314673 -1.52665e-09 -0.00356975)
(0.316481 -1.5314e-09 -0.00287961)
(0.317928 -1.53997e-09 -0.00223303)
(0.319039 -1.54853e-09 -0.00162893)
(0.319833 -1.56042e-09 -0.0010661)
(0.320331 -1.57137e-09 -0.000543206)
(0.320556 -1.57708e-09 -5.88147e-05)
(0.320525 -1.58707e-09 0.000388638)
(0.320257 -1.60039e-09 0.0008008)
(0.319772 -1.60848e-09 0.00117931)
(0.319087 -1.61228e-09 0.00152582)
(0.318217 -1.61228e-09 0.00184199)
(0.31718 -1.6118e-09 0.00212948)
(0.315989 -1.60609e-09 0.00238995)
(0.314658 -1.60038e-09 0.00262502)
(0.313202 -1.59086e-09 0.0028363)
(0.311632 -1.57705e-09 0.00302534)
(0.30996 -1.5623e-09 0.00319368)
(0.308196 -1.54326e-09 0.00334278)
(0.306352 -1.52375e-09 0.00347406)
(0.304436 -1.50138e-09 0.00358887)
(0.302457 -1.47615e-09 0.00368852)
(0.300422 -1.44855e-09 0.00377422)
(0.298341 -1.42142e-09 0.00384716)
(0.296218 -1.39096e-09 0.00390844)
(0.29406 -1.3605e-09 0.00395908)
(0.291874 -1.32862e-09 0.00400007)
(0.289664 -1.29816e-09 0.00403231)
(0.287434 -1.2658e-09 0.00405666)
(0.28519 -1.23248e-09 0.0040739)
(0.282935 -1.19965e-09 0.00408477)
(0.280672 -1.16681e-09 0.00408994)
(0.278404 -1.1354e-09 0.00409004)
(0.276135 -1.10304e-09 0.00408565)
(0.273867 -1.07258e-09 0.0040773)
(0.271602 -1.04164e-09 0.00406548)
(0.269341 -1.01357e-09 0.00405062)
(0.267087 -9.86916e-10 0.00403314)
(0.264841 -9.58839e-10 0.00401341)
(0.262604 -9.36472e-10 0.00399177)
(0.260378 -9.11249e-10 0.00396853)
(0.258163 -8.91262e-10 0.00394397)
(0.25596 -8.69372e-10 0.00391835)
(0.25377 -8.51288e-10 0.0038919)
(0.251593 -8.33681e-10 0.00386483)
(0.249429 -8.18453e-10 0.00383734)
(0.247279 -8.05605e-10 0.0038096)
(0.245143 -7.93232e-10 0.00378177)
(0.243022 -7.82764e-10 0.00375401)
(0.240914 -7.73723e-10 0.00372643)
(0.23882 -7.65634e-10 0.00369918)
(0.23674 -7.59925e-10 0.00367235)
(0.234674 -7.55167e-10 0.00364606)
(0.232621 -7.50885e-10 0.0036204)
(0.230582 -7.4708e-10 0.00359545)
(0.228555 -7.47081e-10 0.0035713)
(0.22654 -7.46607e-10 0.00354803)
(0.224537 -7.47085e-10 0.0035257)
(0.222545 -7.48514e-10 0.00350439)
(0.220564 -7.52799e-10 0.00348415)
(0.218593 -7.58035e-10 0.00346506)
(0.216632 -7.63748e-10 0.00344715)
(0.214679 -7.68033e-10 0.0034305)
(0.212735 -7.73269e-10 0.00341514)
(0.210798 -7.79934e-10 0.00340114)
(0.208868 -7.88026e-10 0.00338853)
(0.206944 -7.9707e-10 0.00337737)
(0.205026 -8.0421e-10 0.00336769)
(0.203111 -8.1135e-10 0.00335955)
(0.2012 -8.20394e-10 0.00335297)
(0.199292 -8.29914e-10 0.00334801)
(0.197386 -8.38958e-10 0.00334471)
(0.19548 -8.48477e-10 0.00334309)
(0.193575 -8.57521e-10 0.00334321)
(0.191668 -8.68469e-10 0.00334508)
(0.18976 -8.77036e-10 0.00334876)
(0.187849 -8.8608e-10 0.00335427)
(0.185933 -8.94648e-10 0.00336165)
(0.184013 -9.04168e-10 0.00337092)
(0.182087 -9.14639e-10 0.00338213)
(0.180153 -9.24159e-10 0.00339529)
(0.178212 -9.32726e-10 0.00341043)
(0.176261 -9.42722e-10 0.00342759)
(0.1743 -9.51765e-10 0.00344678)
(0.172328 -9.61285e-10 0.00346803)
(0.170343 -9.67949e-10 0.00349136)
(0.168344 -9.76992e-10 0.00351679)
(0.166331 -9.8556e-10 0.00354433)
(0.164302 -9.93651e-10 0.003574)
(0.162255 -9.99839e-10 0.00360581)
(0.160191 -1.00983e-09 0.00363977)
(0.158107 -1.01507e-09 0.00367589)
(0.156002 -1.02364e-09 0.00371416)
(0.153876 -1.03173e-09 0.00375459)
(0.151727 -1.04077e-09 0.00379717)
(0.149555 -1.04886e-09 0.0038419)
(0.147357 -1.05505e-09 0.00388875)
(0.145133 -1.06457e-09 0.00393771)
(0.142881 -1.07219e-09 0.00398877)
(0.140602 -1.07885e-09 0.00404189)
(0.138293 -1.08789e-09 0.00409703)
(0.135953 -1.09836e-09 0.00415416)
(0.133582 -1.10646e-09 0.00421324)
(0.131179 -1.1155e-09 0.00427421)
(0.128742 -1.12407e-09 0.00433701)
(0.126271 -1.13596e-09 0.00440158)
(0.123765 -1.14548e-09 0.00446783)
(0.121223 -1.155e-09 0.00453569)
(0.118644 -1.16642e-09 0.00460506)
(0.116028 -1.18023e-09 0.00467584)
(0.113374 -1.19308e-09 0.00474792)
(0.110682 -1.20545e-09 0.00482117)
(0.10795 -1.21973e-09 0.00489545)
(0.105179 -1.23448e-09 0.00497061)
(0.102369 -1.25019e-09 0.0050465)
(0.0995181 -1.26351e-09 0.00512293)
(0.0966275 -1.27731e-09 0.0051997)
(0.093697 -1.29207e-09 0.00527661)
(0.0907266 -1.30825e-09 0.00535342)
(0.0877167 -1.323e-09 0.00542989)
(0.0846677 -1.33728e-09 0.00550573)
(0.0815802 -1.35346e-09 0.00558065)
(0.078455 -1.36869e-09 0.00565432)
(0.0752931 -1.38678e-09 0.00572637)
(0.0720957 -1.40391e-09 0.00579642)
(0.0688641 -1.4277e-09 0.00586404)
(0.0656001 -1.4534e-09 0.00592875)
(0.0623055 -1.48576e-09 0.00599002)
(0.0589826 -1.52574e-09 0.00604729)
(0.055634 -1.56952e-09 0.00609992)
(0.0522626 -1.62092e-09 0.00614719)
(0.0488716 -1.68279e-09 0.00618831)
(0.0454649 -1.74751e-09 0.00622241)
(0.0420467 -1.81604e-09 0.0062485)
(0.0386217 -1.89028e-09 0.00626548)
(0.0351953 -1.96357e-09 0.00627209)
(0.0317736 -2.03496e-09 0.00626692)
(0.0283633 -2.10635e-09 0.00624837)
(0.0249721 -2.17868e-09 0.00621461)
(0.0216086 -2.25102e-09 0.00616355)
(0.0182825 -2.33764e-09 0.00609274)
(0.0150047 -2.44138e-09 0.00599925)
(0.0117876 -2.57939e-09 0.00587968)
(0.00864513 -2.75453e-09 0.00572926)
(0.00559247 -2.92776e-09 0.00554182)
(0.0026477 -3.08766e-09 0.00531333)
(-0.000170768 -3.21711e-09 0.00503942)
(-0.00283866 -3.25803e-09 0.0047131)
(-0.00533029 -3.10955e-09 0.00432636)
(-0.00761803 -2.6898e-09 0.00386961)
(-0.00967001 -1.95025e-09 0.00333123)
(-0.0114511 -9.48949e-10 0.00269732)
(-0.0129224 5.71118e-11 0.00195229)
(-0.0140418 5.81558e-10 0.00107858)
(-0.0147654 -2.56955e-11 5.82898e-05)
(-0.0150489 -2.14918e-09 -0.00112128)
(-0.0148508 -5.24636e-09 -0.00246446)
(-0.0141422 -7.12903e-09 -0.0039536)
(-0.0129162 -4.34595e-09 -0.00551135)
(-0.0112057 3.72537e-09 -0.00692562)
(-0.00905442 1.91503e-09 -0.0077073)
(-0.00642428 -1.73305e-08 -0.00662046)
(-0.0038998 -2.45355e-07 -0.00173658)
(-0.0143196 3.19733e-08 0.0408932)
(-0.0210876 3.93662e-09 0.0267617)
(-0.0214053 5.25782e-09 0.0118145)
(-0.0179877 6.87173e-10 -0.00143017)
(-0.0111672 -1.05847e-09 -0.0116619)
(-0.00167851 -2.62517e-09 -0.0189899)
(0.00994946 -3.90727e-09 -0.0240293)
(0.0231146 -4.85815e-09 -0.0273567)
(0.0373811 -5.52823e-09 -0.0293993)
(0.0523486 -5.81949e-09 -0.0304734)
(0.0677166 -5.8052e-09 -0.0308731)
(0.0832334 -5.67099e-09 -0.0307947)
(0.0987 -5.42827e-09 -0.0303671)
(0.113964 -5.13035e-09 -0.029683)
(0.128907 -4.80339e-09 -0.0288093)
(0.143436 -4.46644e-09 -0.0277954)
(0.157481 -4.1371e-09 -0.0266788)
(0.170987 -3.8249e-09 -0.0254887)
(0.183915 -3.53173e-09 -0.0242478)
(0.196235 -3.26331e-09 -0.0229745)
(0.207927 -3.01488e-09 -0.0216834)
(0.218979 -2.7912e-09 -0.0203868)
(0.229384 -2.59036e-09 -0.0190945)
(0.239142 -2.40855e-09 -0.0178149)
(0.248255 -2.2496e-09 -0.0165549)
(0.256733 -2.10872e-09 -0.0153202)
(0.264584 -1.98641e-09 -0.0141156)
(0.271823 -1.8817e-09 -0.0129452)
(0.278466 -1.79413e-09 -0.0118121)
(0.284529 -1.72131e-09 -0.010719)
(0.290032 -1.66182e-09 -0.00966803)
(0.294996 -1.61613e-09 -0.00866065)
(0.299441 -1.57948e-09 -0.00769801)
(0.303389 -1.55426e-09 -0.00678086)
(0.306864 -1.53998e-09 -0.00590954)
(0.309887 -1.52808e-09 -0.00508412)
(0.312482 -1.52474e-09 -0.00430436)
(0.314673 -1.52664e-09 -0.00356977)
(0.31648 -1.5314e-09 -0.00287963)
(0.317928 -1.53996e-09 -0.00223305)
(0.319039 -1.54853e-09 -0.00162895)
(0.319833 -1.56042e-09 -0.00106612)
(0.320331 -1.57136e-09 -0.000543225)
(0.320555 -1.57707e-09 -5.88337e-05)
(0.320524 -1.58706e-09 0.000388618)
(0.320257 -1.60039e-09 0.000800781)
(0.319772 -1.60848e-09 0.00117929)
(0.319087 -1.61228e-09 0.0015258)
(0.318217 -1.61228e-09 0.00184197)
(0.31718 -1.6118e-09 0.00212946)
(0.315989 -1.60609e-09 0.00238993)
(0.314658 -1.60038e-09 0.002625)
(0.313202 -1.59086e-09 0.00283628)
(0.311632 -1.57705e-09 0.00302532)
(0.30996 -1.5623e-09 0.00319366)
(0.308196 -1.54326e-09 0.00334276)
(0.306352 -1.52375e-09 0.00347404)
(0.304436 -1.50138e-09 0.00358885)
(0.302457 -1.47615e-09 0.0036885)
(0.300422 -1.44855e-09 0.0037742)
(0.29834 -1.42142e-09 0.00384714)
(0.296218 -1.39096e-09 0.00390842)
(0.29406 -1.3605e-09 0.00395906)
(0.291874 -1.32862e-09 0.00400005)
(0.289664 -1.29816e-09 0.00403229)
(0.287434 -1.2658e-09 0.00405664)
(0.28519 -1.23248e-09 0.00407388)
(0.282935 -1.19964e-09 0.00408475)
(0.280672 -1.16681e-09 0.00408992)
(0.278404 -1.1354e-09 0.00409002)
(0.276135 -1.10303e-09 0.00408564)
(0.273867 -1.07258e-09 0.00407728)
(0.271601 -1.04164e-09 0.00406546)
(0.269341 -1.01357e-09 0.0040506)
(0.267087 -9.86915e-10 0.00403312)
(0.264841 -9.58837e-10 0.00401339)
(0.262604 -9.36471e-10 0.00399175)
(0.260378 -9.11248e-10 0.00396851)
(0.258163 -8.91261e-10 0.00394395)
(0.25596 -8.6937e-10 0.00391833)
(0.25377 -8.51287e-10 0.00389188)
(0.251592 -8.3368e-10 0.00386481)
(0.249429 -8.18452e-10 0.00383732)
(0.247279 -8.05604e-10 0.00380958)
(0.245143 -7.93231e-10 0.00378175)
(0.243022 -7.82763e-10 0.00375399)
(0.240914 -7.73722e-10 0.00372642)
(0.23882 -7.65633e-10 0.00369916)
(0.23674 -7.59924e-10 0.00367234)
(0.234674 -7.55166e-10 0.00364605)
(0.232621 -7.50885e-10 0.00362038)
(0.230582 -7.47079e-10 0.00359543)
(0.228555 -7.4708e-10 0.00357128)
(0.22654 -7.46606e-10 0.00354801)
(0.224537 -7.47084e-10 0.00352568)
(0.222545 -7.48513e-10 0.00350437)
(0.220564 -7.52798e-10 0.00348414)
(0.218593 -7.58035e-10 0.00346504)
(0.216632 -7.63747e-10 0.00344714)
(0.214679 -7.68032e-10 0.00343048)
(0.212735 -7.73269e-10 0.00341513)
(0.210798 -7.79933e-10 0.00340112)
(0.208868 -7.88025e-10 0.00338851)
(0.206944 -7.97069e-10 0.00337735)
(0.205026 -8.04209e-10 0.00336767)
(0.203111 -8.11349e-10 0.00335953)
(0.2012 -8.20393e-10 0.00335296)
(0.199292 -8.29913e-10 0.003348)
(0.197386 -8.38957e-10 0.00334469)
(0.19548 -8.48476e-10 0.00334308)
(0.193575 -8.5752e-10 0.00334319)
(0.191668 -8.68468e-10 0.00334507)
(0.18976 -8.77036e-10 0.00334875)
(0.187849 -8.86079e-10 0.00335426)
(0.185933 -8.94647e-10 0.00336163)
(0.184013 -9.04167e-10 0.00337091)
(0.182087 -9.14638e-10 0.00338211)
(0.180153 -9.24158e-10 0.00339527)
(0.178212 -9.32725e-10 0.00341042)
(0.176261 -9.42721e-10 0.00342757)
(0.1743 -9.51764e-10 0.00344676)
(0.172328 -9.61284e-10 0.00346801)
(0.170343 -9.67948e-10 0.00349134)
(0.168344 -9.76991e-10 0.00351677)
(0.166331 -9.85559e-10 0.00354431)
(0.164302 -9.9365e-10 0.00357399)
(0.162255 -9.99838e-10 0.0036058)
(0.160191 -1.00983e-09 0.00363976)
(0.158107 -1.01507e-09 0.00367587)
(0.156002 -1.02364e-09 0.00371414)
(0.153876 -1.03173e-09 0.00375457)
(0.151727 -1.04077e-09 0.00379715)
(0.149554 -1.04886e-09 0.00384188)
(0.147357 -1.05505e-09 0.00388873)
(0.145133 -1.06457e-09 0.00393769)
(0.142881 -1.07219e-09 0.00398875)
(0.140602 -1.07885e-09 0.00404187)
(0.138293 -1.08789e-09 0.00409701)
(0.135953 -1.09836e-09 0.00415415)
(0.133582 -1.10645e-09 0.00421322)
(0.131179 -1.1155e-09 0.00427419)
(0.128742 -1.12406e-09 0.00433699)
(0.126271 -1.13596e-09 0.00440156)
(0.123765 -1.14548e-09 0.00446781)
(0.121223 -1.155e-09 0.00453567)
(0.118644 -1.16642e-09 0.00460504)
(0.116028 -1.18022e-09 0.00467582)
(0.113374 -1.19307e-09 0.0047479)
(0.110682 -1.20545e-09 0.00482115)
(0.10795 -1.21973e-09 0.00489543)
(0.105179 -1.23448e-09 0.00497059)
(0.102369 -1.25019e-09 0.00504648)
(0.0995181 -1.26351e-09 0.0051229)
(0.0966275 -1.27731e-09 0.00519968)
(0.093697 -1.29207e-09 0.00527659)
(0.0907266 -1.30825e-09 0.0053534)
(0.0877167 -1.323e-09 0.00542987)
(0.0846677 -1.33728e-09 0.00550571)
(0.0815802 -1.35346e-09 0.00558063)
(0.078455 -1.36869e-09 0.00565429)
(0.0752931 -1.38677e-09 0.00572635)
(0.0720957 -1.40391e-09 0.0057964)
(0.0688641 -1.4277e-09 0.00586401)
(0.0656001 -1.4534e-09 0.00592872)
(0.0623055 -1.48576e-09 0.00599)
(0.0589826 -1.52574e-09 0.00604727)
(0.055634 -1.56952e-09 0.00609989)
(0.0522626 -1.62092e-09 0.00614716)
(0.0488716 -1.68279e-09 0.00618828)
(0.0454649 -1.74751e-09 0.00622238)
(0.0420467 -1.81604e-09 0.00624848)
(0.0386217 -1.89028e-09 0.00626545)
(0.0351953 -1.96357e-09 0.00627206)
(0.0317736 -2.03496e-09 0.00626689)
(0.0283633 -2.10634e-09 0.00624834)
(0.0249721 -2.17868e-09 0.00621458)
(0.0216086 -2.25102e-09 0.00616351)
(0.0182825 -2.33763e-09 0.0060927)
(0.0150047 -2.44138e-09 0.00599922)
(0.0117876 -2.57939e-09 0.00587965)
(0.00864514 -2.75452e-09 0.00572923)
(0.00559249 -2.92775e-09 0.00554179)
(0.00264772 -3.08766e-09 0.0053133)
(-0.000170754 -3.2171e-09 0.00503938)
(-0.00283865 -3.25803e-09 0.00471306)
(-0.00533027 -3.10955e-09 0.00432633)
(-0.00761802 -2.6898e-09 0.00386957)
(-0.00967 -1.95025e-09 0.00333119)
(-0.0114511 -9.48947e-10 0.00269728)
(-0.0129224 5.71117e-11 0.00195224)
(-0.0140418 5.81557e-10 0.00107853)
(-0.0147654 -2.56954e-11 5.82391e-05)
(-0.015049 -2.14917e-09 -0.00112134)
(-0.0148508 -5.24635e-09 -0.00246452)
(-0.0141422 -7.12903e-09 -0.00395367)
(-0.0129163 -4.34595e-09 -0.00551143)
(-0.0112058 3.72538e-09 -0.00692571)
(-0.00905453 1.91504e-09 -0.00770743)
(-0.00642454 -1.73305e-08 -0.00662067)
(-0.00390039 -2.45351e-07 -0.0017371)
(-0.00597169 5.216e-08 0.0542146)
(-0.00627495 3.87765e-09 0.0265699)
(-0.00120743 5.81567e-09 0.00623187)
(0.00577177 4.23755e-09 -0.00969795)
(0.0142928 4.43507e-09 -0.0218979)
(0.0240969 4.40033e-09 -0.0309207)
(0.035054 4.21806e-09 -0.0373646)
(0.0469668 3.9663e-09 -0.0417806)
(0.0596238 3.62649e-09 -0.0446236)
(0.0728199 3.25909e-09 -0.0462531)
(0.0863645 2.93071e-09 -0.0469665)
(0.100076 2.62755e-09 -0.0469883)
(0.113799 2.37008e-09 -0.0464848)
(0.127403 2.15164e-09 -0.0455814)
(0.140781 1.96841e-09 -0.0443729)
(0.153848 1.81326e-09 -0.0429324)
(0.166532 1.68215e-09 -0.0413169)
(0.17878 1.56793e-09 -0.0395715)
(0.190547 1.46989e-09 -0.0377325)
(0.201802 1.38352e-09 -0.0358293)
(0.212518 1.30594e-09 -0.0338859)
(0.22268 1.23694e-09 -0.0319224)
(0.232277 1.17531e-09 -0.0299554)
(0.241302 1.11677e-09 -0.0279989)
(0.249756 1.06466e-09 -0.0260647)
(0.257642 1.01469e-09 -0.0241627)
(0.264965 9.70194e-10 -0.0223011)
(0.271735 9.27601e-10 -0.020487)
(0.277964 8.86673e-10 -0.0187261)
(0.283665 8.48602e-10 -0.0170231)
(0.288854 8.12195e-10 -0.0153818)
(0.293547 7.76979e-10 -0.0138052)
(0.297763 7.43428e-10 -0.0122955)
(0.30152 7.10829e-10 -0.0108542)
(0.304837 6.79658e-10 -0.00948233)
(0.307735 6.50867e-10 -0.00818026)
(0.310233 6.23503e-10 -0.00694795)
(0.312353 5.96615e-10 -0.00578492)
(0.314114 5.72344e-10 -0.00469031)
(0.315536 5.48073e-10 -0.00366292)
(0.31664 5.25944e-10 -0.00270129)