/*--------------------------------*- C++ -*----------------------------------*\
  =========                 |
  \\      /  F ield         | OpenFOAM: The Open Source CFD Toolbox
   \\    /   O peration     | Website:  https://openfoam.org
    \\  /    A nd           | Version:  8
     \\/     M anipulation  |
\*---------------------------------------------------------------------------*/
FoamFile
{
    version     2.0;
    format      ascii;
    class       volScalarField;
    location    "2200";
    object      alphat;
}
// * * * * * * * * * * * * * * * * * * * * * * * * * * * * * * * * * * * * * //

dimensions      [1 -1 -1 0 0 0 0];

internalField   nonuniform List<scalar> 
46000
(
1.38222e-07
7.0196e-07
1.45114e-06
2.18851e-06
2.90117e-06
3.59537e-06
4.27443e-06
4.94177e-06
5.60115e-06
6.25377e-06
6.8998e-06
7.54073e-06
8.17704e-06
8.80894e-06
9.43651e-06
1.00597e-05
1.06783e-05
1.1292e-05
1.19007e-05
1.25039e-05
1.31013e-05
1.36924e-05
1.42768e-05
1.4854e-05
1.54233e-05
1.59843e-05
1.65362e-05
1.70785e-05
1.76105e-05
1.81315e-05
1.86407e-05
1.91376e-05
1.96213e-05
2.00913e-05
2.05466e-05
2.09866e-05
2.14105e-05
2.18175e-05
2.2207e-05
2.25782e-05
2.29304e-05
2.32631e-05
2.35755e-05
2.38671e-05
2.41374e-05
2.43859e-05
2.46122e-05
2.48159e-05
2.49967e-05
2.51542e-05
2.52884e-05
2.53992e-05
2.54865e-05
2.55502e-05
2.55908e-05
2.56081e-05
2.56023e-05
2.5574e-05
2.55234e-05
2.54509e-05
2.53571e-05
2.52429e-05
2.511e-05
2.49597e-05
2.47908e-05
2.4604e-05
2.43999e-05
2.41792e-05
2.39429e-05
2.3692e-05
2.34272e-05
2.31496e-05
2.28603e-05
2.25602e-05
2.22501e-05
2.19313e-05
2.16045e-05
2.12707e-05
2.09309e-05
2.05861e-05
2.02371e-05
1.98848e-05
1.95302e-05
1.9174e-05
1.88171e-05
1.84604e-05
1.81046e-05
1.77503e-05
1.73981e-05
1.70489e-05
1.67033e-05
1.63616e-05
1.60245e-05
1.56925e-05
1.5366e-05
1.50456e-05
1.47314e-05
1.4424e-05
1.41235e-05
1.38302e-05
1.35443e-05
1.32662e-05
1.29958e-05
1.27334e-05
1.24792e-05
1.22331e-05
1.19952e-05
1.17655e-05
1.1544e-05
1.13307e-05
1.11255e-05
1.09285e-05
1.07394e-05
1.05583e-05
1.0385e-05
1.02193e-05
1.0061e-05
9.91009e-06
9.7663e-06
9.62948e-06
9.49945e-06
9.376e-06
9.2589e-06
9.1479e-06
9.04277e-06
8.94331e-06
8.84897e-06
8.76004e-06
8.67598e-06
8.59652e-06
8.52139e-06
8.45034e-06
8.38307e-06
8.31929e-06
8.25868e-06
8.20093e-06
8.14573e-06
8.09276e-06
8.04173e-06
7.99229e-06
7.94414e-06
7.89695e-06
7.85037e-06
7.80408e-06
7.75774e-06
7.71099e-06
7.66352e-06
7.61497e-06
7.56499e-06
7.51323e-06
7.45934e-06
7.40299e-06
7.34387e-06
7.28163e-06
7.21594e-06
7.14643e-06
7.0728e-06
6.99477e-06
6.9121e-06
6.82454e-06
6.73182e-06
6.63369e-06
6.52996e-06
6.42049e-06
6.30529e-06
6.18591e-06
6.06114e-06
5.93055e-06
5.79407e-06
5.65173e-06
5.50363e-06
5.34991e-06
5.19075e-06
5.02638e-06
4.85705e-06
4.68308e-06
4.5048e-06
4.32259e-06
4.13687e-06
3.94805e-06
3.75656e-06
3.56284e-06
3.36738e-06
3.17067e-06
2.97315e-06
2.77526e-06
2.57743e-06
2.37997e-06
2.18259e-06
1.98609e-06
1.79107e-06
1.59646e-06
1.40223e-06
1.20732e-06
1.01105e-06
8.15069e-07
6.12956e-07
4.01449e-07
1.89289e-07
3.6216e-08
1.38274e-07
7.02283e-07
1.45149e-06
2.18868e-06
2.90125e-06
3.59542e-06
4.27442e-06
4.94168e-06
5.60099e-06
6.25355e-06
6.89954e-06
7.54045e-06
8.17679e-06
8.80877e-06
9.43648e-06
1.00598e-05
1.06787e-05
1.12927e-05
1.19015e-05
1.25049e-05
1.31023e-05
1.36934e-05
1.42777e-05
1.48546e-05
1.54237e-05
1.59844e-05
1.65362e-05
1.70784e-05
1.76104e-05
1.81314e-05
1.86407e-05
1.91377e-05
1.96216e-05
2.00916e-05
2.0547e-05
2.0987e-05
2.14109e-05
2.18179e-05
2.22073e-05
2.25785e-05
2.29307e-05
2.32633e-05
2.35757e-05
2.38672e-05
2.41375e-05
2.4386e-05
2.46123e-05
2.48159e-05
2.49966e-05
2.51541e-05
2.52883e-05
2.5399e-05
2.54863e-05
2.55501e-05
2.55906e-05
2.56079e-05
2.56023e-05
2.55739e-05
2.55233e-05
2.54509e-05
2.53571e-05
2.52428e-05
2.511e-05
2.49597e-05
2.47908e-05
2.4604e-05
2.43999e-05
2.41793e-05
2.3943e-05
2.3692e-05
2.34273e-05
2.31498e-05
2.28605e-05
2.25603e-05
2.22504e-05
2.19315e-05
2.16046e-05
2.12707e-05
2.09308e-05
2.0586e-05
2.02368e-05
1.98844e-05
1.95297e-05
1.91736e-05
1.88167e-05
1.84601e-05
1.81042e-05
1.775e-05
1.73979e-05
1.70488e-05
1.67032e-05
1.63615e-05
1.60245e-05
1.56926e-05
1.53662e-05
1.50459e-05
1.47318e-05
1.44245e-05
1.4124e-05
1.38307e-05
1.35449e-05
1.32667e-05
1.29963e-05
1.2734e-05
1.24797e-05
1.22337e-05
1.19958e-05
1.17661e-05
1.15447e-05
1.13314e-05
1.11262e-05
1.09291e-05
1.07399e-05
1.05585e-05
1.03849e-05
1.02188e-05
1.00602e-05
9.9089e-06
9.7649e-06
9.62801e-06
9.49801e-06
9.3747e-06
9.25784e-06
9.14718e-06
9.04249e-06
8.94347e-06
8.84951e-06
8.76085e-06
8.67696e-06
8.59758e-06
8.52241e-06
8.45121e-06
8.38371e-06
8.31964e-06
8.25875e-06
8.20074e-06
8.14532e-06
8.09219e-06
8.04107e-06
7.99165e-06
7.94359e-06
7.89653e-06
7.85009e-06
7.80392e-06
7.75767e-06
7.71098e-06
7.66352e-06
7.61495e-06
7.56493e-06
7.51313e-06
7.45921e-06
7.40283e-06
7.34366e-06
7.28136e-06
7.21563e-06
7.14617e-06
7.07269e-06
6.99487e-06
6.9124e-06
6.82496e-06
6.73227e-06
6.63411e-06
6.5303e-06
6.42072e-06
6.30535e-06
6.18582e-06
6.06091e-06
5.93021e-06
5.79366e-06
5.65131e-06
5.50325e-06
5.34961e-06
5.19057e-06
5.02634e-06
4.85717e-06
4.68332e-06
4.50515e-06
4.323e-06
4.13729e-06
3.94843e-06
3.75686e-06
3.56306e-06
3.36752e-06
3.17072e-06
2.97313e-06
2.77519e-06
2.57734e-06
2.37986e-06
2.18245e-06
1.98596e-06
1.79099e-06
1.5964e-06
1.40218e-06
1.20729e-06
1.01103e-06
8.15052e-07
6.1293e-07
4.01436e-07
1.89281e-07
3.62148e-08
6.42635e-07
1.82051e-05
3.51862e-05
4.67744e-05
5.56181e-05
6.28502e-05
6.90813e-05
7.46191e-05
7.96455e-05
8.42793e-05
8.85979e-05
9.2654e-05
9.64867e-05
0.000100126
0.000103593
0.000106909
0.000110086
0.000113136
0.00011607
0.000118895
0.000121619
0.000124246
0.000126782
0.000129231
0.000131596
0.00013388
0.000136086
0.000138215
0.000140269
0.00014225
0.000144158
0.000145995
0.00014776
0.000149455
0.00015108
0.000152634
0.000154119
0.000155533
0.000156877
0.00015815
0.000159352
0.000160483
0.000161543
0.00016253
0.000163445
0.000164288
0.000165058
0.000165755
0.000166379
0.000166929
0.000167407
0.000167811
0.000168142
0.000168401
0.000168587
0.000168702
0.000168745
0.000168718
0.000168621
0.000168455
0.00016822
0.000167915
0.000167538
0.000167089
0.000166577
0.000166004
0.000165372
0.000164684
0.000163942
0.000163148
0.000162304
0.000161412
0.000160475
0.000159496
0.000158475
0.000157416
0.000156322
0.000155194
0.000154036
0.000152849
0.000151636
0.0001504
0.000149143
0.000147868
0.000146578
0.000145274
0.000143959
0.000142636
0.000141307
0.000139974
0.000138639
0.000137306
0.000135975
0.000134649
0.00013333
0.000132021
0.000130722
0.000129436
0.000128165
0.00012691
0.000125672
0.000124454
0.000123256
0.00012208
0.000120927
0.000119799
0.000118696
0.000117619
0.000116569
0.000115546
0.000114552
0.000113587
0.000112651
0.000111745
0.000110868
0.000110021
0.000109204
0.000108416
0.000107658
0.00010693
0.00010623
0.000105559
0.000104916
0.000104301
0.000103712
0.00010315
0.000102612
0.000102098
0.000101607
0.000101137
0.000100687
0.000100257
9.98437e-05
9.94472e-05
9.90654e-05
9.8697e-05
9.83402e-05
9.79936e-05
9.76555e-05
9.7324e-05
9.69976e-05
9.66742e-05
9.63522e-05
9.60296e-05
9.57045e-05
9.5375e-05
9.5039e-05
9.46946e-05
9.43397e-05
9.39724e-05
9.35906e-05
9.31922e-05
9.27752e-05
9.23375e-05
9.18771e-05
9.13919e-05
9.088e-05
9.03394e-05
8.97682e-05
8.91645e-05
8.85262e-05
8.78516e-05
8.71387e-05
8.63849e-05
8.55855e-05
8.47275e-05
8.38219e-05
8.2868e-05
8.18652e-05
8.08129e-05
7.97101e-05
7.85563e-05
7.73505e-05
7.60921e-05
7.47805e-05
7.34151e-05
7.19955e-05
7.0521e-05
6.89912e-05
6.74055e-05
6.5763e-05
6.40624e-05
6.23022e-05
6.04804e-05
5.85947e-05
5.66417e-05
5.4617e-05
5.25144e-05
5.03271e-05
4.80403e-05
4.56288e-05
4.30604e-05
4.02899e-05
3.72306e-05
3.37204e-05
2.94777e-05
2.4298e-05
1.74957e-05
7.91808e-06
1.67303e-07
6.42623e-07
1.82082e-05
3.5191e-05
4.67789e-05
5.56217e-05
6.28533e-05
6.90839e-05
7.46211e-05
7.9647e-05
8.42805e-05
8.85992e-05
9.26556e-05
9.64889e-05
0.000100129
0.000103598
0.000106914
0.000110092
0.000113144
0.000116079
0.000118904
0.000121627
0.000124254
0.00012679
0.000129238
0.000131602
0.000133885
0.00013609
0.000138219
0.000140274
0.000142255
0.000144164
0.000146
0.000147766
0.000149462
0.000151086
0.000152641
0.000154126
0.00015554
0.000156883
0.000158157
0.000159359
0.00016049
0.000161549
0.000162536
0.000163451
0.000164294
0.000165064
0.000165761
0.000166384
0.000166935
0.000167412
0.000167816
0.000168148
0.000168406
0.000168593
0.000168707
0.000168751
0.000168724
0.000168627
0.000168461
0.000168226
0.000167921
0.000167544
0.000167096
0.000166583
0.00016601
0.000165378
0.00016469
0.000163948
0.000163153
0.000162309
0.000161417
0.00016048
0.0001595
0.00015848
0.000157421
0.000156326
0.000155198
0.00015404
0.000152853
0.00015164
0.000150404
0.000149147
0.000147872
0.000146582
0.000145278
0.000143963
0.00014264
0.000141311
0.000139978
0.000138644
0.00013731
0.000135979
0.000134654
0.000133335
0.000132026
0.000130727
0.000129442
0.00012817
0.000126915
0.000125677
0.000124459
0.000123261
0.000122085
0.000120932
0.000119803
0.000118699
0.000117622
0.000116572
0.000115549
0.000114555
0.000113589
0.000112653
0.000111746
0.000110869
0.000110022
0.000109205
0.000108417
0.000107659
0.000106931
0.000106231
0.00010556
0.000104917
0.000104302
0.000103713
0.000103151
0.000102613
0.000102099
0.000101608
0.000101138
0.000100688
0.000100257
9.9844e-05
9.94473e-05
9.90654e-05
9.86968e-05
9.834e-05
9.79933e-05
9.76552e-05
9.73238e-05
9.69974e-05
9.66741e-05
9.63522e-05
9.60297e-05
9.57046e-05
9.53751e-05
9.50391e-05
9.46946e-05
9.43398e-05
9.39725e-05
9.35906e-05
9.31921e-05
9.2775e-05
9.23372e-05
9.18767e-05
9.13915e-05
9.08797e-05
9.03392e-05
8.97681e-05
8.91644e-05
8.85262e-05
8.78516e-05
8.71388e-05
8.6385e-05
8.55855e-05
8.47262e-05
8.38194e-05
8.28645e-05
8.18611e-05
8.08087e-05
7.97065e-05
7.85537e-05
7.73493e-05
7.60925e-05
7.47824e-05
7.34183e-05
7.19996e-05
7.05255e-05
6.89957e-05
6.74095e-05
6.5766e-05
6.40643e-05
6.2303e-05
6.04802e-05
5.85936e-05
5.66399e-05
5.46146e-05
5.25117e-05
5.03243e-05
4.80377e-05
4.56267e-05
4.30588e-05
4.02886e-05
3.72298e-05
3.37203e-05
2.94778e-05
2.42981e-05
1.74957e-05
7.91807e-06
1.67303e-07
1.35558e-06
3.42883e-05
7.24977e-05
0.00010093
0.0001228
0.000140495
0.000155407
0.000168358
0.000179859
0.000190244
0.000199741
0.00020851
0.000216671
0.000224312
0.000231501
0.000238293
0.00024473
0.000250847
0.000256674
0.000262233
0.000267545
0.000272627
0.000277493
0.000282154
0.000286622
0.000290905
0.000295012
0.000298948
0.000302721
0.000306334
0.000309792
0.0003131
0.000316261
0.000319277
0.000322151
0.000324885
0.000327482
0.000329943
0.000332269
0.000334463
0.000336524
0.000338455
0.000340255
0.000341926
0.000343469
0.000344885
0.000346174
0.000347336
0.000348374
0.000349287
0.000350077
0.000350744
0.000351289
0.000351713
0.000352018
0.000352204
0.000352273
0.000352225
0.000352063
0.000351786
0.000351394
0.000350889
0.000350266
0.000349528
0.000348683
0.000347736
0.000346692
0.000345554
0.000344325
0.00034301
0.00034161
0.000340131
0.000338574
0.000336943
0.000335243
0.000333476
0.000331647
0.000329758
0.000327814
0.000325819
0.000323776
0.00032169
0.000319564
0.000317402
0.000315208
0.000312986
0.00031074
0.000308473
0.000306191
0.000303895
0.000301591
0.000299281
0.00029697
0.000294661
0.000292357
0.000290062
0.000287779
0.000285512
0.000283263
0.000281035
0.000278831
0.000276654
0.000274507
0.000272391
0.000270309
0.000268263
0.000266256
0.000264288
0.000262362
0.000260478
0.000258639
0.000256845
0.000255097
0.000253396
0.000251742
0.000250135
0.000248577
0.000247067
0.000245604
0.000244189
0.000242821
0.0002415
0.000240224
0.000238993
0.000237806
0.000236659
0.000235552
0.000234483
0.00023345
0.000232451
0.000231483
0.000230545
0.000229635
0.000228749
0.000227885
0.00022704
0.000226212
0.000225397
0.000224593
0.000223796
0.000223003
0.000222211
0.000221417
0.000220616
0.000219806
0.000218983
0.000218144
0.000217285
0.000216402
0.000215491
0.00021455
0.000213574
0.00021256
0.000211505
0.000210404
0.000209254
0.000208053
0.000206796
0.00020548
0.000204102
0.000202658
0.000201146
0.000199561
0.000197898
0.000196151
0.000194309
0.000192374
0.000190347
0.000188229
0.000186017
0.00018371
0.000181307
0.000178805
0.000176202
0.000173496
0.000170683
0.000167762
0.000164728
0.000161578
0.000158307
0.000154909
0.000151378
0.000147705
0.000143881
0.000139893
0.000135727
0.000131362
0.000126773
0.000121925
0.00011677
0.000111235
0.000105217
9.85521e-05
9.09879e-05
8.21341e-05
7.13577e-05
5.78076e-05
4.00507e-05
1.67828e-05
3.62736e-07
1.35572e-06
3.42925e-05
7.25051e-05
0.000100939
0.00012281
0.000140504
0.000155416
0.000168368
0.000179868
0.000190252
0.000199749
0.000208519
0.00021668
0.000224321
0.00023151
0.000238302
0.00024474
0.000250858
0.000256685
0.000262245
0.000267557
0.000272639
0.000277504
0.000282165
0.000286633
0.000290916
0.000295022
0.000298959
0.000302731
0.000306344
0.000309803
0.000313111
0.000316271
0.000319287
0.000322161
0.000324896
0.000327493
0.000329953
0.00033228
0.000334473
0.000336534
0.000338465
0.000340265
0.000341936
0.000343479
0.000344895
0.000346183
0.000347346
0.000348383
0.000349297
0.000350086
0.000350753
0.000351298
0.000351722
0.000352027
0.000352213
0.000352282
0.000352235
0.000352072
0.000351795
0.000351404
0.000350898
0.000350276
0.000349538
0.000348693
0.000347746
0.000346701
0.000345563
0.000344334
0.000343019
0.000341619
0.000340139
0.000338582
0.000336952
0.000335251
0.000333484
0.000331655
0.000329766
0.000327822
0.000325826
0.000323784
0.000321697
0.000319571
0.000317409
0.000315214
0.000312992
0.000310746
0.00030848
0.000306197
0.000303901
0.000301596
0.000299287
0.000296975
0.000294666
0.000292362
0.000290067
0.000287785
0.000285517
0.000283268
0.00028104
0.000278836
0.000276659
0.000274511
0.000272395
0.000270313
0.000268267
0.000266259
0.000264291
0.000262365
0.000260481
0.000258642
0.000256847
0.000255099
0.000253398
0.000251743
0.000250137
0.000248578
0.000247068
0.000245605
0.00024419
0.000242822
0.0002415
0.000240225
0.000238994
0.000237806
0.00023666
0.000235553
0.000234484
0.000233451
0.000232451
0.000231484
0.000230546
0.000229635
0.000228749
0.000227884
0.00022704
0.000226211
0.000225396
0.000224592
0.000223795
0.000223002
0.00022221
0.000221416
0.000220615
0.000219805
0.000218982
0.000218143
0.000217284
0.0002164
0.00021549
0.000214549
0.000213573
0.000212559
0.000211503
0.000210402
0.000209253
0.000208051
0.000206794
0.000205478
0.0002041
0.000202657
0.000201144
0.000199559
0.000197897
0.00019615
0.000194307
0.000192371
0.000190344
0.000188225
0.000186013
0.000183707
0.000181304
0.000178803
0.0001762
0.000173495
0.000170683
0.000167763
0.000164729
0.000161579
0.000158308
0.00015491
0.000151378
0.000147705
0.000143881
0.000139893
0.000135726
0.000131361
0.000126771
0.000121924
0.000116769
0.000111233
0.000105216
9.85513e-05
9.09873e-05
8.21338e-05
7.13576e-05
5.78075e-05
4.00506e-05
1.67828e-05
3.62737e-07
2.07764e-06
4.54445e-05
9.99107e-05
0.000143773
0.000178913
0.000207879
0.00023243
0.000253729
0.000272557
0.000289454
0.000304801
0.000318877
0.000331887
0.00034399
0.000355308
0.000365939
0.00037596
0.000385433
0.000394411
0.000402936
0.000411045
0.000418767
0.000426128
0.000433151
0.000439854
0.000446253
0.000452363
0.000458197
0.000463765
0.000469076
0.00047414
0.000478963
0.000483553
0.000487915
0.000492055
0.000495977
0.000499687
0.000503188
0.000506484
0.000509578
0.000512473
0.000515173
0.00051768
0.000519996
0.000522125
0.000524069
0.000525829
0.000527408
0.000528809
0.000530033
0.000531083
0.000531961
0.000532669
0.000533208
0.000533582
0.000533792
0.000533841
0.00053373
0.000533461
0.000533036
0.000532456
0.000531722
0.000530834
0.000529795
0.00052861
0.000527288
0.000525833
0.00052425
0.000522545
0.000520721
0.000518783
0.000516736
0.000514584
0.000512332
0.000509983
0.000507544
0.000505019
0.000502412
0.000499729
0.000496975
0.000494154
0.000491272
0.000488335
0.000485346
0.000482311
0.000479237
0.000476126
0.000472985
0.000469819
0.000466633
0.000463432
0.000460221
0.000457004
0.000453787
0.000450574
0.000447369
0.000444177
0.000441003
0.00043785
0.000434723
0.000431625
0.00042856
0.000425531
0.000422542
0.000419595
0.000416694
0.000413841
0.000411038
0.000408288
0.000405593
0.000402954
0.000400373
0.00039785
0.000395388
0.000392985
0.000390644
0.000388364
0.000386145
0.000383987
0.00038189
0.000379852
0.000377874
0.000375954
0.000374089
0.000372278
0.000370518
0.000368807
0.000367142
0.000365521
0.000363941
0.0003624
0.000360893
0.000359418
0.000357971
0.000356549
0.000355148
0.000353763
0.000352391
0.000351027
0.000349667
0.000348307
0.000346943
0.000345569
0.000344181
0.000342774
0.000341344
0.000339885
0.000338393
0.000336863
0.000335291
0.00033367
0.000331997
0.000330268
0.000328476
0.000326618
0.000324689
0.000322684
0.0003206
0.000318432
0.000316176
0.000313827
0.00031138
0.000308832
0.000306176
0.000303405
0.000300511
0.000297492
0.000294346
0.000291073
0.00028767
0.000284135
0.000280463
0.000276653
0.000272698
0.000268595
0.000264338
0.000259919
0.000255332
0.000250567
0.000245615
0.000240462
0.000235094
0.000229494
0.000223641
0.000217508
0.000211064
0.000204268
0.000197068
0.000189393
0.00018115
0.000172206
0.000162376
0.000151388
0.00013885
0.000124181
0.000106519
8.46397e-05
5.70194e-05
2.32783e-05
5.70108e-07
2.07771e-06
4.54489e-05
9.99195e-05
0.000143784
0.000178927
0.000207894
0.000232445
0.000253744
0.000272573
0.000289469
0.000304816
0.000318891
0.000331902
0.000344005
0.000355323
0.000365954
0.000375975
0.000385448
0.000394426
0.000402951
0.00041106
0.000418782
0.000426143
0.000433166
0.000439869
0.000446268
0.000452378
0.000458212
0.000463779
0.000469091
0.000474154
0.000478978
0.000483567
0.000487929
0.000492069
0.000495992
0.000499701
0.000503202
0.000506498
0.000509592
0.000512487
0.000515187
0.000517693
0.00052001
0.000522138
0.000524082
0.000525842
0.000527421
0.000528822
0.000530046
0.000531096
0.000531974
0.000532681
0.000533221
0.000533595
0.000533805
0.000533853
0.000533742
0.000533473
0.000533048
0.000532468
0.000531734
0.000530846
0.000529806
0.000528622
0.000527299
0.000525844
0.000524262
0.000522556
0.000520732
0.000518794
0.000516747
0.000514594
0.000512341
0.000509993
0.000507554
0.000505028
0.000502421
0.000499738
0.000496983
0.000494163
0.000491281
0.000488343
0.000485354
0.000482319
0.000479244
0.000476133
0.000472992
0.000469826
0.00046664
0.000463439
0.000460227
0.00045701
0.000453793
0.000450579
0.000447374
0.000444183
0.000441008
0.000437855
0.000434728
0.000431629
0.000428564
0.000425535
0.000422545
0.000419599
0.000416697
0.000413844
0.000411041
0.000408291
0.000405596
0.000402957
0.000400375
0.000397852
0.000395389
0.000392987
0.000390645
0.000388365
0.000386146
0.000383988
0.00038189
0.000379853
0.000377874
0.000375954
0.000374089
0.000372278
0.000370518
0.000368806
0.000367142
0.000365521
0.000363941
0.000362399
0.000360892
0.000359417
0.00035797
0.000356548
0.000355146
0.000353761
0.000352389
0.000351025
0.000349665
0.000348305
0.000346941
0.000345567
0.000344178
0.000342772
0.000341341
0.000339882
0.000338391
0.000336861
0.000335288
0.000333667
0.000331995
0.000330265
0.000328473
0.000326615
0.000324686
0.000322681
0.000320597
0.000318429
0.000316173
0.000313824
0.000311377
0.000308829
0.000306173
0.000303402
0.000300508
0.000297488
0.000294343
0.00029107
0.000287667
0.000284131
0.00028046
0.00027665
0.000272696
0.000268593
0.000264336
0.000259918
0.000255331
0.000250566
0.000245614
0.000240461
0.000235093
0.000229493
0.00022364
0.000217507
0.000211063
0.000204267
0.000197067
0.000189392
0.000181149
0.000172205
0.000162375
0.000151388
0.00013885
0.00012418
0.000106519
8.46396e-05
5.70195e-05
2.32783e-05
5.70113e-07
2.79519e-06
5.41684e-05
0.000121154
0.000178005
0.000225115
0.000264733
0.000298687
0.000328301
0.000354528
0.000378055
0.000399389
0.000418907
0.000436898
0.000453585
0.000469142
0.000483711
0.000497402
0.000510309
0.000522506
0.000534056
0.000545013
0.00055542
0.000565316
0.000574733
0.000583699
0.000592238
0.00060037
0.000608115
0.000615489
0.000622505
0.000629177
0.000635516
0.000641531
0.000647233
0.000652629
0.000657728
0.000662535
0.000667058
0.000671303
0.000675275
0.00067898
0.000682422
0.000685607
0.000688538
0.000691221
0.00069366
0.000695857
0.000697819
0.000699548
0.000701048
0.000702322
0.000703375
0.00070421
0.000704831
0.00070524
0.000705442
0.00070544
0.000705236
0.000704834
0.000704237
0.000703447
0.000702467
0.000701299
0.000699946
0.000698415
0.000696714
0.000694848
0.000692824
0.000690647
0.000688324
0.00068586
0.00068326
0.000680531
0.000677677
0.000674706
0.000671621
0.000668431
0.000665139
0.000661754
0.00065828
0.000654723
0.000651091
0.00064739
0.000643625
0.000639802
0.000635929
0.000632012
0.000628057
0.000624069
0.000620056
0.000616023
0.000611976
0.000607922
0.000603865
0.000599813
0.000595769
0.000591741
0.000587732
0.000583748
0.000579794
0.000575874
0.000571994
0.000568156
0.000564365
0.000560624
0.000556938
0.000553308
0.000549738
0.000546231
0.000542788
0.000539412
0.000536104
0.000532865
0.000529697
0.0005266
0.000523575
0.000520621
0.000517738
0.000514927
0.000512186
0.000509515
0.000506911
0.000504374
0.000501899
0.000499485
0.000497129
0.000494828
0.000492578
0.000490376
0.000488219
0.000486104
0.000484025
0.000481979
0.000479962
0.000477968
0.000475993
0.000474033
0.000472082
0.000470135
0.000468187
0.000466232
0.000464265
0.00046228
0.000460272
0.000458234
0.000456162
0.000454049
0.000451889
0.000449677
0.000447407
0.000445074
0.000442671
0.000440193
0.000437635
0.000434991
0.000432256
0.000429425
0.000426493
0.000423455
0.000420306
0.00041704
0.000413653
0.000410139
0.000406492
0.000402705
0.000398771
0.000394686
0.000390446
0.000386048
0.000381489
0.000376765
0.00037187
0.000366799
0.000361544
0.000356098
0.000350452
0.000344594
0.000338512
0.000332192
0.000325617
0.000318767
0.000311617
0.000304141
0.000296304
0.000288066
0.000279376
0.000270172
0.000260372
0.000249873
0.000238535
0.000226171
0.000212522
0.000197231
0.000179797
0.000159522
0.000135433
0.000106223
7.04224e-05
2.85376e-05
7.81444e-07
2.79515e-06
5.41718e-05
0.000121164
0.000178018
0.000225131
0.000264751
0.000298706
0.000328321
0.000354548
0.000378075
0.000399409
0.000418927
0.000436918
0.000453605
0.000469162
0.000483731
0.000497422
0.000510328
0.000522525
0.000534076
0.000545032
0.00055544
0.000565336
0.000574752
0.000583718
0.000592257
0.000600389
0.000608134
0.000615508
0.000622524
0.000629196
0.000635534
0.00064155
0.000647251
0.000652647
0.000657746
0.000662553
0.000667076
0.000671321
0.000675292
0.000678997
0.000682439
0.000685624
0.000688555
0.000691238
0.000693676
0.000695874
0.000697835
0.000699564
0.000701064
0.000702338
0.000703391
0.000704226
0.000704846
0.000705256
0.000705457
0.000705455
0.000705251
0.000704849
0.000704252
0.000703462
0.000702481
0.000701313
0.00069996
0.000698429
0.000696727
0.000694861
0.000692836
0.00069066
0.000688336
0.000685872
0.000683272
0.000680542
0.000677689
0.000674717
0.000671632
0.000668441
0.00066515
0.000661764
0.000658289
0.000654733
0.000651101
0.000647399
0.000643633
0.000639811
0.000635938
0.00063202
0.000628064
0.000624077
0.000620063
0.00061603
0.000611983
0.000607928
0.000603872
0.000599819
0.000595775
0.000591746
0.000587737
0.000583753
0.000579799
0.000575879
0.000571998
0.00056816
0.000564369
0.000560628
0.000556941
0.000553312
0.000549742
0.000546234
0.000542791
0.000539415
0.000536107
0.000532868
0.000529699
0.000526602
0.000523576
0.000520622
0.00051774
0.000514928
0.000512187
0.000509515
0.000506912
0.000504374
0.000501899
0.000499485
0.000497129
0.000494827
0.000492577
0.000490376
0.000488219
0.000486103
0.000484024
0.000481978
0.00047996
0.000477966
0.000475992
0.000474031
0.00047208
0.000470133
0.000468185
0.00046623
0.000464262
0.000462277
0.000460269
0.000458231
0.000456159
0.000454045
0.000451886
0.000449674
0.000447404
0.00044507
0.000442667
0.000440189
0.000437631
0.000434987
0.000432252
0.000429421
0.000426489
0.000423451
0.000420302
0.000417036
0.000413649
0.000410135
0.000406488
0.000402701
0.000398767
0.000394682
0.000390442
0.000386044
0.000381486
0.000376761
0.000371867
0.000366796
0.000361541
0.000356095
0.000350449
0.000344591
0.00033851
0.00033219
0.000325615
0.000318765
0.000311615
0.000304139
0.000296302
0.000288064
0.000279375
0.00027017
0.000260371
0.000249872
0.000238534
0.00022617
0.000212521
0.00019723
0.000179797
0.000159522
0.000135433
0.000106223
7.04225e-05
2.85378e-05
7.81456e-07
3.51233e-06
6.1495e-05
0.000138605
0.000206382
0.000263976
0.000313237
0.000355916
0.00039339
0.000426703
0.000456641
0.000483802
0.000508642
0.000531519
0.000552711
0.000572441
0.000590887
0.000608196
0.000624486
0.000639856
0.000654388
0.000668151
0.000681204
0.000693597
0.000705373
0.000716567
0.000727212
0.000737336
0.000746962
0.000756113
0.000764806
0.00077306
0.000780888
0.000788304
0.000795321
0.000801949
0.0008082
0.000814082
0.000819605
0.000824776
0.000829604
0.000834095
0.000838258
0.000842098
0.000845622
0.000848837
0.000851747
0.00085436
0.000856681
0.000858715
0.000860469
0.000861946
0.000863153
0.000864094
0.000864774
0.0008652
0.000865374
0.000865302
0.000864989
0.000864438
0.000863655
0.000862643
0.000861406
0.000859949
0.000858276
0.000856394
0.000854311
0.000852035
0.000849571
0.000846928
0.000844113
0.000841131
0.000837991
0.000834698
0.000831259
0.000827683
0.000823974
0.000820141
0.00081619
0.000812129
0.000807966
0.000803706
0.000799358
0.000794929
0.000790426
0.000785856
0.000781228
0.000776549
0.000771825
0.000767064
0.000762274
0.000757461
0.000752632
0.000747795
0.000742955
0.000738121
0.000733297
0.000728491
0.000723709
0.000718955
0.000714237
0.000709559
0.000704926
0.000700343
0.000695814
0.000691345
0.000686937
0.000682596
0.000678324
0.000674123
0.000669997
0.000665947
0.000661975
0.000658083
0.000654271
0.000650539
0.000646889
0.00064332
0.000639831
0.000636422
0.000633091
0.000629838
0.00062666
0.000623553
0.000620516
0.000617545
0.000614636
0.000611785
0.00060899
0.000606245
0.000603547
0.000600891
0.000598272
0.000595685
0.000593125
0.000590586
0.000588063
0.00058555
0.000583041
0.000580531
0.000578012
0.000575479
0.000572926
0.000570345
0.000567731
0.000565077
0.000562376
0.000559622
0.000556808
0.000553928
0.000550975
0.000547943
0.000544826
0.000541617
0.00053831
0.000534901
0.000531381
0.000527747
0.000523993
0.000520112
0.000516099
0.00051195
0.000507658
0.000503217
0.000498621
0.000493863
0.000488936
0.000483834
0.000478554
0.000473089
0.000467435
0.000461584
0.000455532
0.000449268
0.000442783
0.000436066
0.000429103
0.000421881
0.00041438
0.000406581
0.000398459
0.000389987
0.000381132
0.000371855
0.00036211
0.000351842
0.000340982
0.000329447
0.000317129
0.000303893
0.000289559
0.000273892
0.000256579
0.000237193
0.000215161
0.00018971
0.000159815
0.000124184
8.15265e-05
3.30578e-05
9.96365e-07
3.51218e-06
6.14983e-05
0.000138615
0.000206396
0.000263994
0.000313257
0.000355937
0.000393413
0.000426727
0.000456665
0.000483826
0.000508667
0.000531543
0.000552735
0.000572465
0.000590912
0.00060822
0.00062451
0.00063988
0.000654412
0.000668175
0.000681228
0.000693621
0.000705396
0.00071659
0.000727235
0.000737359
0.000746985
0.000756136
0.000764829
0.000773082
0.00078091
0.000788326
0.000795343
0.000801971
0.000808222
0.000814104
0.000819626
0.000824797
0.000829625
0.000834116
0.000838278
0.000842118
0.000845642
0.000848856
0.000851767
0.00085438
0.0008567
0.000858734
0.000860487
0.000861964
0.000863171
0.000864112
0.000864792
0.000865217
0.000865391
0.000865319
0.000865005
0.000864455
0.000863671
0.000862659
0.000861422
0.000859965
0.000858291
0.000856409
0.000854326
0.000852049
0.000849586
0.000846942
0.000844127
0.000841145
0.000838004
0.000834711
0.000831272
0.000827695
0.000823986
0.000820153
0.000816202
0.000812141
0.000807976
0.000803717
0.000799368
0.000794939
0.000790436
0.000785866
0.000781238
0.000776558
0.000771834
0.000767073
0.000762282
0.000757469
0.00075264
0.000747802
0.000742963
0.000738128
0.000733304
0.000728498
0.000723715
0.000718962
0.000714243
0.000709565
0.000704931
0.000700348
0.000695819
0.000691349
0.000686942
0.0006826
0.000678328
0.000674127
0.000670001
0.000665951
0.000661979
0.000658086
0.000654273
0.000650542
0.000646891
0.000643322
0.000639833
0.000636424
0.000633093
0.00062984
0.000626661
0.000623555
0.000620517
0.000617545
0.000614636
0.000611786
0.00060899
0.000606245
0.000603547
0.000600891
0.000598271
0.000595684
0.000593124
0.000590585
0.000588062
0.000585549
0.00058304
0.000580529
0.00057801
0.000575477
0.000572923
0.000570343
0.000567728
0.000565074
0.000562373
0.000559619
0.000556805
0.000553924
0.000550971
0.000547939
0.000544822
0.000541613
0.000538307
0.000534897
0.000531378
0.000527743
0.000523989
0.000520108
0.000516095
0.000511946
0.000507654
0.000503213
0.000498617
0.000493859
0.000488932
0.000483831
0.00047855
0.000473085
0.000467431
0.000461581
0.000455528
0.000449264
0.00044278
0.000436063
0.000429101
0.000421878
0.000414377
0.000406578
0.000398457
0.000389985
0.00038113
0.000371853
0.000362108
0.00035184
0.000340981
0.000329446
0.000317128
0.000303892
0.000289558
0.000273892
0.000256578
0.000237193
0.000215161
0.00018971
0.000159815
0.000124184
8.15267e-05
3.30578e-05
9.96393e-07
4.2352e-06
6.79769e-05
0.000153598
0.000230704
0.000297462
0.000355333
0.000405944
0.000450667
0.000490587
0.000526554
0.000559228
0.00058913
0.000616669
0.000642171
0.000665901
0.000688071
0.000708857
0.000728402
0.000746827
0.000764232
0.000780702
0.000796308
0.000811111
0.000825164
0.000838512
0.000851194
0.000863244
0.000874691
0.000885562
0.000895881
0.000905667
0.000914939
0.000923714
0.000932007
0.000939832
0.000947201
0.000954127
0.00096062
0.00096669
0.000972348
0.000977602
0.000982462
0.000986936
0.000991032
0.000994759
0.000998124
0.00100113
0.0010038
0.00100612
0.00100811
0.00100978
0.00101112
0.00101216
0.00101288
0.00101331
0.00101345
0.0010133
0.00101286
0.00101216
0.00101118
0.00100994
0.00100844
0.00100669
0.0010047
0.00100246