/*--------------------------------*- C++ -*----------------------------------*\
  =========                 |
  \\      /  F ield         | OpenFOAM: The Open Source CFD Toolbox
   \\    /   O peration     | Website:  https://openfoam.org
    \\  /    A nd           | Version:  8
     \\/     M anipulation  |
\*---------------------------------------------------------------------------*/
FoamFile
{
    version     2.0;
    format      ascii;
    class       volScalarField;
    location    "2200";
    object      epsilon;
}
// * * * * * * * * * * * * * * * * * * * * * * * * * * * * * * * * * * * * * //

dimensions      [0 2 -3 0 0 0 0];

internalField   nonuniform List<scalar> 
46000
(
2.51301
11.51
23.7569
35.7759
47.3736
58.6565
69.6825
80.5112
91.2082
101.782
112.247
122.624
132.923
143.147
153.298
163.375
173.376
183.297
193.134
202.882
212.534
222.084
231.523
240.844
250.037
259.095
268.006
276.761
285.35
293.761
301.984
310.006
317.816
325.401
332.75
339.851
346.692
353.26
359.545
365.534
371.216
376.581
381.62
386.323
390.681
394.687
398.333
401.614
404.525
407.061
409.221
411.001
412.402
413.425
414.07
414.34
414.24
413.774
412.948
411.77
410.249
408.397
406.244
403.811
401.079
398.056
394.753
391.186
387.366
383.311
379.034
374.55
369.877
365.028
360.021
354.871
349.593
344.204
338.718
333.15
327.516
321.829
316.104
310.355
304.595
298.836
293.091
287.372
281.689
276.053
270.474
264.96
259.521
254.163
248.895
243.723
238.652
233.69
228.839
224.106
219.494
215.006
210.645
206.412
202.309
198.339
194.501
190.795
187.223
183.782
180.474
177.296
174.247
171.326
168.531
165.859
163.309
160.877
158.56
156.357
154.262
152.274
150.389
148.603
146.913
145.315
143.801
142.373
141.024
139.75
138.546
137.406
136.328
135.306
134.335
133.411
132.528
131.681
130.866
130.076
129.308
128.555
127.813
127.074
126.336
125.59
124.833
124.058
123.26
122.433
121.571
120.669
119.722
118.723
117.669
116.552
115.369
114.114
112.784
111.373
109.879
108.297
106.624
104.857
102.995
101.063
99.0433
96.9282
94.7165
92.4088
90.0068
87.5127
84.9294
82.2602
79.5093
76.6813
73.7819
70.8171
67.7933
64.7171
61.5955
58.4359
55.2463
52.0344
48.8078
45.5734
42.3378
39.1065
35.8767
32.6566
29.4602
26.2681
23.0809
19.881
16.6551
13.4325
10.1071
6.62442
3.12572
0.664245
2.5123
11.5063
23.7534
35.7747
47.3745
58.6577
69.6835
80.5118
91.2082
101.781
112.245
122.623
132.921
143.146
153.297
163.374
173.376
183.298
193.136
202.885
212.538
222.089
231.529
240.85
250.045
259.103
268.015
276.771
285.36
293.771
301.992
310.013
317.822
325.405
332.753
339.852
346.691
353.258
359.54
365.528
371.209
376.573
381.611
386.313
390.671
394.677
398.323
401.604
404.515
407.051
409.211
410.992
412.394
413.417
414.062
414.333
414.233
413.768
412.943
411.766
410.245
408.394
406.24
403.808
401.077
398.055
394.754
391.187
387.369
383.314
379.037
374.555
369.882
365.035
360.028
354.879
349.602
344.212
338.726
333.159
327.524
321.837
316.111
310.361
304.6
298.84
293.094
287.374
281.69
276.053
270.472
264.957
259.516
254.158
248.888
243.715
238.643
233.68
228.829
224.096
219.484
214.997
210.636
206.404
202.303
198.334
194.497
190.792
187.221
183.781
180.473
177.296
174.247
171.327
168.531
165.86
163.309
160.877
158.56
156.356
154.262
152.273
150.388
148.603
146.913
145.316
143.803
142.376
141.028
139.754
138.55
137.412
136.333
135.311
134.34
133.416
132.532
131.685
130.869
130.079
129.31
128.557
127.813
127.075
126.336
125.59
124.832
124.057
123.259
122.432
121.57
120.669
119.721
118.723
117.668
116.552
115.368
114.114
112.783
111.372
109.878
108.295
106.622
104.855
102.993
101.062
99.0417
96.9264
94.7146
92.407
90.0052
87.5113
84.9282
82.2593
79.5086
76.681
73.7822
70.8181
67.7948
64.7189
61.5976
58.4385
55.2493
52.0378
48.8111
45.5765
42.3405
39.109
35.8788
32.6581
29.461
26.2685
23.0812
19.8811
16.6551
13.4323
10.107
6.62441
3.12566
0.664218
12.5107
10.7026
14.547
18.9892
23.5542
28.1528
32.758
37.3561
41.9542
46.5533
51.1542
55.7591
60.3682
64.9809
69.5956
74.2102
78.822
83.4279
88.0243
92.6072
97.1725
101.715
106.231
110.714
115.158
119.558
123.909
128.202
132.433
136.593
140.676
144.675
148.581
152.389
156.09
159.676
163.139
166.473
169.67
172.723
175.624
178.367
180.945
183.354
185.586
187.637
189.503
191.178
192.661
193.948
195.037
195.927
196.617
197.108
197.399
197.493
197.39
197.096
196.612
195.944
195.097
194.079
192.903
191.577
190.099
188.471
186.7
184.793
182.758
180.604
178.339
175.971
173.51
170.964
168.341
165.651
162.903
160.103
157.262
154.387
151.485
148.566
145.635
142.701
139.77
136.849
133.944
131.061
128.205
125.381
122.594
119.849
117.149
114.498
111.9
109.357
106.872
104.448
102.086
99.7881
97.5561
95.3911
93.2938
91.265
89.305
87.4139
85.5915
83.8378
82.1523
80.5346
78.984
77.4994
76.08
74.7245
73.4317
72.2003
71.029
69.9162
68.8604
67.8598
66.9129
66.0177
65.1725
64.375
63.6243
62.919
62.256
61.6339
61.0503
60.5029
59.9896
59.5082
59.0564
58.6321
58.233
57.8569
57.5014
57.1641
56.8428
56.5351
56.2385
55.9506
55.6688
55.3907
55.1136
54.8351
54.5525
54.2632
53.9645
53.6539
53.3286
52.986
52.6235
52.2386
51.8284
51.3907
50.923
50.4229
49.8882
49.3168
48.7067
48.0561
47.3635
46.6281
45.8504
45.0358
44.1791
43.278
42.3314
41.3393
40.3021
39.2205
38.0958
36.9296
35.7236
34.4801
33.2017
31.8913
30.5517
29.1863
27.7984
26.3919
24.9705
23.5382
22.0984
20.6547
19.2105
17.7687
16.3311
14.9006
13.4794
12.0636
10.6634
9.27777
7.9096
6.56935
5.24238
3.94708
2.83446
3.32197
12.514
10.7022
14.5458
18.9879
23.553
28.1516
32.7568
37.3552
41.9535
46.5525
51.1534
55.7579
60.3665
64.9784
69.5922
74.2057
78.8165
83.4214
88.017
92.5996
97.1649
101.708
106.224
110.707
115.153
119.554
123.904
128.198
132.428
136.587
140.67
144.668
148.574
152.381
156.081
159.667
163.13
166.464
169.661
172.713
175.614
178.357
180.936
183.344
185.577
187.628
189.493
191.169
192.652
193.939
195.028
195.918
196.609
197.099
197.39
197.484
197.381
197.087
196.603
195.934
195.087
194.07
192.894
191.568
190.089
188.461
186.69
184.784
182.749
180.595
178.33
175.963
173.502
170.956
168.334
165.644
162.895
160.097
157.255
154.38
151.479
148.56
145.63
142.696
139.765
136.844
133.939
131.055
128.199
125.375
122.588
119.843
117.143
114.492
111.894
109.351
106.866
104.442
102.08
99.7822
97.5505
95.3857
93.2887
91.2601
89.3002
87.4092
85.5871
83.8336
82.1483
80.5308
78.9804
77.4962
76.0771
74.722
73.4296
72.1987
71.0278
69.9154
68.8599
67.8594
66.9124
66.017
65.1715
64.3737
63.6227
62.9169
62.2537
61.6314
61.0478
60.5005
59.9874
59.5062
59.0548
58.6308
58.2321
57.8562
57.5009
57.1638
56.8426
56.5349
56.2383
55.9502
55.6683
55.39
55.1128
54.8342
54.5517
54.2625
53.9639
53.6534
53.3282
52.9857
52.6233
52.2383
51.8282
51.3905
50.9227
50.4225
49.8876
49.316
48.7057
48.0552
47.3628
46.6277
45.8503
45.0363
44.1802
43.2796
42.3333
41.3412
40.3036
39.2214
38.096
36.9289
35.7222
34.4782
33.1996
31.8891
30.5497
29.1846
27.7972
26.3912
24.9705
23.5385
22.099
20.6555
19.2115
17.7697
16.332
14.9014
13.48
12.064
10.6637
9.27794
7.9096
6.56935
5.24244
3.94709
2.83444
3.32196
25.9222
15.2214
15.9353
18.2128
20.9594
23.912
26.9764
30.1099
33.2925
36.5128
39.7637
43.0407
46.34
49.6584
52.9927
56.3398
59.6965
63.0596
66.4255
69.7908
73.1516
76.504
79.8437
83.1664
86.4675
89.7422
92.9856
96.1925
99.3574
102.475
105.539
108.544
111.485
114.354
117.146
119.855
122.474
124.998
127.421
129.736
131.938
134.021
135.98
137.811
139.509
141.069
142.488
143.762
144.889
145.866
146.692
147.365
147.884
148.249
148.462
148.522
148.431
148.192
147.808
147.282
146.618
145.823
144.902
143.861
142.702
141.429
140.046
138.56
136.976
135.3
133.54
131.702
129.792
127.819
125.787
123.705
121.579
119.416
117.221
115.002
112.765
110.516
108.26
106.003
103.751
101.507
99.2784
97.0678
94.8801
92.719
90.5882
88.4911
86.4306
84.4096
82.4306
80.4957
78.607
76.7661
74.9746
73.2338
71.5446
69.9079
68.3243
66.7941
65.3176
63.8949
62.5258
61.2102
59.9476
58.7376
57.5795
56.4726
55.4161
54.4091
53.4506
52.5396
51.6748
50.8553
50.0797
49.3466
48.6549
48.0031
47.3897
46.8141
46.2747
45.7699
45.2982
44.858
44.4476
44.0654
43.7097
43.379
43.0715
42.7857
42.5197
42.272
42.0407
41.8241
41.6205
41.4281
41.245
41.0693
40.8993
40.7329
40.5682
40.4033
40.2363
40.065
39.8874
39.7016
39.5054
39.2968
39.0737
38.8341
38.576
38.2973
37.9961
37.6706
37.3189
36.9392
36.53
36.0899
35.6177
35.1125
34.5743
34.0036
33.3994
32.7602
32.0853
31.3745
30.6279
29.846
29.0296
28.1798
27.2981
26.3861
25.4457
24.4793
23.4892
22.478
21.4484
20.4036
19.3465
18.2802
17.2078
16.1324
15.057
13.9846
12.918
11.8601
10.814
9.78241
8.77071
7.78359
6.83158
5.9295
5.1004
4.41557
4.19324
7.10221
25.9236
15.2202
15.9338
18.2111
20.9576
23.9101
26.9745
30.1079
33.2905
36.5107
39.7616
43.0385
46.3377
49.6559
52.9899
56.3368
59.6932
63.056
66.4218
69.7868
73.1475
76.4997
79.8393
83.1619
86.463
89.7377
92.981
96.1878
99.3526
102.47
105.534
108.539
111.479
114.349
117.141
119.849
122.469
124.993
127.415
129.73
131.932
134.015
135.974
137.805
139.503
141.063
142.482
143.756
144.883
145.86
146.685
147.358
147.877
148.243
148.455
148.515
148.425
148.186
147.802
147.275
146.612
145.816
144.895
143.854
142.695
141.422
140.04
138.554
136.97
135.294
133.534
131.696
129.787
127.813
125.782
123.7
121.574
119.411
117.216
114.998
112.761
110.512
108.256
105.999
103.747
101.504
99.2746
97.0641
94.8765
92.7155
90.5849
88.4878
86.4275
84.4066
82.4276
80.4928
78.6041
76.7634
74.9719
73.2312
71.5421
69.9055
68.3219
66.7919
65.3155
63.8929
62.5239
61.2083
59.9458
58.7359
57.5778
56.4711
55.4147
54.4077
53.4493
52.5384
51.6738
50.8543
50.0788
49.3458
48.6542
48.0023
47.389
46.8133
46.2739
45.7691
45.2974
44.8571
44.4467
44.0646
43.7089
43.3783
43.0709
42.7851
42.5192
42.2715
42.0403
41.8238
41.6202
41.4279
41.2448
41.0691
40.8991
40.7326
40.568
40.4031
40.2361
40.0648
39.8873
39.7015
39.5054
39.2968
39.0737
38.8341
38.576
38.2974
37.9962
37.6707
37.3189
36.9392
36.5301
36.09
35.6178
35.1126
34.5744
34.0038
33.3997
32.7606
32.0858
31.375
30.6283
29.8463
29.0298
28.1799
27.2981
26.386
25.4456
24.4791
23.489
22.4777
21.4483
20.4035
19.3464
18.2802
17.2078
16.1324
15.0571
13.9848
12.9181
11.8602
10.8141
9.78249
8.77078
7.78363
6.8316
5.92951
5.10038
4.41555
4.19331
7.10226
39.3032
20.2913
18.7486
19.7479
21.5309
23.6711
26.0105
28.4762
31.0298
33.649
36.3195
39.0319
41.779
44.5552
47.3558
50.1764
53.0132
55.8624
58.7202
61.5827
64.4463
67.307
70.1608
73.0034
75.8306
78.638
81.4209
84.1746
86.8942
89.5747
92.2109
94.7975
97.3293
99.8007
102.206
104.541
106.798
108.974
111.062
113.058
114.956
116.751
118.44
120.017
121.478
122.821
124.04
125.135
126.101
126.937
127.642
128.214
128.652
128.957
129.128
129.167
129.075
128.854
128.507
128.036
127.445
126.738
125.921
124.997
123.97
122.843
121.622
120.31
118.913
117.437
115.887
114.269
112.589
110.854
109.068
107.239
105.372
103.472
101.546
99.5984
97.6357
95.6627
93.6844
91.7058
89.7314
87.7657
85.8129
83.8768
81.9611
80.0693
78.2045
76.3697
74.5675
72.8003
71.0703
69.3795
67.7296
66.1221
64.5582
63.0392
61.5658
60.1387
58.7586
57.4256
56.1401
54.902
53.7113
52.5678
51.4711
50.4208
49.4163
48.457
47.5422
46.6711
45.8428
45.0564
44.3109
43.6052
42.9384
42.3092
41.7166
41.1594
40.6368
40.1476
39.6904
39.264
38.8669
38.4977
38.1552
37.8378
37.5442
37.273
37.0227
36.7918
36.579
36.3826
36.2013
36.0335
35.8776
35.7321
35.5954
35.4658
35.3418
35.2215
35.1034
34.9858
34.8667
34.7446
34.6175
34.4837
34.3413
34.1885
34.0234
33.8443
33.6493
33.4365
33.2043
32.951
32.6748
32.3743
32.0479
31.6944
31.3127
30.9019
30.4615
29.9912
29.4904
28.9582
28.394
27.7978
27.1695
26.5096
25.8187
25.0977
24.3479
23.5707
22.7678
21.9411
21.0926
20.2248
19.3401
18.4411
17.5305
16.6113
15.6862
14.7583
13.8306
12.9064
11.9891
11.0822
10.19
9.31747
8.47145
7.6608
6.89923
6.20915
5.63587
5.30443
5.73262
11.0632
39.3042
20.2895
18.7468
19.7461
21.529
23.6691
26.0085
28.4741
31.0277
33.6468
36.3173
39.0296
41.7766
44.5527
47.3532
50.1737
53.0104
55.8595
58.7171
61.5796
64.4431
67.3037
70.1573
72.9998
75.827
78.6343
81.4171
84.1707
86.8903
89.5707
92.2068
94.7933
97.325
99.7963
102.202
104.536
106.794
108.97
111.058
113.053
114.951
116.747
118.435
120.012
121.473
122.816
124.035
125.13
126.096
126.932
127.637
128.209
128.647
128.952
129.123
129.162
129.07
128.849
128.502
128.031
127.44
126.734
125.916
124.992
123.965
122.839
121.617
120.305
118.909
117.432
115.883
114.265
112.586
110.85
109.065
107.235
105.368
103.468
101.542
99.5951
97.6325
95.6596
93.6814
91.7029
89.7286
87.763
85.8103
83.8743
81.9587
80.0669
78.2022
76.3675
74.5654
72.7983
71.0683
69.3776
67.7278
66.1203
64.5566
63.0376
61.5642
60.1373
58.7572
57.4243
56.1388
54.9008
53.7102
52.5667
51.47
50.4198
49.4153
48.4561
47.5413
46.6703
45.842
45.0556
44.3102
43.6046
42.9378
42.3087
41.716
41.1589
40.6363
40.1471
39.69
39.2636
38.8665
38.4973
38.1548
37.8375
37.5439
37.2727
37.0224
36.7916
36.5788
36.3824
36.2012
36.0334
35.8775
35.732
35.5953
35.4658
35.3417
35.2215
35.1034
34.9858
34.8668
34.7446
34.6176
34.4838
34.3414
34.1886
34.0236
33.8444
33.6494
33.4367
33.2045
32.9511
32.675
32.3744
32.0481
31.6946
31.3129
30.9021
30.4617
29.9914
29.4906
28.9584
28.3943
27.7981
27.1698
26.5098
25.8189
25.0979
24.3481
23.5709
22.7679
21.9411
21.0927
20.2249
19.3402
18.4411
17.5306
16.6113
15.6862
14.7583
13.8307
12.9065
11.9891
11.0822
10.19
9.3175
8.47148
7.66081
6.89925
6.20916
5.63588
5.30442
5.73267
11.0632
52.5039
25.5373
22.0427
22.0495
23.1497
24.7511
26.6338
28.6954
30.881
33.1581
35.5059
37.9103
40.3608
42.8497
45.3705
47.9176
50.4861
53.0715
55.6695
58.276
60.8868
63.4977
66.1047
68.7034
71.2895
73.8585
76.4061
78.9274
81.4178
83.8723
86.2861
88.6542
90.9714
93.2327
95.433
97.5671
99.63
101.617
103.522
105.342
107.071
108.706
110.241
111.673
112.999
114.214
115.317
116.304
117.173
117.923
118.551
119.057
119.44
119.701
119.84
119.857
119.754
119.532
119.195
118.744
118.182
117.515
116.744
115.876
114.912
113.856
112.713
111.488
110.185
108.808
107.365
105.859
104.296
102.682
101.022
99.3211
97.5856
95.8206
94.0312
92.2225
90.3995
88.5672
86.7301
84.8926
83.0592
81.2338
79.4204
77.6225
75.8435
74.0866
72.3548
70.6508
68.977
67.3356
65.7289
64.1584
62.6259
61.1328
59.6802
58.2692
56.9006
55.5751
54.2931
53.0551
51.8611
50.7113
49.6056
48.5438
47.5256
46.5506
45.6184
44.7282
43.8796
43.0717
42.3037
41.5749
40.8843
40.231
39.6139
39.0321
38.4848
37.971
37.4896
37.0395
36.6194
36.2282
35.8647
35.5274
35.2153
34.927
34.6612
34.4166
34.1918
33.9856
33.7966
33.6234
33.4646
33.3189
33.1847
33.0606
32.9451
32.8368
32.7341
32.6354
32.5392
32.4438
32.3476
32.2489
32.1461
32.0374
31.9212
31.7957
31.6591
31.5099
31.3462
31.1665
30.9689
30.752
30.5142
30.2541
29.9703
29.6615
29.3266
28.9649
28.5756
28.1582
27.7122
27.2369
26.732
26.1972
25.6327
25.0388
24.416
23.7653
23.0876
22.3842
21.6567
20.9067
20.1361
19.3471
18.5417
17.7225
16.8919
16.0526
15.2074
14.3594
13.5115
12.6674
11.8309
11.0064
10.1991
9.41577
8.66497
7.9588
7.31556
6.76636
6.3749
6.31501
7.31119
15.075
52.5054
25.5357
22.0408
22.0476
23.1478
24.7491
26.6317
28.6933
30.8788
33.1559
35.5036
37.908
40.3585
42.8473
45.368
47.915
50.4834
53.0688
55.6668
58.2732
60.8839
63.4947
66.1016
68.7002
71.2862
73.8553
76.4027
78.924
81.4143
83.8688
86.2825
88.6505
90.9677
93.2289
95.4292
97.5632
99.6261
101.613
103.518
105.338
107.067
108.702
110.237
111.669
112.995
114.21
115.313
116.3
117.169
117.918
118.547
119.053
119.436
119.697
119.836
119.853
119.75
119.528
119.191
118.74
118.179
117.511
116.741
115.872
114.908
113.852
112.71
111.484
110.181
108.805
107.361
105.856
104.293
102.679
101.019
99.3183
97.5829
95.8179
94.0286
92.22
90.3971
88.5648
86.7278
84.8904
83.0571
81.2318
79.4184
77.6206
75.8417
74.0849
72.3531
70.6491
68.9754
67.3341
65.7274
64.157
62.6246
61.1315
59.679
58.268
56.8995
55.574
54.2921
53.0541
51.8602
50.7104
49.6048
48.543
47.5248
46.5499
45.6176
44.7275
43.8789
43.071
42.3031
41.5743
40.8838
40.2305
39.6135
39.0317
38.4844
37.9706
37.4892
37.0391
36.6191
36.2279
35.8644
35.5272
35.2151
34.9268
34.661
34.4164
34.1917
33.9855
33.7965
33.6233
33.4645
33.3188
33.1846
33.0606
32.9451
32.8368
32.7341
32.6355
32.5392
32.4438
32.3476
32.249
32.1462
32.0375
31.9213
31.7958
31.6593
31.5101
31.3464
31.1666
30.9691
30.7522
30.5144
30.2543
29.9705
29.6617
29.3268
28.9651
28.5758
28.1584
27.7124
27.2371
26.7322
26.1974
25.6329
25.039
24.4162
23.7655
23.0878
22.3844
21.6568
20.9068
20.1362
19.3472
18.5418
17.7226
16.892
16.0527
15.2075
14.3594
13.5116
12.6675
11.8309
11.0064
10.1992
9.41578
8.66499
7.95882
7.31557
6.76636
6.3749
6.315
7.31116
15.075
65.6371
30.9232
25.6159
24.7656
25.315
26.5067
28.0591
29.8411
31.7818
33.8392
35.9862
38.2041
40.4797
42.8025
45.1645
47.5588
49.9794
52.4209
54.8784
57.3471
59.8225
62.3
64.7751
67.2433
69.7002
72.141
74.5612
76.9561
79.3207
81.6504
83.9401
86.185
88.38
90.5204
92.601
94.6171
96.5638
98.4363
100.23
101.941
103.564
105.096
106.532
107.869
109.104
110.234
111.255
112.167
112.966
113.651
114.221
114.676
115.014
115.236
115.342
115.333
115.211
114.978
114.634
114.184
113.63
112.975
112.222
111.377
110.441
109.419
108.315
107.132
105.877
104.553
103.165
101.718
100.217
98.6683
97.076
95.4454
93.7817
92.0899
90.375
88.6417
86.8948
85.1389
83.3784
81.6174
79.8602
78.1104
76.3718
74.6478
72.9417
71.2565
69.595
67.9597
66.3531
64.7773
63.2342
61.7257
60.2533
58.8183
57.4219
56.065
54.7486
53.4733
52.2395
51.0476
49.8978
48.7903
47.7249
46.7015
45.7199
44.7796
43.8803
43.0215
42.2024
41.4224
40.6809
39.977
39.3098
38.6785
38.0822
37.5201
36.9914
36.4951
36.0301
35.5954
35.1897
34.8119
34.4609
34.1356
33.8345
33.5567
33.3008
33.0656
32.8498
32.6521
32.4714
32.3061
32.1551
32.017
31.8904
31.7738
31.6659
31.5653
31.4704
31.3797
31.2918
31.2051
31.118
31.0289
30.9362
30.8383
30.7335
30.6202
30.4968
30.3616
30.213
30.0494
29.8692
29.671
29.4532
29.2144
28.9535
28.6693
28.3606
28.0266
27.6667
27.2803
26.8668
26.4257
25.9568
25.4598
24.935
24.3825
23.803
23.1971
22.5658
21.9103
21.2317
20.5318
19.812
19.0744
18.3209
17.5537
16.775
15.9875
15.1938
14.3968
13.6
12.8069
12.0219
11.2501
10.4978
9.77287
9.08597
8.45209
7.89424
7.45235
7.20893
7.38612
8.91393
19.144
65.6396
30.9219
25.614
24.7636
25.313
26.5046
28.057
29.8389
31.7796
33.837
35.9839
38.2018
40.4773
42.8002
45.1621
47.5563
49.9768
52.4183
54.8757
57.3444
59.8197
62.2971
64.7722
67.2404
69.6972
72.138
74.5581
76.9529
79.3175
81.6471
83.9368
86.1816
88.3766
90.5169
92.5975
94.6136
96.5602
98.4328
100.227
101.937
103.56
105.092
106.528
107.865
109.1
110.23
111.252
112.163
112.962
113.647
114.218
114.672
115.01
115.232
115.338
115.33
115.208
114.974
114.631
114.181
113.626
112.971
112.219
111.374
110.438
109.416
108.312
107.13
105.874
104.55
103.162
101.715
100.215
98.6659
97.0736
95.4431
93.7794
92.0877
90.3728
88.6396
86.8928
85.137
83.3765
81.6156
79.8584
78.1087
76.3702
74.6462
72.9402
71.255
69.5935
67.9583
66.3517
64.776
63.233
61.7245
60.2522
58.8172
57.4208
56.0641
54.7477
53.4724
52.2386
51.0468
49.8971
48.7895
47.7242
46.7008
45.7192
44.779
43.8797
43.0209
42.2018
41.4219
40.6804
39.9765
39.3094
38.6781
38.0818
37.5197
36.9911
36.4948
36.0298
35.5951
35.1894
34.8117
34.4607
34.1353
33.8343
33.5565
33.3006
33.0654
32.8496
32.652
32.4713
32.3061
32.1551
32.017
31.8903
31.7738
31.6659
31.5653
31.4704
31.3797
31.2918
31.2051
31.118
31.0289
30.9363
30.8384
30.7336
30.6204
30.497
30.3618
30.2132
30.0496
29.8694
29.6711
29.4533
29.2146
28.9537
28.6694
28.3608
28.0268
27.6669
27.2805
26.8669
26.4259
25.9569
25.46
24.9352
24.3827
23.8032
23.1973
22.566
21.9104
21.2318
20.5319
19.8121
19.0745
18.321
17.5537
16.7751
15.9875
15.1938
14.3969
13.6
12.807
12.022
11.2502
10.4978
9.77288
9.08597
8.4521
7.89425
7.45235
7.20892
7.38613
8.91385
19.1439
78.83
36.4721
29.4196
27.7848
27.8578
28.7136
30.0088
31.5833
33.3508
35.2597
37.2767
39.3792
41.5505
43.7782
46.0522
48.3644
50.7076
53.0754
55.4623
57.8627
60.2715
62.6838
65.0945
67.4989
69.892
72.269
74.6249
76.955
79.2542
81.5176
83.7402
85.9171
88.0433
90.1138
92.124
94.0689
95.944
97.7447
99.4665
101.105
102.657
104.118
105.485
106.754
107.923
108.988
109.948
110.8
111.543
112.174
112.695
113.103
113.399
113.583
113.655
113.617
113.469
113.215
112.855
112.392
111.829
111.17
110.418
109.575
108.646
107.635
106.544
105.379
104.144
102.843
101.481
100.062
98.5923
97.0756
95.5173
93.9222
92.2951
90.641
88.9644
87.2701
85.5625
83.846
82.1249
80.4031
78.6847
76.9733
75.2724
73.5854
71.9155
70.2654
68.638
67.0358
65.461
63.9159
62.4022
60.9219
59.4762
58.0667
56.6945
55.3605
54.0656
52.8104
51.5955
50.4212
49.2878
48.1953
47.1439
46.1333
45.1633
44.2336
43.3439
42.4935
41.682
40.9088
40.173
39.4741
38.8112
38.1834
37.59
37.0304
36.5037
36.0088
35.5446
35.1102
34.7044
34.3262
33.9744
33.6478
33.3454
33.0659
32.8082
32.571
32.3531
32.1532
31.9702
31.8027
31.6495
31.5091
31.3803
31.2617
31.152
31.0496
30.9532
30.8613
30.7724
30.6851
30.5977
30.5087
30.4167
30.3199
30.2168
30.1059
29.9855
29.8541
29.7101
29.5521
29.3784
29.1877
28.9786
28.7499
28.5002
28.2286
27.934
27.6156
27.2727
26.9049
26.5115
26.0921
25.6466
25.1748
24.6769
24.1531
23.6038
23.0297
22.4317
21.8107
21.1679
20.5047
19.8224
19.1227
18.4074
17.6785
16.938
16.1883
15.432
14.6721
13.9118
13.1553
12.407
11.6728
10.9598
10.2771
9.63738
9.05837
8.56785
8.21459
8.10038
8.49992
10.5535
23.2955
78.8326
36.4706
29.4176
27.7827
27.8557
28.7115
30.0067
31.5812
33.3486
35.2574
37.2745
39.3769
41.5482
43.7758
46.0498
48.3619
50.705
53.0729
55.4597
57.86
60.2688
62.681
65.0917
67.496
69.889
72.266
74.6219
76.952
79.2511
81.5145
83.7371
85.9139
88.04
90.1106
92.1207
94.0656
95.9407
97.7413
99.4632
101.102
102.654
104.115
105.482
106.751
107.92
108.985
109.945
110.797
111.539
112.171
112.692
113.1
113.396
113.579
113.652
113.614
113.466
113.212
112.852
112.389
111.827
111.167
110.415
109.572
108.644
107.632
106.542
105.377
104.142
102.841
101.478
100.06
98.59
97.0734
95.5152
93.9201
92.2931
90.639
88.9625
87.2683
85.5607
83.8443
82.1232
80.4015
78.6832
76.9718
75.271
73.584
71.9141
70.2641
68.6367
67.0345
65.4598
63.9147
62.4012
60.9208
59.4752
58.0658
56.6935
55.3596
54.0647
52.8096
51.5947
50.4204
49.287
48.1946
47.1432
46.1326
45.1627
44.233
43.3433
42.493
41.6815
40.9083
40.1726
39.4737
38.8107
38.183
37.5896
37.0301
36.5034
36.0084
35.5443
35.1099
34.7042
34.3259
33.9741
33.6476
33.3452
33.0657
32.808
32.5708
32.3529
32.1531
31.9701
31.8026
31.6494
31.509
31.3803
31.2617
31.1519
31.0496
30.9532
30.8613
30.7724
30.6851
30.5977
30.5088
30.4167
30.32
30.2169
30.106
29.9856
29.8542
29.7102
29.5522
29.3785
29.1878
28.9788
28.75
28.5004
28.2287
27.9341
27.6158
27.2729
26.905
26.5116
26.0923
25.6468
25.175
24.677
24.1532
23.6039
23.0298
22.4318
21.8108
21.168
20.5048
19.8225
19.1228
18.4075
17.6785
16.938
16.1883
15.432
14.6721
13.9119
13.1553
12.407
11.6728
10.9598
10.2771
9.63738
9.05837
8.56784
8.21459
8.10036
8.49994
10.5534
23.2957
92.2183
42.215
33.4507
31.0725
30.7144
31.2817
32.3674
33.7822
35.424
37.232
39.1667
41.2013
43.3162
45.4964
47.7303
50.0081
52.3215
54.6632
57.0267
59.4058
61.7947
64.1877
66.5796
68.9648
71.3383
73.6947
76.0288
78.3354
80.6094
82.8457
85.039
87.1843
89.2766
91.3111
93.2828
95.1872
97.0195
98.7755
100.451
102.042
103.544
104.955
106.271
107.488
108.605
109.619
110.527
111.329
112.023
112.607
113.081
113.445
113.699
113.844
113.879
113.806
113.628
113.345
112.959
112.474
111.892
111.216
110.45
109.596
108.659
107.641
106.548
105.382
104.148
102.85
101.493
100.082
98.6201
97.1136
95.5665
93.9837
92.3697
90.7293
89.067
87.3873
85.6944
83.9927
82.2862
80.5789
78.8745
77.1766
75.4888
73.8142
72.1559
70.5168
68.8994
67.3064
65.74
64.2022
62.6951
61.2202
59.779
58.3731
57.0034
55.6711
54.3769
53.1216
51.9056
50.7295
49.5934
48.4975
47.4418
46.4263
45.4507
44.5149
43.6183
42.7606
41.9413
41.1597
40.4152
39.7071
39.0347
38.3971
37.794
37.2244
36.6874
36.182
35.7073
35.2621
34.8455
34.4564
34.0936
33.7561
33.4428
33.1524
32.8837
32.6357
32.4071
32.1967
32.0032
31.8254
31.6619
31.5116
31.3729
31.2447
31.1256
31.014
30.9087
30.8082
30.711
30.6157
30.5207
30.4245
30.3256
30.2226
30.1137
29.9976
29.8727
29.7374
29.5904
29.43
29.2551
29.0641
28.8558
28.629
28.3826
28.1156
27.827
27.5161
27.1823
26.825
26.4439
26.0385
25.6087
25.1544
24.6757
24.1729
23.6464
23.0967
22.5245
21.9308
21.3164
20.6825
20.0303
19.3613
18.6769
17.9789
17.2692
16.5499
15.8236
15.093
14.3617
13.6337
12.914
12.2089
11.5262
10.8766
10.2741
9.73954
9.3053
9.02912
9.03234
9.64311
12.2103
27.4412
92.2202
42.2129
33.4485
31.0703
30.7123
31.2795
32.3652
33.78
35.4218
37.2297
39.1645
41.199
43.3138
45.494
47.7278
50.0056
52.3189
54.6607
57.0241
59.4031
61.7919
64.185
66.5768
68.962
71.3354
73.6918
76.0258
78.3324
80.6064
82.8426
85.0359
87.1812
89.2735
91.3079
93.2797
95.184
97.0163
98.7723
100.448
102.039
103.541
104.952
106.268
107.485
108.602
109.616
110.524
111.326
112.02
112.604
113.078
113.442
113.696
113.841
113.876
113.804
113.625
113.342
112.957
112.471
111.889
111.214
110.447
109.594
108.656
107.639
106.545
105.379
104.145
102.848
101.491
100.079
98.6181
97.1116
95.5646
93.9818
92.3679
90.7276
89.0653
87.3856
85.6928
83.9911
82.2846
80.5774
78.873
77.1753
75.4875
73.8129
72.1547
70.5156
68.8983
67.3053
65.7389
64.2012
62.694
61.2192
59.7781
58.3722
57.0026
55.6703
54.3761
53.1208
51.9049
50.7287
49.5927
48.4968
47.4412
46.4257
45.4501
44.5143
43.6178
42.7601
41.9408
41.1592
40.4147
39.7067
39.0342
38.3967
37.7936
37.224
36.687
36.1817
35.707
35.2618
34.8452
34.4561
34.0934
33.7559
33.4425
33.1521
32.8835
32.6355
32.4069
32.1965
32.003
31.8252
31.6618
31.5114
31.3729
31.2447
31.1255
31.014
30.9087
30.8082
30.711
30.6157
30.5207
30.4245
30.3257
30.2226
30.1138
29.9977
29.8727
29.7375
29.5904
29.4301
29.2552
29.0642
28.8559
28.6291
28.3827
28.1157
27.8271
27.5162
27.1824
26.8252
26.444
26.0386
25.6088
25.1545
24.6758
24.173
23.6465
23.0968
22.5246
21.9309
21.3165
20.6826
20.0304
19.3614
18.677
17.979
17.2692
16.55
15.8236
15.093
14.3617
13.6337
12.914
12.2089
11.5263
10.8766
10.2741
9.73951
9.30528
9.02911
9.0323
9.64315
12.2103
27.4416
105.963
48.208
37.7283
34.6261
33.865
34.1755
35.0854
36.3749
37.9261
39.6685
41.5564
43.5588
45.653
47.8217
50.0513
52.3307
54.6503
57.0017
59.3774
61.7705
64.1745
66.583
68.9902
71.39
73.7768
76.1449
78.4887
80.8027
83.0813
85.3192
87.511
89.6516
91.7357
93.7585
95.7151
97.6007
99.411
101.142
102.789
104.348
105.817
107.191
108.468
109.645
110.719
111.689
112.554
113.31
113.959
114.498
114.928
115.248
115.459
115.561
115.556
115.445
115.229
114.911
114.492
113.976
113.365
112.662
111.871
110.995
110.036
109
107.889
106.708
105.46
104.151
102.783
101.363
99.8935
98.38
96.827
95.2389
93.6204
91.9758
90.3096
88.6262
86.9297
85.2243
83.514
81.8026
80.0937
78.3911
76.6979
75.0174
73.3526
71.7063
70.0811
68.4795
66.9038
65.356
63.8381
62.3516
60.8983
59.4794
58.096
56.7494
55.4402
54.1692
52.9371
51.7442
50.5908
49.4771
48.4033
47.3692
46.3746
45.4195
44.5034
43.6259
42.7865
41.9847
41.2199
40.4914
39.7984
39.1405
38.5171
37.9273
37.3701
36.8446
36.3499
35.8848
35.4485
35.0398
34.6576
34.3009
33.9684
33.6592
33.372
33.1057
32.859
32.6307
32.4196
32.2244
32.0439
31.8767
31.7216
31.5771
31.442
31.3148
31.1942
31.0786
30.9667
30.857
30.7481
30.6384
30.5264
30.4107
30.2898
30.1623
30.0265
29.8811
29.7247
29.556
29.3735
29.176
28.9623
28.7314
28.4822
28.2137
27.9252
27.616
27.2854
26.9332
26.5588
26.162
25.7426
25.3007
24.8363
24.3496
23.8411
23.3111
22.7603
22.1893
21.5989
20.9901
20.3639
19.7213
19.0637
18.3925
17.7095
17.0165
16.3159
15.6105
14.9038
14.1998
13.504
12.823
12.1656
11.5432
10.9719
10.4751
10.09
9.88326
9.99573
10.8088
13.8839
31.5786
105.964
48.2055
37.7259
34.6238
33.8628
34.1733
35.0831
36.3727
37.9239
39.6661
41.5541
43.5564
45.6506
47.8192
50.0488
52.3281
54.6477
56.9991
59.3748
61.7678
64.1717
66.5802
68.9873
71.3871
73.7739
76.142
78.4857
80.7997
83.0782
85.3161
87.5079
89.6485
91.7326
93.7554
95.7119
97.5976
99.4079
101.139
102.786
104.345
105.813
107.188
108.464
109.641
110.716
111.686
112.551
113.307
113.956
114.495
114.925
115.245
115.456
115.558
115.553
115.442
115.226
114.908
114.49
113.974
113.363
112.66
111.869
110.992
110.034
108.998
107.887
106.706
105.458
104.149
102.781
101.361
99.8915
98.3781
96.8251
95.2371
93.6186
91.9741
90.3079
88.6246
86.9281
85.2228
83.5125
81.8011
80.0924
78.3897
76.6966
75.0161
73.3514
71.7051
70.08
68.4784
66.9028
65.355
63.8371
62.3507
60.8974
59.4785
58.0952
56.7485
55.4394
54.1685
52.9363
51.7434
50.5901
49.4765
48.4026
47.3685
46.374
45.4189
44.5028
43.6253
42.786
41.9842
41.2194
40.4909
39.7979
39.1401
38.5167
37.9269
37.3697
36.8443
36.3495
35.8845
35.4482
35.0394
34.6573
34.3006
33.9682
33.659
33.3718
33.1055
32.8588
32.6305
32.4194
32.2243
32.0438
31.8766
31.7215
31.577
31.4419
31.3147
31.1941
31.0785
30.9666
30.857
30.748
30.6383
30.5264
30.4107
30.2898
30.1623
30.0265
29.8812
29.7248
29.556
29.3735
29.176
28.9624
28.7315
28.4822
28.2138
27.9253
27.616
27.2855
26.9332
26.5588
26.162
25.7427
25.3007
24.8363
24.3497
23.8411
23.3111
22.7603
22.1893
21.599
20.9902
20.3639
19.7213
19.0637
18.3926
17.7095
17.0165
16.3159
15.6106
14.9038
14.1998
13.504
12.823
12.1656
11.5432
10.9719
10.4751
10.09
9.88323
9.9957
10.8088
13.884
31.579
120.173
54.5027
42.2804
38.4585
37.3109
37.3867
38.1455
39.3364
40.8245
42.5293
44.3991
46.3982
48.5009
50.6874
52.9422
55.2527
57.6079
59.9984
62.4157
64.8518
67.2996
69.752
72.2023
74.6442
77.0713
79.4773
81.8564
84.2024
86.5097
88.7724
90.985
93.1421
95.2384
97.2687
99.2283
101.112
102.917
104.637
106.269
107.81
109.255
110.603
111.85
112.994
114.033
114.965
115.79
116.505
117.11
117.605
117.99
118.265
118.431
118.489
118.439
118.284
118.026
117.666
117.207
116.652
116.003
115.265
114.439
113.529
112.539
111.472
110.333
109.124
107.85
106.516
105.125
103.682
102.191
100.656
99.083
97.4752
95.8374
94.1739
92.489
90.787
89.0719
87.3478
85.6186
83.888
82.1597
80.4371
78.7236
77.0223
75.3361
73.6679
72.0203
70.3956
68.7962
67.2241
65.6813
64.1694
62.69
61.2445
59.8341
58.4598
57.1226
55.8232
54.5622
53.3401
52.1572
51.0138
49.91
48.8457
47.8209
46.8353
45.8887
44.9808
44.1109
43.2787
42.4835
41.7248
41.0018
40.3143
39.6614
39.0424