/*--------------------------------*- C++ -*----------------------------------*\
  =========                 |
  \\      /  F ield         | OpenFOAM: The Open Source CFD Toolbox
   \\    /   O peration     | Website:  https://openfoam.org
    \\  /    A nd           | Version:  8
     \\/     M anipulation  |
\*---------------------------------------------------------------------------*/
FoamFile
{
    version     2.0;
    format      ascii;
    class       volScalarField;
    location    "2200";
    object      k;
}
// * * * * * * * * * * * * * * * * * * * * * * * * * * * * * * * * * * * * * //

dimensions      [0 2 -2 0 0 0 0];

internalField   nonuniform List<scalar> 
46000
(
0.00199809
0.00962707
0.0198661
0.0299162
0.0396136
0.049048
0.0582677
0.0673219
0.076264
0.0851063
0.0938563
0.102533
0.111145
0.119694
0.128182
0.136608
0.144971
0.153267
0.161493
0.169644
0.177715
0.1857
0.193594
0.201389
0.209078
0.216653
0.224105
0.231428
0.238611
0.245645
0.252521
0.259229
0.26576
0.272103
0.278249
0.284188
0.289909
0.295401
0.300657
0.305665
0.310417
0.314904
0.319118
0.323051
0.326695
0.330045
0.333095
0.335839
0.338274
0.340396
0.342202
0.343691
0.344864
0.345719
0.346259
0.346487
0.346404
0.346015
0.345326
0.344342
0.343071
0.341525
0.339725
0.337691
0.335408
0.332881
0.330121
0.327139
0.323946
0.320556
0.316979
0.313231
0.309323
0.30527
0.301083
0.296778
0.292365
0.287859
0.283271
0.278616
0.273905
0.269149
0.264362
0.259554
0.254737
0.249921
0.245117
0.240335
0.235582
0.230868
0.226202
0.22159
0.21704
0.212558
0.208152
0.203825
0.199584
0.195433
0.191376
0.187417
0.183558
0.179803
0.176154
0.172612
0.169179
0.165857
0.162646
0.159545
0.156555
0.153675
0.150906
0.148246
0.145694
0.14325
0.14091
0.138673
0.136538
0.134502
0.132562
0.130716
0.128962
0.127297
0.125718
0.124222
0.122805
0.121465
0.120196
0.118998
0.117867
0.116798
0.115787
0.114832
0.113927
0.11307
0.112255
0.11148
0.110739
0.110028
0.109343
0.10868
0.108035
0.107403
0.106779
0.106159
0.105538
0.104912
0.104277
0.103626
0.102956
0.102262
0.101539
0.100783
0.0999894
0.0991531
0.0982697
0.0973348
0.0963441
0.0952938
0.0941802
0.093
0.0917497
0.0904262
0.0890266
0.0875488
0.0859925
0.0843781
0.0826904
0.0809233
0.0790756
0.0771479
0.0751414
0.0730581
0.0709002
0.0686708
0.0663731
0.0640114
0.0615901
0.0591143
0.0565894
0.0540211
0.0514151
0.0487775
0.0461149
0.0434338
0.0407403
0.0380405
0.0353397
0.0326426
0.0299459
0.0272585
0.0245903
0.021926
0.0192656
0.0165944
0.0139023
0.0112126
0.00843702
0.00552992
0.00260965
0.000526431
0.00199818
0.00962777
0.019867
0.0299169
0.0396146
0.0490489
0.0582681
0.0673215
0.0762629
0.0851045
0.0938539
0.102531
0.111142
0.119692
0.128181
0.136609
0.144973
0.153271
0.161499
0.169651
0.177723
0.185709
0.193602
0.201396
0.209083
0.216657
0.224109
0.231431
0.238614
0.245648
0.252524
0.259233
0.265764
0.272107
0.278253
0.284191
0.289911
0.295403
0.300657
0.305665
0.310416
0.314903
0.319116
0.323048
0.326692
0.330042
0.333091
0.335835
0.338269
0.340391
0.342197
0.343686
0.344859
0.345715
0.346256
0.346483
0.346401
0.346012
0.345323
0.34434
0.34307
0.341522
0.339723
0.33769
0.335407
0.332881
0.330122
0.32714
0.323947
0.320557
0.316982
0.313234
0.309327
0.305274
0.301088
0.296782
0.292369
0.287862
0.283275
0.278619
0.273906
0.26915
0.264362
0.259554
0.254737
0.249921
0.245116
0.240333
0.235581
0.230867
0.2262
0.221588
0.217038
0.212557
0.20815
0.203824
0.199583
0.195432
0.191375
0.187416
0.183557
0.179802
0.176153
0.172612
0.16918
0.165859
0.162648
0.159548
0.156558
0.153679
0.15091
0.14825
0.145697
0.143251
0.140909
0.13867
0.136532
0.134494
0.132552
0.130706
0.128952
0.127288
0.125711
0.124217
0.122803
0.121467
0.1202
0.119005
0.117875
0.116807
0.115796
0.11484
0.113934
0.113074
0.112258
0.11148
0.110738
0.110025
0.10934
0.108677
0.108032
0.1074
0.106777
0.106158
0.105538
0.104912
0.104276
0.103626
0.102956
0.102261
0.101538
0.100782
0.0999878
0.099151
0.0982675
0.0973329
0.0963431
0.0952941
0.0941819
0.0930025
0.0917523
0.0904284
0.0890282
0.0875495
0.085992
0.0843769
0.0826882
0.0809202
0.0790721
0.0771443
0.0751382
0.0730555
0.0708986
0.0686702
0.0663736
0.0640129
0.0615926
0.0591175
0.0565929
0.0540245
0.0514181
0.0487801
0.0461171
0.0434356
0.0407416
0.0380412
0.0353402
0.0326428
0.0299458
0.0272582
0.0245901
0.0219258
0.0192654
0.0165943
0.0139022
0.0112124
0.00843681
0.00552982
0.00260957
0.000526411
0.00956517
0.0470464
0.0761959
0.100316
0.121777
0.141476
0.159948
0.177476
0.194271
0.210472
0.226172
0.241442
0.256332
0.270882
0.285118
0.299065
0.312737
0.326147
0.339303
0.352212
0.364878
0.377301
0.389483
0.401421
0.413113
0.424556
0.435743
0.44667
0.45733
0.467715
0.477817
0.487628
0.497138
0.506339
0.51522
0.523771
0.531982
0.539844
0.547345
0.554476
0.561228
0.567591
0.573556
0.579116
0.584262
0.588988
0.593288
0.597156
0.600588
0.603581
0.606132
0.60824
0.609906
0.61113
0.611914
0.612262
0.612177
0.611666
0.610734
0.60939
0.607643
0.605504
0.602984
0.600101
0.59686
0.593273
0.589353
0.585113
0.58057
0.575737
0.570633
0.565274
0.559676
0.553857
0.547833
0.541621
0.53524
0.528707
0.522037
0.515249
0.50836
0.501385
0.494341
0.487244
0.48011
0.472954
0.46579
0.458632
0.451494
0.444389
0.437328
0.430325
0.423389
0.416533
0.409764
0.403094
0.39653
0.39008
0.383752
0.377553
0.371489
0.365565
0.359787
0.354159
0.348684
0.343366
0.338206
0.333208
0.328373
0.323701
0.319195
0.314852
0.310674
0.30666
0.302807
0.299114
0.295581
0.292203
0.28898
0.285907
0.282981
0.280199
0.277557
0.27505
0.272675
0.270429
0.268305
0.266298
0.264402
0.262611
0.260919
0.25932
0.257808
0.256376
0.255018
0.253726
0.252495
0.251316
0.250183
0.249088
0.248024
0.246983
0.245958
0.244939
0.24392
0.242892
0.241847
0.240776
0.239672
0.238524
0.237326
0.236069
0.234744
0.233342
0.231856
0.230276
0.228595
0.226805
0.224898
0.222867
0.220704
0.218403
0.215957
0.213361
0.210609
0.207697
0.204627
0.201391
0.197986
0.194409
0.19066
0.186737
0.182642
0.178375
0.17394
0.16934
0.164577
0.159657
0.154584
0.149364
0.144003
0.138507
0.132882
0.127134
0.121267
0.115287
0.109196
0.102994
0.0966775
0.090239
0.08366
0.0768981
0.0699458
0.0627292
0.0551331
0.0469896
0.0381213
0.0280793
0.0160157
0.00252161
0.00956633
0.0470494
0.0761981
0.100318
0.121778
0.141477
0.159949
0.177476
0.194271
0.210472
0.226172
0.241441
0.256331
0.27088
0.285117
0.299063
0.312735
0.326145
0.339302
0.352211
0.364877
0.3773
0.389482
0.40142
0.413113
0.424555
0.435742
0.446669
0.457328
0.467713
0.477815
0.487626
0.497136
0.506337
0.515217
0.523768
0.53198
0.539841
0.547342
0.554473
0.561225
0.567588
0.573553
0.579112
0.584259
0.588985
0.593284
0.597152
0.600584
0.603577
0.606128
0.608236
0.609902
0.611126
0.61191
0.612258
0.612173
0.611662
0.61073
0.609386
0.607639
0.6055
0.602981
0.600098
0.596857
0.59327
0.589349
0.585109
0.580565
0.575733
0.570629
0.56527
0.559672
0.553852
0.547828
0.541617
0.535236
0.528703
0.522033
0.515245
0.508356
0.501381
0.494337
0.487241
0.480107
0.472951
0.465787
0.458629
0.451491
0.444385
0.437325
0.430322
0.423386
0.41653
0.409761
0.403091
0.396527
0.390077
0.383749
0.37755
0.371486
0.365562
0.359784
0.354156
0.34868
0.343362
0.338202
0.333204
0.328369
0.323697
0.319191
0.314849
0.310671
0.306657
0.302805
0.299113
0.29558
0.292203
0.28898
0.285907
0.282981
0.280199
0.277556
0.275048
0.272673
0.270426
0.268301
0.266294
0.264398
0.262607
0.260915
0.259316
0.257805
0.256373
0.255015
0.253724
0.252493
0.251315
0.250182
0.249088
0.248024
0.246983
0.245957
0.244938
0.243918
0.24289
0.241845
0.240775
0.23967
0.238524
0.237326
0.236069
0.234743
0.233341
0.231855
0.230275
0.228594
0.226804
0.224896
0.222865
0.220702
0.218401
0.215955
0.21336
0.210609
0.207697
0.204627
0.201391
0.197985
0.194409
0.190659
0.186736
0.182641
0.178374
0.173939
0.169339
0.164576
0.159656
0.154584
0.149365
0.144004
0.138508
0.132883
0.127134
0.121268
0.115288
0.109196
0.102994
0.0966776
0.090239
0.08366
0.076898
0.0699458
0.0627292
0.0551329
0.0469896
0.0381216
0.0280793
0.0160156
0.00252162
0.0199369
0.076804
0.114223
0.144031
0.170378
0.194602
0.217339
0.238945
0.259651
0.279615
0.298952
0.317742
0.336049
0.35392
0.371389
0.388485
0.405228
0.421634
0.437714
0.453476
0.468925
0.484064
0.498893
0.513412
0.527616
0.541504
0.555068
0.568302
0.581199
0.593751
0.605947
0.617779
0.629236
0.640308
0.650983
0.66125
0.671098
0.680515
0.68949
0.698013
0.706072
0.713658
0.720761
0.727371
0.733482
0.739084
0.744173
0.748741
0.752786
0.756303
0.75929
0.761747
0.763674
0.765073
0.765945
0.766296
0.766131
0.765457
0.764281
0.762613
0.760464
0.757846
0.754773
0.75126
0.747318
0.742961
0.738206
0.733068
0.727565
0.721716
0.715539
0.709055
0.702281
0.695239
0.687949
0.680431
0.672705
0.664792
0.656713
0.648486
0.640133
0.631673
0.623125
0.614509
0.605843
0.597145
0.588432
0.579722
0.571031
0.562374
0.553768
0.545225
0.53676
0.528386
0.520115
0.511959
0.503928
0.496032
0.488281
0.480683
0.473247
0.465979
0.458885
0.451972
0.445244
0.438705
0.432359
0.426209
0.420257
0.414505
0.408954
0.403603
0.398454
0.393505
0.388756
0.384204
0.379847
0.375684
0.371709
0.367922
0.364316
0.360889
0.357635
0.354552
0.351633
0.348874
0.346266
0.343804
0.341481
0.339288
0.33722
0.335269
0.333426
0.331684
0.330035
0.32847
0.326981
0.325559
0.324195
0.322879
0.321603
0.320357
0.319131
0.317915
0.3167
0.315474
0.314229
0.312953
0.311636
0.310267
0.308835
0.307331
0.305743
0.304061
0.302274
0.300372
0.298345
0.296182
0.293874
0.291411
0.288785
0.285986
0.283008
0.279841
0.276481
0.272921
0.269158
0.265186
0.260999
0.256596
0.251972
0.247128
0.242063
0.236778
0.231275
0.225555
0.219624
0.213483
0.20714
0.200598
0.193863
0.186941
0.179838
0.17256
0.165111
0.157494
0.149711
0.141761
0.133638
0.125333
0.116825
0.108083
0.0990628
0.0896836
0.0798414
0.0693451
0.0578988
0.0448511
0.0283007
0.00541628
0.0199385
0.0768058
0.114223
0.144031
0.170377
0.194602
0.217338
0.238944
0.259649
0.279614
0.29895
0.31774
0.336047
0.353918
0.371387
0.388483
0.405226
0.421631
0.437711
0.453473
0.468922
0.48406
0.49889
0.513408
0.527613
0.5415
0.555064
0.568298
0.581195
0.593746
0.605943
0.617775
0.629232
0.640303
0.650978
0.661245
0.671093
0.68051
0.689485
0.698008
0.706067
0.713653
0.720755
0.727366
0.733476
0.739078
0.744167
0.748735
0.75278
0.756297
0.759284
0.761741
0.763668
0.765066
0.765939
0.76629
0.766125
0.76545
0.764275
0.762607
0.760458
0.75784
0.754767
0.751254
0.747312
0.742955
0.7382
0.733062
0.727559
0.72171
0.715533
0.709049
0.702275
0.695233
0.687943
0.680425
0.672699
0.664786
0.656707
0.64848
0.640127
0.631667
0.62312
0.614504
0.605838
0.597139
0.588427
0.579717
0.571026
0.562369
0.553763
0.54522
0.536755
0.528382
0.520111
0.511954
0.503923
0.496028
0.488277
0.480679
0.473243
0.465975
0.458881
0.451968
0.44524
0.438701
0.432355
0.426205
0.420253
0.414501
0.40895
0.4036
0.398451
0.393502
0.388753
0.384201
0.379844
0.375681
0.371707
0.367919
0.364314
0.360886
0.357632
0.354549
0.351631
0.348871
0.346264
0.343802
0.341478
0.339286
0.337218
0.335266
0.333424
0.331682
0.330033
0.328468
0.326979
0.325557
0.324193
0.322878
0.321602
0.320356
0.319129
0.317914
0.316698
0.315473
0.314227
0.312951
0.311634
0.310265
0.308834
0.30733
0.305742
0.30406
0.302273
0.300371
0.298344
0.296181
0.293873
0.29141
0.288784
0.285985
0.283007
0.27984
0.27648
0.27292
0.269157
0.265185
0.260999
0.256595
0.251972
0.247128
0.242063
0.236778
0.231274
0.225555
0.219623
0.213483
0.207139
0.200597
0.193862
0.186941
0.179838
0.17256
0.165111
0.157494
0.149711
0.14176
0.133638
0.125332
0.116825
0.108083
0.0990627
0.0896836
0.0798414
0.0693451
0.0578986
0.044851
0.0283009
0.0054163
0.030337
0.101929
0.145244
0.178777
0.208198
0.235263
0.260725
0.284983
0.308282
0.330788
0.352617
0.373853
0.394561
0.414788
0.434571
0.453939
0.472913
0.491507
0.509734
0.527601
0.545113
0.562271
0.579076
0.595524
0.611611
0.627334
0.642683
0.657652
0.672232
0.686413
0.700183
0.713533
0.72645
0.738922
0.750937
0.762482
0.773545
0.784113
0.794175
0.803719
0.812732
0.821206
0.829128
0.836491
0.843285
0.849503
0.855138
0.860185
0.86464
0.8685
0.871763
0.874428
0.876497
0.877972
0.878856
0.879155
0.878875
0.878024
0.876611
0.874648
0.872146
0.869118
0.865581
0.861548
0.857035
0.852059
0.846635
0.840783
0.834522
0.827873
0.820856
0.813493
0.805805
0.797816
0.789546
0.78102
0.77226
0.763288
0.754127
0.744801
0.73533
0.725737
0.716044
0.706272
0.696442
0.686575
0.676689
0.666804
0.656939
0.64711
0.637337
0.627633
0.618016
0.6085
0.599099
0.589825
0.580692
0.571711
0.562892
0.554246
0.545781
0.537505
0.529427
0.521552
0.513886
0.506435
0.499202
0.49219
0.485404
0.478844
0.472513
0.46641
0.460535
0.454889
0.44947
0.444276
0.439305
0.434553
0.430019
0.425697
0.421583
0.417674
0.413966
0.410453
0.407128
0.403985
0.401016
0.398214
0.395571
0.393079
0.390729
0.388514
0.386424
0.384451
0.382584
0.380815
0.379133
0.377529
0.375993
0.374513
0.373079
0.37168
0.370306
0.368944
0.367584
0.366213
0.364821
0.363395
0.361923
0.360393
0.358794
0.357112
0.355335
0.353453
0.351452
0.349322
0.347049
0.344624
0.342035
0.339271
0.336322
0.333179
0.329832
0.326273
0.322495
0.318492
0.314257
0.309785
0.305071
0.30011
0.294899
0.289438
0.283724
0.277759
0.271544
0.265081
0.258372
0.251421
0.244233
0.236813
0.229165
0.221295
0.213207
0.204908
0.1964
0.187688
0.178771
0.169649
0.160317
0.150765
0.140975
0.13092
0.120555
0.109807
0.0985621
0.0866111
0.0735654
0.0585863
0.0389197
0.00846208
0.0303379
0.101929
0.145244
0.178776
0.208196
0.235261
0.260723
0.284981
0.30828
0.330786
0.352615
0.373851
0.394558
0.414785
0.434568
0.453936
0.47291
0.491504
0.509731
0.527598
0.54511
0.562268
0.579072
0.59552
0.611607
0.627329
0.642679
0.657648
0.672228
0.686408
0.700179
0.713528
0.726445
0.738917
0.750931
0.762476
0.773539
0.784108
0.79417
0.803713
0.812727
0.8212
0.829122
0.836485
0.843279
0.849497
0.855132
0.860179
0.864634
0.868494
0.871757
0.874422
0.876491
0.877966
0.87885
0.879148
0.878868
0.878017
0.876605
0.874641
0.872139
0.869112
0.865574
0.861542
0.857029
0.852052
0.846629
0.840777
0.834516
0.827867
0.82085
0.813487
0.805799
0.79781
0.789541
0.781014
0.772254
0.763282
0.754122
0.744795
0.735324
0.725732
0.716039
0.706267
0.696437
0.686569
0.676684
0.666799
0.656934
0.647106
0.637332
0.627629
0.618012
0.608496
0.599094
0.589821
0.580688
0.571707
0.562888
0.554242
0.545777
0.537502
0.529423
0.521548
0.513883
0.506431
0.499198
0.492187
0.485401
0.478841
0.472509
0.466406
0.460532
0.454886
0.449467
0.444273
0.439302
0.434551
0.430016
0.425694
0.421581
0.417672
0.413964
0.410451
0.407126
0.403983
0.401014
0.398212
0.395569
0.393077
0.390727
0.388512
0.386422
0.384449
0.382582
0.380813
0.379132
0.377528
0.375991
0.374511
0.373078
0.371679
0.370304
0.368943
0.367583
0.366212
0.36482
0.363394
0.361922
0.360392
0.358792
0.357111
0.355334
0.353452
0.351451
0.349321
0.347049
0.344623
0.342034
0.33927
0.336322
0.333178
0.329831
0.326273
0.322495
0.318491
0.314257
0.309785
0.30507
0.300109
0.294899
0.289437
0.283724
0.277759
0.271544
0.26508
0.258371
0.251421
0.244233
0.236813
0.229165
0.221294
0.213207
0.204908
0.1964
0.187687
0.178771
0.169649
0.160317
0.150765
0.140975
0.13092
0.120555
0.109807
0.0985621
0.0866111
0.0735654
0.0585862
0.0389199
0.00846212
0.0406214
0.124705
0.17325
0.210003
0.241948
0.27126
0.298848
0.325171
0.350501
0.375011
0.398821
0.422016
0.444659
0.466799
0.48847
0.5097
0.530508
0.55091
0.570914
0.590527
0.609753
0.62859
0.647038
0.665092
0.682748
0.699996
0.71683
0.733239
0.749213
0.76474
0.779808
0.794404
0.808516
0.82213
0.835233
0.847811
0.859851
0.871339
0.882263
0.89261
0.90237
0.91153
0.920081
0.928013
0.935318
0.941988
0.948018
0.953402
0.958137
0.96222
0.96565
0.968428
0.970556
0.972036
0.972873
0.973074
0.972645
0.971598
0.96994
0.967686
0.964847
0.96144
0.957479
0.952981
0.947963
0.942442
0.936437
0.929969
0.923058
0.915726
0.907995
0.899889
0.891432
0.882646
0.873557
0.864188
0.854565
0.844712
0.834653
0.824413
0.814015
0.803485
0.792844
0.782117
0.771325
0.760491
0.749637
0.738782
0.727948
0.717152
0.706415
0.695754
0.685185
0.674725
0.66439
0.654193
0.644148
0.634268
0.624565
0.615049
0.605731
0.596619
0.587722
0.579047
0.5706
0.562387
0.554413
0.546682
0.539197
0.53196
0.524973
0.518236
0.511751
0.505515
0.499529
0.493791
0.488297
0.483044
0.47803
0.47325
0.468702
0.46438
0.460278
0.456392
0.452712
0.449233
0.445946
0.442844
0.439917
0.437157
0.434555
0.432102
0.429787
0.427602
0.425535
0.423576
0.421714
0.419939
0.418239
0.416602
0.415017
0.413472
0.411954
0.410451
0.408951
0.40744
0.405907
0.404337
0.402719
0.401038
0.399281
0.397435
0.395488
0.393425
0.391235
0.388903
0.386418
0.383768
0.380939
0.377922
0.374706
0.371279
0.367632
0.363756
0.359644
0.355288
0.350682
0.34582
0.340696
0.335305
0.329645
0.323714
0.317509
0.311032
0.304282
0.297262
0.289972
0.282417
0.274599
0.266523
0.258193
0.249612
0.240785
0.231716
0.222408
0.212863
0.203083
0.193066
0.182807
0.1723
0.161527
0.150464
0.139069
0.127271
0.114948
0.101872
0.08758
0.0709802
0.0486206
0.0115532
0.0406217
0.124705
0.173249
0.210002
0.241946
0.271258
0.298846
0.325169
0.350499
0.375009
0.398818
0.422013
0.444657
0.466796
0.488467
0.509697
0.530505
0.550906
0.57091
0.590524
0.609749
0.628586
0.647034
0.665088
0.682743
0.699992
0.716826
0.733234
0.749208
0.764735
0.779803
0.794399
0.808511
0.822125
0.835228
0.847806
0.859845
0.871333
0.882257
0.892605
0.902364
0.911525
0.920075
0.928007
0.935312
0.941982
0.948012
0.953396
0.958131
0.962214
0.965644
0.968422
0.97055
0.97203
0.972867
0.973068
0.97264
0.971592
0.969934
0.96768
0.964841
0.961434
0.957473
0.952975
0.947957
0.942436
0.936432
0.929963
0.923052
0.91572
0.90799
0.899884
0.891426
0.882641
0.873551
0.864183
0.85456
0.844707
0.834648
0.824408
0.81401
0.80348
0.792839
0.782112
0.771321
0.760487
0.749632
0.738778
0.727943
0.717148
0.706411
0.69575
0.685181
0.674721
0.664386
0.654189
0.644144
0.634265
0.624561
0.615046
0.605727
0.596616
0.587719
0.579043
0.570597
0.562384
0.55441
0.546679
0.539194
0.531957
0.52497
0.518233
0.511748
0.505513
0.499527
0.493788
0.488294
0.483042
0.478028
0.473248
0.468699
0.464377
0.460276
0.45639
0.45271
0.449231
0.445945
0.442842
0.439915
0.437155
0.434554
0.4321
0.429786
0.4276
0.425533
0.423575
0.421713
0.419938
0.418238
0.416601
0.415016
0.413471
0.411953
0.41045
0.40895
0.407439
0.405906
0.404337
0.402718
0.401037
0.39928
0.397435
0.395487
0.393425
0.391234
0.388902
0.386418
0.383767
0.380939
0.377922
0.374705
0.371278
0.367631
0.363756
0.359644
0.355288
0.350682
0.34582
0.340695
0.335305
0.329645
0.323714
0.317509
0.311032
0.304282
0.297261
0.289972
0.282417
0.274599
0.266523
0.258192
0.249612
0.240785
0.231716
0.222408
0.212863
0.203083
0.193065
0.182807
0.1723
0.161527
0.150464
0.139069
0.127271
0.114948
0.101872
0.08758
0.0709802
0.0486207
0.0115533
0.0508682
0.14609
0.199606
0.239468
0.273788
0.305148
0.334627
0.362765
0.389868
0.416125
0.441664
0.466573
0.490916
0.514738
0.538075
0.560951
0.583386
0.605391
0.626974
0.64814
0.668889
0.68922
0.709129
0.728609
0.747654
0.766254
0.784399
0.802076
0.819275
0.83598
0.85218
0.86786
0.883005
0.8976
0.911633
0.925087
0.93795
0.950207
0.961845
0.972853
0.983217
0.992928
1.00197
1.01035
1.01804
1.02505
1.03136
1.03698
1.0419
1.04611
1.04963
1.05244
1.05456
1.05599
1.05672
1.05678
1.05617
1.0549
1.05298
1.05043
1.04725
1.04347
1.0391
1.03417
1.02867
1.02265
1.01611
1.00908
1.00158
0.993638
0.98527
0.976503
0.967362
0.957873
0.948061
0.937953
0.927573
0.916949
0.906106
0.895069
0.883865
0.872518
0.861053
0.849495
0.837868
0.826195
0.814499
0.802802
0.791125
0.779489
0.767914
0.756419
0.745021
0.733739
0.722588
0.711585
0.700743
0.690076
0.679597
0.669318
0.659249
0.649401
0.639781
0.630398
0.621259
0.612371
0.603738
0.595364
0.587254
0.579409
0.571833
0.564525
0.557486
0.550716
0.544214
0.537977
0.532003
0.526289
0.520832
0.515627
0.510673
0.505963
0.501491
0.497249
0.493231
0.489429
0.485835
0.482439
0.479233
0.476208
0.473354
0.470661
0.468117
0.465714
0.463439
0.461281
0.459229
0.457271
0.455394
0.453587
0.451836
0.450128
0.448452
0.446792
0.445136
0.44347
0.441781
0.440054
0.438275
0.436431
0.434507
0.432489
0.430363
0.428116
0.425733
0.423202
0.420508
0.417641
0.414586
0.411332
0.407868
0.404183
0.400267
0.396111
0.391708
0.387048
0.382126
0.376936
0.371471
0.365727
0.359701
0.35339
0.346793
0.339908
0.332736
0.325277
0.317532
0.309504
0.301194
0.292605
0.28374
0.274601
0.26519
0.255511
0.245565
0.235353
0.224875
0.214131
0.203117
0.191824
0.18024
0.16834
0.156082
0.143394
0.13014
0.116066
0.100635
0.0825399
0.0577416
0.0146905
0.0508681
0.146091
0.199605
0.239467
0.273787
0.305146
0.334625
0.362763
0.389865
0.416123
0.441662
0.46657
0.490913
0.514735
0.538072
0.560948
0.583383
0.605387
0.626971
0.648136
0.668885
0.689216
0.709125
0.728606
0.74765
0.76625
0.784395
0.802072
0.81927
0.835976
0.852176
0.867855
0.883
0.897596
0.911628
0.925083
0.937945
0.950202
0.961841
0.972848
0.983212
0.992923
1.00197
1.01034
1.01804
1.02504
1.03136
1.03697
1.04189
1.04611
1.04962
1.05244
1.05455
1.05598
1.05672
1.05678
1.05617
1.0549
1.05298
1.05042
1.04725
1.04347
1.0391
1.03416
1.02867
1.02265
1.01611
1.00908
1.00158
0.993633
0.985265
0.976498
0.967357
0.957868
0.948057
0.937948
0.927569
0.916945
0.906101
0.895065
0.88386
0.872513
0.861049
0.849491
0.837864
0.826191
0.814495
0.802798
0.791121
0.779485
0.76791
0.756415
0.745017
0.733735
0.722585
0.711581
0.70074
0.690073
0.679594
0.669315
0.659246
0.649398
0.639778
0.630395
0.621257
0.612368
0.603735
0.595361
0.587251
0.579407
0.57183
0.564523
0.557484
0.550714
0.544212
0.537975
0.532001
0.526287
0.52083
0.515626
0.510671
0.505961
0.501489
0.497248
0.49323
0.489428
0.485833
0.482438
0.479232
0.476207
0.473353
0.470659
0.468116
0.465713
0.463438
0.46128
0.459228
0.45727
0.455393
0.453586
0.451835
0.450127
0.448451
0.446791
0.445135
0.44347
0.44178
0.440053
0.438275
0.43643
0.434506
0.432488
0.430362
0.428115
0.425732
0.423201
0.420508
0.41764
0.414585
0.411331
0.407867
0.404182
0.400267
0.396111
0.391707
0.387048
0.382126
0.376936
0.371471
0.365727
0.359701
0.35339
0.346793
0.339908
0.332735
0.325276
0.317532
0.309504
0.301194
0.292605
0.28374
0.274601
0.26519
0.255511
0.245565
0.235353
0.224875
0.214131
0.203117
0.191824
0.18024
0.16834
0.156082
0.143394
0.13014
0.116066
0.100635
0.0825401
0.0577413
0.0146907
0.061173
0.166697
0.22504
0.26801
0.304703
0.338076
0.369381
0.399244
0.428015
0.455907
0.483058
0.509563
0.535486
0.560874
0.585761
0.610172
0.634121
0.65762
0.680674
0.703286
0.725453
0.747173
0.768438
0.789242
0.809573
0.82942
0.848771
0.867613
0.885931
0.903711
0.920936
0.937593
0.953665
0.969136
0.983991
0.998216
1.0118
1.02472
1.03696
1.04853
1.0594
1.06956
1.079
1.08772
1.09571
1.10296
1.10947
1.11524
1.12026
1.12454
1.12807
1.13086
1.13291
1.13422
1.13482
1.13469
1.13386
1.13234
1.13014
1.12726
1.12374
1.11958
1.11481
1.10944
1.10349
1.09698
1.08994
1.08238
1.07432
1.06581
1.05684
1.04747
1.0377
1.02757
1.01709
1.00631
0.995246
0.983923
0.97237
0.960614
0.948682
0.936599
0.924393
0.912087
0.899709
0.887281
0.874827
0.862372
0.849937
0.837544
0.825213
0.812966
0.80082
0.788794
0.776905
0.765171
0.753605
0.742222
0.731037
0.720061
0.709305
0.69878
0.688497
0.678462
0.668684
0.659169
0.649924
0.640951
0.632257
0.623843
0.615712
0.607864
0.600301
0.593022
0.586025
0.57931
0.572873
0.566711
0.560822
0.555203
0.549849
0.544754
0.539911
0.535313
0.530953
0.526822
0.522911
0.519213
0.515716
0.512412
0.50929
0.506339
0.503548
0.500907
0.498403
0.496024
0.493758
0.491592
0.489514
0.48751
0.485567
0.483672
0.481809
0.479966
0.478128
0.47628
0.474409
0.472499
0.470536
0.468505
0.466391
0.46418
0.461857
0.459408
0.456819
0.454076
0.451165
0.448073
0.444789
0.441299
0.437592
0.433658
0.429487
0.425069
0.420396
0.415461
0.410258
0.404778
0.399018
0.392972
0.386636
0.380009
0.373087
0.365869
0.358355
0.350543
0.342435
0.334029
0.325327
0.31633
0.307037
0.29745
0.287569
0.277394
0.266925
0.256163
0.245106
0.233752
0.222097
0.210134
0.197848
0.185217
0.172195
0.158703
0.144592
0.129575
0.113041
0.0935035
0.0663583
0.0178962
0.0611746
0.166698
0.225039
0.268009
0.304701
0.338074
0.369379
0.399241
0.428012
0.455904
0.483056
0.50956
0.535483
0.560871
0.585758
0.610169
0.634118
0.657617
0.680671
0.703282
0.72545
0.747169
0.768435
0.789238
0.809569
0.829416
0.848767
0.867609
0.885927
0.903707
0.920932
0.937589
0.95366
0.969131
0.983987
0.998212
1.01179
1.02471
1.03696
1.04852
1.05939
1.06955
1.079
1.08772
1.09571
1.10296
1.10947
1.11524
1.12026
1.12453
1.12806
1.13085
1.1329
1.13422
1.13481
1.13469
1.13386
1.13234
1.13013
1.12726
1.12374
1.11958
1.11481
1.10943
1.10348
1.09698
1.08993
1.08237
1.07432
1.0658
1.05684
1.04746
1.03769
1.02756
1.01709
1.00631
0.995242
0.983919
0.972366
0.96061
0.948678
0.936596
0.924389
0.912084
0.899705
0.887277
0.874824
0.862369
0.849934
0.83754
0.82521
0.812962
0.800817
0.788791
0.776902
0.765168
0.753602
0.74222
0.731034
0.720058
0.709302
0.698778
0.688494
0.678459
0.668682
0.659167
0.649921
0.640949
0.632255
0.623841
0.61571
0.607862
0.600299
0.59302
0.586023
0.579308
0.572871
0.566709
0.56082
0.555202
0.549848
0.544753
0.53991
0.535312
0.530951
0.52682
0.52291
0.519211
0.515715
0.512411
0.509289
0.506338
0.503547
0.500906
0.498402
0.496023
0.493757
0.491591
0.489513
0.487509
0.485567
0.483671
0.481808
0.479965
0.478127
0.47628
0.474408
0.472498
0.470535
0.468504
0.466391
0.46418
0.461857
0.459408
0.456819
0.454075
0.451165
0.448073
0.444788
0.441298
0.437592
0.433658
0.429486
0.425069
0.420396
0.415461
0.410257
0.404778
0.399017
0.392971
0.386636
0.380009
0.373087
0.365869
0.358355
0.350543
0.342435
0.334029
0.325327
0.31633
0.307037
0.29745
0.287568
0.277394
0.266925
0.256163
0.245106
0.233752
0.222097
0.210134
0.197848
0.185217
0.172195
0.158703
0.144593
0.129575
0.113041
0.0935038
0.0663579
0.0178963
0.0716426
0.186893
0.250018
0.296145
0.335269
0.370696
0.403846
0.435433
0.465854
0.495351
0.524076
0.552133
0.57959
0.606496
0.632884
0.658776
0.684189
0.70913
0.733602
0.757606
0.781138
0.804192
0.826758
0.848827
0.870385
0.89142
0.911917
0.93186
0.951233
0.970021
0.988204
1.00577
1.0227
1.03897
1.05457
1.0695
1.08372
1.09722
1.11
1.12205
1.13334
1.14387
1.15364
1.16263
1.17084
1.17827
1.18491
1.19076
1.19582
1.20009
1.20358
1.20628
1.20821
1.20937
1.20977
1.20943
1.20834
1.20654
1.20402
1.20081
1.19692
1.19237
1.18719
1.18138
1.17497
1.16799
1.16044
1.15237
1.14378
1.13472
1.12519
1.11523
1.10487
1.09413
1.08304
1.07163
1.05992
1.04794
1.03573
1.02331
1.0107
0.997936
0.985042
0.972046
0.958972
0.945846
0.932692
0.919536
0.906399
0.893304
0.880274
0.867328
0.854487
0.841769
0.829194
0.816776
0.804534
0.792481
0.780632
0.769
0.757597
0.746434
0.735521
0.724866
0.714479
0.704366
0.694533
0.684985
0.675726
0.66676
0.658089
0.649714
0.641636
0.633855
0.62637
0.619178
0.612278
0.605667
0.599344
0.593304
0.587541
0.58205
0.576824
0.571855
0.567136
0.562658
0.558412
0.554389
0.550578
0.546971
0.543555
0.54032
0.537254
0.534346
0.531583
0.528952
0.52644
0.524035
0.521723
0.51949
0.517321
0.515203
0.513122
0.511061
0.509007
0.506945
0.504859
0.502734
0.500556
0.498308
0.495975
0.493544
0.490998
0.488323
0.485505
0.482531
0.479385
0.476055
0.47253
0.468795
0.464842
0.460658
0.456234
0.451561
0.446632
0.441438
0.435973
0.430231
0.424207
0.417895
0.411292
0.404395
0.397201
0.389707
0.381912
0.373814
0.365411
0.356702
0.347686
0.33836
0.328724
0.318774
0.30851
0.297928
0.287027
0.275803
0.264255
0.252379
0.240169
0.227617
0.214708
0.201415
0.187692
0.173449
0.158522
0.142588
0.124967
0.104013
0.0746097
0.0211002
0.0716455
0.186893
0.250016
0.296143
0.335266
0.370694
0.403844
0.43543
0.465851
0.495348
0.524074
0.55213
0.579587
0.606493
0.632881
0.658773
0.684186
0.709126
0.733599
0.757603
0.781135
0.804188
0.826755
0.848823
0.870382
0.891417
0.911913
0.931856
0.95123
0.970017
0.9882
1.00576
1.02269
1.03897
1.05457
1.06949
1.08371
1.09722
1.11
1.12204
1.13334
1.14387
1.15364
1.16263
1.17084
1.17827
1.18491
1.19075
1.19581
1.20008
1.20357
1.20628
1.20821
1.20937
1.20977
1.20942
1.20834
1.20653
1.20402
1.2008
1.19692
1.19237
1.18718
1.18138
1.17497
1.16798
1.16044
1.15236
1.14378
1.13471
1.12519
1.11523
1.10487
1.09413
1.08303
1.07162
1.05991
1.04794
1.03573
1.0233
1.0107
0.997932
0.985039
0.972042
0.958969
0.945843
0.932689
0.919533
0.906396
0.893302
0.880271
0.867325
0.854484
0.841767
0.829191
0.816774
0.804531
0.792479
0.78063
0.768998
0.757595
0.746432
0.735518
0.724864
0.714477
0.704364
0.694531
0.684983
0.675724
0.666758
0.658087
0.649712
0.641634
0.633853
0.626368
0.619177
0.612277
0.605666
0.599342
0.593302
0.58754
0.582049
0.576823
0.571854
0.567135
0.562656
0.558411
0.554387
0.550577
0.54697
0.543554
0.540319
0.537253
0.534345
0.531582
0.528951
0.526439
0.524034
0.521722
0.519489
0.51732
0.515203
0.513121
0.511061
0.509007
0.506944
0.504858
0.502734
0.500555
0.498307
0.495975
0.493543
0.490998
0.488323
0.485505
0.48253
0.479385
0.476055
0.472529
0.468795
0.464841
0.460658
0.456234
0.451561
0.446632
0.441438
0.435973
0.430231
0.424207
0.417895
0.411292
0.404395
0.3972
0.389707
0.381912
0.373814
0.365411
0.356702
0.347686
0.33836
0.328724
0.318774
0.30851
0.297928
0.287027
0.275803
0.264255
0.252379
0.240169
0.227617
0.214708
0.201415
0.187692
0.173449
0.158522
0.142588
0.124967
0.104014
0.0746094
0.0211002
0.0823995
0.206989
0.274889
0.324245
0.365888
0.40345
0.438509
0.471867
0.503972
0.535096
0.565409
0.595024
0.624015
0.652435
0.680317
0.707683
0.734547
0.760916
0.786792
0.812172
0.837049
0.861415
0.885259
0.908568
0.931326
0.953519
0.975129
0.996139
1.01653
1.03628
1.05538
1.07381
1.09155
1.10858
1.12488
1.14044
1.15525
1.16929
1.18254
1.19501
1.20667
1.21751
1.22754
1.23675
1.24512
1.25266
1.25937
1.26524
1.27028
1.27449
1.27788
1.28046
1.28222
1.28318
1.28335
1.28274
1.28137
1.27924
1.27638
1.27281
1.26853
1.26358
1.25796
1.25171
1.24484
1.23737
1.22933
1.22074
1.21163
1.20202
1.19194
1.18142
1.17048
1.15916
1.14747
1.13545
1.12313
1.11054
1.0977
1.08464
1.07139
1.05798
1.04443
1.03078
1.01705
1.00326
0.989448
0.975627
0.961826
0.948066
0.934371
0.920763
0.90726
0.893884
0.880652
0.867583
0.854693
0.841997
0.82951
0.817246
0.805218
0.793436