/*--------------------------------*- C++ -*----------------------------------*\
  =========                 |
  \\      /  F ield         | OpenFOAM: The Open Source CFD Toolbox
   \\    /   O peration     | Website:  https://openfoam.org
    \\  /    A nd           | Version:  8
     \\/     M anipulation  |
\*---------------------------------------------------------------------------*/
FoamFile
{
    version     2.0;
    format      ascii;
    class       volScalarField;
    location    "2200";
    object      nut;
}
// * * * * * * * * * * * * * * * * * * * * * * * * * * * * * * * * * * * * * //

dimensions      [0 2 -1 0 0 0 0];

internalField   nonuniform List<scalar> 
46000
(
1.4298e-07
7.24698e-07
1.49513e-06
2.25147e-06
2.98123e-06
3.69121e-06
4.38505e-06
5.06639e-06
5.73915e-06
6.40465e-06
7.0631e-06
7.71609e-06
8.36413e-06
9.00749e-06
9.64625e-06
1.02804e-05
1.09097e-05
1.15341e-05
1.21531e-05
1.27666e-05
1.3374e-05
1.3975e-05
1.45691e-05
1.51558e-05
1.57345e-05
1.63047e-05
1.68656e-05
1.74168e-05
1.79575e-05
1.84869e-05
1.90044e-05
1.95092e-05
2.00007e-05
2.04782e-05
2.09408e-05
2.13878e-05
2.18183e-05
2.22317e-05
2.26273e-05
2.30042e-05
2.33619e-05
2.36996e-05
2.40167e-05
2.43127e-05
2.4587e-05
2.48392e-05
2.50688e-05
2.52754e-05
2.54586e-05
2.56183e-05
2.57543e-05
2.58664e-05
2.59547e-05
2.60191e-05
2.60599e-05
2.60771e-05
2.60709e-05
2.60418e-05
2.599e-05
2.5916e-05
2.58205e-05
2.57041e-05
2.55688e-05
2.54158e-05
2.5244e-05
2.50539e-05
2.48464e-05
2.4622e-05
2.43818e-05
2.41267e-05
2.38576e-05
2.35755e-05
2.32815e-05
2.29765e-05
2.26615e-05
2.23375e-05
2.20055e-05
2.16663e-05
2.13211e-05
2.09708e-05
2.06163e-05
2.02583e-05
1.9898e-05
1.95362e-05
1.91736e-05
1.88112e-05
1.84496e-05
1.80897e-05
1.77319e-05
1.73771e-05
1.70258e-05
1.66787e-05
1.63361e-05
1.59987e-05
1.5667e-05
1.53413e-05
1.50221e-05
1.47096e-05
1.44042e-05
1.4106e-05
1.38155e-05
1.35327e-05
1.32579e-05
1.29912e-05
1.27327e-05
1.24825e-05
1.22407e-05
1.20071e-05
1.17819e-05
1.1565e-05
1.13564e-05
1.11561e-05
1.09638e-05
1.07797e-05
1.06034e-05
1.04349e-05
1.0274e-05
1.01205e-05
9.97435e-06
9.83524e-06
9.70303e-06
9.57753e-06
9.45849e-06
9.34565e-06
9.2388e-06
9.13771e-06
9.04185e-06
8.95149e-06
8.86609e-06
8.78538e-06
8.70908e-06
8.63693e-06
8.56865e-06
8.50392e-06
8.44242e-06
8.38383e-06
8.32785e-06
8.27416e-06
8.22243e-06
8.17234e-06
8.12356e-06
8.07577e-06
8.02861e-06
7.98175e-06
7.93483e-06
7.88752e-06
7.83948e-06
7.79034e-06
7.73975e-06
7.68734e-06
7.63278e-06
7.57572e-06
7.51584e-06
7.45278e-06
7.38621e-06
7.31575e-06
7.24109e-06
7.16194e-06
7.07807e-06
6.98919e-06
6.89506e-06
6.79541e-06
6.69003e-06
6.57879e-06
6.46168e-06
6.34029e-06
6.21338e-06
6.0805e-06
5.94158e-06
5.79666e-06
5.64581e-06
5.48919e-06
5.32697e-06
5.15937e-06
4.98666e-06
4.80914e-06
4.62715e-06
4.44108e-06
4.25135e-06
4.05836e-06
3.86256e-06
3.6644e-06
3.46435e-06
3.26292e-06
3.06057e-06
2.85774e-06
2.65486e-06
2.45224e-06
2.2496e-06
2.04775e-06
1.8473e-06
1.64715e-06
1.44729e-06
1.2466e-06
1.0444e-06
8.42365e-07
6.3386e-07
4.15463e-07
1.96091e-07
3.75489e-08
1.43035e-07
7.25031e-07
1.49548e-06
2.25165e-06
2.98131e-06
3.69127e-06
4.38505e-06
5.0663e-06
5.73899e-06
6.40443e-06
7.06284e-06
7.7158e-06
8.36387e-06
9.00731e-06
9.64622e-06
1.02805e-05
1.09101e-05
1.15347e-05
1.2154e-05
1.27675e-05
1.3375e-05
1.3976e-05
1.457e-05
1.51564e-05
1.57349e-05
1.63048e-05
1.68656e-05
1.74167e-05
1.79573e-05
1.84868e-05
1.90044e-05
1.95093e-05
2.0001e-05
2.04785e-05
2.09412e-05
2.13881e-05
2.18187e-05
2.22321e-05
2.26276e-05
2.30045e-05
2.33622e-05
2.36998e-05
2.40169e-05
2.43129e-05
2.45872e-05
2.48393e-05
2.50688e-05
2.52754e-05
2.54585e-05
2.56182e-05
2.57541e-05
2.58662e-05
2.59545e-05
2.6019e-05
2.60598e-05
2.60769e-05
2.60708e-05
2.60417e-05
2.59899e-05
2.5916e-05
2.58205e-05
2.5704e-05
2.55688e-05
2.54158e-05
2.5244e-05
2.5054e-05
2.48464e-05
2.46221e-05
2.43819e-05
2.41268e-05
2.38577e-05
2.35757e-05
2.32817e-05
2.29767e-05
2.26617e-05
2.23377e-05
2.20055e-05
2.16663e-05
2.1321e-05
2.09706e-05
2.06159e-05
2.02579e-05
1.98976e-05
1.95358e-05
1.91732e-05
1.88108e-05
1.84493e-05
1.80894e-05
1.77317e-05
1.7377e-05
1.70258e-05
1.66786e-05
1.63361e-05
1.59988e-05
1.56672e-05
1.53416e-05
1.50225e-05
1.47101e-05
1.44047e-05
1.41066e-05
1.3816e-05
1.35332e-05
1.32584e-05
1.29917e-05
1.27333e-05
1.24831e-05
1.22413e-05
1.20078e-05
1.17826e-05
1.15657e-05
1.13571e-05
1.11567e-05
1.09643e-05
1.07799e-05
1.06033e-05
1.04344e-05
1.02731e-05
1.01193e-05
9.97292e-06
9.83373e-06
9.70156e-06
9.5762e-06
9.4574e-06
9.34492e-06
9.23851e-06
9.13788e-06
9.0424e-06
8.95231e-06
8.86709e-06
8.78646e-06
8.71012e-06
8.63782e-06
8.56929e-06
8.50427e-06
8.44249e-06
8.38364e-06
8.32744e-06
8.27357e-06
8.22176e-06
8.17169e-06
8.123e-06
8.07534e-06
8.02832e-06
7.98158e-06
7.93477e-06
7.88751e-06
7.83948e-06
7.79031e-06
7.73968e-06
7.68725e-06
7.63265e-06
7.57556e-06
7.51562e-06
7.4525e-06
7.38589e-06
7.31549e-06
7.24097e-06
7.16204e-06
7.07837e-06
6.98963e-06
6.89553e-06
6.79584e-06
6.69038e-06
6.57902e-06
6.46174e-06
6.3402e-06
6.21315e-06
6.08016e-06
5.94117e-06
5.79622e-06
5.64542e-06
5.48888e-06
5.32679e-06
5.15933e-06
4.98678e-06
4.80939e-06
4.62751e-06
4.4415e-06
4.25178e-06
4.05875e-06
3.86287e-06
3.66462e-06
3.46449e-06
3.26298e-06
3.06055e-06
2.85766e-06
2.65476e-06
2.45212e-06
2.24945e-06
2.04761e-06
1.84721e-06
1.64709e-06
1.44724e-06
1.24658e-06
1.04438e-06
8.42348e-07
6.33834e-07
4.15449e-07
1.96083e-07
3.75476e-08
6.58184e-07
1.86125e-05
3.59196e-05
4.76956e-05
5.66636e-05
6.39863e-05
7.02888e-05
7.58856e-05
8.09624e-05
8.56406e-05
8.99992e-05
9.40917e-05
9.79581e-05
0.000101629
0.000105126
0.00010847
0.000111674
0.000114751
0.000117711
0.000120561
0.000123309
0.00012596
0.000128519
0.000130991
0.000133379
0.000135685
0.000137912
0.000140062
0.000142137
0.000144137
0.000146065
0.00014792
0.000149703
0.000151416
0.000153057
0.000154628
0.000156127
0.000157556
0.000158913
0.000160199
0.000161413
0.000162555
0.000163624
0.000164621
0.000165544
0.000166394
0.00016717
0.000167872
0.000168501
0.000169055
0.000169535
0.000169941
0.000170273
0.000170532
0.000170718
0.000170831
0.000170872
0.000170842
0.000170741
0.00017057
0.00017033
0.000170019
0.000169635
0.000169179
0.000168659
0.000168077
0.000167436
0.000166739
0.000165987
0.000165182
0.000164328
0.000163425
0.000162477
0.000161485
0.000160453
0.000159382
0.000158275
0.000157134
0.000155963
0.000154763
0.000153537
0.000152288
0.000151018
0.00014973
0.000148426
0.000147108
0.00014578
0.000144444
0.000143101
0.000141755
0.000140407
0.00013906
0.000137716
0.000136377
0.000135046
0.000133724
0.000132413
0.000131115
0.000129831
0.000128564
0.000127315
0.000126085
0.000124876
0.00012369
0.000122527
0.000121388
0.000120275
0.000119188
0.000118129
0.000117098
0.000116095
0.000115122
0.000114178
0.000113264
0.00011238
0.000111527
0.000110703
0.00010991
0.000109146
0.000108412
0.000107708
0.000107033
0.000106386
0.000105766
0.000105174
0.000104609
0.000104068
0.000103552
0.000103058
0.000102587
0.000102136
0.000101704
0.00010129
0.000100893
0.000100511
0.000100142
9.97858e-05
9.94396e-05
9.9102e-05
9.87713e-05
9.84458e-05
9.81236e-05
9.78028e-05
9.74817e-05
9.71581e-05
9.68302e-05
9.6496e-05
9.61534e-05
9.58004e-05
9.54349e-05
9.5055e-05
9.46586e-05
9.42435e-05
9.38076e-05
9.3349e-05
9.28656e-05
9.23553e-05
9.18162e-05
9.12464e-05
9.06438e-05
9.00065e-05
8.93326e-05
8.86201e-05
8.78664e-05
8.70667e-05
8.62077e-05
8.53006e-05
8.43445e-05
8.33391e-05
8.22835e-05
8.11768e-05
8.00183e-05
7.8807e-05
7.75423e-05
7.62235e-05
7.48498e-05
7.34208e-05
7.19358e-05
7.03942e-05
6.87952e-05
6.71379e-05
6.54209e-05
6.36425e-05
6.18005e-05
5.98923e-05
5.79145e-05
5.58622e-05
5.37293e-05
5.15084e-05
4.91843e-05
4.67312e-05
4.41161e-05
4.12924e-05
3.81715e-05
3.4587e-05
3.02498e-05
2.49488e-05
1.79778e-05
8.14443e-06
1.72268e-07
6.58171e-07
1.86156e-05
3.59246e-05
4.77001e-05
5.66672e-05
6.39895e-05
7.02915e-05
7.58876e-05
8.09639e-05
8.56419e-05
9.00004e-05
9.40933e-05
9.79603e-05
0.000101632
0.000105131
0.000108475
0.000111681
0.000114759
0.000117719
0.00012057
0.000123318
0.000125968
0.000128527
0.000130998
0.000133385
0.00013569
0.000137917
0.000140066
0.000142141
0.000144142
0.00014607
0.000147926
0.00014971
0.000151422
0.000153064
0.000154634
0.000156134
0.000157562
0.00015892
0.000160205
0.000161419
0.000162561
0.00016363
0.000164627
0.00016555
0.0001664
0.000167176
0.000167878
0.000168506
0.000169061
0.00016954
0.000169946
0.000170279
0.000170537
0.000170723
0.000170836
0.000170878
0.000170847
0.000170747
0.000170576
0.000170335
0.000170025
0.000169641
0.000169186
0.000168665
0.000168083
0.000167443
0.000166745
0.000165993
0.000165188
0.000164333
0.00016343
0.000162482
0.00016149
0.000160458
0.000159387
0.000158279
0.000157139
0.000155967
0.000154767
0.000153541
0.000152292
0.000151022
0.000149734
0.00014843
0.000147112
0.000145784
0.000144448
0.000143105
0.000141759
0.000140411
0.000139065
0.000137721
0.000136382
0.000135051
0.000133729
0.000132418
0.00013112
0.000129837
0.000128569
0.00012732
0.00012609
0.000124881
0.000123694
0.000122531
0.000121392
0.000120278
0.000119192
0.000118132
0.000117101
0.000116098
0.000115124
0.00011418
0.000113266
0.000112382
0.000111528
0.000110704
0.00010991
0.000109147
0.000108413
0.000107709
0.000107033
0.000106386
0.000105767
0.000105175
0.00010461
0.000104069
0.000103553
0.000103059
0.000102588
0.000102136
0.000101704
0.000101291
0.000100893
0.000100511
0.000100142
9.97856e-05
9.94393e-05
9.91017e-05
9.87711e-05
9.84456e-05
9.81235e-05
9.78029e-05
9.74817e-05
9.71582e-05
9.68303e-05
9.6496e-05
9.61534e-05
9.58004e-05
9.5435e-05
9.50551e-05
9.46585e-05
9.42433e-05
9.38073e-05
9.33486e-05
9.28652e-05
9.2355e-05
9.1816e-05
9.12462e-05
9.06437e-05
9.00064e-05
8.93326e-05
8.86202e-05
8.78666e-05
8.70667e-05
8.62064e-05
8.5298e-05
8.4341e-05
8.3335e-05
8.22793e-05
8.11732e-05
8.00157e-05
7.88058e-05
7.75427e-05
7.62254e-05
7.48531e-05
7.3425e-05
7.19404e-05
7.03988e-05
6.87993e-05
6.71411e-05
6.54229e-05
6.36433e-05
6.18002e-05
5.98911e-05
5.79126e-05
5.58597e-05
5.37265e-05
5.15055e-05
4.91817e-05
4.67291e-05
4.41145e-05
4.12911e-05
3.81707e-05
3.45868e-05
3.02499e-05
2.49489e-05
1.79778e-05
8.14443e-06
1.72269e-07
1.38002e-06
3.48784e-05
7.36862e-05
0.000102513
0.000124649
0.000142536
0.000157592
0.000170659
0.000182253
0.000192717
0.000202282
0.000211112
0.000219327
0.000227018
0.000234253
0.000241088
0.000247567
0.000253725
0.00025959
0.000265187
0.000270536
0.000275653
0.000280554
0.00028525
0.000289752
0.000294069
0.000298208
0.000302176
0.00030598
0.000309623
0.000313111
0.000316447
0.000319635
0.000322677
0.000325577
0.000328335
0.000330955
0.000333437
0.000335783
0.000337995
0.000340073
0.000342019
0.000343834
0.000345517
0.000347071
0.000348496
0.000349793
0.000350963
0.000352005
0.000352922
0.000353714
0.000354382
0.000354927
0.000355349
0.000355651
0.000355833
0.000355897
0.000355843
0.000355673
0.000355387
0.000354987
0.00035447
0.000353836
0.000353086
0.000352228
0.000351267
0.000350208
0.000349055
0.000347811
0.000346479
0.000345063
0.000343566
0.000341992
0.000340343
0.000338625
0.00033684
0.000334991
0.000333084
0.000331121
0.000329107
0.000327045
0.000324939
0.000322794
0.000320612
0.000318399
0.000316158
0.000313892
0.000311607
0.000309305
0.00030699
0.000304667
0.000302339
0.00030001
0.000297682
0.000295361
0.000293049
0.000290749
0.000288464
0.000286199
0.000283955
0.000281735
0.000279543
0.000277381
0.00027525
0.000273154
0.000271095
0.000269074
0.000267094
0.000265156
0.000263261
0.00026141
0.000259606
0.000257848
0.000256137
0.000254474
0.00025286
0.000251294
0.000249776
0.000248307
0.000246886
0.000245512
0.000244186
0.000242906
0.000241671
0.00024048
0.000239331
0.000238222
0.000237151
0.000236117
0.000235117
0.000234149
0.000233211
0.000232301
0.000231416
0.000230554
0.000229711
0.000228885
0.000228073
0.000227272
0.000226479
0.00022569
0.000224902
0.000224112
0.000223316
0.000222511
0.000221694
0.00022086
0.000220006
0.000219129
0.000218225
0.00021729
0.000216321
0.000215314
0.000214265
0.000213171
0.000212028
0.000210833
0.000209583
0.000208274
0.000206903
0.000205466
0.000203961
0.000202382
0.000200726
0.000198985
0.000197148
0.000195217
0.000193195
0.00019108
0.00018887
0.000186565
0.000184163
0.00018166
0.000179056
0.000176347
0.00017353
0.000170602
0.00016756
0.0001644
0.000161115
0.000157701
0.000154151
0.000150455
0.000146603
0.000142583
0.000138379
0.000133971
0.000129331
0.000124425
0.000119201
0.000113586
0.000107475
0.0001007
9.30012e-05
8.39804e-05
7.29888e-05
5.91531e-05
4.10017e-05
1.71905e-05
3.7175e-07
1.38017e-06
3.48827e-05
7.36938e-05
0.000102522
0.000124659
0.000142545
0.000157602
0.000170668
0.000182262
0.000192725
0.00020229
0.00021112
0.000219336
0.000227027
0.000234262
0.000241098
0.000247578
0.000253736
0.000259601
0.000265199
0.000270548
0.000275665
0.000280566
0.000285261
0.000289763
0.000294079
0.000298218
0.000302186
0.00030599
0.000309634
0.000313122
0.000316458
0.000319646
0.000322688
0.000325587
0.000328346
0.000330965
0.000333447
0.000335793
0.000338005
0.000340083
0.000342029
0.000343844
0.000345527
0.000347081
0.000348506
0.000349803
0.000350972
0.000352015
0.000352932
0.000353724
0.000354391
0.000354936
0.000355359
0.000355661
0.000355843
0.000355906
0.000355852
0.000355682
0.000355397
0.000354996
0.00035448
0.000353846
0.000353096
0.000352238
0.000351277
0.000350218
0.000349064
0.00034782
0.000346488
0.000345072
0.000343575
0.000342
0.000340352
0.000338633
0.000336848
0.000334999
0.000333092
0.000331129
0.000329114
0.000327052
0.000324946
0.0003228
0.000320619
0.000318406
0.000316164
0.000313899
0.000311613
0.000309311
0.000306997
0.000304673
0.000302345
0.000300016
0.000297688
0.000295367
0.000293054
0.000290754
0.00028847
0.000286204
0.00028396
0.00028174
0.000279548
0.000277385
0.000275255
0.000273159
0.000271099
0.000269078
0.000267098
0.000265159
0.000263264
0.000261413
0.000259608
0.00025785
0.000256139
0.000254476
0.000252861
0.000251295
0.000249777
0.000248307
0.000246886
0.000245513
0.000244186
0.000242906
0.000241672
0.000240481
0.000239332
0.000238223
0.000237152
0.000236118
0.000235117
0.00023415
0.000233212
0.000232302
0.000231416
0.000230554
0.000229711
0.000228885
0.000228073
0.000227271
0.000226478
0.000225689
0.000224901
0.000224111
0.000223315
0.00022251
0.000221693
0.000220859
0.000220005
0.000219128
0.000218224
0.000217289
0.000216319
0.000215312
0.000214263
0.000213169
0.000212026
0.000210832
0.000209582
0.000208273
0.000206901
0.000205465
0.000203959
0.000202381
0.000200725
0.000198983
0.000197145
0.000195215
0.000193192
0.000191076
0.000188867
0.000186562
0.00018416
0.000181658
0.000179054
0.000176346
0.00017353
0.000170603
0.000167561
0.000164401
0.000161116
0.000157702
0.000154151
0.000150455
0.000146603
0.000142583
0.000138379
0.00013397
0.00012933
0.000124423
0.0001192
0.000113585
0.000107474
0.000100699
9.30006e-05
8.39801e-05
7.29886e-05
5.91529e-05
4.10017e-05
1.71904e-05
3.71751e-07
2.10746e-06
4.60815e-05
0.000101268
0.000145662
0.000181189
0.000210441
0.000235211
0.000256683
0.000275652
0.000292666
0.000308112
0.000322274
0.00033536
0.000347533
0.000358915
0.000369605
0.000379682
0.000389209
0.000398238
0.000406814
0.000414971
0.000422741
0.000430149
0.000437217
0.000443965
0.000450409
0.000456563
0.000462439
0.000468048
0.000473399
0.000478502
0.000483363
0.000487989
0.000492386
0.000496559
0.000500513
0.000504253
0.000507782
0.000511103
0.000514221
0.000517138
0.000519858
0.000522382
0.000524714
0.000526857
0.000528812
0.000530581
0.000532168
0.000533574
0.000534802
0.000535854
0.000536731
0.000537437
0.000537973
0.000538342
0.000538545
0.000538585
0.000538464
0.000538185
0.000537747
0.000537154
0.000536405
0.000535501
0.000534444
0.000533241
0.0005319
0.000530425
0.000528822
0.000527096
0.00052525
0.00052329
0.00052122
0.000519045
0.000516769
0.000514398
0.000511935
0.000509385
0.000506754
0.000504047
0.000501268
0.000498423
0.000495517
0.000492555
0.000489542
0.000486484
0.000483385
0.000480251
0.000477087
0.000473897
0.000470688
0.000467464
0.000464231
0.000460992
0.000457753
0.000454518
0.000451293
0.000448081
0.000444887
0.000441714
0.000438568
0.000435452
0.000432369
0.000429322
0.000426316
0.000423354
0.000420437
0.000417569
0.000414752
0.000411989
0.000409281
0.000406629
0.000404037
0.000401503
0.00039903
0.000396618
0.000394268
0.00039198
0.000389754
0.000387589
0.000385486
0.000383443
0.00038146
0.000379536
0.000377668
0.000375854
0.000374092
0.00037238
0.000370715
0.000369094
0.000367515
0.000365975
0.00036447
0.000362997
0.000361554
0.000360135
0.000358737
0.000357357
0.00035599
0.000354632
0.000353278
0.000351925
0.000350567
0.000349201
0.000347821
0.000346422
0.000345001
0.000343551
0.000342069
0.000340549
0.000338986
0.000337377
0.000335715
0.000333996
0.000332216
0.000330369
0.000328452
0.00032646
0.000324389
0.000322233
0.00031999
0.000317653
0.00031522
0.000312685
0.000310042
0.000307283
0.000304401
0.000301393
0.000298259
0.000294996
0.000291603
0.000288076
0.000284413
0.000280609
0.000276659
0.000272559
0.000268303
0.000263883
0.000259292
0.00025452
0.000249556
0.000244388
0.000239
0.000233373
0.000227487
0.000221314
0.000214821
0.000207967
0.000200696
0.000192937
0.000184594
0.000175532
0.00016556
0.000154402
0.000141655
0.000126725
0.000108732
8.64228e-05
5.82365e-05
2.37809e-05
5.82526e-07
2.10753e-06
4.60859e-05
0.000101277
0.000145674
0.000181202
0.000210456
0.000235227
0.000256699
0.000275667
0.000292681
0.000308127
0.000322288
0.000335375
0.000347548
0.00035893
0.00036962
0.000379697
0.000389224
0.000398254
0.000406829
0.000414986
0.000422756
0.000430164
0.000437233
0.000443981
0.000450424
0.000456578
0.000462454
0.000468063
0.000473414
0.000478517
0.000483378
0.000488004
0.000492401
0.000496574
0.000500528
0.000504267
0.000507796
0.000511117
0.000514235
0.000517152
0.000519871
0.000522396
0.000524728
0.00052687
0.000528825
0.000530595
0.000532181
0.000533588
0.000534815
0.000535867
0.000536744
0.00053745
0.000537986
0.000538354
0.000538557
0.000538598
0.000538477
0.000538197
0.000537759
0.000537166
0.000536417
0.000535513
0.000534456
0.000533253
0.000531911
0.000530437
0.000528833
0.000527107
0.000525261
0.000523301
0.000521231
0.000519056
0.00051678
0.000514407
0.000511944
0.000509395
0.000506763
0.000504056
0.000501277
0.000498432
0.000495526
0.000492563
0.00048955
0.000486492
0.000483392
0.000480258
0.000477094
0.000473904
0.000470695
0.000467471
0.000464237
0.000460998
0.000457759
0.000454524
0.000451298
0.000448086
0.000444892
0.000441719
0.000438573
0.000435456
0.000432373
0.000429326
0.00042632
0.000423357
0.00042044
0.000417572
0.000414755
0.000411992
0.000409283
0.000406632
0.000404039
0.000401505
0.000399032
0.00039662
0.00039427
0.000391981
0.000389755
0.00038759
0.000385486
0.000383443
0.00038146
0.000379536
0.000377668
0.000375854
0.000374092
0.00037238
0.000370715
0.000369094
0.000367515
0.000365974
0.000364469
0.000362997
0.000361553
0.000360134
0.000358736
0.000357356
0.000355988
0.00035463
0.000353276
0.000351923
0.000350565
0.000349199
0.000347818
0.00034642
0.000344998
0.000343549
0.000342066
0.000340546
0.000338984
0.000337374
0.000335712
0.000333993
0.000332213
0.000330366
0.000328449
0.000326457
0.000324386
0.00032223
0.000319987
0.00031765
0.000315217
0.000312682
0.000310039
0.00030728
0.000304398
0.00030139
0.000298256
0.000294993
0.0002916
0.000288073
0.00028441
0.000280606
0.000276657
0.000272557
0.000268301
0.000263881
0.00025929
0.000254518
0.000249555
0.000244387
0.000238999
0.000233372
0.000227486
0.000221313
0.00021482
0.000207966
0.000200695
0.000192936
0.000184594
0.000175531
0.00016556
0.000154401
0.000141654
0.000126724
0.000108732
8.64227e-05
5.82365e-05
2.37809e-05
5.8253e-07
2.82853e-06
5.48065e-05
0.000122553
0.000180009
0.000227583
0.00026756
0.000301793
0.000331631
0.000358039
0.000381718
0.000403179
0.000422808
0.000440897
0.000457671
0.000473309
0.000487952
0.000501713
0.000514686
0.000526946
0.000538558
0.000549575
0.00056004
0.000569994
0.000579467
0.000588488
0.000597081
0.000605267
0.000613064
0.000620488
0.000627554
0.000634273
0.000640658
0.000646718
0.000652463
0.000657899
0.000663036
0.00066788
0.000672437
0.000676713
0.000680714
0.000684445
0.000687911
0.000691117
0.000694067
0.000696766
0.000699218
0.000701426
0.000703396
0.000705131
0.000706634
0.00070791
0.000708961
0.000709793
0.000710408
0.00071081
0.000711003
0.000710989
0.000710772
0.000710356
0.000709743
0.000708935
0.000707936
0.000706748
0.000705373
0.00070382
0.000702095
0.000700204
0.000698155
0.000695953
0.000693603
0.000691112
0.000688485
0.000685728
0.000682846
0.000679846
0.000676734
0.000673514
0.000670194
0.00066678
0.000663277
0.000659693
0.000656032
0.000652302
0.000648509
0.000644659
0.000640758
0.000636814
0.000632831
0.000628817
0.000624778
0.000620719
0.000616647
0.000612568
0.000608487
0.000604411
0.000600345
0.000596293
0.000592263
0.000588258
0.000584283
0.000580343
0.000576443
0.000572587
0.000568778
0.00056502
0.000561317
0.000557672
0.000554087
0.000550566
0.00054711
0.000543721
0.000540401
0.000537152
0.000533974
0.000530867
0.000527833
0.000524872
0.000521983
0.000519165
0.000516419
0.000513743
0.000511136
0.000508596
0.000506119
0.000503704
0.000501348
0.000499046
0.000496798
0.000494598
0.000492443
0.000490331
0.000488256
0.000486214
0.000484202
0.000482214
0.000480246
0.000478293
0.000476349
0.00047441
0.000472471
0.000470525
0.000468568
0.000466594
0.000464596
0.00046257
0.00046051
0.00045841
0.000456263
0.000454065
0.00045181
0.000449491
0.000447103
0.000444641
0.000442099
0.000439472
0.000436755
0.000433942
0.000431028
0.000428008
0.000424877
0.000421631
0.000418263
0.000414769
0.000411141
0.000407374
0.000403459
0.000399392
0.000395171
0.000390791
0.00038625
0.000381542
0.000376662
0.000371604
0.000366361
0.000360925
0.000355286
0.000349432
0.000343351
0.000337027
0.000330444
0.000323579
0.000316408
0.000308903
0.000301029
0.000292743
0.000283994
0.000274716
0.000264828
0.000254222
0.000242754
0.000230234
0.000216398
0.00020088
0.00018317
0.000162554
0.000138037
0.000108288
7.18031e-05
2.91002e-05
7.96873e-07
2.82848e-06
5.48099e-05
0.000122562
0.000180023
0.0002276
0.000267578
0.000301812
0.000331651
0.00035806
0.000381738
0.0004032
0.000422829
0.000440917
0.000457692
0.000473329
0.000487972
0.000501733
0.000514705
0.000526966
0.000538578
0.000549594
0.00056006
0.000570013
0.000579486
0.000588507
0.0005971
0.000605286
0.000613083
0.000620507
0.000627573
0.000634292
0.000640677
0.000646737
0.000652481
0.000657918
0.000663054
0.000667898
0.000672455
0.000676731
0.000680732
0.000684463
0.000687928
0.000691134
0.000694084
0.000696783
0.000699234
0.000701443
0.000703412
0.000705147
0.00070665
0.000707926
0.000708977
0.000709809
0.000710424
0.000710826
0.000711018
0.000711004
0.000710787
0.000710371
0.000709757
0.00070895
0.00070795
0.000706762
0.000705387
0.000703833
0.000702108
0.000700218
0.000698168
0.000695965
0.000693616
0.000691124
0.000688497
0.00068574
0.000682858
0.000679857
0.000676745
0.000673525
0.000670205
0.00066679
0.000663287
0.000659702
0.000656041
0.000652311
0.000648518
0.000644667
0.000640767
0.000636822
0.000632839
0.000628825
0.000624785
0.000620726
0.000616654
0.000612575
0.000608494
0.000604417
0.000600351
0.000596299
0.000592268
0.000588263
0.000584288
0.000580348
0.000576448
0.000572591
0.000568782
0.000565024
0.000561321
0.000557675
0.000554091
0.000550569
0.000547113
0.000543724
0.000540404
0.000537154
0.000533976
0.000530869
0.000527835
0.000524873
0.000521984
0.000519166
0.00051642
0.000513744
0.000511137
0.000508596
0.00050612
0.000503704
0.000501347
0.000499046
0.000496797
0.000494597
0.000492443
0.00049033
0.000488255
0.000486213
0.0004842
0.000482212
0.000480244
0.000478291
0.000476347
0.000474408
0.000472469
0.000470523
0.000468566
0.000466591
0.000464594
0.000462567
0.000460507
0.000458407
0.00045626
0.000454062
0.000451806
0.000449487
0.0004471
0.000444638
0.000442096
0.000439469
0.000436751
0.000433938
0.000431024
0.000428004
0.000424873
0.000421627
0.000418259
0.000414765
0.000411137
0.00040737
0.000403455
0.000399389
0.000395167
0.000390788
0.000386246
0.000381538
0.000376658
0.000371601
0.000366358
0.000360922
0.000355283
0.000349429
0.000343349
0.000337025
0.000330441
0.000323577
0.000316406
0.000308902
0.000301027
0.000292742
0.000283993
0.000274715
0.000264827
0.000254221
0.000242753
0.000230234
0.000216398
0.00020088
0.00018317
0.000162553
0.000138037
0.000108288
7.18032e-05
2.91003e-05
7.96884e-07
3.54802e-06
6.21154e-05
0.000139984
0.000208397
0.000266498
0.000316161
0.000359163
0.000396898
0.000430426
0.000460543
0.000487856
0.000512828
0.00053582
0.000557116
0.00057694
0.000595473
0.000612863
0.00062923
0.000644674
0.000659277
0.00067311
0.000686231
0.00069869
0.000710531
0.000721789
0.000732497
0.000742683
0.000752369
0.000761579
0.00077033
0.000778639
0.000786521
0.000793989
0.000801055
0.000807731
0.000814026
0.000819951
0.000825512
0.00083072
0.000835581
0.000840103
0.000844293
0.000848158
0.000851703
0.000854936
0.000857862
0.000860487
0.000862817
0.000864857
0.000866614
0.000868092
0.000869297
0.000870233
0.000870907
0.000871323
0.000871485
0.0008714
0.000871071
0.000870503
0.0008697
0.000868667
0.000867408
0.000865927
0.000864229
0.00086232
0.00086021
0.000857905
0.000855412
0.000852739
0.000849893
0.000846881
0.000843709
0.000840384
0.000836913
0.000833304
0.000829563
0.000825697
0.000821714
0.000817621
0.000813425
0.000809133
0.000804754
0.000800293
0.000795759
0.000791159
0.0007865
0.000781791
0.000777037
0.000772248
0.000767429
0.000762588
0.000757732
0.000752868
0.000748003
0.000743143
0.000738295
0.000733465
0.000728659
0.000723884
0.000719144
0.000714445
0.000709792
0.00070519
0.000700643
0.000696156
0.000691732
0.000687375
0.000683088
0.000678874
0.000674735
0.000670673
0.00066669
0.000662787
0.000658966
0.000655226
0.000651568
0.000647993
0.000644498
0.000641084
0.00063775
0.000634494
0.000631314
0.000628206
0.000625169
0.000622198
0.00061929
0.000616442
0.00061365
0.000610909
0.000608215
0.000605564
0.000602951
0.000600371
0.000597818
0.000595287
0.000592773
0.00059027
0.000587772
0.000585272
0.000582765
0.000580245
0.000577705
0.000575138
0.000572538
0.000569899
0.000567214
0.000564476
0.000561679
0.000558817
0.000555883
0.00055287
0.000549773
0.000546585
0.0005433
0.000539912
0.000536415
0.000532804
0.000529074
0.000525217
0.00052123
0.000517106
0.00051284
0.000508425
0.000503856
0.000499124
0.000494224
0.000489149
0.000483895
0.000478455
0.000472826
0.000467
0.000460969
0.000454726
0.00044826
0.00044156
0.000434611
0.000427398
0.000419903
0.000412103
0.000403976
0.000395491
0.000386615
0.000377307
0.000367521
0.000357198
0.000346269
0.000334648
0.000322224
0.000308858
0.000294368
0.000278514
0.000260973
0.000241312
0.000218946
0.000193087
0.000162689
0.000126437
8.30146e-05
3.36629e-05
1.01458e-06
3.54788e-06
6.21187e-05
0.000139993
0.000208411
0.000266516
0.000316182
0.000359185
0.000396921
0.00043045
0.000460567
0.00048788
0.000512853
0.000535845
0.00055714
0.000576964
0.000595498
0.000612888
0.000629255
0.000644698
0.000659301
0.000673134
0.000686255
0.000698714
0.000710555
0.000721813
0.000732521
0.000742706
0.000752393
0.000761602
0.000770353
0.000778661
0.000786543
0.000794011
0.000801077
0.000807753
0.000814048
0.000819972
0.000825534
0.000830741
0.000835602
0.000840124
0.000844314
0.000848178
0.000851723
0.000854956
0.000857882
0.000860506
0.000862836
0.000864876
0.000866633
0.000868111
0.000869315
0.000870251
0.000870925
0.00087134
0.000871503
0.000871417
0.000871088
0.000870519
0.000869716
0.000868683
0.000867424
0.000865943
0.000864244
0.000862336
0.000860225
0.000857919
0.000855426
0.000852753
0.000849907
0.000846894
0.000843722
0.000840397
0.000836926
0.000833316
0.000829575
0.000825709
0.000821726
0.000817633
0.000813436
0.000809144
0.000804764
0.000800303
0.000795769
0.000791168
0.00078651
0.0007818
0.000777046
0.000772256
0.000767437
0.000762596
0.00075774
0.000752875
0.00074801
0.00074315
0.000738302
0.000733472
0.000728666
0.00072389
0.00071915
0.000714451
0.000709797
0.000705195
0.000700648
0.000696161
0.000691737
0.00068738
0.000683092
0.000678878
0.000674738
0.000670676
0.000666693
0.00066279
0.000658969
0.000655229
0.000651571
0.000647995
0.0006445
0.000641086
0.000637752
0.000634496
0.000631315
0.000628207
0.00062517
0.000622198
0.000619291
0.000616442
0.00061365
0.000610909
0.000608215
0.000605564
0.000602951
0.00060037
0.000597817
0.000595286
0.000592772
0.000590269
0.00058777
0.000585271
0.000582763
0.000580243
0.000577702
0.000575135
0.000572535
0.000569896
0.000567211
0.000564473
0.000561676
0.000558814
0.000555879
0.000552867
0.000549769
0.000546581
0.000543296
0.000539908
0.000536411
0.0005328
0.00052907
0.000525213
0.000521226
0.000517102
0.000512836
0.000508421
0.000503852
0.00049912
0.00049422
0.000489145
0.000483891
0.000478452
0.000472822
0.000466996
0.000460966
0.000454723
0.000448257
0.000441557
0.000434608
0.000427395
0.0004199
0.000412101
0.000403974
0.000395489
0.000386613
0.000377305
0.000367519
0.000357197
0.000346268
0.000334646
0.000322223
0.000308857
0.000294367
0.000278513
0.000260972
0.000241312
0.000218946
0.000193087
0.000162689
0.000126437
8.30148e-05
3.36628e-05
1.01461e-06
4.27238e-06
6.85707e-05
0.000154926
0.000232669
0.000299951
0.000358247
0.000409206
0.000454215
0.000494372
0.000530538
0.000563383
0.000593432
0.0006211
0.000646719
0.000670553
0.000692821
0.000713697
0.000733329
0.000751836
0.00076932
0.000785867
0.000801548
0.000816425
0.000830551
0.00084397
0.000856722
0.00086884
0.000880355
0.000891292
0.000901675
0.000911523
0.000920856
0.000929689
0.000938038
0.000945916
0.000953335
0.000960308
0.000966845
0.000972956
0.000978652
0.00098394
0.000988831
0.000993332
0.000997453
0.0010012
0.00100458
0.00100761
0.00101028
0.00101261
0.0010146
0.00101627
0.00101761
0.00101864
0.00101936
0.00101978
0.0010199
0.00101973
0.00101928
0.00101855
0.00101756
0.00101629
0.00101477
0.00101299
0.00101097
0.0010087
0.00100621
0.00100349
0.00100056
0.00099742