/*--------------------------------*- C++ -*----------------------------------*\
  =========                 |
  \\      /  F ield         | OpenFOAM: The Open Source CFD Toolbox
   \\    /   O peration     | Website:  https://openfoam.org
    \\  /    A nd           | Version:  8
     \\/     M anipulation  |
\*---------------------------------------------------------------------------*/
FoamFile
{
    version     2.0;
    format      ascii;
    class       surfaceScalarField;
    location    "2200";
    object      phi;
}
// * * * * * * * * * * * * * * * * * * * * * * * * * * * * * * * * * * * * * //

dimensions      [1 0 -1 0 0 0 0];

internalField   nonuniform List<scalar> 
114370
(
1.60941e-10
-1.5637e-13
-1.60787e-10
3.55546e-10
8.89048e-13
-1.92593e-10
4.93514e-10
8.76764e-13
-1.34608e-10
5.42668e-10
3.72177e-13
-4.90263e-11
5.12448e-10
7.51519e-15
2.96946e-11
4.18371e-10
-2.16179e-13
9.32907e-11
2.75212e-10
-3.90381e-13
1.42235e-10
9.4988e-11
-5.21965e-13
1.79545e-10
-1.13518e-10
-5.90835e-13
2.08298e-10
-3.44397e-10
-6.10839e-13
2.30947e-10
-5.93763e-10
-6.09205e-13
2.4939e-10
-8.58931e-10
-5.86163e-13
2.65036e-10
-1.13808e-09
-5.179e-13
2.78937e-10
-1.43014e-09
-3.8333e-13
2.91843e-10
-1.73463e-09
-1.7763e-13
3.04249e-10
-2.05139e-09
8.71607e-14
3.16456e-10
-2.38042e-09
3.82509e-13
3.28624e-10
-2.7217e-09
6.67781e-13
3.40822e-10
-3.07514e-09
9.03871e-13
3.5308e-10
-3.44064e-09
1.06269e-12
3.65407e-10
-3.81812e-09
1.12168e-12
3.7775e-10
-4.20756e-09
1.05886e-12
3.89953e-10
-4.60879e-09
8.68287e-13
4.01785e-10
-5.02136e-09
5.82165e-13
4.13052e-10
-5.44455e-09
2.65641e-13
4.23666e-10
-5.87759e-09
-1.50128e-14
4.33594e-10
-6.31977e-09
-2.22964e-13
4.42734e-10
-6.77027e-09
-3.59891e-13
4.50893e-10
-7.22803e-09
-4.35455e-13
4.57897e-10
-7.69163e-09
-4.3212e-13
4.63673e-10
-8.15954e-09
-3.41212e-13
4.68217e-10
-8.63044e-09
-1.88341e-13
4.71513e-10
-9.10316e-09
-4.54656e-15
4.73451e-10
-9.57644e-09
1.53299e-13
4.73866e-10
-1.00487e-08
2.44527e-13
4.72623e-10
-1.05184e-08
3.02753e-13
4.69679e-10
-1.09836e-08
3.59988e-13
4.6512e-10
-1.14426e-08
4.06485e-13
4.58982e-10
-1.1894e-08
4.28999e-13
4.51272e-10
-1.23362e-08
4.65428e-13
4.42025e-10
-1.27676e-08
4.79554e-13
4.31241e-10
-1.31867e-08
4.68604e-13
4.18992e-10
-1.35922e-08
4.69722e-13
4.05399e-10
-1.39826e-08
4.4692e-13
3.90582e-10
-1.4357e-08
4.56843e-13
3.74576e-10
-1.47142e-08
4.25924e-13
3.57494e-10
-1.50535e-08
3.83618e-13
3.39353e-10
-1.53738e-08
3.30897e-13
3.20238e-10
-1.56741e-08
2.22905e-13
3.00326e-10
-1.59538e-08
1.72241e-13
2.7966e-10
-1.62118e-08
1.43404e-13
2.58409e-10
-1.6448e-08
9.32508e-14
2.36701e-10
-1.66624e-08
6.92358e-14
2.14719e-10
-1.68541e-08
1.03054e-13
1.92495e-10
-1.70236e-08
9.07287e-14
1.69934e-10
-1.7171e-08
4.99614e-14
1.47275e-10
-1.72954e-08
8.7075e-14
1.24664e-10
-1.73975e-08
7.43301e-14
1.02109e-10
-1.74775e-08
3.38582e-14
7.9767e-11
-1.75351e-08
7.12077e-14
5.7611e-11
-1.75711e-08
4.04826e-14
3.5651e-11
-1.75856e-08
-3.61939e-14
1.4081e-11
-1.75787e-08
-1.78484e-14
-7.07428e-12
-1.75511e-08
7.7264e-15
-2.77323e-11
-1.75034e-08
3.57147e-15
-4.7774e-11
-1.74363e-08
2.42936e-14
-6.73689e-11
-1.73508e-08
1.55412e-14
-8.65318e-11
-1.72468e-08
-3.30954e-14
-1.05058e-10
-1.71247e-08
-6.83134e-14
-1.23007e-10
-1.69854e-08
-8.24855e-14
-1.40377e-10
-1.68292e-08
-4.89058e-14
-1.56911e-10
-1.66568e-08
1.75912e-14
-1.726e-10
-1.64695e-08
3.05021e-14
-1.87608e-10
-1.62681e-08
1.52479e-14
-2.01914e-10
-1.60528e-08
4.10367e-14
-2.15554e-10
-1.58247e-08
2.88194e-14
-2.28606e-10
-1.55846e-08
-7.36645e-14
-2.40906e-10
-1.53327e-08
-1.55168e-13
-2.5238e-10
-1.50699e-08
-1.71623e-13
-2.63262e-10
-1.47971e-08
-2.16876e-13
-2.73576e-10
-1.45148e-08
-3.06505e-13
-2.83085e-10
-1.42233e-08
-3.60602e-13
-2.91817e-10
-1.39236e-08
-3.60098e-13
-2.99975e-10
-1.36163e-08
-3.35414e-13
-3.07476e-10
-1.3302e-08
-2.95112e-13
-3.14183e-10
-1.29816e-08
-2.57391e-13
-3.20249e-10
-1.2656e-08
-2.443e-13
-3.25813e-10
-1.23257e-08
-2.27096e-13
-3.30771e-10
-1.19909e-08
-1.71861e-13
-3.35094e-10
-1.16523e-08
-1.06046e-13
-3.38937e-10
-1.13105e-08
-6.51331e-14
-3.42317e-10
-1.09659e-08
-2.98822e-14
-3.4508e-10
-1.06189e-08
2.94571e-14
-3.4723e-10
-1.02702e-08
1.05807e-13
-3.48934e-10
-9.92046e-09
1.83462e-13
-3.5025e-10
-9.57008e-09
2.58731e-13
-3.51125e-10
-9.21948e-09
3.18057e-13
-3.51592e-10
-8.86899e-09
3.42732e-13
-3.5175e-10
-8.51861e-09
3.39655e-13
-3.51597e-10
-8.16837e-09
3.33956e-13
-3.51076e-10
-7.81865e-09
3.39822e-13
-3.50186e-10
-7.47003e-09
3.62409e-13
-3.48933e-10
-7.12292e-09
4.06777e-13
-3.47259e-10
-6.77774e-09
4.59798e-13
-3.45159e-10
-6.43505e-09
4.87482e-13
-3.42786e-10
-6.09524e-09
4.76817e-13
-3.40316e-10
-5.75832e-09
4.60221e-13
-3.37764e-10
-5.42415e-09
4.75009e-13
-3.35011e-10
-5.09285e-09
5.15954e-13
-3.31965e-10
-4.7647e-09
5.48422e-13
-3.28644e-10
-4.43995e-09
5.4997e-13
-3.25124e-10
-4.11872e-09
5.1377e-13
-3.21501e-10
-3.80112e-09
4.22861e-13
-3.1787e-10
-3.48717e-09
2.51833e-13
-3.14288e-10
-3.17671e-09
4.33229e-16
-3.10729e-10
-2.86958e-09
-2.90131e-13
-3.07122e-10
-2.56581e-09
-5.62478e-13
-3.03418e-10
-2.26566e-09
-7.80686e-13
-2.99614e-10
-1.96937e-09
-9.43075e-13
-2.95718e-10
-1.67711e-09
-1.06375e-12
-2.9176e-10
-1.38896e-09
-1.14173e-12
-2.87821e-10
-1.10495e-09
-1.14486e-12
-2.84003e-10
-8.24939e-10
-1.02777e-12
-2.80345e-10
-5.48592e-10
-7.74094e-13
-2.76793e-10
-2.75647e-10
-4.21816e-13
-2.73239e-10
-6.13202e-12
-4.15308e-14
-2.69588e-10
2.59687e-10
3.09211e-13
-2.65767e-10
5.21693e-10
6.01536e-13
-2.61881e-10
7.80026e-10
8.21471e-13
-2.58048e-10
1.0348e-09
9.4638e-13
-2.54231e-10
1.28599e-09
9.50053e-13
-2.50421e-10
1.53349e-09
8.33173e-13
-2.46674e-10
1.77724e-09
6.31607e-13
-2.43063e-10
2.01732e-09
3.91122e-13
-2.39611e-10
2.25385e-09
1.41465e-13
-2.36281e-10
2.48691e-09
-1.01188e-13
-2.33019e-10
2.71659e-09
-3.1238e-13
-2.29782e-10
2.9429e-09
-4.53303e-13
-2.26544e-10
3.16581e-09
-4.95095e-13
-2.23276e-10
3.38521e-09
-4.47112e-13
-2.1995e-10
3.60101e-09
-3.55629e-13
-2.16552e-10
3.81317e-09
-2.72929e-13
-2.13073e-10
4.02171e-09
-2.26399e-13
-2.09495e-10
4.22664e-09
-2.11866e-13
-2.05774e-10
4.42784e-09
-2.07911e-13
-2.01843e-10
4.62501e-09
-1.92433e-13
-1.97648e-10
4.81774e-09
-1.51056e-13
-1.93166e-10
5.00566e-09
-8.18299e-14
-1.88378e-10
5.18843e-09
-1.15406e-15
-1.83242e-10
5.36578e-09
5.56646e-14
-1.7768e-10
5.53733e-09
4.97809e-14
-1.71612e-10
5.70251e-09
-3.30551e-14
-1.64997e-10
5.86058e-09
-1.62246e-13
-1.57829e-10
6.01076e-09
-2.70788e-13
-1.50081e-10
6.15231e-09
-2.92665e-13
-1.41651e-10
6.28452e-09
-2.05315e-13
-1.32374e-10
6.40656e-09
-4.60755e-14
-1.22094e-10
6.51738e-09
1.12247e-13
-1.10757e-10
6.61578e-09
2.1145e-13
-9.84002e-11
6.70064e-09
2.46032e-13
-8.50669e-11
6.77105e-09
2.5772e-13
-7.07114e-11
6.82615e-09
2.89459e-13
-5.52085e-11
6.86498e-09
3.38773e-13
-3.84591e-11
6.88628e-09
3.5395e-13
-2.04851e-11
6.8886e-09
2.77775e-13
-1.42913e-12
6.87049e-09
9.7002e-14
1.86845e-11
6.83059e-09
-1.44945e-13
3.9924e-11
6.76775e-09
-3.81519e-13
6.22945e-11
6.68096e-09
-5.63644e-13
8.57911e-11
6.56926e-09
-6.6849e-13
1.10361e-10
6.43173e-09
-6.83578e-13
1.3593e-10
6.26753e-09
-5.95448e-13
1.62429e-10
6.0759e-09
-3.98653e-13
1.89778e-10
5.85622e-09
-1.1192e-13
2.17859e-10
5.60813e-09
2.20536e-13
2.465e-10
5.33152e-09
5.47066e-13
2.75458e-10
5.02649e-09
8.26443e-13
3.04412e-10
4.69331e-09
1.0255e-12
3.32964e-10
4.33251e-09
1.10738e-12
3.60656e-10
3.94525e-09
1.04304e-12
3.86997e-10
3.53349e-09
8.434e-13
4.11514e-10
3.09982e-09
5.60624e-13
4.33772e-10
2.64707e-09
2.40973e-13
4.53271e-10
2.17843e-09
-9.96741e-14
4.69269e-10
1.69816e-09
-4.31311e-13
4.80769e-10
1.21189e-09
-6.93087e-13
4.86684e-10
7.26279e-10
-8.77581e-13
4.8585e-10
2.4925e-10
-1.04991e-12
4.76855e-10
-2.08653e-10
-1.17974e-12
4.57615e-10
-6.33977e-10
-1.10894e-12
4.25631e-10
-1.0117e-09
-8.53716e-13
3.78362e-10
-1.32475e-09
-6.41084e-13
3.13141e-10
-1.5517e-09
-4.96511e-13
2.27152e-10
-1.66727e-09
-2.67952e-13
1.1713e-10
-1.64676e-09
-5.5556e-14
-1.87008e-11
-1.47067e-09
-2.22558e-14
-1.75626e-10
-1.13539e-09
-6.41804e-14
-3.3565e-10
-6.81814e-10
-7.55315e-14
-4.53483e-10
-2.37453e-10
-1.4494e-14
-4.42981e-10
6.14279e-14
-2.37104e-10
1.63134e-10
-1.62386e-10
3.54851e-10
-1.94333e-10
4.92043e-10
-1.35448e-10
5.41998e-10
-4.9031e-11
5.12023e-10
3.01115e-11
4.17766e-10
9.40014e-11
2.7449e-10
1.43387e-10
9.43242e-11
1.81289e-10
-1.14082e-10
2.10591e-10
-3.4486e-10
2.33575e-10
-5.94038e-10
2.52083e-10
-8.58874e-10
2.67523e-10
-1.13758e-09
2.80935e-10
-1.42919e-09
2.93086e-10
-1.73329e-09
3.04528e-10
-2.04982e-09
3.15649e-10
-2.3788e-09
3.26726e-10
-2.72021e-09
3.37975e-10
-3.07393e-09
3.49578e-10
-3.43981e-09
3.61642e-10
-3.81779e-09
3.74124e-10
-4.20775e-09
3.86803e-10
-4.6094e-09
3.99372e-10
-5.02212e-09
4.11552e-10
-5.44522e-09
4.23123e-10
-5.87805e-09
4.33854e-10
-6.32005e-09
4.43487e-10
-6.77044e-09
4.51801e-10
-7.22803e-09
4.58678e-10
-7.69142e-09
4.64173e-10
-8.1592e-09
4.68404e-10
-8.63005e-09
4.71347e-10
-9.10291e-09
4.72922e-10
-9.5765e-09
4.73075e-10
-1.0049e-08
4.71681e-10
-1.05186e-08
4.68671e-10
-1.09839e-08
4.64155e-10
-1.1443e-08
4.58166e-10
-1.18943e-08
4.50549e-10
-1.23365e-08
4.41368e-10
-1.27679e-08
4.30703e-10
-1.31869e-08
4.18592e-10
-1.35924e-08
4.05193e-10
-1.39826e-08
3.90495e-10
-1.43571e-08
3.74622e-10
-1.47144e-08
3.57674e-10
-1.50537e-08
3.39651e-10
-1.53741e-08
3.20725e-10
-1.56742e-08
3.00924e-10
-1.59537e-08
2.80321e-10
-1.62118e-08
2.59214e-10
-1.64479e-08
2.37687e-10
-1.6662e-08
2.15689e-10
-1.68539e-08
1.93353e-10
-1.70235e-08
1.70795e-10
-1.71705e-08
1.48058e-10
-1.72951e-08
1.25325e-10
-1.73973e-08
1.0278e-10
-1.74769e-08
8.03613e-11
-1.75349e-08
5.80584e-11
-1.75711e-08
3.60964e-11
-1.75852e-08
1.4534e-11
-1.75783e-08
-6.66808e-12
-1.75509e-08
-2.73392e-11
-1.75031e-08
-4.74325e-11
-1.74361e-08
-6.71281e-11
-1.73506e-08
-8.64001e-11
-1.72466e-08
-1.05081e-10
-1.71245e-08
-1.23147e-10
-1.6985e-08
-1.40548e-10
-1.68286e-08
-1.57157e-10
-1.66564e-08
-1.72956e-10
-1.64693e-08
-1.88016e-10
-1.62677e-08
-2.02407e-10
-1.60526e-08
-2.16159e-10
-1.58249e-08
-2.29156e-10
-1.55848e-08
-2.41281e-10
-1.53327e-08
-2.52655e-10
-1.50701e-08
-2.63433e-10
-1.47975e-08
-2.73499e-10
-1.45151e-08
-2.82725e-10
-1.42234e-08
-2.91263e-10
-1.39236e-08
-2.99289e-10
-1.36163e-08
-3.06732e-10
-1.3302e-08
-3.1349e-10
-1.29816e-08
-3.19615e-10
-1.2656e-08
-3.25175e-10
-1.23256e-08
-3.30173e-10
-1.19908e-08
-3.34636e-10
-1.16523e-08
-3.38592e-10
-1.13106e-08
-3.41981e-10
-1.09659e-08
-3.4475e-10
-1.06189e-08
-3.4699e-10
-1.02702e-08
-3.48832e-10
-9.92044e-09
-3.50297e-10
-9.57007e-09
-3.51342e-10
-9.2195e-09
-3.5199e-10
-8.86899e-09
-3.52307e-10
-8.51853e-09
-3.52294e-10
-8.1682e-09
-3.5189e-10
-7.81843e-09
-3.51046e-10
-7.46972e-09
-3.49766e-10
-7.12254e-09
-3.481e-10
-6.77738e-09
-3.46138e-10
-6.43476e-09
-3.43989e-10
-6.09491e-09
-3.41715e-10
-5.75782e-09
-3.39304e-10
-5.42353e-09
-3.36698e-10
-5.09225e-09
-3.33839e-10
-4.76422e-09
-3.30678e-10
-4.43964e-09
-3.27185e-10
-4.11867e-09
-3.23389e-10
-3.80146e-09
-3.19371e-10
-3.48791e-09
-3.15192e-10
-3.1777e-09
-3.10834e-10
-2.87057e-09
-3.06243e-10
-2.56663e-09
-3.01452e-10
-2.26626e-09
-2.96632e-10
-1.96979e-09
-2.92018e-10
-1.67735e-09
-2.87783e-10
-1.38893e-09
-2.83993e-10
-1.1045e-09
-2.8064e-10
-8.24015e-10
-2.77694e-10
-5.47326e-10
-2.75111e-10
-2.74285e-10
-2.7276e-10
-4.85652e-12
-2.70391e-10
2.60812e-10
-2.67684e-10
5.22635e-10
-2.64564e-10
7.80688e-10
-2.61144e-10
1.03504e-09
-2.57455e-10
1.28574e-09
-2.53514e-10
1.53284e-09
-2.4936e-10
1.77635e-09
-2.45084e-10
2.01633e-09
-2.4081e-10
2.25286e-09
-2.36635e-10
2.48607e-09
-2.32603e-10
2.71604e-09
-2.28713e-10
2.94274e-09
-2.24962e-10
3.16597e-09
-2.21377e-10
3.38551e-09
-2.17994e-10
3.60125e-09
-2.14811e-10
3.81328e-09
-2.1176e-10
4.02174e-09
-2.08712e-10
4.22668e-09
-2.05506e-10
4.42796e-09
-2.01984e-10
4.62525e-09
-1.98022e-10
4.8181e-09
-1.93552e-10
5.00609e-09
-1.88573e-10
5.1888e-09
-1.83139e-10
5.36592e-09
-1.7731e-10
5.53716e-09
-1.71103e-10
5.70212e-09
-1.64461e-10
5.86023e-09
-1.57281e-10
6.01072e-09
-1.49468e-10
6.15269e-09
-1.40971e-10
6.28519e-09
-1.31784e-10
6.40722e-09
-1.21902e-10
6.51778e-09
-1.11256e-10
6.61588e-09
-9.96773e-11
6.70061e-09
-8.69189e-11
6.77106e-09
-7.27402e-11
6.82622e-09
-5.70114e-11
6.86491e-09
-3.9761e-11
6.88582e-09
-2.11284e-11
6.88771e-09
-1.28271e-12
6.86936e-09
1.97641e-11
6.82952e-09
4.20125e-11
6.76698e-09
6.52735e-11
6.68061e-09
8.93005e-11
6.56934e-09
1.13869e-10
6.43223e-09
1.38868e-10
6.26843e-09
1.64317e-10
6.07717e-09
1.9031e-10
5.85778e-09
2.16933e-10
5.60983e-09
2.44201e-10
5.33314e-09
2.72027e-10
5.02778e-09
3.00212e-10
4.69403e-09
3.28437e-10
4.33259e-09
3.56269e-10
3.94488e-09
3.83189e-10
3.53296e-09
4.08651e-10
3.0992e-09
4.32062e-10
2.64618e-09
4.5268e-10
2.17728e-09
4.69603e-10
1.69712e-09
4.81898e-10
1.21115e-09
4.8856e-10
7.25553e-10
4.88274e-10
2.48441e-10
4.79507e-10
-2.09002e-10
4.603e-10
-6.33671e-10
4.28138e-10
-1.01139e-09
3.80369e-10
-1.32465e-09
3.14686e-10
-1.55139e-09
2.28455e-10
-1.66703e-09
1.17892e-10
-1.6469e-09
-1.85353e-11
-1.47082e-09
-1.75338e-10
-1.13546e-09
-3.35164e-10
-6.81718e-10
-4.53309e-10
-2.37236e-10
-4.42683e-10
-2.36791e-10
1.92257e-10
-8.24019e-13
-3.505e-10
2.96207e-10
-2.11365e-13
-3.00757e-10
3.07842e-10
-3.06779e-15
-1.48072e-10
2.51342e-10
2.2373e-14
6.18618e-12
1.41225e-10
6.67224e-15
1.38602e-10
-1.19747e-11
-1.43484e-14
2.4528e-10
-1.99754e-10
-2.06359e-14
3.29093e-10
-4.15353e-10
-4.16609e-15
3.94698e-10
-6.53768e-10
2.27772e-14
4.46624e-10
-9.11387e-10
3.98806e-14
4.88642e-10
-1.18559e-09
3.65122e-14
5.23781e-10
-1.4745e-09
1.39575e-14
5.54315e-10
-1.77688e-09
-2.17526e-14
5.81896e-10
-2.09201e-09
-6.41218e-14
6.07694e-10
-2.41953e-09
-1.06609e-13
6.32513e-10
-2.75927e-09
-1.43535e-13
6.56876e-10
-3.11121e-09
-1.7053e-13
6.81095e-10
-3.47532e-09
-1.82376e-13
7.05332e-10
-3.85156e-09
-1.72268e-13
7.29629e-10
-4.23984e-09
-1.36597e-13
7.53927e-10
-4.64009e-09
-8.0768e-14
7.78065e-10
-5.05215e-09
-1.80275e-14
8.01816e-10
-5.47567e-09
4.00799e-14
8.24929e-10
-5.91013e-09
9.1314e-14
8.47156e-10
-6.35488e-09
1.36549e-13
8.68251e-10
-6.8092e-09
1.69433e-13
8.87954e-10
-7.27232e-09
1.80455e-13
9.05985e-10
-7.74331e-09
1.64983e-13
9.2207e-10
-8.22105e-09
1.26617e-13
9.35963e-10
-8.70425e-09
8.43803e-14
9.47451e-10
-9.19155e-09
5.48614e-14
9.5634e-10
-9.68163e-09
3.11451e-14
9.62453e-10
-1.01732e-08
9.72221e-15
9.65623e-10
-1.06647e-08
-1.05464e-14
9.65711e-10
-1.11546e-08
-3.81286e-14
9.62667e-10
-1.16413e-08
-6.32157e-14
9.56473e-10
-1.21232e-08
-7.28099e-14
9.47089e-10
-1.25986e-08
-7.18969e-14
9.34541e-10
-1.30661e-08
-8.251e-14
9.18876e-10
-1.35241e-08
-8.81e-14
9.0011e-10
-1.39711e-08
-8.98141e-14
8.78374e-10
-1.44055e-08
-9.38688e-14
8.53759e-10
-1.48261e-08
-8.39151e-14
8.264e-10
-1.52315e-08
-8.53123e-14
7.9647e-10
-1.56206e-08
-7.13722e-14
7.64108e-10
-1.59923e-08
-6.68113e-14
7.2951e-10
-1.63455e-08
-6.57792e-14
6.92874e-10
-1.66793e-08
-5.6969e-14
6.5436e-10
-1.69929e-08
-7.14672e-14
6.14247e-10
-1.72854e-08
-7.31729e-14
5.72686e-10
-1.75562e-08
-5.67217e-14
5.29883e-10
-1.78047e-08
-4.09312e-14
4.86159e-10
-1.80307e-08
-4.07581e-14
4.41466e-10
-1.82339e-08
-3.42155e-14
3.96115e-10
-1.84139e-08
-2.62945e-14
3.5048e-10
-1.85709e-08
-3.68987e-14
3.04439e-10
-1.87044e-08
-3.01707e-14
2.58352e-10
-1.88146e-08
-2.19028e-14
2.12506e-10
-1.89018e-08
-3.33806e-14
1.66794e-10
-1.89659e-08
-3.01113e-14
1.21532e-10
-1.90072e-08
-2.61767e-14
7.68685e-11
-1.90261e-08
-3.21036e-14
3.2739e-11
-1.90227e-08
-1.5961e-14
-1.05729e-11
-1.89976e-08
5.82234e-15
-5.30125e-11
-1.89513e-08
1.25835e-14
-9.46014e-11
-1.88844e-08
1.92917e-14
-1.35045e-10
-1.87974e-08
1.51442e-14
-1.74375e-10
-1.86909e-08
-7.31277e-15
-2.12669e-10
-1.85652e-08
-2.13009e-14
-2.49549e-10
-1.84211e-08
-1.81844e-14
-2.84962e-10
-1.82591e-08
-7.05881e-15
-3.19195e-10
-1.808e-08
8.98294e-15
-3.52084e-10
-1.78845e-08
1.65774e-14
-3.83472e-10
-1.76735e-08
1.12157e-14
-4.13617e-10
-1.74474e-08
1.36551e-14
-4.42491e-10
-1.7207e-08
2.54654e-14
-4.69826e-10
-1.6953e-08
2.61504e-14
-4.95745e-10
-1.66862e-08
2.28698e-14
-5.20373e-10
-1.64071e-08
3.61453e-14
-5.43475e-10
-1.61163e-08
5.53518e-14
-5.6504e-10
-1.58147e-08
6.24806e-14
-5.85344e-10
-1.55028e-08
6.53995e-14
-6.04343e-10
-1.51812e-08
7.2974e-14
-6.21865e-10
-1.48505e-08
7.55725e-14
-6.38113e-10
-1.45115e-08
6.77186e-14
-6.53298e-10
-1.41649e-08
5.69351e-14
-6.67236e-10
-1.38112e-08
4.54272e-14
-6.79789e-10
-1.34511e-08
2.89539e-14
-6.91162e-10
-1.30852e-08
1.12725e-14
-7.01477e-10
-1.27139e-08
1.59566e-16
-7.10594e-10
-1.23379e-08
-6.09774e-15
-7.18508e-10
-1.19576e-08
-1.49379e-14
-7.25439e-10
-1.15736e-08
-2.783e-14
-7.31477e-10
-1.11864e-08
-4.14662e-14
-7.36531e-10
-1.07965e-08
-5.57336e-14
-7.40617e-10
-1.04044e-08
-7.38514e-14
-7.43866e-10
-1.00104e-08
-9.74642e-14
-7.46311e-10
-9.61504e-09
-1.24859e-13
-7.47898e-10
-9.21851e-09
-1.50955e-13
-7.48655e-10
-8.82118e-09
-1.67e-13
-7.48663e-10
-8.42346e-09
-1.64329e-13
-7.47923e-10
-8.02575e-09
-1.42829e-13
-7.46418e-10
-7.62847e-09
-1.14823e-13
-7.44244e-10
-7.23205e-09
-9.66452e-14
-7.41538e-10
-6.8369e-09
-9.46018e-14
-7.38335e-10
-6.44327e-09
-1.00644e-13
-7.34587e-10
-6.05128e-09
-1.02637e-13
-7.30281e-10
-5.66112e-09
-9.67194e-14
-7.2547e-10
-5.27306e-09
-8.74807e-14
-7.20223e-10
-4.88739e-09
-7.80636e-14
-7.1461e-10
-4.50438e-09
-6.46407e-14
-7.08708e-10
-4.12422e-09
-4.20579e-14
-7.02562e-10
-3.74708e-09
-1.13352e-14
-6.96155e-10
-3.37305e-09
2.21878e-14
-6.89444e-10
-3.0022e-09
5.75062e-14
-6.82437e-10
-2.63463e-09
1.00368e-13
-6.75193e-10
-2.27048e-09
1.53625e-13
-6.67761e-10
-1.90988e-09
2.05994e-13
-6.60164e-10
-1.55298e-09
2.34559e-13
-6.52431e-10
-1.19987e-09
2.22174e-13
-6.4463e-10
-8.50658e-10
1.72858e-13
-6.36837e-10
-5.05347e-10
1.08341e-13
-6.29086e-10
-1.63873e-10
4.89508e-14
-6.214e-10
1.73769e-10
-7.02891e-16
-6.13717e-10
5.07438e-10
-4.67743e-14
-6.05965e-10
8.37024e-10
-9.05616e-14
-5.98203e-10
1.16252e-09
-1.21954e-13
-5.90402e-10
1.48395e-09
-1.31103e-13
-5.82572e-10
1.80135e-09
-1.2081e-13
-5.74799e-10
2.11474e-09
-1.01945e-13
-5.67101e-10
2.42408e-09
-8.10919e-14
-5.59501e-10
2.72935e-09
-5.54942e-14
-5.52018e-10
3.03054e-09
-2.07101e-14
-5.44645e-10
3.32767e-09
1.96753e-14
-5.37344e-10
3.62078e-09
5.47274e-14
-5.30064e-10
3.90987e-09
7.71763e-14
-5.22775e-10
4.19494e-09
9.13891e-14
-5.15468e-10
4.47596e-09
1.07713e-13
-5.08133e-10
4.75288e-09
1.29122e-13
-5.00731e-10
5.02559e-09
1.45327e-13
-4.93211e-10
5.29399e-09
1.4071e-13
-4.85529e-10
5.55795e-09
1.07489e-13
-4.7765e-10
5.8174e-09
5.17835e-14
-4.69532e-10
6.07219e-09
-1.06094e-14
-4.61099e-10
6.3221e-09
-6.2059e-14
-4.52251e-10
6.56681e-09
-8.81693e-14
-4.42875e-10
6.80597e-09
-8.06827e-14
-4.32863e-10
7.0392e-09
-4.15846e-14
-4.22104e-10
7.26609e-09
1.351e-14
-4.10501e-10
7.4862e-09
5.94905e-14
-3.97975e-10
7.699e-09
7.54146e-14
-3.84462e-10
7.90382e-09
5.90006e-14
-3.69873e-10
8.09997e-09
2.87627e-14
-3.5406e-10
8.28669e-09
9.55468e-15
-3.36818e-10
8.46318e-09
1.19853e-14
-3.17949e-10
8.62859e-09
2.27416e-14
-2.97315e-10
8.78191e-09
1.48855e-14
-2.74846e-10
8.92202e-09
-2.90054e-14
-2.50468e-10
9.04777e-09
-9.935e-14
-2.24047e-10
9.15802e-09
-1.62836e-13
-1.95392e-10
9.25163e-09
-1.84982e-13
-1.64343e-10
9.32743e-09
-1.53852e-13
-1.30839e-10
9.38409e-09
-8.55009e-14
-9.4919e-11
9.42016e-09
-7.83328e-15
-5.6636e-11
9.43416e-09
6.08936e-14
-1.59764e-11
9.42464e-09
1.19108e-13
2.72017e-11
9.39027e-09
1.70367e-13
7.30569e-11
9.32971e-09
2.08969e-13
1.21602e-10
9.24163e-09
2.19399e-13
1.72729e-10
9.12475e-09
1.88649e-13
2.26267e-10
8.97786e-09
1.17748e-13
2.82039e-10
8.79981e-09
2.19904e-14
3.39871e-10
8.58962e-09
-7.78895e-14
3.99557e-10
8.34643e-09
-1.64844e-13
4.60808e-10
8.06962e-09
-2.28134e-13
5.23216e-10
7.75874e-09
-2.59477e-13
5.86253e-10
7.4136e-09
-2.50821e-13
6.49307e-10
7.03428e-09
-2.01206e-13
7.11705e-10
6.62128e-09
-1.24689e-13
7.72707e-10
6.17563e-09
-4.1985e-14
8.31501e-10
5.69899e-09
3.8591e-14
8.87187e-10
5.19348e-09
1.19716e-13
9.3871e-10
4.66166e-09
1.92378e-13
9.84743e-10
4.10677e-09
2.37492e-13
1.02368e-09
3.53312e-09
2.5698e-13
1.05374e-09
2.94623e-09
2.68522e-13
1.07299e-09
2.35268e-09
2.63237e-13
1.07909e-09
1.76039e-09
2.21895e-13
1.06907e-09
1.17893e-09
1.69026e-13
1.03919e-09
6.19715e-10
1.33321e-13
9.85157e-10
9.62309e-11
9.43478e-14
9.02469e-10
-3.74876e-10
5.85062e-14
7.85566e-10
-7.74529e-10
6.5393e-14
6.28411e-10
-1.08216e-09
6.49502e-14
4.25347e-10
-1.27446e-09
1.97714e-14
1.73503e-10
-1.32586e-09
1.725e-14
-1.23125e-10
-1.21314e-09
4.99289e-14
-4.46572e-10
-9.17383e-10
1.82316e-14
-7.48761e-10
-4.43842e-10
4.1639e-14
-9.16761e-10
7.04813e-14
-6.78756e-10
1.92596e-10
-3.4979e-10
2.96103e-10
-3.01331e-10
3.07672e-10
-1.48565e-10
2.51332e-10
5.86812e-12
1.41309e-10
1.38403e-10
-1.18234e-11
2.4513e-10
-1.99549e-10
3.28931e-10
-4.15161e-10
3.94487e-10
-6.53668e-10
4.4637e-10
-9.11406e-10
4.88386e-10
-1.1857e-09
5.23575e-10
-1.47467e-09
5.54201e-10
-1.77708e-09
5.81903e-10
-2.09221e-09
6.07842e-10
-2.41969e-09
6.32804e-10
-2.75939e-09
6.57293e-10
-3.11126e-09
6.81604e-10
-3.47527e-09
7.05884e-10
-3.8514e-09
7.30161e-10
-4.2396e-09
7.54363e-10
-4.63981e-09
7.78334e-10
-5.05187e-09
8.01883e-10
-5.4754e-09
8.24803e-10
-5.90986e-09
8.46886e-10
-6.35463e-09
8.67902e-10
-6.80901e-09
8.87585e-10
-7.27223e-09
9.0564e-10
-7.74331e-09
9.21783e-10
-8.22107e-09
9.35766e-10
-8.70422e-09
9.47344e-10
-9.19149e-09
9.56306e-10
-9.68156e-09
9.62479e-10
-1.01731e-08
9.65686e-10
-1.06646e-08
9.65794e-10
-1.11545e-08
9.6278e-10
-1.16412e-08
9.56626e-10
-1.21231e-08
9.47261e-10
-1.25986e-08
9.34708e-10
-1.30661e-08
9.19071e-10
-1.35241e-08
9.00309e-10
-1.3971e-08
8.78564e-10
-1.44054e-08
8.53959e-10
-1.4826e-08
8.2655e-10
-1.52314e-08
7.96644e-10
-1.56205e-08
7.64247e-10
-1.59922e-08
7.29611e-10
-1.63454e-08
6.9301e-10
-1.66793e-08
6.54422e-10
-1.69928e-08
6.14324e-10
-1.72852e-08
5.72813e-10
-1.7556e-08
5.29953e-10
-1.78046e-08
4.86161e-10
-1.80306e-08
4.41523e-10
-1.82338e-08
3.96175e-10
-1.84139e-08
3.50397e-10
-1.85707e-08
3.04442e-10
-1.87042e-08
2.58434e-10
-1.88145e-08
2.12438e-10
-1.89016e-08
1.66805e-10
-1.89658e-08
1.21655e-10
-1.90072e-08
7.68417e-11
-1.9026e-08
3.27024e-11
-1.90226e-08
-1.05028e-11
-1.89975e-08
-5.29915e-11
-1.89512e-08
-9.46149e-11
-1.88843e-08
-1.3505e-10
-1.87974e-08
-1.74385e-10
-1.86908e-08
-2.12599e-10
-1.85651e-08
-2.49443e-10
-1.84209e-08
-2.84918e-10
-1.82589e-08
-3.19081e-10
-1.80798e-08
-3.51893e-10
-1.78844e-08
-3.83427e-10
-1.76733e-08
-4.13675e-10
-1.74472e-08
-4.42461e-10
-1.72069e-08
-4.69835e-10
-1.69529e-08
-4.95942e-10
-1.6686e-08
-5.20602e-10
-1.64069e-08
-5.4363e-10
-1.61162e-08
-5.65229e-10
-1.58146e-08
-5.85579e-10
-1.55027e-08
-6.04551e-10
-1.5181e-08
-6.22091e-10
-1.48504e-08
-6.38369e-10
-1.45114e-08
-6.53462e-10
-1.41647e-08
-6.67305e-10
-1.38111e-08
-6.79917e-10
-1.3451e-08
-6.91346e-10
-1.3085e-08
-7.01549e-10
-1.27138e-08
-7.10532e-10
-1.23378e-08
-7.1845e-10
-1.19575e-08
-7.25414e-10
-1.15735e-08
-7.31401e-10
-1.11864e-08
-7.36397e-10
-1.07965e-08
-7.40483e-10
-1.04044e-08
-7.43715e-10
-1.00104e-08
-7.46092e-10
-9.61503e-09
-7.47637e-10
-9.21848e-09
-7.48403e-10
-8.82111e-09
-7.48394e-10
-8.42336e-09
-7.47605e-10
-8.02566e-09
-7.46101e-10
-7.62844e-09
-7.4398e-10
-7.23207e-09
-7.4128e-10
-6.83692e-09
-7.37991e-10
-6.44323e-09
-7.34148e-10
-6.05119e-09
-7.29828e-10
-5.66101e-09
-7.25078e-10
-5.27292e-09
-7.19916e-10
-4.88722e-09
-7.14393e-10
-4.50415e-09
-7.08591e-10
-4.12396e-09
-7.02557e-10
-3.74682e-09
-6.96277e-10
-3.37281e-09
-6.89717e-10
-3.00195e-09
-6.82867e-10
-2.63434e-09
-6.75734e-10
-2.27016e-09
-6.68335e-10
-1.90963e-09
-6.60713e-10
-1.55288e-09
-6.52943e-10
-1.19993e-09
-6.45094e-10
-8.50796e-10
-6.37212e-10
-5.0551e-10
-6.29321e-10
-1.64051e-10
-6.21471e-10
1.73555e-10
-6.13634e-10
5.072e-10
-6.05746e-10
8.36835e-10
-5.9786e-10
1.16245e-09
-5.89964e-10
1.484e-09
-5.82102e-10
1.80148e-09
-5.74377e-10
2.11489e-09
-5.66793e-10
2.42424e-09
-5.59332e-10
2.72951e-09
-5.5198e-10
3.0307e-09
-5.4472e-10
3.32782e-09
-5.37515e-10
3.6209e-09
-5.30311e-10
3.90999e-09
-5.23063e-10
4.19509e-09
-5.15751e-10
4.47612e-09
-5.08372e-10
4.753e-09
-5.00914e-10
5.02562e-09
-4.93352e-10
5.29389e-09
-4.85647e-10
5.55778e-09
-4.77756e-10
5.81721e-09
-4.6962e-10
6.07206e-09
-4.61157e-10
6.32207e-09
-4.52267e-10
6.56692e-09
-4.4284e-10
6.80621e-09
-4.32779e-10
7.0395e-09
-4.22003e-10
7.26637e-09
-4.10445e-10
7.48636e-09
-3.98028e-10
7.69901e-09
-3.8464e-10
7.90376e-09
-3.70117e-10
8.09994e-09
-3.54261e-10
8.28674e-09
-3.36894e-10
8.46328e-09
-3.17893e-10
8.62862e-09
-2.97192e-10
8.78181e-09
-2.74719e-10
8.92181e-09
-2.50339e-10
9.04757e-09
-2.23864e-10
9.15797e-09
-1.95116e-10
9.25179e-09
-1.64014e-10
9.32774e-09
-1.30574e-10
9.38443e-09
-9.48419e-11
9.42046e-09
-5.67949e-11
9.43439e-09
-1.63244e-11
9.42483e-09
2.67596e-11
9.39042e-09
7.26005e-11
9.32976e-09
1.21173e-10
9.24154e-09
1.72354e-10
9.12449e-09
2.25988e-10
8.97746e-09
2.81919e-10
8.79937e-09
3.39969e-10
8.58923e-09
3.99898e-10
8.34619e-09
4.61357e-10
8.06956e-09
5.23882e-10
7.75885e-09
5.86918e-10
7.41382e-09
6.4986e-10
7.03456e-09
7.1207e-10
6.6216e-09
7.72862e-10
6.17603e-09
8.3147e-10
5.69947e-09
8.87007e-10
5.19393e-09
9.38384e-10
4.66192e-09
9.84255e-10
4.10687e-09
1.02306e-09
3.53323e-09
1.05309e-09
2.94636e-09
1.07238e-09
2.35267e-09
1.07854e-09
1.76025e-09
1.06862e-09
1.17881e-09
1.03888e-09
6.19609e-10
9.84918e-10
9.61408e-11
9.02265e-10
-3.74931e-10
7.85475e-10
-7.74746e-10
6.284e-10
-1.08249e-09
4.25369e-10
-1.27445e-09
1.73607e-10
-1.32575e-09
-1.23169e-10
-1.21342e-09
-4.46942e-10
-9.17357e-10
-7.48953e-10
-4.436e-10
-9.16347e-10
-6.78707e-10
1.28479e-10
-4.77912e-13
-4.76386e-10
1.34428e-10
-3.9787e-13
-3.09829e-10
7.03164e-11
-2.09151e-13
-8.44927e-11
-3.7355e-11
-1.04715e-13
1.13903e-10
-1.78313e-10
-5.53379e-14
2.79812e-10
-3.47433e-10
-4.08671e-14
4.14715e-10
-5.41053e-10
-4.20178e-14
5.2305e-10
-7.56149e-10
-4.48654e-14
6.10131e-10
-9.90222e-10
-4.47948e-14
6.81002e-10
-1.24128e-09
-4.34334e-14
7.39946e-10
-1.50774e-09
-4.2831e-14
7.90415e-10
-1.7884e-09
-4.26931e-14
8.35073e-10
-2.0824e-09
-4.12022e-14
8.75921e-10
-2.38917e-09
-3.67592e-14
9.14423e-10
-2.70839e-09
-2.93252e-14
9.51606e-10
-3.03985e-09
-2.04648e-14
9.88152e-10
-3.38344e-09
-1.18208e-14
1.02447e-09
-3.73905e-09
-3.88913e-15
1.06074e-09
-4.10659e-09
3.49443e-15
1.09701e-09
-4.48592e-09
9.61155e-15
1.13314e-09
-4.87688e-09
1.27897e-14
1.1689e-09
-5.27922e-09
1.26453e-14
1.204e-09
-5.69253e-09
1.22935e-14
1.2381e-09
-6.11629e-09
1.7346e-14
1.27084e-09
-6.54985e-09
3.10937e-14
1.30184e-09
-6.99254e-09
4.9341e-14
1.33071e-09
-7.44355e-09
6.40049e-14
1.35706e-09
-7.90194e-09
7.10576e-14
1.3805e-09
-8.36664e-09
7.10747e-14
1.4007e-09
-8.83645e-09
6.74282e-14
1.41733e-09
-9.31011e-09
6.43144e-14
1.4301e-09
-9.78636e-09
5.97086e-14
1.43877e-09
-1.02639e-08
4.99007e-14
1.44311e-09
-1.07412e-08
3.51831e-14
1.44296e-09
-1.12169e-08
1.85128e-14
1.4382e-09
-1.16894e-08
5.85971e-15
1.4288e-09
-1.21572e-08
-3.63263e-15
1.41474e-09
-1.26187e-08
-1.25147e-14
1.39599e-09
-1.30727e-08
-1.96608e-14
1.37265e-09
-1.35175e-08
-2.89361e-14
1.34477e-09
-1.39516e-08
-3.92194e-14
1.31249e-09
-1.43739e-08
-4.58508e-14
1.27596e-09
-1.47827e-08
-5.60832e-14
1.23536e-09
-1.51771e-08
-5.703e-14
1.19091e-09
-1.55557e-08
-5.94549e-14
1.14287e-09
-1.59175e-08
-6.71886e-14
1.09147e-09
-1.62616e-08
-6.28569e-14
1.03699e-09
-1.65869e-08
-7.36732e-14
9.79779e-10
-1.68927e-08
-7.82623e-14
9.20097e-10
-1.71782e-08
-6.90802e-14
8.58263e-10
-1.74425e-08
-6.99039e-14
7.94534e-10
-1.76855e-08
-7.2326e-14
7.29263e-10
-1.79066e-08
-5.94905e-14
6.6274e-10
-1.81053e-08
-5.31429e-14
5.95138e-10
-1.82817e-08
-7.38762e-14
5.2684e-10
-1.84353e-08
-6.09735e-14
4.58159e-10
-1.8566e-08
-4.05619e-14
3.89293e-10
-1.86741e-08
-6.36388e-14
3.20563e-10
-1.87594e-08
-5.33216e-14
2.52162e-10
-1.8822e-08
-2.73034e-14
1.84238e-10
-1.88624e-08
-4.88492e-14
1.17086e-10
-1.88805e-08
-4.73506e-14
5.08702e-11
-1.88767e-08
-1.26429e-14
-1.43222e-11
-1.88514e-08
-6.0683e-15
-7.82594e-11
-1.88051e-08
-5.84152e-15
-1.40826e-10
-1.87382e-08
2.05736e-15
-2.01982e-10
-1.86515e-08
1.14888e-15
-2.61473e-10
-1.8545e-08
6.95931e-15
-3.19106e-10
-1.84195e-08
8.78551e-15
-3.74944e-10
-1.82757e-08
1.05317e-15
-4.28938e-10
-1.81141e-08
2.23555e-14
-4.80911e-10
-1.79351e-08
4.8183e-14
-5.30878e-10
-1.77399e-08
2.74955e-14
-5.7892e-10
-1.75289e-08
7.52954e-15
-6.24973e-10
-1.73025e-08
2.73695e-14
-6.68987e-10
-1.70616e-08
2.9285e-14
-7.1095e-10
-1.68069e-08
-1.0704e-15
-7.50776e-10
-1.6539e-08
-3.66224e-15
-7.88453e-10
-1.62584e-08
2.02499e-14
-8.24095e-10
-1.59661e-08
2.44732e-14
-8.57694e-10
-1.56626e-08
1.83841e-14
-8.89144e-10
-1.53483e-08
2.2905e-14
-9.18559e-10
-1.50241e-08
2.0696e-14
-9.46153e-10
-1.46907e-08
1.36091e-14
-9.71897e-10
-1.43484e-08
2.42216e-14
-9.95661e-10
-1.3998e-08
3.31116e-14
-1.01754e-09
-1.36402e-08
1.23524e-14
-1.0377e-09
-1.32756e-08
-9.91697e-15
-1.05606e-09
-1.29046e-08
-9.63023e-17
-1.07257e-09
-1.25278e-08
1.74058e-14
-1.08737e-09
-1.21458e-08
1.05858e-14
-1.10064e-09
-1.17592e-08
-4.57868e-15
-1.11235e-09
-1.13684e-08
-5.87231e-15
-1.12248e-09
-1.09738e-08
-6.06752e-15
-1.13119e-09
-1.05762e-08
-1.89732e-14
-1.13862e-09
-1.01758e-08
-3.32647e-14
-1.14472e-09
-9.77307e-09
-4.16976e-14
-1.1494e-09
-9.36849e-09
-5.46047e-14
-1.15278e-09
-8.96242e-09
-7.16504e-14
-1.15499e-09
-8.55518e-09
-7.58111e-14
-1.15606e-09
-8.14719e-09
-6.31276e-14
-1.15596e-09
-7.73892e-09
-4.89882e-14
-1.15478e-09
-7.3308e-09
-4.05997e-14
-1.15265e-09
-6.92314e-09
-2.84634e-14
-1.14958e-09
-6.51622e-09
-8.745e-15
-1.14556e-09
-6.11037e-09
7.39138e-15
-1.14064e-09
-5.70586e-09
1.13834e-14
-1.13498e-09
-5.30296e-09
7.78597e-15
-1.12864e-09
-4.90194e-09
3.04843e-15
-1.1216e-09
-4.50309e-09
-3.11449e-15
-1.11388e-09
-4.10663e-09
-1.10887e-14
-1.10556e-09
-3.71272e-09
-1.69747e-14
-1.0967e-09
-3.32155e-09
-1.95158e-14
-1.08733e-09
-2.9333e-09
-2.27649e-14
-1.07748e-09
-2.54815e-09
-2.66674e-14
-1.06725e-09
-2.16621e-09
-2.21829e-14
-1.05672e-09
-1.78759e-09
-2.61618e-15
-1.04592e-09