/*--------------------------------*- C++ -*----------------------------------*\
  =========                 |
  \\      /  F ield         | OpenFOAM: The Open Source CFD Toolbox
   \\    /   O peration     | Website:  https://openfoam.org
    \\  /    A nd           | Version:  8
     \\/     M anipulation  |
\*---------------------------------------------------------------------------*/
FoamFile
{
    version     2.0;
    format      ascii;
    class       volScalarField;
    location    "2200";
    object      T;
}
// * * * * * * * * * * * * * * * * * * * * * * * * * * * * * * * * * * * * * //

dimensions      [0 0 0 1 0 0 0];

internalField   nonuniform List<scalar> 
46000
(
311.093
310.458
309.806
309.321
308.951
308.655
308.41
308.199
308.015
307.853
307.707
307.575
307.456
307.347
307.248
307.156
307.072
306.995
306.923
306.857
306.796
306.739
306.687
306.638
306.593
306.55
306.511
306.474
306.44
306.408
306.378
306.349
306.323
306.298
306.274
306.251
306.23
306.21
306.191
306.173
306.156
306.14
306.124
306.11
306.096
306.083
306.071
306.059
306.049
306.039
306.03
306.021
306.013
306.007
306.001
305.995
305.991
305.987
305.984
305.982
305.981
305.981
305.981
305.982
305.984
305.987
305.99
305.995
306
306.006
306.013
306.021
306.03
306.04
306.05
306.062
306.074
306.087
306.1
306.115
306.13
306.146
306.162
306.18
306.197
306.216
306.235
306.254
306.274
306.295
306.316
306.337
306.359
306.381
306.403
306.426
306.449
306.472
306.495
306.519
306.542
306.566
306.59
306.613
306.637
306.661
306.684
306.708
306.731
306.754
306.777
306.8
306.823
306.845
306.867
306.889
306.91
306.932
306.953
306.973
306.994
307.014
307.034
307.053
307.073
307.092
307.11
307.129
307.147
307.166
307.184
307.201
307.219
307.237
307.254
307.272
307.29
307.308
307.326
307.344
307.362
307.381
307.4
307.42
307.44
307.46
307.482
307.504
307.526
307.55
307.575
307.6
307.627
307.655
307.684
307.715
307.747
307.781
307.816
307.853
307.892
307.933
307.976
308.021
308.068
308.117
308.167
308.22
308.276
308.334
308.395
308.458
308.524
308.592
308.663
308.737
308.814
308.894
308.976
309.061
309.148
309.238
309.33
309.425
309.521
309.62
309.721
309.824
309.929
310.036
310.145
310.258
310.377
310.504
310.644
310.801
310.993
311.243
311.562
311.832
311.093
310.459
309.807
309.321
308.951
308.655
308.41
308.199
308.015
307.852
307.707
307.575
307.456
307.347
307.248
307.156
307.072
306.995
306.923
306.857
306.796
306.739
306.687
306.638
306.593
306.55
306.511
306.474
306.44
306.408
306.378
306.349
306.323
306.298
306.274
306.251
306.23
306.21
306.191
306.173
306.156
306.14
306.124
306.11
306.096
306.083
306.071
306.059
306.049
306.039
306.03
306.021
306.014
306.007
306.001
305.995
305.991
305.987
305.984
305.983
305.981
305.981
305.981
305.982
305.984
305.987
305.99
305.995
306
306.006
306.013
306.021
306.03
306.04
306.05
306.062
306.074
306.087
306.1
306.115
306.13
306.146
306.162
306.18
306.197
306.216
306.235
306.254
306.274
306.295
306.316
306.337
306.359
306.381
306.403
306.426
306.449
306.472
306.495
306.519
306.542
306.566
306.59
306.613
306.637
306.661
306.684
306.708
306.731
306.754
306.777
306.8
306.823
306.845
306.867
306.889
306.91
306.932
306.953
306.973
306.994
307.014
307.034
307.053
307.073
307.092
307.11
307.129
307.147
307.166
307.184
307.201
307.219
307.237
307.254
307.272
307.29
307.308
307.326
307.344
307.362
307.381
307.4
307.42
307.44
307.46
307.482
307.504
307.526
307.55
307.575
307.6
307.627
307.655
307.684
307.715
307.747
307.781
307.816
307.853
307.892
307.933
307.976
308.021
308.068
308.117
308.167
308.221
308.276
308.334
308.395
308.458
308.524
308.592
308.663
308.737
308.814
308.894
308.976
309.061
309.148
309.238
309.33
309.425
309.521
309.62
309.721
309.824
309.929
310.036
310.145
310.258
310.377
310.504
310.644
310.801
310.993
311.243
311.562
311.832
307.875
307.295
306.806
306.438
306.15
305.919
305.726
305.563
305.422
305.299
305.19
305.093
305.007
304.93
304.86
304.798
304.742
304.692
304.646
304.606
304.569
304.536
304.506
304.479
304.455
304.433
304.413
304.395
304.379
304.364
304.351
304.339
304.327
304.316
304.306
304.297
304.288
304.279
304.271
304.263
304.255
304.248
304.24
304.233
304.226
304.218
304.211
304.204
304.198
304.191
304.184
304.178
304.171
304.165
304.159
304.154
304.148
304.143
304.138
304.133
304.129
304.125
304.121
304.118
304.115
304.112
304.11
304.108
304.107
304.106
304.105
304.105
304.106
304.107
304.109
304.111
304.113
304.116
304.119
304.123
304.128
304.133
304.138
304.144
304.15
304.157
304.164
304.171
304.179
304.187
304.196
304.205
304.215
304.224
304.234
304.245
304.256
304.267
304.278
304.289
304.301
304.313
304.326
304.338
304.351
304.364
304.377
304.39
304.403
304.417
304.43
304.444
304.458
304.472
304.486
304.501
304.515
304.529
304.544
304.558
304.573
304.588
304.603
304.618
304.633
304.649
304.664
304.68
304.695
304.711
304.727
304.744
304.76
304.777
304.794
304.811
304.829
304.847
304.865
304.884
304.904
304.924
304.944
304.965
304.987
305.01
305.033
305.057
305.082
305.108
305.135
305.164
305.193
305.224
305.256
305.29
305.325
305.362
305.4
305.44
305.482
305.526
305.572
305.62
305.671
305.723
305.778
305.835
305.895
305.958
306.023
306.09
306.161
306.234
306.31
306.389
306.471
306.556
306.644
306.734
306.827
306.922
307.02
307.12
307.222
307.325
307.43
307.537
307.645
307.753
307.864
307.977
308.093
308.216
308.351
308.508
308.696
308.938
309.264
309.607
307.875
307.295
306.806
306.438
306.15
305.919
305.726
305.563
305.422
305.299
305.19
305.093
305.007
304.93
304.86
304.798
304.742
304.692
304.646
304.606
304.569
304.536
304.506
304.479
304.455
304.433
304.413
304.395
304.379
304.364
304.351
304.339
304.327
304.316
304.306
304.297
304.288
304.279
304.271
304.263
304.255
304.248
304.24
304.233
304.226
304.218
304.211
304.204
304.198
304.191
304.184
304.178
304.171
304.165
304.159
304.154
304.148
304.143
304.138
304.133
304.129
304.125
304.121
304.118
304.115
304.112
304.11
304.108
304.107
304.106
304.105
304.105
304.106
304.107
304.109
304.111
304.113
304.116
304.119
304.123
304.128
304.133
304.138
304.144
304.15
304.157
304.164
304.171
304.179
304.188
304.196
304.205
304.215
304.224
304.235
304.245
304.256
304.267
304.278
304.289
304.301
304.313
304.326
304.338
304.351
304.364
304.377
304.39
304.403
304.417
304.43
304.444
304.458
304.472
304.486
304.501
304.515
304.529
304.544
304.559
304.573
304.588
304.603
304.618
304.633
304.649
304.664
304.68
304.695
304.711
304.727
304.744
304.76
304.777
304.794
304.811
304.829
304.847
304.865
304.884
304.904
304.924
304.944
304.965
304.987
305.01
305.033
305.057
305.082
305.108
305.136
305.164
305.193
305.224
305.256
305.29
305.325
305.362
305.4
305.44
305.482
305.526
305.572
305.62
305.671
305.723
305.778
305.835
305.895
305.958
306.023
306.09
306.161
306.234
306.31
306.389
306.471
306.556
306.644
306.734
306.827
306.922
307.02
307.12
307.222
307.325
307.43
307.537
307.645
307.753
307.864
307.977
308.093
308.216
308.351
308.508
308.696
308.938
309.264
309.607
305.905
305.64
305.376
305.145
304.945
304.773
304.623
304.493
304.379
304.277
304.188
304.108
304.037
303.973
303.916
303.866
303.82
303.78
303.744
303.713
303.684
303.659
303.637
303.618
303.601
303.586
303.572
303.561
303.55
303.541
303.533
303.526
303.519
303.513
303.508
303.502
303.497
303.493
303.488
303.483
303.479
303.474
303.469
303.464
303.46
303.455
303.449
303.444
303.439
303.433
303.428
303.422
303.417
303.411
303.405
303.4
303.394
303.389
303.383
303.378
303.373
303.368
303.364
303.359
303.355
303.351
303.347
303.343
303.34
303.338
303.335
303.333
303.331
303.33
303.329
303.328
303.328
303.328
303.329
303.33
303.331
303.333
303.335
303.338
303.341
303.344
303.348
303.352
303.356
303.361
303.366
303.372
303.378
303.384
303.39
303.397
303.404
303.412
303.42
303.428
303.436
303.445
303.454
303.463
303.472
303.482
303.492
303.502
303.513
303.523
303.534
303.545
303.556
303.568
303.579
303.591
303.603
303.616
303.628
303.641
303.654
303.667
303.68
303.694
303.707
303.721
303.736
303.75
303.765
303.78
303.795
303.811
303.826
303.843
303.859
303.876
303.894
303.912
303.93
303.949
303.968
303.988
304.009
304.03
304.052
304.075
304.099
304.124
304.149
304.176
304.203
304.232
304.262
304.294
304.326
304.361
304.396
304.434
304.473
304.513
304.556
304.601
304.647
304.696
304.747
304.8
304.855
304.913
304.973
305.036
305.101
305.169
305.24
305.313
305.389
305.468
305.55
305.634
305.721
305.81
305.902
305.996
306.092
306.19
306.289
306.39
306.491
306.594
306.696
306.799
306.901
307.005
307.109
307.216
307.328
307.449
307.582
307.732
307.905
308.083
305.905
305.64
305.376
305.145
304.945
304.773
304.623
304.493
304.379
304.277
304.188
304.108
304.037
303.973
303.916
303.866
303.82
303.78
303.744
303.713
303.684
303.659
303.637
303.618
303.601
303.586
303.572
303.561
303.55
303.541
303.533
303.526
303.519
303.513
303.508
303.502
303.497
303.493
303.488
303.483
303.479
303.474
303.469
303.464
303.46
303.455
303.449
303.444
303.439
303.433
303.428
303.422
303.417
303.411
303.405
303.4
303.394
303.389
303.384
303.378
303.373
303.368
303.364
303.359
303.355
303.351
303.347
303.344
303.34
303.338
303.335
303.333
303.331
303.33
303.329
303.328
303.328
303.328
303.329
303.33
303.331
303.333
303.335
303.338
303.341
303.344
303.348
303.352
303.356
303.361
303.366
303.372
303.378
303.384
303.39
303.397
303.405
303.412
303.42
303.428
303.436
303.445
303.454
303.463
303.472
303.482
303.492
303.502
303.513
303.523
303.534
303.545
303.556
303.568
303.579
303.591
303.603
303.616
303.628
303.641
303.654
303.667
303.68
303.694
303.707
303.721
303.736
303.75
303.765
303.78
303.795
303.811
303.826
303.843
303.859
303.876
303.894
303.912
303.93
303.949
303.968
303.988
304.009
304.03
304.052
304.075
304.099
304.124
304.149
304.176
304.203
304.232
304.262
304.294
304.326
304.361
304.396
304.434
304.473
304.513
304.556
304.601
304.647
304.696
304.747
304.8
304.855
304.913
304.973
305.036
305.101
305.169
305.24
305.313
305.389
305.468
305.55
305.634
305.721
305.81
305.902
305.996
306.092
306.19
306.289
306.39
306.491
306.594
306.696
306.799
306.901
307.005
307.109
307.216
307.328
307.449
307.582
307.732
307.905
308.083
304.717
304.607
304.468
304.324
304.186
304.058
303.942
303.837
303.742
303.657
303.582
303.514
303.453
303.398
303.35
303.306
303.268
303.234
303.204
303.177
303.154
303.133
303.116
303.1
303.087
303.076
303.066
303.058
303.05
303.044
303.039
303.034
303.031
303.027
303.024
303.021
303.018
303.015
303.013
303.01
303.007
303.004
303.001
302.997
302.994
302.99
302.986
302.981
302.977
302.972
302.968
302.963
302.958
302.952
302.947
302.942
302.936
302.931
302.926
302.92
302.915
302.91
302.905
302.9
302.895
302.89
302.886
302.882
302.878
302.874
302.871
302.868
302.865
302.863
302.861
302.859
302.857
302.856
302.856
302.855
302.855
302.856
302.856
302.857
302.859
302.861
302.863
302.865
302.868
302.872
302.875
302.879
302.883
302.888
302.893
302.898
302.904
302.91
302.916
302.922
302.929
302.936
302.944
302.951
302.959
302.968
302.976
302.985
302.994
303.003
303.013
303.023
303.033
303.043
303.053
303.064
303.075
303.086
303.098
303.11
303.122
303.134
303.146
303.159
303.172
303.185
303.199
303.213
303.227
303.241
303.256
303.271
303.287
303.303
303.319
303.336
303.353
303.37
303.389
303.407
303.427
303.446
303.467
303.488
303.51
303.533
303.557
303.582
303.607
303.634
303.662
303.691
303.721
303.752
303.785
303.82
303.855
303.893
303.932
303.973
304.016
304.06
304.107
304.156
304.207
304.26
304.315
304.373
304.433
304.496
304.561
304.629
304.699
304.772
304.848
304.926
305.007
305.09
305.176
305.264
305.355
305.447
305.541
305.636
305.733
305.83
305.928
306.026
306.124
306.221
306.317
306.412
306.506
306.6
306.692
306.785
306.878
306.966
307.045
307.105
304.717
304.607
304.468
304.324
304.186
304.058
303.942
303.837
303.742
303.657
303.582
303.513
303.453
303.398
303.35
303.306
303.268
303.234
303.204
303.177
303.154
303.133
303.116
303.1
303.087
303.076
303.066
303.057
303.05
303.044
303.039
303.034
303.03
303.027
303.024
303.021
303.018
303.015
303.013
303.01
303.007
303.004
303.001
302.997
302.994
302.99
302.986
302.981
302.977
302.972
302.968
302.963
302.958
302.952
302.947
302.942
302.936
302.931
302.926
302.92
302.915
302.91
302.905
302.9
302.895
302.89
302.886
302.882
302.878
302.874
302.871
302.868
302.865
302.863
302.861
302.859
302.857
302.856
302.856
302.855
302.855
302.856
302.856
302.857
302.859
302.861
302.863
302.865
302.868
302.872
302.875
302.879
302.883
302.888
302.893
302.898
302.904
302.91
302.916
302.922
302.929
302.936
302.944
302.952
302.959
302.968
302.976
302.985
302.994
303.003
303.013
303.023
303.033
303.043
303.053
303.064
303.075
303.086
303.098
303.11
303.122
303.134
303.146
303.159
303.172
303.185
303.199
303.213
303.227
303.241
303.256
303.271
303.287
303.303
303.319
303.336
303.353
303.37
303.389
303.407
303.427
303.446
303.467
303.488
303.51
303.533
303.557
303.582
303.607
303.634
303.662
303.691
303.721
303.752
303.785
303.82
303.855
303.893
303.932
303.973
304.016
304.06
304.107
304.156
304.207
304.26
304.315
304.373
304.433
304.496
304.561
304.629
304.699
304.772
304.848
304.926
305.007
305.09
305.176
305.264
305.355
305.447
305.541
305.636
305.733
305.83
305.928
306.026
306.124
306.221
306.317
306.412
306.506
306.6
306.692
306.785
306.878
306.966
307.045
307.105
303.929
303.881
303.803
303.712
303.616
303.521
303.431
303.346
303.269
303.198
303.134
303.076
303.024
302.977
302.935
302.897
302.864
302.835
302.809
302.786
302.767
302.75
302.735
302.723
302.713
302.704
302.697
302.691
302.686
302.682
302.678
302.676
302.674
302.672
302.67
302.669
302.668
302.666
302.665
302.663
302.662
302.66
302.658
302.655
302.653
302.65
302.646
302.643
302.639
302.635
302.631
302.626
302.622
302.617
302.612
302.607
302.602
302.596
302.591
302.586
302.58
302.575
302.57
302.565
302.56
302.555
302.55
302.546
302.541
302.537
302.533
302.53
302.526
302.523
302.521
302.518
302.516
302.514
302.513
302.512
302.511
302.51
302.51
302.511
302.511
302.512
302.513
302.515
302.517
302.519
302.522
302.525
302.528
302.532
302.536
302.54
302.545
302.55
302.555
302.561
302.567
302.573
302.579
302.586
302.593
302.601
302.608
302.616
302.624
302.633
302.642
302.651
302.66
302.67
302.679
302.689
302.7
302.71
302.721
302.732
302.744
302.755
302.767
302.78
302.792
302.805
302.818
302.831
302.845
302.859
302.874
302.888
302.903
302.919
302.935
302.951
302.968
302.986
303.004
303.022
303.041
303.061
303.082
303.103
303.125
303.148
303.171
303.196
303.221
303.248
303.276
303.305
303.335
303.366
303.399
303.433
303.469
303.507
303.546
303.587
303.629
303.674
303.721
303.769
303.82
303.873
303.928
303.986
304.046
304.108
304.173
304.241
304.31
304.383
304.458
304.535
304.615
304.698
304.782
304.869
304.957
305.047
305.139
305.232
305.326
305.42
305.514
305.608
305.701
305.793
305.883
305.971
306.056
306.139
306.217
306.29
306.355
306.409
306.443
306.454
303.929
303.881
303.803
303.712
303.616
303.521
303.431
303.346
303.269
303.198
303.134
303.076
303.023
302.977
302.935
302.897
302.864
302.835
302.809
302.786
302.767
302.75
302.735
302.723
302.713
302.704
302.697
302.691
302.686
302.682
302.678
302.676
302.674
302.672
302.67
302.669
302.668
302.666
302.665
302.663
302.662
302.66
302.658
302.655
302.653
302.65
302.646
302.643
302.639
302.635
302.631
302.626
302.622
302.617
302.612
302.607
302.602
302.596
302.591
302.586
302.58
302.575
302.57
302.565
302.56
302.555
302.55
302.546
302.541
302.537
302.533
302.53
302.526
302.523
302.521
302.518
302.516
302.514
302.513
302.512
302.511
302.51
302.51
302.511
302.511
302.512
302.513
302.515
302.517
302.519
302.522
302.525
302.528
302.532
302.536
302.54
302.545
302.55
302.555
302.561
302.567
302.573
302.579
302.586
302.593
302.601
302.608
302.616
302.624
302.633
302.642
302.651
302.66
302.67
302.679
302.689
302.7
302.71
302.721
302.732
302.744
302.755
302.767
302.78
302.792
302.805
302.818
302.831
302.845
302.859
302.874
302.888
302.903
302.919
302.935
302.951
302.968
302.986
303.004
303.022
303.041
303.061
303.082
303.103
303.125
303.148
303.171
303.196
303.221
303.248
303.276
303.305
303.335
303.366
303.399
303.433
303.469
303.507
303.546
303.587
303.629
303.674
303.721
303.769
303.82
303.873
303.928
303.986
304.046
304.108
304.173
304.241
304.31
304.383
304.458
304.535
304.615
304.698
304.782
304.869
304.957
305.047
305.139
305.232
305.326
305.42
305.514
305.608
305.702
305.793
305.883
305.971
306.056
306.139
306.217
306.29
306.355
306.409
306.443
306.454
303.353
303.329
303.283
303.222
303.154
303.083
303.014
302.946
302.883
302.824
302.77
302.721
302.676
302.635
302.599
302.567
302.538
302.513
302.491
302.472
302.456
302.442
302.43
302.42
302.412
302.405
302.4
302.396
302.392
302.39
302.388
302.387
302.387
302.386
302.386
302.386
302.386
302.385
302.385
302.385
302.384
302.383
302.382
302.38
302.378
302.376
302.373
302.37
302.367
302.364
302.36
302.356
302.352
302.347
302.342
302.338
302.333
302.327
302.322
302.317
302.312
302.306
302.301
302.296
302.291
302.286
302.281
302.276
302.271
302.267
302.263
302.259
302.255
302.252
302.249
302.246
302.243
302.241
302.239
302.237
302.236
302.235
302.234
302.234
302.234
302.234
302.235
302.236
302.237
302.239
302.241
302.243
302.246
302.249
302.253
302.256
302.26
302.265
302.269
302.274
302.28
302.285
302.291
302.297
302.304
302.311
302.318
302.325
302.333
302.341
302.349
302.357
302.366
302.375
302.384
302.394
302.404
302.414
302.424
302.435
302.446
302.457
302.469
302.481
302.493
302.505
302.518
302.531
302.544
302.558
302.572
302.587
302.602
302.617
302.633
302.649
302.666
302.683
302.7
302.719
302.738
302.757
302.778
302.799
302.82
302.843
302.867
302.891
302.917
302.943
302.971
303
303.03
303.061
303.094
303.128
303.164
303.201
303.24
303.281
303.324
303.368
303.415
303.463
303.514
303.567
303.622
303.679
303.739
303.801
303.865
303.932
304.001
304.073
304.147
304.224
304.303
304.384
304.467
304.552
304.639
304.727
304.817
304.907
304.998
305.089
305.18
305.27
305.359
305.446
305.531
305.612
305.69
305.763
305.83
305.889
305.939
305.975
305.991
305.984
303.353
303.329
303.283
303.222
303.154
303.083
303.013
302.946
302.883
302.824
302.77
302.721
302.676
302.635
302.599
302.567
302.538
302.513
302.491
302.472
302.456
302.442
302.43
302.42
302.412
302.405
302.4
302.396
302.392
302.39
302.388
302.387
302.387
302.386
302.386
302.386
302.386
302.385
302.385
302.385
302.384
302.383
302.382
302.38
302.378
302.376
302.373
302.37
302.367
302.364
302.36
302.356
302.352
302.347
302.342
302.338
302.333
302.327
302.322
302.317
302.312
302.306
302.301
302.296
302.291
302.286
302.281
302.276
302.271
302.267
302.263
302.259
302.255
302.252
302.249
302.246
302.243
302.241
302.239
302.237
302.236
302.235
302.234
302.234
302.234
302.234
302.235
302.236
302.237
302.239
302.241
302.243
302.246
302.249
302.253
302.256
302.26
302.265
302.269
302.274
302.28
302.285
302.291
302.297
302.304
302.311
302.318
302.325
302.333
302.341
302.349
302.357
302.366
302.375
302.384
302.394
302.404
302.414
302.424
302.435
302.446
302.457
302.469
302.481
302.493
302.505
302.518
302.531
302.544
302.558
302.572
302.587
302.602
302.617
302.633
302.649
302.666
302.683
302.7
302.719
302.738
302.757
302.778
302.799
302.82
302.843
302.867
302.891
302.917
302.943
302.971
303
303.03
303.061
303.094
303.128
303.164
303.201
303.24
303.281
303.324
303.368
303.415
303.463
303.514
303.567
303.622
303.679
303.739
303.801
303.865
303.932
304.001
304.073
304.147
304.224
304.303
304.384
304.467
304.552
304.639
304.727
304.817
304.907
304.998
305.089
305.18
305.27
305.359
305.446
305.531
305.612
305.69
305.763
305.83
305.889
305.939
305.975
305.991
305.984
302.901
302.886
302.856
302.815
302.765
302.712
302.657
302.604
302.552
302.504
302.458
302.416
302.378
302.344
302.313
302.285
302.261
302.239
302.221
302.204
302.191
302.179
302.17
302.162
302.156
302.151
302.147
302.145
302.143
302.142
302.142
302.142
302.142
302.143
302.144
302.145
302.145
302.146
302.147
302.147
302.147
302.147
302.146
302.146
302.144
302.143
302.141
302.138
302.136
302.133
302.129
302.126
302.122
302.117
302.113
302.108
302.104
302.099
302.094
302.088
302.083
302.078
302.073
302.067
302.062
302.057
302.052
302.047
302.043
302.038
302.034
302.029
302.025
302.022
302.018
302.015
302.012
302.01
302.007
302.005
302.003
302.002
302.001
302
302
302
302
302
302.001
302.003
302.004
302.006
302.008
302.011
302.014
302.017
302.021
302.024
302.029
302.033
302.038
302.043
302.049
302.054
302.06
302.067
302.073
302.08
302.088
302.095
302.103
302.111
302.119
302.128
302.137
302.146
302.156
302.166
302.176
302.186
302.197
302.208
302.219
302.23
302.242
302.254
302.267
302.28
302.293
302.306
302.32
302.334
302.349
302.364
302.379
302.395
302.412
302.429
302.446
302.465
302.483
302.503
302.523
302.544
302.566
302.588
302.611
302.636
302.661
302.688
302.715
302.744
302.774
302.805
302.838
302.872
302.908
302.945
302.984
303.025
303.067
303.112
303.158
303.206
303.257
303.309
303.364
303.421
303.481
303.542
303.606
303.673
303.741
303.812
303.886
303.961
304.039
304.119
304.201
304.284
304.369
304.456
304.543
304.631
304.719
304.808
304.895
304.982
305.067
305.149
305.229
305.305
305.376
305.442
305.502
305.552
305.593
305.62
305.631
305.621
302.901
302.886
302.856
302.815
302.765
302.712
302.657
302.604
302.552
302.503
302.458
302.416
302.378
302.344
302.313
302.285
302.261
302.239
302.221
302.204
302.191
302.179
302.17
302.162
302.156
302.151
302.147
302.145
302.143
302.142
302.142
302.142
302.142
302.143
302.144
302.145
302.145
302.146
302.147
302.147
302.147
302.147
302.146
302.146
302.144
302.143
302.141
302.138
302.136
302.133
302.129
302.126
302.122
302.117
302.113
302.108
302.104
302.099
302.094
302.088
302.083
302.078
302.073
302.067
302.062
302.057
302.052
302.047
302.043
302.038
302.034
302.029
302.025
302.022
302.018
302.015
302.012
302.01
302.007
302.005
302.003
302.002
302.001
302
302
302
302
302
302.001
302.003
302.004
302.006
302.008
302.011
302.014
302.017
302.021
302.024
302.029
302.033
302.038
302.043
302.049
302.054
302.06
302.067
302.073
302.08
302.088
302.095
302.103
302.111
302.119
302.128
302.137
302.146
302.156
302.166
302.176
302.186
302.197
302.208
302.219
302.23
302.242
302.254
302.267
302.28
302.293
302.306
302.32
302.334
302.349
302.364
302.379
302.395
302.412
302.429
302.446
302.465
302.483
302.503
302.523
302.544
302.566
302.588
302.611
302.636
302.661
302.688
302.715
302.744
302.774
302.805
302.838
302.872
302.908
302.945
302.984
303.025
303.067
303.112
303.158
303.206
303.257
303.309
303.364
303.421
303.481
303.542
303.606
303.673
303.741
303.812
303.886
303.961
304.039
304.119
304.201
304.284
304.369
304.456
304.543
304.631
304.719
304.808
304.895
304.982
305.067
305.149
305.229
305.305
305.376
305.442
305.502
305.552
305.593
305.62
305.631
305.621
302.527
302.517
302.495
302.465
302.428
302.388
302.345
302.302
302.26
302.22
302.182
302.147
302.115
302.086
302.06
302.036
302.015
301.997
301.981
301.968
301.957
301.948
301.94
301.934
301.93
301.926
301.924
301.923
301.923
301.923
301.924
301.925
301.927
301.928
301.93
301.932
301.933
301.935
301.936
301.937
301.938
301.939
301.939
301.938
301.938
301.937
301.935
301.933
301.931
301.928
301.925
301.922
301.919
301.915
301.91
301.906
301.902
301.897
301.892
301.887
301.882
301.876
301.871
301.866
301.861
301.856
301.851
301.846
301.841
301.836
301.832
301.827
301.823
301.819
301.816
301.812
301.809
301.806
301.803
301.801
301.799
301.797
301.796
301.795
301.794
301.794
301.794
301.794
301.794
301.795
301.796
301.798
301.8
301.802
301.805
301.808
301.811
301.814
301.818
301.822
301.827
301.831
301.837
301.842
301.848
301.854
301.86
301.867
301.874
301.881
301.888
301.896
301.904
301.913
301.921
301.93
301.939
301.949
301.959
301.969
301.979
301.99
302.001
302.012
302.024
302.036
302.048
302.06
302.073
302.087
302.1
302.114
302.129
302.144
302.159
302.175
302.191
302.208
302.225
302.243
302.262
302.281
302.301
302.322
302.343
302.366
302.389
302.413
302.439
302.465
302.493
302.521
302.551
302.582
302.615
302.649
302.685
302.722
302.761
302.801
302.844
302.888
302.934
302.983
303.033
303.085
303.14
303.196
303.255
303.317
303.38
303.446
303.514
303.585
303.657
303.732
303.809
303.887
303.968
304.05
304.133
304.217
304.303
304.388
304.474
304.559
304.644
304.727
304.808
304.887
304.963
305.034
305.101
305.161
305.215
305.26
305.296
305.319
305.329
305.322
302.527
302.516
302.495
302.465
302.428
302.388
302.345
302.302
302.26
302.22
302.182
302.147
302.115
302.086
302.06
302.036
302.015
301.997
301.981
301.968
301.957
301.948
301.94
301.934
301.93
301.926
301.924
301.923
301.923
301.923
301.924
301.925
301.927
301.928
301.93
301.932
301.933
301.935
301.936
301.937
301.938
301.939
301.939
301.938
301.938
301.937
301.935
301.933
301.931
301.928
301.925
301.922
301.919
301.915
301.91
301.906
301.902
301.897
301.892
301.887
301.882
301.876
301.871
301.866
301.861
301.856
301.851
301.846
301.841
301.836
301.832
301.827
301.823
301.819
301.816
301.812
301.809
301.806
301.803
301.801
301.799
301.797
301.796
301.795
301.794
301.794
301.794
301.794
301.794
301.795
301.796
301.798
301.8
301.802
301.805
301.808
301.811
301.814
301.818
301.822
301.827
301.831
301.837
301.842
301.848
301.854
301.86
301.867
301.874
301.881
301.888
301.896
301.904
301.913
301.921
301.93
301.939
301.949
301.959
301.969
301.979
301.99
302.001
302.012
302.024
302.036
302.048
302.06
302.073
302.087
302.1
302.114
302.129
302.144
302.159
302.175
302.191
302.208
302.225
302.243
302.262
302.281
302.301
302.322
302.343
302.366
302.389
302.413
302.439
302.465
302.493
302.521
302.551
302.582
302.615
302.649
302.685
302.722
302.761
302.801
302.844
302.888
302.934
302.983
303.033
303.085
303.14
303.196
303.255
303.317
303.38
303.446
303.514
303.585
303.657
303.732
303.809
303.887
303.968
304.05
304.133
304.217
304.303
304.388
304.474
304.559
304.644
304.727
304.808
304.887
304.963
305.034
305.101
305.161
305.215
305.26
305.296
305.319
305.329
305.322
302.206
302.198
302.182
302.159
302.131
302.1
302.066
302.032
301.998
301.965
301.933
301.904
301.877
301.853
301.83
301.811
301.793
301.778
301.765
301.754
301.745
301.738
301.732
301.728
301.725
301.724
301.723
301.723
301.724
301.725
301.727
301.729
301.731
301.734
301.737
301.739
301.741
301.744
301.746
301.747
301.749
301.75
301.75
301.751
301.75
301.75
301.749
301.747
301.746
301.743
301.741
301.738
301.734
301.731
301.727
301.723
301.718
301.714
301.709
301.704
301.699
301.694
301.689
301.684
301.679
301.673
301.668
301.663
301.658
301.654
301.649
301.645
301.64
301.636
301.632
301.629
301.626
301.622
301.62
301.617
301.615
301.613
301.611
301.61
301.609
301.608
301.608
301.608
301.608
301.609
301.609
301.611
301.612
301.614
301.616
301.619
301.622
301.625
301.629
301.633
301.637
301.641
301.646
301.651
301.657
301.662
301.668
301.675
301.681
301.688
301.696
301.703
301.711
301.719
301.728
301.736
301.745
301.755
301.764
301.774
301.784
301.795
301.806
301.817
301.828
301.84
301.852
301.864
301.877
301.89
301.903
301.917
301.932
301.946
301.961
301.977
301.993
302.01
302.027
302.045
302.064
302.083
302.103
302.123
302.145
302.167
302.19
302.215
302.24
302.266
302.293
302.322
302.352
302.383
302.416
302.45
302.485
302.522
302.561
302.602
302.644
302.688
302.734
302.782
302.833
302.885
302.939
302.995
303.054
303.115
303.178
303.243
303.311
303.38
303.452
303.526
303.602
303.679
303.758
303.839
303.92
304.003
304.086
304.17
304.253
304.336
304.418
304.498
304.576
304.651
304.723
304.791
304.854
304.91
304.96
305.002
305.035
305.057
305.067
305.065
302.206
302.198
302.182
302.159
302.131
302.1
302.066
302.032
301.998
301.965
301.933
301.904
301.877
301.853
301.83
301.811
301.793
301.778
301.765
301.754
301.745
301.738
301.732
301.728
301.725
301.724
301.723
301.723
301.724
301.725
301.727
301.729
301.731
301.734
301.737
301.739
301.741
301.744
301.746
301.747
301.749
301.75
301.75
301.751
301.75
301.75
301.749
301.747
301.746
301.743
301.741
301.738
301.734
301.731
301.727
301.723
301.718
301.714
301.709
301.704
301.699
301.694
301.689
301.684
301.679
301.673
301.668
301.663
301.658
301.654
301.649
301.645
301.64
301.636
301.632
301.629
301.626
301.622
301.62
301.617
301.615
301.613
301.611
301.61
301.609
301.608
301.608
301.608
301.608
301.609
301.609
301.611
301.612
301.614
301.616
301.619
301.622
301.625
301.629
301.633
301.637
301.641
301.646
301.651
301.657
301.662
301.668
301.675
301.681
301.688
301.696
301.703
301.711
301.719
301.728
301.736
301.745
301.755
301.764
301.774
301.784
301.795
301.806
301.817
301.828
301.84
301.852
301.864
301.877
301.89
301.903
301.917
301.932
301.946
301.961
301.977
301.993
302.01
302.027
302.045
302.064
302.083
302.103
302.123
302.145
302.167
302.19
302.215
302.24
302.266
302.293
302.322
302.352
302.383
302.416
302.45
302.485
302.522
302.561
302.602
302.644
302.688
302.734
302.782
302.833
302.885
302.939
302.995
303.054
303.115
303.178
303.243
303.311
303.38
303.452
303.526
303.602
303.679
303.758
303.839
303.92
304.003
304.086
304.17
304.253
304.336
304.418
304.498
304.576
304.651
304.723
304.791
304.854
304.91
304.96
305.002
305.035
305.057
305.067
305.065
301.925
301.918
301.905
301.887
301.865
301.84
301.814
301.786
301.758
301.731
301.706
301.681
301.659
301.639
301.62
301.604
301.589
301.577
301.567
301.558
301.551
301.546
301.542
301.539
301.537
301.537
301.537
301.539
301.54
301.543
301.545
301.549
301.552
301.555
301.558
301.561
301.564
301.567
301.57
301.572
301.574
301.576
301.577
301.577
301.578
301.578
301.577
301.576
301.575
301.573
301.57
301.568
301.565
301.561
301.558
301.554
301.55
301.545
301.541
301.536
301.531
301.526
301.521
301.516
301.511
301.506
301.5
301.495
301.491
301.486
301.481
301.476
301.472
301.468
301.464
301.46
301.457
301.454
301.451
301.448
301.445
301.443
301.441
301.44
301.439
301.438
301.437
301.437
301.437
301.437
301.438
301.439
301.44
301.442
301.444
301.446
301.449
301.452
301.455
301.459
301.463
301.467
301.472
301.476
301.482
301.487
301.493
301.499
301.506
301.512
301.519
301.527
301.534
301.542
301.551
301.559
301.568
301.577
301.586
301.596