/*--------------------------------*- C++ -*----------------------------------*\
  =========                 |
  \\      /  F ield         | OpenFOAM: The Open Source CFD Toolbox
   \\    /   O peration     | Website:  https://openfoam.org
    \\  /    A nd           | Version:  8
     \\/     M anipulation  |
\*---------------------------------------------------------------------------*/
FoamFile
{
    version     2.0;
    format      ascii;
    class       volVectorField;
    location    "2200";
    object      U;
}
// * * * * * * * * * * * * * * * * * * * * * * * * * * * * * * * * * * * * * //

dimensions      [0 1 -1 0 0 0 0];

internalField   nonuniform List<vector> 
46000
(
(0.000508752 -2.24694e-06 -0.000534631)
(0.00207576 2.55872e-06 -0.00090021)
(0.00344345 2.73313e-06 -0.00079126)
(0.00415813 3.44154e-07 -0.000395077)
(0.00419835 -1.44266e-06 1.18279e-05)
(0.00368612 -2.95299e-06 0.000350767)
(0.00274146 -4.65389e-06 0.000614698)
(0.00146933 -6.19423e-06 0.000817157)
(-5.44336e-05 -7.15783e-06 0.000972814)
(-0.00177177 -7.61837e-06 0.00109375)
(-0.00364504 -7.8293e-06 0.00119075)
(-0.00564921 -7.75616e-06 0.00127206)
(-0.00776644 -7.1011e-06 0.00134354)
(-0.00998554 -5.60775e-06 0.0014094)
(-0.0123004 -3.21998e-06 0.00147246)
(-0.0147087 -9.1919e-08 0.00153445)
(-0.0172099 3.42457e-06 0.00159629)
(-0.0198045 6.84322e-06 0.00165831)
(-0.0224929 9.70589e-06 0.00172058)
(-0.0252748 1.16947e-05 0.00178305)
(-0.0281496 1.25721e-05 0.0018454)
(-0.0311167 1.21188e-05 0.0019069)
(-0.0341747 1.02888e-05 0.00196649)
(-0.0373208 7.43931e-06 0.00202334)
(-0.0405506 4.26964e-06 0.00207708)
(-0.0438588 1.47769e-06 0.00212754)
(-0.0472398 -5.66142e-07 0.00217419)
(-0.0506878 -1.90929e-06 0.00221603)
(-0.0541955 -2.67912e-06 0.00225212)
(-0.0577538 -2.69648e-06 0.00228195)
(-0.061352 -1.86759e-06 0.0023054)
(-0.0649793 -4.64513e-07 0.00232237)
(-0.0686256 1.19147e-06 0.00233241)
(-0.0722807 2.5105e-06 0.00233479)
(-0.0759336 3.06796e-06 0.00232892)
(-0.0795721 3.23642e-06 0.00231466)
(-0.0831832 3.39411e-06 0.00229229)
(-0.0867535 3.45609e-06 0.00226183)
(-0.0902706 3.26652e-06 0.00222343)
(-0.0937232 3.25645e-06 0.00217743)
(-0.0970985 3.06601e-06 0.00212377)
(-0.100384 2.65109e-06 0.00206289)
(-0.10357 2.41631e-06 0.00199549)
(-0.106645 1.9928e-06 0.00192214)
(-0.1096 1.98076e-06 0.001843)
(-0.112426 1.57755e-06 0.00175868)
(-0.115116 1.10288e-06 0.00166928)
(-0.117662 5.49546e-07 0.00157532)
(-0.120059 -5.75831e-07 0.00147776)
(-0.122299 -1.05628e-06 0.00137679)
(-0.124376 -1.28604e-06 0.00127313)
(-0.126286 -1.7396e-06 0.00116744)
(-0.128028 -1.90469e-06 0.00106062)
(-0.129599 -1.43812e-06 0.000952745)
(-0.130996 -1.46096e-06 0.000843396)
(-0.132222 -1.77744e-06 0.000733645)
(-0.133273 -1.23294e-06 0.000624162)
(-0.13415 -1.20376e-06 0.000515016)
(-0.134854 -1.45209e-06 0.000406957)
(-0.135386 -8.45788e-07 0.000299996)
(-0.135748 -9.72871e-07 0.000194276)
(-0.135942 -1.6017e-06 9.05452e-05)
(-0.135971 -1.21578e-06 -1.12551e-05)
(-0.135838 -7.71171e-07 -0.000110586)
(-0.135548 -6.66549e-07 -0.00020683)
(-0.135104 -3.01005e-07 -0.000300897)
(-0.134514 -2.47859e-07 -0.000392872)
(-0.133781 -6.09115e-07 -0.000481753)
(-0.132907 -8.0429e-07 -0.000567667)
(-0.131898 -7.54125e-07 -0.000650635)
(-0.130757 -1.81757e-07 -0.000729644)
(-0.129489 7.35701e-07 -0.000804673)
(-0.128102 1.05209e-06 -0.000876313)
(-0.126602 1.04255e-06 -0.000944435)
(-0.124993 1.45876e-06 -0.00100932)
(-0.123282 1.44492e-06 -0.00107138)
(-0.121475 4.34018e-07 -0.00112983)
(-0.119576 -3.71035e-07 -0.00118436)
(-0.11759 -4.9725e-07 -0.00123613)
(-0.115523 -9.6855e-07 -0.00128529)
(-0.113382 -1.96052e-06 -0.00133063)
(-0.111168 -2.60778e-06 -0.00137217)
(-0.108889 -2.6972e-06 -0.00141085)
(-0.106548 -2.55031e-06 -0.0014464)
(-0.104151 -2.25291e-06 -0.00147816)
(-0.101704 -1.99576e-06 -0.00150666)
(-0.0992115 -2.01381e-06 -0.00153251)
(-0.0966801 -1.9966e-06 -0.00155539)
(-0.0941126 -1.5804e-06 -0.00157528)
(-0.0915131 -1.06582e-06 -0.00159284)
(-0.0888864 -8.39906e-07 -0.00160808)
(-0.0862363 -6.95791e-07 -0.00162041)
(-0.0835661 -3.08238e-07 -0.00163001)
(-0.0808801 2.55333e-07 -0.00163773)
(-0.078183 8.36626e-07 -0.00164378)
(-0.0754786 1.40559e-06 -0.00164776)
(-0.07277 1.82351e-06 -0.00164963)
(-0.0700602 1.89768e-06 -0.00164971)
(-0.0673506 1.71549e-06 -0.00164801)
(-0.0646421 1.56074e-06 -0.0016445)
(-0.0619367 1.59311e-06 -0.00163935)
(-0.059238 1.86843e-06 -0.00163255)
(-0.0565495 2.43765e-06 -0.00162365)
(-0.053874 3.1517e-06 -0.00161251)
(-0.0512145 3.63074e-06 -0.00159998)
(-0.0485743 3.71726e-06 -0.00158719)
(-0.045955 3.74455e-06 -0.00157434)
(-0.0433571 4.10176e-06 -0.00156069)
(-0.0407808 4.7209e-06 -0.00154553)
(-0.0382275 5.21668e-06 -0.00152884)
(-0.035699 5.33667e-06 -0.00151117)
(-0.0331967 5.00141e-06 -0.00149316)
(-0.0307218 4.0291e-06 -0.00147524)
(-0.0282748 2.15364e-06 -0.00145748)
(-0.0258554 -6.1563e-07 -0.00143967)
(-0.0234629 -3.82137e-06 -0.00142161)
(-0.0210973 -6.83273e-06 -0.00140336)
(-0.0187596 -9.25025e-06 -0.00138502)
(-0.0164512 -1.10425e-05 -0.0013665)
(-0.014173 -1.23471e-05 -0.00134772)
(-0.0119256 -1.31391e-05 -0.00132897)
(-0.00970931 -1.30583e-05 -0.00131078)
(-0.00752392 -1.16031e-05 -0.00129343)
(-0.00536789 -8.58822e-06 -0.001277)
(-0.00323914 -4.42175e-06 -0.00126109)
(-0.00113849 1.23817e-07 -0.00124473)
(0.000938071 4.39708e-06 -0.0012261)
(0.00298237 8.0343e-06 -0.00120582)
(0.00499904 1.08372e-05 -0.00118594)
(0.00698786 1.25326e-05 -0.00116647)
(0.00894936 1.28236e-05 -0.00114706)
(0.0108835 1.17144e-05 -0.00112778)
(0.0127899 9.59612e-06 -0.00110897)
(0.0146686 6.97019e-06 -0.00109097)
(0.0165202 4.16632e-06 -0.00107383)
(0.0183451 1.37037e-06 -0.00105737)
(0.020144 -1.13757e-06 -0.00104127)
(0.0219172 -2.91842e-06 -0.00102524)
(0.0236649 -3.64079e-06 -0.00100908)
(0.0253865 -3.3907e-06 -0.000992706)
(0.0270812 -2.65889e-06 -0.000976164)
(0.0287484 -2.00465e-06 -0.000959473)
(0.0303877 -1.71882e-06 -0.000942504)
(0.0319992 -1.75068e-06 -0.000924948)
(0.033582 -1.86401e-06 -0.000906454)
(0.0351345 -1.81801e-06 -0.0008868)
(0.0366541 -1.45914e-06 -0.000865936)
(0.038138 -7.70935e-07 -0.000843813)
(0.0395833 6.35698e-08 -0.000820178)
(0.0409878 6.57022e-07 -0.000794568)
(0.0423485 5.84261e-07 -0.000766541)
(0.0436618 -3.13102e-07 -0.000735921)
(0.0449226 -1.70723e-06 -0.000702775)
(0.0461254 -2.87502e-06 -0.0006671)
(0.0472643 -3.10383e-06 -0.000628492)
(0.0483337 -2.15311e-06 -0.000586159)
(0.0493277 -4.33684e-07 -0.000539328)
(0.050239 1.25885e-06 -0.000487686)
(0.0510594 2.28997e-06 -0.00043142)
(0.0517801 2.60133e-06 -0.000370788)
(0.052393 2.64959e-06 -0.000305663)
(0.0528909 2.90405e-06 -0.000235533)
(0.0532661 3.33933e-06 -0.000159988)
(0.05351 3.39558e-06 -7.92077e-05)
(0.0536116 2.45561e-06 6.12554e-06)
(0.0535623 3.8102e-07 9.58688e-05)
(0.0533495 -2.35034e-06 0.000190291)
(0.0529639 -5.00901e-06 0.000289472)
(0.0523971 -7.05453e-06 0.000393504)
(0.0516412 -8.22982e-06 0.000502215)
(0.0506883 -8.38978e-06 0.00061514)
(0.049531 -7.37994e-06 0.000731608)
(0.0481624 -5.1346e-06 0.00085089)
(0.046577 -1.85295e-06 0.000972355)
(0.044771 1.98535e-06 0.00109546)
(0.0427429 5.8173e-06 0.00121946)
(0.0404921 9.19301e-06 0.00134287)
(0.0380193 1.17485e-05 0.00146342)
(0.035327 1.30704e-05 0.0015784)
(0.0324215 1.28182e-05 0.00168543)
(0.029315 1.10823e-05 0.00178289)
(0.0260249 8.40919e-06 0.00186947)
(0.0225713 5.28375e-06 0.00194286)
(0.0189766 1.85122e-06 0.00199878)
(0.0152692 -1.59342e-06 0.00203192)
(0.0114877 -4.4026e-06 0.00203762)
(0.00768014 -6.48784e-06 0.00201172)
(0.00390708 -8.55009e-06 0.00194813)
(0.000231059 -1.02812e-05 0.00183339)
(-0.00325436 -9.98922e-06 0.00165251)
(-0.00642708 -7.78965e-06 0.00139967)
(-0.00917277 -6.02436e-06 0.00107212)
(-0.0113331 -4.89279e-06 0.000658914)
(-0.0127302 -2.7674e-06 0.000145191)
(-0.0131612 -7.83868e-07 -0.000466568)
(-0.01243 -6.54964e-07 -0.00113219)
(-0.0104174 -1.20075e-06 -0.00173351)
(-0.00720777 -1.36679e-06 -0.00199365)
(-0.00338944 -6.84872e-07 -0.00149445)
(-0.000524587 4.85346e-07 -0.0005437)
(0.000499637 -2.24749e-06 -0.000525211)
(0.00206413 2.56026e-06 -0.000884405)
(0.00344027 2.73368e-06 -0.000779455)
(0.00416025 3.44147e-07 -0.0003878)
(0.00420022 -1.44258e-06 1.72817e-05)
(0.003685 -2.95288e-06 0.000357334)
(0.00273775 -4.6538e-06 0.000624773)
(0.00146455 -6.19418e-06 0.000831956)
(-5.9289e-05 -7.15775e-06 0.000992038)
(-0.00177619 -7.61827e-06 0.00111595)
(-0.00364844 -7.82922e-06 0.00121408)
(-0.0056507 -7.75612e-06 0.00129457)
(-0.00776522 -7.10108e-06 0.00136329)
(-0.00998128 -5.60776e-06 0.00142462)
(-0.0122933 -3.21999e-06 0.00148177)
(-0.0146994 -9.19189e-08 0.001537)
(-0.0171996 3.42456e-06 0.00159186)
(-0.0197944 6.84317e-06 0.00164743)
(-0.0224839 9.70579e-06 0.00170452)
(-0.0252677 1.16946e-05 0.00176357)
(-0.0281449 1.25719e-05 0.00182432)
(-0.0311147 1.21186e-05 0.00188581)
(-0.0341752 1.02886e-05 0.00194671)
(-0.0373228 7.43914e-06 0.00200587)
(-0.0405528 4.26953e-06 0.00206241)
(-0.0438603 1.47765e-06 0.00211537)
(-0.0472405 -5.66125e-07 0.0021636)
(-0.0506881 -1.90923e-06 0.00220603)
(-0.0541956 -2.67903e-06 0.00224204)
(-0.0577535 -2.69639e-06 0.00227171)
(-0.0613513 -1.86752e-06 0.0022955)
(-0.0649786 -4.64499e-07 0.00231319)
(-0.0686254 1.19144e-06 0.00232429)
(-0.072282 2.51044e-06 0.0023285)
(-0.0759364 3.06789e-06 0.00232516)
(-0.0795755 3.23636e-06 0.00231368)
(-0.0831866 3.39406e-06 0.00229431)
(-0.0867574 3.45606e-06 0.00226724)
(-0.0902747 3.2665e-06 0.00223183)
(-0.0937266 3.25644e-06 0.0021882)
(-0.0971015 3.06602e-06 0.00213679)
(-0.100387 2.6511e-06 0.00207802)
(-0.103572 2.41633e-06 0.00201263)
(-0.106646 1.99282e-06 0.00194052)
(-0.109601 1.98078e-06 0.00186238)
(-0.112427 1.57757e-06 0.0017788)
(-0.115117 1.10289e-06 0.00168991)
(-0.117664 5.49552e-07 0.00159664)
(-0.120059 -5.75837e-07 0.00149921)
(-0.122298 -1.05629e-06 0.00139794)
(-0.124375 -1.28605e-06 0.00129426)
(-0.126285 -1.73962e-06 0.00118864)
(-0.128026 -1.90471e-06 0.0010809)
(-0.129596 -1.43813e-06 0.000971608)
(-0.130995 -1.46097e-06 0.000861289)
(-0.13222 -1.77746e-06 0.00075018)
(-0.13327 -1.23294e-06 0.000639126)
(-0.134147 -1.20376e-06 0.000529005)
(-0.13485 -1.4521e-06 0.000419637)
(-0.135382 -8.4579e-07 0.000311068)
(-0.135746 -9.72872e-07 0.000204273)
(-0.13594 -1.6017e-06 9.93292e-05)
(-0.135968 -1.21579e-06 -4.06037e-06)
(-0.135835 -7.71172e-07 -0.00010483)
(-0.135545 -6.66547e-07 -0.00020259)
(-0.135102 -3.01004e-07 -0.000298298)
(-0.134512 -2.47857e-07 -0.00039185)
(-0.133779 -6.0911e-07 -0.000482429)
(-0.132905 -8.04281e-07 -0.000569868)
(-0.131895 -7.54115e-07 -0.000653985)
(-0.130753 -1.81754e-07 -0.000734286)
(-0.129485 7.35687e-07 -0.000810691)
(-0.128099 1.05207e-06 -0.000883463)
(-0.126599 1.04253e-06 -0.000952921)
(-0.124991 1.45872e-06 -0.00101921)
(-0.123281 1.44488e-06 -0.00108177)
(-0.121476 4.34004e-07 -0.00114004)
(-0.119577 -3.71023e-07 -0.00119462)
(-0.117591 -4.97232e-07 -0.00124627)
(-0.115525 -9.68515e-07 -0.00129441)
(-0.113384 -1.96045e-06 -0.00133828)
(-0.11117 -2.60768e-06 -0.00137847)
(-0.108889 -2.69711e-06 -0.00141581)
(-0.106548 -2.55023e-06 -0.00145009)
(-0.104151 -2.25285e-06 -0.00148084)
(-0.101704 -1.99571e-06 -0.00150824)
(-0.0992121 -2.01376e-06 -0.00153266)
(-0.0966803 -1.99656e-06 -0.00155425)
(-0.0941125 -1.58037e-06 -0.00157322)
(-0.0915135 -1.0658e-06 -0.00158968)
(-0.0888875 -8.39899e-07 -0.00160336)
(-0.0862375 -6.95788e-07 -0.00161409)
(-0.0835671 -3.08238e-07 -0.00162244)
(-0.0808811 2.55335e-07 -0.00162914)
(-0.0781841 8.36634e-07 -0.00163425)
(-0.0754796 1.40561e-06 -0.00163746)
(-0.0727709 1.82354e-06 -0.00163874)
(-0.0700606 1.89772e-06 -0.00163843)
(-0.0673503 1.71554e-06 -0.00163676)
(-0.0646411 1.56079e-06 -0.00163374)
(-0.0619352 1.59316e-06 -0.00162928)
(-0.0592361 1.86849e-06 -0.00162327)
(-0.0565471 2.43772e-06 -0.0016157)
(-0.0538711 3.15179e-06 -0.00160689)
(-0.0512116 3.63083e-06 -0.00159735)
(-0.0485712 3.71735e-06 -0.00158746)
(-0.0459513 3.74463e-06 -0.00157708)
(-0.0433526 4.10184e-06 -0.00156574)
(-0.040776 4.72099e-06 -0.00155296)
(-0.0382231 5.21678e-06 -0.00153845)
(-0.0356954 5.33677e-06 -0.00152216)
(-0.0331946 5.00152e-06 -0.00150429)
(-0.0307217 4.0292e-06 -0.00148519)
(-0.0282771 2.1537e-06 -0.00146509)
(-0.0258597 -6.1565e-07 -0.00144391)
(-0.0234682 -3.82151e-06 -0.00142152)
(-0.0211022 -6.83299e-06 -0.00139816)
(-0.0187635 -9.25061e-06 -0.00137463)
(-0.0164539 -1.10429e-05 -0.00135198)
(-0.0141746 -1.23475e-05 -0.00133102)
(-0.0119259 -1.31395e-05 -0.00131222)
(-0.00970775 -1.30586e-05 -0.0012957)
(-0.00751998 -1.16033e-05 -0.00128147)
(-0.00536173 -8.58825e-06 -0.00126967)
(-0.00323171 -4.42169e-06 -0.00125987)
(-0.00113086 1.23813e-07 -0.0012504)
(0.000945258 4.39684e-06 -0.00123812)
(0.00298886 8.0337e-06 -0.00122257)
(0.00500445 1.08362e-05 -0.00120557)
(0.00699145 1.25314e-05 -0.00118744)
(0.00895039 1.28223e-05 -0.00116807)
(0.0108818 1.17131e-05 -0.00114756)
(0.0127861 9.59513e-06 -0.00112633)
(0.0146635 6.9695e-06 -0.00110497)
(0.0165144 4.16594e-06 -0.00108397)
(0.0183396 1.37026e-06 -0.00106354)
(0.0201397 -1.13748e-06 -0.00104366)
(0.0219149 -2.91823e-06 -0.00102438)
(0.0236644 -3.64059e-06 -0.00100591)
(0.0253871 -3.39054e-06 -0.000988506)
(0.0270819 -2.65879e-06 -0.000972217)
(0.0287486 -2.00459e-06 -0.000956721)
(0.0303876 -1.71878e-06 -0.000941386)
(0.031999 -1.75065e-06 -0.00092547)
(0.0335822 -1.86398e-06 -0.000908287)
(0.0351354 -1.81799e-06 -0.000889322)
(0.0366557 -1.45912e-06 -0.00086828)
(0.0381402 -7.7093e-07 -0.000845109)
(0.0395857 6.35695e-08 -0.000819956)
(0.0409895 6.5702e-07 -0.000793013)
(0.0423489 5.84259e-07 -0.000764328)
(0.0436607 -3.13101e-07 -0.000733692)
(0.0449209 -1.70722e-06 -0.0007007)
(0.0461244 -2.87502e-06 -0.000664928)
(0.0472652 -3.10383e-06 -0.000626093)
(0.0483366 -2.15311e-06 -0.000584076)
(0.0493313 -4.33684e-07 -0.000538783)
(0.0502419 1.25885e-06 -0.00048991)
(0.0510607 2.28998e-06 -0.000436766)
(0.05178 2.60135e-06 -0.00037832)
(0.0523925 2.64962e-06 -0.000313543)
(0.0528906 2.90409e-06 -0.000241879)
(0.0532655 3.33938e-06 -0.000163502)
(0.0535081 3.39564e-06 -7.91697e-05)
(0.0536074 2.45566e-06 1.02561e-05)
(0.0535562 3.81025e-07 0.000104647)
(0.0533429 -2.35037e-06 0.000203983)
(0.0529584 -5.00908e-06 0.000307506)
(0.052394 -7.05462e-06 0.000414168)
(0.0516407 -8.22992e-06 0.000522885)
(0.0506904 -8.38987e-06 0.00063287)
(0.0495352 -7.38001e-06 0.000743816)
(0.0481686 -5.13464e-06 0.000855904)
(0.0465852 -1.85296e-06 0.000969601)
(0.0447811 1.98534e-06 0.00108525)
(0.0427538 5.81725e-06 0.00120258)
(0.0405023 9.19288e-06 0.00132038)
(0.0380268 1.17483e-05 0.00143668)
(0.0353308 1.30701e-05 0.00154927)
(0.0324223 1.28178e-05 0.00165623)
(0.0293147 1.10819e-05 0.00175588)
(0.0260245 8.40882e-06 0.0018459)
(0.0225695 5.28351e-06 0.00192245)
(0.018972 1.85114e-06 0.0019807)
(0.0152629 -1.59335e-06 0.00201646)
(0.0114823 -4.40242e-06 0.00202609)
(0.00767577 -6.4876e-06 0.00200438)
(0.00390201 -8.54984e-06 0.00194371)
(0.000225401 -1.02808e-05 0.00183105)
(-0.00325806 -9.98874e-06 0.00165225)
(-0.00642834 -7.78933e-06 0.00140115)
(-0.00917341 -6.02417e-06 0.00107487)
(-0.0113341 -4.89268e-06 0.000661792)
(-0.0127317 -2.76736e-06 0.000146033)
(-0.013163 -7.83861e-07 -0.000466635)
(-0.0124307 -6.54964e-07 -0.00112971)
(-0.0104174 -1.20076e-06 -0.00173049)
(-0.00720843 -1.3668e-06 -0.00199336)
(-0.00338867 -6.84887e-07 -0.00149323)
(-0.00052371 4.85352e-07 -0.000541249)
(0.00083177 -2.77513e-06 -0.00216155)
(0.00210615 -7.37064e-07 -0.00226523)
(0.00245908 -3.34677e-07 -0.00136816)
(0.00226229 -2.19277e-07 -0.000316262)
(0.00159362 -1.78494e-07 0.000613583)
(0.000560308 -1.89031e-07 0.00136033)
(-0.000768457 -9.59923e-08 0.00193866)
(-0.00233327 1.90081e-07 0.00238306)
(-0.00409057 5.38733e-07 0.00272786)
(-0.00600718 7.31154e-07 0.00300123)
(-0.00805939 6.6172e-07 0.00322564)
(-0.0102301 3.60002e-07 0.00341767)
(-0.0125075 -9.02146e-08 0.00358921)
(-0.0148842 -6.03417e-07 0.00374863)
(-0.0173564 -1.10148e-06 0.00390159)
(-0.019922 -1.5244e-06 0.00405172)
(-0.0225807 -1.83263e-06 0.00420111)
(-0.0253325 -1.97925e-06 0.00435076)
(-0.0281775 -1.8977e-06 0.00450091)
(-0.0311154 -1.55067e-06 0.00465118)
(-0.0341456 -9.92994e-07 0.00480061)
(-0.0372671 -3.61113e-07 0.00494777)
(-0.0404778 2.27295e-07 0.00509102)
(-0.0437743 7.53108e-07 0.00522873)
(-0.0471524 1.22813e-06 0.00535936)
(-0.0506067 1.58411e-06 0.00548138)
(-0.0541317 1.71772e-06 0.00559309)
(-0.0577208 1.57779e-06 0.00569269)
(-0.0613662 1.20154e-06 0.00577856)
(-0.0650587 7.93e-07 0.00584936)
(-0.0687884 5.30775e-07 0.00590397)
(-0.0725448 3.37601e-07 0.00594138)
(-0.0763176 1.70844e-07 0.00596061)
(-0.0800958 1.87891e-08 0.00596074)
(-0.0838676 -2.10525e-07 0.00594129)
(-0.0876209 -4.22404e-07 0.00590207)
(-0.0913435 -4.78611e-07 0.00584297)
(-0.0950228 -4.2439e-07 0.00576413)
(-0.0986468 -5.0514e-07 0.00566583)
(-0.102204 -5.49432e-07 0.00554831)
(-0.105682 -5.57649e-07 0.00541227)
(-0.109069 -5.94798e-07 0.00525839)
(-0.112354 -4.88903e-07 0.00508759)
(-0.115528 -5.07123e-07 0.00490101)
(-0.11858 -3.61979e-07 0.00469954)
(-0.121503 -3.21041e-07 0.00448439)
(-0.124288 -3.18164e-07 0.00425675)
(-0.126926 -2.33532e-07 0.00401769)
(-0.129412 -4.04976e-07 0.00376884)
(-0.13174 -4.43344e-07 0.00351126)
(-0.133903 -2.89056e-07 0.00324632)
(-0.135897 -1.44105e-07 0.00297574)
(-0.137719 -1.69246e-07 0.00269995)
(-0.139367 -1.27632e-07 0.00242047)
(-0.140838 -7.17634e-08 0.00213883)
(-0.142131 -2.13312e-07 0.00185516)
(-0.143245 -1.63013e-07 0.00157129)
(-0.14418 -8.72123e-08 0.00128867)
(-0.144937 -2.14322e-07 0.00100749)
(-0.145516 -1.782e-07 0.000729254)
(-0.145918 -1.39963e-07 0.000454774)
(-0.146147 -2.21999e-07 0.00018421)
(-0.146205 -8.27062e-08 -8.12504e-05)
(-0.146093 1.07023e-07 -0.000341342)
(-0.145817 1.33935e-07 -0.000595886)
(-0.14538 1.67871e-07 -0.000843665)
(-0.144786 9.85183e-08 -0.00108451)
(-0.14404 -1.54453e-07 -0.00131827)
(-0.143146 -3.08845e-07 -0.00154359)
(-0.142108 -2.77624e-07 -0.00176025)
(-0.140931 -1.61329e-07 -0.00196894)
(-0.13962 4.21634e-09 -0.002169)
(-0.13818 7.17331e-08 -0.00236011)
(-0.136618 -7.07978e-09 -0.00254323)
(-0.134938 -2.66343e-09 -0.00271818)
(-0.133146 1.08448e-07 -0.00288396)
(-0.131246 1.06414e-07 -0.00304089)
(-0.129245 6.48707e-08 -0.00318941)
(-0.127148 2.03233e-07 -0.0033289)
(-0.12496 4.08922e-07 -0.00345929)
(-0.122685 4.89453e-07 -0.00358133)
(-0.120329 5.29662e-07 -0.00369505)
(-0.117896 6.26796e-07 -0.00380008)
(-0.115392 6.80222e-07 -0.00389702)
(-0.112821 6.30631e-07 -0.00398657)
(-0.110189 5.54127e-07 -0.00406842)
(-0.1075 4.69852e-07 -0.00414241)
(-0.104759 3.31491e-07 -0.00420916)
(-0.101971 1.80321e-07 -0.00426906)
(-0.0991407 9.8456e-08 -0.00432181)
(-0.0962712 6.41627e-08 -0.00436759)
(-0.0933671 -3.6748e-09 -0.00440717)
(-0.0904326 -1.18596e-07 -0.0044409)
(-0.0874717 -2.42593e-07 -0.00446857)
(-0.0844879 -3.74937e-07 -0.00449029)
(-0.0814846 -5.53004e-07 -0.00450659)
(-0.0784655 -7.9706e-07 -0.00451783)
(-0.0754336 -1.09005e-06 -0.00452412)
(-0.0723917 -1.37768e-06 -0.00452564)
(-0.0693424 -1.56486e-06 -0.00452255)
(-0.0662887 -1.55593e-06 -0.00451474)
(-0.0632336 -1.3473e-06 -0.00450222)
(-0.0601802 -1.07154e-06 -0.00448556)
(-0.0571316 -9.05991e-07 -0.00446563)
(-0.0540907 -9.17537e-07 -0.00444292)
(-0.05106 -1.01318e-06 -0.00441734)
(-0.0480411 -1.05333e-06 -0.00438865)
(-0.0450354 -9.91363e-07 -0.00435684)
(-0.0420446 -8.79213e-07 -0.00432226)
(-0.0390709 -7.57582e-07 -0.00428543)
(-0.0361164 -5.89933e-07 -0.00424685)
(-0.0331827 -3.20331e-07 -0.00420679)
(-0.0302713 4.24785e-08 -0.00416524)
(-0.0273832 4.39759e-07 -0.00412221)
(-0.0245193 8.54845e-07 -0.00407788)
(-0.0216804 1.34308e-06 -0.00403253)
(-0.0188674 1.9321e-06 -0.00398633)
(-0.0160813 2.50063e-06 -0.00393929)
(-0.013323 2.80166e-06 -0.00389153)
(-0.0105933 2.64719e-06 -0.00384342)
(-0.00789268 2.07554e-06 -0.00379548)
(-0.0052216 1.31828e-06 -0.0037481)
(-0.00258018 5.96687e-07 -0.00370156)
(3.24547e-05 -3.3821e-08 -0.00365537)
(0.0026151 -6.32796e-07 -0.00360886)
(0.00516616 -1.20757e-06 -0.00356232)
(0.00768643 -1.64206e-06 -0.00351506)
(0.0101753 -1.82439e-06 -0.00346721)
(0.0126334 -1.78091e-06 -0.0034198)
(0.0150608 -1.62396e-06 -0.00337281)
(0.0174575 -1.42134e-06 -0.00332634)
(0.0198234 -1.14447e-06 -0.00328058)
(0.0221585 -7.50649e-07 -0.0032357)
(0.0244627 -2.84809e-07 -0.00319163)
(0.0267361 1.30539e-07 -0.00314806)
(0.028979 4.14837e-07 -0.00310469)
(0.0311913 6.14293e-07 -0.00306132)
(0.033373 8.39202e-07 -0.00301782)
(0.0355238 1.11929e-06 -0.00297398)
(0.037643 1.34074e-06 -0.00292955)
(0.0397298 1.33285e-06 -0.00288426)
(0.0417834 1.01079e-06 -0.00283785)
(0.0438031 4.40929e-07 -0.00278999)
(0.0457877 -2.05508e-07 -0.00274019)
(0.0477359 -7.37844e-07 -0.00268786)
(0.0496457 -1.00095e-06 -0.00263238)
(0.0515145 -9.06058e-07 -0.00257314)
(0.0533394 -4.74313e-07 -0.0025095)
(0.0551176 1.27022e-07 -0.00244083)
(0.0568458 6.28661e-07 -0.00236652)
(0.0585201 8.05785e-07 -0.00228605)
(0.0601359 6.34071e-07 -0.00219884)
(0.0616881 3.13124e-07 -0.00210414)
(0.0631711 1.11198e-07 -0.00200091)
(0.0645789 1.43257e-07 -0.00188801)
(0.0659051 2.66162e-07 -0.00176441)
(0.0671426 1.8954e-07 -0.00162938)
(0.0682833 -2.74299e-07 -0.00148234)
(0.0693187 -1.02145e-06 -0.00132265)
(0.0702398 -1.69216e-06 -0.00114947)
(0.0710377 -1.91508e-06 -0.000962005)
(0.0717035 -1.56326e-06 -0.000759716)
(0.0722273 -8.11755e-07 -0.000542522)
(0.0725985 3.7625e-08 -0.000310598)
(0.0728059 7.88222e-07 -6.41936e-05)
(0.0728379 1.42348e-06 0.000197507)
(0.072684 1.98113e-06 0.000475572)
(0.0723337 2.39788e-06 0.00076992)
(0.0717768 2.50445e-06 0.00107999)
(0.0710029 2.15877e-06 0.00140488)
(0.070002 1.37091e-06 0.00174355)
(0.0687647 3.06008e-07 0.00209483)
(0.0672822 -8.11421e-07 0.00245737)
(0.0655474 -1.79708e-06 0.00282936)
(0.0635547 -2.5352e-06 0.00320846)
(0.0612996 -2.93487e-06 0.00359162)
(0.0587792 -2.90444e-06 0.00397518)
(0.0559924 -2.4282e-06 0.0043548)
(0.052941 -1.65557e-06 0.00472566)
(0.0496307 -8.0992e-07 0.0050825)
(0.0460718 2.20657e-08 0.00541968)
(0.0422782 8.75714e-07 0.00573071)
(0.0382672 1.65743e-06 0.00600738)
(0.0340603 2.15893e-06 0.00623942)
(0.0296865 2.39802e-06 0.00641515)
(0.0251839 2.56703e-06 0.00652182)
(0.0205992 2.57137e-06 0.00654416)
(0.0159882 2.19882e-06 0.006463)
(0.0114173 1.70352e-06 0.00625196)
(0.00696713 1.38139e-06 0.00587971)
(0.00273761 1.00959e-06 0.00531574)
(-0.00116302 6.64496e-07 0.00452228)
(-0.00458461 7.53982e-07 0.00345822)
(-0.0073799 7.09313e-07 0.00208301)
(-0.0093739 1.6797e-07 0.000377022)
(-0.0103742 1.42486e-07 -0.00161543)
(-0.0101729 5.04203e-07 -0.00371899)
(-0.00861036 9.81011e-08 -0.00547615)
(-0.00560125 3.40013e-07 -0.00589967)
(-0.00140081 1.01721e-06 -0.00352538)
(0.000825659 -2.77445e-06 -0.00215951)
(0.00209905 -7.37036e-07 -0.00226152)
(0.00245532 -3.34664e-07 -0.00136553)
(0.00226191 -2.19265e-07 -0.000314835)
(0.00159473 -1.78485e-07 0.000614356)
(0.000561862 -1.89022e-07 0.00136104)
(-0.00076676 -9.59881e-08 0.0019398)
(-0.00233173 1.90074e-07 0.00238489)
(-0.00408959 5.38714e-07 0.00273042)
(-0.006007 7.31129e-07 0.00300442)
(-0.00805991 6.61698e-07 0.00322931)
(-0.010231 3.5999e-07 0.0034216)
(-0.0125087 -9.02119e-08 0.0035931)
(-0.0148854 -6.03398e-07 0.00375215)
(-0.0173574 -1.10145e-06 0.00390442)
(-0.0199228 -1.52435e-06 0.00405357)
(-0.0225811 -1.83257e-06 0.00420178)
(-0.0253325 -1.97918e-06 0.00435021)
(-0.0281769 -1.89764e-06 0.00449923)
(-0.0311143 -1.55061e-06 0.00464852)
(-0.0341442 -9.92958e-07 0.00479719)
(-0.0372656 -3.611e-07 0.00494387)
(-0.0404762 2.27287e-07 0.005087)
(-0.0437727 7.5308e-07 0.00522498)
(-0.0471507 1.22809e-06 0.00535621)
(-0.0506053 1.58406e-06 0.00547888)
(-0.0541306 1.71765e-06 0.00559107)
(-0.0577202 1.57773e-06 0.00569093)
(-0.0613658 1.2015e-06 0.00577689)
(-0.0650582 7.92972e-07 0.00584768)
(-0.0687876 5.30757e-07 0.00590226)
(-0.072544 3.3759e-07 0.00593966)
(-0.0763167 1.70839e-07 0.00595885)
(-0.0800948 1.87885e-08 0.00595908)
(-0.0838668 -2.10519e-07 0.00593994)
(-0.0876201 -4.22391e-07 0.00590117)
(-0.0913425 -4.78597e-07 0.00584259)
(-0.095022 -4.24378e-07 0.00576428)
(-0.0986462 -5.05126e-07 0.00566653)
(-0.102203 -5.49418e-07 0.00554945)
(-0.105681 -5.57635e-07 0.00541384)
(-0.109068 -5.94784e-07 0.00526041)
(-0.112353 -4.88891e-07 0.00508989)
(-0.115527 -5.07111e-07 0.00490375)
(-0.11858 -3.61971e-07 0.00470244)
(-0.121502 -3.21034e-07 0.00448743)
(-0.124287 -3.18156e-07 0.00426015)
(-0.126926 -2.33527e-07 0.00402109)
(-0.129412 -4.04967e-07 0.00377245)
(-0.131739 -4.43334e-07 0.00351512)
(-0.133901 -2.89049e-07 0.0032501)
(-0.135896 -1.44101e-07 0.00297942)
(-0.137718 -1.69242e-07 0.00270371)
(-0.139366 -1.27629e-07 0.00242397)
(-0.140837 -7.17616e-08 0.00214167)
(-0.14213 -2.13306e-07 0.00185811)
(-0.143244 -1.63009e-07 0.00157428)
(-0.144179 -8.72101e-08 0.00129105)
(-0.144935 -2.14317e-07 0.00101002)
(-0.145514 -1.78196e-07 0.000731919)
(-0.145917 -1.39959e-07 0.00045668)
(-0.146147 -2.21993e-07 0.000185842)
(-0.146204 -8.2704e-08 -7.95304e-05)
(-0.146092 1.0702e-07 -0.000340048)
(-0.145816 1.33932e-07 -0.00059498)
(-0.145379 1.67867e-07 -0.000842999)
(-0.144786 9.85156e-08 -0.00108411)
(-0.14404 -1.54449e-07 -0.00131786)
(-0.143146 -3.08837e-07 -0.00154328)
(-0.142107 -2.77616e-07 -0.00176031)
(-0.14093 -1.61325e-07 -0.00196899)
(-0.139619 4.21623e-09 -0.00216909)
(-0.138179 7.17312e-08 -0.00236099)
(-0.136617 -7.0796e-09 -0.00254469)
(-0.134937 -2.66336e-09 -0.00271949)
(-0.133144 1.08445e-07 -0.00288546)
(-0.131245 1.06412e-07 -0.00304306)
(-0.129245 6.48691e-08 -0.00319175)
(-0.127147 2.03228e-07 -0.00333095)
(-0.124959 4.08912e-07 -0.00346122)
(-0.122684 4.89441e-07 -0.00358311)
(-0.120328 5.29649e-07 -0.00369643)
(-0.117895 6.26782e-07 -0.00380123)
(-0.115391 6.80206e-07 -0.00389809)
(-0.11282 6.30616e-07 -0.00398727)
(-0.110188 5.54114e-07 -0.00406874)
(-0.107499 4.69841e-07 -0.00414278)
(-0.104758 3.31483e-07 -0.00420959)
(-0.10197 1.80317e-07 -0.00426909)
(-0.0991397 9.84537e-08 -0.00432139)
(-0.0962703 6.41612e-08 -0.00436707)
(-0.0933664 -3.67471e-09 -0.00440659)
(-0.0904321 -1.18593e-07 -0.00443998)
(-0.0874713 -2.42588e-07 -0.00446735)
(-0.0844876 -3.74928e-07 -0.00448903)
(-0.0814844 -5.5299e-07 -0.00450522)
(-0.0784652 -7.97041e-07 -0.00451611)
(-0.0754333 -1.09003e-06 -0.00452211)
(-0.0723913 -1.37765e-06 -0.00452356)
(-0.069342 -1.56483e-06 -0.00452041)
(-0.0662882 -1.55589e-06 -0.0045125)
(-0.0632332 -1.34727e-06 -0.00450014)
(-0.0601801 -1.07152e-06 -0.00448397)
(-0.0571318 -9.05973e-07 -0.00446448)
(-0.054091 -9.17519e-07 -0.00444185)
(-0.05106 -1.01316e-06 -0.00441618)
(-0.0480406 -1.05331e-06 -0.00438768)
(-0.0450346 -9.91348e-07 -0.00435648)
(-0.0420437 -8.79201e-07 -0.00432273)
(-0.0390698 -7.57574e-07 -0.00428668)
(-0.0361149 -5.89928e-07 -0.00424865)
(-0.033181 -3.20329e-07 -0.00420884)
(-0.0302695 4.24782e-08 -0.00416739)
(-0.0273815 4.39757e-07 -0.00412438)
(-0.0245177 8.54843e-07 -0.00407989)
(-0.0216787 1.34308e-06 -0.00403393)
(-0.0188655 1.9321e-06 -0.00398655)
(-0.0160795 2.50063e-06 -0.00393812)
(-0.0133217 2.80166e-06 -0.00388927)
(-0.0105928 2.64718e-06 -0.00384058)
(-0.00789294 2.07553e-06 -0.00379244)
(-0.00522229 1.31828e-06 -0.00374501)
(-0.00258115 5.96684e-07 -0.00369863)
(3.11694e-05 -3.38208e-08 -0.00365304)
(0.00261352 -6.32791e-07 -0.00360757)
(0.0051646 -1.20756e-06 -0.00356228)
(0.00768539 -1.64204e-06 -0.00351616)
(0.0101751 -1.82436e-06 -0.00346917)
(0.0126339 -1.78088e-06 -0.00342246)
(0.0150617 -1.62393e-06 -0.00337609)
(0.0174584 -1.42131e-06 -0.00333013)
(0.0198243 -1.14445e-06 -0.00328465)
(0.0221593 -7.50638e-07 -0.0032397)
(0.0244635 -2.84805e-07 -0.00319521)
(0.026737 1.30537e-07 -0.00315096)
(0.0289799 4.14832e-07 -0.00310673)
(0.0311924 6.14287e-07 -0.00306242)
(0.0333742 8.39194e-07 -0.00301802)
(0.0355248 1.11928e-06 -0.0029735)
(0.0376435 1.34073e-06 -0.00292875)
(0.0397297 1.33284e-06 -0.00288352)
(0.0417828 1.01079e-06 -0.00283743)
(0.0438023 4.40927e-07 -0.00278998)
(0.0457871 -2.05507e-07 -0.00274055)
(0.0477357 -7.37841e-07 -0.00268845)
(0.0496461 -1.00095e-06 -0.00263297)
(0.0515156 -9.06057e-07 -0.00257348)
(0.0533411 -4.74313e-07 -0.00250946)
(0.0551195 1.27022e-07 -0.00244051)
(0.0568472 6.28661e-07 -0.00236625)
(0.0585208 8.05785e-07 -0.0022861)
(0.060136 6.34072e-07 -0.00219917)
(0.061688 3.13125e-07 -0.00210437)
(0.0631712 1.11198e-07 -0.00200062)
(0.0645794 1.43258e-07 -0.00188712)
(0.0659056 2.66163e-07 -0.00176332)
(0.0671426 1.8954e-07 -0.00162868)
(0.0682827 -2.74299e-07 -0.00148243)
(0.0693177 -1.02145e-06 -0.00132346)
(0.0702392 -1.69217e-06 -0.00115063)
(0.0710381 -1.91509e-06 -0.000963153)
(0.0717048 -1.56326e-06 -0.000760775)
(0.0722292 -8.11758e-07 -0.000543577)
(0.0726004 3.76251e-08 -0.00031161)
(0.0728074 7.88226e-07 -6.48167e-05)
(0.072839 1.42348e-06 0.000197802)
(0.0726849 1.98114e-06 0.000477174)
(0.0723343 2.3979e-06 0.000772834)
(0.0717768 2.50447e-06 0.00108386)
(0.0710021 2.15878e-06 0.00140916)
(0.0700003 1.37092e-06 0.0017477)
(0.0687623 3.0601e-07 0.00209842)
(0.0672797 -8.11427e-07 0.00246005)
(0.0655455 -1.79709e-06 0.00283088)
(0.0635538 -2.53521e-06 0.00320857)
(0.0612998 -2.93488e-06 0.00359013)
(0.0587801 -2.90444e-06 0.00397198)
(0.0559935 -2.4282e-06 0.00435005)
(0.0529423 -1.65557e-06 0.00471983)
(0.0496326 -8.09915e-07 0.00507633)
(0.0460746 2.20655e-08 0.00541389)
(0.0422814 8.75703e-07 0.00572556)
(0.0382695 1.65741e-06 0.00600261)
(0.0340613 2.1589e-06 0.00623483)
(0.0296872 2.39798e-06 0.00641108)
(0.0251851 2.56698e-06 0.0065188)
(0.0206004 2.57133e-06 0.00654222)
(0.0159884 2.19878e-06 0.00646188)
(0.0114167 1.7035e-06 0.00625156)
(0.0069666 1.38138e-06 0.00587981)
(0.00273759 1.00958e-06 0.00531612)
(-0.0011631 6.64492e-07 0.00452307)
(-0.00458599 7.5398e-07 0.0034591)
(-0.0073823 7.09312e-07 0.00208341)
(-0.00937478 1.6797e-07 0.000377524)
(-0.0103733 1.42486e-07 -0.00161473)
(-0.0101736 5.04203e-07 -0.00371946)
(-0.00861204 9.81015e-08 -0.00547671)
(-0.00559971 3.40017e-07 -0.00589668)
(-0.00139817 1.01722e-06 -0.00352244)
(0.00069364 -3.36091e-06 -0.00350947)