/*--------------------------------*- C++ -*----------------------------------*\
  =========                 |
  \\      /  F ield         | OpenFOAM: The Open Source CFD Toolbox
   \\    /   O peration     | Website:  https://openfoam.org
    \\  /    A nd           | Version:  8
     \\/     M anipulation  |
\*---------------------------------------------------------------------------*/
FoamFile
{
    version     2.0;
    format      ascii;
    class       volScalarField;
    location    "2900";
    object      alphat;
}
// * * * * * * * * * * * * * * * * * * * * * * * * * * * * * * * * * * * * * //

dimensions      [1 -1 -1 0 0 0 0];

internalField   nonuniform List<scalar> 
48000
(
4.33277e-05
7.89752e-05
9.95544e-05
0.000113885
0.000125778
0.000135768
0.000144416
0.000152139
0.000159291
0.000165829
0.00017191
0.000177598
0.000182947
0.000187996
0.000192778
0.000197318
0.000201637
0.000205751
0.000209674
0.000213417
0.000216989
0.0002204
0.000223657
0.000226765
0.000229731
0.000232559
0.000235254
0.000237822
0.000240265
0.000242588
0.000244795
0.000246889
0.000248873
0.000250752
0.000252528
0.000254204
0.000255785
0.000257273
0.000258671
0.000259982
0.000261209
0.000262355
0.000263422
0.000264413
0.000265336
0.0002662
0.000266996
0.000267727
0.000268395
0.000269003
0.000269552
0.000270046
0.000270486
0.000270876
0.000271216
0.00027151
0.000271759
0.000271966
0.000272131
0.000272257
0.000272346
0.000272399
0.000272417
0.000272403
0.000272356
0.00027228
0.000272175
0.000272042
0.000271882
0.000271697
0.000271487
0.000271254
0.000270998
0.000270721
0.000270422
0.000270104
0.000269766
0.000269409
0.000269034
0.000268642
0.000268232
0.000267807
0.000267365
0.000266907
0.000266435
0.000265948
0.000265447
0.000264931
0.000264402
0.000263859
0.000263303
0.000262734
0.000262152
0.000261557
0.00026095
0.00026033
0.000259698
0.000259054
0.000258397
0.000257729
0.000257048
0.000256355
0.000255649
0.000254932
0.000254202
0.000253459
0.000252705
0.000251937
0.000251157
0.000250364
0.000249558
0.000248739
0.000247907
0.000247061
0.000246202
0.000245329
0.000244441
0.000243539
0.000242623
0.000241692
0.000240745
0.000239784
0.000238807
0.000237814
0.000236804
0.000235779
0.000234736
0.000233677
0.0002326
0.000231506
0.000230393
0.000229262
0.000228113
0.000226945
0.000225758
0.000224551
0.000223324
0.000222077
0.00022081
0.000219521
0.000218212
0.000216881
0.000215528
0.000214153
0.000212756
0.000211336
0.000209893
0.000208427
0.000206936
0.000205422
0.000203884
0.00020232
0.000200732
0.000199118
0.000197479
0.000195813
0.000194122
0.000192403
0.000190657
0.000188883
0.000187081
0.00018525
0.00018339
0.000181501
0.000179581
0.00017763
0.000175647
0.000173631
0.000171582
0.000169498
0.000167378
0.000165221
0.000163026
0.00016079
0.000158511
0.000156188
0.000153818
0.000151398
0.000148925
0.000146395
0.000143804
0.00014115
0.000138438
0.000135665
0.0001328
0.000129831
0.000126743
0.000123517
0.000120131
0.000116554
0.000112748
0.000108659
0.000104252
9.94316e-05
9.40252e-05
8.77908e-05
8.02902e-05
7.05315e-05
5.44033e-05
5.66796e-05
4.33248e-05
7.89787e-05
9.95559e-05
0.000113886
0.000125778
0.000135769
0.000144416
0.00015214
0.000159292
0.000165829
0.00017191
0.000177599
0.000182947
0.000187996
0.000192778
0.000197319
0.000201637
0.000205751
0.000209674
0.000213417
0.00021699
0.000220401
0.000223657
0.000226765
0.000229731
0.000232559
0.000235255
0.000237822
0.000240265
0.000242588
0.000244795
0.000246889
0.000248873
0.000250752
0.000252528
0.000254205
0.000255785
0.000257273
0.000258671
0.000259982
0.000261209
0.000262355
0.000263422
0.000264413
0.000265336
0.0002662
0.000266996
0.000267727
0.000268395
0.000269003
0.000269552
0.000270046
0.000270486
0.000270876
0.000271216
0.00027151
0.000271759
0.000271966
0.000272131
0.000272257
0.000272346
0.000272399
0.000272417
0.000272403
0.000272356
0.00027228
0.000272175
0.000272042
0.000271882
0.000271697
0.000271487
0.000271254
0.000270998
0.000270721
0.000270422
0.000270104
0.000269766
0.000269409
0.000269034
0.000268642
0.000268232
0.000267807
0.000267365
0.000266907
0.000266435
0.000265948
0.000265447
0.000264931
0.000264402
0.000263859
0.000263303
0.000262734
0.000262152
0.000261557
0.00026095
0.00026033
0.000259698
0.000259054
0.000258397
0.000257729
0.000257048
0.000256355
0.000255649
0.000254932
0.000254202
0.000253459
0.000252705
0.000251937
0.000251157
0.000250364
0.000249558
0.000248739
0.000247907
0.000247061
0.000246202
0.000245329
0.000244441
0.000243539
0.000242623
0.000241692
0.000240745
0.000239784
0.000238807
0.000237814
0.000236804
0.000235779
0.000234736
0.000233677
0.0002326
0.000231506
0.000230393
0.000229262
0.000228113
0.000226945
0.000225758
0.000224551
0.000223324
0.000222077
0.00022081
0.000219521
0.000218212
0.000216881
0.000215528
0.000214153
0.000212756
0.000211336
0.000209893
0.000208427
0.000206936
0.000205422
0.000203884
0.00020232
0.000200732
0.000199118
0.000197479
0.000195813
0.000194122
0.000192403
0.000190657
0.000188883
0.000187081
0.00018525
0.00018339
0.000181501
0.000179581
0.00017763
0.000175647
0.000173631
0.000171582
0.000169498
0.000167378
0.000165221
0.000163026
0.00016079
0.000158511
0.000156188
0.000153818
0.000151399
0.000148925
0.000146395
0.000143804
0.00014115
0.000138438
0.000135665
0.0001328
0.000129831
0.000126743
0.000123517
0.000120131
0.000116554
0.000112748
0.000108659
0.000104252
9.94317e-05
9.40254e-05
8.77911e-05
8.02908e-05
7.05323e-05
5.43974e-05
5.66778e-05
6.88122e-05
0.000514487
0.000818062
0.00102967
0.0011873
0.00131652
0.00142725
0.00152454
0.00161108
0.00168962
0.00176151
0.00182785
0.00188945
0.00194692
0.00200078
0.0020514
0.00209911
0.00214417
0.00218681
0.00222722
0.00226554
0.00230194
0.00233652
0.00236939
0.00240064
0.00243037
0.00245865
0.00248554
0.0025111
0.00253541
0.0025585
0.00258043
0.00260125
0.002621
0.00263971
0.00265744
0.00267421
0.00269006
0.00270502
0.00271913
0.00273241
0.00274489
0.00275659
0.00276751
0.00277756
0.00278679
0.00279532
0.00280322
0.00281053
0.00281728
0.0028235
0.00282921
0.00283442
0.00283917
0.00284345
0.0028473
0.00285073
0.00285375
0.00285638
0.00285863
0.00286053
0.00286207
0.00286328
0.00286416
0.00286473
0.002865
0.00286498
0.00286468
0.00286411
0.00286328
0.0028622
0.00286087
0.00285931
0.00285751
0.0028555
0.00285327
0.00285083
0.00284819
0.00284536
0.00284233
0.00283911
0.00283572
0.00283214
0.00282839
0.00282447
0.00282038
0.00281613
0.00281172
0.00280715
0.00280242
0.00279754
0.00279251
0.00278732
0.00278199
0.00277651
0.00277088
0.00276511
0.00275919
0.00275313
0.00274692
0.00274056
0.00273406
0.00272742
0.00272063
0.00271369
0.00270661
0.00269937
0.00269199
0.00268446
0.00267678
0.00266894
0.00266095
0.0026528
0.00264449
0.00263603
0.0026274
0.0026186
0.00260964
0.00260051
0.00259121
0.00258173
0.00257208
0.00256224
0.00255223
0.00254203
0.00253164
0.00252106
0.00251028
0.00249931
0.00248814
0.00247676
0.00246518
0.00245339
0.00244138
0.00242916
0.00241672
0.00240405
0.00239117
0.00237805
0.0023647
0.00235111
0.00233728
0.00232321
0.0023089
0.00229434
0.00227952
0.00226445
0.00224911
0.00223352
0.00221766
0.00220153
0.00218512
0.00216843
0.00215147
0.00213422
0.00211667
0.00209883
0.00208069
0.00206225
0.00204349
0.00202442
0.00200503
0.0019853
0.00196524
0.00194483
0.00192406
0.00190293
0.00188142
0.00185952
0.00183722
0.00181449
0.00179133
0.00176771
0.00174361
0.00171899
0.00169384
0.00166812
0.00164178
0.00161477
0.00158703
0.00155848
0.001529
0.00149842
0.00146662
0.00143356
0.00139914
0.00136318
0.00132541
0.00128554
0.0012431
0.00119745
0.00114755
0.00109144
0.00102781
0.000954159
0.000866007
0.000755123
0.000604688
0.000376449
4.82844e-05
6.88159e-05
0.000514508
0.000818078
0.00102969
0.00118733
0.00131654
0.00142728
0.00152457
0.00161111
0.00168964
0.00176154
0.00182787
0.00188947
0.00194695
0.0020008
0.00205142
0.00209913
0.00214419
0.00218683
0.00222723
0.00226556
0.00230195
0.00233653
0.0023694
0.00240066
0.00243039
0.00245866
0.00248555
0.00251112
0.00253542
0.00255851
0.00258045
0.00260126
0.00262101
0.00263973
0.00265745
0.00267422
0.00269007
0.00270503
0.00271914
0.00273242
0.0027449
0.0027566
0.00276752
0.00277757
0.0027868
0.00279533
0.00280322
0.00281054
0.00281729
0.00282351
0.00282922
0.00283443
0.00283917
0.00284346
0.00284731
0.00285074
0.00285376
0.00285639
0.00285864
0.00286053
0.00286208
0.00286329
0.00286417
0.00286474
0.00286501
0.00286499
0.00286469
0.00286412
0.00286329
0.0028622
0.00286088
0.00285931
0.00285752
0.00285551
0.00285328
0.00285084
0.0028482
0.00284536
0.00284234
0.00283912
0.00283572
0.00283215
0.0028284
0.00282448
0.00282039
0.00281614
0.00281173
0.00280716
0.00280243
0.00279755
0.00279251
0.00278733
0.002782
0.00277652
0.00277089
0.00276512
0.0027592
0.00275313
0.00274692
0.00274057
0.00273407
0.00272742
0.00272063
0.0027137
0.00270661
0.00269938
0.002692
0.00268447
0.00267678
0.00266895
0.00266096
0.00265281
0.0026445
0.00263603
0.0026274
0.00261861
0.00260965
0.00260052
0.00259121
0.00258174
0.00257208
0.00256225
0.00255223
0.00254203
0.00253164
0.00252106
0.00251029
0.00249931
0.00248814
0.00247677
0.00246518
0.00245339
0.00244139
0.00242917
0.00241672
0.00240406
0.00239117
0.00237805
0.0023647
0.00235111
0.00233729
0.00232322
0.00230891
0.00229434
0.00227952
0.00226445
0.00224912
0.00223353
0.00221766
0.00220153
0.00218512
0.00216844
0.00215147
0.00213422
0.00211668
0.00209884
0.0020807
0.00206226
0.0020435
0.00202443
0.00200503
0.00198531
0.00196524
0.00194483
0.00192407
0.00190293
0.00188142
0.00185952
0.00183722
0.0018145
0.00179133
0.00176771
0.00174361
0.001719
0.00169385
0.00166812
0.00164178
0.00161477
0.00158704
0.00155848
0.001529
0.00149843
0.00146662
0.00143357
0.00139915
0.00136318
0.00132542
0.00128554
0.0012431
0.00119745
0.00114756
0.00109145
0.00102782
0.000954162
0.000866011
0.000755129
0.000604699
0.000376457
4.83021e-05
8.56303e-05
0.000781292
0.00138966
0.00184392
0.00220212
0.0024994
0.00275483
0.00297934
0.00317971
0.0033608
0.00352595
0.00367765
0.00381777
0.00394781
0.00406894
0.00418214
0.00428821
0.00438783
0.00448158
0.00456994
0.00465336
0.00473222
0.00480683
0.00487751
0.00494451
0.00500806
0.00506838
0.00512566
0.00518007
0.00523176
0.00528088
0.00532755
0.00537191
0.00541404
0.00545407
0.00549208
0.00552815
0.00556238
0.00559483
0.00562557
0.00565468
0.00568219
0.00570815
0.00573258
0.00575546
0.00577685
0.00579686
0.00581562
0.00583318
0.00584961
0.00586496
0.00587928
0.0058926
0.00590498
0.00591643
0.00592699
0.00593671
0.0059456
0.00595369
0.00596102
0.0059676
0.00597347
0.00597865
0.00598316
0.00598702
0.00599026
0.00599289
0.00599493
0.00599641
0.00599733
0.00599772
0.00599759
0.00599695
0.00599582
0.00599422
0.00599215
0.00598963
0.00598666
0.00598327
0.00597945
0.00597522
0.00597059
0.00596556
0.00596014
0.00595434
0.00594816
0.00594162
0.00593471
0.00592744
0.00591982
0.00591185
0.00590353
0.00589487
0.00588587
0.00587653
0.00586685
0.00585683
0.00584648
0.0058358
0.00582478
0.00581344
0.00580175
0.00578974
0.00577738
0.00576469
0.00575167
0.0057383
0.00572459
0.00571054
0.00569613
0.00568138
0.00566627
0.00565081
0.00563498
0.00561879
0.00560222
0.00558529
0.00556797
0.00555027
0.00553218
0.00551369
0.0054948
0.00547551
0.0054558
0.00543568
0.00541513
0.00539415
0.00537273
0.00535087
0.00532856
0.00530579
0.00528256
0.00525885
0.00523467
0.00520999
0.00518483
0.00515916
0.00513299
0.0051063
0.00507908
0.00505133
0.00502304
0.0049942
0.00496481
0.00493485
0.00490431
0.00487319
0.00484148
0.00480916
0.00477623
0.00474268
0.0047085
0.00467367
0.00463819
0.00460203
0.0045652
0.00452767
0.00448942
0.00445046
0.00441075
0.00437027
0.00432902
0.00428696
0.00424408
0.00420035
0.00415573
0.00411021
0.00406374
0.00401629
0.00396781
0.00391826
0.00386759
0.00381573
0.00376261
0.00370816
0.0036523
0.00359491
0.00353587
0.00347505
0.00341226
0.00334731
0.00327992
0.0032098
0.00313662
0.00306006
0.00297969
0.0028949
0.00280495
0.00270887
0.00260536
0.00249263
0.00236815
0.0022283
0.00206839
0.00188238
0.00166017
0.00138576
0.00103321
0.000565426
6.21292e-05
8.56317e-05
0.000781307
0.00138969
0.00184396
0.00220217
0.00249945
0.00275488
0.00297939
0.00317976
0.00336085
0.003526
0.00367769
0.00381782
0.00394785
0.00406898
0.00418218
0.00428825
0.00438787
0.00448161
0.00456997
0.00465339
0.00473225
0.00480686
0.00487754
0.00494453
0.00500809
0.00506841
0.00512568
0.00518009
0.00523178
0.0052809
0.00532757
0.00537192
0.00541406
0.00545408
0.00549209
0.00552817
0.00556239
0.00559484
0.00562559
0.00565469
0.0056822
0.00570816
0.00573259
0.00575547
0.00577685
0.00579687
0.00581562
0.00583318
0.00584961
0.00586497
0.00587928
0.00589261
0.00590498
0.00591643
0.005927
0.00593671
0.0059456
0.00595369
0.00596102
0.00596761
0.00597348
0.00597865
0.00598316
0.00598703
0.00599026
0.00599289
0.00599494
0.00599641
0.00599733
0.00599772
0.00599759
0.00599695
0.00599583
0.00599422
0.00599215
0.00598963
0.00598667
0.00598327
0.00597945
0.00597522
0.00597059
0.00596556
0.00596014
0.00595434
0.00594816
0.00594162
0.00593471
0.00592745
0.00591982
0.00591185
0.00590353
0.00589487
0.00588587
0.00587653
0.00586685
0.00585683
0.00584648
0.0058358
0.00582479
0.00581344
0.00580175
0.00578974
0.00577738
0.0057647
0.00575167
0.0057383
0.00572459
0.00571054
0.00569613
0.00568138
0.00566627
0.00565081
0.00563498
0.00561879
0.00560222
0.00558529
0.00556797
0.00555027
0.00553218
0.00551369
0.0054948
0.00547551
0.0054558
0.00543568
0.00541513
0.00539415
0.00537273
0.00535087
0.00532856
0.00530579
0.00528256
0.00525885
0.00523467
0.00520999
0.00518483
0.00515916
0.00513299
0.0051063
0.00507908
0.00505133
0.00502304
0.0049942
0.00496481
0.00493485
0.00490431
0.00487319
0.00484148
0.00480916
0.00477623
0.00474268
0.0047085
0.00467367
0.00463819
0.00460203
0.0045652
0.00452767
0.00448942
0.00445046
0.00441075
0.00437027
0.00432902
0.00428696
0.00424408
0.00420035
0.00415573
0.00411021
0.00406374
0.00401629
0.00396781
0.00391826
0.00386759
0.00381573
0.00376261
0.00370816
0.0036523
0.00359491
0.00353587
0.00347505
0.00341226
0.00334731
0.00327992
0.0032098
0.00313662
0.00306006
0.00297969
0.0028949
0.00280495
0.00270887
0.00260536
0.00249263
0.00236815
0.0022283
0.00206839
0.00188238
0.00166018
0.00138576
0.00103321
0.000565417
6.21285e-05
9.7154e-05
0.000941665
0.00177043
0.00242787
0.00296478
0.00341815
0.00381107
0.00415824
0.00446938
0.00475127
0.00500881
0.00524564
0.00546457
0.0056678
0.00585712
0.006034
0.00619965
0.00635512
0.00650131
0.00663899
0.00676884
0.00689147
0.00700741
0.00711713
0.00722107
0.00731961
0.0074131
0.00750185
0.00758615
0.00766625
0.00774241
0.00781482
0.0078837
0.00794921
0.00801154
0.00807083
0.00812723
0.00818087
0.00823186
0.00828032
0.00832635
0.00837003
0.00841145
0.00845065
0.00848769
0.00852262
0.00855559
0.00858671
0.00861607
0.00864375
0.00866983
0.00869438
0.00871746
0.00873912
0.00875942
0.00877841
0.00879613
0.00881263
0.00882795
0.00884212
0.0088552
0.00886721
0.00887818
0.00888816
0.00889717
0.00890524
0.00891239
0.00891867
0.00892409
0.00892867
0.00893244
0.00893543
0.00893764
0.00893911
0.00893985
0.00893987
0.0089392
0.00893785
0.00893583
0.00893316
0.00892985
0.00892592
0.00892137
0.00891621
0.00891046
0.00890412
0.0088972
0.00888971
0.00888166
0.00887305
0.00886389
0.00885418
0.00884392
0.00883313
0.0088218
0.00880994
0.00879754
0.00878462
0.00877116
0.00875718
0.00874266
0.00872762
0.00871204
0.00869594
0.0086793
0.00866212
0.0086444
0.00862613
0.00860732
0.00858796
0.00856804
0.00854756
0.00852652
0.0085049
0.0084827
0.00845991
0.00843653
0.00841255
0.00838797
0.00836277
0.00833694
0.00831048
0.00828338
0.00825563
0.00822722
0.00819814
0.00816838
0.00813793
0.00810678
0.00807492
0.00804233
0.00800902
0.00797495
0.00794013
0.00790455
0.00786818
0.00783102
0.00779305
0.00775426
0.00771465
0.00767418
0.00763286
0.00759067
0.00754758
0.00750359
0.00745869
0.00741284
0.00736605
0.00731828
0.00726953
0.00721977
0.00716898
0.00711715
0.00706425
0.00701025
0.00695514
0.00689888
0.00684145
0.00678282
0.00672296
0.00666182
0.00659938
0.00653559
0.00647041
0.00640379
0.00633567
0.00626601
0.00619472
0.00612175
0.00604701
0.00597041
0.00589186
0.00581124
0.00572843
0.00564328
0.00555563
0.00546529
0.00537204
0.00527562
0.00517572
0.005072
0.00496401
0.00485126
0.00473318
0.00460909
0.00447817
0.00433934
0.0041913
0.0040323
0.00386013
0.00367191
0.00346376
0.00323051
0.0029652
0.002659
0.00229898
0.00186686
0.0013379
0.000689934
7.08829e-05
9.71547e-05
0.000941684
0.00177047
0.00242792
0.00296485
0.00341822
0.00381115
0.00415832
0.00446945
0.00475134
0.00500888
0.00524571
0.00546464
0.00566787
0.00585718
0.00603406
0.0061997
0.00635517
0.00650136
0.00663904
0.00676889
0.00689151
0.00700745
0.00711717
0.00722111
0.00731965
0.00741313
0.00750188
0.00758618
0.00766628
0.00774243
0.00781484
0.00788372
0.00794923
0.00801156
0.00807085
0.00812725
0.00818088
0.00823187
0.00828033
0.00832636
0.00837004
0.00841146
0.00845066
0.0084877
0.00852263
0.0085556
0.00858672
0.00861608
0.00864376
0.00866984
0.00869439
0.00871747
0.00873913
0.00875943
0.00877841
0.00879613
0.00881263
0.00882795
0.00884213
0.0088552
0.00886721
0.00887818
0.00888816
0.00889717
0.00890524
0.00891239
0.00891867
0.00892409
0.00892867
0.00893244
0.00893543
0.00893764
0.00893911
0.00893985
0.00893987
0.0089392
0.00893785
0.00893583
0.00893316
0.00892985
0.00892592
0.00892137
0.00891621
0.00891046
0.00890412
0.0088972
0.00888971
0.00888166
0.00887305
0.00886389
0.00885418
0.00884392
0.00883313
0.0088218
0.00880993
0.00879754
0.00878461
0.00877116
0.00875717
0.00874266
0.00872762
0.00871204
0.00869593
0.00867929
0.00866211
0.00864439
0.00862613
0.00860732
0.00858796
0.00856804
0.00854756
0.00852651
0.00850489
0.00848269
0.00845991
0.00843653
0.00841255
0.00838796
0.00836276
0.00833694
0.00831048
0.00828338
0.00825563
0.00822722
0.00819814
0.00816837
0.00813792
0.00810677
0.00807491
0.00804233
0.00800901
0.00797495
0.00794013
0.00790454
0.00786817
0.00783101
0.00779304
0.00775426
0.00771464
0.00767418
0.00763286
0.00759066
0.00754757
0.00750359
0.00745868
0.00741284
0.00736604
0.00731828
0.00726952
0.00721976
0.00716898
0.00711714
0.00706424
0.00701025
0.00695513
0.00689888
0.00684145
0.00678282
0.00672295
0.00666182
0.00659938
0.00653559
0.00647041
0.00640378
0.00633567
0.006266
0.00619472
0.00612174
0.006047
0.00597041
0.00589185
0.00581124
0.00572842
0.00564328
0.00555563
0.00546528
0.00537203
0.00527561
0.00517572
0.00507199
0.004964
0.00485126
0.00473318
0.00460909
0.00447816
0.00433934
0.00419129
0.0040323
0.00386013
0.0036719
0.00346376
0.00323051
0.0029652
0.002659
0.00229898
0.00186686
0.0013379
0.000689928
7.08826e-05
0.000106416
0.00105129
0.00204207
0.00286173
0.00354708
0.00413392
0.00464701
0.00510315
0.00551392
0.00588755
0.00623007
0.00654598
0.0068388
0.00711127
0.00736563
0.00760372
0.00782707
0.00803701
0.00823466
0.00842101
0.00859693
0.00876321
0.00892052
0.00906951
0.00921072
0.00934466
0.00947181
0.00959259
0.00970738
0.00981653
0.00992036
0.0100192
0.0101133
0.0102028
0.0102882
0.0103695
0.0104469
0.0105206
0.0105909
0.0106578
0.0107215
0.0107821
0.0108397
0.0108945
0.0109465
0.0109958
0.0110425
0.0110869
0.0111289
0.0111687
0.0112065
0.0112422
0.0112759
0.0113079
0.011338
0.0113664
0.0113931
0.0114182
0.0114418
0.0114638
0.0114845
0.0115037
0.0115215
0.0115381
0.0115533
0.0115673
0.0115802
0.0115918
0.0116023
0.0116117
0.0116201
0.0116274
0.0116336
0.0116389
0.0116432
0.0116465
0.011649
0.0116505
0.0116511
0.0116508
0.0116497
0.0116477
0.011645
0.0116414
0.0116369
0.0116317
0.0116258
0.011619
0.0116115
0.0116032
0.0115942
0.0115844
0.0115739
0.0115626
0.0115507
0.0115379
0.0115245
0.0115104
0.0114955
0.0114799
0.0114636
0.0114465
0.0114288
0.0114103
0.0113911
0.0113711
0.0113504
0.011329
0.0113068
0.0112839
0.0112602
0.0112357
0.0112105
0.0111845
0.0111577
0.0111301
0.0111016
0.0110724
0.0110423
0.0110114
0.0109797
0.0109471
0.0109136
0.0108792
0.0108439
0.0108077
0.0107706
0.0107326
0.0106936
0.0106536
0.0106126
0.0105706
0.0105276
0.0104836
0.0104385
0.0103924
0.0103451
0.0102968
0.0102473
0.0101967
0.010145
0.010092
0.0100379
0.00998248
0.00992585
0.00986794
0.00980874
0.00974822
0.00968634
0.00962309
0.00955844
0.00949235
0.0094248
0.00935574
0.00928514
0.00921297
0.00913918
0.00906374
0.00898659
0.00890768
0.00882696
0.00874437
0.00865985
0.00857334
0.00848475
0.008394
0.00830101
0.00820567
0.00810788
0.00800752
0.00790445
0.00779852
0.00768956
0.00757739
0.00746177
0.00734247
0.00721921
0.00709165
0.00695941
0.00682205
0.00667904
0.00652978
0.00637355
0.0062095
0.00603661
0.00585365
0.00565911
0.0054511
0.00522724
0.00498453
0.00471914
0.00442618
0.00409925
0.00373024
0.0033086
0.00282075
0.00224904
0.00157302
0.000784852
7.78061e-05
0.000106416
0.00105131
0.00204211
0.00286179
0.00354716
0.004134
0.0046471
0.00510324
0.00551401
0.00588764
0.00623015
0.00654607
0.00683888
0.00711135
0.00736571
0.00760379
0.00782715
0.00803708
0.00823472
0.00842107
0.00859699
0.00876327
0.00892058
0.00906956
0.00921077
0.00934471
0.00947186
0.00959263
0.00970742
0.00981656
0.0099204
0.0100192
0.0101133
0.0102029
0.0102882
0.0103695
0.0104469
0.0105207
0.0105909
0.0106578
0.0107215
0.0107821
0.0108397
0.0108945
0.0109465
0.0109958
0.0110425
0.0110869
0.0111289
0.0111687
0.0112065
0.0112422
0.011276
0.0113079
0.011338
0.0113664
0.0113931
0.0114182
0.0114418
0.0114638
0.0114845
0.0115037
0.0115215
0.0115381
0.0115533
0.0115673
0.0115802
0.0115918
0.0116023
0.0116117
0.0116201
0.0116274
0.0116336
0.0116389
0.0116432
0.0116465
0.011649
0.0116505
0.0116511
0.0116508
0.0116497
0.0116477
0.011645
0.0116413
0.0116369
0.0116317
0.0116257
0.011619
0.0116115
0.0116032
0.0115942
0.0115844
0.0115739
0.0115626
0.0115506
0.0115379
0.0115245
0.0115104
0.0114955
0.0114799
0.0114636
0.0114465
0.0114288
0.0114103
0.0113911
0.0113711
0.0113504
0.011329
0.0113068
0.0112839
0.0112602
0.0112357
0.0112105
0.0111845
0.0111577
0.01113
0.0111016
0.0110724
0.0110423
0.0110114
0.0109797
0.0109471
0.0109136
0.0108792
0.0108439
0.0108077
0.0107706
0.0107326
0.0106936
0.0106536
0.0106126
0.0105706
0.0105276
0.0104836
0.0104385
0.0103924
0.0103451
0.0102968
0.0102473
0.0101967
0.010145
0.010092
0.0100379
0.00998247
0.00992584
0.00986793
0.00980873
0.00974821
0.00968633
0.00962309
0.00955843
0.00949234
0.00942479
0.00935573
0.00928513
0.00921296
0.00913917
0.00906373
0.00898658
0.00890767
0.00882695
0.00874436
0.00865984
0.00857333
0.00848474
0.00839399
0.008301
0.00820566
0.00810788
0.00800751
0.00790444
0.00779851
0.00768955
0.00757738
0.00746176
0.00734246
0.0072192
0.00709164
0.0069594
0.00682204
0.00667903
0.00652978
0.00637354
0.00620949
0.0060366
0.00585365
0.00565911
0.00545109
0.00522723
0.00498452
0.00471914
0.00442617
0.00409925
0.00373024
0.0033086
0.00282075
0.00224904
0.00157302
0.000784848
7.78061e-05
0.000114302
0.00113874
0.00225279
0.00320087
0.00400745
0.00470586
0.00532125
0.00587152
0.00636942
0.00682418
0.00724262
0.00762991
0.00799004
0.00832618
0.00864088
0.00893624
0.00921402
0.00947573
0.00972266
0.00995594
0.0101766
0.0103855
0.0105834
0.0107711
0.0109493
0.0111185
0.0112793
0.0114322
0.0115777
0.0117162
0.011848
0.0119737
0.0120934
0.0122075
0.0123163
0.01242
0.012519
0.0126134
0.0127034
0.0127893
0.0128711
0.0129492
0.0130236
0.0130945
0.013162
0.0132262
0.0132873
0.0133454
0.0134007
0.0134532
0.0135032
0.0135507
0.0135957
0.0136385
0.013679
0.0137174
0.0137538
0.0137882
0.0138206
0.0138512
0.0138801
0.0139071
0.0139325
0.0139563
0.0139785
0.0139992
0.0140184
0.0140361
0.0140525
0.0140674
0.0140811
0.0140934
0.0141045
0.0141144
0.014123
0.0141305
0.0141368
0.0141419
0.014146
0.014149
0.0141509
0.0141517
0.0141515
0.0141503
0.0141481
0.0141449
0.0141407
0.0141356
0.0141295
0.0141224
0.0141144
0.0141055
0.0140956
0.0140849
0.0140732
0.0140606
0.014047
0.0140326
0.0140173
0.014001
0.0139839
0.0139658
0.0139468
0.013927
0.0139061
0.0138844
0.0138617
0.0138382
0.0138136
0.0137881
0.0137617
0.0137343
0.0137059
0.0136765
0.0136462
0.0136148
0.0135824
0.013549
0.0135145
0.013479
0.0134424
0.0134047
0.0133659
0.013326
0.013285
0.0132428
0.0131994
0.0131549
0.0131091
0.0130621
0.0130139
0.0129644
0.0129136
0.0128615
0.0128081
0.0127533
0.0126971
0.0126396
0.0125806
0.0125201
0.0124582
0.0123947
0.0123298
0.0122632
0.0121951
0.0121253
0.0120539
0.0119808
0.0119059
0.0118293
0.0117508
0.0116705
0.0115883
0.0115042
0.0114181
0.0113299
0.0112397
0.0111472
0.0110526
0.0109556
0.0108563
0.0107546
0.0106503
0.0105434
0.0104337
0.0103213
0.0102058
0.0100873
0.00996548
0.00984029
0.0097115
0.00957891
0.0094423
0.00930141
0.00915594
0.00900557
0.0088499
0.00868851
0.00852089
0.00834645
0.00816451
0.00797426
0.00777477
0.00756493
0.0073434
0.0071086
0.00685857
0.00659095
0.00630279
0.00599048
0.00564949
0.00527418
0.00485747
0.00439051
0.00386221
0.00325915
0.00256553
0.00176553
0.000862884
8.36535e-05
0.000114302
0.00113876
0.00225283
0.00320093
0.00400753
0.00470595
0.00532135
0.00587162
0.00636952
0.00682428
0.00724272
0.00763001
0.00799014
0.00832627
0.00864097
0.00893632
0.0092141
0.00947581
0.00972274
0.00995602
0.0101767
0.0103855
0.0105835
0.0107712
0.0109494
0.0111186
0.0112794
0.0114323
0.0115778
0.0117162
0.0118481
0.0119737
0.0120934
0.0122075
0.0123163
0.01242
0.012519
0.0126134
0.0127034
0.0127893
0.0128712
0.0129492
0.0130236
0.0130945
0.013162
0.0132262
0.0132873
0.0133454
0.0134007
0.0134533
0.0135032
0.0135507
0.0135957
0.0136385
0.013679
0.0137175
0.0137538
0.0137882
0.0138206
0.0138512
0.0138801
0.0139071
0.0139325
0.0139563
0.0139785
0.0139992
0.0140184
0.0140361
0.0140525
0.0140674
0.0140811
0.0140934
0.0141045
0.0141144
0.014123
0.0141305
0.0141368
0.0141419
0.014146
0.014149
0.0141509
0.0141517
0.0141515
0.0141503
0.0141481
0.0141449
0.0141407
0.0141356
0.0141295
0.0141224
0.0141144
0.0141055
0.0140956
0.0140849
0.0140732
0.0140606
0.014047
0.0140326
0.0140173
0.014001
0.0139839
0.0139658
0.0139468
0.0139269
0.0139061
0.0138844
0.0138617
0.0138381
0.0138136
0.0137881
0.0137617
0.0137343
0.0137059
0.0136765
0.0136462
0.0136148
0.0135824
0.013549
0.0135145
0.013479
0.0134424
0.0134047
0.0133659
0.013326
0.013285
0.0132428
0.0131994
0.0131549
0.0131091
0.0130621
0.0130139
0.0129644
0.0129136
0.0128615
0.0128081
0.0127533
0.0126971
0.0126396
0.0125806
0.0125201
0.0124582
0.0123947
0.0123298
0.0122632
0.0121951
0.0121253
0.0120539
0.0119807
0.0119059
0.0118293
0.0117508
0.0116705
0.0115883
0.0115042
0.0114181
0.0113299
0.0112397
0.0111472
0.0110526
0.0109556
0.0108563
0.0107546
0.0106503
0.0105434
0.0104337
0.0103212
0.0102058
0.0100873
0.00996547
0.00984027
0.00971149
0.0095789
0.00944229
0.0093014
0.00915593
0.00900556
0.00884989
0.0086885
0.00852088
0.00834644
0.0081645
0.00797425
0.00777476
0.00756492
0.0073434
0.00710859
0.00685856
0.00659094
0.00630278
0.00599047
0.00564949
0.00527418
0.00485747
0.00439051
0.00386221
0.00325916
0.00256553
0.00176553
0.00086288
8.36535e-05
0.000121367
0.00121363
0.00242679
0.00347822
0.00438407
0.00517537
0.00587716
0.00650792
0.00708114
0.00760672
0.00809208
0.00854285
0.00896338
0.00935714
0.00972691
0.010075
0.0104032
0.0107133
0.0110067
0.0112845
0.0115478
0.0117976
0.0120349
0.0122602
0.0124745
0.0126784
0.0128724
0.0130571
0.0132331
0.0134008
0.0135607
0.0137132
0.0138587
0.0139975
0.01413
0.0142565
0.0143773
0.0144927
0.0146028
0.014708
0.0148084
0.0149044
0.0149959
0.0150833
0.0151667
0.0152462
0.015322
0.0153943
0.0154632
0.0155289
0.0155914
0.0156511
0.0157078
0.0157618
0.0158132
0.0158621
0.0159085
0.0159525
0.0159943
0.0160339
0.0160713
0.0161067
0.0161401
0.0161716
0.0162012
0.0162289
0.016255
0.0162793
0.0163019
0.0163229
0.0163424
0.0163602
0.0163766
0.0163916
0.0164051
0.0164171
0.0164279
0.0164372
0.0164453
0.016452
0.0164575
0.0164617
0.0164647
0.0164664
0.016467
0.0164664
0.0164646
0.0164617
0.0164576
0.0164524
0.0164461
0.0164386
0.0164301
0.0164204
0.0164096
0.0163978
0.0163848
0.0163708
0.0163557
0.0163395
0.0163222
0.0163038
0.0162843
0.0162637
0.016242
0.0162193
0.0161954
0.0161703
0.0161442
0.0161169
0.0160885
0.0160589
0.0160281
0.0159962
0.0159631
0.0159287
0.0158932
0.0158563
0.0158183
0.015779
0.0157384
0.0156964
0.0156532
0.0156086
0.0155626
0.0155153
0.0154665
0.0154163
0.0153647
0.0153116
0.015257
0.0152008
0.0151431
0.0150838
0.0150229
0.0149604
0.0148962
0.0148303
0.0147627
0.0146933
0.0146221
0.0145491
0.0144742
0.0143974
0.0143187
0.014238
0.0141552
0.0140704
0.0139835
0.0138944
0.0138031
0.0137095
0.0136136
0.0135153
0.0134145
0.0133113
0.0132054
0.0130969
0.0129856
0.0128715
0.0127545
0.0126345
0.0125113
0.0123848
0.012255
0.0121216
0.0119846
0.0118436
0.0116987
0.0115495
0.0113958
0.0112374
0.0110739
0.0109051
0.0107306
0.01055
0.0103627
0.0101683
0.00996611
0.00975542
0.00953538
0.00930502
0.00906317
0.0088085
0.00853938
0.0082539
0.00794976
0.00762415
0.00727371
0.00689431
0.00648093
0.00602742
0.0055263
0.00496842
0.00434282
0.00363667
0.0028361
0.0019295
0.000929799
8.87749e-05
0.000121367
0.00121365
0.00242684
0.00347829
0.00438415
0.00517546
0.00587726
0.00650803
0.00708124
0.00760683
0.00809219
0.00854295
0.00896349
0.00935724
0.00972701
0.0100751
0.0104033
0.0107134
0.0110068
0.0112846
0.0115479
0.0117977
0.0120349
0.0122603
0.0124746
0.0126784
0.0128724
0.0130571
0.0132331
0.0134008
0.0135607
0.0137132
0.0138587
0.0139975
0.0141301
0.0142566
0.0143773
0.0144927
0.0146028
0.014708
0.0148085
0.0149044
0.0149959
0.0150833
0.0151667
0.0152462
0.015322
0.0153943
0.0154632
0.0155289
0.0155915
0.0156511
0.0157078
0.0157619
0.0158132
0.0158621
0.0159085
0.0159525
0.0159943
0.0160339
0.0160713
0.0161067
0.0161401
0.0161716
0.0162012
0.0162289
0.016255
0.0162793
0.0163019
0.0163229
0.0163424
0.0163603
0.0163766
0.0163916
0.0164051
0.0164171
0.0164278
0.0164372
0.0164453
0.016452
0.0164575
0.0164617
0.0164647
0.0164664
0.016467
0.0164664
0.0164646
0.0164617
0.0164576
0.0164524
0.0164461
0.0164386
0.01643
0.0164204
0.0164096
0.0163978
0.0163848
0.0163708
0.0163557
0.0163395
0.0163222
0.0163038
0.0162843
0.0162637
0.016242
0.0162193
0.0161954
0.0161703
0.0161442
0.0161169
0.0160885
0.0160589
0.0160281
0.0159962
0.0159631
0.0159287
0.0158931
0.0158563
0.0158183