/*--------------------------------*- C++ -*----------------------------------*\
  =========                 |
  \\      /  F ield         | OpenFOAM: The Open Source CFD Toolbox
   \\    /   O peration     | Website:  https://openfoam.org
    \\  /    A nd           | Version:  8
     \\/     M anipulation  |
\*---------------------------------------------------------------------------*/
FoamFile
{
    version     2.0;
    format      ascii;
    class       volScalarField;
    location    "2900";
    object      k;
}
// * * * * * * * * * * * * * * * * * * * * * * * * * * * * * * * * * * * * * //

dimensions      [0 2 -2 0 0 0 0];

internalField   nonuniform List<scalar> 
48000
(
0.0267438
0.0599769
0.0924904
0.120866
0.147416
0.171763
0.194339
0.215683
0.236437
0.256244
0.275381
0.293908
0.311878
0.329331
0.3463
0.362805
0.378861
0.394479
0.409666
0.424424
0.438755
0.452659
0.466136
0.479184
0.491802
0.503988
0.515741
0.527062
0.53795
0.548405
0.55843
0.568027
0.577198
0.585948
0.594282
0.602203
0.609719
0.616836
0.62356
0.6299
0.635864
0.641458
0.646692
0.651572
0.656133
0.660413
0.664375
0.668021
0.671362
0.674407
0.677168
0.679654
0.681877
0.683845
0.68557
0.68706
0.688325
0.689374
0.690216
0.690859
0.691312
0.691583
0.691678
0.691607
0.691375
0.69099
0.690458
0.689785
0.688978
0.688042
0.686982
0.685804
0.684513
0.683114
0.68161
0.680006
0.678307
0.676515
0.674635
0.67267
0.670622
0.668496
0.666293
0.664016
0.661669
0.659252
0.656769
0.654221
0.65161
0.648938
0.646206
0.643416
0.640569
0.637667
0.63471
0.631699
0.628635
0.62552
0.622353
0.619136
0.615869
0.612551
0.609185
0.60577
0.602306
0.598793
0.595232
0.591622
0.587964
0.584257
0.580501
0.576697
0.572844
0.568941
0.564989
0.560987
0.556936
0.552833
0.54868
0.544476
0.540221
0.535913
0.531554
0.527141
0.522676
0.518158
0.513586
0.50896
0.504279
0.499544
0.494755
0.48991
0.48501
0.480055
0.475044
0.469978
0.464856
0.459679
0.454446
0.449159
0.443815
0.438418
0.432965
0.427459
0.421898
0.416285
0.410619
0.4049
0.399131
0.39331
0.38744
0.381521
0.375553
0.369539
0.363478
0.357372
0.351222
0.34503
0.338795
0.332519
0.326204
0.319851
0.31346
0.307033
0.300571
0.294075
0.287545
0.280983
0.274389
0.267763
0.261107
0.25442
0.247702
0.240954
0.234173
0.227359
0.220511
0.213627
0.206704
0.199739
0.192731
0.185683
0.178615
0.171529
0.164362
0.157093
0.149709
0.142185
0.134495
0.126606
0.118471
0.110035
0.10129
0.0921395
0.0823927
0.0718316
0.0601006
0.0465355
0.0295304
0.0189167
0.0267434
0.0599788
0.092492
0.120867
0.147418
0.171764
0.19434
0.215684
0.236438
0.256245
0.275382
0.293909
0.311879
0.329333
0.346301
0.362806
0.378862
0.39448
0.409667
0.424425
0.438756
0.45266
0.466137
0.479185
0.491802
0.503988
0.515742
0.527063
0.53795
0.548406
0.558431
0.568027
0.577199
0.585949
0.594282
0.602203
0.609719
0.616836
0.62356
0.629901
0.635864
0.641458
0.646692
0.651572
0.656133
0.660413
0.664375
0.668022
0.671362
0.674407
0.677168
0.679654
0.681877
0.683845
0.68557
0.68706
0.688325
0.689374
0.690216
0.690859
0.691312
0.691583
0.691678
0.691607
0.691375
0.69099
0.690457
0.689785
0.688978
0.688041
0.686982
0.685804
0.684513
0.683114
0.68161
0.680006
0.678307
0.676515
0.674635
0.67267
0.670622
0.668496
0.666293
0.664016
0.661669
0.659252
0.656769
0.654221
0.65161
0.648938
0.646206
0.643416
0.640569
0.637667
0.634709
0.631699
0.628635
0.62552
0.622353
0.619136
0.615868
0.612551
0.609185
0.60577
0.602306
0.598793
0.595232
0.591622
0.587964
0.584257
0.580501
0.576697
0.572844
0.568941
0.564989
0.560987
0.556936
0.552833
0.54868
0.544476
0.540221
0.535913
0.531554
0.527141
0.522676
0.518158
0.513586
0.50896
0.504279
0.499544
0.494755
0.48991
0.48501
0.480055
0.475044
0.469978
0.464856
0.459679
0.454446
0.449158
0.443815
0.438418
0.432965
0.427459
0.421898
0.416285
0.410618
0.4049
0.39913
0.39331
0.38744
0.381521
0.375553
0.369539
0.363478
0.357372
0.351222
0.34503
0.338795
0.33252
0.326205
0.319851
0.31346
0.307033
0.300571
0.294075
0.287545
0.280983
0.274389
0.267763
0.261107
0.25442
0.247703
0.240954
0.234173
0.227359
0.220511
0.213627
0.206704
0.199739
0.192732
0.185683
0.178615
0.17153
0.164362
0.157094
0.149709
0.142185
0.134495
0.126606
0.118471
0.110035
0.101291
0.0921397
0.0823929
0.0718318
0.0601009
0.0465357
0.0295296
0.0189163
0.0608633
0.153967
0.219856
0.278
0.33133
0.38153
0.428978
0.474262
0.51783
0.559915
0.600713
0.640363
0.678965
0.716592
0.753293
0.7891
0.824035
0.858107
0.891319
0.923667
0.955146
0.985745
1.01546
1.04427
1.07216
1.09914
1.12519
1.1503
1.17447
1.19769
1.21996
1.24129
1.26168
1.28113
1.29966
1.31726
1.33396
1.34977
1.36469
1.37875
1.39197
1.40436
1.41594
1.42673
1.43674
1.44603
1.4546
1.46247
1.46967
1.47622
1.48214
1.48746
1.49219
1.49637
1.5
1.50312
1.50574
1.50789
1.50958
1.51083
1.51167
1.5121
1.51215
1.51183
1.51116
1.51016
1.50883
1.50719
1.50526
1.50305
1.50057
1.49784
1.49485
1.49163
1.48819
1.48452
1.48065
1.47658
1.47231
1.46787
1.46324
1.45844
1.45348
1.44837
1.44309
1.43767
1.43211
1.42641
1.42057
1.4146
1.4085
1.40228
1.39594
1.38948
1.3829
1.37621
1.3694
1.36249
1.35546
1.34833
1.34109
1.33375
1.3263
1.31875
1.3111
1.30334
1.29548
1.28751
1.27944
1.27127
1.263
1.25463
1.24615
1.23756
1.22887
1.22008
1.21118
1.20217
1.19306
1.18384
1.1745
1.16506
1.15551
1.14585
1.13608
1.12619
1.11619
1.10608
1.09585
1.0855
1.07504
1.06447
1.05377
1.04297
1.03204
1.021
1.00984
0.998562
0.987169
0.975661
0.964036
0.952296
0.940443
0.928475
0.916396
0.904205
0.891904
0.879495
0.866978
0.854357
0.841632
0.828805
0.815879
0.802855
0.789736
0.776525
0.763223
0.749833
0.736357
0.722799
0.70916
0.695443
0.681651
0.667785
0.653849
0.639844
0.625772
0.611636
0.597436
0.583173
0.568849
0.554464
0.540017
0.525508
0.510934
0.496295
0.481585
0.466801
0.451936
0.436984
0.421936
0.406783
0.391512
0.376103
0.36052
0.344742
0.328748
0.312491
0.295922
0.278977
0.261573
0.243605
0.22492
0.205382
0.184739
0.162636
0.138529
0.111471
0.0790904
0.0307331
0.0608654
0.153969
0.219858
0.278002
0.331331
0.381531
0.428979
0.474263
0.517831
0.559916
0.600714
0.640363
0.678966
0.716592
0.753293
0.789101
0.824035
0.858107
0.891319
0.923667
0.955146
0.985745
1.01546
1.04427
1.07216
1.09914
1.12519
1.1503
1.17446
1.19769
1.21996
1.24129
1.26168
1.28113
1.29966
1.31726
1.33396
1.34976
1.36469
1.37875
1.39197
1.40436
1.41594
1.42673
1.43674
1.44603
1.4546
1.46247
1.46967
1.47622
1.48214
1.48746
1.49219
1.49637
1.5
1.50312
1.50574
1.50789
1.50958
1.51083
1.51166
1.5121
1.51215
1.51183
1.51116
1.51015
1.50883
1.50719
1.50526
1.50305
1.50057
1.49784
1.49485
1.49163
1.48818
1.48452
1.48065
1.47658
1.47231
1.46786
1.46324
1.45844
1.45348
1.44836
1.44309
1.43767
1.43211
1.4264
1.42057
1.4146
1.4085
1.40228
1.39594
1.38948
1.3829
1.37621
1.3694
1.36249
1.35546
1.34833
1.34109
1.33375
1.3263
1.31875
1.31109
1.30334
1.29547
1.28751
1.27944
1.27127
1.263
1.25462
1.24614
1.23756
1.22887
1.22008
1.21118
1.20217
1.19306
1.18383
1.1745
1.16506
1.15551
1.14585
1.13608
1.12619
1.11619
1.10607
1.09585
1.0855
1.07504
1.06447
1.05377
1.04297
1.03204
1.021
1.00984
0.998561
0.987169
0.97566
0.964035
0.952296
0.940442
0.928474
0.916395
0.904204
0.891903
0.879494
0.866978
0.854356
0.841631
0.828804
0.815878
0.802854
0.789736
0.776524
0.763222
0.749832
0.736356
0.722798
0.709159
0.695442
0.68165
0.667784
0.653848
0.639843
0.625772
0.611635
0.597435
0.583173
0.568849
0.554463
0.540016
0.525507
0.510934
0.496294
0.481584
0.4668
0.451936
0.436984
0.421936
0.406782
0.391511
0.376102
0.360519
0.344741
0.328748
0.312491
0.295922
0.278976
0.261573
0.243604
0.22492
0.205382
0.184739
0.162636
0.138529
0.111472
0.0790904
0.0307358
0.0920471
0.219693
0.302359
0.372968
0.437936
0.499377
0.558102
0.614597
0.669198
0.722133
0.773576
0.823656
0.872471
0.920091
0.966567
1.01193
1.05621
1.0994
1.14152
1.18255
1.22249
1.26132
1.29903
1.33561
1.37104
1.4053
1.43839
1.47029
1.501
1.53051
1.55881
1.58592
1.61183
1.63655
1.66009
1.68245
1.70366
1.72373
1.74267
1.76051
1.77727
1.79297
1.80764
1.8213
1.83399
1.84572
1.85654
1.86647
1.87554
1.88377
1.8912
1.89785
1.90376
1.90895
1.91345
1.91729
1.92049
1.92308
1.92509
1.92654
1.92745
1.92785
1.92777
1.92721
1.9262
1.92476
1.92292
1.92068
1.91807
1.91509
1.91178
1.90814
1.90418
1.89992
1.89538
1.89056
1.88548
1.88014
1.87457
1.86875
1.86272
1.85647
1.85001
1.84335
1.8365
1.82946
1.82224
1.81484
1.80728
1.79955
1.79167
1.78362
1.77543
1.76708
1.75859
1.74996
1.74119
1.73228
1.72323
1.71405
1.70473
1.69529
1.68571
1.67601
1.66618
1.65622
1.64613
1.63591
1.62557
1.61509
1.60449
1.59376
1.58291
1.57192
1.5608
1.54956
1.53818
1.52667
1.51502
1.50324
1.49133
1.47928
1.46709
1.45477
1.4423
1.4297
1.41696
1.40407
1.39104
1.37787
1.36456
1.3511
1.3375
1.32375
1.30986
1.29582
1.28164
1.26732
1.25285
1.23823
1.22347
1.20857
1.19353
1.17835
1.16303
1.14757
1.13198
1.11625
1.10039
1.0844
1.06829
1.05204
1.03568
1.01919
1.00259
0.985874
0.969046
0.952111
0.935071
0.917928
0.900688
0.883352
0.865923
0.848406
0.830802
0.813114
0.795344
0.777496
0.759571
0.741569
0.723493
0.705342
0.687117
0.668816
0.650438
0.631979
0.613436
0.594803
0.576073
0.557237
0.538286
0.519205
0.499979
0.480585
0.460994
0.441176
0.421092
0.400691
0.379934
0.358745
0.337036
0.314695
0.291574
0.267483
0.242181
0.215281
0.186146
0.153484
0.113416
0.048486
0.0920486
0.219694
0.30236
0.372969
0.437936
0.499377
0.558102
0.614597
0.669197
0.722133
0.773576
0.823656
0.87247
0.920091
0.966567
1.01193
1.05621
1.0994
1.14152
1.18255
1.22249
1.26132
1.29903
1.33561
1.37103
1.4053
1.43838
1.47029
1.501
1.53051
1.55881
1.58592
1.61183
1.63655
1.66009
1.68245
1.70366
1.72372
1.74267
1.76051
1.77727
1.79297
1.80764
1.8213
1.83398
1.84572
1.85654
1.86647
1.87554
1.88377
1.8912
1.89785
1.90376
1.90895
1.91345
1.91729
1.92049
1.92308
1.92509
1.92654
1.92745
1.92785
1.92776
1.92721
1.9262
1.92476
1.92292
1.92068
1.91806
1.91509
1.91178
1.90814
1.90418
1.89992
1.89538
1.89056
1.88548
1.88014
1.87456
1.86875
1.86272
1.85646
1.85001
1.84335
1.83649
1.82946
1.82224
1.81484
1.80728
1.79955
1.79166
1.78362
1.77543
1.76708
1.75859
1.74996
1.74118
1.73227
1.72323
1.71405
1.70473
1.69529
1.68571
1.67601
1.66618
1.65621
1.64612
1.63591
1.62556
1.61509
1.60449
1.59376
1.58291
1.57192
1.5608
1.54955
1.53818
1.52666
1.51502
1.50324
1.49133
1.47928
1.46709
1.45477
1.4423
1.4297
1.41695
1.40407
1.39104
1.37787
1.36456
1.3511
1.3375
1.32375
1.30986
1.29582
1.28164
1.26731
1.25284
1.23823
1.22347
1.20857
1.19353
1.17835
1.16303
1.14757
1.13198
1.11625
1.10039
1.0844
1.06828
1.05204
1.03568
1.01919
1.00259
0.985873
0.969045
0.95211
0.93507
0.917927
0.900687
0.883351
0.865922
0.848405
0.830801
0.813113
0.795344
0.777495
0.75957
0.741568
0.723492
0.705342
0.687116
0.668816
0.650437
0.631978
0.613435
0.594802
0.576072
0.557237
0.538285
0.519205
0.499978
0.480584
0.460994
0.441176
0.421092
0.40069
0.379934
0.358745
0.337036
0.314695
0.291574
0.267482
0.242181
0.215281
0.186146
0.153485
0.113416
0.0484858
0.118353
0.275714
0.371909
0.451746
0.524882
0.59411
0.660513
0.724618
0.786739
0.847082
0.905794
0.962989
1.01875
1.07315
1.12624
1.17804
1.22857
1.27786
1.3259
1.3727
1.41823
1.4625
1.50549
1.54718
1.58756
1.62661
1.66433
1.70069
1.7357
1.76935
1.80163
1.83254
1.86209
1.89029
1.91713
1.94264
1.96683
1.98972
2.01132
2.03167
2.05078
2.06868
2.08539
2.10096
2.11541
2.12876
2.14107
2.15235
2.16265
2.17199
2.1804
2.18792
2.19459
2.20043
2.20548
2.20976
2.21332
2.21617
2.21835
2.21989
2.22081
2.22114
2.22091
2.22014
2.21885
2.21707
2.21482
2.21211
2.20898
2.20544
2.2015
2.19718
2.1925
2.18748
2.18213
2.17647
2.1705
2.16424
2.1577
2.1509
2.14384
2.13653
2.12899
2.12122
2.11322
2.10502
2.0966
2.08799
2.07919
2.0702
2.06102
2.05167
2.04214
2.03245
2.02259
2.01257
2.00239
1.99205
1.98156
1.97092
1.96012
1.94918
1.93809
1.92685
1.91547
1.90395
1.89228
1.88046
1.8685
1.8564
1.84415
1.83175
1.81921
1.80653
1.7937
1.78072
1.76759
1.75431
1.74089
1.72731
1.71358
1.69969
1.68566
1.67146
1.65711
1.6426
1.62794
1.61311
1.59813
1.58298
1.56767
1.5522
1.53657
1.52077
1.50482
1.48869
1.47241
1.45596
1.43935
1.42258
1.40565
1.38856
1.37131
1.3539
1.33633
1.31862
1.30074
1.28272
1.26455
1.24624
1.22778
1.20918
1.19044
1.17157
1.15257
1.13344
1.11418
1.09481
1.07531
1.05571
1.03599
1.01616
0.996237
0.97621
0.956086
0.935869
0.915561
0.895165
0.874682
0.854115
0.833465
0.812732
0.791917
0.771017
0.750032
0.728959
0.707792
0.686528
0.665158
0.643673
0.622063
0.600313
0.578406
0.55632
0.534028
0.511497
0.488691
0.465562
0.442056
0.4181
0.393614
0.368489
0.342575
0.315673
0.287526
0.257699
0.225411
0.188925
0.142833
0.0630145
0.118354
0.275715
0.37191
0.451746
0.524882
0.59411
0.660512
0.724618
0.786739
0.847081
0.905793
0.962988
1.01875
1.07315
1.12623
1.17803
1.22857
1.27786
1.3259
1.3727
1.41823
1.4625
1.50549
1.54718
1.58756
1.62661
1.66433
1.70069
1.7357
1.76935
1.80163
1.83254
1.86209
1.89029
1.91713
1.94264
1.96683
1.98972
2.01132
2.03167
2.05077
2.06867
2.08539
2.10096
2.1154
2.12876
2.14107
2.15235
2.16265
2.17198
2.1804
2.18792
2.19459
2.20043
2.20547
2.20976
2.21331
2.21617
2.21835
2.21989
2.22081
2.22114
2.22091
2.22014
2.21885
2.21707
2.21482
2.21211
2.20898
2.20543
2.20149
2.19718
2.1925
2.18748
2.18213
2.17647
2.1705
2.16424
2.1577
2.1509
2.14384
2.13653
2.12899
2.12121
2.11322
2.10502
2.0966
2.08799
2.07919
2.07019
2.06102
2.05167
2.04214
2.03245
2.02259
2.01257
2.00239
1.99205
1.98156
1.97092
1.96012
1.94918
1.93809
1.92685
1.91547
1.90394
1.89227
1.88046
1.8685
1.85639
1.84415
1.83175
1.81921
1.80653
1.7937
1.78072
1.76759
1.75431
1.74089
1.72731
1.71358
1.69969
1.68565
1.67146
1.65711
1.6426
1.62794
1.61311
1.59813
1.58298
1.56767
1.5522
1.53657
1.52077
1.50481
1.48869
1.47241
1.45596
1.43935
1.42258
1.40565
1.38856
1.37131
1.3539
1.33633
1.31861
1.30074
1.28272
1.26455
1.24624
1.22778
1.20918
1.19044
1.17157
1.15257
1.13344
1.11418
1.09481
1.07531
1.0557
1.03599
1.01616
0.996236
0.976209
0.956085
0.935868
0.91556
0.895164
0.874681
0.854115
0.833464
0.812732
0.791916
0.771016
0.750031
0.728958
0.707792
0.686527
0.665157
0.643673
0.622063
0.600313
0.578406
0.55632
0.534027
0.511497
0.48869
0.465561
0.442055
0.4181
0.393614
0.368488
0.342575
0.315673
0.287526
0.257699
0.225411
0.188925
0.142833
0.0630144
0.141986
0.326359
0.435543
0.524166
0.604561
0.680413
0.753144
0.823406
0.891544
0.957762
1.0222
1.08496
1.14613
1.20575
1.2639
1.32058
1.37585
1.4297
1.48216
1.53322
1.58288
1.63114
1.67798
1.72339
1.76737
1.8099
1.85097
1.89057
1.9287
1.96534
2.0005
2.03417
2.06637
2.09709
2.12634
2.15414
2.18051
2.20546
2.22902
2.2512
2.27204
2.29155
2.30978
2.32675
2.3425
2.35706
2.37047
2.38275
2.39396
2.40411
2.41325
2.42142
2.42864
2.43496
2.44041
2.44502
2.44882
2.45186
2.45416
2.45575
2.45666
2.45693
2.45657
2.45562
2.4541
2.45204
2.44945
2.44638
2.44282
2.43882
2.43438
2.42953
2.42428
2.41865
2.41265
2.40631
2.39964
2.39265
2.38535
2.37775
2.36988
2.36173
2.35332
2.34467
2.33576
2.32663
2.31727
2.30768
2.29789
2.28789
2.27769
2.2673
2.25671
2.24595
2.23499
2.22387
2.21256
2.20109
2.18945
2.17764
2.16567
2.15353
2.14123
2.12878
2.11616
2.10339
2.09046
2.07737
2.06412
2.05072
2.03716
2.02344
2.00956
1.99553
1.98133
1.96697
1.95246
1.93778
1.92293
1.90792
1.89275
1.87741
1.8619
1.84622
1.83038
1.81436
1.79817
1.7818
1.76527
1.74856
1.73167
1.71461
1.69737
1.67995
1.66236
1.64459
1.62664
1.60852
1.59022
1.57175
1.5531
1.53428
1.51528
1.49612
1.47679
1.45729
1.43762
1.41779
1.3978
1.37765
1.35735
1.3369
1.31629
1.29554
1.27465
1.25362
1.23246
1.21116
1.18973
1.16819
1.14652
1.12474
1.10284
1.08084
1.05873
1.03652
1.01421
0.991802
0.969303
0.946712
0.92403
0.901259
0.878398
0.855446
0.832403
0.809264
0.786027
0.762685
0.739233
0.71566
0.691956
0.668107
0.644096
0.619902
0.5955
0.570859
0.545943
0.520706
0.495096
0.469043
0.442464
0.415247
0.387238
0.358236
0.327931
0.295823
0.260946
0.221087
0.169425
0.0759185
0.141987
0.32636
0.435544
0.524166
0.604561
0.680412
0.753143
0.823406
0.891543
0.957761
1.0222
1.08496
1.14613
1.20575
1.26389
1.32058
1.37585
1.4297
1.48216
1.53322
1.58288
1.63113
1.67798
1.72339
1.76737
1.8099
1.85097
1.89057
1.9287
1.96534
2.0005
2.03417
2.06637
2.09708
2.12634
2.15414
2.18051
2.20546
2.22902
2.2512
2.27203
2.29155
2.30978
2.32675
2.3425
2.35706
2.37046
2.38275
2.39395
2.40411
2.41325
2.42142
2.42864
2.43496
2.44041
2.44502
2.44882
2.45186
2.45416
2.45575
2.45666
2.45692
2.45657
2.45562
2.4541
2.45203
2.44945
2.44638
2.44282
2.43882
2.43438
2.42952
2.42427
2.41864
2.41265
2.40631
2.39964
2.39264
2.38535
2.37775
2.36988
2.36173
2.35332
2.34466
2.33576
2.32663
2.31726
2.30768
2.29789
2.28789
2.27769
2.2673
2.25671
2.24594
2.23499
2.22387
2.21256
2.20109
2.18945
2.17764
2.16567
2.15353
2.14123
2.12878
2.11616
2.10339
2.09046
2.07737
2.06412
2.05072
2.03716
2.02344
2.00956
1.99552
1.98133
1.96697
1.95245
1.93777
1.92293
1.90792
1.89275
1.87741
1.8619
1.84622
1.83038
1.81436
1.79817
1.7818
1.76527
1.74855
1.73167
1.71461
1.69737
1.67995
1.66236
1.64459
1.62664
1.60852
1.59022
1.57175
1.5531
1.53428
1.51528
1.49612
1.47679
1.45729
1.43762
1.41779
1.3978
1.37765
1.35735
1.33689
1.31629
1.29554
1.27465
1.25362
1.23245
1.21116
1.18973
1.16819
1.14652
1.12474
1.10284
1.08084
1.05873
1.03652
1.01421
0.991802
0.969302
0.946711
0.92403
0.901258
0.878397
0.855446
0.832402
0.809264
0.786026
0.762685
0.739232
0.71566
0.691956
0.668107
0.644096
0.619902
0.5955
0.570859
0.545943
0.520706
0.495095
0.469043
0.442464
0.415246
0.387238
0.358236
0.327931
0.295823
0.260947
0.221088
0.169425
0.0759185
0.163809
0.374225
0.49602
0.59332
0.68072
0.762754
0.841213
0.916914
0.990267
1.06151
1.13078
1.19818
1.2638
1.3277
1.38993
1.45053
1.50953
1.56697
1.62286
1.67721
1.73002
1.78131
1.83106
1.87928
1.92595
1.97107
2.01464
2.05665
2.09709
2.13595
2.17325
2.20897
2.24313
2.27573
2.30679
2.33631
2.36431
2.39081
2.41583
2.4394
2.46154
2.48228
2.50166
2.5197
2.53645
2.55192
2.56617
2.57923
2.59113
2.60192
2.61162
2.62028
2.62794
2.63463
2.64039
2.64525
2.64926
2.65244
2.65482
2.65645
2.65735
2.65756
2.6571
2.65601
2.6543
2.65201
2.64916
2.64578
2.64189
2.63752
2.63267
2.62738
2.62167
2.61554
2.60903
2.60214
2.59489
2.5873
2.57938
2.57114
2.5626
2.55376
2.54465
2.53526
2.52561
2.51571
2.50557
2.49519
2.48458
2.47375
2.46271
2.45145
2.44
2.42834
2.41649
2.40444
2.39221
2.3798
2.3672
2.35442
2.34147
2.32835
2.31505
2.30158
2.28794
2.27413
2.26015
2.246
2.23168
2.2172
2.20254
2.18772
2.17273
2.15757
2.14224
2.12673
2.11106
2.09521
2.07918
2.06298
2.04661
2.03005
2.01332
1.99641
1.97931
1.96203
1.94457
1.92693
1.9091
1.89108
1.87288
1.85449
1.83592
1.81715
1.7982
1.77905
1.75973
1.74021
1.7205
1.70061
1.68053
1.66027
1.63983
1.6192
1.5984
1.57741
1.55625
1.53492
1.51341
1.49174
1.4699
1.4479
1.42574
1.40342
1.38096
1.35834
1.33558
1.31268
1.28965
1.26648
1.24318
1.21976
1.19621
1.17255
1.14878
1.1249
1.10091
1.07681
1.05262
1.02833
1.00393
0.979445
0.954859
0.930176
0.905395
0.880512
0.855525
0.830429
0.805215
0.779878
0.754405
0.728784
0.703
0.677031
0.650855
0.624443
0.597759
0.570761
0.543396
0.515597
0.487278
0.458323
0.428573
0.397797
0.365631
0.331482
0.294193
0.251094
0.194081
0.0877581
0.163811
0.374227
0.496021
0.59332
0.680719
0.762753
0.841213
0.916913
0.990266
1.0615
1.13077
1.19818
1.2638
1.3277
1.38993
1.45053
1.50953
1.56697
1.62286
1.6772
1.73002
1.78131
1.83106
1.87928
1.92595
1.97107
2.01464
2.05665
2.09708
2.13595
2.17325
2.20897
2.24313
2.27573
2.30679
2.33631
2.36431
2.39081
2.41583
2.4394
2.46154
2.48228
2.50166
2.5197
2.53645
2.55192
2.56617
2.57923
2.59113
2.60192
2.61162
2.62028
2.62794
2.63463
2.64039
2.64525
2.64926
2.65243
2.65482
2.65645
2.65735
2.65756
2.6571
2.656
2.6543
2.65201
2.64916
2.64578
2.64189
2.63751
2.63267
2.62738
2.62167
2.61554
2.60903
2.60214
2.59489
2.5873
2.57937
2.57114
2.5626
2.55376
2.54465
2.53526
2.52561
2.51571
2.50557
2.49519
2.48458
2.47375
2.46271
2.45145
2.44
2.42834
2.41648
2.40444
2.39221
2.37979
2.3672
2.35442
2.34147
2.32834
2.31505
2.30158
2.28794
2.27412
2.26015
2.246
2.23168
2.2172
2.20254
2.18772
2.17273
2.15757
2.14224
2.12673
2.11106
2.09521
2.07918
2.06298
2.04661
2.03005
2.01332
1.99641
1.97931
1.96203
1.94457
1.92693
1.9091
1.89108
1.87288
1.85449
1.83591
1.81715
1.7982
1.77905
1.75972
1.74021
1.7205
1.70061
1.68053
1.66027
1.63983
1.6192
1.59839
1.57741
1.55625
1.53492
1.51341
1.49174
1.4699
1.4479
1.42574
1.40342
1.38096
1.35834
1.33558
1.31268
1.28964
1.26648
1.24318
1.21976
1.19621
1.17255
1.14878
1.1249
1.10091
1.07681
1.05262
1.02833
1.00393
0.979444
0.954859
0.930176
0.905394
0.880512
0.855525
0.830428
0.805215
0.779878
0.754405
0.728784
0.702999
0.677031
0.650855
0.624442
0.597759
0.570761
0.543396
0.515597
0.487278
0.458323
0.428573
0.397797
0.365631
0.331482
0.294193
0.251094
0.194081
0.0877581
0.184688
0.420117
0.554554
0.660557
0.754903
0.842938
0.926824
1.00756
1.08564
1.16135
1.23485
1.30627
1.37569
1.44318
1.50881
1.57262
1.63465
1.69496
1.75356
1.81047
1.86573
1.91934
1.9713
2.02162
2.07032
2.11737
2.16279
2.20657
2.24872
2.28922
2.32809
2.36533
2.40094
2.43493
2.46731
2.4981
2.52732
2.55497
2.58109
2.6057
2.62883
2.6505
2.67075
2.6896
2.7071
2.72328
2.73818
2.75183
2.76428
2.77555
2.78569
2.79474
2.80274
2.80972
2.81572
2.82079
2.82495
2.82824
2.8307
2.83237
2.83326
2.83343
2.83289
2.83168
2.82983
2.82736
2.8243
2.82068
2.81652
2.81184
2.80667
2.80103
2.79494
2.78841
2.78147
2.77413
2.76642
2.75834
2.74991
2.74114
2.73205
2.72265
2.71295
2.70296
2.6927
2.68217
2.67137
2.66033
2.64905
2.63753
2.62578
2.6138
2.60162
2.58921
2.57661
2.56379
2.55078
2.53758
2.52418
2.51059
2.49681
2.48285
2.46871
2.45438
2.43988
2.42519
2.41033
2.39528
2.38006
2.36466
2.34908
2.33332
2.31738
2.30127
2.28497
2.26849
2.25183
2.23499
2.21796
2.20075
2.18335
2.16576
2.14798
2.13002
2.11186
2.09351
2.07497
2.05623
2.0373
2.01818
1.99885
1.97933
1.95961
1.9397
1.91958
1.89927
1.87876
1.85805
1.83714
1.81604
1.79475
1.77325
1.75157
1.72969
1.70763
1.68538
1.66294
1.64031
1.61751
1.59453
1.57138
1.54805
1.52456
1.5009
1.47708
1.4531
1.42897
1.40469
1.38026
1.3557
1.33099
1.30615
1.28118
1.25609
1.23088
1.20554
1.18009
1.15453
1.12886
1.10308
1.0772
1.05121
1.02511
0.998916
0.972611
0.946199
0.919675
0.893035
0.866274
0.839384
0.812354
0.785174
0.757827
0.730297
0.70256
0.674589
0.646351
0.617803
0.588894
0.559554
0.529693
0.499189
0.467866
0.435464
0.401568
0.36547
0.325823
0.27953
0.217315
0.0988326
0.184689
0.420118
0.554554
0.660557
0.754903
0.842938
0.926823
1.00755
1.08564
1.16135
1.23485
1.30627
1.37569
1.44318
1.50881
1.57262
1.63465
1.69496
1.75355
1.81047
1.86573
1.91933
1.9713
2.02162
2.07031
2.11737
2.16279
2.20657
2.24872
2.28922
2.32809
2.36533
2.40094
2.43493
2.46731
2.4981
2.52731
2.55497
2.58109
2.6057
2.62883
2.6505
2.67074
2.6896
2.7071
2.72328
2.73818
2.75183
2.76428
2.77555
2.78569
2.79474
2.80274
2.80972
2.81572
2.82079
2.82495
2.82824
2.8307
2.83237
2.83326
2.83343
2.83289
2.83168
2.82983
2.82736
2.8243
2.82068
2.81652
2.81184
2.80667
2.80103
2.79494
2.78841
2.78147
2.77413
2.76642
2.75834
2.7499
2.74114
2.73205
2.72265
2.71295
2.70296
2.6927
2.68216
2.67137
2.66033
2.64905
2.63753
2.62578
2.6138
2.60161
2.58921
2.5766
2.56379
2.55078
2.53758
2.52418
2.51059
2.49681
2.48285
2.46871
2.45438
2.43988
2.42519
2.41032
2.39528
2.38006
2.36466
2.34908
2.33332
2.31738
2.30127
2.28497
2.26849
2.25183
2.23499
2.21796
2.20075
2.18335
2.16576
2.14798
2.13002
2.11186
2.09351
2.07497
2.05623
2.0373
2.01818
1.99885
1.97933
1.95961
1.9397
1.91958
1.89927
1.87876
1.85805
1.83714
1.81604
1.79475
1.77325
1.75157
1.72969
1.70763
1.68537
1.66294
1.64031
1.61751
1.59453
1.57138
1.54805
1.52456
1.5009
1.47708
1.4531
1.42897
1.40469
1.38026
1.35569
1.33099
1.30615
1.28118
1.25609
1.23088
1.20554
1.18009
1.15453
1.12886
1.10308
1.0772
1.05121
1.02511
0.998915
0.972611
0.946198
0.919674
0.893035
0.866274
0.839383
0.812354
0.785174
0.757827
0.730297
0.70256
0.674589
0.646351
0.617803
0.588894
0.559554
0.529693
0.499189
0.467866
0.435464
0.401568
0.36547
0.325823
0.279531
0.217315
0.0988325
0.205554
0.46504
0.611948
0.726641
0.827911
0.921854
1.01098
1.09648
1.17896
1.25875
1.33606
1.41103
1.48375
1.55432
1.6228
1.68927
1.75379
1.81639
1.87714
1.93606
1.99319
2.04856
2.10218
2.15406
2.20423
2.25269
2.29945
2.3445
2.38787
2.42954
2.46953
2.50784
2.54448
2.57946
2.61279
2.6445
2.67458
2.70307
2.72999
2.75535
2.7792
2.80155
2.82244
2.8419
2.85996
2.87667
2.89205
2.90615
2.919
2.93065
2.94113
2.95048
2.95873
2.96594
2.97214
2.97736
2.98165
2.98503
2.98756
2.98925
2.99015
2.99028
2.98969
2.98839
2.98642
2.98381
2.98059
2.97678
2.97241
2.9675
2.96207
2.95615
2.94975
2.9429
2.93562
2.92792
2.91983
2.91135
2.9025
2.89331
2.88377
2.8739
2.86373
2.85325
2.84247
2.83142
2.82009
2.8085
2.79665
2.78456
2.77222
2.75965
2.74685
2.73383
2.72059
2.70713
2.69347
2.67959
2.66552
2.65125
2.63678
2.62211
2.60725
2.5922
2.57696
2.56153
2.54591
2.5301
2.51411
2.49793
2.48156
2.465
2.44826
2.43133
2.41421
2.3969
2.37939
2.3617
2.34381
2.32573
2.30745
2.28898
2.27031
2.25144
2.23237
2.2131
2.19363
2.17395
2.15407
2.13399
2.1137
2.0932
2.0725
2.05159
2.03048
2.00915
1.98762
1.96589
1.94394
1.9218
1.89944
1.87689
1.85413
1.83117
1.80802
1.78466
1.76112
1.73738
1.71345
1.68933
1.66503
1.64055
1.61589
1.59106
1.56606
1.54089
1.51556
1.49007
1.46443
1.43863
1.41269
1.38661
1.36038
1.33402
1.30753
1.28091
1.25417
1.22731
1.20032
1.17322
1.146
1.11867
1.09123
1.06367
1.036
1.00821
0.980303
0.952273
0.924114
0.895821
0.867384
0.838791
0.81003
0.781083
0.751929
0.722541
0.692887
0.662925
0.6326
0.601842
0.570553
0.538601
0.50579
0.471826
0.436237
0.398209
0.356209
0.306748
0.239469
0.109385
0.205555
0.465042
0.611949
0.72664
0.827911
0.921853
1.01098
1.09648
1.17896
1.25875
1.33606
1.41103
1.48375
1.55432
1.6228
1.68927
1.75378
1.81639
1.87714
1.93606
1.99319
2.04856
2.10217
2.15406
2.20423
2.25269
2.29945
2.3445
2.38786
2.42954
2.46953
2.50784
2.54448
2.57946
2.61279
2.64449
2.67458
2.70307
2.72998
2.75535
2.77919
2.80155
2.82243
2.84189
2.85996
2.87667
2.89205
2.90615
2.919
2.93065
2.94113
2.95047
2.95873
2.96594
2.97214
2.97736
2.98165
2.98503
2.98756
2.98925
2.99015
2.99028
2.98968
2.98839
2.98642
2.98381
2.98059
2.97678
2.97241
2.96749
2.96207
2.95614
2.94975
2.9429
2.93562
2.92792
2.91983
2.91135
2.9025
2.89331
2.88377
2.8739
2.86373
2.85325
2.84247
2.83142
2.82009
2.8085
2.79665
2.78456
2.77222
2.75965
2.74685
2.73383
2.72059
2.70713
2.69347
2.67959
2.66552
2.65125
2.63677
2.62211
2.60725
2.5922
2.57696
2.56153
2.54591
2.5301
2.51411
2.49793
2.48156
2.465
2.44826
2.43133
2.41421
2.39689
2.37939
2.3617
2.34381
2.32573
2.30745
2.28898
2.27031
2.25144
2.23237
2.2131
2.19363
2.17395
2.15407
2.13399
2.1137
2.0932
2.0725
2.05159
2.03048
2.00915
1.98762
1.96589
1.94394
1.9218
1.89944
1.87689
1.85413
1.83117
1.80802
1.78466
1.76112
1.73738
1.71345
1.68933
1.66503
1.64055
1.61589
1.59106
1.56606
1.54089
1.51556
1.49007
1.46443
1.43863
1.41269
1.3866
1.36038
1.33402
1.30753
1.28091
1.25417
1.22731
1.20032
1.17322
1.146
1.11867
1.09123
1.06367
1.036
1.00821
0.980303
0.952273
0.924114
0.895821
0.867383
0.838791
0.81003
0.781083
0.751929
0.722541
0.692887
0.662925
0.6326
0.601842
0.570553
0.538601
0.50579
0.471826
0.436237
0.39821
0.356209
0.306749
0.239469
0.109385
0.226074
0.509399
0.668677
0.792046
0.900224
1.00001
1.09425
1.18433
1.27095
1.35452
1.43528
1.51341
1.58904
1.66226
1.73317
1.80185
1.86839
1.93284
1.99527
2.05573
2.11427
2.17093
2.22575
2.27874
2.32995
2.37937
2.42704
2.47295
2.51713
2.55958
2.60031
2.63933
2.67665
2.71229
2.74626
2.77856
2.80923
2.83828
2.86574
2.89162
2.91596
2.93878
2.96011
2.97999
2.99845
3.01553
3.03126
3.04569
3.05884
3.07075
3.08147
3.09104
3.0995
3.10688
3.11322
3.11856
3.12294
3.1264
3.12897
3.13069
3.13159
3.13171
3.13107
3.12971
3.12766
3.12495
3.1216
3.11765
3.11311
3.10802
3.10239
3.09625
3.08962
3.08252
3.07497
3.06699
3.05859
3.04979
3.04062
3.03107
3.02118
3.01094
3.00037
2.98949
2.97831
2.96683
2.95506
2.94302
2.93071
2.91814
2.90532
2.89226
2.87895
2.86541
2.85164
2.83765
2.82344
2.80901
2.79437
2.77952
2.76447
2.74921
2.73375
2.71808
2.70222
2.68616
2.66991
2.65346
2.63681
2.61997
2.60293
2.58569
2.56826
2.55063
2.53281
2.51478
2.49656
2.47814
2.45951
2.44069
2.42166
2.40242
2.38298
2.36334
2.34348
2.32342
2.30315
2.28266
2.26197
2.24106
2.21993
2.1986
2.17704
2.15528
2.13329
2.1111
2.08868
2.06606
2.04321
2.02016
1.99689
1.97341
1.94972
1.92582
1.90171
1.8774
1.85288
1.82816
1.80325
1.77814
1.75283
1.72734
1.70166
1.6758
1.64975
1.62353
1.59714
1.57058
1.54386
1.51697
1.48993
1.46274
1.43539
1.4079
1.38027
1.3525
1.32459
1.29655
1.26838
1.24008
1.21166
1.18311
1.15444
1.12564
1.09672
1.06768
1.0385
1.0092
0.979753
0.950168
0.920432
0.890535
0.860465
0.830204
0.799733
0.769026
0.738049
0.70676
0.675101
0.642998
0.610346
0.576996
0.542734
0.507229
0.469953
0.429995
0.385626
0.333004
0.260737
0.119506
0.226076
0.509401
0.668677
0.792046
0.900224
1.00001
1.09425
1.18433
1.27095
1.35452
1.43528
1.51341
1.58904
1.66226
1.73317
1.80185
1.86839
1.93284
1.99526
2.05573
2.11427
2.17093
2.22575
2.27874
2.32995
2.37937
2.42704
2.47295
2.51713
2.55958
2.60031
2.63933
2.67665
2.71229
2.74625
2.77856
2.80923
2.83828
2.86574
2.89162
2.91595
2.93878
2.96011
2.97999
2.99845
3.01553
3.03126
3.04568
3.05883
3.07075
3.08147
3.09104
3.0995
3.10688
3.11322
3.11856
3.12294
3.1264
3.12897
3.13069
3.13159
3.13171
3.13107
3.12971
3.12766
3.12495
3.1216
3.11765
3.11311
3.10802
3.10239
3.09625
3.08962
3.08252
3.07497
3.06698
3.05859
3.04979
3.04062
3.03107
3.02117
3.01094
3.00037
2.98949
2.9783
2.96682
2.95506
2.94302
2.93071
2.91814
2.90532
2.89226
2.87895
2.86541
2.85164
2.83765
2.82344
2.80901
2.79437
2.77952
2.76447
2.74921
2.73375
2.71808
2.70222
2.68616
2.66991
2.65346
2.63681
2.61996
2.60293
2.58569
2.56826
2.55063
2.53281
2.51478
2.49656
2.47814
2.45951
2.44069
2.42166
2.40242
2.38298
2.36334
2.34348
2.32342
2.30315
2.28266
2.26197
2.24106
2.21993
2.1986
2.17704
2.15528
2.13329
2.1111
2.08868
2.06606
2.04321
2.02016
1.99689
1.97341
1.94972
1.92582
1.90171
1.8774
1.85288
1.82816
1.80325
1.77814
1.75283
1.72734
1.70166
1.67579
1.64975
1.62353
1.59714
1.57058
1.54386
1.51697
1.48993
1.46274
1.43539
1.4079
1.38027
1.3525
1.32459
1.29655
1.26838
1.24008