/*--------------------------------*- C++ -*----------------------------------*\
  =========                 |
  \\      /  F ield         | OpenFOAM: The Open Source CFD Toolbox
   \\    /   O peration     | Website:  https://openfoam.org
    \\  /    A nd           | Version:  8
     \\/     M anipulation  |
\*---------------------------------------------------------------------------*/
FoamFile
{
    version     2.0;
    format      ascii;
    class       volScalarField;
    location    "2900";
    object      nut;
}
// * * * * * * * * * * * * * * * * * * * * * * * * * * * * * * * * * * * * * //

dimensions      [0 2 -1 0 0 0 0];

internalField   nonuniform List<scalar> 
48000
(
4.30898e-05
7.85415e-05
9.90076e-05
0.000113259
0.000125087
0.000135023
0.000143622
0.000151304
0.000158416
0.000164918
0.000170965
0.000176623
0.000181942
0.000186963
0.000191719
0.000196234
0.000200529
0.000204621
0.000208522
0.000212244
0.000215797
0.000219189
0.000222428
0.000225519
0.000228468
0.000231281
0.000233962
0.000236515
0.000238944
0.000241255
0.000243449
0.000245531
0.000247505
0.000249373
0.000251139
0.000252807
0.000254379
0.000255858
0.000257248
0.000258552
0.000259772
0.000260911
0.000261973
0.000262959
0.000263877
0.000264735
0.000265527
0.000266254
0.000266918
0.000267522
0.000268068
0.000268559
0.000268997
0.000269384
0.000269723
0.000270015
0.000270263
0.000270468
0.000270633
0.000270758
0.000270846
0.000270898
0.000270917
0.000270902
0.000270856
0.00027078
0.000270675
0.000270543
0.000270384
0.0002702
0.000269991
0.000269759
0.000269505
0.000269229
0.000268932
0.000268615
0.000268279
0.000267924
0.000267551
0.000267161
0.000266753
0.00026633
0.000265891
0.000265436
0.000264966
0.000264481
0.000263983
0.00026347
0.000262944
0.000262404
0.000261851
0.000261285
0.000260706
0.000260115
0.000259511
0.000258894
0.000258266
0.000257625
0.000256972
0.000256307
0.00025563
0.00025494
0.000254239
0.000253525
0.000252799
0.000252061
0.00025131
0.000250547
0.000249771
0.000248983
0.000248182
0.000247367
0.000246539
0.000245698
0.000244843
0.000243975
0.000243092
0.000242195
0.000241284
0.000240358
0.000239417
0.000238461
0.000237489
0.000236501
0.000235498
0.000234478
0.000233441
0.000232387
0.000231316
0.000230228
0.000229122
0.000227997
0.000226854
0.000225693
0.000224512
0.000223312
0.000222092
0.000220851
0.000219591
0.00021831
0.000217008
0.000215684
0.000214339
0.000212972
0.000211582
0.00021017
0.000208735
0.000207276
0.000205794
0.000204289
0.000202758
0.000201204
0.000199624
0.00019802
0.000196389
0.000194733
0.00019305
0.000191341
0.000189604
0.00018784
0.000186048
0.000184228
0.000182378
0.000180499
0.00017859
0.000176649
0.000174677
0.000172673
0.000170635
0.000168562
0.000166454
0.000164309
0.000162126
0.000159902
0.000157636
0.000155326
0.00015297
0.000150563
0.000148103
0.000145587
0.000143011
0.000140371
0.000137674
0.000134916
0.000132067
0.000129114
0.000126043
0.000122835
0.000119468
0.000115911
0.000112125
0.00010806
0.000103677
9.88828e-05
9.35063e-05
8.73063e-05
7.98471e-05
7.01423e-05
5.41031e-05
5.63668e-05
4.30869e-05
7.8545e-05
9.90092e-05
0.00011326
0.000125088
0.000135023
0.000143623
0.000151304
0.000158417
0.000164918
0.000170966
0.000176623
0.000181942
0.000186964
0.000191719
0.000196235
0.00020053
0.000204621
0.000208522
0.000212244
0.000215797
0.00021919
0.000222428
0.000225519
0.000228468
0.000231281
0.000233962
0.000236515
0.000238945
0.000241255
0.000243449
0.000245531
0.000247505
0.000249373
0.000251139
0.000252807
0.000254379
0.000255858
0.000257248
0.000258552
0.000259772
0.000260911
0.000261973
0.000262959
0.000263877
0.000264735
0.000265527
0.000266254
0.000266918
0.000267522
0.000268068
0.000268559
0.000268997
0.000269384
0.000269723
0.000270015
0.000270263
0.000270468
0.000270633
0.000270758
0.000270846
0.000270898
0.000270917
0.000270902
0.000270856
0.00027078
0.000270675
0.000270543
0.000270384
0.0002702
0.000269991
0.000269759
0.000269505
0.000269229
0.000268932
0.000268615
0.000268279
0.000267924
0.000267551
0.000267161
0.000266753
0.00026633
0.000265891
0.000265436
0.000264966
0.000264481
0.000263983
0.00026347
0.000262944
0.000262404
0.000261851
0.000261285
0.000260706
0.000260114
0.000259511
0.000258894
0.000258266
0.000257625
0.000256972
0.000256307
0.00025563
0.00025494
0.000254239
0.000253525
0.000252799
0.000252061
0.00025131
0.000250547
0.000249771
0.000248983
0.000248181
0.000247367
0.000246539
0.000245698
0.000244843
0.000243975
0.000243092
0.000242195
0.000241284
0.000240358
0.000239417
0.000238461
0.000237489
0.000236501
0.000235498
0.000234477
0.000233441
0.000232387
0.000231316
0.000230228
0.000229122
0.000227997
0.000226854
0.000225693
0.000224512
0.000223312
0.000222092
0.000220851
0.000219591
0.00021831
0.000217008
0.000215684
0.000214339
0.000212972
0.000211582
0.00021017
0.000208735
0.000207276
0.000205794
0.000204289
0.000202758
0.000201204
0.000199624
0.00019802
0.000196389
0.000194733
0.00019305
0.000191341
0.000189604
0.00018784
0.000186048
0.000184228
0.000182378
0.000180499
0.00017859
0.000176649
0.000174677
0.000172673
0.000170635
0.000168563
0.000166454
0.000164309
0.000162126
0.000159902
0.000157636
0.000155326
0.00015297
0.000150563
0.000148103
0.000145587
0.000143011
0.000140371
0.000137674
0.000134916
0.000132067
0.000129114
0.000126043
0.000122835
0.000119468
0.000115911
0.000112125
0.00010806
0.000103677
9.88829e-05
9.35065e-05
8.73066e-05
7.98477e-05
7.0143e-05
5.40972e-05
5.6365e-05
6.84343e-05
0.000511662
0.000813569
0.00102401
0.00118078
0.00130929
0.00141942
0.00151617
0.00160223
0.00168034
0.00175184
0.00181781
0.00187907
0.00193623
0.00198979
0.00204013
0.00208758
0.00213239
0.0021748
0.00221498
0.0022531
0.00228929
0.00232368
0.00235637
0.00238745
0.00241701
0.00244513
0.00247187
0.0024973
0.00252147
0.00254444
0.00256625
0.00258695
0.00260659
0.0026252
0.00264282
0.0026595
0.00267526
0.00269014
0.00270417
0.00271738
0.00272979
0.00274143
0.00275228
0.00276228
0.00277145
0.00277993
0.00278779
0.00279506
0.00280177
0.00280796
0.00281363
0.00281882
0.00282353
0.0028278
0.00283162
0.00283503
0.00283803
0.00284065
0.00284289
0.00284477
0.0028463
0.0028475
0.00284838
0.00284895
0.00284922
0.0028492
0.0028489
0.00284833
0.0028475
0.00284642
0.0028451
0.00284355
0.00284176
0.00283976
0.00283754
0.00283512
0.00283249
0.00282967
0.00282666
0.00282346
0.00282008
0.00281652
0.00281279
0.00280889
0.00280483
0.0028006
0.00279621
0.00279167
0.00278697
0.00278211
0.00277711
0.00277195
0.00276665
0.0027612
0.0027556
0.00274986
0.00274397
0.00273794
0.00273176
0.00272544
0.00271898
0.00271237
0.00270562
0.00269872
0.00269167
0.00268448
0.00267714
0.00266965
0.00266201
0.00265421
0.00264627
0.00263816
0.0026299
0.00262148
0.0026129
0.00260415
0.00259524
0.00258616
0.00257691
0.00256748
0.00255788
0.0025481
0.00253814
0.002528
0.00251767
0.00250714
0.00249643
0.00248552
0.00247441
0.00246309
0.00245157
0.00243985
0.00242791
0.00241575
0.00240338
0.00239079
0.00237797
0.00236492
0.00235165
0.00233813
0.00232438
0.00231039
0.00229616
0.00228167
0.00226694
0.00225195
0.0022367
0.00222119
0.00220542
0.00218938
0.00217306
0.00215647
0.00213959
0.00212244
0.00210499
0.00208725
0.00206921
0.00205087
0.00203222
0.00201325
0.00199396
0.00197434
0.00195439
0.00193409
0.00191344
0.00189243
0.00187104
0.00184926
0.00182708
0.00180448
0.00178144
0.00175795
0.00173398
0.00170951
0.0016845
0.00165891
0.00163272
0.00160586
0.00157827
0.00154988
0.00152056
0.00149015
0.00145852
0.00142565
0.00139142
0.00135566
0.0013181
0.00127845
0.00123624
0.00119084
0.00114122
0.00108542
0.00102214
0.000948893
0.000861228
0.000750955
0.000601351
0.000374372
4.80179e-05
6.8438e-05
0.000511682
0.000813586
0.00102404
0.00118081
0.00130931
0.00141944
0.00151619
0.00160226
0.00168036
0.00175186
0.00181783
0.00187909
0.00193625
0.00198981
0.00204015
0.0020876
0.00213241
0.00217481
0.002215
0.00225311
0.0022893
0.00232369
0.00235638
0.00238746
0.00241703
0.00244515
0.00247189
0.00249731
0.00252148
0.00254445
0.00256626
0.00258696
0.0026066
0.00262521
0.00264284
0.00265951
0.00267527
0.00269015
0.00270418
0.00271739
0.0027298
0.00274144
0.00275229
0.00276229
0.00277146
0.00277994
0.0027878
0.00279507
0.00280178
0.00280797
0.00281364
0.00281883
0.00282354
0.0028278
0.00283163
0.00283504
0.00283804
0.00284066
0.0028429
0.00284478
0.00284631
0.00284751
0.00284839
0.00284896
0.00284922
0.0028492
0.0028489
0.00284834
0.00284751
0.00284643
0.00284511
0.00284355
0.00284177
0.00283977
0.00283755
0.00283513
0.0028325
0.00282968
0.00282667
0.00282347
0.00282009
0.00281653
0.0028128
0.0028089
0.00280484
0.00280061
0.00279622
0.00279167
0.00278697
0.00278212
0.00277711
0.00277196
0.00276665
0.0027612
0.0027556
0.00274986
0.00274398
0.00273794
0.00273177
0.00272545
0.00271898
0.00271238
0.00270562
0.00269872
0.00269168
0.00268449
0.00267715
0.00266966
0.00266201
0.00265422
0.00264627
0.00263817
0.00262991
0.00262149
0.00261291
0.00260416
0.00259525
0.00258617
0.00257692
0.00256749
0.00255789
0.00254811
0.00253815
0.002528
0.00251767
0.00250715
0.00249643
0.00248552
0.00247441
0.0024631
0.00245158
0.00243985
0.00242791
0.00241576
0.00240339
0.00239079
0.00237798
0.00236493
0.00235165
0.00233814
0.00232439
0.0023104
0.00229616
0.00228168
0.00226694
0.00225196
0.00223671
0.0022212
0.00220542
0.00218938
0.00217307
0.00215647
0.0021396
0.00212244
0.002105
0.00208726
0.00206922
0.00205087
0.00203222
0.00201326
0.00199397
0.00197435
0.0019544
0.0019341
0.00191345
0.00189243
0.00187104
0.00184926
0.00182708
0.00180448
0.00178145
0.00175796
0.00173399
0.00170951
0.0016845
0.00165892
0.00163272
0.00160586
0.00157828
0.00154988
0.00152057
0.00149016
0.00145853
0.00142566
0.00139143
0.00135566
0.00131811
0.00127845
0.00123624
0.00119084
0.00114122
0.00108542
0.00102214
0.000948896
0.000861232
0.000750962
0.000601361
0.000374379
4.80355e-05
8.516e-05
0.000777001
0.00138202
0.00183379
0.00219002
0.00248567
0.0027397
0.00296298
0.00316225
0.00334234
0.00350659
0.00365745
0.0037968
0.00392612
0.00404659
0.00415917
0.00426465
0.00436372
0.00445695
0.00454483
0.00462779
0.00470621
0.00478042
0.00485071
0.00491734
0.00498054
0.00504053
0.00509749
0.00515159
0.005203
0.00525185
0.00529826
0.00534237
0.00538427
0.00542408
0.00546187
0.00549775
0.00553179
0.00556406
0.00559463
0.00562357
0.00565093
0.00567675
0.00570104
0.00572379
0.00574506
0.00576496
0.00578361
0.00580107
0.00581741
0.00583267
0.00584691
0.00586016
0.00587246
0.00588385
0.00589436
0.00590401
0.00591285
0.0059209
0.00592818
0.00593473
0.00594057
0.00594571
0.0059502
0.00595404
0.00595725
0.00595987
0.0059619
0.00596336
0.00596428
0.00596466
0.00596453
0.0059639
0.00596277
0.00596118
0.00595912
0.00595661
0.00595366
0.00595028
0.00594648
0.00594227
0.00593766
0.00593266
0.00592727
0.0059215
0.00591536
0.00590885
0.00590198
0.00589475
0.00588717
0.00587924
0.00587097
0.00586235
0.0058534
0.00584411
0.00583448
0.00582452
0.00581423
0.00580361
0.00579265
0.00578136
0.00576974
0.00575779
0.00574551
0.00573289
0.00571993
0.00570664
0.005693
0.00567903
0.0056647
0.00565003
0.00563501
0.00561963
0.00560389
0.00558778
0.00557131
0.00555447
0.00553724
0.00551964
0.00550165
0.00548326
0.00546448
0.00544529
0.0054257
0.00540568
0.00538525
0.00536438
0.00534308
0.00532134
0.00529915
0.00527651
0.0052534
0.00522983
0.00520578
0.00518124
0.00515622
0.00513069
0.00510466
0.00507812
0.00505105
0.00502345
0.00499532
0.00496664
0.00493741
0.00490761
0.00487724
0.0048463
0.00481476
0.00478262
0.00474988
0.00471651
0.00468251
0.00464788
0.00461259
0.00457663
0.00454
0.00450268
0.00446465
0.0044259
0.0043864
0.00434615
0.00430513
0.0042633
0.00422066
0.00417717
0.0041328
0.00408753
0.00404131
0.00399412
0.00394591
0.00389664
0.00384624
0.00379467
0.00374185
0.0036877
0.00363214
0.00357507
0.00351636
0.00345587
0.00339343
0.00332883
0.00326182
0.00319208
0.00311931
0.00304317
0.00296324
0.00287892
0.00278947
0.00269392
0.00259099
0.00247887
0.00235508
0.002216
0.00205698
0.00187199
0.00165101
0.00137811
0.00102751
0.000562306
6.17863e-05
8.51614e-05
0.000777016
0.00138206
0.00183383
0.00219007
0.00248572
0.00273975
0.00296303
0.0031623
0.00334239
0.00350664
0.00365749
0.00379685
0.00392617
0.00404663
0.00415921
0.00426469
0.00436376
0.00445699
0.00454487
0.00462783
0.00470624
0.00478045
0.00485073
0.00491736
0.00498056
0.00504055
0.00509751
0.00515162
0.00520302
0.00525186
0.00529828
0.00534239
0.00538429
0.00542409
0.00546189
0.00549776
0.0055318
0.00556407
0.00559464
0.00562358
0.00565094
0.00567676
0.00570105
0.0057238
0.00574506
0.00576497
0.00578362
0.00580108
0.00581742
0.00583268
0.00584692
0.00586017
0.00587247
0.00588386
0.00589436
0.00590402
0.00591286
0.0059209
0.00592819
0.00593474
0.00594057
0.00594572
0.0059502
0.00595404
0.00595726
0.00595987
0.0059619
0.00596337
0.00596428
0.00596467
0.00596453
0.0059639
0.00596278
0.00596118
0.00595912
0.00595661
0.00595366
0.00595028
0.00594648
0.00594228
0.00593767
0.00593266
0.00592727
0.0059215
0.00591536
0.00590885
0.00590198
0.00589475
0.00588717
0.00587925
0.00587097
0.00586236
0.0058534
0.00584411
0.00583448
0.00582452
0.00581423
0.00580361
0.00579265
0.00578136
0.00576975
0.00575779
0.00574551
0.00573289
0.00571993
0.00570664
0.00569301
0.00567903
0.0056647
0.00565003
0.00563501
0.00561963
0.00560389
0.00558778
0.00557131
0.00555447
0.00553724
0.00551964
0.00550165
0.00548326
0.00546448
0.00544529
0.0054257
0.00540568
0.00538525
0.00536438
0.00534308
0.00532134
0.00529916
0.00527651
0.0052534
0.00522983
0.00520578
0.00518124
0.00515622
0.00513069
0.00510466
0.00507812
0.00505105
0.00502345
0.00499532
0.00496664
0.00493741
0.00490761
0.00487724
0.0048463
0.00481476
0.00478262
0.00474987
0.00471651
0.00468251
0.00464788
0.00461259
0.00457663
0.00454
0.00450268
0.00446465
0.00442589
0.0043864
0.00434615
0.00430513
0.0042633
0.00422066
0.00417717
0.0041328
0.00408753
0.00404131
0.00399412
0.00394591
0.00389664
0.00384624
0.00379467
0.00374185
0.0036877
0.00363214
0.00357507
0.00351636
0.00345587
0.00339343
0.00332883
0.00326182
0.00319208
0.00311931
0.00304317
0.00296324
0.00287892
0.00278947
0.00269392
0.00259099
0.00247887
0.00235508
0.002216
0.00205698
0.00187199
0.00165101
0.00137811
0.00102751
0.000562296
6.17856e-05
9.66205e-05
0.000936493
0.00176071
0.00241453
0.0029485
0.00339937
0.00379014
0.00413541
0.00444483
0.00472517
0.0049813
0.00521683
0.00543455
0.00563667
0.00582495
0.00600085
0.00616559
0.00632021
0.00646559
0.00660251
0.00673165
0.0068536
0.0069689
0.00707802
0.00718139
0.00727938
0.00737235
0.00746061
0.00754444
0.00762411
0.00769984
0.00777185
0.00784035
0.0079055
0.00796749
0.00802645
0.00808253
0.00813587
0.00818658
0.00823477
0.00828054
0.00832398
0.00836517
0.00840415
0.00844099
0.00847572
0.00850851
0.00853945
0.00856864
0.00859617
0.00862211
0.00864652
0.00866947
0.00869101
0.00871119
0.00873007
0.00874769
0.00876409
0.00877932
0.00879342
0.00880642
0.00881836
0.00882927
0.00883919
0.00884814
0.00885617
0.00886328
0.00886952
0.00887491
0.00887946
0.00888321
0.00888618
0.00888838
0.00888983
0.00889057
0.00889059
0.00888992
0.00888857
0.00888656
0.00888391
0.00888062
0.0088767
0.00887217
0.00886704
0.00886132
0.00885502
0.00884813
0.00884069
0.00883268
0.00882411
0.008815
0.00880534
0.00879514
0.00878441
0.00877314
0.00876134
0.00874901
0.00873616
0.00872277
0.00870886
0.00869443
0.00867947
0.00866398
0.00864796
0.00863141
0.00861432
0.0085967
0.00857854
0.00855983
0.00854058
0.00852077
0.0085004
0.00847947
0.00845797
0.00843589
0.00841323
0.00838998
0.00836613
0.00834168
0.00831662
0.00829094
0.00826462
0.00823767
0.00821007
0.00818182
0.0081529
0.0081233
0.00809302
0.00806204
0.00803036
0.00799795
0.00796482
0.00793094
0.00789632
0.00786092
0.00782476
0.0077878
0.00775004
0.00771147
0.00767207
0.00763183
0.00759074
0.00754878
0.00750593
0.00746218
0.00741752
0.00737193
0.0073254
0.00727789
0.00722941
0.00717993
0.00712942
0.00707787
0.00702526
0.00697156
0.00691676
0.00686081
0.0068037
0.00674539
0.00668585
0.00662506
0.00656296
0.00649952
0.0064347
0.00636845
0.00630071
0.00623143
0.00616053
0.00608796
0.00601364
0.00593746
0.00585934
0.00577917
0.00569682
0.00561214
0.00552497
0.00543513
0.00534239
0.0052465
0.00514716
0.00504401
0.00493661
0.00482449
0.00470706
0.00458366
0.00445345
0.0043154
0.00416816
0.00401005
0.00383883
0.00365164
0.00344465
0.00321268
0.00294883
0.00264433
0.00228629
0.00185656
0.00133052
0.000686127
7.04917e-05
9.66211e-05
0.000936512
0.00176075
0.00241459
0.00294857
0.00339944
0.00379021
0.00413548
0.0044449
0.00472524
0.00498137
0.0052169
0.00543462
0.00563673
0.00582501
0.00600091
0.00616564
0.00632026
0.00646564
0.00660256
0.00673169
0.00685364
0.00696894
0.00707806
0.00718142
0.00727942
0.00737239
0.00746064
0.00754447
0.00762414
0.00769987
0.00777188
0.00784037
0.00790552
0.0079675
0.00802647
0.00808255
0.00813589
0.00818659
0.00823478
0.00828055
0.00832399
0.00836518
0.00840416
0.008441
0.00847573
0.00850852
0.00853946
0.00856865
0.00859618
0.00862211
0.00864652
0.00866947
0.00869101
0.00871119
0.00873007
0.00874769
0.0087641
0.00877933
0.00879342
0.00880642
0.00881836
0.00882927
0.00883919
0.00884815
0.00885617
0.00886328
0.00886952
0.00887491
0.00887946
0.00888321
0.00888618
0.00888838
0.00888983
0.00889056
0.00889059
0.00888992
0.00888857
0.00888656
0.00888391
0.00888061
0.0088767
0.00887217
0.00886704
0.00886132
0.00885501
0.00884813
0.00884068
0.00883267
0.00882411
0.008815
0.00880534
0.00879514
0.0087844
0.00877314
0.00876134
0.00874901
0.00873615
0.00872277
0.00870886
0.00869443
0.00867947
0.00866398
0.00864796
0.00863141
0.00861432
0.0085967
0.00857854
0.00855983
0.00854057
0.00852076
0.0085004
0.00847946
0.00845796
0.00843588
0.00841322
0.00838997
0.00836613
0.00834168
0.00831661
0.00829093
0.00826462
0.00823767
0.00821007
0.00818181
0.00815289
0.0081233
0.00809302
0.00806204
0.00803035
0.00799795
0.00796481
0.00793094
0.00789631
0.00786092
0.00782475
0.00778779
0.00775004
0.00771147
0.00767207
0.00763183
0.00759073
0.00754877
0.00750592
0.00746218
0.00741752
0.00737193
0.00732539
0.00727789
0.0072294
0.00717992
0.00712941
0.00707787
0.00702526
0.00697156
0.00691675
0.0068608
0.00680369
0.00674538
0.00668585
0.00662505
0.00656295
0.00649952
0.0064347
0.00636844
0.0063007
0.00623142
0.00616053
0.00608796
0.00601363
0.00593746
0.00585934
0.00577916
0.00569681
0.00561213
0.00552496
0.00543512
0.00534238
0.0052465
0.00514715
0.005044
0.00493661
0.00482448
0.00470705
0.00458365
0.00445345
0.00431539
0.00416816
0.00401004
0.00383883
0.00365164
0.00344465
0.00321268
0.00294883
0.00264432
0.00228629
0.00185656
0.00133052
0.00068612
7.04914e-05
0.000105831
0.00104552
0.00203085
0.00284601
0.0035276
0.00411122
0.00462149
0.00507513
0.00548364
0.00585522
0.00619585
0.00651003
0.00680123
0.00707221
0.00732517
0.00756195
0.00778407
0.00799285
0.00818941
0.00837474
0.00854969
0.00871505
0.0088715
0.00901966
0.0091601
0.0092933
0.00941975
0.00953986
0.00965401
0.00976256
0.00986582
0.0099641
0.0100577
0.0101467
0.0102316
0.0103124
0.0103894
0.0104628
0.0105326
0.0105992
0.0106625
0.0107228
0.0107801
0.0108345
0.0108862
0.0109353
0.0109818
0.0110258
0.0110676
0.0111073
0.0111448
0.0111803
0.0112139
0.0112456
0.0112755
0.0113038
0.0113303
0.0113553
0.0113788
0.0114007
0.0114212
0.0114403
0.011458
0.0114745
0.0114897
0.0115036
0.0115164
0.0115279
0.0115384
0.0115477
0.011556
0.0115633
0.0115695
0.0115747
0.011579
0.0115823
0.0115847
0.0115862
0.0115868
0.0115866
0.0115855
0.0115835
0.0115807
0.0115772
0.0115728
0.0115676
0.0115616
0.0115549
0.0115474
0.0115392
0.0115302
0.0115205
0.01151
0.0114988
0.0114869
0.0114743
0.0114609
0.0114469
0.0114321
0.0114166
0.0114003
0.0113834
0.0113657
0.0113473
0.0113282
0.0113084
0.0112878
0.0112665
0.0112444
0.0112216
0.011198
0.0111737
0.0111486
0.0111227
0.0110961
0.0110686
0.0110404
0.0110113
0.0109814
0.0109507
0.0109191
0.0108867
0.0108534
0.0108192
0.0107841
0.0107481
0.0107112
0.0106733
0.0106345
0.0105948
0.010554
0.0105123
0.0104695
0.0104258
0.0103809
0.010335
0.0102881
0.01024
0.0101908
0.0101405
0.010089
0.0100363
0.00998247
0.00992739
0.00987107
0.00981348
0.00975461
0.00969442
0.00963289
0.00956999
0.00950569
0.00943997
0.00937278
0.00930411
0.0092339
0.00916213
0.00908875
0.00901372
0.00893699
0.00885852
0.00877824
0.00869611
0.00861206
0.00852602
0.00843792
0.00834768
0.0082552
0.00816039
0.00806314
0.00796333
0.00786083
0.00775548
0.00764713
0.00753557
0.00742059
0.00730195
0.00717937
0.00705251
0.006921
0.0067844
0.00664218
0.00649375
0.00633838
0.00617523
0.00600329
0.00582135
0.00562788
0.00542102
0.00519839
0.00495702
0.0046931
0.00440175
0.00407663
0.00370966
0.00329034
0.00280519
0.00223663
0.00156434
0.000780521
7.73767e-05
0.000105832
0.00104554
0.0020309
0.00284607
0.00352768
0.0041113
0.00462158
0.00507521
0.00548373
0.0058553
0.00619593
0.00651011
0.00680132
0.00707229
0.00732525
0.00756202
0.00778415
0.00799292
0.00818948
0.0083748
0.00854976
0.00871511
0.00887156
0.00901972
0.00916014
0.00929335
0.0094198
0.0095399
0.00965405
0.0097626
0.00986586
0.00996413
0.0100577
0.0101468
0.0102316
0.0103124
0.0103894
0.0104628
0.0105326
0.0105992
0.0106625
0.0107228
0.0107801
0.0108346
0.0108862
0.0109353
0.0109818
0.0110259
0.0110677
0.0111073
0.0111448
0.0111803
0.0112139
0.0112456
0.0112755
0.0113038
0.0113303
0.0113553
0.0113788
0.0114007
0.0114212
0.0114403
0.011458
0.0114745
0.0114897
0.0115036
0.0115164
0.0115279
0.0115384
0.0115477
0.011556
0.0115633
0.0115695
0.0115747
0.011579
0.0115823
0.0115847
0.0115862
0.0115868
0.0115866
0.0115855
0.0115835
0.0115807
0.0115772
0.0115728
0.0115676
0.0115616
0.0115549
0.0115474
0.0115392
0.0115302
0.0115205
0.01151
0.0114988
0.0114869
0.0114743
0.0114609
0.0114469
0.0114321
0.0114166
0.0114003
0.0113834
0.0113657
0.0113473
0.0113282
0.0113084
0.0112878
0.0112665
0.0112444
0.0112216
0.011198
0.0111737
0.0111486
0.0111227
0.0110961
0.0110686
0.0110404
0.0110113
0.0109814
0.0109507
0.0109191
0.0108867
0.0108534
0.0108192
0.0107841
0.0107481
0.0107112
0.0106733
0.0106345
0.0105948
0.010554
0.0105123
0.0104695
0.0104257
0.0103809
0.010335
0.0102881
0.01024
0.0101908
0.0101405
0.010089
0.0100363
0.00998246
0.00992738
0.00987106
0.00981347
0.0097546
0.00969441
0.00963288
0.00956998
0.00950568
0.00943996
0.00937277
0.0093041
0.00923389
0.00916212
0.00908874
0.00901371
0.00893698
0.00885851
0.00877823
0.0086961
0.00861205
0.00852601
0.00843791
0.00834767
0.00825519
0.00816038
0.00806313
0.00796332
0.00786082
0.00775547
0.00764712
0.00753556
0.00742058
0.00730194
0.00717936
0.0070525
0.00692099
0.00678439
0.00664217
0.00649374
0.00633837
0.00617522
0.00600328
0.00582134
0.00562788
0.00542101
0.00519838
0.00495701
0.0046931
0.00440175
0.00407663
0.00370965
0.00329034
0.00280519
0.00223663
0.00156434
0.000780516
7.73767e-05
0.000113674
0.00113248
0.00224042
0.00318329
0.00398545
0.00468002
0.00529203
0.00583928
0.00633444
0.0067867
0.00720284
0.007588
0.00794615
0.00828044
0.00859341
0.00888714
0.0091634
0.00942367
0.00966924
0.00990124
0.0101207
0.0103284
0.0105253
0.0107119
0.0108891
0.0110574
0.0112173
0.0113694
0.0115141
0.0116518
0.0117829
0.0119078
0.0120269
0.0121403
0.0122485
0.0123517
0.0124501
0.012544
0.0126335
0.0127189
0.0128003
0.012878
0.012952
0.0130224
0.0130895
0.0131534
0.0132142
0.013272
0.0133269
0.0133792
0.0134289
0.0134761
0.0135209
0.0135634
0.0136037
0.0136419
0.0136781
0.0137122
0.0137445
0.0137749
0.0138036
0.0138305
0.0138558
0.0138794
0.0139015
0.0139221
0.0139411
0.0139588
0.013975
0.0139899
0.0140035
0.0140158
0.0140268
0.0140366
0.0140451
0.0140526
0.0140588
0.014064
0.014068
0.0140709
0.0140728
0.0140737
0.0140735
0.0140723
0.0140701
0.0140669
0.0140627
0.0140576
0.0140515
0.0140445
0.0140366
0.0140277
0.0140179
0.0140072
0.0139955
0.013983
0.0139695
0.0139552
0.0139399
0.0139238
0.0139067
0.0138888
0.0138699
0.0138501
0.0138294
0.0138078
0.0137853
0.0137618
0.0137374
0.013712
0.0136858
0.0136585
0.0136303
0.0136011
0.0135709
0.0135397
0.0135075
0.0134742
0.0134399
0.0134046
0.0133682
0.0133308
0.0132922
0.0132525
0.0132117
0.0131697
0.0131266
0.0130823
0.0130368
0.0129901
0.0129421
0.0128929
0.0128424
0.0127905
0.0127374
0.0126829
0.0126271
0.0125698
0.0125111
0.012451
0.0123894
0.0123263
0.0122617
0.0121955
0.0121278
0.0120584
0.0119874
0.0119146
0.0118402
0.011764
0.011686
0.0116061
0.0115244
0.0114407
0.0113551
0.0112674
0.0111776
0.0110857
0.0109916
0.0108952
0.0107964
0.0106952
0.0105915
0.0104852
0.0103762
0.0102643
0.0101495
0.0100316
0.00991048
0.00978598
0.0096579
0.00952605
0.00939019
0.00925008
0.00910541
0.00895586
0.00880106
0.00864056
0.00847386
0.00830039
0.00811945
0.00793025
0.00773187
0.00752318
0.00730288
0.00706937
0.00682072
0.00655457
0.00626801
0.00595742
0.00561831
0.00524507
0.00483066
0.00436628
0.0038409
0.00324117
0.00255137
0.00175579
0.000858122
8.31919e-05
0.000113675
0.0011325
0.00224046
0.00318335
0.00398552
0.00468011
0.00529212
0.00583937
0.00633454
0.0067868
0.00720294
0.0075881
0.00794625
0.00828054
0.0085935
0.00888723
0.00916348
0.00942375
0.00966932
0.00990131
0.0101207
0.0103285
0.0105253
0.010712
0.0108892
0.0110575
0.0112174
0.0113694
0.0115141
0.0116518
0.0117829
0.0119079
0.0120269
0.0121404
0.0122486
0.0123517
0.0124501
0.012544
0.0126335
0.0127189
0.0128003
0.012878
0.012952
0.0130225
0.0130896
0.0131534
0.0132142
0.013272
0.0133269
0.0133792
0.0134289
0.0134761
0.0135209
0.0135634
0.0136037
0.0136419
0.0136781
0.0137122
0.0137445
0.0137749
0.0138036
0.0138305
0.0138558
0.0138794
0.0139015
0.0139221
0.0139411
0.0139588
0.013975
0.0139899
0.0140035
0.0140157
0.0140268
0.0140366
0.0140451
0.0140526
0.0140588
0.014064
0.014068
0.0140709
0.0140728
0.0140737
0.0140735
0.0140723
0.0140701
0.0140669
0.0140627
0.0140576
0.0140515
0.0140445
0.0140366
0.0140277
0.0140179
0.0140072
0.0139955
0.013983
0.0139695
0.0139552
0.0139399
0.0139238
0.0139067
0.0138888
0.0138699
0.0138501
0.0138294
0.0138078
0.0137853
0.0137618
0.0137374
0.013712
0.0136857
0.0136585
0.0136303
0.0136011
0.0135709
0.0135397
0.0135075
0.0134742
0.0134399
0.0134046
0.0133682
0.0133307
0.0132922
0.0132525
0.0132117
0.0131697
0.0131266
0.0130823
0.0130368
0.01299
0.0129421
0.0128929
0.0128423
0.0127905
0.0127374
0.0126829
0.0126271
0.0125698
0.0125111
0.012451
0.0123894
0.0123263
0.0122617
0.0121955
0.0121278
0.0120584
0.0119873
0.0119146
0.0118402
0.011764
0.011686
0.0116061
0.0115244
0.0114407
0.0113551
0.0112674
0.0111776
0.0110857
0.0109916
0.0108952
0.0107964
0.0106952
0.0105915
0.0104852
0.0103761
0.0102643
0.0101495
0.0100316
0.00991047
0.00978597
0.00965789
0.00952604
0.00939018
0.00925007
0.0091054
0.00895585
0.00880105
0.00864055
0.00847385
0.00830038
0.00811944
0.00793024
0.00773186
0.00752317
0.00730287
0.00706936
0.00682071
0.00655456
0.006268
0.00595741
0.00561831
0.00524507
0.00483066
0.00436628
0.0038409
0.00324117
0.00255137
0.00175579
0.000858118
8.31918e-05
0.0001207
0.00120697
0.00241346
0.00345912
0.00435999
0.00514695
0.00584489
0.00647218
0.00704225
0.00756495
0.00804764
0.00849592
0.00891415
0.00930574
0.00967348
0.0100196
0.0103461
0.0106545
0.0109462
0.0112225
0.0114843
0.0117328
0.0119687
0.0121929
0.012406
0.0126087
0.0128016
0.0129853
0.0131603
0.0133271
0.0134861
0.0136378
0.0137825
0.0139205
0.0140523
0.0141781
0.0142982
0.0144129
0.0145225
0.0146271
0.014727
0.0148224
0.0149134
0.0150003
0.0150832
0.0151623
0.0152376
0.0153095
0.0153781
0.0154434
0.0155056
0.0155649
0.0156213
0.015675
0.0157261
0.0157747
0.0158209
0.0158647
0.0159062
0.0159455
0.0159828
0.016018
0.0160512
0.0160825
0.0161119
0.0161395
0.0161654
0.0161895
0.0162121
0.016233
0.0162523
0.0162701
0.0162864
0.0163012
0.0163146
0.0163266
0.0163373
0.0163466
0.0163546
0.0163613
0.0163667
0.0163709
0.0163739
0.0163756
0.0163762
0.0163756
0.0163738
0.0163709
0.0163668
0.0163617
0.0163554
0.0163479
0.0163394
0.0163298
0.0163191
0.0163073
0.0162944
0.0162805
0.0162654
0.0162493
0.0162321
0.0162138
0.0161945
0.016174
0.0161524
0.0161298
0.016106
0.0160811
0.0160551
0.016028
0.0159997
0.0159703
0.0159397
0.0159079
0.015875
0.0158408
0.0158055
0.0157689
0.015731
0.0156919
0.0156515
0.0156098
0.0155668
0.0155225
0.0154767
0.0154297
0.0153812
0.0153313
0.0152799
0.0152271
0.0151728
0.0151169
0.0150596
0.0150006
0.01494
0.0148779
0.014814
0.0147485
0.0146812
0.0146122
0.0145414
0.0144688
0.0143943
0.014318
0.0142397
0.0141594
0.0140771
0.0139928
0.0139063
0.0138177
0.0137269
0.0136338
0.0135384
0.0134407
0.0133405
0.0132378
0.0131325
0.0130246
0.012914
0.0128005
0.0126841
0.0125647
0.0124422
0.0123165
0.0121873
0.0120547
0.0119184
0.0117783
0.0116341
0.0114858
0.0113329
0.0111754
0.0110128
0.010845
0.0106714
0.0104918
0.0103055
0.0101122
0.00991111
0.00970158
0.00948276
0.00925366
0.00901316
0.00875989
0.00849225
0.00820835
0.00790588
0.00758207
0.00723356
0.00685626
0.00644516
0.00599416
0.0054958
0.004941
0.00431885
0.0036166
0.00282045
0.00191885
0.000924668
8.8285e-05
0.000120701
0.00120699
0.00241351
0.00345919
0.00436007
0.00514704
0.00584498
0.00647228
0.00704235
0.00756505
0.00804774
0.00849603
0.00891425
0.00930584
0.00967358
0.0100197
0.0103462
0.0106546
0.0109463
0.0112226
0.0114844
0.0117329
0.0119688
0.0121929
0.012406
0.0126087
0.0128017
0.0129854
0.0131604
0.0133272
0.0134862
0.0136378
0.0137825
0.0139206
0.0140523
0.0141781
0.0142983
0.014413
0.0145225
0.0146271
0.014727
0.0148224
0.0149134
0.0150003
0.0150832
0.0151623
0.0152377
0.0153096
0.0153781
0.0154434
0.0155056
0.0155649
0.0156213
0.0156751
0.0157262
0.0157747
0.0158209
0.0158647
0.0159062
0.0159455
0.0159828
0.016018
0.0160512
0.0160825
0.0161119
0.0161395
0.0161654
0.0161895
0.0162121
0.016233
0.0162523
0.0162701
0.0162864
0.0163012
0.0163146
0.0163266
0.0163373
0.0163466
0.0163546
0.0163613
0.0163667
0.0163709
0.0163739
0.0163756
0.0163762
0.0163756
0.0163738
0.0163709
0.0163668
0.0163617
0.0163553
0.0163479
0.0163394
0.0163298
0.0163191
0.0163073
0.0162944
0.0162805
0.0162654
0.0162493
0.0162321
0.0162138
0.0161945
0.016174
0.0161524
0.0161298
0.016106
0.0160811
0.0160551
0.016028
0.0159997
0.0159703
0.0159397
0.0159079
0.015875
0.0158408
0.0158054
0.0157688
0.015731
0.0156919
0.0156515
0.0156098