/*--------------------------------*- C++ -*----------------------------------*\
  =========                 |
  \\      /  F ield         | OpenFOAM: The Open Source CFD Toolbox
   \\    /   O peration     | Website:  https://openfoam.org
    \\  /    A nd           | Version:  8
     \\/     M anipulation  |
\*---------------------------------------------------------------------------*/
FoamFile
{
    version     2.0;
    format      ascii;
    class       volVectorField;
    location    "2900";
    object      U;
}
// * * * * * * * * * * * * * * * * * * * * * * * * * * * * * * * * * * * * * //

dimensions      [0 1 -1 0 0 0 0];

internalField   nonuniform List<vector> 
48000
(
(-0.0169008 -5.32718e-07 0.0184715)
(-0.0336887 -1.68283e-07 0.0158294)
(-0.0461746 -1.95278e-07 0.00713971)
(-0.0485337 -1.56657e-07 -0.000763037)
(-0.0436404 -1.32838e-07 -0.006375)
(-0.0338732 -1.26677e-07 -0.0100854)
(-0.0208098 -1.17502e-07 -0.0124879)
(-0.00575946 -1.00254e-07 -0.0139688)
(0.0107228 -7.76921e-08 -0.0146705)
(0.027534 -5.9691e-08 -0.0148016)
(0.044607 -5.2518e-08 -0.0146522)
(0.0615361 -5.18517e-08 -0.0143168)
(0.0781419 -5.36868e-08 -0.0138574)
(0.0942814 -5.51565e-08 -0.0133158)
(0.109855 -5.47986e-08 -0.0127206)
(0.124793 -5.23657e-08 -0.0120922)
(0.139047 -4.82461e-08 -0.0114452)
(0.152587 -4.30491e-08 -0.0107906)
(0.165394 -3.73648e-08 -0.0101364)
(0.177461 -3.1688e-08 -0.00948886)
(0.188788 -2.62892e-08 -0.00885268)
(0.199381 -2.1374e-08 -0.00823146)
(0.209252 -1.70032e-08 -0.00762798)
(0.218418 -1.32035e-08 -0.00704436)
(0.226897 -9.96723e-09 -0.00648217)
(0.234711 -7.2507e-09 -0.00594257)
(0.241884 -4.99867e-09 -0.00542636)
(0.248441 -3.12547e-09 -0.00493404)
(0.254408 -1.58541e-09 -0.00446584)
(0.259813 -3.13766e-10 -0.00402178)
(0.264682 7.38956e-10 -0.00360172)
(0.269045 1.62416e-09 -0.00320533)
(0.272927 2.40275e-09 -0.00283215)
(0.276356 3.08235e-09 -0.00248164)
(0.279359 3.68581e-09 -0.00215313)
(0.281962 4.24929e-09 -0.00184589)
(0.28419 4.76518e-09 -0.00155913)
(0.286067 5.27345e-09 -0.00129201)
(0.287618 5.75127e-09 -0.00104366)
(0.288864 6.22146e-09 -0.000813192)
(0.289827 6.68405e-09 -0.000599712)
(0.290528 7.1295e-09 -0.00040233)
(0.290987 7.58256e-09 -0.000220166)
(0.29122 8.0185e-09 -5.22162e-05)
(0.291247 8.45443e-09 0.000102531)
(0.291083 8.90939e-09 0.000244665)
(0.290744 9.35294e-09 0.000374844)
(0.290244 9.79839e-09 0.000494017)
(0.289596 1.02572e-08 0.000602996)
(0.288813 1.07159e-08 0.000702506)
(0.287907 1.11709e-08 0.000793216)
(0.286888 1.1643e-08 0.000875758)
(0.285766 1.21151e-08 0.000950732)
(0.284551 1.2591e-08 0.0010187)
(0.283251 1.30707e-08 0.00108019)
(0.281875 1.35485e-08 0.0011357)
(0.280429 1.40301e-08 0.0011857)
(0.278921 1.45041e-08 0.00123061)
(0.277356 1.49838e-08 0.00127083)
(0.275742 1.5454e-08 0.00130674)
(0.274082 1.59109e-08 0.00133867)
(0.272383 1.6362e-08 0.00136696)
(0.270648 1.68056e-08 0.00139188)
(0.268881 1.72434e-08 0.00141373)
(0.267087 1.76641e-08 0.00143274)
(0.26527 1.80734e-08 0.00144914)
(0.263431 1.84693e-08 0.00146317)
(0.261575 1.88481e-08 0.00147501)
(0.259704 1.92193e-08 0.00148484)
(0.257821 1.95734e-08 0.00149284)
(0.255927 1.99065e-08 0.00149917)
(0.254025 2.02263e-08 0.00150397)
(0.252117 2.05252e-08 0.00150739)
(0.250205 2.08202e-08 0.00150953)
(0.24829 2.10829e-08 0.00151053)
(0.246374 2.13266e-08 0.0015105)
(0.244457 2.15645e-08 0.00150953)
(0.242541 2.17834e-08 0.00150772)
(0.240628 2.19833e-08 0.00150516)
(0.238718 2.21698e-08 0.00150194)
(0.236811 2.23469e-08 0.00149814)
(0.234909 2.25068e-08 0.00149383)
(0.233012 2.264e-08 0.00148908)
(0.231121 2.27675e-08 0.00148396)
(0.229237 2.28779e-08 0.00147852)
(0.227359 2.2975e-08 0.00147284)
(0.225487 2.30588e-08 0.00146696)
(0.223623 2.31387e-08 0.00146094)
(0.221766 2.32034e-08 0.00145482)
(0.219917 2.32491e-08 0.00144866)
(0.218075 2.32929e-08 0.0014425)
(0.216241 2.33271e-08 0.00143638)
(0.214414 2.33519e-08 0.00143035)
(0.212594 2.33766e-08 0.00142444)
(0.210781 2.33976e-08 0.00141869)
(0.208975 2.33994e-08 0.00141314)
(0.207176 2.33975e-08 0.00140781)
(0.205383 2.33994e-08 0.00140275)
(0.203596 2.33975e-08 0.00139798)
(0.201815 2.33918e-08 0.00139354)
(0.200039 2.33899e-08 0.00138945)
(0.198267 2.33861e-08 0.00138575)
(0.1965 2.33842e-08 0.00138245)
(0.194737 2.33842e-08 0.00137959)
(0.192976 2.33823e-08 0.00137718)
(0.191219 2.33975e-08 0.00137527)
(0.189463 2.34089e-08 0.00137386)
(0.187709 2.3426e-08 0.00137299)
(0.185955 2.34508e-08 0.00137267)
(0.184201 2.34926e-08 0.00137294)
(0.182447 2.35383e-08 0.00137381)
(0.180691 2.35859e-08 0.0013753)
(0.178932 2.36582e-08 0.00137743)
(0.177171 2.37268e-08 0.00138024)
(0.175405 2.38219e-08 0.00138373)
(0.173635 2.39323e-08 0.00138793)
(0.171859 2.40542e-08 0.00139286)
(0.170077 2.41836e-08 0.00139854)
(0.168287 2.43359e-08 0.00140499)
(0.166488 2.45072e-08 0.00141223)
(0.16468 2.46976e-08 0.00142027)
(0.162862 2.49032e-08 0.00142915)
(0.161032 2.51316e-08 0.00143887)
(0.159189 2.53714e-08 0.00144945)
(0.157333 2.56379e-08 0.00146091)
(0.155463 2.59387e-08 0.00147328)
(0.153576 2.62585e-08 0.00148656)
(0.151673 2.65859e-08 0.00150077)
(0.149752 2.69514e-08 0.00151592)
(0.147812 2.73321e-08 0.00153204)
(0.145851 2.77547e-08 0.00154914)
(0.143869 2.81888e-08 0.00156722)
(0.141864 2.86571e-08 0.0015863)
(0.139836 2.91482e-08 0.00160639)
(0.137783 2.9666e-08 0.00162749)
(0.135703 3.02218e-08 0.00164963)
(0.133596 3.08081e-08 0.00167279)
(0.131461 3.14135e-08 0.001697)
(0.129296 3.20455e-08 0.00172224)
(0.1271 3.27117e-08 0.00174852)
(0.124871 3.34161e-08 0.00177583)
(0.12261 3.41547e-08 0.00180418)
(0.120314 3.49085e-08 0.00183355)
(0.117982 3.57042e-08 0.00186394)
(0.115614 3.65418e-08 0.00189533)
(0.113207 3.74099e-08 0.0019277)
(0.110762 3.83084e-08 0.00196103)
(0.108278 3.92487e-08 0.00199531)
(0.105752 4.02386e-08 0.00203049)
(0.103185 4.12475e-08 0.00206654)
(0.100575 4.23136e-08 0.00210344)
(0.0979214 4.34139e-08 0.00214112)
(0.095224 4.45446e-08 0.00217953)
(0.0924818 4.5721e-08 0.00221863)
(0.0896944 4.69317e-08 0.00225834)
(0.0868612 4.81843e-08 0.00229859)
(0.0839819 4.94826e-08 0.0023393)
(0.0810563 5.08037e-08 0.00238037)
(0.0780844 5.21667e-08 0.00242169)
(0.0750661 5.35868e-08 0.00246314)
(0.0720018 5.50373e-08 0.00250461)
(0.0688918 5.65221e-08 0.00254593)
(0.0657368 5.80793e-08 0.00258693)
(0.0625377 5.9686e-08 0.00262744)
(0.0592955 6.13726e-08 0.00266724)
(0.0560117 6.31353e-08 0.00270609)
(0.052688 6.49894e-08 0.00274373)
(0.0493264 6.69692e-08 0.00277985)
(0.0459295 6.90099e-08 0.0028141)
(0.0425001 7.12219e-08 0.0028461)
(0.0390416 7.35405e-08 0.00287539)
(0.035558 7.59847e-08 0.00290147)
(0.032054 7.85812e-08 0.00292374)
(0.0285349 8.12615e-08 0.00294154)
(0.0250069 8.40675e-08 0.00295408)
(0.0214772 8.69876e-08 0.00296046)
(0.017954 9.00258e-08 0.00295963)
(0.0144468 9.31972e-08 0.00295036)
(0.0109668 9.65666e-08 0.00293121)
(0.00752638 1.00138e-07 0.00290041)
(0.00414128 1.03899e-07 0.00285574)
(0.000829587 1.0741e-07 0.00279267)
(-0.00239531 1.09831e-07 0.00270248)
(-0.0054916 1.12222e-07 0.00258421)
(-0.00844448 1.15428e-07 0.00244011)
(-0.0112164 1.18489e-07 0.00226651)
(-0.0137703 1.20986e-07 0.00205685)
(-0.0160609 1.22471e-07 0.0018035)
(-0.0180342 1.2273e-07 0.00149814)
(-0.0196263 1.22319e-07 0.00112955)
(-0.0207603 1.22692e-07 0.000684433)
(-0.0213463 1.26377e-07 0.00014644)
(-0.0212748 1.34822e-07 -0.000499763)
(-0.020427 1.48703e-07 -0.001268)
(-0.0186772 1.64945e-07 -0.0021673)
(-0.0159048 1.75209e-07 -0.00317954)
(-0.012037 1.76511e-07 -0.00420582)
(-0.00735659 1.8389e-07 -0.00489986)
(-0.00159329 1.81011e-07 -0.00356911)
(0.000161974 1.69632e-07 0.000430973)
(-0.0169 -5.32717e-07 0.0184724)
(-0.0336881 -1.68282e-07 0.0158297)
(-0.0461742 -1.95276e-07 0.00713986)
(-0.0485331 -1.56655e-07 -0.000762989)
(-0.0436399 -1.32836e-07 -0.00637498)
(-0.0338727 -1.26676e-07 -0.0100854)
(-0.0208093 -1.17501e-07 -0.0124879)
(-0.00575898 -1.00253e-07 -0.0139688)
(0.0107232 -7.76914e-08 -0.0146705)
(0.0275343 -5.96905e-08 -0.0148016)
(0.0446074 -5.25176e-08 -0.0146523)
(0.0615364 -5.18513e-08 -0.0143168)
(0.0781421 -5.36865e-08 -0.0138575)
(0.0942816 -5.51561e-08 -0.0133159)
(0.109855 -5.47983e-08 -0.0127207)
(0.124793 -5.23654e-08 -0.0120922)
(0.139047 -4.82459e-08 -0.0114452)
(0.152587 -4.30489e-08 -0.0107906)
(0.165394 -3.73646e-08 -0.0101364)
(0.177461 -3.16879e-08 -0.0094889)
(0.188788 -2.62891e-08 -0.00885272)
(0.199381 -2.13739e-08 -0.0082315)
(0.209252 -1.70031e-08 -0.00762802)
(0.218418 -1.32034e-08 -0.00704439)
(0.226897 -9.9672e-09 -0.00648221)
(0.234711 -7.25068e-09 -0.00594261)
(0.241884 -4.99866e-09 -0.00542641)
(0.248441 -3.12546e-09 -0.00493408)
(0.254408 -1.58541e-09 -0.00446588)
(0.259813 -3.13765e-10 -0.00402183)
(0.264682 7.38955e-10 -0.00360176)
(0.269044 1.62415e-09 -0.00320537)
(0.272927 2.40275e-09 -0.0028322)
(0.276356 3.08235e-09 -0.00248169)
(0.279359 3.6858e-09 -0.00215318)
(0.281962 4.24928e-09 -0.00184594)
(0.28419 4.76517e-09 -0.00155918)
(0.286067 5.27344e-09 -0.00129206)
(0.287617 5.75126e-09 -0.00104371)
(0.288864 6.22146e-09 -0.00081325)
(0.289827 6.68404e-09 -0.000599772)
(0.290528 7.12949e-09 -0.000402392)
(0.290986 7.58255e-09 -0.000220229)
(0.29122 8.01848e-09 -5.22817e-05)
(0.291247 8.45442e-09 0.000102463)
(0.291083 8.90938e-09 0.000244596)
(0.290744 9.35293e-09 0.000374772)
(0.290244 9.79837e-09 0.000493943)
(0.289596 1.02571e-08 0.00060292)
(0.288813 1.07159e-08 0.000702428)
(0.287907 1.11709e-08 0.000793135)
(0.286888 1.1643e-08 0.000875675)
(0.285766 1.21151e-08 0.000950646)
(0.284551 1.2591e-08 0.00101861)
(0.283251 1.30707e-08 0.0010801)
(0.281874 1.35485e-08 0.00113561)
(0.280429 1.40301e-08 0.0011856)
(0.278921 1.45041e-08 0.00123051)
(0.277356 1.49838e-08 0.00127073)
(0.275742 1.5454e-08 0.00130663)
(0.274082 1.59109e-08 0.00133857)
(0.272383 1.6362e-08 0.00136685)
(0.270647 1.68056e-08 0.00139177)
(0.268881 1.72434e-08 0.00141361)
(0.267087 1.76641e-08 0.00143262)
(0.26527 1.80733e-08 0.00144903)
(0.263431 1.84693e-08 0.00146305)
(0.261575 1.88481e-08 0.00147488)
(0.259704 1.92193e-08 0.00148471)
(0.257821 1.95734e-08 0.00149271)
(0.255927 1.99065e-08 0.00149904)
(0.254025 2.02263e-08 0.00150384)
(0.252117 2.05252e-08 0.00150725)
(0.250205 2.08202e-08 0.00150939)
(0.24829 2.10829e-08 0.00151039)
(0.246373 2.13266e-08 0.00151035)
(0.244457 2.15645e-08 0.00150938)
(0.242541 2.17834e-08 0.00150757)
(0.240628 2.19833e-08 0.00150501)
(0.238718 2.21698e-08 0.00150179)
(0.236811 2.23468e-08 0.00149798)
(0.234909 2.25067e-08 0.00149367)
(0.233012 2.264e-08 0.00148892)
(0.231121 2.27675e-08 0.00148379)
(0.229237 2.28779e-08 0.00147836)
(0.227359 2.2975e-08 0.00147267)
(0.225487 2.30587e-08 0.00146679)
(0.223623 2.31387e-08 0.00146076)
(0.221766 2.32034e-08 0.00145465)
(0.219917 2.32491e-08 0.00144848)
(0.218075 2.32929e-08 0.00144232)
(0.216241 2.33271e-08 0.0014362)
(0.214414 2.33519e-08 0.00143017)
(0.212594 2.33766e-08 0.00142425)
(0.210781 2.33975e-08 0.0014185)
(0.208975 2.33994e-08 0.00141295)
(0.207176 2.33975e-08 0.00140762)
(0.205383 2.33994e-08 0.00140256)
(0.203596 2.33975e-08 0.00139779)
(0.201815 2.33918e-08 0.00139335)
(0.200038 2.33899e-08 0.00138926)
(0.198267 2.33861e-08 0.00138555)
(0.1965 2.33841e-08 0.00138225)
(0.194737 2.33841e-08 0.00137939)
(0.192976 2.33822e-08 0.00137698)
(0.191219 2.33975e-08 0.00137507)
(0.189463 2.34089e-08 0.00137366)
(0.187709 2.3426e-08 0.00137279)
(0.185955 2.34507e-08 0.00137247)
(0.184201 2.34926e-08 0.00137273)
(0.182447 2.35383e-08 0.0013736)
(0.180691 2.35859e-08 0.00137509)
(0.178932 2.36582e-08 0.00137723)
(0.177171 2.37267e-08 0.00138003)
(0.175405 2.38219e-08 0.00138352)
(0.173635 2.39323e-08 0.00138772)
(0.171859 2.40541e-08 0.00139265)
(0.170077 2.41836e-08 0.00139833)
(0.168287 2.43359e-08 0.00140478)
(0.166488 2.45072e-08 0.00141201)
(0.16468 2.46975e-08 0.00142006)
(0.162862 2.49031e-08 0.00142893)
(0.161032 2.51316e-08 0.00143865)
(0.159189 2.53714e-08 0.00144923)
(0.157333 2.56379e-08 0.00146069)
(0.155463 2.59387e-08 0.00147305)
(0.153576 2.62585e-08 0.00148633)
(0.151673 2.65859e-08 0.00150054)
(0.149752 2.69514e-08 0.0015157)
(0.147812 2.73321e-08 0.00153181)
(0.145851 2.77547e-08 0.0015489)
(0.143869 2.81887e-08 0.00156698)
(0.141864 2.8657e-08 0.00158606)
(0.139836 2.91482e-08 0.00160615)
(0.137783 2.96659e-08 0.00162726)
(0.135703 3.02218e-08 0.00164939)
(0.133596 3.08081e-08 0.00167255)
(0.131461 3.14134e-08 0.00169675)
(0.129296 3.20454e-08 0.00172199)
(0.1271 3.27117e-08 0.00174827)
(0.124871 3.3416e-08 0.00177558)
(0.12261 3.41546e-08 0.00180393)
(0.120314 3.49085e-08 0.00183329)
(0.117982 3.57042e-08 0.00186368)
(0.115614 3.65418e-08 0.00189506)
(0.113207 3.74098e-08 0.00192743)
(0.110762 3.83083e-08 0.00196076)
(0.108278 3.92487e-08 0.00199503)
(0.105752 4.02386e-08 0.00203021)
(0.103185 4.12475e-08 0.00206626)
(0.100575 4.23135e-08 0.00210315)
(0.0979214 4.34138e-08 0.00214083)
(0.095224 4.45445e-08 0.00217924)
(0.0924818 4.5721e-08 0.00221833)
(0.0896944 4.69317e-08 0.00225804)
(0.0868612 4.81842e-08 0.00229829)
(0.0839819 4.94825e-08 0.00233899)
(0.0810563 5.08036e-08 0.00238005)
(0.0780844 5.21666e-08 0.00242136)
(0.0750661 5.35867e-08 0.00246281)
(0.0720018 5.50372e-08 0.00250427)
(0.0688918 5.65221e-08 0.00254558)
(0.0657369 5.80792e-08 0.00258658)
(0.0625377 5.96859e-08 0.00262708)
(0.0592956 6.13725e-08 0.00266688)
(0.0560118 6.31352e-08 0.00270572)
(0.0526881 6.49893e-08 0.00274335)
(0.0493265 6.69691e-08 0.00277946)
(0.0459295 6.90097e-08 0.0028137)
(0.0425001 7.12217e-08 0.00284569)
(0.0390416 7.35403e-08 0.00287498)
(0.0355581 7.59846e-08 0.00290105)
(0.0320541 7.85811e-08 0.00292331)
(0.028535 8.12614e-08 0.0029411)
(0.025007 8.40673e-08 0.00295363)
(0.0214773 8.69874e-08 0.00296)
(0.0179541 9.00256e-08 0.00295915)
(0.0144469 9.3197e-08 0.00294987)
(0.0109668 9.65664e-08 0.0029307)
(0.00752643 1.00138e-07 0.00289989)
(0.00414133 1.03899e-07 0.00285521)
(0.000829634 1.07409e-07 0.00279213)
(-0.00239526 1.09831e-07 0.00270192)
(-0.00549155 1.12222e-07 0.00258364)
(-0.00844443 1.15427e-07 0.00243953)
(-0.0112163 1.18488e-07 0.00226592)
(-0.0137702 1.20986e-07 0.00205624)
(-0.0160608 1.22471e-07 0.00180288)
(-0.0180342 1.2273e-07 0.0014975)
(-0.0196263 1.22318e-07 0.00112889)
(-0.0207602 1.22692e-07 0.000683748)
(-0.0213462 1.26377e-07 0.000145729)
(-0.0212747 1.34821e-07 -0.000500504)
(-0.0204269 1.48702e-07 -0.00126878)
(-0.0186772 1.64944e-07 -0.00216814)
(-0.0159049 1.75208e-07 -0.00318047)
(-0.0120373 1.7651e-07 -0.0042069)
(-0.00735703 1.83888e-07 -0.00490113)
(-0.00159409 1.81011e-07 -0.00357086)
(0.000161109 1.69637e-07 0.000428621)
(-0.0129282 -6.29922e-08 0.038076)
(-0.0182846 1.04981e-08 0.0235962)
(-0.0177232 -3.00149e-09 0.00888616)
(-0.0135324 -4.86157e-09 -0.00373678)
(-0.00626934 -4.29721e-09 -0.013173)
(0.00344882 -1.66256e-09 -0.0197546)
(0.0150157 2.63878e-09 -0.024119)
(0.0279001 6.53844e-09 -0.0268742)
(0.0416807 8.27743e-09 -0.0284148)
(0.0559756 7.72059e-09 -0.0290791)
(0.0705201 5.55134e-09 -0.0291624)
(0.0850736 2.85383e-09 -0.0288268)
(0.0994655 4.43771e-10 -0.0281939)
(0.113562 -1.23908e-09 -0.0273476)
(0.127264 -2.10906e-09 -0.0263487)
(0.140494 -2.27848e-09 -0.0252424)
(0.153198 -1.96247e-09 -0.0240628)
(0.165335 -1.36472e-09 -0.0228363)
(0.176878 -6.49894e-10 -0.0215833)
(0.18781 6.44572e-11 -0.02032)
(0.198122 7.10752e-10 -0.0190594)
(0.207812 1.25377e-09 -0.0178118)
(0.216883 1.68448e-09 -0.0165857)
(0.225342 2.00048e-09 -0.0153876)
(0.233202 2.21798e-09 -0.014223)
(0.240477 2.34933e-09 -0.013096)
(0.247185 2.41072e-09 -0.0120099)
(0.253342 2.42214e-09 -0.0109671)
(0.258972 2.3974e-09 -0.00996931)
(0.264093 2.346e-09 -0.00901763)
(0.26873 2.2827e-09 -0.00811267)
(0.272904 2.21084e-09 -0.00725455)
(0.276638 2.13802e-09 -0.00644302)
(0.279955 2.06758e-09 -0.00567751)
(0.282878 1.9981e-09 -0.00495713)
(0.28543 1.93338e-09 -0.0042808)
(0.287631 1.87103e-09 -0.0036472)
(0.289504 1.80916e-09 -0.0030549)
(0.291069 1.75015e-09 -0.00250231)
(0.292347 1.69161e-09 -0.00198778)
(0.293355 1.63497e-09 -0.00150959)
(0.294114 1.57643e-09 -0.00106597)
(0.294639 1.51789e-09 -0.000655169)
(0.294949 1.46173e-09 -0.000275398)
(0.295058 1.4051e-09 7.50896e-05)
(0.294981 1.34323e-09 0.000398058)
(0.294733 1.28564e-09 0.000695241)
(0.294328 1.22663e-09 0.000968268)
(0.293776 1.17094e-09 0.00121871)
(0.293091 1.11288e-09 0.00144808)
(0.292283 1.05958e-09 0.0016578)
(0.291362 1.00532e-09 0.00184925)
(0.290338 9.51064e-10 0.00202371)
(0.28922 9.00615e-10 0.0021824)
(0.288015 8.48738e-10 0.00232649)
(0.286733 7.97813e-10 0.00245704)
(0.285379 7.47364e-10 0.00257508)
(0.28396 6.98819e-10 0.00268155)
(0.282483 6.46942e-10 0.00277733)
(0.280952 5.97445e-10 0.00286325)
(0.279375 5.47472e-10 0.00294007)
(0.277754 4.95595e-10 0.0030085)
(0.276096 4.43719e-10 0.00306921)
(0.274403 3.9089e-10 0.0031228)
(0.27268 3.38537e-10 0.00316984)
(0.27093 2.84281e-10 0.00321085)
(0.269156 2.29549e-10 0.00324633)
(0.267362 1.73865e-10 0.00327673)
(0.265551 1.18181e-10 0.00330247)
(0.263724 6.2021e-11 0.00332392)
(0.261884 3.00574e-12 0.00334147)
(0.260033 -5.45818e-11 0.00335544)
(0.258174 -1.13121e-10 0.00336614)
(0.256307 -1.72136e-10 0.00337388)
(0.254435 -2.34007e-10 0.00337891)
(0.252559 -2.92071e-10 0.00338149)
(0.250681 -3.55369e-10 0.00338187)
(0.248801 -4.16764e-10 0.00338026)
(0.246921 -4.78634e-10 0.00337687)
(0.245041 -5.38601e-10 0.00337189)
(0.243163 -6.01423e-10 0.00336552)
(0.241288 -6.62818e-10 0.00335792)
(0.239415 -7.24213e-10 0.00334925)
(0.237546 -7.86083e-10 0.00333967)
(0.235682 -8.4605e-10 0.00332932)
(0.233821 -9.06493e-10 0.00331834)
(0.231966 -9.66459e-10 0.00330686)
(0.230116 -1.02643e-09 0.00329499)
(0.228271 -1.08449e-09 0.00328286)
(0.226432 -1.13922e-09 0.00327057)
(0.224599 -1.19633e-09 0.00325824)
(0.222771 -1.25011e-09 0.00324594)
(0.220949 -1.30342e-09 0.00323379)
(0.219132 -1.35815e-09 0.00322187)
(0.217321 -1.40717e-09 0.00321026)
(0.215515 -1.45714e-09 0.00319904)
(0.213714 -1.50521e-09 0.0031883)
(0.211918 -1.5528e-09 0.00317811)
(0.210127 -1.59802e-09 0.00316854)
(0.20834 -1.6418e-09 0.00315965)
(0.206556 -1.68225e-09 0.00315151)
(0.204776 -1.72271e-09 0.00314419)
(0.202999 -1.76221e-09 0.00313775)
(0.201224 -1.79791e-09 0.00313225)
(0.199452 -1.83265e-09 0.00312773)
(0.197681 -1.86454e-09 0.00312426)
(0.19591 -1.89452e-09 0.0031219)
(0.19414 -1.92546e-09 0.00312069)
(0.192369 -1.95211e-09 0.00312068)
(0.190598 -1.97686e-09 0.00312192)
(0.188824 -2.00256e-09 0.00312447)
(0.187048 -2.02445e-09 0.00312836)
(0.185269 -2.04539e-09 0.00313365)
(0.183486 -2.06443e-09 0.00314038)
(0.181698 -2.08157e-09 0.00314859)
(0.179905 -2.09918e-09 0.00315833)
(0.178105 -2.11488e-09 0.00316963)
(0.176298 -2.12916e-09 0.00318255)
(0.174483 -2.14154e-09 0.00319712)
(0.172658 -2.15486e-09 0.00321337)
(0.170824 -2.16486e-09 0.00323135)
(0.168978 -2.17723e-09 0.0032511)
(0.167121 -2.18628e-09 0.00327265)
(0.165251 -2.1977e-09 0.00329604)
(0.163367 -2.20722e-09 0.00332129)
(0.161468 -2.21769e-09 0.00334844)
(0.159554 -2.22673e-09 0.00337752)
(0.157622 -2.23673e-09 0.00340855)
(0.155672 -2.2453e-09 0.00344157)
(0.153703 -2.25672e-09 0.0034766)
(0.151714 -2.26766e-09 0.00351365)
(0.149704 -2.28051e-09 0.00355275)
(0.147672 -2.29337e-09 0.0035939)
(0.145616 -2.30812e-09 0.00363713)
(0.143536 -2.32335e-09 0.00368244)
(0.14143 -2.34143e-09 0.00372984)
(0.139297 -2.35904e-09 0.00377932)
(0.137137 -2.38046e-09 0.00383088)
(0.134947 -2.40521e-09 0.00388451)
(0.132728 -2.43043e-09 0.0039402)
(0.130478 -2.45613e-09 0.00399793)
(0.128196 -2.48468e-09 0.00405766)
(0.125881 -2.52038e-09 0.00411937)
(0.123532 -2.55607e-09 0.00418302)
(0.121148 -2.59224e-09 0.00424855)
(0.118728 -2.63174e-09 0.00431591)
(0.116272 -2.67743e-09 0.00438504)
(0.113778 -2.72407e-09 0.00445585)
(0.111245 -2.77499e-09 0.00452826)
(0.108674 -2.83162e-09 0.00460217)
(0.106063 -2.88778e-09 0.00467747)
(0.103411 -2.95155e-09 0.00475403)
(0.100719 -3.01818e-09 0.00483172)
(0.0979852 -3.08861e-09 0.00491039)
(0.0952102 -3.16666e-09 0.00498985)
(0.0923933 -3.24661e-09 0.00506992)
(0.0895347 -3.33418e-09 0.0051504)
(0.0866342 -3.42746e-09 0.00523103)
(0.0836921 -3.52644e-09 0.00531157)
(0.0807088 -3.63114e-09 0.00539174)
(0.0776847 -3.73775e-09 0.0054712)
(0.0746205 -3.85292e-09 0.00554962)
(0.0715172 -3.97189e-09 0.00562661)
(0.0683759 -4.09277e-09 0.00570173)
(0.065198 -4.22127e-09 0.0057745)
(0.0619851 -4.34881e-09 0.00584441)
(0.0587394 -4.47825e-09 0.00591084)
(0.0554629 -4.60865e-09 0.00597314)
(0.0521586 -4.74476e-09 0.00603057)
(0.0488295 -4.88087e-09 0.00608229)
(0.0454791 -5.0265e-09 0.00612737)
(0.0421117 -5.17879e-09 0.00616473)
(0.0387319 -5.33964e-09 0.00619318)
(0.035345 -5.51763e-09 0.00621135)
(0.0319571 -5.71751e-09 0.00621768)
(0.0285752 -5.93071e-09 0.00621038)
(0.0252072 -6.16391e-09 0.0061874)
(0.021862 -6.41994e-09 0.00614636)
(0.0185497 -6.68645e-09 0.00608448)
(0.015282 -6.95772e-09 0.00599842)
(0.0120722 -7.23279e-09 0.00588417)
(0.00893536 -7.50976e-09 0.00573661)
(0.0058879 -7.65539e-09 0.00554814)
(0.00294996 -7.66015e-09 0.00531344)
(0.000141939 -7.68109e-09 0.00502755)
(-0.00250967 -7.7915e-09 0.00468182)
(-0.00497524 -8.07514e-09 0.00426648)
(-0.00722385 -8.62528e-09 0.0037696)
(-0.0092192 -9.47334e-09 0.00317684)
(-0.0109215 -1.04746e-08 0.00247079)
(-0.0122866 -1.12875e-08 0.00163212)
(-0.0132677 -1.1415e-08 0.000639814)
(-0.0138177 -1.04756e-08 -0.00052419)
(-0.0138883 -8.89369e-09 -0.00186859)
(-0.0134437 -8.86704e-09 -0.00338307)
(-0.0124666 -1.42257e-08 -0.00500359)
(-0.0109736 -2.63137e-08 -0.0065356)
(-0.00899488 -3.16305e-08 -0.00751939)
(-0.006432 -5.50523e-09 -0.00671784)
(-0.0037418 -8.60866e-08 -0.0022241)
(-0.0129278 -6.29917e-08 0.0380762)
(-0.0182844 1.04979e-08 0.0235962)
(-0.017723 -3.0014e-09 0.00888601)
(-0.0135321 -4.86146e-09 -0.00373691)
(-0.00626911 -4.29712e-09 -0.0131731)
(0.00344903 -1.66253e-09 -0.0197547)
(0.0150159 2.63873e-09 -0.024119)
(0.0279002 6.53834e-09 -0.0268743)
(0.0416808 8.27732e-09 -0.0284148)
(0.0559757 7.72049e-09 -0.0290791)
(0.0705202 5.55128e-09 -0.0291624)
(0.0850737 2.8538e-09 -0.0288268)
(0.0994655 4.43767e-10 -0.0281939)
(0.113562 -1.23907e-09 -0.0273476)
(0.127264 -2.10904e-09 -0.0263487)
(0.140494 -2.27846e-09 -0.0252424)
(0.153197 -1.96246e-09 -0.0240629)
(0.165335 -1.36471e-09 -0.0228363)
(0.176878 -6.4989e-10 -0.0215833)
(0.18781 6.44568e-11 -0.02032)
(0.198122 7.10748e-10 -0.0190594)
(0.207812 1.25377e-09 -0.0178118)
(0.216883 1.68447e-09 -0.0165857)
(0.225342 2.00047e-09 -0.0153877)
(0.233202 2.21797e-09 -0.014223)
(0.240477 2.34932e-09 -0.0130961)
(0.247184 2.41071e-09 -0.0120099)
(0.253342 2.42213e-09 -0.0109671)
(0.258971 2.39739e-09 -0.00996932)
(0.264093 2.34599e-09 -0.00901764)
(0.26873 2.28269e-09 -0.00811267)
(0.272903 2.21083e-09 -0.00725456)
(0.276638 2.13801e-09 -0.00644304)
(0.279955 2.06758e-09 -0.00567752)
(0.282878 1.99809e-09 -0.00495715)
(0.285429 1.93337e-09 -0.00428081)
(0.287631 1.87102e-09 -0.00364722)
(0.289504 1.80915e-09 -0.00305491)
(0.291069 1.75014e-09 -0.00250233)
(0.292347 1.6916e-09 -0.0019878)
(0.293355 1.63497e-09 -0.00150961)
(0.294114 1.57643e-09 -0.00106599)
(0.294639 1.51789e-09 -0.00065519)
(0.294949 1.46173e-09 -0.000275419)
(0.295058 1.4051e-09 7.50673e-05)
(0.294981 1.34323e-09 0.000398035)
(0.294733 1.28564e-09 0.000695217)
(0.294328 1.22662e-09 0.000968244)
(0.293776 1.17094e-09 0.00121869)
(0.293091 1.11288e-09 0.00144805)
(0.292283 1.05957e-09 0.00165778)
(0.291362 1.00532e-09 0.00184922)
(0.290338 9.51061e-10 0.00202368)
(0.28922 9.00613e-10 0.00218237)
(0.288015 8.48736e-10 0.00232646)
(0.286732 7.97812e-10 0.00245701)
(0.285378 7.47363e-10 0.00257505)
(0.28396 6.98818e-10 0.00268152)
(0.282482 6.46941e-10 0.0027773)
(0.280952 5.97444e-10 0.00286322)
(0.279375 5.47471e-10 0.00294004)
(0.277754 4.95594e-10 0.00300847)
(0.276096 4.43718e-10 0.00306918)
(0.274403 3.90889e-10 0.00312277)
(0.27268 3.38537e-10 0.0031698)
(0.27093 2.84281e-10 0.00321082)
(0.269156 2.29548e-10 0.0032463)
(0.267362 1.73865e-10 0.0032767)
(0.265551 1.18181e-10 0.00330243)
(0.263724 6.20209e-11 0.00332389)
(0.261884 3.00574e-12 0.00334143)
(0.260033 -5.45817e-11 0.0033554)
(0.258174 -1.13121e-10 0.00336611)
(0.256307 -1.72136e-10 0.00337384)
(0.254435 -2.34007e-10 0.00337887)
(0.252559 -2.9207e-10 0.00338146)
(0.250681 -3.55368e-10 0.00338183)
(0.248801 -4.16763e-10 0.00338022)
(0.246921 -4.78633e-10 0.00337683)
(0.245041 -5.386e-10 0.00337186)
(0.243163 -6.01422e-10 0.00336548)
(0.241288 -6.62817e-10 0.00335788)
(0.239415 -7.24211e-10 0.00334921)
(0.237546 -7.86082e-10 0.00333963)
(0.235682 -8.46048e-10 0.00332928)
(0.233821 -9.06491e-10 0.0033183)
(0.231966 -9.66458e-10 0.00330682)
(0.230116 -1.02642e-09 0.00329495)
(0.228271 -1.08449e-09 0.00328282)
(0.226432 -1.13922e-09 0.00327053)
(0.224599 -1.19633e-09 0.00325819)
(0.222771 -1.25011e-09 0.0032459)
(0.220948 -1.30341e-09 0.00323375)
(0.219132 -1.35814e-09 0.00322182)
(0.217321 -1.40717e-09 0.00321021)
(0.215515 -1.45714e-09 0.003199)
(0.213714 -1.50521e-09 0.00318826)
(0.211918 -1.5528e-09 0.00317806)
(0.210127 -1.59801e-09 0.00316849)
(0.20834 -1.6418e-09 0.0031596)
(0.206556 -1.68225e-09 0.00315147)
(0.204776 -1.72271e-09 0.00314415)
(0.202999 -1.76221e-09 0.00313771)
(0.201224 -1.7979e-09 0.0031322)
(0.199452 -1.83265e-09 0.00312769)
(0.197681 -1.86453e-09 0.00312422)
(0.19591 -1.89452e-09 0.00312185)
(0.19414 -1.92545e-09 0.00312064)
(0.192369 -1.95211e-09 0.00312063)
(0.190598 -1.97685e-09 0.00312187)
(0.188824 -2.00256e-09 0.00312442)
(0.187048 -2.02445e-09 0.00312831)
(0.185269 -2.04539e-09 0.0031336)
(0.183486 -2.06443e-09 0.00314033)
(0.181698 -2.08156e-09 0.00314854)
(0.179905 -2.09917e-09 0.00315828)
(0.178105 -2.11488e-09 0.00316958)
(0.176298 -2.12916e-09 0.0031825)
(0.174483 -2.14153e-09 0.00319707)
(0.172658 -2.15486e-09 0.00321332)
(0.170824 -2.16485e-09 0.00323131)
(0.168978 -2.17723e-09 0.00325105)
(0.167121 -2.18627e-09 0.0032726)
(0.165251 -2.1977e-09 0.00329598)
(0.163367 -2.20721e-09 0.00332124)
(0.161468 -2.21769e-09 0.00334839)
(0.159554 -2.22673e-09 0.00337747)
(0.157622 -2.23672e-09 0.0034085)
(0.155672 -2.24529e-09 0.00344152)
(0.153703 -2.25671e-09 0.00347655)
(0.151714 -2.26766e-09 0.0035136)
(0.149704 -2.28051e-09 0.00355269)
(0.147672 -2.29336e-09 0.00359385)
(0.145616 -2.30812e-09 0.00363708)
(0.143536 -2.32334e-09 0.00368239)
(0.14143 -2.34143e-09 0.00372978)
(0.139297 -2.35904e-09 0.00377926)
(0.137137 -2.38046e-09 0.00383082)
(0.134947 -2.4052e-09 0.00388446)
(0.132728 -2.43043e-09 0.00394015)
(0.130478 -2.45613e-09 0.00399787)
(0.128196 -2.48468e-09 0.00405761)
(0.125881 -2.52037e-09 0.00411932)
(0.123532 -2.55607e-09 0.00418296)
(0.121148 -2.59224e-09 0.00424849)
(0.118728 -2.63174e-09 0.00431585)
(0.116272 -2.67742e-09 0.00438498)
(0.113778 -2.72406e-09 0.00445579)
(0.111245 -2.77498e-09 0.00452819)
(0.108674 -2.83162e-09 0.0046021)
(0.106063 -2.88777e-09 0.0046774)
(0.103411 -2.95155e-09 0.00475397)
(0.100719 -3.01817e-09 0.00483166)
(0.0979853 -3.08861e-09 0.00491032)
(0.0952102 -3.16665e-09 0.00498978)
(0.0923933 -3.24661e-09 0.00506986)
(0.0895347 -3.33417e-09 0.00515033)
(0.0866342 -3.42745e-09 0.00523096)
(0.0836921 -3.52644e-09 0.0053115)
(0.0807088 -3.63114e-09 0.00539166)
(0.0776847 -3.73774e-09 0.00547113)
(0.0746205 -3.85291e-09 0.00554955)
(0.0715172 -3.97188e-09 0.00562653)
(0.0683759 -4.09276e-09 0.00570165)
(0.065198 -4.22126e-09 0.00577443)
(0.0619852 -4.3488e-09 0.00584433)
(0.0587394 -4.47824e-09 0.00591076)
(0.055463 -4.60864e-09 0.00597306)
(0.0521586 -4.74475e-09 0.00603049)
(0.0488295 -4.88086e-09 0.00608221)
(0.0454792 -5.02648e-09 0.00612728)
(0.0421117 -5.17877e-09 0.00616464)
(0.0387319 -5.33963e-09 0.00619309)
(0.035345 -5.51762e-09 0.00621126)
(0.0319571 -5.7175e-09 0.00621758)
(0.0285753 -5.9307e-09 0.00621028)
(0.0252072 -6.16389e-09 0.0061873)
(0.021862 -6.41993e-09 0.00614626)
(0.0185497 -6.68643e-09 0.00608438)
(0.015282 -6.9577e-09 0.00599832)
(0.0120722 -7.23277e-09 0.00588406)
(0.00893538 -7.50975e-09 0.0057365)
(0.00588792 -7.65537e-09 0.00554803)
(0.00294998 -7.66013e-09 0.00531333)
(0.000141963 -7.68107e-09 0.00502743)
(-0.00250965 -7.79148e-09 0.00468171)
(-0.00497522 -8.07512e-09 0.00426636)
(-0.00722383 -8.62526e-09 0.00376948)
(-0.00921918 -9.47332e-09 0.00317672)
(-0.0109215 -1.04746e-08 0.00247066)
(-0.0122866 -1.12875e-08 0.00163199)
(-0.0132677 -1.1415e-08 0.000639672)
(-0.0138177 -1.04756e-08 -0.00052434)
(-0.0138883 -8.89367e-09 -0.00186875)
(-0.0134437 -8.86702e-09 -0.00338325)
(-0.0124666 -1.42257e-08 -0.00500379)
(-0.0109737 -2.63136e-08 -0.00653586)
(-0.00899504 -3.16304e-08 -0.00751973)
(-0.00643239 -5.50529e-09 -0.00671843)
(-0.0037428 -8.60919e-08 -0.00222538)
(-0.00446355 -2.69513e-08 0.0498077)
(-0.00381328 8.34875e-09 0.022315)
(0.00180043 -2.64755e-09 0.00264955)
(0.00905726 -1.09622e-09 -0.0123184)
(0.0176404 1.65358e-09 -0.0235001)
(0.0273491 4.62566e-09 -0.0315586)
(0.0380534 7.47259e-09 -0.0371317)
(0.049566 9.37006e-09 -0.0407882)
(0.0616839 9.92925e-09 -0.0429728)
(0.0742159 9.32244e-09 -0.0440456)
(0.086977 7.94655e-09 -0.0442984)
(0.0997953 6.33413e-09 -0.0439392)
(0.112531 4.8702e-09 -0.0431244)
(0.125068 3.75417e-09 -0.0419706)
(0.137315 3.03077e-09 -0.040566)
(0.149196 2.64004e-09 -0.038978)
(0.160657 2.49203e-09 -0.0372595)
(0.171653 2.49013e-09 -0.0354519)
(0.182152 2.56294e-09 -0.0335881)
(0.192134 2.65717e-09 -0.0316946)
(0.201583 2.74022e-09 -0.0297931)
(0.210491 2.79661e-09 -0.0279009)
(0.218858 2.82017e-09 -0.0260322)
(0.226685 2.80875e-09 -0.0241986)
(0.23398 2.7721e-09 -0.0224095)
(0.240752 2.71237e-09 -0.0206723)
(0.247013 2.63741e-09 -0.0189928)
(0.252778 2.55508e-09 -0.0173757)
(0.258064 2.46918e-09 -0.0158243)
(0.262887 2.3866e-09 -0.014341)
(0.267266 2.3095e-09 -0.0129271)
(0.271221 2.23907e-09 -0.0115834)
(0.27477 2.17744e-09 -0.0103099)
(0.277934 2.12485e-09 -0.00910613)
(0.280733 2.08035e-09 -0.00797104)
(0.283185 2.04465e-09 -0.00690323)
(0.285311 2.01467e-09 -0.00590097)
(0.287129 1.99039e-09 -0.00496223)
(0.288658 1.97112e-09 -0.00408478)
(0.289917 1.9547e-09 -0.00326623)
(0.290921 1.94256e-09 -0.00250405)
(0.291688 1.93352e-09 -0.00179565)