/*--------------------------------*- C++ -*----------------------------------*\
  =========                 |
  \\      /  F ield         | OpenFOAM: The Open Source CFD Toolbox
   \\    /   O peration     | Website:  https://openfoam.org
    \\  /    A nd           | Version:  8
     \\/     M anipulation  |
\*---------------------------------------------------------------------------*/
FoamFile
{
    version     2.0;
    format      ascii;
    class       volScalarField;
    location    "1700";
    object      alphat;
}
// * * * * * * * * * * * * * * * * * * * * * * * * * * * * * * * * * * * * * //

dimensions      [1 -1 -1 0 0 0 0];

internalField   nonuniform List<scalar> 
46000
(
3.86604e-08
2.00482e-07
4.31163e-07
6.69616e-07
9.05271e-07
1.13726e-06
1.36576e-06
1.59148e-06
1.81379e-06
2.0313e-06
2.24379e-06
2.45104e-06
2.65295e-06
2.84931e-06
3.03996e-06
3.22492e-06
3.40418e-06
3.57779e-06
3.74577e-06
3.90846e-06
4.06787e-06
4.22233e-06
4.37162e-06
4.5159e-06
4.65532e-06
4.79001e-06
4.92003e-06
5.04541e-06
5.1662e-06
5.28246e-06
5.39422e-06
5.50152e-06
5.60439e-06
5.70284e-06
5.79686e-06
5.88644e-06
5.97154e-06
6.05213e-06
6.12815e-06
6.19952e-06
6.26617e-06
6.32803e-06
6.38501e-06
6.43703e-06
6.484e-06
6.52584e-06
6.56247e-06
6.59384e-06
6.61987e-06
6.64053e-06
6.65579e-06
6.66563e-06
6.67006e-06
6.6691e-06
6.66279e-06
6.6512e-06
6.63441e-06
6.61252e-06
6.58565e-06
6.55392e-06
6.51752e-06
6.47671e-06
6.43239e-06
6.38505e-06
6.33387e-06
6.27904e-06
6.22079e-06
6.15939e-06
6.09512e-06
6.02829e-06
5.95916e-06
5.88803e-06
5.81519e-06
5.74096e-06
5.66562e-06
5.58946e-06
5.51277e-06
5.43584e-06
5.35895e-06
5.28233e-06
5.20627e-06
5.13101e-06
5.05677e-06
4.98377e-06
4.91222e-06
4.84234e-06
4.77428e-06
4.70822e-06
4.64432e-06
4.58273e-06
4.52358e-06
4.46698e-06
4.41302e-06
4.36182e-06
4.31343e-06
4.26792e-06
4.22536e-06
4.18579e-06
4.14925e-06
4.11576e-06
4.08533e-06
4.05798e-06
4.03369e-06
4.01245e-06
3.99424e-06
3.97903e-06
3.9668e-06
3.95751e-06
3.9511e-06
3.94753e-06
3.94673e-06
3.94865e-06
3.95323e-06
3.96043e-06
3.97019e-06
3.98243e-06
3.9971e-06
4.01413e-06
4.03346e-06
4.05504e-06
4.07877e-06
4.1046e-06
4.13244e-06
4.16225e-06
4.19397e-06
4.22753e-06
4.26285e-06
4.29984e-06
4.33846e-06
4.37864e-06
4.42032e-06
4.46342e-06
4.50785e-06
4.55355e-06
4.60043e-06
4.64841e-06
4.69739e-06
4.74727e-06
4.79791e-06
4.8492e-06
4.90104e-06
4.95326e-06
5.00573e-06
5.05824e-06
5.11062e-06
5.16267e-06
5.21415e-06
5.26483e-06
5.31442e-06
5.36263e-06
5.40912e-06
5.45356e-06
5.49558e-06
5.53479e-06
5.57076e-06
5.60307e-06
5.63126e-06
5.65484e-06
5.6733e-06
5.68613e-06
5.69278e-06
5.69274e-06
5.68548e-06
5.67047e-06
5.64718e-06
5.61514e-06
5.57397e-06
5.52447e-06
5.46637e-06
5.3983e-06
5.3198e-06
5.23064e-06
5.13072e-06
5.02e-06
4.89856e-06
4.76656e-06
4.62424e-06
4.47198e-06
4.31024e-06
4.13955e-06
3.96059e-06
3.77411e-06
3.58093e-06
3.38195e-06
3.17813e-06
2.97047e-06
2.75999e-06
2.5477e-06
2.33458e-06
2.12147e-06
1.90853e-06
1.69612e-06
1.48655e-06
1.27733e-06
1.06799e-06
8.5712e-07
6.47865e-07
4.29636e-07
2.06985e-07
4.02369e-08
3.86613e-08
2.00495e-07
4.31187e-07
6.69646e-07
9.05302e-07
1.13729e-06
1.36578e-06
1.59147e-06
1.81377e-06
2.03127e-06
2.24377e-06
2.45104e-06
2.65297e-06
2.84936e-06
3.04005e-06
3.22502e-06
3.40429e-06
3.57789e-06
3.74586e-06
3.90829e-06
4.0677e-06
4.22214e-06
4.37141e-06
4.51567e-06
4.65507e-06
4.78975e-06
4.91976e-06
5.04512e-06
5.16592e-06
5.28219e-06
5.39398e-06
5.50132e-06
5.60422e-06
5.7027e-06
5.79676e-06
5.88638e-06
5.97152e-06
6.05214e-06
6.12818e-06
6.19958e-06
6.26625e-06
6.32813e-06
6.38511e-06
6.43713e-06
6.48409e-06
6.52591e-06
6.56254e-06
6.59389e-06
6.61992e-06
6.64058e-06
6.65584e-06
6.66568e-06
6.67011e-06
6.66915e-06
6.66285e-06
6.65126e-06
6.63446e-06
6.61256e-06
6.58568e-06
6.55396e-06
6.51755e-06
6.47675e-06
6.43244e-06
6.3851e-06
6.33393e-06
6.27909e-06
6.22083e-06
6.15943e-06
6.09515e-06
6.02831e-06
5.95917e-06
5.88804e-06
5.81521e-06
5.74098e-06
5.66563e-06
5.58947e-06
5.51279e-06
5.43587e-06
5.35896e-06
5.28234e-06
5.20628e-06
5.13101e-06
5.05676e-06
4.98376e-06
4.91222e-06
4.84233e-06
4.77427e-06
4.70821e-06
4.64432e-06
4.58273e-06
4.52357e-06
4.46697e-06
4.41301e-06
4.3618e-06
4.31341e-06
4.2679e-06
4.22534e-06
4.18577e-06
4.14922e-06
4.11573e-06
4.08529e-06
4.05793e-06
4.03363e-06
4.01237e-06
3.99416e-06
3.97894e-06
3.9667e-06
3.9574e-06
3.95099e-06
3.9474e-06
3.9466e-06
3.94851e-06
3.95309e-06
3.9603e-06
3.97007e-06
3.98233e-06
3.99702e-06
4.01407e-06
4.03341e-06
4.05499e-06
4.07872e-06
4.10454e-06
4.13239e-06
4.1622e-06
4.19392e-06
4.22748e-06
4.2628e-06
4.29981e-06
4.33844e-06
4.37863e-06
4.4203e-06
4.46338e-06
4.50779e-06
4.55348e-06
4.60035e-06
4.64833e-06
4.69732e-06
4.74719e-06
4.79784e-06
4.84915e-06
4.90099e-06
4.95322e-06
5.00567e-06
5.05818e-06
5.11055e-06
5.16259e-06
5.21407e-06
5.26475e-06
5.31435e-06
5.36256e-06
5.40907e-06
5.45352e-06
5.49555e-06
5.53475e-06
5.57073e-06
5.60303e-06
5.63121e-06
5.65478e-06
5.67323e-06
5.68605e-06
5.69272e-06
5.69269e-06
5.68545e-06
5.67045e-06
5.64718e-06
5.61514e-06
5.57397e-06
5.52446e-06
5.46635e-06
5.39827e-06
5.31977e-06
5.23061e-06
5.13069e-06
5.01998e-06
4.89854e-06
4.76654e-06
4.62423e-06
4.47197e-06
4.31022e-06
4.13953e-06
3.96057e-06
3.77409e-06
3.58092e-06
3.38195e-06
3.17813e-06
2.97048e-06
2.76e-06
2.54772e-06
2.3346e-06
2.1215e-06
1.90855e-06
1.69613e-06
1.48656e-06
1.27732e-06
1.06799e-06
8.57125e-07
6.47872e-07
4.29639e-07
2.06987e-07
4.02375e-08
1.86048e-07
8.58584e-06
1.85726e-05
2.56794e-05
3.1232e-05
3.58741e-05
3.99063e-05
4.347e-05
4.66487e-05
4.95399e-05
5.21965e-05
5.46526e-05
5.69343e-05
5.90616e-05
6.10502e-05
6.29135e-05
6.46625e-05
6.6306e-05
6.78514e-05
6.93003e-05
7.06461e-05
7.19079e-05
7.30955e-05
7.42161e-05
7.52752e-05
7.62774e-05
7.7227e-05
7.81275e-05
7.8982e-05
7.97931e-05
8.0563e-05
8.12939e-05
8.19875e-05
8.26455e-05
8.32691e-05
8.38594e-05
8.44172e-05
8.49431e-05
8.54377e-05
8.59011e-05
8.63337e-05
8.67354e-05
8.71064e-05
8.74464e-05
8.77555e-05
8.80334e-05
8.828e-05
8.8495e-05
8.86783e-05
8.88297e-05
8.8949e-05
8.90362e-05
8.90913e-05
8.91142e-05
8.9105e-05
8.9064e-05
8.89913e-05
8.88872e-05
8.8752e-05
8.85858e-05
8.83885e-05
8.81585e-05
8.78909e-05
8.75902e-05
8.72619e-05
8.69086e-05
8.65319e-05
8.61333e-05
8.57142e-05
8.52761e-05
8.48205e-05
8.43488e-05
8.38626e-05
8.33636e-05
8.28534e-05
8.23337e-05
8.18061e-05
8.12724e-05
8.07343e-05
8.01935e-05
7.96518e-05
7.91108e-05
7.85722e-05
7.80376e-05
7.75088e-05
7.69872e-05
7.64744e-05
7.59719e-05
7.5481e-05
7.50033e-05
7.45398e-05
7.40918e-05
7.36604e-05
7.32467e-05
7.28516e-05
7.24761e-05
7.21209e-05
7.17868e-05
7.14744e-05
7.11841e-05
7.09164e-05
7.06716e-05
7.04499e-05
7.02513e-05
7.0076e-05
6.99239e-05
6.97948e-05
6.96885e-05
6.96047e-05
6.95431e-05
6.95033e-05
6.94847e-05
6.9487e-05
6.95095e-05
6.95517e-05
6.96131e-05
6.9693e-05
6.97907e-05
6.99056e-05
7.00371e-05
7.01843e-05
7.03466e-05
7.05234e-05
7.0714e-05
7.09177e-05
7.11339e-05
7.13618e-05
7.16006e-05
7.18496e-05
7.21084e-05
7.23762e-05
7.26525e-05
7.29362e-05
7.32268e-05
7.35236e-05
7.38258e-05
7.41324e-05
7.44427e-05
7.47557e-05
7.50705e-05
7.53861e-05
7.57016e-05
7.60156e-05
7.63269e-05
7.66342e-05
7.69362e-05
7.72312e-05
7.75177e-05
7.77938e-05
7.80577e-05
7.83072e-05
7.85403e-05
7.87548e-05
7.89484e-05
7.91185e-05
7.92626e-05
7.93779e-05
7.94617e-05
7.9511e-05
7.95227e-05
7.94937e-05
7.9421e-05
7.93014e-05
7.91317e-05
7.89084e-05
7.86279e-05
7.8285e-05
7.78699e-05
7.73773e-05
7.68087e-05
7.61637e-05
7.5441e-05
7.46387e-05
7.37552e-05
7.2789e-05
7.17386e-05
7.06031e-05
6.93816e-05
6.80736e-05
6.66786e-05
6.51964e-05
6.36272e-05
6.19708e-05
6.02273e-05
5.83964e-05
5.64776e-05
5.44696e-05
5.237e-05
5.01749e-05
4.78782e-05
4.54715e-05
4.29343e-05
4.02177e-05
3.72497e-05
3.39077e-05
2.99103e-05
2.4725e-05
1.7887e-05
8.1714e-06
1.81809e-07
1.86055e-07
8.58683e-06
1.85744e-05
2.56814e-05
3.12341e-05
3.58762e-05
3.99083e-05
4.34717e-05
4.66502e-05
4.95415e-05
5.21983e-05
5.46546e-05
5.69368e-05
5.90646e-05
6.10537e-05
6.29173e-05
6.46665e-05
6.63101e-05
6.7855e-05
6.93019e-05
7.06476e-05
7.19092e-05
7.30968e-05
7.42174e-05
7.52765e-05
7.62787e-05
7.72283e-05
7.81289e-05
7.89835e-05
7.97947e-05
8.05648e-05
8.1296e-05
8.19899e-05
8.26482e-05
8.3272e-05
8.38625e-05
8.44205e-05
8.49467e-05
8.54415e-05
8.59051e-05
8.63379e-05
8.67398e-05
8.71108e-05
8.74509e-05
8.776e-05
8.80378e-05
8.82844e-05
8.84994e-05
8.86827e-05
8.88341e-05
8.89535e-05
8.90408e-05
8.90959e-05
8.91188e-05
8.91097e-05
8.90686e-05
8.89959e-05
8.88917e-05
8.87565e-05
8.85903e-05
8.83929e-05
8.8163e-05
8.78955e-05
8.75949e-05
8.72665e-05
8.69131e-05
8.65364e-05
8.61376e-05
8.57184e-05
8.52802e-05
8.48244e-05
8.43526e-05
8.38664e-05
8.33674e-05
8.28572e-05
8.23374e-05
8.18098e-05
8.12761e-05
8.07379e-05
8.01971e-05
7.96553e-05
7.91142e-05
7.85756e-05
7.8041e-05
7.75121e-05
7.69905e-05
7.64777e-05
7.59751e-05
7.54842e-05
7.50063e-05
7.45427e-05
7.40946e-05
7.36631e-05
7.32493e-05
7.28541e-05
7.24784e-05
7.21231e-05
7.17889e-05
7.14763e-05
7.11859e-05
7.0918e-05
7.06729e-05
7.04508e-05
7.0252e-05
7.00765e-05
6.99242e-05
6.97948e-05
6.96883e-05
6.96043e-05
6.95425e-05
6.95024e-05
6.94837e-05
6.94859e-05
6.95085e-05
6.95509e-05
6.96125e-05
6.96926e-05
6.97905e-05
6.99055e-05
7.00371e-05
7.01844e-05
7.03467e-05
7.05235e-05
7.07141e-05
7.09179e-05
7.11341e-05
7.1362e-05
7.16009e-05
7.185e-05
7.21088e-05
7.23765e-05
7.26525e-05
7.2936e-05
7.32265e-05
7.35232e-05
7.38252e-05
7.41318e-05
7.4442e-05
7.4755e-05
7.50698e-05
7.53855e-05
7.57009e-05
7.60148e-05
7.6326e-05
7.66332e-05
7.69351e-05
7.723e-05
7.75165e-05
7.77926e-05
7.80565e-05
7.83061e-05
7.85393e-05
7.87539e-05
7.89474e-05
7.91175e-05
7.92616e-05
7.93769e-05
7.94605e-05
7.95097e-05
7.95213e-05
7.94924e-05
7.94199e-05
7.93005e-05
7.91309e-05
7.89077e-05
7.86272e-05
7.82843e-05
7.78692e-05
7.73765e-05
7.68079e-05
7.61629e-05
7.54401e-05
7.46379e-05
7.37544e-05
7.27882e-05
7.17379e-05
7.06024e-05
6.9381e-05
6.80729e-05
6.66779e-05
6.51958e-05
6.36266e-05
6.19702e-05
6.02268e-05
5.8396e-05
5.64772e-05
5.44693e-05
5.23698e-05
5.01748e-05
4.78781e-05
4.54715e-05
4.29341e-05
4.02174e-05
3.72494e-05
3.39074e-05
2.99103e-05
2.47251e-05
1.78869e-05
8.17143e-06
1.81809e-07
4.06265e-07
1.82241e-05
4.26403e-05
6.11871e-05
7.56418e-05
8.75012e-05
9.75911e-05
0.00010635
0.000114097
0.000121048
0.000127353
0.000133112
0.000138403
0.000143288
0.000147814
0.000152017
0.000155931
0.00015958
0.000162983
0.000166155
0.000169101
0.000171849
0.000174419
0.000176829
0.000179092
0.000181221
0.000183226
0.000185118
0.000186903
0.000188588
0.000190179
0.00019168
0.000193096
0.00019443
0.000195685
0.000196865
0.000197972
0.000199007
0.000199972
0.000200869
0.000201698
0.000202461
0.000203159
0.000203791
0.00020436
0.000204864
0.000205306
0.000205685
0.000206001
0.000206256
0.00020645
0.000206582
0.000206654
0.000206667
0.000206619
0.000206514
0.00020635
0.000206128
0.00020585
0.000205515
0.000205123
0.000204671
0.000204157
0.000203585
0.00020296
0.000202289
0.000201574
0.000200818
0.000200024
0.000199195
0.000198333
0.00019744
0.00019652
0.000195576
0.000194609
0.000193623
0.000192621
0.000191606
0.00019058
0.000189548
0.000188511
0.000187473
0.000186437
0.000185406
0.000184383
0.00018337
0.00018237
0.000181387
0.000180422
0.000179478
0.000178558
0.000177663
0.000176796
0.000175958
0.000175152
0.000174379
0.00017364
0.000172938
0.000172272
0.000171644
0.000171054
0.000170504
0.000169993
0.000169522
0.000169091
0.000168699
0.000168347
0.000168034
0.000167758
0.000167521
0.00016732
0.000167156
0.000167027
0.000166932
0.000166871
0.000166842
0.000166845
0.000166878
0.00016694
0.00016703
0.000167146
0.000167289
0.000167456
0.000167646
0.000167859
0.000168092
0.000168346
0.000168619
0.000168909
0.000169215
0.000169538
0.000169874
0.000170223
0.000170584
0.000170955
0.000171335
0.000171722
0.000172115
0.000172512
0.000172912
0.000173312
0.000173711
0.000174105
0.000174494
0.000174873
0.000175242
0.000175596
0.000175933
0.000176249
0.000176541
0.000176805
0.000177038
0.000177234
0.000177391
0.000177502
0.000177565
0.000177574
0.000177524
0.000177409
0.000177226
0.000176968
0.00017663
0.000176206
0.000175692
0.00017508
0.000174365
0.000173538
0.000172589
0.000171506
0.00017029
0.000168937
0.000167446
0.000165815
0.000164038
0.000162114
0.000160038
0.000157808
0.000155421
0.000152872
0.000150158
0.000147275
0.000144219
0.000140984
0.000137563
0.000133949
0.000130131
0.000126096
0.000121827
0.000117297
0.000112473
0.000107303
0.000101705
9.55426e-05
8.85978e-05
8.04856e-05
7.05427e-05
5.76743e-05
4.03858e-05
1.7214e-05
3.93677e-07
4.06278e-07
1.82259e-05
4.26446e-05
6.11927e-05
7.5648e-05
8.75075e-05
9.75974e-05
0.000106356
0.000114103
0.000121054
0.000127359
0.000133118
0.000138409
0.000143294
0.00014782
0.000152024
0.000155937
0.000159586
0.000162989
0.00016616
0.000169106
0.000171853
0.000174423
0.000176833
0.000179096
0.000181225
0.000183231
0.000185122
0.000186908
0.000188593
0.000190184
0.000191685
0.000193101
0.000194436
0.000195692
0.000196872
0.000197979
0.000199014
0.00019998
0.000200877
0.000201706
0.00020247
0.000203167
0.0002038
0.000204368
0.000204873
0.000205315
0.000205694
0.00020601
0.000206265
0.000206459
0.000206591
0.000206663
0.000206676
0.000206629
0.000206523
0.000206359
0.000206138
0.000205859
0.000205524
0.000205131
0.00020468
0.000204166
0.000203593
0.000202969
0.000202297
0.000201582
0.000200826
0.000200032
0.000199203
0.000198341
0.000197448
0.000196528
0.000195583
0.000194616
0.00019363
0.000192628
0.000191612
0.000190587
0.000189554
0.000188517
0.000187479
0.000186443
0.000185411
0.000184388
0.000183375
0.000182375
0.000181391
0.000180426
0.000179482
0.000178561
0.000177666
0.000176799
0.000175961
0.000175155
0.000174381
0.000173643
0.00017294
0.000172273
0.000171645
0.000171055
0.000170505
0.000169994
0.000169522
0.000169091
0.000168699
0.000168347
0.000168033
0.000167758
0.00016752
0.000167319
0.000167155
0.000167026
0.000166931
0.00016687
0.000166841
0.000166844
0.000166876
0.000166938
0.000167028
0.000167145
0.000167287
0.000167454
0.000167644
0.000167857
0.00016809
0.000168344
0.000168616
0.000168907
0.000169213
0.000169535
0.000169871
0.00017022
0.000170581
0.000170952
0.000171332
0.000171719
0.000172112
0.00017251
0.000172909
0.000173309
0.000173708
0.000174102
0.000174491
0.000174871
0.000175239
0.000175593
0.00017593
0.000176246
0.000176538
0.000176802
0.000177035
0.000177231
0.000177388
0.0001775
0.000177562
0.000177571
0.000177521
0.000177406
0.000177223
0.000176965
0.000176627
0.000176203
0.000175689
0.000175078
0.000174363
0.000173536
0.000172586
0.000171504
0.000170287
0.000168935
0.000167444
0.000165812
0.000164036
0.000162112
0.000160036
0.000157807
0.000155419
0.00015287
0.000150156
0.000147274
0.000144218
0.000140983
0.000137562
0.000133948
0.00013013
0.000126096
0.000121826
0.000117296
0.000112472
0.000107303
0.000101704
9.55418e-05
8.85972e-05
8.04851e-05
7.05424e-05
5.76742e-05
4.03857e-05
1.72141e-05
3.93677e-07
6.34047e-07
2.50758e-05
6.0639e-05
8.97131e-05
0.000113137
0.000132591
0.000149177
0.000163607
0.000176362
0.000187779
0.000198096
0.000207489
0.000216089
0.000223999
0.000231301
0.000238061
0.000244334
0.000250165
0.00025559
0.000260641
0.000265339
0.000269718
0.000273808
0.000277636
0.000281223
0.000284589
0.000287751
0.000290725
0.000293523
0.000296156
0.000298633
0.000300961
0.000303149
0.000305201
0.000307124
0.000308922
0.000310598
0.000312157
0.000313601
0.000314932
0.000316155
0.00031727
0.00031828
0.000319187
0.000319993
0.000320698
0.000321306
0.000321818
0.000322234
0.000322558
0.00032279
0.000322931
0.000322984
0.00032295
0.000322829
0.000322625
0.000322337
0.000321967
0.000321517
0.000320987
0.000320378
0.000319688
0.000318918
0.000318071
0.000317152
0.000316168
0.000315123
0.000314021
0.000312866
0.000311662
0.000310411
0.000309118
0.000307787
0.000306422
0.000305025
0.000303601
0.000302155
0.000300689
0.000299209
0.000297717
0.000296219
0.000294718
0.000293219
0.000291724
0.000290239
0.000288766
0.00028731
0.000285874
0.000284462
0.000283076
0.00028172
0.000280396
0.000279108
0.000277858
0.000276648
0.00027548
0.000274356
0.000273278
0.000272246
0.000271263
0.000270329
0.000269444
0.000268609
0.000267825
0.00026709
0.000266405
0.000265769
0.000265182
0.000264642
0.00026415
0.000263703
0.000263302
0.000262944
0.00026263
0.000262357
0.000262125
0.000261932
0.000261776
0.000261657
0.000261573
0.000261524
0.000261506
0.00026152
0.000261564
0.000261637
0.000261737
0.000261863
0.000262014
0.000262188
0.000262384
0.0002626
0.000262836
0.000263089
0.000263358
0.000263641
0.000263936
0.000264241
0.000264555
0.000264875
0.000265198
0.000265522
0.000265844
0.000266161
0.000266469
0.000266766
0.000267047
0.000267309
0.000267546
0.000267755
0.000267931
0.000268068
0.000268162
0.000268206
0.000268195
0.000268122
0.000267983
0.000267769
0.000267474
0.000267093
0.000266617
0.00026604
0.000265355
0.000264555
0.000263631
0.000262577
0.000261385
0.000260044
0.000258544
0.000256874
0.000255029
0.000253005
0.000250797
0.000248401
0.000245812
0.000243023
0.00024003
0.000236825
0.000233402
0.000229754
0.000225871
0.000221745
0.000217362
0.000212711
0.000207775
0.000202533
0.000196963
0.000191032
0.0001847
0.000177915
0.000170603
0.000162658
0.000153923
0.000144163
0.000133012
0.000119896
0.000103917
8.37075e-05
5.7337e-05
2.3995e-05
6.22996e-07
6.34067e-07
2.50779e-05
6.06444e-05
8.97208e-05
0.000113146
0.0001326
0.000149187
0.000163617
0.000176372
0.000187789
0.000198106
0.000207499
0.000216099
0.000224009
0.000231311
0.000238071
0.000244344
0.000250174
0.0002556
0.00026065
0.000265348
0.000269727
0.000273817
0.000277645
0.000281232
0.000284598
0.00028776
0.000290734
0.000293532
0.000296165
0.000298642
0.000300971
0.000303159
0.000305212
0.000307135
0.000308932
0.000310609
0.000312168
0.000313612
0.000314944
0.000316167
0.000317282
0.000318292
0.000319199
0.000320005
0.000320711
0.000321319
0.00032183
0.000322247
0.000322571
0.000322802
0.000322944
0.000322997
0.000322962
0.000322842
0.000322637
0.000322349
0.00032198
0.000321529
0.000320999
0.00032039
0.0003197
0.00031893
0.000318082
0.000317163
0.000316179
0.000315134
0.000314032
0.000312876
0.000311671
0.000310421
0.000309128
0.000307797
0.00030643
0.000305034
0.00030361
0.000302163
0.000300697
0.000299216
0.000297725
0.000296226
0.000294725
0.000293225
0.00029173
0.000290244
0.000288771
0.000287315
0.000285879
0.000284466
0.00028308
0.000281723
0.0002804
0.000279111
0.000277861
0.00027665
0.000275482
0.000274358
0.000273279
0.000272247
0.000271264
0.000270329
0.000269444
0.000268609
0.000267825
0.00026709
0.000266405
0.000265768
0.000265181
0.000264641
0.000264148
0.000263702
0.0002633
0.000262942
0.000262628
0.000262355
0.000262122
0.000261929
0.000261773
0.000261654
0.00026157
0.00026152
0.000261503
0.000261517
0.000261561
0.000261633
0.000261733
0.000261859
0.00026201
0.000262184
0.000262379
0.000262596
0.000262831
0.000263084
0.000263353
0.000263636
0.000263931
0.000264237
0.00026455
0.00026487
0.000265193
0.000265517
0.000265839
0.000266156
0.000266465
0.000266761
0.000267042
0.000267304
0.000267541
0.000267751
0.000267926
0.000268063
0.000268157
0.000268201
0.00026819
0.000268118
0.000267978
0.000267764
0.00026747
0.000267088
0.000266612
0.000266036
0.000265351
0.00026455
0.000263627
0.000262573
0.000261381
0.00026004
0.00025854
0.00025687
0.000255026
0.000253002
0.000250794
0.000248398
0.000245809
0.00024302
0.000240027
0.000236823
0.0002334
0.000229752
0.000225869
0.000221743
0.000217361
0.00021271
0.000207774
0.000202532
0.000196962
0.000191031
0.0001847
0.000177915
0.000170602
0.000162657
0.000153923
0.000144163
0.000133012
0.000119896
0.000103917
8.37076e-05
5.73371e-05
2.39952e-05
6.22996e-07
8.60724e-07
3.04245e-05
7.45027e-05
0.000112329
0.000143724
0.000170224
0.000193014
0.000212949
0.000230624
0.000246465
0.000260783
0.000273811
0.000285731
0.000296683
0.000306783
0.000316122
0.000324779
0.000332818
0.000340294
0.000347254
0.000353733
0.000359776
0.00036542
0.000370699
0.000375643
0.000380278
0.000384627
0.00038871
0.000392545
0.000396148
0.000399531
0.000402705
0.000405679
0.000408462
0.000411062
0.000413485
0.000415737
0.000417823
0.000419747
0.000421514
0.000423128
0.000424591
0.000425909
0.000427083
0.000428117
0.000429014
0.000429778
0.00043041
0.000430914
0.000431292
0.000431548
0.000431684
0.000431703
0.000431606
0.000431398
0.00043108
0.000430654
0.000430123
0.000429489
0.000428754
0.000427919
0.000426985
0.000425955
0.00042483
0.000423619
0.000422325
0.000420955
0.000419514
0.000418007
0.000416437
0.000414811
0.000413132
0.000411406
0.000409637
0.000407829
0.000405988
0.000404119
0.000402227
0.000400316
0.000398392
0.000396459
0.000394523
0.000392588
0.00039066
0.000388742
0.000386839
0.000384956
0.000383097
0.000381266
0.000379467
0.000377703
0.000375977
0.000374293
0.000372654
0.000371062
0.000369519
0.000368027
0.000366589
0.000365205
0.000363876
0.000362604
0.000361388
0.00036023
0.000359128
0.000358083
0.000357094
0.00035616
0.000355281
0.000354455
0.000353682
0.00035296
0.000352288
0.000351665
0.00035109
0.000350561
0.000350077
0.000349637
0.000349239
0.000348881
0.000348563
0.000348283
0.00034804
0.000347832
0.000347658
0.000347517
0.000347408
0.000347329
0.000347278
0.000347255
0.000347258
0.000347285
0.000347335
0.000347407
0.000347498
0.000347606
0.000347729
0.000347866
0.000348013
0.000348167
0.000348327
0.000348488
0.000348648
0.000348802
0.000348946
0.000349077
0.00034919
0.000349279
0.000349339
0.000349365
0.000349352
0.000349292
0.000349179
0.000349006
0.000348768
0.000348455
0.000348061
0.000347578
0.000346999
0.000346314
0.000345517
0.000344599
0.000343551
0.000342365
0.000341032
0.000339544
0.000337891
0.000336063
0.000334049
0.000331838
0.000329422
0.000326795
0.000323949
0.000320879
0.000317576
0.000314032
0.000310239
0.000306187
0.000301864
0.000297257
0.000292353
0.000287135
0.000281583
0.000275675
0.000269383
0.000262674
0.000255509
0.000247838
0.000239597
0.000230702
0.000221043
0.000210462
0.000198738
0.000185547
0.000170414
0.00015263
0.000131151
0.000104483
7.07272e-05
2.9602e-05
8.62649e-07
8.60746e-07
3.04266e-05
7.45086e-05
0.000112338
0.000143735
0.000170236
0.000193027
0.000212962
0.000230637
0.000246478
0.000260796
0.000273825
0.000285745
0.000296697
0.000306796
0.000316136
0.000324793
0.000332832
0.000340308
0.000347268
0.000353747
0.00035979
0.000365434
0.000370713
0.000375657
0.000380292
0.000384641
0.000388724
0.000392559
0.000396163
0.000399546
0.000402719
0.000405694
0.000408477
0.000411077
0.0004135
0.000415752
0.000417838
0.000419763
0.00042153
0.000423143
0.000424607
0.000425925
0.000427099
0.000428133
0.00042903
0.000429794
0.000430426
0.00043093
0.000431308
0.000431564
0.0004317
0.000431718
0.000431622
0.000431413
0.000431095
0.000430669
0.000430138
0.000429504
0.000428768
0.000427933
0.000426999
0.000425968
0.000424844
0.000423632
0.000422338
0.000420968
0.000419527
0.000418019
0.000416449
0.000414823
0.000413144
0.000411417
0.000409647
0.000407839
0.000405998
0.000404129
0.000402236
0.000400325
0.000398401
0.000396468
0.000394531
0.000392596
0.000390667
0.000388748
0.000386845
0.000384962
0.000383103
0.000381271
0.000379472
0.000377707
0.000375981
0.000374297
0.000372657
0.000371065
0.000369522
0.00036803
0.000366591
0.000365206
0.000363877
0.000362604
0.000361389
0.00036023
0.000359128
0.000358083
0.000357093
0.000356159
0.000355279
0.000354453
0.00035368
0.000352958
0.000352286
0.000351663
0.000351087
0.000350558
0.000350074
0.000349634
0.000349235
0.000348877
0.000348559
0.000348279
0.000348036
0.000347828
0.000347654
0.000347513
0.000347403
0.000347324
0.000347273
0.00034725
0.000347253
0.00034728
0.00034733
0.000347402
0.000347492
0.0003476
0.000347724
0.00034786
0.000348007
0.000348162
0.000348321
0.000348482
0.000348642
0.000348796
0.000348941
0.000349071
0.000349184
0.000349273
0.000349333
0.000349359
0.000349346
0.000349286
0.000349173
0.000349001
0.000348762
0.000348449
0.000348055
0.000347573
0.000346993
0.000346309
0.000345512
0.000344593
0.000343545
0.00034236
0.000341027
0.000339539
0.000337886
0.000336058
0.000334045
0.000331834
0.000329418
0.000326791
0.000323946
0.000320876
0.000317573
0.000314029
0.000310237
0.000306184
0.000301861
0.000297255
0.000292351
0.000287134
0.000281582
0.000275674
0.000269382
0.000262673
0.000255509
0.000247837
0.000239596
0.000230702
0.000221043
0.000210462
0.000198738
0.000185548
0.000170414
0.00015263
0.000131151
0.000104483
7.07276e-05
2.96024e-05
8.62656e-07
1.08896e-06
3.49321e-05
8.58293e-05
0.000130907
0.000169175
0.000201938
0.000230386
0.000255421
0.000277702
0.000297718
0.000315834
0.000332332
0.000347431
0.000361307
0.000374102
0.000385933
0.000396898
0.000407081
0.000416552
0.000425373
0.000433591
0.00044126
0.000448425
0.000455127
0.000461404
0.000467287
0.000472804
0.000477981
0.00048284
0.000487398
0.000491674
0.00049568
0.000499429
0.000502932
0.000506199
0.000509237
0.000512055
0.000514659
0.000517055
0.00051925
0.000521247
0.000523052
0.00052467
0.000526105
0.000527362
0.000528445
0.000529358
0.000530105
0.000530691
0.000531119
0.000531394
0.000531519
0.000531498
0.000531335
0.000531034
0.000530597
0.00053003
0.000529334
0.000528513
0.00052757
0.000526508
0.000525331
0.00052404
0.00052264
0.000521138
0.000519539
0.00051785
0.000516076
0.000514225
0.0005123
0.000510308
0.000508255
0.000506147
0.000503989
0.000501786
0.000499546
0.000497273
0.000494973
0.000492653
0.000490319
0.000487975
0.000485628
0.000483284
0.000480948
0.000478625
0.000476321
0.00047404
0.000471788
0.000469569
0.000467387
0.000465246
0.00046315
0.000461103
0.000459106
0.000457163
0.000455276
0.000453447
0.000451678
0.000449971
0.000448325
0.000446742
0.000445222
0.000443764
0.000442368
0.000441033
0.00043976
0.000438546
0.00043739
0.000436292
0.000435249
0.000434261
0.000433326
0.000432443
0.000431609
0.000430824
0.000430086
0.000429393
0.000428744
0.000428138
0.000427573
0.000427048
0.000426561
0.000426111
0.000425698
0.000425319
0.000424974
0.000424661
0.00042438
0.000424128
0.000423904
0.000423707
0.000423536
0.000423388
0.000423261
0.000423155
0.000423066
0.000422991
0.000422929
0.000422876
0.000422829
0.000422785
0.000422738
0.000422687
0.000422625
0.000422548
0.00042245
0.000422326
0.000422171
0.000421977
0.000421738
0.000421447
0.000421097
0.000420679
0.000420187
0.000419611
0.000418944
0.000418176
0.0004173
0.000416306
0.000415185
0.000413928
0.000412525
0.000410968
0.000409247
0.000407351
0.000405272
0.000402997
0.000400517
0.000397819
0.000394894
0.000391732
0.000388326
0.000384666
0.000380741
0.000376542
0.000372054
0.000367266
0.000362159
0.000356718
0.00035092
0.000344742
0.000338156
0.00033113
0.000323624
0.000315593
0.000306982
0.000297722
0.000287727
0.000276887
0.000265053
0.000252028
0.000237535
0.000221182
0.00020241
0.000180416
0.00015406
0.000121782
8.17589e-05
3.41997e-05
1.11396e-06
1.08898e-06
3.49342e-05
8.58352e-05
0.000130916
0.000169187
0.000201952
0.000230401
0.000255436
0.000277718
0.000297734
0.000315851
0.000332349
0.000347448
0.000361324
0.000374119
0.000385951
0.000396916
0.000407099
0.000416571
0.000425391
0.00043361
0.000441278
0.000448443
0.000455146
0.000461423
0.000467306
0.000472823
0.000478
0.000482859
0.000487418
0.000491693
0.0004957
0.000499449
0.000502952
0.000506218
0.000509257
0.000512075
0.000514679
0.000517075
0.000519269
0.000521267
0.000523072
0.00052469
0.000526125
0.000527382
0.000528465
0.000529378
0.000530125
0.000530711
0.000531139
0.000531413
0.000531538
0.000531517
0.000531354
0.000531052
0.000530616
0.000530048
0.000529352
0.00052853
0.000527588
0.000526526
0.000525348
0.000524057
0.000522657
0.000521154
0.000519555
0.000517865
0.000516091
0.000514239
0.000512314
0.000510322
0.000508269
0.00050616
0.000504001
0.000501799
0.000499558
0.000497284
0.000494984
0.000492664
0.000490329
0.000487985
0.000485638
0.000483293
0.000480957
0.000478633
0.000476329
0.000474048
0.000471795
0.000469576
0.000467394
0.000465252
0.000463156
0.000461108
0.000459111
0.000457167
0.00045528
0.000453451
0.000451682
0.000449973
0.000448327
0.000446744
0.000445223
0.000443765
0.000442369
0.000441034
0.00043976
0.000438545
0.00043739
0.000436291
0.000435248
0.00043426
0.000433325
0.000432441
0.000431607
0.000430822
0.000430083
0.00042939
0.000428741
0.000428135
0.000427569
0.000427044
0.000426557
0.000426107
0.000425694
0.000425315
0.00042497
0.000424657
0.000424375
0.000424123
0.000423899
0.000423702
0.00042353
0.000423382
0.000423256
0.000423149
0.00042306
0.000422986
0.000422923
0.00042287
0.000422823
0.000422779
0.000422732
0.000422681
0.000422619
0.000422541
0.000422444
0.00042232
0.000422165
0.000421971
0.000421732
0.000421441
0.00042109
0.000420673
0.00042018
0.000419605
0.000418938
0.00041817
0.000417294
0.0004163
0.000415179
0.000413922
0.00041252
0.000410963
0.000409242
0.000407346
0.000405267
0.000402993
0.000400513
0.000397815
0.00039489
0.000391728
0.000388322
0.000384662
0.000380738
0.000376539
0.000372052
0.000367263
0.000362157
0.000356716
0.000350919
0.000344741
0.000338155
0.000331129
0.000323624
0.000315593
0.000306982
0.000297722
0.000287728
0.000276887
0.000265054
0.000252029
0.000237536
0.000221183
0.000202411
0.000180417
0.000154061
0.000121782
8.17595e-05
3.42003e-05
1.11397e-06
1.32334e-06
3.89338e-05
9.55153e-05
0.000146713
0.000190923
0.000229216
0.000262736
0.000292393
0.000318887
0.000342745
0.000364376
0.000384097
0.000402161
0.000418772
0.000434095
0.000448269
0.000461411
0.000473619
0.000484978
0.000495562
0.000505432
0.000514646
0.00052326
0.000531321
0.00053887
0.000545947
0.000552583
0.000558808
0.000564648
0.000570124
0.000575257
0.000580062
0.000584555
0.000588748
0.000592655
0.000596284
0.000599645
0.000602746
0.000605595
0.000608198
0.000610563
0.000612695
0.000614601
0.000616285
0.000617754
0.000619013
0.000620068
0.000620923
0.000621584
0.000622057
0.000622346
0.000622456
0.000622392
0.00062216
0.000621763
0.000621207
0.000620496
0.000619635
0.000618629
0.00061748
0.000616194
0.000614775
0.000613227
0.000611556
0.000609767