/*--------------------------------*- C++ -*----------------------------------*\
  =========                 |
  \\      /  F ield         | OpenFOAM: The Open Source CFD Toolbox
   \\    /   O peration     | Website:  https://openfoam.org
    \\  /    A nd           | Version:  8
     \\/     M anipulation  |
\*---------------------------------------------------------------------------*/
FoamFile
{
    version     2.0;
    format      ascii;
    class       volScalarField;
    location    "1700";
    object      epsilon;
}
// * * * * * * * * * * * * * * * * * * * * * * * * * * * * * * * * * * * * * //

dimensions      [0 2 -3 0 0 0 0];

internalField   nonuniform List<scalar> 
46000
(
0.704421
3.2917
7.06954
10.9658
14.8101
18.5902
22.3103
25.9834
29.5966
33.1297
36.5795
39.9429
43.2185
46.4028
49.4938
52.4918
55.3971
58.2105
60.9306
63.5634
66.1447
68.645
71.0633
73.3997
75.6569
77.8371
79.9418
81.9709
83.9257
85.8069
87.6151
89.3509
91.0147
92.6067
94.1268
95.5746
96.9498
98.2515
99.479
100.631
101.707
102.705
103.624
104.462
105.219
105.892
106.481
106.985
107.402
107.733
107.976
108.131
108.199
108.18
108.075
107.884
107.609
107.251
106.813
106.297
105.705
105.043
104.324
103.557
102.728
101.839
100.896
99.9022
98.8621
97.7804
96.662
95.5118
94.3344
93.1344
91.9167
90.6863
89.4476
88.2052
86.9635
85.7269
84.4995
83.285
82.0874
80.9101
79.7566
78.6298
77.533
76.4688
75.4397
74.4479
73.4957
72.5851
71.7177
70.8949
70.118
69.388
68.7057
68.0719
67.4872
66.9519
66.4663
66.0306
65.6446
65.3083
65.0212
64.7827
64.5924
64.45
64.3544
64.3047
64.3
64.3395
64.4226
64.5479
64.7146
64.9217
65.1682
65.4531
65.7752
66.1333
66.5267
66.9543
67.4151
67.9075
68.4305
68.9831
69.5647
70.1743
70.8106
71.4721
72.1575
72.8658
73.5962
74.3472
75.1174
75.9054
76.7097
77.5289
78.3612
79.2043
80.056
80.9139
81.7758
82.639
83.5003
84.3562
85.2027
86.036
86.852
87.6459
88.4125
89.1461
89.8406
90.4894
91.0859
91.6226
92.0921
92.4866
92.798
93.0181
93.138
93.1489
93.042
92.8088
92.441
91.9307
91.2714
90.4744
89.5382
88.4394
87.17
85.7263
84.1064
82.3096
80.337
78.1911
75.8758
73.3969
70.7617
67.9793
65.0602
62.0162
58.8606
55.6079
52.274
48.8751
45.4279
41.9489
38.454
34.9569
31.4591
27.969
24.5225
21.0791
17.6319
14.1574
10.707
7.10592
3.42728
0.740486
0.704437
3.29193
7.07003
10.9665
14.811
18.5911
22.3114
25.9847
29.5981
33.1312
36.5808
39.9437
43.2185
46.4017
49.4917
52.4886
55.393
58.2055
60.9251
63.5621
66.143
68.6427
71.06
73.3954
75.6518
77.8315
79.9361
81.9653
83.9203
85.8016
87.6099
89.3458
91.01
92.6026
94.1236
95.5726
96.9488
98.2514
99.4795
100.632
101.708
102.706
103.625
104.463
105.22
105.894
106.483
106.987
107.404
107.734
107.977
108.132
108.2
108.181
108.075
107.884
107.609
107.252
106.815
106.299
105.707
105.044
104.326
103.558
102.729
101.841
100.898
99.904
98.8641
97.7826
96.6644
95.5141
94.3365
93.1363
91.9184
90.6876
89.4485
88.2057
86.9639
85.7271
84.4992
83.2844
82.0864
80.9087
79.7547
78.6276
77.5305
76.466
75.4367
74.4449
73.4928
72.5823
71.715
70.8922
70.1154
69.3855
68.7033
68.0696
67.4851
66.9501
66.465
66.0298
65.6445
65.3088
65.0223
64.7844
64.5949
64.4531
64.3582
64.3092
64.305
64.3447
64.4276
64.5526
64.7186
64.9248
65.1704
65.4543
65.7755
66.133
66.5257
66.9528
67.413
67.9051
68.4278
68.9802
69.5616
70.1708
70.8069
71.4684
72.1541
72.863
73.5938
74.345
75.1155
75.9039
76.7087
77.5282
78.3607
79.2038
80.0555
80.9137
81.776
82.6396
83.5012
84.3574
85.2042
86.0377
86.8538
87.6476
88.414
89.1474
89.8416
90.4902
91.0864
91.623
92.0927
92.4875
92.7993
93.0194
93.1391
93.1496
93.0422
92.8086
92.4406
91.9301
91.2705
90.4732
89.5373
88.4389
87.17
85.7266
84.1066
82.3096
80.3367
78.1903
75.8746
73.3955
70.7604
67.9784
65.0598
62.0163
58.8611
55.6088
52.2749
48.8758
45.428
41.9482
38.4526
34.9548
31.4567
27.9668
24.5208
21.078
17.6313
14.1569
10.7068
7.10595
3.42726
0.740484
3.64154
3.05201
4.30935
5.77007
7.25777
8.7405
10.2119
11.6729
13.1212
14.55
15.9565
17.3385
18.6951
20.024
21.3229
22.5919
23.8308
25.0393
26.2174
27.3679
28.4975
29.6002
30.6739
31.7177
32.7316
33.7159
34.6703
35.5932
36.4849
37.3452
38.1738
38.9706
39.7354
40.4679
41.1678
41.8346
42.468
43.0673
43.632
44.1615
44.6551
45.112
45.5316
45.9131
46.2558
46.5591
46.8223
47.045
47.2266
47.3668
47.4656
47.5227
47.5383
47.5126
47.446
47.3391
47.1927
47.0076
46.7851
46.5265
46.2336
45.9093
45.5583
45.1824
44.7795
44.3504
43.8967
43.4204
42.9237
42.4089
41.8781
41.3337
40.778
40.2133
39.6417
39.0657
38.4874
37.9089
37.3323
36.7595
36.1924
35.6329
35.0826
34.5431
34.0159
33.5025
33.0041
32.522
32.0573
31.6108
31.1836
30.7765
30.3902
30.0252
29.6821
29.3613
29.0632
28.788
28.5361
28.3075
28.1023
27.9205
27.7622
27.6272
27.5154
27.4264
27.3603
27.3167
27.2954
27.296
27.3181
27.3612
27.4251
27.5094
27.6135
27.7371
27.8797
28.041
28.2204
28.4175
28.6319
28.8631
29.1106
29.374
29.6527
29.9463
30.2545
30.5767
30.9124
31.2611
31.6222
31.9953
32.3799
32.7753
33.1809
33.5962
34.0204
34.4529
34.8928
35.3392
35.7911
36.2474
36.7071
37.1689
37.6314
38.0929
38.5517
39.0061
39.4539
39.893
40.3208
40.7349
41.1321
41.5096
41.8639
42.1916
42.4891
42.7525
42.9777
43.1605
43.2967
43.3819
43.4115
43.3813
43.2871
43.125
42.8925
42.5908
42.2178
41.7666
41.2328
40.6136
39.9074
39.1132
38.2312
37.2621
36.2077
35.0705
33.854
32.5623
31.2008
29.7751
28.2919
26.7584
25.1825
23.5721
21.9355
20.2811
18.6168
16.9498
15.2856
13.6305
11.9914
10.3634
8.76887
7.2167
5.73169
4.31405
3.11511
3.61912
3.64177
3.05195
4.30916
5.7698
7.25744
8.74012
10.2115
11.6725
13.1208
14.5496
15.956
17.3379
18.6944
20.023
21.3218
22.5907
23.8294
25.0378
26.216
27.367
28.4966
29.5994
30.673
31.7168
32.7306
33.7148
34.6691
35.592
36.4836
37.3438
38.1723
38.9689
39.7335
40.4659
41.1656
41.8323
42.4656
43.0648
43.6294
44.1588
44.6522
45.1091
45.5286
45.9101
46.2528
46.5561
46.8193
47.0419
47.2235
47.3638
47.4625
47.5195
47.5351
47.5093
47.4427
47.3358
47.1895
47.0045
46.782
46.5234
46.2306
45.9062
45.5552
45.1793
44.7764
44.3473
43.8936
43.4174
42.9208
42.406
41.8753
41.331
40.7753
40.2106
39.6391
39.0632
38.4849
37.9064
37.3299
36.7571
36.1901
35.6306
35.0804
34.541
34.0139
33.5005
33.0022
32.5201
32.0554
31.609
31.1819
30.7748
30.3885
30.0236
29.6806
29.3598
29.0618
28.7867
28.5348
28.3062
28.1011
27.9195
27.7613
27.6263
27.5146
27.4257
27.3596
27.3162
27.2949
27.2956
27.3177
27.3609
27.4249
27.5091
27.6132
27.7367
27.8793
28.0406
28.22
28.4171
28.6315
28.8627
29.1102
29.3736
29.6523
29.9459
30.2541
30.5762
30.9119
31.2606
31.6218
31.995
32.3796
32.775
33.1807
33.596
34.0203
34.4528
34.8927
35.3391
35.7909
36.2473
36.707
37.1689
37.6313
38.0929
38.5518
39.0061
39.454
39.8931
40.321
40.735
41.1322
41.5096
41.8639
42.1917
42.4892
42.7527
42.978
43.1609
43.2971
43.3822
43.4118
43.3816
43.2873
43.1252
42.8927
42.591
42.218
41.7669
41.2332
40.614
39.9078
39.1136
38.2316
37.2625
36.208
35.0707
33.8542
32.5626
31.201
29.7753
28.2921
26.7587
25.1828
23.5724
21.9358
20.2813
18.6169
16.9498
15.2855
13.6303
11.9913
10.3634
8.76886
7.21668
5.7317
4.31408
3.11512
3.61916
7.80264
4.47018
4.74777
5.51983
6.42453
7.37928
8.35577
9.34218
10.3306
11.3155
12.2933
13.2602
14.2146
15.1548
16.0791
16.9868
17.8772
18.7497
19.6043
20.4417
21.2636
22.0681
22.8538
23.6201
24.3662
25.0919
25.7969
26.4807
27.1423
27.7813
28.3973
28.99
29.5592
30.1045
30.6255
31.1219
31.5932
32.039
32.4588
32.8521
33.2184
33.557
33.8674
34.1491
34.4016
34.6242
34.8166
34.9783
35.109
35.2085
35.2765
35.3131
35.3183
35.2922
35.2353
35.1478
35.0305
34.8841
34.7095
34.5078
34.2804
34.0291
33.756
33.4625
33.1489
32.8158
32.4646
32.0967
31.7137
31.3173
30.9091
30.4911
30.0648
29.6321
29.1947
28.7544
28.3127
27.8713
27.4318
26.9957
26.5645
26.1394
25.7219
25.3132
24.9143
24.5263
24.1503
23.7872
23.4378
23.1028
22.783
22.4789
22.1911
21.9201
21.6662
21.4299
21.2113
21.0108
20.8284
20.6645
20.5189
20.3918
20.2831
20.1928
20.1209
20.0672
20.0316
20.0139
20.014
20.0315
20.0662
20.1179
20.1863
20.2711
20.372
20.4888
20.621
20.7684
20.9307
21.1076
21.2987
21.5036
21.7221
21.9538
22.1983
22.4553
22.7244
23.0054
23.2978
23.6012
23.9152
24.2395
24.5737
24.9172
25.2696
25.6305
25.9993
26.3754
26.7582
27.147
27.5411
27.9396
28.3416
28.7461
29.1521
29.5583
29.9633
30.3657
30.7638
31.1559
31.54
31.9141
32.2757
32.6225
32.9518
33.2607
33.5464
33.8056
34.035
34.2312
34.3907
34.5098
34.5849
34.6124
34.5888
34.511
34.3763
34.1834
33.9298
33.6119
33.2266
32.7716
32.2453
31.647
30.9765
30.2343
29.4217
28.5407
27.5941
26.5853
25.5185
24.3985
23.2307
22.021
20.7759
19.502
18.2062
16.8956
15.5773
14.2584
12.946
11.6477
10.3721
9.12825
7.93222
6.8035
5.78201
4.94965
4.64712
7.73138
7.80307
4.46998
4.74738
5.51934
6.42399
7.3787
8.35517
9.34156
10.33
11.3149
12.2926
13.2595
14.2139
15.1539
16.0783
16.9859
17.8762
18.7487
19.6033
20.4409
21.2627
22.0672
22.853
23.6192
24.3653
25.091
25.7959
26.4797
27.1412
27.7801
28.3961
28.9887
29.5578
30.103
30.6239
31.1202
31.5914
32.0371
32.4569
32.8501
33.2163
33.5549
33.8652
34.1469
34.3993
34.6219
34.8142
34.9759
35.1067
35.2061
35.2741
35.3107
35.3159
35.2898
35.2328
35.1454
35.0281
34.8817
34.7071
34.5054
34.2781
34.0267
33.7537
33.4602
33.1466
32.8136
32.4624
32.0946
31.7116
31.3152
30.9071
30.4891
30.0629
29.6303
29.1929
28.7526
28.311
27.8696
27.4302
26.9942
26.563
26.138
25.7206
25.3118
24.913
24.5251
24.1492
23.7861
23.4367
23.1018
22.782
22.478
22.1902
21.9193
21.6654
21.4291
21.2106
21.0101
20.8278
20.6639
20.5184
20.3913
20.2826
20.1923
20.1205
20.0668
20.0312
20.0136
20.0136
20.0312
20.066
20.1177
20.1861
20.2709
20.3719
20.4886
20.6209
20.7683
20.9307
21.1075
21.2986
21.5036
21.7221
21.9538
22.1983
22.4554
22.7245
23.0055
23.2979
23.6013
23.9154
24.2397
24.5738
24.9173
25.2698
25.6307
25.9995
26.3756
26.7584
27.1472
27.5413
27.9398
28.3418
28.7464
29.1524
29.5585
29.9636
30.366
30.7641
31.1563
31.5404
31.9144
32.2761
32.6229
32.9521
33.2611
33.5468
33.806
34.0355
34.2317
34.3912
34.5103
34.5854
34.6129
34.5893
34.5114
34.3768
34.1838
33.9303
33.6124
33.2271
32.772
32.2458
31.6474
30.9769
30.2347
29.422
28.541
27.5944
26.5856
25.5187
24.3987
23.2309
22.0213
20.7761
19.5022
18.2064
16.8958
15.5775
14.2586
12.9461
11.6478
10.3722
9.12832
7.93228
6.80354
5.78203
4.94967
4.64711
7.73141
12.0204
6.07285
5.64539
6.0241
6.63509
7.3436
8.10087
8.88466
9.68228
10.4859
11.2903
12.0916
12.8871
13.6747
14.4527
15.2197
15.9748
16.7174
17.447
18.1636
18.8673
19.5572
20.2324
20.892
21.5353
22.1619
22.7713
23.3628
23.9361
24.4901
25.0243
25.5382
26.0314
26.5037
26.9544
27.3833
27.7899
28.1738
28.5345
28.8716
29.1845
29.473
29.7364
29.9743
30.1864
30.3723
30.5315
30.6639
30.7691
30.847
30.8975
30.9207
30.9165
30.8853
30.8273
30.7429
30.6328
30.4975
30.3379
30.155
29.9498
29.7237
29.4782
29.2145
28.9333
28.6354
28.322
27.9943
27.6537
27.3017
26.9397
26.5693
26.1919
25.8091
25.4224
25.0333
24.6433
24.2538
23.8661
23.4816
23.1015
22.7271
22.3595
21.9997
21.6489
21.308
20.9777
20.659
20.3526
20.0591
19.7792
19.5134
19.2622
19.0261
18.8054
18.6004
18.4115
18.2387
18.0824
17.9426
17.8195
17.7131
17.6234
17.5505
17.4942
17.4546
17.4315
17.4247
17.4341
17.4596
17.5009
17.5578
17.6302
17.7177
17.8202
17.9374
18.0691
18.2149
18.3747
18.5482
18.735
18.9349
19.1476
19.3728
19.6103
19.8596
20.1206
20.3928
20.676
20.9698
21.2739
21.588
21.9115
22.2443
22.5858
22.9355
23.2931
23.6579
24.0294
24.4071
24.7901
25.1777
25.5691
25.9634
26.3596
26.7566
27.153
27.5476
27.9389
28.3251
28.7046
29.0753
29.4352
29.7819
30.113
30.4259
30.7179
30.986
31.2271
31.438
31.6156
31.7563
31.8569
31.9141
31.9245
31.8851
31.7934
31.6471
31.4438
31.1806
30.8551
30.4653
30.0099
29.4881
28.8998
28.2454
27.526
26.7435
25.9002
24.9994
24.0447
23.0404
21.9913
20.9028
19.7805
18.6305
17.4594
16.2737
15.0807
13.8878
12.7034
11.5369
10.3996
9.30595
8.27622
7.34072
6.5549
6.05269
6.40357
12.1334
12.0209
6.07257
5.64491
6.02354
6.63449
7.34298
8.10022
8.884
9.68161
10.4852
11.2895
12.0908
12.8864
13.6739
14.4518
15.2189
15.974
16.7165
17.4461
18.1626
18.8664
19.5563
20.2314
20.891
21.5343
22.1609
22.7702
23.3617
23.9349
24.4889
25.0231
25.5369
26.0301
26.5023
26.953
27.3818
27.7884
28.1722
28.5329
28.8699
29.1829
29.4713
29.7347
29.9726
30.1847
30.3705
30.5297
30.662
30.7672
30.8451
30.8956
30.9188
30.9146
30.8834
30.8254
30.7411
30.6309
30.4957
30.3361
30.1532
29.948
29.722
29.4765
29.2128
28.9316
28.6338
28.3204
27.9927
27.6522
27.3002
26.9383
26.5679
26.1905
25.8078
25.4211
25.0321
24.6421
24.2526
23.865
23.4805
23.1005
22.7261
22.3585
21.9988
21.6481
21.3071
20.9769
20.6583
20.3519
20.0584
19.7786
19.5128
19.2617
19.0256
18.8049
18.6
18.411
18.2383
18.082
17.9423
17.8192
17.7128
17.6231
17.5502
17.494
17.4544
17.4313
17.4246
17.434
17.4595
17.5008
17.5578
17.6301
17.7177
17.8202
17.9374
18.0691
18.215
18.3748
18.5482
18.7351
18.935
19.1477
19.373
19.6104
19.8598
20.1207
20.393
20.6762
20.97
21.2741
21.5882
21.9118
22.2445
22.586
22.9358
23.2934
23.6582
24.0298
24.4074
24.7904
25.178
25.5695
25.9638
26.36
26.757
27.1534
27.548
27.9393
28.3256
28.705
29.0758
29.4356
29.7823
30.1135
30.4264
30.7184
30.9865
31.2276
31.4386
31.6161
31.7569
31.8575
31.9146
31.925
31.8856
31.7939
31.6476
31.4443
31.1811
30.8555
30.4657
30.0103
29.4885
28.9002
28.2457
27.5263
26.7438
25.9005
24.9997
24.0449
23.0406
21.9915
20.9029
19.7806
18.6307
17.4595
16.2739
15.0808
13.8879
12.7035
11.537
10.3997
9.30599
8.27624
7.34073
6.5549
6.05267
6.4035
12.1333
16.1674
7.72919
6.70378
6.78654
7.19674
7.74861
8.37367
9.04074
9.73267
10.439
11.1529
11.8694
12.585
13.297
14.0033
14.7023
15.3928
16.0739
16.7448
17.4052
18.0547
18.6923
19.3173
19.9288
20.526
21.1084
21.6752
22.2258
22.7596
23.2758
23.7735
24.252
24.7109
25.1496
25.5676
25.9644
26.3397
26.693
27.0237
27.3316
27.6161
27.877
28.1138
28.3262
28.5139
28.6767
28.8142
28.9265
29.0132
29.0745
29.1103
29.1206
29.1057
29.0659
29.0015
28.9129
28.8006
28.6655
28.5081
28.3294
28.1305
27.9123
27.6762
27.4232
27.1542
26.87
26.5718
26.2606
25.9378
25.6047
25.2626
24.9128
24.5568
24.196
23.8317
23.4653
23.0982
22.7316
22.3668
22.0051
21.6476
21.2955
20.9498
20.6116
20.2817
19.9611
19.6506
19.351
19.0629
18.7871
18.5241
18.2743
18.0384
17.8167
17.6096
17.4174
17.2404
17.0788
16.9329
16.8026
16.6883
16.59
16.5077
16.4414
16.3911
16.3568
16.3383
16.3355
16.3484
16.3768
16.4204
16.4793
16.5531
16.6417
16.7449
16.8624
16.9941
17.1398
17.2991
17.4719
17.6579
17.8568
18.0684
18.2924
18.5286
18.7766
19.0363
19.3072
19.5891
19.8817
20.1847
20.4976
20.8203
21.1522
21.4929
21.8422
22.1994
22.564
22.9355
23.3134
23.6969
24.0852
24.4777
24.8733
25.2711
25.67
26.0689
26.4662
26.8607
27.2507
27.6344
28.01
28.3754
28.7284
29.0666
29.3875
29.6884
29.9665
30.2189
30.4424
30.6339
30.7902
30.9081
30.9845
31.0161
31.0001
30.9338
30.8148
30.6406
30.4089
30.1175
29.7648
29.3495
28.871
28.3291
27.7243
27.0577
26.3308
25.546
24.7059
23.814
22.874
21.8903
20.8676
19.8112
18.7266
17.6199
16.4977
15.3671
14.2363
13.1145
12.013
10.9456
9.93067
8.99388
8.17541
7.55056
7.30865
8.23773
16.7089
16.168
7.72885
6.70324
6.78595
7.19611
7.74796
8.37301
9.04006
9.73198
10.4383
11.1522
11.8686
12.5842
13.2962
14.0024
14.7015
15.392
16.073
16.7439
17.4043
18.0537
18.6913
19.3163
19.9278
20.525
21.1073
21.6741
22.2247
22.7584
23.2746
23.7723
24.2508
24.7096
25.1483
25.5662
25.9631
26.3383
26.6915
27.0223
27.3301
27.6146
27.8755
28.1123
28.3247
28.5124
28.6751
28.8127
28.9249
29.0117
29.0729
29.1087
29.119
29.1042
29.0643
28.9999
28.9113
28.7991
28.6639
28.5066
28.3279
28.129
27.9109
27.6748
27.4218
27.1528
26.8686
26.5704
26.2593
25.9366
25.6035
25.2614
24.9117
24.5557
24.1949
23.8307
23.4643
23.0972
22.7307
22.3659
22.0043
21.6468
21.2947
20.9491
20.6109
20.281
19.9605
19.65
19.3504
19.0624
18.7866
18.5236
18.2739
18.038
17.8163
17.6093
17.4171
17.2401
17.0785
16.9326
16.8023
16.6881
16.5898
16.5075
16.4413
16.391
16.3567
16.3382
16.3354
16.3483
16.3767
16.4204
16.4792
16.5531
16.6417
16.7449
16.8625
16.9942
17.1398
17.2992
17.472
17.658
17.8569
18.0685
18.2925
18.5287
18.7768
19.0364
19.3074
19.5893
19.8819
20.1849
20.4978
20.8205
21.1524
21.4932
21.8424
22.1996
22.5643
22.9359
23.3137
23.6972
24.0856
24.478
24.8736
25.2715
25.6704
26.0692
26.4666
26.8611
27.2511
27.6349
28.0105
28.3759
28.7289
29.0671
29.388
29.6889
29.967
30.2194
30.4429
30.6344
30.7907
30.9086
30.9849
31.0165
31.0005
30.9342
30.8152
30.6411
30.4093
30.1179
29.7652
29.3498
28.8713
28.3294
27.7246
27.058
26.3311
25.5462
24.7061
23.8141
22.8741
21.8904
20.8677
19.8113
18.7267
17.62
16.4978
15.3672
14.2363
13.1146
12.013
10.9456
9.93067
8.99386
8.17539
7.55053
7.30859
8.2376
16.7086
20.3119
9.43838
7.86678
7.69947
7.95216
8.38837
8.9217
9.51224
10.1383
10.7866
11.4485
12.1181
12.791
13.4638
14.1341
14.8
15.4599
16.1127
16.7574
17.3934
18.0199
18.6359
19.2407
19.8332
20.4127
20.9783
21.5293
22.0648
22.584
23.0861
23.5703
24.0354
24.4808
24.9058
25.31
25.6927
26.0535
26.3917
26.7071
26.9991
27.2674
27.5117
27.7317
27.9272
28.098
28.2439
28.3649
28.461
28.5321
28.5784
28.5999
28.597
28.5698
28.5188
28.4443
28.3469
28.2271
28.0857
27.9234
27.741
27.5396
27.32
27.0835
26.8311
26.5635
26.2818
25.987
25.6802
25.3625
25.0351
24.6994
24.3566
24.008
23.6549
23.2986
22.9404
22.5816
22.2234
21.867
21.5135
21.1642
20.82
20.482
20.1512
19.8284
19.5146
19.2105
18.917
18.6346
18.364
18.1057
17.8604
17.6285
17.4103
17.2063
17.0169
16.8421
16.6825
16.5381
16.4091
16.2958
16.1981
16.1162
16.0499
15.9994
15.9645
15.9453
15.9416
15.9534
15.9805
16.0227
16.0801
16.1523
16.2393
16.3408
16.4566
16.5866
16.7306
16.8883
17.0596
17.2441
17.4417
17.6521
17.8751
18.1104
18.3578
18.6169
18.8876
19.1695
19.4622
19.7656
20.0792
20.4028
20.7358
21.0781
21.429
21.7881
22.155
22.529
22.9096
23.2961
23.6877
24.0836
24.483
24.8849
25.2881
25.6914
26.0935
26.493
26.8883
27.2775
27.659
28.0305
28.39
28.7351
29.0633
29.372
29.6584
29.9197
30.1528
30.3547
30.5224
30.6527
30.7426
30.7891
30.7893
30.7407
30.6408
30.4874
30.2782
30.0114
29.6855
29.2996
28.8529
28.3455
27.7778
27.1507
26.4657
25.7248
24.9304
24.0854
23.1931
22.2575
21.2825
20.2729
19.2338
18.1708
17.0902
15.9994
14.9068
13.8226
12.7595
11.7338
10.7673
9.89119
9.15592
8.6585
8.64884
10.15
21.4918
20.3125
9.43798
7.8662
7.69883
7.95151
8.38769
8.92102
9.51154
10.1375
10.7858
11.4478
12.1173
12.7902
13.463
14.1333
14.7992
15.459
16.1118
16.7565
17.3924
18.0189
18.6349
19.2396
19.8322
20.4116
20.9772
21.5282
22.0636
22.5828
23.0849
23.5691
24.0341
24.4795
24.9046
25.3087
25.6914
26.0521
26.3904
26.7057
26.9977
27.266
27.5103
27.7303
27.9258
28.0965
28.2425
28.3635
28.4595
28.5306
28.5769
28.5985
28.5955
28.5684
28.5173
28.4429
28.3455
28.2257
28.0843
27.922
27.7397
27.5383
27.3188
27.0823
26.8298
26.5623
26.2806
25.9858
25.679
25.3614
25.034
24.6984
24.3556
24.007
23.654
23.2977
22.9396
22.5808
22.2226
21.8662
21.5128
21.1634
20.8193
20.4813
20.1505
19.8278
19.514
19.21
18.9164
18.6341
18.3635
18.1053
17.86
17.6281
17.41
17.206
17.0165
16.8418
16.6822
16.5378
16.4089
16.2956
16.1979
16.116
16.0497
15.9992
15.9644
15.9452
15.9415
15.9533
15.9804
16.0227
16.08
16.1523
16.2392
16.3408
16.4566
16.5867
16.7307
16.8884
17.0596
17.2442
17.4418
17.6522
17.8752
18.1106
18.3579
18.6171
18.8877
19.1696
19.4624
19.7658
20.0794
20.403
20.7361
21.0783
21.4292
21.7883
22.1552
22.5293
22.9099
23.2963
23.688
24.0839
24.4833
24.8852
25.2884
25.6917
26.0939
26.4934
26.8886
27.2779
27.6594
28.0309
28.3904
28.7355
29.0637
29.3724
29.6588
29.9201
30.1532
30.3552
30.5228
30.6531
30.743
30.7895
30.7897
30.7411
30.6412
30.4878
30.2785
30.0117
29.6858
29.2998
28.8532
28.3458
27.778
27.1509
26.4659
25.725
24.9305
24.0855
23.1932
22.2575
21.2826
20.273
19.2338
18.1708
17.0903
15.9994
14.9068
13.8226
12.7595
11.7338
10.7672
9.89113
9.15586
8.65843
8.64875
10.1498
21.4914
24.5483
11.2232
9.12669
8.7321
8.85071
9.19479
9.65974
10.197
10.7801
11.3932
12.0259
12.6709
13.3231
13.9785
14.6343
15.2881
15.9382
16.583
17.2216
17.8528
18.4758
19.0894
19.6928
20.2847
20.8644
21.4307
21.9828
22.5197
23.0403
23.5437
24.0288
24.4945
24.9398
25.364
25.7664
26.1464
26.5032
26.8363
27.1454
27.4299
27.6895
27.9241
28.1333
28.317
28.4752
28.608
28.7152
28.7971
28.8539
28.8857
28.8929
28.8757
28.8347
28.7702
28.6829
28.5732
28.4419
28.2896
28.1173
27.9256
27.7157
27.4884
27.2448
26.9859
26.7126
26.4257
26.1264
25.8157
25.4946
25.1644
24.8262
24.4813
24.1308
23.7762
23.4185
23.059
22.699
22.3395
21.9819
21.6271
21.2764
20.9307
20.591
20.2583
19.9335
19.6174
19.3109
19.0146
18.7293
18.4555
18.1939
17.9449
17.7091
17.4869
17.2786
17.0847
16.9053
16.7409
16.5917
16.4578
16.3395
16.2366
16.1494
16.0779
16.022
15.9818
15.9572
15.9482
15.9546
15.9764
16.0135
16.0657
16.1329
16.2149
16.3116
16.4229
16.5484
16.6881
16.8418
17.0092
17.1901
17.3843
17.5915
17.8116
18.0443
18.2894
18.5465
18.8154
19.0958
19.3875
19.69
20.0032
20.3265
20.6597
21.0023
21.3539
21.7141
22.0822
22.4578
22.8403
23.2288
23.6228
24.0213
24.4234
24.8282
25.2346
25.6412
26.0468
26.45
26.849
27.2422
27.6278
28.0036
28.3675
28.7173
29.0504
29.3642
29.6562
29.9235
30.1631
30.3722
30.5478
30.6869
30.7866
30.844
30.8566
30.8217
30.7371
30.6006
30.4103
30.1646
29.8621
29.5021
29.084
28.6078
28.0738
27.483
26.8366
26.1362
25.3839
24.5821
23.7336
22.8417
21.9097
20.9418
19.9424
18.9167
17.8707
16.8116
15.7483
14.6917
13.6557
12.6587
11.726
10.8943
10.2241
9.83494
10.0374
12.101
26.2899
24.549
11.2227
9.12605
8.73142
8.85002
9.19408
9.65903
10.1962
10.7794
11.3924
12.0251
12.6701
13.3222
13.9777
14.6334
15.2872
15.9372
16.5821
17.2206
17.8518
18.4747
19.0884
19.6917
20.2836
20.8633
21.4296
21.9816
22.5185
23.039
23.5424
24.0276
24.4932
24.9385
25.3627
25.7651
26.145
26.5018
26.835
27.144
27.4285
27.6881
27.9226
28.1318
28.3156
28.4738
28.6065
28.7138
28.7957
28.8525
28.8843
28.8914
28.8743
28.8333
28.7688
28.6815
28.5718
28.4405
28.2883
28.116
27.9244
27.7144
27.4872
27.2436
26.9847
26.7114
26.4246
26.1253
25.8146
25.4936
25.1634
24.8252
24.4803
24.1299
23.7753
23.4176
23.0582
22.6982
22.3388
21.9811
21.6264
21.2757
20.93
20.5904
20.2577
19.9329
19.6169
19.3104
19.0141
18.7288
18.455
18.1934
17.9445
17.7087
17.4865
17.2783
17.0843
16.905
16.7406
16.5914
16.4576
16.3392
16.2364
16.1492
16.0777
16.0219
15.9817
15.9571
15.948
15.9545
15.9763
16.0134
16.0656
16.1328
16.2149
16.3116
16.4228
16.5484
16.6881
16.8418
17.0092
17.1901
17.3843
17.5916
17.8117
18.0444
18.2895
18.5466
18.8155
19.0959
19.3876
19.6902
20.0033
20.3266
20.6598
21.0025
21.3541
21.7143
22.0824
22.458
22.8405
23.229
23.623
24.0215
24.4237
24.8285
25.2348
25.6415
26.0471
26.4503
26.8493
27.2426
27.6281
28.0039
28.3679
28.7176
29.0507
29.3646
29.6566
29.9238
30.1635
30.3725
30.5481
30.6872
30.7869
30.8444
30.8569
30.822
30.7374
30.6009
30.4106
30.1648
29.8623
29.5023
29.0842
28.6079
28.074
27.4832
26.8367
26.1363
25.384
24.5822
23.7337
22.8417
21.9097
20.9418
19.9424
18.9166
17.8707
16.8116
15.7482
14.6916
13.6556
12.6587
11.7259
10.8942
10.2241
9.83484
10.0373
12.1008
26.2898
28.967
13.1138
10.4895
9.87792
9.87561
10.1424
10.5543
11.0537
11.6095
12.2029
12.8218
13.4578
14.1047
14.7582
15.4147
16.0715
16.7267
17.3785
18.0255
18.6666
19.3005
19.9259
20.5418
21.147
21.7402
22.3204
22.8864
23.437
23.9709
24.4872
24.9843
25.4611
25.9164
26.3494
26.759
27.1446
27.5054
27.8408
28.1503
28.4334
28.6898
28.9195
29.1221
29.2977
29.4464
29.5683
29.6635
29.7325
29.7755
29.7928
29.7851
29.7526
29.6961
29.6162
29.5134
29.3884
29.2421
29.0751
28.8885
28.683
28.4596
28.2194
27.9632
27.6923
27.4073
27.1092
26.7991
26.4779
26.1468
25.8068
25.4592
25.105
24.7455
24.382
24.0155
23.6473
23.2785
22.9104
22.544
22.1804
21.8208
21.4661
21.1173
20.7754
20.4412
20.1157
19.7995
19.4934
19.1982
18.9144
18.6427
18.3835
18.1373
17.9047
17.6859
17.4814
17.2916
17.1167
16.957
16.8127
16.6839
16.5707
16.4732
16.3914
16.3255
16.2752
16.2408
16.222
16.2189
16.2313
16.2591
16.3023
16.3607
16.4341
16.5225
16.6257
16.7434
16.8755
17.0219
17.1823
17.3565
17.5443
17.7455
17.9599
18.1871
18.4271
18.6794
18.9439
19.2203
19.5082
19.8073
20.1174
20.438
20.7687
21.1093
21.4591
21.8177
22.1847
22.5593
22.941
23.3291
23.7228
24.1213
24.5236
24.9287
25.3355
25.7427
26.149
26.5529
26.9529
27.3471
27.7338
28.1108
28.4761
28.8274
29.1623
29.4782
29.7726
30.0427
30.2858
30.4989
30.6794
30.8244
30.9311
30.997
31.0194
30.9961
30.9249
30.8038
30.6312
30.4057
30.1262
29.792
29.4026
28.958
28.4586
27.9051
27.2984
26.6399
25.9312
25.1741
24.3708
23.5239
22.6361
21.7107
20.7516
19.7632
18.7513
17.7229
16.6869
15.6548
14.6419
13.6682
12.7622
11.9662
11.351
11.0581
11.4591
14.0695
31.0618
28.9676
13.1133
10.4888
9.8772
9.87488
10.1417
10.5535
11.0529
11.6087
12.2021
12.821
13.4569
14.1039
14.7573
15.4137
16.0706
16.7257
17.3775
18.0245
18.6655
19.2994
19.9248
20.5407
21.1458
21.739
22.3192
22.8851
23.4357
23.9696
24.4858
24.983
25.4597
25.9151
26.348
26.7576
27.1432
27.504
27.8394
28.1488
28.4319
28.6884
28.918
29.1206
29.2963
29.4449
29.5668
29.6621
29.731
29.774
29.7914
29.7836
29.7512
29.6948
29.6148
29.512
29.3871
29.2407
29.0738
28.8872
28.6817
28.4584
28.2182
27.9621
27.6911
27.4062
27.1081
26.798
26.4769
26.1458
25.8058
25.4582
25.1041
24.7446
24.3811
24.0146
23.6464
23.2777
22.9096
22.5432
22.1797
21.8201
21.4654
21.1167
20.7748
20.4406
20.1151
19.7989
19.4929
19.1977
18.9139
18.6422
18.383
18.1369
17.9043
17.6855
17.481
17.2912
17.1164
16.9567
16.8124
16.6836
16.5704
16.473
16.3912
16.3252
16.275
16.2406
16.2218
16.2187
16.2311
16.259
16.3022
16.3606
16.434
16.5224
16.6256
16.7433
16.8755
17.0219
17.1823
17.3565
17.5443
17.7455
17.9599
18.1872
18.4271
18.6795
18.944
19.2203
19.5082
19.8074
20.1175
20.4381
20.7688
21.1094
21.4592
21.8178
22.1848
22.5595
22.9412
23.3293
23.723
24.1215
24.5238
24.9289
25.3357
25.7429
26.1492
26.5532
26.9531
27.3474
27.734
28.1111
28.4764
28.8277
29.1626
29.4785
29.7729
30.043
30.286
30.4992
30.6797
30.8247
30.9314
30.9972
31.0197
30.9963
30.9251
30.804
30.6314
30.4059
30.1264
29.7921
29.4027
28.9581
28.4587
27.9052
27.2985
26.6399
25.9312
25.1741
24.3709
23.5239
22.6361
21.7107
20.7515
19.7632
18.7512
17.7228
16.6868
15.6547
14.6418
13.6681
12.7621
11.9661
11.3509
11.058
11.459
14.0693
31.0623
33.6056
15.1269
11.9646
11.1392
11.0238
11.2232
11.5928
12.0658
12.606
13.1917
13.809
14.4481
15.1021
15.7658
16.4354
17.1077
17.7804
18.4514
19.1192
19.7824
20.4392
21.0885
21.7287
22.3587
22.9769
23.5821
24.1728
24.7477
25.3052
25.8441
26.3626
26.8594
27.3332
27.7829
28.2074
28.6057
28.977
29.3207
29.6361
29.9227
30.1805
30.409
30.6084
30.7787
30.9201
31.0328
31.1173
31.1739
31.2032
31.2058
31.1823
31.1334
31.0597
30.9621
30.8413
30.6981
30.5335
30.3483
30.1434
29.9198
29.6786
29.4206
29.1471
28.8589
28.5569
28.2421
27.9155
27.5781
27.2309
26.875
26.5117
26.142
25.767
25.3881
25.0062
24.6227
24.2386
23.855
23.4732
23.0942
22.719
22.3486
21.9841
21.6264
21.2763
20.9348
20.6025
20.2804
19.9689
19.6689
19.3808
19.1053
18.8428
18.5938
18.3587
18.1381
17.9322
17.7413
17.5658
17.4057
17.2612
17.1326
17.0198
16.9229
16.842
16.7771
16.7282
16.6952
16.6781
16.6768
16.6912
16.7212
16.7667
16.8276
16.9037
16.9949
17.101
17.2219
17.3573
17.507
17.671
17.8489
18.0405
18.2456
18.464
18.6954
18.9396
19.1963
19.4652
19.7461
20.0385
20.3421
20.6566
20.9816
21.3167
21.6614
22.0152
22.3775
22.7479
23.1255
23.5097
23.8997
24.2947
24.6937
25.0956
25.4993
25.9036
26.307
26.7082
27.1055
27.4972
27.8813
28.2561
28.6192
28.9686
29.3018
29.6164
29.9099
30.1797
30.4231
30.6375
30.8202
30.9686
31.0802
31.1525
31.1832
31.1701
31.1115
31.0055
30.8507
30.646
30.3904
30.0833
29.7244
29.3137
28.8515
28.3382
27.7745
27.1613
26.4999
25.7913
25.0373
24.2393
23.3996
22.5205
21.6051
20.6574
19.6824
18.687
17.68
16.6734
15.6833
14.7317
13.8499
13.0855
12.5194
12.315
12.9032
16.0366
35.7833
33.6062
15.1263
11.9639
11.1384
11.023
11.2224
11.592
12.0649
12.6051
13.1908
13.8081
14.4472
15.1011
15.7648
16.4344
17.1067
17.7793
18.4503
19.1181
19.7812
20.438
21.0873
21.7275
22.3574
22.9756
23.5808
24.1715
24.7463
25.3038
25.8426
26.3611
26.8579
27.3317
27.7814
28.2059
28.6042
28.9755
29.3192
29.6345
29.9212
30.1789
30.4075
30.6069
30.7772
30.9186
31.0313
31.1158
31.1724
31.2017
31.2044
31.1809
31.1319
31.0583
30.9607
30.8399
30.6967
30.5321
30.3469
30.1421
29.9185
29.6773
29.4194
29.1459
28.8577
28.5558
28.241
27.9144
27.577
27.2298
26.874
26.5107
26.141
25.7661
25.3872
25.0053
24.6218
24.2377
23.8542
23.4724
23.0934
22.7182
22.3479
21.9835
21.6257
21.2757
20.9342
20.602
20.2798
19.9684
19.6684
19.3803
19.1048
18.8424
18.5934
18.3583
18.1377
17.9318
17.7409
17.5654
17.4053
17.2609
17.1323
17.0195
16.9227
16.8418
16.7769
16.728
16.695
16.6779
16.6766
16.691
16.721
16.7665
16.8275
16.9036
16.9948
17.1009
17.2218
17.3572
17.507
17.6709
17.8488
18.0404
18.2456
18.464
18.6954
18.9396
19.1963
19.4652
19.7461
20.0385
20.3421
20.6567
20.9817
21.3168
21.6615
22.0153
22.3776
22.7479
23.1256
23.5098
23.8998
24.2948
24.6938
25.0957
25.4994
25.9037
26.3072
26.7084
27.1057
27.4973
27.8815
28.2563
28.6194
28.9688
29.302
29.6166
29.9101
30.1799
30.4233
30.6377
30.8204
30.9688
31.0804
31.1526
31.1833
31.1703
31.1116
31.0056
30.8508
30.6461
30.3904
30.0833
29.7245
29.3138
28.8515
28.3382
27.7745
27.1613
26.4999
25.7913
25.0372
24.2393
23.3995
22.5204
21.605
20.6573
19.6823
18.6869
17.6799
16.6733
15.6832
14.7315
13.8497
13.0853
12.5192
12.3149
12.903
16.0364
35.7841
38.5302
17.2862
13.5658
12.5234
12.2989
12.4376
12.7732
13.2289
13.7631
14.3512
14.9771
15.63
16.3018
16.9869
17.6806
18.3795
19.0809
19.7825
20.4824
21.1788
21.8699
22.554
23.2295
23.895
24.5488
25.1893
25.8148
26.4237
27.0142
27.5846
28.1331
28.6581
29.1582
29.632
30.0781
30.4955
30.8833
31.2405
31.5667
31.8613
32.1241
32.3549
32.5538
32.7211
32.8569
32.9617
33.0361
33.0807
33.0962
33.0834
33.0431
32.9761
32.8834
32.7658
32.6244
32.4601
32.2738
32.0667
31.8397
31.5939
31.3303
31.0501
30.7543
30.4438
30.1197
29.7828
29.4342
29.0749
28.7059
28.3283
27.9432
27.5518
27.1553
26.7547
26.3512
25.9459
25.5401
25.1349
24.7312
24.3303
23.9331
23.5407
23.1541
22.7742
22.4019
22.0381
21.6835
21.339
21.0052
20.6828
20.3725
20.0747
19.79
19.5188
19.2617
19.0192
18.7916
18.5792
18.3823
18.2012
18.0358
17.8865
17.7533
17.6363
17.5356
17.4511
17.383
17.331
17.2953
17.2757
17.2722
17.2847
17.313
17.3571
17.4167