/*--------------------------------*- C++ -*----------------------------------*\
  =========                 |
  \\      /  F ield         | OpenFOAM: The Open Source CFD Toolbox
   \\    /   O peration     | Website:  https://openfoam.org
    \\  /    A nd           | Version:  8
     \\/     M anipulation  |
\*---------------------------------------------------------------------------*/
FoamFile
{
    version     2.0;
    format      ascii;
    class       volScalarField;
    location    "1700";
    object      k;
}
// * * * * * * * * * * * * * * * * * * * * * * * * * * * * * * * * * * * * * //

dimensions      [0 2 -2 0 0 0 0];

internalField   nonuniform List<scalar> 
46000
(
0.000559777
0.00275386
0.00591368
0.00917231
0.0123872
0.0155481
0.0186587
0.0217295
0.024751
0.0277056
0.0305908
0.0334038
0.0361434
0.0388071
0.041393
0.0439012
0.046332
0.048686
0.0509631
0.0531677
0.0553287
0.0574223
0.0594467
0.0614031
0.0632935
0.0651197
0.0668829
0.068583
0.0702211
0.0717978
0.0733135
0.0747686
0.0761637
0.0774987
0.0787736
0.0799881
0.0811418
0.0822341
0.0832643
0.0842314
0.0851344
0.0859723
0.0867439
0.087448
0.0880835
0.0886494
0.0891445
0.0895681
0.0899193
0.0901977
0.0904028
0.0905345
0.0905928
0.0905781
0.0904909
0.0903321
0.0901028
0.0898044
0.0894386
0.0890072
0.0885124
0.0879581
0.0873566
0.086714
0.0860198
0.0852759
0.0844859
0.0836534
0.0827822
0.0818761
0.0809392
0.0799755
0.0789888
0.0779832
0.0769627
0.0759314
0.074893
0.0738514
0.0728104
0.0717735
0.0707442
0.0697256
0.0687211
0.0677335
0.0667657
0.0658204
0.0649
0.0640068
0.063143
0.0623104
0.061511
0.0607462
0.0600175
0.0593261
0.058673
0.0580591
0.0574851
0.0569518
0.0564595
0.0560086
0.0555994
0.0552318
0.0549059
0.0546214
0.0543781
0.0541755
0.0540133
0.0538911
0.0538081
0.0537636
0.0537567
0.0537868
0.0538532
0.0539551
0.0540916
0.054262
0.0544653
0.0547007
0.0549674
0.0552643
0.0555907
0.0559456
0.0563281
0.0567372
0.057172
0.0576318
0.0581156
0.0586226
0.0591518
0.0597021
0.0602726
0.0608623
0.0614703
0.0620956
0.0627369
0.0633932
0.0640631
0.0647452
0.0654381
0.06614
0.0668491
0.0675635
0.0682812
0.0689998
0.0697167
0.070429
0.0711337
0.0718274
0.0725065
0.073167
0.0738046
0.0744144
0.0749915
0.0755305
0.0760256
0.076471
0.0768604
0.0771872
0.0774446
0.0776256
0.0777229
0.0777293
0.0776375
0.0774404
0.0771309
0.0767024
0.0761497
0.0754829
0.0746995
0.0737805
0.0727192
0.0715127
0.0701593
0.0686585
0.0670113
0.0652196
0.0632868
0.0612178
0.0590186
0.0566967
0.054261
0.0517213
0.0490889
0.0463758
0.043595
0.0407602
0.0378851
0.0349835
0.0320687
0.0291522
0.0262355
0.0233246
0.0204505
0.0175789
0.0147041
0.0118063
0.00892873
0.00592537
0.0028575
0.00058584
0.00055979
0.00275404
0.00591406
0.00917279
0.0123878
0.0155487
0.0186593
0.0217299
0.0247514
0.0277061
0.0305912
0.0334041
0.0361436
0.038807
0.0413926
0.0439005
0.046331
0.0486847
0.0509613
0.0531661
0.0553268
0.0574201
0.0594439
0.0613997
0.0632896
0.0651156
0.0668786
0.0685788
0.070217
0.0717937
0.0733096
0.0747651
0.0761605
0.077496
0.0787716
0.0799868
0.0811412
0.0822341
0.0832647
0.0842321
0.0851353
0.0859732
0.0867449
0.087449
0.0880846
0.0886506
0.0891458
0.0895693
0.0899205
0.0901987
0.0904037
0.0905352
0.0905934
0.0905786
0.0904914
0.0903326
0.0901035
0.0898052
0.0894395
0.0890081
0.0885134
0.087959
0.0873575
0.0867149
0.0860206
0.0852768
0.0844868
0.0836544
0.0827832
0.0818772
0.0809403
0.0799765
0.0789897
0.0779841
0.0769635
0.075932
0.0748935
0.0738518
0.0728107
0.0717736
0.0707441
0.0697254
0.0687206
0.0677329
0.0667649
0.0658195
0.0648989
0.0640056
0.0631417
0.0623092
0.0615097
0.060745
0.0600163
0.0593249
0.0586718
0.0580579
0.057484
0.0569507
0.0564585
0.0560077
0.0555986
0.0552311
0.0549054
0.0546211
0.054378
0.0541756
0.0540137
0.0538917
0.0538089
0.0537646
0.0537579
0.053788
0.0538544
0.0539562
0.0540925
0.0542626
0.0544657
0.0547008
0.0549672
0.0552638
0.0555899
0.0559446
0.0563269
0.0567358
0.0571706
0.0576303
0.058114
0.058621
0.0591501
0.0597005
0.060271
0.0608609
0.0614689
0.0620942
0.0627356
0.063392
0.0640621
0.0647444
0.0654374
0.0661394
0.0668486
0.0675631
0.0682808
0.0689995
0.0697165
0.070429
0.0711338
0.0718276
0.0725068
0.0731673
0.0738049
0.0744147
0.0749917
0.0755306
0.0760256
0.0764709
0.0768603
0.0771871
0.0774446
0.0776256
0.0777229
0.0777293
0.0776374
0.0774402
0.0771307
0.0767022
0.0761493
0.0754824
0.074699
0.0737801
0.072719
0.0715126
0.0701592
0.0686584
0.067011
0.0652191
0.0632862
0.0612171
0.0590179
0.0566962
0.0542607
0.0517212
0.049089
0.046376
0.0435954
0.0407605
0.0378852
0.0349834
0.0320683
0.0291515
0.0262347
0.0233238
0.0204498
0.0175784
0.0147038
0.0118061
0.00892869
0.00592541
0.0028575
0.000585844
0.00277939
0.0172697
0.0301537
0.0409983
0.0506799
0.0595792
0.0678966
0.0757395
0.0831637
0.0902284
0.0969718
0.103419
0.109594
0.115509
0.121177
0.126611
0.131823
0.136825
0.141625
0.146232
0.150659
0.15491
0.158991
0.162909
0.166671
0.170283
0.173751
0.177075
0.180261
0.183312
0.186231
0.189021
0.191684
0.194223
0.196637
0.19893
0.2011
0.203148
0.205074
0.206877
0.208556
0.210111
0.211539
0.21284
0.214012
0.215054
0.215964
0.216741
0.217384
0.217893
0.218267
0.218505
0.218608
0.218576
0.218411
0.218114
0.217686
0.217131
0.216451
0.215648
0.214728
0.213694
0.212551
0.211309
0.20997
0.208537
0.207016
0.205415
0.203739
0.201995
0.200189
0.19833
0.196424
0.194478
0.192499
0.190496
0.188474
0.186442
0.184405
0.182372
0.180348
0.178341
0.176356
0.1744
0.172478
0.170595
0.168758
0.166971
0.165239
0.163565
0.161955
0.160412
0.158939
0.157539
0.156215
0.154969
0.153804
0.152721
0.151721
0.150807
0.149978
0.149236
0.148581
0.148012
0.147529
0.147133
0.146821
0.146595
0.146451
0.14639
0.146409
0.146507
0.146683
0.146933
0.147258
0.147654
0.148121
0.148654
0.149254
0.149917
0.150642
0.151426
0.152267
0.153163
0.154112
0.155111
0.156159
0.157253
0.15839
0.15957
0.160789
0.162046
0.163337
0.16466
0.166014
0.167395
0.1688
0.170227
0.171672
0.173133
0.174604
0.176084
0.177566
0.179048
0.180523
0.181986
0.183433
0.184855
0.186247
0.187601
0.188909
0.190163
0.191352
0.192468
0.1935
0.194438
0.195269
0.195982
0.196564
0.197003
0.197285
0.197396
0.197323
0.197052
0.196569
0.195862
0.194918
0.193727
0.192279
0.190558
0.188554
0.186258
0.183663
0.180764
0.177557
0.174042
0.170218
0.166088
0.161657
0.156932
0.151921
0.146635
0.141085
0.135287
0.129255
0.123005
0.116551
0.109909
0.103092
0.0961094
0.0889633
0.0816471
0.0741328
0.066338
0.0582311
0.0496255
0.04022
0.0296875
0.0170577
0.00274367
0.00277953
0.0172705
0.0301545
0.0409989
0.0506804
0.0595796
0.0678968
0.0757396
0.0831637
0.0902285
0.0969718
0.103419
0.109594
0.11551
0.121177
0.126611
0.131824
0.136825
0.141624
0.146231
0.150658
0.154909
0.158991
0.162908
0.16667
0.170282
0.173749
0.177074
0.18026
0.183311
0.18623
0.18902
0.191683
0.194221
0.196636
0.198928
0.201098
0.203146
0.205072
0.206875
0.208555
0.210109
0.211538
0.212838
0.21401
0.215052
0.215962
0.216739
0.217383
0.217891
0.218265
0.218503
0.218606
0.218574
0.218409
0.218112
0.217685
0.217129
0.216449
0.215647
0.214726
0.213692
0.21255
0.211308
0.209968
0.208535
0.207015
0.205413
0.203737
0.201993
0.200187
0.198328
0.196422
0.194476
0.192497
0.190494
0.188472
0.18644
0.184403
0.18237
0.180347
0.178339
0.176355
0.174398
0.172476
0.170594
0.168757
0.16697
0.165237
0.163564
0.161954
0.160411
0.158937
0.157537
0.156213
0.154968
0.153802
0.152719
0.15172
0.150806
0.149977
0.149235
0.148579
0.14801
0.147528
0.147131
0.14682
0.146593
0.146449
0.146388
0.146407
0.146505
0.146681
0.146932
0.147256
0.147653
0.148119
0.148653
0.149253
0.149916
0.150641
0.151425
0.152266
0.153162
0.154111
0.15511
0.156158
0.157252
0.15839
0.159569
0.160788
0.162045
0.163336
0.164659
0.166013
0.167394
0.168799
0.170226
0.171671
0.173131
0.174603
0.176082
0.177565
0.179046
0.180522
0.181985
0.183431
0.184854
0.186246
0.1876
0.188908
0.190161
0.191351
0.192467
0.193499
0.194437
0.195268
0.195981
0.196564
0.197002
0.197284
0.197395
0.197322
0.197051
0.196569
0.195862
0.194917
0.193727
0.192278
0.190558
0.188554
0.186258
0.183663
0.180764
0.177557
0.174042
0.170218
0.166088
0.161657
0.156932
0.151921
0.146634
0.141085
0.135288
0.129256
0.123005
0.116551
0.109909
0.103092
0.0961092
0.0889629
0.0816465
0.0741323
0.0663375
0.0582308
0.0496255
0.0402201
0.0296876
0.0170578
0.00274369
0.00599273
0.0303606
0.0478312
0.0617482
0.0740366
0.0853105
0.0958419
0.105765
0.115174
0.124136
0.132695
0.140879
0.148716
0.156229
0.163433
0.170346
0.176982
0.183352
0.18947
0.195347
0.200993
0.206418
0.211628
0.216631
0.221435
0.226046
0.23047
0.234714
0.238779
0.242668
0.246385
0.249932
0.253312
0.256528
0.259581
0.262472
0.265203
0.267772
0.270181
0.272428
0.274513
0.276436
0.278195
0.279788
0.281216
0.282476
0.283567
0.284489
0.285241
0.285823
0.286234
0.286475
0.286545
0.286448
0.286183
0.285754
0.285163
0.284412
0.283506
0.28245
0.281247
0.279904
0.278426
0.276823
0.275098
0.273257
0.271309
0.26926
0.267117
0.26489
0.262587
0.260217
0.257788
0.25531
0.252791
0.25024
0.247667
0.24508
0.242489
0.239901
0.237326
0.234771
0.232245
0.229754
0.227307
0.224911
0.222573
0.220297
0.218092
0.215962
0.213913
0.211949
0.210074
0.208294
0.206611
0.205029
0.20355
0.202177
0.200912
0.199756
0.198711
0.197778
0.196957
0.196247
0.195651
0.195166
0.194791
0.194526
0.19437
0.19432
0.194375
0.194532
0.19479
0.195146
0.195599
0.196144
0.196781
0.197506
0.198316
0.199209
0.200182
0.201232
0.202356
0.203551
0.204815
0.206144
0.207536
0.208987
0.210495
0.212058
0.213671
0.215331
0.217037
0.218784
0.220569
0.222389
0.22424
0.226119
0.22802
0.229941
0.231875
0.233819
0.235767
0.237713
0.23965
0.241572
0.243472
0.245341
0.247171
0.248952
0.250675
0.252328
0.253901
0.25538
0.256754
0.258007
0.259127
0.260097
0.260903
0.261528
0.261956
0.262169
0.262151
0.261885
0.261353
0.26054
0.259429
0.258008
0.256259
0.254168
0.251721
0.248907
0.245716
0.242142
0.238178
0.233821
0.229071
0.22393
0.2184
0.212489
0.206203
0.199555
0.192554
0.185217
0.177555
0.169586
0.161325
0.152784
0.143976
0.134909
0.125585
0.115994
0.106109
0.0958734
0.0851967
0.0738807
0.0615948
0.0476972
0.0301791
0.00588775
0.00599299
0.0303615
0.0478316
0.0617483
0.0740365
0.0853102
0.0958415
0.105764
0.115174
0.124135
0.132694
0.140878
0.148715
0.156228
0.163432
0.170345
0.176981
0.183351
0.189469
0.195345
0.200992
0.206416
0.211627
0.21663
0.221433
0.226044
0.230468
0.234712
0.238777
0.242666
0.246382
0.249929
0.25331
0.256526
0.259579
0.26247
0.2652
0.267769
0.270178
0.272425
0.274511
0.276433
0.278192
0.279785
0.281213
0.282472
0.283564
0.284486
0.285238
0.28582
0.286231
0.286471
0.286542
0.286444
0.28618
0.28575
0.285159
0.284408
0.283503
0.282446
0.281243
0.2799
0.278423
0.276819
0.275094
0.273254
0.271305
0.269256
0.267114
0.264887
0.262584
0.260214
0.257785
0.255306
0.252787
0.250237
0.247664
0.245077
0.242486
0.239898
0.237323
0.234768
0.232242
0.229751
0.227305
0.224909
0.22257
0.220295
0.21809
0.21596
0.21391
0.211946
0.210072
0.208292
0.206609
0.205026
0.203548
0.202175
0.20091
0.199754
0.198709
0.197776
0.196955
0.196245
0.195649
0.195164
0.194789
0.194525
0.194368
0.194318
0.194373
0.19453
0.194788
0.195145
0.195597
0.196143
0.19678
0.197504
0.198315
0.199208
0.200181
0.201231
0.202355
0.20355
0.204814
0.206143
0.207535
0.208986
0.210495
0.212057
0.21367
0.21533
0.217036
0.218783
0.220568
0.222388
0.224239
0.226118
0.228019
0.22994
0.231874
0.233818
0.235766
0.237712
0.239649
0.241571
0.243471
0.24534
0.24717
0.248952
0.250674
0.252328
0.2539
0.25538
0.256753
0.258007
0.259126
0.260097
0.260903
0.261528
0.261956
0.262169
0.262151
0.261885
0.261353
0.26054
0.259429
0.258008
0.256259
0.254168
0.251721
0.248907
0.245716
0.242142
0.238178
0.233821
0.229071
0.22393
0.2184
0.212489
0.206203
0.199555
0.192555
0.185217
0.177556
0.169587
0.161325
0.152784
0.143976
0.13491
0.125585
0.115994
0.106109
0.0958735
0.0851967
0.0738807
0.0615948
0.0476972
0.0301792
0.00588775
0.00927198
0.0414292
0.062092
0.0779891
0.0918858
0.10462
0.116524
0.127771
0.138461
0.148661
0.15842
0.16777
0.176739
0.18535
0.19362
0.201566
0.209203
0.216545
0.223604
0.230392
0.236921
0.2432
0.249235
0.255035
0.260607
0.265957
0.271091
0.276015
0.280732
0.285244
0.289553
0.293661
0.29757
0.301283
0.304801
0.308125
0.311256
0.314194
0.316939
0.319491
0.321849
0.324013
0.325982
0.327756
0.329334
0.330715
0.331899
0.332886
0.333675
0.334267
0.334662
0.334861
0.334867
0.33468
0.334303
0.333738
0.33299
0.332062
0.330959
0.329686
0.328248
0.326653
0.324907
0.323019
0.320993
0.318839
0.316562
0.314173
0.311679
0.309091
0.306416
0.303666
0.300851
0.29798
0.295063
0.292111
0.289135
0.286143
0.283147
0.280155
0.277179
0.274226
0.271306
0.268428
0.265601
0.262832
0.26013
0.257501
0.254953
0.252492
0.250124
0.247855
0.245689
0.243633
0.241689
0.239862
0.238155
0.236571
0.235112
0.23378
0.232577
0.231504
0.230562
0.229751
0.22907
0.22852
0.228098
0.227805
0.227638
0.227595
0.227674
0.227874
0.228191
0.228624
0.229168
0.229823
0.230583
0.231447
0.232411
0.233472
0.234626
0.235871
0.237203
0.238618
0.240114
0.241686
0.243331
0.245047
0.246829
0.248674
0.250579
0.252539
0.254552
0.256613
0.258719
0.260865
0.263048
0.265262
0.267503
0.269766
0.272046
0.274336
0.27663
0.278922
0.281204
0.283469
0.285707
0.287909
0.290066
0.292166
0.294199
0.296151
0.298011
0.299762
0.301392
0.302884
0.304222
0.305389
0.306367
0.307137
0.307682
0.307983
0.308019
0.307772
0.307222
0.306352
0.305144
0.303582
0.301647
0.299324
0.296597
0.293454
0.289884
0.285879
0.281431
0.276538
0.271196
0.265407
0.259174
0.252501
0.245395
0.237865
0.229923
0.22158
0.212849
0.203744
0.194278
0.184464
0.174313
0.163833
0.153026
0.141885
0.130391
0.118497
0.106111
0.0930498
0.0789262
0.0627761
0.041774
0.00926576
0.00927232
0.0414299
0.0620922
0.0779888
0.0918853
0.104619
0.116524
0.12777
0.13846
0.14866
0.158419
0.167769
0.176738
0.185349
0.193619
0.201565
0.209202
0.216543
0.223602
0.230391
0.23692
0.243198
0.249233
0.255033
0.260605
0.265955
0.271089
0.276012
0.280729
0.285242
0.28955
0.293658
0.297567
0.30128
0.304798
0.308122
0.311253
0.314191
0.316936
0.319488
0.321846
0.32401
0.325979
0.327753
0.329331
0.330712
0.331896
0.332882
0.333671
0.334263
0.334658
0.334858
0.334863
0.334676
0.334299
0.333735
0.332986
0.332059
0.330955
0.329682
0.328245
0.32665
0.324904
0.323015
0.32099
0.318835
0.316559
0.314169
0.311676
0.309087
0.306413
0.303663
0.300847
0.297976
0.29506
0.292108
0.289132
0.28614
0.283144
0.280152
0.277176
0.274223
0.271303
0.268425
0.265598
0.26283
0.260127
0.257498
0.25495
0.252489
0.250121
0.247852
0.245687
0.243631
0.241687
0.23986
0.238153
0.236569
0.23511
0.233779
0.232576
0.231503
0.23056
0.229749
0.229069
0.228518
0.228097
0.227803
0.227636
0.227593
0.227673
0.227873
0.22819
0.228622
0.229167
0.229821
0.230582
0.231446
0.23241
0.233471
0.234625
0.23587
0.237202
0.238617
0.240113
0.241685
0.243331
0.245046
0.246828
0.248673
0.250578
0.252538
0.254551
0.256612
0.258718
0.260864
0.263047
0.265261
0.267503
0.269766
0.272045
0.274335
0.27663
0.278921
0.281204
0.283468
0.285706
0.287908
0.290065
0.292166
0.294199
0.296151
0.29801
0.299762
0.301392
0.302884
0.304221
0.305388
0.306366
0.307137
0.307682
0.307983
0.308019
0.307772
0.307222
0.306352
0.305144
0.303582
0.301647
0.299324
0.296597
0.293454
0.289884
0.285879
0.281431
0.276538
0.271197
0.265408
0.259174
0.252501
0.245395
0.237866
0.229924
0.221581
0.21285
0.203745
0.194279
0.184465
0.174314
0.163833
0.153026
0.141886
0.130392
0.118497
0.106112
0.0930499
0.0789262
0.062776
0.041774
0.00926573
0.0125092
0.0514102
0.0749042
0.092518
0.107743
0.121644
0.134629
0.146912
0.158608
0.16979
0.180507
0.190794
0.200678
0.210181
0.219322
0.228118
0.236584
0.244732
0.252577
0.260131
0.267403
0.274404
0.281139
0.287617
0.293845
0.299827
0.305569
0.311076
0.316351
0.321397
0.326213
0.3308
0.335159
0.339293
0.343201
0.346886
0.350347
0.353584
0.356598
0.359388
0.361955
0.364299
0.366418
0.368314
0.369987
0.371436
0.372662
0.373666
0.374449
0.375011
0.375355
0.375483
0.375396
0.375097
0.374591
0.373879
0.372968
0.371861
0.370564
0.369082
0.367424
0.365595
0.363603
0.361457
0.359164
0.356731
0.354168
0.351483
0.348685
0.345786
0.342794
0.339722
0.336578
0.333375
0.330124
0.326835
0.32352
0.320189
0.316853
0.313524
0.310211
0.306925
0.303676
0.300474
0.297327
0.294246
0.291237
0.28831
0.285472
0.282731
0.280092
0.277563
0.275149
0.272855
0.270686
0.268646
0.266739
0.264969
0.263337
0.261847
0.260501
0.259299
0.258243
0.257332
0.256567
0.255947
0.25547
0.255136
0.254943
0.254889
0.254971
0.255188
0.255537
0.256014
0.256617
0.257342
0.258187
0.259147
0.26022
0.261401
0.262688
0.264076
0.265561
0.26714
0.268809
0.270565
0.272403
0.27432
0.276311
0.278373
0.280503
0.282695
0.284945
0.287251
0.289606
0.292006
0.294448
0.296924
0.299431
0.301963
0.304512
0.307074
0.30964
0.312203
0.314755
0.317288
0.31979
0.322253
0.324666
0.327015
0.329289
0.331474
0.333556
0.335519
0.337346
0.339022
0.340528
0.341846
0.342956
0.343839
0.344474
0.344842
0.344921
0.344691
0.344133
0.343225
0.34195
0.340291
0.338227
0.335742
0.332821
0.329451
0.32562
0.32132
0.316542
0.311282
0.305537
0.299306
0.292591
0.285395
0.277724
0.269583
0.260981
0.251927
0.242432
0.232505
0.222156
0.211398
0.200237
0.188683
0.176739
0.164402
0.151654
0.138456
0.124715
0.110234
0.0945643
0.0765522
0.0525804
0.0127833
0.0125096
0.0514108
0.0749042
0.0925175
0.107742
0.121643
0.134628
0.146911
0.158607
0.169789
0.180506
0.190792
0.200676
0.21018
0.219321
0.228117
0.236582
0.244731
0.252575
0.260129
0.267402
0.274402
0.281137
0.287615
0.293843
0.299825
0.305567
0.311074
0.316349
0.321395
0.326211
0.330797
0.335157
0.33929
0.343199
0.346883
0.350344
0.353581
0.356595
0.359385
0.361952
0.364296
0.366415
0.368311
0.369984
0.371433
0.372659
0.373663
0.374445
0.375008
0.375352
0.375479
0.375392
0.375094
0.374587
0.373876
0.372964
0.371857
0.37056
0.369079
0.36742
0.365591
0.3636
0.361454
0.359161
0.356728
0.354165
0.351479
0.348682
0.345783
0.342791
0.339719
0.336575
0.333372
0.330121
0.326832
0.323517
0.320186
0.31685
0.313521
0.310208
0.306923
0.303674
0.300471
0.297325
0.294243
0.291235
0.288308
0.28547
0.282729
0.28009
0.277561
0.275147
0.272853
0.270684
0.268644
0.266737
0.264967
0.263336
0.261845
0.260499
0.259297
0.258241
0.257331
0.256566
0.255945
0.255469
0.255135
0.254942
0.254888
0.25497
0.255187
0.255536
0.256013
0.256616
0.257341
0.258186
0.259146
0.260219
0.261401
0.262687
0.264075
0.26556
0.267139
0.268809
0.270564
0.272402
0.274319
0.276311
0.278373
0.280502
0.282694
0.284945
0.28725
0.289605
0.292006
0.294447
0.296924
0.299431
0.301962
0.304512
0.307073
0.309639
0.312203
0.314755
0.317287
0.31979
0.322253
0.324665
0.327015
0.329289
0.331474
0.333556
0.335518
0.337346
0.339022
0.340528
0.341846
0.342956
0.343839
0.344474
0.344842
0.344921
0.344691
0.344133
0.343225
0.341951
0.340291
0.338227
0.335742
0.332821
0.329451
0.32562
0.32132
0.316542
0.311282
0.305537
0.299306
0.292592
0.285396
0.277724
0.269583
0.260982
0.251928
0.242432
0.232505
0.222157
0.211398
0.200238
0.188684
0.17674
0.164402
0.151654
0.138456
0.124715
0.110234
0.0945644
0.0765521
0.0525803
0.0127832
0.0157525
0.0608075
0.087004
0.106283
0.122769
0.13774
0.151706
0.164917
0.177509
0.189562
0.201129
0.212249
0.222949
0.23325
0.243173
0.252734
0.261948
0.270829
0.27939
0.287643
0.295597
0.303261
0.310642
0.317747
0.324582
0.331152
0.33746
0.343511
0.349305
0.354846
0.360133
0.365163
0.369938
0.374458
0.378724
0.382735
0.386492
0.389995
0.393244
0.396239
0.39898
0.401468
0.403703
0.405686
0.407418
0.408902
0.410137
0.411126
0.411871
0.412375
0.41264
0.412669
0.412467
0.412036
0.411381
0.410507
0.409419
0.408122
0.406624
0.404931
0.40305
0.400988
0.398756
0.39636
0.393809
0.391111
0.388276
0.385313
0.382231
0.379043
0.375758
0.372388
0.368943
0.365437
0.361879
0.358282
0.354658
0.351018
0.347374
0.343737
0.340118
0.336528
0.332978
0.329479
0.326039
0.32267
0.319379
0.316176
0.313069
0.310065
0.307173
0.304398
0.301747
0.299225
0.296839
0.294592
0.292488
0.290532
0.288727
0.287075
0.285579
0.284239
0.283057
0.282033
0.281167
0.280457
0.279904
0.279506
0.279262
0.279168
0.279223
0.279425
0.27977
0.280256
0.280879
0.281635
0.282522
0.283536
0.284672
0.285928
0.287298
0.28878
0.290368
0.29206
0.29385
0.295736
0.297711
0.299773
0.301918
0.30414
0.306436
0.308801
0.31123
0.313719
0.316263
0.318858
0.321496
0.324174
0.326885
0.329622
0.33238
0.335151
0.337926
0.340699
0.343459
0.346198
0.348904
0.351567
0.354175
0.356715
0.359173
0.361534
0.363784
0.365905
0.367881
0.369693
0.371323
0.372751
0.373957
0.374921
0.37562
0.376035
0.376143
0.375924
0.375356
0.37442
0.373097
0.371367
0.369213
0.366616
0.363563
0.36004
0.356034
0.351538
0.346542
0.341041
0.335031
0.328511
0.321478
0.313935
0.305883
0.297327
0.288269
0.278715
0.268671
0.258142
0.247135
0.235656
0.223712
0.211308
0.198448
0.185129
0.171336
0.15703
0.142111
0.126359
0.109259
0.0894773
0.0626932
0.016464
0.0157529
0.060808
0.0870038
0.106282
0.122769
0.137739
0.151705
0.164916
0.177507
0.189561
0.201128
0.212248
0.222947
0.233249
0.243172
0.252733
0.261947
0.270828
0.279388
0.287641
0.295595
0.303259
0.31064
0.317745
0.32458
0.33115
0.337458
0.343508
0.349303
0.354844
0.36013
0.365161
0.369935
0.374456
0.378721
0.382733
0.38649
0.389993
0.393241
0.396236
0.398977
0.401465
0.4037
0.405683
0.407416
0.408899
0.410134
0.411123
0.411868
0.412372
0.412637
0.412666
0.412464
0.412033
0.411378
0.410504
0.409415
0.408119
0.406621
0.404928
0.403046
0.400985
0.398753
0.396357
0.393806
0.391108
0.388273
0.38531
0.382229
0.37904
0.375755
0.372385
0.368941
0.365434
0.361876
0.35828
0.354656
0.351016
0.347371
0.343734
0.340115
0.336526
0.332976
0.329477
0.326037
0.322668
0.319377
0.316174
0.313067
0.310063
0.307171
0.304396
0.301745
0.299224
0.296837
0.29459
0.292487
0.29053
0.288725
0.287074
0.285577
0.284238
0.283056
0.282032
0.281165
0.280456
0.279903
0.279505
0.279261
0.279167
0.279222
0.279424
0.279769
0.280255
0.280878
0.281634
0.282521
0.283535
0.284672
0.285927
0.287298
0.288779
0.290368
0.292059
0.29385
0.295735
0.297711
0.299773
0.301917
0.30414
0.306435
0.3088
0.31123
0.313719
0.316263
0.318857
0.321496
0.324174
0.326884
0.329622
0.33238
0.33515
0.337926
0.340698
0.343459
0.346197
0.348904
0.351567
0.354175
0.356714
0.359172
0.361534
0.363784
0.365905
0.367881
0.369693
0.371323
0.372751
0.373957
0.374921
0.37562
0.376035
0.376143
0.375924
0.375356
0.37442
0.373097
0.371368
0.369213
0.366617
0.363563
0.36004
0.356035
0.351538
0.346542
0.341041
0.335032
0.328511
0.321478
0.313935
0.305884
0.297327
0.288269
0.278716
0.268671
0.258142
0.247135
0.235657
0.223712
0.211308
0.198448
0.185129
0.171337
0.15703
0.142111
0.126359
0.109259
0.0894772
0.0626931
0.0164639
0.0190726
0.0699416
0.0987772
0.119731
0.137493
0.153535
0.168465
0.182576
0.196027
0.208912
0.221289
0.2332
0.244674
0.255736
0.266404
0.276696
0.286627
0.296211
0.305461
0.314389
0.323003
0.331311
0.339321
0.347037
0.354465
0.361609
0.368472
0.375055
0.381359
0.387385
0.393131
0.398594
0.403774
0.40867
0.413281
0.417606
0.421646
0.4254
0.428867
0.432049
0.434945
0.437558
0.439888
0.441937
0.443707
0.445202
0.446423
0.447373
0.448058
0.44848
0.448643
0.448552
0.448213
0.447629
0.446807
0.445752
0.444472
0.442972
0.44126
0.439344
0.437231
0.43493
0.432451
0.429802
0.426991
0.424028
0.420922
0.417683
0.414323
0.410851
0.407279
0.403618
0.399881
0.39608
0.392225
0.388331
0.384408
0.380469
0.376526
0.372591
0.368675
0.364791
0.360948
0.357159
0.353433
0.349781
0.346212
0.342735
0.33936
0.336095
0.332946
0.329922
0.32703
0.324274
0.321661
0.319196
0.316884
0.314729
0.312734
0.310903
0.309237
0.307738
0.306407
0.305244
0.304249
0.303422
0.302762
0.302268
0.301938
0.301769
0.30176
0.301908
0.30221
0.302663
0.303263
0.304007
0.304891
0.305912
0.307065
0.308346
0.309752
0.311277
0.312918
0.31467
0.31653
0.318491
0.320551
0.322705
0.324947
0.327274
0.329681
0.332163
0.334714
0.337331
0.340007
0.342738
0.345516
0.348338
0.351195
0.354081
0.356989
0.35991
0.362838
0.365762
0.368673
0.371562
0.374415
0.377223
0.379971
0.382647
0.385236
0.387722
0.390089
0.392321
0.394399
0.396304
0.398017
0.399517
0.400785
0.401798
0.402536
0.402977
0.403099
0.402882
0.402304
0.401345
0.399986
0.398209
0.395995
0.393328
0.390193
0.386578
0.38247
0.37786
0.37274
0.367103
0.360944
0.354258
0.347043
0.339297
0.331017
0.322204
0.312855
0.302971
0.292551
0.281596
0.270106
0.258082
0.245526
0.232441
0.218827
0.204681
0.189986
0.174697
0.158704
0.14176
0.123282
0.101761
0.0723272
0.0201604
0.0190731
0.0699419
0.0987769
0.11973
0.137492
0.153534
0.168463
0.182575
0.196026
0.20891
0.221288
0.233198
0.244673
0.255734
0.266403
0.276695
0.286626
0.29621
0.30546
0.314388
0.323002
0.33131
0.339319
0.347035
0.354463
0.361607
0.36847
0.375053
0.381357
0.387383
0.393129
0.398592
0.403772
0.408667
0.413278
0.417604
0.421644
0.425397
0.428865
0.432046
0.434943
0.437555
0.439885
0.441934
0.443705
0.445199
0.44642
0.447371
0.448055
0.448477
0.44864
0.448549
0.44821
0.447626
0.446804
0.44575
0.444469
0.442969
0.441257
0.439341
0.437228
0.434928
0.432448
0.429799
0.426988
0.424025
0.420919
0.417681
0.41432
0.410848
0.407276
0.403616
0.399879
0.396077
0.392223
0.388329
0.384406
0.380467
0.376524
0.372589
0.368673
0.364789
0.360946
0.357157
0.353431
0.349779
0.34621
0.342734
0.339359
0.336093
0.332945
0.329921
0.327028
0.324273
0.32166
0.319195
0.316882
0.314727
0.312733
0.310902
0.309236
0.307737
0.306406
0.305243
0.304248
0.303421
0.302761
0.302267
0.301937
0.301768
0.301759
0.301907
0.302209
0.302662
0.303262
0.304006
0.304891
0.305911
0.307064
0.308346
0.309751
0.311277
0.312918
0.31467
0.316529
0.318491
0.320551
0.322704
0.324947
0.327274
0.329681
0.332162
0.334714
0.337331
0.340007
0.342737
0.345516
0.348337
0.351194
0.35408
0.356988
0.35991
0.362838
0.365762
0.368673
0.371561
0.374415
0.377223
0.379971
0.382647
0.385236
0.387722
0.390089
0.392321
0.394399
0.396304
0.398017
0.399517
0.400785
0.401798
0.402536
0.402977
0.4031
0.402882
0.402304
0.401345
0.399987
0.39821
0.395996
0.393328
0.390194
0.386578
0.38247
0.37786
0.37274
0.367103
0.360944
0.354258
0.347043
0.339297
0.331017
0.322204
0.312855
0.302971
0.292552
0.281596
0.270106
0.258082
0.245526
0.232441
0.218827
0.204681
0.189986
0.174697
0.158704
0.14176
0.123281
0.101761
0.0723271
0.0201604
0.0225401
0.0789976
0.110482
0.133158
0.152236
0.169386
0.185305
0.200331
0.214648
0.228365
0.241549
0.254247
0.266491
0.278308
0.289718
0.300738
0.311384
0.321671
0.331612
0.341217
0.350494
0.359451
0.368094
0.376428
0.384456
0.392182
0.399606
0.406729
0.41355
0.420067
0.426279
0.43218
0.437768
0.443042
0.447999
0.452639
0.45696
0.460961
0.464642
0.468005
0.471049
0.473776
0.476189
0.478291
0.480085
0.481575
0.482765
0.48366
0.484265
0.484586
0.484629
0.484399
0.483903
0.483147
0.482139
0.480886
0.479396
0.477676
0.475734
0.473579
0.47122
0.468667
0.465929
0.463015
0.459935
0.456697
0.453313
0.449792
0.446145
0.442383
0.438519
0.434564
0.43053
0.42643
0.422276
0.41808
0.413856
0.409614
0.405369
0.401132
0.396915
0.39273
0.388589
0.384504
0.380484
0.376541
0.372684
0.368924
0.365269
0.361728
0.35831
0.355021
0.351869
0.348861
0.346002
0.343297
0.340754
0.338375
0.336165
0.334127
0.332262
0.330573
0.32906
0.327725
0.326567
0.325587
0.324782
0.324153
0.323697
0.323412
0.323297
0.323347
0.323561
0.323936
0.324467
0.325151
0.325984
0.326963
0.328083
0.329339
0.330729
0.332246
0.333887
0.335648
0.337523
0.339507
0.341597
0.343788
0.346074
0.348451
0.350913
0.353457
0.356075
0.358763
0.361516
0.364327
0.36719
0.370098
0.373046
0.376024
0.379027
0.382044
0.385068
0.388089
0.391096
0.394079
0.397026
0.399925
0.402761
0.405522
0.408191
0.410752
0.41319
0.415486
0.417621
0.419578
0.421334
0.422872
0.424168
0.425203
0.425955
0.426403
0.426525
0.4263
0.425709
0.424732
0.423349
0.421543
0.419297
0.416595
0.413424
0.40977
0.405623
0.400973
0.395811
0.39013
0.383921
0.37718
0.3699
0.362074
0.353698
0.344764
0.335265
0.325195
0.314547
0.303313
0.291487
0.279063
0.266039
0.25241
0.238173
0.223321
0.207833
0.191655
0.174664
0.156582
0.13676
0.113533
0.0815534
0.0238403
0.0225405
0.0789978
0.110481
0.133157
0.152235
0.169385
0.185303
0.200329
0.214647
0.228363
0.241548
0.254246
0.26649
0.278307
0.289716
0.300736
0.311383
0.32167
0.33161
0.341215
0.350492
0.359449
0.368092
0.376426
0.384454
0.39218
0.399604
0.406727
0.413548
0.420065
0.426277
0.432178
0.437766
0.44304
0.447997
0.452637
0.456958
0.460959
0.46464
0.468002
0.471046
0.473773
0.476187
0.478288
0.480082
0.481572
0.482762
0.483657
0.484263
0.484584
0.484626
0.484396
0.4839
0.483145
0.482137
0.480884
0.479393
0.477673
0.475731
0.473577
0.471218
0.468665
0.465927
0.463013
0.459933
0.456695
0.45331
0.449789
0.446142
0.442381
0.438517
0.434562
0.430528
0.426428
0.422274
0.418078
0.413854
0.409612
0.405367
0.40113
0.396913
0.392728
0.388588
0.384502
0.380482
0.376539
0.372682
0.368922
0.365267
0.361727
0.358308
0.35502
0.351868
0.34886
0.346
0.343296
0.340753
0.338374
0.336164
0.334126
0.332261
0.330572
0.32906
0.327724
0.326567
0.325586
0.324781
0.324152
0.323696
0.323411
0.323296
0.323347
0.323561
0.323935
0.324466
0.32515
0.325984
0.326962
0.328082
0.329339
0.330728
0.332246
0.333887
0.335647
0.337522
0.339507
0.341597
0.343787
0.346074
0.34845
0.350913
0.353456
0.356075
0.358763
0.361516
0.364326
0.367189
0.370098
0.373045
0.376024
0.379026
0.382044
0.385068
0.388089
0.391096
0.394079
0.397026
0.399925
0.402761
0.405521
0.40819
0.410752
0.41319
0.415486
0.417621
0.419578
0.421334
0.422872
0.424168
0.425203
0.425955
0.426403
0.426525
0.4263
0.425709
0.424732
0.423349
0.421543
0.419297
0.416596
0.413424
0.409771
0.405624
0.400974
0.395812
0.39013
0.383922
0.37718
0.3699
0.362075
0.353698
0.344764
0.335265
0.325196
0.314547
0.303313
0.291487
0.279063
0.266039
0.25241
0.238173
0.223321
0.207833
0.191655
0.174664
0.156582
0.13676
0.113533
0.0815532
0.0238403
0.0261831
0.0881536
0.122317
0.146773
0.167227
0.18554
0.202493
0.218472
0.233687
0.248263
0.262278
0.275783
0.288818
0.301408
0.313578
0.325345
0.336727
0.347737
0.358388
0.368692
0.378654
0.388282
0.39758
0.406553
0.415204
0.423533
0.431539
0.439222
0.44658
0.453607
0.4603
0.466654