/*--------------------------------*- C++ -*----------------------------------*\
  =========                 |
  \\      /  F ield         | OpenFOAM: The Open Source CFD Toolbox
   \\    /   O peration     | Website:  https://openfoam.org
    \\  /    A nd           | Version:  8
     \\/     M anipulation  |
\*---------------------------------------------------------------------------*/
FoamFile
{
    version     2.0;
    format      ascii;
    class       volScalarField;
    location    "1700";
    object      nut;
}
// * * * * * * * * * * * * * * * * * * * * * * * * * * * * * * * * * * * * * //

dimensions      [0 2 -1 0 0 0 0];

internalField   nonuniform List<scalar> 
46000
(
4.0035e-08
2.0735e-07
4.45213e-07
6.90491e-07
9.3246e-07
1.17035e-06
1.40443e-06
1.63548e-06
1.86288e-06
2.08526e-06
2.30242e-06
2.51417e-06
2.72039e-06
2.92093e-06
3.11562e-06
3.30448e-06
3.48752e-06
3.6648e-06
3.83635e-06
4.0025e-06
4.16532e-06
4.3231e-06
4.47562e-06
4.62305e-06
4.76554e-06
4.90322e-06
5.03615e-06
5.16436e-06
5.2879e-06
5.40682e-06
5.52116e-06
5.63096e-06
5.73623e-06
5.83698e-06
5.93322e-06
6.02491e-06
6.11203e-06
6.19452e-06
6.27233e-06
6.34538e-06
6.4136e-06
6.47691e-06
6.53521e-06
6.58843e-06
6.63648e-06
6.67928e-06
6.71674e-06
6.7488e-06
6.77541e-06
6.79651e-06
6.81209e-06
6.82212e-06
6.82661e-06
6.8256e-06
6.81911e-06
6.80723e-06
6.79003e-06
6.76762e-06
6.74012e-06
6.70767e-06
6.67043e-06
6.62869e-06
6.58337e-06
6.53495e-06
6.48263e-06
6.42657e-06
6.36702e-06
6.30426e-06
6.23858e-06
6.17029e-06
6.09965e-06
6.02697e-06
5.95255e-06
5.87671e-06
5.79975e-06
5.72194e-06
5.6436e-06
5.56502e-06
5.48647e-06
5.40821e-06
5.33052e-06
5.25364e-06
5.17781e-06
5.10325e-06
5.03018e-06
4.9588e-06
4.88929e-06
4.82182e-06
4.75656e-06
4.69366e-06
4.63325e-06
4.57545e-06
4.52035e-06
4.46806e-06
4.41865e-06
4.37219e-06
4.32873e-06
4.28834e-06
4.25104e-06
4.21686e-06
4.18582e-06
4.15792e-06
4.13315e-06
4.11149e-06
4.09294e-06
4.07746e-06
4.06502e-06
4.05559e-06
4.04912e-06
4.04554e-06
4.0448e-06
4.04684e-06
4.05161e-06
4.05906e-06
4.06912e-06
4.08173e-06
4.09682e-06
4.11433e-06
4.13419e-06
4.15634e-06
4.18071e-06
4.20722e-06
4.2358e-06
4.26639e-06
4.29893e-06
4.33336e-06
4.36958e-06
4.40753e-06
4.44713e-06
4.48833e-06
4.53107e-06
4.57526e-06
4.62081e-06
4.66766e-06
4.71572e-06
4.76491e-06
4.81513e-06
4.86625e-06
4.91816e-06
4.97075e-06
5.02388e-06
5.07742e-06
5.1312e-06
5.18504e-06
5.23875e-06
5.29211e-06
5.34491e-06
5.39688e-06
5.44775e-06
5.49721e-06
5.54492e-06
5.59055e-06
5.63371e-06
5.67399e-06
5.71099e-06
5.74425e-06
5.77332e-06
5.79768e-06
5.81682e-06
5.83022e-06
5.83733e-06
5.8376e-06
5.83051e-06
5.81552e-06
5.79208e-06
5.7597e-06
5.71801e-06
5.66779e-06
5.6088e-06
5.53962e-06
5.45977e-06
5.36902e-06
5.26725e-06
5.15444e-06
5.03063e-06
4.896e-06
4.75079e-06
4.59537e-06
4.43019e-06
4.2558e-06
4.07288e-06
3.88218e-06
3.68454e-06
3.48087e-06
3.27213e-06
3.05933e-06
2.84352e-06
2.62573e-06
2.40694e-06
2.18803e-06
1.96914e-06
1.75063e-06
1.53491e-06
1.31939e-06
1.10362e-06
8.86111e-07
6.7012e-07
4.44686e-07
2.1442e-07
4.17142e-08
4.0036e-08
2.07363e-07
4.45238e-07
6.90521e-07
9.32492e-07
1.17038e-06
1.40445e-06
1.63547e-06
1.86286e-06
2.08523e-06
2.3024e-06
2.51416e-06
2.72042e-06
2.92099e-06
3.1157e-06
3.30458e-06
3.48763e-06
3.66491e-06
3.83643e-06
4.00233e-06
4.16515e-06
4.3229e-06
4.4754e-06
4.62282e-06
4.76528e-06
4.90295e-06
5.03587e-06
5.16407e-06
5.28761e-06
5.40655e-06
5.52092e-06
5.63075e-06
5.73606e-06
5.83685e-06
5.93312e-06
6.02485e-06
6.112e-06
6.19452e-06
6.27236e-06
6.34544e-06
6.41368e-06
6.477e-06
6.53531e-06
6.58853e-06
6.63657e-06
6.67935e-06
6.7168e-06
6.74886e-06
6.77546e-06
6.79656e-06
6.81214e-06
6.82217e-06
6.82667e-06
6.82566e-06
6.81917e-06
6.80729e-06
6.79008e-06
6.76766e-06
6.74016e-06
6.7077e-06
6.67046e-06
6.62873e-06
6.58342e-06
6.535e-06
6.48268e-06
6.42662e-06
6.36707e-06
6.3043e-06
6.23862e-06
6.17031e-06
6.09966e-06
6.02698e-06
5.95257e-06
5.87673e-06
5.79975e-06
5.72195e-06
5.64362e-06
5.56504e-06
5.48648e-06
5.40821e-06
5.33052e-06
5.25364e-06
5.17781e-06
5.10325e-06
5.03017e-06
4.95879e-06
4.88928e-06
4.82181e-06
4.75656e-06
4.69366e-06
4.63324e-06
4.57544e-06
4.52034e-06
4.46805e-06
4.41863e-06
4.37217e-06
4.32871e-06
4.28832e-06
4.25102e-06
4.21683e-06
4.18578e-06
4.15786e-06
4.13308e-06
4.11142e-06
4.09286e-06
4.07737e-06
4.06492e-06
4.05548e-06
4.049e-06
4.04541e-06
4.04466e-06
4.0467e-06
4.05147e-06
4.05892e-06
4.069e-06
4.08163e-06
4.09674e-06
4.11426e-06
4.13414e-06
4.15629e-06
4.18066e-06
4.20717e-06
4.23575e-06
4.26634e-06
4.29888e-06
4.33331e-06
4.36954e-06
4.40749e-06
4.44711e-06
4.48832e-06
4.53105e-06
4.57522e-06
4.62075e-06
4.66759e-06
4.71565e-06
4.76484e-06
4.81505e-06
4.86617e-06
4.9181e-06
4.97069e-06
5.02384e-06
5.07737e-06
5.13115e-06
5.18498e-06
5.23867e-06
5.29203e-06
5.34482e-06
5.3968e-06
5.44767e-06
5.49714e-06
5.54487e-06
5.59051e-06
5.63367e-06
5.67396e-06
5.71096e-06
5.74421e-06
5.77326e-06
5.79762e-06
5.81675e-06
5.83014e-06
5.83726e-06
5.83756e-06
5.83049e-06
5.81551e-06
5.79208e-06
5.7597e-06
5.718e-06
5.66779e-06
5.60878e-06
5.53959e-06
5.45973e-06
5.36898e-06
5.26722e-06
5.15441e-06
5.03061e-06
4.89598e-06
4.75078e-06
4.59535e-06
4.43017e-06
4.25578e-06
4.07286e-06
3.88217e-06
3.68453e-06
3.48086e-06
3.27212e-06
3.05934e-06
2.84353e-06
2.62575e-06
2.40696e-06
2.18805e-06
1.96916e-06
1.75065e-06
1.53492e-06
1.31939e-06
1.10361e-06
8.86115e-07
6.70127e-07
4.44689e-07
2.14422e-07
4.17148e-08
1.90923e-07
8.7948e-06
1.89894e-05
2.62176e-05
3.18501e-05
3.65506e-05
4.06284e-05
4.42292e-05
4.7439e-05
5.03576e-05
5.3039e-05
5.55179e-05
5.78212e-05
5.9969e-05
6.19774e-05
6.38601e-05
6.5628e-05
6.72902e-05
6.8854e-05
7.0321e-05
7.16846e-05
7.29638e-05
7.41687e-05
7.53064e-05
7.63825e-05
7.74016e-05
7.83678e-05
7.92848e-05
8.01555e-05
8.09824e-05
8.17678e-05
8.25138e-05
8.32221e-05
8.38942e-05
8.45313e-05
8.51345e-05
8.57047e-05
8.62422e-05
8.67477e-05
8.72214e-05
8.76634e-05
8.80739e-05
8.84527e-05
8.87999e-05
8.91154e-05
8.93989e-05
8.96503e-05
8.98694e-05
9.0056e-05
9.021e-05
9.03312e-05
9.04196e-05
9.04752e-05
9.0498e-05
9.04882e-05
9.04458e-05
9.03713e-05
9.02647e-05
9.01266e-05
8.9957e-05
8.97557e-05
8.95214e-05
8.92488e-05
8.89427e-05
8.86085e-05
8.8249e-05
8.78659e-05
8.74607e-05
8.70347e-05
8.65896e-05
8.61267e-05
8.56476e-05
8.51539e-05
8.46473e-05
8.41294e-05
8.3602e-05
8.30667e-05
8.25252e-05
8.19795e-05
8.1431e-05
8.08816e-05
8.03331e-05
7.97871e-05
7.92453e-05
7.87093e-05
7.81808e-05
7.76612e-05
7.71521e-05
7.6655e-05
7.61711e-05
7.57018e-05
7.52483e-05
7.48116e-05
7.4393e-05
7.39933e-05
7.36134e-05
7.32543e-05
7.29166e-05
7.26009e-05
7.23077e-05
7.20375e-05
7.17906e-05
7.15671e-05
7.13671e-05
7.11908e-05
7.10381e-05
7.09088e-05
7.08027e-05
7.07194e-05
7.06587e-05
7.06201e-05
7.06032e-05
7.06074e-05
7.06323e-05
7.06772e-05
7.07416e-05
7.08247e-05
7.0926e-05
7.10448e-05
7.11804e-05
7.13321e-05
7.14991e-05
7.16808e-05
7.18765e-05
7.20857e-05
7.23076e-05
7.25412e-05
7.2786e-05
7.30412e-05
7.33063e-05
7.35807e-05
7.38635e-05
7.41541e-05
7.44516e-05
7.47554e-05
7.50646e-05
7.53785e-05
7.5696e-05
7.60163e-05
7.63384e-05
7.66615e-05
7.69844e-05
7.73058e-05
7.76246e-05
7.79394e-05
7.82487e-05
7.85511e-05
7.8845e-05
7.91284e-05
7.93994e-05
7.96561e-05
7.98962e-05
8.01176e-05
8.03178e-05
8.04945e-05
8.0645e-05
8.07666e-05
8.08564e-05
8.09114e-05
8.09286e-05
8.09048e-05
8.0837e-05
8.0722e-05
8.05564e-05
8.03369e-05
8.00596e-05
7.97195e-05
7.93065e-05
7.88151e-05
7.82469e-05
7.76016e-05
7.68777e-05
7.60733e-05
7.51869e-05
7.42167e-05
7.31614e-05
7.20197e-05
7.07909e-05
6.94742e-05
6.8069e-05
6.65751e-05
6.49924e-05
6.33206e-05
6.15597e-05
5.97091e-05
5.77679e-05
5.57347e-05
5.36067e-05
5.13795e-05
4.90467e-05
4.65994e-05
4.40163e-05
4.1247e-05
3.82177e-05
3.48024e-05
3.07125e-05
2.54006e-05
1.83868e-05
8.40643e-06
1.87199e-07
1.90929e-07
8.79581e-06
1.89912e-05
2.62197e-05
3.18522e-05
3.65528e-05
4.06304e-05
4.42309e-05
4.74406e-05
5.03592e-05
5.30408e-05
5.552e-05
5.78237e-05
5.9972e-05
6.19809e-05
6.38639e-05
6.5632e-05
6.72943e-05
6.88576e-05
7.03227e-05
7.1686e-05
7.29652e-05
7.417e-05
7.53078e-05
7.63838e-05
7.74029e-05
7.83692e-05
7.92862e-05
8.0157e-05
8.0984e-05
8.17697e-05
8.25159e-05
8.32245e-05
8.38968e-05
8.45342e-05
8.51377e-05
8.57081e-05
8.62459e-05
8.67516e-05
8.72254e-05
8.76677e-05
8.80782e-05
8.84572e-05
8.88045e-05
8.91199e-05
8.94034e-05
8.96548e-05
8.98738e-05
9.00605e-05
9.02145e-05
9.03358e-05
9.04243e-05
9.04799e-05
9.05028e-05
9.04929e-05
9.04505e-05
9.03759e-05
9.02693e-05
9.01311e-05
8.99615e-05
8.97603e-05
8.95259e-05
8.92535e-05
8.89474e-05
8.86132e-05
8.82537e-05
8.78705e-05
8.74651e-05
8.7039e-05
8.65937e-05
8.61307e-05
8.56515e-05
8.51578e-05
8.46512e-05
8.41333e-05
8.36058e-05
8.30705e-05
8.2529e-05
8.19831e-05
8.14346e-05
8.08852e-05
8.03366e-05
7.97906e-05
7.92487e-05
7.87127e-05
7.81842e-05
7.76646e-05
7.71554e-05
7.66582e-05
7.61742e-05
7.57048e-05
7.52511e-05
7.48144e-05
7.43956e-05
7.39958e-05
7.36158e-05
7.32566e-05
7.29187e-05
7.26029e-05
7.23095e-05
7.20391e-05
7.17919e-05
7.15681e-05
7.13678e-05
7.11914e-05
7.10384e-05
7.09089e-05
7.08025e-05
7.0719e-05
7.06581e-05
7.06193e-05
7.06022e-05
7.06064e-05
7.06313e-05
7.06763e-05
7.07409e-05
7.08243e-05
7.09258e-05
7.10447e-05
7.11804e-05
7.13322e-05
7.14992e-05
7.16809e-05
7.18767e-05
7.20859e-05
7.23078e-05
7.25415e-05
7.27863e-05
7.30416e-05
7.33067e-05
7.35809e-05
7.38636e-05
7.41539e-05
7.44513e-05
7.47549e-05
7.50641e-05
7.53778e-05
7.56953e-05
7.60156e-05
7.63378e-05
7.66608e-05
7.69837e-05
7.73051e-05
7.76237e-05
7.79383e-05
7.82476e-05
7.85499e-05
7.88437e-05
7.91271e-05
7.93982e-05
7.96549e-05
7.98951e-05
8.01166e-05
8.03169e-05
8.04936e-05
8.0644e-05
8.07655e-05
8.08552e-05
8.09101e-05
8.09272e-05
8.09035e-05
8.08359e-05
8.0721e-05
8.05556e-05
8.03362e-05
8.00589e-05
7.97188e-05
7.93057e-05
7.88143e-05
7.82461e-05
7.76007e-05
7.68768e-05
7.60725e-05
7.51861e-05
7.42159e-05
7.31606e-05
7.2019e-05
7.07902e-05
6.94735e-05
6.80683e-05
6.65745e-05
6.49918e-05
6.33201e-05
6.15592e-05
5.97086e-05
5.77675e-05
5.57344e-05
5.36064e-05
5.13794e-05
4.90467e-05
4.65994e-05
4.40161e-05
4.12467e-05
3.82173e-05
3.48021e-05
3.07125e-05
2.54006e-05
1.83867e-05
8.40647e-06
1.87199e-07
4.14238e-07
1.85584e-05
4.33685e-05
6.21679e-05
7.67881e-05
8.87632e-05
9.89389e-05
0.000107765
0.000115565
0.000122563
0.000128908
0.000134704
0.000140031
0.000144949
0.000149507
0.000153743
0.000157689
0.00016137
0.000164806
0.000168011
0.000170989
0.000173769
0.000176372
0.000178815
0.000181112
0.000183274
0.000185312
0.000187237
0.000189055
0.000190772
0.000192394
0.000193926
0.000195372
0.000196735
0.000198019
0.000199225
0.000200357
0.000201416
0.000202404
0.000203321
0.00020417
0.00020495
0.000205664
0.000206311
0.000206892
0.000207408
0.000207859
0.000208246
0.000208569
0.000208828
0.000209025
0.00020916
0.000209233
0.000209245
0.000209196
0.000209088
0.00020892
0.000208694
0.00020841
0.000208069
0.000207669
0.000207209
0.000206687
0.000206104
0.00020547
0.000204787
0.000204061
0.000203294
0.000202488
0.000201647
0.000200772
0.000199867
0.000198934
0.000197977
0.000196997
0.000195999
0.000194984
0.000193956
0.000192918
0.000191872
0.000190823
0.000189773
0.000188725
0.000187682
0.000186647
0.000185623
0.000184613
0.000183619
0.000182644
0.000181691
0.000180761
0.000179858
0.000178982
0.000178137
0.000177324
0.000176544
0.000175799
0.000175091
0.00017442
0.000173787
0.000173194
0.00017264
0.000172127
0.000171654
0.000171222
0.000170829
0.000170477
0.000170164
0.00016989
0.000169654
0.000169456
0.000169294
0.000169168
0.000169077
0.000169021
0.000168997
0.000169005
0.000169044
0.000169112
0.000169208
0.000169332
0.000169482
0.000169657
0.000169856
0.000170077
0.00017032
0.000170583
0.000170865
0.000171164
0.000171481
0.000171814
0.00017216
0.00017252
0.000172892
0.000173274
0.000173665
0.000174064
0.000174468
0.000174877
0.000175288
0.0001757
0.00017611
0.000176516
0.000176916
0.000177308
0.000177688
0.000178054
0.000178402
0.00017873
0.000179034
0.000179309
0.000179553
0.000179761
0.000179928
0.000180051
0.000180125
0.000180145
0.000180105
0.000180001
0.000179828
0.00017958
0.000179252
0.000178838
0.000178333
0.000177731
0.000177025
0.000176206
0.000175264
0.000174188
0.000172978
0.000171631
0.000170145
0.000168517
0.000166743
0.000164821
0.000162746
0.000160515
0.000158125
0.000155572
0.000152852
0.000149961
0.000146894
0.000143644
0.000140205
0.000136569
0.000132723
0.000128655
0.000124344
0.000119766
0.000114883
0.000109643
0.000103961
9.76958e-05
9.06257e-05
8.23555e-05
7.22057e-05
5.90543e-05
4.13669e-05
1.76389e-05
4.03537e-07
4.14252e-07
1.85602e-05
4.33729e-05
6.21735e-05
7.67943e-05
8.87696e-05
9.89452e-05
0.000107771
0.000115571
0.000122569
0.000128914
0.00013471
0.000140037
0.000144955
0.000149513
0.00015375
0.000157695
0.000161376
0.000164812
0.000168016
0.000170994
0.000173774
0.000176376
0.000178819
0.000181116
0.000183278
0.000185316
0.000187241
0.000189059
0.000190777
0.000192399
0.000193931
0.000195378
0.000196741
0.000198025
0.000199232
0.000200364
0.000201424
0.000202412
0.000203329
0.000204178
0.000204959
0.000205673
0.00020632
0.000206901
0.000207417
0.000207868
0.000208255
0.000208578
0.000208838
0.000209034
0.000209169
0.000209242
0.000209254
0.000209205
0.000209097
0.000208929
0.000208703
0.000208419
0.000208078
0.000207678
0.000207218
0.000206696
0.000206113
0.000205478
0.000204796
0.00020407
0.000203302
0.000202496
0.000201655
0.00020078
0.000199875
0.000198942
0.000197984
0.000197004
0.000196005
0.00019499
0.000193962
0.000192924
0.000191878
0.000190829
0.000189779
0.00018873
0.000187687
0.000186652
0.000185628
0.000184617
0.000183623
0.000182648
0.000181694
0.000180765
0.000179861
0.000178985
0.00017814
0.000177326
0.000176546
0.000175801
0.000175092
0.000174421
0.000173789
0.000173195
0.000172641
0.000172128
0.000171655
0.000171222
0.000170829
0.000170477
0.000170164
0.000169889
0.000169653
0.000169455
0.000169293
0.000169167
0.000169076
0.000169019
0.000168996
0.000169003
0.000169042
0.00016911
0.000169207
0.00016933
0.00016948
0.000169655
0.000169854
0.000170075
0.000170317
0.00017058
0.000170862
0.000171162
0.000171479
0.000171811
0.000172158
0.000172518
0.000172889
0.000173271
0.000173662
0.000174061
0.000174465
0.000174874
0.000175285
0.000175697
0.000176107
0.000176513
0.000176913
0.000177305
0.000177685
0.000178051
0.000178399
0.000178727
0.00017903
0.000179306
0.00017955
0.000179758
0.000179925
0.000180048
0.000180122
0.000180142
0.000180102
0.000179998
0.000179825
0.000179577
0.000179249
0.000178835
0.00017833
0.000177728
0.000177022
0.000176204
0.000175262
0.000174186
0.000172976
0.000171629
0.000170143
0.000168515
0.000166741
0.000164819
0.000162744
0.000160514
0.000158124
0.000155571
0.000152851
0.00014996
0.000146893
0.000143643
0.000140204
0.000136568
0.000132722
0.000128654
0.000124343
0.000119765
0.000114882
0.000109642
0.00010396
9.76951e-05
9.06251e-05
8.2355e-05
7.22054e-05
5.90541e-05
4.13669e-05
1.7639e-05
4.03536e-07
6.43677e-07
2.54369e-05
6.1464e-05
9.08695e-05
0.000114523
0.000134141
0.00015085
0.000165374
0.000178206
0.000189686
0.000200059
0.000209502
0.000218149
0.000226104
0.00023345
0.000240254
0.000246571
0.000252446
0.000257917
0.000263013
0.000267757
0.000272183
0.000276321
0.000280197
0.000283833
0.000287248
0.00029046
0.000293482
0.000296328
0.00029901
0.000301534
0.000303909
0.000306142
0.000308238
0.000310203
0.000312041
0.000313755
0.00031535
0.000316828
0.000318192
0.000319443
0.000320585
0.00032162
0.000322548
0.000323373
0.000324095
0.000324718
0.000325241
0.000325667
0.000325998
0.000326236
0.00032638
0.000326435
0.0003264
0.000326277
0.000326069
0.000325776
0.0003254
0.000324942
0.000324403
0.000323783
0.000323082
0.0003223
0.000321439
0.000320507
0.000319508
0.000318447
0.00031733
0.000316158
0.000314937
0.00031367
0.000312361
0.000311013
0.00030963
0.000308216
0.000306776
0.000305312
0.00030383
0.000302333
0.000300825
0.00029931
0.000297794
0.000296278
0.000294769
0.000293269
0.000291782
0.000290312
0.000288863
0.000287437
0.000286039
0.000284672
0.000283337
0.000282039
0.000280779
0.00027956
0.000278383
0.000277252
0.000276166
0.000275129
0.00027414
0.000273201
0.000272312
0.000271474
0.000270687
0.000269951
0.000269265
0.000268629
0.000268042
0.000267504
0.000267013
0.000266569
0.000266171
0.000265818
0.000265508
0.00026524
0.000265013
0.000264827
0.000264678
0.000264567
0.000264491
0.00026445
0.000264441
0.000264465
0.000264519
0.000264602
0.000264712
0.000264849
0.000265011
0.000265197
0.000265405
0.000265634
0.000265882
0.000266147
0.000266429
0.000266725
0.000267034
0.000267353
0.00026768
0.000268014
0.000268351
0.000268688
0.000269024
0.000269356
0.000269678
0.000269989
0.000270285
0.000270561
0.000270812
0.000271036
0.000271226
0.000271377
0.000271485
0.000271543
0.000271547
0.000271489
0.000271363
0.000271164
0.000270884
0.000270517
0.000270055
0.000269493
0.000268822
0.000268036
0.000267127
0.000266087
0.000264909
0.000263582
0.000262096
0.000260439
0.000258607
0.000256595
0.0002544
0.000252015
0.000249436
0.000246656
0.000243671
0.000240474
0.000237056
0.000233411
0.000229529
0.0002254
0.000221012
0.00021635
0.000211398
0.000206134
0.000200534
0.000194564
0.000188183
0.000181335
0.000173944
0.000165902
0.000157047
0.000147137
0.000135799
0.000122443
0.000106154
8.55302e-05
5.85979e-05
2.45264e-05
6.36828e-07
6.43697e-07
2.54389e-05
6.14694e-05
9.08773e-05
0.000114532
0.000134151
0.00015086
0.000165384
0.000178216
0.000189696
0.000200069
0.000209512
0.000218159
0.000226114
0.00023346
0.000240264
0.000246581
0.000252456
0.000257927
0.000263023
0.000267767
0.000272193
0.00027633
0.000280206
0.000283842
0.000287257
0.000290469
0.000293491
0.000296338
0.000299019
0.000301544
0.000303919
0.000306152
0.000308248
0.000310214
0.000312052
0.000313767
0.000315362
0.00031684
0.000318203
0.000319455
0.000320597
0.000321632
0.000322561
0.000323385
0.000324108
0.00032473
0.000325254
0.00032568
0.000326011
0.000326248
0.000326393
0.000326447
0.000326412
0.00032629
0.000326081
0.000325788
0.000325412
0.000324954
0.000324415
0.000323795
0.000323094
0.000322311
0.00032145
0.000320518
0.000319519
0.000318458
0.00031734
0.000316169
0.000314947
0.00031368
0.00031237
0.000311022
0.000309639
0.000308225
0.000306784
0.00030532
0.000303837
0.00030234
0.000300832
0.000299317
0.0002978
0.000296285
0.000294775
0.000293274
0.000291787
0.000290317
0.000288867
0.000287441
0.000286043
0.000284675
0.00028334
0.000282042
0.000280781
0.000279562
0.000278385
0.000277253
0.000276168
0.00027513
0.000274141
0.000273202
0.000272312
0.000271474
0.000270687
0.000269951
0.000269264
0.000268628
0.000268041
0.000267502
0.000267012
0.000266567
0.000266169
0.000265815
0.000265505
0.000265238
0.000265011
0.000264824
0.000264675
0.000264563
0.000264488
0.000264446
0.000264438
0.000264461
0.000264515
0.000264598
0.000264708
0.000264845
0.000265007
0.000265193
0.000265401
0.000265629
0.000265877
0.000266143
0.000266425
0.000266721
0.000267029
0.000267348
0.000267675
0.000268009
0.000268346
0.000268684
0.00026902
0.000269351
0.000269673
0.000269984
0.00027028
0.000270556
0.000270807
0.000271031
0.000271221
0.000271372
0.00027148
0.000271538
0.000271542
0.000271484
0.000271358
0.000271159
0.000270879
0.000270512
0.00027005
0.000269488
0.000268817
0.000268031
0.000267122
0.000266083
0.000264905
0.000263578
0.000262092
0.000260435
0.000258603
0.000256592
0.000254396
0.000252012
0.000249433
0.000246654
0.000243669
0.000240471
0.000237054
0.000233409
0.000229527
0.000225398
0.00022101
0.000216349
0.000211397
0.000206133
0.000200533
0.000194563
0.000188182
0.000181334
0.000173943
0.000165901
0.000157046
0.000147137
0.000135798
0.000122443
0.000106154
8.55302e-05
5.8598e-05
2.45266e-05
6.36829e-07
8.71087e-07
3.07756e-05
7.53244e-05
0.000113513
0.000145173
0.000171869
0.000194807
0.000214858
0.000232627
0.000248545
0.000262931
0.000276021
0.000287998
0.000299005
0.000309157
0.00031855
0.00032726
0.000335354
0.000342886
0.000349903
0.000356441
0.000362542
0.000368247
0.000373587
0.000378593
0.000383291
0.000387703
0.000391849
0.000395748
0.000399413
0.000402858
0.000406092
0.000409125
0.000411966
0.000414621
0.000417097
0.000419399
0.000421532
0.000423501
0.00042531
0.000426962
0.000428462
0.000429811
0.000431014
0.000432074
0.000432994
0.000433776
0.000434424
0.000434941
0.00043533
0.000435594
0.000435734
0.000435755
0.000435659
0.000435448
0.000435126
0.000434694
0.000434155
0.000433511
0.000432764
0.000431917
0.000430969
0.000429924
0.000428783
0.000427554
0.000426243
0.000424855
0.000423394
0.000421867
0.000420278
0.000418632
0.000416933
0.000415186
0.000413396
0.000411568
0.000409707
0.000407818
0.000405905
0.000403975
0.000402031
0.00040008
0.000398125
0.000396172
0.000394225
0.00039229
0.000390371
0.000388472
0.000386598
0.000384752
0.000382938
0.000381161
0.000379423
0.000377727
0.000376077
0.000374474
0.000372922
0.000371422
0.000369975
0.000368584
0.000367249
0.000365972
0.000364752
0.00036359
0.000362486
0.000361439
0.000360449
0.000359514
0.000358636
0.000357811
0.00035704
0.000356321
0.000355653
0.000355034
0.000354464
0.000353941
0.000353463
0.00035303
0.000352639
0.00035229
0.00035198
0.00035171
0.000351476
0.000351278
0.000351115
0.000350986
0.000350888
0.00035082
0.000350782
0.000350772
0.000350788
0.000350829
0.000350892
0.000350978
0.000351083
0.000351205
0.000351343
0.000351494
0.000351656
0.000351826
0.000352001
0.000352177
0.000352352
0.000352522
0.000352682
0.000352829
0.000352957
0.000353062
0.000353139
0.000353181
0.000353184
0.00035314
0.000353044
0.000352888
0.000352666
0.000352371
0.000351994
0.000351529
0.000350967
0.0003503
0.000349521
0.000348621
0.000347592
0.000346425
0.000345112
0.000343643
0.000342009
0.000340201
0.000338208
0.000336017
0.00033362
0.000331013
0.000328187
0.000325136
0.000321851
0.000318326
0.000314549
0.000310512
0.000306203
0.000301608
0.000296712
0.000291499
0.000285947
0.000280034
0.000273729
0.000267
0.000259804
0.00025209
0.000243792
0.000234823
0.000225068
0.000214366
0.00020249
0.000189108
0.000173734
0.000155644
0.000133771
0.00010659
7.21641e-05
3.02052e-05
8.80194e-07
8.71109e-07
3.07777e-05
7.53302e-05
0.000113522
0.000145184
0.000171881
0.00019482
0.000214871
0.00023264
0.000248559
0.000262945
0.000276035
0.000288011
0.000299018
0.000309171
0.000318564
0.000327275
0.000335368
0.0003429
0.000349917
0.000356455
0.000362557
0.000368261
0.000373601
0.000378607
0.000383305
0.000387717
0.000391864
0.000395762
0.000399428
0.000402872
0.000406107
0.00040914
0.000411981
0.000414636
0.000417112
0.000419414
0.000421548
0.000423517
0.000425326
0.000426978
0.000428477
0.000429827
0.00043103
0.00043209
0.00043301
0.000433792
0.00043444
0.000434958
0.000435346
0.00043561
0.00043575
0.000435771
0.000435675
0.000435464
0.000435141
0.000434709
0.00043417
0.000433526
0.000432779
0.000431931
0.000430984
0.000429938
0.000428797
0.000427568
0.000426256
0.000424868
0.000423407
0.00042188
0.00042029
0.000418643
0.000416944
0.000415197
0.000413407
0.000411578
0.000409717
0.000407828
0.000405915
0.000403984
0.00040204
0.000400088
0.000398133
0.000396179
0.000394233
0.000392297
0.000390377
0.000388478
0.000386603
0.000384757
0.000382943
0.000381165
0.000379427
0.000377731
0.00037608
0.000374477
0.000372925
0.000371424
0.000369977
0.000368586
0.000367251
0.000365973
0.000364753
0.00036359
0.000362486
0.000361438
0.000360448
0.000359513
0.000358634
0.00035781
0.000357038
0.000356319
0.00035565
0.000355032
0.000354461
0.000353938
0.00035346
0.000353026
0.000352636
0.000352286
0.000351976
0.000351706
0.000351472
0.000351274
0.000351111
0.000350981
0.000350883
0.000350816
0.000350777
0.000350767
0.000350783
0.000350823
0.000350887
0.000350972
0.000351077
0.0003512
0.000351338
0.000351489
0.00035165
0.00035182
0.000351995
0.000352172
0.000352346
0.000352516
0.000352676
0.000352823
0.000352951
0.000353056
0.000353133
0.000353175
0.000353178
0.000353134
0.000353038
0.000352882
0.00035266
0.000352365
0.000351988
0.000351523
0.000350961
0.000350295
0.000349516
0.000348616
0.000347587
0.00034642
0.000345106
0.000343638
0.000342005
0.000340196
0.000338203
0.000336012
0.000333616
0.000331009
0.000328183
0.000325132
0.000321848
0.000318323
0.000314547
0.00031051
0.0003062
0.000301606
0.000296711
0.000291497
0.000285946
0.000280033
0.000273728
0.000266999
0.000259804
0.00025209
0.000243792
0.000234823
0.000225068
0.000214366
0.00020249
0.000189108
0.000173735
0.000155644
0.000133772
0.000106591
7.21645e-05
3.02057e-05
8.80201e-07
1.09949e-06
3.52582e-05
8.66012e-05
0.00013204
0.000170584
0.000203557
0.000232168
0.000257331
0.000279717
0.00029982
0.000318013
0.000334579
0.000349743
0.00036368
0.000376535
0.000388427
0.000399454
0.000409699
0.000419235
0.000428121
0.000436407
0.000444145
0.000451381
0.000458156
0.000464506
0.000470463
0.000476056
0.000481308
0.000486242
0.000490875
0.000495225
0.000499304
0.000503124
0.000506696
0.000510029
0.000513132
0.000516011
0.000518673
0.000521123
0.000523368
0.000525413
0.000527261
0.000528919
0.00053039
0.000531678
0.000532789
0.000533726
0.000534493
0.000535096
0.000535537
0.000535822
0.000535953
0.000535936
0.000535774
0.00053547
0.00053503
0.000534455
0.00053375
0.000532918
0.000531963
0.000530887
0.000529694
0.000528386
0.000526968
0.000525446
0.000523826
0.000522116
0.000520321
0.000518447
0.000516499
0.000514485
0.000512409
0.000510277
0.000508096
0.00050587
0.000503607
0.000501311
0.000498989
0.000496647
0.000494291
0.000491926
0.000489559
0.000487194
0.000484839
0.000482497
0.000480174
0.000477876
0.000475608
0.000473372
0.000471175
0.00046902
0.00046691
0.00046485
0.000462841
0.000460888
0.000458991
0.000457153
0.000455376
0.000453661
0.000452009
0.00045042
0.000448895
0.000447434
0.000446035
0.000444699
0.000443425
0.000442211
0.000441056
0.000439959
0.000438919
0.000437934
0.000437003
0.000436125
0.000435297
0.000434518
0.000433786
0.000433101
0.00043246
0.000431863
0.000431307
0.000430791
0.000430315
0.000429876
0.000429474
0.000429107
0.000428774
0.000428474
0.000428205
0.000427967
0.000427757
0.000427574
0.000427417
0.000427284
0.000427172
0.000427081
0.000427007
0.000426948
0.000426902
0.000426865
0.000426834
0.000426805
0.000426776
0.000426741
0.000426696
0.000426635
0.000426555
0.000426449
0.000426311
0.000426135
0.000425914
0.000425641
0.000425309
0.000424911
0.000424437
0.000423881
0.000423234
0.000422487
0.000421632
0.000420659
0.00041956
0.000418325
0.000416946
0.000415412
0.000413715
0.000411844
0.00040979
0.000407541
0.000405088
0.000402417
0.000399518
0.000396384
0.000393005
0.000389373
0.000385475
0.000381302
0.000376841
0.000372076
0.000366992
0.000361571
0.000355789
0.000349624
0.000343045
0.000336018
0.000328504
0.000320456
0.000311814
0.000302508
0.00029245
0.000281525
0.000269582
0.000256416
0.000241744
0.000225166
0.000206111
0.000183759
0.000156946
0.000124083
8.33125e-05
3.4851e-05
1.13512e-06
1.09951e-06
3.52602e-05
8.66072e-05
0.00013205
0.000170596
0.000203571
0.000232182
0.000257346
0.000279733
0.000299836
0.000318029
0.000334596
0.00034976
0.000363698
0.000376553
0.000388445
0.000399472
0.000409718
0.000419253
0.000428139
0.000436425
0.000444163
0.000451399
0.000458175
0.000464525
0.000470482
0.000476075
0.000481327
0.000486261
0.000490895
0.000495245
0.000499323
0.000503144
0.000506716
0.000510049
0.000513151
0.00051603
0.000518692
0.000521143
0.000523388
0.000525433
0.000527281
0.000528939
0.00053041
0.000531698
0.000532809
0.000533746
0.000534513
0.000535115
0.000535557
0.000535841
0.000535973
0.000535955
0.000535793
0.000535489
0.000535048
0.000534473
0.000533768
0.000532936
0.000531981
0.000530904
0.000529711
0.000528402
0.000526984
0.000525462
0.000523842
0.000522131
0.000520336
0.000518461
0.000516514
0.000514499
0.000512423
0.000510291
0.000508109
0.000505883
0.000503619
0.000501323
0.000499001
0.000496658
0.000494301
0.000491936
0.000489568
0.000487204
0.000484847
0.000482505
0.000480182
0.000477884
0.000475615
0.000473379
0.000471182
0.000469026
0.000466916
0.000464855
0.000462846
0.000460892
0.000458995
0.000457157
0.000455379
0.000453664
0.000452011
0.000450422
0.000448897
0.000447435
0.000446036
0.0004447
0.000443425
0.000442211
0.000441055
0.000439958
0.000438918
0.000437933
0.000437002
0.000436123
0.000435295
0.000434515
0.000433784
0.000433098
0.000432457
0.000431859
0.000431303
0.000430788
0.000430311
0.000429872
0.00042947
0.000429103
0.00042877
0.000428469
0.000428201
0.000427962
0.000427752
0.000427569
0.000427412
0.000427278
0.000427167
0.000427075
0.000427001
0.000426942
0.000426896
0.000426859
0.000426828
0.000426799
0.00042677
0.000426735
0.000426689
0.000426629
0.000426549
0.000426443
0.000426305
0.000426128
0.000425908
0.000425635
0.000425303
0.000424904
0.000424431
0.000423875
0.000423228
0.000422481
0.000421625
0.000420653
0.000419554
0.000418319
0.00041694
0.000415407
0.00041371
0.000411839
0.000409785
0.000407537
0.000405084
0.000402412
0.000399514
0.00039638
0.000393002
0.000389369
0.000385472
0.0003813
0.000376838
0.000372074
0.00036699
0.000361569
0.000355788
0.000349623
0.000343044
0.000336018
0.000328504
0.000320455
0.000311814
0.000302509
0.000292451
0.000281526
0.000269583
0.000256417
0.000241745
0.000225167
0.000206112
0.00018376
0.000156947
0.000124083
8.33131e-05
3.48516e-05
1.13513e-06
1.33365e-06
3.92281e-05
9.6215e-05
0.000147754
0.000192231
0.000230735
0.00026442
0.000294211
0.000320813
0.000344764
0.000366476
0.00038627
0.000404403
0.00042108
0.000436468
0.000450707
0.000463915
0.000476192
0.000487621
0.000498278
0.000508222
0.000517514
0.000526207
0.000534348
0.000541981
0.000549141
0.000555862
0.000562173
0.000568097
0.000573659
0.000578876
0.000583764
0.000588338
0.00059261
0.000596593
0.000600296
0.000603727
0.000606895
0.000609807
0.000612469
0.000614889
0.000617071
0.000619023
0.000620749
0.000622255
0.000623547
0.00062463
0.000625509
0.000626191
0.000626679
0.00062698
0.000627099
0.00062704
0.00062681
0.000626412
0.000625852
0.000625134
0.000624264
0.000623245
0.000622083
0.000620782
0.000619345
0.000617779
0.000616088
0.000614278