/*--------------------------------*- C++ -*----------------------------------*\
  =========                 |
  \\      /  F ield         | OpenFOAM: The Open Source CFD Toolbox
   \\    /   O peration     | Website:  https://openfoam.org
    \\  /    A nd           | Version:  8
     \\/     M anipulation  |
\*---------------------------------------------------------------------------*/
FoamFile
{
    version     2.0;
    format      ascii;
    class       surfaceScalarField;
    location    "1700";
    object      phi;
}
// * * * * * * * * * * * * * * * * * * * * * * * * * * * * * * * * * * * * * //

dimensions      [1 0 -1 0 0 0 0];

internalField   nonuniform List<scalar> 
114370
(
-7.52018e-11
-3.25508e-14
7.52331e-11
-2.59535e-10
-3.58547e-14
1.86302e-10
-4.83466e-10
-6.35031e-14
2.25515e-10
-6.81998e-10
-6.90251e-14
1.9983e-10
-8.25866e-10
-6.34568e-14
1.45094e-10
-9.08872e-10
-6.96045e-14
8.42168e-11
-9.35174e-10
-9.44135e-14
2.75345e-11
-9.13275e-10
-1.29338e-13
-2.06346e-11
-8.53186e-10
-1.61218e-13
-5.87891e-11
-7.64965e-10
-1.79649e-13
-8.68939e-11
-6.58002e-10
-1.76408e-13
-1.05632e-10
-5.40812e-10
-1.44437e-13
-1.1588e-10
-4.20955e-10
-8.42865e-14
-1.18593e-10
-3.05037e-10
-9.17157e-15
-1.14715e-10
-1.98795e-10
6.05616e-14
-1.05097e-10
-1.0714e-10
1.09062e-13
-9.05476e-11
-3.4214e-11
1.31891e-13
-7.18255e-11
1.65451e-11
1.34588e-13
-4.9643e-11
4.23711e-11
1.28115e-13
-2.46877e-11
4.11289e-11
1.24642e-13
2.39724e-12
1.12319e-11
1.39348e-13
3.10524e-11
-4.84094e-11
1.84952e-13
6.07714e-11
-1.38378e-10
2.606e-13
9.10486e-11
-2.58762e-10
3.49826e-13
1.21403e-10
-4.09197e-10
4.27193e-13
1.51401e-10
-5.88914e-10
4.72962e-13
1.80654e-10
-7.96832e-10
4.83632e-13
2.08855e-10
-1.03154e-09
4.70756e-13
2.35661e-10
-1.29136e-09
4.50559e-13
2.60777e-10
-1.57436e-09
4.33155e-13
2.83962e-10
-1.87839e-09
4.1873e-13
3.04981e-10
-2.2011e-09
4.00935e-13
3.23644e-10
-2.53997e-09
3.72219e-13
3.39803e-10
-2.89238e-09
3.27295e-13
3.53355e-10
-3.25566e-09
2.64937e-13
3.64237e-10
-3.62708e-09
1.88779e-13
3.7242e-10
-4.00396e-09
1.07658e-13
3.77909e-10
-4.38363e-09
3.54985e-14
3.80736e-10
-4.76353e-09
-1.32602e-14
3.80964e-10
-5.14115e-09
-3.28734e-14
3.78684e-10
-5.51414e-09
-2.97776e-14
3.74014e-10
-5.88024e-09
-1.66427e-14
3.67091e-10
-6.23734e-09
-5.86857e-15
3.58068e-10
-6.58349e-09
-6.98405e-15
3.4711e-10
-6.91692e-09
-2.4227e-14
3.34392e-10
-7.23601e-09
-5.22717e-14
3.20087e-10
-7.53936e-09
-7.89923e-14
3.04377e-10
-7.82575e-09
-9.74984e-14
2.87444e-10
-8.09414e-09
-1.05779e-13
2.69466e-10
-8.34368e-09
-9.58555e-14
2.50615e-10
-8.57369e-09
-6.18734e-14
2.31065e-10
-8.78366e-09
-1.5685e-14
2.10989e-10
-8.97321e-09
2.40985e-14
1.90545e-10
-9.14211e-09
5.12517e-14
1.69881e-10
-9.29026e-09
6.25642e-14
1.4913e-10
-9.41766e-09
4.90081e-14
1.2841e-10
-9.52445e-09
1.43279e-14
1.0783e-10
-9.61085e-09
-2.2054e-14
8.74926e-11
-9.67722e-09
-4.97232e-14
6.74916e-11
-9.72398e-09
-7.09397e-14
4.79075e-11
-9.75164e-09
-8.34552e-14
2.88159e-11
-9.76077e-09
-8.36268e-14
1.02922e-11
-9.752e-09
-7.58658e-14
-7.61192e-12
-9.72595e-09
-6.27186e-14
-2.49041e-11
-9.68326e-09
-4.23099e-14
-4.15727e-11
-9.62459e-09
-2.09592e-14
-5.75679e-11
-9.55064e-09
-9.5333e-15
-7.28625e-11
-9.46212e-09
-1.10276e-14
-8.74418e-11
-9.35972e-09
-2.45027e-14
-1.01304e-10
-9.24415e-09
-4.79641e-14
-1.14459e-10
-9.11611e-09
-6.89476e-14
-1.26911e-10
-8.97633e-09
-7.07406e-14
-1.38654e-10
-8.82553e-09
-5.62633e-14
-1.49693e-10
-8.66439e-09
-4.69393e-14
-1.60049e-10
-8.49356e-09
-4.92399e-14
-1.6974e-10
-8.31369e-09
-4.55807e-14
-1.78777e-10
-8.12542e-09
-2.9751e-14
-1.8719e-10
-7.92934e-09
-2.16631e-14
-1.95015e-10
-7.72598e-09
-3.09155e-14
-2.02273e-10
-7.51591e-09
-3.83664e-14
-2.08975e-10
-7.29966e-09
-3.00605e-14
-2.15147e-10
-7.07775e-09
-1.71844e-14
-2.20814e-10
-6.85066e-09
-1.0557e-14
-2.25986e-10
-6.61886e-09
-5.31043e-15
-2.30678e-10
-6.38281e-09
2.82534e-15
-2.34925e-10
-6.14291e-09
1.12534e-14
-2.38753e-10
-5.89959e-09
2.06746e-14
-2.42166e-10
-5.65323e-09
3.13621e-14
-2.45181e-10
-5.40421e-09
3.41303e-14
-2.47838e-10
-5.15281e-09
2.18863e-14
-2.50175e-10
-4.89934e-09
3.73604e-15
-2.52207e-10
-4.64411e-09
-5.39835e-15
-2.5395e-10
-4.38739e-09
-2.55617e-15
-2.55426e-10
-4.12944e-09
5.64602e-15
-2.56657e-10
-3.87049e-09
1.6009e-14
-2.5765e-10
-3.6108e-09
2.95431e-14
-2.58411e-10
-3.35058e-09
4.31618e-14
-2.58954e-10
-3.09002e-09
4.87702e-14
-2.59303e-10
-2.82927e-09
4.0598e-14
-2.59476e-10
-2.56851e-09
1.93428e-14
-2.59485e-10
-2.30787e-09
-1.04384e-14
-2.59349e-10
-2.04747e-09
-4.32275e-14
-2.59077e-10
-1.78747e-09
-7.23254e-14
-2.58672e-10
-1.52797e-09
-9.11189e-14
-2.58168e-10
-1.26915e-09
-9.83146e-14
-2.57499e-10
-1.01117e-09
-1.00648e-13
-2.56689e-10
-7.54031e-10
-1.06895e-13
-2.55856e-10
-4.97845e-10
-1.1939e-13
-2.54922e-10
-2.42755e-10
-1.34535e-13
-2.53841e-10
1.11075e-11
-1.50333e-13
-2.52629e-10
2.63513e-10
-1.66742e-13
-2.51191e-10
5.14256e-10
-1.79602e-13
-2.49555e-10
7.63234e-10
-1.80011e-13
-2.47828e-10
1.01033e-09
-1.63054e-13
-2.45997e-10
1.25544e-09
-1.36575e-13
-2.44067e-10
1.49849e-09
-1.14717e-13
-2.42055e-10
1.73942e-09
-1.02217e-13
-2.39974e-10
1.97817e-09
-8.9348e-14
-2.37828e-10
2.21467e-09
-6.49195e-14
-2.35623e-10
2.44887e-09
-3.0575e-14
-2.33375e-10
2.68074e-09
2.26796e-16
-2.311e-10
2.91028e-09
1.51553e-14
-2.28797e-10
3.13745e-09
1.3342e-14
-2.26452e-10
3.36222e-09
5.02192e-15
-2.24058e-10
3.58456e-09
3.07732e-15
-2.2164e-10
3.80447e-09
1.3734e-14
-2.19235e-10
4.02197e-09
3.26239e-14
-2.16868e-10
4.23709e-09
4.86417e-14
-2.14532e-10
4.44987e-09
5.30329e-14
-2.12207e-10
4.66033e-09
4.6804e-14
-2.09892e-10
4.86848e-09
3.97412e-14
-2.07607e-10
5.07439e-09
4.07879e-14
-2.05381e-10
5.27812e-09
4.78845e-14
-2.03228e-10
5.47974e-09
4.75824e-14
-2.01153e-10
5.67939e-09
2.66748e-14
-1.99165e-10
5.87716e-09
-1.37495e-14
-1.97281e-10
6.07319e-09
-5.53912e-14
-1.95509e-10
6.26754e-09
-7.52215e-14
-1.93833e-10
6.46024e-09
-6.3133e-14
-1.92225e-10
6.65134e-09
-2.92705e-14
-1.90666e-10
6.84088e-09
4.84329e-15
-1.89159e-10
7.02893e-09
2.24891e-14
-1.87715e-10
7.21559e-09
2.09509e-14
-1.86332e-10
7.4009e-09
7.89065e-15
-1.84982e-10
7.58484e-09
-8.60953e-15
-1.83624e-10
7.76738e-09
-2.59776e-14
-1.82222e-10
7.94845e-09
-4.52574e-14
-1.80749e-10
8.12795e-09
-6.58267e-14
-1.79176e-10
8.30573e-09
-8.28678e-14
-1.77457e-10
8.48156e-09
-8.92727e-14
-1.75524e-10
8.65514e-09
-7.95178e-14
-1.73291e-10
8.82606e-09
-5.29603e-14
-1.70664e-10
8.99381e-09
-1.56325e-14
-1.67551e-10
9.15782e-09
2.01433e-14
-1.63858e-10
9.31743e-09
3.96917e-14
-1.59495e-10
9.47191e-09
3.34357e-14
-1.54365e-10
9.6204e-09
3.94793e-15
-1.48364e-10
9.76193e-09
-3.36167e-14
-1.41376e-10
9.89536e-09
-6.02951e-14
-1.33269e-10
1.00194e-08
-6.58592e-14
-1.239e-10
1.01327e-08
-5.47856e-14
-1.1312e-10
1.02335e-08
-3.98406e-14
-1.0078e-10
1.03203e-08
-2.87707e-14
-8.67446e-11
1.03913e-08
-1.70955e-14
-7.08902e-11
1.04444e-08
5.06516e-15
-5.31067e-11
1.04776e-08
3.84369e-14
-3.33006e-11
1.04889e-08
6.81698e-14
-1.14141e-11
1.04762e-08
7.33384e-14
1.26725e-11
1.04368e-08
4.63259e-14
3.92259e-11
1.03683e-08
1.45319e-15
6.84195e-11
1.0268e-08
-3.691e-14
1.00268e-10
1.01331e-08
-5.32065e-14
1.34758e-10
9.96122e-09
-4.83801e-14
1.71835e-10
9.7497e-09
-3.00399e-14
2.11403e-10
9.49622e-09
-1.24219e-15
2.53319e-10
9.19862e-09
3.65542e-14
2.97381e-10
8.85503e-09
7.30865e-14
3.43319e-10
8.46396e-09
9.13654e-14
3.90776e-10
8.02434e-09
8.44359e-14
4.39308e-10
7.53565e-09
6.37586e-14
4.88374e-10
6.99802e-09
4.3308e-14
5.37326e-10
6.41234e-09
1.8971e-14
5.8537e-10
5.78052e-09
-2.45086e-14
6.31538e-10
5.10562e-09
-8.45691e-14
6.74667e-10
4.39203e-09
-1.32443e-13
7.13372e-10
3.64579e-09
-1.41118e-13
7.46017e-10
2.87485e-09
-1.07793e-13
7.70661e-10
2.08953e-09
-3.76517e-14
7.84956e-10
1.30304e-09
7.33651e-14
7.85997e-10
5.32207e-10
2.12997e-13
7.70192e-10
-2.0099e-10
3.27838e-13
7.32431e-10
-8.67331e-10
3.57061e-13
6.65543e-10
-1.43094e-09
3.00349e-13
5.6287e-10
-1.84949e-09
2.10161e-13
4.1791e-10
-2.07337e-09
1.39304e-13
2.23328e-10
-2.04965e-09
9.66437e-14
-2.42359e-11
-1.74182e-09
4.02654e-14
-3.08276e-10
-1.16812e-09
-1.42787e-14
-5.74112e-10
-4.76184e-10
-2.41556e-14
-6.92365e-10
-3.74849e-14
-4.76638e-10
-7.48299e-11
7.55657e-11
-2.59309e-10
1.86689e-10
-4.83323e-10
2.25764e-10
-6.81874e-10
2.00001e-10
-8.25739e-10
1.4522e-10
-9.08732e-10
8.43034e-11
-9.3504e-10
2.75777e-11
-9.13178e-10
-2.06342e-11
-8.53159e-10
-5.88233e-11
-7.65038e-10
-8.69474e-11
-6.58183e-10
-1.05684e-10
-5.41081e-10
-1.15907e-10
-4.21266e-10
-1.18577e-10
-3.05334e-10
-1.14648e-10
-1.9903e-10
-1.0499e-10
-1.07288e-10
-9.0424e-11
-3.42803e-11
-7.17186e-11
1.65298e-11
-4.95811e-11
4.23637e-11
-2.46858e-11
4.10795e-11
2.34529e-12
1.11042e-11
3.09638e-11
-4.86153e-11
6.06684e-11
-1.38626e-10
9.09575e-11
-2.58995e-10
1.21339e-10
-4.09364e-10
1.51366e-10
-5.88993e-10
1.80635e-10
-7.96832e-10
2.08835e-10
-1.03148e-09
2.35633e-10
-1.29126e-09
2.60745e-10
-1.57421e-09
2.83942e-10
-1.87818e-09
3.0499e-10
-2.20081e-09
3.23689e-10
-2.5396e-09
3.39883e-10
-2.89194e-09
3.53458e-10
-3.25515e-09
3.64349e-10
-3.62655e-09
3.72527e-10
-4.00345e-09
3.78003e-10
-4.38318e-09
3.8082e-10
-4.76316e-09
3.81046e-10
-5.14085e-09
3.78778e-10
-5.51388e-09
3.7413e-10
-5.87999e-09
3.6723e-10
-6.23707e-09
3.58223e-10
-6.5832e-09
3.47265e-10
-6.91661e-09
3.34529e-10
-7.23572e-09
3.20195e-10
-7.53911e-09
3.04455e-10
-7.82557e-09
2.87499e-10
-8.09405e-09
2.69506e-10
-8.34366e-09
2.50658e-10
-8.57371e-09
2.31129e-10
-8.78366e-09
2.11081e-10
-8.97315e-09
1.90668e-10
-9.14197e-09
1.70031e-10
-9.29002e-09
1.49291e-10
-9.41736e-09
1.28566e-10
-9.52411e-09
1.07971e-10
-9.61054e-09
8.76103e-11
-9.67695e-09
6.7581e-11
-9.72377e-09
4.79801e-11
-9.7515e-09
2.88871e-11
-9.7607e-09
1.03632e-11
-9.75198e-09
-7.54038e-12
-9.72597e-09
-2.48194e-11
-9.68328e-09
-4.14664e-11
-9.62458e-09
-5.74452e-11
-9.55058e-09
-7.27311e-11
-9.462e-09
-8.73056e-11
-9.35956e-09
-1.01168e-10
-9.24399e-09
-1.14327e-10
-9.11598e-09
-1.26782e-10
-8.97623e-09
-1.38527e-10
-8.82543e-09
-1.49569e-10
-8.66427e-09
-1.59924e-10
-8.49344e-09
-1.696e-10
-8.31359e-09
-1.78624e-10
-8.12531e-09
-1.87042e-10
-7.92919e-09
-1.94879e-10
-7.72583e-09
-2.02137e-10
-7.51579e-09
-2.08838e-10
-7.29956e-09
-2.15019e-10
-7.07764e-09
-2.20697e-10
-6.85054e-09
-2.25873e-10
-6.61874e-09
-2.3057e-10
-6.38267e-09
-2.34818e-10
-6.14276e-09
-2.3864e-10
-5.89942e-09
-2.42046e-10
-5.65304e-09
-2.45064e-10
-5.40398e-09
-2.47726e-10
-5.15257e-09
-2.5006e-10
-4.89914e-09
-2.52086e-10
-4.64396e-09
-2.53829e-10
-4.38728e-09
-2.5531e-10
-4.12936e-09
-2.56537e-10
-3.87042e-09
-2.57518e-10
-3.61072e-09
-2.58264e-10
-3.35046e-09
-2.58796e-10
-3.08985e-09
-2.59137e-10
-2.82906e-09
-2.59307e-10
-2.56828e-09
-2.59325e-10
-2.30763e-09
-2.59207e-10
-2.04726e-09
-2.58955e-10
-1.7873e-09
-2.5856e-10
-1.52785e-09
-2.58056e-10
-1.26906e-09
-2.5738e-10
-1.01108e-09
-2.56559e-10
-7.53938e-10
-2.55707e-10
-4.97749e-10
-2.54747e-10
-2.42662e-10
-2.53643e-10
1.11977e-11
-2.52423e-10
2.63599e-10
-2.5099e-10
5.14326e-10
-2.49364e-10
7.63281e-10
-2.47646e-10
1.01037e-09
-2.45827e-10
1.2555e-09
-2.43909e-10
1.49856e-09
-2.41905e-10
1.73948e-09
-2.39825e-10
1.97819e-09
-2.37682e-10
2.21466e-09
-2.35491e-10
2.44886e-09
-2.33266e-10
2.68078e-09
-2.31013e-10
2.91036e-09
-2.28724e-10
3.13755e-09
-2.26391e-10
3.3623e-09
-2.24016e-10
3.58461e-09
-2.21616e-10
3.8045e-09
-2.19216e-10
4.02199e-09
-2.16832e-10
4.2371e-09
-2.14473e-10
4.44987e-09
-2.12143e-10
4.66031e-09
-2.09846e-10
4.86848e-09
-2.07589e-10
5.07442e-09
-2.05378e-10
5.2782e-09
-2.03222e-10
5.47989e-09
-2.01139e-10
5.67957e-09
-1.99155e-10
5.87733e-09
-1.97285e-10
6.07328e-09
-1.95523e-10
6.26753e-09
-1.93842e-10
6.46015e-09
-1.92216e-10
6.65122e-09
-1.90637e-10
6.8408e-09
-1.89115e-10
7.02893e-09
-1.87661e-10
7.21567e-09
-1.86267e-10
7.40102e-09
-1.84908e-10
7.585e-09
-1.8355e-10
7.76755e-09
-1.82158e-10
7.94861e-09
-1.80698e-10
8.12807e-09
-1.79135e-10
8.30578e-09
-1.77417e-10
8.48153e-09
-1.75479e-10
8.65503e-09
-1.73241e-10
8.8259e-09
-1.70609e-10
8.99367e-09
-1.6749e-10
9.15775e-09
-1.63791e-10
9.31747e-09
-1.59424e-10
9.47204e-09
-1.54301e-10
9.62058e-09
-1.48321e-10
9.7621e-09
-1.41365e-10
9.8955e-09
-1.33286e-10
1.00195e-08
-1.23927e-10
1.01327e-08
-1.13135e-10
1.02336e-08
-1.00773e-10
1.03203e-08
-8.67172e-11
1.03912e-08
-7.08505e-11
1.04443e-08
-5.30582e-11
1.04776e-08
-3.32398e-11
1.04889e-08
-1.13406e-11
1.04762e-08
1.2749e-11
1.04369e-08
3.9283e-11
1.03683e-08
6.84328e-11
1.02679e-08
1.00232e-10
1.01331e-08
1.34686e-10
9.96108e-09
1.71753e-10
9.74953e-09
2.11334e-10
9.49604e-09
2.53275e-10
9.19848e-09
2.97368e-10
8.85498e-09
3.43335e-10
8.46399e-09
3.9081e-10
8.02445e-09
4.39342e-10
7.53582e-09
4.88389e-10
6.99823e-09
5.37309e-10
6.4126e-09
5.85316e-10
5.78077e-09
6.31447e-10
5.10576e-09
6.74536e-10
4.39201e-09
7.13215e-10
3.64557e-09
7.45871e-10
2.87444e-09
7.7057e-10
2.08898e-09
7.84942e-10
1.30248e-09
7.86075e-10
5.31797e-10
7.70385e-10
-2.01133e-10
7.3273e-10
-8.6719e-10
6.65886e-10
-1.43061e-09
5.63199e-10
-1.84908e-09
4.18179e-10
-2.07295e-09
2.23524e-10
-2.04927e-09
-2.40659e-11
-1.74153e-09
-3.08187e-10
-1.16791e-09
-5.74144e-10
-4.76154e-10
-6.92329e-10
-4.76716e-10
-1.8538e-10
-4.36452e-14
2.62537e-10
-4.1566e-10
-1.01957e-16
4.19397e-10
-5.96517e-10
8.20898e-15
4.08192e-10
-7.14073e-10
1.91557e-14
3.18864e-10
-7.69892e-10
2.82296e-14
2.02273e-10
-7.69717e-10
3.47223e-14
8.53397e-11
-7.21683e-10
3.97245e-14
-1.92337e-11
-6.35003e-10
4.27414e-14
-1.06066e-10
-5.19026e-10
4.13145e-14
-1.73525e-10
-3.82703e-10
3.35391e-14
-2.21971e-10
-2.34407e-10
2.0215e-14
-2.52665e-10
-8.18018e-11
4.24957e-15
-2.67201e-10
6.81723e-11
-1.16771e-14
-2.67263e-10
2.09314e-10
-2.60873e-14
-2.54538e-10
3.36207e-10
-3.77052e-14
-2.30656e-10
4.44159e-10
-4.51136e-14
-1.97155e-10
5.29167e-10
-4.85225e-14
-1.55479e-10
5.87889e-10
-5.15341e-14
-1.07006e-10
6.17615e-10
-5.9835e-14
-5.3046e-11
6.16235e-10
-7.6773e-14
5.16276e-12
5.82207e-10
-1.00441e-13
6.64922e-11
5.14524e-10
-1.24722e-13
1.29893e-10
4.12689e-10
-1.4322e-13
1.94342e-10
2.76682e-10
-1.53378e-13
2.58877e-10
1.06939e-10
-1.56633e-13
3.22608e-10
-9.56858e-11
-1.5551e-13
3.8473e-10
-3.29884e-10
-1.51612e-13
4.44484e-10
-5.94027e-10
-1.45939e-13
5.01209e-10
-8.86232e-10
-1.39581e-13
5.54358e-10
-1.20433e-09
-1.33341e-13
6.03402e-10
-1.54591e-09
-1.26698e-13
6.4788e-10
-1.90839e-09
-1.17397e-13
6.87403e-10
-2.28901e-09
-1.02962e-13
7.21673e-10
-2.68494e-09
-8.30677e-14
7.50479e-10
-3.09323e-09
-6.03783e-14
7.73685e-10
-3.51092e-09
-3.91388e-14
7.91232e-10
-3.93506e-09
-2.30822e-14
8.03133e-10
-4.36273e-09
-1.36203e-14
8.09462e-10
-4.79108e-09
-9.23541e-15
8.10351e-10
-5.21735e-09
-7.3588e-15
8.05987e-10
-5.63892e-09
-6.3915e-15
7.96602e-10
-6.05329e-09
-5.29515e-15
7.82471e-10
-6.45812e-09
-2.7135e-15
7.63905e-10
-6.85126e-09
2.34221e-15
7.41247e-10
-7.23072e-09
8.47847e-15
7.1485e-10
-7.59471e-09
1.23693e-14
6.85076e-10
-7.94163e-09
1.26483e-14
6.52305e-10
-8.27008e-09
9.80886e-15
6.16916e-10
-8.57885e-09
3.43868e-15
5.79275e-10
-8.86692e-09
-5.32947e-15
5.39743e-10
-9.13346e-09
-1.14032e-14
4.98683e-10
-9.37782e-09
-1.17884e-14
4.56433e-10
-9.59949e-09
-9.7757e-15
4.13308e-10
-9.79812e-09
-7.73252e-15
3.69617e-10
-9.97354e-09
-4.04923e-15
3.2565e-10
-1.01257e-08
3.81588e-16
2.81664e-10
-1.02546e-08
2.93023e-15
2.37893e-10
-1.03606e-08
4.55798e-15
1.94551e-10
-1.04438e-08
5.67017e-15
1.51824e-10
-1.05046e-08
3.17874e-15
1.09881e-10
-1.05436e-08
-2.32872e-15
6.88806e-11
-1.05611e-08
-6.13729e-15
2.89528e-11
-1.05577e-08
-7.56181e-15
-9.80795e-12
-1.05342e-08
-7.96577e-15
-4.73289e-11
-1.04911e-08
-4.60192e-15
-8.35381e-11
-1.04291e-08
3.8641e-15
-1.18382e-10
-1.03491e-08
1.25577e-14
-1.51827e-10
-1.02516e-08
1.7375e-14
-1.83833e-10
-1.01374e-08
1.92611e-14
-2.14366e-10
-1.00073e-08
1.9316e-14
-2.43436e-10
-9.86206e-09
1.74653e-14
-2.7107e-10
-9.70235e-09
1.63231e-14
-2.97263e-10
-9.52894e-09
1.81633e-14
-3.2201e-10
-9.34254e-09
1.86274e-14
-3.45352e-10
-9.14383e-09
1.27174e-14
-3.67347e-10
-8.93349e-09
4.92178e-15
-3.8801e-10
-8.7122e-09
2.45405e-15
-4.07356e-10
-8.48065e-09
2.70773e-15
-4.25447e-10
-8.23946e-09
-5.06384e-16
-4.42341e-10
-7.98923e-09
-4.61942e-15
-4.58065e-10
-7.73057e-09
-4.21542e-15
-4.7265e-10
-7.46407e-09
-1.85877e-15
-4.86155e-10
-7.19025e-09
-2.67623e-15
-4.9863e-10
-6.90962e-09
-5.64e-15
-5.10107e-10
-6.6227e-09
-7.74389e-15
-5.20623e-10
-6.32999e-09
-9.57826e-15
-5.30226e-10
-6.03193e-09
-1.19144e-14
-5.38964e-10
-5.72894e-09
-1.35537e-14
-5.46877e-10
-5.42147e-09
-1.53521e-14
-5.54007e-10
-5.10993e-09
-2.01028e-14
-5.60392e-10
-4.79472e-09
-2.67077e-14
-5.66068e-10
-4.47624e-09
-2.99796e-14
-5.71079e-10
-4.15483e-09
-2.74834e-14
-5.75465e-10
-3.83087e-09
-2.20602e-14
-5.79257e-10
-3.50467e-09
-1.67643e-14
-5.82481e-10
-3.17656e-09
-1.15683e-14
-5.8517e-10
-2.84681e-09
-6.24624e-15
-5.87358e-10
-2.5157e-09
-2.65843e-15
-5.89071e-10
-2.18352e-09
-1.99143e-15
-5.90326e-10
-1.85055e-09
-2.223e-15
-5.9114e-10
-1.51705e-09
-5.15683e-16
-5.91545e-10
-1.18327e-09
3.49045e-15
-5.91567e-10
-8.49473e-10
8.73022e-15
-5.91209e-10
-5.15884e-10
1.5442e-14
-5.9052e-10
-1.82683e-10
2.42305e-14
-5.89491e-10
1.49857e-10
3.32242e-14
-5.88049e-10
4.81356e-10
3.93241e-14
-5.86204e-10
8.1156e-10
4.27606e-14
-5.83999e-10
1.14027e-09
4.73952e-14
-5.81453e-10
1.46727e-09
5.51328e-14
-5.78561e-10
1.79239e-09
6.27024e-14
-5.75271e-10
2.11545e-09
6.61854e-14
-5.71614e-10
2.43626e-09
6.61854e-14
-5.67673e-10
2.75466e-09
6.53664e-14
-5.63455e-10
3.07048e-09
6.19862e-14
-5.58981e-10
3.3836e-09
5.00801e-14
-5.54281e-10
3.69388e-09
2.83468e-14
-5.49377e-10
4.00121e-09
6.04032e-15
-5.44278e-10
4.30543e-09
-3.89507e-15
-5.38988e-10
4.6064e-09
1.79978e-15
-5.3353e-10
4.90402e-09
1.24261e-14
-5.27939e-10
5.19823e-09
1.41401e-14
-5.2225e-10
5.489e-09
4.05368e-15
-5.16481e-10
5.7763e-09
-8.31988e-15
-5.1064e-10
6.06011e-09
-1.32821e-14
-5.04738e-10
6.34036e-09
-1.20713e-14
-4.98807e-10
6.61704e-09
-1.42635e-14
-4.92891e-10
6.89019e-09
-2.52862e-14
-4.87029e-10
7.15987e-09
-3.87976e-14
-4.81241e-10
7.42613e-09
-4.22874e-14
-4.75531e-10
7.68902e-09
-2.94104e-14
-4.69911e-10
7.94859e-09
-6.15076e-15
-4.64407e-10
8.20493e-09
1.44813e-14
-4.59055e-10
8.45813e-09
2.28285e-14
-4.53881e-10
8.70833e-09
1.82652e-14
-4.48898e-10
8.95561e-09
6.88876e-15
-4.44109e-10
9.20007e-09
-4.28623e-15
-4.39517e-10
9.44179e-09
-1.09111e-14
-4.3512e-10
9.68091e-09
-1.13981e-14
-4.30916e-10
9.91753e-09
-6.00874e-15
-4.26894e-10
1.01518e-08
3.27793e-15
-4.23037e-10
1.03837e-08
1.29802e-14
-4.19317e-10
1.06134e-08
1.97818e-14
-4.15698e-10
1.08409e-08
2.27185e-14
-4.12135e-10
1.10661e-08
2.34582e-14
-4.08571e-10
1.12891e-08
2.39054e-14
-4.04936e-10
1.15098e-08
2.35622e-14
-4.01148e-10
1.17279e-08
1.97728e-14
-3.97107e-10
1.19434e-08
1.10509e-14
-3.92702e-10
1.21559e-08
9.47254e-17
-3.87802e-10
1.23651e-08
-7.04527e-15
-3.8226e-10
1.25706e-08
-5.53532e-15
-3.75913e-10
1.27718e-08
3.9321e-15
-3.6858e-10
1.29682e-08
1.52314e-14
-3.60061e-10
1.3159e-08
2.15542e-14
-3.50142e-10
1.33433e-08
2.08105e-14
-3.38591e-10
1.35202e-08
1.69064e-14
-3.2516e-10
1.36886e-08
1.56404e-14
-3.0959e-10
1.3847e-08
1.87827e-14
-2.91609e-10
1.39941e-08
2.1776e-14
-2.70933e-10
1.41283e-08
1.76026e-14
-2.47267e-10
1.42478e-08
3.76784e-15
-2.20307e-10
1.43509e-08
-1.40361e-14
-1.89754e-10
1.44353e-08
-2.56596e-14
-1.55323e-10
1.4499e-08
-2.49142e-14
-1.16746e-10
1.45394e-08
-1.49543e-14
-7.37737e-11
1.45541e-08
-5.15999e-15
-2.6178e-11
1.45404e-08
-2.25238e-15
2.62929e-11
1.44956e-08
-4.44107e-15
8.39604e-11
1.44168e-08
-4.56119e-15
1.47068e-10
1.43013e-08
1.23604e-15
2.15713e-10
1.41459e-08
8.88425e-15
2.89919e-10
1.3948e-08
1.10891e-14
3.69629e-10
1.37045e-08
5.61323e-15
4.54695e-10
1.34127e-08
-2.90756e-15
5.44858e-10
1.30702e-08
-9.33412e-15
6.39732e-10
1.26745e-08
-1.31815e-14
7.38785e-10
1.22237e-08
-1.51278e-14
8.41333e-10
1.17162e-08
-1.11693e-14
9.46507e-10
1.11511e-08
4.01521e-15
1.05322e-09
1.05279e-08
2.68933e-14
1.16014e-09
9.84728e-09
4.3932e-14
1.26566e-09
9.11056e-09
4.44946e-14
1.36785e-09
8.32039e-09
3.06709e-14
1.46444e-09
7.48069e-09
9.88114e-15
1.55267e-09
6.59703e-09
-1.63008e-14
1.62929e-09
5.6769e-09
-4.71514e-14
1.69042e-09
4.73012e-09
-7.2257e-14
1.73137e-09
3.76931e-09
-7.96442e-14
1.74643e-09
2.8105e-09
-7.14971e-14
1.7286e-09
1.87355e-09
-5.91839e-14
1.66897e-09
9.82418e-10
-5.0088e-14
1.55626e-09
1.66494e-10
-4.4281e-14
1.37837e-09
-5.37126e-10
-3.33604e-14
1.1211e-09
-1.08514e-09
-1.79643e-14
7.70901e-10
-1.42936e-09
-1.77175e-14
3.1953e-10
-1.515e-09
-2.4245e-14
-2.23105e-10
-1.28305e-09
-2.47976e-14
-8.06584e-10
-6.91092e-10
-4.18074e-14
-1.28494e-09
-7.02709e-14
-1.16812e-09
-1.85124e-10
2.62795e-10
-4.15623e-10
4.19634e-10
-5.96557e-10
4.08291e-10
-7.1412e-10
3.18896e-10
-7.69919e-10
2.02273e-10
-7.69713e-10
8.53144e-11
-7.21648e-10
-1.92896e-11
-6.34938e-10
-1.06155e-10
-5.18936e-10
-1.73638e-10
-3.82602e-10
-2.22091e-10
-2.34316e-10
-2.52775e-10
-8.17357e-11
-2.67284e-10
6.82097e-11
-2.67305e-10
2.09332e-10
-2.54531e-10
3.36222e-10
-2.30606e-10
4.44192e-10
-1.97074e-10
5.29237e-10
-1.55386e-10
5.88008e-10
-1.06912e-10
6.17777e-10
-5.29522e-11
6.16418e-10
5.26952e-12
5.82377e-10
6.66291e-11
5.14656e-10
1.30074e-10
4.12775e-10
1.94576e-10
2.7674e-10
2.5916e-10
1.06994e-10
3.22929e-10
-9.56129e-11
3.85074e-10
-3.29784e-10
4.44832e-10
-5.93901e-10
5.01548e-10
-8.86087e-10
5.54681e-10
-1.20417e-09
6.03712e-10
-1.54576e-09
6.48179e-10
-1.90824e-09
6.87688e-10
-2.28887e-09
7.21935e-10
-2.68478e-09
7.50705e-10
-3.09305e-09
7.73864e-10
-3.51071e-09
7.91359e-10
-3.93482e-09
8.03211e-10
-4.36247e-09
8.09504e-10
-4.79082e-09
8.10371e-10
-5.21712e-09
8.05998e-10
-5.63871e-09
7.96616e-10
-6.0531e-09
7.82494e-10
-6.45795e-09
7.63935e-10
-6.85109e-09
7.41271e-10
-7.23053e-09
7.14858e-10
-7.59451e-09
6.85065e-10
-7.94142e-09
6.52275e-10
-8.26986e-09
6.16871e-10
-8.57864e-09
5.79226e-10
-8.86673e-09
5.39704e-10
-9.1333e-09
4.9866e-10
-9.37767e-09
4.56426e-10
-9.59934e-09
4.13325e-10
-9.79797e-09
3.69659e-10
-9.97337e-09
3.25697e-10
-1.01255e-08
2.81701e-10
-1.02544e-08
2.37921e-10
-1.03603e-08
1.94564e-10
-1.04435e-08
1.51813e-10
-1.05044e-08
1.09853e-10
-1.05433e-08
6.8852e-11
-1.05609e-08
2.89222e-11
-1.05576e-08
-9.84445e-12
-1.05341e-08
-4.73613e-11
-1.0491e-08
-8.35608e-11
-1.0429e-08
-1.18398e-10
-1.03489e-08
-1.51839e-10
-1.02514e-08
-1.83841e-10
-1.01372e-08
-2.14381e-10
-1.00071e-08
-2.43461e-10
-9.86187e-09
-2.7109e-10
-9.70217e-09
-2.9727e-10
-9.52876e-09
-3.22021e-10
-9.34234e-09
-3.45378e-10
-9.14362e-09
-3.67362e-10
-8.93329e-09
-3.87997e-10
-8.71203e-09
-4.07337e-10
-8.48048e-09
-4.25439e-10
-8.23929e-09
-4.42331e-10
-7.98908e-09
-4.58043e-10
-7.73043e-09
-4.72631e-10
-7.46391e-09
-4.86143e-10
-7.19008e-09
-4.98611e-10
-6.90946e-09
-5.10078e-10
-6.62253e-09
-5.20594e-10
-6.3298e-09
-5.30198e-10
-6.03172e-09
-5.38931e-10
-5.72873e-09
-5.46839e-10
-5.42125e-09
-5.53967e-10
-5.10972e-09
-5.6035e-10
-4.79453e-09
-5.66026e-10
-4.47607e-09
-5.71039e-10
-4.15469e-09
-5.75426e-10
-3.83075e-09
-5.79214e-10
-3.50457e-09
-5.82433e-10
-3.17646e-09
-5.85119e-10
-2.84669e-09
-5.87306e-10
-2.51557e-09
-5.89019e-10
-2.18338e-09
-5.9028e-10
-1.8504e-09
-5.91109e-10
-1.51691e-09
-5.91537e-10
-1.18315e-09
-5.91583e-10
-8.49371e-10
-5.91245e-10
-5.15802e-10
-5.9057e-10
-1.82615e-10
-5.89554e-10
1.49919e-10
-5.88125e-10
4.81414e-10
-5.86286e-10
8.11607e-10
-5.84079e-10
1.14031e-09
-5.81531e-10
1.4673e-09
-5.78646e-10
1.79242e-09
-5.75367e-10
2.11549e-09
-5.71715e-10
2.43633e-09
-5.67768e-10
2.75475e-09
-5.63543e-10
3.07061e-09
-5.59059e-10
3.38375e-09
-5.5434e-10
3.69402e-09
-5.49405e-10
4.0013e-09
-5.44276e-10
4.30547e-09
-5.38974e-10
4.60643e-09
-5.33521e-10
4.90407e-09
-5.27937e-10
5.19832e-09
-5.22245e-10
5.48911e-09
-5.16467e-10
5.77642e-09
-5.1062e-10
6.06021e-09
-5.04718e-10
6.34046e-09
-4.98787e-10
6.61715e-09
-4.92862e-10
6.8903e-09
-4.86983e-10
7.15994e-09
-4.8118e-10
7.42614e-09
-4.7547e-10
7.68897e-09
-4.69868e-10
7.94854e-09
-4.6439e-10
8.20492e-09
-4.59058e-10
8.4582e-09
-4.53893e-10
8.70845e-09
-4.48912e-10
8.95574e-09
-4.44125e-10
9.20017e-09
-4.39533e-10
9.44184e-09
-4.35138e-10
9.68091e-09
-4.30933e-10
9.91751e-09
-4.2691e-10
1.01518e-08
-4.23051e-10
1.03837e-08
-4.19328e-10
1.06134e-08
-4.15706e-10
1.08409e-08
-4.12141e-10
1.10662e-08
-4.08581e-10
1.12892e-08
-4.04954e-10
1.15099e-08
-4.01173e-10
1.17281e-08
-3.97136e-10
1.19435e-08
-3.92729e-10
1.2156e-08
-3.87824e-10
1.23651e-08
-3.82279e-10
1.25706e-08
-3.75929e-10
1.27718e-08
-3.68592e-10
1.29682e-08
-3.60068e-10
1.3159e-08
-3.50145e-10
1.33434e-08
-3.38595e-10
1.35203e-08
-3.25174e-10
1.36886e-08
-3.09621e-10
1.38471e-08
-2.91655e-10
1.39942e-08
-2.70984e-10
1.41284e-08
-2.47307e-10
1.42479e-08
-2.20328e-10
1.43509e-08
-1.89758e-10
1.44354e-08
-1.55316e-10
1.4499e-08
-1.16731e-10
1.45394e-08
-7.37471e-11
1.45541e-08
-2.61366e-11
1.45404e-08
2.63426e-11
1.44956e-08
8.40008e-11
1.44169e-08
1.47079e-10
1.43013e-08
2.15691e-10
1.4146e-08
2.89875e-10
1.3948e-08
3.69585e-10
1.37045e-08
4.54667e-10
1.34127e-08
5.44854e-10
1.30702e-08
6.39748e-10
1.26745e-08
7.38819e-10
1.22237e-08
8.41378e-10
1.17162e-08
9.46552e-10
1.11511e-08
1.05325e-09
1.0528e-08
1.16014e-09
9.8474e-09
1.26563e-09
9.11077e-09
1.3678e-09
8.32064e-09
1.46435e-09
7.48094e-09
1.55257e-09
6.59722e-09
1.62921e-09
5.67698e-09
1.69038e-09
4.73007e-09
1.73139e-09
3.76914e-09
1.74653e-09
2.81027e-09
1.72878e-09
1.87333e-09
1.66921e-09
9.82254e-10
1.55651e-09
1.66402e-10
1.3786e-09
-5.37143e-10
1.12129e-09
-1.0851e-09
7.71058e-10
-1.42928e-09
3.19667e-10
-1.5149e-09
-2.23031e-10
-1.28299e-09
-8.06601e-10
-6.91058e-10
-1.28495e-09
-1.16821e-09
-2.18858e-10
-7.44114e-14
4.82954e-10
-3.9559e-10
-2.09286e-14
5.97937e-10
-4.89199e-10
-5.47462e-15
5.0259e-10
-5.21801e-10
3.80103e-15
3.52003e-10
-5.07226e-10
6.72275e-15
1.88148e-10
-4.5375e-10
8.55678e-15
3.22699e-11
-3.6818e-10
1.2249e-14
-1.04429e-10
-2.57035e-10
1.74214e-14
-2.16865e-10
-1.26752e-10
2.22796e-14
-3.0348e-10
1.6269e-11
2.49228e-14
-3.64675e-10
1.65769e-10
2.4335e-14
-4.01857e-10
3.15788e-10
2.0449e-14
-4.16918e-10
4.60782e-10
1.34051e-14
-4.11957e-10
5.95664e-10
3.72774e-15
-3.89116e-10
7.15841e-10
-6.77662e-15
-3.50528e-10
8.17249e-10
-1.53874e-14
-2.98256e-10
8.96357e-10
-2.04132e-14
-2.34285e-10
9.50174e-10
-2.27314e-14
-1.60525e-10
9.76228e-10
-2.51765e-14
-7.8809e-11
9.72561e-10
-3.03437e-14
9.11827e-12
9.37724e-10
-3.87201e-14
1.01619e-10
8.70764e-10
-4.90227e-14
1.97146e-10
7.71189e-10
-5.95947e-14
2.94219e-10
6.38941e-10
-6.92703e-14
3.91431e-10
4.7439e-10
-7.73278e-14
4.87473e-10
2.78301e-10
-8.28977e-14
5.81136e-10
5.18034e-11
-8.51082e-14
6.71299e-10
-2.03623e-10
-8.39413e-14
7.56952e-10
-4.86167e-10
-8.06499e-14
8.37216e-10
-7.93793e-10
-7.69108e-14
9.11339e-10
-1.12426e-09
-7.33927e-14
9.78658e-10
-1.47514e-09
-6.92475e-14
1.03859e-09
-1.84385e-09
-6.29838e-14
1.09068e-09
-2.22768e-09
-5.37726e-14
1.1346e-09
-2.62386e-09
-4.21375e-14
1.17015e-09
-3.02957e-09
-2.98145e-14
1.19722e-09
-3.44199e-09
-1.88115e-14
1.21582e-09
-3.85833e-09
-1.02386e-14
1.22606e-09
-4.27584e-09
-4.38005e-15
1.22812e-09
-4.69187e-09
-1.47831e-15
1.22227e-09
-5.10387e-09
-1.37589e-15
1.20885e-09
-5.50942e-09
-2.86189e-15
1.18827e-09
-5.90622e-09
-3.99946e-15
1.16096e-09
-6.29216e-09
-3.31457e-15
1.12744e-09
-6.66526e-09
-8.11805e-16
1.08821e-09
-7.02375e-09
2.74152e-15
1.04382e-09
-7.36602e-09
6.37151e-15
9.94819e-10
-7.69062e-09
8.58997e-15
9.41775e-10
-7.99633e-09
8.7197e-15
8.8524e-10
-8.28208e-09
7.82473e-15
8.25751e-10
-8.54698e-09
7.02427e-15
7.63844e-10
-8.79032e-09
5.48645e-15
7.00031e-10
-9.01153e-09
2.73265e-15
6.3479e-10
-9.21022e-09
9.6955e-16
5.68581e-10
-9.38612e-09
8.75073e-16
5.01833e-10
-9.53912e-09
1.32059e-16
4.34939e-10
-9.66919e-09
-7.26234e-16
3.68254e-10
-9.77646e-09
1.48508e-15
3.02106e-10
-9.86114e-09
5.16209e-15
2.36786e-10
-9.92353e-09
5.45746e-15
1.72549e-10
-9.96398e-09
3.12671e-15
1.09621e-10
-9.98294e-09
2.5432e-15
4.82057e-11
-9.98093e-09
3.37932e-15
-1.15329e-11
-9.9585e-09
3.0355e-15
-6.94638e-11
-9.91627e-09
2.70468e-15
-1.25475e-10
-9.85489e-09
4.6315e-15
-1.79475e-10
-9.77503e-09
8.31016e-15
-2.31397e-10
-9.67739e-09
1.17682e-14
-2.81192e-10
-9.56265e-09
1.27479e-14
-3.28825e-10
-9.43151e-09
1.01576e-14
-3.74286e-10
-9.28472e-09
7.52518e-15
-4.17581e-10
-9.12297e-09
1.05881e-14
-4.58724e-10
-8.94697e-09
1.74061e-14
-4.9773e-10
-8.75741e-09
1.78958e-14
-5.34637e-10
-8.55499e-09
9.48529e-15
-5.6949e-10
-8.34038e-09
3.1958e-15
-6.02327e-10
-8.11425e-09
5.64966e-15
-6.33199e-10
-7.87724e-09
8.16993e-15
-6.62173e-10
-7.62999e-09
3.43272e-15
-6.89303e-10
-7.37312e-09
-2.14214e-15
-7.14642e-10
-7.10722e-09
-1.68693e-15
-7.38263e-10
-6.83284e-09
1.38159e-15
-7.60233e-10
-6.55058e-09
2.44119e-15
-7.80597e-10
-6.26098e-09
2.10862e-15
-7.99412e-10
-5.96453e-09
5.96925e-16
-8.16766e-10
-5.66173e-09
-2.93989e-15
-8.32726e-10
-5.35305e-09
-5.55813e-15
-8.47325e-10
-5.03899e-09
-4.54218e-15
-8.60615e-10
-4.72001e-09
-3.88029e-15
-8.72677e-10
-4.39649e-09
-8.4197e-15
-8.8358e-10
-4.06886e-09
-1.4848e-14
-8.93364e-10
-3.73753e-09
-1.59994e-14
-9.02066e-10
-3.40291e-09
-1.1302e-14
-9.09748e-10
-3.06536e-09
-6.4258e-15
-9.16474e-10
-2.72522e-09
-4.66929e-15
-9.22289e-10
-2.38283e-09
-4.53197e-15
-9.27226e-10
-2.03853e-09
-4.69865e-15
-9.31321e-10
-1.69265e-09
-5.95099e-15
-9.34619e-10
-1.34548e-09
-7.6904e-15
-9.37159e-10
-9.97312e-10
-7.07682e-15
-9.38973e-10
-6.48438e-10
-3.19043e-15
-9.40092e-10
-2.99131e-10
1.28761e-15
-9.40553e-10
5.03314e-11
4.46468e-15
-9.40356e-10
3.99579e-10
8.35188e-15
-9.39458e-10
7.48276e-10
1.48615e-14
-9.37887e-10
1.09618e-09
2.12032e-14
-9.35658e-10
1.44303e-09
2.31806e-14
-9.32774e-10
1.7886e-09
2.19562e-14
-9.29286e-10
2.13264e-09
2.32218e-14
-9.25215e-10
2.47491e-09
2.91431e-14
-9.20569e-10
2.81524e-09
3.53903e-14
-9.15346e-10
3.15344e-09
3.81074e-14
-9.09579e-10
3.48932e-09
3.94636e-14
-9.0332e-10
3.82268e-09
4.25236e-14
-8.96602e-10
4.15337e-09
4.3718e-14
-8.89461e-10
4.48122e-09
3.58406e-14
-8.81927e-10
4.80608e-09
1.88727e-14
-8.74027e-10
5.1278e-09
3.27532e-15
-8.65786e-10