/*--------------------------------*- C++ -*----------------------------------*\
  =========                 |
  \\      /  F ield         | OpenFOAM: The Open Source CFD Toolbox
   \\    /   O peration     | Website:  https://openfoam.org
    \\  /    A nd           | Version:  8
     \\/     M anipulation  |
\*---------------------------------------------------------------------------*/
FoamFile
{
    version     2.0;
    format      ascii;
    class       volScalarField;
    location    "1700";
    object      T;
}
// * * * * * * * * * * * * * * * * * * * * * * * * * * * * * * * * * * * * * //

dimensions      [0 0 0 1 0 0 0];

internalField   nonuniform List<scalar> 
46000
(
311.445
311.041
310.519
310.077
309.719
309.425
309.178
308.967
308.784
308.626
308.488
308.369
308.264
308.174
308.094
308.025
307.966
307.914
307.87
307.832
307.798
307.77
307.746
307.726
307.709
307.696
307.686
307.678
307.671
307.667
307.664
307.662
307.661
307.661
307.661
307.661
307.661
307.662
307.662
307.662
307.662
307.662
307.661
307.66
307.659
307.657
307.656
307.654
307.652
307.65
307.648
307.646
307.644
307.643
307.641
307.64
307.64
307.639
307.64
307.64
307.641
307.643
307.644
307.646
307.649
307.652
307.656
307.66
307.665
307.671
307.677
307.684
307.692
307.7
307.708
307.718
307.727
307.737
307.748
307.758
307.769
307.781
307.793
307.804
307.816
307.829
307.841
307.853
307.866
307.878
307.89
307.902
307.914
307.926
307.938
307.949
307.96
307.971
307.982
307.992
308.002
308.012
308.021
308.03
308.038
308.047
308.054
308.062
308.069
308.076
308.082
308.088
308.094
308.099
308.104
308.109
308.113
308.117
308.121
308.125
308.128
308.131
308.134
308.136
308.138
308.14
308.142
308.144
308.145
308.146
308.147
308.148
308.149
308.149
308.15
308.15
308.15
308.15
308.151
308.151
308.151
308.151
308.151
308.152
308.152
308.153
308.154
308.156
308.158
308.161
308.164
308.168
308.172
308.178
308.185
308.193
308.202
308.212
308.225
308.238
308.254
308.272
308.292
308.314
308.339
308.366
308.397
308.429
308.465
308.503
308.545
308.591
308.64
308.694
308.751
308.813
308.879
308.95
309.025
309.105
309.19
309.28
309.374
309.472
309.575
309.682
309.792
309.906
310.022
310.139
310.259
310.38
310.502
310.627
310.76
310.906
311.07
311.282
311.558
311.805
311.445
311.041
310.519
310.077
309.719
309.425
309.178
308.967
308.784
308.625
308.488
308.369
308.264
308.174
308.094
308.026
307.966
307.914
307.87
307.832
307.798
307.77
307.746
307.726
307.709
307.696
307.686
307.678
307.672
307.667
307.664
307.662
307.661
307.661
307.661
307.661
307.661
307.662
307.662
307.662
307.662
307.662
307.661
307.66
307.659
307.657
307.656
307.654
307.652
307.65
307.648
307.646
307.644
307.643
307.641
307.64
307.64
307.639
307.639
307.64
307.641
307.643
307.644
307.646
307.649
307.652
307.656
307.66
307.665
307.671
307.677
307.684
307.692
307.7
307.708
307.718
307.727
307.737
307.748
307.758
307.769
307.781
307.793
307.804
307.817
307.829
307.841
307.853
307.866
307.878
307.89
307.902
307.914
307.926
307.938
307.949
307.96
307.971
307.982
307.992
308.002
308.012
308.021
308.03
308.038
308.047
308.054
308.062
308.069
308.076
308.082
308.088
308.094
308.099
308.104
308.109
308.113
308.117
308.121
308.125
308.128
308.131
308.134
308.136
308.139
308.141
308.142
308.144
308.145
308.146
308.147
308.148
308.149
308.149
308.15
308.15
308.15
308.15
308.151
308.151
308.151
308.151
308.151
308.152
308.152
308.153
308.154
308.156
308.158
308.161
308.164
308.168
308.172
308.178
308.185
308.193
308.202
308.212
308.225
308.238
308.254
308.272
308.292
308.314
308.339
308.366
308.397
308.429
308.465
308.503
308.545
308.591
308.64
308.694
308.751
308.813
308.879
308.95
309.025
309.105
309.19
309.28
309.374
309.472
309.575
309.682
309.792
309.906
310.022
310.139
310.259
310.381
310.502
310.627
310.76
310.906
311.07
311.282
311.558
311.805
308.51
307.92
307.316
306.843
306.469
306.17
305.925
305.722
305.554
305.413
305.295
305.195
305.113
305.044
304.987
304.941
304.904
304.875
304.854
304.839
304.829
304.824
304.823
304.826
304.832
304.841
304.853
304.866
304.88
304.895
304.912
304.928
304.945
304.961
304.977
304.993
305.007
305.021
305.034
305.046
305.056
305.066
305.074
305.081
305.087
305.091
305.095
305.098
305.099
305.1
305.1
305.1
305.099
305.097
305.095
305.093
305.09
305.087
305.084
305.081
305.078
305.075
305.072
305.069
305.066
305.063
305.061
305.059
305.057
305.056
305.055
305.055
305.055
305.055
305.056
305.057
305.058
305.06
305.063
305.065
305.068
305.072
305.076
305.08
305.084
305.089
305.094
305.099
305.105
305.111
305.117
305.123
305.129
305.136
305.143
305.15
305.157
305.165
305.172
305.18
305.188
305.196
305.204
305.212
305.22
305.228
305.237
305.245
305.254
305.263
305.272
305.281
305.29
305.299
305.308
305.317
305.326
305.336
305.345
305.354
305.364
305.373
305.382
305.392
305.401
305.41
305.42
305.429
305.438
305.447
305.456
305.465
305.474
305.483
305.492
305.501
305.51
305.519
305.528
305.537
305.545
305.554
305.563
305.572
305.582
305.591
305.601
305.611
305.622
305.633
305.644
305.657
305.67
305.684
305.698
305.714
305.731
305.75
305.769
305.791
305.814
305.839
305.866
305.895
305.927
305.961
305.998
306.038
306.081
306.127
306.176
306.229
306.286
306.347
306.413
306.482
306.557
306.636
306.72
306.809
306.903
307.002
307.106
307.215
307.328
307.445
307.566
307.69
307.815
307.941
308.068
308.194
308.318
308.443
308.57
308.706
308.865
309.061
309.319
309.599
308.51
307.92
307.316
306.842
306.469
306.169
305.924
305.722
305.554
305.413
305.294
305.195
305.112
305.044
304.987
304.941
304.904
304.875
304.854
304.839
304.829
304.824
304.823
304.826
304.832
304.841
304.853
304.866
304.88
304.895
304.912
304.928
304.945
304.961
304.977
304.993
305.007
305.021
305.034
305.046
305.056
305.066
305.074
305.081
305.087
305.091
305.095
305.098
305.099
305.1
305.1
305.1
305.099
305.097
305.095
305.093
305.09
305.087
305.084
305.081
305.078
305.075
305.072
305.069
305.066
305.063
305.061
305.059
305.057
305.056
305.055
305.055
305.055
305.055
305.056
305.057
305.059
305.06
305.063
305.065
305.068
305.072
305.076
305.08
305.084
305.089
305.094
305.099
305.105
305.111
305.117
305.123
305.129
305.136
305.143
305.15
305.157
305.165
305.172
305.18
305.188
305.196
305.204
305.212
305.22
305.228
305.237
305.245
305.254
305.263
305.272
305.281
305.29
305.299
305.308
305.317
305.326
305.336
305.345
305.354
305.364
305.373
305.382
305.392
305.401
305.41
305.42
305.429
305.438
305.447
305.456
305.466
305.475
305.483
305.492
305.501
305.51
305.519
305.528
305.537
305.545
305.554
305.563
305.572
305.582
305.591
305.601
305.611
305.622
305.633
305.644
305.657
305.67
305.684
305.698
305.714
305.731
305.75
305.769
305.791
305.814
305.839
305.866
305.895
305.927
305.961
305.998
306.038
306.081
306.127
306.176
306.229
306.286
306.347
306.413
306.482
306.557
306.636
306.72
306.809
306.903
307.002
307.106
307.215
307.328
307.445
307.566
307.69
307.815
307.942
308.068
308.194
308.318
308.443
308.57
308.706
308.865
309.061
309.319
309.599
306.416
306.003
305.597
305.259
304.976
304.739
304.541
304.375
304.236
304.119
304.022
303.94
303.874
303.819
303.776
303.742
303.716
303.698
303.686
303.681
303.68
303.684
303.692
303.703
303.717
303.733
303.752
303.772
303.793
303.815
303.838
303.861
303.884
303.906
303.927
303.948
303.968
303.987
304.004
304.021
304.035
304.049
304.061
304.071
304.08
304.088
304.094
304.099
304.103
304.106
304.107
304.108
304.108
304.107
304.106
304.104
304.101
304.098
304.095
304.091
304.087
304.083
304.079
304.075
304.071
304.067
304.063
304.06
304.056
304.053
304.05
304.047
304.045
304.043
304.041
304.04
304.039
304.038
304.038
304.038
304.039
304.04
304.041
304.042
304.044
304.047
304.049
304.052
304.055
304.059
304.063
304.067
304.072
304.076
304.082
304.087
304.093
304.099
304.105
304.112
304.118
304.125
304.133
304.14
304.148
304.156
304.165
304.173
304.182
304.191
304.2
304.21
304.22
304.229
304.239
304.25
304.26
304.271
304.281
304.292
304.303
304.314
304.325
304.336
304.347
304.359
304.37
304.381
304.393
304.404
304.416
304.427
304.438
304.45
304.461
304.473
304.484
304.495
304.507
304.518
304.529
304.541
304.553
304.564
304.576
304.588
304.601
304.614
304.627
304.64
304.655
304.67
304.685
304.702
304.719
304.737
304.757
304.778
304.8
304.824
304.849
304.876
304.906
304.937
304.971
305.007
305.046
305.088
305.133
305.181
305.232
305.287
305.345
305.408
305.475
305.546
305.621
305.702
305.786
305.876
305.971
306.07
306.173
306.282
306.394
306.509
306.628
306.748
306.87
306.992
307.113
307.231
307.347
307.459
307.568
307.677
307.789
307.906
308.029
308.144
306.416
306.003
305.597
305.259
304.976
304.739
304.541
304.375
304.236
304.119
304.021
303.94
303.874
303.819
303.775
303.741
303.716
303.698
303.686
303.681
303.68
303.684
303.692
303.703
303.717
303.733
303.752
303.772
303.793
303.815
303.838
303.861
303.883
303.906
303.927
303.948
303.968
303.987
304.004
304.02
304.035
304.049
304.061
304.071
304.08
304.088
304.094
304.099
304.103
304.106
304.107
304.108
304.108
304.107
304.106
304.104
304.101
304.098
304.095
304.091
304.087
304.083
304.079
304.075
304.071
304.067
304.063
304.06
304.056
304.053
304.05
304.047
304.045
304.043
304.041
304.04
304.039
304.038
304.038
304.038
304.039
304.04
304.041
304.042
304.044
304.047
304.049
304.052
304.055
304.059
304.063
304.067
304.072
304.077
304.082
304.087
304.093
304.099
304.105
304.112
304.118
304.125
304.133
304.14
304.148
304.156
304.165
304.173
304.182
304.191
304.2
304.21
304.22
304.229
304.239
304.25
304.26
304.271
304.281
304.292
304.303
304.314
304.325
304.336
304.348
304.359
304.37
304.382
304.393
304.404
304.416
304.427
304.438
304.45
304.461
304.473
304.484
304.495
304.507
304.518
304.529
304.541
304.553
304.564
304.576
304.588
304.601
304.614
304.627
304.64
304.655
304.67
304.685
304.702
304.719
304.737
304.757
304.778
304.8
304.824
304.849
304.876
304.906
304.937
304.971
305.007
305.046
305.088
305.133
305.181
305.232
305.287
305.345
305.408
305.475
305.546
305.621
305.702
305.786
305.876
305.971
306.07
306.173
306.282
306.394
306.509
306.628
306.748
306.87
306.992
307.113
307.231
307.347
307.459
307.568
307.677
307.789
307.906
308.029
308.144
304.987
304.731
304.474
304.242
304.035
303.854
303.697
303.563
303.448
303.352
303.271
303.203
303.148
303.104
303.069
303.043
303.024
303.013
303.007
303.007
303.011
303.02
303.032
303.047
303.065
303.086
303.108
303.131
303.156
303.182
303.207
303.233
303.259
303.284
303.308
303.332
303.354
303.376
303.396
303.414
303.431
303.447
303.461
303.473
303.484
303.494
303.502
303.508
303.514
303.518
303.521
303.523
303.523
303.523
303.523
303.521
303.519
303.516
303.513
303.509
303.506
303.501
303.497
303.493
303.488
303.484
303.48
303.475
303.471
303.467
303.464
303.46
303.457
303.454
303.451
303.449
303.447
303.445
303.444
303.443
303.443
303.442
303.442
303.443
303.444
303.445
303.447
303.448
303.451
303.453
303.456
303.46
303.463
303.467
303.472
303.476
303.481
303.487
303.492
303.498
303.504
303.511
303.518
303.525
303.533
303.54
303.549
303.557
303.566
303.574
303.584
303.593
303.603
303.613
303.623
303.633
303.644
303.655
303.666
303.677
303.688
303.699
303.711
303.723
303.734
303.746
303.758
303.77
303.782
303.794
303.806
303.819
303.831
303.843
303.855
303.867
303.879
303.892
303.904
303.916
303.929
303.941
303.954
303.966
303.979
303.993
304.006
304.02
304.034
304.049
304.064
304.08
304.097
304.115
304.133
304.153
304.173
304.195
304.219
304.244
304.27
304.299
304.329
304.362
304.397
304.434
304.474
304.517
304.563
304.612
304.664
304.72
304.779
304.843
304.91
304.982
305.057
305.138
305.223
305.312
305.406
305.504
305.607
305.713
305.823
305.936
306.052
306.169
306.286
306.403
306.518
306.63
306.737
306.839
306.935
307.023
307.103
307.173
307.221
307.24
304.987
304.731
304.474
304.242
304.035
303.854
303.697
303.563
303.448
303.352
303.271
303.203
303.148
303.104
303.069
303.043
303.024
303.013
303.007
303.007
303.011
303.02
303.032
303.047
303.065
303.086
303.108
303.131
303.156
303.182
303.207
303.233
303.259
303.284
303.308
303.332
303.354
303.376
303.396
303.414
303.431
303.447
303.461
303.473
303.484
303.494
303.502
303.508
303.514
303.518
303.521
303.523
303.523
303.523
303.523
303.521
303.519
303.516
303.513
303.509
303.506
303.501
303.497
303.493
303.488
303.484
303.48
303.475
303.471
303.467
303.464
303.46
303.457
303.454
303.451
303.449
303.447
303.445
303.444
303.443
303.443
303.442
303.442
303.443
303.444
303.445
303.447
303.448
303.451
303.453
303.456
303.46
303.463
303.467
303.472
303.476
303.481
303.487
303.492
303.498
303.504
303.511
303.518
303.525
303.533
303.54
303.549
303.557
303.566
303.574
303.584
303.593
303.603
303.613
303.623
303.633
303.644
303.655
303.666
303.677
303.688
303.7
303.711
303.723
303.734
303.746
303.758
303.77
303.782
303.794
303.806
303.819
303.831
303.843
303.855
303.867
303.879
303.892
303.904
303.916
303.929
303.941
303.954
303.966
303.979
303.993
304.006
304.02
304.034
304.049
304.064
304.08
304.097
304.115
304.133
304.153
304.173
304.195
304.219
304.244
304.27
304.299
304.329
304.362
304.397
304.434
304.474
304.517
304.563
304.612
304.664
304.72
304.779
304.843
304.91
304.982
305.057
305.138
305.223
305.312
305.406
305.504
305.607
305.713
305.823
305.936
306.052
306.169
306.286
306.403
306.518
306.63
306.737
306.839
306.935
307.023
307.103
307.173
307.221
307.24
303.966
303.802
303.636
303.477
303.327
303.19
303.069
302.962
302.869
302.79
302.724
302.668
302.623
302.588
302.56
302.541
302.528
302.521
302.52
302.524
302.532
302.544
302.559
302.577
302.598
302.62
302.645
302.671
302.698
302.725
302.753
302.78
302.808
302.835
302.861
302.886
302.91
302.933
302.955
302.975
302.994
303.011
303.026
303.04
303.053
303.063
303.072
303.08
303.087
303.092
303.096
303.098
303.1
303.101
303.1
303.099
303.098
303.095
303.093
303.089
303.086
303.082
303.077
303.073
303.068
303.064
303.059
303.055
303.051
303.046
303.042
303.038
303.035
303.031
303.028
303.025
303.023
303.021
303.019
303.017
303.016
303.015
303.015
303.015
303.015
303.016
303.017
303.018
303.02
303.022
303.024
303.027
303.03
303.034
303.038
303.042
303.046
303.051
303.056
303.062
303.068
303.074
303.081
303.088
303.095
303.102
303.11
303.118
303.127
303.135
303.144
303.154
303.163
303.173
303.183
303.193
303.204
303.214
303.225
303.236
303.248
303.259
303.27
303.282
303.294
303.306
303.318
303.33
303.342
303.354
303.367
303.379
303.391
303.404
303.416
303.429
303.441
303.454
303.466
303.479
303.492
303.505
303.518
303.531
303.544
303.558
303.572
303.587
303.601
303.617
303.633
303.649
303.667
303.685
303.704
303.725
303.746
303.769
303.793
303.819
303.846
303.875
303.907
303.94
303.976
304.014
304.055
304.099
304.145
304.195
304.248
304.304
304.364
304.428
304.496
304.568
304.644
304.724
304.808
304.897
304.99
305.087
305.188
305.293
305.401
305.511
305.623
305.736
305.849
305.961
306.071
306.176
306.277
306.37
306.455
306.53
306.592
306.637
306.657
306.644
303.966
303.802
303.636
303.477
303.327
303.19
303.068
302.962
302.869
302.79
302.724
302.668
302.623
302.588
302.56
302.541
302.528
302.521
302.52
302.524
302.532
302.543
302.559
302.577
302.598
302.62
302.645
302.671
302.698
302.725
302.753
302.78
302.808
302.835
302.861
302.886
302.91
302.933
302.955
302.975
302.994
303.011
303.026
303.04
303.053
303.063
303.072
303.08
303.087
303.092
303.096
303.098
303.1
303.101
303.1
303.099
303.098
303.095
303.093
303.089
303.086
303.082
303.077
303.073
303.068
303.064
303.059
303.055
303.051
303.046
303.042
303.038
303.035
303.031
303.028
303.025
303.023
303.021
303.019
303.017
303.016
303.015
303.015
303.015
303.015
303.016
303.017
303.018
303.02
303.022
303.024
303.027
303.03
303.034
303.038
303.042
303.046
303.051
303.056
303.062
303.068
303.074
303.081
303.088
303.095
303.102
303.11
303.118
303.127
303.135
303.144
303.154
303.163
303.173
303.183
303.193
303.204
303.214
303.225
303.236
303.248
303.259
303.27
303.282
303.294
303.306
303.318
303.33
303.342
303.354
303.367
303.379
303.391
303.404
303.416
303.429
303.441
303.454
303.466
303.479
303.492
303.505
303.518
303.531
303.544
303.558
303.572
303.587
303.601
303.617
303.633
303.649
303.667
303.685
303.704
303.725
303.746
303.769
303.793
303.819
303.846
303.875
303.907
303.94
303.976
304.014
304.055
304.099
304.145
304.195
304.248
304.304
304.364
304.428
304.496
304.568
304.644
304.724
304.808
304.897
304.99
305.087
305.188
305.293
305.401
305.511
305.623
305.736
305.849
305.961
306.071
306.176
306.277
306.37
306.455
306.53
306.592
306.637
306.657
306.644
303.192
303.082
302.971
302.861
302.753
302.651
302.557
302.474
302.401
302.337
302.284
302.239
302.203
302.175
302.155
302.141
302.133
302.13
302.133
302.14
302.151
302.165
302.183
302.203
302.226
302.251
302.277
302.304
302.332
302.361
302.39
302.419
302.448
302.476
302.503
302.53
302.555
302.579
302.602
302.623
302.643
302.661
302.678
302.693
302.706
302.718
302.728
302.737
302.744
302.75
302.754
302.758
302.76
302.761
302.762
302.761
302.76
302.758
302.756
302.753
302.749
302.746
302.741
302.737
302.733
302.728
302.724
302.719
302.715
302.71
302.706
302.702
302.698
302.695
302.691
302.688
302.685
302.683
302.681
302.679
302.677
302.676
302.675
302.675
302.675
302.675
302.676
302.677
302.678
302.68
302.682
302.684
302.687
302.69
302.694
302.698
302.702
302.706
302.711
302.717
302.722
302.728
302.734
302.741
302.748
302.755
302.763
302.771
302.779
302.787
302.796
302.805
302.814
302.824
302.833
302.843
302.854
302.864
302.875
302.886
302.897
302.908
302.919
302.931
302.943
302.954
302.966
302.978
302.99
303.002
303.015
303.027
303.039
303.052
303.064
303.077
303.089
303.102
303.115
303.127
303.14
303.153
303.167
303.18
303.194
303.208
303.222
303.237
303.252
303.268
303.285
303.302
303.32
303.338
303.358
303.379
303.401
303.424
303.449
303.476
303.504
303.534
303.566
303.6
303.636
303.675
303.717
303.761
303.808
303.858
303.912
303.969
304.029
304.094
304.162
304.234
304.31
304.39
304.474
304.562
304.654
304.75
304.85
304.952
305.057
305.165
305.274
305.383
305.492
305.6
305.704
305.804
305.899
305.985
306.063
306.129
306.181
306.216
306.229
306.213
303.192
303.082
302.971
302.861
302.753
302.651
302.557
302.474
302.4
302.337
302.284
302.239
302.203
302.175
302.155
302.141
302.133
302.13
302.133
302.14
302.151
302.165
302.183
302.203
302.226
302.251
302.277
302.304
302.332
302.361
302.39
302.419
302.448
302.476
302.503
302.53
302.555
302.579
302.602
302.623
302.643
302.661
302.678
302.693
302.706
302.718
302.728
302.737
302.744
302.75
302.754
302.758
302.76
302.761
302.762
302.761
302.76
302.758
302.756
302.753
302.749
302.746
302.741
302.737
302.733
302.728
302.724
302.719
302.715
302.71
302.706
302.702
302.698
302.695
302.691
302.688
302.685
302.683
302.681
302.679
302.677
302.676
302.675
302.675
302.675
302.675
302.676
302.677
302.678
302.68
302.682
302.684
302.687
302.69
302.694
302.698
302.702
302.706
302.711
302.717
302.722
302.728
302.734
302.741
302.748
302.755
302.763
302.771
302.779
302.787
302.796
302.805
302.814
302.824
302.833
302.843
302.854
302.864
302.875
302.886
302.897
302.908
302.919
302.931
302.943
302.954
302.966
302.978
302.99
303.002
303.015
303.027
303.039
303.052
303.064
303.077
303.089
303.102
303.115
303.127
303.14
303.153
303.167
303.18
303.194
303.208
303.222
303.237
303.252
303.268
303.285
303.302
303.32
303.338
303.358
303.379
303.401
303.424
303.449
303.476
303.504
303.534
303.566
303.6
303.636
303.675
303.717
303.761
303.808
303.858
303.912
303.969
304.029
304.094
304.162
304.234
304.31
304.39
304.474
304.562
304.654
304.75
304.85
304.952
305.057
305.165
305.274
305.383
305.492
305.6
305.704
305.804
305.899
305.985
306.063
306.129
306.181
306.216
306.229
306.213
302.577
302.5
302.424
302.347
302.269
302.194
302.123
302.059
302.002
301.952
301.91
301.875
301.848
301.827
301.812
301.803
301.8
301.801
301.807
301.817
301.83
301.847
301.867
301.889
301.913
301.939
301.966
301.995
302.024
302.054
302.084
302.114
302.143
302.172
302.2
302.228
302.254
302.279
302.302
302.324
302.345
302.364
302.381
302.397
302.411
302.424
302.435
302.444
302.452
302.459
302.464
302.468
302.471
302.473
302.474
302.474
302.473
302.471
302.469
302.467
302.463
302.46
302.456
302.452
302.448
302.443
302.439
302.434
302.43
302.425
302.421
302.417
302.413
302.409
302.406
302.402
302.4
302.397
302.395
302.392
302.391
302.389
302.388
302.388
302.387
302.387
302.388
302.389
302.39
302.391
302.393
302.395
302.398
302.401
302.404
302.408
302.412
302.416
302.421
302.426
302.431
302.437
302.443
302.449
302.456
302.463
302.47
302.477
302.485
302.493
302.502
302.511
302.52
302.529
302.538
302.548
302.558
302.568
302.579
302.589
302.6
302.611
302.622
302.634
302.645
302.657
302.668
302.68
302.692
302.704
302.716
302.728
302.74
302.753
302.765
302.777
302.79
302.802
302.815
302.828
302.841
302.854
302.868
302.881
302.895
302.909
302.924
302.939
302.955
302.971
302.987
303.005
303.023
303.042
303.063
303.084
303.107
303.131
303.156
303.183
303.212
303.242
303.275
303.31
303.347
303.387
303.429
303.474
303.522
303.572
303.627
303.684
303.745
303.81
303.878
303.95
304.026
304.106
304.189
304.277
304.368
304.463
304.561
304.661
304.764
304.869
304.975
305.081
305.186
305.289
305.39
305.485
305.575
305.656
305.729
305.79
305.837
305.869
305.882
305.873
302.577
302.5
302.424
302.347
302.269
302.194
302.123
302.059
302.002
301.952
301.91
301.875
301.848
301.827
301.812
301.803
301.8
301.801
301.807
301.817
301.83
301.847
301.867
301.889
301.913
301.939
301.966
301.995
302.024
302.054
302.084
302.114
302.143
302.172
302.2
302.228
302.254
302.279
302.302
302.324
302.345
302.364
302.381
302.397
302.411
302.424
302.435
302.444
302.452
302.459
302.464
302.468
302.471
302.473
302.474
302.474
302.473
302.471
302.469
302.467
302.463
302.46
302.456
302.452
302.448
302.443
302.439
302.434
302.43
302.425
302.421
302.417
302.413
302.409
302.406
302.402
302.4
302.397
302.395
302.392
302.391
302.389
302.388
302.388
302.387
302.387
302.388
302.389
302.39
302.391
302.393
302.395
302.398
302.401
302.404
302.408
302.412
302.416
302.421
302.426
302.431
302.437
302.443
302.449
302.456
302.463
302.47
302.477
302.485
302.493
302.502
302.511
302.52
302.529
302.538
302.548
302.558
302.568
302.579
302.589
302.6
302.611
302.622
302.634
302.645
302.657
302.668
302.68
302.692
302.704
302.716
302.728
302.74
302.753
302.765
302.777
302.79
302.802
302.815
302.828
302.841
302.854
302.868
302.881
302.895
302.909
302.924
302.939
302.955
302.971
302.987
303.005
303.023
303.042
303.063
303.084
303.107
303.131
303.156
303.183
303.212
303.242
303.275
303.31
303.347
303.387
303.429
303.474
303.522
303.572
303.627
303.684
303.745
303.81
303.878
303.95
304.026
304.106
304.189
304.277
304.368
304.463
304.561
304.661
304.764
304.869
304.975
305.081
305.186
305.289
305.39
305.485
305.575
305.656
305.729
305.79
305.837
305.869
305.882
305.873
302.07
302.016
301.963
301.908
301.853
301.798
301.745
301.697
301.653
301.616
301.584
301.557
301.537
301.522
301.513
301.509
301.509
301.514
301.523
301.535
301.551
301.57
301.591
301.614
301.64
301.667
301.695
301.725
301.755
301.785
301.816
301.846
301.876
301.906
301.935
301.962
301.989
302.014
302.039
302.061
302.082
302.102
302.12
302.136
302.151
302.164
302.175
302.186
302.194
302.201
302.207
302.212
302.215
302.218
302.219
302.219
302.219
302.218
302.216
302.214
302.211
302.208
302.204
302.2
302.196
302.192
302.187
302.183
302.178
302.174
302.17
302.166
302.162
302.158
302.154
302.151
302.148
302.145
302.143
302.141
302.139
302.137
302.136
302.135
302.135
302.135
302.135
302.135
302.136
302.138
302.139
302.141
302.144
302.147
302.15
302.153
302.157
302.161
302.165
302.17
302.175
302.181
302.187
302.193
302.199
302.206
302.213
302.22
302.228
302.236
302.244
302.253
302.261
302.27
302.279
302.289
302.299
302.309
302.319
302.329
302.34
302.35
302.361
302.372
302.383
302.395
302.406
302.417
302.429
302.441
302.453
302.465
302.477
302.489
302.501
302.513
302.526
302.538
302.551
302.564
302.577
302.59
302.604
302.617
302.631
302.646
302.66
302.676
302.691
302.708
302.725
302.743
302.761
302.781
302.802
302.824
302.847
302.871
302.897
302.925
302.954
302.985
303.019
303.054
303.092
303.132
303.175
303.221
303.269
303.321
303.376
303.434
303.495
303.56
303.629
303.701
303.777
303.856
303.939
304.026
304.116
304.21
304.306
304.405
304.506
304.608
304.711
304.814
304.916
305.016
305.112
305.204
305.289
305.367
305.437
305.495
305.541
305.573
305.589
305.589
302.07
302.016
301.963
301.908
301.853
301.798
301.745
301.697
301.653
301.616
301.584
301.557
301.537
301.522
301.513
301.509
301.509
301.514
301.523
301.535
301.551
301.57
301.591
301.614
301.64
301.667
301.695
301.725
301.755
301.785
301.816
301.846
301.876
301.906
301.935
301.962
301.989
302.014
302.039
302.061
302.082
302.102
302.12
302.136
302.151
302.164
302.175
302.185
302.194
302.201
302.207
302.212
302.215
302.218
302.219
302.219
302.219
302.218
302.216
302.214
302.211
302.208
302.204
302.2
302.196
302.192
302.187
302.183
302.178
302.174
302.17
302.166
302.162
302.158
302.154
302.151
302.148
302.145
302.143
302.141
302.139
302.137
302.136
302.135
302.135
302.135
302.135
302.135
302.136
302.138
302.139
302.141
302.144
302.147
302.15
302.153
302.157
302.161
302.165
302.17
302.175
302.181
302.187
302.193
302.199
302.206
302.213
302.22
302.228
302.236
302.244
302.253
302.261
302.27
302.279
302.289
302.299
302.309
302.319
302.329
302.34
302.35
302.361
302.372
302.383
302.395
302.406
302.417
302.429
302.441
302.453
302.465
302.477
302.489
302.501
302.513
302.526
302.538
302.551
302.564
302.577
302.59
302.603
302.617
302.631
302.646
302.66
302.676
302.691
302.708
302.725
302.743
302.761
302.781
302.802
302.824
302.847
302.871
302.897
302.925
302.954
302.985
303.019
303.054
303.092
303.132
303.175
303.221
303.269
303.321
303.376
303.434
303.495
303.56
303.628
303.701
303.777
303.856
303.939
304.026
304.116
304.21
304.306
304.405
304.506
304.608
304.711
304.814
304.916
305.016
305.112
305.204
305.289
305.367
305.437
305.495
305.541
305.573
305.589
305.589
301.642
301.604
301.567
301.529
301.489
301.45
301.412
301.376
301.344
301.316
301.293
301.274
301.26
301.251
301.247
301.247
301.251
301.258
301.27
301.284
301.302
301.322
301.345
301.37
301.396
301.424
301.453
301.483
301.513
301.544
301.575
301.606
301.637
301.666
301.695
301.723
301.75
301.776
301.801
301.824
301.845
301.865
301.883
301.9
301.915
301.929
301.941
301.951
301.96
301.968
301.974
301.979
301.983
301.986
301.988
301.989
301.989
301.988
301.986
301.984
301.982
301.979
301.975
301.972
301.968
301.964
301.959
301.955
301.951
301.946
301.942
301.938
301.934
301.93
301.927
301.923
301.92
301.918
301.915
301.913
301.911
301.909
301.908
301.907
301.907
301.906
301.907
301.907
301.908
301.909
301.911
301.913
301.915
301.917
301.92
301.924
301.927
301.931
301.936
301.94
301.945
301.951
301.956
301.962
301.968
301.975
301.982
301.989
301.996
302.004
302.012
302.02
302.029
302.037
302.046
302.055
302.065
302.075
302.084
302.094
302.105
302.115
302.126
302.136
302.147
302.158
302.169
302.181
302.192
302.204
302.215
302.227
302.239
302.251
302.263
302.275
302.287
302.3
302.312
302.325
302.338
302.351
302.365
302.378
302.393
302.407
302.422
302.438
302.454
302.47
302.488
302.506
302.525
302.545
302.566
302.588
302.612
302.637
302.664
302.692
302.722
302.754
302.788
302.824
302.863
302.903
302.947
302.993
303.043
303.095
303.15
303.209
303.27
303.336
303.404
303.477
303.553
303.632
303.715
303.801
303.89
303.983
304.078
304.175
304.274
304.374
304.474
304.574
304.673
304.77
304.863
304.951
305.034
305.11
305.176
305.234
305.28
305.314
305.335
305.341
301.642
301.603
301.567
301.529
301.489
301.45
301.412
301.376
301.344
301.316
301.293
301.274
301.26
301.251
301.247
301.247
301.251
301.258
301.27
301.284
301.302
301.322
301.345
301.37
301.396
301.424
301.453
301.483
301.513
301.544
301.575
301.606
301.637
301.666
301.695
301.723
301.75
301.776
301.801
301.824
301.845
301.865
301.883
301.9
301.915
301.929
301.941
301.951
301.96
301.968
301.974
301.979
301.983
301.986
301.988
301.989
301.989
301.988
301.986
301.984
301.982
301.979
301.975
301.972
301.968
301.964
301.959
301.955
301.951
301.946
301.942
301.938
301.934
301.93
301.927
301.923
301.92
301.918
301.915
301.913
301.911
301.909
301.908
301.907
301.907
301.906
301.907
301.907
301.908
301.909
301.911
301.913
301.915
301.917
301.92
301.924
301.927
301.931
301.936
301.94
301.945
301.951
301.956
301.962
301.968
301.975
301.982
301.989
301.996
302.004
302.012
302.02
302.029
302.037
302.046
302.055
302.065
302.075
302.084
302.094
302.105
302.115
302.126
302.136
302.147
302.158
302.169
302.181
302.192
302.204
302.215
302.227
302.239
302.251
302.263
302.275
302.287
302.3
302.312
302.325
302.338
302.351
302.365
302.378
302.393
302.407
302.422
302.438
302.454
302.47
302.488
302.506
302.525
302.545
302.566
302.588
302.612
302.637
302.664
302.692
302.722
302.754
302.788
302.824
302.862
302.903
302.947
302.993
303.043
303.095
303.15
303.209
303.27
303.336
303.404
303.477
303.553
303.632
303.715
303.801
303.89
303.983
304.078
304.175
304.274
304.374
304.474
304.574
304.673
304.77
304.863
304.951
305.034
305.11
305.177
305.234
305.28
305.314
305.335
305.341
301.275
301.248
301.223
301.196
301.169
301.141
301.114
301.089
301.066
301.047
301.031
301.019
301.011
301.006
301.006
301.01
301.017
301.027
301.041
301.057
301.077
301.098
301.122
301.148
301.175
301.203
301.233
301.263
301.294
301.325
301.356
301.387
301.418
301.448
301.477
301.505
301.532
301.558
301.583
301.606
301.627
301.648
301.666
301.683
301.699
301.713
301.725
301.736
301.745
301.753
301.76
301.765
301.77
301.773
301.775
301.776
301.776
301.776
301.775
301.773
301.77
301.768
301.764
301.761
301.757
301.753
301.749
301.745
301.741
301.737
301.732
301.728
301.724
301.721
301.717
301.714
301.711
301.708
301.705
301.703
301.701
301.7
301.698
301.697
301.697
301.697
301.697
301.697
301.698
301.699
301.7
301.702
301.704
301.707
301.71
301.713
301.717
301.72
301.725
301.729
301.734
301.739
301.745
301.75
301.757
301.763
301.77
301.777
301.784
301.791
301.799
301.807
301.815
301.824