/*--------------------------------*- C++ -*----------------------------------*\
  =========                 |
  \\      /  F ield         | OpenFOAM: The Open Source CFD Toolbox
   \\    /   O peration     | Website:  https://openfoam.org
    \\  /    A nd           | Version:  8
     \\/     M anipulation  |
\*---------------------------------------------------------------------------*/
FoamFile
{
    version     2.0;
    format      ascii;
    class       volVectorField;
    location    "1700";
    object      U;
}
// * * * * * * * * * * * * * * * * * * * * * * * * * * * * * * * * * * * * * //

dimensions      [0 1 -1 0 0 0 0];

internalField   nonuniform List<vector> 
46000
(
(-0.00011768 -3.57041e-07 0.000118733)
(-0.00117037 1.12947e-07 0.000587092)
(-0.00290928 1.58595e-07 0.000945872)
(-0.00463413 1.70674e-07 0.000952053)
(-0.00598833 9.91005e-08 0.000761647)
(-0.0068643 -1.41606e-07 0.000508053)
(-0.00727219 -5.77836e-07 0.000254645)
(-0.00726822 -1.12603e-06 2.97202e-05)
(-0.00692857 -1.65021e-06 -0.00015496)
(-0.00633338 -2.03639e-06 -0.000296178)
(-0.00555869 -2.19431e-06 -0.000395493)
(-0.00467435 -2.04423e-06 -0.000456041)
(-0.00374256 -1.59286e-06 -0.000481878)
(-0.00281806 -1.00128e-06 -0.000476968)
(-0.00194812 -5.32558e-07 -0.000444541)
(-0.00117386 -4.11121e-07 -0.000387875)
(-0.000530185 -7.1996e-07 -0.000310295)
(-4.63595e-05 -1.39464e-06 -0.000215086)
(0.000253749 -2.2799e-06 -0.000105651)
(0.000351011 -3.20736e-06 1.48949e-05)
(0.000232404 -3.97687e-06 0.000143824)
(-0.000113857 -4.41396e-06 0.000278538)
(-0.00069417 -4.48734e-06 0.000416288)
(-0.00151121 -4.32758e-06 0.000554498)
(-0.00256403 -4.17714e-06 0.000691292)
(-0.00384784 -4.23829e-06 0.000825042)
(-0.00535553 -4.53174e-06 0.000954645)
(-0.00707721 -4.89373e-06 0.00107838)
(-0.00900107 -5.09952e-06 0.00119426)
(-0.0111129 -5.00591e-06 0.00130095)
(-0.0133967 -4.61161e-06 0.00139729)
(-0.0158347 -4.02272e-06 0.00148249)
(-0.0184081 -3.38288e-06 0.00155593)
(-0.0210969 -2.8192e-06 0.00161724)
(-0.0238805 -2.41086e-06 0.00166619)
(-0.0267378 -2.17154e-06 0.00170275)
(-0.0296476 -2.04089e-06 0.00172697)
(-0.0325891 -1.89219e-06 0.00173893)
(-0.0355418 -1.58964e-06 0.00173873)
(-0.0384863 -1.08462e-06 0.00172668)
(-0.0414037 -4.58935e-07 0.00170334)
(-0.044276 1.31044e-07 0.00166952)
(-0.0470861 5.34195e-07 0.00162609)
(-0.0498184 6.40745e-07 0.00157409)
(-0.0524585 4.24887e-07 0.00151444)
(-0.054993 -1.35115e-08 0.00144779)
(-0.0574104 -5.09495e-07 0.00137498)
(-0.0597005 -9.39226e-07 0.00129703)
(-0.0618545 -1.21693e-06 0.00121461)
(-0.0638647 -1.23695e-06 0.00112808)
(-0.0657257 -9.47829e-07 0.00103831)
(-0.0674332 -4.74474e-07 0.000946354)
(-0.0689835 -2.30359e-08 0.000852754)
(-0.0703738 3.0225e-07 0.000758099)
(-0.0716033 4.39722e-07 0.000663443)
(-0.0726716 2.93511e-07 0.000569609)
(-0.073579 -1.01966e-07 0.000476898)
(-0.0743271 -5.41601e-07 0.000385617)
(-0.0749184 -8.89963e-07 0.000296102)
(-0.0753557 -1.15034e-06 0.000208619)
(-0.0756427 -1.29063e-06 0.000123743)
(-0.0757836 -1.25677e-06 4.19964e-05)
(-0.0757829 -1.08415e-06 -3.6834e-05)
(-0.0756457 -8.09229e-07 -0.000113148)
(-0.0753772 -4.38469e-07 -0.000186471)
(-0.0749825 -5.92297e-08 -0.000256302)
(-0.0744661 2.11598e-07 -0.000323026)
(-0.0738336 3.27235e-07 -0.000386675)
(-0.073091 2.71007e-07 -0.000446503)
(-0.0722436 7.84061e-08 -0.000502452)
(-0.0712961 -9.79864e-08 -0.000555467)
(-0.0702547 -1.07657e-07 -0.000605839)
(-0.0691259 1.41422e-08 -0.000652791)
(-0.0679145 8.20765e-08 -0.000696093)
(-0.0666247 2.34175e-08 -0.000736542)
(-0.0652618 -1.32223e-08 -0.000774457)
(-0.0638316 5.18074e-08 -0.000809208)
(-0.0623387 3.23703e-08 -0.000840683)
(-0.0607868 -1.94912e-07 -0.000869685)
(-0.0591805 -4.41578e-07 -0.000896511)
(-0.0575247 -5.39378e-07 -0.000920709)
(-0.055823 -5.9887e-07 -0.000942449)
(-0.0540788 -7.45664e-07 -0.000962518)
(-0.0522966 -9.26939e-07 -0.000980887)
(-0.0504802 -1.08092e-06 -0.000996895)
(-0.0486322 -1.21089e-06 -0.00101076)
(-0.0467556 -1.29156e-06 -0.00102338)
(-0.0448542 -1.32906e-06 -0.00103481)
(-0.042931 -1.43205e-06 -0.00104432)
(-0.0409878 -1.64922e-06 -0.00105186)
(-0.0390268 -1.85622e-06 -0.00105815)
(-0.0370508 -1.92084e-06 -0.0010636)
(-0.0350625 -1.85005e-06 -0.00106801)
(-0.0330638 -1.7013e-06 -0.00107133)
(-0.0310563 -1.48242e-06 -0.00107391)
(-0.0290421 -1.20421e-06 -0.00107598)
(-0.027023 -9.36962e-07 -0.00107743)
(-0.0250004 -7.66367e-07 -0.00107814)
(-0.0229755 -7.35024e-07 -0.00107818)
(-0.0209497 -8.31954e-07 -0.00107759)
(-0.0189243 -1.00251e-06 -0.00107643)
(-0.0169003 -1.16434e-06 -0.00107476)
(-0.0148787 -1.22958e-06 -0.00107278)
(-0.0128603 -1.12557e-06 -0.00107088)
(-0.0108469 -8.26906e-07 -0.00106838)
(-0.00883914 -3.90894e-07 -0.00106563)
(-0.00683762 7.01117e-08 -0.00106366)
(-0.00484262 4.83378e-07 -0.00106174)
(-0.00285537 8.53304e-07 -0.00105937)
(-0.000878537 1.18329e-06 -0.00105619)
(0.00109216 1.41211e-06 -0.00105014)
(0.00304666 1.49703e-06 -0.00104182)
(0.00498967 1.51242e-06 -0.00103357)
(0.00691817 1.54958e-06 -0.00102523)
(0.00883152 1.5673e-06 -0.00101631)
(0.0107295 1.43833e-06 -0.00100702)
(0.0126117 1.13629e-06 -0.000998009)
(0.0144773 7.9657e-07 -0.00098942)
(0.0163254 5.58488e-07 -0.000980533)
(0.0181558 4.07003e-07 -0.000970767)
(0.0199684 2.0768e-07 -0.000960606)
(0.021763 -1.37487e-07 -0.00095108)
(0.0235391 -5.96686e-07 -0.000942417)
(0.0252961 -1.03687e-06 -0.000933668)
(0.0270342 -1.3154e-06 -0.000923851)
(0.0287541 -1.36979e-06 -0.000913191)
(0.0304557 -1.2607e-06 -0.000902954)
(0.0321386 -1.13027e-06 -0.000894086)
(0.0338023 -1.09008e-06 -0.000886243)
(0.0354471 -1.13139e-06 -0.000878271)
(0.037074 -1.14739e-06 -0.000869485)
(0.0386837 -1.05083e-06 -0.000860317)
(0.0402763 -8.74869e-07 -0.000851705)
(0.0418521 -7.60028e-07 -0.000844048)
(0.0434116 -8.34498e-07 -0.000836922)
(0.0449564 -1.08575e-06 -0.000829783)
(0.0464875 -1.33436e-06 -0.000822725)
(0.0480051 -1.34568e-06 -0.000816381)
(0.0495094 -1.00207e-06 -0.000811119)
(0.0510004 -3.9605e-07 -0.000806546)
(0.0524791 2.36775e-07 -0.000801885)
(0.0539467 6.86752e-07 -0.000796775)
(0.0554035 8.94117e-07 -0.000791566)
(0.0568497 9.34667e-07 -0.000786801)
(0.0582848 9.11266e-07 -0.000782531)
(0.0597088 8.68634e-07 -0.000778201)
(0.0611219 7.97415e-07 -0.000773162)
(0.0625239 6.92096e-07 -0.000767174)
(0.0639139 5.89788e-07 -0.000760385)
(0.0652899 5.59314e-07 -0.000752903)
(0.0666496 6.61898e-07 -0.000744467)
(0.06799 9.12866e-07 -0.000734526)
(0.069308 1.25673e-06 -0.000722529)
(0.0705997 1.56634e-06 -0.000708057)
(0.0718605 1.68443e-06 -0.000690696)
(0.0730852 1.50808e-06 -0.000669862)
(0.0742676 1.07068e-06 -0.00064485)
(0.0754004 5.48598e-07 -0.000615062)
(0.0764753 1.63098e-07 -0.000580149)
(0.0774827 3.86192e-08 -0.000539867)
(0.0784122 1.33208e-07 -0.00049376)
(0.0792524 3.05229e-07 -0.000441006)
(0.0799911 4.57342e-07 -0.000380618)
(0.0806146 6.18194e-07 -0.000311841)
(0.081108 8.75481e-07 -0.000234386)
(0.0814556 1.2245e-06 -0.000148288)
(0.0816405 1.49954e-06 -5.35066e-05)
(0.0816476 1.46311e-06 5.06863e-05)
(0.0814598 1.03179e-06 0.000165866)
(0.0810553 3.74194e-07 0.000293041)
(0.0804141 -2.29543e-07 0.000432103)
(0.0795152 -5.81927e-07 0.000582618)
(0.0783382 -6.58294e-07 0.000744143)
(0.0768632 -5.13389e-07 0.000916149)
(0.0750708 -1.74247e-07 0.00109782)
(0.0729427 3.26755e-07 0.00128802)
(0.0704628 8.54094e-07 0.00148547)
(0.0676181 1.19909e-06 0.00168874)
(0.0643982 1.2488e-06 0.00189589)
(0.0607958 1.07825e-06 0.00210397)
(0.056808 8.18131e-07 0.00230926)
(0.0524381 4.57438e-07 0.00250783)
(0.047697 -1.22809e-07 0.00269573)
(0.042604 -8.83156e-07 0.00286802)
(0.0371866 -1.50291e-06 0.003018)
(0.0314839 -1.63918e-06 0.0031374)
(0.0255494 -1.22202e-06 0.00321705)
(0.0194536 -3.34971e-07 0.0032463)
(0.0132855 1.03402e-06 0.00321187)
(0.00716522 2.75686e-06 0.00309729)
(0.00123643 4.20136e-06 0.00287394)
(-0.00431911 4.58337e-06 0.00249979)
(-0.0091961 3.89352e-06 0.00195753)
(-0.0131382 2.77851e-06 0.0012405)
(-0.0157566 1.82278e-06 0.000325251)
(-0.016645 1.1675e-06 -0.0007838)
(-0.0153854 4.99987e-07 -0.00194894)
(-0.0118277 -6.50363e-08 -0.00280455)
(-0.0064653 -2.82121e-07 -0.002643)
(-0.00135969 -4.59858e-07 -0.00143318)
(-0.000115002 -3.57047e-07 0.000120688)
(-0.00116618 1.12948e-07 0.000588356)
(-0.00290723 1.58593e-07 0.000945345)
(-0.00463327 1.7067e-07 0.000950451)
(-0.00598774 9.90983e-08 0.000759347)
(-0.00686334 -1.41603e-07 0.000504876)
(-0.00727095 -5.77829e-07 0.00025029)
(-0.00726713 -1.12604e-06 2.42611e-05)
(-0.00692803 -1.65023e-06 -0.000160912)
(-0.00633372 -2.03642e-06 -0.000301623)
(-0.00556018 -2.19436e-06 -0.000399304)
(-0.00467705 -2.04427e-06 -0.000457195)
(-0.00374615 -1.5929e-06 -0.000479649)
(-0.00282192 -1.00131e-06 -0.000471148)
(-0.00195164 -5.32582e-07 -0.000435569)
(-0.0011767 -4.11146e-07 -0.0003767)
(-0.000532359 -7.20021e-07 -0.000297903)
(-4.80959e-05 -1.3948e-06 -0.000201957)
(0.000252073 -2.28026e-06 -9.14592e-05)
(0.000349049 -3.20762e-06 3.11524e-05)
(0.000229528 -3.97724e-06 0.000163329)
(-0.000117807 -4.41434e-06 0.000302179)
(-0.000698902 -4.48769e-06 0.000444315)
(-0.00151592 -4.32798e-06 0.000586397)
(-0.00256785 -4.17759e-06 0.000725946)
(-0.00385027 -4.23879e-06 0.000861019)
(-0.00535658 -4.5323e-06 0.00099059)
(-0.00707717 -4.89436e-06 0.00111337)
(-0.0090002 -5.10019e-06 0.00122791)
(-0.0111113 -5.00655e-06 0.00133321)
(-0.0133942 -4.61217e-06 0.00142805)
(-0.0158312 -4.02318e-06 0.00151124)
(-0.0184035 -3.38323e-06 0.0015818)
(-0.0210912 -2.81946e-06 0.00163924)
(-0.023874 -2.41105e-06 0.0016836)
(-0.0267309 -2.17167e-06 0.00171537)
(-0.0296407 -2.04098e-06 0.00173517)
(-0.0325829 -1.89225e-06 0.00174364)
(-0.0355368 -1.58966e-06 0.00174115)
(-0.0384825 -1.08462e-06 0.00172793)
(-0.0414008 -4.5893e-07 0.00170422)
(-0.0442736 1.31042e-07 0.0016704)
(-0.0470838 5.34182e-07 0.00162693)
(-0.049816 6.40728e-07 0.00157445)
(-0.0524559 4.24877e-07 0.00151389)
(-0.0549906 -1.35112e-08 0.00144637)
(-0.0574085 -5.09485e-07 0.00137315)
(-0.0596991 -9.39209e-07 0.00129526)
(-0.0618536 -1.21691e-06 0.00121341)
(-0.0638647 -1.23694e-06 0.00112818)
(-0.0657265 -9.47815e-07 0.0010401)
(-0.067434 -4.74467e-07 0.000949475)
(-0.0689836 -2.30355e-08 0.000856744)
(-0.0703734 3.02246e-07 0.000762706)
(-0.071602 4.39717e-07 0.000668063)
(-0.0726691 2.93508e-07 0.00057335)
(-0.0735759 -1.01965e-07 0.000479392)
(-0.0743243 -5.41597e-07 0.000387065)
(-0.0749159 -8.89957e-07 0.000296778)
(-0.0753535 -1.15033e-06 0.000208895)
(-0.0756412 -1.29062e-06 0.000124092)
(-0.0757828 -1.25675e-06 4.26025e-05)
(-0.0757825 -1.08414e-06 -3.60292e-05)
(-0.0756456 -8.09216e-07 -0.00011212)
(-0.0753774 -4.38459e-07 -0.000185351)
(-0.0749825 -5.92281e-08 -0.000255519)
(-0.0744656 2.11591e-07 -0.000322798)
(-0.0738326 3.27223e-07 -0.000386921)
(-0.0730895 2.70997e-07 -0.000447399)
(-0.0722418 7.84032e-08 -0.000504274)
(-0.0712946 -9.79827e-08 -0.000557793)
(-0.0702541 -1.07653e-07 -0.000607806)
(-0.0691256 1.41416e-08 -0.000654207)
(-0.0679137 8.20734e-08 -0.000697384)
(-0.0666236 2.34166e-08 -0.00073761)
(-0.0652613 -1.32218e-08 -0.000774604)
(-0.0638314 5.18058e-08 -0.000808293)
(-0.0623379 3.23695e-08 -0.000839376)
(-0.0607855 -1.94909e-07 -0.000868429)
(-0.0591798 -4.41573e-07 -0.000895073)
(-0.0575246 -5.39376e-07 -0.000918811)
(-0.0558228 -5.98873e-07 -0.000940048)
(-0.0540784 -7.45676e-07 -0.000959466)
(-0.0522963 -9.26963e-07 -0.000977024)
(-0.0504798 -1.08096e-06 -0.000992415)
(-0.0486315 -1.21094e-06 -0.0010059)
(-0.0467548 -1.29162e-06 -0.00101793)
(-0.0448533 -1.32914e-06 -0.0010285)
(-0.0429294 -1.43214e-06 -0.00103747)
(-0.0409857 -1.64933e-06 -0.00104506)
(-0.0390247 -1.85634e-06 -0.00105159)
(-0.0370494 -1.92097e-06 -0.00105709)
(-0.0350616 -1.85017e-06 -0.0010615)
(-0.033063 -1.7014e-06 -0.00106502)
(-0.0310556 -1.48251e-06 -0.00106791)
(-0.0290414 -1.20427e-06 -0.00107025)
(-0.0270222 -9.37008e-07 -0.00107198)
(-0.0249991 -7.66401e-07 -0.00107309)
(-0.0229735 -7.35053e-07 -0.0010737)
(-0.0209473 -8.31982e-07 -0.00107391)
(-0.0189218 -1.00253e-06 -0.00107388)
(-0.0168977 -1.16436e-06 -0.00107363)
(-0.0148763 -1.22959e-06 -0.00107319)
(-0.0128584 -1.12556e-06 -0.00107269)
(-0.0108453 -8.2689e-07 -0.0010714)
(-0.00883753 -3.90879e-07 -0.00106979)
(-0.00683576 7.01077e-08 -0.00106901)
(-0.00484065 4.83341e-07 -0.00106834)
(-0.00285349 8.53221e-07 -0.00106732)
(-0.000876799 1.18315e-06 -0.00106555)
(0.00109371 1.41192e-06 -0.00106078)
(0.00304773 1.49682e-06 -0.00105319)
(0.00498995 1.51222e-06 -0.00104486)
(0.00691775 1.54939e-06 -0.00103567)
(0.0088309 1.56714e-06 -0.00102534)
(0.0107291 1.4382e-06 -0.00101419)
(0.0126114 1.13621e-06 -0.00100292)
(0.0144765 7.96531e-07 -0.000991912)
(0.016324 5.58474e-07 -0.000981036)
(0.0181541 4.07001e-07 -0.0009702)
(0.0199671 2.07683e-07 -0.000959663)
(0.0217626 -1.37492e-07 -0.000949695)
(0.0235392 -5.96715e-07 -0.000940089)
(0.0252963 -1.03694e-06 -0.000930251)
(0.0270343 -1.31549e-06 -0.000919797)
(0.0287539 -1.36989e-06 -0.000908945)
(0.0304555 -1.26079e-06 -0.000898305)
(0.0321385 -1.13035e-06 -0.000888367)
(0.0338024 -1.09015e-06 -0.000879249)
(0.0354473 -1.13145e-06 -0.000870856)
(0.0370741 -1.14745e-06 -0.00086313)
(0.0386838 -1.05089e-06 -0.000856058)
(0.0402768 -8.74912e-07 -0.00084948)
(0.0418533 -7.6006e-07 -0.000843029)
(0.0434137 -8.34527e-07 -0.000836375)
(0.0449589 -1.08578e-06 -0.00082954)
(0.0464895 -1.33438e-06 -0.000822917)
(0.048006 -1.34569e-06 -0.00081691)
(0.0495089 -1.00207e-06 -0.00081157)
(0.0509994 -3.96047e-07 -0.000806608)
(0.0524785 2.3677e-07 -0.000801761)
(0.0539468 6.86734e-07 -0.000797091)
(0.0554044 8.94088e-07 -0.000792874)
(0.056851 9.34632e-07 -0.000789214)
(0.0582864 9.11229e-07 -0.000785793)
(0.0597105 8.68596e-07 -0.000782016)
(0.0611237 7.97378e-07 -0.000777357)
(0.0625255 6.92062e-07 -0.000771579)
(0.0639149 5.89758e-07 -0.000764672)
(0.0652901 5.59285e-07 -0.000756649)
(0.0666487 6.61863e-07 -0.00074741)
(0.0679884 9.12819e-07 -0.000736734)
(0.0693062 1.25666e-06 -0.000724316)
(0.0705983 1.56626e-06 -0.000709756)
(0.0718601 1.68435e-06 -0.000692529)
(0.073086 1.50802e-06 -0.000672006)
(0.0742691 1.07063e-06 -0.000647543)
(0.0754021 5.48579e-07 -0.000618528)
(0.0764766 1.63093e-07 -0.000584337)
(0.0774835 3.86183e-08 -0.00054425)
(0.0784126 1.33206e-07 -0.000497444)
(0.0792527 3.05222e-07 -0.000443165)
(0.0799912 4.57333e-07 -0.000380949)
(0.0806143 6.18182e-07 -0.000310683)
(0.0811071 8.75466e-07 -0.000232422)
(0.0814544 1.22448e-06 -0.000146124)
(0.0816397 1.49952e-06 -5.15047e-05)
(0.0816477 1.46311e-06 5.22785e-05)
(0.0814606 1.03179e-06 0.000166672)
(0.081056 3.74194e-07 0.000292618)
(0.0804142 -2.29543e-07 0.000430357)
(0.0795145 -5.8193e-07 0.000580053)
(0.078337 -6.58299e-07 0.000741701)
(0.0768617 -5.13394e-07 0.000914747)
(0.0750691 -1.74249e-07 0.00109799)
(0.0729411 3.26759e-07 0.00128985)
(0.0704619 8.54104e-07 0.0014887)
(0.0676183 1.1991e-06 0.00169266)
(0.0643993 1.24881e-06 0.00189925)
(0.0607973 1.07825e-06 0.00210543)
(0.0568095 8.18131e-07 0.00230808)
(0.0524399 4.57436e-07 0.00250433)
(0.0476995 -1.22808e-07 0.00269076)
(0.0426062 -8.8315e-07 0.0028624)
(0.0371874 -1.5029e-06 0.00301272)
(0.0314828 -1.63918e-06 0.00313407)
(0.0255466 -1.22202e-06 0.00321727)
(0.0194491 -3.34972e-07 0.0032506)
(0.0132798 1.03403e-06 0.00321985)
(0.0071598 2.75688e-06 0.00310849)
(0.00123344 4.20132e-06 0.00288727)
(-0.00431857 4.5833e-06 0.00251305)
(-0.009193 3.8935e-06 0.00196888)
(-0.0131343 2.77852e-06 0.00124881)
(-0.0157534 1.8228e-06 0.00033022)
(-0.0166419 1.16751e-06 -0.000779904)
(-0.0153816 4.99991e-07 -0.0019459)
(-0.0118255 -6.50368e-08 -0.00280455)
(-0.00646488 -2.82122e-07 -0.00264208)
(-0.00135926 -4.59858e-07 -0.0014328)
(-0.000554462 -5.48263e-07 0.0012436)
(-0.00241428 -2.93141e-08 0.00256792)
(-0.00403344 1.77734e-07 0.00281137)
(-0.00518723 4.09294e-07 0.00235301)
(-0.0058467 5.56203e-07 0.0016159)
(-0.00604215 6.39308e-07 0.00083969)
(-0.00583497 6.96087e-07 0.000133568)
(-0.00529415 7.3337e-07 -0.000457788)
(-0.00449347 7.26057e-07 -0.000920287)
(-0.00350355 6.50299e-07 -0.00125602)
(-0.00239138 5.14757e-07 -0.00147417)
(-0.00121903 3.58911e-07 -0.00158608)
(-4.20356e-05 2.2296e-07 -0.00160347)
(0.0010888 1.29511e-07 -0.00153791)
(0.00212913 9.13496e-08 -0.00140035)
(0.00304034 1.18788e-07 -0.00120101)
(0.00378904 2.0532e-07 -0.000949402)
(0.00434707 3.10588e-07 -0.000654514)
(0.00469135 3.7262e-07 -0.000324868)
(0.00480337 3.50902e-07 3.15557e-05)
(0.00466938 2.56449e-07 0.000407703)
(0.00427926 1.44996e-07 0.000797056)
(0.00362726 7.39192e-08 0.00119309)
(0.00271139 6.36566e-08 0.00158967)
(0.00153332 9.43732e-08 0.00198125)
(9.81271e-05 1.30401e-07 0.00236286)
(-0.00158647 1.46146e-07 0.00272992)
(-0.00350807 1.29578e-07 0.0030781)
(-0.00565404 7.47735e-08 0.00340421)
(-0.00800835 -1.79894e-08 0.00370502)
(-0.0105534 -1.32505e-07 0.00397753)
(-0.0132698 -2.33367e-07 0.00421939)
(-0.016137 -2.82662e-07 0.00442874)
(-0.0191334 -2.66768e-07 0.00460427)
(-0.0222366 -2.08245e-07 0.00474512)
(-0.025424 -1.51092e-07 0.00485095)
(-0.0286725 -1.33237e-07 0.00492185)
(-0.0319595 -1.64917e-07 0.00495832)
(-0.0352626 -2.25169e-07 0.00496121)
(-0.0385603 -2.80805e-07 0.00493174)
(-0.0418317 -3.0924e-07 0.00487141)
(-0.045057 -2.98971e-07 0.00478201)
(-0.0482174 -2.40371e-07 0.00466553)
(-0.0512955 -1.35594e-07 0.0045241)
(-0.0542757 -1.20476e-08 0.0043599)
(-0.0571431 9.18028e-08 0.00417519)
(-0.0598847 1.51848e-07 0.00397228)
(-0.0624888 1.59102e-07 0.00375348)
(-0.0649456 1.12132e-07 0.00352113)
(-0.0672462 3.20158e-08 0.00327748)
(-0.0693836 -2.93897e-08 0.00302469)
(-0.0713524 -4.08926e-08 0.00276483)
(-0.0731479 -2.36519e-08 0.00249996)
(-0.0747668 7.41079e-09 0.00223205)
(-0.076207 6.26653e-08 0.00196281)
(-0.0774677 1.25327e-07 0.0016938)
(-0.0785492 1.67501e-07 0.00142651)
(-0.0794525 1.98344e-07 0.00116221)
(-0.0801795 2.16102e-07 0.000902009)
(-0.0807325 1.80842e-07 0.000646978)
(-0.0811147 9.92736e-08 0.000398026)
(-0.0813301 2.61101e-08 0.000155988)
(-0.0813826 -3.07134e-08 -7.83825e-05)
(-0.0812765 -8.01242e-08 -0.000304834)
(-0.0810174 -8.63441e-08 -0.000523315)
(-0.0806106 -3.74904e-08 -0.000733457)
(-0.0800615 2.03329e-08 -0.000934708)
(-0.0793752 5.22481e-08 -0.00112677)
(-0.0785576 5.50605e-08 -0.00130983)
(-0.0776149 3.18189e-08 -0.00148402)
(-0.0765524 2.32499e-09 -0.00164907)
(-0.0753758 3.05064e-09 -0.00180492)
(-0.0740911 3.53059e-08 -0.00195207)
(-0.0727038 3.96698e-08 -0.00209095)
(-0.0712192 -2.14783e-08 -0.00222138)
(-0.0696421 -8.19092e-08 -0.00234322)
(-0.0679781 -6.59237e-08 -0.00245708)
(-0.0662328 -1.85472e-08 -0.00256353)
(-0.0644108 -1.3912e-08 -0.00266252)
(-0.0625169 -1.12763e-08 -0.00275413)
(-0.0605559 5.68855e-08 -0.00283904)
(-0.0585324 1.52923e-07 -0.0029176)
(-0.0564506 2.12039e-07 -0.00298954)
(-0.0543144 2.42236e-07 -0.00305511)
(-0.0521279 2.6544e-07 -0.00311525)
(-0.049895 2.71267e-07 -0.00317032)
(-0.0476192 2.69279e-07 -0.00321991)
(-0.0453039 2.81565e-07 -0.00326405)
(-0.0429523 2.76533e-07 -0.00330362)
(-0.0405676 2.06982e-07 -0.00333922)
(-0.0381531 1.02642e-07 -0.00337067)
(-0.0357118 4.12559e-08 -0.00339784)
(-0.0332467 4.46084e-08 -0.00342123)
(-0.0307605 7.15959e-08 -0.00344144)
(-0.0282559 9.48541e-08 -0.00345861)
(-0.0257353 1.22589e-07 -0.00347265)
(-0.023201 1.53575e-07 -0.00348366)
(-0.020655 1.62415e-07 -0.00349195)
(-0.0180995 1.37114e-07 -0.00349766)
(-0.0155367 9.87066e-08 -0.00350084)
(-0.0129687 7.13699e-08 -0.0035017)
(-0.0103977 5.28565e-08 -0.00350046)
(-0.00782544 2.99477e-08 -0.00349724)
(-0.00525362 7.9417e-09 -0.00349243)
(-0.00268467 -2.36509e-10 -0.00348575)
(-0.000118607 -9.28172e-09 -0.00347683)
(0.00244094 -5.18783e-08 -0.00346598)
(0.00499106 -1.22903e-07 -0.00345318)
(0.00753091 -1.64865e-07 -0.00343837)
(0.0100584 -1.32782e-07 -0.00342169)
(0.0125723 -5.16488e-08 -0.00340223)
(0.015071 2.15167e-08 -0.00338013)
(0.0175534 7.86038e-08 -0.00335636)
(0.0200179 1.47648e-07 -0.003331)
(0.0224633 2.05366e-07 -0.00330441)
(0.0248884 1.74335e-07 -0.00327682)
(0.0272924 3.54042e-08 -0.00324806)
(0.0296743 -1.01252e-07 -0.00321791)
(0.0320331 -9.01735e-08 -0.00318653)
(0.0343675 8.75149e-08 -0.00315444)
(0.0366763 2.93652e-07 -0.00312199)
(0.038959 3.76617e-07 -0.00308898)
(0.0412154 3.20974e-07 -0.00305507)
(0.0434454 2.36306e-07 -0.00302039)
(0.0456488 2.14635e-07 -0.00298568)
(0.0478251 2.29986e-07 -0.00295161)
(0.049974 1.87039e-07 -0.00291811)
(0.0520954 4.94465e-08 -0.00288456)
(0.0541899 -1.02093e-07 -0.00285055)
(0.0562579 -1.41932e-07 -0.00281653)
(0.0582998 -1.9401e-08 -0.00278345)
(0.060316 1.95776e-07 -0.00275192)
(0.0623069 3.75892e-07 -0.00272175)
(0.0642733 4.31612e-07 -0.00269241)
(0.0662163 3.55063e-07 -0.00266373)
(0.0681366 1.95264e-07 -0.0026361)
(0.0700349 1.48857e-08 -0.00260992)
(0.0719116 -1.31518e-07 -0.00258519)
(0.0737676 -2.04352e-07 -0.00256152)
(0.075604 -1.92076e-07 -0.00253865)
(0.077422 -1.23647e-07 -0.00251667)
(0.0792222 -5.50049e-08 -0.0024958)
(0.0810051 -2.81873e-08 -0.00247594)
(0.0827707 -3.99711e-08 -0.00245652)
(0.0845192 -5.44084e-08 -0.00243686)
(0.0862506 -4.86862e-08 -0.0024165)
(0.0879647 -4.37653e-08 -0.00239518)
(0.0896607 -8.56731e-08 -0.00237261)
(0.0913373 -1.94076e-07 -0.00234813)
(0.0929923 -3.29631e-07 -0.00232072)
(0.0946234 -4.14733e-07 -0.00228932)
(0.0962275 -3.92527e-07 -0.00225296)
(0.0978014 -2.73717e-07 -0.00221074)
(0.0993407 -1.30324e-07 -0.00216157)
(0.100841 -4.04526e-08 -0.00210405)
(0.102295 -2.93632e-08 -0.00203654)
(0.103697 -5.61034e-08 -0.0019574)
(0.105038 -5.79047e-08 -0.00186515)
(0.106308 -1.44617e-08 -0.00175835)
(0.107497 2.63217e-08 -0.0016354)
(0.108594 -1.01202e-08 -0.00149438)
(0.109585 -1.4878e-07 -0.00133322)
(0.110458 -3.25275e-07 -0.00114995)
(0.111196 -4.27847e-07 -0.000942907)
(0.111784 -3.90494e-07 -0.000710715)
(0.112202 -2.5126e-07 -0.000452082)
(0.112433 -1.16577e-07 -0.000165815)
(0.112456 -6.15008e-08 0.00014984)
(0.11225 -6.80034e-08 0.000497711)
(0.111794 -5.90826e-08 0.000879625)
(0.111066 7.50604e-09 0.00129586)
(0.110042 8.56358e-08 0.00174639)
(0.108701 9.39252e-08 0.00223087)
(0.10702 1.12218e-08 0.00274852)
(0.104977 -1.02099e-07 0.00329782)
(0.102551 -1.80125e-07 0.0038764)
(0.0997223 -2.1547e-07 0.00448102)
(0.0964743 -2.21109e-07 0.00510744)
(0.0927928 -1.60047e-07 0.00575024)
(0.0886665 2.3325e-08 0.00640256)
(0.0840893 2.91342e-07 0.0070561)
(0.0790612 4.94052e-07 0.00770091)
(0.0735895 5.06425e-07 0.00832508)
(0.0676887 3.43618e-07 0.00891413)
(0.0613825 8.76061e-08 0.00945061)
(0.0547063 -2.43787e-07 0.00991367)
(0.0477096 -6.45737e-07 0.0102784)
(0.0404582 -9.90136e-07 0.0105144)
(0.0330374 -1.11622e-06 0.0105842)
(0.025557 -1.04223e-06 0.0104406)
(0.0181563 -9.04257e-07 0.0100205)
(0.0110019 -7.67211e-07 0.00923911)
(0.00430876 -6.1982e-07 0.00801123)
(-0.00168875 -4.30114e-07 0.00623777)
(-0.00664356 -2.71523e-07 0.00382489)
(-0.0102184 -2.69959e-07 0.000724403)
(-0.0120033 -2.84516e-07 -0.00293062)
(-0.0115311 -3.59304e-07 -0.00661589)
(-0.00845542 -5.26568e-07 -0.0089606)
(-0.00246736 -8.9954e-07 -0.00679847)
(-0.0005529 -5.48257e-07 0.00124723)
(-0.00241301 -2.93128e-08 0.00257078)
(-0.00403358 1.77723e-07 0.0028125)
(-0.00518757 4.09269e-07 0.00235351)
(-0.005847 5.5617e-07 0.00161628)
(-0.00604226 6.39275e-07 0.000839956)
(-0.00583485 6.96056e-07 0.000133545)
(-0.00529378 7.33349e-07 -0.000458227)
(-0.0044928 7.26042e-07 -0.000921146)
(-0.00350264 6.50287e-07 -0.00125718)
(-0.0023904 5.14747e-07 -0.00147543)
(-0.00121817 3.58903e-07 -0.00158717)
(-4.13695e-05 2.22954e-07 -0.0016041)
(0.0010893 1.29507e-07 -0.00153784)
(0.00212955 9.13465e-08 -0.00139952)
(0.0030408 1.18784e-07 -0.00119951)
(0.0037897 2.05314e-07 -0.000947439)
(0.00434812 3.1058e-07 -0.000652287)
(0.00469293 3.72616e-07 -0.000322463)
(0.00480534 3.50899e-07 3.42283e-05)
(0.00467146 2.56448e-07 0.000410827)
(0.00428104 1.44996e-07 0.000800842)
(0.00362851 7.39193e-08 0.00119773)
(0.00271216 6.3657e-08 0.00159523)
(0.00153384 9.4374e-08 0.00198765)
(9.86132e-05 1.30402e-07 0.00236987)
(-0.00158591 1.46148e-07 0.00273722)
(-0.0035074 1.29579e-07 0.0030854)
(-0.00565328 7.47741e-08 0.00341129)
(-0.00800754 -1.79895e-08 0.00371179)
(-0.0105526 -1.32505e-07 0.00398397)
(-0.0132691 -2.33367e-07 0.00422544)
(-0.0161364 -2.8266e-07 0.00443431)
(-0.0191329 -2.66765e-07 0.00460919)
(-0.022236 -2.08241e-07 0.00474924)
(-0.025423 -1.51089e-07 0.00485417)
(-0.0286711 -1.33233e-07 0.00492414)
(-0.0319578 -1.64912e-07 0.00495976)
(-0.0352608 -2.25161e-07 0.00496197)
(-0.0385585 -2.80796e-07 0.00493205)
(-0.04183 -3.09228e-07 0.00487152)
(-0.0450554 -2.98959e-07 0.00478208)
(-0.0482159 -2.40362e-07 0.00466564)
(-0.0512942 -1.35588e-07 0.00452422)
(-0.0542743 -1.20471e-08 0.00435996)
(-0.0571415 9.1799e-08 0.00417508)
(-0.059883 1.51842e-07 0.00397199)
(-0.062487 1.59096e-07 0.00375307)
(-0.0649437 1.12127e-07 0.00352064)
(-0.0672445 3.20145e-08 0.003277)
(-0.0693823 -2.93886e-08 0.00302435)
(-0.0713513 -4.0891e-08 0.00276475)
(-0.0731468 -2.3651e-08 0.00250018)
(-0.0747656 7.4105e-09 0.0022325)
(-0.0762058 6.26628e-08 0.00196341)
(-0.0774663 1.25322e-07 0.00169452)
(-0.0785475 1.67494e-07 0.00142723)
(-0.0794507 1.98336e-07 0.0011627)
(-0.0801776 2.16093e-07 0.000902215)
(-0.0807306 1.80835e-07 0.000647058)
(-0.0811129 9.92697e-08 0.000398097)
(-0.0813285 2.61091e-08 0.000155979)
(-0.0813813 -3.07122e-08 -7.85062e-05)
(-0.0812754 -8.0121e-08 -0.000304958)
(-0.0810166 -8.63406e-08 -0.000523357)
(-0.0806101 -3.74889e-08 -0.000733471)
(-0.0800608 2.03321e-08 -0.000934803)
(-0.0793743 5.2246e-08 -0.00112697)
(-0.0785566 5.50583e-08 -0.00131005)
(-0.0776136 3.18177e-08 -0.00148417)
(-0.0765509 2.3249e-09 -0.00164927)
(-0.0753744 3.05052e-09 -0.00180538)
(-0.0740898 3.53046e-08 -0.00195274)
(-0.0727024 3.96683e-08 -0.00209146)
(-0.0712174 -2.14775e-08 -0.00222148)
(-0.0696403 -8.19062e-08 -0.00234322)
(-0.0679767 -6.59213e-08 -0.00245731)
(-0.0662314 -1.85466e-08 -0.0025638)
(-0.0644093 -1.39115e-08 -0.00266246)
(-0.0625155 -1.12759e-08 -0.00275378)
(-0.0605547 5.68838e-08 -0.00283865)
(-0.0585312 1.52919e-07 -0.00291719)
(-0.0564492 2.12034e-07 -0.00298909)
(-0.054313 2.4223e-07 -0.00305463)
(-0.0521266 2.65434e-07 -0.00311457)
(-0.0498936 2.71261e-07 -0.00316921)
(-0.0476177 2.69274e-07 -0.00321856)
(-0.0453022 2.8156e-07 -0.00326288)
(-0.0429506 2.76529e-07 -0.00330264)
(-0.0405659 2.06979e-07 -0.00333805)
(-0.0381515 1.0264e-07 -0.00336918)
(-0.0357105 4.12554e-08 -0.00339635)
(-0.0332456 4.46078e-08 -0.00342002)
(-0.0307597 7.15949e-08 -0.0034404)
(-0.0282552 9.48529e-08 -0.00345751)
(-0.0257347 1.22587e-07 -0.00347144)
(-0.0232003 1.53573e-07 -0.00348242)
(-0.0206542 1.62413e-07 -0.00349065)
(-0.0180985 1.37112e-07 -0.00349631)
(-0.0155356 9.87056e-08 -0.00349958)
(-0.0129678 7.13693e-08 -0.00350077)
(-0.0103969 5.28561e-08 -0.00349996)
(-0.00782478 2.99475e-08 -0.0034971)
(-0.00525319 7.94165e-09 -0.00349262)
(-0.00268442 -2.36508e-10 -0.00348636)
(-0.000118419 -9.28164e-09 -0.00347787)
(0.00244117 -5.18778e-08 -0.00346729)
(0.00499127 -1.22901e-07 -0.00345459)
(0.00753102 -1.64863e-07 -0.00343992)
(0.0100584 -1.32781e-07 -0.00342356)
(0.0125725 -5.16481e-08 -0.00340446)
(0.0150714 2.15164e-08 -0.00338251)
(0.017554 7.86029e-08 -0.00335876)
(0.0200187 1.47647e-07 -0.00333341)
(0.0224643 2.05364e-07 -0.00330678)
(0.0248899 1.74333e-07 -0.00327886)
(0.0272941 3.54039e-08 -0.00324947)
(0.0296757 -1.01251e-07 -0.00321868)
(0.0320338 -9.01729e-08 -0.00318695)
(0.0343676 8.75146e-08 -0.00315478)
(0.0366765 2.93653e-07 -0.00312218)
(0.0389598 3.76619e-07 -0.00308882)
(0.0412166 3.20976e-07 -0.00305455)
(0.0434466 2.36308e-07 -0.00301976)
(0.0456496 2.14637e-07 -0.00298511)
(0.0478257 2.29989e-07 -0.0029509)
(0.0499748 1.87041e-07 -0.00291693)
(0.0520965 4.9447e-08 -0.00288287)
(0.0541909 -1.02094e-07 -0.00284881)
(0.0562582 -1.41933e-07 -0.00281531)
(0.0582993 -1.94012e-08 -0.00278289)
(0.0603151 1.95778e-07 -0.00275164)
(0.0623063 3.75898e-07 -0.00272129)
(0.0642735 4.31618e-07 -0.00269167)
(0.0662172 3.55068e-07 -0.00266302)
(0.0681378 1.95267e-07 -0.00263569)
(0.0700358 1.48859e-08 -0.0026098)
(0.0719121 -1.31519e-07 -0.00258512)
(0.0737676 -2.04354e-07 -0.0025614)
(0.0756037 -1.92078e-07 -0.00253862)
(0.0774216 -1.23648e-07 -0.00251691)
(0.0792219 -5.50051e-08 -0.00249627)
(0.081005 -2.81874e-08 -0.00247639)
(0.0827708 -3.99713e-08 -0.00245679)
(0.0845196 -5.44087e-08 -0.00243704)
(0.0862512 -4.86864e-08 -0.00241684)
(0.0879655 -4.37655e-08 -0.00239586)
(0.0896616 -8.56736e-08 -0.00237355)
(0.0913381 -1.94077e-07 -0.00234909)
(0.0929929 -3.29632e-07 -0.00232154)
(0.0946236 -4.14734e-07 -0.00229002)
(0.0962273 -3.92527e-07 -0.00225367)
(0.0978009 -2.73718e-07 -0.00221149)
(0.0993403 -1.30325e-07 -0.00216224)
(0.100841 -4.04527e-08 -0.00210449)
(0.102296 -2.93633e-08 -0.00203676)
(0.103698 -5.61037e-08 -0.00195763)
(0.105039 -5.79051e-08 -0.00186564)
(0.106309 -1.44618e-08 -0.0017592)
(0.107498 2.63219e-08 -0.00163643)
(0.108595 -1.01203e-08 -0.00149531)
(0.109586 -1.48781e-07 -0.00133385)
(0.110459 -3.25277e-07 -0.00115033)
(0.111197 -4.27848e-07 -0.000943203)
(0.111784 -3.90496e-07 -0.000711017)
(0.112202 -2.51261e-07 -0.000452279)
(0.112433 -1.16577e-07 -0.000165716)
(0.112456 -6.15013e-08 0.000150294)
(0.11225 -6.8004e-08 0.0004983)
(0.111794 -5.90831e-08 0.000879964)
(0.111066 7.5061e-09 0.00129571)
(0.110042 8.56365e-08 0.0017458)
(0.108702 9.39259e-08 0.0022301)
(0.107021 1.12219e-08 0.00274779)
(0.104977 -1.021e-07 0.00329724)
(0.102551 -1.80127e-07 0.00387598)
(0.0997221 -2.15472e-07 0.00448076)
(0.0964741 -2.2111e-07 0.0051073)
(0.0927923 -1.60048e-07 0.00575008)
(0.0886658 2.33252e-08 0.00640227)
(0.0840889 2.91343e-07 0.00705563)
(0.0790617 4.94054e-07 0.00770032)
(0.073591 5.06427e-07 0.00832433)
(0.0676907 3.43619e-07 0.00891312)
(0.0613846 8.76064e-08 0.00944937)
(0.0547082 -2.43789e-07 0.00991245)
(0.0477109 -6.45742e-07 0.0102775)
(0.0404584 -9.90146e-07 0.010514)
(0.0330363 -1.11623e-06 0.0105844)
(0.0255551 -1.04225e-06 0.0104418)
(0.0181544 -9.04274e-07 0.0100227)
(0.0110005 -7.67226e-07 0.00924199)
(0.0043079 -6.19831e-07 0.00801429)