/*--------------------------------*- C++ -*----------------------------------*\
  =========                 |
  \\      /  F ield         | OpenFOAM: The Open Source CFD Toolbox
   \\    /   O peration     | Website:  https://openfoam.org
    \\  /    A nd           | Version:  8
     \\/     M anipulation  |
\*---------------------------------------------------------------------------*/
FoamFile
{
    version     2.0;
    format      ascii;
    class       volScalarField;
    location    "1400";
    object      epsilon;
}
// * * * * * * * * * * * * * * * * * * * * * * * * * * * * * * * * * * * * * //

dimensions      [0 2 -3 0 0 0 0];

internalField   nonuniform List<scalar> 
48000
(
0.228481
1.03693
1.87842
2.81942
3.77028
4.71103
5.661
6.61175
7.56387
8.52115
9.48461
10.4551
11.433
12.4187
13.412
14.4126
15.42
16.4334
17.4518
18.4743
19.4997
20.5266
21.5537
22.5797
23.603
24.6223
25.636
26.6429
27.6413
28.6301
29.6078
30.5732
31.525
32.4622
33.3835
34.2881
35.175
36.0432
36.8921
37.7209
38.529
39.3158
40.0807
40.8234
41.5435
42.2407
42.9147
43.5654
44.1924
44.7959
45.3756
45.9315
46.4637
46.972
47.4564
47.9168
48.3561
48.7741
49.1696
49.5424
49.8927
50.2207
50.5267
50.8108
51.0735
51.315
51.5356
51.7355
51.9152
52.0748
52.2148
52.3353
52.4369
52.5197
52.584
52.6303
52.6588
52.6698
52.6637
52.6407
52.6012
52.5454
52.4738
52.3866
52.284
52.1665
52.0343
51.8877
51.7269
51.5524
51.3643
51.163
50.9487
50.7217
50.4823
50.2308
49.9674
49.6923
49.406
49.1085
48.8001
48.4812
48.1519
47.8125
47.4632
47.1042
46.7358
46.3582
45.9716
45.5762
45.1723
44.76
44.3395
43.911
43.4747
43.0309
42.5796
42.1211
41.6556
41.1832
40.7041
40.2184
39.7265
39.2283
38.7242
38.2142
37.6985
37.1774
36.6509
36.1192
35.5826
35.0412
34.4952
33.9448
33.3901
32.8314
32.2688
31.7026
31.1329
30.56
29.9841
29.4055
28.8242
28.2407
27.6551
27.0678
26.4788
25.8886
25.2974
24.7054
24.113
23.5205
22.9281
22.3362
21.7451
21.155
20.5664
19.9795
19.3947
18.8122
18.2326
17.656
17.0828
16.5135
15.9482
15.3873
14.8313
14.2803
13.7348
13.195
12.6612
12.1338
11.613
11.0992
10.5924
10.093
9.6012
9.11716
8.64103
8.17296
7.71303
7.26132
6.81789
6.38288
5.95679
5.54025
5.1361
4.73868
4.34653
3.9593
3.57578
3.19479
2.81483
2.43607
2.06047
1.68044
1.29592
0.933876
0.924708
0.211184
0.228405
1.03668
1.87893
2.81977
3.77054
4.71129
5.66127
6.61203
7.56415
8.52144
9.4849
10.4553
11.4333
12.419
13.4123
14.4129
15.4203
16.4336
17.4521
18.4746
19.4999
20.5268
21.554
22.5799
23.6032
24.6225
25.6362
26.6431
27.6415
28.6303
29.608
30.5733
31.5252
32.4623
33.3836
34.2882
35.1751
36.0433
36.8922
37.721
38.529
39.3158
40.0807
40.8235
41.5436
42.2407
42.9147
43.5653
44.1924
44.7959
45.3756
45.9315
46.4636
46.972
47.4564
47.9167
48.3561
48.774
49.1695
49.5423
49.8926
50.2206
50.5266
50.8108
51.0734
51.3149
51.5355
51.7354
51.9151
52.0747
52.2147
52.3352
52.4368
52.5196
52.5839
52.6302
52.6587
52.6697
52.6635
52.6406
52.6011
52.5453
52.4737
52.3865
52.2839
52.1664
52.0342
51.8876
51.7268
51.5523
51.3642
51.1629
50.9486
50.7216
50.4822
50.2307
49.9673
49.6922
49.4059
49.1084
48.8
48.4811
48.1518
47.8124
47.4631
47.1041
46.7357
46.3581
45.9715
45.5761
45.1722
44.7599
44.3394
43.9109
43.4746
43.0308
42.5795
42.121
41.6555
41.1831
40.704
40.2184
39.7264
39.2282
38.7241
38.2141
37.6984
37.1773
36.6508
36.1192
35.5826
35.0412
34.4951
33.9447
33.39
32.8313
32.2687
31.7025
31.1328
30.5599
29.9841
29.4054
28.8242
28.2407
27.6551
27.0677
26.4788
25.8885
25.2973
24.7054
24.113
23.5204
22.9281
22.3361
21.745
21.155
20.5663
19.9794
19.3946
18.8122
18.2325
17.656
17.0828
16.5134
15.9481
15.3873
14.8312
14.2803
13.7347
13.195
12.6612
12.1338
11.613
11.0991
10.5924
10.093
9.60118
9.11714
8.64102
8.17295
7.71302
7.26132
6.81789
6.38288
5.95678
5.54025
5.1361
4.73867
4.34653
3.9593
3.57578
3.19479
2.81483
2.43606
2.06042
1.68016
1.29459
0.929239
0.911629
0.20931
1.67958
1.06283
1.29196
1.6232
1.98611
2.35986
2.74134
3.12867
3.52143
3.91992
4.32436
4.73491
5.15163
5.57447
6.00327
6.4378
6.8777
7.32256
7.77187
8.2251
8.68161
9.14077
9.60188
10.0642
10.5271
10.9897
11.4513
11.9112
12.3686
12.8229
13.2732
13.7189
14.1594
14.594
15.0221
15.4431
15.8566
16.262
16.6589
17.0468
17.4254
17.7943
18.1533
18.502
18.8402
19.1677
19.4843
19.7899
20.0844
20.3677
20.6398
20.9005
21.1499
21.3879
21.6146
21.8303
22.0357
22.2306
22.4147
22.588
22.7505
22.9023
23.0435
23.1744
23.2949
23.4053
23.5056
23.5962
23.677
23.7483
23.8103
23.863
23.9068
23.9416
23.9678
23.9854
23.9947
23.9958
23.9888
23.974
23.9514
23.9213
23.8838
23.8391
23.7873
23.7285
23.663
23.5908
23.5122
23.4272
23.3361
23.2389
23.1358
23.0269
22.9123
22.7923
22.6669
22.5362
22.4004
22.2597
22.114
21.9636
21.8086
21.6491
21.4851
21.3169
21.1444
20.9679
20.7874
20.603
20.4148
20.223
20.0276
19.8287
19.6264
19.4207
19.2119
18.9999
18.7849
18.5669
18.346
18.1224
17.896
17.6669
17.4353
17.2012
16.9647
16.7259
16.4849
16.2416
15.9963
15.749
15.4998
15.2488
14.996
14.7415
14.4855
14.228
13.9691
13.709
13.4477
13.1852
12.9218
12.6576
12.3926
12.1269
11.8607
11.5942
11.3273
11.0603
10.7933
10.5264
10.2597
9.99346
9.72772
9.46265
9.19841
8.93514
8.67298
8.4121
8.15264
7.89475
7.6386
7.38433
7.13209
6.88204
6.63432
6.38909
6.14648
5.90664
5.66969
5.43578
5.20502
4.97752
4.75339
4.53274
4.31565
4.10219
3.89244
3.68644
3.48423
3.28584
3.0913
2.90065
2.71396
2.53133
2.35283
2.17766
2.00545
1.83641
1.67008
1.50628
1.345
1.18684
1.0326
0.881844
0.736835
0.605575
0.512553
0.33795
1.67888
1.0627
1.2918
1.62319
1.98604
2.35975
2.74121
3.12853
3.52127
3.91975
4.32419
4.73473
5.15144
5.57427
6.00307
6.43758
6.87748
7.32233
7.77164
8.22485
8.68136
9.14051
9.60161
10.064
10.5268
10.9894
11.451
11.9109
12.3683
12.8226
13.2729
13.7186
14.1591
14.5937
15.0218
15.4428
15.8563
16.2617
16.6586
17.0465
17.4251
17.794
18.153
18.5016
18.8398
19.1673
19.484
19.7896
20.0841
20.3674
20.6394
20.9001
21.1495
21.3876
21.6143
21.83
22.0354
22.2303
22.4144
22.5876
22.7501
22.9019
23.0432
23.174
23.2946
23.4049
23.5053
23.5958
23.6767
23.748
23.8099
23.8627
23.9064
23.9413
23.9675
23.9851
23.9944
23.9955
23.9885
23.9737
23.9511
23.921
23.8835
23.8388
23.787
23.7282
23.6627
23.5905
23.5119
23.427
23.3358
23.2386
23.1355
23.0266
22.912
22.792
22.6666
22.536
22.4002
22.2594
22.1138
21.9634
21.8084
21.6488
21.4849
21.3166
21.1442
20.9676
20.7871
20.6028
20.4146
20.2228
20.0274
19.8284
19.6261
19.4205
19.2117
18.9997
18.7847
18.5667
18.3458
18.1221
17.8957
17.6667
17.4351
17.201
16.9645
16.7257
16.4847
16.2415
15.9962
15.7489
15.4996
15.2486
14.9958
14.7414
14.4853
14.2278
13.969
13.7088
13.4475
13.1851
12.9217
12.6574
12.3924
12.1268
11.8606
11.594
11.3272
11.0602
10.7932
10.5263
10.2596
9.99333
9.7276
9.46253
9.19829
8.93502
8.67287
8.41199
8.15253
7.89465
7.6385
7.38423
7.13199
6.88195
6.63423
6.389
6.1464
5.90656
5.66962
5.4357
5.20494
4.97745
4.75332
4.53268
4.31559
4.10213
3.89238
3.68638
3.48417
3.28579
3.09125
2.9006
2.71392
2.53128
2.35279
2.17762
2.00542
1.83638
1.67005
1.50625
1.34498
1.18682
1.03253
0.881496
0.735127
0.598518
0.49182
0.327538
2.17737
1.36609
1.42939
1.61694
1.84826
2.10082
2.36647
2.64152
2.92425
3.21384
3.50988
3.81213
4.12039
4.43449
4.75421
5.0793
5.40943
5.74427
6.08341
6.4264
6.77276
7.12197
7.47348
7.82673
8.18114
8.53611
8.89103
9.24531
9.59835
9.94954
10.2983
10.6441
10.9863
11.3245
11.6581
11.9867
12.3097
12.6268
12.9376
13.2416
13.5386
13.8283
14.1103
14.3844
14.6504
14.9082
15.1574
15.3981
15.63
15.8531
16.0674
16.2727
16.469
16.6564
16.8349
17.0045
17.1655
17.3181
17.462
17.5972
17.724
17.8422
17.9519
18.0534
18.1466
18.2318
18.309
18.3783
18.4399
18.4939
18.5404
18.5796
18.6117
18.6367
18.6547
18.666
18.6707
18.6689
18.6607
18.6463
18.6258
18.5993
18.567
18.529
18.4854
18.4364
18.382
18.3225
18.2579
18.1883
18.1139
18.0348
17.9511
17.8628
17.7702
17.6734
17.5723
17.4672
17.3581
17.2452
17.1285
17.0082
16.8843
16.7569
16.6261
16.4921
16.3548
16.2144
16.071
15.9247
15.7754
15.6234
15.4687
15.3113
15.1514
14.989
14.8241
14.6569
14.4874
14.3157
14.1419
13.966
13.788
13.6081
13.4263
13.2427
13.0573
12.8703
12.6816
12.4913
12.2995
12.1063
11.9117
11.7158
11.5186
11.3203
11.1209
10.9205
10.7192
10.5169
10.3139
10.1102
9.90582
9.70092
9.49557
9.28986
9.08387
8.87772
8.67148
8.46527
8.25919
8.05334
7.84782
7.64275
7.43824
7.2344
7.03134
6.82918
6.62804
6.42804
6.22929
6.03191
5.83602
5.64175
5.4492
5.2585
5.06976
4.8831
4.69862
4.51643
4.33663
4.15933
3.98462
3.81258
3.6433
3.47686
3.31333
3.15276
2.99521
2.84072
2.68934
2.5411
2.39602
2.25415
2.11551
1.98013
1.84799
1.71895
1.59292
1.46995
1.34999
1.23337
1.12042
1.01181
0.908768
0.813295
0.730689
0.676902
0.722129
1.52801
2.17813
1.366
1.42934
1.61687
1.84813
2.10067
2.36629
2.64134
2.92406
3.21364
3.50968
3.81192
4.12018
4.43428
4.754
5.07908
5.40921
5.74405
6.08319
6.42618
6.77253
7.12174
7.47326
7.82651
8.18092
8.53589
8.89081
9.24509
9.59813
9.94932
10.2981
10.6439
10.9861
11.3243
11.6579
11.9865
12.3095
12.6266
12.9374
13.2414
13.5384
13.8281
14.1101
14.3842
14.6503
14.908
15.1573
15.3979
15.6299
15.853
16.0672
16.2725
16.4689
16.6563
16.8347
17.0044
17.1654
17.3179
17.4618
17.5971
17.7238
17.842
17.9518
18.0533
18.1465
18.2317
18.3088
18.3781
18.4397
18.4937
18.5403
18.5795
18.6116
18.6365
18.6546
18.6659
18.6706
18.6688
18.6606
18.6462
18.6257
18.5992
18.5669
18.5289
18.4853
18.4363
18.3819
18.3224
18.2578
18.1882
18.1138
18.0347
17.951
17.8628
17.7701
17.6733
17.5722
17.4671
17.358
17.2451
17.1284
17.0081
16.8842
16.7568
16.626
16.492
16.3547
16.2144
16.0709
15.9246
15.7754
15.6233
15.4686
15.3112
15.1513
14.9889
14.824
14.6568
14.4874
14.3157
14.1418
13.9659
13.788
13.6081
13.4263
13.2427
13.0573
12.8702
12.6815
12.4912
12.2994
12.1062
11.9116
11.7157
11.5186
11.3203
11.1209
10.9205
10.7191
10.5169
10.3139
10.1101
9.90578
9.70088
9.49553
9.28982
9.08384
8.87768
8.67145
8.46524
8.25916
8.05331
7.84779
7.64272
7.43821
7.23437
7.03131
6.82916
6.62802
6.42801
6.22926
6.03188
5.836
5.64172
5.44918
5.25848
5.06974
4.88308
4.69859
4.51641
4.33661
4.15931
3.9846
3.81256
3.64329
3.47685
3.31331
3.15274
2.99519
2.84071
2.68933
2.54108
2.39601
2.25414
2.1155
1.98012
1.84798
1.71894
1.59291
1.46994
1.34998
1.23337
1.12042
1.01181
0.908726
0.8129
0.727875
0.658784
0.598272
0.300687
3.17596
1.77803
1.69058
1.79145
1.9562
2.15219
2.36686
2.59434
2.83157
3.07685
3.32918
3.58796
3.85275
4.12321
4.39906
4.67999
4.96569
5.25583
5.55005
5.84794
6.1491
6.45306
6.75936
7.0675
7.37699
7.68729
7.99789
8.30826
8.61786
8.92619
9.23271
9.53693
9.83834
10.1365
10.4309
10.7211
11.0067
11.2874
11.5627
11.8323
12.0958
12.3531
12.6038
12.8476
13.0844
13.314
13.5361
13.7508
13.9577
14.1569
14.3482
14.5317
14.7072
14.8747
15.0343
15.1861
15.33
15.4661
15.5946
15.7153
15.8283
15.9337
16.0316
16.1219
16.2049
16.2806
16.3492
16.4107
16.4652
16.5128
16.5538
16.5882
16.616
16.6376
16.6529
16.662
16.6652
16.6626
16.6542
16.6402
16.6207
16.5959
16.5658
16.5305
16.4903
16.4451
16.3952
16.3406
16.2815
16.2179
16.1499
16.0777
16.0014
15.9211
15.8369
15.7488
15.657
15.5616
15.4626
15.3602
15.2544
15.1454
15.0332
14.9179
14.7996
14.6784
14.5543
14.4275
14.298
14.1659
14.0312
13.8941
13.7546
13.6128
13.4687
13.3224
13.174
13.0235
12.8711
12.7167
12.5604
12.4024
12.2425
12.081
11.9178
11.7531
11.5869
11.4192
11.2501
11.0796
10.9079
10.735
10.5609
10.3857
10.2095
10.0323
9.85416
9.67523
9.49552
9.31513
9.1341
8.95253
8.77048
8.58803
8.40527
8.22227
8.03912
7.8559
7.6727
7.48962
7.30674
7.12416
6.94198
6.76029
6.57919
6.39878
6.21918
6.04047
5.86276
5.68616
5.51078
5.33672
5.16408
4.99298
4.8235
4.65577
4.48988
4.32592
4.16401
4.00422
3.84665
3.69139
3.53853
3.38813
3.24028
3.09504
2.95247
2.81265
2.67561
2.5414
2.41008
2.28169
2.15626
2.03385
1.91449
1.79824
1.68512
1.57518
1.46847
1.36514
1.26542
1.1697
1.07859
0.993099
0.915024
0.84755
0.797744
0.784376
0.87565
1.64144
3.17633
1.778
1.69049
1.79132
1.95603
2.152
2.36667
2.59414
2.83137
3.07664
3.32897
3.58775
3.85253
4.123
4.39884
4.67977
4.96547
5.25561
5.54983
5.84773
6.14888
6.45285
6.75915
7.0673
7.37678
7.68709
7.99769
8.30806
8.61767
8.926
9.23253
9.53674
9.83816
10.1363
10.4307
10.7209
11.0066
11.2872
11.5625
11.8321
12.0957
12.353
12.6036
12.8475
13.0843
13.3139
13.536
13.7506
13.9576
14.1568
14.3481
14.5316
14.7071
14.8746
15.0342
15.186
15.3299
15.466
15.5945
15.7152
15.8282
15.9336
16.0315
16.1219
16.2049
16.2806
16.3491
16.4106
16.4651
16.5128
16.5537
16.5881
16.616
16.6375
16.6528
16.662
16.6652
16.6625
16.6542
16.6402
16.6207
16.5958
16.5657
16.5305
16.4902
16.4451
16.3952
16.3406
16.2814
16.2178
16.1499
16.0777
16.0014
15.9211
15.8368
15.7488
15.657
15.5615
15.4626
15.3601
15.2544
15.1454
15.0332
14.9179
14.7996
14.6784
14.5543
14.4275
14.298
14.1659
14.0312
13.8941
13.7546
13.6128
13.4687
13.3224
13.174
13.0235
12.8711
12.7167
12.5604
12.4023
12.2425
12.081
11.9178
11.7531
11.5869
11.4192
11.2501
11.0796
10.9079
10.735
10.5609
10.3857
10.2094
10.0323
9.85415
9.67522
9.49552
9.31512
9.1341
8.95253
8.77048
8.58803
8.40527
8.22227
8.03912
7.8559
7.6727
7.48962
7.30674
7.12416
6.94198
6.76029
6.57919
6.39878
6.21918
6.04047
5.86276
5.68616
5.51078
5.33672
5.16408
4.99298
4.8235
4.65577
4.48988
4.32592
4.16401
4.00422
3.84665
3.69139
3.53853
3.38813
3.24028
3.09504
2.95247
2.81265
2.67561
2.5414
2.41008
2.28169
2.15626
2.03385
1.91449
1.79824
1.68512
1.57518
1.46847
1.36514
1.26542
1.1697
1.0786
0.993112
0.915062
0.847626
0.797659
0.782214
0.859068
1.61707
4.17697
2.22735
2.00387
2.0364
2.15465
2.31423
2.49803
2.69792
2.90955
3.13041
3.35897
3.59425
3.83558
4.08248
4.33454
4.59142
4.85279
5.11831
5.38764
5.66041
5.93624
6.21472
6.49543
6.77795
7.0618
7.34654
7.6317
7.9168
8.20136
8.48493
8.76702
9.04718
9.32496
9.59992
9.87165
10.1397
10.4038
10.6634
10.9183
11.1682
11.4126
11.6514
11.8842
12.1109
12.3313
12.545
12.7521
12.9523
13.1454
13.3315
13.5103
13.6819
13.8462
14.0031
14.1528
14.295
14.43
14.5577
14.6783
14.7916
14.8977
14.9967
15.0887
15.1737
15.2517
15.323
15.3875
15.4453
15.4967
15.5416
15.5801
15.6125
15.6387
15.659
15.6734
15.682
15.685
15.6824
15.6744
15.6612
15.6427
15.6191
15.5906
15.5573
15.5191
15.4764
15.4291
15.3774
15.3214
15.2612
15.1969
15.1286
15.0563
14.9803
14.9006
14.8172
14.7303
14.64
14.5463
14.4494
14.3493
14.2461
14.14
14.0309
13.9189
13.8043
13.6869
13.567
13.4445
13.3195
13.1922
13.0625
12.9306
12.7966
12.6604
12.5221
12.3819
12.2397
12.0957
11.9498
11.8023
11.653
11.5021
11.3496
11.1957
11.0402
10.8834
10.7252
10.5657
10.405
10.2432
10.0802
9.91617
9.75115
9.5852
9.41838
9.25076
9.08239
8.91335
8.7437
8.57351
8.40286
8.23181
8.06045
7.88884
7.71706
7.5452
7.37334
7.20155
7.02994
6.85858
6.68756
6.51698
6.34692
6.17749
6.00877
5.84086
5.67386
5.50787
5.34299
5.1793
5.01692
4.85595
4.69646
4.53858
4.38238
4.22797
4.07543
3.92486
3.77635
3.62996
3.4858
3.34393
3.20443
3.06738
2.93282
2.80084
2.67148
2.54481
2.42088
2.29975
2.18146
2.06608
1.95368
1.84431
1.73808
1.63506
1.53539
1.43924
1.34687
1.25866
1.17517
1.09726
1.02631
0.964614
0.916403
0.890822
0.911809
1.07101
2.15455
4.17726
2.22727
2.00373
2.03623
2.15446
2.31403
2.49782
2.69771
2.90934
3.13019
3.35875
3.59403
3.83536
4.08226
4.33432
4.5912
4.85257
5.1181
5.38743
5.6602
5.93602
6.21451
6.49523
6.77774
7.0616
7.34635
7.63151
7.91661
8.20118
8.48475
8.76684
9.04701
9.32479
9.59976
9.87149
10.1396
10.4036
10.6633
10.9182
11.168
11.4125
11.6513
11.8841
12.1108
12.3312
12.5449
12.752
12.9522
13.1453
13.3314
13.5102
13.6818
13.8461
14.0031
14.1527
14.295
14.4299
14.5577
14.6782
14.7915
14.8977
14.9967
15.0886
15.1736
15.2517
15.3229
15.3874
15.4453
15.4966
15.5415
15.5801
15.6125
15.6387
15.659
15.6734
15.682
15.685
15.6824
15.6744
15.6611
15.6427
15.6191
15.5906
15.5572
15.5191
15.4764
15.4291
15.3774
15.3214
15.2612
15.1969
15.1286
15.0563
14.9803
14.9005
14.8172
14.7303
14.64
14.5463
14.4494
14.3493
14.2461
14.1399
14.0309
13.9189
13.8043
13.6869
13.567
13.4445
13.3195
13.1922
13.0625
12.9306
12.7966
12.6604
12.5221
12.3819
12.2397
12.0957
11.9498
11.8023
11.653
11.5021
11.3496
11.1957
11.0402
10.8834
10.7252
10.5657
10.405
10.2432
10.0802
9.91618
9.75116
9.58521
9.41839
9.25076
9.0824
8.91335
8.74371
8.57352
8.40287
8.23182
8.06045
7.88884
7.71707
7.54521
7.37334
7.20156
7.02995
6.85859
6.68757
6.51699
6.34693
6.1775
6.00878
5.84087
5.67387
5.50788
5.34299
5.17931
5.01693
4.85595
4.69647
4.53858
4.38239
4.22798
4.07544
3.92487
3.77635
3.62997
3.48581
3.34394
3.20444
3.06738
2.93283
2.80084
2.67149
2.54482
2.42089
2.29975
2.18147
2.06609
1.95368
1.84432
1.73808
1.63506
1.53539
1.43924
1.34687
1.25866
1.17517
1.09727
1.02632
0.964636
0.91647
0.89098
0.91181
1.06894
2.1516
5.2041
2.6981
2.34866
2.32239
2.40358
2.53598
2.69793
2.87909
3.07388
3.27902
3.49249
3.71295
3.93952
4.17154
4.40851
4.65004
4.89576
5.14531
5.39837
5.65459
5.9136
6.17506
6.43857
6.70374
6.97016
7.23743
7.50511
7.77279
8.04004
8.30643
8.57153
8.83494
9.09623
9.35501
9.61089
9.86349
10.1125
10.3575
10.5981
10.8342
11.0654
11.2913
11.5119
11.7268
11.9359
12.1389
12.3356
12.526
12.71
12.8872
13.0578
13.2216
13.3786
13.5287
13.6719
13.8082
13.9376
14.0602
14.1758
14.2847
14.3868
14.4821
14.5707
14.6526
14.728
14.7968
14.8592
14.9153
14.9651
15.0088
15.0464
15.078
15.1038
15.1238
15.1381
15.1469
15.1503
15.1483
15.141
15.1287
15.1113
15.0891
15.062
15.0302
14.9939
14.953
14.9078
14.8583
14.8046
14.7468
14.685
14.6194
14.5499
14.4767
14.4
14.3197
14.236
14.149
14.0587
13.9652
13.8687
13.7692
13.6668
13.5615
13.4535
13.3427
13.2294
13.1136
12.9953
12.8746
12.7516
12.6263
12.4989
12.3693
12.2377
12.1041
11.9686
11.8312
11.692
11.5511
11.4084
11.2642
11.1184
10.971
10.8222
10.672
10.5205
10.3677
10.2136
10.0584
9.90203
9.74462
9.58623
9.42689
9.26667
9.10564
8.94386
8.78139
8.61829
8.45463
8.29049
8.12593
7.96102
7.79583
7.63045
7.46494
7.29939
7.13387
6.96847
6.80327
6.63836
6.47382
6.30974
6.1462
5.98331
5.82115
5.65982
5.4994
5.33999
5.18169
5.02458
4.86877
4.71435
4.5614
4.41003
4.26031
4.11235
3.96622
3.82201
3.67981
3.53969
3.40173
3.26601
3.13259
3.00155
2.87296
2.74687
2.62335
2.50246
2.38427
2.26883
2.15623
2.04653
1.93982
1.83621
1.73581
1.63878
1.54531
1.45567
1.37022
1.28946
1.21414
1.14537
1.08487
1.03554
1.00273
0.997864
1.05115
1.27982
2.68676
5.20442
2.69798
2.34849
2.32219
2.40337
2.53577
2.69771
2.87886
3.07365
3.2788
3.49226
3.71273
3.93929
4.17131
4.40829
4.64982
4.89554
5.14509
5.39815
5.65437
5.91339
6.17485
6.43836
6.70354
6.96997
7.23723
7.50492
7.77261
8.03986
8.30625
8.57136
8.83477
9.09607
9.35486
9.61074
9.86335
10.1123
10.3573
10.598
10.8341
11.0652
11.2912
11.5118
11.7267
11.9358
12.1388
12.3356
12.526
12.7099
12.8872
13.0578
13.2216
13.3786
13.5287
13.6719
13.8082
13.9376
14.0601
14.1758
14.2847
14.3867
14.482
14.5706
14.6526
14.7279
14.7968
14.8592
14.9153
14.9651
15.0088
15.0464
15.078
15.1037
15.1237
15.1381
15.1469
15.1502
15.1483
15.141
15.1287
15.1113
15.0891
15.062
15.0302
14.9939
14.953
14.9078
14.8583
14.8046
14.7468
14.685
14.6193
14.5499
14.4767
14.4
14.3197
14.236
14.149
14.0587
13.9652
13.8687
13.7692
13.6668
13.5615
13.4535
13.3427
13.2294
13.1136
12.9953
12.8746
12.7516
12.6263
12.4989
12.3693
12.2377
12.1041
11.9686
11.8312
11.692
11.5511
11.4084
11.2642
11.1184
10.971
10.8222
10.672
10.5205
10.3677
10.2136
10.0584
9.90203
9.74463
9.58623
9.4269
9.26668
9.10565
8.94387
8.7814
8.6183
8.45464
8.2905
8.12594
7.96103
7.79584
7.63046
7.46495
7.2994
7.13388
6.96848
6.80328
6.63837
6.47383
6.30975
6.14621
5.98332
5.82116
5.65983
5.49941
5.34
5.1817
5.02459
4.86878
4.71436
4.56141
4.41003
4.26032
4.11235
3.96622
3.82202
3.67981
3.5397
3.40174
3.26601
3.1326
3.00156
2.87296
2.74687
2.62335
2.50247
2.38427
2.26884
2.15623
2.04654
1.93983
1.83621
1.73582
1.63878
1.54532
1.45567
1.37022
1.28947
1.21415
1.14537
1.08487
1.03555
1.00275
0.997917
1.05123
1.27962
2.68642
6.27233
3.18989
2.71836
2.63858
2.68804
2.79841
2.94346
3.11068
3.29331
3.48734
3.69027
3.90044
4.11675
4.33839
4.56478
4.79543
5.02994
5.26797
5.50917
5.75321
5.99976
6.24848
6.49903
6.75104
7.00416
7.258
7.51221
7.76638
8.02014
8.27311
8.52489
8.77512
9.02342
9.26942
9.51276
9.75311
9.99013
10.2235
10.4529
10.6781
10.8987
11.1146
11.3254
11.5311
11.7312
11.9258
12.1146
12.2974
12.4741
12.6447
12.8089
12.9668
13.1183
13.2633
13.4017
13.5336
13.659
13.7778
13.8901
13.9959
14.0952
14.188
14.2744
14.3544
14.4281
14.4955
14.5568
14.6119
14.6611
14.7042
14.7415
14.773
14.7988
14.8191
14.8338
14.8431
14.8472
14.846
14.8397
14.8285
14.8123
14.7914
14.7657
14.7354
14.7007
14.6615
14.6181
14.5704
14.5186
14.4628
14.4031
14.3396
14.2723
14.2014
14.1269
14.049
13.9677
13.8831
13.7953
13.7044
13.6105
13.5135
13.4137
13.3111
13.2058
13.0978
12.9873
12.8743
12.7588
12.6409
12.5208
12.3985
12.2739
12.1473
12.0187
11.8881
11.7556
11.6213
11.4851
11.3473
11.2078
11.0666
10.924
10.7798
10.6342
10.4872
10.339
10.1894
10.0387
9.88675
9.73375
9.57973
9.42473
9.26882
9.11206
8.95451
8.79623
8.63729
8.47775
8.31768
8.15715
7.99623
7.83498
7.67348
7.51181
7.35004
7.18825
7.02651
6.86491
6.70354
6.54246
6.38178
6.22156
6.06192
5.90292
5.74466
5.58723
5.43072
5.27522
5.12082
4.96761
4.81569
4.66514
4.51605
4.36851
4.2226
4.07842
3.93604
3.79554
3.65701
3.52053
3.38615
3.25397
3.12405
2.99646
2.87126
2.74853
2.62833
2.51073
2.3958
2.28362
2.17428
2.06786
1.96448
1.86427
1.7674
1.67406
1.58452
1.49911
1.4183
1.34272
1.27328
1.21133
1.15895
1.11969
1.10004
1.11386
1.19808
1.49595
3.22981
6.27268
3.18975
2.71816
2.63837
2.68781
2.79818
2.94322
3.11045
3.29308
3.48711
3.69003
3.90021
4.11652
4.33816
4.56455
4.7952
5.02972
5.26775
5.50896
5.753
5.99956
6.24828
6.49883
6.75084
7.00396
7.25782
7.51202
7.7662
8.01997
8.27294
8.52473
8.77496
9.02326
9.26927
9.51262
9.75297
9.98999
10.2234
10.4528
10.6779
10.8986
11.1145
11.3253
11.531
11.7311
11.9257
12.1145
12.2973
12.474
12.6446
12.8089
12.9668
13.1182
13.2632
13.4017
13.5336
13.659
13.7778
13.8901
13.9959
14.0951
14.188
14.2744
14.3544
14.4281
14.4955
14.5568
14.6119
14.661
14.7042
14.7415
14.773
14.7988
14.819
14.8338
14.8431
14.8472
14.846
14.8397
14.8285
14.8123
14.7914
14.7657
14.7354
14.7007
14.6615
14.6181
14.5704
14.5186
14.4628
14.4031
14.3396
14.2723
14.2014
14.1269
14.049
13.9677
13.8831
13.7953
13.7044
13.6105
13.5135
13.4137
13.3111
13.2058
13.0979
12.9873
12.8743
12.7588
12.6409
12.5208
12.3985
12.2739
12.1473
12.0187
11.8881
11.7556
11.6213
11.4851
11.3473
11.2078
11.0666
10.924
10.7798
10.6342
10.4873
10.339
10.1894
10.0387
9.88676
9.73376
9.57974
9.42474
9.26883
9.11207
8.95452
8.79624
8.6373
8.47776
8.31769
8.15716
7.99624
7.83499
7.67349
7.51182
7.35005
7.18826
7.02652
6.86492
6.70354
6.54247
6.38179
6.22157
6.06193
5.90293
5.74467
5.58724
5.43073
5.27523
5.12083
4.96762
4.8157
4.66515
4.51606
4.36852
4.22261
4.07843
3.93605
3.79555
3.65702
3.52053
3.38616
3.25398
3.12406
2.99647
2.87127
2.74854
2.62834
2.51074
2.39581
2.28363
2.17428
2.06786
1.96448
1.86428
1.7674
1.67407
1.58452
1.49912
1.4183
1.34273
1.27329
1.21133
1.15896
1.11969
1.10004
1.11387
1.1981
1.49596
3.22978
7.37484
3.70227
3.11069
2.98061
3.00164
3.09318
3.22437
3.38057
3.55385
3.73948
3.93453
4.13704
4.34568
4.55953
4.77787
5.00019
5.22604
5.45506
5.68689
5.92122
6.15773
6.39612
6.63606
6.87724
7.11933
7.362
7.60491
7.84772
8.09008
8.33166
8.5721
8.81108
9.04824
9.28326
9.51582
9.74559
9.97228
10.1956
10.4152
10.631
10.8425
11.0496
11.252
11.4496
11.6421
11.8294
12.0112
12.1875
12.3581
12.5229
12.6817
12.8346
12.9814
13.122
13.2565
13.3848
13.5068
13.6226
13.7321
13.8355
13.9326
14.0235
14.1082
14.1868
14.2594
14.3258
14.3864
14.441
14.4897
14.5327
14.57
14.6017
14.6278
14.6485
14.6638
14.6739
14.6787
14.6785
14.6733
14.6632
14.6482
14.6286
14.6043
14.5755
14.5423
14.5047
14.4629
14.4169
14.3669
14.3129
14.255
14.1933
14.1279
14.0589
13.9864
13.9104
13.8311
13.7485
13.6628
13.5739
13.482
13.3871
13.2894
13.1889
13.0857
12.9798
12.8714
12.7604
12.647
12.5313
12.4133
12.2931
12.1707
12.0462
11.9197
11.7912
11.6608
11.5286
11.3946
11.2589
11.1215
10.9825
10.8419
10.6999
10.5564
10.4116
10.2655
10.1181
9.96946
9.81972
9.66889
9.51704
9.36422
9.2105
9.05594
8.90059
8.74453
8.58782
8.43052
8.2727
8.11443
7.95577
7.79681
7.63761
7.47824
7.31879
7.15932
6.99992
6.84067
6.68165
6.52294
6.36462
6.20678
6.04951
5.89289
5.73701
5.58195
5.42781
5.27468
5.12263
4.97177
4.82218
4.67394
4.52713
4.38186
4.23819
4.09622
3.95601
3.81766
3.68123
3.5468
3.41445
3.28424
3.15625
3.03055
2.90721
2.7863
2.66788
2.55205
2.43887
2.32844
2.22086
2.11624
2.01472
1.91646
1.82167
1.73059
1.64353
1.56092
1.48331
1.41145
1.34642
1.2898
1.24407
1.21339
1.20545
1.23668
1.35067
1.71733
3.77904
7.37523
3.70211
3.11047
2.98037
3.0014
3.09293
3.22413
3.38033
3.5536
3.73924
3.93429
4.1368
4.34545
4.55929
4.77764
4.99997
5.22582
5.45484
5.68667
5.921
6.15752
6.39591
6.63586
6.87705
7.11914
7.36182
7.60473
7.84754
8.08991
8.3315
8.57194
8.81092
9.04809
9.28312
9.51568
9.74546
9.97216
10.1955
10.4151
10.6308
10.8424
11.0495
11.2519
11.4495
11.642
11.8293
12.0111
12.1874
12.358
12.5228
12.6817
12.8345
12.9813
13.122
13.2565
13.3847
13.5068
13.6226
13.7321
13.8354
13.9325
14.0235
14.1082
14.1868
14.2593
14.3258
14.3863
14.4409
14.4897
14.5327
14.57
14.6017
14.6278
14.6485
14.6638
14.6739
14.6787
14.6785
14.6733
14.6632
14.6482
14.6286
14.6043
14.5755
14.5423
14.5047
14.4629
14.4169
14.3669
14.3129
14.255
14.1933
14.1279
14.0589
13.9864
13.9104
13.8311
13.7485
13.6628
13.5739
13.482
13.3871
13.2894
13.1889
13.0857
12.9798
12.8714
12.7604
12.6471
12.5313
12.4133
12.2931
12.1707
12.0462
11.9197
11.7912
11.6608
11.5286
11.3946
11.2589
11.1215
10.9825
10.8419
10.6999
10.5565
10.4116
10.2655
10.1181
9.96947
9.81973
9.6689
9.51705
9.36423
9.21051
9.05595
8.9006
8.74454
8.58783
8.43053
8.27271
8.11444
7.95578
7.79682
7.63762
7.47825
7.3188
7.15933
6.99993
6.84068
6.68166
6.52294
6.36463
6.20679
6.04952
5.8929
5.73701
5.58196
5.42782
5.27469
5.12264
4.97178
4.82218
4.67394
4.52714
4.38187
4.2382
4.09622
3.95602
3.81766
3.68123
3.54681
3.41445
3.28425
3.15626
3.03056
2.90722
2.7863
2.66789
2.55205
2.43888
2.32845
2.22086
2.11625
2.01473
1.91647
1.82167
1.73059
1.64353
1.56092
1.48331
1.41145
1.34642
1.2898
1.24407
1.21339
1.20545
1.23668
1.35068
1.71736
3.77905
8.51774
4.23697
3.52555
3.34701
3.34173
3.41653
3.53586
3.68293
3.84863
4.02758
4.2164
4.41285
4.61542
4.82301
5.03486
5.25037
5.46905
5.69054
5.91447
6.14054
6.36845
6.59791
6.82863
7.06034
7.29273
7.52551
7.75839
7.99106
8.22321
8.45455
8.68476
8.91355
9.14061
9.36564
9.58836
9.80847
10.0257
10.2398
10.4505
10.6575
10.8606
11.0596
11.2543
11.4444
11.6298
11.8103
11.9857
12.156
12.3209
12.4803
12.6342
12.7824
12.9248
13.0615
13.1923
13.3172
13.4362
13.5493
13.6563
13.7575
13.8526
13.9418
14.0251
14.1025
14.174
14.2397
14.2997
14.3539
14.4024
14.4453
14.4827
14.5147
14.5412
14.5624
14.5784
14.5892
14.5949
14.5957
14.5915
14.5825
14.5688
14.5504
14.5275
14.5001
14.4683
14.4322
14.392
14.3476
14.2991
14.2468
14.1906
14.1306
14.0669
13.9996
13.9289
13.8547
13.7771
13.6963
13.6123
13.5252
13.4351
13.342
13.246
13.1473
13.0458
12.9417
12.835
12.7257
12.6141
12.5001
12.3838
12.2652
12.1445
12.0217
11.8968
11.7699
11.6412
11.5106
11.3782
11.244
11.1082
10.9708
10.8318
10.6913
10.5494
10.4061
10.2614
10.1155
9.96844
9.82019
9.67086
9.52049
9.36916
9.21691
9.06383
8.90996
8.75537
8.60013
8.4443
8.28795
8.13115
7.97397
7.81648
7.65876
7.50087
7.34289
7.1849
7.02698
6.86921
6.71167
6.55443
6.39759
6.24122
6.08542
5.93025
5.77582
5.62221
5.4695
5.31778
5.16714
5.01766
4.86942
4.72252
4.57702
4.43303
4.29061
4.14985
4.01082
3.8736
3.73826
3.60489
3.47355
3.34431
3.21724
3.09242
2.96992
2.84981
2.73217
2.61709
2.50466
2.39498
2.28816
2.18435
2.0837
1.98641
1.89271
1.80289
1.71734
1.63653
1.56112
1.49197
1.43033
1.37802
1.33791
1.31478
1.31756
1.36525
1.50821
1.94302
4.33343
8.51817
4.23678
3.5253
3.34675
3.34147
3.41627
3.5356
3.68267
3.84837
4.02733
4.21615
4.41261
4.61517
4.82278
5.03463
5.25014
5.46883
5.69031
5.91425
6.14032
6.36824
6.5977
6.82844
7.06015
7.29254
7.52533
7.75821
7.99089
8.22304
8.45439
8.68461
8.9134
9.14046
9.3655
9.58822
9.80835
10.0256
10.2397
10.4504
10.6574
10.8605
11.0595
11.2542
11.4443
11.6297
11.8102
11.9857
12.1559
12.3208
12.4802
12.6341
12.7823
12.9248
13.0615
13.1923
13.3172
13.4362
13.5492
13.6563
13.7574
13.8526
13.9418
14.0251
14.1025
14.174
14.2397
14.2997
14.3539
14.4024
14.4453
14.4827
14.5147
14.5412
14.5624
14.5784
14.5892
14.5949
14.5957
14.5915
14.5825
14.5688
14.5504
14.5275
14.5001
14.4683
14.4322
14.392
14.3476
14.2991
14.2468
14.1906
14.1306
14.0669
13.9997
13.9289
13.8547
13.7771
13.6963
13.6123
13.5252
13.4351
13.342
13.246
13.1473
13.0458
12.9417
12.835
12.7258
12.6141
12.5001
12.3838
12.2652
12.1445
12.0217
11.8968
11.7699
11.6412
11.5106
11.3782
11.244
11.1082
10.9708
10.8318
10.6913
10.5494
10.4061
10.2614
10.1156
9.96845
9.8202
9.67087
9.5205
9.36916
9.21692
9.06383
8.90997
8.75538
8.60014
8.44431
8.28796
8.13116
7.97398
7.81649
7.65877
7.50088
7.3429
7.18491
7.02699
6.86922
6.71168
6.55444
6.3976
6.24123
6.08542
5.93026
5.77583
5.62222
5.46951
5.31779
5.16715
5.01766
4.86943
4.72252
4.57703
4.43303
4.29061
4.14985
4.01082
3.8736
3.73827
3.6049
3.47355
3.34431
3.21724
3.09242
2.96992
2.84981
2.73218
2.6171
2.50466
2.39498
2.28817
2.18436
2.08371
1.98641
1.89271
1.8029
1.71734
1.63654
1.56112
1.49197
1.43033
1.37803
1.33791
1.31478
1.31756
1.36525
1.50822
1.94307
4.33345
9.70295
4.79561
3.96367
3.73774
3.70754
3.76702
3.87584
4.01503
4.17433
4.3477
4.53134
4.72273
4.92017
5.12246
5.32873
5.53832
5.75074
5.96557
6.18247
6.40113
6.62127
6.84263
7.06495
7.28796
7.51142
7.73506
7.95863
8.18185
8.40447
8.62621
8.84682
9.06601
9.28353
9.49911
9.71249
9.92342
10.1316
10.3369
10.539
10.7377
10.9328
11.124
11.3111
11.4941
11.6726
11.8466
12.0158
12.1801
12.3395
12.4937
12.6427
12.7864
12.9246
13.0574
13.1846
13.3062
13.4222
13.5325
13.6372
13.7361
13.8293
13.9169
13.9987
14.0749
14.1454
14.2103
14.2697
14.3235
14.3718
14.4146
14.4521
14.4843
14.5112
14.5329
14.5495
14.561
14.5675
14.5692
14.566
14.5581
14.5456
14.5284
14.5068
14.4807
14.4503
14.4156
14.3768
14.3339
14.287
14.2362
14.1815
14.1231
14.0611
13.9954
13.9263
13.8537
13.7777
13.6986
13.6162
13.5307
13.4422
13.3507
13.2563
13.1591
13.0592
12.9566
12.8515