/*--------------------------------*- C++ -*----------------------------------*\
  =========                 |
  \\      /  F ield         | OpenFOAM: The Open Source CFD Toolbox
   \\    /   O peration     | Website:  https://openfoam.org
    \\  /    A nd           | Version:  8
     \\/     M anipulation  |
\*---------------------------------------------------------------------------*/
FoamFile
{
    version     2.0;
    format      ascii;
    class       surfaceScalarField;
    location    "4400";
    object      phi;
}
// * * * * * * * * * * * * * * * * * * * * * * * * * * * * * * * * * * * * * //

dimensions      [1 0 -1 0 0 0 0];

internalField   nonuniform List<scalar> 
119360
(
-3.51711e-07
2.11474e-12
3.51709e-07
-6.41127e-07
2.71502e-13
2.89373e-07
-7.92436e-07
2.45413e-13
1.51297e-07
-8.12389e-07
1.11742e-13
1.99436e-08
-7.32359e-07
2.61167e-14
-8.00388e-08
-5.82037e-07
-3.67217e-14
-1.50331e-07
-3.83826e-07
-7.85215e-14
-1.98218e-07
-1.53985e-07
-1.06055e-13
-2.29849e-07
9.56577e-08
-1.28648e-13
-2.49651e-07
3.56219e-07
-1.4111e-13
-2.60569e-07
6.21402e-07
-1.37474e-13
-2.6519e-07
8.86972e-07
-1.27537e-13
-2.65577e-07
1.14982e-06
-1.1452e-13
-2.62852e-07
1.40766e-06
-1.00031e-13
-2.5785e-07
1.65881e-06
-8.49324e-14
-2.51157e-07
1.90201e-06
-7.00831e-14
-2.43204e-07
2.13632e-06
-5.59554e-14
-2.34315e-07
2.36105e-06
-4.27715e-14
-2.24738e-07
2.57572e-06
-3.06423e-14
-2.14669e-07
2.77997e-06
-1.96788e-14
-2.04262e-07
2.97361e-06
-9.81163e-15
-1.93642e-07
3.15651e-06
-1.01308e-15
-1.82911e-07
3.32866e-06
6.88341e-15
-1.72153e-07
3.49009e-06
1.37391e-14
-1.61439e-07
3.64092e-06
1.98176e-14
-1.50828e-07
3.78128e-06
2.51467e-14
-1.40369e-07
3.91138e-06
2.9657e-14
-1.30104e-07
4.03144e-06
3.35983e-14
-1.20069e-07
4.14173e-06
3.67763e-14
-1.10293e-07
4.24253e-06
3.93854e-14
-1.00801e-07
4.33414e-06
4.14948e-14
-9.16135e-08
4.41688e-06
4.31324e-14
-8.27477e-08
4.49109e-06
4.43398e-14
-7.42166e-08
4.55712e-06
4.52003e-14
-6.60304e-08
4.61531e-06
4.56583e-14
-5.81965e-08
4.66602e-06
4.58526e-14
-5.07198e-08
4.70962e-06
4.57416e-14
-4.36027e-08
4.74646e-06
4.54502e-14
-3.68459e-08
4.77691e-06
4.4909e-14
-3.04479e-08
4.80131e-06
4.41318e-14
-2.44057e-08
4.82002e-06
4.32714e-14
-1.87147e-08
4.83338e-06
4.23139e-14
-1.33694e-08
4.84174e-06
4.13702e-14
-8.36274e-09
4.84542e-06
4.02461e-14
-3.6866e-09
4.84475e-06
3.90527e-14
6.69573e-10
4.84003e-06
3.79841e-14
4.71542e-09
4.83157e-06
3.68323e-14
8.46071e-09
4.81965e-06
3.56804e-14
1.19173e-08
4.80455e-06
3.45425e-14
1.5097e-08
4.78653e-06
3.35572e-14
1.80117e-08
4.76585e-06
3.25441e-14
2.06732e-08
4.74276e-06
3.17392e-14
2.30936e-08
4.71747e-06
3.08927e-14
2.5285e-08
4.6902e-06
3.01433e-14
2.72598e-08
4.66117e-06
2.95327e-14
2.90299e-08
4.63056e-06
2.89499e-14
3.06076e-08
4.59855e-06
2.84226e-14
3.20046e-08
4.56532e-06
2.8034e-14
3.32325e-08
4.53101e-06
2.77287e-14
3.43026e-08
4.49578e-06
2.76038e-14
3.52261e-08
4.45976e-06
2.75345e-14
3.60134e-08
4.42309e-06
2.75622e-14
3.6675e-08
4.38586e-06
2.76039e-14
3.72207e-08
4.3482e-06
2.77843e-14
3.76599e-08
4.3102e-06
2.80341e-14
3.80016e-08
4.27194e-06
2.83395e-14
3.82545e-08
4.23351e-06
2.87142e-14
3.84268e-08
4.19498e-06
2.91999e-14
3.8526e-08
4.15642e-06
2.97273e-14
3.85594e-08
4.11788e-06
3.02269e-14
3.85339e-08
4.07942e-06
3.08098e-14
3.84559e-08
4.04109e-06
3.14898e-14
3.83313e-08
4.00292e-06
3.21976e-14
3.81657e-08
3.96495e-06
3.28915e-14
3.79643e-08
3.92721e-06
3.36131e-14
3.77319e-08
3.88974e-06
3.43348e-14
3.74729e-08
3.85254e-06
3.51258e-14
3.71914e-08
3.81565e-06
3.58752e-14
3.68912e-08
3.77907e-06
3.67079e-14
3.65757e-08
3.74282e-06
3.74573e-14
3.62481e-08
3.70691e-06
3.82761e-14
3.59113e-08
3.67133e-06
3.91088e-14
3.55679e-08
3.63611e-06
3.98443e-14
3.52204e-08
3.60124e-06
4.06353e-14
3.48709e-08
3.56671e-06
4.13986e-14
3.45215e-08
3.53253e-06
4.21202e-14
3.41738e-08
3.4987e-06
4.28419e-14
3.38295e-08
3.46521e-06
4.34664e-14
3.34901e-08
3.43205e-06
4.4188e-14
3.31569e-08
3.39921e-06
4.48542e-14
3.2831e-08
3.3667e-06
4.55342e-14
3.25136e-08
3.33449e-06
4.61309e-14
3.22057e-08
3.30258e-06
4.66999e-14
3.19079e-08
3.27095e-06
4.72966e-14
3.16213e-08
3.2396e-06
4.78378e-14
3.13464e-08
3.20852e-06
4.82958e-14
3.10839e-08
3.17768e-06
4.87954e-14
3.08343e-08
3.14708e-06
4.91978e-14
3.05982e-08
3.1167e-06
4.96142e-14
3.03761e-08
3.08653e-06
5.00721e-14
3.01684e-08
3.05655e-06
5.04052e-14
2.99754e-08
3.02675e-06
5.07382e-14
2.97976e-08
2.99711e-06
5.10713e-14
2.96353e-08
2.96762e-06
5.13211e-14
2.94887e-08
2.93825e-06
5.15153e-14
2.93582e-08
2.90901e-06
5.17235e-14
2.92441e-08
2.87986e-06
5.19455e-14
2.91465e-08
2.85079e-06
5.20982e-14
2.90658e-08
2.82178e-06
5.2223e-14
2.90022e-08
2.79282e-06
5.23479e-14
2.89558e-08
2.76389e-06
5.24173e-14
2.89268e-08
2.73497e-06
5.24173e-14
2.89156e-08
2.70605e-06
5.24867e-14
2.89221e-08
2.6771e-06
5.25005e-14
2.89467e-08
2.6481e-06
5.24172e-14
2.89894e-08
2.61905e-06
5.2334e-14
2.90505e-08
2.58992e-06
5.22784e-14
2.913e-08
2.56068e-06
5.21813e-14
2.9228e-08
2.53134e-06
5.20564e-14
2.93448e-08
2.50185e-06
5.19176e-14
2.94803e-08
2.47221e-06
5.17926e-14
2.96347e-08
2.4424e-06
5.15289e-14
2.98081e-08
2.4124e-06
5.14457e-14
3.00004e-08
2.38218e-06
5.1293e-14
3.02118e-08
2.35174e-06
5.10571e-14
3.04422e-08
2.32104e-06
5.09183e-14
3.06916e-08
2.29008e-06
5.07795e-14
3.09601e-08
2.25883e-06
5.0599e-14
3.12474e-08
2.22727e-06
5.04047e-14
3.15537e-08
2.19539e-06
5.01966e-14
3.18787e-08
2.16316e-06
5.01688e-14
3.22223e-08
2.13057e-06
5.00716e-14
3.25843e-08
2.0976e-06
4.99883e-14
3.29646e-08
2.06424e-06
4.99606e-14
3.33628e-08
2.03045e-06
4.99606e-14
3.37787e-08
1.99624e-06
4.99605e-14
3.4212e-08
1.96157e-06
5.00438e-14
3.46622e-08
1.92644e-06
5.02103e-14
3.5129e-08
1.89082e-06
5.03491e-14
3.56119e-08
1.85471e-06
5.05711e-14
3.61104e-08
1.81808e-06
5.08487e-14
3.66238e-08
1.78092e-06
5.12927e-14
3.71515e-08
1.74323e-06
5.17091e-14
3.76929e-08
1.70498e-06
5.21254e-14
3.82471e-08
1.66616e-06
5.27915e-14
3.88133e-08
1.62676e-06
5.35409e-14
3.93905e-08
1.58678e-06
5.42903e-14
3.99777e-08
1.5462e-06
5.52617e-14
4.0574e-08
1.50502e-06
5.63719e-14
4.1178e-08
1.46323e-06
5.75377e-14
4.17884e-08
1.42082e-06
5.89809e-14
4.24039e-08
1.37779e-06
6.0452e-14
4.3023e-08
1.33415e-06
6.22006e-14
4.3644e-08
1.28988e-06
6.40879e-14
4.42652e-08
1.24499e-06
6.59753e-14
4.48846e-08
1.19948e-06
6.81402e-14
4.55002e-08
1.15337e-06
7.03052e-14
4.61098e-08
1.10665e-06
7.25811e-14
4.67108e-08
1.05935e-06
7.48571e-14
4.73007e-08
1.01146e-06
7.7244e-14
4.78765e-08
9.63025e-07
7.96032e-14
4.84353e-08
9.14046e-07
8.1907e-14
4.89734e-08
8.64554e-07
8.42384e-14
4.94872e-08
8.14576e-07
8.63756e-14
4.99727e-08
7.64145e-07
8.84572e-14
5.04253e-08
7.133e-07
9.03169e-14
5.084e-08
6.62083e-07
9.20655e-14
5.12113e-08
6.10544e-07
9.3592e-14
5.15333e-08
5.58739e-07
9.4952e-14
5.17992e-08
5.06732e-07
9.63953e-14
5.20014e-08
4.54594e-07
9.80051e-14
5.21315e-08
4.02408e-07
9.9948e-14
5.21802e-08
3.50265e-07
1.0289e-13
5.21367e-08
2.9827e-07
1.07109e-13
5.1989e-08
2.4654e-07
1.13937e-13
5.17236e-08
1.95208e-07
1.24206e-13
5.13249e-08
1.44426e-07
1.39583e-13
5.0775e-08
9.43662e-08
1.61621e-13
5.00529e-08
4.52265e-08
1.91458e-13
4.91324e-08
-2.76592e-09
2.29844e-13
4.79848e-08
-4.9328e-08
2.74447e-13
4.6554e-08
-9.41399e-08
3.24074e-13
4.48033e-08
-1.36858e-07
3.76255e-13
4.2709e-08
-1.77095e-07
4.21913e-13
4.02271e-08
-2.144e-07
4.48169e-13
3.72937e-08
-2.48238e-07
4.3851e-13
3.38264e-08
-2.77992e-07
3.75866e-13
2.97419e-08
-3.02937e-07
2.49356e-13
2.49313e-08
-3.22221e-07
6.38935e-14
1.92698e-08
-3.34844e-07
-1.47104e-13
1.26089e-08
-3.39632e-07
-3.14915e-13
4.77567e-09
-3.35249e-07
-3.50664e-13
-4.39478e-09
-3.20217e-07
-1.8463e-13
-1.50415e-08
-2.92961e-07
1.5743e-13
-2.72646e-08
-2.51996e-07
4.95715e-13
-4.09748e-08
-1.96468e-07
5.60774e-13
-5.55406e-08
-1.27494e-07
2.75502e-13
-6.89906e-08
-5.13036e-08
4.28547e-14
-7.62108e-08
7.28231e-09
4.41314e-13
-5.86047e-08
1.30496e-12
7.25553e-09
-3.51722e-07
3.517e-07
-6.41127e-07
2.8937e-07
-7.92435e-07
1.51295e-07
-8.12387e-07
1.99416e-08
-7.32357e-07
-8.00406e-08
-5.82034e-07
-1.50332e-07
-3.83824e-07
-1.9822e-07
-1.53983e-07
-2.2985e-07
9.56601e-08
-2.49652e-07
3.56221e-07
-2.6057e-07
6.21404e-07
-2.65191e-07
8.86974e-07
-2.65578e-07
1.14982e-06
-2.62853e-07
1.40766e-06
-2.57851e-07
1.65881e-06
-2.51158e-07
1.90201e-06
-2.43205e-07
2.13632e-06
-2.34316e-07
2.36105e-06
-2.24739e-07
2.57572e-06
-2.1467e-07
2.77997e-06
-2.04263e-07
2.97361e-06
-1.93643e-07
3.15651e-06
-1.82912e-07
3.32866e-06
-1.72154e-07
3.49009e-06
-1.6144e-07
3.64092e-06
-1.50829e-07
3.78128e-06
-1.4037e-07
3.91138e-06
-1.30105e-07
4.03144e-06
-1.20069e-07
4.14173e-06
-1.10293e-07
4.24253e-06
-1.00801e-07
4.33413e-06
-9.16141e-08
4.41688e-06
-8.27483e-08
4.49109e-06
-7.42172e-08
4.55711e-06
-6.6031e-08
4.61531e-06
-5.81971e-08
4.66602e-06
-5.07204e-08
4.70962e-06
-4.36033e-08
4.74646e-06
-3.68465e-08
4.77691e-06
-3.04484e-08
4.80131e-06
-2.44062e-08
4.82002e-06
-1.87153e-08
4.83338e-06
-1.33699e-08
4.84174e-06
-8.36328e-09
4.84542e-06
-3.68714e-09
4.84475e-06
6.69041e-10
4.84003e-06
4.7149e-09
4.83157e-06
8.46018e-09
4.81965e-06
1.19168e-08
4.80454e-06
1.50965e-08
4.78653e-06
1.80112e-08
4.76585e-06
2.06727e-08
4.74276e-06
2.30931e-08
4.71747e-06
2.52845e-08
4.6902e-06
2.72593e-08
4.66117e-06
2.90294e-08
4.63056e-06
3.06071e-08
4.59855e-06
3.20041e-08
4.56532e-06
3.3232e-08
4.53101e-06
3.43021e-08
4.49578e-06
3.52256e-08
4.45976e-06
3.60129e-08
4.42309e-06
3.66745e-08
4.38586e-06
3.72202e-08
4.3482e-06
3.76594e-08
4.31019e-06
3.80011e-08
4.27194e-06
3.82541e-08
4.23351e-06
3.84263e-08
4.19498e-06
3.85255e-08
4.15641e-06
3.85589e-08
4.11788e-06
3.85335e-08
4.07942e-06
3.84554e-08
4.04108e-06
3.83309e-08
4.00292e-06
3.81653e-08
3.96495e-06
3.79639e-08
3.92721e-06
3.77314e-08
3.88974e-06
3.74724e-08
3.85254e-06
3.71909e-08
3.81565e-06
3.68907e-08
3.77907e-06
3.65752e-08
3.74282e-06
3.62476e-08
3.7069e-06
3.59108e-08
3.67133e-06
3.55675e-08
3.63611e-06
3.522e-08
3.60124e-06
3.48705e-08
3.56671e-06
3.4521e-08
3.53253e-06
3.41733e-08
3.4987e-06
3.3829e-08
3.46521e-06
3.34896e-08
3.43205e-06
3.31564e-08
3.39921e-06
3.28306e-08
3.3667e-06
3.25132e-08
3.33449e-06
3.22052e-08
3.30258e-06
3.19075e-08
3.27095e-06
3.16208e-08
3.2396e-06
3.13459e-08
3.20852e-06
3.10834e-08
3.17768e-06
3.08338e-08
3.14708e-06
3.05978e-08
3.1167e-06
3.03756e-08
3.08653e-06
3.01679e-08
3.05655e-06
2.99749e-08
3.02675e-06
2.97971e-08
2.99711e-06
2.96348e-08
2.96761e-06
2.94882e-08
2.93825e-06
2.93577e-08
2.90901e-06
2.92436e-08
2.87986e-06
2.9146e-08
2.85079e-06
2.90653e-08
2.82178e-06
2.90017e-08
2.79282e-06
2.89553e-08
2.76389e-06
2.89263e-08
2.73497e-06
2.8915e-08
2.70605e-06
2.89216e-08
2.6771e-06
2.89462e-08
2.6481e-06
2.89889e-08
2.61905e-06
2.90499e-08
2.58992e-06
2.91294e-08
2.56068e-06
2.92275e-08
2.53134e-06
2.93443e-08
2.50185e-06
2.94798e-08
2.47221e-06
2.96342e-08
2.4424e-06
2.98075e-08
2.4124e-06
2.99999e-08
2.38218e-06
3.02112e-08
2.35174e-06
3.04416e-08
2.32104e-06
3.06911e-08
2.29008e-06
3.09595e-08
2.25883e-06
3.12469e-08
2.22727e-06
3.15531e-08
2.19539e-06
3.18781e-08
2.16316e-06
3.22217e-08
2.13057e-06
3.25837e-08
2.0976e-06
3.2964e-08
2.06424e-06
3.33622e-08
2.03045e-06
3.37781e-08
1.99624e-06
3.42114e-08
1.96157e-06
3.46617e-08
1.92644e-06
3.51285e-08
1.89082e-06
3.56114e-08
1.85471e-06
3.61098e-08
1.81808e-06
3.66232e-08
1.78092e-06
3.7151e-08
1.74323e-06
3.76923e-08
1.70498e-06
3.82465e-08
1.66616e-06
3.88126e-08
1.62676e-06
3.93899e-08
1.58678e-06
3.99771e-08
1.5462e-06
4.05734e-08
1.50502e-06
4.11773e-08
1.46323e-06
4.17878e-08
1.42082e-06
4.24033e-08
1.37779e-06
4.30224e-08
1.33415e-06
4.36434e-08
1.28988e-06
4.42646e-08
1.24499e-06
4.4884e-08
1.19948e-06
4.54996e-08
1.15337e-06
4.61091e-08
1.10665e-06
4.67101e-08
1.05935e-06
4.73e-08
1.01147e-06
4.78758e-08
9.63025e-07
4.84345e-08
9.14047e-07
4.89727e-08
8.64554e-07
4.94865e-08
8.14576e-07
4.99719e-08
7.64146e-07
5.04245e-08
7.133e-07
5.08392e-08
6.62083e-07
5.12105e-08
6.10544e-07
5.15325e-08
5.58739e-07
5.17984e-08
5.06732e-07
5.20006e-08
4.54595e-07
5.21307e-08
4.02408e-07
5.21793e-08
3.50266e-07
5.21358e-08
2.9827e-07
5.19881e-08
2.4654e-07
5.17227e-08
1.95208e-07
5.1324e-08
1.44427e-07
5.07741e-08
9.43666e-08
5.00519e-08
4.5227e-08
4.91313e-08
-2.76548e-09
4.79837e-08
-4.93276e-08
4.65528e-08
-9.41394e-08
4.4802e-08
-1.36858e-07
4.27077e-08
-1.77095e-07
4.02257e-08
-2.14399e-07
3.72922e-08
-2.48238e-07
3.38249e-08
-2.77992e-07
2.97402e-08
-3.02937e-07
2.49296e-08
-3.22221e-07
1.9268e-08
-3.34844e-07
1.26071e-08
-3.39632e-07
4.77393e-09
-3.35248e-07
-4.39634e-09
-3.20216e-07
-1.50428e-08
-2.9296e-07
-2.72657e-08
-2.51996e-07
-4.09762e-08
-1.9647e-07
-5.5543e-08
-1.27497e-07
-6.89945e-08
-5.13056e-08
-7.6215e-08
7.27954e-09
-5.86093e-08
7.24878e-09
-2.64221e-07
2.10545e-13
6.1589e-07
-3.33694e-07
1.78445e-14
3.58826e-07
-3.20572e-07
2.80736e-14
1.38165e-07
-2.528e-07
-1.53479e-16
-4.78368e-08
-1.40074e-07
-1.04922e-14
-1.92773e-07
9.43093e-09
-1.85968e-14
-2.99843e-07
1.87478e-07
-2.47584e-14
-3.76273e-07
3.8643e-07
-2.90743e-14
-4.28808e-07
6.00003e-07
-3.21274e-14
-4.6323e-07
8.23093e-07
-3.33833e-14
-4.83666e-07
1.05154e-06
-3.28698e-14
-4.93644e-07
1.28193e-06
-3.18289e-14
-4.95976e-07
1.5116e-06
-3.03162e-14
-4.92525e-07
1.73845e-06
-2.85849e-14
-4.84704e-07
1.96083e-06
-2.67183e-14
-4.73549e-07
2.17747e-06
-2.48136e-14
-4.59848e-07
2.38736e-06
-2.29713e-14
-4.44206e-07
2.58972e-06
-2.12053e-14
-4.27101e-07
2.78395e-06
-1.95434e-14
-4.08909e-07
2.96962e-06
-1.79926e-14
-3.89936e-07
3.1464e-06
-1.65527e-14
-3.70429e-07
3.31408e-06
-1.52413e-14
-3.50596e-07
3.47253e-06
-1.40165e-14
-3.30608e-07
3.62169e-06
-1.29028e-14
-3.10607e-07
3.76158e-06
-1.18654e-14
-2.90717e-07
3.89224e-06
-1.09391e-14
-2.7104e-07
4.0138e-06
-1.00891e-14
-2.51664e-07
4.12639e-06
-9.33269e-15
-2.32664e-07
4.2302e-06
-8.67348e-15
-2.14104e-07
4.32543e-06
-8.09407e-15
-1.96036e-07
4.41231e-06
-7.58751e-15
-1.78505e-07
4.49111e-06
-7.13994e-15
-1.61549e-07
4.56209e-06
-6.75829e-15
-1.45198e-07
4.62553e-06
-6.44602e-15
-1.29475e-07
4.68173e-06
-6.18233e-15
-1.14398e-07
4.73098e-06
-5.97761e-15
-9.99799e-08
4.7736e-06
-5.81453e-15
-8.62293e-08
4.8099e-06
-5.69656e-15
-7.315e-08
4.84019e-06
-5.60981e-15
-6.07421e-08
4.86479e-06
-5.5751e-15
-4.90023e-08
4.88399e-06
-5.55427e-15
-3.79242e-08
4.89812e-06
-5.55772e-15
-2.74987e-08
4.90747e-06
-5.59934e-15
-1.7714e-08
4.91233e-06
-5.62708e-15
-8.55622e-09
4.91301e-06
-5.69299e-15
-9.03292e-12
4.90977e-06
-5.79705e-15
7.94475e-09
4.90291e-06
-5.88725e-15
1.5324e-08
4.89267e-06
-5.99479e-15
2.21491e-08
4.87932e-06
-6.09886e-15
2.84414e-08
4.86311e-06
-6.19599e-15
3.42224e-08
4.84427e-06
-6.29659e-15
3.95145e-08
4.82302e-06
-6.38678e-15
4.43401e-08
4.79958e-06
-6.50473e-15
4.87222e-08
4.77415e-06
-6.59492e-15
5.26836e-08
4.74693e-06
-6.69205e-15
5.62471e-08
4.7181e-06
-6.78225e-15
5.94355e-08
4.68783e-06
-6.87244e-15
6.22712e-08
4.65628e-06
-6.94529e-15
6.47762e-08
4.62361e-06
-7.01467e-15
6.69721e-08
4.58995e-06
-7.07711e-15
6.88798e-08
4.55544e-06
-7.1222e-15
7.05198e-08
4.5202e-06
-7.17077e-15
7.19116e-08
4.48435e-06
-7.21933e-15
7.30743e-08
4.44798e-06
-7.27136e-15
7.4026e-08
4.41119e-06
-7.29911e-15
7.47842e-08
4.37408e-06
-7.32686e-15
7.53654e-08
4.33672e-06
-7.34767e-15
7.57854e-08
4.29918e-06
-7.36154e-15
7.60592e-08
4.26154e-06
-7.37889e-15
7.62008e-08
4.22384e-06
-7.40664e-15
7.62235e-08
4.18616e-06
-7.42745e-15
7.61398e-08
4.14852e-06
-7.41704e-15
7.59614e-08
4.11099e-06
-7.41009e-15
7.56992e-08
4.07359e-06
-7.41356e-15
7.53634e-08
4.03635e-06
-7.40662e-15
7.49635e-08
3.99931e-06
-7.38927e-15
7.45082e-08
3.9625e-06
-7.39274e-15
7.40057e-08
3.92592e-06
-7.39621e-15
7.34633e-08
3.88961e-06
-7.3858e-15
7.28881e-08
3.85356e-06
-7.38233e-15
7.22863e-08
3.81781e-06
-7.37193e-15
7.16637e-08
3.78235e-06
-7.35458e-15
7.10256e-08
3.74719e-06
-7.34417e-15
7.0377e-08
3.71234e-06
-7.33377e-15
6.97221e-08
3.67779e-06
-7.31296e-15
6.90651e-08
3.64355e-06
-7.3199e-15
6.84094e-08
3.60962e-06
-7.30602e-15
6.77586e-08
3.57599e-06
-7.30603e-15
6.71155e-08
3.54266e-06
-7.3095e-15
6.64829e-08
3.50963e-06
-7.28869e-15
6.58631e-08
3.47688e-06
-7.29217e-15
6.52586e-08
3.44441e-06
-7.2887e-15
6.46711e-08
3.41221e-06
-7.27136e-15
6.41026e-08
3.38028e-06
-7.26443e-15
6.35547e-08
3.34859e-06
-7.25056e-15
6.30288e-08
3.31714e-06
-7.25056e-15
6.25263e-08
3.28593e-06
-7.24363e-15
6.20485e-08
3.25493e-06
-7.2367e-15
6.15963e-08
3.22413e-06
-7.23324e-15
6.11709e-08
3.19352e-06
-7.21937e-15
6.07731e-08
3.16309e-06
-7.21244e-15
6.04037e-08
3.13282e-06
-7.20204e-15
6.00636e-08
3.1027e-06
-7.1847e-15
5.97535e-08
3.07271e-06
-7.18471e-15
5.94739e-08
3.04284e-06
-7.18472e-15
5.92255e-08
3.01307e-06
-7.17779e-15
5.9009e-08
2.98339e-06
-7.16392e-15
5.88247e-08
2.95378e-06
-7.15005e-15
5.86732e-08
2.92422e-06
-7.13618e-15
5.8555e-08
2.89471e-06
-7.1015e-15
5.84705e-08
2.86521e-06
-7.09457e-15
5.84201e-08
2.83572e-06
-7.0807e-15
5.84042e-08
2.80621e-06
-7.04948e-15
5.84231e-08
2.77668e-06
-7.03214e-15
5.84772e-08
2.7471e-06
-7.01134e-15
5.85668e-08
2.71745e-06
-7.00788e-15
5.86922e-08
2.68773e-06
-6.9836e-15
5.88535e-08
2.6579e-06
-6.95585e-15
5.90512e-08
2.62796e-06
-6.92464e-15
5.92853e-08
2.59788e-06
-6.88648e-15
5.9556e-08
2.56765e-06
-6.87608e-15
5.98635e-08
2.53724e-06
-6.84487e-15
6.02079e-08
2.50665e-06
-6.79977e-15
6.05892e-08
2.47585e-06
-6.76162e-15
6.10076e-08
2.44483e-06
-6.72346e-15
6.14629e-08
2.41356e-06
-6.69225e-15
6.19551e-08
2.38203e-06
-6.64021e-15
6.24841e-08
2.35023e-06
-6.61246e-15
6.30498e-08
2.31813e-06
-6.56043e-15
6.36519e-08
2.28571e-06
-6.52921e-15
6.42902e-08
2.25297e-06
-6.48065e-15
6.49643e-08
2.21987e-06
-6.43209e-15
6.56738e-08
2.18641e-06
-6.36617e-15
6.64183e-08
2.15258e-06
-6.31761e-15
6.71972e-08
2.11834e-06
-6.2621e-15
6.80099e-08
2.08369e-06
-6.21007e-15
6.88556e-08
2.04862e-06
-6.15457e-15
6.97336e-08
2.0131e-06
-6.09212e-15
7.06429e-08
1.97713e-06
-6.04009e-15
7.15825e-08
1.94068e-06
-5.99499e-15
7.25513e-08
1.90376e-06
-5.94296e-15
7.35481e-08
1.86633e-06
-5.86317e-15
7.45714e-08
1.8284e-06
-5.82154e-15
7.56199e-08
1.78995e-06
-5.77991e-15
7.66919e-08
1.75098e-06
-5.71747e-15
7.77857e-08
1.71146e-06
-5.65849e-15
7.88992e-08
1.67141e-06
-5.62033e-15
8.00305e-08
1.6308e-06
-5.56136e-15
8.11772e-08
1.58964e-06
-5.50238e-15
8.2337e-08
1.54792e-06
-5.46769e-15
8.35072e-08
1.50563e-06
-5.43301e-15
8.4685e-08
1.46278e-06
-5.38791e-15
8.58672e-08
1.41937e-06
-5.34281e-15
8.70506e-08
1.3754e-06
-5.30465e-15
8.82316e-08
1.33088e-06
-5.322e-15
8.94063e-08
1.2858e-06
-5.29772e-15
9.05706e-08
1.24019e-06
-5.31854e-15
9.172e-08
1.19404e-06
-5.37752e-15
9.28495e-08
1.14739e-06
-5.44345e-15
9.3954e-08
1.10023e-06
-5.5406e-15
9.50277e-08
1.0526e-06
-5.6655e-15
9.60643e-08
1.00451e-06
-5.80428e-15
9.70573e-08
9.55992e-07
-5.96735e-15
9.79991e-08
9.07078e-07
-6.17552e-15
9.88818e-08
8.57802e-07
-6.41144e-15
9.96967e-08
8.08203e-07
-6.66125e-15
1.00434e-07
7.58326e-07
-6.93881e-15
1.01083e-07
7.08222e-07
-7.24412e-15
1.01632e-07
6.57947e-07
-7.57719e-15
1.02069e-07
6.07565e-07
-7.86169e-15
1.02378e-07
5.57146e-07
-8.15312e-15
1.02545e-07
5.0677e-07
-8.38905e-15
1.0255e-07
4.56526e-07
-8.52783e-15
1.02375e-07
4.06513e-07
-8.52089e-15
1.01996e-07
3.56842e-07
-8.2364e-15
1.01389e-07
3.07637e-07
-7.61884e-15
1.00524e-07
2.59037e-07
-6.52943e-15
9.93691e-08
2.11198e-07
-4.91961e-15
9.78857e-08
1.64295e-07
-2.65753e-15
9.60284e-08
1.18526e-07
1.31903e-16
9.37468e-08
7.41058e-08
3.46951e-15
9.09662e-08
3.12777e-08
7.07773e-15
8.76232e-08
-9.68237e-09
9.93656e-15
8.36602e-08
-4.8452e-08
1.06513e-14
7.89871e-08
-8.46765e-08
7.20957e-15
7.35078e-08
-1.17972e-07
-2.93509e-15
6.71103e-08
-1.47904e-07
-2.23709e-14
5.96627e-08
-1.73992e-07
-5.20347e-14
5.10071e-08
-1.95703e-07
-8.90953e-14
4.09699e-08
-2.12464e-07
-1.24206e-13
2.93586e-08
-2.23669e-07
-1.4036e-13
1.59714e-08
-2.287e-07
-1.17836e-13
6.26922e-10
-2.26968e-07
-4.80448e-14
-1.67806e-08
-2.18024e-07
4.3153e-14
-3.62182e-08
-2.01677e-07
8.13517e-14
-5.73333e-08
-1.78176e-07
-2.44526e-14
-7.9055e-08
-1.48321e-07
-2.55892e-13
-9.88615e-08
-1.13119e-07
-3.12847e-13
-1.11432e-07
-6.76811e-08
1.13797e-14
-1.04066e-07
9.13711e-13
-6.04459e-08
-2.64224e-07
6.15888e-07
-3.33694e-07
3.58823e-07
-3.20571e-07
1.38163e-07
-2.52799e-07
-4.78378e-08
-1.40073e-07
-1.92774e-07
9.43218e-09
-2.99844e-07
1.87479e-07
-3.76273e-07
3.86432e-07
-4.28809e-07
6.00004e-07
-4.6323e-07
8.23094e-07
-4.83666e-07
1.05154e-06
-4.93645e-07
1.28193e-06
-4.95976e-07
1.5116e-06
-4.92525e-07
1.73845e-06
-4.84704e-07
1.96084e-06
-4.73549e-07
2.17747e-06
-4.59848e-07
2.38736e-06
-4.44207e-07
2.58972e-06
-4.27101e-07
2.78395e-06
-4.08909e-07
2.96962e-06
-3.89936e-07
3.1464e-06
-3.7043e-07
3.31408e-06
-3.50596e-07
3.47253e-06
-3.30608e-07
3.62169e-06
-3.10607e-07
3.76158e-06
-2.90717e-07
3.89224e-06
-2.7104e-07
4.0138e-06
-2.51664e-07
4.12639e-06
-2.32664e-07
4.2302e-06
-2.14103e-07
4.32543e-06
-1.96036e-07
4.41231e-06
-1.78505e-07
4.49111e-06
-1.61549e-07
4.56209e-06
-1.45198e-07
4.62553e-06
-1.29475e-07
4.68172e-06
-1.14398e-07
4.73098e-06
-9.99799e-08
4.7736e-06
-8.62293e-08
4.8099e-06
-7.315e-08
4.84019e-06
-6.07421e-08
4.86479e-06
-4.90023e-08
4.88399e-06
-3.79242e-08
4.89812e-06
-2.74987e-08
4.90746e-06
-1.77141e-08
4.91233e-06
-8.55626e-09
4.91301e-06
-9.0768e-12
4.90977e-06
7.9447e-09
4.90291e-06
1.53239e-08
4.89267e-06
2.2149e-08
4.87932e-06
2.84413e-08
4.86311e-06
3.42223e-08
4.84426e-06
3.95144e-08
4.82301e-06
4.434e-08
4.79957e-06
4.87221e-08
4.77415e-06
5.26835e-08
4.74693e-06
5.6247e-08
4.7181e-06
5.94354e-08
4.68783e-06
6.22711e-08
4.65628e-06
6.47761e-08
4.62361e-06
6.6972e-08
4.58995e-06
6.88797e-08
4.55544e-06
7.05196e-08
4.5202e-06
7.19115e-08
4.48435e-06
7.30742e-08
4.44798e-06
7.40259e-08
4.41119e-06
7.47841e-08
4.37408e-06
7.53653e-08
4.33672e-06
7.57853e-08
4.29918e-06
7.60591e-08
4.26154e-06
7.62006e-08
4.22384e-06
7.62233e-08
4.18616e-06
7.61397e-08
4.14852e-06
7.59613e-08
4.11099e-06
7.56991e-08
4.07359e-06
7.53633e-08
4.03635e-06
7.49634e-08
3.99931e-06
7.45081e-08
3.9625e-06
7.40055e-08
3.92592e-06
7.34632e-08
3.88961e-06
7.2888e-08
3.85356e-06
7.22862e-08
3.81781e-06
7.16636e-08
3.78235e-06
7.10255e-08
3.74719e-06
7.03769e-08
3.71233e-06
6.9722e-08
3.67779e-06
6.9065e-08
3.64355e-06
6.84093e-08
3.60962e-06
6.77585e-08
3.57599e-06
6.71154e-08
3.54266e-06
6.64828e-08
3.50963e-06
6.5863e-08
3.47688e-06
6.52585e-08
3.44441e-06
6.4671e-08
3.41221e-06
6.41025e-08
3.38028e-06
6.35546e-08
3.34859e-06
6.30287e-08
3.31714e-06
6.25263e-08
3.28593e-06
6.20484e-08
3.25493e-06
6.15962e-08
3.22413e-06
6.11708e-08
3.19352e-06
6.0773e-08
3.16309e-06
6.04036e-08
3.13282e-06
6.00635e-08
3.1027e-06
5.97534e-08
3.07271e-06
5.94738e-08
3.04284e-06
5.92255e-08
3.01307e-06
5.90089e-08
2.98339e-06
5.88246e-08
2.95378e-06
5.86732e-08
2.92422e-06
5.8555e-08
2.89471e-06
5.84704e-08
2.86521e-06
5.842e-08
2.83572e-06
5.84041e-08
2.80621e-06
5.84231e-08
2.77668e-06
5.84772e-08
2.7471e-06
5.85667e-08
2.71745e-06
5.86921e-08
2.68773e-06
5.88535e-08
2.6579e-06
5.90511e-08
2.62796e-06
5.92852e-08
2.59788e-06
5.95559e-08
2.56765e-06
5.98634e-08
2.53724e-06
6.02078e-08
2.50665e-06
6.05892e-08
2.47585e-06
6.10075e-08
2.44483e-06
6.14628e-08
2.41356e-06
6.1955e-08
2.38203e-06
6.2484e-08
2.35023e-06
6.30497e-08
2.31813e-06
6.36518e-08
2.28571e-06
6.42901e-08
2.25296e-06
6.49642e-08
2.21987e-06
6.56737e-08
2.18641e-06
6.64182e-08
2.15258e-06
6.71972e-08
2.11834e-06
6.80098e-08
2.08369e-06
6.88556e-08
2.04862e-06
6.97335e-08
2.0131e-06
7.06428e-08
1.97713e-06
7.15824e-08
1.94068e-06
7.25512e-08
1.90376e-06
7.3548e-08
1.86633e-06
7.45713e-08
1.8284e-06
7.56198e-08
1.78995e-06
7.66918e-08
1.75098e-06
7.77856e-08
1.71146e-06
7.88991e-08
1.67141e-06
8.00304e-08
1.6308e-06
8.11771e-08
1.58964e-06
8.23369e-08
1.54792e-06
8.35071e-08
1.50563e-06
8.46849e-08
1.46278e-06
8.58671e-08
1.41937e-06
8.70505e-08
1.3754e-06
8.82315e-08
1.33088e-06
8.94062e-08
1.2858e-06
9.05705e-08
1.24019e-06
9.17199e-08
1.19404e-06
9.28494e-08
1.14739e-06
9.39539e-08
1.10023e-06
9.50276e-08
1.0526e-06
9.60642e-08
1.00451e-06
9.70572e-08
9.55992e-07
9.7999e-08
9.07078e-07
9.88817e-08
8.57802e-07
9.96966e-08
8.08203e-07
1.00434e-07
7.58326e-07
1.01083e-07
7.08222e-07
1.01632e-07
6.57947e-07
1.02069e-07
6.07565e-07
1.02378e-07
5.57146e-07
1.02545e-07
5.0677e-07
1.0255e-07
4.56527e-07
1.02375e-07
4.06514e-07
1.01996e-07
3.56842e-07
1.01389e-07
3.07637e-07
1.00524e-07
2.59037e-07
9.9369e-08
2.11198e-07
9.78856e-08
1.64295e-07
9.60283e-08
1.18526e-07
9.37467e-08
7.4106e-08
9.0966e-08
3.12778e-08
8.76231e-08
-9.68223e-09
8.36601e-08
-4.84519e-08
7.8987e-08
-8.46764e-08
7.35077e-08
-1.17971e-07
6.71102e-08
-1.47904e-07
5.96626e-08
-1.73992e-07
5.1007e-08
-1.95704e-07
4.09698e-08
-2.12464e-07
2.93586e-08
-2.23669e-07
1.59713e-08
-2.28699e-07
6.26827e-10
-2.26968e-07
-1.67807e-08
-2.18024e-07
-3.62184e-08
-2.01677e-07
-5.73336e-08
-1.78178e-07
-7.90553e-08
-1.48322e-07
-9.88615e-08
-1.1312e-07
-1.11433e-07
-6.76836e-08
-1.04067e-07
-6.04488e-08
-1.08179e-07
3.19568e-13
7.24058e-07
-8.05001e-08
2.06341e-14
3.31136e-07
1.56459e-09
3.6005e-14
5.60974e-08
1.11016e-07
2.30782e-14
-1.5729e-07
2.41605e-07
2.14963e-14
-3.23364e-07
3.91129e-07
2.01155e-14
-4.49369e-07
5.5709e-07
1.8707e-14
-5.42235e-07
7.36581e-07
1.7347e-14
-6.083e-07
9.26445e-07
1.57685e-14
-6.53096e-07
1.12382e-06
1.41552e-14
-6.81045e-07
1.32602e-06
1.27293e-14
-6.9584e-07
1.5305e-06
1.14248e-14
-7.00463e-07
1.73515e-06
1.03389e-14
-6.97169e-07
1.93815e-06
9.45244e-15
-6.87704e-07
2.13802e-06
8.73081e-15
-6.7342e-07
2.33354e-06
8.13755e-15
-6.55374e-07
2.52374e-06
7.65878e-15
-6.34402e-07
2.70781e-06
7.26501e-15
-6.11173e-07
2.88512e-06
6.95103e-15
-5.86227e-07
3.05519e-06
6.66829e-15
-5.60007e-07
3.21764e-06
6.43758e-15
-5.3288e-07
3.3722e-06
6.24157e-15
-5.05151e-07
3.51867e-06
6.0629e-15
-4.77077e-07
3.65693e-06
5.90679e-15
-4.48876e-07
3.78695e-06
5.7767e-15
-4.20732e-07
3.90871e-06
5.65874e-15
-3.92804e-07
4.02227e-06
5.54773e-15
-3.65227e-07
4.12772e-06
5.45754e-15
-3.38116e-07
4.22519e-06
5.36561e-15
-3.11572e-07
4.31483e-06
5.27541e-15
-2.85677e-07
4.39683e-06
5.18695e-15
-2.60502e-07
4.47138e-06
5.09502e-15
-2.36107e-07
4.53872e-06
5.01176e-15
-2.1254e-07
4.59909e-06
4.93371e-15
-1.8984e-07
4.65273e-06
4.84178e-15
-1.68038e-07
4.6999e-06
4.76025e-15
-1.47157e-07
4.74088e-06
4.66659e-15
-1.27211e-07
4.77594e-06
4.58506e-15
-1.08212e-07
4.80536e-06
4.49487e-15
-9.01609e-08
4.82942e-06
4.39773e-15
-7.30573e-08
4.84839e-06
4.3058e-15
-5.68943e-08
4.86255e-06
4.22081e-15
-4.1661e-08
4.87218e-06
4.12714e-15
-2.73429e-08
4.87754e-06
4.03694e-15
-1.39219e-08
4.87891e-06
3.93807e-15
-1.37667e-09
4.87654e-06
3.8444e-15
1.03158e-08
4.87068e-06
3.75247e-15
2.11812e-08
4.86158e-06
3.67094e-15
3.12473e-08
4.84948e-06
3.58248e-15
4.05433e-08
4.8346e-06
3.49922e-15
4.90994e-08
4.81716e-06
3.41943e-15
5.69468e-08
4.79739e-06
3.34484e-15
6.41171e-08
4.77547e-06
3.26852e-15
7.06425e-08
4.75159e-06
3.19914e-15
7.65556e-08
4.72595e-06
3.13669e-15
8.18888e-08
4.69871e-06
3.07078e-15
8.66743e-08
4.67004e-06
3.00487e-15
9.09441e-08
4.64008e-06
2.94589e-15
9.47298e-08
4.60899e-06
2.89212e-15
9.80621e-08
4.5769e-06
2.84355e-15
1.00971e-07
4.54393e-06
2.80019e-15
1.03486e-07
4.51021e-06
2.75682e-15
1.05636e-07
4.47584e-06
2.71346e-15
1.07447e-07
4.44091e-06
2.67183e-15
1.08947e-07
4.40554e-06
2.63713e-15
1.10159e-07
4.36979e-06
2.60591e-15
1.11109e-07
4.33376e-06
2.56775e-15
1.11819e-07
4.29751e-06
2.53653e-15
1.12311e-07
4.2611e-06
2.5053e-15
1.12605e-07
4.2246e-06
2.47581e-15
1.12722e-07
4.18806e-06
2.44459e-15
1.12678e-07
4.15153e-06
2.42551e-15
1.12492e-07
4.11505e-06
2.40122e-15
1.12179e-07
4.07866e-06
2.38041e-15
1.11754e-07
4.04239e-06
2.35959e-15
1.11231e-07
4.00628e-06
2.34224e-15
1.10623e-07
3.97034e-06
2.32489e-15
1.09942e-07
3.9346e-06
2.30928e-15
1.092e-07
3.89909e-06
2.29193e-15
1.08406e-07
3.8638e-06
2.28672e-15
1.0757e-07
3.82877e-06
2.27111e-15
1.067e-07
3.79399e-06
2.26417e-15
1.05804e-07
3.75947e-06
2.25896e-15
1.0489e-07
3.72523e-06
2.25896e-15
1.03964e-07
3.69126e-06
2.25028e-15
1.03033e-07
3.65757e-06
2.24681e-15
1.02101e-07
3.62415e-06
2.24507e-15
1.01174e-07
3.59101e-06
2.23987e-15
1.00257e-07
3.55814e-06
2.2416e-15
9.93528e-08
3.52554e-06
2.23812e-15
9.84659e-08
3.4932e-06
2.25026e-15
9.75995e-08
3.46111e-06
2.2572e-15
9.67569e-08
3.42927e-06
2.26413e-15
9.59406e-08
3.39767e-06
2.28148e-15
9.51533e-08
3.3663e-06
2.30229e-15
9.43973e-08
3.33515e-06
2.31269e-15
9.36745e-08
3.30421e-06
2.33003e-15
9.2987e-08
3.27347e-06
2.35085e-15
9.23363e-08
3.24292e-06
2.38207e-15
9.17241e-08
3.21254e-06
2.40288e-15
9.11518e-08
3.18232e-06
2.43063e-15
9.06207e-08
3.15225e-06
2.45665e-15
9.01319e-08
3.12232e-06
2.4948e-15
8.96867e-08
3.09251e-06
2.52602e-15
8.9286e-08
3.0628e-06
2.55724e-15
8.89308e-08
3.03319e-06
2.59714e-15
8.86219e-08
3.00365e-06
2.6405e-15
8.83601e-08
2.97418e-06
2.68039e-15
8.81463e-08
2.94475e-06
2.73243e-15
8.7981e-08
2.91536e-06
2.78794e-15
8.78651e-08
2.88598e-06
2.8365e-15
8.7799e-08
2.8566e-06
2.88681e-15
8.77833e-08
2.8272e-06
2.94578e-15
8.78187e-08
2.79777e-06
3.00302e-15
8.79056e-08
2.76829e-06
3.05853e-15
8.80443e-08
2.73875e-06
3.12097e-15
8.82354e-08
2.70912e-06
3.17821e-15
8.84792e-08
2.6794e-06
3.24239e-15
8.87761e-08
2.64956e-06
3.31004e-15
8.91262e-08
2.61958e-06
3.37769e-15
8.95299e-08
2.58946e-06
3.45055e-15
8.99873e-08
2.55917e-06
3.52513e-15
9.04985e-08
2.52869e-06
3.60146e-15
9.10636e-08
2.49802e-06
3.67951e-15
9.16826e-08
2.46712e-06
3.75237e-15
9.23554e-08
2.436e-06
3.83563e-15
9.3082e-08
2.40462e-06
3.91889e-15
9.3862e-08
2.37297e-06
3.99695e-15
9.46953e-08
2.34104e-06
4.08368e-15
9.55814e-08
2.30881e-06
4.16521e-15
9.65199e-08
2.27626e-06
4.25194e-15
9.75102e-08
2.24338e-06
4.34214e-15
9.85516e-08
2.21016e-06
4.42888e-15
9.96434e-08
2.17657e-06
4.52081e-15
1.00785e-07
2.14261e-06
4.60581e-15
1.01975e-07
2.10825e-06
4.70469e-15
1.03212e-07
2.07349e-06
4.79489e-15
1.04495e-07
2.03831e-06
4.89723e-15
1.05823e-07
2.0027e-06
4.9909e-15
1.07193e-07
1.96664e-06
5.07764e-15
1.08606e-07
1.93013e-06
5.17998e-15
1.10057e-07