/*--------------------------------*- C++ -*----------------------------------*\
  =========                 |
  \\      /  F ield         | OpenFOAM: The Open Source CFD Toolbox
   \\    /   O peration     | Website:  https://openfoam.org
    \\  /    A nd           | Version:  8
     \\/     M anipulation  |
\*---------------------------------------------------------------------------*/
FoamFile
{
    version     2.0;
    format      ascii;
    class       volVectorField;
    location    "4400";
    object      U;
}
// * * * * * * * * * * * * * * * * * * * * * * * * * * * * * * * * * * * * * //

dimensions      [0 1 -1 0 0 0 0];

internalField   nonuniform List<vector> 
48000
(
(-0.0160255 2.88048e-07 0.0175978)
(-0.0365002 3.69384e-08 0.0183503)
(-0.0513078 3.33749e-08 0.0100722)
(-0.0568838 1.51911e-08 0.00164606)
(-0.0541745 3.55588e-09 -0.00465768)
(-0.0459065 -4.98776e-09 -0.00900765)
(-0.0336645 -1.06721e-08 -0.0119508)
(-0.0188173 -1.44109e-08 -0.0139131)
(-0.002234 -1.74758e-08 -0.0151257)
(0.0154441 -1.91738e-08 -0.0156858)
(0.0334874 -1.86598e-08 -0.0157978)
(0.0517528 -1.72777e-08 -0.0156698)
(0.0699129 -1.54845e-08 -0.0153758)
(0.0877998 -1.34932e-08 -0.0149657)
(0.105278 -1.14144e-08 -0.0144738)
(0.122249 -9.3813e-09 -0.0139245)
(0.138638 -7.43574e-09 -0.0133357)
(0.15439 -5.62725e-09 -0.0127206)
(0.169466 -3.96344e-09 -0.0120892)
(0.183837 -2.45954e-09 -0.0114493)
(0.197485 -1.10413e-09 -0.0108069)
(0.210399 9.899e-11 -0.0101668)
(0.222576 1.17837e-09 -0.00953273)
(0.234014 2.12259e-09 -0.0089078)
(0.244721 2.95069e-09 -0.00829453)
(0.254704 3.67789e-09 -0.00769496)
(0.263976 4.29468e-09 -0.00711078)
(0.272551 4.82771e-09 -0.00654335)
(0.280446 5.25984e-09 -0.00599379)
(0.28768 5.61202e-09 -0.00546299)
(0.294273 5.89948e-09 -0.00495165)
(0.300247 6.1165e-09 -0.00446031)
(0.305624 6.27641e-09 -0.00398934)
(0.310427 6.38872e-09 -0.003539)
(0.314681 6.44203e-09 -0.00310941)
(0.31841 6.45916e-09 -0.00270061)
(0.321638 6.43442e-09 -0.00231251)
(0.324391 6.38683e-09 -0.00194495)
(0.326692 6.30497e-09 -0.00159769)
(0.328567 6.18885e-09 -0.00127042)
(0.33004 6.06511e-09 -0.000962779)
(0.331134 5.91853e-09 -0.000674346)
(0.331873 5.77196e-09 -0.000404673)
(0.33228 5.60824e-09 -0.000153165)
(0.332378 5.43501e-09 8.11312e-05)
(0.332188 5.27701e-09 0.00029849)
(0.331731 5.10378e-09 0.000499114)
(0.331027 4.93436e-09 0.000683937)
(0.330096 4.77064e-09 0.000853728)
(0.328956 4.62216e-09 0.00100918)
(0.327624 4.46987e-09 0.00115095)
(0.326119 4.34423e-09 0.00127971)
(0.324456 4.21669e-09 0.00139614)
(0.32265 4.09866e-09 0.0015009)
(0.320716 4.00158e-09 0.00159465)
(0.318667 3.91021e-09 0.00167807)
(0.316517 3.83406e-09 0.00175178)
(0.314277 3.76744e-09 0.00181642)
(0.311958 3.71794e-09 0.00187261)
(0.309571 3.68558e-09 0.00192095)
(0.307125 3.66655e-09 0.001962)
(0.30463 3.65894e-09 0.00199632)
(0.302094 3.65703e-09 0.00202445)
(0.299524 3.67036e-09 0.00204689)
(0.296927 3.69892e-09 0.00206414)
(0.29431 3.73509e-09 0.00207665)
(0.291679 3.77697e-09 0.00208486)
(0.289039 3.83788e-09 0.00208918)
(0.286394 3.90261e-09 0.00209001)
(0.283749 3.96733e-09 0.00208771)
(0.281108 4.04158e-09 0.00208262)
(0.278473 4.12914e-09 0.00207507)
(0.275849 4.22242e-09 0.00206536)
(0.273237 4.3176e-09 0.00205375)
(0.270641 4.41278e-09 0.00204051)
(0.268061 4.51368e-09 0.00202588)
(0.2655 4.62028e-09 0.00201008)
(0.262959 4.72498e-09 0.0019933)
(0.260439 4.83729e-09 0.00197573)
(0.257941 4.94199e-09 0.00195755)
(0.255466 5.05811e-09 0.0019389)
(0.253015 5.17614e-09 0.00191993)
(0.250587 5.27703e-09 0.00190076)
(0.248183 5.38934e-09 0.00188152)
(0.245803 5.49594e-09 0.0018623)
(0.243447 5.60064e-09 0.00184321)
(0.241115 5.70724e-09 0.00182433)
(0.238806 5.80623e-09 0.00180573)
(0.23652 5.90902e-09 0.00178749)
(0.234257 6.00611e-09 0.00176967)
(0.232016 6.107e-09 0.00175233)
(0.229797 6.19837e-09 0.00173552)
(0.227598 6.28593e-09 0.00171928)
(0.225419 6.3754e-09 0.00170365)
(0.22326 6.46106e-09 0.00168868)
(0.221119 6.5353e-09 0.00167439)
(0.218996 6.61334e-09 0.00166083)
(0.216889 6.67997e-09 0.001648)
(0.214798 6.7504e-09 0.00163595)
(0.212722 6.82083e-09 0.0016247)
(0.210659 6.87984e-09 0.00161426)
(0.208609 6.94075e-09 0.00160465)
(0.206571 6.99786e-09 0.0015959)
(0.204544 7.04735e-09 0.00158802)
(0.202526 7.08923e-09 0.00158102)
(0.200516 7.13491e-09 0.00157493)
(0.198514 7.17488e-09 0.00156976)
(0.196517 7.21486e-09 0.00156552)
(0.194526 7.24341e-09 0.00156222)
(0.192539 7.27577e-09 0.00155988)
(0.190554 7.29861e-09 0.00155851)
(0.18857 7.31954e-09 0.00155811)
(0.186587 7.34619e-09 0.00155872)
(0.184602 7.36142e-09 0.00156032)
(0.182616 7.37093e-09 0.00156294)
(0.180625 7.37473e-09 0.00156658)
(0.17863 7.38235e-09 0.00157125)
(0.176629 7.38425e-09 0.00157697)
(0.17462 7.38424e-09 0.00158374)
(0.172603 7.38424e-09 0.00159156)
(0.170576 7.37853e-09 0.00160045)
(0.168538 7.36139e-09 0.00161041)
(0.166487 7.3671e-09 0.00162145)
(0.164422 7.35377e-09 0.00163357)
(0.162342 7.33854e-09 0.00164678)
(0.160246 7.33854e-09 0.00166108)
(0.158131 7.3233e-09 0.00167646)
(0.155998 7.31378e-09 0.00169294)
(0.153845 7.30236e-09 0.00171051)
(0.151669 7.28713e-09 0.00172917)
(0.149471 7.29093e-09 0.00174891)
(0.147249 7.28712e-09 0.00176973)
(0.145001 7.28331e-09 0.00179163)
(0.142727 7.29093e-09 0.00181458)
(0.140424 7.29092e-09 0.00183859)
(0.138093 7.30234e-09 0.00186364)
(0.135731 7.31376e-09 0.0018897)
(0.133338 7.34041e-09 0.00191678)
(0.130912 7.35944e-09 0.00194484)
(0.128452 7.39751e-09 0.00197386)
(0.125958 7.43178e-09 0.00200381)
(0.123428 7.48508e-09 0.00203467)
(0.120861 7.54218e-09 0.0020664)
(0.118257 7.59929e-09 0.00209897)
(0.115614 7.68305e-09 0.00213233)
(0.112932 7.7668e-09 0.00216644)
(0.11021 7.8696e-09 0.00220126)
(0.107448 7.98762e-09 0.00223672)
(0.104644 8.12087e-09 0.00227277)
(0.101799 8.25793e-09 0.00230934)
(0.0989116 8.43306e-09 0.00234637)
(0.0959819 8.612e-09 0.00238378)
(0.0930096 8.81759e-09 0.00242149)
(0.0899946 9.04602e-09 0.0024594)
(0.0869371 9.27826e-09 0.00249741)
(0.0838372 9.54857e-09 0.00253542)
(0.0806952 9.8265e-09 0.00257331)
(0.0775117 1.01197e-08 0.00261094)
(0.0742873 1.04204e-08 0.00264819)
(0.0710228 1.07517e-08 0.00268489)
(0.0677194 1.10791e-08 0.00272086)
(0.0643783 1.14179e-08 0.00275594)
(0.061001 1.17682e-08 0.0027899)
(0.0575894 1.20956e-08 0.00282252)
(0.0541456 1.24306e-08 0.00285355)
(0.0506719 1.27352e-08 0.0028827)
(0.0471712 1.30322e-08 0.00290966)
(0.0436465 1.33063e-08 0.00293408)
(0.0401016 1.355e-08 0.00295557)
(0.0365405 1.37974e-08 0.00297368)
(0.0329678 1.40449e-08 0.00298792)
(0.0293889 1.4319e-08 0.00299772)
(0.0258095 1.46845e-08 0.00300245)
(0.0222365 1.51833e-08 0.00300137)
(0.0186774 1.59142e-08 0.00299365)
(0.0151409 1.69917e-08 0.00297835)
(0.0116365 1.85374e-08 0.00295435)
(0.0081754 2.06999e-08 0.00292034)
(0.00476957 2.35744e-08 0.0028747)
(0.00143821 2.71836e-08 0.00281503)
(-0.00181576 3.12155e-08 0.00273304)
(-0.0049503 3.56281e-08 0.00262732)
(-0.00795861 4.025e-08 0.00250123)
(-0.0108101 4.42553e-08 0.00235282)
(-0.0134768 4.65396e-08 0.00217791)
(-0.0159256 4.56906e-08 0.00197108)
(-0.0181168 4.02805e-08 0.00172717)
(-0.0200048 2.94223e-08 0.00143924)
(-0.0215357 1.35842e-08 0.00109912)
(-0.0226464 -4.2793e-09 0.000696765)
(-0.0232633 -1.82366e-08 0.000219956)
(-0.0232994 -2.08103e-08 -0.000343459)
(-0.0226564 -6.20576e-09 -0.00100505)
(-0.0212311 2.30947e-08 -0.00177591)
(-0.0189132 5.14433e-08 -0.00265774)
(-0.0156129 5.6149e-08 -0.00361945)
(-0.0113121 3.18208e-08 -0.00454265)
(-0.00630049 1.29903e-08 -0.00505363)
(-0.000697594 4.78346e-08 -0.00341085)
(0.0010012 1.20629e-07 0.00137922)
(-0.0160265 2.88044e-07 0.017597)
(-0.0365004 3.69382e-08 0.01835)
(-0.0513078 3.33747e-08 0.010072)
(-0.0568837 1.5191e-08 0.00164589)
(-0.0541744 3.55587e-09 -0.00465785)
(-0.0459063 -4.98775e-09 -0.00900781)
(-0.0336643 -1.06721e-08 -0.0119509)
(-0.0188171 -1.44108e-08 -0.0139133)
(-0.00223383 -1.74757e-08 -0.0151258)
(0.0154442 -1.91738e-08 -0.015686)
(0.0334876 -1.86598e-08 -0.0157979)
(0.051753 -1.72777e-08 -0.01567)
(0.069913 -1.54844e-08 -0.015376)
(0.0877999 -1.34932e-08 -0.0149658)
(0.105278 -1.14144e-08 -0.0144739)
(0.122249 -9.38128e-09 -0.0139246)
(0.138638 -7.43573e-09 -0.0133358)
(0.15439 -5.62725e-09 -0.0127207)
(0.169466 -3.96344e-09 -0.0120893)
(0.183837 -2.45954e-09 -0.0114494)
(0.197485 -1.10413e-09 -0.010807)
(0.210399 9.89898e-11 -0.0101669)
(0.222576 1.17837e-09 -0.00953282)
(0.234014 2.12259e-09 -0.00890789)
(0.244721 2.95069e-09 -0.00829462)
(0.254704 3.67789e-09 -0.00769505)
(0.263976 4.29468e-09 -0.00711086)
(0.272551 4.8277e-09 -0.00654343)
(0.280446 5.25984e-09 -0.00599387)
(0.28768 5.61202e-09 -0.00546307)
(0.294273 5.89947e-09 -0.00495173)
(0.300247 6.11649e-09 -0.00446038)
(0.305624 6.2764e-09 -0.00398941)
(0.310427 6.38872e-09 -0.00353907)
(0.314681 6.44202e-09 -0.00310948)
(0.31841 6.45916e-09 -0.00270068)
(0.321638 6.43441e-09 -0.00231258)
(0.324391 6.38682e-09 -0.00194502)
(0.326692 6.30497e-09 -0.00159776)
(0.328567 6.18885e-09 -0.00127049)
(0.33004 6.06511e-09 -0.000962845)
(0.331134 5.91853e-09 -0.00067441)
(0.331873 5.77195e-09 -0.000404737)
(0.33228 5.60824e-09 -0.000153228)
(0.332378 5.43501e-09 8.1069e-05)
(0.332188 5.27701e-09 0.000298429)
(0.331731 5.10378e-09 0.000499054)
(0.331027 4.93435e-09 0.000683877)
(0.330096 4.77064e-09 0.000853669)
(0.328955 4.62216e-09 0.00100912)
(0.327624 4.46987e-09 0.00115089)
(0.326119 4.34423e-09 0.00127965)
(0.324456 4.21669e-09 0.00139608)
(0.32265 4.09866e-09 0.00150084)
(0.320716 4.00158e-09 0.0015946)
(0.318667 3.91021e-09 0.00167801)
(0.316517 3.83406e-09 0.00175172)
(0.314277 3.76744e-09 0.00181637)
(0.311958 3.71794e-09 0.00187256)
(0.309571 3.68558e-09 0.00192089)
(0.307125 3.66655e-09 0.00196194)
(0.30463 3.65893e-09 0.00199627)
(0.302094 3.65703e-09 0.0020244)
(0.299524 3.67036e-09 0.00204684)
(0.296927 3.69891e-09 0.00206409)
(0.29431 3.73508e-09 0.0020766)
(0.291679 3.77697e-09 0.00208481)
(0.289039 3.83788e-09 0.00208913)
(0.286394 3.90261e-09 0.00208996)
(0.283749 3.96733e-09 0.00208766)
(0.281108 4.04157e-09 0.00208257)
(0.278473 4.12914e-09 0.00207502)
(0.275849 4.22242e-09 0.00206531)
(0.273237 4.3176e-09 0.0020537)
(0.270641 4.41278e-09 0.00204046)
(0.268061 4.51368e-09 0.00202583)
(0.2655 4.62028e-09 0.00201003)
(0.262959 4.72498e-09 0.00199325)
(0.260439 4.83729e-09 0.00197568)
(0.257941 4.94199e-09 0.0019575)
(0.255466 5.05811e-09 0.00193885)
(0.253015 5.17613e-09 0.00191988)
(0.250587 5.27703e-09 0.00190071)
(0.248183 5.38934e-09 0.00188147)
(0.245803 5.49594e-09 0.00186226)
(0.243447 5.60064e-09 0.00184316)
(0.241115 5.70724e-09 0.00182428)
(0.238806 5.80623e-09 0.00180568)
(0.23652 5.90902e-09 0.00178744)
(0.234257 6.0061e-09 0.00176963)
(0.232016 6.10699e-09 0.00175228)
(0.229797 6.19836e-09 0.00173547)
(0.227598 6.28593e-09 0.00171923)
(0.225419 6.3754e-09 0.0017036)
(0.22326 6.46106e-09 0.00168863)
(0.221119 6.5353e-09 0.00167434)
(0.218995 6.61334e-09 0.00166078)
(0.216889 6.67996e-09 0.00164795)
(0.214798 6.7504e-09 0.0016359)
(0.212721 6.82083e-09 0.00162465)
(0.210659 6.87984e-09 0.0016142)
(0.208609 6.94075e-09 0.0016046)
(0.206571 6.99786e-09 0.00159585)
(0.204544 7.04735e-09 0.00158797)
(0.202526 7.08922e-09 0.00158097)
(0.200516 7.13491e-09 0.00157488)
(0.198514 7.17488e-09 0.00156971)
(0.196517 7.21485e-09 0.00156546)
(0.194526 7.2434e-09 0.00156217)
(0.192539 7.27576e-09 0.00155982)
(0.190554 7.2986e-09 0.00155845)
(0.18857 7.31954e-09 0.00155806)
(0.186587 7.34619e-09 0.00155866)
(0.184602 7.36141e-09 0.00156027)
(0.182616 7.37093e-09 0.00156288)
(0.180625 7.37473e-09 0.00156652)
(0.17863 7.38234e-09 0.0015712)
(0.176629 7.38424e-09 0.00157691)
(0.17462 7.38424e-09 0.00158368)
(0.172603 7.38424e-09 0.0015915)
(0.170576 7.37852e-09 0.00160039)
(0.168538 7.36139e-09 0.00161035)
(0.166487 7.3671e-09 0.00162139)
(0.164422 7.35377e-09 0.00163351)
(0.162342 7.33854e-09 0.00164672)
(0.160246 7.33853e-09 0.00166102)
(0.158131 7.3233e-09 0.00167641)
(0.155998 7.31378e-09 0.00169288)
(0.153845 7.30236e-09 0.00171045)
(0.151669 7.28712e-09 0.00172911)
(0.149471 7.29093e-09 0.00174885)
(0.147249 7.28712e-09 0.00176967)
(0.145001 7.28331e-09 0.00179156)
(0.142727 7.29092e-09 0.00181452)
(0.140424 7.29092e-09 0.00183853)
(0.138093 7.30234e-09 0.00186357)
(0.135731 7.31376e-09 0.00188964)
(0.133338 7.34041e-09 0.00191671)
(0.130912 7.35944e-09 0.00194477)
(0.128452 7.39751e-09 0.00197379)
(0.125958 7.43177e-09 0.00200375)
(0.123428 7.48507e-09 0.0020346)
(0.120861 7.54218e-09 0.00206633)
(0.118257 7.59929e-09 0.0020989)
(0.115614 7.68304e-09 0.00213226)
(0.112932 7.7668e-09 0.00216637)
(0.11021 7.86959e-09 0.00220119)
(0.107448 7.98762e-09 0.00223665)
(0.104644 8.12087e-09 0.0022727)
(0.101799 8.25793e-09 0.00230927)
(0.0989117 8.43306e-09 0.0023463)
(0.0959819 8.61199e-09 0.00238371)
(0.0930096 8.81758e-09 0.00242142)
(0.0899946 9.04602e-09 0.00245932)
(0.0869371 9.27825e-09 0.00249733)
(0.0838372 9.54857e-09 0.00253534)
(0.0806952 9.82649e-09 0.00257323)
(0.0775117 1.01196e-08 0.00261087)
(0.0742873 1.04204e-08 0.00264811)
(0.0710228 1.07516e-08 0.00268481)
(0.0677194 1.10791e-08 0.00272078)
(0.0643783 1.14179e-08 0.00275586)
(0.0610011 1.17682e-08 0.00278982)
(0.0575895 1.20956e-08 0.00282244)
(0.0541456 1.24306e-08 0.00285346)
(0.0506719 1.27352e-08 0.00288261)
(0.0471712 1.30322e-08 0.00290957)
(0.0436466 1.33063e-08 0.00293399)
(0.0401016 1.35499e-08 0.00295548)
(0.0365405 1.37974e-08 0.00297359)
(0.0329679 1.40449e-08 0.00298783)
(0.0293889 1.4319e-08 0.00299762)
(0.0258095 1.46845e-08 0.00300235)
(0.0222365 1.51832e-08 0.00300127)
(0.0186775 1.59142e-08 0.00299355)
(0.0151409 1.69917e-08 0.00297824)
(0.0116365 1.85374e-08 0.00295424)
(0.00817543 2.06999e-08 0.00292023)
(0.0047696 2.35744e-08 0.00287458)
(0.00143823 2.71836e-08 0.00281491)
(-0.00181573 3.12155e-08 0.00273292)
(-0.00495027 3.5628e-08 0.0026272)
(-0.00795859 4.025e-08 0.0025011)
(-0.0108101 4.42552e-08 0.00235269)
(-0.0134768 4.65396e-08 0.00217777)
(-0.0159256 4.56905e-08 0.00197093)
(-0.0181167 4.02805e-08 0.00172703)
(-0.0200048 2.94223e-08 0.00143909)
(-0.0215357 1.35842e-08 0.00109896)
(-0.0226464 -4.2793e-09 0.000696601)
(-0.0232634 -1.82366e-08 0.00021979)
(-0.0232994 -2.08103e-08 -0.000343626)
(-0.0226564 -6.20576e-09 -0.00100521)
(-0.021231 2.30946e-08 -0.00177608)
(-0.0189133 5.14433e-08 -0.00265792)
(-0.015613 5.6149e-08 -0.00361966)
(-0.0113122 3.18209e-08 -0.00454292)
(-0.00630063 1.29903e-08 -0.00505392)
(-0.000697866 4.78335e-08 -0.00341131)
(0.00100089 1.20627e-07 0.00137843)
(-0.0151217 2.8668e-08 0.0412009)
(-0.0224254 2.40592e-09 0.0281979)
(-0.0233608 3.79956e-09 0.0135471)
(-0.02051 -2.77161e-11 0.000193653)
(-0.0141379 -1.42498e-09 -0.0103228)
(-0.00502301 -2.52339e-09 -0.017984)
(0.00635956 -3.36099e-09 -0.0233589)
(0.0193939 -3.94826e-09 -0.0269835)
(0.0336336 -4.36516e-09 -0.0293116)
(0.0486879 -4.53648e-09 -0.0306417)
(0.064231 -4.46794e-09 -0.0312476)
(0.0800172 -4.32516e-09 -0.0313507)
(0.0958329 -4.11861e-09 -0.0310805)
(0.111519 -3.88303e-09 -0.0305345)
(0.126949 -3.62936e-09 -0.029782)
(0.142024 -3.3695e-09 -0.0288741)
(0.156666 -3.11964e-09 -0.0278499)
(0.170814 -2.87978e-09 -0.0267393)
(0.184423 -2.65467e-09 -0.0255661)
(0.197458 -2.44288e-09 -0.024349)
(0.209892 -2.24823e-09 -0.0231033)
(0.221708 -2.0688e-09 -0.0218414)
(0.232893 -1.90223e-09 -0.0205738)
(0.243443 -1.75136e-09 -0.019309)
(0.253355 -1.61097e-09 -0.0180544)
(0.262631 -1.4858e-09 -0.0168159)
(0.271279 -1.37205e-09 -0.0155989)
(0.279305 -1.2702e-09 -0.0144076)
(0.286723 -1.18073e-09 -0.0132458)
(0.293545 -1.10268e-09 -0.0121167)
(0.299786 -1.03462e-09 -0.0110226)
(0.305463 -9.75601e-10 -0.00996589)
(0.310595 -9.25152e-10 -0.00894809)
(0.3152 -8.83745e-10 -0.00797057)
(0.319297 -8.50428e-10 -0.0070343)
(0.322908 -8.23775e-10 -0.00613993)
(0.326054 -8.03308e-10 -0.00528785)
(0.328755 -7.8998e-10 -0.0044782)
(0.331033 -7.79032e-10 -0.00371088)
(0.33291 -7.75699e-10 -0.00298559)
(0.334406 -7.76172e-10 -0.00230185)
(0.335544 -7.7855e-10 -0.00165902)
(0.336344 -7.8521e-10 -0.00105631)
(0.336826 -7.91871e-10 -0.000492808)
(0.337011 -8.02815e-10 3.25293e-05)
(0.336919 -8.17566e-10 0.000520894)
(0.336568 -8.31841e-10 0.000973574)
(0.335977 -8.47544e-10 0.00139185)
(0.335163 -8.63247e-10 0.00177706)
(0.334146 -8.77998e-10 0.00213058)
(0.332939 -8.92749e-10 0.0024538)
(0.33156 -9.05597e-10 0.00274816)
(0.330024 -9.23204e-10 0.0030151)
(0.328345 -9.36051e-10 0.00325605)
(0.326536 -9.50327e-10 0.00347244)
(0.324611 -9.62699e-10 0.00366571)
(0.322581 -9.75071e-10 0.00383725)
(0.320458 -9.84587e-10 0.00398844)
(0.318254 -9.95055e-10 0.00412063)
(0.315976 -1.00267e-09 0.00423512)
(0.313637 -1.00981e-09 0.00433318)
(0.311243 -1.01504e-09 0.00441603)
(0.308802 -1.02122e-09 0.00448486)
(0.306324 -1.02741e-09 0.00454078)
(0.303813 -1.03026e-09 0.00458488)
(0.301278 -1.03359e-09 0.00461819)
(0.298722 -1.0355e-09 0.00464167)
(0.296153 -1.03645e-09 0.00465626)
(0.293573 -1.03787e-09 0.00466282)
(0.290989 -1.03882e-09 0.00466217)
(0.288403 -1.03978e-09 0.00465508)
(0.285819 -1.03882e-09 0.00464227)
(0.28324 -1.03549e-09 0.00462441)
(0.28067 -1.03454e-09 0.00460212)
(0.27811 -1.03263e-09 0.00457599)
(0.275562 -1.02883e-09 0.00454654)
(0.273029 -1.0274e-09 0.00451429)
(0.270512 -1.02597e-09 0.00447968)
(0.268012 -1.02264e-09 0.00444314)
(0.26553 -1.01978e-09 0.00440504)
(0.263068 -1.01693e-09 0.00436575)
(0.260625 -1.01312e-09 0.00432558)
(0.258204 -1.01074e-09 0.00428484)
(0.255802 -1.00788e-09 0.00424377)
(0.253422 -1.00408e-09 0.00420264)
(0.251064 -1.00265e-09 0.00416166)
(0.248726 -9.99319e-10 0.00412103)
(0.246409 -9.97416e-10 0.00408092)
(0.244113 -9.9694e-10 0.00404151)
(0.241837 -9.92658e-10 0.00400293)
(0.239581 -9.91706e-10 0.00396533)
(0.237345 -9.89803e-10 0.00392882)
(0.235127 -9.86948e-10 0.00389351)
(0.232928 -9.85997e-10 0.00385949)
(0.230747 -9.83143e-10 0.00382686)
(0.228582 -9.82667e-10 0.0037957)
(0.226433 -9.80765e-10 0.00376607)
(0.2243 -9.79338e-10 0.00373804)
(0.222181 -9.77911e-10 0.00371167)
(0.220075 -9.76484e-10 0.00368702)
(0.217982 -9.75057e-10 0.00366413)
(0.215901 -9.7363e-10 0.00364306)
(0.21383 -9.72204e-10 0.00362384)
(0.211769 -9.71729e-10 0.00360651)
(0.209716 -9.71254e-10 0.0035911)
(0.207671 -9.69827e-10 0.00357766)
(0.205633 -9.68877e-10 0.00356622)
(0.2036 -9.6745e-10 0.0035568)
(0.201571 -9.66023e-10 0.00354943)
(0.199546 -9.63169e-10 0.00354414)
(0.197522 -9.62218e-10 0.00354095)
(0.1955 -9.60316e-10 0.00353988)
(0.193477 -9.56986e-10 0.00354097)
(0.191452 -9.56035e-10 0.00354422)
(0.189425 -9.54608e-10 0.00354967)
(0.187395 -9.54134e-10 0.00355732)
(0.185359 -9.51279e-10 0.00356719)
(0.183317 -9.49377e-10 0.0035793)
(0.181268 -9.46047e-10 0.00359366)
(0.17921 -9.43668e-10 0.00361029)
(0.177142 -9.42718e-10 0.00362918)
(0.175063 -9.39863e-10 0.00365036)
(0.172971 -9.35105e-10 0.00367382)
(0.170866 -9.31775e-10 0.00369957)
(0.168746 -9.27969e-10 0.00372761)
(0.166611 -9.24639e-10 0.00375795)
(0.164458 -9.20357e-10 0.00379056)
(0.162286 -9.1655e-10 0.00382545)
(0.160095 -9.11792e-10 0.0038626)
(0.157883 -9.08938e-10 0.00390201)
(0.155648 -9.0418e-10 0.00394364)
(0.153391 -8.99422e-10 0.00398748)
(0.151109 -8.9276e-10 0.00403351)
(0.148801 -8.88002e-10 0.00408169)
(0.146467 -8.83244e-10 0.00413198)
(0.144105 -8.7801e-10 0.00418434)
(0.141715 -8.71824e-10 0.00423873)
(0.139294 -8.65639e-10 0.00429508)
(0.136843 -8.60404e-10 0.00435336)
(0.13436 -8.55646e-10 0.00441348)
(0.131844 -8.50412e-10 0.00447537)
(0.129294 -8.41847e-10 0.00453896)
(0.12671 -8.38516e-10 0.00460415)
(0.124091 -8.34234e-10 0.00467085)
(0.121436 -8.28048e-10 0.00473896)
(0.118745 -8.21862e-10 0.00480835)
(0.116016 -8.19007e-10 0.00487891)
(0.11325 -8.12821e-10 0.00495051)
(0.110446 -8.08539e-10 0.00502298)
(0.107604 -8.05208e-10 0.00509618)
(0.104723 -8.03305e-10 0.00516993)
(0.101804 -7.99023e-10 0.00524406)
(0.0988458 -7.95216e-10 0.00531834)
(0.0958492 -7.91885e-10 0.00539258)
(0.0928144 -7.94266e-10 0.00546654)
(0.0897416 -7.92362e-10 0.00553996)
(0.0866315 -7.94743e-10 0.00561257)
(0.0834847 -8.00454e-10 0.00568407)
(0.0803021 -8.07117e-10 0.00575415)
(0.0770847 -8.17112e-10 0.00582244)
(0.0738337 -8.2901e-10 0.00588857)
(0.0705508 -8.43287e-10 0.00595212)
(0.0672375 -8.6042e-10 0.00601265)
(0.0638958 -8.84692e-10 0.00606965)
(0.060528 -9.11819e-10 0.00612258)
(0.0571366 -9.45132e-10 0.00617085)
(0.0537245 -9.8035e-10 0.00621378)
(0.050295 -1.02128e-09 0.00625066)
(0.0468517 -1.06696e-09 0.00628066)
(0.0433988 -1.1098e-09 0.00630289)
(0.0399408 -1.15644e-09 0.00631634)
(0.0364829 -1.19641e-09 0.00631988)
(0.0330308 -1.22687e-09 0.00631225)
(0.029591 -1.244e-09 0.006292)
(0.0261705 -1.23258e-09 0.00625753)
(0.0227776 -1.18975e-09 0.00620698)
(0.0194211 -1.09933e-09 0.00613823)
(0.0161112 -9.64172e-10 0.0060488)
(0.012859 -7.70955e-10 0.0059356)
(0.00967781 -5.37762e-10 0.00579534)
(0.00658072 -2.56979e-10 0.00562176)
(0.00358476 4.66472e-11 0.00541069)
(0.000706459 2.72225e-10 0.00515955)
(-0.00203385 3.01731e-10 0.00486218)
(-0.00461138 -3.80639e-11 0.00451214)
(-0.00700235 -9.58462e-10 0.00410145)
(-0.00917821 -2.67552e-09 0.00362064)
(-0.0111078 -5.26158e-09 0.00305813)
(-0.0127562 -8.46441e-09 0.00240092)
(-0.0140855 -1.14674e-08 0.00163411)
(-0.0150547 -1.28132e-08 0.000741267)
(-0.0156223 -1.08373e-08 -0.000292995)
(-0.0157445 -4.87039e-09 -0.00147909)
(-0.015385 2.75835e-09 -0.00281896)
(-0.014519 5.65374e-09 -0.00428947)
(-0.0131458 -3.70252e-09 -0.00580499)
(-0.0113054 -2.33478e-08 -0.00714089)
(-0.0090484 -2.93689e-08 -0.0077884)
(-0.0063294 -3.42652e-09 -0.00647543)
(-0.00367055 4.21224e-08 -0.00119499)
(-0.015122 2.86679e-08 0.0412005)
(-0.0224254 2.40591e-09 0.0281977)
(-0.0233608 3.79954e-09 0.013547)
(-0.0205099 -2.77159e-11 0.000193551)
(-0.0141378 -1.42498e-09 -0.0103229)
(-0.00502293 -2.52337e-09 -0.0179841)
(0.00635965 -3.36097e-09 -0.023359)
(0.0193939 -3.94824e-09 -0.0269836)
(0.0336337 -4.36514e-09 -0.0293117)
(0.0486879 -4.53646e-09 -0.0306418)
(0.0642311 -4.46793e-09 -0.0312476)
(0.0800173 -4.32515e-09 -0.0313508)
(0.095833 -4.1186e-09 -0.0310805)
(0.111519 -3.88301e-09 -0.0305346)
(0.126949 -3.62935e-09 -0.029782)
(0.142024 -3.36949e-09 -0.0288741)
(0.156666 -3.11964e-09 -0.0278499)
(0.170814 -2.87977e-09 -0.0267394)
(0.184423 -2.65466e-09 -0.0255661)
(0.197458 -2.44288e-09 -0.024349)
(0.209892 -2.24822e-09 -0.0231033)
(0.221708 -2.0688e-09 -0.0218415)
(0.232893 -1.90223e-09 -0.0205738)
(0.243443 -1.75136e-09 -0.0193091)
(0.253355 -1.61096e-09 -0.0180544)
(0.262631 -1.48579e-09 -0.0168159)
(0.271279 -1.37205e-09 -0.0155989)
(0.279305 -1.2702e-09 -0.0144076)
(0.286723 -1.18073e-09 -0.0132458)
(0.293545 -1.10267e-09 -0.0121167)
(0.299786 -1.03462e-09 -0.0110226)
(0.305463 -9.756e-10 -0.00996589)
(0.310595 -9.25151e-10 -0.0089481)
(0.3152 -8.83744e-10 -0.00797058)
(0.319297 -8.50427e-10 -0.00703431)
(0.322908 -8.23774e-10 -0.00613994)
(0.326054 -8.03307e-10 -0.00528786)
(0.328755 -7.8998e-10 -0.00447821)
(0.331033 -7.79031e-10 -0.00371089)
(0.33291 -7.75698e-10 -0.0029856)
(0.334406 -7.76171e-10 -0.00230186)
(0.335544 -7.78549e-10 -0.00165903)
(0.336344 -7.85209e-10 -0.00105632)
(0.336826 -7.9187e-10 -0.000492819)
(0.337011 -8.02814e-10 3.25176e-05)
(0.336919 -8.17565e-10 0.000520882)
(0.336568 -8.3184e-10 0.000973561)
(0.335977 -8.47543e-10 0.00139184)
(0.335163 -8.63246e-10 0.00177705)
(0.334145 -8.77997e-10 0.00213056)
(0.332939 -8.92748e-10 0.00245379)
(0.33156 -9.05596e-10 0.00274815)
(0.330024 -9.23203e-10 0.00301509)
(0.328345 -9.3605e-10 0.00325603)
(0.326536 -9.50326e-10 0.00347243)
(0.324611 -9.62698e-10 0.00366569)
(0.322581 -9.7507e-10 0.00383723)
(0.320458 -9.84586e-10 0.00398843)
(0.318253 -9.95054e-10 0.00412061)
(0.315976 -1.00267e-09 0.0042351)
(0.313637 -1.0098e-09 0.00433316)
(0.311242 -1.01504e-09 0.00441601)
(0.308802 -1.02122e-09 0.00448484)
(0.306324 -1.02741e-09 0.00454076)
(0.303813 -1.03026e-09 0.00458487)
(0.301278 -1.03359e-09 0.00461817)
(0.298722 -1.0355e-09 0.00464166)
(0.296153 -1.03645e-09 0.00465625)
(0.293573 -1.03787e-09 0.0046628)
(0.290989 -1.03882e-09 0.00466215)
(0.288403 -1.03977e-09 0.00465506)
(0.285819 -1.03882e-09 0.00464225)
(0.28324 -1.03549e-09 0.00462439)
(0.28067 -1.03454e-09 0.0046021)
(0.27811 -1.03263e-09 0.00457597)
(0.275562 -1.02883e-09 0.00454653)
(0.273029 -1.0274e-09 0.00451428)
(0.270512 -1.02597e-09 0.00447967)
(0.268012 -1.02264e-09 0.00444312)
(0.26553 -1.01978e-09 0.00440503)
(0.263068 -1.01693e-09 0.00436574)
(0.260625 -1.01312e-09 0.00432557)
(0.258204 -1.01074e-09 0.00428482)
(0.255802 -1.00788e-09 0.00424376)
(0.253422 -1.00408e-09 0.00420263)
(0.251064 -1.00265e-09 0.00416165)
(0.248726 -9.99318e-10 0.00412101)
(0.246409 -9.97415e-10 0.00408091)
(0.244113 -9.9694e-10 0.00404149)
(0.241837 -9.92657e-10 0.00400292)
(0.239581 -9.91706e-10 0.00396532)
(0.237345 -9.89802e-10 0.00392881)
(0.235127 -9.86948e-10 0.0038935)
(0.232928 -9.85996e-10 0.00385948)
(0.230747 -9.83142e-10 0.00382685)
(0.228582 -9.82667e-10 0.00379568)
(0.226433 -9.80764e-10 0.00376605)
(0.2243 -9.79337e-10 0.00373803)
(0.222181 -9.7791e-10 0.00371166)
(0.220075 -9.76483e-10 0.00368701)
(0.217982 -9.75056e-10 0.00366412)
(0.215901 -9.7363e-10 0.00364305)
(0.21383 -9.72203e-10 0.00362382)
(0.211769 -9.71728e-10 0.00360649)
(0.209716 -9.71253e-10 0.00359109)
(0.207671 -9.69827e-10 0.00357765)
(0.205633 -9.68876e-10 0.00356621)
(0.2036 -9.67449e-10 0.00355678)
(0.201571 -9.66023e-10 0.00354941)
(0.199546 -9.63168e-10 0.00354412)
(0.197522 -9.62218e-10 0.00354093)
(0.195499 -9.60315e-10 0.00353987)
(0.193477 -9.56985e-10 0.00354096)
(0.191452 -9.56034e-10 0.00354421)
(0.189425 -9.54608e-10 0.00354965)
(0.187395 -9.54133e-10 0.0035573)
(0.185359 -9.51279e-10 0.00356718)
(0.183317 -9.49376e-10 0.00357929)
(0.181268 -9.46046e-10 0.00359365)
(0.17921 -9.43667e-10 0.00361027)
(0.177142 -9.42717e-10 0.00362917)
(0.175063 -9.39863e-10 0.00365034)
(0.172971 -9.35105e-10 0.00367381)
(0.170866 -9.31774e-10 0.00369956)
(0.168746 -9.27968e-10 0.0037276)
(0.166611 -9.24638e-10 0.00375793)
(0.164458 -9.20356e-10 0.00379054)
(0.162286 -9.1655e-10 0.00382543)
(0.160095 -9.11792e-10 0.00386259)
(0.157883 -9.08937e-10 0.00390199)
(0.155648 -9.04179e-10 0.00394363)
(0.153391 -8.99421e-10 0.00398747)
(0.151109 -8.9276e-10 0.0040335)
(0.148801 -8.88002e-10 0.00408167)
(0.146467 -8.83244e-10 0.00413196)
(0.144105 -8.7801e-10 0.00418432)
(0.141715 -8.71824e-10 0.00423871)
(0.139294 -8.65638e-10 0.00429507)
(0.136843 -8.60404e-10 0.00435334)
(0.13436 -8.55646e-10 0.00441346)
(0.131844 -8.50412e-10 0.00447535)
(0.129294 -8.41846e-10 0.00453894)
(0.12671 -8.38516e-10 0.00460413)
(0.124091 -8.34233e-10 0.00467084)
(0.121436 -8.28047e-10 0.00473894)
(0.118745 -8.21861e-10 0.00480834)
(0.116016 -8.19007e-10 0.0048789)
(0.11325 -8.12821e-10 0.00495049)
(0.110446 -8.08538e-10 0.00502296)
(0.107604 -8.05208e-10 0.00509616)
(0.104723 -8.03305e-10 0.00516992)
(0.101804 -7.99022e-10 0.00524404)
(0.0988458 -7.95215e-10 0.00531833)
(0.0958492 -7.91885e-10 0.00539257)
(0.0928144 -7.94265e-10 0.00546652)
(0.0897416 -7.92362e-10 0.00553994)
(0.0866315 -7.94742e-10 0.00561255)
(0.0834847 -8.00453e-10 0.00568406)
(0.0803021 -8.07116e-10 0.00575413)
(0.0770847 -8.17111e-10 0.00582242)
(0.0738337 -8.29009e-10 0.00588855)
(0.0705508 -8.43286e-10 0.00595211)
(0.0672375 -8.60419e-10 0.00601263)
(0.0638958 -8.84691e-10 0.00606963)
(0.060528 -9.11818e-10 0.00612257)
(0.0571366 -9.45131e-10 0.00617083)
(0.0537245 -9.80349e-10 0.00621376)
(0.050295 -1.02128e-09 0.00625064)
(0.0468517 -1.06696e-09 0.00628064)
(0.0433988 -1.1098e-09 0.00630287)
(0.0399408 -1.15643e-09 0.00631632)
(0.0364829 -1.19641e-09 0.00631986)
(0.0330308 -1.22687e-09 0.00631222)
(0.029591 -1.244e-09 0.00629198)
(0.0261706 -1.23258e-09 0.00625751)
(0.0227776 -1.18975e-09 0.00620696)
(0.0194211 -1.09933e-09 0.0061382)
(0.0161112 -9.64171e-10 0.00604877)
(0.012859 -7.70954e-10 0.00593558)
(0.00967782 -5.37762e-10 0.00579532)
(0.00658074 -2.56979e-10 0.00562174)
(0.00358477 4.66471e-11 0.00541067)
(0.000706469 2.72225e-10 0.00515952)
(-0.00203384 3.01731e-10 0.00486215)
(-0.00461137 -3.80638e-11 0.00451212)
(-0.00700234 -9.58461e-10 0.00410143)
(-0.0091782 -2.67552e-09 0.00362061)
(-0.0111078 -5.26158e-09 0.0030581)
(-0.0127562 -8.46441e-09 0.00240089)
(-0.0140855 -1.14674e-08 0.00163408)
(-0.0150547 -1.28132e-08 0.000741236)
(-0.0156223 -1.08373e-08 -0.000293027)
(-0.0157445 -4.87038e-09 -0.00147913)
(-0.015385 2.75834e-09 -0.002819)
(-0.014519 5.65374e-09 -0.00428951)
(-0.0131458 -3.70252e-09 -0.00580504)
(-0.0113055 -2.33478e-08 -0.00714095)
(-0.00904848 -2.9369e-08 -0.00778848)
(-0.00632957 -3.42652e-09 -0.00647563)
(-0.00367093 4.21231e-08 -0.00119531)
(-0.00692451 4.35089e-08 0.0558395)
(-0.00782442 2.78097e-09 0.0287698)
(-0.00320323 4.87803e-09 0.0084959)
(0.00345269 3.13622e-09 -0.00769045)
(0.0117489 2.9354e-09 -0.0202735)
(0.021396 2.75599e-09 -0.029722)
(0.0322656 2.56897e-09 -0.036591)
(0.0441647 2.38717e-09 -0.0414052)
(0.0568826 2.17396e-09 -0.0446192)
(0.0702097 1.95457e-09 -0.046586)
(0.0839562 1.7604e-09 -0.0475969)
(0.0979421 1.58241e-09 -0.0478838)
(0.112005 1.4344e-09 -0.0476159)
(0.126012 1.31281e-09 -0.0469222)
(0.139851 1.21429e-09 -0.0458998)
(0.153429 1.13291e-09 -0.0446239)
(0.166671 1.06771e-09 -0.0431529)
(0.179518 1.0137e-09 -0.041533)
(0.19192 9.69917e-10 -0.0398014)
(0.203841 9.31607e-10 -0.037988)
(0.21525 8.99722e-10 -0.0361177)
(0.226124 8.72597e-10 -0.0342108)
(0.23645 8.48802e-10 -0.0322845)
(0.246216 8.27149e-10 -0.0303533)
(0.255417 8.09066e-10 -0.0284294)
(0.26405 7.9241e-10 -0.0265232)
(0.272119 7.77182e-10 -0.0246437)
(0.279628 7.64333e-10 -0.0227983)
(0.286584 7.51247e-10 -0.0209936)
(0.292998 7.38636e-10 -0.0192349)
(0.29888 7.25788e-10 -0.017527)
(0.304245 7.13415e-10 -0.0158735)
(0.309107 7.0128e-10 -0.0142777)
(0.313483 6.89622e-10 -0.0127419)
(0.317388 6.76773e-10 -0.011268)
(0.32084 6.64876e-10 -0.00985762)
(0.323859 6.5179e-10 -0.00851149)
(0.326462 6.39417e-10 -0.00723018)
(0.328668 6.26092e-10 -0.00601381)
(0.330497 6.12054e-10 -0.00486213)
(0.331968 5.98491e-10 -0.00377463)