/*--------------------------------*- C++ -*----------------------------------*\
  =========                 |
  \\      /  F ield         | OpenFOAM: The Open Source CFD Toolbox
   \\    /   O peration     | Website:  https://openfoam.org
    \\  /    A nd           | Version:  8
     \\/     M anipulation  |
\*---------------------------------------------------------------------------*/
FoamFile
{
    version     2.0;
    format      ascii;
    class       volVectorField;
    location    "4300";
    object      U;
}
// * * * * * * * * * * * * * * * * * * * * * * * * * * * * * * * * * * * * * //

dimensions      [0 1 -1 0 0 0 0];

internalField   nonuniform List<vector> 
48000
(
(-0.016102 2.95388e-07 0.0176727)
(-0.0365132 3.82634e-08 0.0182547)
(-0.0511887 3.51643e-08 0.00993903)
(-0.0566238 1.62495e-08 0.00151893)
(-0.0537824 4.19552e-09 -0.00476635)
(-0.0454095 -4.74028e-09 -0.00909385)
(-0.0330841 -1.06797e-08 -0.0120165)
(-0.0181829 -1.46127e-08 -0.0139603)
(-0.00154937 -1.78413e-08 -0.0151507)
(0.0161357 -1.96079e-08 -0.0156886)
(0.0341846 -1.90291e-08 -0.0157867)
(0.0524357 -1.75252e-08 -0.015647)
(0.0705696 -1.55911e-08 -0.0153429)
(0.0884187 -1.34323e-08 -0.014924)
(0.105849 -1.11936e-08 -0.0144244)
(0.122763 -8.98914e-09 -0.0138684)
(0.139086 -6.90271e-09 -0.0132736)
(0.154765 -4.95716e-09 -0.0126534)
(0.169762 -3.1639e-09 -0.0120176)
(0.184048 -1.55339e-09 -0.0113738)
(0.197605 -1.10412e-10 -0.0107282)
(0.210425 1.16505e-09 -0.0100854)
(0.222503 2.30344e-09 -0.00944921)
(0.233841 3.29145e-09 -0.00882268)
(0.244444 4.1481e-09 -0.00820832)
(0.254322 4.88672e-09 -0.00760816)
(0.263488 5.50542e-09 -0.00702385)
(0.271956 6.02893e-09 -0.00645676)
(0.279745 6.45535e-09 -0.00590797)
(0.286874 6.77326e-09 -0.00537836)
(0.293363 7.02455e-09 -0.00486861)
(0.299235 7.19969e-09 -0.00437923)
(0.304512 7.30058e-09 -0.00391059)
(0.309219 7.34437e-09 -0.00346289)
(0.313379 7.33485e-09 -0.00303626)
(0.317018 7.28536e-09 -0.00263068)
(0.320161 7.18066e-09 -0.00224605)
(0.322832 7.0455e-09 -0.00188218)
(0.325057 6.87988e-09 -0.0015388)
(0.32686 6.68e-09 -0.00121557)
(0.328266 6.4687e-09 -0.000912094)
(0.329299 6.22884e-09 -0.000627931)
(0.329982 5.98327e-09 -0.000362598)
(0.330339 5.72437e-09 -0.000115393)
(0.330392 5.45977e-09 0.000114533)
(0.330163 5.20278e-09 0.000327452)
(0.329672 4.94388e-09 0.000523732)
(0.328939 4.68499e-09 0.000704292)
(0.327985 4.43371e-09 0.000869908)
(0.326827 4.19385e-09 0.00102128)
(0.325483 3.9597e-09 0.00115911)
(0.32397 3.7503e-09 0.00128406)
(0.322304 3.54852e-09 0.00139683)
(0.320499 3.36577e-09 0.00149811)
(0.318571 3.19254e-09 0.00158856)
(0.316532 3.04025e-09 0.00166885)
(0.314395 2.90509e-09 0.00173965)
(0.312172 2.78516e-09 0.00180158)
(0.309874 2.68998e-09 0.00185526)
(0.30751 2.61003e-09 0.00190129)
(0.305091 2.55483e-09 0.00194024)
(0.302624 2.50914e-09 0.00197268)
(0.300119 2.47678e-09 0.00199912)
(0.297582 2.45965e-09 0.00202008)
(0.29502 2.45965e-09 0.00203603)
(0.29244 2.48059e-09 0.00204743)
(0.289846 2.50915e-09 0.00205472)
(0.287244 2.55484e-09 0.00205829)
(0.284639 2.61195e-09 0.00205852)
(0.282034 2.67667e-09 0.00205579)
(0.279433 2.75282e-09 0.00205041)
(0.27684 2.84039e-09 0.00204269)
(0.274257 2.93557e-09 0.00203294)
(0.271686 3.04217e-09 0.00202141)
(0.26913 3.15258e-09 0.00200835)
(0.266591 3.26299e-09 0.001994)
(0.26407 3.38292e-09 0.00197855)
(0.261568 3.50095e-09 0.0019622)
(0.259087 3.62278e-09 0.00194513)
(0.256628 3.75032e-09 0.0019275)
(0.254191 3.88358e-09 0.00190945)
(0.251776 4.01302e-09 0.00189111)
(0.249384 4.13676e-09 0.00187262)
(0.247015 4.2624e-09 0.00185407)
(0.24467 4.38423e-09 0.00183557)
(0.242347 4.51367e-09 0.00181721)
(0.240047 4.63931e-09 0.00179906)
(0.23777 4.76685e-09 0.0017812)
(0.235515 4.88107e-09 0.0017637)
(0.233281 4.99147e-09 0.0017466)
(0.231069 5.09807e-09 0.00172998)
(0.228877 5.20468e-09 0.00171387)
(0.226706 5.31508e-09 0.00169832)
(0.224553 5.41788e-09 0.00168336)
(0.222419 5.51496e-09 0.00166904)
(0.220302 5.60443e-09 0.00165538)
(0.218203 5.6977e-09 0.00164242)
(0.216119 5.78336e-09 0.00163017)
(0.21405 5.86902e-09 0.00161867)
(0.211995 5.94516e-09 0.00160794)
(0.209954 6.02131e-09 0.00159799)
(0.207924 6.10126e-09 0.00158886)
(0.205906 6.16978e-09 0.00158055)
(0.203897 6.24212e-09 0.00157308)
(0.201898 6.30303e-09 0.00156648)
(0.199906 6.36775e-09 0.00156075)
(0.197922 6.42676e-09 0.00155591)
(0.195943 6.48958e-09 0.00155197)
(0.193968 6.54478e-09 0.00154895)
(0.191997 6.6095e-09 0.00154687)
(0.190029 6.6628e-09 0.00154573)
(0.188061 6.72371e-09 0.00154554)
(0.186093 6.78081e-09 0.00154633)
(0.184124 6.83221e-09 0.0015481)
(0.182153 6.88931e-09 0.00155086)
(0.180177 6.94071e-09 0.00155462)
(0.178197 6.99781e-09 0.0015594)
(0.176211 7.05301e-09 0.0015652)
(0.174217 7.10631e-09 0.00157203)
(0.172214 7.15961e-09 0.0015799)
(0.170201 7.21862e-09 0.00158883)
(0.168177 7.27573e-09 0.00159881)
(0.166141 7.34235e-09 0.00160985)
(0.16409 7.40326e-09 0.00162197)
(0.162025 7.46037e-09 0.00163516)
(0.159942 7.51938e-09 0.00164942)
(0.157843 7.58029e-09 0.00166477)
(0.155724 7.64691e-09 0.0016812)
(0.153585 7.72115e-09 0.00169871)
(0.151424 7.78397e-09 0.00171731)
(0.14924 7.8544e-09 0.00173698)
(0.147032 7.91912e-09 0.00175773)
(0.144799 7.98765e-09 0.00177955)
(0.142539 8.0676e-09 0.00180243)
(0.140251 8.13613e-09 0.00182636)
(0.137935 8.21988e-09 0.00185133)
(0.135588 8.29603e-09 0.00187732)
(0.133209 8.38359e-09 0.00190432)
(0.130798 8.45212e-09 0.00193231)
(0.128354 8.54349e-09 0.00196127)
(0.125874 8.63867e-09 0.00199116)
(0.123359 8.73004e-09 0.00202197)
(0.120808 8.8138e-09 0.00205366)
(0.118219 8.91278e-09 0.00208619)
(0.115591 9.01177e-09 0.00211953)
(0.112924 9.10314e-09 0.00215364)
(0.110217 9.20593e-09 0.00218846)
(0.10747 9.30111e-09 0.00222394)
(0.104681 9.40771e-09 0.00226002)
(0.10185 9.51431e-09 0.00229665)
(0.0989775 9.63614e-09 0.00233376)
(0.0960622 9.76559e-09 0.00237126)
(0.0931042 9.89503e-09 0.00240908)
(0.0901034 1.00511e-08 0.00244713)
(0.0870598 1.02072e-08 0.0024853)
(0.0839735 1.03862e-08 0.0025235)
(0.0808448 1.05956e-08 0.00256161)
(0.0776743 1.08278e-08 0.00259949)
(0.0744626 1.10829e-08 0.00263701)
(0.0712104 1.1376e-08 0.00267402)
(0.0679188 1.16768e-08 0.00271034)
(0.064589 1.20233e-08 0.00274579)
(0.0612226 1.24002e-08 0.00278016)
(0.0578213 1.27771e-08 0.00281324)
(0.0543872 1.3173e-08 0.00284475)
(0.0509226 1.35804e-08 0.00287444)
(0.0474302 1.39726e-08 0.00290198)
(0.0439132 1.43609e-08 0.00292702)
(0.0403751 1.47112e-08 0.00294918)
(0.03682 1.50614e-08 0.00296801)
(0.0332524 1.5366e-08 0.00298302)
(0.0296776 1.56706e-08 0.00299365)
(0.0261014 1.59828e-08 0.00299926)
(0.0225305 1.62912e-08 0.00299911)
(0.0189724 1.66148e-08 0.00299239)
(0.0154356 1.69422e-08 0.00297814)
(0.0119297 1.72658e-08 0.00295526)
(0.00846597 1.75285e-08 0.00292244)
(0.00505576 1.7658e-08 0.00287806)
(0.00171937 1.7559e-08 0.0028201)
(-0.00154218 1.68889e-08 0.00274002)
(-0.00468556 1.58533e-08 0.00263585)
(-0.00770414 1.47835e-08 0.00251103)
(-0.0105676 1.37784e-08 0.00236395)
(-0.0132479 1.33253e-08 0.00219055)
(-0.0157119 1.39802e-08 0.00198521)
(-0.0179201 1.6432e-08 0.00174282)
(-0.0198268 2.11682e-08 0.00145645)
(-0.0213783 2.80365e-08 0.00111788)
(-0.0225112 3.60545e-08 0.000717049)
(-0.023152 4.29989e-08 0.000241656)
(-0.0232135 4.55878e-08 -0.000320733)
(-0.0225966 4.12095e-08 -0.000981807)
(-0.0211978 3.05721e-08 -0.00175279)
(-0.0189055 1.95387e-08 -0.00263585)
(-0.015628 1.81681e-08 -0.0036006)
(-0.0113438 3.09528e-08 -0.00453028)
(-0.00633881 4.05088e-08 -0.0050609)
(-0.000810433 2.57216e-08 -0.00361185)
(0.00122278 -5.06514e-08 0.00166357)
(-0.016103 2.95385e-07 0.0176719)
(-0.0365134 3.82632e-08 0.0182544)
(-0.0511886 3.51642e-08 0.00993882)
(-0.0566237 1.62495e-08 0.00151875)
(-0.0537822 4.1955e-09 -0.00476653)
(-0.0454093 -4.74026e-09 -0.00909402)
(-0.0330839 -1.06797e-08 -0.0120166)
(-0.0181827 -1.46126e-08 -0.0139605)
(-0.0015492 -1.78412e-08 -0.0151508)
(0.0161358 -1.96078e-08 -0.0156887)
(0.0341848 -1.90291e-08 -0.0157869)
(0.0524359 -1.75252e-08 -0.0156472)
(0.0705697 -1.5591e-08 -0.0153431)
(0.0884188 -1.34323e-08 -0.0149241)
(0.105849 -1.11936e-08 -0.0144245)
(0.122763 -8.98912e-09 -0.0138685)
(0.139086 -6.9027e-09 -0.0132738)
(0.154765 -4.95715e-09 -0.0126535)
(0.169762 -3.1639e-09 -0.0120177)
(0.184048 -1.55339e-09 -0.011374)
(0.197605 -1.10412e-10 -0.0107283)
(0.210425 1.16505e-09 -0.0100855)
(0.222503 2.30344e-09 -0.00944931)
(0.233841 3.29144e-09 -0.00882278)
(0.244444 4.14809e-09 -0.00820842)
(0.254322 4.88672e-09 -0.00760825)
(0.263488 5.50541e-09 -0.00702394)
(0.271956 6.02892e-09 -0.00645685)
(0.279745 6.45534e-09 -0.00590806)
(0.286874 6.77326e-09 -0.00537845)
(0.293363 7.02454e-09 -0.0048687)
(0.299235 7.19968e-09 -0.00437932)
(0.304512 7.30058e-09 -0.00391067)
(0.309218 7.34436e-09 -0.00346297)
(0.313379 7.33485e-09 -0.00303634)
(0.317018 7.28535e-09 -0.00263076)
(0.320161 7.18065e-09 -0.00224613)
(0.322832 7.0455e-09 -0.00188226)
(0.325057 6.87988e-09 -0.00153887)
(0.32686 6.68e-09 -0.00121564)
(0.328266 6.46869e-09 -0.000912164)
(0.329299 6.22883e-09 -0.000628)
(0.329982 5.98327e-09 -0.000362666)
(0.330339 5.72437e-09 -0.00011546)
(0.330392 5.45976e-09 0.000114466)
(0.330163 5.20277e-09 0.000327387)
(0.329672 4.94388e-09 0.000523668)
(0.328939 4.68498e-09 0.000704228)
(0.327985 4.4337e-09 0.000869846)
(0.326827 4.19385e-09 0.00102122)
(0.325483 3.9597e-09 0.00115905)
(0.32397 3.7503e-09 0.001284)
(0.322304 3.54851e-09 0.00139677)
(0.320499 3.36577e-09 0.00149805)
(0.318571 3.19254e-09 0.0015885)
(0.316532 3.04025e-09 0.0016688)
(0.314395 2.90509e-09 0.00173959)
(0.312172 2.78516e-09 0.00180152)
(0.309874 2.68998e-09 0.0018552)
(0.30751 2.61003e-09 0.00190123)
(0.305091 2.55483e-09 0.00194019)
(0.302624 2.50914e-09 0.00197262)
(0.300119 2.47678e-09 0.00199907)
(0.297582 2.45965e-09 0.00202003)
(0.29502 2.45965e-09 0.00203598)
(0.29244 2.48059e-09 0.00204738)
(0.289846 2.50915e-09 0.00205467)
(0.287244 2.55484e-09 0.00205824)
(0.284639 2.61195e-09 0.00205847)
(0.282034 2.67667e-09 0.00205574)
(0.279433 2.75282e-09 0.00205036)
(0.27684 2.84039e-09 0.00204265)
(0.274257 2.93557e-09 0.00203289)
(0.271686 3.04217e-09 0.00202136)
(0.26913 3.15258e-09 0.0020083)
(0.266591 3.26299e-09 0.00199395)
(0.26407 3.38292e-09 0.0019785)
(0.261568 3.50095e-09 0.00196215)
(0.259087 3.62278e-09 0.00194508)
(0.256628 3.75032e-09 0.00192745)
(0.254191 3.88357e-09 0.0019094)
(0.251776 4.01302e-09 0.00189107)
(0.249384 4.13675e-09 0.00187257)
(0.247015 4.26239e-09 0.00185403)
(0.244669 4.38422e-09 0.00183553)
(0.242347 4.51367e-09 0.00181716)
(0.240047 4.63931e-09 0.00179901)
(0.23777 4.76685e-09 0.00178115)
(0.235515 4.88106e-09 0.00176365)
(0.233281 4.99147e-09 0.00174656)
(0.231069 5.09807e-09 0.00172993)
(0.228877 5.20467e-09 0.00171382)
(0.226706 5.31508e-09 0.00169827)
(0.224553 5.41787e-09 0.00168331)
(0.222419 5.51496e-09 0.00166899)
(0.220302 5.60442e-09 0.00165533)
(0.218203 5.6977e-09 0.00164237)
(0.216119 5.78336e-09 0.00163012)
(0.21405 5.86902e-09 0.00161862)
(0.211995 5.94516e-09 0.00160789)
(0.209954 6.0213e-09 0.00159794)
(0.207924 6.10125e-09 0.00158881)
(0.205906 6.16978e-09 0.0015805)
(0.203897 6.24211e-09 0.00157303)
(0.201898 6.30303e-09 0.00156643)
(0.199906 6.36775e-09 0.00156069)
(0.197922 6.42676e-09 0.00155585)
(0.195943 6.48957e-09 0.00155192)
(0.193968 6.54477e-09 0.0015489)
(0.191997 6.60949e-09 0.00154682)
(0.190029 6.66279e-09 0.00154568)
(0.188061 6.7237e-09 0.00154549)
(0.186093 6.78081e-09 0.00154628)
(0.184124 6.8322e-09 0.00154805)
(0.182153 6.88931e-09 0.00155081)
(0.180177 6.9407e-09 0.00155457)
(0.178197 6.99781e-09 0.00155934)
(0.176211 7.05301e-09 0.00156514)
(0.174217 7.10631e-09 0.00157198)
(0.172214 7.15961e-09 0.00157985)
(0.170201 7.21862e-09 0.00158877)
(0.168177 7.27572e-09 0.00159875)
(0.166141 7.34235e-09 0.0016098)
(0.16409 7.40326e-09 0.00162191)
(0.162025 7.46036e-09 0.0016351)
(0.159942 7.51937e-09 0.00164937)
(0.157843 7.58029e-09 0.00166471)
(0.155724 7.64691e-09 0.00168114)
(0.153585 7.72115e-09 0.00169866)
(0.151424 7.78397e-09 0.00171725)
(0.14924 7.8544e-09 0.00173693)
(0.147032 7.91912e-09 0.00175767)
(0.144799 7.98764e-09 0.00177949)
(0.142539 8.06759e-09 0.00180237)
(0.140251 8.13612e-09 0.0018263)
(0.137935 8.21988e-09 0.00185127)
(0.135588 8.29602e-09 0.00187726)
(0.133209 8.38358e-09 0.00190426)
(0.130798 8.45211e-09 0.00193225)
(0.128354 8.54348e-09 0.0019612)
(0.125874 8.63866e-09 0.0019911)
(0.123359 8.73003e-09 0.00202191)
(0.120808 8.81379e-09 0.00205359)
(0.118219 8.91278e-09 0.00208613)
(0.115591 9.01176e-09 0.00211947)
(0.112924 9.10313e-09 0.00215357)
(0.110217 9.20593e-09 0.00218839)
(0.10747 9.30111e-09 0.00222387)
(0.104681 9.40771e-09 0.00225996)
(0.10185 9.51431e-09 0.00229658)
(0.0989775 9.63614e-09 0.00233369)
(0.0960623 9.76558e-09 0.00237119)
(0.0931043 9.89503e-09 0.00240901)
(0.0901034 1.00511e-08 0.00244705)
(0.0870598 1.02072e-08 0.00248523)
(0.0839735 1.03862e-08 0.00252343)
(0.0808449 1.05955e-08 0.00256153)
(0.0776743 1.08278e-08 0.00259941)
(0.0744626 1.10829e-08 0.00263693)
(0.0712104 1.1376e-08 0.00267394)
(0.0679188 1.16768e-08 0.00271026)
(0.064589 1.20233e-08 0.00274571)
(0.0612227 1.24002e-08 0.00278008)
(0.0578214 1.27771e-08 0.00281315)
(0.0543872 1.3173e-08 0.00284467)
(0.0509226 1.35804e-08 0.00287435)
(0.0474302 1.39725e-08 0.00290189)
(0.0439132 1.43609e-08 0.00292693)
(0.0403751 1.47111e-08 0.00294909)
(0.03682 1.50614e-08 0.00296792)
(0.0332524 1.5366e-08 0.00298293)
(0.0296776 1.56706e-08 0.00299355)
(0.0261014 1.59828e-08 0.00299916)
(0.0225305 1.62911e-08 0.00299901)
(0.0189724 1.66148e-08 0.00299229)
(0.0154356 1.69422e-08 0.00297804)
(0.0119297 1.72658e-08 0.00295515)
(0.008466 1.75285e-08 0.00292233)
(0.00505578 1.76579e-08 0.00287795)
(0.00171939 1.75589e-08 0.00281998)
(-0.00154216 1.68889e-08 0.0027399)
(-0.00468554 1.58533e-08 0.00263573)
(-0.00770412 1.47835e-08 0.00251091)
(-0.0105676 1.37784e-08 0.00236383)
(-0.0132479 1.33253e-08 0.00219042)
(-0.0157119 1.39802e-08 0.00198508)
(-0.0179201 1.6432e-08 0.00174269)
(-0.0198268 2.11682e-08 0.00145632)
(-0.0213782 2.80364e-08 0.00111775)
(-0.0225112 3.60544e-08 0.000716906)
(-0.023152 4.29988e-08 0.000241502)
(-0.0232136 4.55877e-08 -0.000320901)
(-0.0225967 4.12094e-08 -0.000981992)
(-0.0211978 3.0572e-08 -0.00175299)
(-0.0189056 1.95387e-08 -0.00263606)
(-0.0156281 1.81681e-08 -0.00360079)
(-0.0113439 3.09527e-08 -0.00453046)
(-0.00633899 4.0509e-08 -0.00506114)
(-0.000810758 2.57217e-08 -0.00361227)
(0.00122245 -5.06514e-08 0.00166261)
(-0.0150327 2.92392e-08 0.0412052)
(-0.0222752 2.84568e-09 0.0280411)
(-0.0231318 4.26787e-09 0.0133362)
(-0.0202047 2.17861e-10 -1.72073e-05)
(-0.0137677 -1.23366e-09 -0.010508)
(-0.00459475 -2.41012e-09 -0.0181344)
(0.00683192 -3.32862e-09 -0.0234716)
(0.0198972 -3.98443e-09 -0.0270617)
(0.0341559 -4.45843e-09 -0.0293555)
(0.0492152 -4.66402e-09 -0.0306541)
(0.0647526 -4.61833e-09 -0.0312339)
(0.0805211 -4.48983e-09 -0.0313137)
(0.0963089 -4.2947e-09 -0.0310227)
(0.111958 -4.06197e-09 -0.0304581)
(0.127341 -3.80925e-09 -0.0296888)
(0.142361 -3.5513e-09 -0.0287659)
(0.156941 -3.30192e-09 -0.0277282)
(0.171021 -3.06348e-09 -0.0266056)
(0.184556 -2.83932e-09 -0.0254217)
(0.197511 -2.63039e-09 -0.0241952)
(0.20986 -2.43859e-09 -0.0229413)
(0.221588 -2.26202e-09 -0.0216726)
(0.232681 -2.10164e-09 -0.0203993)
(0.243136 -1.956e-09 -0.01913)
(0.252951 -1.82322e-09 -0.0178719)
(0.262129 -1.70471e-09 -0.0166312)
(0.270677 -1.60001e-09 -0.0154131)
(0.278604 -1.5072e-09 -0.0142217)
(0.285922 -1.42582e-09 -0.0130609)
(0.292645 -1.35633e-09 -0.0119337)
(0.298789 -1.29589e-09 -0.0108425)
(0.30437 -1.24592e-09 -0.00978958)
(0.309408 -1.20403e-09 -0.00877642)
(0.313921 -1.16977e-09 -0.00780431)
(0.317931 -1.14454e-09 -0.00687416)
(0.321457 -1.1236e-09 -0.00598659)
(0.324522 -1.11027e-09 -0.00514189)
(0.327146 -1.10122e-09 -0.00434015)
(0.329352 -1.09503e-09 -0.00358119)
(0.33116 -1.09503e-09 -0.00286465)
(0.332594 -1.09693e-09 -0.00218998)
(0.333674 -1.10312e-09 -0.00155646)
(0.33442 -1.10692e-09 -0.000963236)
(0.334854 -1.11216e-09 -0.000409333)
(0.334997 -1.12072e-09 0.000106349)
(0.334866 -1.13166e-09 0.000585083)
(0.334483 -1.14118e-09 0.00102822)
(0.333864 -1.14832e-09 0.00143708)
(0.333029 -1.15402e-09 0.00181304)
(0.331993 -1.16068e-09 0.00215755)
(0.330775 -1.16449e-09 0.00247202)
(0.329388 -1.16592e-09 0.00275794)
(0.327848 -1.16782e-09 0.00301678)
(0.32617 -1.16686e-09 0.00325)
(0.324366 -1.16353e-09 0.00345906)
(0.32245 -1.15829e-09 0.00364541)
(0.320432 -1.15306e-09 0.00381048)
(0.318326 -1.14354e-09 0.00395563)
(0.31614 -1.13259e-09 0.00408224)
(0.313885 -1.11926e-09 0.00419161)
(0.31157 -1.10546e-09 0.00428501)
(0.309203 -1.09118e-09 0.00436365)
(0.306793 -1.075e-09 0.00442872)
(0.304346 -1.05834e-09 0.00448132)
(0.301869 -1.04073e-09 0.00452253)
(0.299368 -1.02169e-09 0.00455335)
(0.296848 -1.00075e-09 0.00457475)
(0.294316 -9.81712e-10 0.00458763)
(0.291775 -9.61247e-10 0.00459284)
(0.289229 -9.41734e-10 0.00459118)
(0.286682 -9.21269e-10 0.0045834)
(0.284138 -9.00804e-10 0.00457019)
(0.2816 -8.80816e-10 0.0045522)
(0.279069 -8.60827e-10 0.00453004)
(0.276549 -8.42266e-10 0.00450427)
(0.274041 -8.21326e-10 0.00447539)
(0.271547 -8.05621e-10 0.00444388)
(0.269069 -7.89439e-10 0.00441018)
(0.266608 -7.74686e-10 0.0043747)
(0.264164 -7.58981e-10 0.00433779)
(0.261739 -7.46608e-10 0.00429979)
(0.259334 -7.33282e-10 0.004261)
(0.256948 -7.21861e-10 0.00422171)
(0.254582 -7.12343e-10 0.00418216)
(0.252237 -7.03301e-10 0.00414258)
(0.249911 -6.97115e-10 0.00410319)
(0.247606 -6.88073e-10 0.00406416)
(0.245321 -6.83315e-10 0.00402566)
(0.243056 -6.79508e-10 0.00398786)
(0.240811 -6.77129e-10 0.00395089)
(0.238584 -6.75702e-10 0.00391487)
(0.236377 -6.75703e-10 0.00387991)
(0.234187 -6.76655e-10 0.00384612)
(0.232015 -6.78084e-10 0.00381358)
(0.229859 -6.79513e-10 0.00378239)
(0.22772 -6.82369e-10 0.00375262)
(0.225595 -6.84749e-10 0.00372433)
(0.223486 -6.8951e-10 0.00369759)
(0.22139 -6.96173e-10 0.00367246)
(0.219307 -7.00933e-10 0.00364898)
(0.217236 -7.09025e-10 0.00362721)
(0.215176 -7.14261e-10 0.0036072)
(0.213126 -7.22352e-10 0.00358898)
(0.211085 -7.2854e-10 0.00357259)
(0.209052 -7.38536e-10 0.00355807)
(0.207026 -7.46151e-10 0.00354546)
(0.205006 -7.54243e-10 0.00353479)
(0.202991 -7.61858e-10 0.00352608)
(0.200981 -7.70902e-10 0.00351936)
(0.198973 -7.78518e-10 0.00351467)
(0.196966 -7.86133e-10 0.00351204)
(0.194961 -7.95177e-10 0.00351148)
(0.192954 -8.02316e-10 0.00351301)
(0.190946 -8.10408e-10 0.00351667)
(0.188935 -8.18976e-10 0.00352247)
(0.186921 -8.26591e-10 0.00353044)
(0.184901 -8.33731e-10 0.00354058)
(0.182874 -8.41823e-10 0.00355293)
(0.18084 -8.48962e-10 0.00356749)
(0.178797 -8.5515e-10 0.00358427)
(0.176745 -8.62766e-10 0.0036033)
(0.174681 -8.68002e-10 0.00362457)
(0.172604 -8.74666e-10 0.0036481)
(0.170514 -8.80378e-10 0.00367389)
(0.168409 -8.85614e-10 0.00370195)
(0.166288 -8.9085e-10 0.00373228)
(0.16415 -8.9561e-10 0.00376487)
(0.161994 -9.0275e-10 0.00379971)
(0.159817 -9.06082e-10 0.00383681)
(0.15762 -9.10842e-10 0.00387614)
(0.1554 -9.14651e-10 0.0039177)
(0.153158 -9.20363e-10 0.00396146)
(0.150891 -9.23695e-10 0.00400739)
(0.148598 -9.26076e-10 0.00405547)
(0.146279 -9.29884e-10 0.00410566)
(0.143932 -9.33692e-10 0.00415793)
(0.141557 -9.37976e-10 0.00421222)
(0.139151 -9.40832e-10 0.0042685)
(0.136715 -9.4464e-10 0.0043267)
(0.134247 -9.47497e-10 0.00438676)
(0.131746 -9.49401e-10 0.0044486)
(0.129211 -9.51306e-10 0.00451216)
(0.126642 -9.56066e-10 0.00457735)
(0.124038 -9.59398e-10 0.00464406)
(0.121398 -9.61778e-10 0.00471221)
(0.118722 -9.6511e-10 0.00478167)
(0.116008 -9.69394e-10 0.00485233)
(0.113257 -9.7463e-10 0.00492405)
(0.110467 -9.78913e-10 0.0049967)
(0.107639 -9.83673e-10 0.0050701)
(0.104773 -9.86529e-10 0.0051441)
(0.101867 -9.91289e-10 0.00521851)
(0.0989233 -9.93669e-10 0.00529314)
(0.0959404 -9.95573e-10 0.00536777)
(0.092919 -9.99381e-10 0.00544216)
(0.0898595 -1.00129e-09 0.00551607)
(0.0867622 -1.00081e-09 0.00558923)
(0.083628 -9.99859e-10 0.00566134)
(0.0804575 -1.00033e-09 0.00573208)
(0.0772519 -1.00081e-09 0.00580111)
(0.0740123 -1.00129e-09 0.00586804)
(0.0707402 -1.00414e-09 0.00593246)
(0.0674373 -1.007e-09 0.00599393)
(0.0641054 -1.01699e-09 0.00605195)
(0.0607468 -1.02889e-09 0.00610597)
(0.0573641 -1.04888e-09 0.00615541)
(0.05396 -1.07268e-09 0.0061996)
(0.0505378 -1.10409e-09 0.00623781)
(0.0471011 -1.14501e-09 0.00626924)
(0.0436539 -1.18689e-09 0.00629299)
(0.0402008 -1.23734e-09 0.00630805)
(0.036747 -1.28874e-09 0.00631329)
(0.0332981 -1.33633e-09 0.00630745)
(0.0298604 -1.38297e-09 0.00628911)
(0.0264412 -1.42865e-09 0.00625663)
(0.0230484 -1.46863e-09 0.00620818)
(0.019691 -1.50956e-09 0.00614163)
(0.016379 -1.56571e-09 0.00605453)
(0.0131235 -1.6352e-09 0.00594377)
(0.00993784 -1.74561e-09 0.0058062)
(0.00683499 -1.87696e-09 0.00563547)
(0.00383196 -2.01402e-09 0.00542718)
(0.000945426 -2.16535e-09 0.00517883)
(-0.00180482 -2.28147e-09 0.00488431)
(-0.00439346 -2.28433e-09 0.0045372)
(-0.00679692 -2.07017e-09 0.00412945)
(-0.0089866 -1.54287e-09 0.00365157)
(-0.0109313 -6.4627e-10 0.003092)
(-0.0125961 5.20646e-10 0.00243762)
(-0.0139429 1.65996e-09 0.00167345)
(-0.0149306 2.19868e-09 0.000782903)
(-0.0155174 1.42867e-09 -0.000249716)
(-0.0156595 -1.03746e-09 -0.00143511)
(-0.0153198 -4.50394e-09 -0.00277555)
(-0.0144732 -6.45705e-09 -0.00424859)
(-0.0131181 -3.17712e-09 -0.00576969)
(-0.011294 5.82315e-09 -0.0071159)
(-0.00905251 4.67906e-09 -0.00778249)
(-0.00635947 -1.33215e-08 -0.00651089)
(-0.00383038 -1.98389e-07 -0.00134108)
(-0.015033 2.92391e-08 0.0412049)
(-0.0222753 2.84566e-09 0.0280409)
(-0.0231317 4.26784e-09 0.0133361)
(-0.0202046 2.17859e-10 -1.73153e-05)
(-0.0137676 -1.23366e-09 -0.0105081)
(-0.00459466 -2.4101e-09 -0.0181344)
(0.006832 -3.32861e-09 -0.0234717)
(0.0198973 -3.98441e-09 -0.0270617)
(0.0341559 -4.45842e-09 -0.0293556)
(0.0492153 -4.66401e-09 -0.0306542)
(0.0647527 -4.61831e-09 -0.031234)
(0.0805212 -4.48981e-09 -0.0313137)
(0.0963089 -4.29468e-09 -0.0310228)
(0.111958 -4.06196e-09 -0.0304582)
(0.127341 -3.80924e-09 -0.0296888)
(0.142361 -3.55129e-09 -0.0287659)
(0.156941 -3.30191e-09 -0.0277282)
(0.171021 -3.06347e-09 -0.0266056)
(0.184556 -2.83931e-09 -0.0254217)
(0.197511 -2.63038e-09 -0.0241952)
(0.20986 -2.43859e-09 -0.0229414)
(0.221588 -2.26202e-09 -0.0216726)
(0.232681 -2.10163e-09 -0.0203993)
(0.243136 -1.956e-09 -0.01913)
(0.252951 -1.82322e-09 -0.0178719)
(0.262129 -1.70471e-09 -0.0166313)
(0.270677 -1.60001e-09 -0.0154131)
(0.278604 -1.5072e-09 -0.0142217)
(0.285922 -1.42582e-09 -0.0130609)
(0.292645 -1.35633e-09 -0.0119337)
(0.298788 -1.29589e-09 -0.0108426)
(0.30437 -1.24591e-09 -0.0097896)
(0.309408 -1.20403e-09 -0.00877643)
(0.313921 -1.16976e-09 -0.00780432)
(0.317931 -1.14454e-09 -0.00687418)
(0.321457 -1.12359e-09 -0.0059866)
(0.324522 -1.11027e-09 -0.0051419)
(0.327146 -1.10122e-09 -0.00434016)
(0.329352 -1.09503e-09 -0.0035812)
(0.33116 -1.09503e-09 -0.00286466)
(0.332594 -1.09693e-09 -0.00218999)
(0.333673 -1.10312e-09 -0.00155647)
(0.33442 -1.10692e-09 -0.000963249)
(0.334854 -1.11215e-09 -0.000409345)
(0.334996 -1.12072e-09 0.000106336)
(0.334866 -1.13166e-09 0.000585069)
(0.334483 -1.14118e-09 0.0010282)
(0.333864 -1.14831e-09 0.00143706)
(0.333029 -1.15402e-09 0.00181303)
(0.331993 -1.16068e-09 0.00215753)
(0.330774 -1.16449e-09 0.00247201)
(0.329388 -1.16591e-09 0.00275793)
(0.327848 -1.16782e-09 0.00301676)
(0.32617 -1.16686e-09 0.00324998)
(0.324366 -1.16353e-09 0.00345905)
(0.322449 -1.15829e-09 0.0036454)
(0.320432 -1.15305e-09 0.00381046)
(0.318326 -1.14353e-09 0.00395562)
(0.31614 -1.13259e-09 0.00408223)
(0.313885 -1.11926e-09 0.00419159)
(0.31157 -1.10546e-09 0.00428499)
(0.309203 -1.09118e-09 0.00436364)
(0.306793 -1.075e-09 0.0044287)
(0.304346 -1.05834e-09 0.0044813)
(0.301869 -1.04073e-09 0.00452251)
(0.299368 -1.02169e-09 0.00455334)
(0.296848 -1.00075e-09 0.00457474)
(0.294316 -9.81711e-10 0.00458762)
(0.291775 -9.61246e-10 0.00459283)
(0.289229 -9.41733e-10 0.00459117)
(0.286682 -9.21268e-10 0.00458338)
(0.284138 -9.00804e-10 0.00457017)
(0.2816 -8.80815e-10 0.00455219)
(0.279069 -8.60826e-10 0.00453003)
(0.276549 -8.42265e-10 0.00450425)
(0.274041 -8.21325e-10 0.00447537)
(0.271547 -8.0562e-10 0.00444387)
(0.269069 -7.89439e-10 0.00441017)
(0.266608 -7.74686e-10 0.00437468)
(0.264164 -7.58981e-10 0.00433777)
(0.261739 -7.46607e-10 0.00429977)
(0.259334 -7.33282e-10 0.00426099)
(0.256948 -7.2186e-10 0.00422169)
(0.254582 -7.12342e-10 0.00418214)
(0.252236 -7.03301e-10 0.00414257)
(0.249911 -6.97114e-10 0.00410317)
(0.247606 -6.88072e-10 0.00406414)
(0.245321 -6.83314e-10 0.00402565)
(0.243056 -6.79507e-10 0.00398785)
(0.240811 -6.77128e-10 0.00395087)
(0.238584 -6.75701e-10 0.00391485)
(0.236377 -6.75702e-10 0.00387989)
(0.234187 -6.76655e-10 0.0038461)
(0.232014 -6.78083e-10 0.00381357)
(0.229859 -6.79512e-10 0.00378238)
(0.22772 -6.82368e-10 0.0037526)
(0.225595 -6.84749e-10 0.00372432)
(0.223486 -6.89509e-10 0.00369758)
(0.22139 -6.96173e-10 0.00367244)
(0.219307 -7.00933e-10 0.00364897)
(0.217236 -7.09024e-10 0.0036272)
(0.215176 -7.1426e-10 0.00360719)
(0.213126 -7.22352e-10 0.00358897)
(0.211085 -7.2854e-10 0.00357258)
(0.209052 -7.38535e-10 0.00355806)
(0.207026 -7.46151e-10 0.00354545)
(0.205006 -7.54242e-10 0.00353477)
(0.202991 -7.61858e-10 0.00352606)
(0.200981 -7.70901e-10 0.00351935)
(0.198973 -7.78517e-10 0.00351466)
(0.196966 -7.86133e-10 0.00351202)
(0.194961 -7.95176e-10 0.00351146)
(0.192954 -8.02316e-10 0.003513)
(0.190946 -8.10407e-10 0.00351666)
(0.188935 -8.18975e-10 0.00352246)
(0.186921 -8.26591e-10 0.00353043)
(0.184901 -8.3373e-10 0.00354057)
(0.182874 -8.41822e-10 0.00355292)
(0.18084 -8.48962e-10 0.00356747)
(0.178797 -8.5515e-10 0.00358426)
(0.176745 -8.62765e-10 0.00360328)
(0.174681 -8.68001e-10 0.00362456)
(0.172604 -8.74665e-10 0.00364809)
(0.170514 -8.80377e-10 0.00367388)
(0.168409 -8.85613e-10 0.00370194)
(0.166288 -8.90849e-10 0.00373227)
(0.16415 -8.9561e-10 0.00376485)
(0.161994 -9.02749e-10 0.0037997)
(0.159817 -9.06082e-10 0.0038368)
(0.15762 -9.10842e-10 0.00387613)
(0.1554 -9.1465e-10 0.00391769)
(0.153158 -9.20362e-10 0.00396144)
(0.150891 -9.23694e-10 0.00400737)
(0.148598 -9.26075e-10 0.00405545)
(0.146279 -9.29883e-10 0.00410564)
(0.143932 -9.33691e-10 0.00415791)
(0.141557 -9.37975e-10 0.00421221)
(0.139151 -9.40832e-10 0.00426848)
(0.136715 -9.4464e-10 0.00432668)
(0.134247 -9.47496e-10 0.00438674)
(0.131746 -9.494e-10 0.00444859)
(0.129211 -9.51305e-10 0.00451215)
(0.126642 -9.56065e-10 0.00457733)
(0.124038 -9.59397e-10 0.00464405)
(0.121398 -9.61777e-10 0.00471219)
(0.118722 -9.65109e-10 0.00478166)
(0.116008 -9.69393e-10 0.00485232)
(0.113257 -9.74629e-10 0.00492404)
(0.110467 -9.78913e-10 0.00499668)
(0.107639 -9.83672e-10 0.00507009)
(0.104773 -9.86528e-10 0.00514409)
(0.101867 -9.91288e-10 0.0052185)
(0.0989233 -9.93668e-10 0.00529312)
(0.0959404 -9.95572e-10 0.00536775)
(0.0929191 -9.9938e-10 0.00544214)
(0.0898595 -1.00128e-09 0.00551606)
(0.0867622 -1.00081e-09 0.00558921)
(0.083628 -9.99858e-10 0.00566132)
(0.0804575 -1.00033e-09 0.00573206)
(0.0772519 -1.00081e-09 0.00580109)
(0.0740123 -1.00129e-09 0.00586802)
(0.0707402 -1.00414e-09 0.00593245)
(0.0674373 -1.007e-09 0.00599391)
(0.0641054 -1.01699e-09 0.00605193)
(0.0607468 -1.02889e-09 0.00610596)
(0.0573641 -1.04888e-09 0.00615539)
(0.05396 -1.07267e-09 0.00619958)
(0.0505378 -1.10408e-09 0.00623779)
(0.0471011 -1.14501e-09 0.00626922)
(0.0436539 -1.18689e-09 0.00629297)
(0.0402009 -1.23734e-09 0.00630803)
(0.036747 -1.28874e-09 0.00631327)
(0.0332981 -1.33633e-09 0.00630743)
(0.0298605 -1.38297e-09 0.00628909)
(0.0264412 -1.42865e-09 0.00625661)
(0.0230484 -1.46863e-09 0.00620816)
(0.019691 -1.50956e-09 0.00614161)
(0.016379 -1.56571e-09 0.00605451)
(0.0131235 -1.6352e-09 0.00594374)
(0.00993785 -1.7456e-09 0.00580617)
(0.006835 -1.87695e-09 0.00563544)
(0.00383197 -2.01401e-09 0.00542715)
(0.000945437 -2.16535e-09 0.00517881)
(-0.00180481 -2.28147e-09 0.00488429)
(-0.00439345 -2.28433e-09 0.00453718)
(-0.00679691 -2.07017e-09 0.00412942)
(-0.00898659 -1.54287e-09 0.00365154)
(-0.0109313 -6.46269e-10 0.00309197)
(-0.0125961 5.20646e-10 0.00243759)
(-0.0139429 1.65996e-09 0.00167342)
(-0.0149306 2.19868e-09 0.000782871)
(-0.0155174 1.42867e-09 -0.000249751)
(-0.0156595 -1.03746e-09 -0.00143515)
(-0.0153199 -4.50394e-09 -0.0027756)
(-0.0144732 -6.45705e-09 -0.00424864)
(-0.0131181 -3.17712e-09 -0.00576974)
(-0.011294 5.82317e-09 -0.00711596)
(-0.0090526 4.67911e-09 -0.00778257)
(-0.00635967 -1.33215e-08 -0.00651103)
(-0.00383084 -1.98385e-07 -0.00134142)
(-0.00680789 4.53898e-08 0.0556878)
(-0.00763164 3.12745e-09 0.0285148)
(-0.00294804 5.29684e-09 0.00821115)
(0.00375658 3.4627e-09 -0.00795926)
(0.0120905 3.28092e-09 -0.0205061)
(0.0217679 3.09247e-09 -0.0299097)
(0.0326602 2.88403e-09 -0.0367312)
(0.0445736 2.67558e-09 -0.0414991)
(0.057297 2.43334e-09 -0.0446687)
(0.0706213 2.18063e-09 -0.0465941)
(0.0843562 1.95886e-09 -0.0475676)
(0.0983214 1.75374e-09 -0.0478205)
(0.112355 1.58384e-09 -0.0475218)
(0.126325 1.44059e-09 -0.0467999)
(0.140118 1.32423e-09 -0.045752)
(0.153644 1.22667e-09 -0.0444529)
(0.166828 1.14553e-09 -0.0429609)
(0.17961 1.07795e-09 -0.0413221)
(0.191943 1.02132e-09 -0.0395737)
(0.203788 9.70872e-10 -0.0377455)
(0.215117 9.2709e-10 -0.0358622)
(0.225909 8.89018e-10 -0.0339443)
(0.236148 8.55705e-10 -0.0320089)
(0.245825 8.24058e-10 -0.0300704)
(0.254935 7.96456e-10 -0.028141)
(0.263476 7.70282e-10 -0.0262311)
(0.271451 7.45536e-10 -0.0243496)
(0.278866 7.23645e-10 -0.0225039)
(0.285729 7.01516e-10 -0.0207005)
(0.292049 6.81053e-10 -0.0189448)
(0.297839 6.6178e-10 -0.0172413)
(0.303114 6.42031e-10 -0.0155937)
(0.307887 6.23233e-10 -0.0140051)
(0.312177 6.05388e-10 -0.0124777)
(0.315998 5.87542e-10 -0.0110135)
(0.319371 5.70172e-10 -0.00961378)
(0.322313 5.5304e-10 -0.00827928)
(0.324843 5.3686e-10 -0.00701043)
(0.326981 5.19967e-10 -0.00580726)
(0.328745 5.03073e-10 -0.00466941)
(0.330156 4.87844e-10 -0.00359623)