/*--------------------------------*- C++ -*----------------------------------*\
  =========                 |
  \\      /  F ield         | OpenFOAM: The Open Source CFD Toolbox
   \\    /   O peration     | Website:  https://openfoam.org
    \\  /    A nd           | Version:  8
     \\/     M anipulation  |
\*---------------------------------------------------------------------------*/
FoamFile
{
    version     2.0;
    format      ascii;
    class       volScalarField;
    location    "3700";
    object      alphat;
}
// * * * * * * * * * * * * * * * * * * * * * * * * * * * * * * * * * * * * * //

dimensions      [1 -1 -1 0 0 0 0];

internalField   nonuniform List<scalar> 
46000
(
1.29985e-06
5.36499e-06
9.80186e-06
1.39141e-05
1.77926e-05
2.15411e-05
2.5206e-05
2.87972e-05
3.23346e-05
3.58324e-05
3.93025e-05
4.27544e-05
4.61679e-05
4.95571e-05
5.29251e-05
5.62723e-05
5.95979e-05
6.29004e-05
6.61778e-05
6.94277e-05
7.26474e-05
7.58337e-05
7.89834e-05
8.20931e-05
8.51593e-05
8.81782e-05
9.11461e-05
9.40594e-05
9.69141e-05
9.97065e-05
0.000102433
0.00010509
0.000107674
0.000110181
0.000112607
0.000114951
0.000117208
0.000119377
0.000121453
0.000123434
0.000125319
0.000127104
0.000128788
0.00013037
0.000131847
0.000133218
0.000134483
0.000135641
0.00013669
0.000137631
0.000138463
0.000139187
0.000139803
0.000140311
0.000140713
0.000141008
0.0001412
0.000141288
0.000141276
0.000141164
0.000140955
0.000140654
0.000140263
0.000139783
0.000139215
0.000138561
0.000137825
0.000137009
0.000136115
0.000135149
0.000134111
0.000133007
0.000131838
0.000130609
0.000129323
0.000127984
0.000126594
0.000125157
0.000123676
0.000122156
0.000120599
0.000119009
0.000117389
0.000115742
0.000114071
0.000112379
0.00011067
0.000108947
0.000107211
0.000105467
0.000103716
0.000101961
0.000100204
9.84491e-05
9.66968e-05
9.49498e-05
9.321e-05
9.14794e-05
8.97597e-05
8.80527e-05
8.63597e-05
8.46824e-05
8.3022e-05
8.13798e-05
7.97568e-05
7.81541e-05
7.65726e-05
7.50131e-05
7.34763e-05
7.19628e-05
7.04731e-05
6.90076e-05
6.75668e-05
6.61508e-05
6.47599e-05
6.33942e-05
6.20536e-05
6.07382e-05
5.94479e-05
5.81826e-05
5.6942e-05
5.57258e-05
5.45339e-05
5.33658e-05
5.22211e-05
5.10994e-05
5.00004e-05
4.89234e-05
4.7868e-05
4.68336e-05
4.58198e-05
4.48258e-05
4.38513e-05
4.28954e-05
4.19578e-05
4.10377e-05
4.01346e-05
3.92478e-05
3.83768e-05
3.7521e-05
3.66798e-05
3.58525e-05
3.50387e-05
3.42378e-05
3.34492e-05
3.26724e-05
3.1907e-05
3.11524e-05
3.04081e-05
2.96737e-05
2.89489e-05
2.8233e-05
2.75259e-05
2.68269e-05
2.61366e-05
2.54543e-05
2.47796e-05
2.41121e-05
2.34515e-05
2.27976e-05
2.21501e-05
2.15089e-05
2.08738e-05
2.02446e-05
1.96212e-05
1.90049e-05
1.83946e-05
1.77897e-05
1.71901e-05
1.65957e-05
1.60064e-05
1.54221e-05
1.48428e-05
1.42682e-05
1.36984e-05
1.31332e-05
1.25725e-05
1.20156e-05
1.14635e-05
1.09155e-05
1.03713e-05
9.83088e-06
9.29392e-06
8.76011e-06
8.2291e-06
7.70043e-06
7.17358e-06
6.64787e-06
6.12249e-06
5.59651e-06
5.07049e-06
4.54228e-06
4.00956e-06
3.46987e-06
2.92006e-06
2.35601e-06
1.7725e-06
1.1655e-06
5.53275e-07
1.06939e-07
1.29853e-06
5.36193e-06
9.79912e-06
1.3913e-05
1.77925e-05
2.15413e-05
2.52062e-05
2.87974e-05
3.23348e-05
3.58326e-05
3.93026e-05
4.27545e-05
4.6168e-05
4.95572e-05
5.29252e-05
5.62723e-05
5.95979e-05
6.29004e-05
6.61778e-05
6.94277e-05
7.26474e-05
7.58337e-05
7.89834e-05
8.20931e-05
8.51592e-05
8.81781e-05
9.11461e-05
9.40593e-05
9.6914e-05
9.97064e-05
0.000102433
0.00010509
0.000107673
0.00011018
0.000112607
0.000114951
0.000117208
0.000119376
0.000121452
0.000123434
0.000125318
0.000127104
0.000128788
0.000130369
0.000131847
0.000133218
0.000134483
0.00013564
0.00013669
0.000137631
0.000138463
0.000139187
0.000139802
0.000140311
0.000140712
0.000141008
0.0001412
0.000141288
0.000141275
0.000141163
0.000140955
0.000140653
0.000140263
0.000139783
0.000139215
0.000138561
0.000137825
0.000137008
0.000136115
0.000135148
0.000134111
0.000133006
0.000131838
0.000130609
0.000129323
0.000127983
0.000126593
0.000125156
0.000123676
0.000122156
0.000120599
0.000119009
0.000117388
0.000115741
0.000114071
0.000112379
0.00011067
0.000108946
0.000107211
0.000105466
0.000103715
0.000101961
0.000100204
9.84489e-05
9.66966e-05
9.49496e-05
9.32098e-05
9.14792e-05
8.97595e-05
8.80524e-05
8.63595e-05
8.46822e-05
8.30218e-05
8.13796e-05
7.97566e-05
7.81539e-05
7.65724e-05
7.50129e-05
7.34761e-05
7.19626e-05
7.04729e-05
6.90075e-05
6.75666e-05
6.61507e-05
6.47597e-05
6.3394e-05
6.20534e-05
6.07381e-05
5.94478e-05
5.81824e-05
5.69418e-05
5.57257e-05
5.45337e-05
5.33656e-05
5.22209e-05
5.10993e-05
5.00002e-05
4.89233e-05
4.78678e-05
4.68335e-05
4.58196e-05
4.48257e-05
4.38511e-05
4.28953e-05
4.19577e-05
4.10376e-05
4.01345e-05
3.92477e-05
3.83767e-05
3.75209e-05
3.66796e-05
3.58524e-05
3.50386e-05
3.42377e-05
3.34491e-05
3.26723e-05
3.19069e-05
3.11523e-05
3.0408e-05
2.96736e-05
2.89488e-05
2.8233e-05
2.75258e-05
2.68268e-05
2.61365e-05
2.54542e-05
2.47795e-05
2.4112e-05
2.34514e-05
2.27975e-05
2.215e-05
2.15088e-05
2.08737e-05
2.02445e-05
1.96211e-05
1.90049e-05
1.83945e-05
1.77896e-05
1.71901e-05
1.65957e-05
1.60064e-05
1.54221e-05
1.48427e-05
1.42682e-05
1.36983e-05
1.31331e-05
1.25724e-05
1.20155e-05
1.14634e-05
1.09155e-05
1.03713e-05
9.83085e-06
9.29389e-06
8.76009e-06
8.22908e-06
7.70041e-06
7.17356e-06
6.64785e-06
6.12247e-06
5.5965e-06
5.07048e-06
4.54227e-06
4.00955e-06
3.46986e-06
2.92006e-06
2.35601e-06
1.77251e-06
1.1655e-06
5.53276e-07
1.06939e-07
4.93934e-06
5.04166e-05
8.60559e-05
0.000110696
0.000129767
0.000145574
0.000159164
0.000171319
0.000182455
0.000192825
0.000202584
0.000211855
0.00022073
0.000229262
0.000237491
0.00024545
0.000253162
0.000260647
0.00026792
0.000274993
0.000281874
0.00028857
0.000295087
0.000301428
0.000307596
0.000313593
0.00031942
0.000325077
0.000330564
0.000335881
0.000341028
0.000346003
0.000350805
0.000355433
0.000359886
0.000364163
0.000368262
0.000372182
0.000375922
0.000379481
0.000382858
0.000386052
0.000389063
0.00039189
0.000394532
0.000396991
0.000399264
0.000401354
0.00040326
0.000404983
0.000406525
0.000407885
0.000409065
0.000410068
0.000410894
0.000411545
0.000412024
0.000412333
0.000412474
0.00041245
0.000412262
0.000411913
0.000411405
0.000410743
0.000409932
0.000408976
0.00040788
0.000406647
0.000405281
0.000403787
0.000402169
0.000400432
0.00039858
0.000396618
0.00039455
0.000392381
0.000390115
0.000387758
0.000385313
0.000382786
0.000380181
0.000377503
0.000374757
0.000371947
0.000369077
0.000366152
0.000363177
0.000360156
0.000357092
0.000353991
0.000350857
0.000347692
0.000344502
0.00034129
0.00033806
0.000334814
0.000331558
0.000328293
0.000325023
0.000321751
0.000318481
0.000315214
0.000311953
0.000308702
0.000305461
0.000302234
0.000299023
0.000295828
0.000292653
0.000289499
0.000286366
0.000283258
0.000280174
0.000277116
0.000274085
0.000271081
0.000268106
0.00026516
0.000262243
0.000259355
0.000256498
0.00025367
0.000250872
0.000248104
0.000245365
0.000242656
0.000239975
0.000237323
0.000234698
0.0002321
0.000229529
0.000226983
0.000224462
0.000221964
0.000219489
0.000217036
0.000214604
0.000212192
0.000209797
0.000207421
0.00020506
0.000202714
0.000200383
0.000198064
0.000195756
0.000193458
0.000191169
0.000188888
0.000186614
0.000184345
0.00018208
0.000179819
0.000177559
0.000175302
0.000173044
0.000170784
0.000168521
0.000166255
0.000163983
0.000161706
0.000159421
0.000157127
0.000154824
0.000152508
0.000150178
0.000147825
0.000145457
0.000143074
0.000140673
0.000138254
0.000135815
0.000133354
0.000130869
0.000128358
0.000125819
0.000123249
0.000120646
0.000118006
0.000115324
0.000112597
0.000109817
0.00010698
0.000104079
0.000101103
9.80435e-05
9.4887e-05
9.16179e-05
8.82162e-05
8.46556e-05
8.08988e-05
7.68819e-05
7.25738e-05
6.78978e-05
6.27426e-05
5.69387e-05
5.02082e-05
4.2047e-05
3.14057e-05
1.59324e-05
5.01594e-07
4.94177e-06
5.04193e-05
8.60559e-05
0.000110697
0.00012977
0.000145577
0.000159168
0.000171322
0.000182458
0.000192828
0.000202588
0.000211858
0.000220733
0.000229265
0.000237495
0.000245453
0.000253166
0.000260651
0.000267924
0.000274997
0.000281878
0.000288574
0.000295091
0.000301432
0.000307601
0.000313598
0.000319424
0.000325081
0.000330569
0.000335886
0.000341033
0.000346007
0.00035081
0.000355438
0.000359891
0.000364168
0.000368267
0.000372187
0.000375927
0.000379486
0.000382863
0.000386057
0.000389068
0.000391895
0.000394538
0.000396996
0.00039927
0.000401359
0.000403265
0.000404989
0.00040653
0.00040789
0.00040907
0.000410073
0.000410899
0.00041155
0.000412029
0.000412338
0.000412479
0.000412455
0.000412267
0.000411918
0.00041141
0.000410748
0.000409937
0.000408981
0.000407885
0.000406652
0.000405286
0.000403792
0.000402174
0.000400437
0.000398585
0.000396623
0.000394555
0.000392386
0.00039012
0.000387762
0.000385318
0.000382791
0.000380186
0.000377508
0.000374761
0.000371951
0.000369081
0.000366156
0.000363181
0.00036016
0.000357096
0.000353995
0.00035086
0.000347696
0.000344506
0.000341294
0.000338063
0.000334818
0.000331561
0.000328296
0.000325027
0.000321755
0.000318484
0.000315217
0.000311957
0.000308705
0.000305464
0.000302237
0.000299026
0.000295831
0.000292656
0.000289501
0.000286369
0.000283261
0.000280177
0.000277119
0.000274088
0.000271084
0.000268109
0.000265162
0.000262245
0.000259358
0.0002565
0.000253672
0.000250874
0.000248106
0.000245367
0.000242658
0.000239977
0.000237325
0.0002347
0.000232102
0.000229531
0.000226985
0.000224463
0.000221966
0.000219491
0.000217038
0.000214606
0.000212193
0.000209799
0.000207422
0.000205062
0.000202716
0.000200384
0.000198065
0.000195757
0.000193459
0.000191171
0.00018889
0.000186615
0.000184346
0.000182081
0.00017982
0.00017756
0.000175303
0.000173045
0.000170785
0.000168522
0.000166256
0.000163984
0.000161707
0.000159422
0.000157128
0.000154825
0.000152509
0.000150179
0.000147826
0.000145458
0.000143075
0.000140674
0.000138255
0.000135815
0.000133354
0.000130869
0.000128358
0.000125819
0.00012325
0.000120646
0.000118007
0.000115325
0.000112597
0.000109818
0.000106981
0.000104079
0.000101104
9.80439e-05
9.48875e-05
9.16184e-05
8.82166e-05
8.4656e-05
8.08991e-05
7.68822e-05
7.25741e-05
6.78981e-05
6.27429e-05
5.6939e-05
5.02085e-05
4.20472e-05
3.14058e-05
1.59323e-05
5.01596e-07
9.21622e-06
8.35089e-05
0.000155608
0.000209533
0.000251378
0.000285251
0.00031372
0.000338411
0.000360348
0.000380212
0.000398463
0.000415423
0.000431326
0.000446339
0.000460584
0.000474156
0.00048713
0.000499564
0.000511506
0.000522994
0.000534058
0.000544724
0.000555013
0.000564941
0.000574524
0.000583773
0.000592697
0.000601306
0.000609606
0.000617603
0.000625302
0.000632708
0.000639824
0.000646653
0.000653198
0.00065946
0.000665444
0.000671149
0.000676579
0.000681734
0.000686617
0.000691229
0.000695571
0.000699646
0.000703455
0.000706999
0.000710282
0.000713304
0.000716068
0.000718576
0.00072083
0.000722834
0.000724589
0.000726099
0.000727366
0.000728394
0.000729185
0.000729742
0.000730069
0.000730169
0.000730044
0.000729696
0.000729127
0.000728345
0.000727357
0.000726169
0.000724787
0.000723215
0.00072146
0.000719527
0.000717421
0.000715147
0.000712712
0.000710119
0.000707376
0.000704488
0.00070146
0.000698298
0.000695008
0.000691596
0.000688066
0.000684425
0.000680679
0.000676833
0.000672893
0.000668863
0.000664751
0.000660561
0.000656299
0.000651969
0.000647578
0.00064313
0.00063863
0.000634083
0.000629494
0.000624869
0.00062021
0.000615523
0.000610812
0.000606081
0.000601334
0.000596576
0.000591809
0.000587037
0.000582263
0.000577492
0.000572725
0.000567966
0.000563217
0.00055848
0.000553759
0.000549055
0.000544371
0.000539707
0.000535065
0.000530448
0.000525856
0.00052129
0.000516751
0.000512239
0.000507757
0.000503303
0.000498877
0.000494481
0.000490114
0.000485775
0.000481464
0.000477181
0.000472926
0.000468696
0.000464492
0.000460312
0.000456155
0.000452021
0.000447907
0.000443812
0.000439736
0.000435675
0.00043163
0.000427597
0.000423576
0.000419564
0.000415561
0.000411563
0.000407569
0.000403578
0.000399588
0.000395596
0.0003916
0.0003876
0.000383593
0.000379578
0.000375553
0.000371515
0.000367462
0.000363391
0.000359301
0.000355189
0.000351053
0.000346892
0.000342703
0.000338482
0.000334228
0.000329935
0.000325599
0.000321212
0.000316778
0.000312295
0.000307762
0.000303174
0.000298528
0.000293819
0.000289043
0.000284193
0.000279264
0.000274248
0.000269138
0.000263924
0.000258594
0.000253135
0.000247534
0.000241772
0.000235826
0.000229673
0.000223283
0.000216617
0.000209632
0.000202268
0.000194452
0.000186085
0.000177029
0.000167128
0.000156173
0.000143847
0.000129675
0.000112911
9.23146e-05
6.57523e-05
3.04268e-05
1.06326e-06
9.21715e-06
8.35125e-05
0.000155612
0.000209538
0.000251384
0.000285257
0.000313727
0.000338417
0.000360355
0.000380218
0.000398469
0.000415429
0.000431332
0.000446345
0.00046059
0.000474162
0.000487136
0.000499571
0.000511513
0.000523
0.000534065
0.000544731
0.000555019
0.000564948
0.00057453
0.000583779
0.000592704
0.000601312
0.000609613
0.00061761
0.000625309
0.000632715
0.000639831
0.00064666
0.000653204
0.000659467
0.00066545
0.000671156
0.000676586
0.000681741
0.000686624
0.000691235
0.000695578
0.000699653
0.000703461
0.000707006
0.000710288
0.00071331
0.000716074
0.000718583
0.000720837
0.000722841
0.000724596
0.000726106
0.000727373
0.0007284
0.000729191
0.000729749
0.000730076
0.000730175
0.00073005
0.000729702
0.000729133
0.000728351
0.000727363
0.000726175
0.000724793
0.000723221
0.000721466
0.000719533
0.000717427
0.000715153
0.000712717
0.000710125
0.000707382
0.000704493
0.000701466
0.000698304
0.000695013
0.000691601
0.000688071
0.00068443
0.000680684
0.000676838
0.000672897
0.000668868
0.000664756
0.000660566
0.000656303
0.000651973
0.000647582
0.000643134
0.000638634
0.000634087
0.000629498
0.000624872
0.000620214
0.000615527
0.000610816
0.000606085
0.000601338
0.000596579
0.000591812
0.00058704
0.000582266
0.000577495
0.000572728
0.000567968
0.000563219
0.000558483
0.000553762
0.000549058
0.000544373
0.000539709
0.000535068
0.00053045
0.000525858
0.000521292
0.000516753
0.000512241
0.000507759
0.000503304
0.000498879
0.000494483
0.000490115
0.000485776
0.000481466
0.000477183
0.000472927
0.000468697
0.000464493
0.000460313
0.000456157
0.000452022
0.000447908
0.000443814
0.000439737
0.000435676
0.000431631
0.000427598
0.000423577
0.000419565
0.000415561
0.000411564
0.00040757
0.000403579
0.000399588
0.000395596
0.000391601
0.000387601
0.000383594
0.000379578
0.000375553
0.000371516
0.000367462
0.000363392
0.000359301
0.000355189
0.000351054
0.000346892
0.000342703
0.000338482
0.000334228
0.000329935
0.000325599
0.000321212
0.000316778
0.000312295
0.000307762
0.000303174
0.000298528
0.000293819
0.000289043
0.000284193
0.000279264
0.000274248
0.000269138
0.000263923
0.000258593
0.000253135
0.000247534
0.000241772
0.000235826
0.000229673
0.000223283
0.000216617
0.000209632
0.000202268
0.000194452
0.000186085
0.000177029
0.000167128
0.000156173
0.000143847
0.000129675
0.000112911
9.23148e-05
6.57524e-05
3.04267e-05
1.06326e-06
1.33155e-05
0.000107042
0.000207073
0.000287816
0.000352882
0.000406467
0.000451755
0.000490932
0.0005255
0.000556509
0.000584706
0.00061063
0.000634681
0.000657157
0.000678283
0.000698234
0.000717147
0.000735133
0.00075228
0.000768661
0.000784334
0.00079935
0.000813749
0.000827567
0.000840832
0.000853571
0.000865804
0.00087755
0.000888826
0.000899645
0.00091002
0.000919963
0.000929482
0.000938587
0.000947285
0.000955585
0.000963492
0.000971012
0.000978152
0.000984916
0.00099131
0.000997339
0.00100301
0.00100832
0.00101328
0.00101789
0.00102216
0.00102609
0.00102969
0.00103295
0.00103589
0.00103851
0.00104081
0.0010428
0.00104448
0.00104586
0.00104693
0.00104772
0.00104821
0.00104841
0.00104833
0.00104798
0.00104734
0.00104644
0.00104528
0.00104387
0.00104221
0.00104031
0.00103818
0.00103583
0.00103326
0.00103047
0.00102748
0.00102429
0.00102091
0.00101734
0.00101359
0.00100967
0.00100558
0.00100134
0.000996935
0.000992388
0.000987701
0.000982881
0.000977934
0.000972868
0.000967687
0.000962399
0.00095701
0.000951527
0.000945955
0.000940301
0.00093457
0.000928769
0.000922903
0.000916978
0.000911
0.000904974
0.000898904
0.000892797
0.000886657
0.000880489
0.000874298
0.000868087
0.000861862
0.000855625
0.000849381
0.000843134
0.000836887
0.000830643
0.000824404
0.000818175
0.000811957
0.000805753
0.000799564
0.000793393
0.000787242
0.000781111
0.000775002
0.000768915
0.000762853
0.000756815
0.000750801
0.000744812
0.000738847
0.000732907
0.000726991
0.000721099
0.000715229
0.00070938
0.000703552
0.000697744
0.000691953
0.000686178
0.000680419
0.000674672
0.000668936
0.000663209
0.00065749
0.000651775
0.000646063
0.000640352
0.000634638
0.000628921
0.000623197
0.000617464
0.000611719
0.00060596
0.000600186
0.000594392
0.000588577
0.000582739
0.000576875
0.00057098
0.000565052
0.000559088
0.000553084
0.000547037
0.000540945
0.000534804
0.00052861
0.000522359
0.000516047
0.000509667
0.000503213
0.000496678
0.00049006
0.000483357
0.000476562
0.000469672
0.000462677
0.000455572
0.000448346
0.00044099
0.000433493
0.00042584
0.000418018
0.00041001
0.000401795
0.000393349
0.000384647
0.000375654
0.000366334
0.000356641
0.000346518
0.000335901
0.000324706
0.000312832
0.00030015
0.000286492
0.000271643
0.000255322
0.000237176
0.000216697
0.000193162
0.000165511
0.000132173
9.09213e-05
4.03847e-05
1.62871e-06
1.33154e-05
0.000107044
0.000207078
0.000287823
0.00035289
0.000406476
0.000451764
0.000490941
0.00052551
0.000556519
0.000584715
0.000610639
0.00063469
0.000657166
0.000678292
0.000698243
0.000717156
0.000735142
0.000752289
0.000768669
0.000784343
0.000799359
0.000813758
0.000827576
0.000840841
0.00085358
0.000865812
0.000877559
0.000888834
0.000899654
0.000910029
0.000919971
0.00092949
0.000938595
0.000947294
0.000955593
0.0009635
0.000971021
0.00097816
0.000984925
0.000991319
0.000997347
0.00100302
0.00100833
0.00101329
0.0010179
0.00102217
0.0010261
0.00102969
0.00103296
0.0010359
0.00103852
0.00104082
0.00104281
0.00104449
0.00104586
0.00104694
0.00104772
0.00104821
0.00104842
0.00104834
0.00104798
0.00104735
0.00104645
0.00104529
0.00104387
0.00104221
0.00104032
0.00103819
0.00103584
0.00103326
0.00103048
0.00102749
0.0010243
0.00102091
0.00101735
0.0010136
0.00100968
0.00100559
0.00100134
0.00099694
0.000992393
0.000987706
0.000982886
0.000977939
0.000972872
0.000967691
0.000962403
0.000957015
0.000951531
0.000945959
0.000940305
0.000934574
0.000928773
0.000922907
0.000916982
0.000911004
0.000904977
0.000898908
0.000892801
0.00088666
0.000880492
0.000874301
0.00086809
0.000861864
0.000855627
0.000849384
0.000843136
0.000836889
0.000830645
0.000824406
0.000818177
0.000811959
0.000805755
0.000799566
0.000793395
0.000787243
0.000781112
0.000775003
0.000768917
0.000762854
0.000756816
0.000750802
0.000744813
0.000738848
0.000732908
0.000726992
0.000721099
0.000715229
0.000709381
0.000703553
0.000697744
0.000691953
0.000686179
0.000680419
0.000674672
0.000668936
0.00066321
0.00065749
0.000651775
0.000646063
0.000640352
0.000634638
0.000628921
0.000623197
0.000617463
0.000611719
0.00060596
0.000600185
0.000594392
0.000588577
0.000582739
0.000576874
0.00057098
0.000565052
0.000559087
0.000553083
0.000547037
0.000540945
0.000534803
0.00052861
0.000522359
0.000516046
0.000509666
0.000503213
0.000496677
0.000490059
0.000483356
0.000476562
0.000469671
0.000462677
0.000455571
0.000448345
0.000440989
0.000433492
0.000425839
0.000418018
0.000410009
0.000401794
0.000393348
0.000384646
0.000375654
0.000366334
0.00035664
0.000346518
0.0003359
0.000324705
0.000312831
0.000300149
0.000286491
0.000271643
0.000255322
0.000237176
0.000216697
0.000193162
0.000165511
0.000132173
9.09213e-05
4.03845e-05
1.62872e-06
1.72755e-05
0.000125976
0.00024771
0.000351129
0.00043725
0.000509726
0.000571731
0.000625674
0.000673333
0.000716019
0.000754703
0.000790114
0.000822802
0.000853189
0.000881602
0.000908298
0.000933479
0.00095731
0.000979925
0.00100143
0.00102192
0.00104147
0.00106015
0.001078
0.00109507
0.00111141
0.00112705
0.00114201
0.00115633
0.00117003
0.00118313
0.00119565
0.0012076
0.001219
0.00122986
0.0012402
0.00125003
0.00125936
0.00126819
0.00127655
0.00128443
0.00129185
0.00129882
0.00130533
0.00131141
0.00131705
0.00132227
0.00132707
0.00133146
0.00133544
0.00133903
0.00134222
0.00134503
0.00134746
0.00134951
0.0013512
0.00135253
0.0013535
0.00135413
0.00135441
0.00135435
0.00135396
0.00135325
0.00135221
0.00135087
0.00134922
0.00134728
0.00134506
0.00134256
0.00133979
0.00133676
0.00133348
0.00132995
0.00132618
0.00132218
0.00131796
0.00131352
0.00130888
0.00130403
0.00129899
0.00129376
0.00128835
0.00128277
0.00127703
0.00127114
0.00126509
0.00125891
0.00125258
0.00124614
0.00123957
0.00123289
0.00122611
0.00121922
0.00121225
0.00120519
0.00119805
0.00119083
0.00118356
0.00117622
0.00116882
0.00116138
0.0011539
0.00114637
0.00113882
0.00113124
0.00112363
0.00111601
0.00110837
0.00110072
0.00109306
0.0010854
0.00107774
0.00107009
0.00106244
0.00105479
0.00104716
0.00103954
0.00103194
0.00102435
0.00101677
0.00100922
0.00100168
0.000994162
0.000986662
0.00097918
0.000971717
0.000964272
0.000956844
0.000949431
0.000942034
0.00093465
0.000927279
0.000919917
0.000912564
0.000905218
0.000897876
0.000890536
0.000883196
0.000875853
0.000868504
0.000861148
0.00085378
0.000846399
0.000839001
0.000831584
0.000824145
0.000816679
0.000809186
0.000801661
0.000794101
0.000786504
0.000778866
0.000771183
0.00076345
0.000755664
0.000747821
0.000739917
0.000731948
0.000723908
0.000715795
0.000707602
0.000699324
0.000690954
0.000682486
0.000673912
0.000665222
0.000656413
0.000647478
0.000638409
0.000629198
0.000619833
0.000610303
0.000600596
0.000590694
0.000580583
0.000570241
0.000559647
0.000548775
0.000537594
0.000526071
0.000514164
0.000501826
0.000489
0.000475619
0.000461603
0.000446854
0.000431254
0.000414656
0.00039688
0.000377695
0.000356812
0.000333855
0.000308345
0.000279647
0.000246886
0.000208871
0.000164
0.000110381
4.81381e-05
2.18382e-06
1.72754e-05
0.000125979
0.000247716
0.000351137
0.00043726
0.000509737
0.000571743
0.000625686
0.000673345
0.000716031
0.000754715
0.000790126
0.000822814
0.000853201
0.000881614
0.000908309
0.00093349
0.000957322
0.000979936
0.00100144
0.00102193
0.00104148
0.00106016
0.00107801
0.00109508
0.00111142
0.00112706
0.00114202
0.00115634
0.00117004
0.00118314
0.00119566
0.00120761
0.00121901
0.00122987
0.00124021
0.00125004
0.00125937
0.0012682
0.00127656
0.00128444
0.00129186
0.00129883
0.00130534
0.00131142
0.00131706
0.00132228
0.00132708
0.00133147
0.00133545
0.00133904
0.00134223
0.00134504
0.00134746
0.00134952
0.00135121
0.00135254
0.00135351
0.00135413
0.00135441
0.00135436
0.00135397
0.00135325
0.00135222
0.00135087
0.00134923
0.00134729
0.00134507
0.00134257
0.0013398
0.00133677
0.00133349
0.00132996
0.00132619
0.00132219
0.00131797
0.00131353
0.00130888
0.00130403
0.00129899
0.00129376
0.00128836
0.00128278
0.00127704
0.00127114
0.0012651
0.00125891
0.00125259
0.00124614
0.00123957
0.0012329
0.00122611
0.00121923
0.00121225
0.00120519
0.00119805
0.00119084
0.00118356
0.00117622
0.00116883
0.00116139
0.0011539
0.00114638
0.00113882
0.00113124
0.00112363
0.00111601
0.00110837
0.00110072
0.00109306
0.0010854
0.00107774
0.00107009
0.00106244
0.0010548
0.00104716
0.00103954
0.00103194
0.00102435
0.00101678
0.00100922
0.00100168
0.000994163
0.000986663
0.000979181
0.000971718
0.000964273
0.000956844
0.000949432
0.000942034
0.000934651
0.000927279
0.000919918
0.000912565
0.000905218
0.000897876
0.000890536
0.000883196
0.000875853
0.000868504
0.000861147
0.00085378
0.000846399
0.000839001
0.000831584
0.000824144
0.000816679
0.000809185
0.00080166
0.0007941
0.000786503
0.000778865
0.000771182
0.000763449
0.000755664
0.000747821
0.000739916
0.000731947
0.000723907
0.000715794
0.000707601
0.000699323
0.000690953
0.000682485
0.000673911
0.000665221
0.000656412
0.000647477
0.000638408
0.000629197
0.000619832
0.000610302
0.000600594
0.000590693
0.000580582
0.00057024
0.000559646
0.000548774
0.000537593
0.00052607
0.000514163
0.000501825
0.000488999
0.000475618
0.000461602
0.000446854
0.000431253
0.000414656
0.000396879
0.000377695
0.000356811
0.000333855
0.000308345
0.000279647
0.000246886
0.000208872
0.000164001
0.000110381
4.81378e-05
2.18383e-06
2.11665e-05
0.000142141
0.000281405
0.000404035
0.000508829
0.000598645
0.000676423
0.000744596
0.000805074
0.000859329
0.000908493
0.00095344
0.000994847
0.00103324
0.00106904
0.00110258
0.00113412
0.00116389
0.00119205
0.00121875
0.00124412
0.00126826
0.00129126
0.00131318
0.0013341
0.00135407
0.00137313
0.00139133
0.0014087
0.00142528
0.0014411
0.00145619
0.00147056
0.00148424
0.00149726
0.00150962
0.00152135
0.00153246
0.00154296
0.00155288
0.00156222
0.001571
0.00157922
0.00158691
0.00159406
0.0016007
0.00160682
0.00161245
0.00161759
0.00162225
0.00162644
0.00163017
0.00163344
0.00163627
0.00163866
0.00164063
0.00164217
0.0016433
0.00164403
0.00164436
0.0016443
0.00164386
0.00164304
0.00164186
0.00164031
0.00163843
0.0016362
0.00163365
0.00163077
0.00162759
0.00162411
0.00162033
0.00161628
0.00161194
0.00160734
0.00160248
0.00159737
0.00159203
0.00158644
0.00158064
0.00157462
0.00156839
0.00156196
0.00155534
0.00154854
0.00154157
0.00153442
0.00152713
0.00151968
0.00151209
0.00150436
0.00149651
0.00148854
0.00148046
0.00147227
0.00146399
0.00145562
0.00144717
0.00143864
0.00143004
0.00142138
0.00141267
0.0014039
0.00139509
0.00138623
0.00137735
0.00136843
0.00135949
0.00135053
0.00134156
0.00133257
0.00132358
0.00131458
0.00130558
0.00129658
0.00128758
0.00127859
0.0012696
0.00126063
0.00125166
0.00124271
0.00123377
0.00122484
0.00121592
0.00120701
0.00119812
0.00118924
0.00118036
0.0011715
0.00116264
0.00115379
0.00114495
0.0011361
0.00112726
0.00111841
0.00110955
0.00110069
0.00109182
0.00108294
0.00107403
0.00106511
0.00105617
0.0010472
0.0010382
0.00102916
0.00102009
0.00101098
0.00100182
0.000992618
0.000983363
0.000974052
0.000964682
0.000955248
0.000945744
0.000936166
0.000926509
0.000916767
0.000906937
0.000897012
0.000886985
0.000876852
0.000866604
0.000856234
0.000845733
0.000835091
0.0008243
0.000813349
0.000802231
0.000790934
0.000779445
0.000767751
0.000755836
0.000743682
0.000731268
0.000718571
0.000705564
0.000692219
0.000678498
0.000664364
0.000649768
0.000634658
0.00061897
0.00060263
0.000585549
0.000567622
0.000548724
0.000528701
0.000507369
0.000484499
0.000459808
0.000432945
0.000403464
0.000370799
0.000334232
0.000292823
0.00024536
0.00019035
0.000126333
5.46452e-05
2.73171e-06
2.11665e-05
0.000142143
0.000281411
0.000404043
0.000508839
0.000598658
0.000676436
0.00074461
0.000805088
0.000859343
0.000908508
0.000953455
0.000994861
0.00103326
0.00106906
0.0011026
0.00113414
0.0011639
0.00119206
0.00121877
0.00124414
0.00126828
0.00129127
0.0013132
0.00133411
0.00135408
0.00137314
0.00139134
0.00140871
0.0014253
0.00144112
0.0014562
0.00147057
0.00148426
0.00149727
0.00150963
0.00152136
0.00153247
0.00154297
0.00155289
0.00156223
0.00157101
0.00157923
0.00158692
0.00159407
0.00160071
0.00160684
0.00161246
0.0016176
0.00162226
0.00162645
0.00163018
0.00163345
0.00163628
0.00163867
0.00164064
0.00164218
0.00164331
0.00164404
0.00164437
0.00164431
0.00164387
0.00164305
0.00164186
0.00164032
0.00163843
0.00163621
0.00163365
0.00163078
0.0016276
0.00162412
0.00162034
0.00161628
0.00161195
0.00160735
0.00160249
0.00159738
0.00159203
0.00158645
0.00158064
0.00157462
0.00156839
0.00156197
0.00155535
0.00154855
0.00154157
0.00153443
0.00152713
0.00151968
0.00151209
0.00150437
0.00149651
0.00148854
0.00148046
0.00147228
0.001464
0.00145563
0.00144717
0.00143864
0.00143005
0.00142139
0.00141267
0.0014039
0.00139509
0.00138624
0.00137735
0.00136844
0.0013595
0.00135054
0.00134156
0.00133257
0.00132358
0.00131458
0.00130558
0.00129658
0.00128758
0.00127859
0.0012696
0.00126063
0.00125166
0.00124271
0.00123377
0.00122484
0.00121592
0.00120701
0.00119812
0.00118924
0.00118036
0.0011715
0.00116264
0.00115379
0.00114495
0.0011361
0.00112726
0.00111841
0.00110955
0.00110069
0.00109182
0.00108294
0.00107403
0.00106511
0.00105617
0.0010472
0.0010382
0.00102916
0.00102009
0.00101098
0.00100182
0.000992617
0.000983362
0.000974052
0.000964682
0.000955247
0.000945743
0.000936165
0.000926508
0.000916767
0.000906936
0.000897011
0.000886985
0.000876851
0.000866603
0.000856233
0.000845732
0.00083509
0.000824299
0.000813348
0.00080223
0.000790932
0.000779444
0.00076775
0.000755835
0.000743681
0.000731267
0.00071857
0.000705563
0.000692217
0.000678497
0.000664363
0.000649767
0.000634657
0.000618969
0.000602629
0.000585548
0.000567621
0.000548723
0.000528701
0.000507369
0.000484499
0.000459808
0.000432945
0.000403464
0.000370799
0.000334233
0.000292824
0.000245361
0.00019035
0.000126333
5.46449e-05
2.73172e-06
2.50053e-05
0.000156424
0.000310464
0.000449594
0.000570879
0.000676378
0.000768712
0.000850241
0.000922913
0.000988293
0.00104762
0.00110187
0.00115183
0.00119811
0.0012412
0.00128151
0.00131935
0.00135499
0.00138866
0.00142052
0.00145074
0.00147943
0.00150672
0.00153269
0.00155742
0.00158098
0.00160344
0.00162484
0.00164524
0.00166468
0.00168319
0.00170081
0.00171758
0.00173351
0.00174864
0.00176299
0.00177658
0.00178944
0.00180158
0.00181302
0.00182378
0.00183388
0.00184333
0.00185214
0.00186034
0.00186793
0.00187492
0.00188134
0.0018872
0.00189249
0.00189725
0.00190147
0.00190518
0.00190838
0.00191107
0.00191328
0.00191501
0.00191627
0.00191708
0.00191743
0.00191734
0.00191682
0.00191588
0.00191453
0.00191277
0.00191063
0.00190811
0.00190521
0.00190196
0.00189836
0.00189443
0.00189016
0.00188558
0.00188068
0.00187549
0.00187001
0.00186425
0.00185821
0.00185192
0.00184537
0.00183858
0.00183156
0.00182431
0.00181685
0.00180918
0.00180131
0.00179325
0.00178502
0.00177661
0.00176805
0.00175933
0.00175046
0.00174146
0.00173233
0.00172308
0.00171372
0.00170425
0.00169469
0.00168504
0.0016753
0.00166549
0.00165561
0.00164567
0.00163568
0.00162563
0.00161555
0.00160542
0.00159526
0.00158507
0.00157486
0.00156463
0.00155438
0.00154413
0.00153386
0.00152359
0.00151331
0.00150304