/*--------------------------------*- C++ -*----------------------------------*\
  =========                 |
  \\      /  F ield         | OpenFOAM: The Open Source CFD Toolbox
   \\    /   O peration     | Website:  https://openfoam.org
    \\  /    A nd           | Version:  8
     \\/     M anipulation  |
\*---------------------------------------------------------------------------*/
FoamFile
{
    version     2.0;
    format      ascii;
    class       volScalarField;
    location    "3700";
    object      epsilon;
}
// * * * * * * * * * * * * * * * * * * * * * * * * * * * * * * * * * * * * * //

dimensions      [0 2 -3 0 0 0 0];

internalField   nonuniform List<scalar> 
46000
(
23.5849
87.8511
160.066
226.872
289.802
350.553
409.894
467.997
525.19
581.711
637.755
693.475
748.552
803.215
857.517
911.463
965.044
1018.24
1071.01
1123.33
1175.14
1226.41
1277.08
1327.09
1376.4
1424.93
1472.64
1519.45
1565.32
1610.19
1653.98
1696.65
1738.14
1778.39
1817.35
1854.97
1891.2
1925.98
1959.29
1991.08
2021.3
2049.93
2076.93
2102.28
2125.96
2147.93
2168.19
2186.72
2203.52
2218.57
2231.88
2243.45
2253.28
2261.39
2267.78
2272.47
2275.49
2276.86
2276.6
2274.75
2271.35
2266.45
2260.12
2252.36
2243.19
2232.64
2220.77
2207.61
2193.22
2177.65
2160.95
2143.16
2124.36
2104.58
2083.89
2062.33
2039.97
2016.86
1993.05
1968.61
1943.57
1918
1891.94
1865.46
1838.59
1811.4
1783.92
1756.21
1728.31
1700.27
1672.12
1643.91
1615.67
1587.45
1559.28
1531.2
1503.23
1475.41
1447.76
1420.32
1393.1
1366.14
1339.44
1313.04
1286.95
1261.18
1235.75
1210.68
1185.97
1161.63
1137.68
1114.11
1090.94
1068.17
1045.8
1023.84
1002.28
981.124
960.371
940.019
920.064
900.503
881.329
862.538
844.124
826.079
808.397
791.07
774.088
757.445
741.131
725.137
709.453
694.071
678.98
664.171
649.634
635.359
621.337
607.559
594.014
580.693
567.588
554.689
541.988
529.476
517.144
504.986
492.994
481.159
469.476
457.937
446.537
435.266
424.134
413.13
402.245
391.474
380.814
370.259
359.807
349.453
339.195
329.03
318.958
308.998
299.131
289.351
279.653
270.037
260.501
251.043
241.662
232.356
223.125
213.966
204.876
195.846
186.891
177.999
169.167
160.392
151.671
142.997
134.366
125.771
117.201
108.647
100.094
91.5282
82.9573
74.347
65.6586
56.8514
47.8731
38.6548
29.1089
19.1642
9.11197
1.95672
23.5982
87.8773
160.091
226.886
289.808
350.556
409.896
467.998
525.192
581.713
637.756
693.476
748.553
803.216
857.517
911.464
965.045
1018.24
1071.01
1123.33
1175.14
1226.41
1277.08
1327.09
1376.4
1424.93
1472.64
1519.45
1565.32
1610.19
1653.98
1696.65
1738.14
1778.39
1817.35
1854.97
1891.19
1925.98
1959.29
1991.07
2021.3
2049.93
2076.93
2102.28
2125.95
2147.93
2168.19
2186.72
2203.52
2218.57
2231.88
2243.45
2253.28
2261.38
2267.78
2272.47
2275.49
2276.85
2276.59
2274.74
2271.34
2266.44
2260.12
2252.36
2243.18
2232.64
2220.76
2207.6
2193.22
2177.64
2160.94
2143.16
2124.35
2104.58
2083.88
2062.33
2039.97
2016.86
1993.05
1968.6
1943.56
1917.99
1891.94
1865.45
1838.59
1811.4
1783.92
1756.21
1728.31
1700.26
1672.11
1643.9
1615.67
1587.45
1559.28
1531.19
1503.23
1475.4
1447.76
1420.32
1393.1
1366.13
1339.44
1313.04
1286.94
1261.18
1235.75
1210.67
1185.96
1161.63
1137.67
1114.11
1090.94
1068.17
1045.8
1023.84
1002.28
981.121
960.369
940.017
920.062
900.5
881.327
862.536
844.122
826.077
808.395
791.067
774.086
757.443
741.129
725.135
709.451
694.069
678.978
664.169
649.632
635.358
621.336
607.557
594.012
580.692
567.586
554.688
541.986
529.474
517.143
504.985
492.992
481.158
469.475
457.936
446.536
435.264
424.133
413.128
402.244
391.473
380.813
370.258
359.806
349.452
339.194
329.029
318.957
308.997
299.13
289.35
279.652
270.036
260.5
251.042
241.661
232.356
223.124
213.965
204.876
195.845
186.89
177.999
169.166
160.391
151.67
142.997
134.366
125.77
117.2
108.646
100.094
91.5279
82.9571
74.3468
65.6584
56.8512
47.873
38.6547
29.1088
19.1642
9.11195
1.95672
95.2542
81.0217
102.812
128.939
156.227
184.085
212.365
240.896
269.649
298.609
327.716
356.989
386.377
415.886
445.511
475.236
505.037
534.886
564.751
594.597
624.384
654.073
683.62
712.982
742.112
770.964
799.49
827.64
855.368
882.623
909.358
935.524
961.074
985.962
1010.14
1033.57
1056.21
1078.02
1098.95
1118.97
1138.06
1156.17
1173.28
1189.36
1204.39
1218.35
1231.22
1242.99
1253.64
1263.16
1271.56
1278.82
1284.95
1289.95
1293.83
1296.6
1298.26
1298.84
1298.36
1296.83
1294.29
1290.77
1286.31
1280.91
1274.59
1267.39
1259.32
1250.43
1240.75
1230.3
1219.14
1207.3
1194.82
1181.73
1168.07
1153.89
1139.22
1124.11
1108.58
1092.69
1076.46
1059.94
1043.16
1026.16
1008.96
991.618
974.15
956.592
938.974
921.325
903.673
886.045
868.465
850.959
833.547
816.251
799.092
782.086
765.252
748.605
732.158
715.926
699.92
684.15
668.626
653.356
638.347
623.605
609.134
594.939
581.023
567.387
554.034
540.962
528.173
515.664
503.435
491.482
479.804
468.396
457.255
446.376
435.755
425.386
415.265
405.386
395.743
386.329
377.139
368.166
359.405
350.847
342.487
334.318
326.334
318.528
310.894
303.425
296.114
288.956
281.945
275.074
268.338
261.731
255.247
248.882
242.63
236.486
230.446
224.505
218.658
212.902
207.232
201.648
196.149
190.73
185.386
180.114
174.912
169.778
164.708
159.702
154.758
149.874
145.051
140.295
135.597
130.954
126.365
121.829
117.344
112.909
108.524
104.189
99.9014
95.6617
91.4687
87.3208
83.2191
79.1617
75.1457
71.1738
67.2439
63.3542
59.503
55.6882
51.9074
48.1579
44.4367
40.7419
37.0767
33.4299
29.7929
26.1573
22.5143
18.8581
15.1964
11.5981
8.45502
9.87876
95.2346
81.0222
102.813
128.938
156.225
184.082
212.361
240.891
269.644
298.603
327.71
356.983
386.37
415.878
445.503
475.228
505.028
534.877
564.741
594.586
624.373
654.061
683.608
712.969
742.099
770.95
799.475
827.626
855.352
882.607
909.341
935.507
961.057
985.945
1010.13
1033.56
1056.19
1078
1098.93
1118.95
1138.04
1156.15
1173.26
1189.34
1204.37
1218.33
1231.2
1242.96
1253.61
1263.14
1271.53
1278.8
1284.93
1289.93
1293.81
1296.57
1298.24
1298.82
1298.34
1296.81
1294.27
1290.75
1286.28
1280.89
1274.57
1267.37
1259.3
1250.41
1240.72
1230.28
1219.12
1207.28
1194.8
1181.71
1168.05
1153.87
1139.2
1124.09
1108.56
1092.67
1076.44
1059.92
1043.14
1026.14
1008.95
991.601
974.133
956.575
938.958
921.309
903.657
886.03
868.45
850.944
833.533
816.237
799.078
782.073
765.239
748.592
732.146
715.914
699.908
684.139
668.615
653.345
638.336
623.594
609.124
594.929
581.013
567.378
554.024
540.953
528.164
515.656
503.426
491.474
479.796
468.388
457.247
446.369
435.748
425.38
415.259
405.38
395.736
386.323
377.133
368.161
359.399
350.842
342.482
334.313
326.329
318.524
310.889
303.42
296.11
288.952
281.941
275.07
268.334
261.727
255.243
248.878
242.626
236.483
230.443
224.502
218.655
212.899
207.229
201.646
196.147
190.727
185.383
180.112
174.91
169.775
164.706
159.7
154.756
149.872
145.05
140.293
135.595
130.953
126.364
121.827
117.342
112.908
108.523
104.187
99.9001
95.6605
91.4675
87.3197
83.218
79.1607
75.1448
71.173
67.2431
63.3534
59.5022
55.6875
51.9067
48.1573
44.4362
40.7415
37.0763
33.4295
29.7926
26.157
22.5141
18.8579
15.1963
11.598
8.45504
9.87879
175.322
108.04
110.462
123.421
139.867
158.016
177.197
197.065
217.437
238.213
259.322
280.717
302.356
324.213
346.261
368.477
390.833
413.3
435.85
458.449
481.066
503.666
526.212
548.668
570.996
593.156
615.109
636.815
658.233
679.324
700.045
720.358
740.222
759.599
778.45
796.739
814.429
831.487
847.878
863.573
878.542
892.756
906.192
918.826
930.636
941.605
951.716
960.956
969.314
976.78
983.35
989.02
993.788
997.657
1000.63
1002.72
1003.92
1004.27
1003.75
1002.41
1000.25
997.306
993.597
989.139
983.949
978.049
971.465
964.222
956.349
947.876
938.832
929.248
919.157
908.59
897.578
886.156
874.354
862.204
849.739
836.99
823.988
810.762
797.344
783.762
770.045
756.218
742.31
728.345
714.348
700.343
686.35
672.393
658.49
644.661
630.923
617.293
603.786
590.417
577.199
564.144
551.262
538.564
526.058
513.753
501.655
489.77
478.103
466.659
455.44
444.449
433.688
423.158
412.86
402.792
392.955
383.347
373.965
364.809
355.874
347.159
338.658
330.369
322.288
314.409
306.729
299.242
291.944
284.83
277.894
271.131
264.536
258.104
251.828
245.704
239.727
233.89
228.189
222.619
217.173
211.849
206.639
201.541
196.548
191.656
186.862
182.16
177.547
173.019
168.571
164.201
159.904
155.677
151.52
147.43
143.404
139.439
135.532
131.681
127.885
124.14
120.445
116.799
113.201
109.649
106.144
102.685
99.2712
95.8998
92.5697
89.2798
86.0294
82.8179
79.6446
76.5093
73.4113
70.3505
67.3262
64.3381
61.3861
58.4697
55.5883
52.7421
49.9303
47.153
44.4102
41.7012
39.0255
36.3826
33.7725
31.1959
28.6544
26.1485
23.6788
21.2501
18.8739
16.5773
14.4296
12.6343
12.067
20.6148
175.316
108.037
110.459
123.418
139.864
158.012
177.192
197.061
217.432
238.208
259.317
280.711
302.351
324.207
346.255
368.47
390.826
413.293
435.842
458.442
481.058
503.658
526.204
548.659
570.987
593.147
615.099
636.805
658.223
679.313
700.034
720.346
740.21
759.587
778.438
796.727
814.417
831.474
847.866
863.56
878.528
892.743
906.179
918.812
930.622
941.591
951.702
960.942
969.3
976.766
983.336
989.005
993.774
997.643
1000.62
1002.7
1003.91
1004.25
1003.74
1002.4
1000.24
997.292
993.583
989.125
983.935
978.036
971.452
964.209
956.336
947.863
938.819
929.236
919.144
908.577
897.566
886.144
874.342
862.193
849.728
836.979
823.977
810.752
797.334
783.752
770.035
756.209
742.3
728.336
714.339
700.334
686.342
672.384
658.482
644.653
630.915
617.285
603.779
590.41
577.192
564.137
551.255
538.557
526.052
513.747
501.649
489.764
478.098
466.653
455.435
444.444
433.683
423.153
412.855
402.788
392.95
383.342
373.961
364.805
355.87
347.155
338.655
330.366
322.284
314.406
306.726
299.239
291.941
284.827
277.891
271.129
264.534
258.101
251.826
245.702
239.724
233.888
228.187
222.617
217.171
211.847
206.637
201.539
196.546
191.655
186.86
182.158
177.545
173.017
168.57
164.199
159.903
155.676
151.519
147.428
143.402
139.438
135.531
131.68
127.884
124.139
120.444
116.798
113.2
109.648
106.143
102.684
99.2705
95.8991
92.569
89.2792
86.0288
82.8173
79.6441
76.5087
73.4108
70.35
67.3257
64.3376
61.3857
58.4693
55.588
52.7417
49.9299
47.1527
44.41
41.7009
39.0252
36.3824
33.7723
31.1957
28.6542
26.1483
23.6787
21.25
18.8738
16.5773
14.4295
12.6343
12.0671
20.6149
251.386
138.792
127.382
132.263
142.621
155.605
170.133
185.685
201.975
218.832
236.144
253.831
271.835
290.111
308.62
327.329
346.207
365.222
384.344
403.542
422.783
442.036
461.267
480.443
499.53
518.493
537.295
555.902
574.277
592.385
610.189
627.654
644.744
661.425
677.663
693.424
708.676
723.39
737.534
751.081
764.004
776.279
787.883
798.794
808.993
818.464
827.191
835.161
842.365
848.794
854.442
859.306
863.384
866.677
869.188
870.924
871.891
872.101
871.566
870.3
868.321
865.647
862.301
858.295
853.649
848.382
842.515
836.074
829.081
821.563
813.548
805.061
796.131
786.787
777.056
766.967
756.549
745.83
734.838
723.602
712.147
700.502
688.692
676.743
664.68
652.528
640.309
628.046
615.761
603.473
591.204
578.97
566.79
554.681
542.658
530.734
518.925
507.242
495.697
484.299
473.06
461.986
451.086
440.367
429.834
419.492
409.346
399.399
389.653
380.111
370.774
361.643
352.718
343.999
335.484
327.173
319.063
311.152
303.439
295.919
288.589
281.447
274.487
267.708
261.103
254.669
248.402
242.297
236.349
230.553
224.905
219.4
214.033
208.8
203.695
198.714
193.852
189.105
184.467
179.936
175.505
171.171
166.931
162.779
158.711
154.725
150.817
146.982
143.218
139.521
135.889
132.318
128.808
125.356
121.96
118.616
115.323
112.078
108.881
105.728
102.618
99.5505
96.5241
93.5378
90.5912
87.6837
84.8142
81.9814
79.1841
76.4218
73.6936
70.9992
68.338
65.7099
63.1145
60.5516
58.0211
55.5228
53.0568
50.623
48.2214
45.8522
43.5155
41.2116
38.9409
36.7039
34.5018
32.3354
30.2063
28.1171
26.0715
24.0748
22.135
20.2666
18.4964
16.8783
15.534
14.8013
16.0873
31.2753
251.39
138.789
127.378
132.259
142.617
155.601
170.129
185.681
201.971
218.828
236.139
253.826
271.83
290.105
308.614
327.324
346.201
365.216
384.338
403.535
422.776
442.029
461.26
480.436
499.523
518.485
537.287
555.894
574.269
592.377
610.181
627.645
644.735
661.416
677.653
693.414
708.667
723.38
737.524
751.071
763.995
776.269
787.873
798.784
808.983
818.454
827.181
835.151
842.355
848.784
854.432
859.296
863.373
866.666
869.178
870.914
871.881
872.091
871.556
870.29
868.311
865.638
862.291
858.286
853.64
848.373
842.506
836.065
829.072
821.555
813.539
805.052
796.123
786.779
777.048
766.96
756.542
745.823
734.831
723.594
712.14
700.495
688.685
676.736
664.674
652.522
640.303
628.04
615.755
603.468
591.198
578.965
566.785
554.676
542.653
530.73
518.92
507.237
495.692
484.295
473.055
461.982
451.082
440.363
429.83
419.489
409.342
399.395
389.65
380.108
370.771
361.64
352.715
343.996
335.482
327.17
319.061
311.15
303.436
295.916
288.587
281.445
274.486
267.706
261.101
254.668
248.4
242.295
236.347
230.551
224.903
219.399
214.032
208.798
203.694
198.713
193.851
189.104
184.466
179.935
175.504
171.17
166.93
162.778
158.711
154.724
150.816
146.981
143.217
139.52
135.888
132.318
128.808
125.356
121.959
118.616
115.323
112.078
108.88
105.727
102.618
99.5501
96.5237
93.5375
90.5908
87.6834
84.8139
81.981
79.1838
76.4215
73.6933
70.9989
68.3378
65.7097
63.1143
60.5514
58.0209
55.5226
53.0566
50.6228
48.2213
45.852
43.5153
41.2115
38.9408
36.7038
34.5017
32.3353
30.2062
28.117
26.0714
24.0747
22.135
20.2666
18.4964
16.8783
15.534
14.8013
16.0874
31.2754
324.587
170.571
147.343
145.908
151.81
161.226
172.688
185.492
199.252
213.731
228.778
244.283
260.168
276.372
292.846
309.548
326.44
343.487
360.655
377.913
395.229
412.57
429.905
447.201
464.426
481.546
498.53
515.343
531.952
548.324
564.426
580.225
595.688
610.783
625.479
639.746
653.553
666.873
679.678
691.942
703.641
714.751
725.252
735.123
744.347
752.909
760.793
767.988
774.484
780.273
785.351
789.712
793.356
796.282
798.495
799.999
800.8
800.908
800.334
799.09
797.192
794.656
791.5
787.739
783.39
778.473
773.006
767.013
760.515
753.537
746.102
738.237
729.965
721.315
712.31
702.979
693.346
683.438
673.282
662.902
652.323
641.571
630.67
619.643
608.513
597.302
586.033
574.726
563.399
552.074
540.766
529.494
518.274
507.121
496.049
485.072
474.201
463.449
452.826
442.341
432.003
421.821
411.8
401.947
392.268
382.766
373.447
364.312
355.365
346.607
338.039
329.662
321.477
313.482
305.677
298.061
290.631
283.386
276.324
269.441
262.735
256.202
249.838
243.641
237.606
231.729
226.006
220.433
215.006
209.72
204.57
199.553
194.663
189.897
185.25
180.717
176.295
171.979
167.764
163.647
159.623
155.689
151.841
148.075
144.388
140.775
137.234
133.762
130.355
127.009
123.724
120.497
117.325
114.207
111.139
108.12
105.148
102.221
99.3361
96.4932
93.6903
90.9263
88.2
85.5107
82.8576
80.2401
77.6572
75.1081
72.5919
70.1079
67.6557
65.2348
62.8449
60.4858
58.1573
55.8594
53.5921
51.3555
49.1497
46.975
44.8317
42.7203
40.6414
38.5958
36.5843
34.6085
32.6698
30.7706
28.9144
27.1052
25.3493
23.6558
22.0388
20.5212
19.1436
17.9841
17.2142
17.3035
20.1786
41.6688
324.592
170.568
147.339
145.904
151.806
161.222
172.683
185.488
199.247
213.727
228.773
244.278
260.163
276.367
292.841
309.543
326.434
343.481
360.649
377.907
395.223
412.564
429.899
447.195
464.419
481.54
498.523
515.336
531.945
548.317
564.419
580.217
595.68
610.775
625.471
639.738
653.545
666.865
679.67
691.934
703.633
714.743
725.244
735.115
744.339
752.9
760.784
767.979
774.476
780.265
785.342
789.704
793.347
796.274
798.487
799.991
800.792
800.9
800.326
799.082
797.184
794.649
791.492
787.732
783.383
778.466
772.999
767.006
760.508
753.53
746.096
738.23
729.959
721.308
712.304
702.973
693.34
683.433
673.276
662.896
652.318
641.566
630.665
619.638
608.508
597.298
586.029
574.721
563.395
552.069
540.762
529.49
518.27
507.117
496.046
485.068
474.198
463.446
452.823
442.338
432
421.818
411.797
401.944
392.265
382.764
373.444
364.31
355.362
346.604
338.037
329.66
321.475
313.48
305.675
298.059
290.63
283.385
276.322
269.44
262.733
256.2
249.837
243.64
237.605
231.728
226.005
220.432
215.005
209.719
204.569
199.552
194.662
189.896
185.249
180.717
176.294
171.978
167.763
163.646
159.623
155.689
151.841
148.075
144.387
140.775
137.234
133.761
130.354
127.009
123.724
120.496
117.325
114.206
111.139
108.12
105.148
102.22
99.3359
96.4929
93.6901
90.926
88.1998
85.5105
82.8574
80.2399
77.657
75.1079
72.5917
70.1078
67.6555
65.2346
62.8448
60.4856
58.1572
55.8593
53.592
51.3554
49.1496
46.9749
44.8317
42.7203
40.6414
38.5957
36.5843
34.6084
32.6697
30.7706
28.9143
27.1051
25.3493
23.6558
22.0388
20.5212
19.1436
17.9841
17.2143
17.3035
20.1788
41.669
396.319
203.02
168.88
161.924
164.155
170.774
179.931
190.74
202.712
215.553
229.069
243.123
257.618
272.478
287.641
303.058
318.684
334.48
350.409
366.437
382.53
398.657
414.784
430.88
446.914
462.853
478.665
494.32
509.784
525.028
540.019
554.726
569.119
583.168
596.844
610.117
622.961
635.348
647.254
658.653
669.523
679.842
689.59
698.749
707.303
715.235
722.534
729.188
735.187
740.524
745.194
749.193
752.52
755.175
757.161
758.482
759.144
759.157
758.528
757.271
755.4
752.927
749.871
746.246
742.068
737.356
732.129
726.406
720.21
713.563
706.487
699.005
691.143
682.924
674.373
665.514
656.373
646.972
637.338
627.493
617.462
607.268
596.934
586.481
575.932
565.308
554.628
543.913
533.181
522.45
511.736
501.057
490.426
479.86
469.37
458.971
448.673
438.487
428.423
418.491
408.698
399.052
389.56
380.227
371.059
362.059
353.232
344.581
336.107
327.812
319.698
311.766
304.015
296.445
289.055
281.844
274.811
267.952
261.268
254.753
248.406
242.224
236.203
230.34
224.631
219.073
213.661
208.391
203.26
198.262
193.395
188.654
184.034
179.532
175.143
170.863
166.688
162.614
158.636
154.752
150.957
147.247
143.619
140.069
136.594
133.191
129.856
126.586
123.379
120.231
117.141
114.106
111.125
108.194
105.312
102.476
99.6852
96.9369
94.23
91.5627
88.9339
86.3424
83.787
81.2671
78.7816
76.3301
73.9117
71.5257
69.1713
66.8481
64.5556
62.2933
60.0611
57.8589
55.6866
53.5442
51.4319
49.35
47.2987
45.2786
43.2902
41.3343
39.412
37.5243
35.673
33.8598
32.0875
30.3593
28.6798
27.055
25.4939
24.0088
22.6191
21.3556
20.2717
19.4684
19.1658
19.9628
24.2948
51.8846
396.323
203.017
168.875
161.92
164.15
170.77
179.927
190.735
202.708
215.549
229.064
243.118
257.613
272.473
287.636
303.053
318.679
334.474
350.404
366.431
382.525
398.651
414.778
430.874
446.908
462.846
478.659
494.313
509.778
525.021
540.012
554.719
569.112
583.161
596.837
610.11
622.954
635.341
647.247
658.646
669.516
679.835
689.583
698.742
707.296
715.228
722.527
729.181
735.18
740.517
745.187
749.186
752.513
755.168
757.154
758.475
759.138
759.15
758.522
757.265
755.393
752.921
749.865
746.24
742.062
737.35
732.123
726.401
720.205
713.557
706.481
699
691.138
682.919
674.368
665.51
656.368
646.968
637.333
627.489
617.458
607.264
596.929
586.477
575.928
565.304
554.625
543.91
533.178
522.446
511.733
501.053
490.423
479.857
469.368
458.968
448.67
438.484
428.421
418.489
408.696
399.05
389.558
380.225
371.057
362.057
353.23
344.579
336.105
327.811
319.697
311.764
304.013
296.443
289.054
281.843
274.809
267.951
261.266
254.752
248.405
242.223
236.202
230.339
224.63
219.072
213.66
208.39
203.259
198.262
193.395
188.653
184.034
179.531
175.142
170.862
166.687
162.613
158.636
154.751
150.956
147.246
143.619
140.069
136.594
133.191
129.856
126.586
123.379
120.231
117.141
114.106
111.125
108.194
105.312
102.476
99.6849
96.9367
94.2297
91.5625
88.9337
86.3422
83.7869
81.2669
78.7815
76.3299
73.9116
71.5256
69.1712
66.848
64.5555
62.2932
60.061
57.8588
55.6865
53.5442
51.4319
49.3499
47.2987
45.2785
43.2901
41.3343
39.4119
37.5243
35.6729
33.8598
32.0875
30.3593
28.6798
27.055
25.4939
24.0088
22.6191
21.3556
20.2717
19.4684
19.1658
19.9629
24.2951
51.8848
466.921
236.048
191.482
179.438
178.443
182.707
189.995
199.236
209.846
221.468
233.869
246.887
260.403
274.329
288.591
303.131
317.897
332.847
347.939
363.136
378.404
393.708
409.016
424.295
439.514
454.641
469.646
484.498
499.166
513.62
527.83
541.767
555.401
568.703
581.647
594.205
606.351
618.06
629.308
640.071
650.329
660.061
669.248
677.872
685.92
693.375
700.226
706.463
712.076
717.059
721.407
725.116
728.185
730.615
732.407
733.567
734.1
734.013
733.317
732.022
730.14
727.686
724.674
721.12
717.039
712.448
707.366
701.812
695.807
689.371
682.527
675.296
667.702
659.767
651.515
642.969
634.153
625.09
615.802
606.314
596.647
586.824
576.866
566.795
556.631
546.395
536.105
525.781
515.439
505.098
494.774
484.481
474.236
464.05
453.939
443.912
433.983
424.161
414.455
404.875
395.429
386.123
376.965
367.959
359.11
350.424
341.902
333.55
325.368
317.358
309.522
301.86
294.372
287.059
279.918
272.951
266.153
259.525
253.064
246.766
240.631
234.654
228.833
223.164
217.643
212.268
207.034
201.938
196.975
192.143
187.435
182.85
178.382
174.028
169.783
165.644
161.607
157.668
153.822
150.067
146.398
142.812
139.305
135.875
132.517
129.23
126.008
122.85
119.753
116.715
113.733
110.805
107.929
105.103
102.324
99.5902
96.9005
94.2528
91.6457
89.0776
86.5473
84.0536
81.5956
79.1724
76.7831
74.4271
72.1037
69.8123
67.5522
65.323
63.1241
60.9555
58.8168
56.708
54.6292
52.5805
50.5622
48.5745
46.6181
44.6937
42.802
40.9441
39.1214
37.3355
35.5884
33.8829
32.2223
30.6108
29.0544
27.5609
26.1413
24.8113
23.5951
22.5311
21.6849
21.1798
21.284
22.725
28.4412
62.0077
466.924
236.043
191.477
179.434
178.439
182.703
189.99
199.232
209.841
221.463
233.864
246.882
260.399
274.324
288.586
303.126
317.892
332.842
347.934
363.131
378.399
393.703
409.01
424.289
439.508
454.635
469.641
484.492
499.16
513.614
527.824
541.761
555.395
568.697
581.641
594.199
606.345
618.054
629.302
640.065
650.323
660.054
669.241
677.866
685.913
693.368
700.22
706.456
712.07
717.053
721.4
725.11
728.179
730.609
732.401
733.561
734.094
734.008
733.311
732.016
730.135
727.681
724.669
721.115
717.033
712.443
707.361
701.807
695.802
689.366
682.522
675.292
667.698
659.763
651.511
642.965
634.149
625.086
615.799
606.31
596.643
586.82
576.863
566.792
556.628
546.392
536.102
525.778
515.436
505.095
494.771
484.479
474.233
464.048
453.936
443.91
433.981
424.159
414.453
404.873
395.427
386.121
376.963
367.957
359.108
350.422
341.901
333.548
325.366
317.356
309.52
301.858
294.371
287.057
279.917
272.949
266.152
259.524
253.063
246.765
240.63
234.653
228.832
223.163
217.642
212.267
207.033
201.937
196.975
192.142
187.435
182.849
178.382
174.027
169.783
165.644
161.607
157.667
153.821
150.066
146.397
142.811
139.305
135.875
132.517
129.229
126.008
122.85
119.753
116.715
113.733
110.805
107.929
105.102
102.323
99.59
96.9003
94.2526
91.6455
89.0774
86.5471
84.0535
81.5955
79.1722
76.7829
74.4269
72.1036
69.8122
67.5521
65.3229
63.1241
60.9554
58.8167
56.708
54.6292
52.5805
50.5621
48.5745
46.6181
44.6936
42.8019
40.9441
39.1213
37.3354
35.5884
33.8829
32.2222
30.6108
29.0544
27.5609
26.1413
24.8113
23.5951
22.5311
21.6848
21.1798
21.284
22.7251
28.4416
62.008
536.67
269.601
214.936
198.078
194.135
196.324
202.019
209.968
219.485
230.155
241.706
253.95
266.749
279.999
293.617
307.536
321.699
336.056
350.563
365.179
379.868
394.594
409.323
424.023
438.661
453.207
467.63
481.899
495.984
509.858
523.489
536.851
549.915
562.654
575.042
587.053
598.662
609.845
620.58
630.845
640.619
649.884
658.622
666.817
674.454
681.519
688.003
693.893
699.184
703.867
707.939
711.397
714.24
716.467
718.082
719.089
719.493
719.302
718.525
717.171
715.254
712.786
709.781
706.254
702.22
697.696
692.7
687.25
681.366
675.067
668.375
661.312
653.898
646.156
638.108
629.776
621.184
612.353
603.305
594.063
584.648
575.081
565.384
555.576
545.678
535.708
525.686
515.63
505.555
495.48
485.42
475.39
465.403
455.474
445.614
435.836
426.151
416.568
407.098
397.747
388.525
379.439
370.494
361.696
353.05
344.56
336.229
328.062
320.059
312.223
304.556
297.056
289.726
282.564
275.571
268.745
262.084
255.588
249.253
243.078
237.061
231.198
225.486
219.922
214.504
209.227
204.087
199.082
194.208
189.46
184.835
180.329
175.938
171.658
167.485
163.416
159.447
155.573
151.791
148.098
144.491
140.964
137.516
134.143
130.841
127.608
124.441
121.336
118.292
115.306
112.376
109.5
106.675
103.899
101.17
98.4871
95.8474
93.2496
90.6922
88.1739
85.6935
83.2498
80.8418
78.4686
76.1295
73.8237
71.5508
69.3099
67.1007
64.9226
62.7752
60.6585
58.5721
56.5162
54.4908
52.4962
50.5327
48.6008
46.7012
44.8348
43.0027
41.2061
39.4468
37.7268
36.0486
34.4156
32.8319
31.3027
29.8351
28.4387
27.1266
25.9179
24.841
23.9415
23.2971
23.0536
23.5271
25.5741
32.6337
72.105
536.673
269.596
214.932
198.074
194.131
196.32
202.015
209.964
219.481
230.15
241.701
253.945
266.744
279.994
293.613
307.531
321.694
336.051
350.558
365.174
379.863
394.589
409.318
424.018
438.656
453.202
467.624
481.893
495.979
509.852
523.484
536.845
549.909
562.648
575.036
587.047
598.656
609.839
620.574
630.839
640.613
649.878
658.616
666.811
674.448
681.514
687.997
693.888
699.178
703.862
707.934
711.392
714.234
716.462
718.077
719.084
719.488
719.297
718.52
717.166
715.249
712.781
709.776
706.249
702.215
697.692
692.695
687.246
681.361
675.063
668.371
661.308
653.894
646.152
638.104
629.773
621.18
612.349
603.302
594.06
584.645
575.078
565.381
555.573
545.675
535.705
525.684
515.627
505.553
495.478
485.418
475.387
465.401
455.471
445.612
435.834
426.149
416.566
407.096
397.746
388.524
379.437
370.492
361.694
353.048
344.558
336.228
328.06
320.058
312.222
304.554
297.055
289.725
282.563
275.57
268.744
262.083
255.587
249.252
243.077
237.06
231.197
225.485
219.921
214.503
209.226
204.087
199.082
194.207
189.459
184.834
180.328
175.937
171.657
167.485
163.416
159.446
155.572
151.791
148.098
144.49
140.964
137.515
134.142
130.841
127.608
124.44
121.336
118.292
115.306
112.376
109.5
106.675
103.899
101.17
98.4869
95.8472
93.2494
90.692
88.1737
85.6933
83.2496
80.8416
78.4684
76.1293
73.8236
71.5506
69.3098
67.1006
64.9225
62.7751
60.6584
58.572
56.5161
54.4907
52.4961
50.5326
48.6008
46.7012
44.8348
43.0026
41.2061
39.4467
37.7267
36.0486
34.4156
32.8318
31.3026
29.8351
28.4387
27.1266
25.9178
24.841
23.9415
23.2971
23.0536
23.5271
25.5742
32.6341
72.1054
606.025
303.778
239.173
217.678
210.971
211.273
215.565
222.41
231.02
240.922
251.805
263.455
275.715
288.467
301.617
315.09
328.822
342.758
356.849
371.053
385.33
399.642
413.955
428.234
442.448
456.564
470.554
484.385
498.03
511.46
524.646
537.562
550.18
562.474
574.419
585.991
597.166
607.922
618.236
628.09
637.462
646.337
654.696
662.525
669.811
676.54
682.703
688.291
693.295
697.711
701.534
704.762
707.393
709.429
710.873
711.728
712
711.696
710.825
709.398
707.424
704.918
701.893
698.362
694.341
689.846
684.894
679.503
673.692
667.48
660.887
653.935
646.643
639.032
631.126
622.943
614.508
605.84
596.961
587.893
578.656
569.271
559.758
550.136
540.426
530.644
520.81
510.941
501.053
491.162
481.285
471.434
461.625
451.869
442.18
432.569
423.046
413.621
404.304
395.102
386.024
377.077
368.266
359.597
351.076
342.705
334.489
326.431
318.533
310.797
303.224
295.815
288.571
281.491
274.575
267.822
261.23
254.799
248.526
242.409
236.446
230.634
224.97
219.452
214.075
208.838
203.736
198.765
193.923
189.205
184.608
180.129
175.762
171.505
167.354
163.305
159.354
155.499
151.734
148.057
144.464
140.952
137.517
134.157
130.868
127.648
124.493
121.401
118.369
115.395
112.478
109.614
106.801
104.038
101.323
98.6528
96.0268
93.4431
90.9003
88.3971
85.9322
83.5046
81.1132
78.7573
76.4359
74.1486
71.8946
69.6733
67.4844
65.3273
63.2017
61.1075
59.0446
57.013
55.0129
53.0446
51.1086
49.2055
47.336
45.5014
43.7028
41.9418
40.2205
38.5413
36.9073
35.3222
33.791
32.32
30.9173
29.5941
28.3658
27.2543
26.2929
25.5338
25.0668
25.0601
25.8784
28.5083
36.89
82.2317
606.027
303.773
239.169
217.673
210.967
211.269
215.561
222.405
231.016
240.918
251.801
263.45
275.711
288.462
301.613
315.085
328.817
342.753
356.844
371.048
385.325
399.637
413.95
428.229
442.442
456.559
470.548
484.38
498.025
511.454
524.641
537.556
550.174
562.468
574.414
585.986
597.161
607.916
618.231
628.084
637.457
646.331
654.69
662.52
669.805
676.535
682.698
688.285
693.29
697.706
701.529
704.756
707.388
709.424
710.868
711.723
711.995
711.692
710.821
709.393
707.42
704.914
701.888
698.358
694.337
689.842
684.89
679.499
673.688
667.476
660.884
653.931
646.639
639.029
631.122
622.94
614.505
605.837
596.958
587.89
578.653
569.268
559.755
550.134
540.423
530.642
520.808
510.938
501.051
491.16
481.283
471.432
461.623
451.867
442.178
432.567
423.044
413.619
404.302
395.101
386.023
377.075
368.264
359.596
351.074
342.704
334.488
326.43
318.532
310.796
303.223
295.814
288.57
281.49
274.574
267.821
261.229
254.798
248.525
242.408
236.445
230.633
224.969
219.451
214.075
208.837
203.735
198.765
193.922
189.205
184.608
180.128
175.762
171.505
167.354
163.305
159.354
155.498
151.733
148.056
144.463
140.951
137.517
134.157
130.868
127.647
124.493
121.4
118.368
115.395
112.477
109.614
106.801
104.038
101.323
98.6526
96.0266
93.4429
90.9001
88.3969
85.932
83.5044
81.1131
78.7571
76.4358
74.1484
71.8944
69.6732
67.4843
65.3272
63.2016
61.1074
59.0445
57.0129
55.0128
53.0445
51.1085
49.2054
47.336
45.5013
43.7027
41.9418
40.2205
38.5413
36.9072
35.3222
33.791
32.3199
30.9173
29.5941
28.3657
27.2543
26.2928
25.5337
25.0667
25.0601
25.8785
28.5084
36.8905
82.2321
675.351
338.647
264.2
238.172
228.824
227.37
230.394
236.27
244.11
253.378
263.727
274.914
286.765
299.148
311.957
325.11
338.536
352.174
365.973
379.885
393.868
407.883
421.894
435.865
449.764
463.559
477.22
490.716
504.019
517.1
529.933
542.491
554.748
566.678
578.258
589.465
600.276
610.669
620.625
630.124
639.149
647.682
655.708
663.213
670.185
676.612
682.484
687.794
692.534
696.701
700.289
703.297
705.725
707.574
708.847
709.548
709.682
709.257
708.281
706.765
704.719
702.155
699.087
695.529
691.494
687
682.062
676.698
670.925
664.764
658.232
651.351
644.139
636.618
628.808
620.73
612.404
603.852
595.093
586.149
577.039
567.784
558.403
548.914
539.337
529.689
519.988
510.25
500.493
490.731
480.979
471.252
461.563
451.925
442.349
432.847
423.43
414.106
404.886
395.777
386.787
377.923
369.191
360.596
352.144
343.838
335.683
327.681
319.834
312.145
304.615
297.245
290.036
282.987