/*--------------------------------*- C++ -*----------------------------------*\
  =========                 |
  \\      /  F ield         | OpenFOAM: The Open Source CFD Toolbox
   \\    /   O peration     | Website:  https://openfoam.org
    \\  /    A nd           | Version:  8
     \\/     M anipulation  |
\*---------------------------------------------------------------------------*/
FoamFile
{
    version     2.0;
    format      ascii;
    class       volScalarField;
    location    "3700";
    object      k;
}
// * * * * * * * * * * * * * * * * * * * * * * * * * * * * * * * * * * * * * //

dimensions      [0 2 -2 0 0 0 0];

internalField   nonuniform List<scalar> 
46000
(
0.0187416
0.0733584
0.133679
0.189467
0.242013
0.292741
0.342293
0.390811
0.43857
0.485767
0.532566
0.579094
0.625086
0.670732
0.716075
0.761122
0.805864
0.850282
0.89435
0.938036
0.981304
1.02411
1.06642
1.10819
1.14935
1.18988
1.22972
1.26881
1.30711
1.34457
1.38115
1.41678
1.45142
1.48503
1.51756
1.54897
1.57922
1.60827
1.63608
1.66263
1.68786
1.71177
1.73432
1.75549
1.77525
1.7936
1.81052
1.826
1.84003
1.8526
1.86371
1.87337
1.88158
1.88835
1.89369
1.89761
1.90013
1.90128
1.90106
1.89952
1.89668
1.89259
1.88731
1.88083
1.87317
1.86437
1.85445
1.84347
1.83146
1.81846
1.80451
1.78967
1.77397
1.75745
1.74018
1.72218
1.70351
1.68422
1.66434
1.64393
1.62302
1.60167
1.57992
1.5578
1.53537
1.51267
1.48973
1.46659
1.44329
1.41988
1.39637
1.37282
1.34924
1.32568
1.30216
1.27871
1.25535
1.23212
1.20904
1.18612
1.1634
1.14088
1.11859
1.09654
1.07475
1.05324
1.032
1.01106
0.99043
0.970108
0.950105
0.930427
0.911079
0.892064
0.873385
0.855043
0.837039
0.819373
0.802043
0.785047
0.768382
0.752046
0.736034
0.720342
0.704964
0.689894
0.675127
0.660657
0.646475
0.632576
0.618951
0.605594
0.592496
0.579649
0.567046
0.554678
0.542537
0.530615
0.518905
0.507398
0.496085
0.48496
0.474015
0.463243
0.452635
0.442185
0.431887
0.421733
0.411717
0.401833
0.392076
0.382439
0.372918
0.363505
0.354208
0.345018
0.335927
0.326933
0.318029
0.309215
0.300486
0.291839
0.283272
0.274783
0.266372
0.258054
0.249814
0.241646
0.233548
0.225517
0.217553
0.209655
0.201821
0.19405
0.18634
0.178691
0.171101
0.16356
0.156081
0.148656
0.141279
0.133951
0.126668
0.119425
0.112217
0.105038
0.0978816
0.0907376
0.0835951
0.0764413
0.0692835
0.0620926
0.0548364
0.0474809
0.0399826
0.0322838
0.0243113
0.016006
0.00761077
0.00155178
0.0187373
0.0733483
0.133671
0.189465
0.242014
0.292743
0.342295
0.390813
0.438572
0.485769
0.532567
0.579096
0.625087
0.670733
0.716076
0.761123
0.805865
0.850282
0.89435
0.938036
0.981304
1.02411
1.06642
1.10819
1.14935
1.18988
1.22972
1.26881
1.30711
1.34457
1.38114
1.41677
1.45142
1.48503
1.51756
1.54897
1.57922
1.60827
1.63608
1.66262
1.68786
1.71177
1.73432
1.75548
1.77525
1.7936
1.81052
1.826
1.84002
1.85259
1.86371
1.87337
1.88158
1.88835
1.89369
1.89761
1.90013
1.90127
1.90106
1.89951
1.89667
1.89259
1.88731
1.88083
1.87317
1.86436
1.85445
1.84347
1.83145
1.81845
1.80451
1.78966
1.77396
1.75745
1.74017
1.72218
1.70351
1.68421
1.66434
1.64392
1.62302
1.60167
1.57991
1.5578
1.53537
1.51266
1.48972
1.46659
1.44329
1.41987
1.39637
1.37281
1.34924
1.32567
1.30215
1.2787
1.25535
1.23212
1.20903
1.18612
1.16339
1.14088
1.11859
1.09654
1.07475
1.05323
1.032
1.01106
0.990427
0.970105
0.950102
0.930425
0.911077
0.892062
0.873383
0.855041
0.837037
0.819371
0.802041
0.785045
0.76838
0.752044
0.736032
0.72034
0.704962
0.689892
0.675125
0.660655
0.646473
0.632574
0.618949
0.605592
0.592494
0.579647
0.567044
0.554676
0.542536
0.530614
0.518904
0.507396
0.496084
0.484959
0.474014
0.463241
0.452634
0.442184
0.431885
0.421732
0.411716
0.401832
0.392075
0.382438
0.372917
0.363504
0.354207
0.345017
0.335926
0.326932
0.318029
0.309214
0.300485
0.291838
0.283271
0.274783
0.266371
0.258053
0.249813
0.241645
0.233547
0.225516
0.217553
0.209654
0.20182
0.194049
0.18634
0.178691
0.1711
0.163559
0.15608
0.148655
0.141279
0.133951
0.126668
0.119425
0.112217
0.105038
0.0978813
0.0907374
0.0835949
0.0764411
0.0692834
0.0620924
0.0548363
0.0474808
0.0399826
0.0322837
0.0243114
0.016006
0.00761077
0.00155178
0.0730275
0.215037
0.316306
0.401582
0.478446
0.549924
0.617465
0.682141
0.744651
0.805441
0.864738
0.922818
0.979821
1.03588
1.09108
1.14549
1.19914
1.25205
1.30423
1.35568
1.40637
1.4563
1.50543
1.55374
1.60118
1.64773
1.69335
1.73799
1.7816
1.82416
1.86561
1.90592
1.94503
1.98292
2.01953
2.05483
2.08879
2.12136
2.15251
2.18221
2.21044
2.23716
2.26236
2.286
2.30808
2.32858
2.34748
2.36477
2.38046
2.39454
2.407
2.41785
2.4271
2.43476
2.44083
2.44534
2.4483
2.44973
2.44966
2.44812
2.44514
2.44075
2.435
2.42791
2.41951
2.40984
2.39892
2.38681
2.37354
2.35917
2.34373
2.32727
2.30985
2.2915
2.27227
2.25223
2.2314
2.20985
2.18762
2.16475
2.14131
2.11733
2.09286
2.06795
2.04265
2.01699
1.99103
1.9648
1.93835
1.91171
1.88493
1.85805
1.83109
1.80409
1.7771
1.75013
1.72322
1.6964
1.6697
1.64314
1.61674
1.59053
1.56452
1.53875
1.51322
1.48795
1.46296
1.43826
1.41386
1.38977
1.366
1.34257
1.31947
1.29671
1.2743
1.25224
1.23053
1.20917
1.18816
1.16751
1.14721
1.12725
1.10763
1.08836
1.06942
1.05081
1.03252
1.01455
0.996893
0.979534
0.96247
0.945692
0.929192
0.912961
0.89699
0.881269
0.86579
0.850544
0.83552
0.820711
0.806105
0.791694
0.77747
0.763421
0.749541
0.735819
0.722247
0.708817
0.695521
0.68235
0.669297
0.656353
0.643512
0.630776
0.618135
0.605582
0.593109
0.58071
0.568379
0.556111
0.543901
0.531743
0.519634
0.507569
0.495544
0.483556
0.471605
0.459685
0.447791
0.435919
0.424064
0.412223
0.400391
0.388564
0.376737
0.364905
0.353062
0.341202
0.329317
0.317398
0.305433
0.293417
0.281336
0.269175
0.256917
0.24454
0.232019
0.219322
0.206411
0.193236
0.179733
0.165843
0.151464
0.136457
0.120632
0.103705
0.0852258
0.0643799
0.0391785
0.00752022
0.0730379
0.215044
0.316308
0.401584
0.478447
0.549924
0.617466
0.682141
0.744651
0.80544
0.864737
0.922817
0.97982
1.03588
1.09108
1.14549
1.19914
1.25205
1.30423
1.35568
1.40637
1.4563
1.50543
1.55373
1.60118
1.64773
1.69334
1.73798
1.7816
1.82416
1.86561
1.90591
1.94503
1.98291
2.01953
2.05483
2.08878
2.12135
2.1525
2.18221
2.21043
2.23716
2.26235
2.286
2.30807
2.32857
2.34747
2.36477
2.38046
2.39453
2.40699
2.41784
2.42709
2.43475
2.44082
2.44533
2.44829
2.44972
2.44965
2.44811
2.44513
2.44075
2.435
2.42791
2.41951
2.40983
2.39891
2.3868
2.37354
2.35916
2.34372
2.32727
2.30984
2.29149
2.27227
2.25222
2.23139
2.20984
2.18761
2.16475
2.1413
2.11732
2.09285
2.06795
2.04264
2.01698
1.99102
1.96479
1.93834
1.91171
1.88493
1.85804
1.83108
1.80409
1.77709
1.75013
1.72322
1.6964
1.66969
1.64313
1.61673
1.59052
1.56452
1.53874
1.51321
1.48794
1.46295
1.43825
1.41385
1.38976
1.366
1.34256
1.31946
1.29671
1.2743
1.25223
1.23052
1.20917
1.18816
1.16751
1.1472
1.12724
1.10763
1.08836
1.06942
1.05081
1.03252
1.01455
0.996889
0.979531
0.962467
0.945689
0.929189
0.912957
0.896986
0.881266
0.865787
0.850541
0.835517
0.820708
0.806102
0.791691
0.777467
0.763418
0.749538
0.735816
0.722244
0.708814
0.695518
0.682347
0.669294
0.65635
0.64351
0.630774
0.618133
0.60558
0.593107
0.580708
0.568377
0.556109
0.543899
0.531741
0.519632
0.507567
0.495542
0.483554
0.471603
0.459684
0.44779
0.435917
0.424062
0.412221
0.400389
0.388562
0.376735
0.364904
0.353061
0.3412
0.329315
0.317397
0.305431
0.293416
0.281335
0.269174
0.256916
0.244539
0.232018
0.219321
0.20641
0.193236
0.179732
0.165843
0.151463
0.136457
0.120632
0.103705
0.0852257
0.0643798
0.0391785
0.00752024
0.135008
0.318976
0.440172
0.539786
0.629259
0.712339
0.790942
0.866168
0.938724
1.00913
1.07772
1.14478
1.21047
1.27495
1.33831
1.40064
1.46197
1.52234
1.58176
1.64024
1.69777
1.75433
1.80989
1.86445
1.91795
1.97037
2.02166
2.0718
2.12073
2.16841
2.21481
2.25987
2.30357
2.34585
2.38667
2.426
2.4638
2.50002
2.53465
2.56765
2.59899
2.62863
2.65657
2.68278
2.70724
2.72993
2.75085
2.76998
2.78732
2.80288
2.81664
2.82862
2.83882
2.84726
2.85394
2.85889
2.86212
2.86366
2.86354
2.86178
2.85842
2.8535
2.84705
2.83911
2.8297
2.81888
2.80668
2.79315
2.77833
2.76227
2.74503
2.72664
2.70716
2.68665
2.66516
2.64273
2.61942
2.59529
2.57039
2.54477
2.51848
2.49157
2.46411
2.43613
2.40769
2.37883
2.34961
2.32007
2.29026
2.26023
2.23001
2.19964
2.16917
2.13864
2.10809
2.07754
2.04704
2.01661
1.98629
1.9561
1.92608
1.89625
1.86663
1.83725
1.80812
1.77927
1.75071
1.72246
1.69454
1.66694
1.6397
1.61281
1.58629
1.56014
1.53436
1.50897
1.48397
1.45934
1.43511
1.41127
1.38781
1.36473
1.34203
1.31971
1.29777
1.27618
1.25496
1.23409
1.21356
1.19337
1.17351
1.15397
1.13474
1.11581
1.09717
1.07881
1.06071
1.04288
1.0253
1.00795
0.990834
0.973933
0.957237
0.940738
0.924423
0.908284
0.89231
0.876491
0.860817
0.84528
0.82987
0.814578
0.799401
0.784333
0.769364
0.754485
0.739688
0.724967
0.710313
0.695721
0.681184
0.666697
0.652253
0.637848
0.623476
0.609134
0.594818
0.580522
0.566242
0.551971
0.537704
0.523436
0.509162
0.494875
0.48057
0.46624
0.451877
0.437474
0.42302
0.408505
0.393918
0.379243
0.364465
0.349567
0.334529
0.319323
0.30392
0.288282
0.272362
0.256104
0.239436
0.22227
0.204497
0.185957
0.166428
0.145577
0.122843
0.0970412
0.0645381
0.015775
0.135012
0.318979
0.440173
0.539786
0.629258
0.712338
0.79094
0.866167
0.938722
1.00913
1.07772
1.14477
1.21047
1.27495
1.33831
1.40064
1.46197
1.52234
1.58176
1.64024
1.69776
1.75432
1.80989
1.86444
1.91794
1.97036
2.02166
2.07179
2.12072
2.16841
2.2148
2.25987
2.30356
2.34584
2.38666
2.42599
2.46379
2.50002
2.53465
2.56764
2.59898
2.62863
2.65657
2.68277
2.70723
2.72992
2.75084
2.76997
2.78732
2.80287
2.81664
2.82861
2.83882
2.84725
2.85393
2.85888
2.86211
2.86365
2.86353
2.86177
2.85841
2.85349
2.84704
2.8391
2.8297
2.81887
2.80667
2.79314
2.77832
2.76227
2.74502
2.72663
2.70716
2.68664
2.66515
2.64272
2.61941
2.59528
2.57038
2.54476
2.51847
2.49157
2.4641
2.43612
2.40768
2.37882
2.34961
2.32007
2.29026
2.26022
2.23
2.19963
2.16917
2.13864
2.10808
2.07753
2.04703
2.0166
1.98628
1.9561
1.92608
1.89624
1.86663
1.83724
1.80812
1.77927
1.75071
1.72246
1.69453
1.66694
1.63969
1.61281
1.58628
1.56013
1.53436
1.50897
1.48396
1.45934
1.43511
1.41126
1.3878
1.36473
1.34203
1.31971
1.29776
1.27618
1.25496
1.23408
1.21356
1.19337
1.17351
1.15397
1.13474
1.1158
1.09716
1.0788
1.06071
1.04288
1.02529
1.00795
0.990831
0.973929
0.957234
0.940734
0.92442
0.908281
0.892307
0.876488
0.860814
0.845277
0.829867
0.814575
0.799398
0.78433
0.769361
0.754482
0.739686
0.724964
0.71031
0.695718
0.681182
0.666694
0.652251
0.637846
0.623474
0.609131
0.594816
0.58052
0.56624
0.551969
0.537702
0.523434
0.50916
0.494873
0.480569
0.466238
0.451876
0.437472
0.423019
0.408504
0.393916
0.379242
0.364464
0.349566
0.334528
0.319322
0.303919
0.288281
0.272361
0.256103
0.239435
0.22227
0.204497
0.185957
0.166428
0.145577
0.122842
0.0970412
0.0645382
0.0157751
0.194073
0.408853
0.544729
0.65431
0.752232
0.843157
0.929331
1.01197
1.09182
1.16938
1.24501
1.31896
1.39142
1.46252
1.53238
1.60105
1.66858
1.73502
1.80036
1.86462
1.92778
1.98984
2.05076
2.11053
2.1691
2.22644
2.28251
2.33728
2.39069
2.44271
2.4933
2.54239
2.58997
2.63597
2.68037
2.72312
2.76417
2.80351
2.84108
2.87686
2.91083
2.94295
2.97319
3.00155
3.028
3.05252
3.07511
3.09576
3.11446
3.13122
3.14603
3.15889
3.16983
3.17885
3.18597
3.1912
3.19457
3.19611
3.19583
3.19378
3.19
3.1845
3.17735
3.16856
3.15819
3.14628
3.13287
3.11801
3.10174
3.08413
3.06521
3.04506
3.02371
3.00124
2.97768
2.95311
2.92757
2.90112
2.87383
2.84574
2.81692
2.78742
2.75729
2.7266
2.69539
2.66372
2.63163
2.59919
2.56644
2.53343
2.50021
2.46682
2.4333
2.39971
2.36607
2.33243
2.29883
2.26529
2.23187
2.19858
2.16546
2.13254
2.09983
2.06738
2.0352
2.00331
1.97173
1.94048
1.90958
1.87904
1.84887
1.81908
1.78969
1.7607
1.73212
1.70396
1.6762
1.64887
1.62197
1.59548
1.56941
1.54376
1.51853
1.4937
1.46929
1.44527
1.42164
1.3984
1.37554
1.35305
1.33091
1.30913
1.28769
1.26657
1.24578
1.22529
1.2051
1.18519
1.16556
1.14619
1.12706
1.10818
1.08952
1.07107
1.05283
1.03478
1.01692
0.999217
0.981678
0.964287
0.947035
0.929915
0.912921
0.896042
0.87927
0.862594
0.846007
0.8295
0.813065
0.796696
0.780384
0.764123
0.747908
0.731732
0.715589
0.699474
0.683384
0.667311
0.65125
0.635194
0.619137
0.603074
0.586999
0.570904
0.554782
0.538627
0.522429
0.506181
0.489871
0.473488
0.457019
0.440449
0.423761
0.406935
0.389947
0.372772
0.355378
0.337726
0.319767
0.301444
0.282682
0.263388
0.243447
0.222695
0.200893
0.17767
0.152346
0.123363
0.0857306
0.0240094
0.194074
0.408854
0.544728
0.654309
0.75223
0.843155
0.929328
1.01197
1.09181
1.16938
1.24501
1.31896
1.39142
1.46252
1.53237
1.60104
1.66858
1.73501
1.80036
1.86461
1.92778
1.98984
2.05076
2.11052
2.16909
2.22644
2.28251
2.33727
2.39069
2.44271
2.49329
2.54239
2.58996
2.63597
2.68036
2.72311
2.76417
2.8035
2.84107
2.87686
2.91082
2.94294
2.97319
3.00154
3.02799
3.05251
3.07511
3.09575
3.11446
3.13121
3.14602
3.15889
3.16983
3.17884
3.18596
3.19119
3.19456
3.1961
3.19583
3.19378
3.18999
3.1845
3.17734
3.16856
3.15819
3.14627
3.13286
3.118
3.10173
3.08412
3.06521
3.04505
3.02371
3.00123
2.97767
2.9531
2.92756
2.90112
2.87382
2.84574
2.81691
2.78741
2.75729
2.72659
2.69538
2.66371
2.63163
2.59919
2.56644
2.53343
2.5002
2.46681
2.4333
2.3997
2.36606
2.33242
2.29882
2.26529
2.23186
2.19857
2.16545
2.13253
2.09983
2.06738
2.03519
2.0033
1.97173
1.94048
1.90958
1.87903
1.84886
1.81908
1.78969
1.7607
1.73212
1.70395
1.6762
1.64887
1.62196
1.59547
1.56941
1.54376
1.51852
1.4937
1.46928
1.44526
1.42164
1.3984
1.37554
1.35304
1.33091
1.30913
1.28768
1.26657
1.24578
1.22529
1.2051
1.18519
1.16556
1.14618
1.12706
1.10817
1.08952
1.07107
1.05283
1.03478
1.01691
0.999215
0.981675
0.964285
0.947032
0.929912
0.912918
0.89604
0.879267
0.862592
0.846005
0.829498
0.813063
0.796693
0.780382
0.764121
0.747906
0.73173
0.715587
0.699473
0.683382
0.667309
0.651248
0.635192
0.619136
0.603073
0.586997
0.570902
0.554781
0.538625
0.522428
0.50618
0.48987
0.473487
0.457018
0.440448
0.42376
0.406934
0.389946
0.372771
0.355377
0.337725
0.319766
0.301443
0.282681
0.263388
0.243447
0.222694
0.200893
0.17767
0.152346
0.123363
0.0857309
0.0240095
0.250985
0.491325
0.640308
0.758558
0.863353
0.960537
1.05271
1.14123
1.2269
1.31022
1.39156
1.47116
1.54919
1.62579
1.70104
1.77502
1.84776
1.9193
1.98964
2.05878
2.12672
2.19343
2.25889
2.32307
2.38593
2.44744
2.50756
2.56625
2.62345
2.67913
2.73324
2.78574
2.83658
2.88571
2.9331
2.97871
3.02249
3.06441
3.10443
3.14253
3.17866
3.21282
3.24496
3.27507
3.30314
3.32915
3.35308
3.37494
3.39471
3.41241
3.42802
3.44156
3.45303
3.46246
3.46986
3.47524
3.47864
3.48008
3.47959
3.47721
3.47296
3.4669
3.45905
3.44947
3.4382
3.42527
3.41074
3.39466
3.37709
3.35807
3.33767
3.31593
3.29292
3.26869
3.24331
3.21684
3.18933
3.16085
3.13145
3.10121
3.07016
3.03839
3.00594
2.97287
2.93925
2.90512
2.87055
2.83559
2.80028
2.76469
2.72887
2.69285
2.65669
2.62044
2.58414
2.54783
2.51154
2.47533
2.43922
2.40325
2.36746
2.33186
2.2965
2.2614
2.22659
2.19208
2.1579
2.12407
2.09061
2.05752
2.02484
1.99256
1.9607
1.92927
1.89827
1.86772
1.83761
1.80795
1.77874
1.74998
1.72168
1.69382
1.6664
1.63943
1.61289
1.58678
1.56109
1.53582
1.51095
1.48648
1.4624
1.43869
1.41535
1.39237
1.36973
1.34742
1.32543
1.30374
1.28235
1.26125
1.24041
1.21983
1.19949
1.17939
1.1595
1.13982
1.12034
1.10104
1.08191
1.06295
1.04413
1.02546
1.00693
0.988517
0.97022
0.952027
0.93393
0.915919
0.897985
0.880122
0.862322
0.844576
0.826879
0.809224
0.791604
0.774014
0.756448
0.7389
0.721363
0.703831
0.686297
0.668755
0.651197
0.633618
0.616008
0.598361
0.580667
0.562916
0.545099
0.527204
0.509216
0.491121
0.472901
0.454535
0.436002
0.417272
0.398313
0.379086
0.359545
0.339631
0.31927
0.298368
0.2768
0.254396
0.230897
0.205872
0.178499
0.146837
0.104726
0.0320561
0.250986
0.491326
0.640307
0.758556
0.863351
0.960535
1.05271
1.14123
1.22689
1.31022
1.39156
1.47116
1.54919
1.62578
1.70104
1.77501
1.84776
1.9193
1.98964
2.05878
2.12671
2.19342
2.25888
2.32306
2.38593
2.44744
2.50756
2.56624
2.62344
2.67912
2.73324
2.78573
2.83657
2.88571
2.9331
2.9787
3.02248
3.0644
3.10443
3.14252
3.17866
3.21281
3.24495
3.27507
3.30313
3.32914
3.35308
3.37493
3.39471
3.4124
3.42801
3.44155
3.45303
3.46246
3.46985
3.47524
3.47864
3.48008
3.47959
3.4772
3.47296
3.46689
3.45905
3.44947
3.43819
3.42526
3.41074
3.39466
3.37708
3.35806
3.33766
3.31592
3.29291
3.26869
3.24331
3.21683
3.18933
3.16084
3.13145
3.1012
3.07016
3.03838
3.00593
2.97287
2.93924
2.90512
2.87055
2.83558
2.80028
2.76469
2.72886
2.69285
2.65669
2.62044
2.58413
2.54782
2.51154
2.47532
2.43921
2.40325
2.36745
2.33186
2.2965
2.2614
2.22658
2.19208
2.1579
2.12407
2.0906
2.05752
2.02483
1.99256
1.9607
1.92926
1.89827
1.86771
1.83761
1.80795
1.77874
1.74998
1.72167
1.69381
1.6664
1.63942
1.61288
1.58677
1.56109
1.53581
1.51095
1.48648
1.4624
1.43869
1.41535
1.39237
1.36972
1.34741
1.32542
1.30374
1.28235
1.26124
1.2404
1.21982
1.19949
1.17938
1.1595
1.13982
1.12034
1.10104
1.08191
1.06295
1.04413
1.02546
1.00693
0.988515
0.970218
0.952025
0.933928
0.915917
0.897984
0.88012
0.86232
0.844574
0.826877
0.809222
0.791602
0.774012
0.756446
0.738898
0.721361
0.703829
0.686296
0.668753
0.651196
0.633616
0.616007
0.598359
0.580665
0.562915
0.545098
0.527203
0.509215
0.49112
0.4729
0.454535
0.436001
0.417271
0.398312
0.379085
0.359545
0.339631
0.31927
0.298367
0.2768
0.254396
0.230897
0.205872
0.178499
0.146838
0.104727
0.0320562
0.306804
0.569049
0.730237
0.856743
0.967984
1.07082
1.16828
1.26191
1.3526
1.44089
1.52715
1.61162
1.69448
1.77583
1.85578
1.93438
2.01166
2.08764
2.16233
2.23573
2.30782
2.37857
2.44797
2.51598
2.58256
2.64768
2.71128
2.77334
2.83379
2.89261
2.94973
3.00512
3.05873
3.11052
3.16044
3.20845
3.25451
3.29859
3.34065
3.38065
3.41858
3.4544
3.48808
3.51962
3.54899
3.57618
3.60118
3.62397
3.64457
3.66298
3.67918
3.6932
3.70504
3.71473
3.72227
3.72769
3.73102
3.73229
3.73152
3.72876
3.72403
3.71739
3.70888
3.69853
3.68639
3.67252
3.65696
3.63977
3.621
3.60071
3.57895
3.55579
3.53129
3.5055
3.4785
3.45033
3.42108
3.39079
3.35954
3.32738
3.29438
3.2606
3.22611
3.19096
3.15521
3.11893
3.08217
3.04499
3.00745
2.9696
2.93149
2.89317
2.8547
2.81612
2.77748
2.73882
2.70019
2.66162
2.62316
2.58484
2.5467
2.50876
2.47107
2.43364
2.39651
2.3597
2.32323
2.28713
2.25141
2.21609
2.18119
2.14671
2.11267
2.07908
2.04596
2.01329
1.9811
1.94937
1.91813
1.88736
1.85706
1.82724
1.79789
1.769
1.74058
1.71261
1.68509
1.658
1.63135
1.60512
1.57929
1.55387
1.52884
1.50418
1.47989
1.45595
1.43235
1.40907
1.38611
1.36345
1.34108
1.31897
1.29713
1.27554
1.25418
1.23304
1.21211
1.19138
1.17083
1.15045
1.13024
1.11018
1.09027
1.07049
1.05083
1.03128
1.01184
0.992486
0.973218
0.954026
0.934901
0.915837
0.896825
0.877859
0.858932
0.840037
0.821168
0.802319
0.783482
0.764651
0.74582
0.726979
0.708124
0.689245
0.670336
0.651387
0.63239
0.613335
0.594211
0.575005
0.555706
0.536296
0.516759
0.497075
0.47722
0.457167
0.436883
0.41633
0.39546
0.374213
0.352518
0.330275
0.307352
0.283564
0.258619
0.232018
0.202784
0.168615
0.122344
0.039976
0.306805
0.569049
0.730235
0.856741
0.967982
1.07082
1.16828
1.26191
1.35259
1.44089
1.52715
1.61162
1.69447
1.77583
1.85578
1.93438
2.01165
2.08764
2.16233
2.23573
2.30781
2.37857
2.44797
2.51597
2.58256
2.64767
2.71128
2.77333
2.83379
2.8926
2.94973
3.00512
3.05873
3.11051
3.16043
3.20844
3.2545
3.29858
3.34064
3.38065
3.41857
3.45439
3.48808
3.51962
3.54898
3.57617
3.60117
3.62397
3.64457
3.66297
3.67917
3.69319
3.70504
3.71472
3.72226
3.72769
3.73102
3.73228
3.73151
3.72875
3.72403
3.71739
3.70887
3.69852
3.68639
3.67251
3.65696
3.63976
3.62099
3.6007
3.57894
3.55578
3.53128
3.50549
3.47849
3.45033
3.42107
3.39078
3.35953
3.32737
3.29437
3.2606
3.2261
3.19095
3.15521
3.11892
3.08217
3.04499
3.00744
2.96959
2.93148
2.89317
2.85469
2.81612
2.77747
2.73882
2.70018
2.66162
2.62316
2.58484
2.54669
2.50876
2.47106
2.43364
2.39651
2.3597
2.32323
2.28713
2.25141
2.21609
2.18118
2.1467
2.11267
2.07908
2.04595
2.01329
1.98109
1.94937
1.91813
1.88736
1.85706
1.82724
1.79789
1.769
1.74058
1.71261
1.68508
1.658
1.63135
1.60511
1.57929
1.55387
1.52883
1.50418
1.47989
1.45595
1.43234
1.40907
1.38611
1.36345
1.34107
1.31897
1.29713
1.27554
1.25418
1.23304
1.21211
1.19138
1.17083
1.15045
1.13024
1.11018
1.09027
1.07049
1.05083
1.03128
1.01184
0.992484
0.973216
0.954024
0.9349
0.915836
0.896824
0.877858
0.85893
0.840035
0.821166
0.802317
0.783481
0.76465
0.745818
0.726978
0.708123
0.689244
0.670335
0.651386
0.632389
0.613334
0.59421
0.575005
0.555705
0.536295
0.516759
0.497074
0.477219
0.457166
0.436882
0.416329
0.395459
0.374213
0.352517
0.330274
0.307351
0.283564
0.258619
0.232018
0.202784
0.168615
0.122345
0.0399762
0.361786
0.643386
0.81636
0.950963
1.06855
1.17685
1.27929
1.37766
1.47294
1.56575
1.65646
1.74532
1.83252
1.91816
2.00232
2.08506
2.16641
2.24637
2.32495
2.40215
2.47793
2.55228
2.62517
2.69657
2.76643
2.83471
2.90137
2.96637
3.02965
3.09118
3.15091
3.20879
3.26477
3.31882
3.37088
3.42092
3.4689
3.51478
3.55852
3.60011
3.6395
3.67667
3.7116
3.74428
3.77468
3.80279
3.8286
3.85211
3.87332
3.89223
3.90885
3.92317
3.93523
3.94503
3.9526
3.95795
3.96113
3.96214
3.96104
3.95786
3.95263
3.94541
3.93622
3.92513
3.91217
3.89741
3.88088
3.86265
3.84278
3.82132
3.79833
3.77388
3.74803
3.72083
3.69237
3.66269
3.63187
3.59997
3.56706
3.5332
3.49846
3.46291
3.4266
3.3896
3.35197
3.31378
3.27509
3.23595
3.19643
3.15657
3.11644
3.07609
3.03557
2.99493
2.95421
2.91348
2.87276
2.83211
2.79156
2.75115
2.71092
2.6709
2.63112
2.59163
2.55243
2.51357
2.47505
2.43692
2.39918
2.36185
2.32496
2.28851
2.25251
2.21699
2.18194
2.14737
2.11329
2.07971
2.04662
2.01403
1.98193
1.95033
1.91922
1.88859
1.85845
1.82878
1.79959
1.77085
1.74256
1.71471
1.6873
1.6603
1.63371
1.60751
1.5817
1.55626
1.53117
1.50643
1.48202
1.45792
1.43413
1.41062
1.38739
1.36442
1.34169
1.3192
1.29693
1.27487
1.253
1.23132
1.20981
1.18846
1.16727
1.14622
1.1253
1.1045
1.08381
1.06321
1.04271
1.02229
1.00195
0.981665
0.961441
0.941268
0.921137
0.901043
0.880977
0.860934
0.840907
0.820887
0.800868
0.780842
0.760802
0.74074
0.720647
0.700515
0.680335
0.660097
0.639789
0.6194
0.598916
0.578323
0.557601
0.536733
0.515694
0.494458
0.472992
0.451257
0.429206
0.406779
0.383898
0.360459
0.33632
0.311275
0.284992
0.256898
0.225864
0.189259
0.139035
0.047832
0.361788
0.643385
0.816358
0.95096
1.06855
1.17684
1.27929
1.37766
1.47294
1.56574
1.65645
1.74532
1.83251
1.91816
2.00232
2.08506
2.1664
2.24637
2.32495
2.40214
2.47793
2.55228
2.62517
2.69656
2.76642
2.8347
2.90137
2.96636
3.02965
3.09118
3.15091
3.20878
3.26477
3.31881
3.37087
3.42091
3.46889
3.51477
3.55852
3.6001
3.63949
3.67667
3.7116
3.74427
3.77467
3.80278
3.82859
3.85211
3.87332
3.89223
3.90884
3.92317
3.93523
3.94503
3.95259
3.95795
3.96112
3.96214
3.96104
3.95785
3.95263
3.9454
3.93622
3.92512
3.91217
3.8974
3.88088
3.86265
3.84278
3.82131
3.79833
3.77388
3.74802
3.72083
3.69236
3.66268
3.63186
3.59997
3.56706
3.5332
3.49846
3.4629
3.42659
3.38959
3.35197
3.31378
3.27509
3.23595
3.19642
3.15657
3.11644
3.07608
3.03556
2.99492
2.95421
2.91347
2.87276
2.8321
2.79155
2.75114
2.71091
2.67089
2.63112
2.59162
2.55243
2.51356
2.47505
2.43692
2.39918
2.36185
2.32495
2.2885
2.25251
2.21698
2.18193
2.14737
2.11329
2.0797
2.04662
2.01402
1.98193
1.95032
1.91921
1.88859
1.85845
1.82878
1.79958
1.77084
1.74256
1.71471
1.68729
1.6603
1.63371
1.60751
1.5817
1.55626
1.53117
1.50643
1.48202
1.45792
1.43413
1.41062
1.38739
1.36441
1.34169
1.3192
1.29693
1.27487
1.253
1.23131
1.20981
1.18846
1.16727
1.14622
1.1253
1.1045
1.0838
1.06321
1.04271
1.02229
1.00194
0.981664
0.96144
0.941267
0.921136
0.901042
0.880976
0.860933
0.840906
0.820886
0.800867
0.780841
0.760801
0.740739
0.720646
0.700514
0.680334
0.660096
0.639788
0.6194
0.598916
0.578322
0.557601
0.536732
0.515694
0.494457
0.472992
0.451257
0.429206
0.406779
0.383898
0.360459
0.33632
0.311275
0.284992
0.256898
0.225864
0.18926
0.139036
0.0478322
0.416143
0.715395
0.899783
1.04245
1.16641
1.28014
1.38749
1.49044
1.59011
1.68718
1.78206
1.87502
1.96625
2.05585
2.14391
2.23046
2.31553
2.39914
2.48127
2.56192
2.64106
2.71867
2.79471
2.86914
2.94193
3.01304
3.08241
3.15001
3.21579
3.27969
3.34169
3.40172
3.45974
3.51572
3.56961
3.62136
3.67095
3.71833
3.76347
3.80635
3.84693
3.88519
3.92111
3.95467
3.98586
4.01466
4.04108
4.0651
4.08673
4.10597
4.12283
4.13731
4.14945
4.15924
4.16672
4.17191
4.17484
4.17554
4.17405
4.1704
4.16465
4.15682
4.14697
4.13515
4.1214
4.10577
4.08833
4.06913
4.04823
4.02569
4.00157
3.97593
3.94884
3.92037
3.89058
3.85954
3.82731
3.79396
3.75956
3.72418
3.68788
3.65074
3.61281
3.57416
3.53486
3.49497
3.45455
3.41366
3.37237
3.33073
3.2888
3.24663
3.20428
3.1618
3.11924
3.07665
3.03407
2.99154
2.94912
2.90684
2.86474
2.82284
2.7812
2.73984
2.69878
2.65806
2.6177
2.57773
2.53816
2.49902
2.46031
2.42207
2.38429
2.347
2.31019
2.27389
2.23808
2.20279
2.16801
2.13374
2.09999
2.06674
2.03401
2.00177
1.97004
1.9388
1.90805
1.87777
1.84796
1.8186
1.7897
1.76123
1.73318
1.70554
1.6783
1.65145
1.62497
1.59884
1.57306
1.54761
1.52247
1.49764
1.47309
1.44881
1.42479
1.40102
1.37747
1.35415
1.33103
1.3081
1.28536
1.2628
1.24039
1.21813
1.19602
1.17402
1.15215
1.13038
1.10871
1.08712
1.06562
1.04418
1.02281
1.0015
0.98023
0.959003
0.937808
0.91664
0.89549
0.874351
0.853216
0.832076
0.810924
0.789751
0.768549
0.74731
0.726024
0.70468
0.683268
0.661776
0.640189
0.618493
0.596672
0.574704
0.552567
0.530234
0.507673
0.484844
0.461698
0.438173
0.414187
0.389629
0.364343
0.338092
0.310509
0.280943
0.248122
0.209114
0.155084
0.0556743
0.416145
0.715394
0.899781
1.04245
1.16641
1.28014
1.38748
1.49043
1.59011
1.68718
1.78206
1.87502
1.96625
2.05585
2.1439
2.23045
2.31553
2.39913
2.48127
2.56192
2.64106
2.71866
2.7947
2.86914
2.94193
3.01303
3.08241
3.15001
3.21578
3.27969
3.34168
3.40171
3.45974
3.51572
3.5696
3.62136
3.67094
3.71832
3.76347
3.80634
3.84692
3.88518
3.9211
3.95466
3.98585
4.01466
4.04107
4.0651
4.08672
4.10596
4.12282
4.13731
4.14944
4.15924
4.16672
4.17191
4.17483
4.17554
4.17404
4.1704
4.16464
4.15681
4.14697
4.13514
4.12139
4.10577
4.08833
4.06913
4.04823
4.02568
4.00156
3.97593
3.94884
3.92037
3.89057
3.85953
3.8273
3.79395
3.75956
3.72418
3.68788
3.65073
3.6128
3.57416
3.53485
3.49496
3.45454
3.41366
3.37237
3.33073
3.28879
3.24663
3.20428
3.1618
3.11924
3.07664
3.03406
2.99154
2.94912
2.90684
2.86473
2.82284
2.7812
2.73983
2.69878
2.65806
2.6177
2.57773
2.53816
2.49901
2.46031
2.42207
2.38429
2.34699
2.31019
2.27388
2.23808
2.20279
2.16801
2.13374
2.09998
2.06674
2.034
2.00177
1.97004
1.9388
1.90804
1.87777
1.84795
1.8186
1.78969
1.76122
1.73318
1.70554
1.6783
1.65145
1.62497
1.59884
1.57306
1.54761
1.52247
1.49763
1.47308
1.44881
1.42479
1.40101
1.37747
1.35415
1.33103
1.3081
1.28536
1.2628
1.24039
1.21813
1.19601
1.17402
1.15215
1.13038
1.1087
1.08712
1.06562
1.04418
1.02281
1.0015
0.980229
0.959002
0.937807
0.916639
0.895489
0.874351
0.853215
0.832075
0.810923
0.78975
0.768549
0.74731
0.726023
0.704679
0.683267
0.661775
0.640188
0.618493
0.596671
0.574703
0.552566
0.530234
0.507673
0.484844
0.461698
0.438173
0.414187
0.389629
0.364343
0.338092
0.310509
0.280943
0.248122
0.209114
0.155084
0.0556746
0.470225
0.78585
0.981285
1.13203
1.26244
1.38167
1.49393
1.60143
1.70541
1.80663
1.90553
2.00241
2.09747
2.19082
2.28254
2.37268
2.46124
2.54824
2.63368
2.71752
2.79976
2.88035
2.95927
3.03648
3.11193
3.18558
3.25739
3.32731
3.39529
3.4613
3.52527
3.58718
3.64697
3.70461
3.76005
3.81325
3.86418
3.9128
3.95909
4.003
4.04453
4.08364
4.12032
4.15455
4.18632
4.21563
4.24245
4.2668
4.28868
4.30809
4.32504
4.33955
4.35163
4.36131
4.3686
4.37353
4.37614
4.37646
4.37452
4.37037
4.36405
4.35561
4.34509
4.33254
4.31801
4.30156
4.28324
4.26312
4.24125
4.2177
4.19253
4.1658
4.13758
4.10793
4.07693
4.04464
4.01114
3.97648
3.94074
3.90399
3.86629
3.82771
3.78833
3.7482
3.7074
3.66598
3.62402
3.58157
3.5387
3.49546
3.45191
3.40812
3.36413
3.32
3.27578
3.23151
3.18726
3.14305
3.09895
3.05497
3.01118
2.96759
2.92426
2.8812
2.83846
2.79605
2.75401
2.71236
2.67112
2.63031
2.58995
2.55006
2.51064
2.47172
2.43329
2.39538
2.35798
2.3211
2.28475
2.24892
2.21362
2.17884
2.14459
2.11085
2.07762
2.0449
2.01268
1.98095
1.9497
1.91892
1.8886
1.85873
1.8293
1.80029
1.77169
1.74349
1.71568
1.68823
1.66113
1.63438
1.60796
1.58184
1.55602
1.53049
1.50522
1.48021
1.45544
1.4309
1.40657
1.38245
1.35852
1.33477
1.31119
1.28776
1.26449
1.24134
1.21832
1.19541
1.17261
1.1499
1.12728
1.10473
1.08226
1.05984
1.03748
1.01516
0.992875
0.970624
0.948395
0.926181
0.903974
0.881765
0.859546
0.83731
0.815047
0.792748
0.770403
0.748004
0.725537
0.702991
0.680353
0.657607
0.634736
0.611721
0.588538
0.56516
0.541554
0.51768
0.493486
0.468907
0.443855
0.418209
0.391797
0.364358
0.335477
0.304431
0.269813
0.228417
0.170687
0.063545
0.470226
0.785849
0.981282
1.13203
1.26244
1.38166
1.49393
1.60143
1.70541
1.80662
1.90553
2.00241
2.09747
2.19082
2.28254
2.37267
2.46124
2.54824
2.63367
2.71752
2.79975
2.88035
2.95927
3.03647
3.11192
3.18557
3.25738
3.3273
3.39529
3.46129
3.52527
3.58718
3.64697
3.70461
3.76004
3.81325
3.86417
3.9128
3.95908
4.003
4.04453
4.08364
4.12032
4.15455
4.18632
4.21562
4.24245
4.2668
4.28868
4.30809
4.32504
4.33955
4.35163
4.3613
4.36859
4.37353
4.37613
4.37645
4.37452
4.37037
4.36405
4.3556
4.34508
4.33253
4.318
4.30155
4.28324
4.26312
4.24125
4.2177
4.19252
4.16579
4.13757
4.10793
4.07693
4.04464
4.01113
3.97647
3.94073
3.90398
3.86628
3.82771
3.78833
3.7482
3.7074
3.66598
3.62402
3.58157
3.53869
3.49546
3.45191
3.40812
3.36413
3.31999
3.27577
3.23151
3.18726
3.14305
3.09894
3.05497
3.01117
2.96759
2.92425
2.8812
2.83845
2.79605
2.75401
2.71235
2.67111
2.63031
2.58995
2.55005
2.51064
2.47171
2.43329
2.39538
2.35798
2.3211
2.28475
2.24892
2.21362
2.17884
2.14458
2.11085
2.07762
2.0449
2.01268
1.98095
1.9497
1.91892
1.8886
1.85873
1.8293
1.80029
1.77169
1.74349
1.71567
1.68823
1.66113
1.63438
1.60795
1.58184
1.55602
1.53049
1.50522
1.48021
1.45544
1.43089
1.40657
1.38244
1.35852
1.33477
1.31119
1.28776
1.26448
1.24134
1.21832
1.19541
1.17261
1.1499
1.12728
1.10473
1.08226
1.05984
1.03747
1.01516
0.992874
0.970623
0.948395
0.926181