/*--------------------------------*- C++ -*----------------------------------*\
  =========                 |
  \\      /  F ield         | OpenFOAM: The Open Source CFD Toolbox
   \\    /   O peration     | Website:  https://openfoam.org
    \\  /    A nd           | Version:  8
     \\/     M anipulation  |
\*---------------------------------------------------------------------------*/
FoamFile
{
    version     2.0;
    format      ascii;
    class       volScalarField;
    location    "3700";
    object      nut;
}
// * * * * * * * * * * * * * * * * * * * * * * * * * * * * * * * * * * * * * //

dimensions      [0 2 -1 0 0 0 0];

internalField   nonuniform List<scalar> 
46000
(
1.34036e-06
5.51309e-06
1.00477e-05
1.42405e-05
1.81894e-05
2.20016e-05
2.57256e-05
2.9372e-05
3.29613e-05
3.65083e-05
4.00253e-05
4.35222e-05
4.69786e-05
5.0409e-05
5.38167e-05
5.72021e-05
6.05646e-05
6.39027e-05
6.72145e-05
7.04977e-05
7.37494e-05
7.69666e-05
8.01463e-05
8.32848e-05
8.63788e-05
8.94245e-05
9.24182e-05
9.53562e-05
9.82347e-05
0.00010105
0.000103798
0.000106476
0.00010908
0.000111605
0.00011405
0.000116411
0.000118684
0.000120867
0.000122958
0.000124952
0.000126849
0.000128645
0.00013034
0.000131931
0.000133417
0.000134796
0.000136067
0.00013723
0.000138284
0.000139229
0.000140065
0.000140791
0.000141408
0.000141917
0.000142318
0.000142613
0.000142802
0.000142888
0.000142872
0.000142756
0.000142543
0.000142236
0.00014184
0.000141353
0.000140777
0.000140116
0.000139371
0.000138546
0.000137643
0.000136666
0.000135618
0.000134503
0.000133323
0.000132082
0.000130784
0.000129432
0.000128029
0.000126579
0.000125085
0.000123552
0.000121981
0.000120376
0.000118742
0.00011708
0.000115394
0.000113688
0.000111964
0.000110226
0.000108475
0.000106715
0.000104949
0.000103179
0.000101407
9.96363e-05
9.78688e-05
9.61065e-05
9.43515e-05
9.26057e-05
9.08709e-05
8.91487e-05
8.74408e-05
8.57487e-05
8.40735e-05
8.24166e-05
8.07792e-05
7.91621e-05
7.75663e-05
7.59927e-05
7.4442e-05
7.29147e-05
7.14114e-05
6.99325e-05
6.84783e-05
6.70493e-05
6.56454e-05
6.42669e-05
6.29138e-05
6.1586e-05
6.02835e-05
5.90061e-05
5.77536e-05
5.65258e-05
5.53223e-05
5.41429e-05
5.2987e-05
5.18544e-05
5.07445e-05
4.96569e-05
4.8591e-05
4.75462e-05
4.65222e-05
4.55182e-05
4.45337e-05
4.35681e-05
4.26208e-05
4.16912e-05
4.07786e-05
3.98826e-05
3.90023e-05
3.81374e-05
3.72871e-05
3.64509e-05
3.56282e-05
3.48185e-05
3.40212e-05
3.32357e-05
3.24616e-05
3.16984e-05
3.09456e-05
3.02027e-05
2.94693e-05
2.87449e-05
2.80293e-05
2.73218e-05
2.6623e-05
2.59322e-05
2.52489e-05
2.45728e-05
2.39037e-05
2.32411e-05
2.2585e-05
2.19351e-05
2.12913e-05
2.06532e-05
2.0021e-05
1.93958e-05
1.87765e-05
1.81626e-05
1.75539e-05
1.69503e-05
1.63518e-05
1.57581e-05
1.51693e-05
1.45852e-05
1.40058e-05
1.34309e-05
1.28604e-05
1.22936e-05
1.17315e-05
1.11734e-05
1.0619e-05
1.00683e-05
9.52085e-06
8.97645e-06
8.4347e-06
7.89514e-06
7.35722e-06
6.82026e-06
6.28342e-06
5.74572e-06
5.20772e-06
4.66722e-06
4.12181e-06
3.56894e-06
3.00533e-06
2.42665e-06
1.82741e-06
1.20314e-06
5.72121e-07
1.10758e-07
1.339e-06
5.50993e-06
1.00449e-05
1.42394e-05
1.81893e-05
2.20018e-05
2.57259e-05
2.93721e-05
3.29614e-05
3.65084e-05
4.00254e-05
4.35223e-05
4.69787e-05
5.04091e-05
5.38168e-05
5.72022e-05
6.05647e-05
6.39028e-05
6.72146e-05
7.04977e-05
7.37494e-05
7.69666e-05
8.01462e-05
8.32848e-05
8.63787e-05
8.94244e-05
9.24181e-05
9.53561e-05
9.82346e-05
0.00010105
0.000103798
0.000106476
0.000109079
0.000111605
0.00011405
0.000116411
0.000118684
0.000120867
0.000122957
0.000124952
0.000126849
0.000128645
0.00013034
0.000131931
0.000133416
0.000134795
0.000136067
0.00013723
0.000138284
0.000139229
0.000140064
0.00014079
0.000141408
0.000141916
0.000142318
0.000142612
0.000142802
0.000142888
0.000142872
0.000142756
0.000142543
0.000142236
0.000141839
0.000141352
0.000140777
0.000140115
0.000139371
0.000138545
0.000137643
0.000136666
0.000135618
0.000134503
0.000133323
0.000132082
0.000130784
0.000129432
0.000128029
0.000126579
0.000125085
0.000123551
0.00012198
0.000120376
0.000118741
0.00011708
0.000115394
0.000113688
0.000111964
0.000110225
0.000108475
0.000106715
0.000104949
0.000103178
0.000101407
9.96361e-05
9.78685e-05
9.61062e-05
9.43512e-05
9.26054e-05
9.08706e-05
8.91485e-05
8.74406e-05
8.57485e-05
8.40733e-05
8.24164e-05
8.0779e-05
7.91619e-05
7.75662e-05
7.59925e-05
7.44418e-05
7.29145e-05
7.14112e-05
6.99323e-05
6.84782e-05
6.70491e-05
6.56452e-05
6.42667e-05
6.29136e-05
6.15858e-05
6.02833e-05
5.90059e-05
5.77534e-05
5.65256e-05
5.53222e-05
5.41427e-05
5.29869e-05
5.18543e-05
5.07444e-05
4.96567e-05
4.85908e-05
4.75461e-05
4.65221e-05
4.55181e-05
4.45336e-05
4.3568e-05
4.26207e-05
4.16911e-05
4.07785e-05
3.98824e-05
3.90022e-05
3.81373e-05
3.7287e-05
3.64508e-05
3.56281e-05
3.48184e-05
3.40211e-05
3.32356e-05
3.24615e-05
3.16983e-05
3.09455e-05
3.02026e-05
2.94692e-05
2.87449e-05
2.80292e-05
2.73217e-05
2.66229e-05
2.59321e-05
2.52489e-05
2.45728e-05
2.39036e-05
2.32411e-05
2.2585e-05
2.19351e-05
2.12912e-05
2.06531e-05
2.00209e-05
1.93958e-05
1.87764e-05
1.81625e-05
1.75538e-05
1.69503e-05
1.63517e-05
1.57581e-05
1.51693e-05
1.45852e-05
1.40058e-05
1.34309e-05
1.28604e-05
1.22936e-05
1.17315e-05
1.11734e-05
1.0619e-05
1.00682e-05
9.52082e-06
8.97642e-06
8.43468e-06
7.89512e-06
7.3572e-06
6.82025e-06
6.2834e-06
5.7457e-06
5.20771e-06
4.66722e-06
4.12181e-06
3.56894e-06
3.00533e-06
2.42665e-06
1.82741e-06
1.20315e-06
5.72122e-07
1.10758e-07
5.03885e-06
5.13652e-05
8.75822e-05
0.000112566
0.000131872
0.000147853
0.000161579
0.000173845
0.000185076
0.000195527
0.000205359
0.000214694
0.000223627
0.000232213
0.000240491
0.000248494
0.000256247
0.000263771
0.00027108
0.000278185
0.000285097
0.000291823
0.000298367
0.000304733
0.000310925
0.000316944
0.000322791
0.000328468
0.000333973
0.000339307
0.00034447
0.000349459
0.000354275
0.000358915
0.000363379
0.000367666
0.000371775
0.000375703
0.000379451
0.000383016
0.000386398
0.000389597
0.000392611
0.000395441
0.000398085
0.000400544
0.000402818
0.000404907
0.000406812
0.000408533
0.00041007
0.000411427
0.000412602
0.000413599
0.000414419
0.000415064
0.000415535
0.000415835
0.000415967
0.000415933
0.000415736
0.000415376
0.000414856
0.000414182
0.000413358
0.00041239
0.000411279
0.000410032
0.000408652
0.000407143
0.000405511
0.000403758
0.00040189
0.000399912
0.000397827
0.000395642
0.000393359
0.000390984
0.000388523
0.000385978
0.000383356
0.00038066
0.000377896
0.000375068
0.00037218
0.000369238
0.000366244
0.000363205
0.000360124
0.000357005
0.000353853
0.000350671
0.000347463
0.000344233
0.000340985
0.000337722
0.000334449
0.000331167
0.00032788
0.000324592
0.000321304
0.000318021
0.000314744
0.000311477
0.000308221
0.000304978
0.000301751
0.000298542
0.000295352
0.000292183
0.000289036
0.000285914
0.000282816
0.000279745
0.0002767
0.000273684
0.000270696
0.000267737
0.000264808
0.000261909
0.00025904
0.000256201
0.000253392
0.000250613
0.000247864
0.000245145
0.000242454
0.000239792
0.000237158
0.000234551
0.000231971
0.000229416
0.000226887
0.000224381
0.000221899
0.000219438
0.000216998
0.000214578
0.000212177
0.000209793
0.000207425
0.000205073
0.000202734
0.000200409
0.000198094
0.00019579
0.000193495
0.000191208
0.000188927
0.000186651
0.00018438
0.000182112
0.000179846
0.000177582
0.000175317
0.00017305
0.000170779
0.000168505
0.000166226
0.00016394
0.000161647
0.000159344
0.000157031
0.000154706
0.000152365
0.000150001
0.000147622
0.000145226
0.000142812
0.00014038
0.000137926
0.000135449
0.000132948
0.000130421
0.000127864
0.000125275
0.000122651
0.00011999
0.000117286
0.000114535
0.00011173
0.000108866
0.000105935
0.000102929
9.98368e-05
9.66452e-05
9.33384e-05
8.98958e-05
8.6291e-05
8.24856e-05
7.84146e-05
7.40462e-05
6.9302e-05
6.40684e-05
5.81717e-05
5.13272e-05
4.30174e-05
3.2163e-05
1.63389e-05
5.1523e-07
5.04132e-06
5.13679e-05
8.75821e-05
0.000112567
0.000131874
0.000147856
0.000161582
0.000173848
0.000185079
0.000195531
0.000205363
0.000214697
0.000223631
0.000232216
0.000240494
0.000248498
0.000256251
0.000263775
0.000271083
0.000278189
0.000285101
0.000291827
0.000298371
0.000304737
0.000310929
0.000316948
0.000322796
0.000328472
0.000333978
0.000339312
0.000344474
0.000349464
0.000354279
0.00035892
0.000363384
0.000367671
0.00037178
0.000375708
0.000379456
0.000383021
0.000386403
0.000389602
0.000392617
0.000395446
0.000398091
0.00040055
0.000402824
0.000404912
0.000406817
0.000408538
0.000410076
0.000411432
0.000412608
0.000413605
0.000414424
0.000415069
0.00041554
0.000415841
0.000415973
0.000415939
0.000415741
0.000415381
0.000414861
0.000414187
0.000413364
0.000412395
0.000411284
0.000410037
0.000408657
0.000407148
0.000405516
0.000403763
0.000401895
0.000399917
0.000397832
0.000395646
0.000393364
0.000390989
0.000388527
0.000385983
0.00038336
0.000380665
0.0003779
0.000375072
0.000372184
0.000369242
0.000366249
0.000363209
0.000360128
0.000357009
0.000353857
0.000350674
0.000347467
0.000344237
0.000340989
0.000337726
0.000334452
0.00033117
0.000327884
0.000324595
0.000321308
0.000318025
0.000314748
0.00031148
0.000308224
0.000304981
0.000301754
0.000298545
0.000295355
0.000292186
0.000289039
0.000285916
0.000282819
0.000279747
0.000276703
0.000273687
0.000270699
0.00026774
0.000264811
0.000261911
0.000259042
0.000256203
0.000253394
0.000250615
0.000247866
0.000245147
0.000242456
0.000239794
0.00023716
0.000234553
0.000231973
0.000229418
0.000226889
0.000224383
0.0002219
0.00021944
0.000217
0.00021458
0.000212178
0.000209794
0.000207427
0.000205074
0.000202736
0.00020041
0.000198096
0.000195792
0.000193496
0.000191209
0.000188928
0.000186652
0.000184381
0.000182113
0.000179847
0.000177583
0.000175318
0.000173051
0.00017078
0.000168506
0.000166227
0.000163941
0.000161647
0.000159345
0.000157032
0.000154707
0.000152366
0.000150002
0.000147622
0.000145227
0.000142813
0.00014038
0.000137926
0.00013545
0.000132949
0.000130421
0.000127864
0.000125275
0.000122652
0.000119991
0.000117287
0.000114535
0.00011173
0.000108866
0.000105936
0.00010293
9.98373e-05
9.66457e-05
9.33388e-05
8.98963e-05
8.62914e-05
8.24859e-05
7.84149e-05
7.40465e-05
6.93024e-05
6.40686e-05
5.81719e-05
5.13274e-05
4.30176e-05
3.21632e-05
1.63389e-05
5.15231e-07
9.35668e-06
8.4757e-05
0.000157862
0.000212469
0.000254791
0.000289011
0.000317743
0.000342639
0.000364742
0.000384741
0.000403105
0.000420161
0.000436147
0.000451231
0.000465538
0.000479164
0.000492186
0.000504662
0.000516641
0.000528162
0.000539255
0.000549947
0.000560258
0.000570206
0.000579807
0.000589071
0.000598009
0.000606629
0.000614939
0.000622945
0.000630651
0.000638062
0.000645183
0.000652015
0.000658561
0.000664825
0.000670808
0.000676513
0.00068194
0.000687093
0.000691971
0.000696578
0.000700915
0.000704984
0.000708785
0.000712322
0.000715595
0.000718608
0.000721362
0.000723859
0.000726102
0.000728094
0.000729836
0.000731332
0.000732585
0.000733598
0.000734374
0.000734916
0.000735226
0.000735309
0.000735167
0.000734801
0.000734214
0.000733413
0.000732406
0.000731199
0.000729797
0.000728206
0.00072643
0.000724477
0.00072235
0.000720055
0.000717599
0.000714986
0.000712221
0.000709312
0.000706263
0.00070308
0.000699769
0.000696335
0.000692784
0.000689122
0.000685355
0.000681488
0.000677527
0.000673477
0.000669344
0.000665134
0.000660852
0.000656502
0.000652091
0.000647624
0.000643105
0.000638539
0.000633932
0.000629288
0.000624611
0.000619907
0.000615178
0.000610431
0.000605667
0.000600892
0.00059611
0.000591322
0.000586534
0.000581747
0.000576966
0.000572193
0.000567431
0.000562682
0.000557948
0.000553232
0.000548536
0.000543861
0.000539209
0.000534581
0.000529979
0.000525403
0.000520856
0.000516336
0.000511845
0.000507383
0.000502951
0.000498548
0.000494175
0.00048983
0.000485515
0.000481227
0.000476967
0.000472733
0.000468525
0.000464342
0.000460183
0.000456046
0.00045193
0.000447834
0.000443756
0.000439695
0.000435648
0.000431615
0.000427594
0.000423582
0.000419579
0.000415582
0.000411589
0.000407598
0.000403609
0.000399618
0.000395623
0.000391624
0.000387618
0.000383604
0.000379579
0.000375542
0.000371489
0.000367418
0.000363327
0.000359214
0.000355078
0.000350914
0.000346722
0.000342499
0.00033824
0.000333943
0.000329601
0.000325207
0.000320765
0.000316273
0.000311729
0.000307129
0.00030247
0.000297746
0.000292953
0.000288084
0.000283135
0.000278096
0.000272961
0.000267719
0.000262358
0.000256866
0.000251229
0.000245426
0.000239437
0.000233235
0.000226791
0.000220067
0.000213017
0.000205581
0.000197684
0.000189225
0.000180065
0.000170043
0.000158949
0.000146456
0.00013208
0.000115058
9.41211e-05
6.70815e-05
3.10652e-05
1.08643e-06
9.35763e-06
8.47607e-05
0.000157866
0.000212475
0.000254797
0.000289018
0.000317749
0.000342646
0.000364748
0.000384747
0.000403112
0.000420167
0.000436153
0.000451237
0.000465544
0.000479171
0.000492192
0.000504669
0.000516648
0.000528168
0.000539261
0.000549953
0.000560264
0.000570213
0.000579813
0.000589077
0.000598015
0.000606636
0.000614946
0.000622951
0.000630658
0.000638069
0.000645189
0.000652021
0.000658568
0.000664832
0.000670815
0.00067652
0.000681947
0.000687099
0.000691978
0.000696585
0.000700922
0.00070499
0.000708792
0.000712329
0.000715602
0.000718615
0.000721369
0.000723866
0.000726109
0.0007281
0.000729843
0.000731339
0.000732592
0.000733605
0.00073438
0.000734922
0.000735233
0.000735316
0.000735173
0.000734807
0.00073422
0.00073342
0.000732412
0.000731205
0.000729803
0.000728212
0.000726436
0.000724482
0.000722356
0.000720061
0.000717604
0.000714991
0.000712227
0.000709317
0.000706268
0.000703085
0.000699774
0.00069634
0.000692789
0.000689127
0.00068536
0.000681493
0.000677532
0.000673482
0.000669349
0.000665139
0.000660856
0.000656506
0.000652095
0.000647628
0.000643109
0.000638543
0.000633936
0.000629292
0.000624615
0.00061991
0.000615182
0.000610434
0.000605671
0.000600896
0.000596113
0.000591325
0.000586537
0.000581751
0.000576969
0.000572196
0.000567434
0.000562684
0.000557951
0.000553235
0.000548538
0.000543863
0.000539211
0.000534583
0.000529981
0.000525406
0.000520858
0.000516338
0.000511847
0.000507385
0.000502953
0.00049855
0.000494176
0.000489832
0.000485516
0.000481228
0.000476968
0.000472735
0.000468527
0.000464344
0.000460184
0.000456047
0.000451931
0.000447835
0.000443757
0.000439696
0.000435649
0.000431616
0.000427595
0.000423583
0.00041958
0.000415582
0.00041159
0.000407599
0.000403609
0.000399618
0.000395624
0.000391624
0.000387618
0.000383604
0.00037958
0.000375542
0.000371489
0.000367418
0.000363327
0.000359215
0.000355078
0.000350915
0.000346723
0.000342499
0.00033824
0.000333943
0.000329601
0.000325207
0.000320765
0.000316273
0.000311729
0.000307129
0.00030247
0.000297746
0.000292953
0.000288084
0.000283135
0.000278096
0.00027296
0.000267718
0.000262358
0.000256866
0.000251229
0.000245426
0.000239437
0.000233235
0.000226791
0.000220067
0.000213016
0.000205581
0.000197684
0.000189225
0.000180065
0.000170043
0.000158949
0.000146456
0.00013208
0.000115058
9.41212e-05
6.70816e-05
3.1065e-05
1.08643e-06
1.34844e-05
0.000108396
0.000209651
0.000291321
0.000357077
0.000411183
0.000456872
0.000496364
0.000531184
0.000562397
0.000590762
0.000616825
0.000640994
0.000663568
0.000684777
0.000704798
0.000723772
0.000741808
0.000758998
0.000775415
0.000791119
0.00080616
0.00082058
0.000834415
0.000847694
0.000860443
0.000872684
0.000884435
0.000895713
0.000906534
0.000916908
0.000926848
0.000936363
0.000945462
0.000954154
0.000962445
0.000970342
0.000977852
0.000984981
0.000991733
0.000998113
0.00100413
0.00100978
0.00101508
0.00102002
0.00102461
0.00102887
0.00103278
0.00103635
0.0010396
0.00104252
0.00104512
0.0010474
0.00104936
0.00105102
0.00105238
0.00105343
0.00105419
0.00105466
0.00105484
0.00105473
0.00105435
0.00105369
0.00105276
0.00105158
0.00105014
0.00104845
0.00104653
0.00104438
0.001042
0.0010394
0.00103659
0.00103357
0.00103035
0.00102694
0.00102335
0.00101958
0.00101563
0.00101152
0.00100724
0.00100282
0.000998246
0.000993535
0.000988692
0.000983721
0.000978631
0.000973428
0.000968118
0.000962707
0.000957202
0.000951609
0.000945934
0.000940183
0.000934362
0.000928477
0.000922534
0.000916537
0.000910493
0.000904407
0.000898283
0.000892127
0.000885944
0.000879737
0.000873512
0.000867273
0.000861024
0.000854767
0.000848508
0.00084225
0.000835995
0.000829747
0.000823508
0.000817282
0.00081107
0.000804874
0.000798696
0.000792538
0.000786402
0.000780288
0.000774198
0.000768132
0.000762091
0.000756075
0.000750085
0.00074412
0.000738179
0.000732264
0.000726372
0.000720504
0.000714658
0.000708833
0.000703028
0.000697241
0.000691471
0.000685716
0.000679975
0.000674246
0.000668526
0.000662813
0.000657106
0.000651402
0.000645699
0.000639994
0.000634285
0.00062857
0.000622846
0.000617111
0.000611362
0.000605597
0.000599812
0.000594007
0.000588179
0.000582324
0.000576438
0.000570519
0.000564562
0.000558566
0.000552526
0.000546441
0.000540305
0.000534116
0.000527869
0.000521559
0.000515181
0.000508726
0.000502189
0.000495568
0.000488859
0.000482058
0.000475158
0.000468152
0.000461032
0.000453789
0.000446413
0.000438893
0.000431214
0.000423362
0.00041532
0.000407066
0.000398577
0.000389826
0.000380779
0.000371398
0.000361637
0.000351438
0.000340735
0.000329445
0.000317463
0.000304658
0.00029086
0.00027585
0.000259342
0.000240975
0.000220232
0.000196375
0.000168322
0.000134468
9.25361e-05
4.1118e-05
1.65884e-06
1.34843e-05
0.000108399
0.000209656
0.000291328
0.000357086
0.000411193
0.000456881
0.000496373
0.000531193
0.000562407
0.000590771
0.000616835
0.000641003
0.000663577
0.000684786
0.000704807
0.000723781
0.000741817
0.000759007
0.000775424
0.000791128
0.000806169
0.000820589
0.000834424
0.000847703
0.000860452
0.000872692
0.000884444
0.000895722
0.000906542
0.000916916
0.000926856
0.000936371
0.00094547
0.000954162
0.000962453
0.000970351
0.000977861
0.000984989
0.000991741
0.000998122
0.00100414
0.00100979
0.00101508
0.00102003
0.00102462
0.00102887
0.00103279
0.00103636
0.00103961
0.00104253
0.00104513
0.0010474
0.00104937
0.00105103
0.00105238
0.00105344
0.0010542
0.00105466
0.00105484
0.00105474
0.00105436
0.0010537
0.00105277
0.00105158
0.00105014
0.00104846
0.00104654
0.00104438
0.001042
0.0010394
0.00103659
0.00103357
0.00103036
0.00102695
0.00102335
0.00101958
0.00101563
0.00101152
0.00100725
0.00100282
0.000998251
0.00099354
0.000988696
0.000983726
0.000978636
0.000973433
0.000968122
0.000962711
0.000957206
0.000951613
0.000945938
0.000940187
0.000934366
0.000928481
0.000922537
0.000916541
0.000910497
0.00090441
0.000898286
0.00089213
0.000885947
0.00087974
0.000873515
0.000867276
0.000861026
0.00085477
0.000848511
0.000842252
0.000835997
0.000829749
0.00082351
0.000817284
0.000811071
0.000804875
0.000798698
0.00079254
0.000786404
0.00078029
0.000774199
0.000768133
0.000762092
0.000756076
0.000750086
0.00074412
0.00073818
0.000732265
0.000726373
0.000720505
0.000714658
0.000708833
0.000703028
0.000697241
0.000691471
0.000685717
0.000679976
0.000674246
0.000668526
0.000662813
0.000657106
0.000651402
0.000645699
0.000639994
0.000634285
0.00062857
0.000622846
0.000617111
0.000611362
0.000605596
0.000599812
0.000594007
0.000588178
0.000582323
0.000576438
0.000570518
0.000564562
0.000558565
0.000552526
0.00054644
0.000540305
0.000534115
0.000527868
0.000521558
0.00051518
0.000508726
0.000502188
0.000495567
0.000488858
0.000482057
0.000475157
0.000468151
0.000461031
0.000453788
0.000446413
0.000438892
0.000431213
0.000423361
0.000415319
0.000407065
0.000398576
0.000389825
0.000380779
0.000371398
0.000361636
0.000351438
0.000340735
0.000329444
0.000317462
0.000304657
0.00029086
0.00027585
0.000259341
0.000240975
0.000220232
0.000196375
0.000168323
0.000134468
9.25361e-05
4.11178e-05
1.65885e-06
1.74666e-05
0.000127373
0.000250432
0.000354929
0.000441896
0.000515034
0.000577563
0.000631923
0.000679919
0.000722879
0.000761789
0.000797386
0.000830229
0.000860745
0.000889266
0.000916052
0.000941308
0.000965202
0.000987868
0.00100942
0.00102994
0.00104952
0.00106822
0.00108608
0.00110317
0.00111951
0.00113515
0.00115012
0.00116444
0.00117813
0.00119122
0.00120372
0.00121566
0.00122705
0.0012379
0.00124822
0.00125803
0.00126734
0.00127616
0.00128449
0.00129235
0.00129975
0.00130669
0.00131318
0.00131923
0.00132485
0.00133004
0.00133481
0.00133917
0.00134313
0.00134668
0.00134984
0.00135262
0.00135502
0.00135704
0.0013587
0.00136
0.00136094
0.00136153
0.00136178
0.00136169
0.00136127
0.00136052
0.00135946
0.00135808
0.0013564
0.00135443
0.00135218
0.00134965
0.00134685
0.00134378
0.00134047
0.00133691
0.00133311
0.00132908
0.00132483
0.00132036
0.00131568
0.0013108
0.00130573
0.00130048
0.00129504
0.00128944
0.00128367
0.00127775
0.00127168
0.00126547
0.00125912
0.00125265
0.00124606
0.00123936
0.00123255
0.00122565
0.00121865
0.00121157
0.00120441
0.00119718
0.00118989
0.00118253
0.00117512
0.00116767
0.00116017
0.00115263
0.00114506
0.00113747
0.00112985
0.00112222
0.00111457
0.00110691
0.00109925
0.00109158
0.00108392
0.00107626
0.0010686
0.00106096
0.00105332
0.0010457
0.00103809
0.0010305
0.00102293
0.00101538
0.00100784
0.00100033
0.000992833
0.000985356
0.000977899
0.000970461
0.00096304
0.000955637
0.000948249
0.000940875
0.000933514
0.000926164
0.000918824
0.00091149
0.000904162
0.000896836
0.000889511
0.000882183
0.000874851
0.000867511
0.00086016
0.000852797
0.000845417
0.000838018
0.000830596
0.00082315
0.000815675
0.000808169
0.000800628
0.000793049
0.00078543
0.000777765
0.000770051
0.000762283
0.000754457
0.000746569
0.000738615
0.00073059
0.00072249
0.000714309
0.000706042
0.000697682
0.000689222
0.000680654
0.000671968
0.00066316
0.000654224
0.000645152
0.000635934
0.00062656
0.000617017
0.000607292
0.000597371
0.000587234
0.000576862
0.000566233
0.00055532
0.000544093
0.000532516
0.000520548
0.000508141
0.000495237
0.000481768
0.000467653
0.000452792
0.000437064
0.000420321
0.00040238
0.000383006
0.000361905
0.000338694
0.000312886
0.000283832
0.000250643
0.000212104
0.000166581
0.000112145
4.89175e-05
2.21949e-06
1.74665e-05
0.000127375
0.000250438
0.000354938
0.000441906
0.000515045
0.000577574
0.000631935
0.000679931
0.000722891
0.000761801
0.000797398
0.000830241
0.000860757
0.000889278
0.000916064
0.00094132
0.000965214
0.00098788
0.00100943
0.00102995
0.00104953
0.00106823
0.00108609
0.00110318
0.00111952
0.00113516
0.00115013
0.00116445
0.00117814
0.00119123
0.00120373
0.00121567
0.00122706
0.00123791
0.00124823
0.00125804
0.00126735
0.00127617
0.0012845
0.00129236
0.00129976
0.0013067
0.00131319
0.00131924
0.00132486
0.00133005
0.00133482
0.00133918
0.00134314
0.00134669
0.00134985
0.00135263
0.00135503
0.00135705
0.00135871
0.00136001
0.00136095
0.00136154
0.00136179
0.0013617
0.00136128
0.00136053
0.00135946
0.00135809
0.00135641
0.00135444
0.00135218
0.00134965
0.00134685
0.00134379
0.00134048
0.00133692
0.00133312
0.00132909
0.00132483
0.00132036
0.00131569
0.00131081
0.00130574
0.00130048
0.00129505
0.00128944
0.00128368
0.00127775
0.00127168
0.00126547
0.00125913
0.00125266
0.00124607
0.00123936
0.00123256
0.00122565
0.00121866
0.00121158
0.00120442
0.00119719
0.00118989
0.00118254
0.00117513
0.00116767
0.00116017
0.00115263
0.00114507
0.00113747
0.00112986
0.00112222
0.00111457
0.00110691
0.00109925
0.00109158
0.00108392
0.00107626
0.0010686
0.00106096
0.00105332
0.0010457
0.0010381
0.00103051
0.00102293
0.00101538
0.00100784
0.00100033
0.000992834
0.000985357
0.0009779
0.000970462
0.000963041
0.000955637
0.000948249
0.000940875
0.000933514
0.000926165
0.000918824
0.000911491
0.000904162
0.000896836
0.000889511
0.000882183
0.000874851
0.000867511
0.00086016
0.000852796
0.000845416
0.000838017
0.000830596
0.000823149
0.000815674
0.000808168
0.000800627
0.000793049
0.000785429
0.000777764
0.00077005
0.000762282
0.000754456
0.000746568
0.000738614
0.000730589
0.000722489
0.000714308
0.000706041
0.000697681
0.000689221
0.000680652
0.000671967
0.000663159
0.000654223
0.000645151
0.000635933
0.000626559
0.000617016
0.000607291
0.000597369
0.000587233
0.000576861
0.000566232
0.000555319
0.000544092
0.000532515
0.000520547
0.00050814
0.000495236
0.000481767
0.000467652
0.000452791
0.000437063
0.00042032
0.000402379
0.000383006
0.000361904
0.000338694
0.000312885
0.000283832
0.000250643
0.000212104
0.000166581
0.000112145
4.89172e-05
2.2195e-06
2.13757e-05
0.00014355
0.000284179
0.000407974
0.000513719
0.000604304
0.000682702
0.000751379
0.000812269
0.000866862
0.000916305
0.000961483
0.00100308
0.00104164
0.00107757
0.00111122
0.00114285
0.00117269
0.00120092
0.00122767
0.00125308
0.00127725
0.00130027
0.00132221
0.00134314
0.00136311
0.00138217
0.00140036
0.00141773
0.0014343
0.0014501
0.00146517
0.00147953
0.00149319
0.00150618
0.00151851
0.00153022
0.0015413
0.00155178
0.00156166
0.00157097
0.00157972
0.00158791
0.00159556
0.00160268
0.00160928
0.00161537
0.00162096
0.00162607
0.00163069
0.00163484
0.00163853
0.00164176
0.00164456
0.00164691
0.00164884
0.00165034
0.00165143
0.00165212
0.00165241
0.00165231
0.00165183
0.00165097
0.00164975
0.00164817
0.00164624
0.00164398
0.00164139
0.00163848
0.00163526
0.00163174
0.00162792
0.00162383
0.00161946
0.00161482
0.00160993
0.00160479
0.00159941
0.00159379
0.00158795
0.0015819
0.00157564
0.00156918
0.00156254
0.00155571
0.0015487
0.00154154
0.00153421
0.00152674
0.00151912
0.00151138
0.0015035
0.00149551
0.00148741
0.00147921
0.00147091
0.00146252
0.00145405
0.0014455
0.00143689
0.00142822
0.00141949
0.00141071
0.00140189
0.00139302
0.00138413
0.00137521
0.00136626
0.0013573
0.00134832
0.00133933
0.00133033
0.00132133
0.00131233
0.00130333
0.00129433
0.00128535
0.00127637
0.0012674
0.00125844
0.00124949
0.00124056
0.00123164
0.00122273
0.00121384
0.00120496
0.00119609
0.00118723
0.00117838
0.00116954
0.00116071
0.00115188
0.00114305
0.00113423
0.0011254
0.00111657
0.00110773
0.00109888
0.00109002
0.00108115
0.00107225
0.00106333
0.00105439
0.00104541
0.00103641
0.00102736
0.00101828
0.00100915
0.000999976
0.000990749
0.000981467
0.000972125
0.000962719
0.000953242
0.000943691
0.00093406
0.000924344
0.000914538
0.000904636
0.000894631
0.000884518
0.000874289
0.000863936
0.000853449
0.00084282
0.000832038
0.000821094
0.00080998
0.000798683
0.000787191
0.00077549
0.000763564
0.000751393
0.000738958
0.000726234
0.000713194
0.000699809
0.000686042
0.000671853
0.000657194
0.000642011
0.00062624
0.000609805
0.000592616
0.000574567
0.000555529
0.000535349
0.000513837
0.000490762
0.000465835
0.000438701
0.000408904
0.00037587
0.00033887
0.000296944
0.00024886
0.0001931
0.000128178
5.54494e-05
2.77207e-06
2.13757e-05
0.000143552
0.000284185
0.000407983
0.00051373
0.000604316
0.000682716
0.000751393
0.000812283
0.000866876
0.00091632
0.000961498
0.0010031
0.00104165
0.00107759
0.00111123
0.00114287
0.00117271
0.00120093
0.00122768
0.00125309
0.00127726
0.00130028
0.00132222
0.00134315
0.00136312
0.00138218
0.00140037
0.00141774
0.00143431
0.00145012
0.00146518
0.00147954
0.0014932
0.00150619
0.00151853
0.00153023
0.00154131
0.00155179
0.00156167
0.00157098
0.00157973
0.00158792
0.00159557
0.00160269
0.00160929
0.00161538
0.00162097
0.00162608
0.0016307
0.00163485
0.00163854
0.00164177
0.00164456
0.00164692
0.00164884
0.00165035
0.00165144
0.00165213
0.00165242
0.00165232
0.00165184
0.00165098
0.00164976
0.00164818
0.00164625
0.00164398
0.00164139
0.00163848
0.00163526
0.00163174
0.00162793
0.00162384
0.00161947
0.00161483
0.00160994
0.00160479
0.00159941
0.0015938
0.00158796
0.00158191
0.00157565
0.00156919
0.00156254
0.00155571
0.00154871
0.00154154
0.00153422
0.00152674
0.00151913
0.00151138
0.00150351
0.00149551
0.00148741
0.00147921
0.00147091
0.00146252
0.00145405
0.00144551
0.00143689
0.00142822
0.00141949
0.00141071
0.00140189
0.00139303
0.00138413
0.00137521
0.00136626
0.0013573
0.00134832
0.00133933
0.00133033
0.00132133
0.00131233
0.00130333
0.00129434
0.00128535
0.00127637
0.0012674
0.00125844
0.00124949
0.00124056
0.00123164
0.00122273
0.00121384
0.00120496
0.00119609
0.00118723
0.00117838
0.00116954
0.00116071
0.00115188
0.00114305
0.00113423
0.0011254
0.00111657
0.00110773
0.00109888
0.00109002
0.00108115
0.00107225
0.00106333
0.00105439
0.00104541
0.00103641
0.00102736
0.00101828
0.00100915
0.000999976
0.000990749
0.000981467
0.000972125
0.000962718
0.000953242
0.00094369
0.000934059
0.000924343
0.000914537
0.000904635
0.00089463
0.000884517
0.000874288
0.000863935
0.000853448
0.000842819
0.000832037
0.000821093
0.000809979
0.000798682
0.00078719
0.000775489
0.000763563
0.000751392
0.000738957
0.000726233
0.000713193
0.000699808
0.000686041
0.000671852
0.000657193
0.00064201
0.000626239
0.000609804
0.000592615
0.000574566
0.000555529
0.000535348
0.000513836
0.000490761
0.000465835
0.0004387
0.000408904
0.000375871
0.00033887
0.000296944
0.000248861
0.0001931
0.000128178
5.54492e-05
2.77208e-06
2.52292e-05
0.000157828
0.000313241
0.000453581
0.000575882
0.000682222
0.00077525
0.000857351
0.000930496
0.000996267
0.00105592
0.00111044
0.00116063
0.00120709
0.00125034
0.00129078
0.00132873
0.00136446
0.0013982
0.00143012
0.00146038
0.00148911
0.00151642
0.0015424
0.00156714
0.00159071
0.00161316
0.00163456
0.00165494
0.00167436
0.00169286
0.00171046
0.0017272
0.0017431
0.0017582
0.00177252
0.00178608
0.0017989
0.001811
0.00182241
0.00183313
0.00184318
0.00185259
0.00186136
0.00186951
0.00187706
0.00188401
0.00189039
0.0018962
0.00190145
0.00190616
0.00191034
0.001914
0.00191715
0.0019198
0.00192196
0.00192364
0.00192486
0.00192562
0.00192592
0.00192579
0.00192523
0.00192424
0.00192284
0.00192104
0.00191885
0.00191628
0.00191335
0.00191005
0.00190641
0.00190243
0.00189812
0.0018935
0.00188857
0.00188333
0.00187781
0.00187201
0.00186594
0.00185961
0.00185303
0.0018462
0.00183915
0.00183187
0.00182437
0.00181667
0.00180878
0.00180069
0.00179243
0.001784
0.00177541
0.00176666
0.00175777
0.00174875
0.0017396
0.00173033
0.00172095
0.00171147
0.00170189
0.00169222
0.00168248
0.00167265
0.00166277
0.00165282
0.00164281
0.00163276
0.00162267
0.00161254
0.00160238
0.00159219
0.00158197
0.00157174
0.0015615
0.00155125
0.00154098
0.00153072
0.00152045
0.00151018
0.00149992