/*--------------------------------*- C++ -*----------------------------------*\
  =========                 |
  \\      /  F ield         | OpenFOAM: The Open Source CFD Toolbox
   \\    /   O peration     | Website:  https://openfoam.org
    \\  /    A nd           | Version:  8
     \\/     M anipulation  |
\*---------------------------------------------------------------------------*/
FoamFile
{
    version     2.0;
    format      ascii;
    class       surfaceScalarField;
    location    "3700";
    object      phi;
}
// * * * * * * * * * * * * * * * * * * * * * * * * * * * * * * * * * * * * * //

dimensions      [1 0 -1 0 0 0 0];

internalField   nonuniform List<scalar> 
114370
(
6.05898e-10
7.55423e-14
-6.0597e-10
1.57479e-09
-4.14724e-12
-9.50449e-10
2.38885e-09
-3.56543e-12
-8.19235e-10
2.88764e-09
-1.776e-12
-5.00475e-10
3.06323e-09
-5.63572e-13
-1.76003e-10
2.95613e-09
-4.24596e-14
1.06834e-10
2.6176e-09
9.5938e-14
3.38174e-10
2.09547e-09
9.42951e-14
5.2172e-10
1.42954e-09
6.3599e-14
6.65524e-10
6.51516e-10
3.7912e-14
7.77643e-10
-2.13234e-10
2.18944e-14
8.64399e-10
-1.14386e-09
1.30139e-14
9.303e-10
-2.12381e-09
8.63305e-15
9.79651e-10
-3.14044e-09
6.86976e-15
1.01635e-09
-4.18354e-09
6.45003e-15
1.04284e-09
-5.24484e-09
6.56546e-15
1.06106e-09
-6.31757e-09
6.73673e-15
1.07249e-09
-7.3961e-09
6.73941e-15
1.07832e-09
-8.47576e-09
6.53534e-15
1.07946e-09
-9.55261e-09
6.18837e-15
1.07665e-09
-1.06233e-08
5.7872e-15
1.0705e-09
-1.16849e-08
5.4012e-15
1.06148e-09
-1.27351e-08
5.06671e-15
1.04998e-09
-1.37715e-08
4.78654e-15
1.03633e-09
-1.47925e-08
4.54399e-15
1.02078e-09
-1.57962e-08
4.31586e-15
1.00356e-09
-1.67811e-08
4.08361e-15
9.84853e-10
-1.7746e-08
3.83977e-15
9.64809e-10
-1.86897e-08
3.58497e-15
9.43564e-10
-1.9611e-08
3.32714e-15
9.21231e-10
-2.0509e-08
3.07581e-15
8.9791e-10
-2.13828e-08
2.84118e-15
8.73688e-10
-2.22315e-08
2.6284e-15
8.48643e-10
-2.30544e-08
2.43953e-15
8.22845e-10
-2.38509e-08
2.27245e-15
7.96358e-10
-2.46202e-08
2.12157e-15
7.69242e-10
-2.53618e-08
1.97986e-15
7.41553e-10
-2.60752e-08
1.84081e-15
7.13342e-10
-2.67599e-08
1.69905e-15
6.8466e-10
-2.74155e-08
1.55078e-15
6.55556e-10
-2.80416e-08
1.39541e-15
6.26076e-10
-2.86379e-08
1.23706e-15
5.96266e-10
-2.92041e-08
1.08228e-15
5.66171e-10
-2.97399e-08
9.38948e-16
5.35835e-10
-3.02453e-08
8.15834e-16
5.05302e-10
-3.07199e-08
7.1885e-16
4.74615e-10
-3.11637e-08
6.50922e-16
4.43818e-10
-3.15767e-08
6.10099e-16
4.12953e-10
-3.19588e-08
5.91666e-16
3.82062e-10
-3.231e-08
5.87164e-16
3.51188e-10
-3.26304e-08
5.86891e-16
3.20372e-10
-3.29201e-08
5.81468e-16
2.89655e-10
-3.31792e-08
5.63089e-16
2.59079e-10
-3.34079e-08
5.27092e-16
2.28684e-10
-3.36064e-08
4.7288e-16
1.98509e-10
-3.3775e-08
4.01538e-16
1.68595e-10
-3.3914e-08
3.19787e-16
1.38979e-10
-3.40237e-08
2.33212e-16
1.09701e-10
-3.41045e-08
1.51082e-16
8.0796e-11
-3.41569e-08
7.94694e-17
5.22987e-11
-3.41811e-08
2.45532e-17
2.4239e-11
-3.41778e-08
-1.04678e-17
-3.35188e-12
-3.41474e-08
-2.60816e-17
-3.0439e-11
-3.40904e-08
-2.46734e-17
-5.6994e-11
-3.40074e-08
-1.02006e-17
-8.29961e-11
-3.3899e-08
1.31084e-17
-1.08421e-10
-3.37658e-08
4.1459e-17
-1.33241e-10
-3.36084e-08
7.16527e-17
-1.57429e-10
-3.34275e-08
1.02226e-16
-1.80961e-10
-3.32237e-08
1.31498e-16
-2.03815e-10
-3.29977e-08
1.60337e-16
-2.25971e-10
-3.27503e-08
1.87386e-16
-2.4741e-10
-3.24822e-08
2.13352e-16
-2.68116e-10
-3.21942e-08
2.37799e-16
-2.88075e-10
-3.1887e-08
2.6062e-16
-3.07274e-10
-3.15613e-08
2.8149e-16
-3.25703e-10
-3.1218e-08
3.00408e-16
-3.43352e-10
-3.08578e-08
3.18729e-16
-3.60213e-10
-3.04816e-08
3.36455e-16
-3.76282e-10
-3.009e-08
3.55915e-16
-3.91554e-10
-2.96841e-08
3.77001e-16
-4.06026e-10
-2.92644e-08
4.01069e-16
-4.19698e-10
-2.88319e-08
4.28715e-16
-4.3257e-10
-2.83873e-08
4.59017e-16
-4.44645e-10
-2.79314e-08
4.92572e-16
-4.55926e-10
-2.7465e-08
5.28946e-16
-4.66419e-10
-2.6989e-08
5.66024e-16
-4.7613e-10
-2.6504e-08
6.03753e-16
-4.85066e-10
-2.60108e-08
6.41699e-16
-4.93238e-10
-2.55102e-08
6.78615e-16
-5.00656e-10
-2.50029e-08
7.14664e-16
-5.0733e-10
-2.44897e-08
7.48327e-16
-5.13275e-10
-2.39713e-08
7.80635e-16
-5.18503e-10
-2.34483e-08
8.10395e-16
-5.23029e-10
-2.29215e-08
8.38258e-16
-5.2687e-10
-2.23915e-08
8.63573e-16
-5.30041e-10
-2.18591e-08
8.86557e-16
-5.32559e-10
-2.13247e-08
9.07264e-16
-5.34444e-10
-2.07891e-08
9.26237e-16
-5.35712e-10
-2.02528e-08
9.43692e-16
-5.36385e-10
-1.97164e-08
9.60063e-16
-5.3648e-10
-1.91804e-08
9.75132e-16
-5.36019e-10
-1.86455e-08
9.88684e-16
-5.35021e-10
-1.81121e-08
1.00148e-15
-5.33507e-10
-1.75807e-08
1.01254e-15
-5.31498e-10
-1.70518e-08
1.02251e-15
-5.29014e-10
-1.65258e-08
1.03032e-15
-5.26077e-10
-1.60032e-08
1.03574e-15
-5.22708e-10
-1.54843e-08
1.03953e-15
-5.18926e-10
-1.49697e-08
1.0404e-15
-5.14753e-10
-1.44596e-08
1.0379e-15
-5.10208e-10
-1.39544e-08
1.03205e-15
-5.05312e-10
-1.34544e-08
1.02338e-15
-5.00083e-10
-1.296e-08
1.0108e-15
-4.9454e-10
-1.24714e-08
9.9497e-16
-4.88703e-10
-1.19889e-08
9.75455e-16
-4.82587e-10
-1.15128e-08
9.51603e-16
-4.7621e-10
-1.10433e-08
9.2504e-16
-4.69589e-10
-1.05807e-08
8.94141e-16
-4.62739e-10
-1.01252e-08
8.59664e-16
-4.55673e-10
-9.67688e-09
8.21826e-16
-4.48406e-10
-9.23605e-09
7.80193e-16
-4.40951e-10
-8.80286e-09
7.34549e-16
-4.33318e-10
-8.37746e-09
6.84785e-16
-4.25519e-10
-7.96002e-09
6.31443e-16
-4.17563e-10
-7.55069e-09
5.73547e-16
-4.09459e-10
-7.1496e-09
5.12073e-16
-4.01214e-10
-6.75688e-09
4.46154e-16
-3.92835e-10
-6.37268e-09
3.76983e-16
-3.84327e-10
-5.99711e-09
3.05426e-16
-3.75695e-10
-5.63029e-09
2.30182e-16
-3.66942e-10
-5.27234e-09
1.5277e-16
-3.58071e-10
-4.92338e-09
7.30813e-17
-3.49082e-10
-4.58353e-09
-9.10149e-18
-3.39977e-10
-4.25289e-09
-9.21519e-17
-3.30756e-10
-3.93159e-09
-1.76504e-16
-3.21418e-10
-3.61975e-09
-2.61831e-16
-3.11961e-10
-3.31748e-09
-3.47159e-16
-3.02383e-10
-3.02492e-09
-4.33247e-16
-2.92682e-10
-2.74218e-09
-5.17383e-16
-2.82854e-10
-2.46939e-09
-6.00652e-16
-2.72898e-10
-2.20669e-09
-6.83055e-16
-2.62809e-10
-1.95421e-09
-7.6394e-16
-2.52585e-10
-1.71209e-09
-8.4179e-16
-2.42223e-10
-1.48048e-09
-9.17689e-16
-2.31721e-10
-1.2595e-09
-9.89686e-16
-2.21077e-10
-1.04931e-09
-1.05865e-15
-2.1029e-10
-8.50044e-10
-1.12306e-15
-1.99359e-10
-6.61848e-10
-1.18356e-15
-1.88288e-10
-4.8486e-10
-1.23973e-15
-1.77078e-10
-3.19211e-10
-1.29049e-15
-1.65736e-10
-1.65019e-10
-1.3356e-15
-1.54275e-10
-2.23826e-11
-1.37334e-15
-1.42717e-10
1.08576e-10
-1.40566e-15
-1.31036e-10
2.27728e-10
-1.42996e-15
-1.19226e-10
3.34984e-10
-1.44711e-15
-1.07326e-10
4.30271e-10
-1.45797e-15
-9.53551e-11
5.1354e-10
-1.45798e-15
-8.33335e-11
5.84763e-10
-1.44716e-15
-7.12843e-11
6.43938e-10
-1.42615e-15
-5.92333e-11
6.91092e-10
-1.39169e-15
-4.72093e-11
7.26285e-10
-1.3451e-15
-3.52451e-11
7.49612e-10
-1.28527e-15
-2.3377e-11
7.61211e-10
-1.21309e-15
-1.16457e-11
7.61262e-10
-1.12856e-15
-9.5948e-14
7.49987e-10
-1.03276e-15
1.12314e-11
7.27657e-10
-9.22202e-16
2.22892e-11
6.94599e-10
-7.99288e-16
3.30184e-11
6.51201e-10
-6.64234e-16
4.33596e-11
5.97915e-10
-5.12268e-16
5.32488e-11
5.3526e-10
-3.4686e-16
6.26175e-11
4.6383e-10
-1.66925e-16
7.13928e-11
3.84296e-10
2.27647e-17
7.94969e-11
2.97411e-10
2.21343e-16
8.68468e-11
2.04017e-10
4.25558e-16
9.33544e-11
1.0505e-10
6.32373e-16
9.8925e-11
1.54674e-12
8.46777e-16
1.0346e-10
-1.05332e-10
1.07224e-15
1.06832e-10
-2.14304e-10
1.317e-15
1.08921e-10
-3.23968e-10
1.59342e-15
1.09611e-10
-4.32802e-10
1.91386e-15
1.08777e-10
-5.39138e-10
2.28049e-15
1.06274e-10
-6.41132e-10
2.68485e-15
1.01927e-10
-7.36772e-10
3.10721e-15
9.55671e-11
-8.23849e-10
3.517e-15
8.69978e-11
-8.99944e-10
3.88776e-15
7.60077e-11
-9.62411e-10
4.21732e-15
6.23709e-11
-1.00836e-09
4.53518e-15
4.58487e-11
-1.03468e-09
4.89642e-15
2.6205e-11
-1.03804e-09
5.33443e-15
3.22977e-12
-1.015e-09
5.83317e-15
-2.31761e-11
-9.62203e-10
6.34059e-15
-5.29395e-11
-8.76707e-10
6.84327e-15
-8.56553e-11
-7.56691e-10
7.45658e-15
-1.20189e-10
-6.02881e-10
8.41775e-15
-1.54e-10
-4.2121e-10
9.89203e-15
-1.8188e-10
-2.2771e-10
1.17415e-14
-1.93732e-10
-5.73306e-11
1.31679e-14
-1.7064e-10
2.98176e-11
1.26792e-14
-8.74498e-11
6.0323e-15
2.94727e-11
5.93284e-10
-5.94136e-10
1.57574e-09
-9.42476e-10
2.39243e-09
-8.15468e-10
2.8894e-09
-4.99212e-10
3.06356e-09
-1.75764e-10
2.95593e-09
1.06782e-10
2.61734e-09
3.38084e-10
2.09529e-09
5.21648e-10
1.42945e-09
6.65468e-10
6.5148e-10
7.77597e-10
-2.13241e-10
8.64357e-10
-1.14385e-09
9.30262e-10
-2.1238e-09
9.79616e-10
-3.14043e-09
1.01631e-09
-4.18353e-09
1.04281e-09
-5.24483e-09
1.06103e-09
-6.31756e-09
1.07247e-09
-7.39609e-09
1.07829e-09
-8.47575e-09
1.07944e-09
-9.55259e-09
1.07663e-09
-1.06233e-08
1.07048e-09
-1.16849e-08
1.06146e-09
-1.27351e-08
1.04997e-09
-1.37715e-08
1.03631e-09
-1.47924e-08
1.02077e-09
-1.57961e-08
1.00355e-09
-1.67811e-08
9.84839e-10
-1.7746e-08
9.64797e-10
-1.86897e-08
9.43553e-10
-1.9611e-08
9.21221e-10
-2.0509e-08
8.97901e-10
-2.13828e-08
8.73679e-10
-2.22315e-08
8.48635e-10
-2.30544e-08
8.22838e-10
-2.38508e-08
7.96352e-10
-2.46201e-08
7.69236e-10
-2.53617e-08
7.41547e-10
-2.60751e-08
7.13337e-10
-2.67598e-08
6.84656e-10
-2.74154e-08
6.55552e-10
-2.80415e-08
6.26072e-10
-2.86378e-08
5.96262e-10
-2.9204e-08
5.66167e-10
-2.97399e-08
5.35831e-10
-3.02452e-08
5.05298e-10
-3.07198e-08
4.74612e-10
-3.11637e-08
4.43815e-10
-3.15767e-08
4.1295e-10
-3.19587e-08
3.82059e-10
-3.231e-08
3.51185e-10
-3.26303e-08
3.20369e-10
-3.292e-08
2.89653e-10
-3.31791e-08
2.59077e-10
-3.34078e-08
2.28681e-10
-3.36063e-08
1.98507e-10
-3.3775e-08
1.68592e-10
-3.39139e-08
1.38976e-10
-3.40237e-08
1.09698e-10
-3.41045e-08
8.07928e-11
-3.41568e-08
5.22954e-11
-3.41811e-08
2.42356e-11
-3.41777e-08
-3.35545e-12
-3.41473e-08
-3.04427e-11
-3.40903e-08
-5.69978e-11
-3.40074e-08
-8.3e-11
-3.3899e-08
-1.08425e-10
-3.37657e-08
-1.33245e-10
-3.36083e-08
-1.57433e-10
-3.34274e-08
-1.80966e-10
-3.32236e-08
-2.0382e-10
-3.29977e-08
-2.25976e-10
-3.27503e-08
-2.47415e-10
-3.24822e-08
-2.68121e-10
-3.21941e-08
-2.8808e-10
-3.18869e-08
-3.0728e-10
-3.15612e-08
-3.25709e-10
-3.12179e-08
-3.43358e-10
-3.08577e-08
-3.6022e-10
-3.04815e-08
-3.76289e-10
-3.009e-08
-3.91561e-10
-2.9684e-08
-4.06033e-10
-2.92644e-08
-4.19705e-10
-2.88318e-08
-4.32578e-10
-2.83872e-08
-4.44653e-10
-2.79314e-08
-4.55934e-10
-2.7465e-08
-4.66427e-10
-2.69889e-08
-4.76138e-10
-2.65039e-08
-4.85075e-10
-2.60107e-08
-4.93247e-10
-2.55101e-08
-5.00665e-10
-2.50029e-08
-5.0734e-10
-2.44897e-08
-5.13285e-10
-2.39712e-08
-5.18513e-10
-2.34483e-08
-5.2304e-10
-2.29215e-08
-5.2688e-10
-2.23915e-08
-5.30051e-10
-2.1859e-08
-5.3257e-10
-2.13246e-08
-5.34455e-10
-2.0789e-08
-5.35724e-10
-2.02527e-08
-5.36397e-10
-1.97163e-08
-5.36492e-10
-1.91804e-08
-5.36031e-10
-1.86455e-08
-5.35034e-10
-1.8112e-08
-5.3352e-10
-1.75806e-08
-5.31511e-10
-1.70517e-08
-5.29028e-10
-1.65257e-08
-5.26091e-10
-1.60031e-08
-5.22722e-10
-1.54843e-08
-5.18941e-10
-1.49697e-08
-5.14768e-10
-1.44596e-08
-5.10223e-10
-1.39544e-08
-5.05327e-10
-1.34544e-08
-5.00099e-10
-1.29599e-08
-4.94556e-10
-1.24714e-08
-4.88719e-10
-1.19889e-08
-4.82603e-10
-1.15128e-08
-4.76227e-10
-1.10433e-08
-4.69606e-10
-1.05807e-08
-4.62756e-10
-1.01251e-08
-4.55691e-10
-9.67686e-09
-4.48424e-10
-9.23603e-09
-4.40969e-10
-8.80283e-09
-4.33336e-10
-8.37743e-09
-4.25537e-10
-7.96e-09
-4.17581e-10
-7.55066e-09
-4.09477e-10
-7.14957e-09
-4.01233e-10
-6.75686e-09
-3.92854e-10
-6.37266e-09
-3.84346e-10
-5.99708e-09
-3.75714e-10
-5.63027e-09
-3.66961e-10
-5.27232e-09
-3.58089e-10
-4.92336e-09
-3.49101e-10
-4.5835e-09
-3.39996e-10
-4.25287e-09
-3.30775e-10
-3.93157e-09
-3.21437e-10
-3.61973e-09
-3.1198e-10
-3.31746e-09
-3.02402e-10
-3.02489e-09
-2.927e-10
-2.74215e-09
-2.82873e-10
-2.46937e-09
-2.72916e-10
-2.20667e-09
-2.62827e-10
-1.95419e-09
-2.52603e-10
-1.71207e-09
-2.42241e-10
-1.48045e-09
-2.31739e-10
-1.25948e-09
-2.21094e-10
-1.04928e-09
-2.10307e-10
-8.5002e-10
-1.99376e-10
-6.61824e-10
-1.88304e-10
-4.84836e-10
-1.77094e-10
-3.19187e-10
-1.65752e-10
-1.64995e-10
-1.54291e-10
-2.23587e-11
-1.42733e-10
1.086e-10
-1.31051e-10
2.27752e-10
-1.19241e-10
3.35007e-10
-1.0734e-10
4.30295e-10
-9.53688e-11
5.13564e-10
-8.33468e-11
5.84787e-10
-7.12972e-11
6.43962e-10
-5.92457e-11
6.91116e-10
-4.72213e-11
7.26308e-10
-3.52567e-11
7.49636e-10
-2.33882e-11
7.61234e-10
-1.16565e-11
7.61285e-10
-1.06379e-13
7.5001e-10
1.12213e-11
7.27679e-10
2.22795e-11
6.94621e-10
3.3009e-11
6.51222e-10
4.33504e-11
5.97936e-10
5.32398e-11
5.35281e-10
6.26087e-11
4.6385e-10
7.13842e-11
3.84315e-10
7.94884e-11
2.97429e-10
8.68384e-11
2.04034e-10
9.3346e-11
1.05067e-10
9.89165e-11
1.56219e-12
1.03451e-10
-1.05318e-10
1.06824e-10
-2.1429e-10
1.08912e-10
-3.23955e-10
1.09602e-10
-4.32791e-10
1.08768e-10
-5.39128e-10
1.06264e-10
-6.41123e-10
1.01918e-10
-7.36764e-10
9.55567e-11
-8.23842e-10
8.69868e-11
-8.99938e-10
7.59959e-11
-9.62406e-10
6.23581e-11
-1.00836e-09
4.58348e-11
-1.03468e-09
2.619e-11
-1.03804e-09
3.21367e-12
-1.015e-09
-2.31936e-11
-9.62203e-10
-5.29587e-11
-8.76708e-10
-8.56767e-11
-7.56693e-10
-1.20213e-10
-6.02882e-10
-1.54026e-10
-4.2121e-10
-1.81909e-10
-2.27709e-10
-1.93763e-10
-5.73334e-11
-1.70672e-10
2.97989e-11
-8.74832e-11
2.94384e-11
9.60208e-10
4.22245e-12
-1.58764e-09
1.5527e-09
4.93518e-13
-1.54437e-09
1.84804e-09
-2.04946e-13
-1.11583e-09
1.92254e-09
-1.9578e-13
-5.75413e-10
1.79795e-09
-7.69724e-14
-5.18111e-11
1.49573e-09
-5.60371e-15
4.08626e-10
1.03912e-09
1.64756e-14
7.94347e-10
4.51242e-10
1.58536e-14
1.10919e-09
-2.45914e-10
9.40857e-15
1.3623e-09
-1.0322e-09
3.54627e-15
1.56358e-09
-1.89015e-09
-3.39648e-16
1.72202e-09
-2.80531e-09
-2.47089e-15
1.84515e-09
-3.76541e-09
-3.37004e-15
1.93946e-09
-4.75991e-09
-3.52369e-15
2.01058e-09
-5.77999e-09
-3.30407e-15
2.06267e-09
-6.81825e-09
-2.9675e-15
2.09908e-09
-7.86845e-09
-2.65496e-15
2.12247e-09
-8.92531e-09
-2.41729e-15
2.13497e-09
-9.98434e-09
-2.24732e-15
2.13828e-09
-1.10417e-08
-2.11539e-15
2.1338e-09
-1.2094e-08
-1.99283e-15
2.12265e-09
-1.31384e-08
-1.86325e-15
2.10575e-09
-1.41724e-08
-1.72334e-15
2.08386e-09
-1.51939e-08
-1.57899e-15
2.05762e-09
-1.62008e-08
-1.43908e-15
2.02753e-09
-1.71914e-08
-1.31145e-15
1.99404e-09
-1.81641e-08
-1.20051e-15
1.95752e-09
-1.91177e-08
-1.10571e-15
1.91828e-09
-2.00508e-08
-1.02383e-15
1.87659e-09
-2.09624e-08
-9.50488e-16
1.83267e-09
-2.18513e-08
-8.81592e-16
1.78673e-09
-2.27166e-08
-8.14295e-16
1.73896e-09
-2.35576e-08
-7.47242e-16
1.6895e-09
-2.43733e-08
-6.81083e-16
1.6385e-09
-2.51631e-08
-6.17038e-16
1.5861e-09
-2.59263e-08
-5.57275e-16
1.5324e-09
-2.66623e-08
-5.03258e-16
1.47754e-09
-2.73707e-08
-4.55909e-16
1.42161e-09
-2.80508e-08
-4.15309e-16
1.36471e-09
-2.87022e-08
-3.80618e-16
1.30695e-09
-2.93246e-08
-3.50778e-16
1.24842e-09
-2.99176e-08
-3.23676e-16
1.18921e-09
-3.04808e-08
-2.97495e-16
1.1294e-09
-3.10141e-08
-2.70284e-16
1.0691e-09
-3.15172e-08
-2.40091e-16
1.00839e-09
-3.199e-08
-2.05697e-16
9.47346e-10
-3.24323e-08
-1.67617e-16
8.86067e-10
-3.2844e-08
-1.26826e-16
8.24634e-10
-3.3225e-08
-8.57634e-17
7.63132e-10
-3.35755e-08
-4.75741e-17
7.01644e-10
-3.38954e-08
-1.52394e-17
6.40255e-10
-3.41848e-08
8.69273e-18
5.79045e-10
-3.44439e-08
2.31924e-17
5.18097e-10
-3.46727e-08
2.82867e-17
4.5749e-10
-3.48715e-08
2.58188e-17
3.97304e-10
-3.50406e-08
1.85805e-17
3.37616e-10
-3.51801e-08
9.71589e-18
2.78502e-10
-3.52905e-08
2.61319e-18
2.20037e-10
-3.5372e-08
-2.6106e-19
1.62293e-10
-3.5425e-08
2.77364e-18
1.05337e-10
-3.54501e-08
1.20425e-17
4.92365e-11
-3.54475e-08
2.69222e-17
-5.94491e-12
-3.54178e-08
4.56779e-17
-6.01471e-11
-3.53615e-08
6.66834e-17
-1.13313e-10
-3.52791e-08
8.82582e-17
-1.65388e-10
-3.51713e-08
1.08505e-16
-2.16319e-10
-3.50385e-08
1.26475e-16
-2.66054e-10
-3.48814e-08
1.4168e-16
-3.14543e-10
-3.47006e-08
1.54093e-16
-3.6174e-10
-3.44969e-08
1.6366e-16
-4.07603e-10
-3.42708e-08
1.71032e-16
-4.5209e-10
-3.40231e-08
1.76019e-16
-4.95168e-10
-3.37544e-08
1.78972e-16
-5.36803e-10
-3.34656e-08
1.80137e-16
-5.76968e-10
-3.31572e-08
1.79648e-16
-6.15636e-10
-3.28302e-08
1.77696e-16
-6.52786e-10
-3.24852e-08
1.74687e-16
-6.884e-10
-3.2123e-08
1.71162e-16
-7.22463e-10
-3.17444e-08
1.67665e-16
-7.54962e-10
-3.13501e-08
1.64439e-16
-7.8589e-10
-3.09409e-08
1.61917e-16
-8.15242e-10
-3.05176e-08
1.60317e-16
-8.43014e-10
-3.0081e-08
1.59476e-16
-8.69209e-10
-2.96319e-08
1.59503e-16
-8.9383e-10
-2.9171e-08
1.5999e-16
-9.16884e-10
-2.86991e-08
1.60721e-16
-9.38381e-10
-2.8217e-08
1.61073e-16
-9.58334e-10
-2.77254e-08
1.61099e-16
-9.76756e-10
-2.7225e-08
1.60637e-16
-9.93666e-10
-2.67166e-08
1.59607e-16
-1.00908e-09
-2.6201e-08
1.57844e-16
-1.02303e-09
-2.56788e-08
1.55269e-16
-1.03553e-09
-2.51508e-08
1.52205e-16
-1.04662e-09
-2.46176e-08
1.4841e-16
-1.05631e-09
-2.40799e-08
1.44181e-16
-1.06464e-09
-2.35384e-08
1.39681e-16
-1.07164e-09
-2.29937e-08
1.34855e-16
-1.07734e-09
-2.24464e-08
1.29678e-16
-1.08179e-09
-2.18972e-08
1.24419e-16
-1.08501e-09
-2.13467e-08
1.19458e-16
-1.08703e-09
-2.07953e-08
1.14606e-16
-1.08791e-09
-2.02438e-08
1.0997e-16
-1.08767e-09
-1.96925e-08
1.05443e-16
-1.08636e-09
-1.91421e-08
1.01079e-16
-1.08402e-09
-1.8593e-08
9.69586e-17
-1.08068e-09
-1.80458e-08
9.29196e-17
-1.07638e-09
-1.75008e-08
8.87721e-17
-1.07117e-09
-1.69585e-08
8.48416e-17
-1.06508e-09
-1.64194e-08
8.07213e-17
-1.05816e-09
-1.58838e-08
7.66282e-17
-1.05044e-09
-1.53522e-08
7.2264e-17
-1.04197e-09
-1.48248e-08
6.75204e-17
-1.03277e-09
-1.43021e-08
6.28852e-17
-1.02289e-09
-1.37844e-08
5.81417e-17
-1.01237e-09
-1.3272e-08
5.3371e-17
-1.00123e-09
-1.27652e-08
4.86546e-17
-9.89512e-10
-1.22643e-08
4.40466e-17
-9.7725e-10
-1.17696e-08
3.95741e-17
-9.64472e-10
-1.12812e-08
3.51287e-17
-9.51208e-10
-1.07995e-08
3.11712e-17
-9.37487e-10
-1.03247e-08
2.71053e-17
-9.23333e-10
-9.85703e-09
2.34731e-17
-9.08771e-10
-9.39666e-09
2.01661e-17
-8.93824e-10
-8.94379e-09
1.70217e-17
-8.78512e-10
-8.49863e-09
1.4094e-17
-8.62853e-10
-8.06135e-09
1.14103e-17
-8.46864e-10
-7.63214e-09
8.97046e-18
-8.30559e-10
-7.21115e-09
6.69317e-18
-8.13951e-10
-6.79856e-09
5.03919e-18
-7.9705e-10
-6.39452e-09
3.41221e-18
-7.79864e-10
-5.99919e-09
2.48984e-18
-7.624e-10
-5.61273e-09
1.91969e-18
-7.44662e-10
-5.23528e-09
1.75595e-18
-7.26654e-10
-4.867e-09
1.86308e-18
-7.08377e-10
-4.50805e-09
2.67474e-18
-6.8983e-10
-4.15858e-09
3.75722e-18
-6.71012e-10
-3.81874e-09
5.21891e-18
-6.5192e-10
-3.4887e-09
7.11401e-18
-6.32549e-10
-3.1686e-09
9.6051e-18
-6.12894e-10
-2.85862e-09
1.24753e-17
-5.92951e-10
-2.55892e-09
1.57789e-17
-5.72713e-10
-2.26966e-09
1.94615e-17
-5.52175e-10
-1.99103e-09
2.34689e-17
-5.31329e-10
-1.72318e-09
2.74758e-17
-5.10173e-10
-1.46631e-09
3.24038e-17
-4.88699e-10
-1.22058e-09
3.73855e-17
-4.66907e-10
-9.86173e-10
4.28544e-17
-4.44793e-10
-7.63267e-10
4.83768e-17
-4.2236e-10
-5.52038e-10
5.38444e-17
-3.99609e-10
-3.52655e-10
5.95281e-17
-3.76549e-10
-1.65285e-10
6.5699e-17
-3.53191e-10
9.91536e-12
7.1273e-17
-3.29558e-10
1.7277e-10
7.69006e-17
-3.05651e-10
3.23118e-10
8.24733e-17
-2.81461e-10
4.60837e-10
8.84241e-17
-2.57017e-10
5.85801e-10
9.40485e-17
-2.3236e-10
6.97907e-10
9.92382e-17
-2.07526e-10
7.97068e-10
1.04535e-16
-1.82557e-10
8.83222e-10
1.09614e-16
-1.57498e-10
9.56333e-10
1.14692e-16
-1.324e-10
1.01639e-09
1.19443e-16
-1.07323e-10
1.06343e-09
1.23922e-16
-8.23308e-11
1.0975e-09
1.2737e-16
-5.74976e-11
1.11871e-09
1.29732e-16
-3.29032e-11
1.12721e-09
1.31388e-16
-8.63583e-12
1.12318e-09
1.31743e-16
1.52136e-11
1.10689e-09
1.30361e-16
3.85448e-11
1.07862e-09
1.28109e-16
6.12442e-11
1.03875e-09
1.2515e-16
8.3191e-11
9.87708e-10
1.20997e-16
1.04256e-10
9.25988e-10
1.15975e-16
1.243e-10
8.54167e-10
1.08891e-16
1.43175e-10
7.72901e-10
9.9312e-17
1.60724e-10
6.8293e-10
8.6858e-17
1.76778e-10
5.85083e-10
6.96317e-17
1.91159e-10
4.80287e-10
4.89343e-17
2.03675e-10
3.69575e-10
2.49282e-17
2.14124e-10
2.54078e-10
1.06813e-19
2.22278e-10
1.35044e-10
-2.34692e-17
2.27901e-10
1.38394e-11
-4.42816e-17
2.30756e-10
-1.08021e-10
-6.13548e-17
2.30574e-10
-2.28883e-10
-7.59345e-17
2.27068e-10
-3.46969e-10
-9.36582e-17
2.1994e-10
-4.60346e-10
-1.22008e-16
2.08863e-10
-5.6692e-10
-1.69222e-16
1.93484e-10
-6.64435e-10
-2.40071e-16
1.73427e-10
-7.50471e-10
-3.27724e-16
1.483e-10
-8.22444e-10
-4.16134e-16
1.17707e-10
-8.77636e-10
-4.91313e-16
8.12711e-11
-9.13224e-10
-5.52177e-16
3.86825e-11
-9.26347e-10
-6.22355e-16
-1.02004e-11
-9.14247e-10
-7.25702e-16
-6.51992e-11
-8.74498e-10
-8.52773e-16
-1.2558e-10
-8.05314e-10
-9.28205e-16
-1.89565e-10
-7.06081e-10
-8.52556e-16
-2.53445e-10
-5.78093e-10
-5.72769e-16
-3.10104e-10
-4.25566e-10
-9.981e-17
-3.46528e-10
-2.56839e-10
4.11217e-16
-3.39688e-10
-9.24306e-11
-1.17882e-17
-2.52267e-10
-5.82403e-15
-6.32437e-11
9.55958e-10
-1.59205e-09
1.55194e-09
-1.54498e-09
1.84819e-09
-1.11571e-09
1.92262e-09
-5.75319e-10
1.7979e-09
-5.1809e-11
1.49564e-09
4.086e-10
1.03905e-09
7.94325e-10
4.51206e-10
1.10918e-09
-2.45926e-10
1.36229e-09
-1.0322e-09
1.56357e-09
-1.89014e-09
1.72202e-09
-2.8053e-09
1.84515e-09
-3.7654e-09
1.93946e-09
-4.7599e-09
2.01058e-09
-5.77998e-09
2.06267e-09
-6.81824e-09
2.09908e-09
-7.86844e-09
2.12247e-09
-8.9253e-09
2.13497e-09
-9.98432e-09
2.13828e-09
-1.10416e-08
2.1338e-09
-1.2094e-08
2.12265e-09
-1.31384e-08
2.10575e-09
-1.41724e-08
2.08386e-09
-1.51938e-08
2.05762e-09
-1.62007e-08
2.02753e-09
-1.71913e-08
1.99404e-09
-1.81641e-08
1.95752e-09
-1.91177e-08
1.91828e-09
-2.00508e-08
1.87659e-09
-2.09623e-08
1.83267e-09
-2.18512e-08
1.78673e-09
-2.27166e-08
1.73896e-09
-2.35575e-08
1.6895e-09
-2.43732e-08
1.6385e-09
-2.5163e-08
1.5861e-09
-2.59263e-08
1.5324e-09
-2.66623e-08
1.47754e-09
-2.73706e-08
1.42161e-09
-2.80507e-08
1.36471e-09
-2.87021e-08
1.30695e-09
-2.93245e-08
1.24842e-09
-2.99175e-08
1.18921e-09
-3.04808e-08
1.1294e-09
-3.10141e-08
1.0691e-09
-3.15172e-08
1.00839e-09
-3.19899e-08
9.47345e-10
-3.24322e-08
8.86066e-10
-3.28439e-08
8.24633e-10
-3.3225e-08
7.63131e-10
-3.35755e-08
7.01644e-10
-3.38954e-08
6.40254e-10
-3.41848e-08
5.79044e-10
-3.44438e-08
5.18096e-10
-3.46726e-08
4.57489e-10
-3.48715e-08
3.97303e-10
-3.50405e-08
3.37615e-10
-3.518e-08
2.78502e-10
-3.52904e-08
2.20037e-10
-3.53719e-08
1.62292e-10
-3.5425e-08
1.05336e-10
-3.545e-08
4.92355e-11
-3.54474e-08
-5.94595e-12
-3.54177e-08
-6.01482e-11
-3.53614e-08
-1.13314e-10
-3.52791e-08
-1.65389e-10
-3.51712e-08
-2.1632e-10
-3.50384e-08
-2.66055e-10
-3.48813e-08
-3.14544e-10
-3.47006e-08
-3.61742e-10
-3.44968e-08
-4.07604e-10
-3.42707e-08
-4.52092e-10
-3.4023e-08
-4.95169e-10
-3.37544e-08
-5.36805e-10
-3.34655e-08
-5.76969e-10
-3.31572e-08
-6.15638e-10
-3.28301e-08
-6.52788e-10
-3.24851e-08
-6.88402e-10
-3.21229e-08
-7.22464e-10
-3.17443e-08
-7.54964e-10
-3.135e-08
-7.85892e-10
-3.09409e-08
-8.15243e-10
-3.05176e-08
-8.43016e-10
-3.0081e-08
-8.69211e-10
-2.96319e-08
-8.93832e-10
-2.9171e-08
-9.16886e-10
-2.86991e-08
-9.38383e-10
-2.82169e-08
-9.58335e-10
-2.77253e-08
-9.76758e-10
-2.72249e-08
-9.93668e-10
-2.67166e-08
-1.00909e-09
-2.6201e-08
-1.02303e-09
-2.56788e-08
-1.03554e-09
-2.51507e-08
-1.04662e-09
-2.46175e-08
-1.05631e-09
-2.40799e-08
-1.06464e-09
-2.35383e-08
-1.07164e-09
-2.29936e-08
-1.07735e-09
-2.24464e-08
-1.08179e-09
-2.18972e-08
-1.08501e-09
-2.13466e-08
-1.08704e-09
-2.07953e-08
-1.08791e-09
-2.02437e-08
-1.08768e-09
-1.96925e-08
-1.08636e-09
-1.91421e-08
-1.08402e-09
-1.8593e-08
-1.08068e-09
-1.80457e-08
-1.07638e-09
-1.75008e-08
-1.07117e-09
-1.69585e-08
-1.06509e-09
-1.64194e-08
-1.05816e-09
-1.58838e-08
-1.05045e-09
-1.53521e-08
-1.04197e-09
-1.48248e-08
-1.03278e-09
-1.43021e-08
-1.0229e-09
-1.37844e-08
-1.01237e-09
-1.3272e-08
-1.00123e-09
-1.27652e-08
-9.89516e-10
-1.22643e-08
-9.77253e-10
-1.17695e-08
-9.64475e-10
-1.12812e-08
-9.51212e-10
-1.07995e-08
-9.3749e-10
-1.03247e-08
-9.23336e-10
-9.85701e-09
-9.08775e-10
-9.39663e-09
-8.93828e-10
-8.94377e-09
-8.78516e-10
-8.49861e-09
-8.62857e-10
-8.06133e-09
-8.46868e-10
-7.63211e-09
-8.30563e-10
-7.21113e-09
-8.13955e-10
-6.79854e-09
-7.97054e-10
-6.3945e-09
-7.79868e-10
-5.99917e-09
-7.62404e-10
-5.6127e-09
-7.44666e-10
-5.23526e-09
-7.26659e-10
-4.86698e-09
-7.08381e-10
-4.50803e-09
-6.89835e-10
-4.15856e-09
-6.71017e-10
-3.81872e-09
-6.51924e-10
-3.48867e-09
-6.32553e-10
-3.16858e-09
-6.12899e-10
-2.8586e-09
-5.92955e-10
-2.5589e-09
-5.72718e-10
-2.26964e-09
-5.52179e-10
-1.991e-09
-5.31334e-10
-1.72316e-09
-5.10177e-10
-1.46629e-09
-4.88704e-10
-1.22056e-09
-4.66911e-10
-9.8615e-10
-4.44798e-10
-7.63244e-10
-4.22364e-10
-5.52015e-10
-3.99613e-10
-3.52633e-10
-3.76553e-10
-1.65262e-10
-3.53196e-10
9.93822e-12
-3.29562e-10
1.72792e-10
-3.05655e-10
3.23141e-10
-2.81465e-10
4.6086e-10
-2.57021e-10
5.85824e-10
-2.32364e-10
6.9793e-10
-2.0753e-10
7.97091e-10
-1.8256e-10
8.83245e-10
-1.57501e-10
9.56355e-10
-1.32403e-10
1.01641e-09
-1.07326e-10
1.06345e-09
-8.23338e-11
1.09752e-09
-5.75004e-11
1.11873e-09
-3.29059e-11
1.12723e-09
-8.63833e-12
1.1232e-09
1.52112e-11
1.10691e-09
3.85426e-11
1.07864e-09
6.12421e-11
1.03877e-09
8.31891e-11
9.87727e-10
1.04254e-10
9.26007e-10
1.24298e-10
8.54186e-10
1.43173e-10
7.72919e-10
1.60722e-10
6.82947e-10
1.76777e-10
5.85099e-10
1.91158e-10
4.80303e-10
2.03674e-10
3.6959e-10
2.14124e-10
2.54092e-10
2.22277e-10
1.35057e-10
2.27901e-10
1.38515e-11
2.30756e-10
-1.0801e-10
2.30574e-10
-2.28873e-10
2.27068e-10
-3.4696e-10
2.19939e-10
-4.60337e-10
2.08863e-10
-5.66912e-10
1.93484e-10
-6.64429e-10
1.73427e-10
-7.50465e-10
1.483e-10
-8.2244e-10
1.17707e-10
-8.77632e-10
8.12708e-11
-9.13221e-10
3.86819e-11
-9.26345e-10
-1.02014e-11
-9.14247e-10
-6.52006e-11
-8.74498e-10
-1.25582e-10
-8.05315e-10
-1.89568e-10
-7.06082e-10
-2.53449e-10
-5.78094e-10
-3.10109e-10
-4.25566e-10
-3.46533e-10
-2.56841e-10
-3.39694e-10
-9.24471e-11
-2.5227e-10
-6.32454e-11
7.98654e-10
2.38928e-12
-2.38132e-09
1.09229e-09
5.42198e-13
-1.8377e-09
1.1026e-09
1.18605e-13
-1.12625e-09
9.42823e-10
9.40325e-15
-4.15739e-10
6.49467e-10
-1.50381e-15
2.41435e-10
2.39006e-10
4.64999e-15
8.18976e-10
-2.77064e-10
6.91061e-15
1.31031e-09
-8.87386e-10
5.35044e-15
1.71941e-09
-1.58011e-09
2.6885e-15
2.05492e-09
-2.34346e-09
3.39915e-16
2.32683e-09
-3.16626e-09
-1.28128e-15
2.54474e-09
-4.0384e-09
-2.1837e-15
2.7172e-09
-4.95072e-09
-2.5312e-15
2.85171e-09
-5.8949e-09
-2.53148e-15
2.95469e-09
-6.86365e-09
-2.36834e-15
3.03135e-09
-7.85061e-09
-2.16691e-15
3.08598e-09
-8.85025e-09
-1.98905e-15
3.12205e-09
-9.85775e-09
-1.8488e-15
3.14241e-09
-1.08689e-08
-1.73509e-15
3.14939e-09
-1.18801e-08
-1.63059e-15
3.14491e-09
-1.2888e-08
-1.52302e-15
3.13054e-09
-1.38899e-08
-1.40777e-15
3.1076e-09
-1.48833e-08
-1.28693e-15
3.07717e-09
-1.58658e-08
-1.16639e-15
3.04015e-09
-1.68357e-08
-1.05262e-15
2.99731e-09
-1.7791e-08
-9.50707e-16
2.9493e-09
-1.87301e-08
-8.62809e-16
2.89665e-09
-1.96517e-08
-7.88735e-16
2.83984e-09
-2.05544e-08
-7.26221e-16
2.77927e-09
-2.14371e-08
-6.72544e-16
2.71528e-09
-2.22985e-08
-6.25154e-16
2.64818e-09
-2.31379e-08
-5.82264e-16
2.57825e-09
-2.39541e-08
-5.42788e-16
2.50572e-09
-2.47464e-08
-5.06348e-16
2.43082e-09
-2.55141e-08
-4.72822e-16
2.35374e-09
-2.62564e-08
-4.42101e-16
2.27468e-09
-2.69727e-08
-4.1344e-16
2.19379e-09
-2.76623e-08
-3.85904e-16
2.11126e-09
-2.83249e-08
-3.58124e-16
2.02723e-09
-2.89598e-08
-3.29069e-16
1.94185e-09
-2.95666e-08
-2.98036e-16
1.85527e-09
-3.01451e-08
-2.65092e-16
1.76762e-09
-3.06947e-08
-2.30697e-16
1.67905e-09
-3.12153e-08
-1.95896e-16
1.58968e-09
-3.17066e-08
-1.61474e-16
1.49966e-09
-3.21684e-08
-1.28706e-16
1.40911e-09
-3.26005e-08
-9.85395e-17
1.31816e-09
-3.30028e-08
-7.16527e-17
1.22695e-09
-3.33753e-08
-4.87095e-17
1.13559e-09
-3.37178e-08
-2.99947e-17
1.04421e-09
-3.40305e-08
-1.54269e-17
9.52952e-10
-3.43134e-08
-5.04674e-18
8.61922e-10
-3.45666e-08
1.94534e-18
7.71248e-10
-3.47902e-08
6.32185e-18
6.81049e-10
-3.49843e-08
9.3025e-18
5.91443e-10
-3.51492e-08
1.22832e-17
5.02547e-10
-3.52852e-08
1.64837e-17
4.14474e-10
-3.53925e-08
2.29746e-17
3.27334e-10
-3.54715e-08
3.23522e-17
2.41236e-10
-3.55224e-08
4.44404e-17
1.56282e-10
-3.55458e-08
5.89274e-17
7.25713e-11
-3.55419e-08
7.48646e-17
-9.79948e-12
-3.55113e-08
9.1222e-17
-9.07382e-11
-3.54545e-08
1.07186e-16
-1.70156e-10
-3.53719e-08
1.21985e-16
-2.47968e-10
-3.52642e-08
1.35198e-16
-3.24094e-10
-3.51318e-08
1.46677e-16
-3.98458e-10
-3.49753e-08
1.5638e-16
-4.70985e-10
-3.47955e-08
1.64443e-16
-5.41607e-10
-3.45928e-08
1.70921e-16
-6.10261e-10
-3.43681e-08
1.76098e-16
-6.76888e-10
-3.41218e-08
1.79879e-16
-7.41433e-10
-3.38548e-08
1.82494e-16
-8.0385e-10
-3.35677e-08
1.84025e-16
-8.64094e-10
-3.32612e-08
1.84567e-16
-9.22128e-10
-3.29361e-08
1.84336e-16
-9.77918e-10
-3.2593e-08
1.83604e-16
-1.03144e-09
-3.22329e-08
1.82696e-16
-1.08266e-09
-3.18563e-08
1.81774e-16
-1.13157e-09
-3.1464e-08
1.81096e-16
-1.17816e-09
-3.10569e-08
1.80852e-16
-1.22241e-09
-3.06356e-08
1.8096e-16
-1.26432e-09
-3.02009e-08
1.81488e-16
-1.30389e-09
-2.97536e-08
1.82274e-16
-1.34113e-09
-2.92945e-08
1.83209e-16
-1.37605e-09
-2.88242e-08
1.84117e-16
-1.40866e-09
-2.83436e-08
1.8474e-16
-1.43898e-09
-2.78533e-08
1.85106e-16
-1.46703e-09
-2.73542e-08
1.85187e-16
-1.49283e-09
-2.68469e-08
1.8501e-16
-1.51641e-09
-2.63322e-08
1.84536e-16
-1.53781e-09
-2.58106e-08
1.8379e-16
-1.55706e-09
-2.52831e-08
1.82842e-16
-1.5742e-09
-2.47502e-08
1.81933e-16
-1.58927e-09
-2.42125e-08
1.80998e-16
-1.60231e-09
-2.36708e-08
1.80077e-16
-1.61337e-09
-2.31257e-08
1.79263e-16
-1.62249e-09
-2.25778e-08
1.78586e-16
-1.62974e-09
-2.20277e-08
1.78098e-16
-1.63515e-09
-2.14759e-08
1.77827e-16
-1.63879e-09
-2.09232e-08
1.77868e-16
-1.6407e-09
-2.03699e-08
1.78166e-16
-1.64095e-09
-1.98167e-08
1.78722e-16
-1.63959e-09
-1.92641e-08
1.79426e-16
-1.63667e-09
-1.87126e-08
1.80457e-16
-1.63226e-09
-1.81626e-08
1.81731e-16
-1.62641e-09
-1.76146e-08
1.83181e-16
-1.61918e-09
-1.70691e-08
1.84794e-16
-1.61063e-09
-1.65264e-08
1.86624e-16
-1.60082e-09
-1.59871e-08
1.88508e-16
-1.58981e-09
-1.54515e-08
1.905e-16
-1.57764e-09
-1.49199e-08
1.92547e-16
-1.56438e-09
-1.43928e-08
1.94756e-16
-1.55007e-09
-1.38704e-08
1.97196e-16
-1.53478e-09
-1.33531e-08
1.99771e-16
-1.51855e-09
-1.28412e-08
2.02509e-16
-1.50143e-09
-1.2335e-08
2.05546e-16