/*--------------------------------*- C++ -*----------------------------------*\
  =========                 |
  \\      /  F ield         | OpenFOAM: The Open Source CFD Toolbox
   \\    /   O peration     | Website:  https://openfoam.org
    \\  /    A nd           | Version:  8
     \\/     M anipulation  |
\*---------------------------------------------------------------------------*/
FoamFile
{
    version     2.0;
    format      ascii;
    class       volScalarField;
    location    "3700";
    object      T;
}
// * * * * * * * * * * * * * * * * * * * * * * * * * * * * * * * * * * * * * //

dimensions      [0 0 0 1 0 0 0];

internalField   nonuniform List<scalar> 
46000
(
310.074
308.954
308.157
307.641
307.27
306.978
306.733
306.523
306.337
306.171
306.02
305.88
305.752
305.633
305.523
305.419
305.321
305.228
305.141
305.059
304.981
304.907
304.836
304.77
304.706
304.646
304.588
304.533
304.481
304.432
304.384
304.339
304.297
304.256
304.217
304.18
304.145
304.112
304.08
304.05
304.021
303.994
303.969
303.945
303.922
303.9
303.88
303.861
303.843
303.827
303.811
303.797
303.784
303.771
303.76
303.75
303.741
303.732
303.725
303.719
303.713
303.709
303.705
303.702
303.7
303.698
303.698
303.698
303.699
303.701
303.704
303.708
303.712
303.717
303.723
303.73
303.738
303.746
303.755
303.764
303.775
303.786
303.798
303.81
303.824
303.837
303.852
303.867
303.883
303.9
303.917
303.935
303.953
303.972
303.992
304.012
304.033
304.054
304.076
304.098
304.121
304.145
304.169
304.194
304.219
304.244
304.27
304.297
304.324
304.352
304.38
304.408
304.437
304.466
304.496
304.527
304.557
304.588
304.62
304.652
304.684
304.717
304.751
304.784
304.819
304.853
304.888
304.924
304.96
304.996
305.033
305.07
305.108
305.146
305.185
305.225
305.264
305.305
305.346
305.387
305.43
305.472
305.516
305.56
305.604
305.65
305.696
305.742
305.79
305.838
305.887
305.936
305.987
306.038
306.09
306.143
306.196
306.251
306.306
306.362
306.419
306.477
306.536
306.596
306.656
306.718
306.78
306.843
306.908
306.973
307.039
307.107
307.176
307.246
307.317
307.389
307.463
307.539
307.616
307.695
307.776
307.859
307.945
308.033
308.125
308.221
308.321
308.426
308.537
308.656
308.784
308.923
309.078
309.254
309.458
309.704
310.015
310.429
310.98
311.494
310.073
308.954
308.156
307.641
307.27
306.978
306.733
306.523
306.337
306.171
306.02
305.88
305.752
305.633
305.523
305.419
305.321
305.228
305.141
305.059
304.981
304.907
304.836
304.77
304.706
304.646
304.588
304.533
304.481
304.432
304.384
304.339
304.297
304.256
304.217
304.18
304.145
304.112
304.08
304.05
304.021
303.994
303.969
303.945
303.922
303.9
303.88
303.861
303.843
303.827
303.811
303.797
303.784
303.771
303.76
303.75
303.741
303.732
303.725
303.719
303.713
303.709
303.705
303.702
303.7
303.698
303.698
303.698
303.699
303.701
303.704
303.708
303.712
303.717
303.723
303.73
303.738
303.746
303.755
303.765
303.775
303.786
303.798
303.81
303.824
303.837
303.852
303.867
303.883
303.9
303.917
303.935
303.953
303.972
303.992
304.012
304.033
304.054
304.076
304.098
304.121
304.145
304.169
304.194
304.219
304.244
304.27
304.297
304.324
304.352
304.38
304.408
304.437
304.467
304.496
304.527
304.557
304.588
304.62
304.652
304.684
304.717
304.751
304.784
304.819
304.853
304.888
304.924
304.96
304.996
305.033
305.07
305.108
305.146
305.185
305.225
305.264
305.305
305.346
305.387
305.43
305.472
305.516
305.56
305.604
305.65
305.696
305.742
305.79
305.838
305.887
305.936
305.987
306.038
306.09
306.143
306.196
306.251
306.306
306.362
306.419
306.477
306.536
306.596
306.656
306.718
306.78
306.843
306.908
306.973
307.039
307.107
307.176
307.246
307.317
307.389
307.463
307.539
307.616
307.695
307.776
307.859
307.945
308.033
308.125
308.221
308.321
308.426
308.537
308.656
308.784
308.924
309.078
309.254
309.458
309.704
310.015
310.429
310.98
311.494
306.583
306.156
305.809
305.538
305.319
305.137
304.981
304.843
304.72
304.607
304.504
304.408
304.319
304.236
304.157
304.084
304.014
303.948
303.885
303.825
303.769
303.715
303.664
303.615
303.568
303.524
303.482
303.441
303.403
303.366
303.33
303.297
303.265
303.234
303.205
303.177
303.15
303.124
303.1
303.076
303.054
303.033
303.013
302.993
302.975
302.958
302.941
302.925
302.91
302.896
302.882
302.87
302.858
302.846
302.836
302.826
302.816
302.808
302.8
302.792
302.785
302.779
302.773
302.768
302.763
302.759
302.755
302.752
302.75
302.748
302.746
302.746
302.745
302.745
302.746
302.747
302.749
302.751
302.754
302.757
302.76
302.764
302.769
302.774
302.779
302.785
302.792
302.799
302.806
302.814
302.822
302.831
302.84
302.85
302.86
302.87
302.881
302.893
302.904
302.917
302.929
302.942
302.956
302.97
302.984
302.999
303.014
303.03
303.046
303.062
303.079
303.096
303.114
303.132
303.151
303.17
303.189
303.209
303.229
303.25
303.271
303.293
303.315
303.338
303.361
303.384
303.408
303.433
303.458
303.483
303.509
303.536
303.563
303.591
303.619
303.648
303.677
303.707
303.738
303.769
303.801
303.834
303.867
303.901
303.935
303.97
304.006
304.043
304.08
304.119
304.158
304.197
304.238
304.279
304.321
304.364
304.407
304.452
304.497
304.543
304.589
304.637
304.685
304.735
304.785
304.835
304.887
304.94
304.993
305.047
305.102
305.158
305.214
305.272
305.331
305.39
305.451
305.513
305.576
305.64
305.706
305.773
305.842
305.914
305.987
306.064
306.144
306.228
306.317
306.412
306.515
306.628
306.754
306.897
307.065
307.267
307.52
307.849
308.294
308.821
306.582
306.156
305.809
305.538
305.319
305.137
304.981
304.843
304.72
304.607
304.504
304.408
304.319
304.236
304.157
304.084
304.014
303.948
303.885
303.825
303.769
303.715
303.664
303.615
303.568
303.524
303.482
303.441
303.403
303.366
303.33
303.297
303.265
303.234
303.205
303.177
303.15
303.124
303.1
303.076
303.054
303.033
303.013
302.993
302.975
302.958
302.941
302.925
302.91
302.896
302.882
302.87
302.858
302.846
302.836
302.826
302.816
302.808
302.8
302.792
302.785
302.779
302.773
302.768
302.763
302.759
302.755
302.752
302.75
302.748
302.746
302.746
302.745
302.745
302.746
302.747
302.749
302.751
302.754
302.757
302.76
302.764
302.769
302.774
302.779
302.785
302.792
302.799
302.806
302.814
302.822
302.831
302.84
302.85
302.86
302.87
302.881
302.893
302.904
302.917
302.929
302.942
302.956
302.97
302.984
302.999
303.014
303.03
303.046
303.062
303.079
303.096
303.114
303.132
303.151
303.17
303.189
303.209
303.229
303.25
303.271
303.293
303.315
303.338
303.361
303.384
303.408
303.433
303.458
303.483
303.509
303.536
303.563
303.591
303.619
303.648
303.677
303.707
303.738
303.769
303.801
303.834
303.867
303.901
303.935
303.97
304.006
304.043
304.08
304.119
304.158
304.197
304.238
304.279
304.321
304.364
304.407
304.452
304.497
304.543
304.589
304.637
304.685
304.735
304.785
304.836
304.887
304.94
304.993
305.047
305.102
305.158
305.214
305.272
305.331
305.39
305.451
305.513
305.576
305.64
305.706
305.773
305.842
305.914
305.987
306.064
306.144
306.228
306.317
306.412
306.515
306.628
306.754
306.897
307.065
307.267
307.52
307.849
308.294
308.821
305.004
304.909
304.759
304.607
304.466
304.337
304.22
304.113
304.015
303.924
303.839
303.759
303.685
303.614
303.547
303.484
303.424
303.367
303.313
303.262
303.212
303.165
303.121
303.078
303.037
302.998
302.961
302.925
302.891
302.858
302.827
302.797
302.768
302.741
302.715
302.69
302.666
302.643
302.621
302.6
302.579
302.56
302.542
302.524
302.507
302.491
302.475
302.46
302.446
302.433
302.42
302.408
302.396
302.385
302.375
302.365
302.355
302.347
302.338
302.33
302.323
302.316
302.31
302.304
302.298
302.293
302.288
302.284
302.281
302.277
302.274
302.272
302.27
302.269
302.268
302.267
302.267
302.267
302.268
302.269
302.27
302.272
302.274
302.277
302.28
302.284
302.287
302.292
302.296
302.302
302.307
302.313
302.319
302.326
302.333
302.341
302.349
302.357
302.366
302.375
302.385
302.395
302.405
302.416
302.427
302.439
302.451
302.463
302.476
302.489
302.503
302.517
302.531
302.546
302.561
302.577
302.593
302.61
302.627
302.645
302.663
302.681
302.7
302.719
302.739
302.76
302.781
302.802
302.824
302.847
302.87
302.893
302.917
302.942
302.967
302.993
303.02
303.047
303.075
303.103
303.132
303.162
303.192
303.223
303.255
303.288
303.321
303.355
303.389
303.425
303.461
303.498
303.536
303.574
303.613
303.653
303.694
303.735
303.778
303.821
303.865
303.909
303.954
304.001
304.047
304.095
304.143
304.192
304.242
304.293
304.344
304.396
304.449
304.503
304.557
304.612
304.668
304.725
304.783
304.842
304.902
304.963
305.026
305.091
305.157
305.225
305.296
305.371
305.449
305.531
305.62
305.716
305.821
305.937
306.069
306.221
306.398
306.605
306.85
307.11
305.004
304.909
304.759
304.607
304.466
304.337
304.22
304.113
304.015
303.924
303.839
303.759
303.685
303.614
303.547
303.484
303.424
303.367
303.313
303.262
303.212
303.165
303.121
303.078
303.037
302.998
302.961
302.925
302.891
302.858
302.827
302.797
302.768
302.741
302.715
302.69
302.666
302.643
302.621
302.6
302.579
302.56
302.542
302.524
302.507
302.491
302.475
302.46
302.446
302.433
302.42
302.408
302.396
302.385
302.375
302.365
302.355
302.347
302.338
302.33
302.323
302.316
302.31
302.304
302.298
302.293
302.288
302.284
302.281
302.277
302.274
302.272
302.27
302.269
302.268
302.267
302.267
302.267
302.268
302.269
302.27
302.272
302.274
302.277
302.28
302.284
302.287
302.292
302.296
302.302
302.307
302.313
302.319
302.326
302.333
302.341
302.349
302.357
302.366
302.375
302.385
302.395
302.405
302.416
302.427
302.439
302.451
302.463
302.476
302.489
302.503
302.517
302.531
302.546
302.561
302.577
302.593
302.61
302.627
302.645
302.663
302.681
302.7
302.719
302.739
302.76
302.781
302.802
302.824
302.847
302.87
302.893
302.917
302.942
302.967
302.993
303.02
303.047
303.075
303.103
303.132
303.162
303.192
303.223
303.255
303.288
303.321
303.355
303.39
303.425
303.461
303.498
303.536
303.574
303.613
303.653
303.694
303.735
303.778
303.821
303.865
303.909
303.954
304.001
304.047
304.095
304.143
304.192
304.242
304.293
304.344
304.396
304.449
304.503
304.557
304.612
304.668
304.725
304.783
304.842
304.902
304.963
305.026
305.091
305.157
305.225
305.296
305.371
305.449
305.531
305.62
305.716
305.821
305.937
306.069
306.221
306.398
306.605
306.85
307.11
304.175
304.165
304.099
304.011
303.916
303.823
303.733
303.648
303.567
303.49
303.417
303.348
303.283
303.22
303.161
303.105
303.051
302.999
302.95
302.904
302.859
302.816
302.775
302.736
302.698
302.662
302.628
302.595
302.563
302.533
302.504
302.476
302.449
302.424
302.399
302.376
302.353
302.332
302.311
302.291
302.272
302.254
302.236
302.219
302.203
302.188
302.173
302.158
302.145
302.132
302.119
302.107
302.096
302.085
302.075
302.065
302.055
302.046
302.038
302.03
302.022
302.015
302.008
302.002
301.996
301.99
301.985
301.981
301.976
301.972
301.969
301.966
301.963
301.961
301.959
301.957
301.956
301.955
301.955
301.955
301.956
301.956
301.957
301.959
301.961
301.963
301.966
301.969
301.972
301.976
301.98
301.985
301.99
301.995
302.001
302.007
302.014
302.021
302.028
302.036
302.044
302.052
302.061
302.07
302.08
302.09
302.1
302.111
302.123
302.134
302.146
302.159
302.172
302.185
302.199
302.213
302.228
302.243
302.258
302.274
302.291
302.308
302.325
302.343
302.362
302.381
302.4
302.42
302.441
302.462
302.483
302.505
302.528
302.551
302.575
302.6
302.625
302.651
302.677
302.704
302.732
302.76
302.789
302.819
302.849
302.881
302.912
302.945
302.978
303.012
303.047
303.083
303.119
303.156
303.194
303.232
303.272
303.312
303.352
303.394
303.436
303.479
303.523
303.567
303.612
303.658
303.705
303.752
303.8
303.849
303.898
303.948
303.998
304.05
304.101
304.154
304.207
304.261
304.316
304.372
304.429
304.486
304.545
304.605
304.666
304.73
304.795
304.862
304.932
305.006
305.084
305.167
305.255
305.351
305.455
305.567
305.689
305.817
305.945
306.055
304.175
304.165
304.099
304.011
303.916
303.823
303.733
303.648
303.567
303.49
303.417
303.348
303.283
303.22
303.161
303.105
303.051
302.999
302.95
302.904
302.859
302.816
302.775
302.736
302.698
302.662
302.628
302.595
302.563
302.533
302.504
302.476
302.449
302.424
302.399
302.376
302.353
302.332
302.311
302.291
302.272
302.254
302.236
302.219
302.203
302.188
302.173
302.158
302.145
302.132
302.119
302.107
302.096
302.085
302.075
302.065
302.055
302.046
302.038
302.03
302.022
302.015
302.008
302.002
301.996
301.99
301.985
301.981
301.976
301.972
301.969
301.966
301.963
301.961
301.959
301.957
301.956
301.955
301.955
301.955
301.956
301.956
301.957
301.959
301.961
301.963
301.966
301.969
301.972
301.976
301.981
301.985
301.99
301.995
302.001
302.007
302.014
302.021
302.028
302.036
302.044
302.052
302.061
302.07
302.08
302.09
302.1
302.111
302.123
302.134
302.146
302.159
302.172
302.185
302.199
302.213
302.228
302.243
302.258
302.274
302.291
302.308
302.325
302.343
302.362
302.381
302.4
302.42
302.441
302.462
302.483
302.505
302.528
302.551
302.575
302.6
302.625
302.651
302.677
302.704
302.732
302.76
302.789
302.819
302.849
302.881
302.912
302.945
302.978
303.012
303.047
303.083
303.119
303.156
303.194
303.232
303.272
303.312
303.352
303.394
303.436
303.479
303.523
303.567
303.612
303.658
303.705
303.752
303.8
303.849
303.898
303.948
303.998
304.05
304.101
304.154
304.207
304.262
304.316
304.372
304.429
304.486
304.545
304.605
304.666
304.73
304.795
304.862
304.932
305.006
305.084
305.167
305.255
305.351
305.455
305.567
305.689
305.817
305.945
306.055
303.646
303.654
303.623
303.569
303.504
303.436
303.366
303.296
303.229
303.163
303.1
303.04
302.982
302.926
302.873
302.822
302.773
302.725
302.68
302.637
302.596
302.556
302.518
302.481
302.446
302.412
302.38
302.349
302.319
302.291
302.263
302.237
302.212
302.188
302.164
302.142
302.12
302.1
302.08
302.061
302.042
302.025
302.008
301.992
301.976
301.961
301.947
301.933
301.919
301.907
301.894
301.883
301.872
301.861
301.85
301.841
301.831
301.822
301.814
301.805
301.798
301.79
301.783
301.777
301.771
301.765
301.759
301.754
301.75
301.745
301.741
301.738
301.735
301.732
301.729
301.727
301.726
301.724
301.723
301.723
301.722
301.722
301.723
301.724
301.725
301.726
301.728
301.731
301.733
301.736
301.74
301.744
301.748
301.752
301.757
301.762
301.768
301.774
301.78
301.787
301.794
301.802
301.81
301.818
301.827
301.836
301.845
301.855
301.865
301.876
301.887
301.899
301.911
301.923
301.936
301.949
301.963
301.977
301.992
302.007
302.022
302.038
302.055
302.072
302.089
302.107
302.126
302.145
302.164
302.185
302.205
302.227
302.248
302.271
302.294
302.317
302.342
302.367
302.392
302.418
302.445
302.472
302.501
302.529
302.559
302.589
302.62
302.652
302.684
302.717
302.751
302.786
302.821
302.857
302.894
302.932
302.97
303.009
303.049
303.089
303.13
303.172
303.215
303.258
303.302
303.346
303.392
303.437
303.484
303.531
303.579
303.627
303.676
303.725
303.775
303.826
303.877
303.929
303.981
304.034
304.088
304.143
304.198
304.255
304.312
304.371
304.431
304.493
304.556
304.622
304.691
304.762
304.837
304.915
304.996
305.08
305.164
305.243
305.311
305.357
303.646
303.654
303.623
303.569
303.504
303.436
303.366
303.296
303.229
303.163
303.1
303.04
302.982
302.926
302.873
302.822
302.773
302.725
302.68
302.637
302.596
302.556
302.518
302.481
302.446
302.412
302.38
302.349
302.319
302.291
302.263
302.237
302.212
302.188
302.164
302.142
302.12
302.1
302.08
302.061
302.042
302.025
302.008
301.992
301.976
301.961
301.947
301.933
301.919
301.907
301.894
301.883
301.872
301.861
301.85
301.841
301.831
301.822
301.814
301.805
301.798
301.79
301.783
301.777
301.771
301.765
301.759
301.754
301.75
301.745
301.741
301.738
301.735
301.732
301.729
301.727
301.726
301.724
301.723
301.723
301.722
301.722
301.723
301.724
301.725
301.726
301.728
301.731
301.733
301.736
301.74
301.744
301.748
301.752
301.757
301.762
301.768
301.774
301.78
301.787
301.794
301.802
301.81
301.818
301.827
301.836
301.845
301.855
301.865
301.876
301.887
301.899
301.911
301.923
301.936
301.949
301.963
301.977
301.992
302.007
302.022
302.038
302.055
302.072
302.089
302.107
302.126
302.145
302.164
302.185
302.205
302.227
302.248
302.271
302.294
302.317
302.342
302.367
302.392
302.418
302.445
302.472
302.501
302.529
302.559
302.589
302.62
302.652
302.684
302.717
302.751
302.786
302.821
302.857
302.894
302.932
302.97
303.009
303.049
303.089
303.13
303.172
303.215
303.258
303.302
303.346
303.392
303.437
303.484
303.531
303.579
303.627
303.676
303.725
303.775
303.826
303.877
303.929
303.981
304.034
304.088
304.143
304.198
304.255
304.312
304.371
304.431
304.493
304.556
304.622
304.691
304.762
304.837
304.915
304.996
305.08
305.164
305.243
305.311
305.357
303.261
303.272
303.254
303.219
303.173
303.121
303.066
303.009
302.953
302.897
302.842
302.788
302.737
302.687
302.638
302.591
302.546
302.503
302.461
302.421
302.382
302.345
302.31
302.275
302.242
302.21
302.18
302.15
302.122
302.095
302.069
302.044
302.02
301.996
301.974
301.953
301.932
301.912
301.893
301.875
301.857
301.84
301.823
301.808
301.792
301.778
301.764
301.75
301.737
301.725
301.713
301.701
301.69
301.679
301.669
301.659
301.65
301.641
301.632
301.624
301.616
301.609
301.602
301.595
301.589
301.583
301.577
301.572
301.567
301.562
301.558
301.554
301.551
301.547
301.545
301.542
301.54
301.538
301.537
301.536
301.535
301.534
301.534
301.535
301.535
301.536
301.538
301.54
301.542
301.544
301.547
301.55
301.554
301.557
301.562
301.566
301.571
301.577
301.582
301.589
301.595
301.602
301.609
301.617
301.625
301.633
301.642
301.651
301.661
301.671
301.681
301.692
301.703
301.715
301.727
301.74
301.753
301.766
301.78
301.795
301.81
301.825
301.841
301.857
301.874
301.891
301.909
301.927
301.946
301.966
301.986
302.006
302.028
302.049
302.072
302.095
302.118
302.142
302.167
302.193
302.219
302.246
302.273
302.301
302.33
302.36
302.39
302.421
302.453
302.485
302.518
302.552
302.587
302.622
302.658
302.695
302.732
302.77
302.809
302.849
302.889
302.93
302.972
303.014
303.057
303.1
303.144
303.189
303.234
303.28
303.327
303.373
303.421
303.469
303.517
303.566
303.615
303.665
303.716
303.766
303.818
303.87
303.922
303.975
304.029
304.084
304.139
304.196
304.253
304.312
304.373
304.435
304.498
304.562
304.626
304.688
304.747
304.798
304.835
304.853
303.261
303.272
303.254
303.219
303.173
303.121
303.066
303.009
302.953
302.897
302.842
302.788
302.737
302.687
302.638
302.591
302.546
302.503
302.461
302.421
302.382
302.345
302.31
302.275
302.242
302.21
302.18
302.15
302.122
302.095
302.069
302.044
302.02
301.996
301.974
301.953
301.932
301.912
301.893
301.875
301.857
301.84
301.823
301.808
301.792
301.778
301.764
301.75
301.737
301.725
301.713
301.701
301.69
301.679
301.669
301.659
301.65
301.641
301.632
301.624
301.616
301.609
301.602
301.595
301.589
301.583
301.577
301.572
301.567
301.562
301.558
301.554
301.551
301.547
301.545
301.542
301.54
301.538
301.537
301.536
301.535
301.534
301.534
301.535
301.535
301.536
301.538
301.54
301.542
301.544
301.547
301.55
301.554
301.557
301.562
301.566
301.571
301.577
301.582
301.589
301.595
301.602
301.609
301.617
301.625
301.633
301.642
301.651
301.661
301.671
301.681
301.692
301.703
301.715
301.727
301.74
301.753
301.766
301.78
301.795
301.81
301.825
301.841
301.857
301.874
301.891
301.909
301.927
301.946
301.966
301.986
302.006
302.028
302.049
302.072
302.095
302.118
302.142
302.167
302.193
302.219
302.246
302.273
302.301
302.33
302.36
302.39
302.421
302.453
302.485
302.518
302.552
302.587
302.622
302.658
302.695
302.732
302.77
302.809
302.849
302.889
302.93
302.972
303.014
303.057
303.1
303.144
303.189
303.234
303.28
303.327
303.373
303.421
303.469
303.517
303.566
303.615
303.665
303.716
303.766
303.818
303.87
303.922
303.975
304.029
304.084
304.139
304.196
304.253
304.312
304.373
304.435
304.498
304.562
304.626
304.688
304.747
304.798
304.835
304.853
302.958
302.966
302.955
302.93
302.896
302.856
302.811
302.764
302.716
302.668
302.62
302.573
302.526
302.481
302.437
302.394
302.353
302.313
302.274
302.237
302.2
302.166
302.132
302.1
302.068
302.038
302.009
301.981
301.954
301.928
301.903
301.879
301.856
301.834
301.812
301.792
301.772
301.753
301.734
301.716
301.699
301.683
301.667
301.651
301.636
301.622
301.608
301.595
301.582
301.57
301.558
301.547
301.536
301.525
301.515
301.505
301.496
301.487
301.478
301.47
301.462
301.455
301.447
301.441
301.434
301.428
301.422
301.417
301.412
301.407
301.402
301.398
301.394
301.391
301.388
301.385
301.383
301.381
301.379
301.377
301.376
301.376
301.375
301.375
301.375
301.376
301.377
301.378
301.38
301.382
301.384
301.387
301.39
301.393
301.397
301.401
301.406
301.411
301.416
301.421
301.427
301.434
301.441
301.448
301.455
301.463
301.471
301.48
301.489
301.499
301.509
301.519
301.53
301.541
301.552
301.564
301.577
301.59
301.603
301.617
301.631
301.646
301.662
301.677
301.694
301.71
301.728
301.746
301.764
301.783
301.802
301.823
301.843
301.864
301.886
301.909
301.932
301.955
301.98
302.005
302.03
302.056
302.083
302.111
302.139
302.168
302.198
302.228
302.26
302.291
302.324
302.357
302.391
302.426
302.461
302.497
302.534
302.571
302.609
302.648
302.688
302.728
302.768
302.81
302.852
302.894
302.937
302.981
303.025
303.07
303.115
303.161
303.207
303.253
303.3
303.348
303.395
303.443
303.492
303.54
303.589
303.639
303.689
303.739
303.789
303.84
303.892
303.943
303.996
304.049
304.102
304.155
304.209
304.261
304.312
304.36
304.402
304.436
304.457
304.462
302.958
302.966
302.955
302.93
302.896
302.856
302.811
302.764
302.716
302.668
302.62
302.573
302.526
302.481
302.437
302.394
302.353
302.313
302.274
302.237
302.2
302.166
302.132
302.1
302.068
302.038
302.009
301.981
301.954
301.928
301.903
301.879
301.856
301.834
301.812
301.792
301.772
301.753
301.734
301.716
301.699
301.683
301.667
301.651
301.636
301.622
301.608
301.595
301.582
301.57
301.558
301.547
301.536
301.525
301.515
301.505
301.496
301.487
301.478
301.47
301.462
301.455
301.447
301.441
301.434
301.428
301.422
301.417
301.412
301.407
301.402
301.398
301.394
301.391
301.388
301.385
301.383
301.381
301.379
301.377
301.376
301.376
301.375
301.375
301.375
301.376
301.377
301.378
301.38
301.382
301.384
301.387
301.39
301.393
301.397
301.401
301.406
301.411
301.416
301.421
301.427
301.434
301.441
301.448
301.455
301.463
301.471
301.48
301.489
301.499
301.509
301.519
301.53
301.541
301.552
301.564
301.577
301.59
301.603
301.617
301.631
301.646
301.662
301.677
301.694
301.71
301.728
301.746
301.764
301.783
301.802
301.823
301.843
301.864
301.886
301.909
301.932
301.955
301.98
302.005
302.03
302.056
302.083
302.111
302.139
302.168
302.198
302.228
302.26
302.291
302.324
302.357
302.391
302.426
302.461
302.497
302.534
302.571
302.609
302.648
302.688
302.728
302.768
302.81
302.852
302.894
302.937
302.981
303.025
303.07
303.115
303.161
303.207
303.253
303.3
303.348
303.395
303.443
303.492
303.54
303.589
303.639
303.689
303.739
303.789
303.84
303.892
303.943
303.996
304.049
304.102
304.155
304.209
304.261
304.312
304.36
304.402
304.436
304.457
304.462
302.707
302.712
302.703
302.684
302.658
302.625
302.588
302.549
302.508
302.466
302.424
302.382
302.34
302.299
302.259
302.22
302.182
302.145
302.109
302.074
302.04
302.007
301.975
301.945
301.915
301.886
301.859
301.832
301.806
301.782
301.758
301.735
301.712
301.691
301.67
301.65
301.631
301.612
301.594
301.577
301.56
301.544
301.529
301.514
301.499
301.485
301.472
301.459
301.446
301.434
301.422
301.411
301.4
301.39
301.38
301.37
301.361
301.352
301.343
301.335
301.327
301.319
301.312
301.305
301.299
301.292
301.286
301.281
301.276
301.271
301.266
301.262
301.258
301.254
301.251
301.248
301.245
301.243
301.241
301.239
301.237
301.236
301.236
301.235
301.235
301.235
301.236
301.237
301.238
301.24
301.242
301.244
301.247
301.25
301.253
301.257
301.261
301.266
301.271
301.276
301.281
301.287
301.294
301.3
301.307
301.315
301.323
301.331
301.34
301.349
301.358
301.368
301.378
301.389
301.4
301.412
301.424
301.436
301.449
301.463
301.477
301.491
301.506
301.521
301.537
301.553
301.57
301.588
301.606
301.624
301.643
301.663
301.683
301.704
301.725
301.747
301.77
301.793
301.817
301.841
301.866
301.892
301.919
301.946
301.974
302.002
302.031
302.061
302.092
302.123
302.155
302.188
302.221
302.255
302.29
302.325
302.362
302.398
302.436
302.474
302.513
302.552
302.592
302.632
302.674
302.715
302.758
302.8
302.843
302.887
302.931
302.976
303.02
303.066
303.111
303.157
303.203
303.249
303.296
303.343
303.389
303.437
303.484
303.531
303.579
303.626
303.674
303.722
303.769
303.817
303.864
303.91
303.956
303.999
304.04
304.077
304.108
304.132
304.144
304.144
302.707
302.712
302.703
302.684
302.658
302.625
302.588
302.549
302.508
302.466
302.424
302.382
302.34
302.299
302.259
302.22
302.182
302.145
302.109
302.074
302.04
302.007
301.975
301.945
301.915
301.886
301.859
301.832
301.806
301.782
301.758
301.735
301.712
301.691
301.67
301.65
301.631
301.612
301.594
301.577
301.56
301.544
301.529
301.514
301.499
301.485
301.472
301.459
301.446
301.434
301.422
301.411
301.4
301.39
301.38
301.37
301.361
301.352
301.343
301.335
301.327
301.319
301.312
301.305
301.299
301.292
301.286
301.281
301.276
301.271
301.266
301.262
301.258
301.254
301.251
301.248
301.245
301.243
301.241
301.239
301.237
301.236
301.236
301.235
301.235
301.235
301.236
301.237
301.238
301.24
301.242
301.244
301.247
301.25
301.253
301.257
301.261
301.266
301.271
301.276
301.281
301.287
301.294
301.3
301.307
301.315
301.323
301.331
301.34
301.349
301.358
301.368
301.378
301.389
301.4
301.412
301.424
301.436
301.449
301.463
301.477
301.491
301.506
301.521
301.537
301.553
301.57
301.588
301.606
301.624
301.643
301.663
301.683
301.704
301.725
301.747
301.77
301.793
301.817
301.841
301.866
301.892
301.919
301.946
301.974
302.002
302.031
302.061
302.092
302.123
302.155
302.188
302.221
302.255
302.29
302.325
302.362
302.398
302.436
302.474
302.513
302.552
302.592
302.632
302.674
302.715
302.758
302.8
302.843
302.887
302.931
302.976
303.02
303.066
303.111
303.157
303.203
303.249
303.296
303.343
303.389
303.437
303.484
303.531
303.579
303.626
303.674
303.722
303.769
303.817
303.864
303.91
303.956
303.999
304.04
304.077
304.108
304.131
304.144
304.144
302.49
302.493
302.485
302.47
302.448
302.421
302.39
302.357
302.322
302.285
302.248
302.21
302.172
302.135
302.099
302.062
302.027
301.993
301.959
301.926
301.894
301.863
301.833
301.804
301.776
301.749
301.723
301.697
301.673
301.649
301.626
301.604
301.582
301.562
301.542
301.522
301.504
301.486
301.468
301.452
301.435
301.42
301.404
301.39
301.376
301.362
301.349
301.336
301.324
301.312
301.3
301.289
301.278
301.268
301.258
301.248
301.239
301.23
301.222
301.213
301.205
301.198
301.19
301.183
301.177
301.17
301.164
301.159
301.153
301.148
301.143
301.139
301.135
301.131
301.127
301.124
301.121
301.119
301.116
301.114
301.113
301.112
301.111
301.11
301.11
301.11
301.11
301.111
301.112
301.113
301.115
301.117
301.119
301.122
301.125
301.128
301.132
301.136
301.141
301.145
301.151
301.156
301.162
301.168
301.175
301.182
301.19
301.198
301.206
301.215
301.224
301.233
301.243
301.254
301.264
301.276
301.287
301.299
301.312
301.325
301.338
301.352
301.367
301.382
301.397
301.413
301.43
301.447
301.464
301.483
301.501
301.52
301.54
301.561
301.582
301.603
301.625
301.648
301.672
301.696
301.721
301.746
301.772
301.799
301.826
301.854
301.883
301.912
301.942
301.973
302.005
302.037
302.07
302.103
302.137
302.172
302.208
302.244
302.281
302.318
302.356
302.395
302.434
302.474
302.514
302.555
302.597
302.638
302.681
302.723
302.766
302.81
302.853
302.897
302.941
302.986
303.03
303.075
303.12
303.165
303.21
303.255
303.3
303.344
303.389
303.433
303.478
303.522
303.565
303.608
303.65
303.69
303.729
303.766
303.8
303.829
303.853
303.869
303.877
303.874
302.49
302.493
302.485
302.47
302.448
302.421
302.39
302.357
302.322
302.285
302.248
302.21
302.172
302.135
302.099
302.062
302.027
301.993
301.959
301.926
301.894
301.863
301.833
301.804
301.776
301.749
301.723
301.697
301.673
301.649
301.626
301.604
301.582
301.562
301.542
301.522
301.504
301.486
301.468
301.452
301.435
301.42
301.404
301.39
301.376
301.362
301.349
301.336
301.324
301.312
301.3
301.289
301.278
301.268
301.258
301.248
301.239
301.23
301.222
301.213
301.205
301.198
301.19
301.183
301.177
301.17
301.164
301.159
301.153
301.148
301.143
301.139
301.135
301.131
301.127
301.124
301.121
301.119
301.116
301.114
301.113
301.112
301.111
301.11
301.11
301.11
301.11
301.111
301.112
301.113
301.115
301.117
301.119
301.122
301.125
301.128
301.132
301.136
301.141
301.145
301.151
301.156
301.162
301.168
301.175
301.182
301.19
301.198
301.206
301.215
301.224
301.233
301.243
301.254
301.264
301.276
301.287
301.299
301.312
301.325
301.338
301.352
301.367
301.382
301.397
301.413
301.43
301.447
301.464
301.483
301.501
301.52
301.54
301.561
301.582
301.603
301.625
301.648
301.672
301.696
301.721
301.746
301.772
301.799
301.826
301.854
301.883
301.912
301.942
301.973
302.005
302.037
302.07
302.103
302.137
302.172
302.208
302.244
302.281
302.318
302.356
302.395
302.434
302.474
302.514
302.555
302.597
302.638
302.681
302.723
302.766
302.81
302.853
302.897
302.941
302.986
303.03
303.075
303.12
303.165
303.21
303.255
303.3
303.344
303.389
303.433
303.478
303.522
303.565
303.608
303.65
303.69
303.729
303.766
303.8
303.829
303.853
303.869
303.877
303.874
302.3
302.3
302.293
302.28
302.261
302.238
302.212
302.183
302.152
302.119
302.086
302.052
302.018
301.984
301.951
301.917
301.885
301.853
301.821
301.791
301.761
301.731
301.703
301.676
301.649
301.623
301.598
301.574
301.55
301.527
301.505
301.484
301.463
301.443
301.424
301.405
301.387
301.37
301.353
301.336
301.321
301.305
301.291
301.276
301.262
301.249
301.236
301.223
301.211
301.2
301.188
301.177
301.167
301.156
301.146
301.137
301.128
301.119
301.11
301.102
301.094
301.086
301.079
301.072
301.065
301.059
301.053
301.047
301.041
301.036
301.031
301.027
301.022
301.018
301.015
301.011
301.008
301.006
301.003
301.001
300.999
300.998
300.996
300.995
300.995
300.995
300.995
300.995
300.996
300.997
300.998
301
301.002
301.005
301.007
301.011
301.014
301.018
301.022
301.027
301.031
301.037
301.042
301.048
301.055
301.062
301.069
301.076
301.084
301.093
301.101
301.111
301.12
301.13
301.141
301.152
301.163
301.175
301.187
301.2
301.213