/*--------------------------------*- C++ -*----------------------------------*\
  =========                 |
  \\      /  F ield         | OpenFOAM: The Open Source CFD Toolbox
   \\    /   O peration     | Website:  https://openfoam.org
    \\  /    A nd           | Version:  8
     \\/     M anipulation  |
\*---------------------------------------------------------------------------*/
FoamFile
{
    version     2.0;
    format      ascii;
    class       volVectorField;
    location    "3700";
    object      U;
}
// * * * * * * * * * * * * * * * * * * * * * * * * * * * * * * * * * * * * * //

dimensions      [0 1 -1 0 0 0 0];

internalField   nonuniform List<vector> 
46000
(
(0.00166275 1.94456e-06 -0.00170171)
(0.0085768 -3.68687e-05 -0.00501366)
(0.0158966 -3.29815e-05 -0.00487033)
(0.0210889 -1.63048e-05 -0.00311448)
(0.0236199 -4.49572e-06 -0.00122973)
(0.0237749 4.70525e-07 0.000412231)
(0.0219389 1.55053e-06 0.00173942)
(0.0185186 1.26447e-06 0.00277425)
(0.0138518 7.75095e-07 0.0035696)
(0.0082146 4.19723e-07 0.0041785)
(0.00182828 2.18507e-07 0.0046391)
(-0.00514723 1.1957e-07 0.00497336)
(-0.0125394 7.81402e-08 0.005208)
(-0.0202597 6.55598e-08 0.00537236)
(-0.0282136 6.56072e-08 0.00548167)
(-0.0363324 6.9706e-08 0.00554718)
(-0.0445586 7.34093e-08 0.00557757)
(-0.0528453 7.47134e-08 0.00557955)
(-0.0611535 7.32864e-08 0.00555835)
(-0.0694506 6.98218e-08 0.00551813)
(-0.077709 6.53561e-08 0.00546215)
(-0.0859052 6.07981e-08 0.00539303)
(-0.0940191 5.67153e-08 0.00531289)
(-0.102033 5.3279e-08 0.0052234)
(-0.109932 5.03502e-08 0.00512597)
(-0.117703 4.76832e-08 0.00502171)
(-0.125333 4.50493e-08 0.00491156)
(-0.132813 4.2345e-08 0.00479629)
(-0.140132 3.95553e-08 0.00467655)
(-0.147282 3.67708e-08 0.00455289)
(-0.154255 3.40959e-08 0.00442576)
(-0.161044 3.16594e-08 0.00429557)
(-0.167644 2.95221e-08 0.00416267)
(-0.174047 2.77029e-08 0.00402735)
(-0.180248 2.61784e-08 0.00388991)
(-0.186243 2.48743e-08 0.00375057)
(-0.192028 2.36898e-08 0.00360957)
(-0.197597 2.25223e-08 0.00346711)
(-0.202947 2.12843e-08 0.00332339)
(-0.208076 1.9896e-08 0.00317859)
(-0.21298 1.83265e-08 0.00303289)
(-0.217656 1.66001e-08 0.00288646)
(-0.222102 1.47899e-08 0.00273946)
(-0.226316 1.29934e-08 0.00259206)
(-0.230297 1.13412e-08 0.0024444)
(-0.234043 9.9431e-09 0.00229666)
(-0.237554 8.88724e-09 0.00214898)
(-0.240828 8.21183e-09 0.00200151)
(-0.243866 7.9068e-09 0.00185441)
(-0.246668 7.89722e-09 0.00170783)
(-0.249233 8.06654e-09 0.00156191)
(-0.251562 8.26584e-09 0.00141682)
(-0.253657 8.35449e-09 0.00127269)
(-0.255519 8.21772e-09 0.00112968)
(-0.257149 7.8048e-09 0.000987923)
(-0.258549 7.10494e-09 0.000847573)
(-0.259721 6.19469e-09 0.000708771)
(-0.260668 5.16307e-09 0.000571652)
(-0.261392 4.14481e-09 0.000436333)
(-0.261897 3.2414e-09 0.000302891)
(-0.262185 2.54514e-09 0.00017134)
(-0.262261 2.10342e-09 4.17317e-05)
(-0.262127 1.91374e-09 -8.54572e-05)
(-0.261789 1.94365e-09 -0.000209912)
(-0.261249 2.14656e-09 -0.000331774)
(-0.260513 2.47007e-09 -0.000451037)
(-0.259585 2.86927e-09 -0.000567616)
(-0.258469 3.30342e-09 -0.000681405)
(-0.257171 3.75005e-09 -0.000792303)
(-0.255695 4.18422e-09 -0.000900216)
(-0.254048 4.60842e-09 -0.00100506)
(-0.252234 5.00187e-09 -0.00110676)
(-0.250259 5.37205e-09 -0.00120524)
(-0.248128 5.71065e-09 -0.00130045)
(-0.245847 6.02515e-09 -0.00139232)
(-0.243423 6.30973e-09 -0.0014808)
(-0.240861 6.57188e-09 -0.00156586)
(-0.238167 6.83073e-09 -0.00164746)
(-0.235346 7.08877e-09 -0.00172555)
(-0.232406 7.3768e-09 -0.00180013)
(-0.229353 7.69397e-09 -0.00187116)
(-0.226191 8.05944e-09 -0.00193864)
(-0.222928 8.47736e-09 -0.00200256)
(-0.219569 8.93527e-09 -0.00206292)
(-0.216122 9.44066e-09 -0.00211973)
(-0.21259 9.98771e-09 -0.00217299)
(-0.208982 1.05498e-08 -0.00222272)
(-0.205301 1.11261e-08 -0.00226894)
(-0.201556 1.171e-08 -0.00231168)
(-0.19775 1.22906e-08 -0.00235098)
(-0.193891 1.28672e-08 -0.00238687)
(-0.189983 1.3423e-08 -0.0024194)
(-0.186032 1.3969e-08 -0.00244861)
(-0.182044 1.44934e-08 -0.00247455)
(-0.178023 1.4997e-08 -0.00249728)
(-0.173976 1.54783e-08 -0.00251687)
(-0.169906 1.59305e-08 -0.00253337)
(-0.165819 1.63645e-08 -0.00254687)
(-0.16172 1.67769e-08 -0.00255741)
(-0.157614 1.71811e-08 -0.00256509)
(-0.153504 1.75787e-08 -0.00256999)
(-0.149395 1.7968e-08 -0.00257217)
(-0.145292 1.83408e-08 -0.00257172)
(-0.141198 1.87154e-08 -0.00256874)
(-0.137117 1.90766e-08 -0.0025633)
(-0.133053 1.94297e-08 -0.00255548)
(-0.129009 1.97645e-08 -0.00254539)
(-0.12499 2.00694e-08 -0.00253311)
(-0.120997 2.03577e-08 -0.00251873)
(-0.117035 2.06111e-08 -0.00250233)
(-0.113105 2.08245e-08 -0.002484)
(-0.109212 2.09997e-08 -0.00246384)
(-0.105357 2.11366e-08 -0.00244193)
(-0.101542 2.12269e-08 -0.00241835)
(-0.0977713 2.12772e-08 -0.00239318)
(-0.0940458 2.12791e-08 -0.00236652)
(-0.0903678 2.12294e-08 -0.00233842)
(-0.0867393 2.11414e-08 -0.00230898)
(-0.0831621 2.09949e-08 -0.00227826)
(-0.0796378 2.08035e-08 -0.00224632)
(-0.0761682 2.05603e-08 -0.00221325)
(-0.0727546 2.02586e-08 -0.00217908)
(-0.0693985 1.99002e-08 -0.00214389)
(-0.0661013 1.94801e-08 -0.00210772)
(-0.0628641 1.90014e-08 -0.00207062)
(-0.0596881 1.84525e-08 -0.00203263)
(-0.0565746 1.78318e-08 -0.00199379)
(-0.0535244 1.71458e-08 -0.00195413)
(-0.0505387 1.63846e-08 -0.00191368)
(-0.0476185 1.55748e-08 -0.00187247)
(-0.0447646 1.46913e-08 -0.0018305)
(-0.041978 1.37492e-08 -0.0017878)
(-0.0392596 1.27518e-08 -0.00174438)
(-0.0366104 1.16906e-08 -0.00170023)
(-0.0340312 1.05825e-08 -0.00165537)
(-0.031523 9.42392e-09 -0.00160978)
(-0.0290866 8.2183e-09 -0.00156347)
(-0.0267231 6.97562e-09 -0.00151641)
(-0.0244333 5.68583e-09 -0.00146862)
(-0.0222182 4.37732e-09 -0.00142006)
(-0.0200789 3.0434e-09 -0.00137073)
(-0.0180164 1.68237e-09 -0.00132061)
(-0.0160316 2.97563e-10 -0.00126969)
(-0.0141258 -1.08762e-09 -0.00121797)
(-0.0122999 -2.48658e-09 -0.00116543)
(-0.0105552 -3.8759e-09 -0.00111206)
(-0.00889263 -5.27567e-09 -0.00105786)
(-0.00731343 -6.65912e-09 -0.00100285)
(-0.00581871 -8.0363e-09 -0.000947018)
(-0.00440956 -9.39382e-09 -0.000890398)
(-0.00308709 -1.07384e-08 -0.000833016)
(-0.00185226 -1.20533e-08 -0.000774988)
(-0.000706124 -1.33183e-08 -0.000716501)
(0.000351148 -1.45838e-08 -0.000657136)
(0.00131749 -1.58028e-08 -0.000596868)
(0.00219271 -1.69553e-08 -0.000536133)
(0.00297594 -1.80746e-08 -0.000475086)
(0.00366669 -1.90938e-08 -0.000413839)
(0.00426461 -2.00128e-08 -0.000352514)
(0.00476954 -2.08349e-08 -0.00029125)
(0.00518152 -2.15233e-08 -0.000230201)
(0.00550085 -2.20844e-08 -0.000169538)
(0.00572807 -2.25217e-08 -0.000109457)
(0.00586404 -2.2835e-08 -5.01714e-05)
(0.00590987 -2.30177e-08 8.09116e-06)
(0.00586722 -2.3073e-08 6.5122e-05)
(0.00573779 -2.29537e-08 0.000120668)
(0.00552388 -2.26933e-08 0.000174421)
(0.00522821 -2.22683e-08 0.000226074)
(0.00485398 -2.16181e-08 0.000275297)
(0.0044049 -2.07594e-08 0.000321736)
(0.00388521 -1.96752e-08 0.000365016)
(0.00329976 -1.84259e-08 0.000404738)
(0.00265402 -1.70046e-08 0.000440476)
(0.00195413 -1.5492e-08 0.00047178)
(0.00120688 -1.39182e-08 0.000498174)
(0.000420166 -1.22664e-08 0.000519143)
(-0.000398401 -1.05096e-08 0.000533854)
(-0.00123821 -8.61396e-09 0.000541625)
(-0.00208965 -6.48503e-09 0.000542065)
(-0.00294122 -3.97107e-09 0.000534658)
(-0.00378054 -9.33606e-10 0.000518701)
(-0.00459404 2.65481e-09 0.000493294)
(-0.00536674 6.74753e-09 0.000457623)
(-0.00608226 1.10989e-08 0.000410765)
(-0.00672263 1.53653e-08 0.000351718)
(-0.00726812 1.93511e-08 0.000279426)
(-0.00769719 2.30697e-08 0.000192786)
(-0.00798638 2.694e-08 9.07361e-05)
(-0.00811044 3.13003e-08 -2.76163e-05)
(-0.0080425 3.62258e-08 -0.000162421)
(-0.00775568 4.13664e-08 -0.000312827)
(-0.00722438 4.64803e-08 -0.000476047)
(-0.00642808 5.23542e-08 -0.00064496)
(-0.00535895 6.1281e-08 -0.000804103)
(-0.00403691 7.5658e-08 -0.000922111)
(-0.00253505 9.50828e-08 -0.000938309)
(-0.00103268 1.11167e-07 -0.000739538)
(0.000120126 1.12119e-07 -0.00021138)
(0.000256998 5.98187e-08 0.000277338)
(0.00167011 1.94399e-06 -0.00171365)
(0.00858208 -3.68526e-05 -0.00503047)
(0.0159003 -3.29776e-05 -0.00488122)
(0.0210892 -1.63046e-05 -0.00311975)
(0.023618 -4.49575e-06 -0.00123196)
(0.0237721 4.70527e-07 0.000411371)
(0.0219365 1.55052e-06 0.00173907)
(0.0185169 1.26446e-06 0.00277404)
(0.0138509 7.75089e-07 0.00356942)
(0.00821425 4.1972e-07 0.00417835)
(0.00182821 2.18505e-07 0.00463897)
(-0.00514717 1.19569e-07 0.00497325)
(-0.0125393 7.81397e-08 0.00520791)
(-0.0202596 6.55594e-08 0.00537228)
(-0.0282136 6.56068e-08 0.0054816)
(-0.0363323 6.97057e-08 0.00554713)
(-0.0445585 7.34089e-08 0.00557753)
(-0.0528452 7.47131e-08 0.00557951)
(-0.0611534 7.32861e-08 0.00555832)
(-0.0694505 6.98214e-08 0.0055181)
(-0.0777088 6.53558e-08 0.00546212)
(-0.085905 6.07979e-08 0.00539301)
(-0.0940189 5.67151e-08 0.00531286)
(-0.102033 5.32788e-08 0.00522338)
(-0.109932 5.035e-08 0.00512595)
(-0.117703 4.76831e-08 0.00502169)
(-0.125333 4.50492e-08 0.00491154)
(-0.132812 4.23449e-08 0.00479628)
(-0.140131 3.95551e-08 0.00467654)
(-0.147281 3.67707e-08 0.00455288)
(-0.154255 3.40957e-08 0.00442575)
(-0.161044 3.16593e-08 0.00429556)
(-0.167643 2.9522e-08 0.00416266)
(-0.174046 2.77028e-08 0.00402735)
(-0.180248 2.61783e-08 0.0038899)
(-0.186243 2.48743e-08 0.00375057)
(-0.192027 2.36897e-08 0.00360956)
(-0.197597 2.25222e-08 0.00346711)
(-0.202947 2.12843e-08 0.00332339)
(-0.208076 1.98959e-08 0.00317859)
(-0.212979 1.83265e-08 0.00303289)
(-0.217655 1.66001e-08 0.00288646)
(-0.222101 1.47899e-08 0.00273946)
(-0.226316 1.29934e-08 0.00259205)
(-0.230297 1.13412e-08 0.00244439)
(-0.234043 9.94308e-09 0.00229664)
(-0.237554 8.88722e-09 0.00214896)
(-0.240828 8.21181e-09 0.00200149)
(-0.243866 7.90678e-09 0.00185439)
(-0.246667 7.8972e-09 0.00170781)
(-0.249232 8.06653e-09 0.00156189)
(-0.251562 8.26582e-09 0.0014168)
(-0.253657 8.35447e-09 0.00127267)
(-0.255518 8.2177e-09 0.00112965)
(-0.257148 7.80478e-09 0.000987896)
(-0.258548 7.10493e-09 0.000847544)
(-0.25972 6.19468e-09 0.000708739)
(-0.260667 5.16306e-09 0.000571618)
(-0.261392 4.1448e-09 0.000436296)
(-0.261896 3.24139e-09 0.000302851)
(-0.262185 2.54513e-09 0.000171298)
(-0.26226 2.10342e-09 4.1687e-05)
(-0.262127 1.91374e-09 -8.55043e-05)
(-0.261788 1.94364e-09 -0.000209962)
(-0.261249 2.14655e-09 -0.000331825)
(-0.260512 2.47006e-09 -0.000451091)
(-0.259584 2.86927e-09 -0.000567672)
(-0.258469 3.30341e-09 -0.000681463)
(-0.25717 3.75004e-09 -0.000792363)
(-0.255695 4.18421e-09 -0.000900279)
(-0.254048 4.60841e-09 -0.00100512)
(-0.252233 5.00186e-09 -0.00110683)
(-0.250258 5.37204e-09 -0.00120531)
(-0.248127 5.71064e-09 -0.00130052)
(-0.245847 6.02514e-09 -0.00139239)
(-0.243423 6.30972e-09 -0.00148088)
(-0.24086 6.57187e-09 -0.00156594)
(-0.238166 6.83072e-09 -0.00164754)
(-0.235346 7.08876e-09 -0.00172564)
(-0.232406 7.37678e-09 -0.00180021)
(-0.229352 7.69396e-09 -0.00187125)
(-0.226191 8.05942e-09 -0.00193873)
(-0.222928 8.47734e-09 -0.00200266)
(-0.219569 8.93525e-09 -0.00206302)
(-0.216121 9.44064e-09 -0.00211982)
(-0.21259 9.98769e-09 -0.00217309)
(-0.208981 1.05498e-08 -0.00222282)
(-0.205301 1.11261e-08 -0.00226904)
(-0.201555 1.171e-08 -0.00231179)
(-0.19775 1.22906e-08 -0.00235109)
(-0.193891 1.28672e-08 -0.00238699)
(-0.189983 1.3423e-08 -0.00241951)
(-0.186032 1.39689e-08 -0.00244872)
(-0.182043 1.44933e-08 -0.00247467)
(-0.178023 1.4997e-08 -0.00249741)
(-0.173975 1.54782e-08 -0.002517)
(-0.169906 1.59305e-08 -0.00253351)
(-0.165819 1.63644e-08 -0.002547)
(-0.16172 1.67769e-08 -0.00255755)
(-0.157614 1.7181e-08 -0.00256524)
(-0.153504 1.75786e-08 -0.00257013)
(-0.149395 1.7968e-08 -0.00257232)
(-0.145292 1.83408e-08 -0.00257188)
(-0.141198 1.87153e-08 -0.00256889)
(-0.137117 1.90766e-08 -0.00256345)
(-0.133053 1.94297e-08 -0.00255565)
(-0.129009 1.97645e-08 -0.00254556)
(-0.12499 2.00694e-08 -0.00253328)
(-0.120997 2.03577e-08 -0.0025189)
(-0.117034 2.0611e-08 -0.0025025)
(-0.113105 2.08245e-08 -0.00248418)
(-0.109211 2.09997e-08 -0.00246402)
(-0.105356 2.11366e-08 -0.00244211)
(-0.101542 2.12268e-08 -0.00241854)
(-0.0977711 2.12771e-08 -0.00239338)
(-0.0940456 2.12791e-08 -0.00236671)
(-0.0903676 2.12294e-08 -0.00233862)
(-0.0867391 2.11413e-08 -0.00230918)
(-0.0831619 2.09949e-08 -0.00227846)
(-0.0796376 2.08034e-08 -0.00224653)
(-0.0761679 2.05602e-08 -0.00221346)
(-0.0727544 2.02586e-08 -0.0021793)
(-0.0693983 1.99002e-08 -0.00214411)
(-0.0661011 1.948e-08 -0.00210794)
(-0.0628639 1.90013e-08 -0.00207084)
(-0.0596879 1.84525e-08 -0.00203285)
(-0.0565744 1.78318e-08 -0.00199401)
(-0.0535242 1.71458e-08 -0.00195436)
(-0.0505385 1.63846e-08 -0.00191391)
(-0.0476183 1.55747e-08 -0.0018727)
(-0.0447644 1.46913e-08 -0.00183074)
(-0.0419778 1.37492e-08 -0.00178804)
(-0.0392594 1.27517e-08 -0.00174462)
(-0.0366102 1.16906e-08 -0.00170048)
(-0.034031 1.05825e-08 -0.00165561)
(-0.0315228 9.4239e-09 -0.00161003)
(-0.0290864 8.21829e-09 -0.00156371)
(-0.0267229 6.97561e-09 -0.00151666)
(-0.0244331 5.68582e-09 -0.00146886)
(-0.022218 4.37732e-09 -0.0014203)
(-0.0200787 3.0434e-09 -0.00137097)
(-0.0180162 1.68237e-09 -0.00132085)
(-0.0160314 2.97562e-10 -0.00126994)
(-0.0141256 -1.08762e-09 -0.00121821)
(-0.0122998 -2.48658e-09 -0.00116567)
(-0.010555 -3.8759e-09 -0.0011123)
(-0.00889245 -5.27566e-09 -0.0010581)
(-0.00731325 -6.65911e-09 -0.00100308)
(-0.00581853 -8.03629e-09 -0.000947251)
(-0.00440938 -9.39381e-09 -0.000890628)
(-0.00308691 -1.07384e-08 -0.000833242)
(-0.00185208 -1.20532e-08 -0.000775211)
(-0.000705941 -1.33183e-08 -0.00071672)
(0.000351331 -1.45838e-08 -0.000657351)
(0.00131767 -1.58028e-08 -0.000597077)
(0.00219289 -1.69552e-08 -0.000536338)
(0.00297612 -1.80746e-08 -0.000475285)
(0.00366687 -1.90938e-08 -0.000414032)
(0.00426479 -2.00128e-08 -0.000352702)
(0.00476972 -2.08349e-08 -0.000291432)
(0.00518171 -2.15232e-08 -0.000230376)
(0.00550104 -2.20844e-08 -0.000169707)
(0.00572825 -2.25216e-08 -0.000109619)
(0.00586422 -2.2835e-08 -5.03262e-05)
(0.00591005 -2.30176e-08 7.94344e-06)
(0.0058674 -2.3073e-08 6.49814e-05)
(0.00573796 -2.29537e-08 0.000120535)
(0.00552405 -2.26933e-08 0.000174295)
(0.00522838 -2.22683e-08 0.000225955)
(0.00485415 -2.16181e-08 0.000275185)
(0.00440505 -2.07594e-08 0.000321631)
(0.00388536 -1.96752e-08 0.000364918)
(0.00329991 -1.84259e-08 0.000404646)
(0.00265417 -1.70046e-08 0.00044039)
(0.00195427 -1.5492e-08 0.000471701)
(0.00120701 -1.39182e-08 0.0004981)
(0.000420288 -1.22664e-08 0.000519074)
(-0.000398288 -1.05096e-08 0.00053379)
(-0.0012381 -8.61395e-09 0.000541567)
(-0.00208955 -6.48503e-09 0.000542011)
(-0.00294114 -3.97107e-09 0.000534609)
(-0.00378046 -9.33605e-10 0.000518657)
(-0.00459397 2.65481e-09 0.000493255)
(-0.00536667 6.74752e-09 0.000457589)
(-0.0060822 1.10989e-08 0.000410734)
(-0.00672257 1.53653e-08 0.000351689)
(-0.00726808 1.9351e-08 0.000279398)
(-0.00769716 2.30697e-08 0.000192758)
(-0.00798636 2.694e-08 9.07067e-05)
(-0.00811043 3.13002e-08 -2.76467e-05)
(-0.00804249 3.62257e-08 -0.000162453)
(-0.00775568 4.13664e-08 -0.000312861)
(-0.00722439 4.64803e-08 -0.000476088)
(-0.00642809 5.23541e-08 -0.000645011)
(-0.00535897 6.1281e-08 -0.000804165)
(-0.00403692 7.56579e-08 -0.000922183)
(-0.00253506 9.50828e-08 -0.000938389)
(-0.00103266 1.11167e-07 -0.000739622)
(0.000120135 1.12119e-07 -0.00021145)
(0.000256978 5.98187e-08 0.000277291)
(0.00479552 3.78539e-05 -0.00907795)
(0.0104435 4.40931e-06 -0.0109312)
(0.0135124 -2.01307e-06 -0.00869156)
(0.0149463 -1.81477e-06 -0.00506193)
(0.0146977 -5.58831e-07 -0.00141102)
(0.0130004 1.45862e-07 0.00179838)
(0.0100274 3.04022e-07 0.00445405)
(0.00596009 2.30397e-07 0.0065877)
(0.000974214 1.18821e-07 0.00827704)
(-0.00476873 3.57809e-08 0.00960196)
(-0.0111179 -1.19407e-08 0.0106308)
(-0.0179562 -3.43362e-08 0.0114174)
(-0.0251785 -4.16186e-08 0.0120101)
(-0.0326999 -4.09893e-08 0.0124512)
(-0.0404452 -3.69024e-08 0.0127695)
(-0.0483532 -3.20147e-08 0.012988)
(-0.056372 -2.76977e-08 0.0131243)
(-0.0644579 -2.44524e-08 0.0131926)
(-0.0725738 -2.21964e-08 0.0132039)
(-0.0806881 -2.05883e-08 0.0131673)
(-0.0887737 -1.92568e-08 0.01309)
(-0.096807 -1.79479e-08 0.0129778)
(-0.104768 -1.65605e-08 0.0128354)
(-0.112638 -1.51172e-08 0.0126668)
(-0.120402 -1.3703e-08 0.0124752)
(-0.128047 -1.24012e-08 0.0122633)
(-0.135559 -1.12684e-08 0.0120332)
(-0.142928 -1.02998e-08 0.011787)
(-0.150144 -9.4606e-09 0.0115262)
(-0.157197 -8.7006e-09 0.0112522)
(-0.16408 -7.9699e-09 0.0109662)
(-0.170786 -7.2348e-09 0.0106693)
(-0.177307 -6.47829e-09 0.0103624)
(-0.183637 -5.70949e-09 0.0100464)
(-0.189771 -4.94583e-09 0.00972204)
(-0.195704 -4.21844e-09 0.00939006)
(-0.20143 -3.55595e-09 0.00905114)
(-0.206946 -2.98242e-09 0.00870591)
(-0.212247 -2.51483e-09 0.00835497)
(-0.21733 -2.16271e-09 0.00799891)
(-0.222193 -1.92479e-09 0.0076383)
(-0.226831 -1.77903e-09 0.00727369)
(-0.231244 -1.69347e-09 0.00690563)
(-0.235428 -1.6212e-09 0.00653465)
(-0.239382 -1.50787e-09 0.00616129)
(-0.243104 -1.30699e-09 0.00578606)
(-0.246593 -1.00034e-09 0.00540951)
(-0.24985 -5.91238e-10 0.00503213)
(-0.252872 -1.14136e-10 0.00465445)
(-0.25566 3.74127e-10 0.00427698)
(-0.258215 8.11326e-10 0.00390023)
(-0.260536 1.14147e-09 0.00352468)
(-0.262624 1.33097e-09 0.00315085)
(-0.264481 1.37072e-09 0.00277922)
(-0.266108 1.28397e-09 0.00241028)
(-0.267507 1.1122e-09 0.00204449)
(-0.26868 9.08502e-10 0.00168235)
(-0.269628 7.25558e-10 0.00132429)
(-0.270354 6.02762e-10 0.000970775)
(-0.270862 5.63748e-10 0.000622236)
(-0.271154 6.15145e-10 0.000279091)
(-0.271234 7.45336e-10 -5.82559e-05)
(-0.271105 9.3068e-10 -0.000389529)
(-0.270771 1.15044e-09 -0.000714456)
(-0.270236 1.3818e-09 -0.00103267)
(-0.269504 1.60073e-09 -0.00134383)
(-0.268579 1.79186e-09 -0.0016476)
(-0.267467 1.94858e-09 -0.00194367)
(-0.266171 2.06964e-09 -0.00223175)
(-0.264698 2.1513e-09 -0.00251157)
(-0.263052 2.20146e-09 -0.00278289)
(-0.261237 2.21761e-09 -0.00304551)
(-0.259261 2.20598e-09 -0.00329921)
(-0.257127 2.1728e-09 -0.00354382)
(-0.254842 2.1193e-09 -0.0037792)
(-0.252412 2.05171e-09 -0.00400522)
(-0.249841 1.97623e-09 -0.00422176)
(-0.247137 1.89911e-09 -0.00442874)
(-0.244304 1.82779e-09 -0.00462609)
(-0.241348 1.76435e-09 -0.00481375)
(-0.238276 1.71376e-09 -0.00499171)
(-0.235094 1.67852e-09 -0.00515995)
(-0.231807 1.65614e-09 -0.00531849)
(-0.228421 1.64579e-09 -0.00546734)
(-0.224943 1.64207e-09 -0.00560656)
(-0.221377 1.64334e-09 -0.00573622)
(-0.217731 1.64004e-09 -0.00585638)
(-0.214009 1.63384e-09 -0.00596715)
(-0.210218 1.62101e-09 -0.00606864)
(-0.206363 1.60279e-09 -0.00616097)
(-0.202449 1.57503e-09 -0.00624429)
(-0.198483 1.53856e-09 -0.00631875)
(-0.194469 1.49546e-09 -0.00638451)
(-0.190413 1.44406e-09 -0.00644176)
(-0.186321 1.38643e-09 -0.00649068)
(-0.182196 1.32424e-09 -0.00653147)
(-0.178045 1.25749e-09 -0.00656434)
(-0.173872 1.18575e-09 -0.0065895)
(-0.169681 1.11236e-09 -0.00660718)
(-0.165478 1.04186e-09 -0.00661761)
(-0.161267 9.72604e-10 -0.00662102)
(-0.157052 9.05419e-10 -0.00661765)
(-0.152837 8.38645e-10 -0.00660774)
(-0.148626 7.73942e-10 -0.00659155)
(-0.144423 7.10895e-10 -0.00656932)
(-0.140233 6.47843e-10 -0.0065413)
(-0.136057 5.82297e-10 -0.00650774)
(-0.131901 5.17991e-10 -0.00646888)
(-0.127767 4.48699e-10 -0.00642497)
(-0.123658 3.77741e-10 -0.00637626)
(-0.119578 3.02211e-10 -0.00632298)
(-0.115529 2.21278e-10 -0.00626537)
(-0.111514 1.39506e-10 -0.00620366)
(-0.107536 5.60655e-11 -0.00613807)
(-0.103597 -2.90448e-11 -0.00606882)
(-0.0996992 -1.13334e-10 -0.00599612)
(-0.0958453 -1.96803e-10 -0.00592017)
(-0.0920372 -2.79036e-10 -0.00584115)
(-0.0882769 -3.60864e-10 -0.00575925)
(-0.0845664 -4.37719e-10 -0.00567465)
(-0.0809074 -5.16247e-10 -0.0055875)
(-0.0773017 -5.90216e-10 -0.00549794)
(-0.0737509 -6.60043e-10 -0.00540613)
(-0.0702565 -7.29049e-10 -0.00531217)
(-0.0668201 -7.96405e-10 -0.00521619)
(-0.063443 -8.60449e-10 -0.00511829)
(-0.0601267 -9.22843e-10 -0.00501854)
(-0.0568724 -9.82339e-10 -0.00491703)
(-0.0536815 -1.03686e-09 -0.00481382)
(-0.0505551 -1.09015e-09 -0.00470895)
(-0.0474944 -1.13555e-09 -0.00460247)
(-0.0445008 -1.17597e-09 -0.00449441)
(-0.0415753 -1.21101e-09 -0.00438476)
(-0.0387191 -1.24355e-09 -0.00427354)
(-0.0359335 -1.26613e-09 -0.00416075)
(-0.0332195 -1.28374e-09 -0.00404637)
(-0.0305784 -1.29469e-09 -0.00393037)
(-0.0280114 -1.299e-09 -0.00381273)
(-0.0255197 -1.295e-09 -0.00369341)
(-0.0231046 -1.28436e-09 -0.00357237)
(-0.0207673 -1.2629e-09 -0.00344958)
(-0.0185091 -1.23479e-09 -0.00332498)
(-0.0163313 -1.1992e-09 -0.00319855)
(-0.0142353 -1.15778e-09 -0.00307023)
(-0.0122224 -1.10221e-09 -0.00294001)
(-0.010294 -1.04248e-09 -0.00280784)
(-0.00845141 -9.70266e-10 -0.00267373)
(-0.00669611 -8.92217e-10 -0.00253766)
(-0.00502944 -8.08334e-10 -0.00239965)
(-0.00345275 -7.16116e-10 -0.00225974)
(-0.00196737 -6.16394e-10 -0.002118)
(-0.000574542 -5.15825e-10 -0.00197462)
(0.000724576 -4.10242e-10 -0.00182961)
(0.00192832 -2.99648e-10 -0.00168281)
(0.00303581 -1.74046e-10 -0.00153432)
(0.00404601 -4.67634e-11 -0.00138452)
(0.004958 7.97028e-11 -0.00123362)
(0.00577101 2.15356e-10 -0.00108188)
(0.00648443 3.56865e-10 -0.000929583)
(0.00709783 5.03399e-10 -0.000777046)
(0.00761101 6.55794e-10 -0.000624624)
(0.00802399 8.10716e-10 -0.000472721)
(0.00833707 9.62328e-10 -0.000321787)
(0.00855082 1.10813e-09 -0.00017232)
(0.00866615 1.25229e-09 -2.48757e-05)
(0.00868431 1.38982e-09 0.000120008)
(0.00860697 1.51649e-09 0.000261726)
(0.00843618 1.64235e-09 0.000399556)
(0.00817447 1.77573e-09 0.000532748)
(0.00782484 1.90747e-09 0.000660493)
(0.00739081 2.04591e-09 0.000781926)
(0.00687647 2.17268e-09 0.000896121)
(0.0062865 2.28611e-09 0.00100209)
(0.00562624 2.37197e-09 0.00109878)
(0.00490166 2.4077e-09 0.00118506)
(0.0041195 2.39827e-09 0.00125971)
(0.00328729 2.33614e-09 0.00132147)
(0.00241326 2.24051e-09 0.00136877)
(0.00150663 2.1214e-09 0.0014001)
(0.000577424 1.99137e-09 0.00141397)
(-0.000363469 1.87382e-09 0.00140865)
(-0.00130352 1.7872e-09 0.00138226)
(-0.00222972 1.70139e-09 0.0013328)
(-0.0031277 1.57201e-09 0.00125809)
(-0.00398193 1.31528e-09 0.00115569)
(-0.00477562 8.37297e-10 0.00102298)
(-0.00549067 1.37894e-10 0.000857182)
(-0.00610771 -6.89226e-10 0.000655399)
(-0.00660614 -1.51172e-09 0.000414779)
(-0.00696438 -2.25748e-09 0.000132834)
(-0.00716031 -3.07911e-09 -0.000191762)
(-0.00717157 -4.21174e-09 -0.000558148)
(-0.00697766 -5.69766e-09 -0.000961551)
(-0.00656132 -6.9293e-09 -0.00138909)
(-0.00591185 -6.79212e-09 -0.00181231)
(-0.00503019 -4.29809e-09 -0.00217389)
(-0.00393317 8.77523e-10 -0.0023643)
(-0.00266594 6.92871e-09 -0.00218425)
(-0.00131646 7.4147e-09 -0.00133765)
(-0.000225468 -3.38842e-08 0.00010477)
(0.0048061 3.7857e-05 -0.00908679)
(0.0104488 4.40914e-06 -0.0109378)
(0.0135139 -2.01302e-06 -0.00869426)
(0.0149454 -1.81474e-06 -0.0050636)
(0.0146965 -5.5882e-07 -0.00141223)
(0.0129994 1.4586e-07 0.00179766)
(0.0100267 3.04017e-07 0.00445369)
(0.0059597 2.30393e-07 0.00658753)
(0.000974065 1.18819e-07 0.00827696)
(-0.00476873 3.57804e-08 0.00960191)
(-0.0111178 -1.19406e-08 0.0106308)
(-0.0179561 -3.43357e-08 0.0114174)
(-0.0251784 -4.1618e-08 0.0120101)
(-0.0326998 -4.09888e-08 0.0124512)
(-0.0404451 -3.69019e-08 0.0127695)
(-0.0483531 -3.20143e-08 0.012988)
(-0.0563719 -2.76974e-08 0.0131243)
(-0.0644578 -2.44521e-08 0.0131925)
(-0.0725737 -2.21961e-08 0.0132039)
(-0.080688 -2.05881e-08 0.0131673)
(-0.0887735 -1.92566e-08 0.01309)
(-0.0968068 -1.79477e-08 0.0129778)
(-0.104768 -1.65604e-08 0.0128354)
(-0.112638 -1.5117e-08 0.0126668)
(-0.120402 -1.37029e-08 0.0124752)
(-0.128047 -1.2401e-08 0.0122633)
(-0.135559 -1.12683e-08 0.0120332)
(-0.142928 -1.02996e-08 0.011787)
(-0.150143 -9.46049e-09 0.0115262)
(-0.157197 -8.70051e-09 0.0112522)
(-0.16408 -7.96981e-09 0.0109662)
(-0.170786 -7.23473e-09 0.0106693)
(-0.177307 -6.47822e-09 0.0103624)
(-0.183637 -5.70943e-09 0.0100464)
(-0.189771 -4.94577e-09 0.00972203)
(-0.195703 -4.21839e-09 0.00939006)
(-0.201429 -3.55591e-09 0.00905114)
(-0.206945 -2.98238e-09 0.00870591)
(-0.212247 -2.5148e-09 0.00835497)
(-0.21733 -2.16269e-09 0.00799891)
(-0.222192 -1.92477e-09 0.0076383)
(-0.226831 -1.77901e-09 0.00727369)
(-0.231243 -1.69345e-09 0.00690562)
(-0.235427 -1.62119e-09 0.00653464)
(-0.239381 -1.50785e-09 0.00616128)
(-0.243103 -1.30698e-09 0.00578606)
(-0.246593 -1.00033e-09 0.0054095)
(-0.249849 -5.91232e-10 0.00503213)
(-0.252872 -1.14134e-10 0.00465445)
(-0.25566 3.74123e-10 0.00427698)
(-0.258214 8.11318e-10 0.00390022)
(-0.260535 1.14146e-09 0.00352468)
(-0.262624 1.33096e-09 0.00315085)
(-0.264481 1.37071e-09 0.00277921)
(-0.266108 1.28396e-09 0.00241027)
(-0.267507 1.11219e-09 0.00204449)
(-0.268679 9.08493e-10 0.00168233)
(-0.269627 7.25551e-10 0.00132428)
(-0.270354 6.02756e-10 0.000970762)
(-0.270862 5.63742e-10 0.000622223)
(-0.271154 6.15139e-10 0.000279077)
(-0.271234 7.45329e-10 -5.8271e-05)
(-0.271105 9.30671e-10 -0.000389545)
(-0.270771 1.15043e-09 -0.000714472)
(-0.270235 1.38179e-09 -0.00103269)
(-0.269503 1.60071e-09 -0.00134384)
(-0.268579 1.79185e-09 -0.00164762)
(-0.267466 1.94856e-09 -0.00194369)
(-0.266171 2.06962e-09 -0.00223177)
(-0.264698 2.15128e-09 -0.00251159)
(-0.263051 2.20144e-09 -0.00278292)
(-0.261237 2.21759e-09 -0.00304553)
(-0.25926 2.20596e-09 -0.00329923)
(-0.257127 2.17278e-09 -0.00354385)
(-0.254842 2.11928e-09 -0.00377923)
(-0.252411 2.05169e-09 -0.00400525)
(-0.249841 1.97622e-09 -0.00422179)
(-0.247136 1.89909e-09 -0.00442877)
(-0.244303 1.82777e-09 -0.00462611)
(-0.241348 1.76433e-09 -0.00481378)
(-0.238276 1.71375e-09 -0.00499174)
(-0.235094 1.67851e-09 -0.00515998)
(-0.231807 1.65613e-09 -0.00531852)
(-0.228421 1.64577e-09 -0.00546737)
(-0.224942 1.64206e-09 -0.0056066)
(-0.221377 1.64332e-09 -0.00573625)
(-0.21773 1.64003e-09 -0.00585641)
(-0.214009 1.63383e-09 -0.00596718)
(-0.210217 1.621e-09 -0.00606867)
(-0.206362 1.60278e-09 -0.00616101)
(-0.202449 1.57502e-09 -0.00624433)
(-0.198482 1.53855e-09 -0.00631878)
(-0.194469 1.49544e-09 -0.00638455)
(-0.190413 1.44404e-09 -0.0064418)
(-0.18632 1.38642e-09 -0.00649072)
(-0.182196 1.32423e-09 -0.00653151)
(-0.178045 1.25748e-09 -0.00656438)
(-0.173872 1.18574e-09 -0.00658954)
(-0.169681 1.11235e-09 -0.00660722)
(-0.165478 1.04185e-09 -0.00661765)
(-0.161267 9.72596e-10 -0.00662106)
(-0.157051 9.05412e-10 -0.00661769)
(-0.152836 8.38639e-10 -0.00660779)
(-0.148626 7.73936e-10 -0.0065916)
(-0.144423 7.10889e-10 -0.00656937)
(-0.140232 6.47838e-10 -0.00654135)
(-0.136057 5.82293e-10 -0.00650779)
(-0.131901 5.17987e-10 -0.00646893)
(-0.127767 4.48696e-10 -0.00642503)
(-0.123658 3.77739e-10 -0.00637631)
(-0.119578 3.02209e-10 -0.00632304)
(-0.115529 2.21276e-10 -0.00626543)
(-0.111514 1.39505e-10 -0.00620372)
(-0.107536 5.60651e-11 -0.00613813)
(-0.103597 -2.90446e-11 -0.00606888)
(-0.099699 -1.13333e-10 -0.00599618)
(-0.0958451 -1.96802e-10 -0.00592023)
(-0.092037 -2.79034e-10 -0.00584121)
(-0.0882767 -3.60862e-10 -0.00575932)
(-0.0845662 -4.37717e-10 -0.00567472)
(-0.0809072 -5.16243e-10 -0.00558756)
(-0.0773015 -5.90212e-10 -0.00549801)
(-0.0737507 -6.60038e-10 -0.0054062)
(-0.0702563 -7.29045e-10 -0.00531224)
(-0.0668199 -7.964e-10 -0.00521626)
(-0.0634428 -8.60444e-10 -0.00511836)
(-0.0601265 -9.22837e-10 -0.00501861)
(-0.0568722 -9.82333e-10 -0.0049171)
(-0.0536813 -1.03685e-09 -0.00481389)
(-0.0505549 -1.09014e-09 -0.00470903)
(-0.0474943 -1.13554e-09 -0.00460255)
(-0.0445006 -1.17597e-09 -0.00449448)
(-0.0415751 -1.211e-09 -0.00438483)
(-0.0387189 -1.24355e-09 -0.00427362)
(-0.0359333 -1.26613e-09 -0.00416083)
(-0.0332193 -1.28373e-09 -0.00404644)
(-0.0305782 -1.29469e-09 -0.00393044)
(-0.0280112 -1.299e-09 -0.0038128)
(-0.0255195 -1.295e-09 -0.00369348)
(-0.0231044 -1.28435e-09 -0.00357245)
(-0.0207671 -1.26289e-09 -0.00344965)
(-0.0185089 -1.23478e-09 -0.00332506)
(-0.0163311 -1.19919e-09 -0.00319862)
(-0.0142351 -1.15777e-09 -0.00307031)
(-0.0122222 -1.10221e-09 -0.00294008)
(-0.0102938 -1.04248e-09 -0.00280792)
(-0.00845123 -9.70262e-10 -0.0026738)
(-0.00669594 -8.92213e-10 -0.00253773)
(-0.00502927 -8.0833e-10 -0.00239972)
(-0.00345257 -7.16113e-10 -0.0022598)
(-0.00196719 -6.16391e-10 -0.00211807)
(-0.000574367 -5.15823e-10 -0.00197469)
(0.000724752 -4.1024e-10 -0.00182968)
(0.0019285 -2.99647e-10 -0.00168287)
(0.00303598 -1.74045e-10 -0.00153438)
(0.00404619 -4.67632e-11 -0.00138457)
(0.00495818 7.97025e-11 -0.00123367)
(0.00577118 2.15355e-10 -0.00108193)
(0.0064846 3.56864e-10 -0.000929637)
(0.007098 5.03397e-10 -0.000777097)
(0.00761118 6.55791e-10 -0.000624674)
(0.00802416 8.10713e-10 -0.000472768)
(0.00833724 9.62325e-10 -0.000321831)
(0.00855099 1.10812e-09 -0.000172362)
(0.00866632 1.25228e-09 -2.49151e-05)
(0.00868447 1.38981e-09 0.000119971)
(0.00860713 1.51649e-09 0.000261692)
(0.00843634 1.64234e-09 0.000399524)
(0.00817463 1.77573e-09 0.000532718)
(0.00782499 1.90747e-09 0.000660466)
(0.00739096 2.04591e-09 0.000781901)
(0.00687662 2.17268e-09 0.000896099)
(0.00628665 2.2861e-09 0.00100207)
(0.00562637 2.37197e-09 0.00109876)
(0.0049018 2.40769e-09 0.00118504)
(0.00411963 2.39826e-09 0.0012597)
(0.00328741 2.33613e-09 0.00132146)
(0.00241338 2.2405e-09 0.00136877)
(0.00150673 2.1214e-09 0.00140009)
(0.000577521 1.99136e-09 0.00141396)
(-0.000363379 1.87381e-09 0.00140865)
(-0.00130344 1.7872e-09 0.00138226)
(-0.00222964 1.70139e-09 0.0013328)
(-0.00312763 1.57201e-09 0.00125809)
(-0.00398187 1.31528e-09 0.00115569)
(-0.00477557 8.37295e-10 0.00102298)
(-0.00549063 1.37893e-10 0.000857183)
(-0.00610767 -6.89224e-10 0.000655398)
(-0.00660611 -1.51171e-09 0.000414777)
(-0.00696436 -2.25748e-09 0.00013283)
(-0.00716029 -3.0791e-09 -0.000191769)
(-0.00717156 -4.21173e-09 -0.00055816)
(-0.00697765 -5.69764e-09 -0.000961569)
(-0.00656132 -6.92928e-09 -0.00138912)
(-0.00591186 -6.79211e-09 -0.00181235)
(-0.00503021 -4.29807e-09 -0.00217393)
(-0.00393318 8.77521e-10 -0.00236436)
(-0.00266595 6.9287e-09 -0.00218431)
(-0.00131648 7.41471e-09 -0.00133769)
(-0.000225502 -3.38842e-08 0.000104766)
(0.00441209 2.25234e-05 -0.0167145)
(0.00804809 5.28989e-06 -0.0141652)
(0.00875695 1.27526e-06 -0.00943285)