/*--------------------------------*- C++ -*----------------------------------*\
  =========                 |
  \\      /  F ield         | OpenFOAM: The Open Source CFD Toolbox
   \\    /   O peration     | Website:  https://openfoam.org
    \\  /    A nd           | Version:  8
     \\/     M anipulation  |
\*---------------------------------------------------------------------------*/
FoamFile
{
    version     2.0;
    format      ascii;
    class       volScalarField;
    location    "1100";
    object      k;
}
// * * * * * * * * * * * * * * * * * * * * * * * * * * * * * * * * * * * * * //

dimensions      [0 2 -2 0 0 0 0];

internalField   nonuniform List<scalar> 
48000
(
0.0191184
0.0200958
0.0228495
0.0296475
0.0359945
0.0417969
0.0472368
0.0524681
0.0574732
0.0623247
0.067053
0.0716814
0.0762277
0.0807053
0.0851242
0.0894914
0.0938122
0.09809
0.102327
0.106525
0.110683
0.114802
0.118882
0.12292
0.126915
0.130867
0.134772
0.13863
0.142439
0.146196
0.1499
0.153549
0.157141
0.160675
0.164149
0.16756
0.170909
0.174193
0.177412
0.180563
0.183647
0.186661
0.189606
0.19248
0.195282
0.198013
0.200671
0.203255
0.205766
0.208204
0.210567
0.212855
0.21507
0.217209
0.219274
0.221264
0.22318
0.225021
0.226788
0.22848
0.230099
0.231643
0.233114
0.234511
0.235836
0.237094
0.238282
0.2394
0.240447
0.241425
0.242333
0.243172
0.243943
0.244646
0.245282
0.245853
0.246357
0.246797
0.247172
0.247484
0.247733
0.24792
0.248046
0.248111
0.248117
0.248063
0.247952
0.247783
0.247558
0.247277
0.24694
0.24655
0.246106
0.24561
0.245062
0.244463
0.243813
0.243114
0.242366
0.241571
0.240728
0.239838
0.238903
0.237923
0.236898
0.23583
0.234718
0.233564
0.232368
0.231132
0.229854
0.228537
0.22718
0.225785
0.224351
0.222879
0.22137
0.219824
0.218241
0.216623
0.214969
0.21328
0.211556
0.209798
0.208006
0.206181
0.204322
0.20243
0.200506
0.198549
0.196561
0.194541
0.192491
0.190409
0.188297
0.186155
0.183984
0.181783
0.179553
0.177295
0.175009
0.172696
0.170356
0.167989
0.165596
0.163178
0.160734
0.158267
0.155776
0.153261
0.150725
0.148167
0.145587
0.142988
0.140369
0.137731
0.135076
0.132403
0.129715
0.127011
0.124293
0.121562
0.118819
0.116064
0.113298
0.110524
0.107741
0.104951
0.102155
0.0993539
0.0965486
0.0937402
0.0909297
0.088118
0.0853059
0.0824944
0.079684
0.0768753
0.0740687
0.0712644
0.0684624
0.0656624
0.0628636
0.0600654
0.0572674
0.054471
0.051684
0.0489183
0.0461291
0.0433008
0.0404209
0.0374669
0.0344104
0.0312127
0.0278847
0.0243044
0.0205079
0.0176109
0.0192484
0.0161752
0.0191131
0.0200956
0.0228539
0.0296489
0.0359961
0.0417987
0.0472386
0.0524699
0.057475
0.0623265
0.0670547
0.071683
0.0762293
0.0807069
0.0851256
0.0894928
0.0938135
0.0980913
0.102328
0.106526
0.110684
0.114804
0.118883
0.122921
0.126916
0.130868
0.134773
0.138631
0.14244
0.146197
0.149901
0.15355
0.157142
0.160676
0.164149
0.167561
0.170909
0.174194
0.177412
0.180564
0.183647
0.186662
0.189606
0.19248
0.195282
0.198013
0.200671
0.203255
0.205766
0.208203
0.210567
0.212855
0.215069
0.217209
0.219274
0.221264
0.22318
0.225021
0.226788
0.22848
0.230099
0.231643
0.233114
0.23451
0.235836
0.237094
0.238282
0.2394
0.240447
0.241424
0.242332
0.243171
0.243942
0.244646
0.245282
0.245852
0.246357
0.246796
0.247171
0.247483
0.247732
0.247919
0.248045
0.24811
0.248116
0.248063
0.247951
0.247783
0.247557
0.247276
0.24694
0.24655
0.246106
0.24561
0.245061
0.244462
0.243813
0.243114
0.242366
0.24157
0.240727
0.239838
0.238903
0.237922
0.236897
0.235829
0.234717
0.233564
0.232368
0.231131
0.229854
0.228536
0.22718
0.225784
0.22435
0.222878
0.221369
0.219823
0.218241
0.216623
0.214969
0.21328
0.211556
0.209798
0.208006
0.20618
0.204321
0.202429
0.200505
0.198549
0.196561
0.194541
0.19249
0.190408
0.188297
0.186155
0.183983
0.181782
0.179553
0.177295
0.175009
0.172696
0.170355
0.167988
0.165595
0.163177
0.160734
0.158266
0.155775
0.153261
0.150724
0.148166
0.145587
0.142987
0.140368
0.137731
0.135075
0.132403
0.129715
0.127011
0.124293
0.121562
0.118818
0.116063
0.113298
0.110524
0.107741
0.104951
0.102155
0.0993536
0.0965483
0.0937399
0.0909294
0.0881177
0.0853057
0.0824942
0.0796838
0.0768751
0.0740685
0.0712643
0.0684623
0.0656622
0.0628635
0.0600653
0.0572673
0.054471
0.0516839
0.0489182
0.046129
0.0433007
0.0404208
0.037467
0.0344105
0.0312133
0.027887
0.0243095
0.0205077
0.0176069
0.0192493
0.0161755
0.027054
0.0389057
0.0541297
0.0680744
0.0808577
0.0927782
0.104084
0.114931
0.125419
0.135626
0.14561
0.155414
0.165071
0.174606
0.184037
0.193377
0.202636
0.21182
0.220934
0.229977
0.238952
0.247856
0.256688
0.265443
0.27412
0.282712
0.291217
0.299629
0.307944
0.316157
0.324263
0.332257
0.340135
0.347893
0.355525
0.363028
0.370399
0.377633
0.384728
0.391679
0.398485
0.405142
0.411648
0.418001
0.424198
0.430239
0.436121
0.441843
0.447404
0.452802
0.458038
0.463111
0.468019
0.472763
0.477342
0.481756
0.486006
0.490091
0.494011
0.497768
0.501361
0.504791
0.508057
0.51116
0.514098
0.516872
0.51949
0.521953
0.524261
0.526416
0.528418
0.530269
0.53197
0.533522
0.534928
0.536187
0.537303
0.538276
0.539108
0.5398
0.540355
0.540774
0.541058
0.541209
0.541229
0.54112
0.540883
0.54052
0.540033
0.539424
0.538694
0.537845
0.536879
0.535798
0.534603
0.533295
0.531878
0.530352
0.528719
0.526981
0.525139
0.523195
0.521151
0.519007
0.516767
0.514431
0.512
0.509477
0.506862
0.504157
0.501363
0.498481
0.495513
0.49246
0.489324
0.486104
0.482803
0.479421
0.47596
0.47242
0.468802
0.465107
0.461337
0.457492
0.453573
0.44958
0.445516
0.441379
0.437172
0.432895
0.428548
0.424134
0.419651
0.415102
0.410487
0.405808
0.401063
0.396256
0.391387
0.386456
0.381465
0.376414
0.371306
0.36614
0.360918
0.355642
0.350313
0.344932
0.3395
0.334019
0.328491
0.322917
0.317298
0.311637
0.305935
0.300194
0.294416
0.288603
0.282757
0.276879
0.270973
0.265041
0.259084
0.253105
0.247106
0.241089
0.235058
0.229014
0.22296
0.216898
0.210831
0.20476
0.198688
0.192617
0.186549
0.180486
0.174429
0.168379
0.162337
0.156304
0.150278
0.144259
0.138246
0.132234
0.126222
0.120202
0.11417
0.108112
0.102004
0.0958307
0.0895756
0.083198
0.0766528
0.0698745
0.0627628
0.055214
0.0468875
0.0380848
0.0294326
0.0221278
0.0270589
0.0389071
0.0541315
0.0680763
0.0808596
0.0927798
0.104085
0.114932
0.12542
0.135627
0.145611
0.155415
0.165072
0.174606
0.184037
0.193377
0.202636
0.211821
0.220934
0.229978
0.238952
0.247856
0.256688
0.265443
0.274119
0.282712
0.291217
0.299629
0.307944
0.316157
0.324262
0.332257
0.340135
0.347892
0.355524
0.363028
0.370398
0.377632
0.384727
0.391678
0.398484
0.405141
0.411647
0.417999
0.424197
0.430237
0.436119
0.441841
0.447402
0.452801
0.458037
0.463109
0.468017
0.472761
0.47734
0.481754
0.486004
0.490089
0.49401
0.497766
0.501359
0.504789
0.508055
0.511158
0.514096
0.51687
0.519488
0.521951
0.524259
0.526414
0.528416
0.530267
0.531968
0.53352
0.534926
0.536186
0.537301
0.538274
0.539106
0.539798
0.540353
0.540772
0.541056
0.541207
0.541227
0.541118
0.540881
0.540518
0.540031
0.539422
0.538692
0.537843
0.536877
0.535796
0.534601
0.533293
0.531876
0.53035
0.528717
0.526979
0.525137
0.523193
0.521149
0.519006
0.516765
0.514429
0.511998
0.509475
0.50686
0.504155
0.501361
0.498479
0.495511
0.492459
0.489322
0.486102
0.482801
0.479419
0.475958
0.472418
0.4688
0.465106
0.461335
0.45749
0.453571
0.449579
0.445514
0.441377
0.43717
0.432893
0.428547
0.424132
0.41965
0.415101
0.410486
0.405806
0.401062
0.396255
0.391385
0.386454
0.381463
0.376413
0.371304
0.366138
0.360917
0.355641
0.350312
0.344931
0.339499
0.334018
0.32849
0.322915
0.317297
0.311636
0.305934
0.300193
0.294415
0.288601
0.282755
0.276878
0.270972
0.26504
0.259082
0.253103
0.247105
0.241088
0.235057
0.229013
0.222959
0.216897
0.21083
0.204759
0.198687
0.192616
0.186549
0.180485
0.174428
0.168378
0.162337
0.156303
0.150277
0.144259
0.138245
0.132234
0.126221
0.120202
0.114169
0.108111
0.102004
0.0958302
0.0895752
0.0831977
0.0766526
0.0698746
0.0627632
0.0552143
0.0468869
0.0380818
0.0294298
0.0221271
0.0322107
0.0557921
0.0749497
0.0915871
0.106975
0.121521
0.135443
0.148884
0.161944
0.174701
0.187213
0.199525
0.211671
0.223679
0.235567
0.247351
0.25904
0.270642
0.28216
0.293596
0.30495
0.31622
0.327403
0.338494
0.34949
0.360384
0.371172
0.381846
0.392402
0.402832
0.41313
0.423291
0.433308
0.443176
0.452889
0.462441
0.471828
0.481044
0.490086
0.498948
0.507627
0.51612
0.524422
0.532532
0.540445
0.548161
0.555676
0.562988
0.570096
0.576999
0.583695
0.590183
0.596463
0.602533
0.608394
0.614045
0.619486
0.624718
0.62974
0.634553
0.639158
0.643554
0.647742
0.651723
0.655498
0.659066
0.662429
0.665593
0.668559
0.671329
0.673904
0.676286
0.678475
0.680475
0.682286
0.683911
0.685352
0.68661
0.687688
0.688587
0.68931
0.689859
0.690235
0.690442
0.690481
0.690354
0.690065
0.689614
0.689004
0.688238
0.687317
0.686244
0.685021
0.683651
0.682135
0.680476
0.678675
0.676736
0.67466
0.672449
0.670106
0.667633
0.66503
0.662302
0.659449
0.656473
0.653377
0.650162
0.646829
0.643382
0.639821
0.636148
0.632365
0.628473
0.624473
0.620368
0.616159
0.611847
0.607433
0.602918
0.598305
0.593594
0.588786
0.583882
0.578884
0.573793
0.568609
0.563335
0.55797
0.552516
0.546974
0.541345
0.53563
0.529831
0.523947
0.517981
0.511934
0.505807
0.4996
0.493316
0.486955
0.48052
0.47401
0.467429
0.460777
0.454056
0.447268
0.440415
0.433497
0.426519
0.41948
0.412384
0.405232
0.398027
0.39077
0.383466
0.376115
0.368721
0.361285
0.353812
0.346303
0.338762
0.33119
0.323593
0.315971
0.308329
0.300669
0.292995
0.285309
0.277615
0.269915
0.262213
0.25451
0.24681
0.239115
0.231427
0.223748
0.216079
0.208421
0.200774
0.193138
0.185511
0.177891
0.170276
0.162658
0.155033
0.14739
0.139717
0.131995
0.124201
0.11631
0.10828
0.100075
0.0916271
0.08284
0.0735978
0.0636797
0.0527092
0.0403914
0.028858
0.0322099
0.0557902
0.0749499
0.0915885
0.106976
0.121522
0.135444
0.148884
0.161945
0.174701
0.187213
0.199525
0.211671
0.223678
0.235566
0.24735
0.259039
0.270641
0.282159
0.293596
0.30495
0.316219
0.327402
0.338493
0.349489
0.360383
0.37117
0.381845
0.3924
0.40283
0.413129
0.42329
0.433307
0.443175
0.452887
0.462439
0.471826
0.481042
0.490084
0.498946
0.507625
0.516118
0.52442
0.53253
0.540443
0.548159
0.555674
0.562986
0.570094
0.576997
0.583693
0.590181
0.59646
0.602531
0.608392
0.614043
0.619484
0.624716
0.629738
0.634551
0.639155
0.643551
0.64774
0.651721
0.655495
0.659063
0.662427
0.665591
0.668557
0.671327
0.673902
0.676283
0.678473
0.680472
0.682284
0.683909
0.685349
0.686607
0.687685
0.688584
0.689307
0.689856
0.690233
0.690439
0.690478
0.690352
0.690062
0.689611
0.689002
0.688235
0.687314
0.686242
0.685019
0.683648
0.682132
0.680473
0.678673
0.676734
0.674658
0.672447
0.670104
0.66763
0.665028
0.662299
0.659446
0.656471
0.653374
0.650159
0.646827
0.64338
0.639818
0.636146
0.632362
0.62847
0.624471
0.620366
0.616157
0.611844
0.60743
0.602916
0.598303
0.593592
0.588784
0.58388
0.578882
0.573791
0.568607
0.563332
0.557968
0.552514
0.546972
0.541343
0.535628
0.529829
0.523945
0.517979
0.511932
0.505805
0.499598
0.493314
0.486953
0.480518
0.474008
0.467427
0.460775
0.454054
0.447266
0.440413
0.433496
0.426517
0.419478
0.412382
0.40523
0.398025
0.390769
0.383464
0.376113
0.368719
0.361284
0.35381
0.346301
0.33876
0.331189
0.323591
0.31597
0.308328
0.300668
0.292994
0.285308
0.277614
0.269914
0.262211
0.254509
0.246809
0.239114
0.231426
0.223747
0.216078
0.20842
0.200773
0.193137
0.18551
0.177891
0.170275
0.162658
0.155032
0.14739
0.139717
0.131994
0.124201
0.116309
0.108279
0.100074
0.0916267
0.0828395
0.073597
0.0636789
0.0527073
0.0403931
0.0288647
0.0302368
0.0687751
0.0919239
0.110906
0.128188
0.144501
0.160154
0.175313
0.190088
0.204555
0.218771
0.232779
0.246613
0.260298
0.273855
0.287298
0.300637
0.313878
0.327025
0.340081
0.353043
0.365911
0.378681
0.391348
0.403907
0.416353
0.428679
0.440878
0.452943
0.464868
0.476646
0.48827
0.499733
0.511028
0.522149
0.533091
0.543846
0.55441
0.564777
0.574942
0.584901
0.594649
0.604183
0.613499
0.622592
0.631462
0.640104
0.648516
0.656696
0.664643
0.672354
0.679829
0.687066
0.694064
0.700823
0.707343
0.713623
0.719663
0.725463
0.731024
0.736346
0.74143
0.746276
0.750884
0.755257
0.759394
0.763297
0.766968
0.770411
0.773628
0.776621
0.77939
0.78194
0.78427
0.786383
0.788282
0.789967
0.791443
0.79271
0.793772
0.79463
0.795288
0.795746
0.796009
0.796078
0.795956
0.795646
0.795149
0.794469
0.793609
0.79257
0.791355
0.789967
0.788408
0.786681
0.784789
0.782734
0.780518
0.778144
0.775614
0.772931
0.770097
0.767115
0.763986
0.760714
0.7573
0.753746
0.750055
0.746228
0.742268
0.738177
0.733956
0.729608
0.725134
0.720536
0.715816
0.710975
0.706016
0.700938
0.695745
0.690437
0.685017
0.679484
0.673841
0.66809
0.66223
0.656264
0.650193
0.644018
0.63774
0.631361
0.624882
0.618304
0.611628
0.604856
0.597989
0.591028
0.583976
0.576832
0.569599
0.562279
0.554872
0.547381
0.539808
0.532153
0.52442
0.51661
0.508725
0.500768
0.492739
0.484643
0.476482
0.468257
0.459971
0.451628
0.44323
0.434779
0.42628
0.417734
0.409146
0.400518
0.391853
0.383156
0.374429
0.365676
0.3569
0.348105
0.339294
0.330472
0.32164
0.312803
0.303964
0.295126
0.286291
0.277462
0.268642
0.259833
0.251035
0.24225
0.233479
0.22472
0.215972
0.207233
0.198499
0.189766
0.181025
0.172268
0.163482
0.154649
0.145749
0.136756
0.127634
0.118338
0.108801
0.0989257
0.0885632
0.0774676
0.0651117
0.0501872
0.0315141
0.0302343
0.068776
0.0919253
0.110907
0.128189
0.144502
0.160153
0.175313
0.190088
0.204555
0.21877
0.232778
0.246612
0.260298
0.273855
0.287297
0.300636
0.313877
0.327024
0.34008
0.353042
0.36591
0.37868
0.391347
0.403906
0.416351
0.428677
0.440876
0.452942
0.464867
0.476645
0.488268
0.499731
0.511026
0.522148
0.533089
0.543844
0.554408
0.564775
0.57494
0.584899
0.594647
0.604181
0.613497
0.62259
0.63146
0.640102
0.648514
0.656694
0.664641
0.672352
0.679827
0.687064
0.694062
0.700821
0.707341
0.713621
0.719661
0.725461
0.731022
0.736344
0.741428
0.746273
0.750882
0.755254
0.759392
0.763295
0.766965
0.770408
0.773626
0.776618
0.779388
0.781937
0.784267
0.786381
0.788279
0.789965
0.791441
0.792708
0.79377
0.794628
0.795285
0.795744
0.796007
0.796076
0.795954
0.795643
0.795147
0.794467
0.793606
0.792567
0.791352
0.789964
0.788406
0.786679
0.784787
0.782731
0.780515
0.778141
0.775612
0.772929
0.770095
0.767113
0.763984
0.760712
0.757298
0.753744
0.750053
0.746226
0.742266
0.738175
0.733954
0.729606
0.725132
0.720534
0.715814
0.710973
0.706014
0.700936
0.695743
0.690435
0.685015
0.679482
0.673839
0.668088
0.662228
0.656262
0.650191
0.644016
0.637739
0.63136
0.62488
0.618302
0.611626
0.604854
0.597987
0.591027
0.583974
0.57683
0.569598
0.562277
0.554871
0.54738
0.539806
0.532152
0.524419
0.516609
0.508724
0.500766
0.492738
0.484642
0.47648
0.468255
0.45997
0.451627
0.443228
0.434778
0.426279
0.417733
0.409145
0.400517
0.391852
0.383155
0.374428
0.365674
0.356899
0.348104
0.339293
0.330471
0.321639
0.312802
0.303963
0.295125
0.28629
0.277461
0.268641
0.259832
0.251034
0.24225
0.233478
0.224719
0.215971
0.207232
0.198499
0.189765
0.181025
0.172268
0.163481
0.154649
0.145749
0.136756
0.127633
0.118338
0.108801
0.0989254
0.0885627
0.0774669
0.0651108
0.0501892
0.0315092
0.0356997
0.0811405
0.107529
0.128616
0.147561
0.165357
0.182417
0.198954
0.215092
0.230912
0.246473
0.261818
0.27698
0.291984
0.306848
0.321587
0.33621
0.350724
0.365133
0.379438
0.393639
0.407734
0.421719
0.43559
0.449341
0.462967
0.476462
0.489818
0.503029
0.516087
0.528986
0.541718
0.554275
0.566652
0.578842
0.590837
0.602632
0.614221
0.625597
0.636756
0.647693
0.658402
0.66888
0.679122
0.689124
0.698883
0.708396
0.71766
0.726673
0.735432
0.743935
0.752181
0.760168
0.767895
0.775362
0.782567
0.78951
0.796192
0.802611
0.808768
0.814664
0.820299
0.825673
0.830787
0.835643
0.840241
0.844583
0.848669
0.852503
0.856088
0.859426
0.862519
0.865368
0.867975
0.870343
0.872475
0.874371
0.876035
0.87747
0.878677
0.879659
0.880419
0.880959
0.881283
0.881393
0.881291
0.88098
0.880463
0.879744
0.878824
0.877706
0.876394
0.87489
0.873197
0.871317
0.869254
0.86701
0.864588
0.861991
0.859221
0.856281
0.853173
0.849901
0.846466
0.842872
0.83912
0.835214
0.831154
0.826945
0.822587
0.818083
0.813436
0.808647
0.803718
0.798652
0.79345
0.788114
0.782645
0.777047
0.771319
0.765465
0.759485
0.753381
0.747155
0.740807
0.734341
0.727756
0.721055
0.714238
0.707308
0.700265
0.693112
0.685849
0.678478
0.671
0.663418
0.655732
0.647944
0.640056
0.632069
0.623986
0.615807
0.607536
0.599173
0.590722
0.582184
0.573561
0.564856
0.556071
0.547209
0.538272
0.529263
0.520185
0.511041
0.501833
0.492566
0.483241
0.473864
0.464436
0.454961
0.445444
0.435887
0.426294
0.41667
0.407017
0.397341
0.387643
0.377929
0.368202
0.358466
0.348724
0.33898
0.329236
0.319496
0.309763
0.300039
0.290326
0.280626
0.270939
0.261266
0.251606
0.241958
0.23232
0.222689
0.213058
0.203422
0.193772
0.184095
0.174377
0.164597
0.15473
0.144742
0.134586
0.124191
0.113449
0.102167
0.0899781
0.0760037
0.0576866
0.0321909
0.0357005
0.0811427
0.107531
0.128617
0.147562
0.165357
0.182417
0.198954
0.215091
0.230911
0.246472
0.261817
0.276979
0.291983
0.306847
0.321586
0.336209
0.350723
0.365132
0.379437
0.393638
0.407733
0.421717
0.435588
0.44934
0.462966
0.476461
0.489817
0.503027
0.516086
0.528984
0.541716
0.554274
0.566651
0.57884
0.590835
0.60263
0.614219
0.625596
0.636755
0.647691
0.658401
0.668878
0.67912
0.689122
0.698881
0.708394
0.717659
0.726671
0.73543
0.743933
0.752179
0.760166
0.767893
0.77536
0.782565
0.789508
0.79619
0.802609
0.808766
0.814662
0.820297
0.825671
0.830785
0.835641
0.840239
0.844581
0.848667
0.852501
0.856086
0.859424
0.862517
0.865366
0.867973
0.870341
0.872473
0.874369
0.876033
0.877468
0.878675
0.879657
0.880417
0.880958
0.881281
0.881391
0.881289
0.880978
0.880462
0.879742
0.878822
0.877704
0.876392
0.874888
0.873195
0.871316
0.869252
0.867009
0.864587
0.861989
0.859219
0.856279
0.853172
0.849899
0.846465
0.84287
0.839118
0.835212
0.831152
0.826943
0.822585
0.818082
0.813434
0.808645
0.803717
0.79865
0.793448
0.788112
0.782644
0.777045
0.771318
0.765463
0.759483
0.753379
0.747153
0.740806
0.734339
0.727754
0.721053
0.714237
0.707306
0.700264
0.69311
0.685847
0.678476
0.670999
0.663416
0.65573
0.647942
0.640054
0.632068
0.623984
0.615806
0.607535
0.599172
0.590721
0.582183
0.57356
0.564855
0.55607
0.547208
0.538271
0.529262
0.520184
0.51104
0.501832
0.492565
0.48324
0.473863
0.464435
0.45496
0.445443
0.435886
0.426293
0.416669
0.407017
0.39734
0.387642
0.377928
0.368202
0.358465
0.348723
0.338979
0.329235
0.319496
0.309763
0.300039
0.290326
0.280625
0.270938
0.261265
0.251605
0.241958
0.23232
0.222688
0.213058
0.203422
0.193772
0.184095
0.174377
0.164597
0.15473
0.144742
0.134585
0.124191
0.113449
0.102168
0.0899791
0.0760027
0.0576819
0.032193
0.0412224
0.0929794
0.122426
0.145535
0.166067
0.185244
0.203582
0.221342
0.238672
0.255664
0.272381
0.288868
0.305158
0.321275
0.337239
0.353062
0.368755
0.384325
0.399775
0.415106
0.43032
0.445413
0.460383
0.475226
0.489937
0.504511
0.518941
0.533221
0.547344
0.561303
0.575092
0.588703
0.602129
0.615363
0.628399
0.64123
0.65385
0.666252
0.678431
0.690381
0.702097
0.713574
0.724806
0.73579
0.746522
0.756997
0.767213
0.777166
0.786853
0.796271
0.805419
0.814295
0.822896
0.831221
0.83927
0.847041
0.854533
0.861747
0.868681
0.875336
0.881712
0.887809
0.893628
0.89917
0.904435
0.909425
0.91414
0.918582
0.922753
0.926656
0.930293
0.933666
0.936777
0.939629
0.942223
0.944562
0.946648
0.948484
0.950072
0.951414
0.952514
0.953375
0.953998
0.954387
0.954545
0.954475
0.954179
0.95366
0.952921
0.951966
0.950798
0.949418
0.947831
0.946039
0.944045
0.941852
0.939464
0.936882
0.93411
0.931152
0.928008
0.924684
0.92118
0.9175
0.913647
0.909623
0.905431
0.901073
0.896553
0.891871
0.887031
0.882035
0.876885
0.871583
0.866132
0.860533
0.854789
0.848901
0.842871
0.836702
0.830395
0.823951
0.817373
0.810662
0.80382
0.796849
0.789749
0.782522
0.775171
0.767697
0.760101
0.752384
0.744549
0.736597
0.72853
0.720349
0.712056
0.703653
0.695142
0.686524
0.677801
0.668976
0.660051
0.651027
0.641908
0.632694
0.62339
0.613997
0.604518
0.594956
0.585314
0.575594
0.565801
0.555936
0.546003
0.536006
0.525948
0.515833
0.505664
0.495445
0.485181
0.474874
0.464529
0.45415
0.443741
0.433306
0.422849
0.412374
0.401884
0.391385
0.380878
0.370368
0.359858
0.349352
0.338851
0.328358
0.317876
0.307406
0.296948
0.286504
0.276072
0.265652
0.255241
0.244836
0.234433
0.224025
0.213604
0.203159
0.192676
0.182135
0.171511
0.160769
0.149858
0.138702
0.127175
0.115058
0.101917
0.0867856
0.0668375
0.0308384
0.0412245
0.0929817
0.122427
0.145535
0.166067
0.185243
0.203581
0.221341
0.238671
0.255663
0.27238
0.288867
0.305157
0.321274
0.337238
0.353061
0.368754
0.384324
0.399774
0.415105
0.430318
0.445412
0.460382
0.475225
0.489936
0.50451
0.51894
0.53322
0.547343
0.561302
0.57509
0.588701
0.602127
0.615362
0.628398
0.641229
0.653849
0.666251
0.67843
0.69038
0.702096
0.713572
0.724805
0.735789
0.74652
0.756996
0.767211
0.777164
0.786851
0.79627
0.805418
0.814293
0.822894
0.83122
0.839268
0.847039
0.854532
0.861745
0.868679
0.875334
0.88171
0.887808
0.893627
0.899168
0.904434
0.909423
0.914139
0.918581
0.922752
0.926654
0.930291
0.933664
0.936776
0.939627
0.942221
0.94456
0.946646
0.948482
0.95007
0.951413
0.952513
0.953373
0.953997
0.954386
0.954544
0.954473
0.954177
0.953658
0.95292
0.951965
0.950796
0.949416
0.947829
0.946037
0.944043
0.941851
0.939462
0.936881
0.934109
0.93115
0.928007
0.924682
0.921178
0.917499
0.913646
0.909622
0.90543
0.901072
0.896551
0.891869
0.887029
0.882033
0.876883
0.871582
0.86613
0.860532
0.854787
0.848899
0.84287
0.836701
0.830394
0.82395
0.817372
0.810661
0.803819
0.796847
0.789747
0.782521
0.77517
0.767696
0.760099
0.752383
0.744548
0.736596
0.728529
0.720348
0.712055
0.703652
0.69514
0.686523
0.6778
0.668975
0.66005
0.651026
0.641907
0.632693
0.623389
0.613996
0.604517
0.594955
0.585313
0.575594
0.5658
0.555935
0.546002
0.536005
0.525947
0.515832
0.505663
0.495445
0.48518
0.474873
0.464529
0.45415
0.443741
0.433306
0.422848
0.412373
0.401884
0.391384
0.380877
0.370367
0.359858
0.349351
0.33885
0.328358
0.317876
0.307405
0.296948
0.286503
0.276071
0.265651
0.25524
0.244836
0.234433
0.224025
0.213604
0.203159
0.192675
0.182134
0.17151
0.160769
0.149858
0.138702
0.127175
0.115058
0.101918
0.0867869
0.0668376
0.0308481
0.0466417
0.104472
0.136911
0.162027
0.184134
0.204663
0.224228
0.243141
0.261577
0.279641
0.297405
0.314916
0.33221
0.349313
0.366242
0.383012
0.399633
0.416112
0.432454
0.44866
0.46473
0.480664
0.496459
0.512112
0.527619
0.542974
0.558173
0.573209
0.588077
0.60277
0.617281
0.631604
0.645733
0.65966
0.67338
0.686886
0.700172
0.713232
0.72606
0.73865
0.750997
0.763096
0.774942
0.786531
0.797858
0.808919
0.81971
0.830229
0.840471
0.850435
0.860117
0.869515
0.878627
0.887452
0.895988
0.904234
0.912189
0.919852
0.927222
0.9343
0.941086
0.947579
0.953779
0.959689
0.965307
0.970636
0.975676
0.980428
0.984895
0.989077
0.992978
0.9966
0.999945
1.00302
1.00581
1.00834
1.0106
1.01259
1.01432
1.0158
1.01701
1.01797
1.01867
1.01913
1.01934
1.01931
1.01904
1.01853
1.01779
1.01682
1.01562
1.01419
1.01255
1.01068
1.0086
1.00631
1.00381
1.0011
0.998192
0.995082
0.991775
0.988274
0.984583
0.980703
0.976637
0.972389
0.967961
0.963356
0.958577
0.953625
0.948504
0.943216
0.937764
0.932149
0.926373
0.920441
0.914352
0.90811
0.901716
0.895172
0.888481
0.881644
0.874663
0.867539
0.860276
0.852874
0.845334
0.83766
0.829852
0.821912
0.813843
0.805644
0.797319
0.78887
0.780297
0.771602
0.762789
0.753857
0.744811
0.73565
0.726379
0.716998
0.70751
0.697918
0.688223
0.678429
0.668538
0.658553
0.648477
0.638312
0.628062
0.61773
0.607319
0.596833
0.586275
0.575648
0.564957
0.554206
0.543397
0.532536
0.521626
0.510671
0.499675
0.488643
0.477578
0.466486
0.455369
0.444232
0.433079
0.421914
0.410741
0.399562
0.388382
0.377203
0.366028
0.354859
0.343698
0.332547
0.321407
0.310277
0.299158
0.288049
0.276947
0.26585
0.254752
0.243649
0.232533
0.221393
0.210215
0.19898
0.187662
0.176224
0.164609
0.152731
0.140448
0.127508
0.113422
0.097099
0.0753252
0.0344657
0.0466443
0.104475
0.136913
0.162027
0.184134
0.204662
0.224227
0.24314
0.261576
0.27964
0.297404
0.314915
0.332209
0.349311
0.366241
0.383011
0.399632
0.416111
0.432453
0.448658
0.464729
0.480663
0.496458
0.512111
0.527618
0.542973
0.558172
0.573208
0.588076
0.602768
0.61728
0.631603
0.645731
0.659659
0.673379
0.686885
0.700171
0.713231
0.726058
0.738648
0.750996
0.763095
0.774941
0.786529
0.797856
0.808917
0.819709
0.830227
0.84047
0.850433
0.860115
0.869513
0.878626
0.887451
0.895987
0.904233
0.912187
0.91985
0.927221
0.934299
0.941084
0.947577
0.953778
0.959687
0.965306
0.970635
0.975675
0.980427
0.984893
0.989075
0.992977
0.996599
0.999944
1.00301
1.00581
1.00834
1.0106
1.01259
1.01432
1.01579
1.01701
1.01797
1.01867
1.01913
1.01934
1.01931
1.01904
1.01853
1.01779
1.01682
1.01562
1.01419
1.01255
1.01068
1.0086
1.00631
1.00381
1.0011
0.998191
0.995081
0.991774
0.988273
0.984581
0.980701
0.976636
0.972388
0.96796
0.963355
0.958576
0.953624
0.948503
0.943215
0.937762
0.932147
0.926372
0.920439
0.914351
0.908108
0.901714
0.895171
0.88848
0.881643
0.874662
0.867538
0.860275
0.852873
0.845333
0.837659
0.829851
0.821911
0.813842
0.805643
0.797318
0.788869
0.780296
0.771601
0.762788
0.753856
0.74481
0.735649
0.726378
0.716997
0.707509
0.697917
0.688222
0.678428
0.668538
0.658552
0.648476
0.638311
0.628061
0.617729
0.607318
0.596832
0.586274
0.575648
0.564957
0.554205
0.543397
0.532535
0.521625
0.51067
0.499674
0.488642
0.477578
0.466485
0.455368
0.444232
0.433079
0.421914
0.41074
0.399562
0.388382
0.377202
0.366027
0.354859
0.343698
0.332547
0.321406
0.310277
0.299158
0.288049
0.276947
0.265849
0.254752
0.243649
0.232533
0.221392
0.210214
0.19898
0.187662
0.176224
0.164609
0.152731
0.140448
0.127508
0.113422
0.0970987
0.0753244
0.0344682
0.0519295
0.115756
0.151171
0.178306
0.202001
0.223884
0.244662
0.264699
0.284196
0.303277
0.322021
0.340483
0.358701
0.376701
0.394504
0.412125
0.429573
0.446858
0.463983
0.480951
0.497764
0.514422
0.530922
0.547263
0.563441
0.579453
0.595293
0.610957
0.626441
0.641737
0.656841
0.671747
0.686449
0.70094
0.715216
0.72927
0.743097
0.75669
0.770044
0.783154
0.796014
0.80862
0.820967
0.833049
0.844863
0.856404
0.867669
0.878654
0.889356
0.899771
0.909897
0.919731
0.92927
0.938514
0.94746
0.956107
0.964453
0.972497
0.980239
0.987678
0.994815
1.00165
1.00818
1.01441
1.02033
1.02595
1.03128
1.0363
1.04103
1.04546
1.04959
1.05344
1.05699
1.06026
1.06324
1.06594
1.06836
1.0705
1.07236
1.07396
1.07528
1.07633
1.07712
1.07765
1.07792
1.07793
1.07769
1.0772
1.07647
1.07549
1.07427
1.07282
1.07113
1.06921
1.06707
1.0647
1.06211
1.05931
1.05629
1.05305
1.04962
1.04597
1.04212
1.03808
1.03384
1.0294
1.02478
1.01997
1.01497
1.00979
1.00443
0.998897
0.993188
0.987307
0.981256
0.975038
0.968655
0.96211
0.955404
0.948539
0.941518
0.934343
0.927015
0.919537
0.91191
0.904136
0.896217
0.888155
0.879952
0.87161
0.86313
0.854514
0.845764
0.836882
0.82787
0.818729
0.809463
0.800072
0.79056
0.780928
0.771178
0.761313
0.751335
0.741247
0.731051
0.72075
0.710347
0.699845
0.689247
0.678556
0.667775
0.656908
0.645957
0.634927
0.623822
0.612645
0.601399
0.59009
0.57872
0.567294
0.555817
0.544292
0.532724
0.521117
0.509474
0.497801
0.486102
0.47438
0.462639
0.450883
0.439116
0.427342
0.415562
0.403781
0.392001
0.380223
0.368451
0.356684
0.344924
0.333171
0.321425
0.309685
0.297949
0.286213
0.274475
0.262728
0.250964
0.239175
0.227345
0.215455
0.203478
0.191372
0.179075
0.16649
0.153455
0.139688
0.124641
0.107084
0.0834253
0.0383193
0.0519325
0.115758
0.151172
0.178306
0.202001
0.223883
0.244662
0.264698
0.284195
0.303276
0.32202
0.340482
0.3587
0.3767
0.394503
0.412123
0.429572
0.446857
0.463982
0.48095
0.497763
0.514421
0.530921
0.547262
0.56344
0.579452
0.595292
0.610956
0.626439
0.641736
0.65684
0.671746
0.686447
0.700939
0.715215
0.729269
0.743095
0.756689
0.770043
0.783153
0.796013
0.808619
0.820965
0.833048
0.844862
0.856403
0.867668
0.878653
0.889354
0.89977
0.909895
0.919729
0.929269
0.938513
0.947459
0.956105
0.964451
0.972496
0.980238
0.987677
0.994813
1.00165
1.00818
1.0144
1.02033
1.02595
1.03128
1.0363
1.04103
1.04546
1.04959
1.05344
1.05699
1.06026
1.06324
1.06594
1.06836
1.0705
1.07236
1.07395
1.07528
1.07633
1.07712
1.07765
1.07792
1.07793
1.07769
1.0772
1.07647
1.07549
1.07427
1.07282
1.07113
1.06921
1.06707
1.0647
1.06211
1.05931
1.05629
1.05305
1.04961
1.04597
1.04212
1.03808
1.03384
1.0294
1.02478
1.01996
1.01497
1.00979
1.00443
0.998896
0.993187
0.987306
0.981255
0.975037
0.968654
0.962109
0.955403
0.948538
0.941517
0.934342
0.927014
0.919536
0.911909
0.904135
0.896216
0.888154
0.879951
0.871609
0.863129
0.854513
0.845763
0.836881
0.827869
0.818729
0.809462
0.800072
0.790559
0.780927
0.771177
0.761312
0.751334
0.741246
0.73105
0.720749
0.710347
0.699845
0.689247
0.678555
0.667774
0.656907
0.645957
0.634927
0.623821
0.612644
0.601399
0.590089
0.578719
0.567294
0.555817
0.544292
0.532723
0.521116
0.509474
0.497801
0.486101
0.474379
0.462638
0.450883
0.439116
0.427341
0.415562
0.403781
0.392001
0.380223
0.36845
0.356684
0.344924
0.333171
0.321425
0.309685
0.297948
0.286213
0.274474
0.262727
0.250964
0.239175
0.227345
0.215455
0.203478
0.191372
0.179075
0.16649
0.153455
0.139688
0.124641
0.107084
0.0834254
0.0383198
0.0571643
0.126943
0.16534
0.194518
0.219826
0.243078
0.265074
0.286225
0.306762
0.326828
0.346513
0.365877
0.384963
0.403801
0.422411
0.440811
0.459013
0.477024
0.49485
0.512496
0.529964
0.547254
0.564365
0.581298
0.59805
0.614617
0.630998
0.647187
0.663182
0.678977
0.694569
0.709952
0.725121
0.740072
0.754798
0.769296
0.783559
0.797583
0.811363
0.824893
0.838168
0.851184
0.863935
0.876418
0.888629
0.900562
0.912214
0.923581
0.93466
0.945447
0.95594
0.966135
0.97603
0.985624
0.994913
1.0039
1.01257
1.02094
1.029
1.03674
1.04418
1.0513
1.05812
1.06462
1.07081
1.07669
1.08226
1.08753
1.09248
1.09713
1.10147
1.10552
1.10926
1.1127
1.11585
1.1187
1.12127
1.12354
1.12553
1.12723
1.12866
1.1298
1.13067
1.13127
1.1316
1.13166
1.13145
1.13099
1.13027
1.1293
1.12808
1.12661
1.12489
1.12294
1.12075