/*--------------------------------*- C++ -*----------------------------------*\
  =========                 |
  \\      /  F ield         | OpenFOAM: The Open Source CFD Toolbox
   \\    /   O peration     | Website:  https://openfoam.org
    \\  /    A nd           | Version:  8
     \\/     M anipulation  |
\*---------------------------------------------------------------------------*/
FoamFile
{
    version     2.0;
    format      ascii;
    class       volScalarField;
    location    "4200";
    object      k;
}
// * * * * * * * * * * * * * * * * * * * * * * * * * * * * * * * * * * * * * //

dimensions      [0 2 -2 0 0 0 0];

internalField   nonuniform List<scalar> 
48000
(
0.0312046
0.0809527
0.124133
0.161753
0.196979
0.229463
0.259688
0.288067
0.315307
0.341735
0.367141
0.391728
0.41556
0.438686
0.461147
0.482972
0.504179
0.524781
0.544787
0.5642
0.583022
0.601251
0.618886
0.635924
0.652361
0.668196
0.683426
0.698049
0.712064
0.725471
0.738272
0.75047
0.762067
0.773068
0.78348
0.793309
0.802563
0.811252
0.819386
0.826975
0.83403
0.840564
0.846588
0.852114
0.857209
0.861912
0.866171
0.869988
0.873379
0.87636
0.878949
0.881163
0.883017
0.884527
0.88571
0.886581
0.887154
0.887445
0.887467
0.887235
0.886761
0.886059
0.885141
0.884018
0.882703
0.881207
0.879538
0.877708
0.875727
0.873602
0.871342
0.868955
0.86645
0.863832
0.861109
0.858286
0.85537
0.852366
0.849279
0.846113
0.842874
0.839564
0.836188
0.832748
0.829249
0.825691
0.822079
0.818414
0.814699
0.810934
0.807122
0.803263
0.79936
0.795412
0.791421
0.787387
0.783311
0.779193
0.775032
0.77083
0.766586
0.7623
0.757972
0.753601
0.749187
0.744729
0.740227
0.73568
0.731087
0.726448
0.721762
0.717027
0.712244
0.707411
0.702527
0.697591
0.692602
0.68756
0.682464
0.677312
0.672103
0.666837
0.661513
0.65613
0.650686
0.645182
0.639616
0.633988
0.628296
0.622541
0.616722
0.610837
0.604887
0.598872
0.59279
0.586641
0.580426
0.574144
0.567795
0.561378
0.554895
0.548344
0.541727
0.535044
0.528294
0.521478
0.514598
0.507652
0.500642
0.493569
0.486433
0.479235
0.471976
0.464657
0.457279
0.449842
0.442348
0.434798
0.427193
0.419533
0.41182
0.404055
0.396239
0.388372
0.380456
0.37249
0.364477
0.356415
0.348307
0.34015
0.331946
0.323695
0.315394
0.307044
0.298642
0.290187
0.281676
0.273106
0.264476
0.255788
0.247049
0.2383
0.229469
0.22052
0.211446
0.202224
0.192831
0.183241
0.173416
0.163313
0.152873
0.142068
0.130856
0.119041
0.106436
0.0927655
0.0775779
0.0600479
0.0382985
0.019255
0.0312051
0.0809532
0.124133
0.161754
0.19698
0.229463
0.259688
0.288068
0.315308
0.341736
0.367141
0.391729
0.41556
0.438687
0.461148
0.482972
0.504179
0.524782
0.544788
0.564201
0.583022
0.601252
0.618886
0.635924
0.652362
0.668197
0.683426
0.698049
0.712064
0.725471
0.738273
0.75047
0.762067
0.773068
0.78348
0.793309
0.802563
0.811252
0.819386
0.826975
0.83403
0.840564
0.846588
0.852114
0.857209
0.861912
0.866171
0.869988
0.873379
0.87636
0.878949
0.881163
0.883017
0.884527
0.88571
0.886581
0.887154
0.887445
0.887467
0.887235
0.886761
0.886059
0.885141
0.884018
0.882703
0.881207
0.879538
0.877708
0.875727
0.873601
0.871342
0.868955
0.86645
0.863832
0.861109
0.858286
0.85537
0.852366
0.849279
0.846113
0.842874
0.839564
0.836188
0.832748
0.829248
0.825691
0.822079
0.818414
0.814699
0.810934
0.807122
0.803263
0.79936
0.795412
0.791421
0.787387
0.783311
0.779193
0.775032
0.77083
0.766586
0.7623
0.757972
0.753601
0.749187
0.744729
0.740227
0.73568
0.731087
0.726448
0.721762
0.717027
0.712244
0.70741
0.702526
0.697591
0.692602
0.68756
0.682464
0.677312
0.672103
0.666837
0.661513
0.65613
0.650686
0.645182
0.639616
0.633988
0.628296
0.622541
0.616722
0.610837
0.604887
0.598872
0.59279
0.586641
0.580426
0.574144
0.567795
0.561378
0.554895
0.548344
0.541727
0.535044
0.528294
0.521478
0.514598
0.507652
0.500642
0.493569
0.486433
0.479235
0.471976
0.464657
0.457279
0.449842
0.442348
0.434798
0.427193
0.419533
0.41182
0.404055
0.396239
0.388372
0.380456
0.37249
0.364477
0.356415
0.348307
0.34015
0.331946
0.323695
0.315394
0.307044
0.298642
0.290187
0.281676
0.273107
0.264476
0.255788
0.247049
0.2383
0.229469
0.22052
0.211446
0.202224
0.192831
0.183241
0.173416
0.163313
0.152873
0.142068
0.130856
0.119041
0.106436
0.0927656
0.0775782
0.0600485
0.0382975
0.0192545
0.0825026
0.207776
0.295622
0.372969
0.443969
0.510502
0.573722
0.633874
0.691634
0.747402
0.801412
0.853852
0.904856
0.954521
1.00291
1.05008
1.09605
1.14083
1.18444
1.22686
1.26809
1.30811
1.34692
1.38449
1.42081
1.45586
1.48963
1.52211
1.55328
1.58314
1.61169
1.63893
1.66484
1.68945
1.71276
1.73478
1.75552
1.775
1.79323
1.81025
1.82608
1.84073
1.85424
1.86663
1.87793
1.8882
1.89746
1.90575
1.91309
1.91952
1.92509
1.92982
1.93375
1.93691
1.93935
1.94109
1.94217
1.94262
1.94248
1.94177
1.94052
1.93877
1.93654
1.93386
1.93075
1.92724
1.92335
1.91911
1.91453
1.90963
1.90445
1.89898
1.89325
1.88728
1.88108
1.87467
1.86805
1.86124
1.85425
1.8471
1.83978
1.83232
1.82471
1.81697
1.8091
1.80111
1.793
1.78478
1.77645
1.76803
1.7595
1.75087
1.74216
1.73335
1.72445
1.71546
1.70638
1.69722
1.68797
1.67863
1.66921
1.6597
1.6501
1.64041
1.63063
1.62077
1.61081
1.60076
1.59061
1.58037
1.57003
1.55959
1.54905
1.5384
1.52765
1.51679
1.50582
1.49474
1.48354
1.47223
1.4608
1.44925
1.43758
1.42579
1.41387
1.40182
1.38964
1.37733
1.36489
1.35232
1.33961
1.32676
1.31378
1.30066
1.2874
1.27401
1.26047
1.24679
1.23298
1.21902
1.20492
1.19068
1.17631
1.16179
1.14714
1.13235
1.11742
1.10236
1.08716
1.07184
1.05638
1.0408
1.02509
1.00925
0.993298
0.977222
0.961027
0.944717
0.928293
0.911758
0.895115
0.878364
0.861509
0.84455
0.827491
0.810332
0.793075
0.77572
0.758268
0.740719
0.723073
0.705329
0.687485
0.669538
0.651485
0.633321
0.615041
0.596637
0.578101
0.559424
0.540594
0.521597
0.502401
0.482967
0.463297
0.443342
0.42306
0.402398
0.381288
0.359648
0.33737
0.314308
0.290318
0.265181
0.238579
0.210061
0.17894
0.144023
0.102302
0.0398141
0.0825032
0.207776
0.295622
0.372969
0.443969
0.510502
0.573722
0.633875
0.691634
0.747402
0.801413
0.853852
0.904856
0.954521
1.00291
1.05008
1.09605
1.14083
1.18444
1.22686
1.26809
1.30811
1.34692
1.38449
1.42081
1.45586
1.48963
1.52211
1.55328
1.58314
1.61169
1.63893
1.66484
1.68945
1.71276
1.73478
1.75551
1.77499
1.79323
1.81025
1.82608
1.84073
1.85424
1.86663
1.87793
1.8882
1.89746
1.90575
1.91309
1.91952
1.92509
1.92982
1.93374
1.93691
1.93935
1.94109
1.94217
1.94262
1.94247
1.94176
1.94052
1.93877
1.93654
1.93385
1.93075
1.92724
1.92335
1.9191
1.91453
1.90963
1.90445
1.89898
1.89325
1.88728
1.88108
1.87467
1.86805
1.86124
1.85425
1.8471
1.83978
1.83232
1.82471
1.81697
1.8091
1.80111
1.793
1.78478
1.77645
1.76803
1.7595
1.75087
1.74216
1.73335
1.72445
1.71546
1.70638
1.69722
1.68797
1.67863
1.6692
1.65969
1.6501
1.64041
1.63063
1.62077
1.61081
1.60076
1.59061
1.58037
1.57003
1.55959
1.54905
1.5384
1.52765
1.51679
1.50582
1.49474
1.48354
1.47223
1.4608
1.44925
1.43758
1.42579
1.41386
1.40182
1.38964
1.37733
1.36489
1.35232
1.33961
1.32676
1.31378
1.30066
1.2874
1.27401
1.26047
1.24679
1.23297
1.21902
1.20492
1.19068
1.1763
1.16179
1.14714
1.13235
1.11742
1.10236
1.08716
1.07184
1.05638
1.0408
1.02509
1.00925
0.993298
0.977221
0.961026
0.944716
0.928293
0.911758
0.895114
0.878364
0.861508
0.84455
0.827491
0.810332
0.793074
0.775719
0.758267
0.740719
0.723073
0.705329
0.687484
0.669537
0.651484
0.633321
0.61504
0.596637
0.578101
0.559424
0.540594
0.521597
0.502401
0.482966
0.463296
0.443342
0.42306
0.402398
0.381288
0.359648
0.33737
0.314308
0.290318
0.265181
0.238579
0.210061
0.17894
0.144023
0.102302
0.0398155
0.124857
0.296363
0.406321
0.50036
0.586587
0.667983
0.745761
0.82052
0.892714
0.962665
1.0306
1.09669
1.16107
1.22382
1.28501
1.34469
1.40289
1.45961
1.51486
1.56863
1.62092
1.67169
1.72094
1.76864
1.81477
1.8593
1.90223
1.94353
1.98319
2.02119
2.05754
2.09221
2.12523
2.15659
2.18629
2.21435
2.24079
2.26562
2.28888
2.31057
2.33074
2.34941
2.36662
2.38241
2.39681
2.40987
2.42164
2.43216
2.44146
2.4496
2.45661
2.46255
2.46746
2.47138
2.47436
2.47644
2.47767
2.47809
2.47774
2.47665
2.47488
2.47245
2.46941
2.46579
2.46161
2.45692
2.45174
2.44611
2.44004
2.43358
2.42673
2.41953
2.412
2.40415
2.39602
2.38761
2.37894
2.37003
2.36089
2.35154
2.342
2.33226
2.32234
2.31226
2.30202
2.29162
2.28108
2.27041
2.2596
2.24867
2.23761
2.22643
2.21514
2.20374
2.19222
2.1806
2.16887
2.15704
2.1451
2.13305
2.1209
2.10864
2.09628
2.08381
2.07123
2.05854
2.04573
2.03282
2.01979
2.00664
1.99337
1.97998
1.96646
1.95282
1.93905
1.92515
1.91111
1.89693
1.88262
1.86816
1.85356
1.83881
1.82391
1.80885
1.79365
1.77828
1.76276
1.74708
1.73123
1.71522
1.69904
1.6827
1.66619
1.6495
1.63265
1.61562
1.59842
1.58105
1.56351
1.54579
1.5279
1.50984
1.4916
1.4732
1.45462
1.43588
1.41697
1.39789
1.37865
1.35925
1.33968
1.31996
1.30008
1.28005
1.25987
1.23955
1.21907
1.19846
1.17771
1.15682
1.13579
1.11464
1.09335
1.07194
1.05041
1.02875
1.00698
0.985082
0.963068
0.940936
0.918685
0.896313
0.87382
0.851202
0.828454
0.805571
0.782547
0.759373
0.736039
0.712531
0.688836
0.664932
0.640793
0.616387
0.591682
0.56663
0.541195
0.515317
0.48892
0.461915
0.434185
0.405586
0.375927
0.344993
0.312445
0.277793
0.240227
0.198101
0.146435
0.0624646
0.124857
0.296364
0.406321
0.50036
0.586588
0.667983
0.745761
0.82052
0.892713
0.962664
1.0306
1.09669
1.16107
1.22382
1.28501
1.34469
1.40289
1.45961
1.51486
1.56863
1.62092
1.67169
1.72094
1.76864
1.81477
1.8593
1.90223
1.94353
1.98319
2.02119
2.05753
2.09221
2.12523
2.15658
2.18629
2.21435
2.24079
2.26562
2.28888
2.31057
2.33074
2.34941
2.36662
2.38241
2.39681
2.40987
2.42164
2.43216
2.44146
2.4496
2.45661
2.46255
2.46746
2.47138
2.47436
2.47644
2.47767
2.47809
2.47773
2.47665
2.47488
2.47245
2.46941
2.46578
2.46161
2.45692
2.45174
2.44611
2.44004
2.43358
2.42673
2.41953
2.412
2.40415
2.39602
2.3876
2.37894
2.37003
2.36089
2.35154
2.34199
2.33226
2.32234
2.31226
2.30202
2.29162
2.28108
2.27041
2.2596
2.24866
2.23761
2.22643
2.21514
2.20374
2.19222
2.1806
2.16887
2.15704
2.1451
2.13305
2.1209
2.10864
2.09628
2.08381
2.07122
2.05853
2.04573
2.03282
2.01979
2.00664
1.99337
1.97998
1.96646
1.95282
1.93905
1.92515
1.91111
1.89693
1.88262
1.86816
1.85356
1.83881
1.82391
1.80885
1.79365
1.77828
1.76276
1.74708
1.73123
1.71522
1.69904
1.6827
1.66618
1.6495
1.63265
1.61562
1.59842
1.58105
1.56351
1.54579
1.5279
1.50984
1.4916
1.4732
1.45462
1.43588
1.41697
1.39789
1.37865
1.35925
1.33968
1.31996
1.30008
1.28005
1.25987
1.23955
1.21907
1.19846
1.17771
1.15682
1.13579
1.11464
1.09335
1.07194
1.05041
1.02875
1.00698
0.985082
0.963068
0.940936
0.918684
0.896313
0.87382
0.851201
0.828453
0.805571
0.782547
0.759373
0.736038
0.712531
0.688835
0.664932
0.640792
0.616386
0.591681
0.56663
0.541195
0.515317
0.48892
0.461914
0.434185
0.405586
0.375927
0.344993
0.312445
0.277793
0.240227
0.198101
0.146435
0.0624642
0.16002
0.371664
0.499548
0.6055
0.702275
0.793739
0.881407
0.966002
1.04795
1.12753
1.20493
1.28031
1.35377
1.4254
1.49525
1.56336
1.62977
1.69448
1.7575
1.81882
1.87843
1.93632
1.99246
2.04684
2.09942
2.1502
2.19916
2.24626
2.2915
2.33486
2.37635
2.41594
2.45364
2.48946
2.52341
2.55548
2.58571
2.61411
2.64071
2.66553
2.6886
2.70997
2.72967
2.74773
2.76421
2.77916
2.79261
2.80463
2.81525
2.82452
2.8325
2.83924
2.84479
2.84919
2.85251
2.85479
2.85609
2.85644
2.8559
2.85451
2.85233
2.84938
2.84572
2.84139
2.83641
2.83084
2.82471
2.81805
2.81088
2.80326
2.79519
2.78671
2.77785
2.76863
2.75907
2.7492
2.73903
2.72858
2.71788
2.70693
2.69574
2.68435
2.67275
2.66096
2.64899
2.63684
2.62453
2.61207
2.59946
2.5867
2.57381
2.56078
2.54763
2.53435
2.52094
2.50742
2.49377
2.48001
2.46613
2.45213
2.43802
2.42378
2.40943
2.39496
2.38037
2.36566
2.35082
2.33585
2.32076
2.30554
2.29018
2.27469
2.25906
2.24328
2.22737
2.2113
2.19509
2.17872
2.1622
2.14552
2.12867
2.11167
2.09449
2.07714
2.05963
2.04193
2.02406
2.00601
1.98777
1.96936
1.95075
1.93196
1.91298
1.89381
1.87445
1.85489
1.83514
1.8152
1.79507
1.77474
1.75422
1.7335
1.7126
1.6915
1.67021
1.64873
1.62706
1.60521
1.58317
1.56096
1.53856
1.51599
1.49324
1.47032
1.44723
1.42398
1.40057
1.37699
1.35326
1.32938
1.30535
1.28117
1.25684
1.23238
1.20778
1.18304
1.15816
1.13315
1.10801
1.08274
1.05734
1.0318
1.00612
0.980311
0.954355
0.928251
0.901991
0.875567
0.848967
0.822178
0.795184
0.767964
0.740491
0.712737
0.684666
0.656235
0.627397
0.598088
0.568236
0.53776
0.506542
0.474438
0.441257
0.406764
0.37061
0.332239
0.290654
0.24363
0.184216
0.0811323
0.160021
0.371665
0.499548
0.6055
0.702275
0.793739
0.881407
0.966001
1.04795
1.12753
1.20493
1.28031
1.35377
1.4254
1.49525
1.56336
1.62977
1.69448
1.7575
1.81882
1.87843
1.93632
1.99246
2.04684
2.09942
2.1502
2.19915
2.24626
2.2915
2.33486
2.37635
2.41594
2.45364
2.48946
2.5234
2.55548
2.58571
2.61411
2.64071
2.66553
2.6886
2.70997
2.72967
2.74773
2.76421
2.77916
2.79261
2.80463
2.81525
2.82452
2.8325
2.83924
2.84478
2.84919
2.85251
2.85479
2.85608
2.85644
2.8559
2.85451
2.85233
2.84938
2.84572
2.84139
2.83641
2.83084
2.82471
2.81804
2.81088
2.80325
2.79519
2.78671
2.77785
2.76863
2.75907
2.7492
2.73903
2.72858
2.71788
2.70692
2.69574
2.68435
2.67275
2.66096
2.64899
2.63684
2.62453
2.61207
2.59946
2.5867
2.57381
2.56078
2.54763
2.53435
2.52094
2.50742
2.49377
2.48001
2.46613
2.45213
2.43801
2.42378
2.40943
2.39496
2.38037
2.36565
2.35082
2.33585
2.32076
2.30554
2.29018
2.27469
2.25906
2.24328
2.22737
2.2113
2.19509
2.17872
2.1622
2.14552
2.12867
2.11167
2.09449
2.07714
2.05962
2.04193
2.02406
2.00601
1.98777
1.96936
1.95075
1.93196
1.91298
1.89381
1.87445
1.85489
1.83514
1.8152
1.79507
1.77474
1.75422
1.7335
1.7126
1.6915
1.67021
1.64873
1.62706
1.60521
1.58317
1.56096
1.53856
1.51599
1.49324
1.47032
1.44723
1.42398
1.40057
1.37699
1.35326
1.32938
1.30535
1.28117
1.25684
1.23238
1.20777
1.18304
1.15816
1.13315
1.10801
1.08274
1.05734
1.0318
1.00612
0.98031
0.954355
0.928251
0.901991
0.875567
0.848967
0.822178
0.795184
0.767963
0.740491
0.712737
0.684666
0.656235
0.627396
0.598088
0.568236
0.53776
0.506542
0.474438
0.441257
0.406764
0.37061
0.332239
0.290654
0.24363
0.184216
0.0811322
0.191805
0.439354
0.584402
0.701617
0.80769
0.907637
1.00342
1.09593
1.18564
1.27283
1.35768
1.44032
1.52085
1.59933
1.67582
1.75036
1.82298
1.8937
1.96252
2.02945
2.09448
2.15759
2.21878
2.27802
2.33531
2.39061
2.44393
2.49523
2.54451
2.59175
2.63695
2.6801
2.7212
2.76027
2.79729
2.8323
2.8653
2.89631
2.92537
2.9525
2.97772
3.00109
3.02264
3.0424
3.06044
3.0768
3.09152
3.10466
3.11627
3.12641
3.13512
3.14247
3.1485
3.15328
3.15686
3.15929
3.16063
3.16093
3.16024
3.15861
3.1561
3.15274
3.1486
3.1437
3.1381
3.13183
3.12493
3.11745
3.10942
3.10086
3.09182
3.08233
3.07241
3.06209
3.05139
3.04035
3.02897
3.01729
3.00532
2.99309
2.98059
2.96786
2.95491
2.94175
2.92838
2.91483
2.9011
2.88719
2.87313
2.85891
2.84453
2.83002
2.81536
2.80057
2.78564
2.77058
2.75539
2.74007
2.72463
2.70906
2.69337
2.67754
2.66159
2.64551
2.62931
2.61297
2.59649
2.57988
2.56313
2.54625
2.52921
2.51204
2.49471
2.47723
2.4596
2.4418
2.42385
2.40573
2.38745
2.36899
2.35036
2.33155
2.31256
2.29338
2.27402
2.25447
2.23473
2.2148
2.19467
2.17434
2.15381
2.13308
2.11214
2.091
2.06965
2.0481
2.02633
2.00436
1.98217
1.95978
1.93718
1.91437
1.89135
1.86813
1.8447
1.82106
1.79723
1.77319
1.74895
1.72452
1.69989
1.67507
1.65006
1.62487
1.59949
1.57393
1.5482
1.5223
1.49622
1.46998
1.44358
1.41702
1.3903
1.36343
1.33641
1.30924
1.28192
1.25446
1.22685
1.1991
1.17121
1.14317
1.11499
1.08666
1.05817
1.02953
1.00072
0.971733
0.942564
0.913196
0.883614
0.853797
0.823721
0.793358
0.762673
0.731625
0.700167
0.66824
0.635772
0.602676
0.568837
0.534116
0.498321
0.46118
0.422314
0.381068
0.3362
0.284873
0.218318
0.0976881
0.191805
0.439355
0.584402
0.701617
0.80769
0.907636
1.00342
1.09593
1.18564
1.27283
1.35768
1.44032
1.52085
1.59933
1.67582
1.75036
1.82298
1.8937
1.96252
2.02945
2.09447
2.15759
2.21878
2.27802
2.33531
2.39061
2.44393
2.49523
2.54451
2.59175
2.63695
2.6801
2.7212
2.76027
2.79729
2.8323
2.8653
2.89631
2.92537
2.95249
2.97772
3.00109
3.02264
3.0424
3.06044
3.0768
3.09152
3.10466
3.11627
3.12641
3.13512
3.14247
3.1485
3.15328
3.15686
3.15929
3.16063
3.16093
3.16024
3.15861
3.1561
3.15274
3.1486
3.1437
3.1381
3.13183
3.12493
3.11745
3.10942
3.10086
3.09182
3.08233
3.07241
3.06209
3.05139
3.04035
3.02897
3.01729
3.00532
2.99308
2.98059
2.96786
2.95491
2.94175
2.92838
2.91483
2.9011
2.88719
2.87313
2.85891
2.84453
2.83002
2.81536
2.80056
2.78564
2.77058
2.75539
2.74007
2.72463
2.70906
2.69336
2.67754
2.66159
2.64551
2.6293
2.61296
2.59649
2.57988
2.56313
2.54624
2.52921
2.51204
2.49471
2.47723
2.4596
2.4418
2.42385
2.40573
2.38744
2.36899
2.35035
2.33155
2.31256
2.29338
2.27402
2.25447
2.23473
2.2148
2.19467
2.17434
2.15381
2.13308
2.11214
2.091
2.06965
2.04809
2.02633
2.00436
1.98217
1.95978
1.93718
1.91437
1.89135
1.86813
1.8447
1.82106
1.79723
1.77319
1.74895
1.72452
1.69989
1.67507
1.65006
1.62487
1.59949
1.57393
1.5482
1.5223
1.49622
1.46998
1.44358
1.41702
1.3903
1.36343
1.33641
1.30924
1.28192
1.25446
1.22685
1.1991
1.17121
1.14317
1.11499
1.08666
1.05817
1.02953
1.00072
0.971733
0.942564
0.913196
0.883614
0.853797
0.823721
0.793358
0.762672
0.731625
0.700167
0.66824
0.635772
0.602676
0.568837
0.534116
0.498321
0.46118
0.422314
0.381068
0.3362
0.284874
0.218318
0.0976881
0.220984
0.502875
0.664469
0.792857
0.907884
1.01572
1.11882
1.2183
1.31472
1.40841
1.49954
1.58824
1.6746
1.75869
1.84056
1.92026
1.99782
2.07327
2.14662
2.21788
2.28706
2.35415
2.41915
2.48205
2.54285
2.60153
2.65808
2.71249
2.76475
2.81486
2.8628
2.90859
2.95221
2.99368
3.033
3.07019
3.10526
3.13824
3.16915
3.19802
3.22488
3.24978
3.27274
3.29382
3.31307
3.33052
3.34623
3.36026
3.37266
3.38348
3.39278
3.40062
3.40705
3.41213
3.41593
3.41849
3.41988
3.42015
3.41935
3.41754
3.41478
3.41111
3.40658
3.40123
3.39513
3.3883
3.3808
3.37266
3.36391
3.35461
3.34478
3.33445
3.32367
3.31244
3.30082
3.28881
3.27644
3.26375
3.25074
3.23743
3.22386
3.21002
3.19594
3.18164
3.16711
3.15239
3.13747
3.12237
3.10709
3.09164
3.07603
3.06027
3.04435
3.02829
3.01209
2.99575
2.97927
2.96265
2.9459
2.92901
2.91199
2.89483
2.87754
2.86011
2.84254
2.82484
2.80699
2.789
2.77087
2.75258
2.73414
2.71555
2.6968
2.67789
2.65882
2.63958
2.62017
2.60058
2.58081
2.56087
2.54074
2.52042
2.49991
2.47921
2.45831
2.43721
2.41591
2.3944
2.37268
2.35076
2.32862
2.30626
2.28369
2.26091
2.2379
2.21467
2.19123
2.16756
2.14367
2.11956
2.09522
2.07066
2.04589
2.02089
1.99568
1.97024
1.94459
1.91873
1.89266
1.86638
1.83989
1.81319
1.7863
1.7592
1.73191
1.70443
1.67677
1.64891
1.62088
1.59267
1.56428
1.53572
1.507
1.4781
1.44905
1.41984
1.39047
1.36094
1.33126
1.30143
1.27144
1.24129
1.21099
1.18054
1.14992
1.11913
1.08817
1.05702
1.02569
0.994145
0.962383
0.930382
0.89812
0.865568
0.832696
0.799464
0.765825
0.731723
0.697089
0.661833
0.625842
0.588967
0.551001
0.511639
0.470443
0.426638
0.378724
0.323278
0.249884
0.112855
0.220985
0.502876
0.664469
0.792856
0.907883
1.01572
1.11882
1.2183
1.31472
1.40841
1.49954
1.58823
1.67459
1.75868
1.84056
1.92026
1.99782
2.07327
2.14662
2.21788
2.28706
2.35415
2.41915
2.48205
2.54285
2.60153
2.65808
2.71249
2.76475
2.81486
2.8628
2.90858
2.95221
2.99367
3.033
3.07019
3.10526
3.13824
3.16915
3.19802
3.22488
3.24978
3.27274
3.29382
3.31306
3.33052
3.34623
3.36026
3.37266
3.38348
3.39278
3.40062
3.40705
3.41213
3.41593
3.41849
3.41988
3.42015
3.41935
3.41754
3.41478
3.41111
3.40657
3.40123
3.39513
3.3883
3.3808
3.37265
3.36391
3.35461
3.34478
3.33445
3.32367
3.31244
3.30082
3.28881
3.27644
3.26374
3.25073
3.23743
3.22385
3.21002
3.19594
3.18164
3.16711
3.15239
3.13747
3.12237
3.10709
3.09164
3.07603
3.06027
3.04435
3.02829
3.01209
2.99575
2.97926
2.96265
2.94589
2.92901
2.91199
2.89483
2.87754
2.86011
2.84254
2.82484
2.80699
2.789
2.77087
2.75258
2.73414
2.71555
2.6968
2.67789
2.65882
2.63958
2.62016
2.60058
2.58081
2.56087
2.54074
2.52042
2.49991
2.47921
2.45831
2.43721
2.41591
2.3944
2.37268
2.35076
2.32862
2.30626
2.28369
2.26091
2.2379
2.21467
2.19123
2.16756
2.14367
2.11955
2.09522
2.07066
2.04589
2.02089
1.99567
1.97024
1.94459
1.91873
1.89266
1.86637
1.83988
1.81319
1.7863
1.7592
1.73191
1.70443
1.67677
1.64891
1.62088
1.59267
1.56428
1.53572
1.507
1.4781
1.44905
1.41984
1.39047
1.36094
1.33126
1.30142
1.27144
1.24129
1.21099
1.18054
1.14992
1.11913
1.08817
1.05702
1.02569
0.994145
0.962383
0.930382
0.89812
0.865568
0.832696
0.799463
0.765825
0.731723
0.697088
0.661832
0.625842
0.588967
0.551001
0.511639
0.470443
0.426638
0.378724
0.323278
0.249884
0.112855
0.248522
0.563609
0.741512
0.881055
1.00494
1.12042
1.23043
1.33635
1.43886
1.53831
1.63495
1.72888
1.82022
1.90904
1.9954
2.07935
2.16092
2.24016
2.3171
2.39176
2.46415
2.53429
2.60218
2.66784
2.73125
2.79243
2.85136
2.90806
2.9625
3.0147
3.06465
3.11235
3.15782
3.20105
3.24206
3.28086
3.31747
3.35191
3.38421
3.41439
3.44249
3.46855
3.49261
3.5147
3.53487
3.55319
3.56968
3.58442
3.59744
3.60881
3.61859
3.62684
3.6336
3.63895
3.64294
3.64562
3.64707
3.64734
3.64647
3.64454
3.64159
3.63767
3.63285
3.62716
3.62066
3.61339
3.6054
3.59673
3.58742
3.57751
3.56704
3.55604
3.54454
3.53258
3.52018
3.50738
3.49419
3.48065
3.46678
3.45259
3.4381
3.42334
3.40833
3.39306
3.37757
3.36186
3.34594
3.32982
3.31352
3.29704
3.28039
3.26357
3.24659
3.22945
3.21217
3.19473
3.17715
3.15943
3.14156
3.12355
3.1054
3.08711
3.06867
3.05009
3.03137
3.0125
2.99348
2.97431
2.95499
2.93551
2.91587
2.89607
2.8761
2.85597
2.83566
2.81518
2.79452
2.77368
2.75265
2.73143
2.71002
2.68841
2.66661
2.64459
2.62238
2.59995
2.57731
2.55446
2.53138
2.50809
2.48458
2.46084
2.43687
2.41268
2.38825
2.3636
2.33871
2.31359
2.28824
2.26265
2.23683
2.21078
2.1845
2.15799
2.13124
2.10427
2.07707
2.04964
2.02199
1.99412
1.96603
1.93773
1.90921
1.88048
1.85155
1.82241
1.79307
1.76354
1.73381
1.70389
1.67379
1.6435
1.61304
1.58239
1.55158
1.52059
1.48943
1.4581
1.42661
1.39496
1.36314
1.33115
1.299
1.26668
1.23419
1.20152
1.16867
1.13563
1.10239
1.06894
1.03526
1.00135
0.967165
0.932695
0.897906
0.862761
0.827214
0.79121
0.754678
0.717529
0.679644
0.640861
0.600955
0.559587
0.516227
0.46998
0.41909
0.359596
0.279577
0.127021
0.248523
0.563609
0.741512
0.881055
1.00494
1.12042
1.23043
1.33635
1.43885
1.53831
1.63494
1.72888
1.82022
1.90904
1.9954
2.07935
2.16092
2.24016
2.3171
2.39176
2.46415
2.53429
2.60218
2.66784
2.73125
2.79243
2.85136
2.90806
2.9625
3.0147
3.06465
3.11235
3.15782
3.20105
3.24206
3.28086
3.31747
3.35191
3.38421
3.41439
3.44249
3.46855
3.49261
3.5147
3.53487
3.55319
3.56968
3.58441
3.59744
3.60881
3.61859
3.62683
3.6336
3.63895
3.64294
3.64562
3.64707
3.64733
3.64647
3.64454
3.64159
3.63767
3.63285
3.62716
3.62066
3.61339
3.6054
3.59673
3.58742
3.57751
3.56704
3.55603
3.54454
3.53258
3.52018
3.50738
3.49419
3.48065
3.46677
3.45259
3.4381
3.42334
3.40833
3.39306
3.37757
3.36186
3.34594
3.32982
3.31352
3.29704
3.28039
3.26357
3.24659
3.22945
3.21217
3.19473
3.17715
3.15943
3.14156
3.12355
3.1054
3.08711
3.06867
3.05009
3.03137
3.0125
2.99348
2.97431
2.95498
2.93551
2.91587
2.89607
2.8761
2.85597
2.83566
2.81518
2.79452
2.77368
2.75265
2.73143
2.71002
2.68841
2.6666
2.64459
2.62238
2.59995
2.57731
2.55446
2.53138
2.50809
2.48458
2.46084
2.43687
2.41268
2.38825
2.3636
2.33871
2.31359
2.28824
2.26265
2.23683
2.21078
2.1845
2.15799
2.13124
2.10427
2.07707
2.04964
2.02199
1.99412
1.96603
1.93773
1.90921
1.88048
1.85155
1.82241
1.79307
1.76354
1.73381
1.70389
1.67379
1.6435
1.61304
1.58239
1.55158
1.52059
1.48943
1.4581
1.42661
1.39496
1.36314
1.33115
1.299
1.26668
1.23419
1.20152
1.16867
1.13563
1.10239
1.06894
1.03526
1.00135
0.967165
0.932695
0.897906
0.862761
0.827214
0.79121
0.754678
0.717529
0.679644
0.640861
0.600955
0.559587
0.516227
0.46998
0.41909
0.359597
0.279577
0.127021
0.275591
0.622497
0.816547
0.967217
1.09992
1.2229
1.3396
1.4516
1.55975
1.66447
1.76604
1.8646
1.96028
2.05315
2.14329
2.23076
2.31563
2.39793
2.47771
2.55502
2.62988
2.70233
2.77238
2.84007
2.90539
2.96836
3.029
3.08731
3.1433
3.19696
3.24832
3.29737
3.34413
3.3886
3.4308
3.47075
3.50845
3.54395
3.57725
3.6084
3.63741
3.66433
3.6892
3.71206
3.73295
3.75192
3.76903
3.78432
3.79784
3.80966
3.81983
3.82841
3.83546
3.84103
3.84519
3.848
3.84952
3.8498
3.84891
3.8469
3.84382
3.83973
3.83469
3.82874
3.82194
3.81433
3.80596
3.79687
3.78711
3.77672
3.76573
3.75418
3.74211
3.72954
3.71652
3.70307
3.68921
3.67497
3.66038
3.64546
3.63022
3.61469
3.59889
3.58282
3.56652
3.54998
3.53322
3.51625
3.49908
3.48173
3.46419
3.44648
3.42859
3.41055
3.39234
3.37398
3.35546
3.33679
3.31797
3.299
3.27989
3.26062
3.24121
3.22164
3.20192
3.18205
3.16203
3.14185
3.1215
3.101
3.08033
3.05949
3.03848
3.01729
2.99592
2.97437
2.95264
2.93071
2.90859
2.88628
2.86376
2.84104
2.81811
2.79497
2.77162
2.74805
2.72425
2.70024
2.67599
2.65152
2.62682
2.60188
2.5767
2.55129
2.52564
2.49975
2.47362
2.44724
2.42062
2.39376
2.36666
2.33931
2.31172
2.28389
2.25581
2.2275
2.19895
2.17016
2.14114
2.11189
2.0824
2.05269
2.02276
1.9926
1.96222
1.93163
1.90083
1.86982
1.8386
1.80718
1.77556
1.74375
1.71174
1.67955
1.64716
1.6146
1.58185
1.54893
1.51582
1.48254
1.44908
1.41545
1.38163
1.34764
1.31347
1.27911
1.24456
1.20981
1.17485
1.13968
1.10428
1.06863
1.03272
0.996512
0.959989
0.923112
0.885835
0.848103
0.809843
0.770961
0.731329
0.690774
0.649041
0.60575
0.560293
0.51164
0.457805
0.39431
0.307838
0.14043
0.275592
0.622497
0.816547
0.967217
1.09992
1.2229
1.33959
1.4516
1.55975
1.66447
1.76604
1.8646
1.96028
2.05315
2.14329
2.23076
2.31563
2.39793
2.47771
2.55502
2.62988
2.70233
2.77238
2.84006
2.90539
2.96836
3.029
3.08731
3.1433
3.19696
3.24832
3.29737
3.34413
3.3886
3.4308
3.47075
3.50845
3.54395
3.57725
3.60839
3.63741
3.66433
3.6892
3.71206
3.73295
3.75192
3.76903
3.78431
3.79784
3.80966
3.81983
3.82841
3.83545
3.84103
3.84519
3.848
3.84952
3.8498
3.84891
3.8469
3.84382
3.83973
3.83469
3.82874
3.82194
3.81433
3.80596
3.79687
3.78711
3.77672
3.76573
3.75418
3.74211
3.72954
3.71652
3.70306
3.68921
3.67497
3.66038
3.64546
3.63022
3.61469
3.59889
3.58282
3.56652
3.54998
3.53322
3.51625
3.49908
3.48173
3.46419
3.44648
3.42859
3.41055
3.39234
3.37398
3.35546
3.33679
3.31797
3.299
3.27989
3.26062
3.24121
3.22164
3.20192
3.18205
3.16203
3.14185
3.1215
3.101
3.08033
3.05949
3.03848
3.01729
2.99592
2.97437
2.95264
2.93071
2.90859
2.88628
2.86376
2.84104
2.81811
2.79497
2.77162
2.74805
2.72425
2.70024
2.67599
2.65152
2.62682
2.60188
2.5767
2.55129
2.52564
2.49975
2.47362
2.44724
2.42062
2.39376
2.36666
2.33931
2.31172
2.28389
2.25581
2.2275
2.19895
2.17016
2.14114
2.11189
2.0824
2.05269
2.02276
1.9926
1.96222
1.93163
1.90083
1.86982
1.8386
1.80718
1.77556
1.74375
1.71174
1.67955
1.64716
1.6146
1.58185
1.54892
1.51582
1.48254
1.44908
1.41545
1.38163
1.34764
1.31347
1.27911
1.24456
1.20981
1.17485
1.13968
1.10428
1.06863
1.03272
0.996512
0.959989
0.923112
0.885835
0.848103
0.809843
0.770961
0.731329
0.690774
0.649041
0.60575
0.560293
0.51164
0.457805
0.39431
0.307838
0.14043
0.302399
0.680286
0.890241
1.05197
1.19343
1.32382
1.447
1.56484
1.67829
1.78788
1.89393
1.99662
2.0961
2.19248
2.28583
2.37624
2.46379
2.54855
2.63057
2.70991
2.78663
2.86077
2.93238
3.00149
3.06813
3.13232
3.1941
3.25347
3.31046
3.36508
3.41734
3.46726
3.51485
3.56013
3.6031
3.6438
3.68224
3.71844
3.75243
3.78423
3.81388
3.84141
3.86687
3.89028
3.9117
3.93116
3.94873
3.96444
3.97835
3.99052
4.00101
4.00986
4.01715
4.02292
4.02724
4.03017
4.03177
4.03209
4.0312
4.02914
4.02599
4.02179
4.0166
4.01046
4.00344
3.99557
3.98692
3.97751
3.9674
3.95663
3.94524
3.93326
3.92073
3.90769
3.89416
3.88018
3.86578
3.85098
3.8358
3.82028
3.80443
3.78826
3.77181
3.75509
3.7381
3.72087
3.70341
3.68573
3.66784
3.64976
3.63147
3.61301
3.59437
3.57555
3.55656
3.53741
3.5181
3.49863
3.47901
3.45922
3.43928
3.41919
3.39894
3.37853
3.35796
3.33724
3.31635
3.2953
3.27409
3.2527
3.23114
3.20941
3.1875
3.1654
3.14312
3.12066
3.09799
3.07514
3.05208
3.02882
3.00535
2.98166
2.95777
2.93365
2.90931
2.88475
2.85996
2.83494
2.80968
2.78418
2.75845
2.73247
2.70625
2.67978
2.65306
2.6261
2.59888
2.57141
2.54369
2.51572
2.4875
2.45902
2.43028
2.4013
2.37207
2.34258
2.31285
2.28287
2.25264
2.22217
2.19146
2.16051
2.12932
2.0979
2.06625
2.03437
2.00227
1.96994
1.9374
1.90464
1.87167
1.83849
1.80511
1.77152
1.73773
1.70375
1.66957
1.63519
1.60063
1.56587
1.53093
1.4958
1.46047
1.42495
1.38924
1.35334
1.31723
1.28091
1.24438
1.20762
1.17063
1.13339
1.09587
1.05806
1.01994
0.98145
0.942563
0.903217
0.863334
0.822816
0.781525
0.739266
0.69576
0.650579
0.603043
0.551981
0.495191
0.427717
0.334937
0.15332
0.3024
0.680287
0.89024
1.05197
1.19343
1.32382
1.447
1.56484
1.67829
1.78788
1.89393
1.99662
2.0961
2.19248
2.28583
2.37624
2.46379
2.54855
2.63057
2.70991
2.78663
2.86077
2.93238
3.00149
3.06813
3.13232
3.1941
3.25347
3.31046
3.36508
3.41734
3.46726
3.51485
3.56012
3.6031
3.6438
3.68224
3.71844
3.75243
3.78423
3.81388
3.84141
3.86687
3.89028
3.9117
3.93116
3.94873
3.96444
3.97835
3.99052
4.00101
4.00986
4.01715
4.02292
4.02724
4.03017
4.03177
4.03209
4.0312
4.02914
4.02599
4.02179
4.0166
4.01046
4.00344
3.99557
3.98692
3.97751
3.9674
3.95663
3.94524
3.93326
3.92073
3.90769
3.89416
3.88018
3.86578
3.85098
3.8358
3.82028
3.80443
3.78826
3.77181
3.75509
3.7381
3.72087
3.70341
3.68573
3.66784
3.64976
3.63147
3.61301
3.59436
3.57555
3.55656
3.53741
3.5181
3.49863
3.479
3.45922
3.43928
3.41919
3.39894
3.37853
3.35796
3.33724
3.31635
3.2953
3.27408
3.2527
3.23114
3.20941
3.1875
3.1654
3.14312
3.12066
3.09799
3.07514
3.05208
3.02882
3.00535
2.98166
2.95777
2.93365
2.90931
2.88475
2.85996
2.83494
2.80968
2.78418
2.75845
2.73247
2.70625
2.67978
2.65306
2.6261
2.59888
2.57141
2.54369
2.51572
2.48749
2.45902
2.43028
2.4013
2.37207
2.34258
2.31285
2.28287
2.25264
2.22217
2.19146
2.16051
2.12932
2.0979
2.06625
2.03437
2.00227
1.96994
1.9374
1.90464
1.87167
1.83849
1.80511
1.77152
1.73773
1.70375
1.66957
1.63519
1.60063
1.56587
1.53093
1.4958
1.46047
1.42495
1.38924
1.35334
1.31723
1.28091
1.24438
1.20762
1.17063
1.13339
1.09587
1.05806
1.01994
0.98145
0.942563
0.903216
0.863334
0.822816
0.781525
0.739266
0.69576
0.650579
0.603043
0.551981
0.495191
0.427717
0.334937
0.15332