/*--------------------------------*- C++ -*----------------------------------*\
  =========                 |
  \\      /  F ield         | OpenFOAM: The Open Source CFD Toolbox
   \\    /   O peration     | Website:  https://openfoam.org
    \\  /    A nd           | Version:  8
     \\/     M anipulation  |
\*---------------------------------------------------------------------------*/
FoamFile
{
    version     2.0;
    format      ascii;
    class       volScalarField;
    location    "4200";
    object      nut;
}
// * * * * * * * * * * * * * * * * * * * * * * * * * * * * * * * * * * * * * //

dimensions      [0 2 -1 0 0 0 0];

internalField   nonuniform List<scalar> 
48000
(
5.32689e-05
9.26646e-05
0.000114747
0.000130986
0.000144547
0.00015601
0.000165967
0.000174801
0.000182879
0.000190389
0.000197339
0.00020384
0.000209949
0.000215712
0.000221165
0.000226338
0.000231254
0.000235932
0.000240387
0.000244633
0.00024868
0.000252538
0.000256214
0.000259717
0.000263053
0.000266226
0.000269243
0.000272108
0.000274827
0.000277402
0.000279839
0.000282141
0.000284313
0.000286358
0.00028828
0.000290083
0.00029177
0.000293345
0.000294812
0.000296174
0.000297435
0.000298598
0.000299666
0.000300642
0.00030154
0.000302366
0.000303112
0.000303779
0.000304371
0.00030489
0.00030534
0.000305724
0.000306045
0.000306307
0.000306512
0.000306662
0.000306761
0.000306811
0.000306815
0.000306775
0.000306693
0.000306571
0.000306412
0.000306218
0.00030599
0.00030573
0.00030544
0.000305122
0.000304777
0.000304407
0.000304013
0.000303596
0.000303158
0.000302699
0.000302222
0.000301726
0.000301213
0.000300683
0.000300138
0.000299578
0.000299003
0.000298416
0.000297815
0.000297201
0.000296576
0.000295939
0.000295291
0.000294632
0.000293962
0.000293282
0.000292592
0.000291891
0.000291181
0.000290461
0.000289731
0.000288992
0.000288243
0.000287484
0.000286715
0.000285937
0.000285148
0.00028435
0.000283541
0.000282723
0.000281893
0.000281053
0.000280202
0.00027934
0.000278467
0.000277582
0.000276685
0.000275776
0.000274855
0.00027392
0.000272973
0.000272013
0.000271038
0.00027005
0.000269047
0.00026803
0.000266997
0.000265949
0.000264885
0.000263805
0.000262709
0.000261595
0.000260464
0.000259316
0.000258149
0.000256964
0.00025576
0.000254537
0.000253294
0.000252032
0.000250749
0.000249445
0.00024812
0.000246774
0.000245406
0.000244015
0.000242602
0.000241166
0.000239706
0.000238223
0.000236716
0.000235184
0.000233627
0.000232045
0.000230438
0.000228804
0.000227144
0.000225457
0.000223743
0.000222002
0.000220232
0.000218434
0.000216607
0.000214751
0.000212864
0.000210948
0.000209
0.00020702
0.000205008
0.000202963
0.000200884
0.00019877
0.00019662
0.000194434
0.000192209
0.000189945
0.000187641
0.000185294
0.000182903
0.000180466
0.00017798
0.000175442
0.00017285
0.000170201
0.00016749
0.000164716
0.000161878
0.000158986
0.000156012
0.00015294
0.00014976
0.000146458
0.000143017
0.000139415
0.000135626
0.000131616
0.00012734
0.000122757
0.000117814
0.000112369
0.000106253
9.91946e-05
9.07121e-05
7.98706e-05
6.45122e-05
5.16904e-05
5.32693e-05
9.26648e-05
0.000114747
0.000130986
0.000144547
0.000156011
0.000165968
0.000174801
0.000182879
0.000190389
0.000197339
0.00020384
0.000209949
0.000215712
0.000221165
0.000226338
0.000231254
0.000235932
0.000240387
0.000244633
0.00024868
0.000252538
0.000256214
0.000259717
0.000263053
0.000266226
0.000269243
0.000272108
0.000274827
0.000277402
0.000279839
0.000282141
0.000284313
0.000286358
0.00028828
0.000290083
0.00029177
0.000293345
0.000294812
0.000296174
0.000297435
0.000298598
0.000299666
0.000300643
0.00030154
0.000302366
0.000303112
0.000303779
0.000304371
0.00030489
0.00030534
0.000305724
0.000306045
0.000306307
0.000306512
0.000306662
0.000306761
0.000306811
0.000306815
0.000306775
0.000306693
0.000306571
0.000306412
0.000306218
0.00030599
0.00030573
0.00030544
0.000305122
0.000304777
0.000304407
0.000304013
0.000303596
0.000303158
0.000302699
0.000302222
0.000301726
0.000301213
0.000300683
0.000300138
0.000299578
0.000299003
0.000298416
0.000297815
0.000297201
0.000296576
0.000295939
0.000295291
0.000294632
0.000293962
0.000293282
0.000292592
0.000291891
0.000291181
0.000290461
0.000289731
0.000288992
0.000288243
0.000287484
0.000286715
0.000285937
0.000285148
0.00028435
0.000283541
0.000282723
0.000281893
0.000281053
0.000280202
0.00027934
0.000278467
0.000277582
0.000276685
0.000275776
0.000274855
0.00027392
0.000272973
0.000272013
0.000271038
0.00027005
0.000269047
0.00026803
0.000266997
0.000265949
0.000264885
0.000263805
0.000262709
0.000261595
0.000260464
0.000259316
0.000258149
0.000256964
0.00025576
0.000254537
0.000253294
0.000252032
0.000250749
0.000249445
0.00024812
0.000246774
0.000245406
0.000244015
0.000242602
0.000241166
0.000239706
0.000238223
0.000236716
0.000235184
0.000233627
0.000232045
0.000230438
0.000228804
0.000227144
0.000225457
0.000223743
0.000222002
0.000220232
0.000218434
0.000216607
0.000214751
0.000212864
0.000210948
0.000209
0.00020702
0.000205008
0.000202963
0.000200884
0.00019877
0.00019662
0.000194434
0.000192209
0.000189945
0.000187641
0.000185294
0.000182903
0.000180466
0.00017798
0.000175442
0.00017285
0.000170201
0.00016749
0.000164716
0.000161878
0.000158986
0.000156012
0.00015294
0.00014976
0.000146458
0.000143017
0.000139415
0.000135626
0.000131616
0.00012734
0.000122757
0.000117814
0.000112369
0.000106253
9.91948e-05
9.07128e-05
7.98727e-05
6.45084e-05
5.16911e-05
8.0645e-05
0.000598019
0.000946822
0.00119069
0.00137371
0.00152228
0.00164961
0.00176158
0.00186151
0.00195167
0.00203419
0.00211026
0.00218082
0.00224659
0.00230813
0.00236588
0.00242022
0.00247144
0.00251979
0.00256549
0.00260873
0.00264967
0.00268844
0.00272517
0.00275997
0.00279295
0.00282418
0.00285375
0.00288174
0.00290822
0.00293324
0.00295688
0.00297919
0.00300022
0.00302002
0.00303865
0.00305613
0.00307253
0.00308788
0.00310222
0.00311559
0.00312801
0.00313951
0.00315008
0.00315957
0.00316808
0.00317577
0.00318274
0.00318904
0.0031947
0.00319977
0.00320427
0.00320822
0.00321165
0.00321459
0.00321704
0.00321905
0.00322062
0.00322177
0.00322253
0.00322291
0.00322292
0.00322259
0.00322192
0.00322094
0.00321965
0.00321808
0.00321623
0.00321411
0.00321174
0.00320913
0.00320628
0.00320321
0.00319993
0.00319644
0.00319276
0.00318889
0.00318483
0.0031806
0.0031762
0.00317163
0.00316691
0.00316203
0.003157
0.00315183
0.00314652
0.00314106
0.00313547
0.00312975
0.00312389
0.0031179
0.00311179
0.00310554
0.00309917
0.00309268
0.00308605
0.00307931
0.00307243
0.00306543
0.0030583
0.00305104
0.00304366
0.00303614
0.00302849
0.0030207
0.00301278
0.00300472
0.00299652
0.00298818
0.0029797
0.00297106
0.00296228
0.00295334
0.00294424
0.00293499
0.00292557
0.00291599
0.00290624
0.00289632
0.00288622
0.00287594
0.00286548
0.00285483
0.00284399
0.00283296
0.00282173
0.0028103
0.00279866
0.00278682
0.00277476
0.00276248
0.00274999
0.00273727
0.00272432
0.00271114
0.00269772
0.00268407
0.00267017
0.00265602
0.00264162
0.00262697
0.00261205
0.00259687
0.00258143
0.00256571
0.00254972
0.00253345
0.00251689
0.00250004
0.0024829
0.00246547
0.00244773
0.00242968
0.00241133
0.00239265
0.00237365
0.00235432
0.00233466
0.00231466
0.00229431
0.0022736
0.00225252
0.00223107
0.00220924
0.00218702
0.00216439
0.00214134
0.00211786
0.00209392
0.00206953
0.00204465
0.00201926
0.00199333
0.00196685
0.00193977
0.00191206
0.00188367
0.00185456
0.00182464
0.00179382
0.00176198
0.00172894
0.00169469
0.00165918
0.00162227
0.00158378
0.0015435
0.00150113
0.00145627
0.00140839
0.00135665
0.00129955
0.00123572
0.00116361
0.00108023
0.000980503
0.000855284
0.000686145
0.000430936
5.65167e-05
8.06453e-05
0.000598025
0.000946831
0.0011907
0.00137372
0.00152229
0.00164962
0.00176159
0.00186152
0.00195168
0.0020342
0.00211027
0.00218083
0.0022466
0.00230814
0.00236589
0.00242023
0.00247144
0.0025198
0.0025655
0.00260874
0.00264968
0.00268845
0.00272518
0.00275998
0.00279295
0.00282418
0.00285376
0.00288174
0.00290822
0.00293325
0.00295689
0.0029792
0.00300023
0.00302003
0.00303865
0.00305614
0.00307254
0.00308789
0.00310223
0.00311559
0.00312802
0.00313952
0.00315008
0.00315958
0.00316809
0.00317578
0.00318274
0.00318904
0.00319471
0.00319977
0.00320427
0.00320822
0.00321166
0.00321459
0.00321705
0.00321905
0.00322062
0.00322178
0.00322253
0.00322291
0.00322292
0.00322259
0.00322193
0.00322094
0.00321966
0.00321808
0.00321623
0.00321411
0.00321174
0.00320913
0.00320628
0.00320322
0.00319993
0.00319645
0.00319276
0.00318889
0.00318483
0.0031806
0.0031762
0.00317164
0.00316691
0.00316204
0.00315701
0.00315184
0.00314652
0.00314107
0.00313547
0.00312975
0.00312389
0.00311791
0.00311179
0.00310555
0.00309918
0.00309268
0.00308606
0.00307931
0.00307244
0.00306543
0.0030583
0.00305105
0.00304366
0.00303614
0.00302849
0.00302071
0.00301279
0.00300473
0.00299653
0.00298819
0.0029797
0.00297107
0.00296228
0.00295334
0.00294425
0.00293499
0.00292558
0.00291599
0.00290624
0.00289632
0.00288622
0.00287594
0.00286548
0.00285483
0.00284399
0.00283296
0.00282173
0.0028103
0.00279866
0.00278682
0.00277476
0.00276249
0.00274999
0.00273727
0.00272432
0.00271114
0.00269773
0.00268407
0.00267017
0.00265602
0.00264162
0.00262697
0.00261206
0.00259688
0.00258143
0.00256571
0.00254972
0.00253345
0.00251689
0.00250005
0.00248291
0.00246547
0.00244773
0.00242969
0.00241133
0.00239265
0.00237366
0.00235433
0.00233467
0.00231466
0.00229431
0.0022736
0.00225252
0.00223108
0.00220925
0.00218702
0.00216439
0.00214134
0.00211786
0.00209393
0.00206953
0.00204465
0.00201926
0.00199334
0.00196685
0.00193977
0.00191206
0.00188368
0.00185456
0.00182464
0.00179383
0.00176198
0.00172894
0.00169469
0.00165918
0.00162227
0.00158378
0.0015435
0.00150113
0.00145628
0.00140839
0.00135665
0.00129955
0.00123572
0.00116361
0.00108023
0.000980503
0.00085528
0.00068613
0.000430941
5.65227e-05
9.92089e-05
0.000907426
0.00161431
0.00214416
0.00256063
0.00290531
0.00320082
0.00346039
0.00369198
0.00390098
0.00409137
0.00426603
0.00442714
0.0045764
0.00471517
0.00484457
0.0049655
0.00507875
0.00518496
0.00528473
0.00537853
0.00546682
0.00554998
0.00562836
0.00570228
0.00577201
0.00583782
0.00589993
0.00595857
0.00601392
0.00606617
0.00611549
0.00616202
0.00620591
0.0062473
0.0062863
0.00632304
0.00635761
0.00639011
0.00642064
0.00644927
0.00647607
0.0065011
0.00652436
0.00654581
0.00656556
0.00658377
0.00660057
0.00661606
0.00663033
0.00664344
0.00665545
0.00666641
0.00667636
0.00668536
0.00669344
0.00670064
0.00670699
0.00671254
0.00671731
0.00672133
0.00672464
0.00672725
0.00672921
0.00673053
0.00673124
0.00673136
0.00673091
0.00672992
0.0067284
0.00672638
0.00672386
0.00672087
0.00671743
0.00671354
0.00670922
0.00670449
0.00669936
0.00669384
0.00668793
0.00668166
0.00667502
0.00666803
0.00666069
0.00665302
0.00664501
0.00663668
0.00662802
0.00661904
0.00660975
0.00660015
0.00659023
0.00658001
0.00656949
0.00655865
0.00654751
0.00653607
0.00652432
0.00651226
0.00649989
0.00648721
0.00647421
0.0064609
0.00644727
0.00643331
0.00641903
0.00640441
0.00638946
0.00637417
0.00635853
0.00634254
0.00632619
0.00630948
0.0062924
0.00627494
0.0062571
0.00623888
0.00622026
0.00620123
0.0061818
0.00616195
0.00614167
0.00612096
0.00609981
0.00607822
0.00605616
0.00603364
0.00601065
0.00598718
0.00596322
0.00593877
0.0059138
0.00588832
0.00586232
0.00583578
0.0058087
0.00578107
0.00575288
0.00572411
0.00569477
0.00566484
0.00563431
0.00560318
0.00557142
0.00553903
0.005506
0.00547232
0.00543797
0.00540295
0.00536725
0.00533084
0.00529372
0.00525587
0.00521728
0.00517793
0.00513781
0.0050969
0.00505518
0.00501263
0.00496923
0.00492496
0.0048798
0.00483371
0.00478667
0.00473865
0.00468961
0.00463952
0.00458834
0.00453601
0.0044825
0.00442774
0.00437167
0.00431422
0.0042553
0.00419483
0.0041327
0.00406877
0.00400291
0.00393494
0.00386463
0.00379173
0.00371594
0.00363702
0.00355467
0.00346842
0.00337774
0.00328197
0.00318023
0.00307137
0.00295387
0.00282565
0.00268375
0.0025242
0.00234257
0.00213148
0.00187961
0.00156899
0.0011705
0.000641891
7.01839e-05
9.92092e-05
0.000907435
0.00161433
0.00214417
0.00256065
0.00290533
0.00320084
0.00346041
0.003692
0.003901
0.00409139
0.00426604
0.00442715
0.00457642
0.00471519
0.00484458
0.00496552
0.00507876
0.00518498
0.00528474
0.00537854
0.00546683
0.00554999
0.00562837
0.00570229
0.00577202
0.00583783
0.00589994
0.00595858
0.00601393
0.00606618
0.0061155
0.00616203
0.00620592
0.00624731
0.00628631
0.00632304
0.00635761
0.00639011
0.00642064
0.00644927
0.00647608
0.0065011
0.00652436
0.00654581
0.00656556
0.00658377
0.00660057
0.00661607
0.00663033
0.00664344
0.00665545
0.00666641
0.00667637
0.00668537
0.00669344
0.00670064
0.006707
0.00671254
0.00671731
0.00672133
0.00672464
0.00672726
0.00672921
0.00673053
0.00673124
0.00673136
0.00673092
0.00672992
0.0067284
0.00672638
0.00672386
0.00672087
0.00671743
0.00671354
0.00670923
0.0067045
0.00669936
0.00669384
0.00668793
0.00668166
0.00667502
0.00666803
0.0066607
0.00665302
0.00664501
0.00663668
0.00662802
0.00661904
0.00660975
0.00660015
0.00659024
0.00658002
0.00656949
0.00655865
0.00654752
0.00653607
0.00652432
0.00651226
0.00649989
0.00648721
0.00647421
0.0064609
0.00644727
0.00643331
0.00641903
0.00640441
0.00638946
0.00637417
0.00635853
0.00634254
0.00632619
0.00630948
0.0062924
0.00627494
0.00625711
0.00623888
0.00622026
0.00620123
0.0061818
0.00616195
0.00614167
0.00612096
0.00609981
0.00607822
0.00605616
0.00603365
0.00601066
0.00598718
0.00596322
0.00593877
0.0059138
0.00588832
0.00586232
0.00583578
0.0058087
0.00578107
0.00575288
0.00572412
0.00569477
0.00566484
0.00563431
0.00560318
0.00557142
0.00553903
0.005506
0.00547232
0.00543797
0.00540296
0.00536725
0.00533084
0.00529372
0.00525587
0.00521728
0.00517793
0.00513781
0.0050969
0.00505518
0.00501263
0.00496923
0.00492496
0.0048798
0.00483371
0.00478667
0.00473865
0.00468961
0.00463952
0.00458834
0.00453601
0.0044825
0.00442774
0.00437167
0.00431422
0.0042553
0.00419483
0.0041327
0.00406877
0.00400292
0.00393494
0.00386463
0.00379173
0.00371594
0.00363702
0.00355467
0.00346842
0.00337774
0.00328197
0.00318023
0.00307137
0.00295387
0.00282565
0.00268375
0.0025242
0.00234257
0.00213148
0.00187961
0.00156899
0.0011705
0.000641899
7.01827e-05
0.000112313
0.00109763
0.00206577
0.00283491
0.00346226
0.00399111
0.00444868
0.00485236
0.00521362
0.00554037
0.00583838
0.0061119
0.00636421
0.00659789
0.00681499
0.00701722
0.007206
0.00738253
0.00754786
0.00770289
0.00784842
0.00798515
0.00811373
0.00823472
0.00834865
0.00845599
0.00855716
0.00865256
0.00874254
0.00882745
0.00890759
0.00898324
0.00905466
0.00912209
0.00918576
0.00924586
0.00930259
0.00935613
0.00940662
0.00945423
0.00949909
0.0095413
0.00958096
0.00961814
0.00965289
0.00968534
0.00971565
0.00974395
0.00977037
0.00979503
0.00981802
0.00983943
0.00985932
0.00987778
0.00989486
0.00991062
0.00992512
0.00993841
0.00995053
0.00996153
0.00997146
0.00998035
0.00998825
0.00999518
0.0100012
0.0100063
0.0100105
0.010014
0.0100166
0.0100184
0.0100194
0.0100198
0.0100194
0.0100183
0.0100166
0.0100142
0.0100112
0.0100075
0.0100033
0.00999841
0.00999298
0.00998699
0.00998044
0.00997334
0.00996571
0.00995754
0.00994885
0.00993964
0.00992991
0.00991968
0.00990895
0.00989771
0.00988596
0.00987372
0.00986098
0.00984774
0.009834
0.00981976
0.00980501
0.00978976
0.009774
0.00975772
0.00974092
0.0097236
0.00970574
0.00968736
0.00966843
0.00964895
0.00962892
0.00960832
0.00958715
0.0095654
0.00954306
0.00952012
0.00949657
0.0094724
0.00944761
0.00942218
0.00939609
0.00936935
0.00934193
0.00931383
0.00928503
0.00925553
0.0092253
0.00919435
0.00916264
0.00913018
0.00909695
0.00906293
0.00902811
0.00899248
0.00895602
0.00891872
0.00888056
0.00884153
0.00880162
0.0087608
0.00871906
0.00867639
0.00863277
0.00858818
0.0085426
0.00849602
0.00844841
0.00839977
0.00835006
0.00829927
0.00824737
0.00819435
0.00814018
0.00808483
0.00802828
0.00797051
0.00791147
0.00785116
0.00778952
0.00772653
0.00766215
0.00759635
0.00752907
0.00746028
0.00738992
0.00731795
0.00724429
0.0071689
0.0070917
0.00701262
0.00693157
0.00684845
0.00676317
0.0066756
0.00658562
0.00649308
0.0063978
0.0062996
0.00619824
0.00609347
0.00598498
0.00587241
0.00575534
0.00563329
0.00550575
0.00537206
0.00523144
0.00508292
0.00492526
0.00475691
0.00457592
0.00437977
0.00416516
0.00392769
0.00366159
0.00335961
0.00301158
0.00260298
0.00211328
0.00151461
0.000781579
7.99701e-05
0.000112313
0.00109764
0.00206578
0.00283494
0.00346228
0.00399114
0.00444871
0.00485239
0.00521364
0.0055404
0.00583841
0.00611193
0.00636424
0.00659791
0.00681501
0.00701724
0.00720602
0.00738255
0.00754788
0.00770291
0.00784843
0.00798517
0.00811375
0.00823474
0.00834867
0.008456
0.00855717
0.00865257
0.00874256
0.00882747
0.00890761
0.00898325
0.00905467
0.0091221
0.00918577
0.00924587
0.0093026
0.00935613
0.00940663
0.00945424
0.00949909
0.0095413
0.00958097
0.00961815
0.0096529
0.00968535
0.00971565
0.00974395
0.00977037
0.00979503
0.00981802
0.00983943
0.00985933
0.00987778
0.00989486
0.00991062
0.00992512
0.00993841
0.00995053
0.00996154
0.00997146
0.00998036
0.00998825
0.00999518
0.0100012
0.0100063
0.0100105
0.010014
0.0100166
0.0100184
0.0100194
0.0100198
0.0100194
0.0100183
0.0100166
0.0100142
0.0100112
0.0100075
0.0100033
0.00999841
0.00999298
0.00998699
0.00998044
0.00997334
0.00996571
0.00995754
0.00994885
0.00993964
0.00992991
0.00991968
0.00990894
0.0098977
0.00988596
0.00987372
0.00986098
0.00984774
0.009834
0.00981976
0.00980501
0.00978976
0.00977399
0.00975772
0.00974092
0.0097236
0.00970574
0.00968736
0.00966843
0.00964895
0.00962892
0.00960832
0.00958715
0.0095654
0.00954306
0.00952012
0.00949657
0.0094724
0.00944761
0.00942217
0.00939609
0.00936935
0.00934193
0.00931383
0.00928503
0.00925553
0.0092253
0.00919434
0.00916264
0.00913018
0.00909695
0.00906293
0.00902811
0.00899248
0.00895602
0.00891872
0.00888056
0.00884153
0.00880161
0.0087608
0.00871906
0.00867639
0.00863277
0.00858817
0.0085426
0.00849602
0.00844841
0.00839976
0.00835006
0.00829926
0.00824737
0.00819435
0.00814017
0.00808483
0.00802828
0.0079705
0.00791147
0.00785115
0.00778952
0.00772653
0.00766215
0.00759635
0.00752907
0.00746028
0.00738992
0.00731794
0.00724429
0.0071689
0.0070917
0.00701262
0.00693156
0.00684845
0.00676317
0.0066756
0.00658562
0.00649308
0.0063978
0.0062996
0.00619824
0.00609347
0.00598498
0.00587241
0.00575534
0.00563329
0.00550574
0.00537206
0.00523144
0.00508292
0.00492525
0.00475691
0.00457591
0.00437977
0.00416516
0.00392769
0.00366159
0.00335961
0.00301158
0.00260298
0.00211328
0.00151461
0.000781579
7.99697e-05
0.000122963
0.00122686
0.00238884
0.00335151
0.00415634
0.00484474
0.00544567
0.00597889
0.0064581
0.00689301
0.00729073
0.00765663
0.00799482
0.00830856
0.00860049
0.00887277
0.0091272
0.00936534
0.00958853
0.00979794
0.00999461
0.0101795
0.0103533
0.010517
0.0106711
0.0108163
0.0109533
0.0110824
0.0112043
0.0113193
0.0114279
0.0115305
0.0116275
0.0117191
0.0118057
0.0118876
0.0119651
0.0120383
0.0121076
0.0121731
0.0122349
0.0122934
0.0123485
0.0124005
0.0124495
0.0124956
0.012539
0.0125798
0.0126182
0.0126543
0.0126883
0.0127203
0.0127503
0.0127784
0.0128048
0.0128295
0.0128526
0.0128741
0.0128941
0.0129126
0.0129298
0.0129457
0.0129603
0.0129736
0.0129857
0.0129967
0.0130066
0.0130154
0.0130231
0.0130298
0.0130355
0.0130403
0.0130441
0.013047
0.0130491
0.0130502
0.0130505
0.01305
0.0130487
0.0130466
0.0130437
0.0130401
0.0130357
0.0130305
0.0130247
0.0130181
0.0130108
0.0130027
0.012994
0.0129846
0.0129744
0.0129636
0.0129521
0.0129399
0.012927
0.0129134
0.0128991
0.0128841
0.0128685
0.0128521
0.012835
0.0128171
0.0127986
0.0127793
0.0127593
0.0127386
0.0127171
0.0126948
0.0126718
0.0126479
0.0126233
0.0125979
0.0125716
0.0125445
0.0125166
0.0124878
0.0124582
0.0124276
0.0123962
0.0123638
0.0123305
0.0122963
0.0122611
0.0122249
0.0121877
0.0121495
0.0121103
0.01207
0.0120287
0.0119863
0.0119427
0.011898
0.0118522
0.0118053
0.0117571
0.0117077
0.0116571
0.0116052
0.0115521
0.0114977
0.0114419
0.0113848
0.0113263
0.0112664
0.011205
0.0111422
0.011078
0.0110121
0.0109448
0.0108758
0.0108053
0.010733
0.0106591
0.0105834
0.0105059
0.0104266
0.0103454
0.0102623
0.0101772
0.0100901
0.0100008
0.00990933
0.00981561
0.00971956
0.00962107
0.00952007
0.00941643
0.00931005
0.00920079
0.00908852
0.00897307
0.00885428
0.00873194
0.00860583
0.00847569
0.00834124
0.00820215
0.00805803
0.00790842
0.00775283
0.00759065
0.00742119
0.00724363
0.00705703
0.00686021
0.00665175
0.00642991
0.00619253
0.0059369
0.00565963
0.00535637
0.00502166
0.00464846
0.00422768
0.00374788
0.00319366
0.00254523
0.00177967
0.000888025
8.77523e-05
0.000122963
0.00122686
0.00238886
0.00335154
0.00415637
0.00484477
0.0054457
0.00597893
0.00645813
0.00689304
0.00729076
0.00765666
0.00799485
0.0083086
0.00860052
0.0088728
0.00912723
0.00936537
0.00958856
0.00979797
0.00999463
0.0101795
0.0103534
0.010517
0.0106711
0.0108164
0.0109533
0.0110824
0.0112043
0.0113193
0.0114279
0.0115305
0.0116275
0.0117191
0.0118058
0.0118877
0.0119651
0.0120383
0.0121076
0.0121731
0.0122349
0.0122934
0.0123485
0.0124005
0.0124495
0.0124956
0.012539
0.0125798
0.0126182
0.0126544
0.0126883
0.0127203
0.0127503
0.0127784
0.0128048
0.0128295
0.0128526
0.0128741
0.0128941
0.0129126
0.0129298
0.0129457
0.0129603
0.0129736
0.0129857
0.0129967
0.0130066
0.0130154
0.0130231
0.0130298
0.0130355
0.0130403
0.0130441
0.013047
0.0130491
0.0130502
0.0130505
0.01305
0.0130487
0.0130466
0.0130437
0.0130401
0.0130357
0.0130305
0.0130247
0.0130181
0.0130108
0.0130027
0.012994
0.0129846
0.0129744
0.0129636
0.0129521
0.0129399
0.012927
0.0129134
0.0128991
0.0128841
0.0128685
0.0128521
0.012835
0.0128171
0.0127986
0.0127793
0.0127593
0.0127386
0.0127171
0.0126948
0.0126717
0.0126479
0.0126233
0.0125979
0.0125716
0.0125445
0.0125166
0.0124878
0.0124582
0.0124276
0.0123962
0.0123638
0.0123305
0.0122963
0.0122611
0.0122249
0.0121877
0.0121495
0.0121103
0.01207
0.0120287
0.0119862
0.0119427
0.011898
0.0118522
0.0118053
0.0117571
0.0117077
0.0116571
0.0116052
0.0115521
0.0114977
0.0114419
0.0113848
0.0113263
0.0112664
0.011205
0.0111422
0.011078
0.0110121
0.0109448
0.0108758
0.0108052
0.010733
0.0106591
0.0105834
0.0105059
0.0104266
0.0103454
0.0102623
0.0101772
0.0100901
0.0100008
0.00990932
0.00981561
0.00971955
0.00962107
0.00952006
0.00941642
0.00931004
0.00920078
0.00908851
0.00897307
0.00885427
0.00873193
0.00860582
0.00847569
0.00834124
0.00820215
0.00805802
0.00790842
0.00775283
0.00759065
0.00742118
0.00724363
0.00705702
0.0068602
0.00665175
0.00642991
0.00619253
0.0059369
0.00565962
0.00535637
0.00502166
0.00464846
0.00422768
0.00374788
0.00319366
0.00254523
0.00177967
0.000888023
8.77523e-05
0.000131985
0.00132915
0.00263914
0.00375678
0.0047083
0.00553168
0.00625609
0.0069025
0.00748595
0.00801739
0.00850494
0.00895475
0.0093716
0.00975928
0.0101208
0.0104588
0.0107752
0.0110719
0.0113505
0.0116123
0.0118585
0.0120902
0.0123085
0.0125142
0.0127081
0.012891
0.0130637
0.0132267
0.0133806
0.013526
0.0136635
0.0137935
0.0139165
0.0140329
0.0141431
0.0142473
0.0143461
0.0144397
0.0145283
0.0146123
0.0146918
0.0147672
0.0148385
0.0149061
0.01497
0.0150304
0.0150875
0.0151416
0.0151927
0.015241
0.0152868
0.01533
0.0153709
0.0154095
0.015446
0.0154804
0.0155128
0.0155434
0.0155721
0.0155991
0.0156244
0.0156481
0.0156702
0.0156908
0.01571
0.0157278
0.0157442
0.0157593
0.0157731
0.0157857
0.0157971
0.0158073
0.0158163
0.0158243
0.0158311
0.0158369
0.0158416
0.0158454
0.0158481
0.0158498
0.0158506
0.0158504
0.0158493
0.0158472
0.0158443
0.0158404
0.0158356
0.01583
0.0158234
0.015816
0.0158077
0.0157985
0.0157884
0.0157774
0.0157656
0.0157529
0.0157393
0.0157248
0.0157094
0.0156931
0.0156759
0.0156578
0.0156388
0.0156188
0.0155979
0.0155761
0.0155533
0.0155295
0.0155047
0.0154789
0.0154521
0.0154243
0.0153954
0.0153654
0.0153344
0.0153023
0.0152691
0.0152347
0.0151992
0.0151625
0.0151246
0.0150856
0.0150452
0.0150037
0.0149609
0.0149167
0.0148713
0.0148245
0.0147763
0.0147268
0.0146758
0.0146234
0.0145695
0.0145142
0.0144573
0.0143988
0.0143388
0.0142772
0.0142139
0.0141489
0.0140823
0.0140139
0.0139437
0.0138717
0.0137979
0.0137222
0.0136445
0.0135649
0.0134832
0.0133995
0.0133137
0.0132257
0.0131355
0.013043
0.0129482
0.012851
0.0127514
0.0126491
0.0125443
0.0124368
0.0123265
0.0122134
0.0120972
0.011978
0.0118555
0.0117297
0.0116005
0.0114675
0.0113308
0.0111901
0.0110451
0.0108957
0.0107416
0.0105824
0.0104179
0.0102476
0.0100711
0.0098879
0.00969742
0.00949897
0.00929178
0.00907491
0.00884731
0.0086077
0.00835457
0.00808609
0.00780004
0.00749373
0.00716384
0.00680627
0.00641596
0.0059866
0.00551032
0.00497721
0.00437535
0.00368974
0.00290256
0.00199635
0.000975415
9.43192e-05
0.000131985
0.00132915
0.00263915
0.0037568
0.00470832
0.00553171
0.00625613
0.00690254
0.00748599
0.00801743
0.00850497
0.00895479
0.00937164
0.00975931
0.0101209
0.0104588
0.0107752
0.0110719
0.0113505
0.0116123
0.0118585
0.0120903
0.0123085
0.0125142
0.0127081
0.0128911
0.0130637
0.0132267
0.0133806
0.0135261
0.0136635
0.0137936
0.0139165
0.0140329
0.0141431
0.0142474
0.0143461
0.0144397
0.0145283
0.0146123
0.0146919
0.0147672
0.0148386
0.0149061
0.01497
0.0150304
0.0150875
0.0151416
0.0151927
0.015241
0.0152868
0.01533
0.0153709
0.0154095
0.015446
0.0154804
0.0155128
0.0155434
0.0155721
0.0155991
0.0156244
0.0156481
0.0156702
0.0156908
0.01571
0.0157278
0.0157442
0.0157593
0.0157731
0.0157857
0.0157971
0.0158073
0.0158163
0.0158243
0.0158311
0.0158369
0.0158416
0.0158454
0.0158481
0.0158498
0.0158506
0.0158504
0.0158493
0.0158472
0.0158443
0.0158404
0.0158356
0.01583
0.0158234
0.015816
0.0158077
0.0157985
0.0157884
0.0157774
0.0157656
0.0157529
0.0157393
0.0157248
0.0157094
0.0156931
0.0156759
0.0156578
0.0156388
0.0156188
0.0155979
0.0155761
0.0155533
0.0155295
0.0155047
0.0154789
0.0154521
0.0154243
0.0153954
0.0153654
0.0153344
0.0153023
0.0152691
0.0152347
0.0151992
0.0151625
0.0151246
0.0150856
0.0150452
0.0150037
0.0149608
0.0149167
0.0148713
0.0148245
0.0147763
0.0147268
0.0146758
0.0146234
0.0145695
0.0145142
0.0144573
0.0143988
0.0143388
0.0142772
0.0142139
0.0141489
0.0140823
0.0140139
0.0139437
0.0138717
0.0137979
0.0137222
0.0136445
0.0135649
0.0134832
0.0133995
0.0133137
0.0132257
0.0131355
0.013043
0.0129482
0.012851
0.0127513
0.0126491
0.0125443
0.0124368
0.0123265
0.0122134
0.0120972
0.011978
0.0118555
0.0117297
0.0116004
0.0114675
0.0113308
0.0111901
0.0110451
0.0108957
0.0107415
0.0105824
0.0104178
0.0102476
0.0100711
0.00988789
0.00969742
0.00949897
0.00929177
0.00907491
0.0088473
0.0086077
0.00835457
0.00808609
0.00780004
0.00749373
0.00716383
0.00680626
0.00641595
0.0059866
0.00551032
0.00497721
0.00437535
0.00368974
0.00290256
0.00199635
0.000975413
9.43192e-05
0.000139967
0.00141665
0.0028455
0.00408889
0.00516177
0.00609881
0.0069287
0.00767295
0.00834745
0.00896397
0.00953134
0.0100563
0.0105442
0.0109991
0.0114244
0.011823
0.012197
0.0125486
0.0128793
0.0131908
0.0134843
0.0137611
0.0140223
0.0142688
0.0145016
0.0147216
0.0149294
0.0151259
0.0153118
0.0154876
0.015654
0.0158116
0.0159608
0.0161022
0.0162363
0.0163634
0.0164839
0.0165982
0.0167067
0.0168097
0.0169074
0.0170002
0.0170882
0.0171718
0.0172511
0.0173264
0.0173978
0.0174656
0.0175299
0.017591
0.017649
0.0177041
0.0177564
0.017806
0.0178531
0.0178978
0.0179401
0.0179803
0.0180183
0.0180542
0.0180882
0.0181204
0.0181506
0.0181792
0.018206
0.0182311
0.0182547
0.0182768
0.0182973
0.0183164
0.0183341
0.0183503
0.0183653
0.0183789
0.0183913
0.0184024
0.0184123
0.0184209
0.0184284
0.0184347
0.0184399
0.0184439
0.0184469
0.0184487
0.0184494
0.0184491
0.0184476
0.0184451
0.0184416
0.0184369
0.0184313
0.0184245
0.0184167
0.0184079
0.018398
0.018387
0.0183749
0.0183618
0.0183476
0.0183323
0.0183159
0.0182984
0.0182798
0.0182601
0.0182392
0.0182172
0.018194
0.0181696
0.018144
0.0181172
0.0180892
0.0180599
0.0180293
0.0179975
0.0179643
0.0179298
0.017894
0.0178568
0.0178182
0.0177782
0.0177367
0.0176938
0.0176493
0.0176034
0.0175559
0.0175068
0.0174561
0.0174038
0.0173499
0.0172942
0.0172368
0.0171777
0.0171167
0.017054
0.0169894
0.0169229
0.0168544
0.016784
0.0167116
0.0166371
0.0165606
0.0164819
0.0164011
0.016318
0.0162326
0.0161449
0.0160549
0.0159624
0.0158675
0.0157699
0.0156698
0.0155671
0.0154615
0.0153532
0.015242
0.0151278
0.0150106
0.0148902
0.0147666
0.0146396
0.0145092
0.0143752
0.0142374
0.0140959
0.0139503
0.0138006
0.0136465
0.0134878
0.0133244
0.013156
0.0129823
0.0128031
0.0126179
0.0124264
0.0122282
0.0120228
0.0118097
0.0115882
0.0113575
0.011117
0.0108655
0.010602
0.0103251
0.0100334
0.00972491
0.00939753
0.00904861
0.00867501
0.00827291
0.00783771
0.00736378
0.0068443
0.00627094
0.00563363
0.00492026
0.00411683
0.00320779
0.00218071
0.00105036
0.000100064
0.000139967
0.00141665
0.00284552
0.00408891
0.0051618
0.00609884
0.00692873
0.00767299
0.00834749
0.00896401
0.00953138
0.0100564
0.0105442
0.0109992
0.0114245
0.011823
0.0121971
0.0125486
0.0128794
0.0131908
0.0134844
0.0137612
0.0140223
0.0142689
0.0145017
0.0147216
0.0149294
0.0151259
0.0153118
0.0154876
0.015654
0.0158116
0.0159609
0.0161023
0.0162363
0.0163634
0.0164839
0.0165982
0.0167067
0.0168097
0.0169074
0.0170002
0.0170882
0.0171718
0.0172511
0.0173264
0.0173978
0.0174656
0.0175299
0.017591
0.017649
0.0177041
0.0177564
0.017806
0.0178531
0.0178978
0.0179401
0.0179803
0.0180183
0.0180543
0.0180882
0.0181204
0.0181506
0.0181792
0.018206
0.0182311
0.0182547
0.0182768
0.0182973
0.0183164
0.0183341
0.0183503
0.0183653
0.0183789
0.0183913
0.0184024
0.0184123
0.0184209
0.0184284
0.0184347
0.0184399
0.0184439
0.0184469
0.0184487
0.0184494
0.0184491
0.0184476
0.0184451
0.0184416
0.0184369
0.0184313
0.0184245
0.0184167
0.0184079
0.018398
0.018387
0.0183749
0.0183618
0.0183476
0.0183323
0.0183159
0.0182984
0.0182798
0.0182601
0.0182392
0.0182172
0.018194
0.0181696
0.018144
0.0181172
0.0180892
0.0180599
0.0180293
0.0179975
0.0179643
0.0179298
0.017894
0.0178568
0.0178182
0.0177782
0.0177367
0.0176938
0.0176493
0.0176034
0.0175559
0.0175068
0.0174561
0.0174038
0.0173499
0.0172942
0.0172368
0.0171777
0.0171167
0.017054
0.0169894