/*--------------------------------*- C++ -*----------------------------------*\
  =========                 |
  \\      /  F ield         | OpenFOAM: The Open Source CFD Toolbox
   \\    /   O peration     | Website:  https://openfoam.org
    \\  /    A nd           | Version:  8
     \\/     M anipulation  |
\*---------------------------------------------------------------------------*/
FoamFile
{
    version     2.0;
    format      ascii;
    class       surfaceScalarField;
    location    "4200";
    object      phi;
}
// * * * * * * * * * * * * * * * * * * * * * * * * * * * * * * * * * * * * * //

dimensions      [1 0 -1 0 0 0 0];

internalField   nonuniform List<scalar> 
119360
(
-3.53149e-07
2.2815e-12
3.53146e-07
-6.39462e-07
3.00312e-13
2.86266e-07
-7.86597e-07
2.74834e-13
1.47121e-07
-8.02492e-07
1.25232e-13
1.58841e-08
-7.18973e-07
2.92255e-14
-8.35284e-08
-5.65896e-07
-4.19397e-14
-1.53087e-07
-3.65651e-07
-8.97347e-14
-2.00253e-07
-1.34427e-07
-1.21404e-13
-2.31232e-07
1.15972e-07
-1.4705e-13
-2.50407e-07
3.76715e-07
-1.60622e-13
-2.60752e-07
6.41623e-07
-1.55709e-13
-2.64916e-07
9.06511e-07
-1.43747e-13
-2.64895e-07
1.16832e-06
-1.28425e-13
-2.61812e-07
1.4248e-06
-1.11189e-13
-2.56491e-07
1.6743e-06
-9.33977e-14
-2.49512e-07
1.9156e-06
-7.59394e-14
-2.41304e-07
2.14778e-06
-5.93415e-14
-2.32187e-07
2.37018e-06
-4.38539e-14
-2.22407e-07
2.58234e-06
-2.96152e-14
-2.12159e-07
2.78393e-06
-1.67644e-14
-2.01596e-07
2.97476e-06
-5.27351e-15
-1.90842e-07
3.15475e-06
4.94058e-15
-1.79999e-07
3.3239e-06
1.41e-14
-1.6915e-07
3.48226e-06
2.2052e-14
-1.58365e-07
3.62995e-06
2.90048e-14
-1.47702e-07
3.76716e-06
3.49861e-14
-1.37211e-07
3.89408e-06
4.00515e-14
-1.26933e-07
4.01098e-06
4.43537e-14
-1.16903e-07
4.11813e-06
4.79203e-14
-1.0715e-07
4.21582e-06
5.0793e-14
-9.76978e-08
4.30438e-06
5.29857e-14
-8.85664e-08
4.38415e-06
5.45956e-14
-7.97715e-08
4.45547e-06
5.57475e-14
-7.13255e-08
4.5187e-06
5.64275e-14
-6.32376e-08
4.57421e-06
5.66079e-14
-5.55139e-08
4.62236e-06
5.65108e-14
-4.81584e-08
4.66353e-06
5.59835e-14
-4.11723e-08
4.69808e-06
5.52619e-14
-3.45549e-08
4.72638e-06
5.43182e-14
-2.83037e-08
4.74879e-06
5.3097e-14
-2.24145e-08
4.76566e-06
5.17786e-14
-1.68814e-08
4.77736e-06
5.02937e-14
-1.16976e-08
4.78421e-06
4.87533e-14
-6.85519e-09
4.78655e-06
4.7088e-14
-2.34404e-09
4.78469e-06
4.54366e-14
1.84665e-09
4.77896e-06
4.38129e-14
5.72743e-09
4.76965e-06
4.21892e-14
9.30984e-09
4.75704e-06
4.051e-14
1.26064e-08
4.7414e-06
3.90529e-14
1.56296e-08
4.72301e-06
3.7568e-14
1.83921e-08
4.7021e-06
3.61109e-14
2.09064e-08
4.67891e-06
3.47786e-14
2.31852e-08
4.65366e-06
3.35574e-14
2.52414e-08
4.62657e-06
3.25166e-14
2.70875e-08
4.59783e-06
3.14896e-14
2.87362e-08
4.56763e-06
3.06154e-14
3.01997e-08
4.53614e-06
2.98937e-14
3.14903e-08
4.50351e-06
2.92693e-14
3.26196e-08
4.46991e-06
2.87836e-14
3.35991e-08
4.43547e-06
2.84505e-14
3.44398e-08
4.40031e-06
2.81452e-14
3.51524e-08
4.36456e-06
2.79926e-14
3.5747e-08
4.32832e-06
2.79648e-14
3.62333e-08
4.2917e-06
2.7951e-14
3.66206e-08
4.25478e-06
2.80898e-14
3.69178e-08
4.21764e-06
2.82841e-14
3.7133e-08
4.18036e-06
2.85617e-14
3.72742e-08
4.14301e-06
2.89502e-14
3.73487e-08
4.10564e-06
2.94221e-14
3.73635e-08
4.06832e-06
2.99356e-14
3.73248e-08
4.03107e-06
3.04491e-14
3.72389e-08
3.99396e-06
3.10458e-14
3.71112e-08
3.95701e-06
3.17397e-14
3.6947e-08
3.92025e-06
3.24197e-14
3.6751e-08
3.88372e-06
3.31275e-14
3.65277e-08
3.84744e-06
3.38769e-14
3.6281e-08
3.81142e-06
3.46541e-14
3.60148e-08
3.77568e-06
3.53757e-14
3.57325e-08
3.74024e-06
3.61113e-14
3.54371e-08
3.70511e-06
3.68468e-14
3.51315e-08
3.67029e-06
3.75684e-14
3.48184e-08
3.63578e-06
3.83178e-14
3.45e-08
3.6016e-06
3.90117e-14
3.41785e-08
3.56774e-06
3.97195e-14
3.38558e-08
3.5342e-06
4.03995e-14
3.35337e-08
3.50099e-06
4.10101e-14
3.32137e-08
3.46809e-06
4.16068e-14
3.28973e-08
3.4355e-06
4.21758e-14
3.25858e-08
3.40321e-06
4.26615e-14
3.22802e-08
3.37123e-06
4.30779e-14
3.19817e-08
3.33953e-06
4.35219e-14
3.16912e-08
3.30812e-06
4.38827e-14
3.14096e-08
3.27698e-06
4.42713e-14
3.11376e-08
3.2461e-06
4.46738e-14
3.08759e-08
3.21547e-06
4.49652e-14
3.06251e-08
3.18508e-06
4.5215e-14
3.03859e-08
3.15492e-06
4.54648e-14
3.01587e-08
3.12497e-06
4.56729e-14
2.99441e-08
3.09522e-06
4.57978e-14
2.97424e-08
3.06567e-06
4.59921e-14
2.95541e-08
3.03628e-06
4.60753e-14
2.93796e-08
3.00706e-06
4.61724e-14
2.92192e-08
2.97798e-06
4.62279e-14
2.90733e-08
2.94904e-06
4.61724e-14
2.89421e-08
2.92021e-06
4.62279e-14
2.8826e-08
2.89148e-06
4.62001e-14
2.87253e-08
2.86283e-06
4.61724e-14
2.86402e-08
2.83426e-06
4.61168e-14
2.8571e-08
2.80574e-06
4.60613e-14
2.85179e-08
2.77725e-06
4.60613e-14
2.84811e-08
2.74879e-06
4.59503e-14
2.84609e-08
2.72033e-06
4.58947e-14
2.84576e-08
2.69185e-06
4.5867e-14
2.84712e-08
2.66334e-06
4.58669e-14
2.85021e-08
2.63479e-06
4.58808e-14
2.85504e-08
2.60617e-06
4.58669e-14
2.86162e-08
2.57747e-06
4.58391e-14
2.86999e-08
2.54866e-06
4.58669e-14
2.88014e-08
2.51974e-06
4.59224e-14
2.8921e-08
2.49067e-06
4.60334e-14
2.90588e-08
2.46145e-06
4.62138e-14
2.92149e-08
2.43206e-06
4.63803e-14
2.93894e-08
2.40247e-06
4.66162e-14
2.95824e-08
2.37268e-06
4.6866e-14
2.97941e-08
2.34265e-06
4.71435e-14
3.00243e-08
2.31237e-06
4.76014e-14
3.02732e-08
2.28183e-06
4.80455e-14
3.05408e-08
2.251e-06
4.85451e-14
3.08271e-08
2.21986e-06
4.9128e-14
3.11319e-08
2.1884e-06
4.96275e-14
3.14553e-08
2.1566e-06
5.03214e-14
3.17971e-08
2.12444e-06
5.10986e-14
3.21572e-08
2.0919e-06
5.19312e-14
3.25355e-08
2.05896e-06
5.27916e-14
3.29317e-08
2.02561e-06
5.37908e-14
3.33455e-08
1.99183e-06
5.479e-14
3.37768e-08
1.9576e-06
5.59557e-14
3.42251e-08
1.92291e-06
5.71769e-14
3.46901e-08
1.88773e-06
5.84259e-14
3.51713e-08
1.85206e-06
5.98415e-14
3.56683e-08
1.81588e-06
6.1368e-14
3.61806e-08
1.77917e-06
6.30611e-14
3.67074e-08
1.74191e-06
6.46154e-14
3.72482e-08
1.70411e-06
6.63362e-14
3.78022e-08
1.66573e-06
6.81958e-14
3.83687e-08
1.62678e-06
7.00554e-14
3.89467e-08
1.58724e-06
7.20538e-14
3.95352e-08
1.5471e-06
7.40522e-14
4.01332e-08
1.50636e-06
7.62171e-14
4.07397e-08
1.465e-06
7.82433e-14
4.13532e-08
1.42303e-06
8.0436e-14
4.19725e-08
1.38042e-06
8.26564e-14
4.25962e-08
1.3372e-06
8.48768e-14
4.32225e-08
1.29334e-06
8.70418e-14
4.38499e-08
1.24886e-06
8.91512e-14
4.44764e-08
1.20376e-06
9.12328e-14
4.50999e-08
1.15803e-06
9.33423e-14
4.57184e-08
1.1117e-06
9.53962e-14
4.63294e-08
1.06476e-06
9.73668e-14
4.69303e-08
1.01724e-06
9.93097e-14
4.75183e-08
9.69143e-07
1.01391e-13
4.80903e-08
9.20494e-07
1.03612e-13
4.8643e-08
8.71316e-07
1.06082e-13
4.91725e-08
8.21635e-07
1.08858e-13
4.9675e-08
7.71483e-07
1.12383e-13
5.01459e-08
7.20896e-07
1.1649e-13
5.05804e-08
6.69917e-07
1.2157e-13
5.09729e-08
6.18593e-07
1.27815e-13
5.13176e-08
5.66979e-07
1.3492e-13
5.16076e-08
5.15136e-07
1.43219e-13
5.18356e-08
4.63136e-07
1.52295e-13
5.19931e-08
4.11058e-07
1.61871e-13
5.20708e-08
3.58993e-07
1.71141e-13
5.2058e-08
3.07042e-07
1.79024e-13
5.19428e-08
2.55322e-07
1.84242e-13
5.17117e-08
2.03965e-07
1.85463e-13
5.1349e-08
1.53119e-07
1.80939e-13
5.08369e-08
1.02956e-07
1.69365e-13
5.01546e-08
5.36705e-08
1.49686e-13
4.9276e-08
5.48784e-09
1.21431e-13
4.81733e-08
-4.13137e-08
8.36554e-14
4.6792e-08
-8.64142e-08
4.10784e-14
4.50912e-08
-1.29467e-07
8.88314e-16
4.30433e-08
-1.70085e-07
-3.06975e-14
4.06093e-08
-2.07822e-07
-4.37427e-14
3.77281e-08
-2.42142e-07
-2.58681e-14
3.43129e-08
-2.72431e-07
3.46391e-14
3.02806e-08
-2.97962e-07
1.45828e-13
2.55233e-08
-3.17884e-07
3.00926e-13
1.9914e-08
-3.31196e-07
4.71845e-13
1.33034e-08
-3.36721e-07
6.03129e-13
5.51537e-09
-3.3311e-07
6.20337e-13
-3.62327e-09
-3.18868e-07
4.71512e-13
-1.42563e-08
-2.92395e-07
1.87128e-13
-2.64891e-08
-2.52164e-07
-8.36552e-14
-4.02471e-08
-1.97257e-07
-1.35003e-13
-5.49223e-08
-1.28676e-07
7.34969e-14
-6.85957e-08
-5.23701e-08
1.87517e-13
-7.63239e-08
7.70607e-09
-1.59095e-13
-6.0102e-08
-1.43463e-12
7.67124e-09
-3.53161e-07
3.53136e-07
-6.39462e-07
2.86263e-07
-7.86596e-07
1.47119e-07
-8.0249e-07
1.5882e-08
-7.1897e-07
-8.35303e-08
-5.65893e-07
-1.53088e-07
-3.65648e-07
-2.00255e-07
-1.34424e-07
-2.31234e-07
1.15974e-07
-2.50409e-07
3.76717e-07
-2.60753e-07
6.41625e-07
-2.64917e-07
9.06513e-07
-2.64897e-07
1.16832e-06
-2.61813e-07
1.4248e-06
-2.56492e-07
1.67431e-06
-2.49514e-07
1.9156e-06
-2.41305e-07
2.14778e-06
-2.32188e-07
2.37018e-06
-2.22408e-07
2.58234e-06
-2.1216e-07
2.78393e-06
-2.01597e-07
2.97476e-06
-1.90843e-07
3.15475e-06
-1.8e-07
3.3239e-06
-1.69151e-07
3.48226e-06
-1.58366e-07
3.62995e-06
-1.47703e-07
3.76716e-06
-1.37212e-07
3.89408e-06
-1.26934e-07
4.01098e-06
-1.16904e-07
4.11813e-06
-1.07151e-07
4.21582e-06
-9.76985e-08
4.30438e-06
-8.85671e-08
4.38414e-06
-7.97722e-08
4.45546e-06
-7.13262e-08
4.5187e-06
-6.32382e-08
4.57421e-06
-5.55146e-08
4.62236e-06
-4.8159e-08
4.66353e-06
-4.11729e-08
4.69808e-06
-3.45556e-08
4.72637e-06
-2.83044e-08
4.74878e-06
-2.24151e-08
4.76566e-06
-1.6882e-08
4.77735e-06
-1.16982e-08
4.7842e-06
-6.85579e-09
4.78654e-06
-2.34463e-09
4.78469e-06
1.84605e-09
4.77896e-06
5.72684e-09
4.76965e-06
9.30925e-09
4.75704e-06
1.26058e-08
4.7414e-06
1.5629e-08
4.72301e-06
1.83915e-08
4.7021e-06
2.09058e-08
4.67891e-06
2.31846e-08
4.65366e-06
2.52408e-08
4.62657e-06
2.70869e-08
4.59783e-06
2.87356e-08
4.56763e-06
3.01992e-08
4.53613e-06
3.14897e-08
4.50351e-06
3.2619e-08
4.46991e-06
3.35985e-08
4.43546e-06
3.44393e-08
4.40031e-06
3.51518e-08
4.36456e-06
3.57464e-08
4.32832e-06
3.62328e-08
4.2917e-06
3.66201e-08
4.25478e-06
3.69172e-08
4.21764e-06
3.71325e-08
4.18036e-06
3.72737e-08
4.14301e-06
3.73482e-08
4.10564e-06
3.73629e-08
4.06831e-06
3.73243e-08
4.03107e-06
3.72384e-08
3.99396e-06
3.71107e-08
3.95701e-06
3.69465e-08
3.92025e-06
3.67505e-08
3.88372e-06
3.65271e-08
3.84744e-06
3.62805e-08
3.81142e-06
3.60143e-08
3.77568e-06
3.57319e-08
3.74024e-06
3.54366e-08
3.70511e-06
3.5131e-08
3.67029e-06
3.48179e-08
3.63578e-06
3.44995e-08
3.6016e-06
3.4178e-08
3.56774e-06
3.38553e-08
3.5342e-06
3.35331e-08
3.50099e-06
3.32132e-08
3.46809e-06
3.28968e-08
3.4355e-06
3.25852e-08
3.40321e-06
3.22797e-08
3.37123e-06
3.19812e-08
3.33953e-06
3.16907e-08
3.30812e-06
3.14091e-08
3.27698e-06
3.1137e-08
3.2461e-06
3.08753e-08
3.21547e-06
3.06246e-08
3.18508e-06
3.03853e-08
3.15492e-06
3.01582e-08
3.12497e-06
2.99435e-08
3.09522e-06
2.97418e-08
3.06566e-06
2.95536e-08
3.03628e-06
2.9379e-08
3.00706e-06
2.92187e-08
2.97798e-06
2.90727e-08
2.94904e-06
2.89416e-08
2.92021e-06
2.88255e-08
2.89148e-06
2.87248e-08
2.86283e-06
2.86396e-08
2.83426e-06
2.85704e-08
2.80574e-06
2.85173e-08
2.77725e-06
2.84805e-08
2.74879e-06
2.84604e-08
2.72032e-06
2.8457e-08
2.69185e-06
2.84707e-08
2.66334e-06
2.85016e-08
2.63479e-06
2.85498e-08
2.60617e-06
2.86157e-08
2.57747e-06
2.86993e-08
2.54866e-06
2.88008e-08
2.51974e-06
2.89204e-08
2.49067e-06
2.90582e-08
2.46145e-06
2.92143e-08
2.43206e-06
2.93888e-08
2.40247e-06
2.95819e-08
2.37268e-06
2.97935e-08
2.34265e-06
3.00238e-08
2.31237e-06
3.02727e-08
2.28183e-06
3.05403e-08
2.251e-06
3.08265e-08
2.21986e-06
3.11313e-08
2.1884e-06
3.14547e-08
2.1566e-06
3.17965e-08
2.12444e-06
3.21567e-08
2.0919e-06
3.25349e-08
2.05896e-06
3.29311e-08
2.02561e-06
3.3345e-08
1.99183e-06
3.37762e-08
1.9576e-06
3.42245e-08
1.92291e-06
3.46895e-08
1.88773e-06
3.51708e-08
1.85206e-06
3.56678e-08
1.81588e-06
3.618e-08
1.77917e-06
3.67068e-08
1.74191e-06
3.72476e-08
1.70411e-06
3.78016e-08
1.66573e-06
3.83681e-08
1.62678e-06
3.8946e-08
1.58724e-06
3.95345e-08
1.54711e-06
4.01326e-08
1.50636e-06
4.0739e-08
1.465e-06
4.13525e-08
1.42303e-06
4.19719e-08
1.38043e-06
4.25955e-08
1.3372e-06
4.32218e-08
1.29334e-06
4.38492e-08
1.24886e-06
4.44756e-08
1.20376e-06
4.50992e-08
1.15803e-06
4.57177e-08
1.1117e-06
4.63287e-08
1.06476e-06
4.69296e-08
1.01724e-06
4.75175e-08
9.69143e-07
4.80895e-08
9.20494e-07
4.86421e-08
8.71316e-07
4.91717e-08
8.21635e-07
4.96742e-08
7.71483e-07
5.01451e-08
7.20896e-07
5.05795e-08
6.69917e-07
5.0972e-08
6.18593e-07
5.13166e-08
5.66979e-07
5.16067e-08
5.15137e-07
5.18346e-08
4.63136e-07
5.19921e-08
4.11058e-07
5.20697e-08
3.58993e-07
5.20569e-08
3.07042e-07
5.19417e-08
2.55323e-07
5.17105e-08
2.03965e-07
5.13478e-08
1.5312e-07
5.08357e-08
1.02956e-07
5.01534e-08
5.36708e-08
4.92747e-08
5.48808e-09
4.81721e-08
-4.13134e-08
4.67907e-08
-8.6414e-08
4.50899e-08
-1.29466e-07
4.30421e-08
-1.70085e-07
4.06081e-08
-2.07821e-07
3.77269e-08
-2.42142e-07
3.43117e-08
-2.7243e-07
3.02794e-08
-2.97961e-07
2.55221e-08
-3.17883e-07
1.99128e-08
-3.31195e-07
1.33021e-08
-3.36721e-07
5.51386e-09
-3.33111e-07
-3.62505e-09
-3.18869e-07
-1.42584e-08
-2.92396e-07
-2.64914e-08
-2.52165e-07
-4.02495e-08
-1.97258e-07
-5.49242e-08
-1.28678e-07
-6.8597e-08
-5.23744e-08
-7.63258e-08
7.6999e-09
-6.01063e-08
7.66032e-09
-2.60767e-07
2.3003e-13
6.1387e-07
-3.27935e-07
2.37844e-14
3.53411e-07
-3.12564e-07
3.43742e-14
1.3174e-07
-2.42719e-07
2.33764e-15
-5.39713e-08
-1.282e-07
-9.40973e-15
-1.98056e-07
2.27676e-08
-1.88812e-14
-3.04063e-07
2.01881e-07
-2.6278e-14
-3.79375e-07
4.01501e-07
-3.15862e-14
-4.3086e-07
6.15356e-07
-3.53539e-14
-4.64271e-07
8.38371e-07
-3.69845e-14
-4.83774e-07
1.06639e-06
-3.66584e-14
-4.92943e-07
1.29603e-06
-3.56661e-14
-4.94543e-07
1.52465e-06
-3.41256e-14
-4.90437e-07
1.75018e-06
-3.22937e-14
-4.82024e-07
1.97099e-06
-3.02814e-14
-4.70335e-07
2.18583e-06
-2.82552e-14
-4.56152e-07
2.39372e-06
-2.63019e-14
-4.40079e-07
2.59389e-06
-2.44249e-14
-4.22587e-07
2.78578e-06
-2.26555e-14
-4.04053e-07
2.96896e-06
-2.1004e-14
-3.8478e-07
3.14313e-06
-1.94844e-14
-3.65016e-07
3.30809e-06
-1.81104e-14
-3.44965e-07
3.46373e-06
-1.68406e-14
-3.24798e-07
3.61002e-06
-1.56853e-14
-3.04659e-07
3.74698e-06
-1.46513e-14
-2.84668e-07
3.87469e-06
-1.37319e-14
-2.64927e-07
3.99328e-06
-1.29096e-14
-2.45524e-07
4.1029e-06
-1.21637e-14
-2.26532e-07
4.20376e-06
-1.15184e-14
-2.08014e-07
4.29608e-06
-1.09563e-14
-1.90021e-07
4.3801e-06
-1.0481e-14
-1.72596e-07
4.4561e-06
-1.00716e-14
-1.55775e-07
4.52436e-06
-9.74194e-15
-1.39587e-07
4.58516e-06
-9.45396e-15
-1.24052e-07
4.63883e-06
-9.22843e-15
-1.09187e-07
4.68567e-06
-9.048e-15
-9.50016e-08
4.726e-06
-8.91268e-15
-8.15031e-08
4.76013e-06
-8.81552e-15
-6.86926e-08
4.78839e-06
-8.73223e-15
-5.65678e-08
4.81109e-06
-8.69752e-15
-4.51233e-08
4.82856e-06
-8.67322e-15
-3.43501e-08
4.84109e-06
-8.6732e-15
-2.42368e-08
4.849e-06
-8.65584e-15
-1.47694e-08
4.85259e-06
-8.64889e-15
-5.93156e-09
4.85214e-06
-8.65581e-15
2.29458e-09
4.84793e-06
-8.69049e-15
9.92853e-09
4.84024e-06
-8.71129e-15
1.69915e-08
4.82934e-06
-8.71475e-15
2.35054e-08
4.81547e-06
-8.71473e-15
2.94931e-08
4.79889e-06
-8.69737e-15
3.49778e-08
4.7798e-06
-8.67654e-15
3.99831e-08
4.75845e-06
-8.64531e-15
4.45326e-08
4.73504e-06
-8.60366e-15
4.86505e-08
4.70976e-06
-8.54814e-15
5.23604e-08
4.68281e-06
-8.48914e-15
5.56862e-08
4.65436e-06
-8.40587e-15
5.86509e-08
4.62457e-06
-8.333e-15
6.12777e-08
4.59359e-06
-8.2289e-15
6.35888e-08
4.56158e-06
-8.1144e-15
6.5606e-08
4.52867e-06
-7.9999e-15
6.73503e-08
4.49498e-06
-7.87499e-15
6.8842e-08
4.46062e-06
-7.73274e-15
7.01007e-08
4.4257e-06
-7.59048e-15
7.11451e-08
4.39033e-06
-7.46211e-15
7.19929e-08
4.35458e-06
-7.33026e-15
7.26612e-08
4.31855e-06
-7.18454e-15
7.3166e-08
4.28229e-06
-7.04923e-15
7.35225e-08
4.2459e-06
-6.90004e-15
7.3745e-08
4.20941e-06
-6.76125e-15
7.3847e-08
4.17289e-06
-6.62941e-15
7.3841e-08
4.13639e-06
-6.50104e-15
7.37389e-08
4.09994e-06
-6.36573e-15
7.35515e-08
4.0636e-06
-6.23736e-15
7.32891e-08
4.02738e-06
-6.11246e-15
7.2961e-08
3.99133e-06
-6.00144e-15
7.25761e-08
3.95547e-06
-5.88695e-15
7.21424e-08
3.91981e-06
-5.78633e-15
7.16672e-08
3.88438e-06
-5.69613e-15
7.11574e-08
3.8492e-06
-5.6198e-15
7.06192e-08
3.81427e-06
-5.54348e-15
7.00584e-08
3.7796e-06
-5.48103e-15
6.948e-08
3.74521e-06
-5.42552e-15
6.88889e-08
3.7111e-06
-5.37696e-15
6.82895e-08
3.67726e-06
-5.3388e-15
6.76855e-08
3.64371e-06
-5.2937e-15
6.70805e-08
3.61045e-06
-5.2833e-15
6.64779e-08
3.57746e-06
-5.26248e-15
6.58805e-08
3.54475e-06
-5.26596e-15
6.5291e-08
3.51232e-06
-5.27291e-15
6.47117e-08
3.48015e-06
-5.29373e-15
6.41448e-08
3.44825e-06
-5.30761e-15
6.35923e-08
3.4166e-06
-5.3215e-15
6.30561e-08
3.38519e-06
-5.34926e-15
6.25376e-08
3.35403e-06
-5.37356e-15
6.20383e-08
3.32309e-06
-5.41173e-15
6.15596e-08
3.29237e-06
-5.44643e-15
6.11028e-08
3.26186e-06
-5.48461e-15
6.06689e-08
3.23154e-06
-5.52625e-15
6.02589e-08
3.2014e-06
-5.57483e-15
5.98738e-08
3.17144e-06
-5.62341e-15
5.95144e-08
3.14163e-06
-5.67546e-15
5.91816e-08
3.11197e-06
-5.72058e-15
5.88762e-08
3.08244e-06
-5.78304e-15
5.85987e-08
3.05303e-06
-5.83856e-15
5.83499e-08
3.02372e-06
-5.88367e-15
5.81304e-08
2.99451e-06
-5.93919e-15
5.79408e-08
2.96536e-06
-5.99471e-15
5.77816e-08
2.93627e-06
-6.02942e-15
5.76534e-08
2.90723e-06
-6.08494e-15
5.75567e-08
2.87822e-06
-6.13699e-15
5.74919e-08
2.84922e-06
-6.1821e-15
5.74595e-08
2.82021e-06
-6.22028e-15
5.74599e-08
2.79118e-06
-6.24804e-15
5.74936e-08
2.76212e-06
-6.29316e-15
5.75609e-08
2.73301e-06
-6.31051e-15
5.76623e-08
2.70382e-06
-6.3591e-15
5.7798e-08
2.67455e-06
-6.38339e-15
5.79684e-08
2.64517e-06
-6.40422e-15
5.81737e-08
2.61568e-06
-6.42157e-15
5.84143e-08
2.58604e-06
-6.4424e-15
5.86904e-08
2.55625e-06
-6.45282e-15
5.90022e-08
2.52629e-06
-6.47018e-15
5.93499e-08
2.49613e-06
-6.48059e-15
5.97336e-08
2.46577e-06
-6.50142e-15
6.01534e-08
2.43518e-06
-6.5049e-15
6.06093e-08
2.40435e-06
-6.50144e-15
6.11015e-08
2.37326e-06
-6.51185e-15
6.16299e-08
2.34189e-06
-6.51533e-15
6.21944e-08
2.31022e-06
-6.5084e-15
6.27948e-08
2.27824e-06
-6.52576e-15
6.34309e-08
2.24593e-06
-6.5327e-15
6.41026e-08
2.21328e-06
-6.54659e-15
6.48095e-08
2.18026e-06
-6.53619e-15
6.55511e-08
2.14686e-06
-6.52232e-15
6.63271e-08
2.11306e-06
-6.53621e-15
6.71368e-08
2.07886e-06
-6.53274e-15
6.79796e-08
2.04422e-06
-6.53275e-15
6.88549e-08
2.00915e-06
-6.54664e-15
6.97617e-08
1.97362e-06
-6.54664e-15
7.06991e-08
1.93761e-06
-6.55012e-15
7.16662e-08
1.90113e-06
-6.53278e-15
7.26617e-08
1.86415e-06
-6.55013e-15
7.36844e-08
1.82666e-06
-6.58483e-15
7.4733e-08
1.78865e-06
-6.59178e-15
7.58057e-08
1.75012e-06
-6.59872e-15
7.69011e-08
1.71104e-06
-6.63342e-15
7.80171e-08
1.67142e-06
-6.66465e-15
7.9152e-08
1.63125e-06
-6.70976e-15
8.03034e-08
1.59051e-06
-6.75834e-15
8.1469e-08
1.54922e-06
-6.82773e-15
8.26463e-08
1.50735e-06
-6.88672e-15
8.38325e-08
1.46492e-06
-6.97346e-15
8.50246e-08
1.42192e-06
-7.04979e-15
8.62194e-08
1.37835e-06
-7.14694e-15
8.74134e-08
1.33422e-06
-7.26838e-15
8.86029e-08
1.28953e-06
-7.39675e-15
8.97836e-08
1.24429e-06
-7.53206e-15
9.09513e-08
1.19852e-06
-7.68472e-15
9.21011e-08
1.15221e-06
-7.84432e-15
9.32278e-08
1.1054e-06
-7.99004e-15
9.43259e-08
1.0581e-06
-8.15311e-15
9.53891e-08
1.01032e-06
-8.27454e-15
9.64108e-08
9.62108e-07
-8.39251e-15
9.73837e-08
9.13478e-07
-8.43067e-15
9.83e-08
8.64467e-07
-8.4168e-15
9.91508e-08
8.15116e-07
-8.34741e-15
9.99266e-08
7.65466e-07
-8.21557e-15
1.00617e-07
7.15567e-07
-7.98659e-15
1.0121e-07
6.65476e-07
-7.75761e-15
1.01693e-07
6.15253e-07
-7.47312e-15
1.02052e-07
5.64968e-07
-7.2372e-15
1.02271e-07
5.147e-07
-7.15394e-15
1.02332e-07
4.64536e-07
-7.27884e-15
1.02215e-07
4.14574e-07
-7.76456e-15
1.01898e-07
3.64922e-07
-8.74295e-15
1.01356e-07
3.15705e-07
-1.03666e-14
1.00559e-07
2.6706e-07
-1.26842e-14
9.94747e-08
2.1914e-07
-1.5779e-14
9.8066e-08
1.72121e-07
-1.95399e-14
9.62869e-08
1.26199e-07
-2.38628e-14
9.40877e-08
8.15882e-08
-2.82551e-14
9.13946e-08
3.85311e-08
-3.20229e-14
8.81404e-08
-2.70037e-09
-3.46181e-14
8.42671e-08
-4.17838e-08
-3.50483e-14
7.96854e-08
-7.83613e-08
-3.17385e-14
7.42985e-08
-1.12049e-07
-2.30787e-14
6.7994e-08
-1.42414e-07
-7.42457e-15
6.06384e-08
-1.68972e-07
1.57305e-14
5.20739e-08
-1.91189e-07
4.36596e-14
4.21236e-08
-2.08488e-07
6.85702e-14
3.05926e-08
-2.20257e-07
7.65083e-14
1.7274e-08
-2.25872e-07
5.16462e-14
1.97908e-09
-2.24735e-07
-1.16295e-14
-1.54068e-08
-2.16377e-07
-9.02888e-14
-3.48614e-08
-2.00588e-07
-1.23901e-13
-5.60501e-08
-1.77593e-07
-4.68652e-14
-7.79311e-08
-1.48178e-07
1.10786e-13
-9.80261e-08
-1.13447e-07
1.25733e-13
-1.11075e-07
-6.91482e-08
-7.74104e-14
-1.04432e-07
-1.74305e-12
-6.15089e-08
-2.6077e-07
6.13867e-07
-3.27935e-07
3.53409e-07
-3.12564e-07
1.31738e-07
-2.42717e-07
-5.39724e-08
-1.28199e-07
-1.98057e-07
2.27689e-08
-3.04063e-07
2.01882e-07
-3.79375e-07
4.01502e-07
-4.30861e-07
6.15357e-07
-4.64271e-07
8.38372e-07
-4.83774e-07
1.06639e-06
-4.92943e-07
1.29603e-06
-4.94543e-07
1.52465e-06
-4.90437e-07
1.75018e-06
-4.82024e-07
1.97099e-06
-4.70335e-07
2.18583e-06
-4.56153e-07
2.39372e-06
-4.40079e-07
2.59389e-06
-4.22587e-07
2.78578e-06
-4.04053e-07
2.96896e-06
-3.8478e-07
3.14313e-06
-3.65016e-07
3.30809e-06
-3.44965e-07
3.46373e-06
-3.24798e-07
3.61002e-06
-3.04659e-07
3.74698e-06
-2.84668e-07
3.87469e-06
-2.64927e-07
3.99327e-06
-2.45524e-07
4.1029e-06
-2.26532e-07
4.20376e-06
-2.08014e-07
4.29607e-06
-1.90021e-07
4.3801e-06
-1.72596e-07
4.4561e-06
-1.55775e-07
4.52435e-06
-1.39587e-07
4.58516e-06
-1.24052e-07
4.63883e-06
-1.09187e-07
4.68567e-06
-9.50016e-08
4.726e-06
-8.15031e-08
4.76013e-06
-6.86926e-08
4.78839e-06
-5.65679e-08
4.81109e-06
-4.51233e-08
4.82856e-06
-3.43501e-08
4.84109e-06
-2.42368e-08
4.849e-06
-1.47694e-08
4.85259e-06
-5.93161e-09
4.85213e-06
2.29452e-09
4.84793e-06
9.92847e-09
4.84024e-06
1.69914e-08
4.82934e-06
2.35054e-08
4.81547e-06
2.94931e-08
4.79888e-06
3.49777e-08
4.7798e-06
3.9983e-08
4.75845e-06
4.45325e-08
4.73504e-06
4.86504e-08
4.70976e-06
5.23603e-08
4.68281e-06
5.5686e-08
4.65436e-06
5.86508e-08
4.62456e-06
6.12776e-08
4.59359e-06
6.35887e-08
4.56158e-06
6.56058e-08
4.52867e-06
6.73501e-08
4.49498e-06
6.88419e-08
4.46062e-06
7.01006e-08
4.4257e-06
7.11449e-08
4.39033e-06
7.19928e-08
4.35458e-06
7.26611e-08
4.31855e-06
7.31659e-08
4.28229e-06
7.35224e-08
4.24589e-06
7.37449e-08
4.20941e-06
7.38469e-08
4.17289e-06
7.38409e-08
4.13639e-06
7.37387e-08
4.09994e-06
7.35514e-08
4.0636e-06
7.32889e-08
4.02738e-06
7.29609e-08
3.99133e-06
7.2576e-08
3.95547e-06
7.21422e-08
3.91981e-06
7.16671e-08
3.88438e-06
7.11573e-08
3.8492e-06
7.06191e-08
3.81427e-06
7.00582e-08
3.7796e-06
6.94799e-08
3.74521e-06
6.88888e-08
3.7111e-06
6.82893e-08
3.67726e-06
6.76853e-08
3.64371e-06
6.70804e-08
3.61045e-06
6.64778e-08
3.57746e-06
6.58804e-08
3.54475e-06
6.52908e-08
3.51232e-06
6.47116e-08
3.48015e-06
6.41447e-08
3.44825e-06
6.35922e-08
3.4166e-06
6.30559e-08
3.38519e-06
6.25374e-08
3.35403e-06
6.20382e-08
3.32309e-06
6.15595e-08
3.29237e-06
6.11027e-08
3.26185e-06
6.06688e-08
3.23154e-06
6.02588e-08
3.2014e-06
5.98737e-08
3.17144e-06
5.95143e-08
3.14163e-06
5.91815e-08
3.11197e-06
5.88761e-08
3.08244e-06
5.85986e-08
3.05303e-06
5.83498e-08
3.02372e-06
5.81303e-08
2.99451e-06
5.79407e-08
2.96536e-06
5.77815e-08
2.93627e-06
5.76533e-08
2.90723e-06
5.75566e-08
2.87822e-06
5.74918e-08
2.84922e-06
5.74594e-08
2.82021e-06
5.74598e-08
2.79118e-06
5.74935e-08
2.76212e-06
5.75608e-08
2.73301e-06
5.76622e-08
2.70382e-06
5.77979e-08
2.67455e-06
5.79683e-08
2.64517e-06
5.81736e-08
2.61568e-06
5.84142e-08
2.58604e-06
5.86903e-08
2.55625e-06
5.90021e-08
2.52629e-06
5.93498e-08
2.49613e-06
5.97335e-08
2.46577e-06
6.01533e-08
2.43518e-06
6.06093e-08
2.40435e-06
6.11014e-08
2.37326e-06
6.16298e-08
2.34189e-06
6.21943e-08
2.31022e-06
6.27947e-08
2.27824e-06
6.34308e-08
2.24593e-06
6.41025e-08
2.21327e-06
6.48094e-08
2.18026e-06
6.5551e-08
2.14686e-06
6.6327e-08
2.11306e-06
6.71367e-08
2.07886e-06
6.79795e-08
2.04422e-06
6.88548e-08
2.00915e-06
6.97616e-08
1.97362e-06
7.0699e-08
1.93761e-06
7.16661e-08
1.90113e-06
7.26616e-08
1.86415e-06
7.36844e-08
1.82666e-06
7.47329e-08
1.78865e-06
7.58056e-08
1.75012e-06
7.6901e-08
1.71104e-06
7.8017e-08
1.67142e-06
7.91519e-08
1.63125e-06
8.03033e-08
1.59051e-06
8.14689e-08
1.54922e-06
8.26462e-08
1.50735e-06
8.38324e-08
1.46492e-06
8.50245e-08
1.42192e-06
8.62193e-08
1.37835e-06
8.74133e-08
1.33422e-06
8.86028e-08
1.28953e-06
8.97835e-08
1.24429e-06
9.09512e-08
1.19852e-06
9.2101e-08
1.15221e-06
9.32277e-08
1.1054e-06
9.43258e-08
1.0581e-06
9.5389e-08
1.01032e-06
9.64107e-08
9.62108e-07
9.73836e-08
9.13478e-07
9.82999e-08
8.64468e-07
9.91507e-08
8.15116e-07
9.99265e-08
7.65466e-07
1.00617e-07
7.15568e-07
1.0121e-07
6.65476e-07
1.01693e-07
6.15253e-07
1.02052e-07
5.64968e-07
1.02271e-07
5.147e-07
1.02332e-07
4.64536e-07
1.02215e-07
4.14574e-07
1.01898e-07
3.64923e-07
1.01355e-07
3.15705e-07
1.00559e-07
2.6706e-07
9.94746e-08
2.19141e-07
9.80658e-08
1.72122e-07
9.62868e-08
1.26199e-07
9.40876e-08
8.15884e-08
9.13945e-08
3.85312e-08
8.81403e-08
-2.70021e-09
8.4267e-08
-4.17836e-08
7.96853e-08
-7.83611e-08
7.42984e-08
-1.12049e-07
6.79939e-08
-1.42414e-07
6.06383e-08
-1.68972e-07
5.20738e-08
-1.91189e-07
4.21234e-08
-2.08488e-07
3.05924e-08
-2.20258e-07
1.72738e-08
-2.25873e-07
1.97887e-09
-2.24736e-07
-1.5407e-08
-2.16377e-07
-3.48616e-08
-2.00588e-07
-5.60503e-08
-1.77593e-07
-7.79314e-08
-1.48179e-07
-9.80267e-08
-1.13449e-07
-1.11076e-07
-6.9155e-08
-1.04433e-07
-6.15087e-08
-1.03882e-07
3.56151e-13
7.17739e-07
-7.38076e-08
2.5658e-14
3.23325e-07
9.86914e-09
4.19655e-14
4.80599e-08
1.20544e-07
2.74289e-14
-1.64648e-07
2.52102e-07
2.58158e-14
-3.29616e-07
4.02362e-07
2.41817e-14
-4.54325e-07
5.68824e-07
2.24124e-14
-5.45839e-07
7.48548e-07
2.06604e-14
-6.10585e-07
9.38391e-07
1.86689e-14
-6.54115e-07
1.13549e-06
1.66359e-14
-6.80879e-07
1.33714e-06
1.48561e-14
-6.94593e-07
1.54083e-06
1.3222e-14
-6.98227e-07
1.74442e-06
1.1855e-14
-6.94028e-07
1.94613e-06
1.07344e-14
-6.83739e-07
2.1445e-06
9.81157e-15
-6.68704e-07
2.33832e-06
9.03616e-15
-6.49976e-07
2.52663e-06
8.38739e-15
-6.28387e-07
2.70864e-06
7.83923e-15
-6.04604e-07
2.88375e-06
7.38648e-15
-5.79165e-07
3.05148e-06
6.98057e-15
-5.52513e-07
3.21148e-06
6.62323e-15
-5.25012e-07
3.36348e-06
6.30926e-15
-4.96967e-07
3.50731e-06
6.02998e-15
-4.68633e-07
3.64288e-06
5.76284e-15
-4.40228e-07
3.77015e-06
5.5304e-15
-4.11935e-07
3.88913e-06
5.30663e-15
-3.83913e-07
3.9999e-06
5.10889e-15
-3.56294e-07
4.10256e-06
4.92849e-15
-3.29193e-07
4.19725e-06
4.74982e-15
-3.02707e-07
4.28415e-06
4.58677e-15
-2.76918e-07
4.36345e-06
4.43239e-15
-2.51895e-07
4.43536e-06
4.27454e-15
-2.27694e-07
4.50014e-06
4.1375e-15
-2.04361e-07
4.55802e-06
4.00221e-15
-1.81933e-07
4.60927e-06
3.87038e-15
-1.60437e-07
4.65416e-06
3.75243e-15
-1.39893e-07
4.69296e-06
3.62927e-15
-1.20312e-07
4.72597e-06
3.51305e-15
-1.01702e-07
4.75347e-06
3.40898e-15
-8.40621e-08
4.77573e-06
3.3049e-15
-6.73869e-08
4.79304e-06
3.20603e-15
-5.16667e-08
4.80569e-06
3.12798e-15
-3.68871e-08
4.81395e-06
3.04992e-15
-2.30303e-08
4.8181e-06
2.99269e-15
-1.00749e-08
4.81839e-06
2.92678e-15
2.00307e-09
4.81508e-06
2.87127e-15
1.32299e-08
4.80844e-06
2.82791e-15
2.36342e-08
4.7987e-06
2.79669e-15
3.32463e-08
4.78609e-06
2.76721e-15
4.20977e-08
4.77085e-06
2.76201e-15
5.02209e-08
4.75318e-06
2.75681e-15
5.76489e-08
4.7333e-06
2.7707e-15
6.44153e-08
4.7114e-06
2.78632e-15
7.05539e-08
4.68766e-06
2.81061e-15
7.60985e-08
4.66226e-06
2.84531e-15
8.10828e-08
4.63537e-06
2.87827e-15
8.55398e-08
4.60714e-06
2.92338e-15
8.95024e-08
4.57773e-06
2.97543e-15
9.30024e-08
4.54726e-06
3.04308e-15
9.60711e-08
4.51587e-06
3.10554e-15
9.87387e-08
4.48368e-06
3.17319e-15
1.01034e-07
4.45079e-06
3.24952e-15
1.02986e-07
4.41732e-06
3.32065e-15
1.04621e-07
4.38334e-06
3.40219e-15
1.05966e-07
4.34896e-06
3.47851e-15
1.07043e-07
4.31425e-06
3.56352e-15
1.07878e-07
4.27928e-06
3.63638e-15
1.08492e-07
4.24412e-06
3.71964e-15
1.08905e-07
4.20883e-06
3.80118e-15
1.09138e-07
4.17346e-06
3.88097e-15
1.09209e-07
4.13806e-06
3.95557e-15
1.09135e-07
4.10268e-06
4.03536e-15
1.08932e-07
4.06735e-06
4.11169e-15
1.08615e-07
4.03212e-06
4.18455e-15
1.08198e-07
3.997e-06
4.24526e-15
1.07694e-07
3.96203e-06
4.31465e-15
1.07114e-07
3.92722e-06
4.37536e-15
1.06471e-07
3.89261e-06
4.44128e-15
1.05773e-07
3.85819e-06
4.48811e-15
1.05031e-07
3.824e-06
4.54015e-15
1.04252e-07
3.79003e-06
4.58178e-15
1.03444e-07
3.75631e-06
4.62515e-15
1.02615e-07
3.72282e-06
4.66851e-15
1.01772e-07
3.68959e-06
4.70147e-15
1.00919e-07
3.65661e-06
4.73789e-15
1.00062e-07
3.62388e-06
4.76391e-15
9.92065e-08
3.5914e-06
4.78472e-15
9.83567e-08
3.55918e-06
4.80033e-15
9.75165e-08
3.5272e-06
4.81074e-15
9.66896e-08
3.49546e-06
4.81767e-15
9.58794e-08
3.46396e-06
4.83154e-15
9.50889e-08
3.4327e-06
4.83674e-15
9.43207e-08
3.40166e-06
4.85062e-15
9.35775e-08
3.37083e-06
4.85234e-15
9.28613e-08
3.34022e-06
4.85407e-15
9.21744e-08
3.3098e-06
4.84193e-15
9.15186e-08
3.27958e-06
4.83845e-15
9.08956e-08
3.24953e-06
4.83671e-15
9.0307e-08
3.21965e-06
4.83497e-15
8.97543e-08
3.18992e-06
4.82109e-15
8.92389e-08
3.16034e-06
4.81588e-15
8.87619e-08
3.13089e-06
4.80026e-15
8.83245e-08
3.10156e-06
4.78638e-15
8.79279e-08
3.07234e-06
4.77423e-15
8.75731e-08
3.04321e-06
4.76728e-15
8.72609e-08
3.01415e-06
4.75513e-15
8.69924e-08
2.98517e-06
4.74472e-15
8.67683e-08
2.95623e-06
4.72563e-15
8.65894e-08
2.92733e-06
4.71695e-15
8.64566e-08
2.89845e-06
4.6944e-15
8.63705e-08
2.86958e-06
4.68572e-15
8.63319e-08
2.84069e-06
4.67357e-15
8.63413e-08
2.81179e-06
4.67183e-15
8.63993e-08
2.78284e-06
4.66141e-15
8.65067e-08
2.75384e-06
4.65447e-15
8.66638e-08
2.72476e-06
4.64232e-15
8.68711e-08
2.6956e-06
4.63017e-15
8.71293e-08
2.66634e-06
4.6267e-15
8.74386e-08
2.63695e-06
4.62496e-15
8.77994e-08
2.60743e-06
4.62322e-15
8.8212e-08
2.57775e-06
4.62148e-15
8.86768e-08
2.54791e-06
4.62668e-15
8.9194e-08
2.51788e-06
4.62667e-15
8.97637e-08
2.48764e-06
4.6232e-15
9.03861e-08
2.45719e-06
4.63013e-15
9.10611e-08
2.4265e-06
4.63707e-15
9.17889e-08
2.39556e-06
4.6492e-15
9.25691e-08
2.36436e-06
4.64573e-15
9.34018e-08
2.33286e-06
4.66654e-15
9.42867e-08
2.30107e-06
4.67348e-15
9.52233e-08
2.26896e-06
4.68735e-15
9.62112e-08
2.23652e-06
4.70296e-15
9.725e-08
2.20373e-06
4.72204e-15
9.83389e-08
2.17058e-06
4.74979e-15
9.94771e-08
2.13705e-06
4.77754e-15
1.00664e-07
2.10313e-06
4.80009e-15
1.01898e-07
2.06881e-06
4.82957e-15
1.03179e-07
2.03407e-06
4.866e-15
1.04504e-07
1.99889e-06
4.90936e-15
1.05873e-07
1.96327e-06
4.95099e-15
1.07284e-07
1.9272e-06
4.99956e-15