/*--------------------------------*- C++ -*----------------------------------*\
  =========                 |
  \\      /  F ield         | OpenFOAM: The Open Source CFD Toolbox
   \\    /   O peration     | Website:  https://openfoam.org
    \\  /    A nd           | Version:  8
     \\/     M anipulation  |
\*---------------------------------------------------------------------------*/
FoamFile
{
    version     2.0;
    format      ascii;
    class       volVectorField;
    location    "4200";
    object      U;
}
// * * * * * * * * * * * * * * * * * * * * * * * * * * * * * * * * * * * * * //

dimensions      [0 1 -1 0 0 0 0];

internalField   nonuniform List<vector> 
48000
(
(-0.0161755 3.12263e-07 0.0177439)
(-0.0365146 4.10427e-08 0.0181503)
(-0.0510492 3.75249e-08 0.00979863)
(-0.0563372 1.70186e-08 0.00138738)
(-0.0533604 3.84906e-09 -0.00487685)
(-0.0448821 -5.90532e-09 -0.00917976)
(-0.0324747 -1.24691e-08 -0.0120803)
(-0.0175229 -1.68247e-08 -0.0140044)
(-0.000842918 -2.03503e-08 -0.0151713)
(0.0168432 -2.22007e-08 -0.015686)
(0.0348918 -2.15153e-08 -0.0157699)
(0.053122 -1.98629e-08 -0.0156181)
(0.0712226 -1.77574e-08 -0.0153037)
(0.0890267 -1.53931e-08 -0.0148758)
(0.106402 -1.29564e-08 -0.0143684)
(0.12325 -1.05654e-08 -0.0138057)
(0.139501 -8.29238e-09 -0.0132051)
(0.155099 -6.16788e-09 -0.0125798)
(0.170009 -4.21852e-09 -0.0119396)
(0.184202 -2.45953e-09 -0.0112922)
(0.197662 -8.85197e-10 -0.0106436)
(0.21038 5.14001e-10 -0.00999835)
(0.222353 1.76852e-09 -0.00936031)
(0.233583 2.85932e-09 -0.00873248)
(0.244077 3.81496e-09 -0.00811736)
(0.253844 4.63545e-09 -0.00751694)
(0.262899 5.33409e-09 -0.00693288)
(0.271256 5.92994e-09 -0.0063665)
(0.278935 6.4249e-09 -0.00581888)
(0.285954 6.82467e-09 -0.00529087)
(0.292336 7.13116e-09 -0.00478313)
(0.298103 7.3596e-09 -0.00429615)
(0.303278 7.52141e-09 -0.00383025)
(0.307886 7.62421e-09 -0.00338563)
(0.311952 7.65658e-09 -0.00296237)
(0.315501 7.65658e-09 -0.00256043)
(0.318558 7.59566e-09 -0.00217968)
(0.321148 7.5081e-09 -0.00181989)
(0.323298 7.38626e-09 -0.00148077)
(0.32503 7.23207e-09 -0.00116193)
(0.326372 7.06455e-09 -0.000862967)
(0.327346 6.87419e-09 -0.000583394)
(0.327976 6.67621e-09 -0.000322698)
(0.328285 6.4611e-09 -8.00747e-05)
(0.328297 6.24598e-09 0.000145234)
(0.328031 6.03658e-09 0.0003535)
(0.32751 5.82528e-09 0.000545243)
(0.326754 5.61207e-09 0.000721374)
(0.325781 5.42171e-09 0.000882678)
(0.324609 5.22944e-09 0.00102987)
(0.323257 5.04479e-09 0.00116366)
(0.321741 4.87156e-09 0.00128475)
(0.320076 4.72308e-09 0.00139384)
(0.318278 4.58792e-09 0.00149162)
(0.31636 4.46038e-09 0.00157878)
(0.314335 4.34997e-09 0.001656)
(0.312217 4.2624e-09 0.00172394)
(0.310015 4.18626e-09 0.00178323)
(0.307741 4.12724e-09 0.00183449)
(0.305406 4.08727e-09 0.00187833)
(0.303017 4.05301e-09 0.00191531)
(0.300583 4.04349e-09 0.00194598)
(0.298112 4.04159e-09 0.00197088)
(0.295612 4.0492e-09 0.0019905)
(0.293088 4.07205e-09 0.00200532)
(0.290547 4.10822e-09 0.00201577)
(0.287994 4.152e-09 0.00202229)
(0.285434 4.20721e-09 0.00202526)
(0.28287 4.27574e-09 0.00202507)
(0.280308 4.34808e-09 0.00202205)
(0.27775 4.42612e-09 0.00201653)
(0.275199 4.50608e-09 0.00200881)
(0.272658 4.60126e-09 0.00199917)
(0.27013 4.69454e-09 0.00198785)
(0.267617 4.79162e-09 0.00197511)
(0.265119 4.89251e-09 0.00196115)
(0.262639 4.99912e-09 0.00194618)
(0.260178 5.09239e-09 0.00193038)
(0.257737 5.19138e-09 0.00191391)
(0.255317 5.29417e-09 0.00189693)
(0.252918 5.39316e-09 0.00187957)
(0.25054 5.49215e-09 0.00186196)
(0.248184 5.58162e-09 0.00184421)
(0.245851 5.67489e-09 0.00182643)
(0.24354 5.76627e-09 0.00180871)
(0.241251 5.84812e-09 0.00179113)
(0.238983 5.92807e-09 0.00177376)
(0.236737 6.0004e-09 0.00175668)
(0.234513 6.06703e-09 0.00173995)
(0.232309 6.12223e-09 0.00172362)
(0.230125 6.18124e-09 0.00170774)
(0.227961 6.23073e-09 0.00169235)
(0.225816 6.28022e-09 0.00167751)
(0.223689 6.33352e-09 0.00166324)
(0.22158 6.36969e-09 0.00164957)
(0.219488 6.40205e-09 0.00163655)
(0.217412 6.4306e-09 0.00162419)
(0.21535 6.45725e-09 0.00161253)
(0.213303 6.47438e-09 0.00160158)
(0.21127 6.4915e-09 0.00159137)
(0.209249 6.50292e-09 0.00158192)
(0.207239 6.51053e-09 0.00157325)
(0.20524 6.51243e-09 0.00156537)
(0.203251 6.50862e-09 0.00155832)
(0.20127 6.50862e-09 0.00155209)
(0.199296 6.50481e-09 0.00154671)
(0.197329 6.49529e-09 0.00154219)
(0.195367 6.48196e-09 0.00153855)
(0.193409 6.47053e-09 0.00153581)
(0.191454 6.46292e-09 0.00153397)
(0.189502 6.44578e-09 0.00153305)
(0.18755 6.43626e-09 0.00153306)
(0.185598 6.42293e-09 0.00153402)
(0.183644 6.4096e-09 0.00153594)
(0.181687 6.4096e-09 0.00153883)
(0.179727 6.39817e-09 0.0015427)
(0.177762 6.38865e-09 0.00154757)
(0.17579 6.38484e-09 0.00155344)
(0.17381 6.38103e-09 0.00156033)
(0.171822 6.38484e-09 0.00156824)
(0.169824 6.39816e-09 0.00157718)
(0.167814 6.41148e-09 0.00158717)
(0.165792 6.43432e-09 0.00159821)
(0.163756 6.45716e-09 0.0016103)
(0.161704 6.48571e-09 0.00162346)
(0.159637 6.5314e-09 0.00163768)
(0.157551 6.57518e-09 0.00165297)
(0.155447 6.63228e-09 0.00166934)
(0.153322 6.697e-09 0.00168679)
(0.151176 6.75411e-09 0.00170531)
(0.149007 6.84167e-09 0.0017249)
(0.146814 6.92924e-09 0.00174556)
(0.144595 7.02822e-09 0.00176729)
(0.14235 7.13863e-09 0.00179008)
(0.140077 7.26046e-09 0.00181392)
(0.137776 7.39371e-09 0.00183879)
(0.135444 7.53838e-09 0.0018647)
(0.13308 7.69828e-09 0.00189161)
(0.130685 7.85438e-09 0.00191951)
(0.128255 8.03332e-09 0.00194839)
(0.125791 8.22748e-09 0.00197821)
(0.123292 8.44449e-09 0.00200896)
(0.120756 8.65389e-09 0.00204059)
(0.118182 8.88232e-09 0.00207308)
(0.11557 9.12598e-09 0.00210639)
(0.112918 9.37726e-09 0.00214047)
(0.110227 9.64376e-09 0.00217529)
(0.107495 9.9255e-09 0.00221078)
(0.104721 1.02148e-08 0.0022469)
(0.101906 1.05042e-08 0.00228357)
(0.0990482 1.08164e-08 0.00232074)
(0.0961478 1.11286e-08 0.00235833)
(0.0932046 1.14484e-08 0.00239626)
(0.0902183 1.17682e-08 0.00243445)
(0.087189 1.2088e-08 0.00247278)
(0.0841168 1.24078e-08 0.00251117)
(0.081002 1.2739e-08 0.00254949)
(0.0778449 1.30588e-08 0.00258762)
(0.0746463 1.33824e-08 0.00262542)
(0.0714068 1.36984e-08 0.00266274)
(0.0681274 1.40297e-08 0.00269941)
(0.0648095 1.43723e-08 0.00273525)
(0.0614543 1.47416e-08 0.00277005)
(0.0580637 1.51338e-08 0.00280358)
(0.0546396 1.55868e-08 0.00283561)
(0.0511844 1.60932e-08 0.00286584)
(0.0477007 1.66833e-08 0.00289398)
(0.0441916 1.73762e-08 0.00291967)
(0.0406606 1.81339e-08 0.00294252)
(0.0371117 1.90057e-08 0.0029621)
(0.0335494 1.99499e-08 0.00297791)
(0.0299789 2.09398e-08 0.0029894)
(0.026406 2.19182e-08 0.00299592)
(0.0228373 2.28091e-08 0.00299675)
(0.0192801 2.3502e-08 0.00299107)
(0.0157431 2.39018e-08 0.00297792)
(0.0122357 2.3879e-08 0.00295621)
(0.008769 2.3346e-08 0.00292463)
(0.00535452 2.22419e-08 0.00288158)
(0.00201183 2.05324e-08 0.00282504)
(-0.00125624 1.80196e-08 0.00274701)
(-0.00441003 1.51338e-08 0.00264483)
(-0.00743916 1.25677e-08 0.00252138)
(-0.0103155 1.06793e-08 0.00237572)
(-0.0130103 1.0112e-08 0.00220393)
(-0.0154909 1.16578e-08 0.00200019)
(-0.0177174 1.59904e-08 0.0017594)
(-0.0196443 2.35896e-08 0.00147467)
(-0.0212178 3.38539e-08 0.0011377)
(-0.0223746 4.48644e-08 0.000738421)
(-0.0230408 5.29738e-08 0.000264469)
(-0.0231293 5.33165e-08 -0.000296851)
(-0.02254 4.2839e-08 -0.000957309)
(-0.021169 2.42064e-08 -0.0017282)
(-0.018904 7.4698e-09 -0.00261212)
(-0.0156519 5.44436e-09 -0.00357916)
(-0.0113898 1.90971e-08 -0.00451251)
(-0.0064068 2.27369e-08 -0.00504205)
(-0.000808856 -2.68027e-09 -0.003508)
(0.0010777 -8.97877e-08 0.00148579)
(-0.0161765 3.12259e-07 0.017743)
(-0.0365148 4.10425e-08 0.01815)
(-0.0510491 3.75247e-08 0.00979841)
(-0.0563371 1.70185e-08 0.00138718)
(-0.0533602 3.84904e-09 -0.00487704)
(-0.0448819 -5.9053e-09 -0.00917994)
(-0.0324745 -1.24691e-08 -0.0120805)
(-0.0175227 -1.68247e-08 -0.0140045)
(-0.000842731 -2.03502e-08 -0.0151714)
(0.0168434 -2.22006e-08 -0.0156862)
(0.034892 -2.15153e-08 -0.01577)
(0.0531222 -1.98629e-08 -0.0156182)
(0.0712228 -1.77574e-08 -0.0153038)
(0.0890268 -1.5393e-08 -0.0148759)
(0.106402 -1.29564e-08 -0.0143686)
(0.12325 -1.05653e-08 -0.0138058)
(0.139501 -8.29237e-09 -0.0132052)
(0.155099 -6.16787e-09 -0.0125799)
(0.170009 -4.21852e-09 -0.0119397)
(0.184202 -2.45953e-09 -0.0112924)
(0.197662 -8.85195e-10 -0.0106437)
(0.21038 5.14e-10 -0.00999846)
(0.222353 1.76852e-09 -0.00936041)
(0.233583 2.85932e-09 -0.00873258)
(0.244077 3.81496e-09 -0.00811745)
(0.253844 4.63544e-09 -0.00751704)
(0.262899 5.33409e-09 -0.00693297)
(0.271256 5.92994e-09 -0.00636659)
(0.278935 6.42489e-09 -0.00581897)
(0.285954 6.82466e-09 -0.00529096)
(0.292336 7.13115e-09 -0.00478322)
(0.298103 7.35959e-09 -0.00429623)
(0.303278 7.52141e-09 -0.00383033)
(0.307886 7.62421e-09 -0.00338571)
(0.311952 7.65657e-09 -0.00296244)
(0.315501 7.65657e-09 -0.0025605)
(0.318558 7.59566e-09 -0.00217975)
(0.321148 7.50809e-09 -0.00181997)
(0.323297 7.38626e-09 -0.00148084)
(0.32503 7.23207e-09 -0.00116201)
(0.326372 7.06455e-09 -0.000863037)
(0.327345 6.87418e-09 -0.000583463)
(0.327976 6.6762e-09 -0.000322766)
(0.328285 6.46109e-09 -8.01424e-05)
(0.328297 6.24598e-09 0.000145167)
(0.328031 6.03658e-09 0.000353434)
(0.32751 5.82528e-09 0.000545177)
(0.326754 5.61207e-09 0.00072131)
(0.325781 5.42171e-09 0.000882614)
(0.324609 5.22944e-09 0.00102981)
(0.323257 5.04479e-09 0.0011636)
(0.321741 4.87156e-09 0.00128469)
(0.320076 4.72307e-09 0.00139378)
(0.318278 4.58792e-09 0.00149156)
(0.31636 4.46037e-09 0.00157872)
(0.314335 4.34996e-09 0.00165594)
(0.312216 4.2624e-09 0.00172388)
(0.310015 4.18625e-09 0.00178317)
(0.307741 4.12724e-09 0.00183443)
(0.305405 4.08727e-09 0.00187827)
(0.303016 4.053e-09 0.00191525)
(0.300583 4.04349e-09 0.00194593)
(0.298112 4.04158e-09 0.00197082)
(0.295612 4.0492e-09 0.00199044)
(0.293088 4.07204e-09 0.00200526)
(0.290547 4.10821e-09 0.00201571)
(0.287994 4.152e-09 0.00202223)
(0.285434 4.2072e-09 0.00202521)
(0.28287 4.27573e-09 0.00202501)
(0.280308 4.34807e-09 0.00202199)
(0.27775 4.42612e-09 0.00201647)
(0.275199 4.50607e-09 0.00200875)
(0.272658 4.60126e-09 0.00199911)
(0.27013 4.69453e-09 0.00198779)
(0.267617 4.79162e-09 0.00197505)
(0.265119 4.89251e-09 0.00196109)
(0.262639 4.99911e-09 0.00194612)
(0.260178 5.09239e-09 0.00193032)
(0.257737 5.19138e-09 0.00191385)
(0.255317 5.29417e-09 0.00189687)
(0.252917 5.39316e-09 0.00187951)
(0.25054 5.49215e-09 0.0018619)
(0.248184 5.58161e-09 0.00184415)
(0.245851 5.67489e-09 0.00182637)
(0.24354 5.76626e-09 0.00180865)
(0.241251 5.84812e-09 0.00179107)
(0.238983 5.92807e-09 0.0017737)
(0.236737 6.0004e-09 0.00175662)
(0.234513 6.06703e-09 0.00173989)
(0.232309 6.12223e-09 0.00172356)
(0.230125 6.18124e-09 0.00170768)
(0.227961 6.23073e-09 0.00169229)
(0.225816 6.28022e-09 0.00167745)
(0.223689 6.33352e-09 0.00166318)
(0.22158 6.36969e-09 0.00164951)
(0.219488 6.40204e-09 0.00163649)
(0.217412 6.43059e-09 0.00162413)
(0.21535 6.45724e-09 0.00161247)
(0.213303 6.47437e-09 0.00160152)
(0.21127 6.4915e-09 0.00159131)
(0.209249 6.50292e-09 0.00158186)
(0.207239 6.51053e-09 0.00157319)
(0.20524 6.51243e-09 0.00156531)
(0.203251 6.50862e-09 0.00155825)
(0.20127 6.50862e-09 0.00155203)
(0.199296 6.50481e-09 0.00154665)
(0.197329 6.49529e-09 0.00154213)
(0.195367 6.48196e-09 0.00153849)
(0.193409 6.47053e-09 0.00153575)
(0.191454 6.46291e-09 0.00153391)
(0.189502 6.44578e-09 0.00153299)
(0.18755 6.43626e-09 0.001533)
(0.185598 6.42293e-09 0.00153396)
(0.183644 6.4096e-09 0.00153588)
(0.181687 6.4096e-09 0.00153877)
(0.179727 6.39817e-09 0.00154264)
(0.177762 6.38865e-09 0.00154751)
(0.17579 6.38484e-09 0.00155338)
(0.17381 6.38103e-09 0.00156027)
(0.171822 6.38483e-09 0.00156818)
(0.169824 6.39816e-09 0.00157712)
(0.167814 6.41148e-09 0.00158711)
(0.165792 6.43432e-09 0.00159814)
(0.163756 6.45716e-09 0.00161024)
(0.161704 6.48571e-09 0.00162339)
(0.159637 6.53139e-09 0.00163762)
(0.157551 6.57517e-09 0.00165291)
(0.155447 6.63228e-09 0.00166928)
(0.153322 6.697e-09 0.00168672)
(0.151176 6.75411e-09 0.00170524)
(0.149007 6.84167e-09 0.00172484)
(0.146814 6.92923e-09 0.0017455)
(0.144595 7.02822e-09 0.00176723)
(0.14235 7.13863e-09 0.00179002)
(0.140077 7.26046e-09 0.00181385)
(0.137776 7.39371e-09 0.00183873)
(0.135444 7.53838e-09 0.00186463)
(0.13308 7.69828e-09 0.00189154)
(0.130685 7.85437e-09 0.00191945)
(0.128255 8.03331e-09 0.00194833)
(0.125791 8.22748e-09 0.00197815)
(0.123292 8.44449e-09 0.00200889)
(0.120756 8.65388e-09 0.00204053)
(0.118182 8.88232e-09 0.00207302)
(0.11557 9.12598e-09 0.00210632)
(0.112918 9.37725e-09 0.00214041)
(0.110227 9.64376e-09 0.00217522)
(0.107495 9.92549e-09 0.00221071)
(0.104721 1.02148e-08 0.00224683)
(0.101906 1.05042e-08 0.0022835)
(0.0990482 1.08164e-08 0.00232067)
(0.0961478 1.11286e-08 0.00235826)
(0.0932046 1.14484e-08 0.00239619)
(0.0902183 1.17682e-08 0.00243437)
(0.087189 1.2088e-08 0.00247271)
(0.0841168 1.24078e-08 0.00251109)
(0.081002 1.2739e-08 0.00254941)
(0.0778449 1.30588e-08 0.00258754)
(0.0746463 1.33824e-08 0.00262534)
(0.0714068 1.36984e-08 0.00266266)
(0.0681274 1.40297e-08 0.00269933)
(0.0648095 1.43723e-08 0.00273516)
(0.0614543 1.47416e-08 0.00276996)
(0.0580637 1.51338e-08 0.00280349)
(0.0546396 1.55868e-08 0.00283552)
(0.0511844 1.60932e-08 0.00286575)
(0.0477007 1.66833e-08 0.00289388)
(0.0441916 1.73762e-08 0.00291957)
(0.0406606 1.81338e-08 0.00294242)
(0.0371117 1.90057e-08 0.002962)
(0.0335495 1.99499e-08 0.0029778)
(0.029979 2.09398e-08 0.00298929)
(0.026406 2.19182e-08 0.0029958)
(0.0228373 2.28091e-08 0.00299663)
(0.0192801 2.3502e-08 0.00299095)
(0.0157431 2.39018e-08 0.0029778)
(0.0122357 2.38789e-08 0.00295608)
(0.00876902 2.33459e-08 0.0029245)
(0.00535454 2.22418e-08 0.00288144)
(0.00201186 2.05324e-08 0.00282491)
(-0.00125622 1.80196e-08 0.00274687)
(-0.00441 1.51337e-08 0.00264469)
(-0.00743914 1.25677e-08 0.00252124)
(-0.0103155 1.06793e-08 0.00237557)
(-0.0130103 1.0112e-08 0.00220378)
(-0.0154908 1.16577e-08 0.00200004)
(-0.0177173 1.59904e-08 0.00175924)
(-0.0196443 2.35896e-08 0.00147451)
(-0.0212178 3.38539e-08 0.00113753)
(-0.0223746 4.48644e-08 0.000738248)
(-0.0230408 5.29738e-08 0.000264289)
(-0.0231293 5.33164e-08 -0.000297041)
(-0.02254 4.28389e-08 -0.000957508)
(-0.021169 2.42064e-08 -0.00172842)
(-0.018904 7.46979e-09 -0.00261234)
(-0.0156519 5.44434e-09 -0.0035794)
(-0.0113899 1.9097e-08 -0.00451277)
(-0.00640698 2.27366e-08 -0.00504237)
(-0.000809164 -2.68032e-09 -0.00350848)
(0.00107742 -8.97917e-08 0.00148494)
(-0.0149362 3.15236e-08 0.0411962)
(-0.0221131 3.23975e-09 0.0278703)
(-0.0228879 4.68859e-09 0.0131144)
(-0.0198829 3.05434e-10 -0.000234774)
(-0.0133809 -1.30219e-09 -0.0106957)
(-0.00415095 -2.59953e-09 -0.0182835)
(0.00731752 -3.61037e-09 -0.0235802)
(0.0204106 -4.3347e-09 -0.0271334)
(0.0346841 -4.84773e-09 -0.029391)
(0.0497438 -5.0657e-09 -0.0306565)
(0.0652701 -5.01715e-09 -0.0312092)
(0.0810151 -4.87817e-09 -0.0312648)
(0.0967687 -4.66591e-09 -0.0309525)
(0.112373 -4.41176e-09 -0.0303689)
(0.127704 -4.1362e-09 -0.0295826)
(0.142663 -3.85684e-09 -0.0286445)
(0.157174 -3.58651e-09 -0.0275932)
(0.171179 -3.32856e-09 -0.0264587)
(0.184632 -3.08441e-09 -0.0252642)
(0.197501 -2.85692e-09 -0.0240286)
(0.209759 -2.64799e-09 -0.022767)
(0.221392 -2.45762e-09 -0.0214918)
(0.232387 -2.28343e-09 -0.0202133)
(0.242742 -2.124e-09 -0.0189401)
(0.252454 -1.98027e-09 -0.0176794)
(0.261529 -1.85224e-09 -0.0164371)
(0.269973 -1.73707e-09 -0.0152186)
(0.277796 -1.63475e-09 -0.014028)
(0.28501 -1.54432e-09 -0.012869)
(0.291631 -1.46579e-09 -0.0117446)
(0.297674 -1.39963e-09 -0.0106572)
(0.303157 -1.34252e-09 -0.00960897)
(0.308099 -1.29445e-09 -0.00860136)
(0.31252 -1.25495e-09 -0.00763559)
(0.31644 -1.22258e-09 -0.0067125)
(0.319881 -1.19736e-09 -0.00583262)
(0.322865 -1.17737e-09 -0.0049962)
(0.325413 -1.16309e-09 -0.00420323)
(0.327547 -1.15261e-09 -0.00345347)
(0.329289 -1.1469e-09 -0.00274647)
(0.330661 -1.14357e-09 -0.00208161)
(0.331685 -1.14261e-09 -0.00145811)
(0.332381 -1.14118e-09 -0.000875036)
(0.33277 -1.1407e-09 -0.000331335)
(0.332872 -1.14261e-09 0.00017416)
(0.332708 -1.14784e-09 0.00064279)
(0.332295 -1.15212e-09 0.00107595)
(0.331653 -1.15402e-09 0.00147503)
(0.330799 -1.15545e-09 0.00184146)
(0.329751 -1.15497e-09 0.00217671)
(0.328524 -1.15401e-09 0.00248226)
(0.327133 -1.15163e-09 0.00275962)
(0.325595 -1.1483e-09 0.00301028)
(0.323922 -1.14306e-09 0.00323576)
(0.322127 -1.13687e-09 0.00343753)
(0.320224 -1.12783e-09 0.00361706)
(0.318224 -1.12021e-09 0.00377577)
(0.316138 -1.10879e-09 0.00391507)
(0.313975 -1.09641e-09 0.0040363)
(0.311746 -1.08404e-09 0.00414078)
(0.30946 -1.07023e-09 0.00422978)
(0.307125 -1.05453e-09 0.00430451)
(0.304747 -1.03882e-09 0.00436612)
(0.302335 -1.02407e-09 0.00441573)
(0.299894 -1.00789e-09 0.00445438)
(0.297431 -9.91703e-10 0.00448306)
(0.294951 -9.75521e-10 0.00450272)
(0.292458 -9.58863e-10 0.00451425)
(0.289958 -9.42682e-10 0.00451846)
(0.287453 -9.27928e-10 0.00451613)
(0.284948 -9.12698e-10 0.00450799)
(0.282446 -8.97468e-10 0.00449471)
(0.279949 -8.82715e-10 0.00447692)
(0.27746 -8.68913e-10 0.0044552)
(0.274982 -8.56063e-10 0.00443007)
(0.272515 -8.43213e-10 0.00440203)
(0.270062 -8.31792e-10 0.00437154)
(0.267624 -8.22273e-10 0.00433901)
(0.265202 -8.13231e-10 0.00430481)
(0.262797 -8.04665e-10 0.0042693)
(0.26041 -7.97051e-10 0.00423279)
(0.258042 -7.9134e-10 0.00419557)
(0.255693 -7.87057e-10 0.0041579)
(0.253362 -7.82299e-10 0.00412001)
(0.251052 -7.78492e-10 0.00408213)
(0.24876 -7.77065e-10 0.00404445)
(0.246488 -7.75162e-10 0.00400714)
(0.244235 -7.7659e-10 0.00397035)
(0.242001 -7.77067e-10 0.00393425)
(0.239786 -7.80399e-10 0.00389894)
(0.237589 -7.82303e-10 0.00386456)
(0.23541 -7.84684e-10 0.00383121)
(0.233247 -7.88492e-10 0.00379898)
(0.231102 -7.91348e-10 0.00376797)
(0.228972 -7.96584e-10 0.00373824)
(0.226858 -8.00392e-10 0.00370988)
(0.224758 -8.05628e-10 0.00368295)
(0.222672 -8.10864e-10 0.00365751)
(0.220599 -8.17528e-10 0.00363361)
(0.218539 -8.23716e-10 0.00361131)
(0.216489 -8.29428e-10 0.00359066)
(0.21445 -8.3514e-10 0.0035717)
(0.212421 -8.4228e-10 0.00355447)
(0.2104 -8.48468e-10 0.00353901)
(0.208386 -8.5418e-10 0.00352536)
(0.206379 -8.60368e-10 0.00351356)
(0.204378 -8.6608e-10 0.00350363)
(0.202381 -8.70841e-10 0.00349561)
(0.200388 -8.77029e-10 0.00348954)
(0.198398 -8.82741e-10 0.00348543)
(0.196408 -8.87501e-10 0.00348332)
(0.194419 -8.92261e-10 0.00348324)
(0.19243 -8.94166e-10 0.0034852)
(0.190438 -8.99403e-10 0.00348924)
(0.188443 -9.00832e-10 0.00349537)
(0.186444 -9.05116e-10 0.00350363)
(0.18444 -9.07497e-10 0.00351402)
(0.182429 -9.09402e-10 0.00352658)
(0.18041 -9.10831e-10 0.0035413)
(0.178383 -9.12259e-10 0.00355822)
(0.176345 -9.12261e-10 0.00357735)
(0.174296 -9.1369e-10 0.00359869)
(0.172235 -9.13691e-10 0.00362227)
(0.17016 -9.14644e-10 0.00364807)
(0.16807 -9.13693e-10 0.00367612)
(0.165964 -9.11791e-10 0.00370642)
(0.163841 -9.11792e-10 0.00373895)
(0.161699 -9.10841e-10 0.00377373)
(0.159538 -9.08939e-10 0.00381074)
(0.157355 -9.0894e-10 0.00384998)
(0.155151 -9.07989e-10 0.00389142)
(0.152923 -9.08466e-10 0.00393506)
(0.150671 -9.05136e-10 0.00398087)
(0.148394 -9.02757e-10 0.00402883)
(0.14609 -9.0133e-10 0.00407889)
(0.143758 -8.99428e-10 0.00413104)
(0.141398 -8.98001e-10 0.00418522)
(0.139008 -8.9705e-10 0.00424138)
(0.136587 -8.96575e-10 0.00429948)
(0.134134 -8.961e-10 0.00435945)
(0.131648 -8.93721e-10 0.00442123)
(0.129129 -8.93246e-10 0.00448473)
(0.126576 -8.96103e-10 0.00454989)
(0.123987 -8.96579e-10 0.00461659)
(0.121362 -8.96104e-10 0.00468476)
(0.118701 -8.98484e-10 0.00475427)
(0.116002 -9.01817e-10 0.00482501)
(0.113266 -9.05625e-10 0.00489684)
(0.110492 -9.09432e-10 0.00496964)
(0.107679 -9.16096e-10 0.00504323)
(0.104827 -9.22759e-10 0.00511747)
(0.101936 -9.3085e-10 0.00519216)
(0.0990065 -9.40369e-10 0.00526711)
(0.0960377 -9.49887e-10 0.00534212)
(0.0930302 -9.65117e-10 0.00541695)
(0.0899843 -9.79395e-10 0.00549135)
(0.0869003 -9.95576e-10 0.00556506)
(0.0837791 -1.01461e-09 0.00563778)
(0.0806212 -1.0346e-09 0.0057092)
(0.0774278 -1.05459e-09 0.00577897)
(0.0741999 -1.07601e-09 0.00584672)
(0.0709391 -1.09504e-09 0.00591203)
(0.0676469 -1.1136e-09 0.00597446)
(0.0643253 -1.12788e-09 0.00603352)
(0.0609763 -1.1374e-09 0.00608867)
(0.0576025 -1.14311e-09 0.00613932)
(0.0542067 -1.14406e-09 0.0061848)
(0.0507921 -1.1355e-09 0.0062244)
(0.0473622 -1.12979e-09 0.0062573)
(0.043921 -1.11836e-09 0.00628262)
(0.0404731 -1.1117e-09 0.00629935)
(0.0370235 -1.11836e-09 0.00630636)
(0.0335779 -1.14121e-09 0.00630239)
(0.0301425 -1.19546e-09 0.00628602)
(0.0267246 -1.28874e-09 0.00625562)
(0.0233319 -1.43627e-09 0.00620936)
(0.0199735 -1.63425e-09 0.00614512)
(0.0166593 -1.89599e-09 0.00606043)
(0.0134004 -2.20438e-09 0.00595223)
(0.01021 -2.5556e-09 0.00581733)
(0.0071012 -2.90015e-09 0.00564958)
(0.0040907 -3.17427e-09 0.00544436)
(0.00119556 -3.35321e-09 0.00519894)
(-0.00156516 -3.3751e-09 0.00490742)
(-0.0041655 -3.1381e-09 0.00456338)
(-0.00658213 -2.54893e-09 0.00415872)
(-0.0087864 -1.51527e-09 0.00368393)
(-0.010747 -2.28367e-11 0.00312745)
(-0.0124291 1.71992e-09 0.00247605)
(-0.0137944 3.18761e-09 0.00171467)
(-0.0148016 3.45507e-09 0.00082656)
(-0.0154086 1.5229e-09 -0.000204277)
(-0.0155716 -2.86398e-09 -0.00138884)
(-0.0152527 -8.0599e-09 -0.00272967)
(-0.0144263 -1.01234e-08 -0.00420502)
(-0.01309 -5.1626e-09 -0.00573127)
(-0.011282 4.33836e-09 -0.00708673)
(-0.00905073 4.31362e-09 -0.00776722)
(-0.00635058 -7.38603e-09 -0.00650975)
(-0.00374226 -1.57984e-07 -0.00133172)
(-0.0149365 3.15235e-08 0.0411958)
(-0.0221132 3.23973e-09 0.0278701)
(-0.0228878 4.68855e-09 0.0131142)
(-0.0198828 3.05432e-10 -0.000234888)
(-0.0133808 -1.30218e-09 -0.0106958)
(-0.00415085 -2.59951e-09 -0.0182836)
(0.00731762 -3.61035e-09 -0.0235802)
(0.0204107 -4.33468e-09 -0.0271335)
(0.0346842 -4.84771e-09 -0.0293911)
(0.0497439 -5.06567e-09 -0.0306566)
(0.0652701 -5.01713e-09 -0.0312093)
(0.0810151 -4.87815e-09 -0.0312648)
(0.0967687 -4.66589e-09 -0.0309525)
(0.112373 -4.41175e-09 -0.0303689)
(0.127704 -4.13619e-09 -0.0295826)
(0.142663 -3.85683e-09 -0.0286445)
(0.157174 -3.5865e-09 -0.0275933)
(0.171179 -3.32855e-09 -0.0264587)
(0.184632 -3.08441e-09 -0.0252642)
(0.197501 -2.85691e-09 -0.0240286)
(0.209759 -2.64798e-09 -0.022767)
(0.221392 -2.45762e-09 -0.0214918)
(0.232387 -2.28343e-09 -0.0202133)
(0.242742 -2.12399e-09 -0.0189401)
(0.252454 -1.98026e-09 -0.0176794)
(0.261529 -1.85224e-09 -0.0164372)
(0.269973 -1.73707e-09 -0.0152186)
(0.277796 -1.63474e-09 -0.014028)
(0.28501 -1.54432e-09 -0.012869)
(0.291631 -1.46579e-09 -0.0117446)
(0.297674 -1.39963e-09 -0.0106572)
(0.303157 -1.34252e-09 -0.00960898)
(0.308099 -1.29445e-09 -0.00860137)
(0.31252 -1.25495e-09 -0.0076356)
(0.31644 -1.22258e-09 -0.00671251)
(0.319881 -1.19736e-09 -0.00583263)
(0.322865 -1.17737e-09 -0.00499621)
(0.325413 -1.16309e-09 -0.00420324)
(0.327547 -1.15261e-09 -0.00345348)
(0.329289 -1.1469e-09 -0.00274649)
(0.330661 -1.14357e-09 -0.00208163)
(0.331685 -1.14261e-09 -0.00145812)
(0.332381 -1.14118e-09 -0.000875049)
(0.33277 -1.1407e-09 -0.000331348)
(0.332872 -1.1426e-09 0.000174146)
(0.332708 -1.14784e-09 0.000642776)
(0.332295 -1.15212e-09 0.00107594)
(0.331653 -1.15402e-09 0.00147502)
(0.330799 -1.15544e-09 0.00184145)
(0.329751 -1.15497e-09 0.00217669)
(0.328524 -1.15401e-09 0.00248224)
(0.327133 -1.15163e-09 0.0027596)
(0.325595 -1.1483e-09 0.00301027)
(0.323922 -1.14306e-09 0.00323575)
(0.322127 -1.13687e-09 0.00343752)
(0.320224 -1.12783e-09 0.00361704)
(0.318224 -1.12021e-09 0.00377576)
(0.316137 -1.10879e-09 0.00391505)
(0.313975 -1.09641e-09 0.00403628)
(0.311746 -1.08404e-09 0.00414077)
(0.30946 -1.07023e-09 0.00422977)
(0.307124 -1.05453e-09 0.00430449)
(0.304747 -1.03882e-09 0.0043661)
(0.302335 -1.02407e-09 0.00441571)
(0.299894 -1.00788e-09 0.00445436)
(0.297431 -9.91702e-10 0.00448304)
(0.294951 -9.7552e-10 0.00450271)
(0.292458 -9.58862e-10 0.00451423)
(0.289958 -9.42681e-10 0.00451844)
(0.287453 -9.27927e-10 0.00451611)
(0.284948 -9.12697e-10 0.00450797)
(0.282446 -8.97467e-10 0.0044947)
(0.279949 -8.82714e-10 0.00447691)
(0.27746 -8.68912e-10 0.00445518)
(0.274981 -8.56062e-10 0.00443005)
(0.272515 -8.43213e-10 0.00440202)
(0.270062 -8.31791e-10 0.00437152)
(0.267624 -8.22273e-10 0.00433899)
(0.265202 -8.1323e-10 0.00430479)
(0.262797 -8.04664e-10 0.00426928)
(0.26041 -7.9705e-10 0.00423277)
(0.258042 -7.91339e-10 0.00419555)
(0.255693 -7.87056e-10 0.00415788)
(0.253362 -7.82298e-10 0.00412)
(0.251052 -7.78491e-10 0.00408212)
(0.24876 -7.77064e-10 0.00404443)
(0.246488 -7.75161e-10 0.00400712)
(0.244235 -7.76589e-10 0.00397034)
(0.242001 -7.77066e-10 0.00393423)
(0.239786 -7.80398e-10 0.00389893)
(0.237589 -7.82302e-10 0.00386455)
(0.23541 -7.84683e-10 0.0038312)
(0.233247 -7.88491e-10 0.00379897)
(0.231102 -7.91347e-10 0.00376795)
(0.228972 -7.96583e-10 0.00373823)
(0.226858 -8.00392e-10 0.00370987)
(0.224758 -8.05628e-10 0.00368293)
(0.222672 -8.10864e-10 0.00365749)
(0.220599 -8.17528e-10 0.0036336)
(0.218539 -8.23715e-10 0.0036113)
(0.216489 -8.29427e-10 0.00359065)
(0.21445 -8.3514e-10 0.00357168)
(0.21242 -8.42279e-10 0.00355445)
(0.210399 -8.48467e-10 0.003539)
(0.208386 -8.54179e-10 0.00352535)
(0.206379 -8.60367e-10 0.00351354)
(0.204378 -8.6608e-10 0.00350362)
(0.202381 -8.7084e-10 0.0034956)
(0.200388 -8.77028e-10 0.00348952)
(0.198398 -8.8274e-10 0.00348542)
(0.196408 -8.875e-10 0.00348331)
(0.194419 -8.92261e-10 0.00348322)
(0.19243 -8.94166e-10 0.00348518)
(0.190438 -8.99402e-10 0.00348922)
(0.188443 -9.00831e-10 0.00349536)
(0.186444 -9.05115e-10 0.00350361)
(0.18444 -9.07496e-10 0.00351401)
(0.182429 -9.09401e-10 0.00352656)
(0.18041 -9.1083e-10 0.00354129)
(0.178383 -9.12259e-10 0.00355821)
(0.176345 -9.1226e-10 0.00357733)
(0.174296 -9.13689e-10 0.00359868)
(0.172235 -9.1369e-10 0.00362225)
(0.17016 -9.14643e-10 0.00364806)
(0.16807 -9.13692e-10 0.00367611)
(0.165964 -9.1179e-10 0.0037064)
(0.163841 -9.11791e-10 0.00373894)
(0.161699 -9.1084e-10 0.00377371)
(0.159537 -9.08938e-10 0.00381072)
(0.157355 -9.08939e-10 0.00384996)
(0.155151 -9.07988e-10 0.00389141)
(0.152923 -9.08465e-10 0.00393505)
(0.150671 -9.05135e-10 0.00398086)
(0.148394 -9.02756e-10 0.00402881)
(0.14609 -9.0133e-10 0.00407888)
(0.143758 -8.99427e-10 0.00413102)
(0.141398 -8.98e-10 0.0041852)
(0.139008 -8.97049e-10 0.00424137)
(0.136587 -8.96574e-10 0.00429947)
(0.134134 -8.96099e-10 0.00435944)
(0.131648 -8.93721e-10 0.00442121)
(0.129129 -8.93246e-10 0.00448472)
(0.126576 -8.96102e-10 0.00454987)
(0.123987 -8.96579e-10 0.00461658)
(0.121362 -8.96103e-10 0.00468474)
(0.118701 -8.98484e-10 0.00475425)
(0.116002 -9.01816e-10 0.00482499)
(0.113266 -9.05624e-10 0.00489683)
(0.110492 -9.09432e-10 0.00496962)
(0.107679 -9.16095e-10 0.00504322)
(0.104827 -9.22758e-10 0.00511745)
(0.101936 -9.30849e-10 0.00519214)
(0.0990065 -9.40368e-10 0.0052671)
(0.0960377 -9.49887e-10 0.0053421)
(0.0930302 -9.65116e-10 0.00541693)
(0.0899843 -9.79394e-10 0.00549133)
(0.0869004 -9.95575e-10 0.00556504)
(0.0837791 -1.01461e-09 0.00563776)
(0.0806212 -1.0346e-09 0.00570918)
(0.0774278 -1.05459e-09 0.00577895)
(0.0741999 -1.076e-09 0.0058467)
(0.0709391 -1.09504e-09 0.00591201)
(0.0676469 -1.1136e-09 0.00597444)
(0.0643253 -1.12788e-09 0.0060335)
(0.0609763 -1.1374e-09 0.00608865)
(0.0576025 -1.14311e-09 0.0061393)
(0.0542067 -1.14406e-09 0.00618478)
(0.0507921 -1.1355e-09 0.00622438)
(0.0473622 -1.12978e-09 0.00625728)
(0.043921 -1.11836e-09 0.0062826)
(0.0404731 -1.1117e-09 0.00629932)
(0.0370235 -1.11836e-09 0.00630633)
(0.0335779 -1.14121e-09 0.00630236)
(0.0301426 -1.19546e-09 0.00628599)
(0.0267246 -1.28874e-09 0.0062556)
(0.023332 -1.43627e-09 0.00620934)
(0.0199735 -1.63424e-09 0.00614509)
(0.0166593 -1.89599e-09 0.00606041)
(0.0134005 -2.20438e-09 0.0059522)
(0.01021 -2.55559e-09 0.0058173)
(0.00710121 -2.90015e-09 0.00564956)
(0.00409071 -3.17427e-09 0.00544433)
(0.00119557 -3.35321e-09 0.00519892)
(-0.00156514 -3.3751e-09 0.00490739)
(-0.00416549 -3.1381e-09 0.00456335)
(-0.00658212 -2.54893e-09 0.00415869)
(-0.00878639 -1.51527e-09 0.0036839)
(-0.010747 -2.28367e-11 0.00312742)
(-0.0124291 1.71992e-09 0.00247601)
(-0.0137944 3.18761e-09 0.00171463)
(-0.0148016 3.45506e-09 0.000826522)
(-0.0154086 1.5229e-09 -0.000204317)
(-0.0155716 -2.86398e-09 -0.00138888)
(-0.0152527 -8.05989e-09 -0.00272972)
(-0.0144263 -1.01234e-08 -0.00420507)
(-0.01309 -5.16259e-09 -0.00573133)
(-0.011282 4.33832e-09 -0.0070868)
(-0.00905081 4.31356e-09 -0.00776732)
(-0.00635077 -7.38604e-09 -0.00650992)
(-0.00374268 -1.57986e-07 -0.00133208)
(-0.00668536 4.87632e-08 0.0555131)
(-0.00743011 3.50439e-09 0.0282423)
(-0.00268345 5.73088e-09 0.00791449)
(0.00406939 3.7454e-09 -0.00823418)
(0.0124396 3.52698e-09 -0.0207396)
(0.0221453 3.30711e-09 -0.0300937)
(0.0330576 3.06773e-09 -0.0368638)
(0.0449819 2.83073e-09 -0.0415824)
(0.0577071 2.56137e-09 -0.044705)
(0.0710241 2.28439e-09 -0.0465869)
(0.0847426 2.04262e-09 -0.0475215)
(0.0986819 1.82085e-09 -0.0477392)
(0.112681 1.63524e-09 -0.0474086)
(0.126608 1.48271e-09 -0.0466579)
(0.14035 1.35707e-09 -0.045584)
(0.153818 1.25166e-09 -0.0442614)
(0.166937 1.16433e-09 -0.0427484)
(0.179648 1.08961e-09 -0.0410909)
(0.191905 1.02822e-09 -0.0393258)
(0.203669 9.73017e-10 -0.0374832)
(0.214913 9.25189e-10 -0.0355875)
(0.225616 8.82834e-10 -0.0336593)
(0.235763 8.45714e-10 -0.0317155)
(0.245346 8.09783e-10 -0.0297706)
(0.254359 7.79088e-10 -0.0278368)
(0.262803 7.49107e-10 -0.0259243)
(0.270681 7.23171e-10 -0.024042)
(0.277998 6.98663e-10 -0.0221973)
(0.284763 6.75106e-10 -0.0203966)
(0.290987 6.53453e-10 -0.0186452)
(0.296683 6.33228e-10 -0.0169475)
(0.301864 6.12765e-10 -0.0153072)
(0.306548 5.94206e-10 -0.0137272)
(0.310749 5.76122e-10 -0.0122098)
(0.314487 5.58276e-10 -0.0107567)
(0.317779 5.42572e-10 -0.00936904)
(0.320645 5.26155e-10 -0.00804757)
(0.323103 5.11164e-10 -0.00679256)
(0.325172 4.96888e-10 -0.00560389)
(0.326874 4.8285e-10 -0.00448112)
(0.328226 4.69525e-10 -0.00342346)
(0.329249 4.59056e-10 -0.00242988)