/*--------------------------------*- C++ -*----------------------------------*\
  =========                 |
  \\      /  F ield         | OpenFOAM: The Open Source CFD Toolbox
   \\    /   O peration     | Website:  https://openfoam.org
    \\  /    A nd           | Version:  8
     \\/     M anipulation  |
\*---------------------------------------------------------------------------*/
FoamFile
{
    version     2.0;
    format      ascii;
    class       volScalarField;
    location    "4000";
    object      alphat;
}
// * * * * * * * * * * * * * * * * * * * * * * * * * * * * * * * * * * * * * //

dimensions      [1 -1 -1 0 0 0 0];

internalField   nonuniform List<scalar> 
48000
(
5.28948e-05
9.18719e-05
0.000113754
0.000129859
0.000143329
0.000154697
0.000164566
0.000173326
0.000181352
0.000188797
0.00019569
0.000202137
0.000208194
0.000213907
0.000219313
0.00022444
0.000229311
0.000233946
0.000238359
0.000242564
0.000246572
0.000250392
0.000254031
0.000257498
0.000260798
0.000263938
0.000266922
0.000269755
0.000272442
0.000274988
0.000277397
0.000279672
0.000281818
0.000283839
0.000285738
0.000287519
0.000289186
0.000290743
0.000292193
0.000293539
0.000294786
0.000295936
0.000296993
0.00029796
0.000298855
0.000299674
0.000300414
0.000301077
0.000301666
0.000302184
0.000302634
0.00030302
0.000303345
0.000303611
0.000303821
0.000303978
0.000304085
0.000304145
0.000304159
0.000304129
0.000304059
0.000303951
0.000303805
0.000303625
0.000303412
0.000303168
0.000302895
0.000302593
0.000302265
0.000301913
0.000301536
0.000301137
0.000300717
0.000300277
0.000299818
0.000299341
0.000298846
0.000298335
0.000297809
0.000297267
0.000296711
0.000296142
0.000295559
0.000294963
0.000294356
0.000293736
0.000293105
0.000292463
0.00029181
0.000291146
0.000290471
0.000289787
0.000289092
0.000288387
0.000287672
0.000286947
0.000286212
0.000285467
0.000284711
0.000283946
0.00028317
0.000282384
0.000281588
0.000280781
0.000279963
0.000279134
0.000278294
0.000277443
0.00027658
0.000275705
0.000274818
0.000273919
0.000273006
0.000272081
0.000271143
0.000270191
0.000269225
0.000268245
0.00026725
0.000266241
0.000265216
0.000264176
0.000263119
0.000262047
0.000260957
0.000259851
0.000258727
0.000257586
0.000256426
0.000255248
0.000254051
0.000252834
0.000251598
0.000250342
0.000249065
0.000247768
0.000246449
0.000245109
0.000243747
0.000242363
0.000240956
0.000239526
0.000238073
0.000236596
0.000235095
0.00023357
0.000232019
0.000230444
0.000228843
0.000227216
0.000225562
0.000223882
0.000222175
0.00022044
0.000218677
0.000216886
0.000215066
0.000213217
0.000211338
0.000209428
0.000207488
0.000205516
0.000203512
0.000201475
0.000199404
0.000197299
0.000195158
0.000192981
0.000190766
0.000188512
0.000186218
0.000183882
0.000181501
0.000179075
0.000176601
0.000174076
0.000171498
0.000168862
0.000166165
0.000163405
0.00016058
0.000157702
0.000154746
0.000151694
0.000148535
0.000145255
0.000141838
0.000138262
0.000134501
0.000130522
0.000126279
0.00012173
0.000116826
0.000111427
0.000105364
9.83695e-05
8.9978e-05
7.93176e-05
6.583e-05
0.000218436
5.28952e-05
9.18722e-05
0.000113754
0.000129859
0.000143329
0.000154697
0.000164567
0.000173326
0.000181352
0.000188797
0.000195691
0.000202137
0.000208194
0.000213907
0.000219313
0.00022444
0.000229311
0.000233946
0.000238359
0.000242564
0.000246572
0.000250392
0.000254031
0.000257498
0.000260798
0.000263938
0.000266922
0.000269755
0.000272443
0.000274988
0.000277397
0.000279672
0.000281818
0.000283839
0.000285738
0.000287519
0.000289186
0.000290743
0.000292193
0.000293539
0.000294786
0.000295936
0.000296993
0.00029796
0.000298855
0.000299674
0.000300414
0.000301077
0.000301666
0.000302184
0.000302634
0.00030302
0.000303345
0.000303611
0.000303821
0.000303978
0.000304085
0.000304145
0.000304159
0.000304129
0.000304059
0.000303951
0.000303805
0.000303625
0.000303412
0.000303168
0.000302895
0.000302593
0.000302265
0.000301913
0.000301536
0.000301137
0.000300717
0.000300277
0.000299818
0.000299341
0.000298846
0.000298335
0.000297809
0.000297267
0.000296711
0.000296141
0.000295559
0.000294963
0.000294356
0.000293736
0.000293105
0.000292463
0.00029181
0.000291146
0.000290471
0.000289787
0.000289092
0.000288387
0.000287672
0.000286947
0.000286212
0.000285467
0.000284711
0.000283946
0.00028317
0.000282384
0.000281588
0.000280781
0.000279963
0.000279134
0.000278294
0.000277443
0.00027658
0.000275705
0.000274818
0.000273919
0.000273006
0.000272081
0.000271143
0.000270191
0.000269225
0.000268245
0.00026725
0.000266241
0.000265216
0.000264176
0.000263119
0.000262047
0.000260957
0.000259851
0.000258727
0.000257586
0.000256426
0.000255248
0.00025405
0.000252834
0.000251598
0.000250342
0.000249065
0.000247768
0.000246449
0.000245109
0.000243747
0.000242363
0.000240956
0.000239526
0.000238073
0.000236596
0.000235095
0.00023357
0.000232019
0.000230444
0.000228843
0.000227216
0.000225562
0.000223882
0.000222175
0.00022044
0.000218677
0.000216886
0.000215066
0.000213217
0.000211338
0.000209428
0.000207488
0.000205516
0.000203512
0.000201475
0.000199404
0.000197299
0.000195158
0.000192981
0.000190766
0.000188512
0.000186218
0.000183882
0.000181501
0.000179075
0.000176601
0.000174076
0.000171498
0.000168862
0.000166165
0.000163405
0.00016058
0.000157702
0.000154746
0.000151694
0.000148535
0.000145256
0.000141838
0.000138262
0.000134501
0.000130522
0.000126279
0.00012173
0.000116826
0.000111427
0.000105364
9.83694e-05
8.99774e-05
7.93165e-05
6.58354e-05
0.000218443
7.9908e-05
0.000592386
0.000938146
0.00118002
0.00136106
0.00150831
0.00163454
0.00174555
0.00184455
0.00193392
0.00201571
0.00209111
0.00216104
0.00222621
0.00228719
0.00234441
0.00239824
0.00244897
0.00249687
0.00254214
0.00258496
0.00262551
0.0026639
0.00270028
0.00273475
0.0027674
0.00279833
0.00282762
0.00285535
0.00288157
0.00290637
0.00292979
0.0029519
0.00297275
0.00299238
0.00301085
0.0030282
0.00304447
0.00305971
0.00307395
0.00308723
0.00309957
0.00311101
0.0031215
0.00313089
0.00313936
0.00314706
0.00315404
0.00316038
0.00316609
0.00317122
0.00317579
0.00317981
0.00318333
0.00318636
0.00318892
0.00319103
0.00319271
0.00319398
0.00319486
0.00319536
0.0031955
0.0031953
0.00319478
0.00319394
0.00319279
0.00319137
0.00318966
0.0031877
0.00318548
0.00318302
0.00318032
0.00317741
0.00317428
0.00317095
0.00316742
0.0031637
0.0031598
0.00315572
0.00315148
0.00314706
0.00314249
0.00313776
0.00313288
0.00312785
0.00312268
0.00311737
0.00311192
0.00310633
0.00310061
0.00309475
0.00308877
0.00308265
0.0030764
0.00307003
0.00306353
0.0030569
0.00305014
0.00304325
0.00303623
0.00302908
0.00302179
0.00301438
0.00300683
0.00299914
0.00299131
0.00298335
0.00297524
0.00296698
0.00295858
0.00295003
0.00294133
0.00293247
0.00292345
0.00291428
0.00290494
0.00289543
0.00288575
0.0028759
0.00286587
0.00285566
0.00284526
0.00283468
0.00282391
0.00281294
0.00280177
0.0027904
0.00277883
0.00276705
0.00275505
0.00274283
0.0027304
0.00271774
0.00270485
0.00269173
0.00267838
0.00266478
0.00265094
0.00263685
0.00262252
0.00260792
0.00259307
0.00257795
0.00256257
0.00254691
0.00253099
0.00251478
0.00249829
0.00248151
0.00246444
0.00244707
0.0024294
0.00241143
0.00239314
0.00237454
0.00235562
0.00233637
0.00231679
0.00229687
0.0022766
0.00225598
0.002235
0.00221365
0.00219191
0.00216979
0.00214726
0.00212432
0.00210095
0.00207714
0.00205286
0.00202811
0.00200285
0.00197707
0.00195073
0.0019238
0.00189625
0.00186803
0.00183909
0.00180937
0.00177877
0.00174716
0.00171437
0.00168036
0.00164509
0.00160845
0.00157024
0.00153026
0.00148822
0.00144372
0.00139623
0.00134495
0.00128845
0.00122515
0.00115366
0.00107099
0.000972127
0.000847992
0.000680276
0.000427289
5.72173e-05
7.99084e-05
0.000592394
0.000938157
0.00118003
0.00136107
0.00150832
0.00163455
0.00174556
0.00184456
0.00193393
0.00201572
0.00209112
0.00216105
0.00222622
0.00228719
0.00234442
0.00239824
0.00244898
0.00249688
0.00254215
0.00258497
0.00262551
0.00266391
0.00270029
0.00273475
0.00276741
0.00279834
0.00282763
0.00285535
0.00288158
0.00290638
0.0029298
0.00295191
0.00297275
0.00299239
0.00301085
0.0030282
0.00304448
0.00305971
0.00307395
0.00308723
0.00309958
0.00311101
0.00312151
0.0031309
0.00313937
0.00314706
0.00315405
0.00316038
0.0031661
0.00317123
0.00317579
0.00317982
0.00318334
0.00318636
0.00318892
0.00319103
0.00319271
0.00319398
0.00319486
0.00319536
0.00319551
0.00319531
0.00319478
0.00319394
0.0031928
0.00319137
0.00318967
0.0031877
0.00318548
0.00318302
0.00318033
0.00317742
0.00317429
0.00317096
0.00316743
0.00316371
0.00315981
0.00315573
0.00315148
0.00314707
0.00314249
0.00313777
0.00313289
0.00312786
0.00312269
0.00311737
0.00311192
0.00310633
0.00310061
0.00309476
0.00308877
0.00308265
0.00307641
0.00307003
0.00306353
0.0030569
0.00305014
0.00304325
0.00303623
0.00302908
0.0030218
0.00301438
0.00300683
0.00299914
0.00299132
0.00298335
0.00297524
0.00296699
0.00295859
0.00295004
0.00294133
0.00293247
0.00292346
0.00291428
0.00290494
0.00289543
0.00288575
0.0028759
0.00286587
0.00285566
0.00284526
0.00283468
0.00282391
0.00281294
0.00280178
0.00279041
0.00277883
0.00276705
0.00275505
0.00274284
0.0027304
0.00271774
0.00270486
0.00269174
0.00267838
0.00266478
0.00265095
0.00263686
0.00262252
0.00260793
0.00259307
0.00257796
0.00256257
0.00254692
0.00253099
0.00251478
0.00249829
0.00248151
0.00246444
0.00244707
0.0024294
0.00241143
0.00239315
0.00237455
0.00235562
0.00233638
0.00231679
0.00229687
0.00227661
0.00225599
0.002235
0.00221365
0.00219191
0.00216979
0.00214726
0.00212432
0.00210095
0.00207714
0.00205287
0.00202811
0.00200285
0.00197707
0.00195073
0.0019238
0.00189625
0.00186804
0.0018391
0.00180937
0.00177877
0.00174716
0.00171437
0.00168036
0.0016451
0.00160845
0.00157025
0.00153026
0.00148822
0.00144372
0.00139623
0.00134495
0.00128846
0.00122515
0.00115366
0.00107099
0.000972127
0.000847989
0.000680275
0.000427289
5.72111e-05
9.82822e-05
0.000898701
0.00159864
0.00212309
0.00253539
0.00287673
0.00316946
0.0034266
0.003656
0.00386304
0.00405164
0.00422465
0.00438423
0.00453208
0.00466953
0.00479769
0.00491747
0.00502963
0.00513484
0.00523366
0.00532659
0.00541406
0.00549646
0.00557415
0.00564742
0.00571656
0.00578183
0.00584345
0.00590164
0.00595659
0.00600848
0.00605748
0.00610373
0.00614738
0.00618856
0.00622738
0.00626397
0.00629842
0.00633083
0.00636129
0.00638987
0.00641665
0.00644166
0.00646491
0.00648635
0.00650613
0.00652442
0.00654133
0.00655696
0.00657139
0.00658466
0.00659685
0.006608
0.00661816
0.00662737
0.00663566
0.00664308
0.00664966
0.00665544
0.00666044
0.00666471
0.00666826
0.00667112
0.00667332
0.0066749
0.00667586
0.00667623
0.00667604
0.0066753
0.00667403
0.00667226
0.00667
0.00666727
0.00666407
0.00666044
0.00665637
0.00665189
0.006647
0.00664172
0.00663606
0.00663003
0.00662363
0.00661687
0.00660976
0.00660232
0.00659453
0.00658641
0.00657797
0.00656921
0.00656013
0.00655073
0.00654101
0.00653099
0.00652065
0.00651001
0.00649905
0.00648778
0.0064762
0.00646432
0.00645211
0.00643959
0.00642676
0.0064136
0.00640012
0.00638631
0.00637217
0.00635769
0.00634287
0.00632771
0.00631221
0.00629634
0.00628012
0.00626353
0.00624657
0.00622923
0.0062115
0.00619339
0.00617488
0.00615596
0.00613664
0.00611689
0.00609672
0.00607612
0.00605507
0.00603358
0.00601163
0.00598921
0.00596632
0.00594295
0.0059191
0.00589474
0.00586988
0.0058445
0.0058186
0.00579217
0.0057652
0.00573768
0.0057096
0.00568095
0.00565173
0.00562192
0.00559151
0.00556049
0.00552886
0.0054966
0.0054637
0.00543016
0.00539596
0.00536108
0.00532552
0.00528927
0.00525231
0.00521462
0.0051762
0.00513703
0.00509709
0.00505637
0.00501485
0.0049725
0.00492931
0.00488526
0.00484032
0.00479447
0.00474768
0.00469991
0.00465114
0.00460133
0.00455044
0.00449842
0.00444522
0.00439079
0.00433506
0.00427797
0.00421943
0.00415935
0.00409763
0.00403415
0.00396876
0.00390127
0.00383149
0.00375915
0.00368396
0.00360565
0.00352395
0.00343839
0.00334846
0.00325348
0.00315259
0.00304467
0.00292822
0.00280116
0.00266058
0.00250249
0.00232247
0.00211324
0.00186355
0.00155562
0.00116055
0.000636338
6.96635e-05
9.82825e-05
0.00089871
0.00159865
0.00212311
0.00253542
0.00287676
0.00316948
0.00342662
0.00365603
0.00386306
0.00405166
0.00422467
0.00438425
0.0045321
0.00466955
0.00479771
0.00491748
0.00502965
0.00513485
0.00523367
0.0053266
0.00541407
0.00549648
0.00557416
0.00564743
0.00571657
0.00578184
0.00584346
0.00590165
0.0059566
0.00600849
0.00605749
0.00610374
0.00614739
0.00618856
0.00622739
0.00626397
0.00629842
0.00633084
0.00636129
0.00638988
0.00641666
0.00644167
0.00646492
0.00648635
0.00650614
0.00652443
0.00654134
0.00655697
0.00657139
0.00658467
0.00659686
0.00660801
0.00661816
0.00662737
0.00663566
0.00664308
0.00664967
0.00665544
0.00666045
0.00666471
0.00666826
0.00667112
0.00667333
0.0066749
0.00667586
0.00667623
0.00667604
0.0066753
0.00667404
0.00667227
0.00667
0.00666727
0.00666408
0.00666044
0.00665638
0.00665189
0.00664701
0.00664173
0.00663606
0.00663003
0.00662363
0.00661687
0.00660977
0.00660232
0.00659453
0.00658642
0.00657797
0.00656921
0.00656013
0.00655073
0.00654101
0.00653099
0.00652065
0.00651001
0.00649905
0.00648778
0.00647621
0.00646432
0.00645211
0.00643959
0.00642676
0.0064136
0.00640012
0.00638631
0.00637217
0.00635769
0.00634288
0.00632772
0.00631221
0.00629634
0.00628012
0.00626353
0.00624657
0.00622923
0.00621151
0.00619339
0.00617488
0.00615597
0.00613664
0.00611689
0.00609672
0.00607612
0.00605507
0.00603358
0.00601163
0.00598921
0.00596632
0.00594295
0.0059191
0.00589474
0.00586988
0.0058445
0.00581861
0.00579217
0.0057652
0.00573768
0.0057096
0.00568095
0.00565173
0.00562192
0.00559151
0.00556049
0.00552886
0.0054966
0.0054637
0.00543016
0.00539596
0.00536108
0.00532552
0.00528927
0.00525231
0.00521462
0.0051762
0.00513703
0.00509709
0.00505637
0.00501485
0.0049725
0.00492931
0.00488526
0.00484032
0.00479447
0.00474768
0.00469991
0.00465114
0.00460133
0.00455044
0.00449842
0.00444522
0.00439079
0.00433506
0.00427797
0.00421943
0.00415935
0.00409763
0.00403415
0.00396876
0.00390127
0.00383149
0.00375915
0.00368396
0.00360565
0.00352395
0.00343839
0.00334846
0.00325348
0.00315259
0.00304467
0.00292822
0.00280116
0.00266058
0.00250249
0.00232247
0.00211324
0.00186355
0.00155562
0.00116055
0.00063634
6.96648e-05
0.000111284
0.00108658
0.00204464
0.00280557
0.00342628
0.00394963
0.0044025
0.00480209
0.00515972
0.00548322
0.00577827
0.00604909
0.00629893
0.00653033
0.00674532
0.00694561
0.00713259
0.00730746
0.00747125
0.00762487
0.0077691
0.00790464
0.00803214
0.00815215
0.00826518
0.00837172
0.00847218
0.00856694
0.00865638
0.00874081
0.00882054
0.00889584
0.00896697
0.00903418
0.00909766
0.00915764
0.00921429
0.00926778
0.00931827
0.00936591
0.00941082
0.00945311
0.00949288
0.00953018
0.00956506
0.00959767
0.00962817
0.00965671
0.00968339
0.00970832
0.0097316
0.00975331
0.00977351
0.00979229
0.00980969
0.00982578
0.0098406
0.00985422
0.00986667
0.00987801
0.00988827
0.00989749
0.00990572
0.00991298
0.00991931
0.00992474
0.00992931
0.00993304
0.00993596
0.00993809
0.00993947
0.00994011
0.00994003
0.00993926
0.00993781
0.00993571
0.00993297
0.0099296
0.00992562
0.00992105
0.00991589
0.00991016
0.00990387
0.00989703
0.00988964
0.00988171
0.00987326
0.00986428
0.00985479
0.00984478
0.00983426
0.00982323
0.00981169
0.00979965
0.0097871
0.00977405
0.0097605
0.00974643
0.00973186
0.00971677
0.00970117
0.00968505
0.00966841
0.00965124
0.00963353
0.00961528
0.00959649
0.00957715
0.00955724
0.00953677
0.00951572
0.00949409
0.00947187
0.00944905
0.00942562
0.00940156
0.00937688
0.00935155
0.00932558
0.00929894
0.00927163
0.00924364
0.00921495
0.00918556
0.00915544
0.00912459
0.009093
0.00906065
0.00902753
0.00899363
0.00895893
0.00892342
0.00888709
0.00884991
0.00881189
0.008773
0.00873322
0.00869255
0.00865096
0.00860845
0.00856499
0.00852056
0.00847516
0.00842876
0.00838134
0.00833289
0.00828339
0.00823281
0.00818113
0.00812834
0.00807441
0.00801931
0.00796303
0.00790553
0.00784678
0.00778676
0.00772544
0.00766278
0.00759874
0.00753329
0.00746638
0.00739797
0.00732802
0.00725647
0.00718326
0.00710833
0.00703161
0.00695302
0.0068725
0.00678993
0.00670522
0.00661826
0.0065289
0.00643702
0.00634244
0.00624496
0.00614437
0.00604041
0.00593277
0.0058211
0.00570499
0.00558396
0.00545748
0.00532493
0.00518552
0.00503828
0.00488201
0.00471517
0.00453582
0.00434147
0.00412884
0.00389359
0.00362997
0.0033307
0.00298577
0.00258074
0.00209526
0.00150169
0.000774863
7.93209e-05
0.000111284
0.00108659
0.00204466
0.0028056
0.00342631
0.00394966
0.00440254
0.00480213
0.00515975
0.00548325
0.0057783
0.00604912
0.00629896
0.00653035
0.00674535
0.00694563
0.00713261
0.00730748
0.00747128
0.00762489
0.00776912
0.00790466
0.00803216
0.00815216
0.0082652
0.00837174
0.00847219
0.00856696
0.00865639
0.00874082
0.00882055
0.00889585
0.00896699
0.00903419
0.00909767
0.00915765
0.0092143
0.00926779
0.00931828
0.00936592
0.00941083
0.00945312
0.00949288
0.00953018
0.00956506
0.00959768
0.00962818
0.00965671
0.00968339
0.00970833
0.00973161
0.00975331
0.00977352
0.00979229
0.00980969
0.00982578
0.00984061
0.00985422
0.00986668
0.00987801
0.00988827
0.00989749
0.00990572
0.00991298
0.00991931
0.00992474
0.00992931
0.00993304
0.00993596
0.00993809
0.00993947
0.00994011
0.00994003
0.00993926
0.00993781
0.00993571
0.00993297
0.0099296
0.00992562
0.00992105
0.00991589
0.00991016
0.00990387
0.00989702
0.00988964
0.00988171
0.00987326
0.00986428
0.00985479
0.00984478
0.00983426
0.00982323
0.00981169
0.00979965
0.0097871
0.00977405
0.0097605
0.00974643
0.00973186
0.00971677
0.00970117
0.00968505
0.00966841
0.00965123
0.00963353
0.00961528
0.00959649
0.00957715
0.00955724
0.00953677
0.00951572
0.00949409
0.00947187
0.00944905
0.00942561
0.00940156
0.00937688
0.00935155
0.00932558
0.00929894
0.00927163
0.00924364
0.00921495
0.00918555
0.00915544
0.00912459
0.009093
0.00906065
0.00902753
0.00899363
0.00895893
0.00892342
0.00888708
0.00884991
0.00881189
0.00877299
0.00873322
0.00869255
0.00865096
0.00860844
0.00856498
0.00852056
0.00847516
0.00842876
0.00838134
0.00833289
0.00828338
0.0082328
0.00818113
0.00812834
0.00807441
0.00801931
0.00796303
0.00790553
0.00784678
0.00778676
0.00772544
0.00766277
0.00759874
0.00753328
0.00746638
0.00739797
0.00732802
0.00725646
0.00718325
0.00710832
0.0070316
0.00695302
0.00687249
0.00678993
0.00670522
0.00661825
0.0065289
0.00643702
0.00634243
0.00624496
0.00614437
0.0060404
0.00593277
0.0058211
0.00570499
0.00558396
0.00545748
0.00532492
0.00518551
0.00503828
0.00488201
0.00471517
0.00453581
0.00434147
0.00412884
0.00389359
0.00362997
0.0033307
0.00298577
0.00258074
0.00209526
0.00150169
0.000774863
7.93213e-05
0.000121841
0.00121431
0.00236364
0.00331558
0.00411141
0.00479216
0.00538649
0.00591395
0.00638804
0.00681837
0.00721196
0.00757411
0.00790888
0.0082195
0.00850856
0.00877821
0.00903023
0.00926616
0.00948732
0.00969489
0.00988987
0.0100732
0.0102457
0.0104081
0.0105612
0.0107054
0.0108415
0.0109699
0.0110911
0.0112056
0.0113138
0.0114161
0.0115128
0.0116043
0.0116908
0.0117726
0.0118501
0.0119234
0.0119927
0.0120584
0.0121204
0.0121791
0.0122345
0.0122867
0.012336
0.0123824
0.0124261
0.0124673
0.0125061
0.0125426
0.012577
0.0126094
0.0126398
0.0126684
0.0126952
0.0127203
0.0127438
0.0127657
0.0127861
0.0128051
0.0128227
0.012839
0.0128539
0.0128677
0.0128802
0.0128915
0.0129018
0.0129109
0.012919
0.012926
0.0129321
0.0129372
0.0129413
0.0129446
0.0129469
0.0129484
0.012949
0.0129488
0.0129477
0.0129459
0.0129433
0.0129399
0.0129357
0.0129308
0.0129252
0.0129188
0.0129117
0.0129039
0.0128953
0.0128861
0.0128762
0.0128655
0.0128542
0.0128421
0.0128294
0.012816
0.0128018
0.012787
0.0127714
0.0127552
0.0127382
0.0127205
0.0127021
0.0126829
0.012663
0.0126424
0.0126209
0.0125988
0.0125758
0.0125521
0.0125275
0.0125022
0.012476
0.012449
0.0124212
0.0123925
0.0123629
0.0123324
0.012301
0.0122688
0.0122355
0.0122014
0.0121663
0.0121302
0.0120931
0.012055
0.0120159
0.0119757
0.0119344
0.0118921
0.0118487
0.0118042
0.0117585
0.0117116
0.0116636
0.0116144
0.0115639
0.0115122
0.0114592
0.011405
0.0113494
0.0112925
0.0112342
0.0111745
0.0111134
0.0110509
0.0109869
0.0109213
0.0108543
0.0107856
0.0107154
0.0106435
0.0105699
0.0104946
0.0104175
0.0103387
0.0102579
0.0101753
0.0100906
0.010004
0.00991524
0.00982434
0.00973121
0.00963576
0.00953792
0.00943758
0.00933465
0.009229
0.00912051
0.00900904
0.00889444
0.00877653
0.00865512
0.00852998
0.00840086
0.00826749
0.00812952
0.00798658
0.00783823
0.00768397
0.00752318
0.0073552
0.00717922
0.00699428
0.00679923
0.00659268
0.00637288
0.0061377
0.00588446
0.0056098
0.0053094
0.00497784
0.00460812
0.0041912
0.00371573
0.0031664
0.0025236
0.00176459
0.000880479
8.70355e-05
0.000121841
0.00121431
0.00236366
0.00331561
0.00411144
0.00479219
0.00538653
0.00591399
0.00638808
0.00681841
0.007212
0.00757415
0.00790892
0.00821954
0.0085086
0.00877824
0.00903026
0.00926619
0.00948736
0.00969492
0.0098899
0.0100732
0.0102457
0.0104081
0.0105612
0.0107054
0.0108415
0.0109699
0.0110912
0.0112057
0.0113139
0.0114161
0.0115128
0.0116043
0.0116908
0.0117726
0.0118501
0.0119234
0.0119928
0.0120584
0.0121204
0.0121791
0.0122345
0.0122867
0.012336
0.0123824
0.0124261
0.0124673
0.0125061
0.0125426
0.012577
0.0126094
0.0126398
0.0126684
0.0126952
0.0127203
0.0127438
0.0127657
0.0127861
0.0128051
0.0128227
0.012839
0.0128539
0.0128677
0.0128802
0.0128915
0.0129018
0.0129109
0.012919
0.012926
0.0129321
0.0129372
0.0129413
0.0129446
0.0129469
0.0129484
0.012949
0.0129488
0.0129477
0.0129459
0.0129433
0.0129399
0.0129357
0.0129308
0.0129251
0.0129188
0.0129117
0.0129039
0.0128953
0.0128861
0.0128762
0.0128655
0.0128542
0.0128421
0.0128294
0.012816
0.0128018
0.012787
0.0127714
0.0127552
0.0127382
0.0127205
0.0127021
0.0126829
0.012663
0.0126424
0.0126209
0.0125988
0.0125758
0.0125521
0.0125275
0.0125022
0.012476
0.012449
0.0124212
0.0123924
0.0123629
0.0123324
0.012301
0.0122688
0.0122355
0.0122014
0.0121663
0.0121302
0.0120931
0.012055
0.0120159
0.0119757
0.0119344
0.0118921
0.0118487
0.0118041
0.0117585
0.0117116
0.0116636
0.0116144
0.0115639
0.0115122
0.0114592
0.011405
0.0113494
0.0112925
0.0112342
0.0111745
0.0111134
0.0110509
0.0109869
0.0109213
0.0108543
0.0107856
0.0107154
0.0106435
0.0105699
0.0104946
0.0104175
0.0103386
0.0102579
0.0101752
0.0100906
0.010004
0.00991523
0.00982433
0.0097312
0.00963576
0.00953792
0.00943758
0.00933464
0.00922899
0.00912051
0.00900904
0.00889444
0.00877653
0.00865511
0.00852997
0.00840086
0.00826748
0.00812951
0.00798658
0.00783823
0.00768396
0.00752318
0.0073552
0.00717921
0.00699427
0.00679923
0.00659267
0.00637288
0.0061377
0.00588446
0.00560979
0.0053094
0.00497783
0.00460812
0.0041912
0.00371573
0.0031664
0.0025236
0.00176459
0.000880478
8.70356e-05
0.000130792
0.00131551
0.00261081
0.0037155
0.00465586
0.0054696
0.0061856
0.00682462
0.0074015
0.00792707
0.00840933
0.00885437
0.00926688
0.00965061
0.0100085
0.0103432
0.0106566
0.0109506
0.0112267
0.0114862
0.0117304
0.0119604
0.012177
0.0123812
0.0125739
0.0127557
0.0129274
0.0130895
0.0132428
0.0133877
0.0135248
0.0136545
0.0137772
0.0138935
0.0140036
0.0141079
0.0142068
0.0143005
0.0143894
0.0144736
0.0145535
0.0146292
0.0147009
0.0147688
0.0148331
0.014894
0.0149516
0.0150061
0.0150578
0.0151066
0.0151529
0.0151967
0.0152381
0.0152772
0.0153142
0.0153491
0.0153821
0.0154131
0.0154424
0.0154698
0.0154956
0.0155198
0.0155423
0.0155634
0.015583
0.0156012
0.015618
0.0156335
0.0156477
0.0156606
0.0156723
0.0156829
0.0156922
0.0157005
0.0157076
0.0157137
0.0157187
0.0157227
0.0157257
0.0157276
0.0157286
0.0157287
0.0157278
0.0157259
0.0157231
0.0157195
0.0157148
0.0157093
0.0157029
0.0156956
0.0156874
0.0156784
0.0156684
0.0156576
0.0156458
0.0156332
0.0156197
0.0156053
0.01559
0.0155737
0.0155566
0.0155385
0.0155196
0.0154996
0.0154788
0.015457
0.0154342
0.0154104
0.0153856
0.0153599
0.0153331
0.0153053
0.0152764
0.0152465
0.0152155
0.0151834
0.0151502
0.0151159
0.0150804
0.0150437
0.0150059
0.0149668
0.0149266
0.014885
0.0148423
0.0147982
0.0147528
0.0147061
0.014658
0.0146085
0.0145577
0.0145054
0.0144516
0.0143963
0.0143396
0.0142813
0.0142214
0.01416
0.0140969
0.0140321
0.0139657
0.0138975
0.0138276
0.0137558
0.0136823
0.0136069
0.0135295
0.0134502
0.013369
0.0132856
0.0132002
0.0131127
0.0130229
0.0129309
0.0128366
0.01274
0.0126409
0.0125393
0.0124351
0.0123282
0.0122186
0.0121062
0.0119908
0.0118724
0.0117508
0.0116259
0.0114976
0.0113656
0.0112299
0.0110903
0.0109464
0.0107982
0.0106453
0.0104874
0.0103242
0.0101554
0.00998042
0.00979883
0.00961002
0.00941335
0.00920802
0.00899313
0.00876763
0.00853025
0.00827949
0.00801355
0.00773022
0.00742683
0.0071001
0.00674596
0.00635939
0.00593412
0.00546233
0.00493421
0.00433781
0.0036583
0.002878
0.00197955
0.000967218
9.35508e-05
0.000130793
0.00131552
0.00261083
0.00371553
0.00465589
0.00546963
0.00618564
0.00682466
0.00740155
0.00792711
0.00840938
0.00885441
0.00926693
0.00965065
0.0100086
0.0103432
0.0106567
0.0109506
0.0112267
0.0114863
0.0117305
0.0119604
0.012177
0.0123813
0.0125739
0.0127557
0.0129274
0.0130896
0.0132428
0.0133877
0.0135248
0.0136545
0.0137772
0.0138935
0.0140036
0.0141079
0.0142068
0.0143005
0.0143894
0.0144736
0.0145535
0.0146292
0.0147009
0.0147688
0.0148331
0.014894
0.0149516
0.0150062
0.0150578
0.0151067
0.0151529
0.0151967
0.0152381
0.0152772
0.0153142
0.0153491
0.0153821
0.0154131
0.0154424
0.0154698
0.0154956
0.0155198
0.0155423
0.0155634
0.015583
0.0156012
0.015618
0.0156335
0.0156477
0.0156606
0.0156723
0.0156829
0.0156922
0.0157005
0.0157076
0.0157137
0.0157187
0.0157227
0.0157257
0.0157276
0.0157286
0.0157287
0.0157278
0.0157259
0.0157231
0.0157194
0.0157148
0.0157093
0.0157029
0.0156956
0.0156874
0.0156784
0.0156684
0.0156576
0.0156458
0.0156332
0.0156197
0.0156053
0.01559
0.0155737
0.0155566
0.0155385
0.0155196
0.0154996
0.0154788
0.015457
0.0154342
0.0154104
0.0153856
0.0153599
0.0153331
0.0153053
0.0152764
0.0152465
0.0152155
0.0151834
0.0151502
0.0151159
0.0150804
0.0150437
0.0150059
0.0149668
0.0149266
0.014885
0.0148423
0.0147982
0.0147528
0.0147061
0.014658
0.0146085
0.0145577
0.0145053
0.0144516
0.0143963
0.0143396
0.0142813
0.0142214
0.0141599
0.0140969
0.0140321
0.0139657
0.0138975
0.0138276
0.0137558
0.0136823
0.0136069
0.0135295
0.0134502
0.013369
0.0132856
0.0132002
0.0131127
0.0130229
0.0129309
0.0128366
0.01274
0.0126409
0.0125393
0.0124351
0.0123282
0.0122186
0.0121062
0.0119908
0.0118724
0.0117508
0.0116259
0.0114976
0.0113656
0.0112299
0.0110902
0.0109464
0.0107982
0.0106453
0.0104874
0.0103242
0.0101554
0.00998042
0.00979882
0.00961002
0.00941334
0.00920801
0.00899313
0.00876762
0.00853024
0.00827949
0.00801354
0.00773022
0.00742683
0.0071001
0.00674596
0.00635939
0.00593412
0.00546233
0.00493421
0.00433781
0.0036583
0.002878
0.00197955
0.000967216
9.35508e-05
0.000138715
0.00140212
0.00281465
0.00404317
0.00510295
0.00602852
0.00684831
0.00758364
0.0082502
0.00885961
0.00942059
0.00993981
0.0104225
0.0108726
0.0112936
0.0116883
0.0120587
0.0124071
0.0127349
0.0130437
0.0133349
0.0136096
0.0138689
0.0141138
0.0143451
0.0145638
0.0147706
0.0149663
0.0151514
0.0153267
0.0154927
0.01565
0.015799
0.0159404
0.0160744
0.0162016
0.0163224
0.016437
0.0165458
0.0166491
0.0167473
0.0168406
0.0169291
0.0170132
0.0170931
0.0171689
0.0172409
0.0173093
0.0173743
0.017436
0.0174947
0.0175504
0.0176033
0.0176535
0.0177012
0.0177465
0.0177895
0.0178302
0.0178687
0.0179053
0.0179398
0.0179724
0.0180032
0.0180321
0.0180594
0.018085
0.018109
0.0181315
0.0181524
0.0181718
0.0181898
0.0182065
0.0182217
0.0182356
0.0182483
0.0182596
0.0182698
0.0182786
0.0182863
0.0182929
0.0182982
0.0183024
0.0183055
0.0183075
0.0183083
0.0183081
0.0183068
0.0183043
0.0183009
0.0182963
0.0182907
0.018284
0.0182762
0.0182674
0.0182575
0.0182465
0.0182345
0.0182214
0.0182071
0.0181918
0.0181754
0.0181579
0.0181392
0.0181194
0.0180985
0.0180764
0.0180532
0.0180287
0.0180031
0.0179762
0.0179481
0.0179188
0.0178881
0.0178562
0.017823
0.0177885
0.0177526
0.0177154
0.0176767
0.0176366
0.0175951
0.0175522
0.0175077
0.0174618
0.0174143
0.0173652
0.0173145
0.0172622
0.0172083
0.0171527
0.0170954
0.0170363
0.0169754
0.0169128
0.0168483
0.0167819
0.0167136
0.0166434
0.0165712
0.0164969
0.0164206
0.0163422
0.0162616
0.0161788
0.0160938
0.0160064
0.0159168
0.0158247
0.0157301
0.0156331
0.0155335
0.0154312
0.0153263
0.0152185
0.0151079
0.0149944
0.0148779
0.0147582
0.0146354
0.0145092
0.0143797
0.0142466
0.0141098
0.0139692
0.0138247
0.0136761
0.0135232
0.0133658
0.0132037
0.0130366
0.0128643
0.0126866
0.0125029
0.0123131
0.0121166
0.0119131
0.0117018
0.0114823
0.0112538
0.0110154
0.0107663
0.0105053
0.0102311
0.00994214
0.00963665
0.00931245
0.00896694
0.00859699
0.00819884
0.00776788
0.00729856
0.00678408
0.00621618
0.00558484
0.00487802
0.00408182
0.00318074
0.00216246
0.00104161
9.92515e-05
0.000138715
0.00140213
0.00281467
0.00404319
0.00510299
0.00602856
0.00684835
0.00758369
0.00825025
0.00885966
0.00942064
0.00993986
0.0104225
0.0108727
0.0112937
0.0116883
0.0120588
0.0124071
0.0127349
0.0130438
0.013335
0.0136097
0.0138689
0.0141138
0.0143452
0.0145639
0.0147707
0.0149663
0.0151514
0.0153267
0.0154927
0.01565
0.0157991
0.0159404
0.0160745
0.0162017
0.0163224
0.016437
0.0165458
0.0166492
0.0167473
0.0168406
0.0169291
0.0170132
0.0170931
0.0171689
0.0172409
0.0173093
0.0173743
0.017436
0.0174947
0.0175504
0.0176033
0.0176535
0.0177012
0.0177465
0.0177895
0.0178302
0.0178687
0.0179053
0.0179398
0.0179724
0.0180032
0.0180322
0.0180594
0.018085
0.018109
0.0181315
0.0181524
0.0181718
0.0181898
0.0182065
0.0182217
0.0182356
0.0182483
0.0182596
0.0182698
0.0182786
0.0182863
0.0182929
0.0182982
0.0183024
0.0183055
0.0183075
0.0183083
0.0183081
0.0183068
0.0183043
0.0183009
0.0182963
0.0182907
0.018284
0.0182762
0.0182674
0.0182575
0.0182465
0.0182345
0.0182213
0.0182071
0.0181918
0.0181754
0.0181579
0.0181392
0.0181194
0.0180985
0.0180764
0.0180532
0.0180287
0.0180031
0.0179762
0.0179481
0.0179188
0.0178881
0.0178562
0.017823
0.0177885
0.0177526
0.0177153
0.0176767
0.0176366
0.0175951
0.0175522
0.0175077
0.0174618
0.0174143
0.0173652