/*--------------------------------*- C++ -*----------------------------------*\
  =========                 |
  \\      /  F ield         | OpenFOAM: The Open Source CFD Toolbox
   \\    /   O peration     | Website:  https://openfoam.org
    \\  /    A nd           | Version:  8
     \\/     M anipulation  |
\*---------------------------------------------------------------------------*/
FoamFile
{
    version     2.0;
    format      ascii;
    class       volScalarField;
    location    "4000";
    object      k;
}
// * * * * * * * * * * * * * * * * * * * * * * * * * * * * * * * * * * * * * //

dimensions      [0 2 -2 0 0 0 0];

internalField   nonuniform List<scalar> 
48000
(
0.030429
0.0786971
0.12065
0.15723
0.191541
0.22313
0.252509
0.280105
0.306649
0.332343
0.357055
0.380966
0.404139
0.426624
0.448459
0.469672
0.490282
0.5103
0.529735
0.548591
0.566868
0.584565
0.601682
0.618216
0.634164
0.649523
0.664292
0.678469
0.692055
0.705049
0.717453
0.72927
0.740504
0.751161
0.761245
0.770764
0.779728
0.788144
0.796023
0.803376
0.810214
0.816549
0.822391
0.827755
0.832733
0.837307
0.841448
0.845166
0.848474
0.85139
0.853929
0.856108
0.857943
0.859448
0.86064
0.861532
0.862139
0.862476
0.862555
0.86239
0.861994
0.861378
0.860555
0.859536
0.858331
0.856951
0.855406
0.853706
0.851858
0.849872
0.847755
0.845515
0.843159
0.840693
0.838125
0.835459
0.832701
0.829857
0.826931
0.823926
0.820848
0.817701
0.814486
0.811208
0.80787
0.804473
0.801021
0.797515
0.793958
0.79035
0.786694
0.78299
0.77924
0.775444
0.771604
0.76772
0.763792
0.75982
0.755806
0.751748
0.747647
0.743503
0.739315
0.735084
0.730808
0.726488
0.722122
0.71771
0.713252
0.708747
0.704194
0.699592
0.694941
0.690239
0.685486
0.680682
0.675824
0.670912
0.665946
0.660924
0.655846
0.650711
0.645517
0.640264
0.634952
0.629579
0.624146
0.61865
0.613091
0.60747
0.601785
0.596035
0.590221
0.584342
0.578397
0.572387
0.566311
0.560169
0.553961
0.547687
0.541347
0.534941
0.528469
0.521932
0.51533
0.508664
0.501933
0.495139
0.488282
0.481363
0.474382
0.467341
0.46024
0.453081
0.445863
0.438589
0.431259
0.423874
0.416435
0.408944
0.4014
0.393807
0.386163
0.378471
0.370731
0.362944
0.35511
0.34723
0.339305
0.331334
0.323318
0.315255
0.307147
0.29899
0.290785
0.282529
0.27422
0.265855
0.257431
0.24895
0.240417
0.231874
0.223264
0.214543
0.205701
0.196718
0.18757
0.178231
0.168667
0.158834
0.148676
0.138155
0.127249
0.115759
0.103503
0.0902137
0.0754559
0.0584672
0.038028
0.0223567
0.0304295
0.0786977
0.12065
0.157231
0.191541
0.223131
0.25251
0.280106
0.30665
0.332344
0.357056
0.380967
0.40414
0.426625
0.44846
0.469673
0.490282
0.510301
0.529736
0.548591
0.566868
0.584566
0.601683
0.618216
0.634164
0.649523
0.664292
0.67847
0.692055
0.705049
0.717453
0.729271
0.740505
0.751161
0.761245
0.770765
0.779728
0.788144
0.796023
0.803376
0.810214
0.816549
0.822391
0.827755
0.832733
0.837307
0.841448
0.845166
0.848474
0.85139
0.853929
0.856108
0.857943
0.859448
0.86064
0.861532
0.862139
0.862476
0.862555
0.86239
0.861994
0.861378
0.860555
0.859536
0.858331
0.856951
0.855406
0.853706
0.851858
0.849871
0.847755
0.845515
0.843159
0.840693
0.838125
0.835459
0.832701
0.829857
0.82693
0.823926
0.820848
0.8177
0.814486
0.811208
0.80787
0.804473
0.801021
0.797515
0.793958
0.79035
0.786694
0.78299
0.77924
0.775444
0.771604
0.76772
0.763792
0.75982
0.755806
0.751748
0.747647
0.743503
0.739315
0.735084
0.730808
0.726488
0.722122
0.71771
0.713252
0.708747
0.704194
0.699592
0.694941
0.690239
0.685486
0.680682
0.675824
0.670912
0.665946
0.660924
0.655846
0.650711
0.645517
0.640264
0.634952
0.629579
0.624145
0.61865
0.613091
0.60747
0.601784
0.596035
0.590221
0.584342
0.578397
0.572387
0.566311
0.560169
0.553961
0.547687
0.541347
0.534941
0.528469
0.521932
0.51533
0.508664
0.501933
0.495139
0.488282
0.481363
0.474382
0.467341
0.46024
0.453081
0.445863
0.438589
0.431259
0.423874
0.416435
0.408944
0.4014
0.393807
0.386163
0.378471
0.370731
0.362944
0.35511
0.34723
0.339305
0.331334
0.323318
0.315255
0.307147
0.29899
0.290785
0.282529
0.27422
0.265855
0.257431
0.24895
0.240417
0.231874
0.223264
0.214543
0.205701
0.196718
0.18757
0.178231
0.168667
0.158834
0.148676
0.138155
0.127249
0.115759
0.103503
0.0902138
0.0754558
0.0584672
0.0380289
0.0223568
0.0801092
0.201817
0.287251
0.362508
0.431558
0.496307
0.557796
0.616317
0.672519
0.726779
0.779327
0.830344
0.879961
0.92827
0.975336
1.0212
1.0659
1.10944
1.15182
1.19304
1.2331
1.27198
1.30966
1.34613
1.38138
1.4154
1.44815
1.47965
1.50987
1.53882
1.56648
1.59286
1.61797
1.6418
1.66436
1.68568
1.70575
1.7246
1.74226
1.75873
1.77405
1.78824
1.80132
1.81333
1.82429
1.83425
1.84325
1.85131
1.85846
1.86474
1.87019
1.87484
1.87872
1.88187
1.88432
1.8861
1.88726
1.88781
1.88779
1.88723
1.88615
1.88459
1.88257
1.88012
1.87726
1.87401
1.8704
1.86644
1.86217
1.85759
1.85272
1.84758
1.84219
1.83657
1.83071
1.82465
1.81839
1.81194
1.80532
1.79852
1.79157
1.78447
1.77723
1.76985
1.76234
1.75471
1.74696
1.7391
1.73113
1.72306
1.71488
1.7066
1.69823
1.68976
1.6812
1.67255
1.6638
1.65497
1.64604
1.63703
1.62793
1.61873
1.60945
1.60007
1.59061
1.58105
1.57139
1.56164
1.5518
1.54185
1.53181
1.52166
1.51141
1.50106
1.4906
1.48003
1.46935
1.45855
1.44765
1.43662
1.42548
1.41422
1.40283
1.39133
1.37969
1.36793
1.35605
1.34403
1.33188
1.3196
1.30718
1.29463
1.28195
1.26913
1.25617
1.24307
1.22984
1.21647
1.20296
1.18931
1.17552
1.1616
1.14754
1.13334
1.119
1.10454
1.08994
1.0752
1.06034
1.04535
1.03023
1.01498
0.999612
0.984122
0.968512
0.952785
0.936943
0.920989
0.904924
0.888751
0.872473
0.856091
0.839607
0.823025
0.806344
0.789568
0.772697
0.755732
0.738674
0.721524
0.704281
0.686944
0.669512
0.651982
0.634351
0.616615
0.598769
0.580804
0.562714
0.54449
0.526119
0.50759
0.488874
0.469929
0.450755
0.431311
0.411551
0.391426
0.37087
0.349803
0.328121
0.305682
0.282338
0.257884
0.23201
0.204276
0.174012
0.140063
0.0995742
0.0393092
0.0801099
0.201818
0.287251
0.362508
0.431559
0.496308
0.557796
0.616318
0.672519
0.726779
0.779327
0.830344
0.879961
0.92827
0.975337
1.0212
1.0659
1.10944
1.15182
1.19304
1.2331
1.27198
1.30966
1.34613
1.38138
1.41539
1.44815
1.47965
1.50987
1.53882
1.56648
1.59286
1.61797
1.6418
1.66436
1.68568
1.70575
1.7246
1.74226
1.75873
1.77405
1.78824
1.80132
1.81332
1.82429
1.83425
1.84325
1.85131
1.85846
1.86474
1.87019
1.87484
1.87872
1.88187
1.88432
1.8861
1.88725
1.88781
1.88779
1.88722
1.88615
1.88459
1.88257
1.88012
1.87726
1.87401
1.8704
1.86644
1.86217
1.85759
1.85272
1.84758
1.84219
1.83657
1.83071
1.82465
1.81839
1.81194
1.80531
1.79852
1.79157
1.78447
1.77723
1.76985
1.76234
1.75471
1.74696
1.7391
1.73113
1.72306
1.71488
1.7066
1.69823
1.68976
1.6812
1.67255
1.6638
1.65497
1.64604
1.63703
1.62792
1.61873
1.60945
1.60007
1.59061
1.58105
1.57139
1.56164
1.5518
1.54185
1.53181
1.52166
1.51141
1.50106
1.4906
1.48003
1.46935
1.45855
1.44764
1.43662
1.42548
1.41422
1.40283
1.39133
1.37969
1.36793
1.35605
1.34403
1.33188
1.3196
1.30718
1.29463
1.28195
1.26913
1.25617
1.24307
1.22984
1.21647
1.20296
1.18931
1.17552
1.1616
1.14753
1.13334
1.119
1.10454
1.08994
1.0752
1.06034
1.04535
1.03023
1.01498
0.999612
0.984121
0.968512
0.952785
0.936943
0.920988
0.904924
0.888751
0.872472
0.85609
0.839607
0.823024
0.806344
0.789567
0.772696
0.755732
0.738674
0.721524
0.704281
0.686944
0.669512
0.651982
0.634351
0.616615
0.598768
0.580804
0.562714
0.544489
0.526119
0.50759
0.488873
0.469928
0.450755
0.43131
0.411551
0.391426
0.37087
0.349803
0.32812
0.305682
0.282338
0.257884
0.23201
0.204276
0.174012
0.140063
0.0995744
0.039308
0.121185
0.287843
0.39481
0.486292
0.570203
0.649427
0.725128
0.797894
0.868162
0.936244
1.00236
1.06668
1.12931
1.19036
1.24989
1.30794
1.36453
1.41968
1.47339
1.52565
1.57645
1.62577
1.6736
1.71991
1.76468
1.8079
1.84954
1.88959
1.92804
1.96487
2.00008
2.03367
2.06565
2.096
2.12475
2.15191
2.17749
2.20152
2.22401
2.245
2.26451
2.28258
2.29924
2.31452
2.32847
2.34114
2.35256
2.36277
2.37182
2.37975
2.3866
2.39243
2.39726
2.40115
2.40414
2.40628
2.40759
2.40813
2.40793
2.40704
2.40548
2.4033
2.40053
2.3972
2.39334
2.38898
2.38416
2.3789
2.37323
2.36716
2.36073
2.35396
2.34687
2.33947
2.33178
2.32383
2.31563
2.30719
2.29852
2.28965
2.28057
2.27131
2.26187
2.25226
2.24249
2.23257
2.2225
2.21228
2.20194
2.19146
2.18086
2.17014
2.1593
2.14834
2.13726
2.12608
2.11478
2.10337
2.09185
2.08023
2.06849
2.05664
2.04469
2.03262
2.02044
2.00815
1.99574
1.98321
1.97057
1.9578
1.94492
1.93191
1.91877
1.9055
1.8921
1.87857
1.86491
1.8511
1.83716
1.82307
1.80883
1.79445
1.77992
1.76524
1.7504
1.73541
1.72025
1.70494
1.68947
1.67383
1.65803
1.64206
1.62592
1.60962
1.59314
1.5765
1.55969
1.5427
1.52555
1.50822
1.49073
1.47306
1.45523
1.43723
1.41906
1.40072
1.38222
1.36356
1.34474
1.32576
1.30662
1.28732
1.26788
1.24828
1.22854
1.20865
1.18863
1.16846
1.14816
1.12772
1.10716
1.08647
1.06565
1.04472
1.02366
1.00249
0.981197
0.959793
0.938275
0.916644
0.894899
0.87304
0.851064
0.82897
0.806753
0.784407
0.761927
0.739305
0.71653
0.693591
0.670472
0.647155
0.623614
0.599819
0.575737
0.551324
0.526539
0.50133
0.47562
0.449324
0.42233
0.394495
0.365633
0.335535
0.303872
0.270166
0.23363
0.192659
0.142414
0.0607922
0.121186
0.287843
0.39481
0.486293
0.570203
0.649427
0.725128
0.797894
0.868162
0.936244
1.00236
1.06668
1.12931
1.19036
1.24989
1.30794
1.36453
1.41968
1.47339
1.52565
1.57645
1.62577
1.6736
1.71991
1.76468
1.8079
1.84954
1.88959
1.92803
1.96487
2.00008
2.03367
2.06564
2.096
2.12475
2.15191
2.17749
2.20152
2.22401
2.245
2.26451
2.28258
2.29924
2.31452
2.32847
2.34114
2.35256
2.36277
2.37182
2.37975
2.3866
2.39243
2.39726
2.40115
2.40414
2.40627
2.40759
2.40813
2.40793
2.40704
2.40548
2.4033
2.40053
2.39719
2.39334
2.38898
2.38416
2.3789
2.37323
2.36716
2.36073
2.35396
2.34687
2.33947
2.33178
2.32383
2.31563
2.30718
2.29852
2.28964
2.28057
2.27131
2.26187
2.25226
2.24249
2.23256
2.22249
2.21228
2.20194
2.19146
2.18086
2.17014
2.1593
2.14834
2.13726
2.12608
2.11478
2.10337
2.09185
2.08023
2.06849
2.05664
2.04469
2.03262
2.02044
2.00814
1.99574
1.98321
1.97057
1.9578
1.94492
1.9319
1.91877
1.9055
1.8921
1.87857
1.86491
1.8511
1.83716
1.82307
1.80883
1.79445
1.77992
1.76524
1.7504
1.7354
1.72025
1.70494
1.68946
1.67383
1.65802
1.64206
1.62592
1.60962
1.59314
1.5765
1.55969
1.5427
1.52555
1.50822
1.49073
1.47306
1.45523
1.43723
1.41906
1.40072
1.38222
1.36356
1.34474
1.32575
1.30662
1.28732
1.26788
1.24828
1.22854
1.20865
1.18862
1.16846
1.14816
1.12772
1.10716
1.08647
1.06565
1.04472
1.02366
1.00249
0.981196
0.959792
0.938274
0.916643
0.894898
0.873039
0.851064
0.828969
0.806752
0.784407
0.761927
0.739305
0.71653
0.69359
0.670472
0.647155
0.623614
0.599818
0.575736
0.551324
0.526539
0.50133
0.47562
0.449324
0.42233
0.394495
0.365633
0.335535
0.303872
0.270166
0.23363
0.192659
0.142415
0.0607924
0.15537
0.361004
0.48543
0.588535
0.682745
0.771798
0.857159
0.939526
1.01931
1.09678
1.17213
1.24549
1.31698
1.38667
1.45463
1.52088
1.58546
1.64837
1.70963
1.76923
1.82715
1.88338
1.9379
1.99069
2.04173
2.091
2.13848
2.18416
2.22802
2.27004
2.31023
2.34858
2.38509
2.41976
2.45261
2.48365
2.51289
2.54036
2.56608
2.59008
2.6124
2.63306
2.65212
2.6696
2.68555
2.70003
2.71307
2.72472
2.73504
2.74407
2.75185
2.75845
2.7639
2.76827
2.77159
2.77392
2.7753
2.77579
2.77542
2.77425
2.77231
2.76964
2.76629
2.76229
2.75768
2.7525
2.74677
2.74054
2.73383
2.72667
2.71909
2.71111
2.70275
2.69405
2.68502
2.67568
2.66605
2.65615
2.646
2.6356
2.62497
2.61413
2.60309
2.59185
2.58043
2.56884
2.55708
2.54516
2.53309
2.52087
2.50851
2.49602
2.48338
2.47062
2.45773
2.44472
2.43158
2.41831
2.40493
2.39142
2.37779
2.36404
2.35016
2.33616
2.32204
2.30779
2.29341
2.2789
2.26426
2.24948
2.23457
2.21952
2.20433
2.18899
2.17351
2.15788
2.1421
2.12616
2.11006
2.09381
2.07739
2.06081
2.04406
2.02714
2.01005
1.99278
1.97534
1.95772
1.93991
1.92192
1.90375
1.88539
1.86685
1.84811
1.82919
1.81008
1.79077
1.77128
1.75159
1.73171
1.71164
1.69138
1.67093
1.6503
1.62947
1.60846
1.58727
1.56589
1.54433
1.5226
1.50068
1.4786
1.45634
1.43392
1.41133
1.38859
1.36568
1.34262
1.3194
1.29604
1.27254
1.24889
1.2251
1.20117
1.17711
1.15292
1.1286
1.10416
1.07958
1.05488
1.03005
1.0051
0.980014
0.954798
0.929446
0.903953
0.878312
0.852514
0.82655
0.800406
0.774067
0.747512
0.720718
0.693654
0.666287
0.638575
0.610472
0.581918
0.552838
0.523157
0.492761
0.461509
0.429216
0.395649
0.360473
0.323145
0.282696
0.236958
0.179169
0.0789266
0.155371
0.361005
0.485431
0.588535
0.682745
0.771798
0.857159
0.939526
1.01931
1.09678
1.17213
1.24549
1.31698
1.38667
1.45462
1.52088
1.58546
1.64837
1.70963
1.76923
1.82715
1.88338
1.9379
1.99069
2.04173
2.091
2.13848
2.18416
2.22802
2.27004
2.31023
2.34858
2.38509
2.41976
2.45261
2.48365
2.51289
2.54036
2.56608
2.59008
2.6124
2.63306
2.65212
2.6696
2.68555
2.70002
2.71307
2.72472
2.73504
2.74407
2.75185
2.75845
2.7639
2.76827
2.77159
2.77392
2.7753
2.77579
2.77542
2.77425
2.7723
2.76964
2.76629
2.76229
2.75768
2.7525
2.74677
2.74054
2.73383
2.72667
2.71909
2.71111
2.70275
2.69405
2.68502
2.67568
2.66605
2.65615
2.646
2.6356
2.62497
2.61413
2.60309
2.59185
2.58043
2.56884
2.55708
2.54516
2.53309
2.52087
2.50851
2.49601
2.48338
2.47062
2.45773
2.44472
2.43158
2.41831
2.40493
2.39142
2.37779
2.36404
2.35016
2.33616
2.32204
2.30779
2.29341
2.2789
2.26426
2.24948
2.23457
2.21952
2.20433
2.18899
2.17351
2.15788
2.14209
2.12616
2.11006
2.09381
2.07739
2.06081
2.04406
2.02714
2.01005
1.99278
1.97534
1.95771
1.93991
1.92192
1.90375
1.88539
1.86685
1.84811
1.82919
1.81007
1.79077
1.77127
1.75159
1.73171
1.71164
1.69138
1.67093
1.65029
1.62947
1.60846
1.58726
1.56589
1.54433
1.52259
1.50068
1.4786
1.45634
1.43392
1.41133
1.38859
1.36568
1.34262
1.3194
1.29604
1.27254
1.24889
1.2251
1.20117
1.17711
1.15292
1.1286
1.10416
1.07958
1.05488
1.03005
1.0051
0.980013
0.954797
0.929445
0.903952
0.878311
0.852514
0.82655
0.800406
0.774067
0.747512
0.720718
0.693654
0.666286
0.638575
0.610472
0.581917
0.552838
0.523157
0.492761
0.461509
0.429216
0.395649
0.360473
0.323145
0.282696
0.236958
0.17917
0.0789267
0.186247
0.426808
0.56795
0.682067
0.785366
0.882712
0.976
1.0661
1.15346
1.23836
1.32097
1.40141
1.47978
1.55614
1.63056
1.70306
1.77368
1.84243
1.90933
1.97436
2.03754
2.09884
2.15825
2.21577
2.27137
2.32503
2.37674
2.42648
2.47425
2.52003
2.56382
2.60561
2.64541
2.68322
2.71905
2.75292
2.78484
2.81483
2.84292
2.86915
2.89354
2.91613
2.93696
2.95608
2.97353
2.98936
3.00362
3.01636
3.02763
3.03748
3.04597
3.05315
3.05907
3.06379
3.06736
3.06984
3.07127
3.0717
3.0712
3.0698
3.06754
3.06449
3.06068
3.05615
3.05094
3.0451
3.03866
3.03165
3.02411
3.01607
3.00757
2.99862
2.98926
2.97952
2.96941
2.95896
2.94818
2.93711
2.92576
2.91413
2.90226
2.89015
2.87782
2.86527
2.85252
2.83959
2.82647
2.81317
2.79971
2.78609
2.77232
2.75839
2.74432
2.73011
2.71576
2.70127
2.68665
2.67189
2.657
2.64198
2.62683
2.61154
2.59612
2.58057
2.56488
2.54906
2.5331
2.517
2.50075
2.48437
2.46783
2.45115
2.43431
2.41732
2.40017
2.38286
2.36538
2.34774
2.32993
2.31195
2.29379
2.27546
2.25694
2.23824
2.21936
2.20028
2.18101
2.16155
2.1419
2.12205
2.10199
2.08174
2.06128
2.04063
2.01976
1.99869
1.97742
1.95593
1.93425
1.91235
1.89025
1.86794
1.84543
1.82271
1.79979
1.77667
1.75336
1.72984
1.70613
1.68222
1.65813
1.63385
1.60938
1.58473
1.5599
1.5349
1.50973
1.48439
1.45888
1.43321
1.40739
1.38141
1.35528
1.329
1.30257
1.27601
1.2493
1.22245
1.19546
1.16834
1.14108
1.11368
1.08615
1.05847
1.03064
1.00267
0.974537
0.946239
0.917765
0.889103
0.860236
0.831145
0.801808
0.772196
0.742276
0.712009
0.681349
0.650237
0.618605
0.586369
0.553416
0.51961
0.484766
0.448618
0.410799
0.370668
0.32702
0.277094
0.212356
0.0950351
0.186248
0.426808
0.56795
0.682067
0.785366
0.882711
0.976
1.0661
1.15346
1.23836
1.32097
1.40141
1.47978
1.55614
1.63055
1.70306
1.77368
1.84243
1.90932
1.97436
2.03754
2.09884
2.15825
2.21577
2.27136
2.32503
2.37674
2.42648
2.47425
2.52003
2.56382
2.60561
2.64541
2.68322
2.71905
2.75292
2.78483
2.81483
2.84292
2.86915
2.89354
2.91613
2.93696
2.95608
2.97353
2.98936
3.00362
3.01636
3.02763
3.03748
3.04597
3.05315
3.05907
3.06379
3.06736
3.06984
3.07127
3.0717
3.0712
3.06979
3.06754
3.06449
3.06068
3.05615
3.05094
3.0451
3.03865
3.03165
3.02411
3.01607
3.00757
2.99862
2.98926
2.97952
2.96941
2.95895
2.94818
2.93711
2.92575
2.91413
2.90226
2.89015
2.87781
2.86527
2.85252
2.83958
2.82647
2.81317
2.79971
2.78609
2.77232
2.75839
2.74432
2.73011
2.71576
2.70127
2.68665
2.67189
2.657
2.64198
2.62683
2.61154
2.59612
2.58057
2.56488
2.54906
2.5331
2.517
2.50075
2.48436
2.46783
2.45115
2.43431
2.41732
2.40017
2.38286
2.36538
2.34774
2.32993
2.31195
2.29379
2.27546
2.25694
2.23824
2.21935
2.20028
2.18101
2.16155
2.1419
2.12204
2.10199
2.08174
2.06128
2.04062
2.01976
1.99869
1.97742
1.95593
1.93424
1.91235
1.89025
1.86794
1.84543
1.82271
1.79979
1.77667
1.75335
1.72984
1.70613
1.68222
1.65813
1.63385
1.60938
1.58473
1.5599
1.5349
1.50973
1.48439
1.45888
1.43321
1.40739
1.38141
1.35528
1.329
1.30257
1.27601
1.2493
1.22245
1.19546
1.16834
1.14108
1.11368
1.08615
1.05847
1.03064
1.00267
0.974537
0.946239
0.917765
0.889102
0.860235
0.831145
0.801807
0.772195
0.742276
0.712009
0.681348
0.650237
0.618605
0.586369
0.553416
0.51961
0.484766
0.448618
0.410799
0.370668
0.32702
0.277094
0.212356
0.0950351
0.214619
0.488634
0.64589
0.77092
0.882974
0.988034
1.08848
1.18539
1.27931
1.37055
1.45927
1.54562
1.62966
1.71148
1.79113
1.86864
1.94406
2.0174
2.08869
2.15793
2.22513
2.29029
2.3534
2.41446
2.47346
2.53039
2.58524
2.63799
2.68865
2.73721
2.78366
2.828
2.87023
2.91037
2.94842
2.98439
3.01832
3.0502
3.08009
3.108
3.13396
3.15802
3.18022
3.2006
3.2192
3.23609
3.2513
3.26488
3.2769
3.28741
3.29646
3.30411
3.31041
3.31542
3.31919
3.32179
3.32327
3.32367
3.32306
3.32148
3.31899
3.31563
3.31145
3.3065
3.30081
3.29444
3.28742
3.27978
3.27157
3.26282
3.25356
3.24383
3.23365
3.22304
3.21205
3.20068
3.18897
3.17693
3.16458
3.15194
3.13904
3.12588
3.11247
3.09884
3.08499
3.07093
3.05668
3.04224
3.02762
3.01283
2.99787
2.98275
2.96748
2.95205
2.93648
2.92076
2.90489
2.88889
2.87274
2.85645
2.84002
2.82345
2.80674
2.78988
2.77289
2.75575
2.73846
2.72102
2.70343
2.68569
2.6678
2.64974
2.63153
2.61315
2.5946
2.57588
2.55699
2.53793
2.51868
2.49925
2.47964
2.45983
2.43984
2.41965
2.39926
2.37867
2.35788
2.33689
2.31569
2.29428
2.27265
2.25082
2.22877
2.2065
2.18402
2.16132
2.1384
2.11526
2.0919
2.06833
2.04453
2.02051
1.99628
1.97183
1.94717
1.92229
1.8972
1.8719
1.84639
1.82068
1.79477
1.76865
1.74234
1.71583
1.68914
1.66225
1.63519
1.60794
1.58051
1.55292
1.52515
1.49722
1.46912
1.44087
1.41246
1.3839
1.35518
1.32631
1.2973
1.26814
1.23883
1.20937
1.17977
1.15001
1.1201
1.09003
1.0598
1.02939
0.998797
0.96801
0.937013
0.905789
0.874315
0.842565
0.810509
0.778108
0.745317
0.712081
0.678333
0.643987
0.608933
0.573025
0.536062
0.497749
0.457655
0.41503
0.368413
0.314474
0.243079
0.109797
0.214619
0.488634
0.645891
0.77092
0.882973
0.988034
1.08848
1.18539
1.27931
1.37055
1.45927
1.54562
1.62966
1.71148
1.79113
1.86864
1.94406
2.0174
2.08869
2.15793
2.22513
2.29029
2.3534
2.41446
2.47346
2.53039
2.58524
2.63799
2.68865
2.73721
2.78366
2.82799
2.87023
2.91037
2.94842
2.98439
3.01831
3.0502
3.08009
3.10799
3.13396
3.15802
3.18022
3.2006
3.2192
3.23609
3.2513
3.26488
3.2769
3.28741
3.29646
3.3041
3.3104
3.31541
3.31919
3.32179
3.32326
3.32367
3.32306
3.32148
3.31899
3.31563
3.31145
3.3065
3.30081
3.29444
3.28742
3.27978
3.27157
3.26282
3.25356
3.24383
3.23364
3.22304
3.21205
3.20068
3.18897
3.17693
3.16458
3.15194
3.13904
3.12587
3.11247
3.09884
3.08499
3.07093
3.05668
3.04224
3.02762
3.01283
2.99787
2.98275
2.96748
2.95205
2.93648
2.92076
2.90489
2.88889
2.87274
2.85645
2.84002
2.82345
2.80674
2.78988
2.77289
2.75575
2.73846
2.72102
2.70343
2.68569
2.6678
2.64974
2.63153
2.61315
2.5946
2.57588
2.55699
2.53793
2.51868
2.49925
2.47964
2.45983
2.43984
2.41965
2.39926
2.37867
2.35788
2.33689
2.31569
2.29428
2.27265
2.25082
2.22877
2.2065
2.18402
2.16132
2.1384
2.11526
2.0919
2.06832
2.04453
2.02051
1.99628
1.97183
1.94717
1.92229
1.8972
1.8719
1.84639
1.82068
1.79477
1.76865
1.74234
1.71583
1.68914
1.66225
1.63518
1.60794
1.58051
1.55292
1.52515
1.49722
1.46912
1.44087
1.41246
1.3839
1.35518
1.32631
1.2973
1.26814
1.23883
1.20937
1.17977
1.15001
1.1201
1.09003
1.0598
1.02939
0.998796
0.96801
0.937013
0.905789
0.874315
0.842565
0.810509
0.778107
0.745317
0.712081
0.678333
0.643987
0.608933
0.573025
0.536062
0.497749
0.457655
0.41503
0.368413
0.314474
0.243079
0.109797
0.241409
0.547747
0.720937
0.856872
0.977591
1.09013
1.19734
1.30054
1.4004
1.49727
1.59136
1.6828
1.7717
1.85812
1.94212
2.02375
2.10306
2.18008
2.25485
2.32738
2.39769
2.4658
2.53171
2.59544
2.65697
2.71632
2.77348
2.82845
2.88122
2.9318
2.98019
3.02639
3.07041
3.11226
3.15194
3.18947
3.22488
3.25818
3.2894
3.31857
3.34573
3.37091
3.39416
3.41551
3.43501
3.45271
3.46867
3.48292
3.49554
3.50657
3.51607
3.5241
3.53072
3.53597
3.53993
3.54264
3.54416
3.54456
3.54388
3.54218
3.5395
3.53591
3.53145
3.52616
3.52009
3.5133
3.50581
3.49767
3.48891
3.47958
3.46971
3.45933
3.44847
3.43717
3.42544
3.41332
3.40082
3.38798
3.37481
3.36133
3.34756
3.33352
3.31922
3.30467
3.2899
3.2749
3.25969
3.24429
3.22869
3.21291
3.19696
3.18083
3.16454
3.14808
3.13147
3.1147
3.09778
3.08071
3.06349
3.04612
3.02861
3.01094
2.99313
2.97517
2.95705
2.93879
2.92037
2.90179
2.88306
2.86416
2.84511
2.82588
2.80649
2.78692
2.76718
2.74726
2.72716
2.70687
2.6864
2.66573
2.64487
2.62381
2.60255
2.58109
2.55942
2.53754
2.51545
2.49314
2.47062
2.44787
2.42491
2.40172
2.37831
2.35467
2.3308
2.3067
2.28238
2.25782
2.23304
2.20802
2.18278
2.1573
2.1316
2.10566
2.0795
2.05312
2.02651
1.99968
1.97264
1.94537
1.91789
1.8902
1.8623
1.8342
1.80589
1.77739
1.74869
1.7198
1.69072
1.66145
1.63201
1.60239
1.57259
1.54262
1.51249
1.48219
1.45173
1.4211
1.39032
1.35938
1.32828
1.29702
1.26561
1.23403
1.20229
1.17039
1.1383
1.10604
1.07359
1.04094
1.00807
0.974974
0.941626
0.908001
0.874071
0.8398
0.805144
0.770049
0.734447
0.698251
0.661345
0.623573
0.584715
0.544443
0.502238
0.457231
0.407713
0.349831
0.271986
0.123586
0.241409
0.547747
0.720937
0.856872
0.977591
1.09013
1.19734
1.30054
1.4004
1.49727
1.59136
1.6828
1.7717
1.85811
1.94212
2.02375
2.10306
2.18008
2.25484
2.32737
2.39769
2.4658
2.53171
2.59544
2.65697
2.71632
2.77348
2.82845
2.88122
2.9318
2.98019
3.02639
3.07041
3.11225
3.15194
3.18947
3.22488
3.25818
3.2894
3.31857
3.34573
3.37091
3.39416
3.4155
3.43501
3.45271
3.46866
3.48292
3.49554
3.50657
3.51607
3.5241
3.53071
3.53597
3.53993
3.54264
3.54416
3.54456
3.54388
3.54217
3.5395
3.53591
3.53144
3.52616
3.52009
3.5133
3.50581
3.49767
3.48891
3.47958
3.46971
3.45933
3.44847
3.43717
3.42544
3.41332
3.40082
3.38798
3.37481
3.36133
3.34756
3.33352
3.31922
3.30467
3.2899
3.2749
3.25969
3.24429
3.22869
3.21291
3.19696
3.18083
3.16453
3.14808
3.13147
3.1147
3.09778
3.08071
3.06349
3.04612
3.02861
3.01094
2.99313
2.97517
2.95705
2.93879
2.92037
2.90179
2.88306
2.86416
2.8451
2.82588
2.80649
2.78692
2.76718
2.74726
2.72716
2.70687
2.6864
2.66573
2.64487
2.62381
2.60255
2.58109
2.55942
2.53754
2.51545
2.49314
2.47062
2.44787
2.42491
2.40172
2.37831
2.35467
2.3308
2.3067
2.28238
2.25782
2.23304
2.20802
2.18277
2.1573
2.13159
2.10566
2.0795
2.05312
2.02651
1.99968
1.97264
1.94537
1.91789
1.8902
1.8623
1.8342
1.80589
1.77739
1.74869
1.7198
1.69072
1.66145
1.63201
1.60239
1.57259
1.54262
1.51249
1.48219
1.45173
1.4211
1.39032
1.35938
1.32828
1.29702
1.26561
1.23403
1.20229
1.17038
1.1383
1.10604
1.07359
1.04094
1.00807
0.974974
0.941625
0.908001
0.874071
0.8398
0.805144
0.770049
0.734447
0.698251
0.661345
0.623573
0.584715
0.544443
0.502238
0.457231
0.407713
0.349831
0.271987
0.123586
0.267849
0.60514
0.794092
0.940903
1.07024
1.19013
1.30386
1.41302
1.51839
1.6204
1.7193
1.81524
1.90835
1.99871
2.08638
2.17144
2.25393
2.33392
2.41144
2.48653
2.55924
2.62958
2.69758
2.76327
2.82665
2.88774
2.94655
3.00308
3.05735
3.10935
3.15911
3.20661
3.25188
3.29493
3.33577
3.37441
3.41088
3.4452
3.47739
3.50749
3.53552
3.56153
3.58556
3.60764
3.62782
3.64616
3.66269
3.67747
3.69056
3.70201
3.71188
3.72022
3.7271
3.73256
3.73668
3.73949
3.74108
3.74148
3.74076
3.73898
3.73617
3.73241
3.72773
3.72219
3.71583
3.7087
3.70084
3.6923
3.68312
3.67332
3.66296
3.65205
3.64065
3.62877
3.61644
3.6037
3.59056
3.57705
3.5632
3.54902
3.53454
3.51976
3.50471
3.4894
3.47385
3.45806
3.44206
3.42584
3.40942
3.3928
3.376
3.35902
3.34186
3.32453
3.30704
3.28938
3.27157
3.25359
3.23546
3.21717
3.19873
3.18013
3.16137
3.14246
3.12339
3.10416
3.08477
3.06522
3.0455
3.02561
3.00555
2.98532
2.96491
2.94433
2.92356
2.9026
2.88146
2.86012
2.83859
2.81686
2.79492
2.77278
2.75043
2.72787
2.7051
2.6821
2.65889
2.63545
2.61178
2.58789
2.56376
2.5394
2.51481
2.48999
2.46492
2.43962
2.41408
2.38829
2.36227
2.33601
2.30951
2.28276
2.25578
2.22856
2.20111
2.17341
2.14549
2.11733
2.08894
2.06032
2.03148
2.00241
1.97313
1.94363
1.91391
1.88399
1.85385
1.82352
1.79298
1.76225
1.73133
1.70021
1.66891
1.63743
1.60576
1.57392
1.54191
1.50972
1.47736
1.44483
1.41213
1.37926
1.34623
1.31302
1.27963
1.24607
1.21233
1.1784
1.14427
1.10994
1.07538
1.04059
1.00555
0.970228
0.934603
0.898638
0.862291
0.825506
0.788214
0.750323
0.71171
0.672204
0.631561
0.58941
0.545158
0.497803
0.445413
0.383632
0.299507
0.136642
0.26785
0.605141
0.794092
0.940903
1.07024
1.19013
1.30386
1.41302
1.51839
1.62039
1.71929
1.81524
1.90835
1.99871
2.08638
2.17144
2.25393
2.33392
2.41144
2.48653
2.55924
2.62958
2.69758
2.76327
2.82665
2.88774
2.94655
3.00308
3.05735
3.10935
3.1591
3.20661
3.25188
3.29493
3.33577
3.37441
3.41088
3.4452
3.47739
3.50749
3.53552
3.56153
3.58556
3.60764
3.62782
3.64616
3.66269
3.67747
3.69056
3.70201
3.71188
3.72022
3.7271
3.73256
3.73667
3.73949
3.74108
3.74148
3.74076
3.73898
3.73617
3.73241
3.72773
3.72219
3.71583
3.7087
3.70084
3.6923
3.68312
3.67332
3.66296
3.65205
3.64065
3.62876
3.61644
3.6037
3.59056
3.57705
3.5632
3.54902
3.53454
3.51976
3.50471
3.4894
3.47385
3.45806
3.44206
3.42584
3.40942
3.3928
3.376
3.35902
3.34186
3.32453
3.30704
3.28938
3.27157
3.25359
3.23546
3.21717
3.19873
3.18013
3.16137
3.14246
3.12339
3.10416
3.08477
3.06521
3.0455
3.02561
3.00555
2.98532
2.96491
2.94433
2.92356
2.9026
2.88146
2.86012
2.83859
2.81686
2.79492
2.77278
2.75043
2.72787
2.7051
2.6821
2.65888
2.63545
2.61178
2.58789
2.56376
2.5394
2.51481
2.48999
2.46492
2.43962
2.41408
2.38829
2.36227
2.33601
2.30951
2.28276
2.25578
2.22856
2.20111
2.17341
2.14549
2.11733
2.08894
2.06032
2.03148
2.00241
1.97313
1.94363
1.91391
1.88399
1.85385
1.82352
1.79298
1.76225
1.73133
1.70021
1.66891
1.63743
1.60576
1.57392
1.54191
1.50972
1.47736
1.44483
1.41213
1.37926
1.34623
1.31302
1.27963
1.24607
1.21233
1.1784
1.14427
1.10994
1.07538
1.04059
1.00555
0.970228
0.934603
0.898638
0.862291
0.825506
0.788213
0.750322
0.71171
0.672204
0.631561
0.58941
0.545158
0.497803
0.445413
0.383632
0.299507
0.136642
0.29398
0.661506
0.865995
1.02362
1.16153
1.28866
1.40875
1.5236
1.63415
1.74091
1.84418
1.94415
2.04096
2.13471
2.2255
2.3134
2.3985
2.48085
2.56053
2.6376
2.71209
2.78407
2.85358
2.92064
2.98529
3.04756
3.10747
3.16503
3.22027
3.2732
3.32383
3.37218
3.41826
3.46209
3.50368
3.54306
3.58023
3.61523
3.64808
3.67882
3.70747
3.73406
3.75865
3.78126
3.80194
3.82074
3.83771
3.85289
3.86634
3.87812
3.88828
3.89688
3.90397
3.90961
3.91386
3.91678
3.91843
3.91886
3.91813
3.91629
3.91341
3.90952
3.90469
3.89896
3.89238
3.885
3.87687
3.86801
3.85849
3.84833
3.83758
3.82626
3.81441
3.80207
3.78926
3.77602
3.76236
3.74832
3.73391
3.71916
3.70408
3.6887
3.67303
3.65709
3.6409
3.62445
3.60778
3.59088
3.57377
3.55646
3.53894
3.52124
3.50336
3.48529
3.46706
3.44865
3.43007
3.41133
3.39242
3.37335
3.35411
3.33472
3.31516
3.29544
3.27555
3.2555
3.23528
3.21489
3.19432
3.17359
3.15267
3.13158
3.1103
3.08884
3.06719
3.04534
3.0233
3.00106
2.97861
2.95596
2.9331
2.91003
2.88674
2.86323
2.83949
2.81553
2.79135
2.76693
2.74227
2.71738
2.69225
2.66688
2.64127
2.61541
2.58931
2.56296
2.53636
2.50951
2.48241
2.45506
2.42747
2.39962
2.37152
2.34318
2.31459
2.28575
2.25667
2.22734
2.19777
2.16797
2.13793
2.10765
2.07714
2.04641
2.01545
1.98426
1.95286
1.92124
1.88941
1.85737
1.82513
1.79268
1.76003
1.72719
1.69415
1.66093
1.62751
1.59391
1.56012
1.52615
1.492
1.45767
1.42316
1.38846
1.35357
1.3185
1.28324
1.24777
1.2121
1.17622
1.14011
1.10376
1.06715
1.03026
0.993068
0.95553
0.917607
0.879243
0.840364
0.800873
0.760635
0.719465
0.677087
0.633088
0.586805
0.537099
0.481827
0.416167
0.325891
0.149201
0.293981
0.661507
0.865995
1.02362
1.16153
1.28866
1.40875
1.5236
1.63415
1.74091
1.84418
1.94415
2.04096
2.13471
2.2255
2.3134
2.3985
2.48085
2.56053
2.6376
2.71209
2.78407
2.85358
2.92064
2.98529
3.04756
3.10747
3.16503
3.22027
3.2732
3.32383
3.37218
3.41826
3.46209
3.50368
3.54305
3.58023
3.61523
3.64808
3.67882
3.70747
3.73406
3.75864
3.78126
3.80194
3.82074
3.83771
3.85289
3.86634
3.87812
3.88828
3.89688
3.90396
3.90961
3.91386
3.91678
3.91843
3.91886
3.91813
3.91629
3.91341
3.90952
3.90469
3.89896
3.89238
3.885
3.87687
3.86801
3.85849
3.84833
3.83758
3.82626
3.81441
3.80207
3.78926
3.77602
3.76236
3.74832
3.73391
3.71915
3.70408
3.6887
3.67303
3.65709
3.6409
3.62445
3.60778
3.59088
3.57377
3.55645
3.53894
3.52124
3.50336
3.48529
3.46706
3.44865
3.43007
3.41133
3.39242
3.37335
3.35411
3.33472
3.31516
3.29544
3.27555
3.2555
3.23528
3.21489
3.19432
3.17359
3.15267
3.13158
3.1103
3.08884
3.06718
3.04534
3.0233
3.00106
2.97861
2.95596
2.9331
2.91003
2.88674
2.86323
2.83949
2.81553
2.79135
2.76693
2.74227
2.71738
2.69225
2.66688
2.64127
2.61541
2.58931
2.56296
2.53636
2.50951
2.48241
2.45506
2.42747
2.39962
2.37152
2.34318
2.31459
2.28575
2.25667
2.22734
2.19777
2.16797
2.13793
2.10765
2.07714
2.04641
2.01545
1.98426
1.95286
1.92124
1.88941
1.85737
1.82513
1.79268
1.76003
1.72719
1.69415
1.66093
1.62751
1.59391
1.56012
1.52615
1.492
1.45767
1.42316
1.38846
1.35357
1.3185
1.28323
1.24777
1.2121
1.17622
1.14011
1.10376
1.06715
1.03026
0.993068
0.95553
0.917607
0.879243
0.840364
0.800873
0.760635
0.719465
0.677087
0.633088
0.586806
0.537099
0.481827
0.416167