/*--------------------------------*- C++ -*----------------------------------*\
  =========                 |
  \\      /  F ield         | OpenFOAM: The Open Source CFD Toolbox
   \\    /   O peration     | Website:  https://openfoam.org
    \\  /    A nd           | Version:  8
     \\/     M anipulation  |
\*---------------------------------------------------------------------------*/
FoamFile
{
    version     2.0;
    format      ascii;
    class       surfaceScalarField;
    location    "4000";
    object      phi;
}
// * * * * * * * * * * * * * * * * * * * * * * * * * * * * * * * * * * * * * //

dimensions      [1 0 -1 0 0 0 0];

internalField   nonuniform List<scalar> 
119360
(
-3.5416e-07
2.22288e-12
3.54158e-07
-6.36766e-07
2.96927e-13
2.82559e-07
-7.79252e-07
2.70116e-13
1.42473e-07
-7.90806e-07
1.1363e-13
1.15429e-08
-7.03695e-07
1.09902e-14
-8.71211e-08
-5.47907e-07
-6.55318e-14
-1.55797e-07
-3.45789e-07
-1.17185e-13
-2.02127e-07
-1.13432e-07
-1.51324e-13
-2.32366e-07
1.37401e-07
-1.78635e-13
-2.50841e-07
3.97947e-07
-1.90876e-13
-2.60555e-07
6.62165e-07
-1.82937e-13
-2.64226e-07
9.25927e-07
-1.68282e-13
-2.6377e-07
1.18623e-06
-1.49908e-13
-2.60309e-07
1.44088e-06
-1.29896e-13
-2.54655e-07
1.68825e-06
-1.09413e-13
-2.47383e-07
1.92716e-06
-8.94285e-14
-2.38917e-07
2.15673e-06
-7.03881e-14
-2.29573e-07
2.37632e-06
-5.28743e-14
-2.19597e-07
2.58549e-06
-3.68315e-14
-2.09179e-07
2.78396e-06
-2.24819e-14
-1.98473e-07
2.97155e-06
-9.74203e-15
-1.87601e-07
3.14821e-06
1.55453e-15
-1.76664e-07
3.31395e-06
1.15327e-14
-1.65744e-07
3.46885e-06
2.01369e-14
-1.54912e-07
3.61307e-06
2.76865e-14
-1.44224e-07
3.74679e-06
3.40009e-14
-1.33729e-07
3.87025e-06
3.93717e-14
-1.23468e-07
3.98372e-06
4.37293e-14
-1.13474e-07
4.08749e-06
4.72959e-14
-1.03776e-07
4.18188e-06
5.00715e-14
-9.4397e-08
4.26723e-06
5.20977e-14
-8.53551e-08
4.34389e-06
5.33884e-14
-7.66653e-08
4.41222e-06
5.42488e-14
-6.83387e-08
4.4726e-06
5.4568e-14
-6.0383e-08
4.5254e-06
5.44015e-14
-5.28032e-08
4.57099e-06
5.38464e-14
-4.56016e-08
4.60977e-06
5.29167e-14
-3.87783e-08
4.64209e-06
5.17787e-14
-3.2331e-08
4.66834e-06
5.02799e-14
-2.62558e-08
4.68889e-06
4.85869e-14
-2.0547e-08
4.70408e-06
4.6866e-14
-1.51976e-08
4.71427e-06
4.49371e-14
-1.01993e-08
4.71981e-06
4.29942e-14
-5.5428e-09
4.72102e-06
4.09126e-14
-1.21634e-09
4.71823e-06
3.88309e-14
2.79163e-09
4.71173e-06
3.69158e-14
6.49246e-09
4.70183e-06
3.49729e-14
9.89913e-09
4.6888e-06
3.30717e-14
1.3025e-08
4.67291e-06
3.12537e-14
1.58834e-08
4.65442e-06
2.95607e-14
1.84875e-08
4.63356e-06
2.79092e-14
2.08507e-08
4.61057e-06
2.64382e-14
2.29861e-08
4.58566e-06
2.5106e-14
2.4907e-08
4.55903e-06
2.3857e-14
2.66265e-08
4.53087e-06
2.27884e-14
2.81573e-08
4.50135e-06
2.18448e-14
2.95121e-08
4.47065e-06
2.11231e-14
3.07029e-08
4.4389e-06
2.04709e-14
3.17416e-08
4.40626e-06
1.99852e-14
3.26396e-08
4.37285e-06
1.9666e-14
3.34077e-08
4.33879e-06
1.94579e-14
3.40564e-08
4.30419e-06
1.9444e-14
3.45955e-08
4.26915e-06
1.94995e-14
3.50346e-08
4.23377e-06
1.97216e-14
3.53826e-08
4.19811e-06
2.00547e-14
3.56479e-08
4.16227e-06
2.04016e-14
3.58383e-08
4.12631e-06
2.09151e-14
3.59613e-08
4.09028e-06
2.15258e-14
3.60239e-08
4.05425e-06
2.23029e-14
3.60325e-08
4.01825e-06
2.31217e-14
3.5993e-08
3.98234e-06
2.3996e-14
3.59111e-08
3.94654e-06
2.49258e-14
3.57918e-08
3.9109e-06
2.59528e-14
3.564e-08
3.87543e-06
2.69936e-14
3.54599e-08
3.84018e-06
2.80484e-14
3.52556e-08
3.80514e-06
2.92002e-14
3.50307e-08
3.77035e-06
3.04353e-14
3.47885e-08
3.73581e-06
3.16149e-14
3.45322e-08
3.70155e-06
3.27946e-14
3.42645e-08
3.66756e-06
3.40158e-14
3.39879e-08
3.63385e-06
3.53203e-14
3.37047e-08
3.60043e-06
3.65138e-14
3.3417e-08
3.5673e-06
3.76934e-14
3.31267e-08
3.53446e-06
3.89701e-14
3.28354e-08
3.50191e-06
4.02191e-14
3.25448e-08
3.46965e-06
4.15514e-14
3.22561e-08
3.43768e-06
4.2731e-14
3.19707e-08
3.40598e-06
4.39939e-14
3.16897e-08
3.37457e-06
4.51873e-14
3.14142e-08
3.34342e-06
4.63253e-14
3.11449e-08
3.31253e-06
4.75327e-14
3.08829e-08
3.2819e-06
4.86706e-14
3.06289e-08
3.25151e-06
4.97808e-14
3.03835e-08
3.22136e-06
5.09466e-14
3.01475e-08
3.19144e-06
5.2029e-14
2.99213e-08
3.16173e-06
5.30559e-14
2.97056e-08
3.13222e-06
5.41106e-14
2.95009e-08
3.10291e-06
5.50404e-14
2.93076e-08
3.07378e-06
5.60257e-14
2.91261e-08
3.04482e-06
5.69278e-14
2.89569e-08
3.01602e-06
5.78576e-14
2.88004e-08
2.98736e-06
5.88429e-14
2.86568e-08
2.95883e-06
5.9731e-14
2.85267e-08
2.93041e-06
6.06053e-14
2.84102e-08
2.9021e-06
6.13825e-14
2.83078e-08
2.87388e-06
6.22429e-14
2.82196e-08
2.84573e-06
6.30478e-14
2.81461e-08
2.81764e-06
6.37416e-14
2.80875e-08
2.78959e-06
6.45188e-14
2.8044e-08
2.76157e-06
6.52681e-14
2.8016e-08
2.73356e-06
6.59759e-14
2.80037e-08
2.70555e-06
6.67253e-14
2.80073e-08
2.67752e-06
6.73914e-14
2.80271e-08
2.64945e-06
6.80991e-14
2.80633e-08
2.62133e-06
6.87514e-14
2.81161e-08
2.59314e-06
6.93203e-14
2.81858e-08
2.56486e-06
7.00003e-14
2.82726e-08
2.53648e-06
7.05971e-14
2.83766e-08
2.50798e-06
7.12354e-14
2.84981e-08
2.47934e-06
7.18044e-14
2.86371e-08
2.45054e-06
7.23178e-14
2.87939e-08
2.42157e-06
7.28313e-14
2.89686e-08
2.3924e-06
7.34558e-14
2.91614e-08
2.36302e-06
7.39554e-14
2.93722e-08
2.33342e-06
7.44688e-14
2.96013e-08
2.30356e-06
7.50378e-14
2.98487e-08
2.27345e-06
7.55374e-14
3.01144e-08
2.24304e-06
7.60925e-14
3.03985e-08
2.21234e-06
7.66337e-14
3.07009e-08
2.18131e-06
7.72166e-14
3.10216e-08
2.14995e-06
7.77994e-14
3.13607e-08
2.11822e-06
7.8299e-14
3.17178e-08
2.08612e-06
7.88818e-14
3.20931e-08
2.05363e-06
7.94647e-14
3.24862e-08
2.02073e-06
8.00753e-14
3.28969e-08
1.9874e-06
8.06859e-14
3.33251e-08
1.95363e-06
8.12132e-14
3.37705e-08
1.91939e-06
8.19071e-14
3.42327e-08
1.88467e-06
8.25455e-14
3.47113e-08
1.84946e-06
8.32394e-14
3.52059e-08
1.81374e-06
8.39888e-14
3.5716e-08
1.77749e-06
8.47104e-14
3.6241e-08
1.74071e-06
8.54875e-14
3.67803e-08
1.70337e-06
8.63202e-14
3.73333e-08
1.66547e-06
8.72084e-14
3.78992e-08
1.62698e-06
8.8041e-14
3.84771e-08
1.58791e-06
8.89847e-14
3.90662e-08
1.54824e-06
8.99839e-14
3.96654e-08
1.50796e-06
9.10663e-14
4.02736e-08
1.46707e-06
9.2121e-14
4.08897e-08
1.42555e-06
9.33145e-14
4.15123e-08
1.3834e-06
9.45635e-14
4.21401e-08
1.34062e-06
9.60068e-14
4.27714e-08
1.29721e-06
9.76444e-14
4.34047e-08
1.25317e-06
9.94485e-14
4.40381e-08
1.20849e-06
1.01391e-13
4.46696e-08
1.16319e-06
1.0364e-13
4.5297e-08
1.11727e-06
1.06221e-13
4.59181e-08
1.07073e-06
1.08941e-13
4.65304e-08
1.02359e-06
1.1216e-13
4.71309e-08
9.7587e-07
1.15463e-13
4.77167e-08
9.27579e-07
1.1921e-13
4.82845e-08
8.78741e-07
1.23068e-13
4.88306e-08
8.29383e-07
1.26871e-13
4.9351e-08
7.79535e-07
1.30784e-13
4.98414e-08
7.29231e-07
1.34393e-13
5.02969e-08
6.78512e-07
1.37807e-13
5.0712e-08
6.27423e-07
1.40749e-13
5.10809e-08
5.76019e-07
1.43025e-13
5.13969e-08
5.24359e-07
1.44912e-13
5.16525e-08
4.72511e-07
1.46161e-13
5.18395e-08
4.20555e-07
1.47077e-13
5.19484e-08
3.68577e-07
1.4791e-13
5.19689e-08
3.1668e-07
1.49131e-13
5.18888e-08
2.64977e-07
1.50879e-13
5.16948e-08
2.13597e-07
1.53377e-13
5.13714e-08
1.62687e-07
1.56875e-13
5.09006e-08
1.12416e-07
1.61177e-13
5.02619e-08
6.29771e-08
1.6584e-13
4.94295e-08
1.45921e-08
1.69809e-13
4.83753e-08
-3.24669e-08
1.70364e-13
4.70492e-08
-7.7882e-08
1.67366e-13
4.5405e-08
-1.21303e-07
1.62898e-13
4.3411e-08
-1.62345e-07
1.57624e-13
4.10314e-08
-2.00562e-07
1.53599e-13
3.8207e-08
-2.35423e-07
1.54155e-13
3.48506e-08
-2.6631e-07
1.6348e-13
3.08767e-08
-2.92499e-07
1.85296e-13
2.61782e-08
-3.13136e-07
2.19769e-13
2.06258e-08
-3.27216e-07
2.62901e-13
1.4069e-08
-3.33557e-07
3.03868e-13
6.32924e-09
-3.30795e-07
3.25018e-13
-2.77517e-09
-3.17417e-07
3.11251e-13
-1.3392e-08
-2.91801e-07
2.6279e-13
-2.56312e-08
-2.52382e-07
2.07556e-13
-3.94346e-08
-1.9818e-07
2.0528e-13
-5.42178e-08
-1.30094e-07
2.92488e-13
-6.81034e-08
-5.38499e-08
3.7037e-13
-7.62644e-08
7.57085e-09
3.1386e-13
-6.14494e-08
-1.87184e-13
7.5267e-09
-3.54172e-07
3.54148e-07
-6.36766e-07
2.82556e-07
-7.79251e-07
1.4247e-07
-7.90804e-07
1.15406e-08
-7.03692e-07
-8.71231e-08
-5.47904e-07
-1.55799e-07
-3.45786e-07
-2.02129e-07
-1.13429e-07
-2.32368e-07
1.37404e-07
-2.50843e-07
3.9795e-07
-2.60557e-07
6.62167e-07
-2.64227e-07
9.25929e-07
-2.63771e-07
1.18623e-06
-2.6031e-07
1.44088e-06
-2.54656e-07
1.68825e-06
-2.47385e-07
1.92716e-06
-2.38918e-07
2.15673e-06
-2.29574e-07
2.37632e-06
-2.19598e-07
2.58549e-06
-2.0918e-07
2.78396e-06
-1.98474e-07
2.97155e-06
-1.87602e-07
3.14821e-06
-1.76665e-07
3.31394e-06
-1.65745e-07
3.46885e-06
-1.54913e-07
3.61307e-06
-1.44225e-07
3.74679e-06
-1.3373e-07
3.87025e-06
-1.23469e-07
3.98372e-06
-1.13475e-07
4.08749e-06
-1.03777e-07
4.18188e-06
-9.43977e-08
4.26723e-06
-8.53559e-08
4.34389e-06
-7.66661e-08
4.41222e-06
-6.83394e-08
4.4726e-06
-6.03837e-08
4.5254e-06
-5.28039e-08
4.57099e-06
-4.56023e-08
4.60977e-06
-3.87789e-08
4.64209e-06
-3.23317e-08
4.66834e-06
-2.62565e-08
4.68888e-06
-2.05477e-08
4.70408e-06
-1.51983e-08
4.71427e-06
-1.02e-08
4.71981e-06
-5.54345e-09
4.72102e-06
-1.21698e-09
4.71823e-06
2.791e-09
4.71173e-06
6.49184e-09
4.70182e-06
9.89852e-09
4.6888e-06
1.30244e-08
4.67291e-06
1.58828e-08
4.65442e-06
1.84869e-08
4.63356e-06
2.08501e-08
4.61057e-06
2.29855e-08
4.58566e-06
2.49064e-08
4.55903e-06
2.66259e-08
4.53087e-06
2.81568e-08
4.50135e-06
2.95115e-08
4.47065e-06
3.07024e-08
4.4389e-06
3.17411e-08
4.40626e-06
3.2639e-08
4.37285e-06
3.34071e-08
4.33879e-06
3.40558e-08
4.30419e-06
3.4595e-08
4.26915e-06
3.50341e-08
4.23376e-06
3.53821e-08
4.19811e-06
3.56473e-08
4.16227e-06
3.58378e-08
4.12631e-06
3.59608e-08
4.09028e-06
3.60234e-08
4.05424e-06
3.6032e-08
4.01825e-06
3.59925e-08
3.98233e-06
3.59106e-08
3.94654e-06
3.57913e-08
3.9109e-06
3.56395e-08
3.87543e-06
3.54594e-08
3.84017e-06
3.52551e-08
3.80514e-06
3.50302e-08
3.77035e-06
3.4788e-08
3.73581e-06
3.45317e-08
3.70155e-06
3.4264e-08
3.66755e-06
3.39874e-08
3.63385e-06
3.37042e-08
3.60043e-06
3.34165e-08
3.5673e-06
3.31262e-08
3.53446e-06
3.28349e-08
3.50191e-06
3.25443e-08
3.46965e-06
3.22556e-08
3.43768e-06
3.19702e-08
3.40598e-06
3.16892e-08
3.37457e-06
3.14137e-08
3.34342e-06
3.11444e-08
3.31253e-06
3.08824e-08
3.2819e-06
3.06284e-08
3.25151e-06
3.0383e-08
3.22136e-06
3.01469e-08
3.19144e-06
2.99208e-08
3.16173e-06
2.97051e-08
3.13222e-06
2.95003e-08
3.10291e-06
2.9307e-08
3.07378e-06
2.91256e-08
3.04482e-06
2.89564e-08
3.01602e-06
2.87998e-08
2.98736e-06
2.86563e-08
2.95883e-06
2.85261e-08
2.93041e-06
2.84097e-08
2.9021e-06
2.83072e-08
2.87388e-06
2.82191e-08
2.84573e-06
2.81455e-08
2.81764e-06
2.80869e-08
2.78959e-06
2.80435e-08
2.76157e-06
2.80154e-08
2.73356e-06
2.80031e-08
2.70555e-06
2.80067e-08
2.67752e-06
2.80265e-08
2.64945e-06
2.80627e-08
2.62133e-06
2.81155e-08
2.59314e-06
2.81852e-08
2.56486e-06
2.8272e-08
2.53648e-06
2.8376e-08
2.50798e-06
2.84975e-08
2.47934e-06
2.86365e-08
2.45054e-06
2.87933e-08
2.42157e-06
2.8968e-08
2.3924e-06
2.91607e-08
2.36302e-06
2.93716e-08
2.33342e-06
2.96007e-08
2.30356e-06
2.9848e-08
2.27345e-06
3.01138e-08
2.24304e-06
3.03978e-08
2.21234e-06
3.07002e-08
2.18131e-06
3.1021e-08
2.14995e-06
3.136e-08
2.11822e-06
3.17172e-08
2.08612e-06
3.20924e-08
2.05363e-06
3.24855e-08
2.02073e-06
3.28962e-08
1.9874e-06
3.33245e-08
1.95363e-06
3.37698e-08
1.91939e-06
3.4232e-08
1.88467e-06
3.47106e-08
1.84946e-06
3.52052e-08
1.81374e-06
3.57152e-08
1.77749e-06
3.62403e-08
1.74071e-06
3.67796e-08
1.70337e-06
3.73326e-08
1.66547e-06
3.78985e-08
1.62698e-06
3.84764e-08
1.58791e-06
3.90654e-08
1.54824e-06
3.96646e-08
1.50796e-06
4.02728e-08
1.46707e-06
4.08889e-08
1.42555e-06
4.15115e-08
1.3834e-06
4.21393e-08
1.34062e-06
4.27706e-08
1.29721e-06
4.34039e-08
1.25317e-06
4.40372e-08
1.20849e-06
4.46687e-08
1.16319e-06
4.52962e-08
1.11727e-06
4.59173e-08
1.07073e-06
4.65295e-08
1.02359e-06
4.713e-08
9.7587e-07
4.77158e-08
9.27579e-07
4.82835e-08
8.78742e-07
4.88296e-08
8.29384e-07
4.93501e-08
7.79535e-07
4.98404e-08
7.29231e-07
5.02959e-08
6.78512e-07
5.0711e-08
6.27424e-07
5.10799e-08
5.76019e-07
5.13958e-08
5.24359e-07
5.16514e-08
4.72512e-07
5.18383e-08
4.20555e-07
5.19473e-08
3.68578e-07
5.19677e-08
3.16681e-07
5.18877e-08
2.64977e-07
5.16936e-08
2.13597e-07
5.13701e-08
1.62687e-07
5.08994e-08
1.12416e-07
5.02606e-08
6.29774e-08
4.94282e-08
1.45925e-08
4.8374e-08
-3.24666e-08
4.70478e-08
-7.78817e-08
4.54036e-08
-1.21303e-07
4.34096e-08
-1.62344e-07
4.103e-08
-2.00562e-07
3.82055e-08
-2.35423e-07
3.48491e-08
-2.6631e-07
3.08752e-08
-2.92499e-07
2.61767e-08
-3.13135e-07
2.06242e-08
-3.27216e-07
1.40674e-08
-3.33557e-07
6.32752e-09
-3.30795e-07
-2.77702e-09
-3.17417e-07
-1.3394e-08
-2.91801e-07
-2.56334e-08
-2.52382e-07
-3.9437e-08
-1.98181e-07
-5.422e-08
-1.30096e-07
-6.81054e-08
-5.3854e-08
-7.62672e-08
7.56423e-09
-6.14549e-08
7.51089e-09
-2.56729e-07
2.24924e-13
6.10844e-07
-3.21338e-07
2.5783e-14
3.47146e-07
-3.03586e-07
3.61645e-14
1.2471e-07
-2.31625e-07
3.76716e-15
-6.04278e-08
-1.15357e-07
-8.20227e-15
-2.03398e-07
3.6955e-08
-1.82774e-14
-3.08118e-07
2.16948e-07
-2.63334e-14
-3.82128e-07
4.16991e-07
-3.2162e-14
-4.32418e-07
6.30839e-07
-3.63184e-14
-4.64697e-07
8.53449e-07
-3.81086e-14
-4.83173e-07
1.08068e-06
-3.78726e-14
-4.91463e-07
1.30918e-06
-3.69011e-14
-4.92279e-07
1.53634e-06
-3.53121e-14
-4.87479e-07
1.76013e-06
-3.33935e-14
-4.78449e-07
1.97895e-06
-3.13118e-14
-4.6621e-07
2.19157e-06
-2.9185e-14
-4.5154e-07
2.39703e-06
-2.7079e-14
-4.35036e-07
2.59459e-06
-2.50875e-14
-4.17167e-07
2.78371e-06
-2.32209e-14
-3.98308e-07
2.96399e-06
-2.14758e-14
-3.78758e-07
3.13515e-06
-1.99041e-14
-3.58765e-07
3.29701e-06
-1.84469e-14
-3.38531e-07
3.44949e-06
-1.71354e-14
-3.18226e-07
3.59256e-06
-1.59489e-14
-2.97993e-07
3.72628e-06
-1.48594e-14
-2.7795e-07
3.85074e-06
-1.39018e-14
-2.58198e-07
3.96609e-06
-1.30553e-14
-2.38825e-07
4.07251e-06
-1.23302e-14
-2.199e-07
4.17022e-06
-1.16952e-14
-2.01485e-07
4.25945e-06
-1.11505e-14
-1.8363e-07
4.34046e-06
-1.06995e-14
-1.66376e-07
4.41355e-06
-1.03247e-14
-1.49756e-07
4.479e-06
-1.00159e-14
-1.33796e-07
4.53713e-06
-9.76265e-15
-1.18514e-07
4.58824e-06
-9.58222e-15
-1.03925e-07
4.63267e-06
-9.44689e-15
-9.00362e-08
4.67074e-06
-9.34626e-15
-7.68509e-08
4.70277e-06
-9.31502e-15
-6.4368e-08
4.72909e-06
-9.28725e-15
-5.25825e-08
4.75003e-06
-9.29417e-15
-4.14862e-08
4.76589e-06
-9.31497e-15
-3.10675e-08
4.777e-06
-9.34618e-15
-2.13125e-08
4.78366e-06
-9.3878e-15
-1.22045e-08
4.78617e-06
-9.40166e-15
-3.72467e-09
4.78481e-06
-9.45715e-15
4.14698e-09
4.77986e-06
-9.51265e-15
1.1432e-08
4.7716e-06
-9.55427e-15
1.81537e-08
4.76029e-06
-9.57854e-15
2.43357e-08
4.74617e-06
-9.57506e-15
3.00025e-08
4.72947e-06
-9.57504e-15
3.51787e-08
4.71043e-06
-9.56462e-15
3.98891e-08
4.68925e-06
-9.53339e-15
4.41586e-08
4.66614e-06
-9.48133e-15
4.8012e-08
4.64129e-06
-9.42928e-15
5.14739e-08
4.61488e-06
-9.346e-15
5.45684e-08
4.58707e-06
-9.25232e-15
5.73192e-08
4.55802e-06
-9.14475e-15
5.97495e-08
4.52788e-06
-9.00944e-15
6.18816e-08
4.49677e-06
-8.87412e-15
6.37371e-08
4.46484e-06
-8.72493e-15
6.5337e-08
4.43219e-06
-8.56186e-15
6.67012e-08
4.39894e-06
-8.38838e-15
6.78487e-08
4.36517e-06
-8.19755e-15
6.87977e-08
4.33099e-06
-8.01367e-15
6.95655e-08
4.29646e-06
-7.82978e-15
7.01681e-08
4.26168e-06
-7.63896e-15
7.06211e-08
4.2267e-06
-7.4412e-15
7.09387e-08
4.19158e-06
-7.24691e-15
7.11345e-08
4.15639e-06
-7.0318e-15
7.1221e-08
4.12117e-06
-6.83751e-15
7.121e-08
4.08597e-06
-6.66057e-15
7.11124e-08
4.05082e-06
-6.46975e-15
7.09383e-08
4.01576e-06
-6.27893e-15
7.06969e-08
3.98082e-06
-6.1124e-15
7.0397e-08
3.94602e-06
-5.94934e-15
7.00465e-08
3.9114e-06
-5.76893e-15
6.96525e-08
3.87696e-06
-5.63015e-15
6.92219e-08
3.84273e-06
-5.49485e-15
6.87606e-08
3.80872e-06
-5.36995e-15
6.82744e-08
3.77494e-06
-5.252e-15
6.77681e-08
3.74139e-06
-5.15139e-15
6.72466e-08
3.70809e-06
-5.06466e-15
6.67139e-08
3.67504e-06
-4.98834e-15
6.61739e-08
3.64224e-06
-4.92589e-15
6.56301e-08
3.6097e-06
-4.85651e-15
6.50856e-08
3.57741e-06
-4.81489e-15
6.45433e-08
3.54537e-06
-4.76632e-15
6.40057e-08
3.51358e-06
-4.74898e-15
6.34753e-08
3.48204e-06
-4.75246e-15
6.29542e-08
3.45074e-06
-4.75941e-15
6.24442e-08
3.41967e-06
-4.76289e-15
6.19472e-08
3.38883e-06
-4.78024e-15
6.14649e-08
3.35821e-06
-4.81495e-15
6.09985e-08
3.32781e-06
-4.84965e-15
6.05496e-08
3.2976e-06
-4.90864e-15
6.01194e-08
3.2676e-06
-4.9711e-15
5.97089e-08
3.23778e-06
-5.05438e-15
5.93193e-08
3.20813e-06
-5.13072e-15
5.89516e-08
3.17865e-06
-5.24175e-15
5.86066e-08
3.14931e-06
-5.3285e-15
5.82852e-08
3.12012e-06
-5.42219e-15
5.79883e-08
3.09106e-06
-5.53322e-15
5.77165e-08
3.06211e-06
-5.64078e-15
5.74707e-08
3.03327e-06
-5.76223e-15
5.72515e-08
3.00451e-06
-5.88714e-15
5.70595e-08
2.97583e-06
-6.00164e-15
5.68954e-08
2.94721e-06
-6.1439e-15
5.67598e-08
2.91865e-06
-6.27575e-15
5.66533e-08
2.89011e-06
-6.40066e-15
5.65763e-08
2.86159e-06
-6.54639e-15
5.65296e-08
2.83308e-06
-6.6713e-15
5.65134e-08
2.80455e-06
-6.81356e-15
5.65285e-08
2.776e-06
-6.95235e-15
5.65752e-08
2.74741e-06
-7.09461e-15
5.66539e-08
2.71875e-06
-7.22299e-15
5.67652e-08
2.69003e-06
-7.36871e-15
5.69094e-08
2.66121e-06
-7.50403e-15
5.70869e-08
2.63228e-06
-7.63241e-15
5.72981e-08
2.60323e-06
-7.76426e-15
5.75434e-08
2.57404e-06
-7.89264e-15
5.78229e-08
2.5447e-06
-8.02796e-15
5.81371e-08
2.51518e-06
-8.15287e-15
5.84861e-08
2.48546e-06
-8.28472e-15
5.88702e-08
2.45554e-06
-8.41657e-15
5.92896e-08
2.42539e-06
-8.5276e-15
5.97443e-08
2.395e-06
-8.64557e-15
6.02345e-08
2.36435e-06
-8.75313e-15
6.07603e-08
2.33343e-06
-8.88498e-15
6.13215e-08
2.30221e-06
-8.98213e-15
6.19183e-08
2.27067e-06
-9.08276e-15
6.25504e-08
2.23881e-06
-9.17297e-15
6.32176e-08
2.2066e-06
-9.25971e-15
6.39198e-08
2.17404e-06
-9.35687e-15
6.46566e-08
2.14109e-06
-9.45402e-15
6.54276e-08
2.10775e-06
-9.52688e-15
6.62325e-08
2.074e-06
-9.62404e-15
6.70705e-08
2.03983e-06
-9.70384e-15
6.79411e-08
2.00521e-06
-9.78365e-15
6.88436e-08
1.97014e-06
-9.83916e-15
6.9777e-08
1.9346e-06
-9.92591e-15
7.07405e-08
1.89858e-06
-9.9953e-15
7.17331e-08
1.86206e-06
-1.00508e-14
7.27534e-08
1.82504e-06
-1.01341e-14
7.38003e-08
1.78749e-06
-1.01965e-14
7.48722e-08
1.74942e-06
-1.02417e-14
7.59677e-08
1.71081e-06
-1.03249e-14
7.70849e-08
1.67165e-06
-1.03804e-14
7.82219e-08
1.63193e-06
-1.04464e-14
7.93768e-08
1.59165e-06
-1.04949e-14
8.05471e-08
1.55081e-06
-1.0547e-14
8.17305e-08
1.50939e-06
-1.06164e-14
8.29243e-08
1.4674e-06
-1.06615e-14
8.41257e-08
1.42483e-06
-1.07205e-14
8.53313e-08
1.38169e-06
-1.0724e-14
8.6538e-08
1.33799e-06
-1.07552e-14
8.77419e-08
1.29371e-06
-1.07587e-14
8.89391e-08
1.24888e-06
-1.0776e-14
9.01253e-08
1.20349e-06
-1.07587e-14
9.12958e-08
1.15757e-06
-1.07725e-14
9.24454e-08
1.11113e-06
-1.07621e-14
9.35686e-08
1.06418e-06
-1.07621e-14
9.46594e-08
1.01675e-06
-1.07691e-14
9.57113e-08
9.68856e-07
-1.08246e-14
9.67169e-08
9.20532e-07
-1.09356e-14
9.76686e-08
8.71809e-07
-1.1123e-14
9.85576e-08
8.22725e-07
-1.13797e-14
9.93745e-08
7.73322e-07
-1.17059e-14
1.00109e-07
7.23647e-07
-1.21152e-14
1.00749e-07
6.73755e-07
-1.26357e-14
1.01282e-07
6.23706e-07
-1.32047e-14
1.01695e-07
5.73568e-07
-1.38153e-14
1.0197e-07
5.23418e-07
-1.4412e-14
1.02091e-07
4.73342e-07
-1.49602e-14
1.02038e-07
4.23436e-07
-1.53765e-14
1.01787e-07
3.73808e-07
-1.56541e-14
1.01315e-07
3.24579e-07
-1.57651e-14
1.00592e-07
2.75886e-07
-1.57374e-14
9.95861e-08
2.27881e-07
-1.56333e-14
9.82589e-08
1.80736e-07
-1.55847e-14
9.65655e-08
1.34647e-07
-1.57721e-14
9.44557e-08
8.98289e-08
-1.62508e-14
9.18588e-08
4.65215e-08
-1.69378e-14
8.87036e-08
4.99496e-09
-1.78607e-14
8.49286e-08
-3.44307e-08
-1.8964e-14
8.04481e-08
-7.13965e-08
-1.96578e-14
7.51636e-08
-1.05517e-07
-1.9297e-14
6.89616e-08
-1.36357e-07
-1.72084e-14
6.17081e-08
-1.63434e-07
-1.29132e-14
5.32447e-08
-1.86209e-07
-6.71681e-15
4.3391e-08
-2.041e-07
-6.93509e-17
3.19496e-08
-2.16491e-07
4.1495e-15
1.87084e-08
-2.22748e-07
2.15803e-15
3.47026e-09
-2.22264e-07
-8.92338e-15
-1.38889e-08
-2.14551e-07
-2.69645e-14
-3.33581e-08
-1.99378e-07
-3.91492e-14
-5.46219e-08
-1.76944e-07
-2.09554e-14
-7.66674e-08
-1.48007e-07
4.00374e-14
-9.70588e-08
-1.13692e-07
2.57017e-14
-1.10603e-07
-7.04179e-08
-1.32949e-13
-1.0476e-07
-1.81066e-12
-6.29316e-08
-2.56732e-07
6.10841e-07
-3.21338e-07
3.47143e-07
-3.03585e-07
1.24708e-07
-2.31624e-07
-6.0429e-08
-1.15356e-07
-2.03399e-07
3.69566e-08
-3.08119e-07
2.16949e-07
-3.82129e-07
4.16993e-07
-4.32418e-07
6.3084e-07
-4.64697e-07
8.5345e-07
-4.83173e-07
1.08068e-06
-4.91463e-07
1.30918e-06
-4.9228e-07
1.53635e-06
-4.8748e-07
1.76013e-06
-4.78449e-07
1.97895e-06
-4.66211e-07
2.19157e-06
-4.5154e-07
2.39703e-06
-4.35036e-07
2.59459e-06
-4.17168e-07
2.78371e-06
-3.98308e-07
2.96399e-06
-3.78758e-07
3.13515e-06
-3.58765e-07
3.29701e-06
-3.38531e-07
3.44949e-06
-3.18226e-07
3.59256e-06
-2.97993e-07
3.72628e-06
-2.7795e-07
3.85074e-06
-2.58198e-07
3.96609e-06
-2.38825e-07
4.07251e-06
-2.199e-07
4.17022e-06
-2.01485e-07
4.25945e-06
-1.8363e-07
4.34046e-06
-1.66376e-07
4.41355e-06
-1.49756e-07
4.479e-06
-1.33796e-07
4.53712e-06
-1.18514e-07
4.58824e-06
-1.03925e-07
4.63267e-06
-9.00363e-08
4.67074e-06
-7.68509e-08
4.70277e-06
-6.4368e-08
4.72909e-06
-5.25826e-08
4.75003e-06
-4.14862e-08
4.76589e-06
-3.10676e-08
4.777e-06
-2.13125e-08
4.78366e-06
-1.22045e-08
4.78616e-06
-3.72474e-09
4.7848e-06
4.1469e-09
4.77986e-06
1.14319e-08
4.7716e-06
1.81536e-08
4.76029e-06
2.43356e-08
4.74616e-06
3.00024e-08
4.72947e-06
3.51786e-08
4.71043e-06
3.9889e-08
4.68925e-06
4.41585e-08
4.66614e-06
4.80119e-08
4.64129e-06
5.14737e-08
4.61488e-06
5.45682e-08
4.58707e-06
5.73191e-08
4.55802e-06
5.97493e-08
4.52787e-06
6.18814e-08
4.49677e-06
6.3737e-08
4.46484e-06
6.53369e-08
4.43219e-06
6.67011e-08
4.39894e-06
6.78486e-08
4.36517e-06
6.87976e-08
4.33098e-06
6.95653e-08
4.29646e-06
7.0168e-08
4.26168e-06
7.06209e-08
4.2267e-06
7.09385e-08
4.19158e-06
7.11343e-08
4.15639e-06
7.12208e-08
4.12117e-06
7.12099e-08
4.08597e-06
7.11122e-08
4.05082e-06
7.09381e-08
4.01576e-06
7.06968e-08
3.98082e-06
7.03969e-08
3.94602e-06
7.00463e-08
3.9114e-06
6.96524e-08
3.87696e-06
6.92218e-08
3.84273e-06
6.87605e-08
3.80872e-06
6.82742e-08
3.77493e-06
6.7768e-08
3.74139e-06
6.72464e-08
3.70809e-06
6.67137e-08
3.67504e-06
6.61738e-08
3.64224e-06
6.56299e-08
3.6097e-06
6.50855e-08
3.57741e-06
6.45431e-08
3.54537e-06
6.40056e-08
3.51358e-06
6.34752e-08
3.48204e-06
6.29541e-08
3.45074e-06
6.24441e-08
3.41967e-06
6.19471e-08
3.38883e-06
6.14648e-08
3.35821e-06
6.09984e-08
3.32781e-06
6.05495e-08
3.2976e-06
6.01193e-08
3.2676e-06
5.97088e-08
3.23778e-06
5.93192e-08
3.20813e-06
5.89515e-08
3.17864e-06
5.86065e-08
3.14931e-06
5.82851e-08
3.12012e-06
5.79882e-08
3.09106e-06
5.77164e-08
3.06211e-06
5.74706e-08
3.03327e-06
5.72514e-08
3.00451e-06
5.70594e-08
2.97583e-06
5.68953e-08
2.94721e-06
5.67597e-08
2.91865e-06
5.66532e-08
2.89011e-06
5.65762e-08
2.86159e-06
5.65295e-08
2.83308e-06
5.65134e-08
2.80455e-06
5.65284e-08
2.776e-06
5.65751e-08
2.74741e-06
5.66538e-08
2.71875e-06
5.67651e-08
2.69003e-06
5.69093e-08
2.66121e-06
5.70868e-08
2.63228e-06
5.72981e-08
2.60323e-06
5.75433e-08
2.57404e-06
5.78228e-08
2.5447e-06
5.8137e-08
2.51518e-06
5.8486e-08
2.48546e-06
5.88701e-08
2.45554e-06
5.92895e-08
2.42539e-06
5.97442e-08
2.395e-06
6.02344e-08
2.36435e-06
6.07602e-08
2.33343e-06
6.13214e-08
2.30221e-06
6.19182e-08
2.27067e-06
6.25503e-08
2.23881e-06
6.32175e-08
2.2066e-06
6.39197e-08
2.17404e-06
6.46565e-08
2.14109e-06
6.54276e-08
2.10775e-06
6.62324e-08
2.074e-06
6.70704e-08
2.03983e-06
6.7941e-08
2.00521e-06
6.88435e-08
1.97014e-06
6.97769e-08
1.9346e-06
7.07404e-08
1.89858e-06
7.1733e-08
1.86206e-06
7.27533e-08
1.82504e-06
7.38002e-08
1.78749e-06
7.48721e-08
1.74942e-06
7.59676e-08
1.71081e-06
7.70848e-08
1.67165e-06
7.82218e-08
1.63193e-06
7.93767e-08
1.59165e-06
8.0547e-08
1.55081e-06
8.17304e-08
1.50939e-06
8.29242e-08
1.4674e-06
8.41255e-08
1.42483e-06
8.53312e-08
1.38169e-06
8.65379e-08
1.33799e-06
8.77418e-08
1.29371e-06
8.8939e-08
1.24888e-06
9.01252e-08
1.20349e-06
9.12956e-08
1.15757e-06
9.24453e-08
1.11113e-06
9.35685e-08
1.06418e-06
9.46593e-08
1.01675e-06
9.57112e-08
9.68856e-07
9.67168e-08
9.20532e-07
9.76685e-08
8.7181e-07
9.85575e-08
8.22726e-07
9.93743e-08
7.73322e-07
1.00109e-07
7.23647e-07
1.00749e-07
6.73755e-07
1.01282e-07
6.23706e-07
1.01695e-07
5.73568e-07
1.0197e-07
5.23418e-07
1.02091e-07
4.73342e-07
1.02037e-07
4.23436e-07
1.01787e-07
3.73808e-07
1.01315e-07
3.24579e-07
1.00592e-07
2.75886e-07
9.9586e-08
2.27881e-07
9.82587e-08
1.80736e-07
9.65654e-08
1.34647e-07
9.44556e-08
8.9829e-08
9.18587e-08
4.65217e-08
8.87035e-08
4.99513e-09
8.49285e-08
-3.44306e-08
8.0448e-08
-7.13963e-08
7.51635e-08
-1.05517e-07
6.89615e-08
-1.36357e-07
6.1708e-08
-1.63433e-07
5.32446e-08
-1.86209e-07
4.33909e-08
-2.041e-07
3.19495e-08
-2.16491e-07
1.87082e-08
-2.22748e-07
3.47007e-09
-2.22265e-07
-1.38891e-08
-2.14552e-07
-3.33583e-08
-1.99379e-07
-5.46221e-08
-1.76945e-07
-7.66677e-08
-1.48008e-07
-9.70593e-08
-1.13694e-07
-1.10603e-07
-7.0425e-08
-1.04761e-07
-6.2931e-08
-9.91589e-08
3.58927e-13
7.0999e-07
-6.65687e-08
2.67824e-14
3.14544e-07
1.87151e-08
4.22987e-14
3.94233e-08
1.30543e-07
2.88514e-14
-1.72259e-07
2.62953e-07
2.83555e-14
-3.3581e-07
4.1379e-07
2.72627e-14
-4.58956e-07
5.80554e-07
2.56807e-14
-5.48894e-07
7.60272e-07
2.3939e-14
-6.12137e-07
9.49824e-07
2.17949e-14
-6.5425e-07
1.14636e-06
1.95537e-14
-6.79707e-07
1.34714e-06
1.75727e-14
-6.92244e-07
1.54967e-06
1.57478e-14
-6.94814e-07
1.75185e-06
1.42004e-14
-6.89657e-07
1.9519e-06
1.29098e-14
-6.78505e-07
2.14838e-06
1.18291e-14
-6.62694e-07
2.34011e-06
1.09218e-14
-6.43273e-07
2.52615e-06
1.01586e-14
-6.21069e-07
2.70572e-06
9.51155e-15
-5.96745e-07
2.87825e-06
8.95472e-15
-5.70836e-07
3.04327e-06
8.46033e-15
-5.43783e-07
3.20045e-06
8.02493e-15
-5.15948e-07
3.34956e-06
7.6381e-15
-4.87635e-07
3.49043e-06
7.29117e-15
-4.59098e-07
3.62299e-06
6.96159e-15
-4.30553e-07
3.74722e-06
6.67884e-15
-4.02182e-07
3.86316e-06
6.40997e-15
-3.74141e-07
3.97089e-06
6.15845e-15
-3.4656e-07
4.07055e-06
5.91733e-15
-3.19554e-07
4.16228e-06
5.69703e-15
-2.93215e-07
4.24627e-06
5.48194e-15
-2.67623e-07
4.32273e-06
5.27899e-15
-2.42844e-07
4.39191e-06
5.08297e-15
-2.18932e-07
4.45404e-06
4.89737e-15
-1.95928e-07
4.50939e-06
4.72391e-15
-1.73865e-07
4.55823e-06
4.55565e-15
-1.52768e-07
4.60084e-06
4.39086e-15
-1.32652e-07
4.63752e-06
4.23822e-15
-1.13525e-07
4.66854e-06
4.08037e-15
-9.53891e-08
4.69419e-06
3.93466e-15
-7.82409e-08
4.71478e-06
3.78201e-15
-6.2071e-08
4.73057e-06
3.65539e-15
-4.68654e-08
4.74187e-06
3.54437e-15
-3.26062e-08
4.74893e-06
3.43162e-15
-1.92718e-08
4.75204e-06
3.32581e-15
-6.83723e-09
4.75147e-06
3.22174e-15
4.72458e-09
4.74745e-06
3.14195e-15
1.5443e-08
4.74026e-06
3.06216e-15
2.53497e-08
4.73011e-06
3.00492e-15
3.44775e-08
4.71726e-06
2.95115e-15
4.28603e-08
4.7019e-06
2.90258e-15
5.05325e-08
4.68426e-06
2.8731e-15
5.75291e-08
4.66453e-06
2.85576e-15
6.38853e-08
4.64291e-06
2.84709e-15
6.96362e-08
4.61956e-06
2.83842e-15
7.48167e-08
4.59467e-06
2.85057e-15
7.9461e-08
4.56839e-06
2.86965e-15
8.36031e-08
4.54086e-06
2.89915e-15
8.72758e-08
4.51223e-06
2.93211e-15
9.05114e-08
4.48262e-06
2.96507e-15
9.33407e-08
4.45217e-06
3.02058e-15
9.57938e-08
4.42097e-06
3.07089e-15
9.78994e-08
4.38913e-06
3.13334e-15
9.96851e-08
4.35675e-06
3.19753e-15
1.01177e-07
4.32392e-06
3.26692e-15
1.024e-07
4.29071e-06
3.33631e-15
1.03378e-07
4.25719e-06
3.41437e-15
1.04132e-07
4.22345e-06
3.48376e-15
1.04685e-07
4.18953e-06
3.56356e-15
1.05055e-07
4.15548e-06
3.63642e-15
1.05262e-07
4.12137e-06
3.71621e-15
1.05321e-07
4.08723e-06
3.78386e-15
1.0525e-07
4.05311e-06
3.86366e-15
1.05062e-07
4.01903e-06
3.93478e-15
1.04773e-07
3.98504e-06
4.0059e-15
1.04393e-07
3.95115e-06
4.07008e-15
1.03936e-07
3.91739e-06
4.13773e-15
1.03412e-07
3.88378e-06
4.20192e-15
1.02831e-07
3.85033e-06
4.26436e-15
1.02202e-07
3.81708e-06
4.31293e-15
1.01532e-07
3.78401e-06
4.36497e-15
1.00831e-07
3.75115e-06
4.41007e-15
1.00105e-07
3.71851e-06
4.44996e-15
9.93595e-08
3.68608e-06
4.48118e-15
9.86011e-08
3.65387e-06
4.51414e-15
9.78348e-08
3.62189e-06
4.54536e-15
9.70653e-08
3.59014e-06
4.57137e-15
9.62971e-08
3.55861e-06
4.59565e-15
9.55341e-08
3.5273e-06
4.60779e-15
9.47799e-08
3.49622e-06
4.61125e-15
9.40377e-08
3.46535e-06
4.61645e-15
9.33105e-08
3.4347e-06
4.62165e-15
9.26011e-08
3.40425e-06
4.61818e-15
9.19118e-08
3.374e-06
4.61644e-15
9.12451e-08
3.34395e-06
4.60602e-15
9.06029e-08
3.31408e-06
4.59561e-15
8.99873e-08
3.28439e-06
4.56611e-15
8.93999e-08
3.25487e-06
4.54529e-15
8.88424e-08
3.2255e-06
4.5262e-15
8.83163e-08
3.19628e-06
4.50884e-15
8.78231e-08
3.1672e-06
4.47761e-15
8.73641e-08
3.13825e-06
4.44291e-15
8.69405e-08
3.10941e-06
4.41515e-15
8.65535e-08
3.08068e-06
4.37525e-15
8.62042e-08
3.05204e-06
4.34228e-15
8.58936e-08
3.02347e-06
4.30237e-15
8.56229e-08
2.99497e-06
4.26941e-15
8.53928e-08
2.96653e-06
4.23297e-15
8.52043e-08
2.93812e-06
4.19827e-15
8.50584e-08
2.90974e-06
4.16878e-15
8.49557e-08
2.88137e-06
4.12714e-15
8.48972e-08
2.853e-06
4.09591e-15
8.48836e-08
2.82462e-06
4.06467e-15
8.49156e-08
2.7962e-06
4.03171e-15
8.49939e-08
2.76773e-06
3.99354e-15
8.51191e-08
2.7392e-06
3.96925e-15
8.5292e-08
2.7106e-06
3.93975e-15
8.5513e-08
2.6819e-06
3.91199e-15
8.57829e-08
2.6531e-06
3.8929e-15
8.61019e-08
2.62417e-06
3.87381e-15
8.64708e-08
2.5951e-06
3.85473e-15
8.68897e-08
2.56588e-06
3.83217e-15
8.73593e-08
2.53648e-06
3.82176e-15
8.78797e-08
2.5069e-06
3.80614e-15
8.84513e-08
2.47712e-06
3.8044e-15
8.90742e-08
2.44711e-06
3.80439e-15
8.97487e-08
2.41687e-06
3.81133e-15
9.04748e-08
2.38638e-06
3.80785e-15
9.12525e-08
2.35562e-06
3.80785e-15
9.20818e-08
2.32457e-06
3.82519e-15
9.29626e-08
2.29323e-06
3.84947e-15
9.38945e-08
2.26157e-06
3.86855e-15
9.48773e-08
2.22957e-06
3.8963e-15
9.59105e-08
2.19724e-06
3.92059e-15
9.69937e-08
2.16454e-06
3.96222e-15
9.81261e-08
2.13146e-06
4.00038e-15
9.9307e-08
2.098e-06
4.042e-15
1.00535e-07
2.06413e-06
4.0767e-15
1.01811e-07
2.02984e-06
4.13394e-15
1.03131e-07
1.99512e-06
4.18771e-15
1.04496e-07
1.95996e-06
4.24495e-15
1.05903e-07
1.92434e-06
4.31434e-15
1.07351e-07
1.88825e-06