/*--------------------------------*- C++ -*----------------------------------*\
  =========                 |
  \\      /  F ield         | OpenFOAM: The Open Source CFD Toolbox
   \\    /   O peration     | Website:  https://openfoam.org
    \\  /    A nd           | Version:  8
     \\/     M anipulation  |
\*---------------------------------------------------------------------------*/
FoamFile
{
    version     2.0;
    format      ascii;
    class       volScalarField;
    location    "100";
    object      alphat;
}
// * * * * * * * * * * * * * * * * * * * * * * * * * * * * * * * * * * * * * //

dimensions      [1 -1 -1 0 0 0 0];

internalField   nonuniform List<scalar> 
48000
(
6.63131e-07
2.94364e-06
5.82057e-06
9.24901e-06
1.29279e-05
1.68795e-05
2.08677e-05
2.48655e-05
2.89369e-05
3.3104e-05
3.73891e-05
4.1819e-05
4.64245e-05
5.12386e-05
5.62951e-05
6.16275e-05
6.72681e-05
7.32465e-05
7.95887e-05
8.63159e-05
9.34451e-05
0.000100989
0.000108957
0.000117355
0.000126183
0.000135438
0.000145106
0.000155161
0.00016554
0.000176085
0.000186425
0.000195826
0.000203437
0.000213327
0.000218032
0.000215954
0.000214261
0.000210365
0.000209487
0.000207792
4.18097e-05
0.000210131
0.000223976
0.000231595
0.000231945
4.60282e-05
4.53083e-05
4.57396e-05
4.62542e-05
4.68498e-05
4.75855e-05
4.80848e-05
4.83626e-05
4.77088e-05
4.93975e-05
4.6696e-05
4.64541e-05
4.73598e-05
4.81952e-05
4.86456e-05
4.91403e-05
4.96249e-05
5.00117e-05
5.03147e-05
5.05742e-05
5.08275e-05
5.10863e-05
5.13462e-05
5.16017e-05
5.18496e-05
5.2087e-05
5.23112e-05
5.25207e-05
5.27173e-05
5.29027e-05
5.30774e-05
5.32415e-05
5.3395e-05
5.35381e-05
5.36705e-05
5.37921e-05
5.39031e-05
5.40034e-05
5.40932e-05
5.41726e-05
5.42418e-05
5.43012e-05
5.43508e-05
5.4391e-05
5.44216e-05
5.44427e-05
5.44542e-05
5.4456e-05
5.44485e-05
5.44319e-05
5.44064e-05
5.43722e-05
5.43294e-05
5.42781e-05
5.42185e-05
5.41507e-05
5.40748e-05
5.39908e-05
5.3899e-05
5.38e-05
5.36942e-05
5.35821e-05
5.34637e-05
5.33391e-05
5.32083e-05
5.30714e-05
5.29283e-05
5.27787e-05
5.26229e-05
5.24612e-05
5.22944e-05
5.21223e-05
5.1944e-05
5.17584e-05
5.15653e-05
5.13657e-05
5.11603e-05
5.09491e-05
5.07309e-05
5.05053e-05
5.02727e-05
5.00386e-05
4.98286e-05
4.96645e-05
4.94729e-05
4.9009e-05
4.79397e-05
4.57554e-05
4.45129e-05
4.60183e-05
0.000274139
4.98801e-05
4.30972e-05
3.80397e-05
3.60836e-05
3.53058e-05
3.49919e-05
3.54154e-05
3.72751e-05
4.25617e-05
4.46497e-05
4.52988e-05
4.52083e-05
4.48929e-05
4.45466e-05
4.14642e-05
0.000226577
0.000235702
0.000235843
0.000241437
0.000241696
0.000225214
3.8575e-05
3.64233e-05
3.60643e-05
3.59268e-05
3.61792e-05
0.000197876
0.000209888
0.00021047
0.000202208
0.000194546
3.67006e-05
0.000185837
0.000193551
0.000192327
0.00018744
0.000180784
0.000173094
0.000164705
0.000155823
0.000146606
0.000137192
0.000127701
0.000118235
0.000108876
9.96909e-05
9.07345e-05
8.20563e-05
7.36993e-05
6.56997e-05
5.80864e-05
5.08836e-05
4.41125e-05
3.77943e-05
3.19496e-05
2.65965e-05
2.17471e-05
1.73924e-05
1.34415e-05
1.0224e-05
7.47828e-06
5.08263e-06
2.94877e-06
7.61367e-07
6.59726e-07
2.93273e-06
5.80281e-06
9.22579e-06
1.28997e-05
1.68465e-05
2.0831e-05
2.48256e-05
2.88943e-05
3.30593e-05
3.73431e-05
4.17725e-05
4.63779e-05
5.11918e-05
5.6248e-05
6.15804e-05
6.72214e-05
7.32007e-05
7.95436e-05
8.62713e-05
9.34007e-05
0.000100945
0.000108915
0.000117314
0.000126143
0.000135399
0.000145068
0.000155126
0.000165508
0.000176058
0.000186399
0.00019577
0.000203271
0.000213145
0.00021786
0.00021094
4.03436e-05
0.000199963
0.000208305
0.000215225
0.000227957
0.00023467
0.000234305
0.000236029
0.000239833
0.00024431
0.000260495
0.000261641
4.44565e-05
4.49612e-05
4.63542e-05
4.73383e-05
4.50044e-05
4.72771e-05
0.000271761
0.000304164
0.000320036
0.000329347
0.000330843
5.67617e-05
5.08443e-05
4.95348e-05
4.95837e-05
4.99658e-05
5.03772e-05
5.07435e-05
5.10621e-05
5.13458e-05
5.1607e-05
5.18533e-05
5.20877e-05
5.23095e-05
5.25174e-05
5.27131e-05
5.28981e-05
5.30727e-05
5.32371e-05
5.33912e-05
5.35347e-05
5.36671e-05
5.37884e-05
5.38988e-05
5.39986e-05
5.40881e-05
5.41674e-05
5.42368e-05
5.42964e-05
5.43464e-05
5.43868e-05
5.44175e-05
5.44386e-05
5.44499e-05
5.44516e-05
5.44439e-05
5.44273e-05
5.44019e-05
5.43677e-05
5.43249e-05
5.42737e-05
5.42141e-05
5.41463e-05
5.40702e-05
5.39858e-05
5.38936e-05
5.37942e-05
5.36882e-05
5.35762e-05
5.34582e-05
5.33344e-05
5.32048e-05
5.30692e-05
5.2927e-05
5.27777e-05
5.26214e-05
5.24588e-05
5.22908e-05
5.21172e-05
5.19375e-05
5.17511e-05
5.15582e-05
5.13594e-05
5.1155e-05
5.09445e-05
5.07272e-05
5.05032e-05
5.0273e-05
5.00373e-05
4.97956e-05
4.94898e-05
4.86984e-05
4.65793e-05
4.48127e-05
4.39232e-05
4.48324e-05
4.76246e-05
4.68815e-05
4.74658e-05
4.32899e-05
3.82286e-05
3.61345e-05
3.53948e-05
3.68773e-05
4.24335e-05
4.49097e-05
4.57689e-05
4.59163e-05
4.56766e-05
4.52983e-05
4.49166e-05
4.45854e-05
4.14345e-05
0.000225817
0.000235279
0.00023349
0.0002321
0.000237451
0.000238233
0.00022719
0.000211922
0.000206061
0.000211396
0.000213524
0.000215279
0.000209859
0.000208621
0.000207345
0.000205152
0.000199538
0.000198057
0.000196137
0.000192566
0.000187315
0.000180705
0.000173081
0.000164719
0.00015584
0.000146617
0.000137199
0.000127708
0.000118242
0.000108881
9.96931e-05
9.07349e-05
8.20568e-05
7.37015e-05
6.5703e-05
5.8089e-05
5.08838e-05
4.41102e-05
3.77911e-05
3.1947e-05
2.65946e-05
2.17445e-05
1.73875e-05
1.34359e-05
1.02195e-05
7.47594e-06
5.0811e-06
2.9487e-06
7.61742e-07
1.82478e-06
2.97844e-05
5.46434e-05
7.35868e-05
8.95552e-05
0.000104039
0.000117598
0.000130455
0.000142706
0.000154447
0.000165775
0.000176786
0.000187572
0.00019822
0.000208809
0.000219406
0.00023007
0.000240848
0.000251775
0.00026288
0.00027418
0.000285689
0.000297415
0.000309359
0.00032152
0.00033389
0.00034645
0.000359153
0.000371878
0.000384292
0.000395505
0.000403361
0.000403842
0.000394542
0.000387955
0.000384301
0.000362648
0.000353957
0.000350658
0.000346745
0.000306908
0.000349631
0.000364264
0.000370233
0.000368551
0.000324275
0.00031823
0.000320129
0.000323055
0.00032649
0.000330674
0.000334498
0.000338494
0.000343294
0.000369093
0.000377835
0.000385056
0.000392344
0.000398451
0.000402527
0.000406761
0.00041089
0.000414687
0.000418126
0.000421278
0.000424206
0.000426951
0.000429538
0.000431972
0.000434255
0.000436393
0.000438398
0.000440277
0.000442006
0.000443605
0.000445124
0.00044656
0.00044791
0.00044917
0.000450339
0.000451417
0.0004524
0.000453284
0.000454066
0.000454753
0.00045535
0.000455866
0.000456302
0.000456658
0.000456934
0.000457129
0.000457243
0.000457276
0.00045723
0.000457105
0.000456901
0.00045662
0.000456263
0.00045583
0.000455321
0.000454736
0.000454078
0.000453353
0.000452571
0.000451739
0.00045086
0.000449933
0.000448956
0.000447925
0.000446837
0.000445683
0.000444458
0.000443162
0.000441805
0.000440408
0.000438981
0.000437513
0.000435972
0.000434337
0.00043262
0.000430848
0.000429024
0.000427138
0.000425169
0.00042309
0.000420912
0.000418577
0.00041597
0.000413294
0.000410381
0.000406345
0.000399933
0.000391287
0.000385877
0.000389482
0.000419424
0.000366656
0.000361232
0.000348889
0.000339973
0.000334218
0.00033045
0.000327974
0.000326004
0.00031407
0.000311804
0.000310383
0.000308527
0.000306298
0.000303709
0.000302456
0.000354004
0.000364033
0.000365433
0.000376553
0.000379156
0.000355114
0.00028517
0.000266226
0.000259202
0.00025626
0.000261144
0.000328929
0.000351563
0.000358843
0.000365719
0.000355576
0.000273508
0.000342754
0.000367585
0.000371116
0.000366261
0.00035787
0.000347689
0.000336425
0.000324432
0.000311933
0.00029909
0.00028603
0.000272853
0.000259636
0.00024644
0.000233315
0.0002203
0.00020743
0.000194735
0.000182239
0.000169964
0.000157929
0.000146152
0.000134654
0.000123458
0.0001126
0.000102127
9.20762e-05
8.20603e-05
7.10589e-05
5.587e-05
3.11476e-05
2.26913e-06
1.81756e-06
2.97237e-05
5.4559e-05
7.3497e-05
8.94618e-05
0.000103943
0.0001175
0.000130356
0.000142606
0.000154347
0.000165676
0.000176688
0.000187475
0.000198125
0.000208715
0.000219315
0.000229982
0.000240762
0.000251693
0.0002628
0.000274103
0.000285616
0.000297344
0.000309292
0.000321457
0.000333832
0.000346397
0.000359107
0.000371842
0.000384266
0.000395472
0.000403241
0.000403489
0.000394305
0.000387746
0.00037714
0.000303365
0.000340685
0.000350562
0.000357917
0.000373045
0.000373451
0.000372618
0.000374101
0.000377375
0.000380858
0.000389134
0.000389107
0.000350336
0.000332179
0.000331507
0.000336614
0.000355336
0.000373026
0.000418851
0.000438034
0.000447171
0.000452365
0.000451185
0.000416065
0.000408317
0.000409385
0.000413049
0.000417039
0.000420691
0.000423924
0.000426817
0.000429459
0.000431907
0.000434187
0.000436316
0.00043831
0.00044018
0.00044189
0.000443497
0.000445039
0.0004465
0.000447863
0.000449121
0.000450276
0.000451332
0.000452295
0.000453167
0.000453947
0.000454639
0.000455245
0.000455769
0.00045621
0.000456569
0.000456847
0.000457042
0.000457156
0.000457191
0.000457146
0.000457021
0.000456818
0.000456537
0.00045618
0.000455747
0.000455238
0.000454652
0.000453994
0.00045327
0.000452488
0.000451656
0.000450777
0.00044985
0.000448873
0.000447842
0.000446752
0.000445597
0.00044437
0.000443073
0.000441718
0.000440325
0.000438902
0.000437437
0.000435898
0.000434259
0.000432527
0.000430728
0.00042888
0.000427012
0.000425134
0.000423186
0.000421077
0.000418694
0.000415926
0.000412531
0.000406955
0.000398289
0.000390065
0.00038457
0.000383869
0.000381316
0.000357547
0.000347221
0.000354923
0.000346997
0.000339381
0.000334149
0.000329942
0.000316877
0.000315397
0.00031432
0.00031281
0.000310724
0.000308415
0.000305974
0.000303243
0.000301343
0.000352353
0.000362926
0.000362218
0.000363014
0.000374497
0.000376172
0.000356517
0.000341956
0.000336748
0.000347673
0.000353908
0.000359615
0.000365048
0.000368355
0.00037034
0.000371769
0.0003698
0.000374681
0.000375991
0.000372932
0.000366549
0.000357887
0.000347688
0.000336432
0.000324441
0.000311939
0.000299094
0.000286033
0.000272856
0.000259638
0.000246441
0.000233314
0.000220298
0.000207428
0.000194732
0.000182235
0.000169959
0.000157922
0.000146143
0.000134644
0.000123449
0.00011259
0.000102117
9.20653e-05
8.20496e-05
7.10515e-05
5.5871e-05
3.115e-05
2.2709e-06
3.30885e-06
4.94596e-05
9.12838e-05
0.000122607
0.000148849
0.000172181
0.000193546
0.000213409
0.000232039
0.000249634
0.000266362
0.000282375
0.000297814
0.000312808
0.000327473
0.000341909
0.0003562
0.000370417
0.000384613
0.00039883
0.000413099
0.00042744
0.000441867
0.000456387
0.000471002
0.000485703
0.000500472
0.000515259
0.000529937
0.000544182
0.00055719
0.000567235
0.000571872
0.000571959
0.000572662
0.000574159
0.000572798
0.000573077
0.000575923
0.000580674
0.000579482
0.000589878
0.000597961
0.000604903
0.000611716
0.000611799
0.000615732
0.000621873
0.000628778
0.000636117
0.000643483
0.000650483
0.000656919
0.000662331
0.00067126
0.000678369
0.000685466
0.000692849
0.000699963
0.000706482
0.000712813
0.000719016
0.000725038
0.000730826
0.000736349
0.000741583
0.000746522
0.000751175
0.000755555
0.000759676
0.000763553
0.000767204
0.000770644
0.000773879
0.000776915
0.000779749
0.000782404
0.000784895
0.000787221
0.000789381
0.000791376
0.000793204
0.000794865
0.00079636
0.000797694
0.000798872
0.0007999
0.00080078
0.000801512
0.000802098
0.000802538
0.000802832
0.000802983
0.000802991
0.000802858
0.000802586
0.000802176
0.000801631
0.000800952
0.000800141
0.000799199
0.000798132
0.000796947
0.000795655
0.000794264
0.000792778
0.000791199
0.000789525
0.000787754
0.000785881
0.000783902
0.000781812
0.000779611
0.000777309
0.000774917
0.000772438
0.000769857
0.000767153
0.000764313
0.00076134
0.000758246
0.00075503
0.000751679
0.000748171
0.000744471
0.00074054
0.000736304
0.000731689
0.000726747
0.000721438
0.000715498
0.000708605
0.000701297
0.000695181
0.000691741
0.000693637
0.000681849
0.000673331
0.000664096
0.000655852
0.000648885
0.000642999
0.000638198
0.000634604
0.000628925
0.000623851
0.000618483
0.00061272
0.000606813
0.000600865
0.000593992
0.000595776
0.000592062
0.000587686
0.000585565
0.000581882
0.000574277
0.000556989
0.000545118
0.000536939
0.000530666
0.000525957
0.00053356
0.000534796
0.000534135
0.000534762
0.000532965
0.000514789
0.000522109
0.000524535
0.000520708
0.000512774
0.000502298
0.000490146
0.000476807
0.000462595
0.000447738
0.000432406
0.000416735
0.000400825
0.000384757
0.000368592
0.000352378
0.000336152
0.000319947
0.000303787
0.000287695
0.000271685
0.000255771
0.000239961
0.000224259
0.000208658
0.000193134
0.000177604
0.000161805
0.000144919
0.000124954
9.74205e-05
5.41068e-05
4.51984e-06
3.29762e-06
4.93819e-05
9.11732e-05
0.000122485
0.000148722
0.000172051
0.000193414
0.000213276
0.000231905
0.0002495
0.000266228
0.000282242
0.000297683
0.000312679
0.000327345
0.000341783
0.000356077
0.000370295
0.000384493
0.000398712
0.000412983
0.000427327
0.000441756
0.000456279
0.000470896
0.0004856
0.000500373
0.000515166
0.000529853
0.000544112
0.00055713
0.000567154
0.000571761
0.000572108
0.000573485
0.000575709
0.000564995
0.000570796
0.000576115
0.000582977
0.000590998
0.000596437
0.000600974
0.000606146
0.000612177
0.000618602
0.00062613
0.000632939
0.000634744
0.000637867
0.000643613
0.000649717
0.000658326
0.000666756
0.000679443
0.00068898
0.000696481
0.000703056
0.000708584
0.00070928
0.000712698
0.000718168
0.000724354
0.000730466
0.000736206
0.000741529
0.000746479
0.00075111
0.000755463
0.000759562
0.000763423
0.000767062
0.000770494
0.000773725
0.000776764
0.000779613
0.000782282
0.00078478
0.000787102
0.000789251
0.000791231
0.000793046
0.000794699
0.000796192
0.000797529
0.000798713
0.000799745
0.000800629
0.000801364
0.000801952
0.000802392
0.000802687
0.000802839
0.000802848
0.000802716
0.000802444
0.000802035
0.00080149
0.000800811
0.000799999
0.000799057
0.00079799
0.000796807
0.000795516
0.000794126
0.000792641
0.000791062
0.000789389
0.000787618
0.000785745
0.000783764
0.000781672
0.00077947
0.000777169
0.00077478
0.000772303
0.000769725
0.000767023
0.000764179
0.000761198
0.000758091
0.000754872
0.000751547
0.000748102
0.000744481
0.000740603
0.000736375
0.000731701
0.000726382
0.000719854
0.00071229
0.000704716
0.000698304
0.000693757
0.000690491
0.00068361
0.000675763
0.000670706
0.00066302
0.000655351
0.00064884
0.000644166
0.000638143
0.000633592
0.000628834
0.000623617
0.000617956
0.000612045
0.000606096
0.000600122
0.000593024
0.000595195
0.000591618
0.000586032
0.000581958
0.000580121
0.000575612
0.000566181
0.000556607
0.000550046
0.000547472
0.000544463
0.000541784
0.000539311
0.000536639
0.000534202
0.000532539
0.000530389
0.000529557
0.000526863
0.000521214
0.00051283
0.000502292
0.000490144
0.000476808
0.000462593
0.000447731
0.000432396
0.000416723
0.000400813
0.000384745
0.00036858
0.000352365
0.00033614
0.000319934
0.000303775
0.000287682
0.000271672
0.000255758
0.000239948
0.000224245
0.000208645
0.000193122
0.000177594
0.000161799
0.000144918
0.000124961
9.74353e-05
5.41175e-05
4.52317e-06
5.08126e-06
6.12155e-05
0.0001135
0.000153568
0.000187059
0.000216644
0.000243571
0.000268487
0.000291776
0.000313709
0.000334503
0.000354347
0.000373408
0.00039184
0.000409775
0.000427331
0.000444605
0.000461677
0.000478612
0.00049546
0.000512257
0.00052903
0.000545798
0.00056257
0.000579351
0.000596136
0.000612911
0.000629637
0.000646226
0.000662474
0.000677935
0.000691766
0.000702951
0.000711718
0.00071981
0.000727794
0.000735142
0.000742513
0.000750391
0.00075889
0.000766649
0.000775578
0.000784453
0.000793265
0.00080228
0.000810545
0.0008191
0.000827987
0.000837046
0.000846195
0.000855278
0.000864183
0.000872775
0.000880818
0.000888945
0.000896873
0.000904855
0.000912879
0.000920765
0.000928404
0.000935854
0.000943153
0.000950305
0.000957279
0.000964037
0.000970542
0.000976768
0.000982705
0.000988355
0.000993723
0.000998817
0.00100365
0.00100823
0.00101257
0.00101666
0.00102051
0.00102413
0.00102749
0.00103064
0.00103356
0.00103627
0.00103876
0.00104104
0.0010431
0.00104496
0.00104661
0.00104806
0.00104931
0.00105036
0.00105121
0.00105187
0.00105233
0.00105261
0.00105269
0.00105259
0.0010523
0.00105183
0.00105118
0.00105036
0.00104936
0.00104819
0.00104685
0.00104536
0.00104373
0.00104195
0.00104004
0.001038
0.00103583
0.00103353
0.0010311
0.00102853
0.00102583
0.00102299
0.00102001
0.00101691
0.00101367
0.00101029
0.00100675
0.00100305
0.000999179
0.000995143
0.000990936
0.000986546
0.000981956
0.00097714
0.000972062
0.000966678
0.000960959
0.00095495
0.000948709
0.00094224
0.000935488
0.000928568
0.00092185
0.000915664
0.000910455
0.000903334
0.000895803
0.000887963
0.000880211
0.000872689
0.000865384
0.000858307
0.000851523
0.00084445
0.000837109
0.000829397
0.000821385
0.000813237
0.000805065
0.000796497
0.00078872
0.000780395
0.000772201
0.000764627
0.000756927
0.000748696
0.000739004
0.000729523
0.000720508
0.000711859
0.000703265
0.000696242
0.000688889
0.000681873
0.00067576
0.000669641
0.000660853
0.000654493
0.000647248
0.000638028
0.000626885
0.000614117
0.000600017
0.000584832
0.000568775
0.000552028
0.000534741
0.000517039
0.00049902
0.000480761
0.000462321
0.00044375
0.000425084
0.000406354
0.000387585
0.000368793
0.000349991
0.000331183
0.000312362
0.000293506
0.000274563
0.000255429
0.000235873
0.000215373
0.000192723
0.000165281
0.00012763
7.08565e-05
7.13315e-06
5.0652e-06
6.11302e-05
0.00011338
0.000153435
0.000186922
0.000216506
0.000243433
0.000268349
0.000291639
0.000313574
0.00033437
0.000354215
0.000373279
0.000391713
0.000409651
0.000427209
0.000444485
0.00046156
0.000478497
0.000495346
0.000512146
0.000528921
0.00054569
0.000562465
0.000579248
0.000596036
0.000612814
0.000629544
0.000646138
0.000662393
0.000677858
0.000691671
0.000702815
0.000711599
0.00071984
0.000728202
0.000734403
0.00074208
0.000750202
0.000759003
0.000768079
0.000776683
0.000785027
0.000793468
0.000802133
0.000810956
0.000820034
0.000829143
0.000837762
0.000846483
0.000855396
0.000864025
0.000872626
0.000881016
0.000889827
0.00089825
0.000906285
0.000914078
0.000921649
0.000928514
0.000935551
0.000942822
0.000950101
0.000957194
0.000964008
0.000970516
0.000976721
0.000982632
0.00098826
0.000993612
0.000998697
0.00100352
0.0010081
0.00101244
0.00101653
0.00102039
0.00102401
0.00102738
0.00103052
0.00103344
0.00103614
0.00103863
0.0010409
0.00104296
0.00104482
0.00104647
0.00104792
0.00104917
0.00105022
0.00105108
0.00105174
0.0010522
0.00105248
0.00105256
0.00105246
0.00105217
0.0010517
0.00105105
0.00105023
0.00104923
0.00104806
0.00104673
0.00104524
0.0010436
0.00104183
0.00103992
0.00103788
0.00103571
0.00103341
0.00103098
0.00102841
0.00102571
0.00102287
0.00101989
0.00101679
0.00101355
0.00101017
0.00100664
0.00100293
0.000999058
0.000995019
0.000990817
0.000986448
0.000981897
0.000977128
0.000972093
0.00096674
0.000961037
0.000954951
0.000948382
0.000941422
0.000934369
0.000927558
0.0009212
0.000915315
0.000909108
0.000902216
0.000895167
0.000887606
0.000879961
0.000872532
0.000865613
0.00085867
0.000851737
0.000844548
0.000837036
0.000829213
0.000821161
0.000813008
0.000804834
0.000796201
0.000788503
0.000780184
0.000771642
0.000763626
0.000756206
0.000748319
0.000739348
0.000730031
0.00072122
0.000713193
0.000705184
0.000697286
0.000689536
0.000681942
0.000674732
0.000668096
0.000661571
0.000654997
0.000647339
0.000637989
0.000626857
0.00061412
0.000600032
0.000584846
0.000568783
0.00055203
0.00053474
0.000517037
0.000499017
0.000480758
0.00046232
0.000443749
0.000425083
0.000406353
0.000387583
0.000368792
0.00034999
0.000331182
0.000312362
0.000293506
0.000274565
0.000255432
0.00023588
0.000215384
0.000192742
0.000165309
0.000127663
7.08764e-05
7.13908e-06
7.22868e-06
7.08648e-05
0.000130563
0.000177135
0.000216089
0.000250362
0.000281421
0.000310056
0.000336746
0.000361827
0.000385561
0.000408173
0.000429858
0.000450792
0.000471126
0.000490989
0.00051049
0.000529718
0.000548743
0.000567618
0.000586384
0.000605071
0.000623698
0.000642277
0.000660814
0.000679307
0.000697744
0.000716098
0.000734316
0.000752284
0.000769786
0.000786457
0.000801874
0.000815967
0.000829172
0.000841815
0.000853953
0.00086577
0.000877451
0.000889103
0.00090055
0.000911961
0.000923249
0.000934416
0.000945525
0.00095647
0.000967344
0.000978171
0.000988933
0.000999602
0.00101013
0.00102049
0.00103062
0.00104044
0.00105002
0.00105937
0.00106856
0.00107761
0.00108645
0.00109507
0.00110347
0.00111167
0.00111968
0.00112749
0.00113507
0.00114241
0.00114949
0.00115629
0.00116281
0.00116905
0.00117501
0.00118069
0.0011861
0.00119124
0.00119611
0.00120071
0.00120504
0.0012091
0.00121288
0.0012164
0.00121967
0.00122269
0.00122545
0.00122797
0.00123024
0.00123227
0.00123406
0.00123561
0.00123692
0.001238
0.00123885
0.00123947
0.00123986
0.00124002
0.00123997
0.00123969
0.0012392
0.00123849
0.00123757
0.00123645
0.00123513
0.00123362
0.00123192
0.00123004
0.00122799
0.00122577
0.0012234
0.00122087
0.00121818
0.00121533
0.00121233
0.00120917
0.00120585
0.00120237
0.00119874
0.00119494
0.00119097
0.00118682
0.00118248
0.00117796
0.00117325
0.00116833
0.00116321
0.00115788
0.00115232
0.00114652
0.00114045
0.00113412
0.00112754
0.00112078
0.00111387
0.00110681
0.00109962
0.00109234
0.00108503
0.00107777
0.00107015
0.00106226
0.00105416
0.00104593
0.00103762
0.00102924
0.00102077
0.00101222
0.00100349
0.000994521
0.000985284
0.000975797
0.000966119
0.000956309
0.000946302
0.000936215
0.000925963
0.000915685
0.000905492
0.000895253
0.000884866
0.000874179
0.000863351
0.000852479
0.000841601
0.000830639
0.000819766
0.000808866
0.000798124
0.000787666
0.000777264
0.000766332
0.000755267
0.000743577
0.000730894
0.000717091
0.000702177
0.000686233
0.000669375
0.000651731
0.000633429
0.000614589
0.000595311
0.000575682
0.00055577
0.000535633
0.000515315
0.000494854
0.000474278
0.000453611
0.000432868
0.000412055
0.000391164
0.000370171
0.000349021
0.000327615
0.00030576
0.00028309
0.000258863
0.000231545
0.000198001
0.00015213
8.45281e-05
9.72229e-06
7.20633e-06
7.07715e-05
0.000130435
0.000176995
0.000215947
0.000250221
0.000281282
0.000309919
0.000336612
0.000361696
0.000385433
0.000408048
0.000429737
0.000450674
0.000471012
0.000490878
0.000510383
0.000529614
0.000548642
0.00056752
0.000586289
0.000604978
0.000623607
0.000642189
0.000660728
0.000679223
0.000697662
0.00071602
0.000734241
0.000752212
0.000769713
0.000786371
0.000801754
0.000815812
0.000829005
0.000841705
0.000853713
0.000865516
0.000877208
0.000888907
0.000900549
0.000911982
0.000923222
0.000934344
0.000945395
0.000956381
0.000967326
0.000978206
0.000988954
0.000999613
0.00101016
0.00102048
0.00103056
0.00104039
0.00105005
0.00105948
0.00106867
0.00107765
0.00108643
0.00109495
0.00110332
0.00111155
0.0011196
0.00112744
0.00113503
0.00114237
0.00114943
0.00115622
0.00116273
0.00116896
0.00117492
0.0011806
0.00118601
0.00119115
0.00119602
0.00120062
0.00120496
0.00120902
0.0012128
0.00121632
0.00121958
0.00122259
0.00122535
0.00122787
0.00123014
0.00123217
0.00123396
0.00123551
0.00123683
0.00123791
0.00123876
0.00123938
0.00123977
0.00123993
0.00123988
0.0012396
0.00123911
0.0012384
0.00123749
0.00123637
0.00123505
0.00123353
0.00123183
0.00122995
0.0012279
0.00122569
0.00122332
0.00122078
0.0012181
0.00121525
0.00121225
0.00120909
0.00120577
0.00120229
0.00119866
0.00119486
0.00119089
0.00118674
0.00118241
0.00117788
0.00117317
0.00116826
0.00116316
0.00115785
0.00115232
0.00114654
0.00114049
0.00113418
0.0011276
0.00112077
0.00111373
0.00110656
0.00109934
0.0010921
0.00108487
0.00107753
0.00106994
0.00106211
0.00105405
0.00104583
0.00103754
0.00102922
0.00102082
0.00101227
0.0010035
0.000994484
0.000985218
0.000975723
0.000966045
0.000956237
0.000946215
0.00093613
0.000925865
0.000915501
0.0009052
0.000894986
0.000884649
0.000874021
0.00086318
0.000852305
0.000841495
0.000830638
0.000819739
0.000808826
0.000797941
0.000787173
0.000776566
0.000765939
0.000755039
0.000743446
0.00073084
0.000717089
0.000702199
0.000686261
0.000669399
0.00065175
0.000633446
0.000614604
0.000595326
0.000575697
0.000555787
0.00053565
0.000515333
0.000494871
0.000474296
0.000453629
0.000432886
0.000412073
0.000391182
0.000370189
0.00034904
0.000327635
0.000305783
0.000283117
0.000258896
0.000231586
0.000198049
0.00015218
8.45568e-05
9.73172e-06
1.01551e-05
8.04521e-05
0.000146347
0.000198346
0.000241844
0.000279952
0.000314306
0.000345824
0.000375077
0.000402465
0.000428301
0.00045285
0.000476342
0.000498977
0.000520931
0.000542351
0.00056336
0.000584055
0.000604515
0.000624798
0.000644948
0.000664997
0.000684964
0.000704863
0.000724699
0.00074447
0.000764168
0.000783774
0.000803253
0.000822541
0.00084153
0.000860056
0.000877927
0.000895038
0.000911446
0.000927252
0.000942536
0.000957391
0.000971911
0.000986164
0.00100015
0.0010139
0.00102741
0.00104069
0.00105375
0.0010666
0.00107925
0.00109172
0.00110399
0.00111606
0.00112792
0.00113955
0.00115093
0.00116204
0.00117287
0.00118343
0.00119374
0.0012038
0.00121361
0.00122316
0.00123245
0.00124148
0.00125027
0.00125882
0.00126711
0.00127513
0.00128289
0.00129036
0.00129755
0.00130445
0.00131106
0.00131738
0.00132342
0.00132917
0.00133463
0.0013398
0.00134467
0.00134926
0.00135355
0.00135755
0.00136127
0.0013647
0.00136786
0.00137074
0.00137335
0.00137569
0.00137776
0.00137957
0.00138111
0.00138238
0.00138339
0.00138415
0.00138465
0.00138489
0.00138489
0.00138464
0.00138415
0.00138341
0.00138245
0.00138125
0.00137983
0.00137819
0.00137634
0.00137429
0.00137204
0.0013696
0.00136698
0.00136418
0.0013612
0.00135805
0.00135472
0.00135121
0.00134753
0.00134367
0.00133963
0.0013354
0.00133099
0.00132638
0.00132158
0.00131657
0.00131136
0.00130593
0.0013003
0.00129444
0.00128837
0.00128207
0.00127554
0.00126877
0.0012618
0.00125463
0.00124729
0.00123979
0.00123212
0.0012243
0.00121631
0.00120817
0.00119982
0.00119127
0.00118252
0.00117359
0.00116448
0.00115519
0.00114572
0.00113606
0.00112619
0.00111607
0.00110572
0.00109512
0.00108429
0.00107326
0.00106203
0.00105063
0.00103905
0.00102733
0.00101551
0.00100356
0.000991447
0.000979146
0.000966669
0.000954044
0.000941298
0.000928419
0.000915424
0.000902315
0.00088914
0.000875923
0.000862595
0.000848987
0.000835031
0.000820559
0.000805408
0.000789476
0.000772726
0.000755172
0.000736868
0.00071789
0.000698325
0.000678257
0.000657766
0.000636922
0.000615784
0.000594402
0.00057282
0.000551072
0.000529185
0.00050718
0.000485069
0.000462849
0.000440499
0.000417974
0.000395182
0.000371968
0.000348053
0.000322937
0.000295678
0.000264458
0.000225743
0.000172924
9.62708e-05
1.22901e-05
1.01245e-05
8.03512e-05
0.00014621
0.000198198
0.000241695
0.000279805
0.000314163
0.000345685
0.000374942
0.000402335
0.000428176
0.000452729
0.000476226
0.000498866
0.000520825
0.00054225
0.000563263
0.000583962
0.000604426
0.000624713
0.000644866
0.000664918
0.000684889
0.00070479
0.000724629
0.000744403
0.000764103
0.000783712
0.000803194
0.000822484
0.000841473
0.000859993
0.000877847
0.000894935
0.000911319
0.000927117
0.000942378
0.000957222
0.000971741
0.000986005
0.00100003
0.0010138
0.00102731
0.00104058
0.00105365
0.0010665
0.00107917
0.00109165
0.00110393
0.00111602
0.00112789
0.00113953
0.0011509
0.00116201
0.00117284
0.00118341
0.00119372
0.00120376
0.00121355
0.00122309
0.00123237
0.00124142
0.00125023
0.00125878
0.00126707
0.00127509
0.00128284
0.00129031
0.00129749
0.00130439
0.001311
0.00131733
0.00132336
0.00132911
0.00133457
0.00133974
0.00134462
0.00134921
0.0013535
0.0013575
0.00136121
0.00136465
0.00136781
0.00137069
0.0013733
0.00137564
0.00137771
0.00137952
0.00138105
0.00138233
0.00138334
0.0013841
0.0013846
0.00138484
0.00138484
0.00138459
0.0013841
0.00138337
0.0013824
0.00138121
0.00137979
0.00137815
0.0013763
0.00137425
0.001372
0.00136956
0.00136694
0.00136414
0.00136116
0.00135801
0.00135468
0.00135117
0.00134749
0.00134363
0.00133959
0.00133537
0.00133096
0.00132635
0.00132154
0.00131654
0.00131132
0.00130591
0.00130028
0.00129444
0.00128838
0.00128209
0.00127557
0.00126882
0.00126185
0.00125466
0.00124729
0.00123975
0.00123207
0.00122423
0.00121626
0.00120811
0.00119978
0.00119123
0.00118249
0.00117356
0.00116445
0.00115518
0.00114572
0.00113606
0.00112618
0.00111606
0.0011057
0.0010951
0.00108427
0.00107324
0.00106201
0.0010506
0.00103902
0.00102728
0.00101543
0.00100347
0.000991371
0.000979079
0.000966601
0.000953974
0.000941233
0.000928369
0.000915382
0.000902278
0.00088907
0.000875776
0.000862389
0.000848823
0.000834931
0.000820516
0.000805408
0.000789501
0.000772761
0.000755209
0.000736904
0.000717924
0.000698357
0.00067829
0.0006578
0.000636957
0.00061582
0.000594439
0.000572857
0.000551108
0.000529221
0.000507217
0.000485105
0.000462885
0.000440536
0.00041801
0.00039522
0.000372007
0.000348096
0.000322983
0.00029573
0.000264519
0.00022581
0.000172989
9.63082e-05
1.23034e-05
1.38219e-05
9.08358e-05
0.000162406
0.000219307
0.000266859
0.000308315
0.000345464
0.000379343
0.000410614
0.000439744
0.000467102
0.000492996
0.000517692
0.000541423
0.000564389
0.000586762
0.000608681
0.000630258
0.000651583
0.000672721
0.000693723
0.000714622
0.000735441
0.000756194
0.000776886
0.000797515
0.000818075
0.000838552
0.000858918
0.000879137
0.000899147
0.000918865
0.000938193
0.000957052
0.000975411
0.000993275
0.00101067
0.00102764
0.00104422
0.00106045
0.00107635
0.00109193
0.0011072
0.00112218
0.00113686
0.00115126
0.00116538
0.00117922
0.0011928
0.00120611
0.00121914
0.00123188
0.00124434
0.0012565
0.00126836
0.00127992
0.00129118
0.00130215
0.00131282
0.00132319
0.00133328
0.00134307
0.00135257
0.00136178
0.00137071
0.00137935
0.00138769
0.00139573
0.00140347
0.00141091
0.00141805
0.00142489
0.00143142
0.00143765
0.00144357
0.00144919
0.0014545
0.00145951
0.00146421
0.0014686
0.00147268
0.00147646
0.00147994
0.00148312
0.00148601
0.00148861
0.00149091
0.00149293
0.00149466
0.0014961
0.00149726
0.00149814
0.00149874
0.00149906
0.00149912
0.0014989
0.00149843
0.00149769
0.0014967
0.00149546
0.00149397
0.00149225
0.0014903
0.00148812
0.00148573
0.00148313
0.00148032
0.00147732
0.00147412
0.00147073
0.00146714
0.00146337
0.0014594
0.00145524
0.00145089
0.00144634