/*--------------------------------*- C++ -*----------------------------------*\
  =========                 |
  \\      /  F ield         | OpenFOAM: The Open Source CFD Toolbox
   \\    /   O peration     | Website:  https://openfoam.org
    \\  /    A nd           | Version:  8
     \\/     M anipulation  |
\*---------------------------------------------------------------------------*/
FoamFile
{
    version     2.0;
    format      ascii;
    class       volScalarField;
    location    "100";
    object      epsilon;
}
// * * * * * * * * * * * * * * * * * * * * * * * * * * * * * * * * * * * * * //

dimensions      [0 2 -3 0 0 0 0];

internalField   nonuniform List<scalar> 
48000
(
0.000856789
0.00276006
0.00547306
0.00871831
0.0122215
0.0159875
0.0198007
0.0236159
0.0275
0.0314746
0.035561
0.0397852
0.0441775
0.0487706
0.0535984
0.0586943
0.0640898
0.0698139
0.0758916
0.0823441
0.0891883
0.096437
0.104099
0.112179
0.120679
0.129596
0.138921
0.148637
0.1587
0.169004
0.179242
0.188491
0.194141
0.187609
0.18477
0.192529
0.182166
0.182863
0.185429
0.187305
0.834773
0.188274
0.189503
0.192384
0.195234
0.884383
0.910345
0.928653
0.946312
0.97677
1.00435
1.03334
1.05823
1.08425
0.890778
0.855339
0.852152
0.851839
0.85667
0.865949
0.879099
0.895698
0.915823
0.936752
0.957243
0.976722
0.994903
1.01202
1.02848
1.04436
1.05949
1.07374
1.08709
1.09974
1.11176
1.12318
1.134
1.1442
1.15376
1.16268
1.17093
1.17853
1.18543
1.19163
1.19712
1.20194
1.20608
1.20959
1.21245
1.21467
1.21626
1.21721
1.21753
1.21723
1.21631
1.21478
1.21266
1.20995
1.20666
1.2028
1.19838
1.1934
1.18791
1.18193
1.17552
1.16871
1.16153
1.15399
1.1461
1.13785
1.12923
1.12023
1.11084
1.10108
1.09101
1.0807
1.07015
1.05928
1.04801
1.03634
1.02432
1.01201
0.999373
0.986374
0.972907
0.958892
0.944013
0.927234
0.908515
0.889637
0.874491
0.86703
0.87087
0.865737
0.838203
0.195474
1.02825
1.00572
1.02704
1.03331
1.02442
1.00687
0.984578
0.959116
0.998868
0.987261
0.957905
0.928628
0.901686
0.881876
0.947071
0.194554
0.188739
0.185126
0.194997
0.195563
0.184158
0.867352
0.887487
0.87747
0.870212
0.868251
0.189979
0.180389
0.177908
0.19053
0.196116
0.835086
0.196672
0.193642
0.18911
0.183379
0.176646
0.169075
0.160832
0.152092
0.143019
0.133759
0.124437
0.115151
0.105983
0.0969983
0.0882491
0.07978
0.0716283
0.0638266
0.0564031
0.0493828
0.0427879
0.0366381
0.0309515
0.0257442
0.021028
0.016792
0.0129632
0.00984915
0.00719795
0.00489233
0.00284399
0.00101438
0.000851547
0.00274876
0.00545475
0.00869339
0.0121915
0.0159531
0.0197631
0.0235757
0.0274577
0.0314306
0.0355158
0.0397394
0.0441313
0.0487243
0.0535523
0.0586485
0.0640447
0.0697694
0.075848
0.0823014
0.0891465
0.0963961
0.104059
0.11214
0.120641
0.129559
0.138886
0.148603
0.158669
0.16898
0.179233
0.188507
0.194169
0.187624
0.184871
0.194952
0.856512
0.186799
0.18548
0.186599
0.196851
0.187922
0.189254
0.192317
0.195354
0.196014
0.183742
0.181152
0.838818
0.949724
1.00362
1.01321
0.945172
0.844481
0.191927
0.190854
0.192155
0.194377
0.197085
0.852981
0.882052
0.905331
0.925144
0.944005
0.962217
0.979745
0.996562
1.01279
1.02869
1.04431
1.05938
1.07356
1.08676
1.09934
1.11136
1.12283
1.13373
1.14401
1.15361
1.16251
1.17072
1.17824
1.18509
1.19125
1.19674
1.20156
1.20573
1.20925
1.21212
1.21436
1.21594
1.2169
1.21722
1.21692
1.21601
1.21448
1.21236
1.20965
1.20636
1.2025
1.19808
1.1931
1.18761
1.18164
1.17523
1.16843
1.16126
1.15372
1.14583
1.13757
1.12895
1.11994
1.11054
1.10078
1.09072
1.08042
1.06988
1.05903
1.04776
1.03605
1.02395
1.01152
0.99887
0.98608
0.973056
0.959474
0.944883
0.928897
0.912434
0.899919
0.900586
0.900231
0.89117
0.860097
0.832391
1.06433
1.10786
1.02417
1.0324
1.03508
1.02494
1.0063
1.0467
1.03088
1.00839
0.981325
0.954174
0.927469
0.901713
0.882015
0.947485
0.194726
0.188723
0.184999
0.181453
0.191505
0.191401
0.179232
0.178124
0.175715
0.183198
0.182475
0.179527
0.185409
0.185441
0.184617
0.185365
0.190041
0.192608
0.191943
0.188598
0.18334
0.17674
0.169171
0.160898
0.152129
0.143037
0.133768
0.124441
0.115154
0.105986
0.0970008
0.0882515
0.079782
0.07163
0.0638277
0.0564036
0.0493826
0.0427868
0.0366363
0.0309491
0.0257411
0.0210246
0.0167883
0.0129596
0.00984634
0.00719612
0.00489131
0.00284379
0.00101457
0.00310593
0.00286212
0.00422412
0.00600649
0.00801452
0.0102234
0.0125956
0.0151153
0.0177876
0.0206233
0.023638
0.026852
0.0302891
0.0339753
0.0379383
0.0422058
0.0468048
0.0517608
0.0570968
0.0628335
0.0689885
0.0755766
0.0826092
0.0900947
0.0980378
0.10644
0.1153
0.124611
0.134362
0.144545
0.155188
0.166463
0.178974
0.193919
0.207692
0.220698
0.246525
0.264414
0.279288
0.295056
0.340956
0.319613
0.323158
0.333229
0.348797
0.402672
0.424884
0.439476
0.453431
0.467219
0.480342
0.493794
0.506798
0.51811
0.50858
0.513959
0.521503
0.529
0.537467
0.547781
0.557697
0.56782
0.578442
0.589271
0.600025
0.610534
0.620723
0.630601
0.640199
0.649506
0.658469
0.667039
0.675196
0.682967
0.690362
0.697378
0.704007
0.710243
0.716078
0.721506
0.726526
0.731134
0.735331
0.739113
0.742481
0.745437
0.747985
0.750129
0.751871
0.753214
0.754159
0.754709
0.754869
0.754644
0.75404
0.753062
0.751716
0.750008
0.747947
0.74554
0.742793
0.739716
0.736321
0.732624
0.728645
0.7244
0.719906
0.715176
0.71022
0.705045
0.699655
0.694055
0.68825
0.682246
0.676051
0.669673
0.663114
0.656369
0.649433
0.642297
0.634962
0.627434
0.619718
0.611809
0.603691
0.59533
0.586684
0.577746
0.568534
0.559596
0.551965
0.546604
0.543697
0.537514
0.521905
0.478182
0.518643
0.517948
0.519362
0.516659
0.510091
0.500969
0.490178
0.47844
0.475583
0.4652
0.453013
0.440854
0.429066
0.418085
0.407138
0.347864
0.32855
0.314857
0.292673
0.281233
0.289466
0.334698
0.341643
0.336701
0.327661
0.310799
0.242724
0.219614
0.207325
0.197415
0.196706
0.241565
0.188808
0.170036
0.160153
0.152408
0.144972
0.137376
0.129549
0.121543
0.113443
0.105341
0.0973166
0.0894396
0.0817656
0.0743405
0.067202
0.0603807
0.0539006
0.04778
0.0420324
0.0366678
0.0316931
0.0271119
0.0229246
0.0191274
0.0157129
0.0126696
0.00998809
0.00769907
0.00578189
0.00424415
0.00326021
0.00396708
0.00309169
0.00285151
0.00421124
0.00599104
0.00799668
0.0102034
0.0125737
0.0150917
0.0177627
0.0205973
0.0236112
0.0268246
0.0302612
0.0339472
0.0379101
0.0421776
0.0467769
0.0517331
0.0570695
0.0628065
0.068962
0.0755506
0.0825838
0.0900698
0.0980136
0.106417
0.115277
0.124589
0.134341
0.144529
0.155183
0.166497
0.179099
0.194011
0.207832
0.224627
0.287753
0.272617
0.278889
0.286902
0.287105
0.303162
0.317793
0.330747
0.342574
0.354129
0.362557
0.376837
0.427015
0.45938
0.478287
0.490189
0.48976
0.487221
0.456064
0.454535
0.461515
0.471305
0.486313
0.53536
0.557567
0.570778
0.581218
0.591096
0.601011
0.610978
0.62088
0.630626
0.64017
0.649462
0.658429
0.667
0.675148
0.682918
0.690312
0.69733
0.703965
0.710211
0.716055
0.721489
0.726508
0.731112
0.735301
0.739076
0.742439
0.745393
0.747942
0.750088
0.751832
0.753175
0.754121
0.754671
0.754831
0.754606
0.754001
0.753022
0.751675
0.749967
0.747905
0.745495
0.742746
0.739667
0.73627
0.732573
0.728594
0.724353
0.719864
0.715139
0.710189
0.705019
0.699632
0.694031
0.68822
0.682208
0.676005
0.66962
0.663059
0.656316
0.649382
0.642249
0.634914
0.627388
0.619676
0.611781
0.6037
0.595405
0.586859
0.578148
0.56972
0.563163
0.560156
0.557066
0.551125
0.540077
0.529841
0.540541
0.542115
0.526046
0.522032
0.517472
0.510115
0.501155
0.499772
0.488823
0.476828
0.464607
0.452659
0.440928
0.429377
0.418499
0.408124
0.348987
0.329214
0.317811
0.304615
0.282961
0.272546
0.27804
0.276828
0.268549
0.248723
0.235678
0.223296
0.21158
0.201905
0.193598
0.186375
0.181458
0.173551
0.166242
0.159293
0.152281
0.145006
0.137427
0.129586
0.121565
0.113457
0.10535
0.0973247
0.0894465
0.0817716
0.0743461
0.0672076
0.0603865
0.0539062
0.0477848
0.0420362
0.0366707
0.0316954
0.0271139
0.0229262
0.0191284
0.0157131
0.0126692
0.00998749
0.00769875
0.00578197
0.00424462
0.00326152
0.00396959
0.00560934
0.00425419
0.00546868
0.00716511
0.00915628
0.0113811
0.0138028
0.0163993
0.0191621
0.0220932
0.0252041
0.0285136
0.0320463
0.0358302
0.0398957
0.0442732
0.0489923
0.0540807
0.0595634
0.0654625
0.0717967
0.0785816
0.0858293
0.0935486
0.101745
0.110421
0.119576
0.129208
0.139318
0.149923
0.161117
0.173193
0.186748
0.201762
0.216414
0.230666
0.246728
0.262087
0.276435
0.29008
0.306239
0.318037
0.330808
0.344044
0.357188
0.373157
0.387557
0.401022
0.414125
0.426946
0.43974
0.452662
0.465801
0.479411
0.491659
0.504125
0.51587
0.527006
0.537982
0.549039
0.559932
0.570674
0.581293
0.591734
0.601963
0.611969
0.621751
0.631311
0.640634
0.649684
0.658421
0.666815
0.674852
0.682528
0.689841
0.696781
0.703342
0.709517
0.715301
0.720688
0.725676
0.730263
0.734445
0.738223
0.741597
0.74457
0.747143
0.749318
0.751095
0.752477
0.753466
0.754065
0.754277
0.754106
0.753558
0.752637
0.751351
0.749706
0.747708
0.745366
0.742689
0.739687
0.736375
0.732765
0.728874
0.724716
0.720304
0.71565
0.710762
0.705652
0.700325
0.694791
0.689057
0.68313
0.67702
0.670729
0.664259
0.657605
0.650766
0.643744
0.636545
0.629178
0.621646
0.613947
0.606082
0.598071
0.589951
0.581786
0.573632
0.565614
0.557942
0.550774
0.543926
0.536075
0.526131
0.512264
0.506328
0.500137
0.493643
0.486099
0.477459
0.467907
0.457457
0.446009
0.434872
0.424027
0.413521
0.403234
0.392942
0.382521
0.372769
0.359666
0.34864
0.337358
0.324397
0.31297
0.303948
0.298167
0.290385
0.281232
0.27139
0.261186
0.246215
0.234126
0.222854
0.211351
0.201385
0.197328
0.184498
0.173519
0.164188
0.155591
0.147228
0.1389
0.130558
0.122219
0.113928
0.105736
0.097697
0.0898559
0.0822531
0.0749226
0.0678926
0.0611858
0.0548203
0.0488099
0.0431649
0.0378924
0.0329963
0.0284773
0.0243335
0.02056
0.0171507
0.0141007
0.0114122
0.00910329
0.00720198
0.00577945
0.00509578
0.00790907
0.00558892
0.00424044
0.00545481
0.0071502
0.0091401
0.0113636
0.0137842
0.0163797
0.0191417
0.0220722
0.0251827
0.0284921
0.0320247
0.0358089
0.0398747
0.0442528
0.0489726
0.0540618
0.0595454
0.0654455
0.0717809
0.078567
0.085816
0.0935367
0.101735
0.110412
0.119569
0.129203
0.139313
0.14992
0.161115
0.173194
0.186745
0.201643
0.215995
0.22978
0.248833
0.262427
0.276001
0.288862
0.300808
0.314951
0.32935
0.343413
0.357057
0.370463
0.383323
0.396421
0.412022
0.426224
0.439601
0.453017
0.465782
0.477906
0.486986
0.497715
0.509289
0.521053
0.533151
0.548053
0.56075
0.571785
0.582077
0.592122
0.602085
0.611966
0.621716
0.631287
0.640631
0.649701
0.658454
0.666858
0.674898
0.682576
0.68989
0.696834
0.703399
0.709579
0.715367
0.720756
0.725744
0.730327
0.734506
0.738281
0.741654
0.744627
0.7472
0.749375
0.751154
0.752536
0.753525
0.754123
0.754334
0.754163
0.753613
0.752692
0.751405
0.749759
0.747761
0.745419
0.742742
0.739741
0.736429
0.732821
0.728931
0.724773
0.72036
0.715704
0.710815
0.705703
0.700375
0.694839
0.689104
0.683177
0.677067
0.670778
0.664308
0.657652
0.65081
0.643785
0.636585
0.629217
0.621686
0.613994
0.606144
0.598151
0.590046
0.581917
0.573989
0.566735
0.560329
0.553816
0.546298
0.537175
0.526687
0.517441
0.509703
0.501699
0.494325
0.486407
0.47743
0.466914
0.456176
0.445236
0.434518
0.424025
0.413735
0.403548
0.393281
0.382852
0.37319
0.359864
0.348808
0.338305
0.326762
0.313788
0.302965
0.295092
0.286722
0.276811
0.26491
0.253864
0.242912
0.231931
0.221466
0.21132
0.201277
0.191701
0.181953
0.172731
0.164023
0.155597
0.147265
0.138933
0.130583
0.122238
0.113943
0.10575
0.0977103
0.0898686
0.0822653
0.0749344
0.0679039
0.0611966
0.0548303
0.0488189
0.0431729
0.0378994
0.0330025
0.0284828
0.0243381
0.0205637
0.0171536
0.0141029
0.011414
0.00910478
0.00720336
0.00578101
0.00509851
0.00791548
0.00861893
0.00632185
0.00754314
0.00944383
0.0117188
0.0142693
0.0170402
0.0199956
0.0231152
0.026393
0.029836
0.0334619
0.0372971
0.0413731
0.0457246
0.0503872
0.0553949
0.0607797
0.0665703
0.0727916
0.0794647
0.0866068
0.0942311
0.102347
0.110962
0.120078
0.129694
0.139811
0.150425
0.161547
0.173221
0.185575
0.198817
0.212891
0.227204
0.24153
0.256197
0.270938
0.285606
0.300185
0.315073
0.32974
0.344479
0.359247
0.37391
0.388742
0.403436
0.417953
0.432319
0.446535
0.460656
0.474704
0.488715
0.502786
0.516749
0.530518
0.543882
0.556857
0.569554
0.582041
0.594283
0.606261
0.617951
0.629333
0.640409
0.651196
0.661706
0.671944
0.681893
0.691527
0.700822
0.709759
0.718328
0.726525
0.734341
0.741767
0.748792
0.755407
0.761613
0.767405
0.772782
0.777739
0.782275
0.786389
0.790083
0.793356
0.796209
0.798643
0.800659
0.802257
0.803439
0.804207
0.804567
0.80452
0.804072
0.803229
0.801997
0.800383
0.798394
0.79604
0.79333
0.790278
0.786897
0.783201
0.779204
0.774918
0.770357
0.76553
0.76045
0.755126
0.749568
0.743785
0.73779
0.731591
0.725196
0.718606
0.71182
0.704837
0.697661
0.690303
0.682768
0.675061
0.667183
0.659135
0.650927
0.642586
0.634154
0.62567
0.617145
0.608555
0.59989
0.591161
0.582362
0.573275
0.563683
0.553304
0.543578
0.534139
0.524656
0.514893
0.504786
0.494364
0.48364
0.4726
0.461422
0.45032
0.439332
0.428405
0.417425
0.406302
0.395259
0.384045
0.372914
0.361571
0.34983
0.338203
0.326883
0.315953
0.305033
0.294049
0.283019
0.272128
0.260935
0.24994
0.238877
0.227637
0.21667
0.206696
0.196149
0.185889
0.176061
0.166547
0.157228
0.14804
0.13896
0.129998
0.121179
0.112533
0.104093
0.095894
0.0879639
0.0803294
0.0730125
0.0660317
0.0594021
0.0531353
0.0472404
0.0417231
0.0365861
0.0318295
0.0274506
0.023445
0.0198083
0.0165395
0.0136469
0.0111566
0.00912406
0.00768355
0.00733433
0.0124971
0.00859097
0.00630326
0.00752609
0.00942655
0.0117008
0.0142504
0.0170204
0.019975
0.023094
0.0263713
0.029814
0.03344
0.0372753
0.0413517
0.0457039
0.0503671
0.0553758
0.0607617
0.0665534
0.072776
0.0794504
0.086594
0.0942199
0.102338
0.110954
0.120072
0.12969
0.139809
0.150425
0.161549
0.173224
0.185581
0.198827
0.212884
0.227137
0.241309
0.256206
0.270894
0.285535
0.300047
0.314472
0.329265
0.344204
0.359111
0.373916
0.388624
0.40318
0.417624
0.432155
0.446427
0.460552
0.474701
0.488856
0.502892
0.516465
0.529942
0.543281
0.556398
0.569297
0.582218
0.59466
0.606595
0.618144
0.629402
0.640413
0.651183
0.661706
0.671965
0.681934
0.691584
0.700889
0.709833
0.718406
0.726605
0.734424
0.741852
0.748881
0.7555
0.761708
0.767502
0.772878
0.777834
0.782368
0.786481
0.790174
0.793447
0.796301
0.798735
0.800751
0.802349
0.80353
0.804299
0.804657
0.80461
0.804161
0.803318
0.802085
0.800471
0.798482
0.796128
0.79342
0.790369
0.786988
0.783293
0.779295
0.775008
0.770444
0.765615
0.760531
0.755204
0.749644
0.743861
0.737867
0.731671
0.725277
0.718686
0.711899
0.704915
0.697739
0.690378
0.68284
0.675128
0.667248
0.659201
0.650997
0.642656
0.634208
0.625697
0.617178
0.60873
0.600365
0.591881
0.58306
0.573751
0.563907
0.553858
0.54406
0.534444
0.524849
0.515034
0.504875
0.494242
0.483298
0.472271
0.46126
0.450294
0.439379
0.428481
0.417508
0.406381
0.395361
0.384118
0.372996
0.361822
0.35034
0.338533
0.327007
0.316024
0.30516
0.29414
0.282855
0.271727
0.260693
0.249705
0.23884
0.228029
0.21721
0.206525
0.196024
0.185876
0.176091
0.16658
0.157254
0.148059
0.138977
0.130014
0.121194
0.112547
0.104108
0.0959082
0.0879779
0.080343
0.0730255
0.0660439
0.0594132
0.0531455
0.0472497
0.0417315
0.0365937
0.0318362
0.0274563
0.0234498
0.0198123
0.0165429
0.0136499
0.0111591
0.00912638
0.00768614
0.00733882
0.0125085
0.0122695
0.00904671
0.0103999
0.0126422
0.01534
0.0183517
0.0215984
0.0250276
0.0286065
0.0323211
0.0361742
0.0401827
0.0443749
0.0487867
0.0534579
0.0584294
0.0637411
0.0694298
0.0755287
0.0820665
0.0890672
0.0965504
0.104531
0.113021
0.122026
0.131552
0.141598
0.152162
0.163242
0.174836
0.186955
0.199635
0.21293
0.22682
0.241131
0.255725
0.27059
0.285665
0.30089
0.316235
0.331727
0.347313
0.362987
0.378715
0.394451
0.410194
0.425899
0.441537
0.457087
0.472535
0.487877
0.503108
0.518224
0.533237
0.548128
0.562846
0.577319
0.591522
0.605461
0.619143
0.632552
0.645667
0.658461
0.670917
0.68303
0.694805
0.706249
0.717361
0.728129
0.738538
0.748571
0.758217
0.76747
0.776324
0.784772
0.792805
0.800414
0.807592
0.814333
0.820634
0.826497
0.831918
0.836896
0.841429
0.845518
0.849163
0.852363
0.855118
0.857429
0.859296
0.860721
0.861706
0.862254
0.86237
0.862058
0.861323
0.860173
0.858614
0.856655
0.854305
0.851577
0.848483
0.845036
0.841251
0.83714
0.832716
0.827992
0.822978
0.817687
0.812128
0.806313
0.800256
0.793967
0.787456
0.780726
0.773781
0.766621
0.759253
0.751683
0.743916
0.735957
0.727809
0.719474
0.710957
0.702266
0.693419
0.684437
0.675339
0.666127
0.656775
0.647254
0.637552
0.627682
0.617628
0.607363
0.596838
0.586223
0.575542
0.564743
0.553773
0.542613
0.531275
0.519772
0.50812
0.496355
0.48454
0.472706
0.460848
0.448938
0.436941
0.424898
0.412817
0.400705
0.388516
0.376227
0.363925
0.351671
0.339496
0.327386
0.315326
0.303317
0.29142
0.279619
0.267926
0.256277
0.244653
0.233161
0.221951
0.210881
0.200026
0.18942
0.179044
0.168873
0.158888
0.149086
0.139474
0.130068
0.120889
0.111961
0.103308
0.0949524
0.0869159
0.0792163
0.0718691
0.0648872
0.0582812
0.0520587
0.0462244
0.0407802
0.0357253
0.0310563
0.0267688
0.022859
0.0193278
0.0161877
0.0134737
0.0112638
0.00975013
0.00965058
0.0170271
0.0122321
0.00902197
0.0103782
0.012621
0.0153184
0.0183295
0.0215754
0.0250038
0.0285822
0.0322965
0.0361494
0.040158
0.0443506
0.0487629
0.0534348
0.0584073
0.06372
0.06941
0.0755102
0.0820494
0.0890516
0.0965364
0.104519
0.11301
0.122018
0.131546
0.141594
0.15216
0.163242
0.174838
0.18696
0.199644
0.212947
0.226844
0.241155
0.255728
0.27061
0.28569
0.300921
0.316258
0.331692
0.347275
0.362968
0.378714
0.394469
0.410208
0.425902
0.441527
0.457084
0.472525
0.487855
0.503095
0.518253
0.533296
0.548159
0.562842
0.577316
0.591549
0.605529
0.619267
0.632695
0.645786
0.658541
0.670966
0.683067
0.694844
0.706297
0.71742
0.728199
0.738615
0.748654
0.758304
0.76756
0.776417
0.784867
0.792902
0.800514
0.807694
0.814437
0.820739
0.826602
0.832023
0.837
0.841533
0.845622
0.849266
0.852466
0.855222
0.857533
0.8594
0.860825
0.86181
0.862358
0.862474
0.862161
0.861427
0.860276
0.858718
0.856759
0.85441
0.851682
0.848587
0.84514
0.841354
0.837242
0.832816
0.828089
0.823073
0.817779
0.812218
0.806403
0.800346
0.794058
0.787546
0.780816
0.773871
0.766713
0.759346
0.751774
0.744002
0.736038
0.727886
0.71955
0.711033
0.70234
0.693485
0.684487
0.675369
0.666141
0.656802
0.647342
0.637716
0.627882
0.617815
0.6075
0.596976
0.586346
0.575641
0.564824
0.553845
0.542678
0.531306
0.519755
0.508089
0.496349
0.484562
0.472745
0.460896
0.448988
0.43699
0.42495
0.412868
0.400764
0.388612
0.376373
0.364056
0.35177
0.339593
0.327499
0.315449
0.303424
0.291497
0.27968
0.26797
0.256369
0.244855
0.233416
0.2221
0.210969
0.200082
0.189455
0.179067
0.16889
0.158903
0.149101
0.139489
0.130083
0.120904
0.111976
0.103323
0.0949673
0.0869303
0.0792299
0.0718817
0.0648989
0.058292
0.0520687
0.0462336
0.0407885
0.0357325
0.0310626
0.0267743
0.0228638
0.0193321
0.0161916
0.013477
0.0112669
0.00975382
0.00965717
0.017044
0.0171967
0.0126426
0.0141485
0.0168083
0.0200129
0.0235658
0.0273593
0.0313225
0.0354102
0.0396005
0.0438924
0.0483026
0.052862
0.0576105
0.0625934
0.0678576
0.0734484
0.0794081
0.0857746
0.0925804
0.099853
0.107615
0.115884
0.124672
0.133989
0.143839
0.154224
0.165143
0.17659
0.188561
0.201052
0.214065
0.227604
0.241654
0.256155
0.271036
0.286248
0.301743
0.317474
0.333405
0.349512
0.365767
0.382146
0.398619
0.415154
0.431723
0.448297
0.464845
0.481343
0.497766
0.514097
0.530318
0.546413
0.562369
0.578172
0.593795
0.609206
0.624379
0.639299
0.653953
0.668324
0.682392
0.696134
0.709532
0.722575
0.735256
0.747572
0.759518
0.771084
0.782255
0.793022
0.803376
0.81331
0.822819
0.831897
0.840535
0.848727
0.856466
0.863747
0.870564
0.876916
0.882803
0.888225
0.893178
0.897664
0.901681
0.905229
0.908308
0.910918
0.913059
0.914734
0.915943
0.916691
0.916981
0.916818
0.916207
0.915156
0.913672
0.911763
0.90944
0.906715
0.9036
0.900109
0.896255
0.892051
0.887511
0.882645
0.877467
0.871988
0.866221
0.860178
0.85387
0.847308
0.8405
0.833453
0.826171
0.818661
0.810925
0.802969
0.794797
0.786414
0.777824
0.76903
0.760035
0.750844
0.741465
0.73191
0.722189
0.712306
0.702249
0.692004
0.681559
0.670921
0.660097
0.649092
0.637901
0.626544
0.615033
0.603364
0.591532
0.579537
0.567389
0.5551
0.542683
0.530158
0.517548
0.504869
0.492129
0.479327
0.466455
0.453524
0.440545
0.427525
0.414465
0.401373
0.388273
0.375192
0.362152
0.349167
0.336244
0.323394
0.310641
0.298006
0.285494
0.273099
0.260822
0.248691
0.236746
0.224988
0.213436
0.202103
0.190992
0.180104
0.16944
0.159003
0.148803
0.138853
0.12917
0.119772
0.110679
0.101909
0.0934799
0.0854065
0.0777024
0.0703791
0.0634456
0.0569084
0.0507712
0.0450348
0.0396972
0.0347541
0.0301999
0.0260302
0.0222462
0.0188627
0.0159222
0.0135229
0.011912
0.0120185
0.0215107
0.0171461
0.01261
0.0141206
0.0167817
0.0199864
0.0235389
0.0273318
0.0312944
0.0353818
0.0395719
0.0438637
0.0482742
0.052834
0.0575832
0.0625671
0.0678323
0.0734244
0.0793856
0.0857535
0.0925609
0.0998353
0.107599
0.11587
0.12466
0.133979
0.143831
0.154219
0.165139
0.176589
0.188562
0.201056
0.214073
0.227619
0.241676
0.256183
0.271067
0.286284
0.301782
0.317516
0.333446
0.349544
0.365797
0.382177
0.398653
0.41519
0.43176
0.448332
0.464879
0.481377
0.497798
0.514126
0.530347
0.546449
0.562415
0.57822
0.593842
0.609255
0.624436
0.639367
0.654033
0.66841
0.682475
0.696211
0.709604
0.722645
0.735328
0.747649
0.759599
0.771169
0.782345
0.793115
0.803471
0.813408
0.822919
0.831998
0.840638
0.848832
0.856573
0.863856
0.870674
0.877026
0.882913
0.888334
0.893288
0.897774
0.901791
0.90534
0.90842
0.91103
0.913171
0.914846
0.916056
0.916804
0.917095
0.916932
0.916322
0.91527
0.913786
0.911877
0.909554
0.906827
0.90371
0.900218
0.896362
0.892158
0.887616
0.88275
0.877571
0.872092
0.866323
0.860277
0.853967
0.847403
0.840596
0.833551
0.826272
0.818761
0.811022
0.803063
0.794887
0.786502
0.777911
0.769116
0.760119
0.750922
0.741535
0.731971
0.722243
0.712352
0.702293
0.692055
0.68163
0.67101
0.660195
0.649186
0.637989
0.626624
0.615105
0.60343
0.591595
0.579599
0.567445
0.555146
0.542723
0.530199
0.517593
0.504919
0.492181
0.479379
0.466506
0.453574
0.440595
0.427578
0.414526
0.401444
0.388343
0.375256
0.362212
0.349225
0.336302
0.32345
0.310694
0.298052
0.285536
0.273152
0.260901
0.248784
0.236821
0.225041
0.213471
0.202127
0.191011
0.180121
0.169457
0.15902
0.148821
0.138871
0.129187
0.119789
0.110696
0.101925
0.0934953
0.085421
0.077716
0.0703917
0.0634574
0.0569193
0.0507812
0.0450438
0.0397052
0.0347612
0.0302063
0.026036
0.0222514
0.0188674
0.0159264
0.013527
0.0119171
0.0120277
0.0215335
0.0235094
0.0172956
0.0189358
0.0220543
0.0258188
0.0299631
0.0343459
0.0388762
0.0434966
0.048178
0.0529163
0.0577289
0.0626493
0.0677219
0.0729973
0.078528
0.0843648
0.0905553
0.0971416
0.104161
0.111643
0.119615
0.128096
0.137101
0.146641
0.156722
0.167347
0.178515
0.190222
0.20246
0.215223
0.2285
0.24228
0.256546
0.271265
0.286396
0.301896
0.317725
0.33384
0.350204
0.366784
0.38355
0.400472
0.417521
0.434666
0.451875
0.469121
0.486371
0.503597
0.520772
0.537871
0.554872
0.571753
0.588493
0.605072
0.621467
0.637656
0.653614
0.669322
0.684761
0.699912
0.714756
0.729272
0.743442
0.757251
0.770688
0.783743
0.796406
0.808666
0.820512
0.831932
0.84292
0.853467
0.863567
0.873215
0.882402
0.891124
0.899375
0.907148
0.914439
0.921243
0.927558
0.933387
0.938727
0.943577
0.947937
0.951805
0.955183
0.958069
0.960466
0.962373
0.963794
0.964732
0.965189
0.965172
0.964686
0.963737
0.962334
0.960485
0.9582
0.955491
0.95237
0.94885
0.944945
0.940668
0.936032
0.931049
0.925734
0.920097
0.914151
0.907908
0.901378
0.894573
0.887503
0.880175
0.872594
0.864764
0.856691
0.84838
0.839836
0.831064
0.822067
0.812846
0.803405
0.793747
0.783877
0.773803
0.763533
0.753068
0.742408
0.731545
0.720478
0.70921
0.697745
0.686091
0.67425
0.662227
0.65003
0.637662
0.625128
0.612432
0.599584
0.586593
0.573473
0.560237
0.5469
0.533472
0.519964
0.50638
0.492728
0.479015
0.465252
0.451451
0.43762
0.423773
0.409927
0.396101
0.382314
0.368581
0.354917
0.341336
0.327855
0.314494
0.301265
0.28818
0.275248
0.262483
0.249902
0.237518
0.225344
0.213394
0.201677
0.190201
0.178974
0.168006
0.157307
0.14689
0.13677
0.126963
0.117486
0.108354
0.0995816
0.0911832
0.0831703
0.0755528
0.0683385
0.0615327
0.0551379
0.0491538
0.0435768
0.038401
0.0336187
0.0292237
0.0252158
0.021611
0.0184575
0.0158712
0.01415
0.0144087
0.0256421
0.0234433
0.0172529
0.0189002
0.0220212
0.0257864
0.0299306
0.0343131
0.0388431
0.0434633
0.0481446
0.0528831
0.0576961
0.0626171
0.0676906
0.0729672
0.0784992
0.0843376
0.0905296
0.0971176
0.104138
0.111623
0.119597
0.12808
0.137087
0.146629
0.156713
0.16734
0.17851
0.190219
0.202461
0.215226
0.228507
0.242292
0.256562
0.271287
0.286423
0.301928
0.31776
0.333877
0.350243
0.366823
0.38359
0.400513
0.417564
0.43471
0.451922
0.469168
0.486419
0.503647
0.520823
0.537923
0.554925
0.571808
0.588551
0.605132
0.621529
0.63772
0.653681
0.669393
0.684838
0.699994
0.714841
0.729358
0.743529
0.757339
0.770778
0.783834
0.7965
0.808762
0.82061
0.832033
0.843022
0.853571
0.863674
0.873323
0.882512
0.891236
0.899487
0.907262
0.914554
0.921358
0.927675
0.933504
0.938844
0.943694
0.948055
0.951924
0.955302
0.95819
0.960587
0.962495
0.963917
0.964855
0.965313
0.965296
0.96481
0.963861
0.962457
0.960607
0.95832
0.955609
0.952486
0.948965
0.945059
0.940782
0.936147
0.931165
0.925848
0.920209
0.91426
0.908014
0.901483
0.894679
0.88761
0.880282
0.872699
0.864867
0.856792
0.848481
0.839937
0.831164
0.822164
0.81294
0.803494
0.793832
0.783959
0.773882
0.763607
0.753138
0.742474
0.731612
0.72055
0.709288
0.697828
0.686174
0.67433
0.662304
0.650104
0.637734
0.625198
0.612501
0.59965
0.586655
0.573532
0.560296
0.546958
0.533531
0.520021
0.506437
0.492783
0.479069
0.465307
0.451505
0.437676
0.42383
0.409983
0.396156
0.382366
0.36863
0.354964
0.34138
0.327897
0.314532
0.301302
0.288218
0.27529
0.262527
0.249942
0.237551
0.225372
0.213418
0.201699
0.190223
0.178996
0.168027
0.157328
0.146911
0.13679
0.126983
0.117505
0.108372
0.0995987
0.0911993
0.0831854
0.0755669
0.0683516
0.0615448
0.055149
0.0491639
0.043586
0.0384093
0.0336263
0.0292306
0.0252221
0.0216168
0.0184628
0.0158766
0.0141568
0.0144209
0.0256712
0.0315528
0.0232246
0.024932
0.028522
0.0328771
0.0376436
0.0426401
0.0477541
0.0529161
0.0580909
0.0632726
0.0684798
0.073749
0.0791293
0.0846763
0.0904477
0.0964994
0.102884
0.109647
0.11683
0.124467
0.132587
0.141212
0.150359
0.160042
0.170268
0.181042
0.192363
0.204229
0.216632
0.229564
0.243011
0.25696
0.27139
0.286276
0.301587
0.317289
0.333347
0.349724
0.366385
0.383294
0.40042
0.417731
0.435195
0.452782
0.470459
0.488196
0.505961
0.523725
0.541457
0.559131
0.576719
0.594198
0.611541
0.628727
0.645732
0.662533
0.679106
0.695431
0.711487
0.727253
0.74271
0.757838
0.772619
0.787036
0.801075
0.814723
0.827969
0.8408
0.853203
0.865169
0.876688
0.887751
0.898353
0.908486
0.918144
0.92732
0.936008
0.944204
0.951903
0.959099
0.965788
0.971971
0.977646
0.982812
0.98747
0.991618
0.995256
0.998384
1.001
1.00312
1.00473
1.00583
1.00644
1.00655
1.00618
1.00533
1.004
1.00221
0.999963
0.997274
0.994153
0.990613
0.986668
0.982332
0.977616
0.972536
0.967102
0.961328
0.955227
0.948809
0.942087
0.935072
0.927773
0.920196
0.912348
0.904234
0.895861
0.887236
0.878363
0.869244
0.859883
0.850281
0.840444
0.830374
0.820076
0.809554
0.798815
0.78786
0.776693
0.765313
0.753722
0.741922
0.729916
0.717711
0.705311
0.692722
0.679948
0.666996
0.653871
0.640582
0.627136
0.613543
0.599815
0.585964
0.572
0.557933
0.543774
0.529532
0.515219
0.500844
0.486421
0.47196
0.457475
0.44298
0.428492
0.414028
0.399605
0.38524
0.37095
0.35675
0.342657
0.328689
0.314862
0.30119
0.287686
0.274364
0.261239
0.248322
0.235629
0.223171
0.21096
0.199008
0.187326
0.175925
0.164819
0.154019
0.143541
0.133397
0.123604
0.114174
0.105122
0.0964599
0.0881975
0.0803438
0.0729053
0.0658863
0.059288
0.0531086
0.0473427
0.041982
0.0370158
0.032435
0.0282371
0.0244375
0.0210889
0.0183236
0.016488
0.016874
0.029709
0.0314675
0.0231691
0.0248869
0.028481
0.0328377
0.0376047
0.0426013
0.0477153
0.0528773
0.0580522
0.0632343
0.0684421
0.0737122
0.0790937
0.0846421
0.0904151
0.0964685
0.102855
0.10962
0.116805
0.124444
0.132566
0.141193
0.150343
0.160028
0.170257
0.181033
0.192357
0.204225
0.216632
0.229567
0.243017
0.25697
0.271404
0.286294
0.301609
0.317316
0.333378
0.349758
0.366421
0.383332
0.400461
0.417774
0.435241
0.45283
0.47051
0.488249
0.506017
0.523783
0.541518
0.559194
0.576784
0.594265
0.611611
0.628799
0.645806
0.662609
0.679185
0.695513
0.711572
0.727342
0.742802
0.757933
0.772716
0.787135
0.801175
0.814826
0.828073
0.840906
0.853311
0.865278
0.876799
0.887865
0.898468
0.908603
0.918262
0.927439
0.936129
0.944327
0.952027
0.959224
0.965914
0.972097
0.977773
0.982941
0.987599
0.991748
0.995387
0.998516
1.00114
1.00325
1.00486
1.00596
1.00657
1.00669
1.00631
1.00546
1.00413
1.00234
1.00009
0.997401
0.994279
0.990739
0.986794
0.982457
0.977741
0.972659
0.967225
0.961451
0.955348
0.94893
0.942207
0.935189
0.927887
0.920308
0.912458
0.904345
0.895974
0.88735
0.878475
0.869353
0.859988
0.850383
0.840544
0.830472
0.820172
0.809647
0.798904
0.787947
0.776778
0.765399
0.753809
0.74201
0.730004
0.717798
0.705397
0.692806
0.680031
0.667077
0.653951
0.64066
0.627212
0.613617
0.599888
0.586034
0.572069
0.558
0.543839
0.529597
0.515282
0.500907
0.486482
0.47202
0.457534
0.443038
0.428549
0.414084
0.39966
0.385293
0.371
0.356797
0.342702
0.328732
0.314903
0.30123
0.287726
0.274403
0.261275
0.248356
0.23566
0.223201
0.210988
0.199035
0.187353
0.175952
0.164844
0.154044
0.143564
0.13342
0.123625
0.114195
0.105142
0.0964783
0.0882148
0.0803599
0.0729202
0.0659
0.0593007
0.0531203
0.0473536
0.0419919
0.0370249
0.0324433
0.0282447
0.0244445
0.0210955
0.0183305
0.0164968
0.0168896
0.0297449
0.0416478
0.0306505
0.0323152
0.0363663
0.0413264
0.046732
0.0523544
0.0580579
0.0637609
0.0694236
0.0750394
0.0806289
0.0862324
0.0919034
0.0977023
0.103691
0.109931
0.116478
0.123382
0.130688
0.138433
0.146649
0.155361
0.164588
0.174345
0.184643
0.195487
0.206879
0.218817
0.231295