/*--------------------------------*- C++ -*----------------------------------*\
  =========                 |
  \\      /  F ield         | OpenFOAM: The Open Source CFD Toolbox
   \\    /   O peration     | Website:  https://openfoam.org
    \\  /    A nd           | Version:  8
     \\/     M anipulation  |
\*---------------------------------------------------------------------------*/
FoamFile
{
    version     2.0;
    format      ascii;
    class       volScalarField;
    location    "100";
    object      k;
}
// * * * * * * * * * * * * * * * * * * * * * * * * * * * * * * * * * * * * * //

dimensions      [0 2 -2 0 0 0 0];

internalField   nonuniform List<scalar> 
48000
(
7.92343e-05
0.000299626
0.000593301
0.000943932
0.0013213
0.00172682
0.00213676
0.00254729
0.00296531
0.0033931
0.00383298
0.0042877
0.00476048
0.00525478
0.00577415
0.00632211
0.00690202
0.00751695
0.00816958
0.00886214
0.00959642
0.0103738
0.0111951
0.012061
0.0129716
0.0139265
0.0149246
0.0159636
0.0170379
0.0181337
0.0192153
0.0201956
0.0208906
0.0210294
0.0210985
0.0214341
0.0207674
0.020617
0.0207179
0.0207379
0.0196381
0.0209083
0.0216564
0.0221884
0.022369
0.0212085
0.0213486
0.0216646
0.0219923
0.0224868
0.0229804
0.0234316
0.0237806
0.0239079
0.0220503
0.0210081
0.0209145
0.0211135
0.0213592
0.0215747
0.0218482
0.0221619
0.0224967
0.0228211
0.0231288
0.0234213
0.0236984
0.0239621
0.0242162
0.024461
0.024694
0.0249129
0.0251174
0.0253103
0.025493
0.0256659
0.0258291
0.0259824
0.0261256
0.0262588
0.0263817
0.0264944
0.0265965
0.0266881
0.0267693
0.0268401
0.0269011
0.0269525
0.0269943
0.0270267
0.0270495
0.0270629
0.027067
0.0270617
0.0270474
0.0270241
0.026992
0.0269512
0.0269018
0.026844
0.0267779
0.0267035
0.0266213
0.0265316
0.0264353
0.0263327
0.0262242
0.0261101
0.0259902
0.0258648
0.0257335
0.0255961
0.0254526
0.0253031
0.0251485
0.0249895
0.0248262
0.0246575
0.0244822
0.0243
0.0241119
0.0239186
0.0237197
0.0235144
0.0233014
0.0230796
0.0228464
0.0225949
0.0223288
0.022053
0.0217617
0.021431
0.0209834
0.0206354
0.0206451
0.0243337
0.0238062
0.0218847
0.0207773
0.0202977
0.0199912
0.0197309
0.019629
0.0198757
0.0216741
0.02207
0.0218968
0.0215381
0.0211492
0.0208347
0.0208307
0.0220701
0.0221712
0.0219645
0.0228083
0.0228536
0.0214077
0.0192277
0.0188994
0.0186996
0.0185865
0.0186307
0.020381
0.0204539
0.0203409
0.0206328
0.0205326
0.0184026
0.0200962
0.0203505
0.0200472
0.0194887
0.0187849
0.0179828
0.0171087
0.0161825
0.0152212
0.0142398
0.013251
0.0122655
0.0112918
0.0103368
0.00940629
0.00850511
0.0076375
0.00680706
0.00601681
0.00526931
0.00456687
0.00391162
0.0033056
0.00275061
0.0022479
0.00179642
0.00138758
0.00105484
0.000771227
0.000524179
0.000304412
9.2379e-05
7.87886e-05
0.000298457
0.000591403
0.000941398
0.00131824
0.00172327
0.00213285
0.00254308
0.00296084
0.00338845
0.00382819
0.00428285
0.00475561
0.00524989
0.00576925
0.00631723
0.00689719
0.0075122
0.00816492
0.00885755
0.00959189
0.0103693
0.0111908
0.0120568
0.0129675
0.0139225
0.0149208
0.01596
0.0170346
0.018131
0.0192135
0.0201936
0.0208836
0.0210213
0.021096
0.0213167
0.0195403
0.020316
0.0206622
0.0210658
0.0222675
0.0220747
0.0221356
0.0223959
0.0227532
0.0230033
0.0229975
0.022885
0.0202992
0.0217217
0.0226729
0.0230215
0.02168
0.0210038
0.024007
0.0253269
0.0260677
0.0265966
0.026842
0.0231299
0.022261
0.0222605
0.0225139
0.0228297
0.0231436
0.0234382
0.0237126
0.0239712
0.02422
0.0244614
0.0246928
0.0249103
0.0251128
0.0253048
0.0254873
0.0256607
0.0258249
0.0259792
0.0261231
0.0262561
0.0263784
0.0264901
0.0265915
0.0266826
0.0267636
0.0268347
0.026896
0.0269476
0.0269896
0.0270221
0.027045
0.0270584
0.0270624
0.0270572
0.0270429
0.0270197
0.0269876
0.0269467
0.0268974
0.0268396
0.0267734
0.026699
0.0266167
0.026527
0.0264306
0.026328
0.0262196
0.0261056
0.025986
0.0258608
0.0257298
0.0255925
0.0254489
0.0252992
0.0251445
0.0249854
0.0248219
0.0246531
0.0244775
0.024295
0.0241061
0.0239116
0.0237127
0.02351
0.0233027
0.0230867
0.0228567
0.0226077
0.0223375
0.0220057
0.0215296
0.0211132
0.0207972
0.0206418
0.0209294
0.0234809
0.0241052
0.0221339
0.0208831
0.0203294
0.0200214
0.0202498
0.0221535
0.0226179
0.0225827
0.0223135
0.0219451
0.021546
0.0211551
0.0208455
0.0208279
0.0220428
0.0221504
0.0218472
0.0215723
0.0224158
0.0224466
0.0212119
0.0204233
0.0200023
0.0206864
0.0207492
0.0206653
0.0207351
0.0206756
0.0205664
0.0204988
0.0204698
0.0205309
0.0203959
0.0200325
0.0194802
0.0187858
0.0179872
0.017113
0.0161854
0.0152228
0.0142406
0.0132516
0.012266
0.0112922
0.0103371
0.00940644
0.00850525
0.0076377
0.00680729
0.00601697
0.00526931
0.00456669
0.00391136
0.00330534
0.00275035
0.00224758
0.00179597
0.00138709
0.00105446
0.000771008
0.000524045
0.000304397
9.24107e-05
0.000250252
0.000970544
0.00159703
0.00220997
0.00281618
0.00342825
0.00404564
0.00466783
0.00529611
0.00593262
0.00658026
0.00724252
0.00792326
0.00862646
0.009356
0.0101155
0.0109082
0.0117368
0.0126035
0.0135099
0.0144572
0.0154461
0.0164768
0.0175492
0.0186628
0.0198167
0.0210093
0.0222379
0.0234971
0.0247748
0.0260425
0.0272385
0.0282604
0.029076
0.0298385
0.0306134
0.0314304
0.0321584
0.0328962
0.0336228
0.034004
0.0351394
0.0360656
0.036922
0.0376888
0.0379848
0.038653
0.0394282
0.0402319
0.0410556
0.041894
0.0427215
0.0435381
0.0443324
0.0455433
0.0463226
0.047105
0.0478893
0.0486452
0.0493603
0.0500663
0.0507744
0.0514834
0.0521781
0.0528501
0.0534959
0.0541147
0.0547085
0.0552793
0.0558266
0.0563486
0.0568443
0.0573132
0.0577551
0.058172
0.0585668
0.0589394
0.0592892
0.0596159
0.0599193
0.0601993
0.0604557
0.0606881
0.0608965
0.0610812
0.0612429
0.0613822
0.0614994
0.0615948
0.0616684
0.0617202
0.0617505
0.0617593
0.061747
0.0617138
0.06166
0.0615859
0.0614919
0.0613782
0.0612451
0.0610929
0.0609221
0.0607336
0.0605287
0.0603085
0.060074
0.0598258
0.0595642
0.0592893
0.0590011
0.0586992
0.0583834
0.0580539
0.0577115
0.057358
0.0569943
0.0566195
0.0562316
0.0558287
0.0554113
0.054981
0.0545384
0.0540827
0.0536125
0.0531252
0.0526201
0.0520915
0.0515319
0.0509548
0.0503741
0.0497829
0.0491481
0.0484846
0.0478736
0.0473933
0.0470761
0.0458396
0.0454688
0.0447461
0.0440556
0.0434026
0.0427697
0.0421477
0.0415148
0.040626
0.0400348
0.0394168
0.0387678
0.0381075
0.0374575
0.0368875
0.0368881
0.0363536
0.0356564
0.0348964
0.0343257
0.0337023
0.0324755
0.0317022
0.0310541
0.03046
0.0299472
0.029702
0.0292084
0.0286718
0.028245
0.0278004
0.0270196
0.026741
0.02628
0.0256271
0.0248357
0.0239432
0.0229736
0.0219452
0.0208739
0.0197741
0.0186584
0.0175378
0.0164212
0.015316
0.0142281
0.0131625
0.0121237
0.011115
0.0101396
0.00920004
0.00829847
0.00743687
0.00661698
0.00584032
0.00510816
0.00442155
0.00378119
0.00318781
0.00264218
0.00213069
0.00161868
0.00105928
0.000315386
0.000249184
0.000967755
0.00159336
0.00220578
0.00281158
0.00342332
0.00404044
0.00466242
0.00529055
0.00592696
0.00657455
0.00723681
0.00791758
0.00862082
0.00935043
0.01011
0.0109028
0.0117316
0.0125984
0.0135049
0.0144524
0.0154414
0.0164723
0.0175449
0.0186587
0.0198128
0.0210056
0.0222345
0.0234942
0.0247725
0.026041
0.0272372
0.0282579
0.0290742
0.0298406
0.0305956
0.0310577
0.0320354
0.0328681
0.0336849
0.0344015
0.0353697
0.0361727
0.0369759
0.0377956
0.0386046
0.0394834
0.0402521
0.0406575
0.0410628
0.0418569
0.0426997
0.0438519
0.0448136
0.045943
0.0469045
0.0477537
0.048537
0.0492394
0.0496113
0.0501562
0.0508132
0.0515047
0.0521908
0.0528567
0.0534976
0.054113
0.0547046
0.0552739
0.0558203
0.056342
0.056837
0.0573049
0.0577455
0.0581628
0.0585592
0.0589336
0.0592848
0.0596118
0.0599144
0.0601929
0.0604478
0.060679
0.060887
0.0610718
0.061234
0.0613738
0.0614915
0.0615872
0.061661
0.0617128
0.0617431
0.0617519
0.0617397
0.0617065
0.0616528
0.0615787
0.0614846
0.0613708
0.0612376
0.0610853
0.0609144
0.0607259
0.060521
0.0603009
0.0600666
0.0598186
0.0595572
0.0592825
0.0589944
0.0586925
0.0583766
0.0580468
0.0577043
0.0573506
0.0569869
0.0566123
0.0562245
0.0558215
0.0554033
0.0549713
0.0545272
0.0540729
0.053609
0.0531317
0.0526337
0.0521065
0.0515471
0.0509608
0.0503231
0.0496513
0.0490003
0.0483938
0.0478626
0.047249
0.0462123
0.0456063
0.045421
0.0447392
0.0440519
0.0433992
0.0427446
0.041832
0.0412745
0.0406953
0.0400737
0.039423
0.038764
0.0381012
0.0374472
0.0368641
0.0368613
0.036335
0.0356653
0.0349554
0.0342188
0.0336581
0.0330956
0.032342
0.0316112
0.0309116
0.0303586
0.0297877
0.0292139
0.0286671
0.0281467
0.0276699
0.0272301
0.0268053
0.0262807
0.0256206
0.0248351
0.0239466
0.0229778
0.0219485
0.0208761
0.0197755
0.0186595
0.0175387
0.016422
0.0153166
0.0142286
0.0131631
0.0121242
0.0111155
0.0101401
0.00920037
0.00829867
0.00743697
0.00661702
0.00584031
0.00510809
0.00442139
0.00378094
0.00318752
0.00264195
0.0021306
0.00161879
0.00105954
0.000315609
0.000452868
0.00152479
0.00234863
0.00311563
0.0038807
0.0046533
0.00543315
0.00621865
0.00700936
0.00780653
0.00861288
0.00943227
0.0102692
0.0111286
0.0120151
0.0129331
0.0138864
0.014878
0.0159103
0.0169851
0.0181032
0.0192653
0.0204711
0.0217201
0.0230115
0.0243438
0.0257152
0.0271228
0.0285622
0.030025
0.0314956
0.0329476
0.0343522
0.0357091
0.0370057
0.0382547
0.0395173
0.0407386
0.0419426
0.0431422
0.044282
0.0455299
0.0467521
0.0479542
0.0491361
0.0502258
0.0513501
0.0524943
0.0536403
0.0547812
0.0559169
0.0570403
0.0581478
0.0592337
0.0603885
0.0614723
0.0625087
0.0635191
0.0645057
0.065468
0.0664099
0.0673349
0.0682425
0.0691269
0.0699848
0.0708144
0.0716154
0.0723885
0.0731333
0.0738486
0.0745329
0.0751857
0.0758068
0.0763966
0.0769553
0.0774823
0.0779786
0.0784448
0.0788805
0.0792855
0.0796599
0.0800035
0.0803162
0.0805982
0.0808498
0.0810715
0.0812637
0.0814266
0.0815604
0.0816653
0.0817413
0.0817888
0.0818079
0.0817991
0.0817626
0.0816988
0.0816081
0.081491
0.0813479
0.0811793
0.0809856
0.0807678
0.0805269
0.0802642
0.0799808
0.0796777
0.0793556
0.0790151
0.0786565
0.07828
0.0778857
0.0774739
0.0770449
0.0765995
0.0761387
0.0756628
0.0751711
0.0746622
0.0741353
0.0735907
0.0730293
0.0724512
0.0718563
0.0712431
0.0706101
0.0699564
0.0692809
0.0685839
0.0678712
0.0671486
0.0664165
0.0656698
0.0649229
0.064171
0.0634156
0.06266
0.0617642
0.0610008
0.0601865
0.059353
0.0585098
0.0576583
0.0567975
0.0559243
0.054974
0.0540647
0.0531605
0.05225
0.0513297
0.0503956
0.0494638
0.0486596
0.0477583
0.0468053
0.0458145
0.0448586
0.0439175
0.0428381
0.0418225
0.0408481
0.0398919
0.0389607
0.0381001
0.037196
0.0362671
0.0353395
0.0344381
0.0335031
0.0326252
0.031713
0.0307358
0.0296915
0.0285859
0.0274278
0.0262271
0.0249946
0.0237412
0.0224768
0.0212103
0.0199493
0.0187002
0.0174685
0.0162589
0.0150754
0.0139215
0.0128002
0.0117141
0.0106656
0.00965684
0.00868955
0.00776522
0.00688503
0.00604989
0.00526046
0.00451709
0.00381803
0.00315339
0.00249428
0.00174545
0.000628494
0.000451275
0.00152113
0.00234423
0.00311084
0.00387561
0.00464798
0.00542765
0.006213
0.00700361
0.00780073
0.00860708
0.00942649
0.0102635
0.011123
0.0120096
0.0129277
0.0138811
0.0148729
0.0159054
0.0169804
0.0180987
0.0192609
0.0204669
0.0217162
0.0230077
0.0243403
0.0257119
0.0271198
0.0285596
0.0300228
0.0314936
0.0329454
0.0343486
0.0357032
0.0369965
0.0382326
0.0394143
0.0406838
0.0419167
0.0431368
0.0443215
0.0455597
0.0467664
0.0479594
0.0491455
0.0503217
0.0514982
0.0526546
0.0537572
0.0548102
0.0559138
0.0570291
0.0582088
0.0593379
0.0604661
0.061556
0.0626057
0.0636228
0.0646097
0.0655386
0.066453
0.0673607
0.0682563
0.0691325
0.0699851
0.0708116
0.0716113
0.0723839
0.0731287
0.073844
0.0745285
0.0751811
0.075802
0.0763916
0.0769505
0.0774785
0.0779757
0.0784425
0.0788782
0.0792828
0.0796563
0.0799991
0.0803112
0.0805929
0.0808446
0.0810665
0.081259
0.0814221
0.0815561
0.081661
0.0817371
0.0817846
0.0818037
0.0817949
0.0817584
0.0816946
0.0816039
0.0814867
0.0813436
0.0811749
0.0809813
0.0807636
0.0805228
0.0802602
0.0799769
0.0796739
0.0793519
0.0790113
0.0786526
0.078276
0.0778816
0.0774696
0.0770405
0.0765952
0.0761346
0.0756589
0.0751674
0.0746585
0.0741313
0.0735862
0.0730241
0.0724459
0.0718523
0.0712425
0.0706142
0.0699641
0.0692898
0.0685921
0.0678752
0.0671412
0.066409
0.06567
0.0649253
0.064171
0.0633917
0.0625189
0.0616925
0.0609768
0.0601792
0.0593491
0.058506
0.0576493
0.0567156
0.0558312
0.0549476
0.0540545
0.0531516
0.0522416
0.0513215
0.0503863
0.0494513
0.0486492
0.0477519
0.046805
0.0458394
0.0448492
0.0438974
0.0429668
0.0419935
0.0410174
0.0400319
0.0390807
0.0381342
0.0371771
0.0362386
0.0353184
0.0344151
0.0335187
0.0326297
0.0317111
0.0307353
0.0296937
0.0285894
0.027431
0.0262296
0.0249965
0.0237427
0.0224781
0.0212115
0.0199504
0.0187013
0.0174696
0.01626
0.0150765
0.0139225
0.0128011
0.0117149
0.0106663
0.0096575
0.00869014
0.00776572
0.00688544
0.00605021
0.00526073
0.00451735
0.00381833
0.00315378
0.00249481
0.00174609
0.00062898
0.000695648
0.0020679
0.00307575
0.00400314
0.00492161
0.00584456
0.00677216
0.00770204
0.00863278
0.009565
0.0105014
0.0114463
0.0124053
0.0133841
0.0143888
0.0154248
0.0164968
0.0176086
0.0187633
0.0199628
0.0212084
0.0225005
0.0238391
0.0252234
0.0266523
0.0281242
0.0296372
0.0311884
0.032774
0.0343883
0.0360223
0.0376631
0.0392976
0.0409175
0.0425103
0.0440724
0.0456194
0.0471481
0.0486636
0.0501719
0.0516632
0.0531588
0.0546439
0.0561155
0.0575736
0.059006
0.0604272
0.0618376
0.0632345
0.064616
0.065981
0.0673273
0.0686524
0.0699539
0.071245
0.0725091
0.0737427
0.0749472
0.0761235
0.077272
0.0783931
0.0794874
0.0805537
0.0815899
0.0825948
0.083568
0.0845095
0.0854191
0.0862962
0.0871393
0.0879476
0.0887204
0.0894579
0.0901601
0.0908269
0.0914577
0.0920522
0.0926098
0.0931316
0.0936177
0.0940681
0.0944827
0.0948616
0.095205
0.0955131
0.0957863
0.0960247
0.0962286
0.0963982
0.0965336
0.0966349
0.0967025
0.0967367
0.0967377
0.0967061
0.0966422
0.0965464
0.0964195
0.0962618
0.096074
0.0958569
0.0956115
0.0953388
0.0950402
0.0947167
0.0943692
0.0939987
0.0936058
0.0931911
0.092755
0.0922979
0.0918203
0.0913227
0.0908059
0.0902704
0.0897161
0.0891425
0.0885487
0.0879347
0.0873008
0.0866475
0.0859748
0.0852821
0.0845688
0.0838343
0.0830787
0.0823029
0.0815083
0.0806976
0.0798718
0.0790303
0.0781716
0.0773002
0.0764168
0.0755201
0.0746085
0.0736601
0.0727127
0.0717483
0.0707667
0.0697687
0.0687551
0.0677266
0.0666841
0.0656166
0.0645399
0.0634534
0.0623559
0.0612456
0.0601197
0.0589807
0.0578535
0.0567072
0.0555442
0.0543664
0.0531854
0.0520027
0.0507939
0.0495873
0.0483845
0.0471826
0.0459858
0.0448047
0.0436184
0.0424244
0.0412282
0.0400403
0.0388504
0.0376637
0.0364619
0.0352313
0.0339656
0.0326639
0.0313291
0.0299666
0.0285836
0.0271876
0.0257862
0.0243866
0.0229949
0.0216169
0.0202575
0.018921
0.0176113
0.0163317
0.0150852
0.0138747
0.0127026
0.011571
0.0104814
0.00943542
0.0084338
0.00747714
0.00656564
0.00569888
0.00487426
0.00408209
0.00329181
0.00239633
0.000992483
0.00069342
0.00206342
0.00307064
0.00399776
0.00491603
0.00583883
0.00676631
0.0076961
0.00862679
0.00955901
0.0104954
0.0114405
0.0123995
0.0133785
0.0143834
0.0154195
0.0164917
0.0176038
0.0187587
0.0199584
0.0212042
0.0224966
0.0238354
0.0252199
0.026649
0.0281212
0.0296343
0.0311858
0.0327718
0.0343864
0.0360205
0.0376611
0.0392948
0.0409135
0.0425049
0.0440646
0.0455972
0.0471305
0.0486515
0.0501641
0.051662
0.0531584
0.0546421
0.056112
0.0575688
0.059012
0.0604425
0.0618564
0.0632495
0.0646192
0.0659781
0.0673209
0.0686565
0.0699691
0.0712607
0.0725254
0.0737601
0.0749655
0.0761428
0.0772883
0.0784052
0.0794953
0.0805576
0.0815908
0.0825938
0.0835661
0.0845074
0.0854173
0.0862946
0.0871381
0.0879465
0.0887194
0.0894569
0.0901592
0.0908261
0.0914574
0.0920524
0.0926105
0.0931322
0.093618
0.094068
0.0944822
0.0948608
0.095204
0.0955121
0.0957854
0.096024
0.096228
0.0963976
0.096533
0.0966344
0.096702
0.0967361
0.0967372
0.0967055
0.0966416
0.0965459
0.0964189
0.0962613
0.0960736
0.0958565
0.0956112
0.0953387
0.0950401
0.0947167
0.0943692
0.0939986
0.0936056
0.0931907
0.0927543
0.0922971
0.0918195
0.091322
0.0908054
0.0902701
0.0897159
0.0891423
0.0885486
0.0879344
0.0873003
0.0866467
0.0859739
0.0852821
0.0845705
0.0838383
0.0830845
0.082309
0.0815134
0.0806999
0.0798695
0.0790273
0.0781724
0.0773044
0.0764216
0.0755207
0.0745906
0.0736471
0.0727076
0.0717471
0.0707663
0.0697685
0.0687557
0.067717
0.0666692
0.0656088
0.0645353
0.0634497
0.0623529
0.0612431
0.060117
0.0589773
0.057851
0.0567058
0.0555434
0.0543704
0.053186
0.0519995
0.0508115
0.0496148
0.0484159
0.0472131
0.0460145
0.0448175
0.0436184
0.0424233
0.0412323
0.0400439
0.0388555
0.0376661
0.0364632
0.0352332
0.0339682
0.0326667
0.0313316
0.0299688
0.0285855
0.0271893
0.0257879
0.0243882
0.0229965
0.0216186
0.0202592
0.0189227
0.0176129
0.0163332
0.0150867
0.0138761
0.0127039
0.0115721
0.0104825
0.0094364
0.00843468
0.00747795
0.00656641
0.00569965
0.00487506
0.00408296
0.00329279
0.0023974
0.000993345
0.000989963
0.00266157
0.00387349
0.0049744
0.00605209
0.00712525
0.00819533
0.0092599
0.0103172
0.0113677
0.0124143
0.0134623
0.0145181
0.0155889
0.0166821
0.0178045
0.0189618
0.0201592
0.0214002
0.0226876
0.024023
0.0254072
0.0268403
0.0283216
0.02985
0.0314238
0.033041
0.034699
0.0363944
0.0381227
0.0398777
0.0416517
0.0434359
0.0452224
0.047003
0.0487722
0.0505301
0.0522765
0.0540123
0.0557388
0.0574541
0.0591597
0.060853
0.0625322
0.0641963
0.0658427
0.0674716
0.0690825
0.070674
0.0722449
0.0737941
0.0753202
0.0768218
0.0782972
0.0797473
0.0811699
0.082563
0.0839252
0.0852561
0.0865553
0.0878226
0.0890574
0.0902588
0.0914255
0.0925568
0.0936526
0.0947127
0.0957369
0.0967243
0.0976742
0.0985857
0.0994585
0.100293
0.101088
0.101844
0.10256
0.103237
0.103873
0.104469
0.105025
0.10554
0.106017
0.106454
0.106851
0.10721
0.107529
0.10781
0.108051
0.108255
0.10842
0.108547
0.108636
0.108688
0.108702
0.10868
0.108622
0.108528
0.108398
0.108234
0.108037
0.107807
0.107545
0.107252
0.10693
0.106579
0.106201
0.105797
0.105367
0.104912
0.104433
0.10393
0.103404
0.102855
0.102285
0.101692
0.101078
0.100442
0.0997844
0.0991042
0.0984021
0.0976782
0.0969324
0.0961644
0.0953741
0.0945615
0.093727
0.0928713
0.0919956
0.0911009
0.0901875
0.0892548
0.0883023
0.0873308
0.0863413
0.0853338
0.0843077
0.083259
0.0821923
0.0811063
0.0800007
0.0788755
0.077731
0.076568
0.075387
0.0741872
0.0729708
0.0717386
0.0704913
0.0692286
0.0679497
0.0666552
0.0653497
0.0640304
0.0626981
0.0613542
0.0600006
0.0586387
0.0572657
0.0558857
0.0545003
0.0531103
0.0517182
0.0503275
0.0489354
0.0475408
0.0461448
0.0447496
0.0433525
0.0419513
0.04054
0.0391126
0.0376655
0.0361976
0.0347103
0.033207
0.0316926
0.0301725
0.0286525
0.0271383
0.0256351
0.0241478
0.0226809
0.0212383
0.0198238
0.0184405
0.0170916
0.0157798
0.0145074
0.0132764
0.0120883
0.010944
0.00984403
0.00878812
0.00777554
0.00680464
0.00587134
0.00496423
0.00404846
0.0030023
0.00135248
0.000986927
0.00265618
0.00386754
0.00496826
0.00604584
0.00711892
0.00818893
0.00925346
0.0103107
0.0113613
0.012408
0.0134561
0.014512
0.0155831
0.0166765
0.0177991
0.0189567
0.0201543
0.0213956
0.0226832
0.0240189
0.0254034
0.0268368
0.0283183
0.029847
0.0314211
0.0330386
0.0346969
0.0363925
0.0381211
0.0398764
0.0416504
0.0434344
0.0452205
0.0470006
0.0487692
0.0505248
0.0522712
0.0540075
0.0557347
0.0574511
0.0591571
0.0608505
0.0625296
0.0641933
0.0658407
0.0674711
0.0690829
0.0706746
0.0722446
0.0737933
0.075319
0.076822
0.0782997
0.079751
0.0811739
0.0825668
0.0839287
0.0852599
0.0865592
0.0878263
0.0890606
0.0902611
0.091427
0.0925578
0.0936534
0.0947136
0.0957379
0.0967256
0.0976757
0.0985874
0.0994603
0.100294
0.10109
0.101846
0.102563
0.10324
0.103876
0.104472
0.105027
0.105543
0.106019
0.106456
0.106853
0.107212
0.107531
0.107812
0.108054
0.108257
0.108423
0.10855
0.108639
0.10869
0.108705
0.108683
0.108624
0.10853
0.108401
0.108237
0.10804
0.10781
0.107548
0.107255
0.106933
0.106582
0.106204
0.1058
0.10537
0.104915
0.104435
0.103932
0.103406
0.102857
0.102287
0.101695
0.101081
0.100445
0.0997873
0.099107
0.0984046
0.0976804
0.0969345
0.0961671
0.0953779
0.0945663
0.0937324
0.0928766
0.0920001
0.0911042
0.090189
0.0892554
0.0883037
0.0873337
0.0863452
0.0853373
0.0843084
0.0832595
0.0821936
0.081108
0.0800023
0.0788769
0.0777327
0.0765687
0.0753867
0.0741872
0.072971
0.0717392
0.0704923
0.0692298
0.067951
0.0666562
0.0653508
0.0640317
0.0626996
0.0613562
0.0600025
0.0586397
0.0572687
0.0558899
0.0545054
0.0531163
0.0517249
0.0503322
0.0489381
0.0475439
0.0461495
0.0447539
0.043356
0.0419537
0.040542
0.0391148
0.0376679
0.0362
0.0347127
0.0332093
0.0316948
0.0301747
0.0286547
0.0271405
0.0256373
0.0241501
0.0226831
0.0212405
0.0198259
0.0184425
0.0170935
0.0157816
0.0145092
0.0132781
0.0120898
0.0109455
0.00984535
0.00878938
0.00777678
0.00680587
0.0058726
0.00496554
0.00404988
0.00300384
0.00135381
0.00138912
0.00335246
0.00478325
0.00606947
0.00731307
0.00853806
0.00974778
0.0109404
0.0121144
0.0132706
0.0144127
0.0155468
0.0166805
0.0178225
0.0189815
0.0201658
0.0213826
0.0226379
0.0239364
0.0252817
0.026676
0.0281205
0.0296157
0.0311612
0.032756
0.0343985
0.0360868
0.0378183
0.03959
0.0413982
0.043238
0.0451038
0.046989
0.0488872
0.0507918
0.0526974
0.0546006
0.0564989
0.0583908
0.060275
0.06215
0.0640143
0.0658663
0.0677042
0.0695265
0.0713314
0.0731175
0.0748835
0.0766279
0.0783491
0.0800458
0.0817169
0.0833608
0.0849764
0.0865626
0.0881184
0.0896425
0.0911336
0.092591
0.0940138
0.0954014
0.096753
0.0980677
0.0993446
0.100583
0.101783
0.102943
0.104064
0.105145
0.106185
0.107184
0.108142
0.109057
0.109931
0.110762
0.111551
0.112297
0.113
0.11366
0.114276
0.114849
0.115379
0.115867
0.116312
0.116715
0.117075
0.117393
0.11767
0.117904
0.118097
0.118249
0.118359
0.118429
0.118458
0.118448
0.118397
0.118308
0.118181
0.118016
0.117815
0.117578
0.117306
0.117
0.116663
0.116294
0.115894
0.115465
0.115008
0.114523
0.114012
0.113474
0.112911
0.112322
0.11171
0.111073
0.110412
0.109728
0.109019
0.108286
0.107529
0.106749
0.105944
0.105116
0.104264
0.103388
0.102489
0.101567
0.100622
0.0996564
0.0986689
0.0976596
0.0966279
0.0955741
0.0944984
0.093401
0.092282
0.0911405
0.089977
0.0887914
0.0875837
0.0863542
0.085103
0.0838306
0.0825375
0.0812241
0.0798912
0.0785396
0.0771697
0.0757819
0.0743763
0.0729536
0.0715149
0.0700609
0.0685925
0.0671109
0.0656171
0.0641119
0.0625959
0.0610706
0.0595372
0.0579971
0.0564519
0.0549035
0.0533525
0.0517991
0.0502437
0.0486867
0.0471269
0.0455626
0.0439912
0.0424103
0.0408182
0.039215
0.0376018
0.0359812
0.0343568
0.0327328
0.0311139
0.0295047
0.0279095
0.0263329
0.0247786
0.0232505
0.021752
0.0202863
0.0188564
0.0174649
0.0161141
0.0148055
0.0135404
0.0123191
0.0111412
0.0100055
0.00890971
0.00785034
0.00682114
0.00580789
0.00477086
0.00357561
0.00170916
0.00138499
0.00334603
0.00477631
0.00606241
0.00730598
0.00853095
0.00974066
0.0109333
0.0121073
0.0132637
0.0144059
0.0155401
0.016674
0.0178163
0.0189756
0.0201602
0.0213773
0.0226329
0.0239317
0.0252773
0.0266719
0.0281168
0.0296123
0.0311581
0.0327531
0.034396
0.0360846
0.0378164
0.0395885
0.0413969
0.043237
0.045103
0.0469884
0.0488865
0.050791
0.0526966
0.0545994
0.0564976
0.0583895
0.0602739
0.062149
0.0640136
0.0658658
0.0677038
0.0695261
0.0713312
0.0731176
0.074884
0.0766286
0.07835
0.080047
0.0817182
0.0833625
0.0849786
0.0865653
0.0881213
0.0896453
0.0911362
0.0925937
0.0940168
0.0954047
0.0967565
0.0980712
0.099348
0.100586
0.101786
0.102947
0.104068
0.105149
0.106189
0.107188
0.108146
0.109061
0.109935
0.110767
0.111556
0.112302
0.113005
0.113665
0.114281
0.114854
0.115384
0.115872
0.116317
0.116719
0.11708
0.117398
0.117675
0.117909
0.118102
0.118254
0.118365
0.118434
0.118464
0.118453
0.118403
0.118314
0.118187
0.118022
0.11782
0.117583
0.117311
0.117006
0.116668
0.116299
0.115899
0.11547
0.115013
0.114528
0.114017
0.113479
0.112915
0.112327
0.111715
0.111078
0.110418
0.109733
0.109024
0.108291
0.107534
0.106753
0.105949
0.105121
0.10427
0.103394
0.102495
0.101573
0.100628
0.0996615
0.0986733
0.0976633
0.0966316
0.0955782
0.094503
0.0934058
0.0922864
0.0911446
0.0899809
0.0887952
0.0875874
0.0863578
0.0851066
0.083834
0.0825405
0.081227
0.0798942
0.0785427
0.0771731
0.0757853
0.0743797
0.0729568
0.0715181
0.0700642
0.0685958
0.0671142
0.0656202
0.0641149
0.0625989
0.0610735
0.0595401
0.0580002
0.0564552
0.0549066
0.0533553
0.0518021
0.0502471
0.04869
0.0471298
0.0455651
0.0439937
0.0424128
0.0408209
0.0392177
0.0376045
0.0359839
0.0343596
0.0327357
0.0311168
0.0295075
0.0279124
0.0263357
0.0247814
0.0232532
0.0217546
0.0202888
0.0188588
0.0174673
0.0161163
0.0148076
0.0135424
0.0123209
0.011143
0.0100072
0.00891139
0.00785201
0.00682283
0.00580965
0.00477277
0.00357766
0.00171099
0.00189488
0.00416651
0.00582935
0.00731055
0.00872541
0.0101034
0.0114503
0.0127654
0.0140482
0.0153004
0.0165264
0.0177335
0.0189309
0.0201284
0.0213363
0.0225642
0.0238206
0.0251127
0.0264463
0.0278257
0.0292541
0.0307332
0.032264
0.0338465
0.03548
0.0371631
0.038894
0.0406705
0.0424896
0.0443481
0.046242
0.0481666
0.0501167
0.0520868
0.0540714
0.0560654
0.0580645
0.0600651
0.0620642
0.0640592
0.0660478
0.0680277
0.0699967
0.0719527
0.0738938
0.075818
0.0777235
0.0796084
0.0814709
0.0833093
0.0851221
0.0869077
0.0886647
0.0903918
0.0920877
0.0937513
0.0953814
0.0969767
0.0985364
0.100059
0.101545
0.102992
0.1044
0.105768
0.107095
0.108381
0.109625
0.110827
0.111986
0.113102
0.114174
0.115202
0.116186
0.117126
0.11802
0.11887
0.119675
0.120434
0.121148
0.121816
0.122438
0.123015
0.123546
0.124032
0.124473
0.12487
0.125221
0.125528
0.12579
0.126008
0.126182
0.126312
0.126399
0.126443
0.126444
0.126403
0.126321
0.126198
0.126034
0.125832
0.125592
0.125314
0.125001
0.124652
0.12427
0.123854
0.123407
0.12293
0.122422
0.121886
0.121321
0.120728
0.120108
0.119462
0.11879
0.118091
0.117367
0.116617
0.115841
0.11504
0.114213
0.113361
0.112483
0.11158
0.110652
0.109699
0.108721
0.107719
0.106693
0.105643
0.104569
0.103471
0.102348
0.101201
0.10003
0.098835
0.0976155
0.0963719
0.0951042
0.0938125
0.0924971
0.091158
0.0897957
0.0884106
0.0870034
0.0855746
0.0841249
0.0826546
0.0811643
0.0796545
0.0781261
0.0765798
0.0750166
0.0734375
0.0718433
0.0702351
0.0686139
0.0669808
0.0653369
0.0636837
0.0620224
0.0603545
0.0586815
0.0570045
0.0553244
0.0536417
0.0519565
0.0502686
0.0485772
0.0468814
0.0451805
0.0434742
0.041763
0.0400486
0.0383331
0.0366196
0.0349115
0.0332127
0.0315272
0.0298587
0.0282112
0.0265884
0.0249937
0.0234305
0.0219019
0.0204106
0.0189592
0.0175495
0.016183
0.0148602
0.0135808
0.0123432
0.0111447
0.0099811
0.00884661
0.0077322
0.00662027
0.00546604
0.00412331
0.00203841
0.00188961
0.00415889
0.00582124
0.00730242
0.00871733
0.0100954
0.0114423
0.0127576
0.0140405
0.0152927
0.016519
0.0177263
0.0189239
0.0201218
0.02133
0.0225582
0.023815
0.0251074
0.0264414
0.0278212
0.0292499
0.0307294
0.0322606
0.0338434
0.0354772
0.0371607
0.038892
0.0406688
0.0424883
0.0443471
0.0462413
0.0481662
0.0501165
0.0520869
0.0540716
0.0560658
0.058065
0.0600656
0.0620648
0.0640599
0.0660486
0.0680286
0.0699978
0.071954
0.0738953
0.0758197
0.0777253
0.0796105
0.0814732
0.0833119
0.0851249
0.0869107
0.088668
0.0903954
0.0920915
0.0937553
0.0953854
0.0969808
0.0985405
0.100064
0.10155
0.102997
0.104405
0.105773
0.1071
0.108386
0.10963
0.110832
0.111992
0.113108
0.11418
0.115208
0.116192
0.117132
0.118027
0.118877
0.119682
0.120441
0.121155
0.121823
0.122445
0.123022
0.123553
0.124039
0.124481
0.124877
0.125228
0.125535
0.125797
0.126015
0.126189
0.12632
0.126406
0.12645
0.126451
0.126411
0.126328
0.126205
0.126042
0.12584
0.125599
0.125322
0.125008
0.124659
0.124277
0.123862
0.123415
0.122937
0.12243
0.121893
0.121328
0.120735
0.120115
0.119469
0.118797
0.118099
0.117374
0.116624
0.115848
0.115047
0.11422
0.113368
0.11249
0.111587
0.110659
0.109706
0.108728
0.107726
0.106699
0.105649
0.104575
0.103477
0.102354
0.101208
0.100036
0.0988411
0.0976214
0.0963777
0.0951099
0.0938182
0.0925026
0.0911634
0.0898009
0.0884158
0.0870085
0.0855798
0.08413
0.0826598
0.0811694
0.0796596
0.0781311
0.0765848
0.0750216
0.0734423
0.071848
0.0702397
0.0686184
0.0669852
0.0653413
0.0636878
0.0620264
0.0603584
0.0586853
0.0570083
0.0553282
0.0536455
0.0519602
0.0502721
0.0485806
0.0468848
0.0451839
0.0434777
0.0417666
0.0400522
0.0383367
0.0366232
0.0349151
0.0332164
0.0315308
0.0298623
0.0282147
0.0265918
0.0249971
0.0234337
0.021905
0.0204136
0.018962
0.0175522
0.0161856
0.0148626
0.0135831
0.0123454
0.0111469
0.00998324
0.00884874
0.00773435
0.00662252
0.00546848
0.00412593
0.00204076
0.00254057
0.00512364
0.00702883
0.00871274
0.0103028
0.0118342
0.0133157
0.0147485
0.0161333
0.0174733
0.0187742
0.0200445
0.0212947
0.0225362
0.0237805
0.0250384
0.0263197
0.0276328
0.0289845
0.03038
0.0318233
0.0333169
0.0348622
0.0364598
0.0381094
0.0398099
0.0415599
0.0433573
0.0451995
0.0470835
0.0490057
0.0509622
0.0529486
0.05496
0.0569915
0.0590386
0.0610966
0.0631617
0.0652301
0.0672985
0.0693639
0.0714236
0.0734747
0.0755149
0.0775417
0.0795528
0.081546
0.0835191
0.0854702
0.0873972
0.0892982
0.0911717
0.093016
0.0948296
0.0966111
0.0983592
0.100073
0.10175
0.103391
0.104994
0.106557
0.108081
0.109564
0.111005
0.112403
0.113759
0.115071
0.116339
0.117562
0.11874
0.119872
0.120959
0.121999
0.122993
0.12394
0.12484
0.125694
0.1265
0.127259
0.12797
0.128634
0.129249
0.129818
0.130339
0.130812
0.131239
0.131618
0.131951
0.132237
0.132477
0.13267
0.132818
0.13292
0.132977
0.132989
0.132957
0.132882
0.132764
0.132604
0.132402
0.13216
0.131879
0.13156
0.131204
0.130812
0.130384
0.129923
0.12943
0.128904
0.128347
0.12776
0.127144
0.126499
0.125825
0.125124
0.124394
0.123637
0.122853
0.122042
0.121203
0.120338
0.119446
0.118527
0.117582
0.11661
0.115611
0.114587
0.113536
0.11246
0.111358
0.11023
0.109076
0.107896
0.10669
0.105458
0.1042
0.102917
0.101607
0.100272
0.0989107
0.0975245
0.096113
0.0946769
0.0932164
0.0917322
0.0902248
0.0886946
0.0871423
0.0855683
0.0839736
0.0823589
0.0807251
0.0790731
0.0774038
0.0757182
0.0740174
0.0723026
0.0705748
0.0688353
0.0670856
0.0653269
0.0635607
0.0617885
0.0600115
0.0582307
0.0564469
0.0546607
0.0528723
0.0510818
0.0492894
0.0474951
0.0456996
0.043904
0.04211
0.0403198
0.038536
0.0367619