/*--------------------------------*- C++ -*----------------------------------*\
  =========                 |
  \\      /  F ield         | OpenFOAM: The Open Source CFD Toolbox
   \\    /   O peration     | Website:  https://openfoam.org
    \\  /    A nd           | Version:  8
     \\/     M anipulation  |
\*---------------------------------------------------------------------------*/
FoamFile
{
    version     2.0;
    format      ascii;
    class       volScalarField;
    location    "100";
    object      nut;
}
// * * * * * * * * * * * * * * * * * * * * * * * * * * * * * * * * * * * * * //

dimensions      [0 2 -1 0 0 0 0];

internalField   nonuniform List<scalar> 
48000
(
6.59471e-07
2.9274e-06
5.78844e-06
9.19796e-06
1.28565e-05
1.67863e-05
2.07525e-05
2.47283e-05
2.87772e-05
3.29213e-05
3.71827e-05
4.15882e-05
4.61683e-05
5.09559e-05
5.59844e-05
6.12874e-05
6.68969e-05
7.28423e-05
7.91495e-05
8.58395e-05
9.29293e-05
0.000100432
0.000108356
0.000116707
0.000125487
0.00013469
0.000144305
0.000154305
0.000164626
0.000175113
0.000185396
0.000194745
0.000202314
0.00021215
0.000216828
0.000214762
0.000213079
0.000209204
0.000208331
0.000206645
4.1579e-05
0.000208971
0.00022274
0.000230317
0.000230665
4.57742e-05
4.50582e-05
4.54872e-05
4.5999e-05
4.65913e-05
4.73229e-05
4.78194e-05
4.80957e-05
4.74455e-05
4.91249e-05
4.64383e-05
4.61977e-05
4.70984e-05
4.79292e-05
4.83771e-05
4.88691e-05
4.9351e-05
4.97357e-05
5.0037e-05
5.02951e-05
5.0547e-05
5.08043e-05
5.10628e-05
5.13169e-05
5.15635e-05
5.17996e-05
5.20225e-05
5.22308e-05
5.24263e-05
5.26108e-05
5.27845e-05
5.29476e-05
5.31003e-05
5.32426e-05
5.33743e-05
5.34953e-05
5.36056e-05
5.37054e-05
5.37947e-05
5.38736e-05
5.39425e-05
5.40015e-05
5.40509e-05
5.40908e-05
5.41213e-05
5.41422e-05
5.41536e-05
5.41555e-05
5.4148e-05
5.41315e-05
5.41061e-05
5.40721e-05
5.40296e-05
5.39786e-05
5.39193e-05
5.38519e-05
5.37764e-05
5.36928e-05
5.36016e-05
5.35031e-05
5.33979e-05
5.32863e-05
5.31686e-05
5.30447e-05
5.29146e-05
5.27785e-05
5.26362e-05
5.24875e-05
5.23324e-05
5.21717e-05
5.20058e-05
5.18346e-05
5.16573e-05
5.14727e-05
5.12807e-05
5.10822e-05
5.08779e-05
5.06679e-05
5.04509e-05
5.02266e-05
4.99952e-05
4.97624e-05
4.95536e-05
4.93904e-05
4.91998e-05
4.87386e-05
4.76751e-05
4.55029e-05
4.42673e-05
4.57644e-05
0.000272626
4.96048e-05
4.28593e-05
3.78298e-05
3.58845e-05
3.51109e-05
3.47987e-05
3.522e-05
3.70693e-05
4.23268e-05
4.44033e-05
4.50488e-05
4.49588e-05
4.46452e-05
4.43007e-05
4.12354e-05
0.000225326
0.000234401
0.000234541
0.000240104
0.000240362
0.000223971
3.83622e-05
3.62223e-05
3.58653e-05
3.57285e-05
3.59795e-05
0.000196784
0.00020873
0.000209308
0.000201092
0.000193472
3.64981e-05
0.000184811
0.000192483
0.000191265
0.000186405
0.000179787
0.000172138
0.000163796
0.000154963
0.000145797
0.000136435
0.000126997
0.000117583
0.000108276
9.91407e-05
9.02338e-05
8.16035e-05
7.32926e-05
6.53371e-05
5.77659e-05
5.06027e-05
4.38691e-05
3.75858e-05
3.17733e-05
2.64497e-05
2.16271e-05
1.72964e-05
1.33674e-05
1.01676e-05
7.43701e-06
5.05458e-06
2.9325e-06
7.57165e-07
6.56086e-07
2.91655e-06
5.77079e-06
9.17488e-06
1.28285e-05
1.67535e-05
2.07161e-05
2.46886e-05
2.87348e-05
3.28769e-05
3.7137e-05
4.1542e-05
4.61219e-05
5.09093e-05
5.59376e-05
6.12405e-05
6.68504e-05
7.27967e-05
7.91046e-05
8.57952e-05
9.28853e-05
0.000100388
0.000108314
0.000116666
0.000125447
0.000134652
0.000144268
0.00015427
0.000164595
0.000175086
0.00018537
0.00019469
0.000202149
0.000211969
0.000216658
0.000209776
4.0121e-05
0.000198859
0.000207156
0.000214037
0.000226699
0.000233375
0.000233012
0.000234726
0.00023851
0.000242962
0.000259057
0.000260197
4.42111e-05
4.4713e-05
4.60984e-05
4.7077e-05
4.4756e-05
4.70161e-05
0.000270261
0.000302486
0.00031827
0.000327529
0.000329017
5.64485e-05
5.05637e-05
4.92614e-05
4.931e-05
4.969e-05
5.00992e-05
5.04635e-05
5.07803e-05
5.10624e-05
5.13222e-05
5.15671e-05
5.18002e-05
5.20208e-05
5.22276e-05
5.24222e-05
5.26062e-05
5.27798e-05
5.29433e-05
5.30966e-05
5.32392e-05
5.33709e-05
5.34916e-05
5.36014e-05
5.37006e-05
5.37896e-05
5.38684e-05
5.39374e-05
5.39967e-05
5.40464e-05
5.40866e-05
5.41172e-05
5.41381e-05
5.41494e-05
5.4151e-05
5.41435e-05
5.41269e-05
5.41016e-05
5.40677e-05
5.40251e-05
5.39742e-05
5.39149e-05
5.38475e-05
5.37718e-05
5.36879e-05
5.35962e-05
5.34973e-05
5.33919e-05
5.32805e-05
5.31631e-05
5.304e-05
5.29112e-05
5.27763e-05
5.26349e-05
5.24864e-05
5.23309e-05
5.21693e-05
5.20022e-05
5.18296e-05
5.16509e-05
5.14655e-05
5.12736e-05
5.1076e-05
5.08727e-05
5.06633e-05
5.04472e-05
5.02245e-05
4.99955e-05
4.97612e-05
4.95208e-05
4.92167e-05
4.84296e-05
4.63223e-05
4.45653e-05
4.36808e-05
4.4585e-05
4.73618e-05
4.66228e-05
4.72038e-05
4.3051e-05
3.80176e-05
3.5935e-05
3.51995e-05
3.66738e-05
4.21993e-05
4.46618e-05
4.55163e-05
4.56629e-05
4.54245e-05
4.50483e-05
4.46687e-05
4.43393e-05
4.12059e-05
0.000224571
0.00023398
0.000232201
0.000230819
0.000236141
0.000236919
0.000225936
0.000210752
0.000204924
0.00021023
0.000212346
0.000214091
0.000208701
0.00020747
0.000206201
0.00020402
0.000198436
0.000196964
0.000195055
0.000191504
0.000186282
0.000179708
0.000172125
0.00016381
0.00015498
0.000145808
0.000136442
0.000127003
0.000117589
0.00010828
9.91429e-05
9.02341e-05
8.1604e-05
7.32947e-05
6.53404e-05
5.77684e-05
5.06029e-05
4.38668e-05
3.75826e-05
3.17707e-05
2.64478e-05
2.16245e-05
1.72915e-05
1.33617e-05
1.01631e-05
7.43468e-06
5.05306e-06
2.93242e-06
7.57538e-07
1.8147e-06
2.962e-05
5.43418e-05
7.31807e-05
8.9061e-05
0.000103464
0.000116949
0.000129735
0.000141918
0.000153595
0.000164861
0.00017581
0.000186537
0.000197126
0.000207656
0.000218195
0.0002288
0.000239519
0.000250386
0.000261429
0.000272667
0.000284113
0.000295773
0.000307651
0.000319745
0.000332047
0.000344538
0.000357171
0.000369826
0.000382171
0.000393322
0.000401135
0.000401613
0.000392364
0.000385814
0.00038218
0.000360647
0.000352004
0.000348723
0.000344831
0.000305214
0.000347702
0.000362254
0.000368189
0.000366517
0.000322485
0.000316474
0.000318363
0.000321272
0.000324689
0.000328849
0.000332652
0.000336626
0.000341399
0.000367056
0.00037575
0.000382931
0.000390179
0.000396252
0.000400306
0.000404516
0.000408622
0.000412398
0.000415818
0.000418953
0.000421865
0.000424595
0.000427167
0.000429588
0.000431858
0.000433985
0.000435979
0.000437847
0.000439566
0.000441157
0.000442668
0.000444096
0.000445438
0.000446691
0.000447853
0.000448926
0.000449904
0.000450782
0.00045156
0.000452243
0.000452837
0.00045335
0.000453784
0.000454138
0.000454412
0.000454606
0.000454719
0.000454753
0.000454707
0.000454582
0.00045438
0.0004541
0.000453745
0.000453314
0.000452809
0.000452227
0.000451572
0.000450851
0.000450073
0.000449246
0.000448371
0.00044745
0.000446478
0.000445453
0.000444371
0.000443223
0.000442005
0.000440716
0.000439366
0.000437977
0.000436558
0.000435098
0.000433566
0.00043194
0.000430232
0.00042847
0.000426656
0.000424781
0.000422823
0.000420755
0.000418589
0.000416267
0.000413674
0.000411013
0.000408116
0.000404102
0.000397725
0.000389128
0.000383747
0.000387333
0.00041711
0.000364632
0.000359238
0.000346963
0.000338096
0.000332373
0.000328627
0.000326164
0.000324205
0.000312337
0.000310084
0.00030867
0.000306824
0.000304607
0.000302033
0.000300786
0.00035205
0.000362024
0.000363417
0.000374475
0.000377063
0.000353154
0.000283596
0.000264757
0.000257771
0.000254846
0.000259703
0.000327114
0.000349622
0.000356862
0.000363701
0.000353613
0.000271999
0.000340862
0.000365557
0.000369068
0.00036424
0.000355895
0.00034577
0.000334569
0.000322642
0.000310211
0.000297439
0.000284451
0.000271347
0.000258203
0.00024508
0.000232027
0.000219084
0.000206285
0.00019366
0.000181233
0.000169026
0.000157058
0.000145346
0.00013391
0.000122777
0.000111978
0.000101563
9.1568e-05
8.16074e-05
7.06668e-05
5.55616e-05
3.09757e-05
2.2566e-06
1.80753e-06
2.95596e-05
5.42579e-05
7.30914e-05
8.89681e-05
0.000103369
0.000116852
0.000129636
0.000141819
0.000153496
0.000164762
0.000175713
0.000186441
0.000197032
0.000207564
0.000218105
0.000228713
0.000239433
0.000250303
0.000261349
0.00027259
0.000284039
0.000295703
0.000307585
0.000319683
0.000331989
0.000344485
0.000357125
0.000369789
0.000382145
0.00039329
0.000401016
0.000401262
0.000392129
0.000385606
0.000375059
0.000301691
0.000338805
0.000348627
0.000355941
0.000370986
0.000371389
0.000370561
0.000372037
0.000375292
0.000378756
0.000386986
0.00038696
0.000348402
0.000330345
0.000329677
0.000334756
0.000353375
0.000370967
0.000416539
0.000435616
0.000444703
0.000449869
0.000448695
0.000413769
0.000406063
0.000407126
0.000410769
0.000414737
0.000418369
0.000421585
0.000424462
0.000427089
0.000429523
0.000431791
0.000433908
0.000435891
0.000437751
0.000439451
0.000441049
0.000442583
0.000444035
0.000445391
0.000446643
0.000447791
0.000448841
0.000449799
0.000450666
0.000451442
0.00045213
0.000452733
0.000453253
0.000453692
0.00045405
0.000454325
0.00045452
0.000454633
0.000454668
0.000454623
0.000454499
0.000454297
0.000454018
0.000453662
0.000453232
0.000452725
0.000452143
0.000451489
0.000450768
0.000449991
0.000449163
0.000448289
0.000447367
0.000446396
0.00044537
0.000444286
0.000443138
0.000441918
0.000440628
0.00043928
0.000437894
0.00043648
0.000435023
0.000433492
0.000431863
0.00043014
0.000428351
0.000426513
0.000424656
0.000422787
0.000420851
0.000418753
0.000416383
0.000413631
0.000410255
0.000404709
0.000396091
0.000387912
0.000382448
0.00038175
0.000379212
0.000355574
0.000345304
0.000352965
0.000345082
0.000337508
0.000332305
0.000328121
0.000315129
0.000313656
0.000312585
0.000311083
0.000309009
0.000306713
0.000304286
0.000301569
0.00029968
0.000350409
0.000360923
0.000360219
0.000361011
0.00037243
0.000374096
0.000354549
0.000340069
0.000334889
0.000345755
0.000351954
0.00035763
0.000363033
0.000366322
0.000368296
0.000369717
0.000367759
0.000372614
0.000373916
0.000370874
0.000364526
0.000355912
0.000345769
0.000334575
0.00032265
0.000310217
0.000297443
0.000284455
0.00027135
0.000258205
0.000245081
0.000232026
0.000219082
0.000206283
0.000193657
0.00018123
0.000169021
0.00015705
0.000145337
0.000133901
0.000122767
0.000111969
0.000101553
9.15572e-05
8.15967e-05
7.06594e-05
5.55626e-05
3.09781e-05
2.25837e-06
3.29059e-06
4.91866e-05
9.07801e-05
0.00012193
0.000148028
0.000171231
0.000192478
0.000212231
0.000230758
0.000248256
0.000264892
0.000280816
0.00029617
0.000311082
0.000325666
0.000340022
0.000354235
0.000368373
0.00038249
0.000396629
0.000410819
0.000425081
0.000439428
0.000453869
0.000468402
0.000483023
0.00049771
0.000512415
0.000527012
0.000541179
0.000554115
0.000564104
0.000568716
0.000568802
0.000569502
0.000570991
0.000569637
0.000569914
0.000572744
0.000577469
0.000576283
0.000586622
0.000594661
0.000601565
0.00060834
0.000608423
0.000612334
0.000618441
0.000625308
0.000632607
0.000639931
0.000646893
0.000653294
0.000658676
0.000667556
0.000674625
0.000681683
0.000689025
0.0006961
0.000702583
0.000708879
0.000715048
0.000721037
0.000726793
0.000732285
0.00073749
0.000742402
0.000747029
0.000751385
0.000755483
0.000759339
0.00076297
0.000766391
0.000769608
0.000772628
0.000775446
0.000778086
0.000780564
0.000782876
0.000785024
0.000787008
0.000788827
0.000790479
0.000791965
0.000793291
0.000794463
0.000795485
0.00079636
0.000797089
0.000797672
0.000798109
0.000798402
0.000798551
0.000798559
0.000798427
0.000798156
0.000797749
0.000797207
0.000796532
0.000795725
0.000794788
0.000793727
0.000792549
0.000791264
0.000789881
0.000788403
0.000786832
0.000785167
0.000783406
0.000781544
0.000779576
0.000777497
0.000775309
0.00077302
0.000770641
0.000768175
0.000765608
0.00076292
0.000760095
0.000757139
0.000754062
0.000750863
0.000747531
0.000744042
0.000740363
0.000736454
0.00073224
0.000727651
0.000722736
0.000717456
0.000711549
0.000704694
0.000697427
0.000691345
0.000687924
0.000689809
0.000678086
0.000669615
0.000660431
0.000652232
0.000645304
0.00063945
0.000634675
0.000631101
0.000625454
0.000620408
0.000615069
0.000609338
0.000603465
0.000597549
0.000590714
0.000592488
0.000588795
0.000584442
0.000582334
0.000578671
0.000571108
0.000553915
0.00054211
0.000533975
0.000527738
0.000523054
0.000530615
0.000531844
0.000531187
0.000531811
0.000530023
0.000511948
0.000519228
0.00052164
0.000517834
0.000509944
0.000499526
0.000487441
0.000474175
0.000460042
0.000445267
0.00043002
0.000414435
0.000398613
0.000382634
0.000366558
0.000350433
0.000334297
0.000318181
0.000302111
0.000286107
0.000270186
0.000254359
0.000238637
0.000223021
0.000207506
0.000192068
0.000176624
0.000160912
0.000144119
0.000124264
9.68828e-05
5.38082e-05
4.49489e-06
3.27943e-06
4.91094e-05
9.067e-05
0.000121809
0.000147902
0.000171102
0.000192347
0.000212099
0.000230625
0.000248123
0.000264759
0.000280685
0.00029604
0.000310953
0.000325539
0.000339897
0.000354111
0.000368251
0.000382371
0.000396512
0.000410704
0.000424968
0.000439318
0.000453761
0.000468297
0.000482921
0.000497612
0.000512323
0.000526929
0.000541109
0.000554055
0.000564024
0.000568606
0.00056895
0.00057032
0.000572531
0.000561877
0.000567645
0.000572936
0.000579759
0.000587736
0.000593145
0.000597658
0.0006028
0.000608799
0.000615188
0.000622675
0.000629446
0.000631241
0.000634346
0.000640061
0.000646132
0.000654692
0.000663076
0.000675693
0.000685177
0.000692637
0.000699176
0.000704673
0.000705366
0.000708765
0.000714204
0.000720357
0.000726435
0.000732142
0.000737436
0.000742359
0.000746965
0.000751294
0.00075537
0.00075921
0.000762829
0.000766242
0.000769455
0.000772477
0.00077531
0.000777964
0.000780449
0.000782758
0.000784895
0.000786864
0.00078867
0.000790313
0.000791798
0.000793128
0.000794305
0.000795332
0.000796211
0.000796942
0.000797526
0.000797964
0.000798258
0.000798408
0.000798417
0.000798286
0.000798016
0.000797608
0.000797066
0.000796391
0.000795584
0.000794647
0.000793586
0.000792409
0.000791125
0.000789743
0.000788266
0.000786697
0.000785033
0.000783271
0.000781408
0.000779438
0.000777358
0.000775169
0.00077288
0.000770504
0.000768041
0.000765477
0.00076279
0.000759962
0.000756997
0.000753908
0.000750706
0.0007474
0.000743973
0.000740372
0.000736515
0.000732311
0.000727663
0.000722373
0.000715881
0.000708359
0.000700827
0.00069445
0.000689928
0.00068668
0.000679837
0.000672033
0.000667004
0.000659361
0.000651735
0.000645259
0.000640611
0.000634622
0.000630096
0.000625364
0.000620176
0.000614545
0.000608667
0.000602751
0.00059681
0.000589751
0.00059191
0.000588353
0.000582798
0.000578747
0.000576919
0.000572436
0.000563056
0.000553535
0.00054701
0.00054445
0.000541459
0.000538794
0.000536335
0.000533677
0.000531254
0.0005296
0.000527462
0.000526635
0.000523956
0.000518338
0.00051
0.00049952
0.000487439
0.000474177
0.00046004
0.00044526
0.00043001
0.000414423
0.000398601
0.000382622
0.000366546
0.000350421
0.000334285
0.000318169
0.000302098
0.000286094
0.000270172
0.000254346
0.000238624
0.000223008
0.000207494
0.000192056
0.000176614
0.000160906
0.000144119
0.000124272
9.68975e-05
5.38188e-05
4.49821e-06
5.05321e-06
6.08776e-05
0.000112874
0.00015272
0.000186026
0.000215448
0.000242227
0.000267005
0.000290165
0.000311978
0.000332657
0.000352391
0.000371347
0.000389677
0.000407514
0.000424973
0.000442151
0.000459129
0.000475971
0.000492725
0.00050943
0.00052611
0.000542785
0.000559465
0.000576153
0.000592846
0.000609529
0.000626162
0.000642659
0.000658817
0.000674194
0.000687948
0.000699072
0.00070779
0.000715838
0.000723778
0.000731085
0.000738415
0.000746249
0.000754701
0.000762418
0.000771297
0.000780123
0.000788887
0.000797852
0.000806072
0.00081458
0.000823418
0.000832427
0.000841525
0.000850557
0.000859413
0.000867958
0.000875956
0.000884039
0.000891923
0.000899862
0.000907841
0.000915683
0.00092328
0.000930689
0.000937948
0.00094506
0.000951996
0.000958717
0.000965186
0.000971377
0.000977282
0.0009829
0.000988238
0.000993305
0.000998112
0.00100267
0.00100698
0.00101105
0.00101488
0.00101847
0.00102182
0.00102495
0.00102786
0.00103055
0.00103303
0.0010353
0.00103735
0.00103919
0.00104083
0.00104227
0.00104351
0.00104456
0.00104541
0.00104606
0.00104653
0.0010468
0.00104688
0.00104678
0.00104649
0.00104603
0.00104538
0.00104456
0.00104357
0.0010424
0.00104108
0.00103959
0.00103797
0.0010362
0.0010343
0.00103227
0.00103012
0.00102783
0.00102541
0.00102286
0.00102017
0.00101734
0.00101438
0.00101129
0.00100807
0.00100471
0.0010012
0.000997513
0.000993664
0.000989651
0.000985467
0.000981102
0.000976537
0.000971747
0.000966698
0.000961343
0.000955656
0.00094968
0.000943474
0.00093704
0.000930325
0.000923444
0.000916763
0.00091061
0.000905431
0.000898349
0.000890859
0.000883063
0.000875353
0.000867872
0.000860608
0.00085357
0.000846824
0.00083979
0.000832489
0.00082482
0.000816852
0.000808749
0.000800622
0.000792101
0.000784368
0.000776088
0.000767939
0.000760407
0.00075275
0.000744564
0.000734925
0.000725497
0.000716532
0.00070793
0.000699384
0.0006924
0.000685087
0.00067811
0.000672031
0.000665945
0.000657206
0.000650881
0.000643675
0.000634507
0.000623425
0.000610728
0.000596706
0.000581605
0.000565636
0.000548981
0.00053179
0.000514186
0.000496266
0.000478107
0.00045977
0.000441301
0.000422738
0.000404112
0.000385446
0.000366758
0.000348059
0.000329355
0.000310638
0.000291886
0.000273048
0.00025402
0.000234571
0.000214184
0.000191659
0.000164369
0.000126926
7.04654e-05
7.09379e-06
5.03724e-06
6.07928e-05
0.000112754
0.000152589
0.000185891
0.000215311
0.00024209
0.000266868
0.00029003
0.000311843
0.000332524
0.00035226
0.000371219
0.000389551
0.00040739
0.000424851
0.000442032
0.000459012
0.000475856
0.000492613
0.000509319
0.000526002
0.000542679
0.000559361
0.000576051
0.000592746
0.000609432
0.000626069
0.000642572
0.000658737
0.000674117
0.000687854
0.000698936
0.000707671
0.000715867
0.000724183
0.000730349
0.000737985
0.000746062
0.000754814
0.00076384
0.000772396
0.000780695
0.000789088
0.000797706
0.000806481
0.000815508
0.000824567
0.000833138
0.000841811
0.000850675
0.000859257
0.000867811
0.000876154
0.000884916
0.000893293
0.000901283
0.000909033
0.000916563
0.00092339
0.000930388
0.000937619
0.000944858
0.000951912
0.000958688
0.00096516
0.00097133
0.000977209
0.000982806
0.000988128
0.000993185
0.000997985
0.00100254
0.00100685
0.00101092
0.00101476
0.00101836
0.00102171
0.00102483
0.00102774
0.00103042
0.00103289
0.00103515
0.00103721
0.00103905
0.00104069
0.00104214
0.00104338
0.00104443
0.00104528
0.00104593
0.0010464
0.00104667
0.00104675
0.00104665
0.00104637
0.0010459
0.00104525
0.00104443
0.00104344
0.00104228
0.00104095
0.00103947
0.00103784
0.00103608
0.00103418
0.00103215
0.00103
0.00102771
0.00102529
0.00102274
0.00102005
0.00101722
0.00101426
0.00101118
0.00100796
0.0010046
0.00100108
0.000997396
0.000993544
0.000989528
0.000985349
0.000981004
0.000976479
0.000971736
0.000966728
0.000961405
0.000955733
0.00094968
0.000943148
0.000936227
0.000929213
0.000922439
0.000916116
0.000910263
0.000904091
0.000897237
0.000890227
0.000882708
0.000875105
0.000867716
0.000860836
0.000853931
0.000847036
0.000839887
0.000832416
0.000824637
0.000816629
0.000808522
0.000800392
0.000791807
0.000784151
0.000775878
0.000767383
0.000759411
0.000752033
0.00074419
0.000735267
0.000726002
0.00071724
0.000709257
0.000701292
0.000693438
0.000685731
0.000678179
0.000671009
0.000664409
0.00065792
0.000651382
0.000643766
0.000634468
0.000623398
0.00061073
0.00059672
0.000581618
0.000565644
0.000548983
0.000531789
0.000514183
0.000496263
0.000478105
0.000459768
0.0004413
0.000422737
0.000404111
0.000385444
0.000366756
0.000348058
0.000329354
0.000310638
0.000291886
0.000273049
0.000254023
0.000234578
0.000214196
0.000191679
0.000164397
0.000126959
7.04852e-05
7.09968e-06
7.18878e-06
7.04737e-05
0.000129843
0.000176157
0.000214896
0.00024898
0.000279868
0.000308345
0.000334888
0.00035983
0.000383433
0.00040592
0.000427486
0.000448304
0.000468526
0.000488279
0.000507673
0.000526795
0.000545714
0.000564485
0.000583148
0.000601732
0.000620256
0.000638733
0.000657167
0.000675558
0.000693893
0.000712146
0.000730263
0.000748132
0.000765538
0.000782117
0.000797448
0.000811463
0.000824596
0.000837169
0.00084924
0.000860992
0.000872608
0.000884196
0.00089558
0.000906928
0.000918154
0.000929259
0.000940307
0.000951192
0.000962005
0.000972773
0.000983475
0.000994085
0.00100456
0.00101486
0.00102493
0.0010347
0.00104422
0.00105352
0.00106267
0.00107166
0.00108045
0.00108903
0.00109738
0.00110554
0.0011135
0.00112127
0.00112881
0.00113611
0.00114314
0.00114991
0.00115639
0.0011626
0.00116852
0.00117417
0.00117956
0.00118467
0.00118951
0.00119409
0.00119839
0.00120243
0.00120619
0.00120969
0.00121294
0.00121594
0.00121869
0.00122119
0.00122345
0.00122547
0.00122725
0.00122879
0.0012301
0.00123117
0.00123202
0.00123263
0.00123302
0.00123318
0.00123312
0.00123285
0.00123236
0.00123166
0.00123074
0.00122963
0.00122832
0.00122681
0.00122512
0.00122325
0.00122121
0.00121901
0.00121665
0.00121413
0.00121145
0.00120863
0.00120564
0.0012025
0.0011992
0.00119574
0.00119212
0.00118834
0.00118439
0.00118027
0.00117596
0.00117146
0.00116677
0.00116188
0.00115679
0.00115149
0.00114596
0.00114019
0.00113416
0.00112786
0.00112132
0.0011146
0.00110772
0.0011007
0.00109355
0.00108631
0.00107904
0.00107182
0.00106425
0.0010564
0.00104834
0.00104016
0.0010319
0.00102356
0.00101513
0.00100663
0.000997949
0.000989032
0.000979846
0.000970412
0.000960787
0.000951031
0.000941079
0.000931048
0.000920852
0.000910631
0.000900495
0.000890312
0.000879982
0.000869354
0.000858586
0.000847774
0.000836957
0.000826055
0.000815242
0.000804402
0.00079372
0.000783319
0.000772975
0.000762103
0.000751099
0.000739473
0.000726861
0.000713133
0.000698302
0.000682446
0.000665681
0.000648134
0.000629933
0.000611197
0.000592026
0.000572505
0.000552703
0.000532677
0.000512471
0.000492123
0.000471661
0.000451108
0.000430479
0.000409781
0.000389005
0.000368128
0.000347095
0.000325807
0.000304073
0.000281528
0.000257434
0.000230267
0.000196908
0.00015129
8.40616e-05
9.66863e-06
7.16656e-06
7.03809e-05
0.000129715
0.000176018
0.000214755
0.00024884
0.00027973
0.000308209
0.000334754
0.000359699
0.000383306
0.000405796
0.000427365
0.000448187
0.000468412
0.000488169
0.000507567
0.000526691
0.000545614
0.000564387
0.000583053
0.000601639
0.000620166
0.000638645
0.000657081
0.000675474
0.000693812
0.000712068
0.000730188
0.00074806
0.000765465
0.000782031
0.000797329
0.000811309
0.00082443
0.00083706
0.000849002
0.000860739
0.000872366
0.000884001
0.000895579
0.000906949
0.000918127
0.000929188
0.000940178
0.000951103
0.000961987
0.000972807
0.000983496
0.000994096
0.00100458
0.00101485
0.00102488
0.00103465
0.00104426
0.00105363
0.00106277
0.0010717
0.00108043
0.00108891
0.00109723
0.00110541
0.00111342
0.00112122
0.00112877
0.00113606
0.00114309
0.00114984
0.00115631
0.00116251
0.00116843
0.00117408
0.00117946
0.00118458
0.00118942
0.001194
0.00119831
0.00120234
0.00120611
0.0012096
0.00121285
0.00121584
0.00121859
0.00122109
0.00122335
0.00122537
0.00122715
0.0012287
0.00123
0.00123108
0.00123192
0.00123254
0.00123293
0.00123309
0.00123303
0.00123276
0.00123227
0.00123157
0.00123066
0.00122954
0.00122823
0.00122672
0.00122503
0.00122317
0.00122113
0.00121893
0.00121656
0.00121405
0.00121137
0.00120854
0.00120556
0.00120242
0.00119912
0.00119566
0.00119204
0.00118827
0.00118432
0.00118019
0.00117588
0.00117138
0.00116669
0.00116181
0.00115674
0.00115146
0.00114596
0.00114021
0.0011342
0.00112792
0.00112138
0.00111459
0.00110759
0.00110046
0.00109327
0.00108608
0.00107888
0.00107159
0.00106404
0.00105625
0.00104823
0.00104006
0.00103181
0.00102354
0.00101519
0.00100668
0.000997961
0.000988995
0.000979781
0.000970338
0.000960714
0.00095096
0.000940993
0.000930964
0.000920755
0.000910449
0.000900204
0.000890047
0.000879767
0.000869198
0.000858417
0.000847601
0.000836851
0.000826054
0.000815215
0.000804362
0.000793537
0.000782828
0.00077228
0.000761712
0.000750872
0.000739343
0.000726807
0.000713131
0.000698324
0.000682474
0.000665705
0.000648153
0.00062995
0.000611212
0.000592041
0.00057252
0.000552719
0.000532694
0.000512489
0.00049214
0.000471678
0.000451125
0.000430497
0.000409798
0.000389023
0.000368146
0.000347114
0.000325827
0.000304096
0.000281555
0.000257467
0.000230308
0.000196956
0.00015134
8.40902e-05
9.67801e-06
1.0099e-05
8.00081e-05
0.000145539
0.000197252
0.00024051
0.000278407
0.000312571
0.000343916
0.000373007
0.000400244
0.000425938
0.000450351
0.000473713
0.000496223
0.000518056
0.000539358
0.000560251
0.000580832
0.000601179
0.00062135
0.000641389
0.000661327
0.000681184
0.000700973
0.000720699
0.000740361
0.000759951
0.000779449
0.00079882
0.000818001
0.000836886
0.000855309
0.000873081
0.000890099
0.000906415
0.000922135
0.000937334
0.000952108
0.000966547
0.000980721
0.000994634
0.00100831
0.00102174
0.00103494
0.00104793
0.00106071
0.0010733
0.00108569
0.0010979
0.0011099
0.0011217
0.00113326
0.00114458
0.00115563
0.0011664
0.0011769
0.00118715
0.00119716
0.00120691
0.00121641
0.00122564
0.00123463
0.00124337
0.00125187
0.00126011
0.0012681
0.00127581
0.00128324
0.00129039
0.00129725
0.00130382
0.00131011
0.00131612
0.00132183
0.00132726
0.0013324
0.00133725
0.00134181
0.00134608
0.00135006
0.00135375
0.00135717
0.00136031
0.00136318
0.00136577
0.0013681
0.00137016
0.00137195
0.00137348
0.00137475
0.00137576
0.00137651
0.00137701
0.00137725
0.00137725
0.001377
0.00137651
0.00137578
0.00137482
0.00137363
0.00137222
0.00137059
0.00136875
0.00136671
0.00136447
0.00136205
0.00135944
0.00135665
0.00135369
0.00135055
0.00134724
0.00134375
0.00134009
0.00133625
0.00133223
0.00132803
0.00132364
0.00131906
0.00131428
0.0013093
0.00130412
0.00129873
0.00129312
0.0012873
0.00128126
0.00127499
0.0012685
0.00126177
0.00125483
0.0012477
0.00124041
0.00123295
0.00122532
0.00121754
0.00120959
0.0012015
0.0011932
0.0011847
0.00117599
0.00116711
0.00115805
0.00114882
0.0011394
0.00112979
0.00111997
0.00110992
0.00109962
0.00108907
0.00107831
0.00106734
0.00105617
0.00104483
0.00103331
0.00102166
0.00100991
0.00099802
0.000985975
0.000973742
0.000961334
0.000948779
0.000936103
0.000923295
0.000910372
0.000897335
0.000884233
0.000871089
0.000857834
0.000844302
0.000830423
0.00081603
0.000800963
0.000785119
0.000768461
0.000751005
0.000732802
0.000713929
0.000694471
0.000674514
0.000654136
0.000633406
0.000612385
0.000591122
0.000569659
0.00054803
0.000526264
0.000504381
0.000482392
0.000460294
0.000438068
0.000415667
0.000393002
0.000369915
0.000346133
0.000321155
0.000294046
0.000262999
0.000224497
0.000171969
9.57395e-05
1.22223e-05
1.00686e-05
7.99077e-05
0.000145403
0.000197105
0.000240361
0.000278261
0.000312429
0.000343777
0.000372873
0.000400114
0.000425813
0.000450231
0.000473597
0.000496113
0.00051795
0.000539257
0.000560154
0.000580739
0.00060109
0.000621265
0.000641307
0.000661248
0.000681109
0.000700901
0.00072063
0.000740294
0.000759886
0.000779387
0.000798761
0.000817945
0.000836829
0.000855246
0.000873002
0.000889996
0.000906289
0.000922001
0.000937177
0.000951939
0.000966378
0.000980563
0.00099451
0.0010082
0.00102164
0.00103484
0.00104783
0.00106062
0.00107321
0.00108563
0.00109784
0.00110986
0.00112167
0.00113324
0.00114455
0.00115559
0.00116637
0.00117688
0.00118713
0.00119712
0.00120685
0.00121634
0.00122557
0.00123457
0.00124333
0.00125183
0.00126007
0.00126805
0.00127576
0.00128319
0.00129033
0.00129719
0.00130377
0.00131006
0.00131606
0.00132178
0.00132721
0.00133235
0.0013372
0.00134176
0.00134603
0.00135001
0.0013537
0.00135712
0.00136026
0.00136312
0.00136572
0.00136805
0.00137011
0.0013719
0.00137343
0.0013747
0.00137571
0.00137646
0.00137696
0.0013772
0.0013772
0.00137695
0.00137646
0.00137573
0.00137477
0.00137358
0.00137217
0.00137054
0.0013687
0.00136666
0.00136443
0.001362
0.0013594
0.00135661
0.00135365
0.00135051
0.0013472
0.00134371
0.00134005
0.00133621
0.0013322
0.001328
0.00132361
0.00131903
0.00131425
0.00130927
0.00130409
0.0012987
0.0012931
0.00128729
0.00128127
0.00127502
0.00126853
0.00126182
0.00125488
0.00124774
0.00124041
0.00123291
0.00122527
0.00121748
0.00120954
0.00120145
0.00119315
0.00118466
0.00117596
0.00116708
0.00115802
0.0011488
0.0011394
0.00112979
0.00111997
0.0011099
0.0010996
0.00108905
0.00107829
0.00106732
0.00105615
0.00104481
0.00103328
0.00102161
0.00100983
0.000997936
0.000985899
0.000973675
0.000961266
0.000948709
0.000936038
0.000923245
0.00091033
0.000897298
0.000884163
0.000870943
0.00085763
0.000844139
0.000830323
0.000815988
0.000800963
0.000785144
0.000768497
0.000751041
0.000732837
0.000713962
0.000694503
0.000674546
0.00065417
0.000633441
0.000612421
0.000591158
0.000569695
0.000548067
0.000526301
0.000504418
0.000482428
0.00046033
0.000438104
0.000415703
0.000393039
0.000369954
0.000346174
0.000321201
0.000294098
0.000263059
0.000224564
0.000172034
9.57767e-05
1.22355e-05
1.37456e-05
9.03345e-05
0.00016151
0.000218096
0.000265386
0.000306613
0.000343557
0.000377249
0.000408347
0.000437317
0.000464525
0.000490275
0.000514835
0.000538435
0.000561275
0.000583524
0.000605322
0.00062678
0.000647987
0.000669009
0.000689894
0.000710678
0.000731382
0.00075202
0.000772598
0.000793114
0.000813561
0.000833924
0.000854178
0.000874285
0.000894185
0.000913794
0.000933016
0.00095177
0.000970027
0.000987793
0.00100509
0.00102196
0.00103845
0.00105459
0.00107041
0.0010859
0.00110109
0.00111598
0.00113059
0.0011449
0.00115894
0.00117272
0.00118622
0.00119945
0.00121241
0.00122508
0.00123747
0.00124957
0.00126136
0.00127286
0.00128405
0.00129496
0.00130557
0.00131589
0.00132592
0.00133565
0.0013451
0.00135427
0.00136315
0.00137173
0.00138003
0.00138803
0.00139573
0.00140313
0.00141023
0.00141702
0.00142352
0.00142971
0.00143561
0.00144119
0.00144648
0.00145145
0.00145613
0.00146049
0.00146455
0.00146831
0.00147177
0.00147494
0.00147781
0.00148039
0.00148269
0.00148469
0.00148641
0.00148784
0.001489
0.00148987
0.00149047
0.00149079
0.00149084
0.00149063
0.00149016
0.00148942
0.00148844
0.0014872
0.00148573
0.00148401
0.00148207
0.00147991
0.00147753
0.00147494
0.00147215
0.00146917
0.00146598
0.00146261
0.00145905
0.00145529
0.00145135
0.00144721
0.00144288