/*--------------------------------*- C++ -*----------------------------------*\
  =========                 |
  \\      /  F ield         | OpenFOAM: The Open Source CFD Toolbox
   \\    /   O peration     | Website:  https://openfoam.org
    \\  /    A nd           | Version:  8
     \\/     M anipulation  |
\*---------------------------------------------------------------------------*/
FoamFile
{
    version     2.0;
    format      ascii;
    class       surfaceScalarField;
    location    "100";
    object      phi;
}
// * * * * * * * * * * * * * * * * * * * * * * * * * * * * * * * * * * * * * //

dimensions      [1 0 -1 0 0 0 0];

internalField   nonuniform List<scalar> 
119360
(
-4.18571e-08
2.82867e-11
4.18288e-08
-7.1105e-08
2.55884e-11
2.96239e-08
-7.55455e-08
1.30509e-11
4.6016e-09
-5.55579e-08
6.47128e-12
-1.99289e-08
-1.61424e-08
2.63168e-12
-3.9412e-08
3.7668e-08
-7.19421e-13
-5.38556e-08
1.01295e-07
-4.50106e-12
-6.37195e-08
1.71251e-07
-7.58171e-12
-7.00725e-08
2.44935e-07
-8.57581e-12
-7.37972e-08
3.20311e-07
-7.18914e-12
-7.54659e-08
3.95811e-07
-3.86557e-12
-7.55645e-08
4.70274e-07
-3.72701e-13
-7.45132e-08
5.42895e-07
9.2193e-13
-7.26714e-08
6.1318e-07
-5.16808e-13
-7.03342e-08
6.80879e-07
-2.98295e-12
-6.77309e-08
7.45911e-07
-4.4934e-12
-6.50316e-08
8.08302e-07
-4.74054e-12
-6.23577e-08
8.6815e-07
-4.95504e-12
-5.97907e-08
9.25596e-07
-6.55442e-12
-5.73764e-08
9.80808e-07
-9.47831e-12
-5.51294e-08
1.03395e-06
-1.21644e-11
-5.30416e-08
1.08517e-06
-1.28474e-11
-5.10923e-08
1.13457e-06
-1.18193e-11
-4.92592e-08
1.18222e-06
-1.06247e-11
-4.75203e-08
1.2282e-06
-1.04122e-11
-4.58483e-08
1.27252e-06
-1.12844e-11
-4.42072e-08
1.31517e-06
-1.33816e-11
-4.25457e-08
1.35603e-06
-1.56715e-11
-4.07776e-08
1.39486e-06
-1.75523e-11
-3.87535e-08
1.43117e-06
-1.81658e-11
-3.62363e-08
1.46425e-06
-1.56247e-11
-3.30189e-08
1.49429e-06
-3.5415e-12
-3.00029e-08
1.52972e-06
3.70368e-11
-3.54377e-08
1.57141e-06
1.77305e-10
-4.18333e-08
1.59704e-06
5.90596e-10
-2.61797e-08
1.62605e-06
1.27017e-09
-3.02113e-08
1.66291e-06
-1.60126e-10
-3.66067e-08
1.69318e-06
-1.85234e-09
-2.82968e-08
1.72164e-06
-8.0455e-10
-2.75157e-08
1.73428e-06
-2.82766e-10
-1.22289e-08
1.75873e-06
-5.53295e-11
-2.43187e-08
1.79327e-06
-2.18415e-11
-3.44707e-08
1.81408e-06
-1.69294e-10
-2.06048e-08
1.83723e-06
-7.09055e-10
-2.24328e-08
1.85105e-06
-2.15243e-09
-1.17101e-08
1.87031e-06
-1.70816e-09
-1.76355e-08
1.88926e-06
-9.00455e-10
-1.81428e-08
1.90593e-06
9.59119e-10
-1.77491e-08
1.921e-06
1.93799e-09
-1.71209e-08
1.93581e-06
8.60159e-10
-1.57747e-08
1.94972e-06
-3.09686e-10
-1.36803e-08
1.96209e-06
-1.58385e-09
-1.08517e-08
1.97318e-06
-2.21459e-09
-8.92163e-09
1.98838e-06
4.74976e-10
-1.5705e-08
2.00376e-06
2.49909e-09
-1.78829e-08
2.00864e-06
1.34562e-09
-6.25312e-09
2.02383e-06
6.79467e-10
-1.58867e-08
2.0373e-06
7.88832e-11
-1.35728e-08
2.04455e-06
5.69753e-11
-7.3592e-09
2.04705e-06
2.28203e-10
-2.81544e-09
2.04865e-06
2.45969e-10
-1.97888e-09
2.05257e-06
2.48428e-10
-4.32618e-09
2.05982e-06
8.99322e-11
-7.52318e-09
2.06685e-06
-3.74955e-11
-7.19326e-09
2.07211e-06
-7.16448e-11
-5.41272e-09
2.07571e-06
-1.01133e-10
-3.71069e-09
2.07783e-06
-1.12687e-10
-2.21039e-09
2.07897e-06
-1.02346e-10
-1.21011e-09
2.0799e-06
-8.36428e-11
-9.74909e-10
2.081e-06
-6.33145e-11
-1.11738e-09
2.08214e-06
-4.3722e-11
-1.13949e-09
2.08299e-06
-2.8238e-11
-8.34518e-10
2.08325e-06
-1.75632e-11
-2.50694e-10
2.0828e-06
-1.14433e-11
4.46546e-10
2.08169e-06
-8.57792e-12
1.0969e-09
2.08002e-06
-6.33088e-12
1.62073e-09
2.07793e-06
-3.02669e-12
2.03149e-09
2.07547e-06
1.55226e-12
2.37943e-09
2.0727e-06
6.25006e-12
2.68904e-09
2.06967e-06
1.00094e-11
2.95461e-09
2.06642e-06
1.30699e-11
3.18466e-09
2.06297e-06
1.62599e-11
3.42783e-09
2.05925e-06
1.98334e-11
3.7395e-09
2.05516e-06
2.34367e-11
4.13385e-09
2.05065e-06
2.66934e-11
4.57705e-09
2.0457e-06
2.93652e-11
5.019e-09
2.04034e-06
3.11419e-11
5.42588e-09
2.03459e-06
3.1554e-11
5.78982e-09
2.02848e-06
2.99944e-11
6.11912e-09
2.02203e-06
2.59305e-11
6.42372e-09
2.01527e-06
1.94593e-11
6.70793e-09
2.00824e-06
1.17795e-11
6.97313e-09
2.00097e-06
4.76291e-12
7.22295e-09
1.99351e-06
-3.42781e-13
7.46368e-09
1.98583e-06
-3.71014e-12
7.70078e-09
1.97794e-06
-6.25816e-12
7.93581e-09
1.96984e-06
-8.38418e-12
8.16653e-09
1.96152e-06
-9.79766e-12
8.39056e-09
1.95297e-06
-1.05583e-11
8.61191e-09
1.94418e-06
-1.17814e-11
8.84549e-09
1.93508e-06
-1.50585e-11
9.1084e-09
1.92566e-06
-2.1292e-11
9.3971e-09
1.91593e-06
-2.96876e-11
9.6776e-09
1.90594e-06
-3.74907e-11
9.9059e-09
1.8958e-06
-4.11963e-11
1.00563e-08
1.88558e-06
-3.84512e-11
1.01301e-08
1.87533e-06
-2.82302e-11
1.01465e-08
1.86509e-06
-9.5759e-12
1.01303e-08
1.85488e-06
1.74339e-11
1.01038e-08
1.84469e-06
4.86707e-11
1.00896e-08
1.83444e-06
7.58789e-11
1.01272e-08
1.82403e-06
9.06217e-11
1.02759e-08
1.81334e-06
8.81262e-11
1.05606e-08
1.80232e-06
6.89329e-11
1.08913e-08
1.79111e-06
3.79104e-11
1.1093e-08
1.7799e-06
1.13742e-12
1.106e-08
1.76884e-06
-3.53061e-11
1.08825e-08
1.75784e-06
-6.30808e-11
1.08178e-08
1.74668e-06
-7.40201e-11
1.10324e-08
1.73529e-06
-6.62654e-11
1.1347e-08
1.72377e-06
-4.90832e-11
1.14891e-08
1.71224e-06
-3.36335e-11
1.14704e-08
1.70073e-06
-2.63453e-11
1.1408e-08
1.68922e-06
-1.65425e-11
1.14216e-08
1.67748e-06
4.40503e-12
1.17125e-08
1.66586e-06
3.91622e-11
1.16058e-08
1.6544e-06
1.09264e-10
1.13487e-08
1.641e-06
1.92994e-10
1.31293e-08
1.62719e-06
1.47379e-10
1.35521e-08
1.6153e-06
2.45364e-10
1.15698e-08
1.60558e-06
6.56659e-12
9.67728e-09
1.59091e-06
-3.05506e-10
1.49602e-08
1.57496e-06
2.10738e-10
1.56885e-08
1.56332e-06
9.60352e-10
1.05247e-08
1.55841e-06
3.3564e-09
1.34373e-09
1.53626e-06
8.28841e-10
2.11769e-08
1.51401e-06
-1.49031e-09
2.36838e-08
1.50941e-06
-1.25359e-09
5.84065e-09
1.4946e-06
-5.37501e-10
1.53596e-08
1.48103e-06
1.12448e-11
1.34678e-08
1.4682e-06
6.92251e-10
1.20687e-08
1.45532e-06
2.40918e-09
1.0506e-08
1.44605e-06
1.09454e-09
8.20027e-09
1.426e-06
-1.25364e-09
2.12209e-08
1.41549e-06
-9.56543e-10
1.13438e-08
1.40366e-06
-2.63181e-10
1.20351e-08
1.3875e-06
3.59687e-11
1.61035e-08
1.37162e-06
6.37214e-11
1.58462e-08
1.35751e-06
3.44614e-11
1.4175e-08
1.33381e-06
-2.79315e-12
2.37891e-08
1.31954e-06
-6.06021e-11
1.42915e-08
1.3163e-06
-2.36391e-10
3.3004e-09
1.30288e-06
-6.02532e-10
1.38487e-08
1.27884e-06
-1.78565e-09
2.59242e-08
1.26127e-06
2.44935e-11
1.77298e-08
1.25021e-06
4.4704e-10
1.07109e-08
1.23398e-06
-1.73624e-09
1.79769e-08
1.21531e-06
-3.21184e-09
2.18126e-08
1.20174e-06
-1.42671e-09
1.49445e-08
1.1856e-06
6.28848e-10
1.55035e-08
1.16332e-06
6.08993e-10
2.17248e-08
1.14587e-06
1.34596e-09
1.61999e-08
1.13493e-06
2.65342e-09
8.3904e-09
1.11825e-06
1.44758e-09
1.531e-08
1.09233e-06
-5.3596e-10
2.64884e-08
1.06701e-06
-1.05846e-09
2.64085e-08
1.04548e-06
-9.27143e-11
2.16773e-08
1.02237e-06
3.80789e-10
2.27786e-08
9.97644e-07
3.42789e-10
2.44255e-08
9.72082e-07
2.93288e-10
2.52965e-08
9.45692e-07
2.31484e-10
2.62111e-08
9.18075e-07
1.66273e-10
2.75463e-08
8.88968e-07
1.10348e-10
2.91103e-08
8.58306e-07
6.4869e-11
3.06766e-08
8.26155e-07
2.9044e-11
3.21442e-08
7.92641e-07
5.20417e-12
3.35068e-08
7.57877e-07
-3.84842e-12
3.47955e-08
7.21916e-07
-3.89466e-13
3.60357e-08
6.84758e-07
7.54841e-12
3.72341e-08
6.46389e-07
1.11195e-11
3.83884e-08
6.06823e-07
6.62037e-12
3.95028e-08
5.66114e-07
-1.93867e-12
4.05976e-08
5.24316e-07
-6.31162e-12
4.17034e-08
4.81439e-07
-1.89637e-12
4.28417e-08
4.37433e-07
7.62379e-12
4.40107e-08
3.9223e-07
1.39007e-11
4.51894e-08
3.45795e-07
1.14596e-11
4.63558e-08
2.9816e-07
2.22633e-12
4.7498e-08
2.4941e-07
-6.02185e-12
4.86094e-08
1.99662e-07
-6.45306e-12
4.96612e-08
1.49071e-07
6.68359e-14
5.05618e-08
9.79444e-08
5.01177e-12
5.1107e-08
4.69841e-08
-1.44328e-13
5.09002e-08
-2.33177e-09
-1.52447e-11
4.92243e-08
-4.66988e-08
-2.78035e-11
4.43276e-08
-8.09855e-08
-2.28573e-11
3.43909e-08
-9.82638e-08
-2.20313e-12
1.75211e-08
-9.05496e-08
2.16338e-11
-7.42245e-09
-5.44433e-08
3.83165e-11
-3.58615e-08
4.73666e-11
-5.42803e-08
-4.17034e-08
4.19151e-08
-7.1063e-08
2.96804e-08
-7.55722e-08
4.61938e-09
-5.56132e-08
-1.99305e-08
-1.62115e-08
-3.94259e-08
3.75892e-08
-5.38774e-08
1.01216e-07
-6.3743e-08
1.71182e-07
-7.00928e-08
2.44881e-07
-7.38112e-08
3.20273e-07
-7.54718e-08
3.95782e-07
-7.55641e-08
4.70243e-07
-7.45107e-08
5.42857e-07
-7.26702e-08
6.13141e-07
-7.03341e-08
6.80847e-07
-6.77292e-08
7.45888e-07
-6.50261e-08
8.08282e-07
-6.23505e-08
8.68126e-07
-5.97851e-08
9.25567e-07
-5.73731e-08
9.8078e-07
-5.51262e-08
1.03393e-06
-5.30361e-08
1.08515e-06
-5.10853e-08
1.13455e-06
-4.92541e-08
1.18221e-06
-4.75183e-08
1.22818e-06
-4.58484e-08
1.27249e-06
-4.4208e-08
1.31513e-06
-4.25455e-08
1.35599e-06
-4.07749e-08
1.3948e-06
-3.87441e-08
1.43108e-06
-3.62103e-08
1.4641e-06
-3.29616e-08
1.49408e-06
-2.99086e-08
1.52955e-06
-3.53537e-08
1.57186e-06
-4.20479e-08
1.59975e-06
-2.71943e-08
1.62408e-06
-2.29222e-08
1.65958e-06
-3.55117e-08
1.69796e-06
-4.00684e-08
1.72284e-06
-2.54757e-08
1.73384e-06
-1.10927e-08
1.75817e-06
-2.42653e-08
1.79285e-06
-3.46199e-08
1.81319e-06
-2.04279e-08
1.8324e-06
-1.98719e-08
1.85006e-06
-1.9833e-08
1.87031e-06
-2.20124e-08
1.89783e-06
-2.85234e-08
1.91326e-06
-1.45824e-08
1.92042e-06
-5.29487e-09
1.93697e-06
-1.57222e-08
1.95166e-06
-1.50167e-08
1.96381e-06
-1.37318e-08
1.98186e-06
-2.02419e-08
1.99711e-06
-1.47032e-08
2.00677e-06
-7.06891e-09
2.01389e-06
-5.68137e-09
2.02068e-06
-6.04475e-09
2.02655e-06
-5.74543e-09
2.0327e-06
-6.09632e-09
2.04253e-06
-9.66241e-09
2.05433e-06
-1.16542e-08
2.06052e-06
-6.06785e-09
2.06401e-06
-3.5465e-09
2.06765e-06
-3.84789e-09
2.07147e-06
-4.07658e-09
2.07479e-06
-3.59844e-09
2.07715e-06
-2.61626e-09
2.07857e-06
-1.63392e-09
2.07961e-06
-1.19501e-09
2.0808e-06
-1.28131e-09
2.0821e-06
-1.34755e-09
2.08304e-06
-9.54142e-10
2.08318e-06
-1.49343e-10
2.08245e-06
6.98928e-10
2.0811e-06
1.29163e-09
2.07942e-06
1.60773e-09
2.07753e-06
1.81121e-09
2.07539e-06
2.05438e-09
2.07292e-06
2.38648e-09
2.07008e-06
2.77698e-09
2.06687e-06
3.17884e-09
2.06332e-06
3.57086e-09
2.05942e-06
3.95815e-09
2.05517e-06
4.34909e-09
2.05053e-06
4.73969e-09
2.04552e-06
5.11732e-09
2.04014e-06
5.47259e-09
2.03439e-06
5.80477e-09
2.02828e-06
6.11827e-09
2.02184e-06
6.41604e-09
2.01509e-06
6.69705e-09
2.00807e-06
6.95963e-09
2.00083e-06
7.20533e-09
1.99339e-06
7.43919e-09
1.98574e-06
7.66739e-09
1.97787e-06
7.89481e-09
1.96979e-06
8.12254e-09
1.96149e-06
8.34825e-09
1.95295e-06
8.57297e-09
1.94415e-06
8.80873e-09
1.93504e-06
9.07125e-09
1.92561e-06
9.35732e-09
1.91588e-06
9.6354e-09
1.90592e-06
9.86474e-09
1.89582e-06
1.00206e-08
1.88566e-06
1.01031e-08
1.87547e-06
1.01308e-08
1.8653e-06
1.01285e-08
1.85513e-06
1.01168e-08
1.84494e-06
1.01183e-08
1.83465e-06
1.01731e-08
1.82415e-06
1.03345e-08
1.81334e-06
1.0612e-08
1.80223e-06
1.0909e-08
1.79096e-06
1.10651e-08
1.77976e-06
1.09957e-08
1.76876e-06
1.07918e-08
1.75791e-06
1.0705e-08
1.7469e-06
1.0942e-08
1.73552e-06
1.13824e-08
1.72368e-06
1.17998e-08
1.71142e-06
1.21282e-08
1.69918e-06
1.20446e-08
1.6877e-06
1.12877e-08
1.67731e-06
1.02845e-08
1.66764e-06
9.63331e-09
1.65768e-06
9.9976e-09
1.64597e-06
1.18101e-08
1.63348e-06
1.25421e-08
1.61453e-06
1.91189e-08
1.59659e-06
1.78939e-08
1.58365e-06
1.25908e-08
1.57392e-06
9.83082e-09
1.57341e-06
1.29273e-09
1.55348e-06
2.3125e-08
1.53363e-06
2.06018e-08
1.51969e-06
1.24245e-08
1.51403e-06
4.42993e-09
1.49749e-06
1.59417e-08
1.48451e-06
1.2849e-08
1.47616e-06
8.94622e-09
1.45501e-06
2.35234e-08
1.44356e-06
1.25176e-08
1.4314e-06
1.08832e-08
1.41684e-06
1.36421e-08
1.40155e-06
1.50492e-08
1.38514e-06
1.64196e-08
1.37043e-06
1.47701e-08
1.35739e-06
1.30956e-08
1.33401e-06
2.33534e-08
1.3193e-06
1.45669e-08
1.31451e-06
4.48221e-09
1.29747e-06
1.65412e-08
1.28342e-06
1.24464e-08
1.25958e-06
2.39422e-08
1.2426e-06
1.74227e-08
1.22831e-06
1.25102e-08
1.21693e-06
8.14699e-09
1.20138e-06
1.41285e-08
1.17853e-06
2.35435e-08
1.16179e-06
1.7455e-08
1.14718e-06
1.60527e-08
1.1267e-06
2.32113e-08
1.10886e-06
1.93476e-08
1.09119e-06
1.71819e-08
1.07176e-06
1.84261e-08
1.046e-06
2.57255e-08
1.01892e-06
2.75212e-08
9.94333e-07
2.49746e-08
9.70148e-07
2.45475e-08
9.4485e-07
2.56324e-08
9.17822e-07
2.73091e-08
8.88958e-07
2.90583e-08
8.58369e-07
3.06866e-08
8.26239e-07
3.21678e-08
7.92742e-07
3.35374e-08
7.57987e-07
3.48328e-08
7.22011e-07
3.60708e-08
6.84811e-07
3.72532e-08
6.46393e-07
3.83847e-08
6.06802e-07
3.94843e-08
5.66104e-07
4.05831e-08
5.24337e-07
4.17066e-08
4.81476e-07
4.28589e-08
4.37454e-07
4.40249e-08
3.92214e-07
4.51867e-08
3.45753e-07
4.63368e-08
2.98123e-07
4.74777e-08
2.49405e-07
4.86043e-08
1.99682e-07
4.96746e-08
1.49082e-07
5.05796e-08
9.79162e-08
5.11101e-08
4.69229e-08
5.08833e-08
-2.37862e-09
4.9205e-08
-4.66808e-08
4.43393e-08
-8.09071e-08
3.44482e-08
-9.81804e-08
1.76046e-08
-9.05088e-08
-7.34648e-09
-5.44345e-08
-3.58136e-08
-5.42664e-08
-2.22349e-08
1.82481e-11
6.43821e-08
-1.94789e-08
3.15438e-12
2.71644e-08
2.42458e-09
-6.17394e-12
-1.72397e-08
3.80501e-08
-8.49132e-12
-5.55627e-08
8.46299e-08
-9.29701e-12
-8.60494e-08
1.40002e-07
-9.85256e-12
-1.09325e-07
2.02228e-07
-1.03129e-11
-1.2606e-07
2.69354e-07
-1.03882e-11
-1.37306e-07
3.39551e-07
-9.50517e-12
-1.4408e-07
4.1127e-07
-7.55124e-12
-1.47246e-07
4.83251e-07
-5.14344e-12
-1.47592e-07
5.54518e-07
-3.25662e-12
-1.45825e-07
6.24367e-07
-2.68935e-12
-1.42561e-07
6.92333e-07
-3.16191e-12
-1.38323e-07
7.58142e-07
-3.56853e-12
-1.3353e-07
8.21657e-07
-3.29464e-12
-1.28503e-07
8.82842e-07
-2.90978e-12
-1.23474e-07
9.41733e-07
-3.13549e-12
-1.18597e-07
9.98413e-07
-4.16256e-12
-1.13956e-07
1.05299e-06
-5.41833e-12
-1.09588e-07
1.10559e-06
-6.1546e-12
-1.05492e-07
1.1563e-06
-6.18008e-12
-1.0165e-07
1.20523e-06
-6.13204e-12
-9.80296e-08
1.25245e-06
-6.25547e-12
-9.45956e-08
1.29804e-06
-6.72981e-12
-9.13073e-08
1.34207e-06
-7.56598e-12
-8.81226e-08
1.38462e-06
-8.99023e-12
-8.49946e-08
1.4258e-06
-1.0851e-11
-8.18687e-08
1.46581e-06
-1.26035e-11
-7.86828e-08
1.50503e-06
-1.36902e-11
-7.53813e-08
1.54408e-06
-1.43618e-11
-7.20014e-08
1.5832e-06
-1.54655e-11
-6.90522e-08
1.61632e-06
-2.37749e-11
-6.84824e-08
1.64292e-06
-7.55503e-11
-6.82806e-08
1.68092e-06
-3.19426e-10
-6.37743e-08
1.7144e-06
-9.73698e-10
-6.26112e-08
1.74046e-06
-7.49037e-11
-6.24518e-08
1.77021e-06
1.35565e-09
-5.92513e-08
1.7978e-06
5.54926e-10
-5.55457e-08
1.83589e-06
1.52049e-10
-5.03909e-08
1.86251e-06
1.70947e-11
-5.0921e-08
1.87961e-06
-1.88284e-11
-5.15375e-08
1.90619e-06
3.46113e-11
-4.72371e-08
1.92808e-06
3.16946e-10
-4.47113e-08
1.9556e-06
1.49073e-09
-4.08334e-08
1.97597e-06
1.41064e-09
-3.95449e-08
1.99475e-06
1.08178e-09
-3.81453e-08
2.01392e-06
-4.97374e-10
-3.65649e-08
2.03297e-06
-1.64929e-09
-3.46513e-08
2.05086e-06
-9.1473e-10
-3.28667e-08
2.06793e-06
-1.02542e-11
-3.08179e-08
2.08479e-06
9.40329e-10
-2.87055e-08
2.10189e-06
1.39214e-09
-2.74397e-08
2.1146e-06
-5.6971e-10
-2.78508e-08
2.12507e-06
-2.02149e-09
-2.63544e-08
2.14281e-06
-1.01313e-09
-2.30054e-08
2.15072e-06
-7.14238e-10
-2.31222e-08
2.15885e-06
-3.92177e-10
-2.137e-08
2.16981e-06
-2.93655e-10
-1.81301e-08
2.18224e-06
-1.48105e-10
-1.52347e-08
2.19357e-06
1.00803e-10
-1.35888e-08
2.20223e-06
1.02391e-10
-1.32787e-08
2.20803e-06
6.17413e-11
-1.36059e-08
2.21344e-06
2.60131e-11
-1.28515e-08
2.21924e-06
-1.23423e-11
-1.1413e-08
2.22501e-06
-2.38498e-11
-9.64491e-09
2.23042e-06
-2.43088e-11
-7.75446e-09
2.23538e-06
-2.24446e-11
-6.26023e-09
2.23976e-06
-2.04879e-11
-5.4021e-09
2.24346e-06
-1.67229e-11
-4.84861e-09
2.24652e-06
-1.1081e-11
-4.20837e-09
2.24899e-06
-6.49353e-12
-3.31848e-09
2.25094e-06
-4.72561e-12
-2.22465e-09
2.25243e-06
-4.51755e-12
-1.0762e-09
2.25349e-06
-3.69102e-12
-1.2659e-11
2.25412e-06
-1.23612e-12
9.1499e-10
2.25434e-06
2.33977e-12
1.7397e-09
2.25412e-06
5.75268e-12
2.51004e-09
2.2535e-06
8.04276e-12
3.24108e-09
2.25249e-06
9.14699e-12
3.92607e-09
2.25108e-06
9.60965e-12
4.58177e-09
2.24929e-06
9.9552e-12
5.26069e-09
2.24708e-06
1.04769e-11
6.00829e-09
2.24448e-06
1.13008e-11
6.82168e-09
2.24148e-06
1.23768e-11
7.656e-09
2.23811e-06
1.34223e-11
8.46189e-09
2.23437e-06
1.40231e-11
9.21432e-09
2.23026e-06
1.38099e-11
9.91543e-09
2.22577e-06
1.25646e-11
1.05804e-08
2.22093e-06
1.02943e-11
1.12217e-08
2.21575e-06
7.32955e-12
1.18424e-08
2.21026e-06
4.27364e-12
1.24405e-08
2.20446e-06
1.65298e-12
1.30158e-08
2.19838e-06
-4.18693e-13
1.35722e-08
2.19201e-06
-2.15733e-12
1.41145e-08
2.18536e-06
-3.71189e-12
1.46435e-08
2.17844e-06
-5.01113e-12
1.51542e-08
2.17124e-06
-6.01971e-12
1.56428e-08
2.16377e-06
-6.951e-12
1.61176e-08
2.156e-06
-8.17893e-12
1.66016e-08
2.14795e-06
-1.00571e-11
1.71146e-08
2.13961e-06
-1.26634e-11
1.76446e-08
2.13103e-06
-1.53917e-11
1.81456e-08
2.12224e-06
-1.69757e-11
1.85681e-08
2.11328e-06
-1.63028e-11
1.88897e-08
2.10417e-06
-1.30009e-11
1.91199e-08
2.09493e-06
-7.011e-12
1.92838e-08
2.08557e-06
1.67638e-12
1.94076e-08
2.07609e-06
1.23164e-11
1.95158e-08
2.06648e-06
2.29133e-11
1.96423e-08
2.05671e-06
3.06134e-11
1.98404e-08
2.04675e-06
3.24734e-11
2.01616e-08
2.03661e-06
2.69192e-11
2.05931e-08
2.02633e-06
1.52151e-11
2.10125e-08
2.01595e-06
7.71133e-13
2.12657e-08
2.00547e-06
-1.27995e-11
2.13221e-08
1.99484e-06
-2.25635e-11
2.13368e-08
1.98401e-06
-2.69657e-11
2.1538e-08
1.97299e-06
-2.65367e-11
2.1983e-08
1.96181e-06
-2.28462e-11
2.24454e-08
1.95045e-06
-1.79158e-11
2.27282e-08
1.93891e-06
-1.4617e-11
2.29084e-08
1.92718e-06
-1.1386e-11
2.31047e-08
1.91526e-06
-5.34542e-12
2.33546e-08
1.90322e-06
5.31078e-12
2.37416e-08
1.89081e-06
5.84293e-12
2.39375e-08
1.878e-06
-2.50935e-11
2.40691e-08
1.8661e-06
-3.50804e-11
2.49714e-08
1.85418e-06
-2.77931e-11
2.54666e-08
1.84079e-06
-3.55684e-10
2.53139e-08
1.82543e-06
-3.12287e-10
2.5299e-08
1.81336e-06
2.40611e-10
2.66501e-08
1.80153e-06
3.25541e-10
2.70051e-08
1.78598e-06
-8.28477e-11
2.59714e-08
1.76364e-06
-2.06535e-09
2.56374e-08
1.7551e-06
-2.6583e-10
2.99483e-08
1.74727e-06
1.1044e-09
3.03649e-08
1.72584e-06
6.11456e-10
2.66367e-08
1.71312e-06
1.69465e-10
2.78473e-08
1.69841e-06
-1.83036e-11
2.81522e-08
1.68257e-06
-2.93547e-10
2.82366e-08
1.66624e-06
-1.51762e-09
2.83397e-08
1.64651e-06
-7.35371e-10
2.85185e-08
1.63566e-06
8.16608e-10
3.10984e-08
1.61651e-06
4.97964e-10
2.99541e-08
1.59802e-06
1.19521e-10
3.04268e-08
1.5823e-06
-1.99284e-11
3.19139e-08
1.56581e-06
-1.90035e-11
3.24466e-08
1.54738e-06
-4.62974e-12
3.26556e-08
1.53656e-06
-5.45369e-12
3.45346e-08
1.51872e-06
-4.07438e-12
3.1988e-08
1.49181e-06
3.36277e-11
3.00897e-08
1.47212e-06
2.20633e-10
3.3458e-08
1.46003e-06
1.127e-09
3.70888e-08
1.44202e-06
-2.42655e-10
3.60532e-08
1.41857e-06
-4.05284e-10
3.45598e-08
1.39884e-06
9.56973e-10
3.67009e-08
1.38078e-06
1.7753e-09
3.80866e-08
1.35772e-06
4.84033e-10
3.75378e-08
1.33577e-06
-6.19631e-10
3.81353e-08
1.31801e-06
-2.95992e-10
3.98835e-08
1.29597e-06
-6.07829e-10
3.89604e-08
1.2672e-06
-1.32373e-09
3.85716e-08
1.24104e-06
-5.06896e-10
4.20416e-08
1.22048e-06
5.3251e-10
4.65685e-08
1.19825e-06
6.06769e-10
4.80843e-08
1.17185e-06
-3.34667e-11
4.8172e-08
1.14511e-06
-1.92994e-10
4.97495e-08
1.11813e-06
-9.46769e-11
5.15582e-08
1.0903e-06
-3.72956e-11
5.32468e-08
1.06147e-06
1.71635e-12
5.51666e-08
1.03169e-06
2.13733e-11
5.74202e-08
1.00101e-06
2.43033e-11
5.98448e-08
9.69414e-07
1.6412e-11
6.22777e-08
9.36915e-07
5.99901e-12
6.46478e-08
9.03521e-07
-4.66849e-14
6.69438e-08
8.69225e-07
1.76498e-13
6.91713e-08
8.33993e-07
3.52282e-12
7.13358e-08
7.97784e-07
5.17092e-12
7.34482e-08
7.60566e-07
2.63786e-12
7.55328e-08
7.22334e-07
-2.2761e-12
7.76246e-08
6.83092e-07
-5.12185e-12
7.97567e-08
6.42824e-07
-3.19839e-12
8.19461e-08
6.01479e-07
1.66706e-12
8.41906e-08
5.58982e-07
5.0589e-12
8.6481e-08
5.15265e-07
4.09528e-12
8.88148e-08
4.70285e-07
-3.02869e-13
9.1198e-08
4.24028e-07
-4.33054e-12
9.36284e-08
3.76495e-07
-4.62141e-12
9.6069e-08
3.27711e-07
-1.41376e-12
9.8418e-08
2.77772e-07
1.52811e-12
1.00473e-07
2.26944e-07
4.24161e-13
1.01872e-07
1.75811e-07
-4.78251e-12
1.01961e-07
1.25426e-07
-9.77696e-12
9.96062e-08
7.71826e-08
-9.02245e-12
9.2706e-08
3.32112e-08
-9.00724e-13
7.86156e-08
-3.40501e-09
1.04029e-11
5.44244e-08
-2.77229e-08
1.90481e-11
1.71381e-08
-3.02894e-08
2.49707e-11
-3.31044e-08
3.68527e-11
-8.45466e-08
-2.21814e-08
6.43914e-08
-1.94942e-08
2.71813e-08
2.39374e-09
-1.72335e-08
3.8017e-08
-5.55631e-08
8.45961e-08
-8.60508e-08
1.39969e-07
-1.09326e-07
2.02199e-07
-1.2606e-07
2.69332e-07
-1.37306e-07
3.3954e-07
-1.44079e-07
4.11266e-07
-1.47245e-07
4.83249e-07
-1.47592e-07
5.54514e-07
-1.45826e-07
6.24362e-07
-1.42566e-07
6.92331e-07
-1.38329e-07
7.58144e-07
-1.33536e-07
8.21661e-07
-1.28509e-07
8.82844e-07
-1.23482e-07
9.41732e-07
-1.18606e-07
9.9841e-07
-1.13966e-07
1.05299e-06
-1.09597e-07
1.10559e-06
-1.055e-07
1.15631e-06
-1.01656e-07
1.20523e-06
-9.80345e-08
1.25245e-06
-9.45998e-08
1.29803e-06
-9.13104e-08
1.34206e-06
-8.81231e-08
1.38461e-06
-8.499e-08
1.42579e-06
-8.18582e-08
1.46579e-06
-7.86642e-08
1.50502e-06
-7.53523e-08
1.5441e-06
-7.19575e-08
1.58327e-06
-6.89935e-08
1.61642e-06
-6.84222e-08
1.64266e-06
-6.82304e-08
1.67884e-06
-6.35442e-08
1.71616e-06
-6.10484e-08
1.74311e-06
-6.23553e-08
1.76595e-06
-6.13325e-08
1.79687e-06
-5.56376e-08
1.83628e-06
-5.02025e-08
1.863e-06
-5.08552e-08
1.87998e-06
-5.15157e-08
1.90689e-06
-4.72228e-08
1.93219e-06
-4.4813e-08
1.95666e-06
-4.28297e-08
1.97782e-06
-4.18072e-08
1.99118e-06
-4.08495e-08
2.01174e-06
-3.56685e-08
2.03682e-06
-3.20287e-08
2.05238e-06
-3.21898e-08
2.06864e-06
-3.12529e-08
2.08634e-06
-3.04369e-08
2.09757e-06
-2.99926e-08
2.11028e-06
-2.78788e-08
2.12539e-06
-2.4093e-08
2.14017e-06
-2.13761e-08
2.15333e-06
-1.98535e-08
2.16579e-06
-1.85805e-08
2.17714e-06
-1.77584e-08
2.18479e-06
-1.75157e-08
2.18956e-06
-1.64029e-08
2.19721e-06
-1.37091e-08
2.20584e-06
-1.22301e-08
2.21345e-06
-1.15582e-08
2.2199e-06
-1.06569e-08
2.22555e-06
-9.37915e-09
2.23067e-06
-7.838e-09
2.23541e-06
-6.43525e-09
2.23971e-06
-5.52688e-09
2.24341e-06
-4.99189e-09
2.24643e-06
-4.36566e-09
2.24882e-06
-3.35227e-09
2.25072e-06
-2.06758e-09
2.25222e-06
-8.47493e-10
2.25336e-06
9.4681e-11
2.25409e-06
8.04544e-10
2.25436e-06
1.45184e-09
2.25418e-06
2.15967e-09
2.25355e-06
2.94979e-09
2.2525e-06
3.78001e-09
2.25107e-06
4.60595e-09
2.24925e-06
5.4143e-09
2.24703e-06
6.21316e-09
2.24443e-06
7.00605e-09
2.24144e-06
7.7821e-09
2.23807e-06
8.52659e-09
2.23433e-06
9.23394e-09
2.23021e-06
9.90966e-09
2.22572e-06
1.05632e-08
2.22087e-06
1.11993e-08
2.21569e-06
1.18156e-08
2.2102e-06
1.24072e-08
2.20441e-06
1.29736e-08
2.19834e-06
1.35202e-08
2.19198e-06
1.40543e-08
2.18533e-06
1.45799e-08
2.17841e-06
1.50947e-08
2.17122e-06
1.55949e-08
2.16374e-06
1.60867e-08
2.15598e-06
1.65902e-08
2.14792e-06
1.71223e-08
2.13959e-06
1.76696e-08
2.13102e-06
1.81845e-08
2.12224e-06
1.86143e-08
2.1133e-06
1.89319e-08
2.10421e-06
1.91433e-08
2.09499e-06
1.92756e-08
2.08564e-06
1.93624e-08
2.07617e-06
1.94406e-08
2.06654e-06
1.9557e-08
2.05674e-06
1.97705e-08
2.04673e-06
2.01269e-08
2.03656e-06
2.05989e-08
2.02626e-06
2.10525e-08
2.01589e-06
2.13303e-08
2.00543e-06
2.13947e-08
1.99483e-06
2.13828e-08
1.98401e-06
2.15312e-08
1.97298e-06
2.19672e-08
1.96178e-06
2.25262e-08
1.95046e-06
2.29976e-08
1.93912e-06
2.33238e-08
1.92772e-06
2.33128e-08
1.91599e-06
2.29021e-08
1.90365e-06
2.25359e-08
1.89053e-06
2.26682e-08
1.87689e-06
2.3557e-08
1.86347e-06
2.51637e-08
1.8496e-06
2.63464e-08
1.84012e-06
2.81918e-08
1.82978e-06
2.78462e-08
1.81622e-06
2.62919e-08
1.8007e-06
2.55529e-08
1.77699e-06
2.48016e-08
1.76812e-06
2.98693e-08
1.75833e-06
3.00796e-08
1.7444e-06
2.74469e-08
1.72384e-06
2.55392e-08
1.71218e-06
2.765e-08
1.69686e-06
2.8053e-08
1.6771e-06
2.8352e-08
1.66768e-06
3.13706e-08
1.64971e-06
2.97454e-08
1.63201e-06
2.94792e-08
1.61578e-06
3.04155e-08
1.59964e-06
3.12918e-08
1.58391e-06
3.20882e-08
1.56665e-06
3.19856e-08
1.54755e-06
3.21572e-08
1.53652e-06
3.43339e-08
1.51898e-06
3.20908e-08
1.49319e-06
3.03742e-08
1.47654e-06
3.35144e-08
1.45558e-06
3.45594e-08
1.44212e-06
3.7132e-08
1.42315e-06
3.5973e-08
1.40204e-06
3.45951e-08
1.37754e-06
3.44642e-08
1.35564e-06
3.65772e-08
1.33892e-06
3.97255e-08
1.31642e-06
3.97488e-08
1.29166e-06
4.02932e-08
1.27089e-06
4.27342e-08
1.24659e-06
4.32132e-08
1.2203e-06
4.40615e-08
1.19345e-06
4.59262e-08
1.16979e-06
4.93932e-08
1.1459e-06
5.12661e-08
1.1191e-06
5.17577e-08
1.09074e-06
5.29793e-08
1.06155e-06
5.49391e-08
1.03165e-06
5.73134e-08
1.00094e-06
5.98136e-08
9.69369e-07
6.22846e-08
9.36905e-07
6.46755e-08
9.03542e-07
6.69802e-08
8.69256e-07
6.92024e-08
8.34012e-07
7.13514e-08
7.9778e-07
7.34483e-08
7.60549e-07
7.55272e-08
7.22322e-07
7.76258e-08
6.83096e-07
7.97694e-08
6.42838e-07
8.19636e-08
6.01486e-07
8.42019e-08
5.58971e-07
8.64809e-08
5.15241e-07
8.88086e-08
4.70263e-07
9.11961e-08
4.24021e-07
9.36378e-08
3.76501e-07
9.60868e-08
3.27716e-07
9.84335e-08
2.77761e-07
1.00477e-07
2.26917e-07
1.01867e-07
1.75787e-07
1.01958e-07
1.25426e-07
9.96206e-08
7.72085e-08
9.27422e-08
3.32434e-08
7.86641e-08
-3.39369e-09
5.44679e-08
-2.77432e-08
1.7163e-08
-3.03263e-08
-3.31025e-08
-8.45728e-08
2.28034e-09
-8.0575e-12
6.22849e-08
2.65055e-08
-1.26787e-11
3.12909e-09
6.15996e-08
-1.30336e-11
-5.22757e-08
1.03996e-07
-1.09793e-11
-9.79188e-08
1.5297e-07
-8.9384e-12
-1.34994e-07
2.07722e-07
-7.44438e-12
-1.64063e-07
2.67338e-07
-6.7103e-12
-1.85674e-07
3.30676e-07
-6.37129e-12
-2.00652e-07
3.96528e-07
-5.63993e-12
-2.09938e-07
4.6377e-07
-4.29945e-12
-2.14493e-07
5.31432e-07
-3.00312e-12
-2.15261e-07
5.98726e-07
-2.46628e-12
-2.13133e-07
6.65059e-07
-2.841e-12
-2.08911e-07
7.30013e-07
-3.52004e-12
-2.03286e-07
7.93311e-07
-3.78428e-12
-1.96823e-07
8.54787e-07
-3.63307e-12
-1.89961e-07
9.14361e-07
-3.7329e-12
-1.8302e-07
9.72013e-07
-4.39027e-12
-1.76213e-07
1.02777e-06
-5.33978e-12
-1.69668e-07
1.08169e-06
-6.0964e-12
-1.63443e-07
1.13382e-06
-6.23465e-12
-1.57554e-07
1.18424e-06
-5.98374e-12
-1.51986e-07
1.233e-06
-5.81782e-12
-1.46709e-07
1.28017e-06
-5.92251e-12
-1.41683e-07
1.3258e-06
-6.20945e-12
-1.36866e-07
1.36997e-06
-6.50338e-12
-1.32216e-07
1.41273e-06
-6.8191e-12
-1.27692e-07
1.45418e-06
-7.6303e-12
-1.23257e-07
1.49444e-06
-8.53977e-12
-1.18879e-07
1.53366e-06
-9.84264e-12
-1.14544e-07
1.57201e-06
-1.2112e-11
-1.10303e-07
1.60941e-06
-1.78625e-11
-1.06403e-07
1.64447e-06
-3.39829e-11
-1.03469e-07
1.67739e-06
-7.84872e-11
-1.01078e-07
1.71157e-06
-1.86949e-10
-9.77156e-08
1.74408e-06
-3.14902e-10
-9.47466e-08
1.77395e-06
-5.19744e-11
-9.22015e-08
1.80346e-06
3.3096e-10
-8.90342e-08
1.83273e-06
2.58244e-10
-8.50156e-08
1.86314e-06
1.29354e-10
-8.08969e-08
1.89062e-06
5.44174e-11
-7.84175e-08
1.91497e-06
3.41639e-11
-7.58987e-08
1.93998e-06
8.41493e-11
-7.23215e-08
1.96399e-06
2.53454e-10
-6.89861e-08
1.9881e-06
5.61368e-10
-6.55446e-08
2.01049e-06
5.97296e-10
-6.25806e-08
2.03142e-06
3.74403e-10
-5.95055e-08
2.0517e-06
-1.39683e-10
-5.67653e-08
2.07148e-06
-5.36499e-10
-5.39337e-08
2.09034e-06
-4.53493e-10
-5.13046e-08
2.10824e-06
-8.99518e-11
-4.8638e-08
2.12536e-06
3.15599e-10
-4.61449e-08
2.14152e-06
3.85886e-10
-4.39743e-08
2.15577e-06
-1.66128e-10
-4.19182e-08
2.16924e-06
-5.3614e-10
-3.92573e-08
2.1835e-06
-2.60044e-10
-3.69625e-08
2.19566e-06
-3.52615e-11
-3.52151e-08
2.20699e-06
-1.19394e-12
-3.26832e-08
2.21845e-06
-1.37381e-10
-2.94535e-08
2.23007e-06
-2.57918e-10
-2.66068e-08
2.24116e-06
-2.34605e-10
-2.4478e-08
2.25102e-06
-1.24888e-10
-2.30641e-08
2.25942e-06
-2.22887e-11
-2.20361e-08
2.26694e-06
1.37095e-11
-2.04534e-08
2.27401e-06
1.4585e-11
-1.85571e-08
2.28075e-06
1.13813e-11
-1.64508e-08
2.28724e-06
5.45155e-12
-1.42932e-08
2.29338e-06
1.88959e-13
-1.24267e-08
2.29892e-06
-2.58904e-12
-1.0962e-08
2.30376e-06
-2.44475e-12
-9.69203e-09
2.30794e-06
-7.10946e-13
-8.39236e-09
2.31158e-06
5.0375e-13
-6.96395e-09
2.31478e-06
6.29871e-13
-5.43579e-09
2.31758e-06
7.03701e-13
-3.90312e-09
2.31999e-06
1.80617e-12
-2.45162e-09
2.32197e-06
3.95121e-12
-1.10628e-09
2.32351e-06
6.22662e-12
1.5869e-10
2.3246e-06
7.85844e-12
1.37416e-09
2.32525e-06
8.65104e-12
2.54847e-09
2.32546e-06
8.83087e-12
3.68062e-09
2.32523e-06
8.70527e-12
4.78959e-09
2.32457e-06
8.50113e-12
5.91496e-09
2.32351e-06
8.39531e-12
7.08352e-09
2.32206e-06
8.47787e-12
8.28505e-09
2.32025e-06
8.68666e-12
9.48361e-09
2.31807e-06
8.83404e-12
1.06462e-08
2.31553e-06
8.69632e-12
1.17599e-08
2.31261e-06
8.04906e-12
1.2829e-08
2.30931e-06
6.68911e-12
1.38629e-08
2.30564e-06
4.55401e-12
1.48669e-08
2.30161e-06
1.86012e-12
1.58414e-08
2.29725e-06
-9.73402e-13
1.67868e-08
2.29255e-06
-3.6024e-12
1.7705e-08
2.28753e-06
-5.91267e-12
1.8599e-08
2.2822e-06
-7.85862e-12
1.94696e-08
2.27656e-06
-9.24408e-12
2.03149e-08
2.27061e-06
-9.75332e-12
2.11314e-08
2.26436e-06
-9.15221e-12
2.19191e-08
2.2578e-06
-7.42008e-12
2.26871e-08
2.25095e-06
-4.78546e-12
2.34518e-08
2.24381e-06
-1.66461e-12
2.42231e-08
2.23642e-06
1.56591e-12
2.49871e-08
2.22879e-06
4.68624e-12
2.57071e-08
2.22096e-06
7.27554e-12
2.63457e-08
2.21292e-06
8.37691e-12
2.6884e-08
2.20468e-06
7.02954e-12
2.73272e-08
2.19625e-06
3.29335e-12
2.76976e-08
2.18763e-06
-1.44032e-12
2.80228e-08
2.17883e-06
-5.17918e-12
2.83288e-08
2.16984e-06
-6.53122e-12
2.86428e-08
2.16067e-06
-5.58273e-12
2.90015e-08
2.15133e-06
-3.40285e-12
2.94414e-08
2.14187e-06
-5.22596e-13
2.99577e-08
2.13232e-06
3.22946e-12
3.04711e-08
2.12269e-06
7.0355e-12
3.08791e-08
2.11288e-06
8.45413e-12
3.11605e-08
2.10281e-06
5.27488e-12
3.1417e-08
2.0925e-06
-2.05126e-12
3.1798e-08
2.08205e-06
-9.77579e-12
3.23467e-08
2.07151e-06
-1.34971e-11
3.29293e-08
2.06085e-06
-1.2361e-11
3.342e-08
2.05e-06
-1.02559e-11
3.38308e-08
2.03893e-06
-1.06344e-11
3.42124e-08
2.02763e-06
-1.38692e-11
3.45922e-08
2.01616e-06
-1.77924e-11
3.50854e-08
2.00444e-06
-2.24804e-11
3.55888e-08
1.99245e-06
-3.07285e-11
3.61265e-08
1.98049e-06
-1.74336e-11
3.70595e-08
1.96827e-06
5.83126e-11
3.76792e-08
1.95542e-06
1.0939e-10
3.79789e-08
1.9421e-06
9.72157e-11
3.83873e-08
1.92933e-06
1.47312e-11
3.93088e-08
1.91637e-06
-1.30759e-10
4.00741e-08
1.90229e-06
-2.59977e-10
4.03199e-08
1.88745e-06
-4.92325e-10
4.09465e-08
1.87523e-06
-8.40806e-11