/*--------------------------------*- C++ -*----------------------------------*\
  =========                 |
  \\      /  F ield         | OpenFOAM: The Open Source CFD Toolbox
   \\    /   O peration     | Website:  https://openfoam.org
    \\  /    A nd           | Version:  8
     \\/     M anipulation  |
\*---------------------------------------------------------------------------*/
FoamFile
{
    version     2.0;
    format      ascii;
    class       volVectorField;
    location    "100";
    object      U;
}
// * * * * * * * * * * * * * * * * * * * * * * * * * * * * * * * * * * * * * //

dimensions      [0 1 -1 0 0 0 0];

internalField   nonuniform List<vector> 
48000
(
(-0.00157966 2.851e-07 0.00184084)
(-0.00435837 1.16474e-06 0.00168246)
(-0.00550459 3.5876e-07 0.000509819)
(-0.00487159 3.51939e-08 -0.000796936)
(-0.00277648 -1.10633e-07 -0.00189083)
(0.000518565 -2.53047e-07 -0.00270996)
(0.00461186 -4.94169e-07 -0.00322535)
(0.00922731 -7.44455e-07 -0.00352399)
(0.0141917 -8.25109e-07 -0.00367851)
(0.0193333 -6.81821e-07 -0.00372457)
(0.0245304 -3.47544e-07 -0.00368959)
(0.0296903 6.24354e-10 -0.00359638)
(0.0347462 1.21163e-07 -0.00346386)
(0.0396544 -4.24336e-08 -0.00330733)
(0.04439 -3.15723e-07 -0.00313856)
(0.0489423 -4.91134e-07 -0.00296621)
(0.0533101 -5.31491e-07 -0.00279643)
(0.0574984 -5.6215e-07 -0.00263333)
(0.0615161 -7.29529e-07 -0.00247924)
(0.0653742 -1.02552e-06 -0.00233494)
(0.0690844 -1.28731e-06 -0.00220003)
(0.0726575 -1.3408e-06 -0.00207348)
(0.0761023 -1.22582e-06 -0.00195414)
(0.0794255 -1.10214e-06 -0.00184079)
(0.0826321 -1.07789e-06 -0.00173192)
(0.0857253 -1.16104e-06 -0.00162545)
(0.0887056 -1.37391e-06 -0.00151831)
(0.0915692 -1.62212e-06 -0.00140516)
(0.0943047 -1.8485e-06 -0.0012768)
(0.0968865 -1.99016e-06 -0.00112071)
(0.0992669 -1.90266e-06 -0.000942983)
(0.101412 -1.07311e-06 -0.000941106)
(0.103602 2.01809e-06 -0.00247879)
(0.106242 1.42514e-05 -0.00381115)
(0.108839 5.14647e-05 -0.000864482)
(0.110639 0.000114447 -0.00231981)
(0.112396 -2.41998e-05 -0.00427861)
(0.114646 -0.00015311 -0.00223492)
(0.116783 -5.11868e-05 -0.00143211)
(0.118324 -1.31056e-05 0.00179088)
(0.119867 1.26839e-06 -0.00139978)
(0.121647 7.56963e-06 -0.00427)
(0.123466 6.08983e-06 -0.00140518)
(0.124737 -1.23622e-05 -0.0010008)
(0.126162 -8.43651e-05 0.00180764)
(0.127652 -7.22447e-05 0.000135906)
(0.128994 -6.21541e-05 -0.00059715)
(0.130078 6.73751e-05 -0.000697706)
(0.131181 0.000103584 -0.00058249)
(0.132236 2.54002e-05 -0.000506176)
(0.133258 -4.52973e-05 -0.000454442)
(0.134137 -0.000125511 -0.000409167)
(0.135042 -0.000153298 -0.000783732)
(0.136012 -2.30951e-05 -0.00315098)
(0.136559 0.000156874 -0.00461047)
(0.136987 0.000174083 -0.00141662)
(0.137916 0.000148083 -0.00213147)
(0.139256 4.40851e-05 -0.0013897)
(0.139983 7.76361e-06 -0.000453618)
(0.140194 -9.04031e-07 0.000153236)
(0.140271 -8.51747e-06 0.000270257)
(0.14042 1.10135e-05 -4.99007e-05)
(0.140832 -1.15339e-06 -0.00052699)
(0.141375 -1.65422e-05 -0.000518834)
(0.141783 -1.54507e-05 -0.000329107)
(0.142089 -1.50854e-05 -0.000157334)
(0.142294 -1.44169e-05 -2.81177e-05)
(0.142395 -1.21294e-05 4.82189e-05)
(0.142452 -9.45567e-06 5.58626e-05)
(0.14252 -6.97783e-06 2.67392e-05)
(0.1426 -4.74678e-06 3.68262e-06)
(0.142672 -3.13213e-06 6.28371e-06)
(0.142712 -2.14874e-06 3.27702e-05)
(0.142704 -1.69014e-06 7.13643e-05)
(0.142648 -1.5263e-06 0.000109475)
(0.14255 -1.31618e-06 0.000139457)
(0.142421 -9.03023e-07 0.000160605)
(0.142265 -2.85088e-07 0.000176269)
(0.142086 3.887e-07 0.000189007)
(0.141887 9.57338e-07 0.000198884)
(0.141672 1.39643e-06 0.000205956)
(0.141442 1.77673e-06 0.00021294)
(0.141196 2.14401e-06 0.000223941)
(0.140927 2.48608e-06 0.000240971)
(0.140629 2.77655e-06 0.000262496)
(0.140301 2.99511e-06 0.000285047)
(0.139944 3.11489e-06 0.000305711)
(0.13956 3.0973e-06 0.000323388)
(0.139151 2.89151e-06 0.000338507)
(0.13872 2.45099e-06 0.000352002)
(0.138267 1.78704e-06 0.000364501)
(0.137795 1.01629e-06 0.000376206)
(0.137305 3.1884e-07 0.000387206)
(0.136799 -1.87467e-07 0.000397696)
(0.136279 -5.23188e-07 0.000407951)
(0.135743 -7.80114e-07 0.000418125)
(0.135192 -9.97386e-07 0.000428114)
(0.134626 -1.14469e-06 0.000437653)
(0.134045 -1.2244e-06 0.000446767)
(0.133449 -1.34236e-06 0.000456317)
(0.132836 -1.6526e-06 0.000467718)
(0.132201 -2.24356e-06 0.000481423)
(0.131545 -3.0397e-06 0.00049579)
(0.130869 -3.7745e-06 0.000507949)
(0.130179 -4.10663e-06 0.000515738)
(0.129481 -3.806e-06 0.000518736)
(0.128779 -2.77327e-06 0.00051792)
(0.128077 -9.18086e-07 0.000514773)
(0.127376 1.74927e-06 0.000510561)
(0.126677 4.82677e-06 0.000506413)
(0.125978 7.51116e-06 0.000504548)
(0.125273 8.98014e-06 0.000509147)
(0.124553 8.77007e-06 0.000523421)
(0.12381 6.93502e-06 0.000543369)
(0.123047 3.93689e-06 0.000557296)
(0.122277 3.53916e-07 0.000555374)
(0.121516 -3.21718e-06 0.000540265)
(0.120767 -5.93819e-06 0.000529065)
(0.120014 -7.07291e-06 0.000537147)
(0.11924 -6.51616e-06 0.00055478)
(0.118451 -5.35516e-06 0.000561218)
(0.117662 -4.59147e-06 0.000555931)
(0.116873 -4.90566e-06 0.000548652)
(0.116091 -4.54141e-06 0.000548549)
(0.115304 -2.43528e-06 0.000580579)
(0.114476 2.69288e-06 0.000574219)
(0.113716 1.49155e-05 0.000536528)
(0.112896 3.08456e-05 0.000778015)
(0.11192 4.39704e-05 0.000822207)
(0.111024 0.000108579 0.000538715)
(0.110404 7.23123e-05 0.000220728)
(0.109559 -7.81422e-05 0.00113374)
(0.10825 -8.56741e-05 0.00123007)
(0.107092 2.91306e-05 0.000533691)
(0.106704 0.000373682 -0.000377422)
(0.106029 0.000108462 0.00404555)
(0.105209 -0.000148409 0.00334789)
(0.103666 -0.00011788 -0.00140244)
(0.102553 -5.08774e-05 0.000447309)
(0.101587 -7.62966e-06 0.00049644)
(0.100745 2.33409e-05 0.000484148)
(0.0998714 0.000147607 0.000478097)
(0.0991216 4.23554e-05 0.000428961)
(0.098178 -0.000120265 0.00338027)
(0.0975868 -4.62846e-05 0.000927617)
(0.0968916 -3.03074e-06 0.000360439)
(0.0957929 1.27498e-05 0.000724508)
(0.0946019 9.01826e-06 0.000694479)
(0.09366 3.75845e-06 0.000552568)
(0.0923937 -1.12949e-06 0.00225346)
(0.0911884 -7.495e-06 -0.000261592)
(0.0900298 -2.46065e-05 -0.00308093)
(0.08931 -5.26672e-05 -6.4654e-05)
(0.0880874 -0.000156389 0.00348495)
(0.0871058 1.84271e-06 0.00187469)
(0.0861518 1.20565e-05 0.000145511)
(0.0849084 -0.000190042 0.00162096)
(0.0838826 -0.000181244 0.00242601)
(0.0829029 -6.45789e-05 0.000819734)
(0.0819297 2.51133e-05 0.000680723)
(0.0805353 -7.7538e-06 0.00152861)
(0.0791753 0.00010284 0.00019593)
(0.0780765 0.00027269 -0.00137482)
(0.0772599 0.000139546 0.000126253)
(0.0757607 -9.68595e-05 0.00249494)
(0.0740469 -0.000151345 0.00249928)
(0.0724307 1.26442e-05 0.0013704)
(0.0708957 8.82056e-05 0.00119294)
(0.0692223 6.75828e-05 0.00118254)
(0.0674859 4.75118e-05 0.00112048)
(0.0657135 3.19366e-05 0.00107558)
(0.0638671 2.03112e-05 0.00108473)
(0.061923 1.21838e-05 0.00112955)
(0.059873 6.4644e-06 0.00118726)
(0.0577183 2.44112e-06 0.001247)
(0.0554657 -1.49333e-08 0.00130641)
(0.053123 -8.52472e-07 0.00136622)
(0.0506958 -4.20401e-07 0.00142728)
(0.0481865 4.46468e-07 0.00148973)
(0.0455954 8.79968e-07 0.00155329)
(0.0429231 5.22615e-07 0.00161793)
(0.0401716 -2.44045e-07 0.0016842)
(0.0373432 -6.32643e-07 0.00175314)
(0.0344397 -1.97413e-07 0.00182548)
(0.03146 7.2141e-07 0.00190111)
(0.0284009 1.33596e-06 0.00197916)
(0.0252599 1.12325e-06 0.00205865)
(0.0220366 2.57687e-07 0.00213891)
(0.0187338 -5.2737e-07 0.0022194)
(0.0153571 -5.78291e-07 0.00229862)
(0.0119145 3.44165e-08 0.00237217)
(0.00842162 5.10364e-07 0.00242995)
(0.00490493 4.23956e-08 0.00245089)
(0.00146684 -1.35701e-06 0.00238791)
(-0.00187467 -2.51533e-06 0.00209565)
(-0.00462958 -2.03e-06 0.00147583)
(-0.00653804 -6.71275e-08 0.000470882)
(-0.00695853 2.20941e-06 -0.000870397)
(-0.00545472 3.85525e-06 -0.00216138)
(-0.00201833 4.85377e-06 -0.00251205)
(-0.00156758 2.85324e-07 0.00184939)
(-0.00434909 1.16578e-06 0.00169005)
(-0.00550414 3.59074e-07 0.000515031)
(-0.00487427 3.52267e-08 -0.000792993)
(-0.0027803 -1.10733e-07 -0.00188788)
(0.000513855 -2.53283e-07 -0.0027079)
(0.00460691 -4.94613e-07 -0.00322389)
(0.00922244 -7.45053e-07 -0.0035227)
(0.0141875 -8.25704e-07 -0.00367714)
(0.01933 -6.82263e-07 -0.003723)
(0.0245279 -3.47747e-07 -0.00368787)
(0.0296881 6.24684e-10 -0.00359468)
(0.0347438 1.21221e-07 -0.00346235)
(0.0396519 -4.24521e-08 -0.003306)
(0.0443877 -3.1585e-07 -0.00313726)
(0.0489404 -4.91314e-07 -0.00296483)
(0.0533086 -5.31669e-07 -0.00279504)
(0.0574969 -5.62322e-07 -0.00263208)
(0.0615144 -7.29735e-07 -0.00247817)
(0.0653725 -1.02578e-06 -0.00233394)
(0.069083 -1.28762e-06 -0.00219898)
(0.0726565 -1.34109e-06 -0.00207241)
(0.0761014 -1.22607e-06 -0.0019532)
(0.0794245 -1.10234e-06 -0.00184001)
(0.0826309 -1.07807e-06 -0.00173125)
(0.0857237 -1.16123e-06 -0.00162481)
(0.0887036 -1.3741e-06 -0.00151754)
(0.0915667 -1.62233e-06 -0.00140404)
(0.0943014 -1.84871e-06 -0.00127493)
(0.0968815 -1.99032e-06 -0.00111718)
(0.0992588 -1.90274e-06 -0.000935943)
(0.101398 -1.07322e-06 -0.000928532)
(0.103584 2.01872e-06 -0.00245851)
(0.106224 1.42483e-05 -0.00377935)
(0.108834 5.11812e-05 -0.000724607)
(0.110682 0.000102962 -0.000314852)
(0.112567 -1.71094e-05 -0.00361695)
(0.114743 -0.000130025 -0.00515622)
(0.116931 -5.08097e-05 -0.00166928)
(0.118282 -1.31103e-05 0.00181419)
(0.119809 1.27126e-06 -0.00139486)
(0.121623 7.57492e-06 -0.0042697)
(0.123489 6.08793e-06 -0.0014258)
(0.124764 -1.2359e-05 -0.000976146)
(0.126049 -9.88753e-05 -0.000893808)
(0.127393 -0.000118912 -0.00157363)
(0.129036 -0.000114342 -0.00287091)
(0.130375 0.000126303 0.00049491)
(0.131211 0.000167235 0.00302436)
(0.132357 2.88919e-05 0.000273189)
(0.133629 -4.59234e-05 -0.000747984)
(0.134455 -0.00013956 -0.00181524)
(0.135141 -0.000244565 -0.0044196)
(0.136071 -3.90475e-05 -0.00317418)
(0.137117 0.000186689 -0.00112959)
(0.13766 0.00017279 -0.000379332)
(0.138156 0.000149295 -0.000202585)
(0.138639 4.5087e-05 -9.983e-05)
(0.138946 7.9788e-06 -0.000126379)
(0.13944 -9.26024e-07 -0.000671263)
(0.140382 -8.6464e-06 -0.00112232)
(0.141101 1.11006e-05 -0.000382811)
(0.141306 -1.15785e-06 -7.13092e-05)
(0.141502 -1.65686e-05 -0.000121254)
(0.141771 -1.54577e-05 -0.000171449)
(0.142031 -1.50853e-05 -0.000149863)
(0.142237 -1.4415e-05 -7.88091e-05)
(0.142361 -1.21281e-05 -2.10508e-06)
(0.142431 -9.45547e-06 3.10475e-05)
(0.1425 -6.97806e-06 1.30087e-05)
(0.14259 -4.74693e-06 -1.40733e-05)
(0.142675 -3.13223e-06 -8.28608e-06)
(0.142715 -2.14893e-06 3.49333e-05)
(0.14269 -1.69033e-06 8.9507e-05)
(0.142612 -1.52659e-06 0.000128384)
(0.142505 -1.31649e-06 0.000144682)
(0.142383 -9.03217e-07 0.0001488)
(0.142248 -2.85128e-07 0.000153578)
(0.142092 3.8872e-07 0.000165019)
(0.141911 9.57316e-07 0.00018215)
(0.141704 1.39634e-06 0.000201334)
(0.141471 1.77664e-06 0.000220136)
(0.141214 2.14399e-06 0.000238317)
(0.140932 2.48619e-06 0.000256532)
(0.140624 2.77679e-06 0.000274872)
(0.14029 2.99544e-06 0.00029266)
(0.13993 3.11527e-06 0.000309161)
(0.139546 3.09767e-06 0.000324176)
(0.139138 2.89184e-06 0.000338028)
(0.138708 2.45126e-06 0.000351133)
(0.138255 1.78723e-06 0.00036362)
(0.137784 1.01639e-06 0.000375359)
(0.137295 3.18871e-07 0.000386244)
(0.136791 -1.87484e-07 0.000396391)
(0.136272 -5.23236e-07 0.000406124)
(0.135738 -7.80179e-07 0.000415804)
(0.135188 -9.97464e-07 0.000425556)
(0.134624 -1.14478e-06 0.000435184)
(0.134044 -1.22448e-06 0.000444592)
(0.133448 -1.34245e-06 0.000454454)
(0.132834 -1.65271e-06 0.000466042)
(0.132199 -2.24371e-06 0.000479763)
(0.131542 -3.03991e-06 0.000494064)
(0.130867 -3.77476e-06 0.000506227)
(0.130179 -4.1069e-06 0.000514158)
(0.129484 -3.80623e-06 0.000517398)
(0.128785 -2.77341e-06 0.00051691)
(0.128087 -9.18125e-07 0.000514189)
(0.12739 1.74933e-06 0.000510489)
(0.126693 4.82689e-06 0.000507041)
(0.125993 7.51132e-06 0.00050627)
(0.125284 8.98035e-06 0.000512143)
(0.124558 8.77036e-06 0.000526922)
(0.123809 6.93535e-06 0.000545791)
(0.123041 3.93711e-06 0.000557543)
(0.12227 3.53939e-07 0.000553556)
(0.121509 -3.21738e-06 0.000536377)
(0.120766 -5.93848e-06 0.000522325)
(0.120024 -7.07308e-06 0.000530035)
(0.119257 -6.51623e-06 0.000555783)
(0.11846 -5.35542e-06 0.000585323)
(0.117634 -4.59232e-06 0.000616621)
(0.116784 -4.90772e-06 0.000618163)
(0.115963 -4.54412e-06 0.00055413)
(0.115222 -2.43643e-06 0.000453131)
(0.11454 2.6927e-06 0.000377421)
(0.113904 1.4905e-05 0.000402504)
(0.11317 3.08172e-05 0.000614774)
(0.112459 4.39908e-05 0.000648027)
(0.111399 0.000109787 0.00177284)
(0.109891 7.5272e-05 0.00152479)
(0.108642 -8.20637e-05 0.000642162)
(0.107816 -8.74942e-05 0.000318256)
(0.107541 2.88849e-05 -0.000536982)
(0.106853 0.000306316 0.00471878)
(0.106123 7.28795e-05 0.00365673)
(0.105233 -0.000126891 0.000660455)
(0.10392 -0.000114757 -0.00222375)
(0.102747 -5.07148e-05 0.00032213)
(0.101701 -7.62353e-06 0.000433727)
(0.100965 2.33319e-05 0.000390992)
(0.100013 0.0001213 0.00388145)
(0.0994155 2.33411e-05 0.00133905)
(0.0987208 -6.99358e-05 0.000493718)
(0.097709 -4.02171e-05 0.000594886)
(0.096704 -3.00251e-06 0.000643508)
(0.0955901 1.27586e-05 0.000809384)
(0.0944686 9.02129e-06 0.000610396)
(0.093627 3.75528e-06 0.000442483)
(0.0924098 -1.12772e-06 0.00219931)
(0.091203 -7.47945e-06 -0.00024594)
(0.0899993 -2.45656e-05 -0.00300218)
(0.0890688 -5.271e-05 3.00674e-05)
(0.088091 -0.000184785 0.000383091)
(0.0868787 2.64319e-06 0.00325283)
(0.0859211 1.22969e-05 0.00155684)
(0.0848756 -0.000155166 -9.11617e-05)
(0.0836769 -0.000269471 -0.00139741)
(0.0825144 -0.000129748 0.000315611)
(0.0812703 4.39884e-05 0.00274072)
(0.0802748 -9.46794e-06 0.00132049)
(0.0791801 0.00011092 0.000708103)
(0.0778542 0.000283843 0.00200298)
(0.0766763 0.000138668 0.00128717)
(0.0754821 -9.38827e-05 0.000757705)
(0.0742744 -0.000148374 0.000813116)
(0.0726713 1.26385e-05 0.0019088)
(0.0707597 8.95307e-05 0.0020301)
(0.0689172 6.86548e-05 0.0014143)
(0.0672841 4.79683e-05 0.00113229)
(0.0656192 3.20802e-05 0.00106123)
(0.0638342 2.03441e-05 0.00108071)
(0.0619183 1.21878e-05 0.00113187)
(0.0598781 6.4636e-06 0.00119062)
(0.0577256 2.4406e-06 0.00124976)
(0.0554733 -1.49307e-08 0.00130872)
(0.0531305 -8.52374e-07 0.0013684)
(0.0507025 -4.20372e-07 0.00142917)
(0.0481912 4.46449e-07 0.0014909)
(0.0455976 8.79945e-07 0.00155352)
(0.0429232 5.22606e-07 0.00161752)
(0.040171 -2.44041e-07 0.00168389)
(0.0373436 -6.32636e-07 0.00175348)
(0.0344411 -1.97412e-07 0.00182636)
(0.0314614 7.21407e-07 0.00190192)
(0.0284011 1.33596e-06 0.00197935)
(0.0252586 1.12326e-06 0.00205822)
(0.0220347 2.5769e-07 0.00213843)
(0.0187326 -5.27384e-07 0.00221953)
(0.0153572 -5.78314e-07 0.00229952)
(0.011915 3.44183e-08 0.0023733)
(0.00842117 5.10399e-07 0.00243055)
(0.0049028 4.23992e-08 0.00245075)
(0.00146417 -1.35714e-06 0.00238774)
(-0.00187553 -2.51557e-06 0.00209684)
(-0.00462753 -2.03015e-06 0.00147892)
(-0.00653445 -6.71304e-08 0.000475034)
(-0.00695574 2.20953e-06 -0.000866616)
(-0.00545337 3.85545e-06 -0.00215872)
(-0.00201778 4.85399e-06 -0.00251068)
(-0.00114618 5.06976e-07 0.00477314)
(-0.00190586 4.66666e-08 0.00288213)
(-0.000851518 -7.54487e-07 -6.79966e-05)
(0.00117486 -8.88498e-07 -0.00278085)
(0.0040263 -9.04749e-07 -0.00491807)
(0.00755961 -9.23293e-07 -0.00651474)
(0.0116259 -9.53655e-07 -0.0076304)
(0.0160932 -9.60391e-07 -0.00836162)
(0.020831 -8.76923e-07 -0.00879317)
(0.0257212 -6.8672e-07 -0.00898879)
(0.0306677 -4.50397e-07 -0.0090038)
(0.0355941 -2.68284e-07 -0.00888594)
(0.0404434 -2.22641e-07 -0.00867606)
(0.0451759 -2.85124e-07 -0.00840803)
(0.0497668 -3.41526e-07 -0.00810872)
(0.0542026 -3.2606e-07 -0.00779835)
(0.0584781 -2.9491e-07 -0.00749126)
(0.0625938 -3.24164e-07 -0.0071967)
(0.0665542 -4.33862e-07 -0.0069197)
(0.0703662 -5.615e-07 -0.00666195)
(0.0740379 -6.28646e-07 -0.00642288)
(0.077577 -6.21833e-07 -0.00620062)
(0.0809902 -6.11609e-07 -0.00599269)
(0.0842838 -6.2228e-07 -0.00579633)
(0.0874631 -6.66342e-07 -0.00560846)
(0.0905332 -7.45768e-07 -0.00542563)
(0.0934991 -8.82524e-07 -0.00524354)
(0.0963668 -1.06107e-06 -0.00505593)
(0.0991459 -1.24871e-06 -0.00485303)
(0.101856 -1.40947e-06 -0.00461961)
(0.104538 -1.54496e-06 -0.00433765)
(0.10725 -1.69667e-06 -0.0040149)
(0.109752 -2.34275e-06 -0.0037827)
(0.111741 -6.80241e-06 -0.00370578)
(0.113828 -2.84704e-05 -0.00363748)
(0.116267 -8.4411e-05 -0.00356099)
(0.118546 7.86419e-07 -0.00348045)
(0.120492 0.000118082 -0.00332523)
(0.122355 4.32943e-05 -0.00311364)
(0.124619 8.97576e-06 -0.00284539)
(0.126654 -5.00451e-07 -0.00265253)
(0.128229 -2.81785e-06 -0.00257264)
(0.129826 6.42336e-07 -0.00246673)
(0.131601 1.69839e-05 -0.00238669)
(0.133275 9.38461e-05 -0.0022372)
(0.134679 8.96941e-05 -0.0020574)
(0.136012 0.000110488 -0.00197846)
(0.137428 -4.93013e-05 -0.00194368)
(0.138752 -0.000112679 -0.0018995)
(0.140006 -3.16249e-05 -0.00181773)
(0.141192 1.6352e-05 -0.0017024)
(0.142359 6.58924e-05 -0.00154939)
(0.143421 0.000102992 -0.00139419)
(0.144358 -2.67478e-06 -0.00128048)
(0.145481 -0.000149651 -0.00108973)
(0.146622 -0.000123616 -0.000937409)
(0.147293 -0.00012865 -0.000973377)
(0.147634 -7.04287e-05 -0.00100003)
(0.148298 -3.39846e-05 -0.000868886)
(0.149188 8.78492e-06 -0.000686063)
(0.150041 5.02984e-05 -0.000592996)
(0.150739 2.97211e-05 -0.000622461)
(0.151203 1.09815e-05 -0.000693639)
(0.151546 4.67227e-06 -0.000681012)
(0.151945 -1.58594e-06 -0.000593113)
(0.152352 -3.33999e-06 -0.000477894)
(0.152736 -3.09929e-06 -0.000351911)
(0.153095 -2.60549e-06 -0.000257881)
(0.153418 -2.32538e-06 -0.000220728)
(0.153695 -1.88005e-06 -0.000210137)
(0.153925 -1.19498e-06 -0.000188513)
(0.154113 -6.95189e-07 -0.000141019)
(0.154263 -6.13331e-07 -7.24176e-05)
(0.15438 -7.18584e-07 3.06321e-06)
(0.154466 -6.79375e-07 7.21388e-05)
(0.154525 -3.68402e-07 0.000129424)
(0.154554 1.14777e-07 0.0001776)
(0.154555 5.79517e-07 0.000221369)
(0.154527 8.89108e-07 0.000262326)
(0.154471 1.01993e-06 0.000299572)
(0.154388 1.03309e-06 0.000334078)
(0.154278 1.00929e-06 0.000370434)
(0.154141 1.01138e-06 0.000413174)
(0.153975 1.06948e-06 0.000462602)
(0.153781 1.17539e-06 0.000514888)
(0.153562 1.28776e-06 0.000565416)
(0.153317 1.35461e-06 0.00061164)
(0.153046 1.33576e-06 0.000653584)
(0.152751 1.21094e-06 0.000692623)
(0.152432 9.83898e-07 0.000729977)
(0.152088 6.90033e-07 0.00076601)
(0.151722 3.9006e-07 0.000800555)
(0.151335 1.35223e-07 0.000833566)
(0.150928 -6.48553e-08 0.000865369)
(0.1505 -2.32993e-07 0.000896399)
(0.150053 -3.84906e-07 0.000926739)
(0.149587 -5.13723e-07 0.000955983)
(0.149101 -6.14938e-07 0.000983745)
(0.148598 -7.07961e-07 0.0010106)
(0.148075 -8.28082e-07 0.0010385)
(0.147532 -1.00903e-06 0.00106935)
(0.14697 -1.25821e-06 0.0011026)
(0.146389 -1.51688e-06 0.00113462)
(0.145794 -1.66223e-06 0.00116112)
(0.145185 -1.58655e-06 0.00117991)
(0.144566 -1.25413e-06 0.0011915)
(0.143937 -6.59744e-07 0.00119788)
(0.143299 1.96703e-07 0.00120117)
(0.142653 1.24179e-06 0.00120317)
(0.141999 2.28053e-06 0.00120629)
(0.141335 3.03404e-06 0.0012148)
(0.140659 3.21645e-06 0.00123397)
(0.13997 2.68018e-06 0.0012644)
(0.13927 1.55315e-06 0.00129622)
(0.138562 1.60779e-07 0.00131422)
(0.137848 -1.1554e-06 0.00131244)
(0.137126 -2.10685e-06 0.00130266)
(0.136392 -2.52919e-06 0.00130718)
(0.135643 -2.49325e-06 0.00133507)
(0.134881 -2.22621e-06 0.00136729)
(0.134109 -1.99271e-06 0.00138326)
(0.133324 -2.12675e-06 0.00138749)
(0.132528 -2.14174e-06 0.00138887)
(0.131715 -1.49644e-06 0.00139356)
(0.130895 4.44408e-07 0.00140797)
(0.130071 1.18496e-06 0.0014001)
(0.129181 -2.68763e-06 0.00138954)
(0.128321 -4.01158e-06 0.00143004)
(0.12754 -1.33494e-05 0.00143755)
(0.126676 -8.89263e-05 0.00136407)
(0.125627 -7.60341e-05 0.00128545)
(0.124685 4.99965e-05 0.00128097)
(0.123957 8.22278e-05 0.00136112)
(0.123113 2.68904e-05 0.00149052)
(0.121814 -0.00021738 0.00154547)
(0.120596 -3.23329e-05 0.00155694)
(0.119719 0.000106973 0.00146974)
(0.119077 5.93299e-05 0.00137484)
(0.118007 1.66993e-05 0.00144962)
(0.11698 3.71425e-07 0.0015414)
(0.115896 -1.64667e-05 0.00162827)
(0.114813 -0.000118876 0.00169513)
(0.113631 -4.11568e-05 0.00174406)
(0.112619 5.55927e-05 0.00181683)
(0.111435 -2.59119e-06 0.00182379)
(0.110076 -4.6075e-06 0.00185353)
(0.109028 -6.49279e-06 0.00191051)
(0.107994 -2.78148e-06 0.00186531)
(0.106725 -5.44309e-07 0.00175093)
(0.10565 -4.28922e-07 0.00170285)
(0.104682 -5.27214e-07 0.0016211)
(0.103377 2.62651e-06 0.00165492)
(0.101746 1.92606e-05 0.00177767)
(0.100583 0.000111049 0.00187283)
(0.0993908 -2.50332e-05 0.00184705)
(0.0979831 -5.18357e-06 0.00179763)
(0.0966885 9.67439e-05 0.00190118)
(0.095312 0.00011731 0.002014)
(0.0938339 3.21897e-05 0.00203573)
(0.0922784 -3.76538e-05 0.00205743)
(0.090942 1.59722e-05 0.00211956)
(0.0896653 -5.496e-05 0.00213415)
(0.087942 -0.000161979 0.00219051)
(0.0859439 -5.30569e-05 0.00229431)
(0.0843672 8.33016e-05 0.00238261)
(0.0829521 8.57359e-05 0.00242608)
(0.081286 -1.88815e-05 0.00250298)
(0.0794345 -4.06417e-05 0.0026924)
(0.0775979 -1.67418e-05 0.00288302)
(0.0757182 -5.05322e-06 0.00303837)
(0.0737708 5.78371e-07 0.00319673)
(0.0717593 2.65537e-06 0.00337627)
(0.0696854 2.6991e-06 0.00356405)
(0.0675503 1.67771e-06 0.00374604)
(0.0653532 5.01028e-07 0.00391642)
(0.0630942 -1.56447e-07 0.00407501)
(0.0607731 -1.43787e-07 0.00422366)
(0.0583887 2.01542e-07 0.00436434)
(0.0559389 3.95634e-07 0.00449872)
(0.0534218 1.89886e-07 0.00462861)
(0.050836 -2.50558e-07 0.00475604)
(0.0481809 -5.04092e-07 0.00488315)
(0.0454556 -3.10684e-07 0.00501153)
(0.0426579 1.60923e-07 0.0051419)
(0.039784 4.94266e-07 0.00527423)
(0.0368294 4.14809e-07 0.00540828)
(0.0337904 6.28949e-09 0.0055439)
(0.0306643 -3.72866e-07 0.00568062)
(0.0274501 -4.01533e-07 0.00581646)
(0.024148 -9.7714e-08 0.00594605)
(0.0207612 1.84981e-07 0.00605789)
(0.0173015 8.83326e-08 0.00612972)
(0.0137941 -3.94933e-07 0.00611827)
(0.0102976 -8.57432e-07 0.005946)
(0.00688179 -7.759e-07 0.00544655)
(0.0036751 3.24369e-09 0.00441599)
(0.000847302 1.08796e-06 0.00263573)
(-0.00132998 1.93347e-06 -0.000109401)
(-0.00252928 2.58029e-06 -0.00352961)
(-0.00145967 4.01096e-06 -0.00632348)
(-0.00113819 5.07284e-07 0.00477948)
(-0.00190337 4.67218e-08 0.00288717)
(-0.000853109 -7.55366e-07 -6.51268e-05)
(0.00117291 -8.89385e-07 -0.00277941)
(0.00402424 -9.0551e-07 -0.00491732)
(0.00755749 -9.23973e-07 -0.00651441)
(0.0116239 -9.54283e-07 -0.00763033)
(0.0160915 -9.60964e-07 -0.00836163)
(0.0208298 -8.77401e-07 -0.00879314)
(0.0257205 -6.87064e-07 -0.00898864)
(0.0306674 -4.50606e-07 -0.0090036)
(0.0355939 -2.68398e-07 -0.0088858)
(0.0404431 -2.22729e-07 -0.00867607)
(0.0451757 -2.85229e-07 -0.00840814)
(0.0497668 -3.41643e-07 -0.00810882)
(0.0542028 -3.26163e-07 -0.0077984)
(0.0584783 -2.94997e-07 -0.00749134)
(0.0625939 -3.24252e-07 -0.00719689)
(0.0665541 -4.33972e-07 -0.00691997)
(0.0703662 -5.61632e-07 -0.00666219)
(0.074038 -6.28782e-07 -0.006423)
(0.0775771 -6.21958e-07 -0.00620065)
(0.0809902 -6.11722e-07 -0.00599271)
(0.0842836 -6.22386e-07 -0.00579637)
(0.0874628 -6.66446e-07 -0.00560848)
(0.0905328 -7.45873e-07 -0.00542555)
(0.0934986 -8.82636e-07 -0.00524318)
(0.0963661 -1.06118e-06 -0.00505515)
(0.0991451 -1.24881e-06 -0.00485157)
(0.101855 -1.40953e-06 -0.00461695)
(0.104538 -1.54497e-06 -0.00433282)
(0.107252 -1.69683e-06 -0.00400675)
(0.109757 -2.34364e-06 -0.00377078)
(0.111746 -6.80008e-06 -0.0036953)
(0.113818 -2.82895e-05 -0.00364598)
(0.116308 -8.10977e-05 -0.00355296)
(0.118498 6.85321e-07 -0.003476)
(0.12037 0.000112085 -0.00333058)
(0.122266 4.27177e-05 -0.00309166)
(0.124644 8.95608e-06 -0.00285221)
(0.126699 -5.00797e-07 -0.00267739)
(0.128259 -2.81803e-06 -0.00260172)
(0.129838 6.42802e-07 -0.00250071)
(0.131647 1.70526e-05 -0.00242702)
(0.133325 9.65697e-05 -0.00230242)
(0.134869 0.000102101 -0.00216076)
(0.136067 0.000128259 -0.00206731)
(0.137364 -5.75798e-05 -0.00195771)
(0.138958 -0.000129911 -0.00186791)
(0.140099 -3.29897e-05 -0.00175475)
(0.14104 1.65079e-05 -0.00165234)
(0.142268 6.71931e-05 -0.0015309)
(0.1435 0.000115341 -0.00136396)
(0.144416 -2.99192e-06 -0.00127889)
(0.145226 -0.00015291 -0.00119519)
(0.146265 -0.00012363 -0.00107563)
(0.147201 -0.000129573 -0.000981105)
(0.148053 -7.16224e-05 -0.000902476)
(0.148949 -3.47322e-05 -0.000835479)
(0.149626 8.97514e-06 -0.000764984)
(0.149922 5.11451e-05 -0.000650485)
(0.150288 3.00491e-05 -0.000531132)
(0.150922 1.10446e-05 -0.000510357)
(0.151507 4.68205e-06 -0.000542527)
(0.151986 -1.58646e-06 -0.000530361)
(0.152398 -3.33918e-06 -0.00046582)
(0.152764 -3.09839e-06 -0.000369316)
(0.153103 -2.60506e-06 -0.000279476)
(0.153415 -2.3253e-06 -0.000234181)
(0.153692 -1.88014e-06 -0.000224426)
(0.153921 -1.19509e-06 -0.000205307)
(0.154104 -6.95287e-07 -0.000146678)
(0.154248 -6.13449e-07 -5.88625e-05)
(0.154363 -7.18728e-07 2.56009e-05)
(0.154454 -6.79493e-07 8.49759e-05)
(0.154519 -3.68457e-07 0.000122261)
(0.154555 1.14791e-07 0.000153377)
(0.154558 5.79578e-07 0.000190405)
(0.15453 8.89202e-07 0.000235744)
(0.154473 1.02005e-06 0.000285461)
(0.154388 1.03323e-06 0.000335194)
(0.154276 1.00945e-06 0.000383525)
(0.154137 1.01155e-06 0.000431297)
(0.153971 1.06967e-06 0.000479122)
(0.153778 1.17559e-06 0.000526214)
(0.153559 1.28797e-06 0.000571196)
(0.153314 1.35482e-06 0.000613381)
(0.153043 1.33596e-06 0.000653139)
(0.152748 1.21111e-06 0.000691327)
(0.152428 9.84042e-07 0.000728459)
(0.152084 6.90133e-07 0.000764377)
(0.151718 3.90117e-07 0.000798652)
(0.151332 1.35242e-07 0.000831168)
(0.150925 -6.48645e-08 0.000862321)
(0.150498 -2.33026e-07 0.000892726)
(0.150051 -3.84961e-07 0.00092273)
(0.149585 -5.13795e-07 0.000952139)
(0.1491 -6.15025e-07 0.00098057)
(0.148596 -7.08061e-07 0.0010084)
(0.148073 -8.28199e-07 0.00103728)
(0.14753 -1.00917e-06 0.00106894)
(0.146968 -1.25839e-06 0.00110275)
(0.146388 -1.51709e-06 0.00113507)
(0.145793 -1.66246e-06 0.00116162)
(0.145186 -1.58676e-06 0.00118009)
(0.144568 -1.2543e-06 0.00119091)
(0.14394 -6.59833e-07 0.00119616)
(0.143303 1.96729e-07 0.00119829)
(0.142658 1.24196e-06 0.00119965)
(0.142003 2.28084e-06 0.00120323)
(0.141338 3.03446e-06 0.00121359)
(0.140659 3.21691e-06 0.00123541)
(0.139968 2.68058e-06 0.00126792)
(0.139266 1.55338e-06 0.00130028)
(0.138558 1.60802e-07 0.00131762)
(0.137845 -1.15556e-06 0.00131443)
(0.137125 -2.10714e-06 0.00130164)
(0.136392 -2.52954e-06 0.00130204)
(0.135642 -2.49361e-06 0.00133033)
(0.134879 -2.22658e-06 0.00137277)
(0.134105 -1.99308e-06 0.00140928)
(0.133328 -2.12712e-06 0.00143259)
(0.132552 -2.14196e-06 0.00142114)
(0.131765 -1.49642e-06 0.00136543)
(0.130945 4.44358e-07 0.00130559)
(0.130079 1.18479e-06 0.00128562)
(0.129144 -2.68725e-06 0.0013353)
(0.128196 -4.01253e-06 0.00142298)
(0.127205 -1.33849e-05 0.00143629)
(0.126414 -8.99289e-05 0.00138804)
(0.125845 -7.83026e-05 0.0013061)
(0.125059 5.1853e-05 0.00130941)
(0.124064 8.39239e-05 0.00141816)
(0.12279 2.68601e-05 0.00148361)
(0.121638 -0.000213327 0.00157735)
(0.120676 -2.95881e-05 0.0015314)
(0.11976 0.000103835 0.00140199)
(0.118961 5.87864e-05 0.00137667)
(0.117934 1.66559e-05 0.00145628)
(0.116933 3.71265e-07 0.0015358)
(0.115729 -1.64297e-05 0.00162957)
(0.114758 -0.000115643 0.00178719)
(0.113648 -3.55955e-05 0.0018061)
(0.112381 4.7499e-05 0.00179384)
(0.111331 -2.47194e-06 0.00184972)
(0.110232 -4.55958e-06 0.00188033)
(0.109168 -6.47803e-06 0.00187717)
(0.108081 -2.77828e-06 0.00179706)
(0.106753 -5.43592e-07 0.00169747)
(0.105648 -4.28154e-07 0.00168881)
(0.104681 -5.2601e-07 0.00164034)
(0.103416 2.62292e-06 0.00169996)
(0.101925 1.93102e-05 0.00183593)
(0.100582 0.000113923 0.00185936)
(0.0993675 -2.78425e-05 0.0019018)
(0.0980953 -5.27807e-06 0.00188347)
(0.0967135 9.0958e-05 0.00185017)
(0.0953553 0.000135672 0.00188471)
(0.0938211 4.03648e-05 0.00197034)
(0.0924395 -4.719e-05 0.00210479)
(0.0909917 1.80459e-05 0.00216364)
(0.0893524 -5.94521e-05 0.00221952)
(0.0878719 -0.000167608 0.00232317)
(0.0863229 -5.23258e-05 0.00233984)
(0.0845678 8.11513e-05 0.00234431)
(0.0827207 8.58847e-05 0.00240258)
(0.0809799 -1.93234e-05 0.00255414)
(0.0794222 -4.16515e-05 0.00269407)
(0.0777017 -1.70158e-05 0.00280947)
(0.0757695 -5.09632e-06 0.00296628)
(0.0737838 5.80534e-07 0.00315895)
(0.0717574 2.65899e-06 0.0033646)
(0.0696809 2.70009e-06 0.00356431)
(0.067547 1.67774e-06 0.00374995)
(0.065352 5.00996e-07 0.00392078)
(0.0630949 -1.56438e-07 0.00407892)
(0.0607748 -1.43781e-07 0.00422678)
(0.0583903 2.01537e-07 0.00436638)
(0.0559396 3.9563e-07 0.00449963)
(0.0534215 1.89885e-07 0.00462872)
(0.0508353 -2.50557e-07 0.00475599)
(0.0481806 -5.04092e-07 0.00488348)
(0.0454559 -3.10686e-07 0.0050123)
(0.0426583 1.60925e-07 0.00514272)
(0.0397838 4.94273e-07 0.00527465)
(0.0368285 4.14816e-07 0.00540824)
(0.0337891 6.28964e-09 0.00554376)
(0.0306635 -3.72878e-07 0.00568086)
(0.0274499 -4.01548e-07 0.00581723)
(0.0241481 -9.77185e-08 0.00594706)
(0.020761 1.84991e-07 0.00605862)
(0.0173005 8.83381e-08 0.00612997)
(0.0137928 -3.9496e-07 0.0061184)
(0.0102968 -8.57496e-07 0.00594675)
(0.00688216 -7.75957e-07 0.00544852)
(0.00367623 3.24389e-09 0.00441909)
(0.000848087 1.08798e-06 0.00263917)
(-0.00133025 1.9334e-06 -0.000106527)
(-0.00253057 2.58017e-06 -0.00352779)
(-0.00146054 4.01078e-06 -0.00632299)
(-0.000211568 -1.67144e-06 0.00556333)
(0.000709778 -1.32494e-06 0.00153818)
(0.00288194 -1.34463e-06 -0.00256998)
(0.00554526 -1.11189e-06 -0.00597375)
(0.00869556 -8.84192e-07 -0.00871148)
(0.0122686 -7.22769e-07 -0.0108342)
(0.0162091 -6.44994e-07 -0.0123922)
(0.0204464 -6.11271e-07 -0.0134586)
(0.024897 -5.39686e-07 -0.0141116)
(0.0294789 -4.07012e-07 -0.0144256)
(0.03412 -2.78119e-07 -0.0144712)
(0.0387597 -2.26092e-07 -0.0143134)
(0.0433509 -2.6775e-07 -0.0140099)
(0.047859 -3.4221e-07 -0.0136098)
(0.0522607 -3.75198e-07 -0.0131534)
(0.0565412 -3.64657e-07 -0.0126714)
(0.0606925 -3.78059e-07 -0.0121863)
(0.0647117 -4.48399e-07 -0.0117129)
(0.0685992 -5.47333e-07 -0.0112599)
(0.0723581 -6.22052e-07 -0.0108312)
(0.0759925 -6.30892e-07 -0.0104274)
(0.0795067 -6.01518e-07 -0.0100471)
(0.0829051 -5.82651e-07 -0.00968773)
(0.086192 -5.90294e-07 -0.00934616)
(0.0893718 -6.15899e-07 -0.00901901)