/*--------------------------------*- C++ -*----------------------------------*\
  =========                 |
  \\      /  F ield         | OpenFOAM: The Open Source CFD Toolbox
   \\    /   O peration     | Website:  https://openfoam.org
    \\  /    A nd           | Version:  8
     \\/     M anipulation  |
\*---------------------------------------------------------------------------*/
FoamFile
{
    version     2.0;
    format      ascii;
    class       volScalarField;
    location    "4600";
    object      alphat;
}
// * * * * * * * * * * * * * * * * * * * * * * * * * * * * * * * * * * * * * //

dimensions      [1 -1 -1 0 0 0 0];

internalField   nonuniform List<scalar> 
46000
(
2.56901e-06
9.28295e-06
1.61713e-05
2.25013e-05
2.84601e-05
3.42122e-05
3.98258e-05
4.53221e-05
5.07316e-05
5.60774e-05
6.13778e-05
6.66426e-05
7.18453e-05
7.70062e-05
8.21307e-05
8.72198e-05
9.22727e-05
9.72873e-05
0.000102261
0.00010719
0.00011207
0.000116898
0.000121668
0.000126376
0.000131015
0.000135582
0.00014007
0.000144473
0.000148788
0.000153007
0.000157125
0.000161137
0.000165037
0.00016882
0.000172479
0.00017601
0.000179405
0.000182659
0.000185763
0.000188708
0.000191482
0.000194066
0.000196431
0.000198536
0.000200325
0.000201739
0.000202746
0.000203353
0.000203486
0.000202553
0.000199216
0.000193385
0.0001928
0.000188803
0.000186302
0.000185675
0.000185755
0.000186229
0.000187332
0.000189811
0.00019463
0.000199845
0.000200577
0.000204903
0.000206739
0.000207173
0.00020682
0.000205476
0.000202062
0.000195605
0.00019111
0.000197787
0.000201628
0.000202461
0.000201682
0.000200262
0.000198567
0.00019672
0.000194765
0.000192723
0.000190605
0.000188422
0.000186181
0.000183889
0.00018155
0.000179172
0.000176758
0.000174313
0.000171842
0.000169349
0.000166838
0.000164312
0.000161775
0.00015923
0.000156682
0.000154132
0.000151583
0.00014904
0.000146503
0.000143976
0.000141461
0.000138961
0.000136477
0.000134011
0.000131565
0.000129141
0.00012674
0.000124364
0.000122014
0.000119691
0.000117396
0.00011513
0.000112894
0.000110688
0.000108513
0.00010637
0.000104258
0.000102179
0.000100131
9.81164e-05
9.61337e-05
9.41834e-05
9.22651e-05
9.03788e-05
8.85242e-05
8.67009e-05
8.49086e-05
8.31468e-05
8.14152e-05
7.97131e-05
7.80402e-05
7.63957e-05
7.47791e-05
7.31898e-05
7.16271e-05
7.00905e-05
6.85792e-05
6.70926e-05
6.563e-05
6.41907e-05
6.2774e-05
6.13793e-05
6.0006e-05
5.86532e-05
5.73204e-05
5.6007e-05
5.47123e-05
5.34356e-05
5.21765e-05
5.09342e-05
4.97083e-05
4.84982e-05
4.73033e-05
4.61231e-05
4.49573e-05
4.38052e-05
4.26664e-05
4.15405e-05
4.0427e-05
3.93257e-05
3.8236e-05
3.71576e-05
3.60901e-05
3.50333e-05
3.39867e-05
3.29501e-05
3.19231e-05
3.09054e-05
2.98967e-05
2.88971e-05
2.79063e-05
2.69235e-05
2.59483e-05
2.49804e-05
2.40195e-05
2.30651e-05
2.21169e-05
2.11745e-05
2.02373e-05
1.93051e-05
1.83779e-05
1.74548e-05
1.6535e-05
1.56178e-05
1.47023e-05
1.37878e-05
1.2873e-05
1.19569e-05
1.1038e-05
1.01147e-05
9.18488e-06
8.24618e-06
7.29552e-06
6.32903e-06
5.34163e-06
4.32652e-06
3.27371e-06
2.17731e-06
1.06031e-06
2.11301e-07
2.56544e-06
9.27623e-06
1.61658e-05
2.24991e-05
2.84598e-05
3.42124e-05
3.9826e-05
4.53223e-05
5.07317e-05
5.60775e-05
6.13778e-05
6.66427e-05
7.18453e-05
7.70062e-05
8.21307e-05
8.72198e-05
9.22726e-05
9.72872e-05
0.000102261
0.00010719
0.00011207
0.000116898
0.000121668
0.000126375
0.000131015
0.000135582
0.000140069
0.000144473
0.000148787
0.000153006
0.000157125
0.000161137
0.000165037
0.00016882
0.000172479
0.00017601
0.000179405
0.000182659
0.000185763
0.000188708
0.000191482
0.000194066
0.000196431
0.000198536
0.000200323
0.000201736
0.000202743
0.000203352
0.000203492
0.000202564
0.00019922
0.000193366
0.00019276
0.000188739
0.000186218
0.000185582
0.000185656
0.000186126
0.000187225
0.000189704
0.000194533
0.000199777
0.000200539
0.000204879
0.000206725
0.000207171
0.00020683
0.000205501
0.000202116
0.00019571
0.000191094
0.00019769
0.000201587
0.000202446
0.000201675
0.000200259
0.000198566
0.000196719
0.000194764
0.000192722
0.000190605
0.000188422
0.000186181
0.000183888
0.00018155
0.000179171
0.000176757
0.000174313
0.000171842
0.000169349
0.000166838
0.000164312
0.000161775
0.00015923
0.000156681
0.000154131
0.000151583
0.000149039
0.000146503
0.000143976
0.000141461
0.00013896
0.000136476
0.00013401
0.000131565
0.000129141
0.00012674
0.000124364
0.000122014
0.000119691
0.000117396
0.00011513
0.000112894
0.000110688
0.000108513
0.00010637
0.000104258
0.000102178
0.000100131
9.81162e-05
9.61335e-05
9.41832e-05
9.22649e-05
9.03786e-05
8.8524e-05
8.67007e-05
8.49084e-05
8.31467e-05
8.1415e-05
7.9713e-05
7.804e-05
7.63955e-05
7.47789e-05
7.31896e-05
7.1627e-05
7.00903e-05
6.85791e-05
6.70924e-05
6.56298e-05
6.41905e-05
6.27739e-05
6.13792e-05
6.00058e-05
5.86531e-05
5.73203e-05
5.60069e-05
5.47121e-05
5.34355e-05
5.21763e-05
5.09341e-05
4.97082e-05
4.8498e-05
4.73032e-05
4.6123e-05
4.49572e-05
4.38051e-05
4.26663e-05
4.15404e-05
4.04269e-05
3.93256e-05
3.82359e-05
3.71575e-05
3.60901e-05
3.50332e-05
3.39867e-05
3.295e-05
3.1923e-05
3.09053e-05
2.98967e-05
2.88971e-05
2.79062e-05
2.69234e-05
2.59483e-05
2.49804e-05
2.40195e-05
2.30651e-05
2.21169e-05
2.11744e-05
2.02373e-05
1.93051e-05
1.83779e-05
1.74548e-05
1.65349e-05
1.56177e-05
1.47023e-05
1.37877e-05
1.2873e-05
1.19569e-05
1.1038e-05
1.01147e-05
9.18486e-06
8.24616e-06
7.29551e-06
6.32902e-06
5.34163e-06
4.32652e-06
3.27371e-06
2.17731e-06
1.06031e-06
2.11301e-07
8.59386e-06
6.53457e-05
0.000108472
0.000138641
0.000162176
0.000181804
0.000198798
0.000214075
0.000228132
0.000241274
0.000253687
0.000265518
0.000276878
0.000287831
0.000298424
0.000308695
0.000318673
0.000328379
0.000337832
0.000347042
0.000356022
0.000364776
0.000373311
0.00038163
0.000389736
0.000397629
0.000405309
0.000412777
0.000420031
0.00042707
0.000433891
0.000440494
0.000446875
0.000453031
0.00045896
0.000464659
0.000470123
0.000475349
0.000480329
0.000485057
0.000489521
0.000493698
0.000497553
0.000501026
0.000504025
0.000506423
0.000508085
0.000508859
0.000508416
0.000505571
0.000497305
0.000480021
0.000456122
0.000442826
0.000437551
0.000436085
0.000436015
0.000436597
0.000438095
0.000441772
0.000450294
0.000467249
0.000492789
0.000509038
0.000516001
0.000517984
0.000517337
0.000513725
0.000503269
0.000478
0.000437818
0.000481793
0.00050404
0.000510608
0.000511048
0.000509466
0.000507183
0.00050459
0.000501804
0.000498868
0.000495801
0.000492618
0.000489328
0.000485942
0.000482467
0.000478911
0.00047528
0.00047158
0.000467818
0.000463999
0.000460128
0.00045621
0.000452251
0.000448255
0.000444227
0.000440172
0.000436092
0.000431994
0.00042788
0.000423754
0.00041962
0.000415482
0.000411343
0.000407206
0.000403073
0.000398949
0.000394835
0.000390733
0.000386648
0.000382579
0.00037853
0.000374503
0.000370498
0.000366518
0.000362565
0.000358638
0.000354739
0.00035087
0.000347031
0.000343223
0.000339446
0.000335701
0.000331988
0.000328307
0.000324658
0.000321042
0.000317458
0.000313905
0.000310384
0.000306894
0.000303435
0.000300006
0.000296606
0.000293234
0.00028989
0.000286574
0.000283283
0.000280017
0.000276776
0.000273557
0.000270361
0.000267185
0.000264029
0.000260891
0.000257771
0.000254667
0.000251577
0.000248502
0.000245439
0.000242387
0.000239345
0.000236311
0.000233285
0.000230265
0.000227249
0.000224237
0.000221227
0.000218217
0.000215206
0.000212193
0.000209176
0.000206153
0.000203124
0.000200086
0.000197037
0.000193976
0.0001909
0.000187808
0.000184696
0.000181561
0.000178402
0.000175218
0.000172005
0.00016876
0.000165479
0.00016216
0.000158795
0.000155381
0.000151911
0.000148376
0.000144765
0.000141074
0.000137293
0.000133407
0.000129404
0.000125266
0.000120971
0.000116495
0.000111805
0.00010686
0.000101608
9.59785e-05
8.98755e-05
8.31602e-05
7.56226e-05
6.69189e-05
5.64238e-05
4.28068e-05
2.2886e-05
9.66677e-07
8.59944e-06
6.5349e-05
0.00010847
0.00013864
0.000162177
0.000181806
0.000198801
0.000214078
0.000228135
0.000241276
0.000253689
0.00026552
0.000276881
0.000287833
0.000298427
0.000308698
0.000318676
0.000328382
0.000337834
0.000347045
0.000356025
0.000364779
0.000373314
0.000381634
0.000389739
0.000397632
0.000405312
0.00041278
0.000420034
0.000427073
0.000433895
0.000440497
0.000446878
0.000453035
0.000458964
0.000464663
0.000470127
0.000475352
0.000480333
0.000485061
0.000489524
0.000493701
0.000497556
0.000501026
0.000504016
0.0005064
0.000508042
0.000508808
0.000508383
0.000505519
0.000496987
0.000479096
0.000455203
0.000442176
0.00043695
0.000435463
0.00043537
0.000435934
0.000437425
0.000441154
0.00044992
0.000467467
0.000493179
0.000509128
0.000515979
0.000517975
0.000517382
0.000513806
0.000503184
0.000477195
0.000437638
0.00048206
0.000504007
0.000510539
0.000511016
0.000509456
0.000507182
0.000504592
0.000501807
0.000498871
0.000495805
0.000492621
0.000489332
0.000485946
0.000482471
0.000478914
0.000475283
0.000471583
0.000467821
0.000464002
0.000460131
0.000456213
0.000452254
0.000448258
0.00044423
0.000440175
0.000436095
0.000431997
0.000427883
0.000423757
0.000419623
0.000415485
0.000411346
0.000407208
0.000403076
0.000398951
0.000394837
0.000390736
0.00038665
0.000382582
0.000378533
0.000374505
0.000370501
0.000366521
0.000362567
0.00035864
0.000354742
0.000350872
0.000347033
0.000343225
0.000339448
0.000335703
0.00033199
0.000328309
0.00032466
0.000321044
0.000317459
0.000313907
0.000310386
0.000306896
0.000303437
0.000300007
0.000296607
0.000293236
0.000289892
0.000286575
0.000283285
0.000280019
0.000276777
0.000273559
0.000270362
0.000267186
0.00026403
0.000260892
0.000257772
0.000254668
0.000251579
0.000248503
0.00024544
0.000242388
0.000239346
0.000236312
0.000233286
0.000230266
0.00022725
0.000224238
0.000221228
0.000218218
0.000215207
0.000212194
0.000209177
0.000206154
0.000203125
0.000200087
0.000197038
0.000193977
0.000190901
0.000187809
0.000184697
0.000181562
0.000178403
0.000175218
0.000172005
0.00016876
0.00016548
0.00016216
0.000158796
0.000155382
0.000151912
0.000148376
0.000144766
0.000141075
0.000137293
0.000133408
0.000129405
0.000125266
0.000120972
0.000116495
0.000111805
0.00010686
0.000101608
9.59787e-05
8.98757e-05
8.31605e-05
7.56229e-05
6.6919e-05
5.64239e-05
4.28069e-05
2.2886e-05
9.66679e-07
1.52845e-05
0.000105311
0.000189837
0.000253423
0.000302978
0.00034322
0.000377138
0.000406634
0.000432903
0.000456746
0.000478706
0.000499162
0.000518391
0.000536586
0.000553891
0.000570416
0.000586247
0.000601452
0.000616085
0.000630188
0.000643798
0.000656943
0.000669645
0.000681924
0.000693797
0.000705275
0.000716369
0.00072709
0.000737443
0.000747436
0.000757072
0.000766357
0.000775293
0.000783884
0.00079213
0.000800035
0.000807597
0.000814817
0.000821691
0.000828215
0.000834374
0.000840142
0.000845463
0.000850235
0.000854286
0.000857374
0.000859245
0.000859739
0.000858657
0.000854679
0.000843631
0.000821304
0.000796577
0.000781234
0.000774691
0.000772713
0.000772594
0.000773385
0.000775405
0.000780414
0.000792277
0.000815645
0.000843624
0.000862374
0.000871041
0.000873878
0.000873811
0.000870764
0.000860754
0.000837543
0.000821799
0.000845616
0.000862895
0.000869167
0.000869675
0.000867863
0.000865134
0.00086197
0.000858533
0.000854883
0.000851048
0.000847046
0.000842892
0.000838596
0.000834169
0.00082962
0.000824957
0.000820187
0.000815318
0.000810356
0.000805308
0.00080018
0.000794977
0.000789707
0.000784373
0.000778983
0.00077354
0.000768051
0.000762519
0.000756951
0.00075135
0.000745721
0.000740069
0.000734397
0.00072871
0.00072301
0.000717303
0.00071159
0.000705876
0.000700164
0.000694456
0.000688754
0.000683063
0.000677383
0.000671717
0.000666067
0.000660434
0.000654821
0.000649228
0.000643657
0.000638109
0.000632585
0.000627084
0.000621609
0.00061616
0.000610735
0.000605337
0.000599964
0.000594616
0.000589294
0.000583996
0.000578723
0.000573472
0.000568244
0.000563038
0.000557853
0.000552687
0.000547539
0.000542409
0.000537294
0.000532193
0.000527106
0.000522029
0.000516963
0.000511904
0.000506851
0.000501803
0.000496757
0.000491712
0.000486666
0.000481616
0.000476561
0.000471499
0.000466426
0.000461342
0.000456243
0.000451127
0.000445991
0.000440834
0.000435651
0.000430441
0.000425199
0.000419924
0.00041461
0.000409254
0.000403853
0.000398401
0.000392894
0.000387325
0.000381688
0.000375978
0.000370191
0.00036432
0.000358356
0.000352291
0.000346114
0.000339813
0.000333375
0.000326782
0.000320015
0.000313051
0.000305869
0.000298442
0.000290736
0.000282713
0.000274326
0.000265517
0.000256216
0.000246332
0.000235754
0.000224333
0.000211873
0.000198103
0.00018264
0.00016491
0.000144013
0.00011845
8.55944e-05
4.16428e-05
1.99498e-06
1.52867e-05
0.000105315
0.00018984
0.000253426
0.000302982
0.000343224
0.000377143
0.000406639
0.000432908
0.00045675
0.00047871
0.000499167
0.000518396
0.000536591
0.000553896
0.000570421
0.000586252
0.000601457
0.000616089
0.000630193
0.000643803
0.000656947
0.00066965
0.000681929
0.000693801
0.000705279
0.000716374
0.000727095
0.000737448
0.00074744
0.000757077
0.000766361
0.000775298
0.000783888
0.000792135
0.000800039
0.000807601
0.000814821
0.000821696
0.00082822
0.00083438
0.000840148
0.000845469
0.000850239
0.000854281
0.000857349
0.000859198
0.000859712
0.000858757
0.000854954
0.000843906
0.000821463
0.000797223
0.000782159
0.00077563
0.000773596
0.000773431
0.00077418
0.000776152
0.000781118
0.000793036
0.000816531
0.000844004
0.000862313
0.000870886
0.000873805
0.000873887
0.000871022
0.000861103
0.000837399
0.00082216
0.000845612
0.000862653
0.000868995
0.000869599
0.000867838
0.000865128
0.000861971
0.000858537
0.000854887
0.000851052
0.00084705
0.000842896
0.0008386
0.000834173
0.000829624
0.000824961
0.000820191
0.000815322
0.00081036
0.000805311
0.000800183
0.000794981
0.00078971
0.000784376
0.000778986
0.000773543
0.000768053
0.000762522
0.000756954
0.000751353
0.000745724
0.000740072
0.0007344
0.000728712
0.000723013
0.000717305
0.000711592
0.000705878
0.000700166
0.000694458
0.000688756
0.000683065
0.000677385
0.000671719
0.000666069
0.000660436
0.000654823
0.00064923
0.000643659
0.000638111
0.000632586
0.000627086
0.000621611
0.000616161
0.000610737
0.000605338
0.000599965
0.000594618
0.000589295
0.000583997
0.000578724
0.000573473
0.000568245
0.000563039
0.000557854
0.000552688
0.00054754
0.00054241
0.000537295
0.000532194
0.000527107
0.00052203
0.000516963
0.000511905
0.000506852
0.000501804
0.000496758
0.000491713
0.000486667
0.000481617
0.000476562
0.000471499
0.000466427
0.000461342
0.000456243
0.000451127
0.000445992
0.000440834
0.000435652
0.000430441
0.0004252
0.000419924
0.00041461
0.000409254
0.000403853
0.000398401
0.000392894
0.000387325
0.000381688
0.000375978
0.000370191
0.00036432
0.000358356
0.000352291
0.000346114
0.000339813
0.000333375
0.000326782
0.000320015
0.000313051
0.000305869
0.000298442
0.000290736
0.000282713
0.000274326
0.000265517
0.000256216
0.000246332
0.000235754
0.000224333
0.000211873
0.000198103
0.00018264
0.00016491
0.000144014
0.00011845
8.55945e-05
4.16426e-05
1.99499e-06
2.16155e-05
0.00013411
0.000250447
0.000344704
0.000420873
0.000483706
0.000536864
0.000582891
0.000623541
0.000660043
0.000693272
0.000723863
0.000752282
0.000778878
0.000803912
0.000827589
0.000850067
0.000871474
0.000891912
0.000911463
0.000930198
0.000948171
0.000965431
0.000982016
0.000997962
0.0010133
0.00102804
0.00104223
0.00105586
0.00106897
0.00108156
0.00109364
0.00110523
0.00111634
0.00112697
0.00113714
0.00114684
0.00115609
0.00116487
0.0011732
0.00118106
0.00118841
0.0011952
0.0012013
0.0012065
0.00121051
0.00121309
0.00121427
0.00121442
0.00121309
0.00120753
0.00119503
0.00118037
0.00117034
0.00116565
0.00116421
0.00116431
0.0011652
0.00116699
0.00117083
0.00117921
0.0011943
0.00121146
0.00122332
0.00122908
0.00123133
0.0012322
0.00123208
0.00122908
0.00121976
0.00121382
0.00122185
0.00122915
0.00123174
0.00123105
0.00122868
0.00122547
0.0012218
0.00121779
0.0012135
0.00120898
0.00120425
0.00119932
0.0011942
0.00118891
0.00118346
0.00117786
0.00117211
0.00116623
0.00116023
0.0011541
0.00114786
0.00114151
0.00113507
0.00112853
0.00112191
0.0011152
0.00110842
0.00110157
0.00109466
0.00108769
0.00108067
0.0010736
0.00106649
0.00105934
0.00105215
0.00104494
0.0010377
0.00103044
0.00102317
0.00101588
0.00100858
0.00100128
0.000993968
0.000986657
0.000979348
0.000972041
0.000964741
0.000957447
0.000950163
0.000942889
0.000935626
0.000928377
0.000921141
0.000913919
0.000906712
0.00089952
0.000892343
0.000885181
0.000878034
0.000870901
0.000863781
0.000856675
0.000849581
0.000842497
0.000835424
0.000828359
0.000821301
0.00081425
0.000807202
0.000800156
0.00079311
0.000786063
0.000779013
0.000771956
0.000764891
0.000757816
0.000750728
0.000743624
0.000736502
0.000729359
0.000722192
0.000714998
0.000707774
0.000700516
0.000693222
0.000685887
0.000678507
0.000671079
0.000663598
0.000656059
0.000648458
0.000640789
0.000633046
0.000625224
0.000617315
0.000609312
0.000601207
0.000592991
0.000584653
0.000576183
0.000567573
0.000558811
0.000549881
0.000540769
0.000531455
0.000521919
0.000512137
0.00050208
0.000491716
0.000481006
0.00046991
0.000458379
0.000446355
0.000433769
0.000420539
0.000406563
0.000391717
0.000375847
0.000358758
0.000340198
0.000319838
0.000297236
0.000271782
0.000242611
0.000208455
0.000167421
0.000116772
5.43734e-05
3.01146e-06
2.16154e-05
0.000134112
0.00025045
0.000344709
0.000420879
0.000483712
0.00053687
0.000582897
0.000623548
0.000660049
0.000693279
0.000723869
0.000752289
0.000778884
0.000803919
0.000827595
0.000850073
0.00087148
0.000891918
0.00091147
0.000930204
0.000948177
0.000965437
0.000982022
0.000997968
0.0010133
0.00102805
0.00104223
0.00105587
0.00106897
0.00108156
0.00109365
0.00110524
0.00111635
0.00112698
0.00113714
0.00114685
0.00115609
0.00116488
0.00117321
0.00118107
0.00118842
0.00119521
0.00120131
0.0012065
0.00121051
0.00121308
0.00121432
0.0012146
0.00121341
0.00120782
0.00119518
0.00118063
0.00117061
0.00116583
0.00116431
0.00116435
0.0011652
0.00116695
0.00117075
0.00117914
0.00119429
0.00121126
0.00122306
0.00122893
0.00123133
0.00123235
0.0012323
0.00122924
0.00121941
0.00121358
0.00122147
0.00122881
0.00123154
0.00123096
0.00122865
0.00122547
0.0012218
0.00121779
0.00121351
0.00120899
0.00120425
0.00119932
0.0011942
0.00118891
0.00118346
0.00117786
0.00117212
0.00116624
0.00116023
0.0011541
0.00114786
0.00114152
0.00113507
0.00112853
0.00112191
0.0011152
0.00110842
0.00110157
0.00109466
0.00108769
0.00108067
0.0010736
0.00106649
0.00105934
0.00105215
0.00104494
0.0010377
0.00103045
0.00102317
0.00101588
0.00100858
0.00100128
0.00099397
0.000986659
0.000979349
0.000972043
0.000964742
0.000957448
0.000950164
0.00094289
0.000935627
0.000928378
0.000921142
0.00091392
0.000906713
0.000899521
0.000892344
0.000885182
0.000878034
0.000870901
0.000863782
0.000856675
0.000849581
0.000842498
0.000835424
0.000828359
0.000821302
0.00081425
0.000807202
0.000800156
0.00079311
0.000786063
0.000779013
0.000771956
0.000764891
0.000757816
0.000750728
0.000743624
0.000736502
0.000729359
0.000722192
0.000714998
0.000707774
0.000700516
0.000693222
0.000685886
0.000678507
0.000671078
0.000663597
0.000656058
0.000648457
0.000640788
0.000633046
0.000625223
0.000617315
0.000609312
0.000601207
0.000592991
0.000584653
0.000576183
0.000567573
0.00055881
0.000549881
0.000540768
0.000531455
0.000521919
0.000512137
0.00050208
0.000491716
0.000481005
0.000469909
0.000458378
0.000446354
0.000433769
0.000420539
0.000406563
0.000391717
0.000375847
0.000358757
0.000340197
0.000319838
0.000297236
0.000271782
0.000242611
0.000208455
0.000167421
0.000116772
5.43732e-05
3.01147e-06
2.76897e-05
0.000157484
0.000298578
0.000418819
0.000519187
0.000603744
0.000676117
0.000739093
0.000794743
0.000844598
0.000889796
0.00093119
0.000969424
0.00100499
0.00103827
0.00106957
0.00109911
0.0011271
0.00115368
0.00117898
0.00120311
0.00122615
0.00124818
0.00126926
0.00128944
0.00130877
0.0013273
0.00134505
0.00136206
0.00137836
0.00139396
0.0014089
0.00142319
0.00143684
0.00144988
0.00146232
0.00147416
0.00148542
0.00149611
0.00150622
0.00151574
0.00152466
0.00153291
0.0015404
0.00154694
0.00155231
0.00155633
0.00155914
0.00156123
0.00156273
0.00156242
0.00155885
0.00155356
0.00154953
0.00154763
0.00154733
0.0015479
0.00154897
0.00155049
0.00155284
0.001557
0.00156372
0.00157111
0.00157623
0.00157875
0.00157994
0.00158097
0.0015821
0.00158249
0.00158057
0.00157885
0.00158069
0.00158234
0.00158211
0.00158022
0.00157723
0.00157355
0.00156939
0.00156485
0.00155999
0.00155484
0.00154943
0.00154378
0.00153791
0.00153182
0.00152554
0.00151907
0.00151243
0.00150562
0.00149865
0.00149153
0.00148426
0.00147686
0.00146933
0.00146168
0.00145391
0.00144604
0.00143806
0.00142999
0.00142184
0.0014136
0.00140528
0.00139689
0.00138844
0.00137993
0.00137137
0.00136275
0.00135409
0.00134539
0.00133665
0.00132788
0.00131909
0.00131027
0.00130143
0.00129257
0.0012837
0.00127481
0.00126592
0.00125701
0.00124811
0.00123919
0.00123028
0.00122137
0.00121245
0.00120354
0.00119463
0.00118572
0.00117681
0.00116791
0.00115901
0.00115011
0.00114121
0.00113231
0.00112341
0.0011145
0.0011056
0.00109668
0.00108777
0.00107884
0.0010699
0.00106095
0.00105199
0.00104301
0.00103401
0.00102498
0.00101593
0.00100685
0.000997746
0.000988602
0.00097942
0.000970197
0.000960928
0.00095161
0.000942238
0.000932808
0.000923316
0.000913755
0.000904122
0.000894411
0.000884615
0.000874728
0.000864743
0.000854653
0.00084445
0.000834125
0.000823667
0.000813067
0.000802314
0.000791393
0.000780291
0.000768992
0.000757483
0.000745745
0.000733756
0.000721494
0.000708932
0.000696038
0.000682777
0.000669108
0.000654985
0.000640353
0.00062515
0.000609305
0.000592735
0.00057534
0.000556998
0.000537566
0.000516868
0.000494686
0.000470749
0.000444714
0.000416141
0.000384453
0.000348883
0.000308395
0.000261567
0.000206479
0.000140809
6.42355e-05
3.99931e-06
2.76894e-05
0.000157485
0.000298582
0.000418824
0.000519194
0.000603751
0.000676125
0.000739101
0.000794751
0.000844606
0.000889804
0.000931198
0.000969433
0.001005
0.00103828
0.00106958
0.00109912
0.00112711
0.00115369
0.00117899
0.00120311
0.00122616
0.00124818
0.00126926
0.00128945
0.00130878
0.00132731
0.00134506
0.00136207
0.00137837
0.00139397
0.00140891
0.00142319
0.00143685
0.00144989
0.00146232
0.00147417
0.00148543
0.00149611
0.00150622
0.00151575
0.00152467
0.00153293
0.00154041
0.00154696
0.00155232
0.00155634
0.00155918
0.00156133
0.00156288
0.00156248
0.0015587
0.00155326
0.00154909
0.00154707
0.00154669
0.00154723
0.00154828
0.00154978
0.00155214
0.00155637
0.00156323
0.00157072
0.001576
0.0015787
0.00158006
0.00158119
0.00158233
0.00158263
0.0015804
0.00157858
0.00158037
0.0015821
0.00158198
0.00158016
0.00157721
0.00157355
0.00156939
0.00156486
0.00155999
0.00155484
0.00154943
0.00154378
0.00153791
0.00153183
0.00152555
0.00151908
0.00151243
0.00150562
0.00149865
0.00149153
0.00148426
0.00147686
0.00146933
0.00146168
0.00145391
0.00144604
0.00143807
0.00143
0.00142184
0.0014136
0.00140528
0.0013969
0.00138844
0.00137993
0.00137137
0.00136275
0.00135409
0.00134539
0.00133665
0.00132789
0.00131909
0.00131027
0.00130143
0.00129257
0.0012837
0.00127481
0.00126592
0.00125701
0.00124811
0.00123919
0.00123028
0.00122137
0.00121245
0.00120354
0.00119463
0.00118572
0.00117681
0.00116791
0.00115901
0.00115011
0.00114121
0.00113231
0.00112341
0.0011145
0.0011056
0.00109668
0.00108777
0.00107884
0.0010699
0.00106095
0.00105199
0.00104301
0.00103401
0.00102498
0.00101593
0.00100685
0.000997745
0.000988602
0.00097942
0.000970196
0.000960928
0.000951609
0.000942237
0.000932808
0.000923315
0.000913755
0.000904122
0.00089441
0.000884614
0.000874727
0.000864743
0.000854653
0.000844449
0.000834124
0.000823667
0.000813067
0.000802313
0.000791392
0.00078029
0.000768991
0.000757482
0.000745744
0.000733755
0.000721494
0.000708931
0.000696037
0.000682776
0.000669108
0.000654984
0.000640352
0.000625149
0.000609305
0.000592735
0.000575339
0.000556997
0.000537566
0.000516867
0.000494685
0.000470748
0.000444714
0.00041614
0.000384453
0.000348883
0.000308395
0.000261568
0.00020648
0.000140809
6.42353e-05
3.99932e-06
3.36223e-05
0.000177561
0.000338668
0.000480941
0.000602799
0.000707349
0.000797913
0.000877292
0.0009477
0.00101085
0.00106808
0.0011204
0.0011686
0.00121331
0.00125501
0.00129409
0.00133086
0.00136556
0.00139841
0.00142958
0.00145921
0.00148741
0.00151429
0.00153994
0.00156443
0.00158782
0.00161017
0.00163153
0.00165194
0.00167145
0.00169008
0.00170788
0.00172486
0.00174106
0.00175649
0.00177118
0.00178515
0.0017984
0.00181095
0.00182281
0.00183397
0.00184441
0.00185411
0.00186299
0.00187094
0.00187781
0.00188349
0.00188809
0.00189195
0.00189529
0.00189774
0.00189868
0.00189847
0.00189819
0.00189842
0.0018992
0.00190037
0.00190177
0.00190335
0.00190511
0.00190727
0.00190998
0.00191262
0.00191432
0.00191507
0.0019155
0.00191619
0.0019172
0.00191812
0.00191818
0.00191768
0.00191747
0.00191675
0.001915
0.00191226
0.00190872
0.00190458
0.00189994
0.00189489
0.00188947
0.00188373
0.00187768
0.00187136
0.00186478
0.00185795
0.00185089
0.00184361
0.00183613
0.00182845
0.00182058
0.00181253
0.00180431
0.00179592
0.00178738
0.00177869
0.00176986
0.0017609
0.00175182
0.00174261
0.00173329
0.00172387
0.00171435
0.00170474
0.00169504
0.00168526
0.00167541
0.00166548
0.0016555
0.00164545
0.00163535
0.0016252
0.00161501
0.00160477
0.0015945
0.00158419
0.00157386
0.00156349
0.0015531
0.00154269
0.00153226
0.00152181
0.00151135
0.00150087
0.00149037
0.00147987
0.00146935
0.00145882
0.00144828
0.00143773
0.00142716
0.00141659
0.001406
0.00139539
0.00138478
0.00137414
0.00136349
0.00135282
0.00134212
0.0013314
0.00132066
0.00130988
0.00129908
0.00128824
0.00127736
0.00126644
0.00125548
0.00124447
0.00123341
0.00122229
0.00121112
0.00119988
0.00118857
0.00117719
0.00116572
0.00115418
0.00114254
0.00113081
0.00111897
0.00110702
0.00109496
0.00108276
0.00107044
0.00105796
0.00104533
0.00103254
0.00101956
0.00100639
0.000993008
0.000979402
0.000965552
0.000951436
0.000937035
0.000922324
0.000907275
0.000891857
0.000876033
0.000859763
0.000843001
0.000825691
0.000807774
0.000789177
0.00076982
0.000749609
0.000728435
0.000706167
0.000682652
0.000657703
0.000631098
0.000602564
0.000571767
0.000538289
0.000501606
0.00046105
0.000415762
0.000364628
0.000306215
0.000238747
0.000160447
7.24902e-05
4.96595e-06
3.36221e-05
0.000177563
0.000338672
0.000480946
0.000602807
0.000707358
0.000797922
0.000877301
0.000947709
0.00101086
0.00106809
0.00112041
0.00116861
0.00121332
0.00125502
0.0012941
0.00133086
0.00136557
0.00139842
0.00142959
0.00145922
0.00148742
0.0015143
0.00153995
0.00156444
0.00158783
0.00161018
0.00163154
0.00165195
0.00167146
0.00169009
0.00170789
0.00172487
0.00174107
0.0017565
0.00177119
0.00178515
0.00179841
0.00181096
0.00182282
0.00183397
0.00184442
0.00185412
0.001863
0.00187095
0.00187781
0.00188349
0.00188809
0.00189197
0.00189532
0.0018977
0.00189851
0.00189816
0.00189777
0.00189792
0.00189865
0.0018998
0.00190121
0.00190278
0.00190456
0.00190677
0.00190959
0.00191237
0.00191421
0.0019151
0.00191564
0.00191638
0.0019174
0.00191825
0.00191816
0.00191757
0.00191732
0.00191664
0.00191494
0.00191223
0.00190872
0.00190458
0.00189995
0.0018949
0.00188948
0.00188373
0.00187769
0.00187136
0.00186478
0.00185795
0.00185089
0.00184362
0.00183613
0.00182845
0.00182058
0.00181253
0.00180431
0.00179592
0.00178738
0.0017787
0.00176987
0.00176091
0.00175182
0.00174261
0.0017333
0.00172387
0.00171435
0.00170474
0.00169504
0.00168526
0.00167541
0.00166549
0.0016555
0.00164545
0.00163535
0.0016252
0.00161501
0.00160477
0.0015945
0.00158419
0.00157386
0.00156349
0.0015531
0.00154269
0.00153226
0.00152181
0.00151135
0.00150087
0.00149037
0.00147987
0.00146935
0.00145882
0.00144828
0.00143773
0.00142716
0.00141659
0.001406
0.00139539
0.00138478
0.00137414
0.00136349
0.00135282
0.00134212
0.0013314
0.00132066
0.00130988
0.00129908
0.00128824
0.00127736
0.00126644
0.00125548
0.00124447
0.00123341
0.00122229
0.00121112
0.00119988
0.00118857
0.00117719
0.00116572
0.00115418
0.00114254
0.00113081
0.00111897
0.00110702
0.00109496
0.00108276
0.00107044
0.00105796
0.00104533
0.00103254
0.00101956
0.00100639
0.000993008
0.000979401
0.000965551
0.000951435
0.000937034
0.000922323
0.000907275
0.000891856
0.000876033
0.000859763
0.000843
0.00082569
0.000807773
0.000789176
0.000769819
0.000749608
0.000728434
0.000706167
0.000682651
0.000657703
0.000631098
0.000602564
0.000571767
0.000538289
0.000501606
0.00046105
0.000415762
0.000364628
0.000306215
0.000238748
0.000160447
7.24899e-05
4.96596e-06
3.94407e-05
0.000195398
0.000373362
0.000534558
0.000675415
0.000798076
0.00090547
0.00100029
0.00108479
0.00116079
0.00122974
0.00129277
0.00135081
0.00140456
0.00145462
0.00150144
0.0015454
0.00158682
0.00162593
0.00166296
0.00169808
0.00173145
0.00176318
0.00179339
0.00182217
0.00184961
0.00187578
0.00190073
0.00192454
0.00194724
0.00196889
0.00198952
0.00200918
0.0020279
0.0020457
0.00206261
0.00207866
0.00209387
0.00210826
0.00212182
0.00213458
0.00214652
0.00215762
0.00216785
0.00217715
0.00218544
0.00219266
0.00219886
0.00220421
0.00220888
0.00221281
0.00221582
0.002218
0.00221975
0.00222138
0.00222306
0.00222481
0.00222661
0.00222841
0.00223013
0.00223174
0.0022332
0.0022343
0.00223484
0.00223494
0.00223493
0.0022351
0.00223547
0.00223579
0.00223566
0.00223495
0.00223375
0.00223191
0.00222929
0.00222591
0.00222187
0.00221725
0.00221213
0.00220657
0.00220061
0.00219428
0.00218762
0.00218065
0.00217339
0.00216585
0.00215806
0.00215001
0.00214173
0.00213323
0.0021245
0.00211558
0.00210645
0.00209714
0.00208765
0.00207798
0.00206815
0.00205817
0.00204804
0.00203776
0.00202736
0.00201683
0.00200618
0.00199541
0.00198454
0.00197358
0.00196251
0.00195137
0.00194014
0.00192883
0.00191745
0.00190601
0.0018945
0.00188294
0.00187133
0.00185967
0.00184796
0.00183621
0.00182442
0.0018126
0.00180074
0.00178885
0.00177692
0.00176498
0.001753
0.001741
0.00172897
0.00171692
0.00170484
0.00169274
0.00168061
0.00166846
0.00165628
0.00164407
0.00163183
0.00161956
0.00160726
0.00159492
0.00158255
0.00157013
0.00155768
0.00154517