/*--------------------------------*- C++ -*----------------------------------*\
  =========                 |
  \\      /  F ield         | OpenFOAM: The Open Source CFD Toolbox
   \\    /   O peration     | Website:  https://openfoam.org
    \\  /    A nd           | Version:  8
     \\/     M anipulation  |
\*---------------------------------------------------------------------------*/
FoamFile
{
    version     2.0;
    format      ascii;
    class       volScalarField;
    location    "4600";
    object      epsilon;
}
// * * * * * * * * * * * * * * * * * * * * * * * * * * * * * * * * * * * * * //

dimensions      [0 2 -3 0 0 0 0];

internalField   nonuniform List<scalar> 
46000
(
46.5546
151.9
263.809
366.511
463.084
556.207
647.003
735.838
823.213
909.51
995.03
1079.93
1163.8
1246.96
1329.5
1411.44
1492.77
1573.47
1653.47
1732.74
1811.21
1888.81
1965.46
2041.1
2115.62
2188.96
2261.02
2331.72
2400.96
2468.67
2534.75
2599.12
2661.68
2722.35
2781.03
2837.64
2892.07
2944.22
2993.99
3041.22
3085.74
3127.29
3165.44
3199.43
3227.98
3249.06
3260.11
3259.37
3249.01
3235.72
3210.18
3092.77
2720.97
2587.54
2568.33
2566.88
2569
2572.89
2580.5
2600.4
2661.64
2851.41
3198.06
3279.08
3293.74
3293.56
3295.2
3297.15
3281.77
3191.9
2809.56
3211.9
3273.96
3269.48
3249.44
3224.25
3196.34
3166.49
3135.04
3102.21
3068.18
3033.09
2997.08
2960.24
2922.68
2884.47
2845.7
2806.44
2766.76
2726.72
2686.39
2645.83
2605.1
2564.24
2523.31
2482.37
2441.45
2400.61
2359.88
2319.31
2278.93
2238.79
2198.9
2159.31
2120.04
2081.12
2042.57
2004.42
1966.68
1929.38
1892.53
1856.14
1820.23
1784.81
1749.89
1715.47
1681.55
1648.16
1615.27
1582.91
1551.07
1519.74
1488.93
1458.63
1428.83
1399.54
1370.75
1342.44
1314.62
1287.27
1260.39
1233.97
1207.99
1182.44
1157.33
1132.63
1108.34
1084.44
1060.92
1037.78
1015
992.577
970.49
948.733
927.295
906.165
885.335
864.793
844.53
824.537
804.804
785.323
766.084
747.08
728.303
709.745
691.399
673.257
655.314
637.561
619.993
602.605
585.39
568.342
551.457
534.729
518.152
501.722
485.434
469.289
453.282
437.4
421.639
405.992
390.453
375.016
359.674
344.422
329.251
314.156
299.138
284.182
269.275
254.405
239.56
224.723
209.879
195.008
180.085
165.084
149.971
134.707
119.239
103.505
87.4187
70.8668
53.6819
35.7557
17.447
3.86075
46.5906
151.957
263.858
366.534
463.092
556.209
647.004
735.839
823.214
909.511
995.031
1079.93
1163.8
1246.96
1329.5
1411.44
1492.77
1573.46
1653.47
1732.74
1811.21
1888.81
1965.46
2041.09
2115.62
2188.96
2261.02
2331.72
2400.96
2468.67
2534.75
2599.11
2661.67
2722.34
2781.03
2837.63
2892.06
2944.22
2993.98
3041.22
3085.74
3127.29
3165.44
3199.43
3227.98
3249.04
3260.04
3259.27
3248.99
3235.99
3210.92
3094.06
2722.08
2587.9
2568.33
2566.74
2568.81
2572.71
2580.26
2599.95
2660.79
2850.01
3196.75
3278.38
3293.41
3293.44
3295.25
3297.31
3281.89
3191.66
2809.61
3212.14
3273.94
3269.43
3249.41
3224.23
3196.34
3166.49
3135.03
3102.2
3068.17
3033.09
2997.08
2960.24
2922.68
2884.47
2845.7
2806.44
2766.75
2726.72
2686.39
2645.83
2605.09
2564.24
2523.31
2482.36
2441.45
2400.61
2359.88
2319.31
2278.93
2238.78
2198.9
2159.3
2120.03
2081.11
2042.57
2004.42
1966.68
1929.38
1892.53
1856.14
1820.23
1784.81
1749.88
1715.46
1681.55
1648.15
1615.27
1582.91
1551.06
1519.74
1488.92
1458.62
1428.83
1399.54
1370.75
1342.44
1314.62
1287.27
1260.39
1233.96
1207.98
1182.44
1157.33
1132.63
1108.33
1084.44
1060.92
1037.78
1015
992.575
970.488
948.731
927.292
906.163
885.333
864.791
844.528
824.535
804.802
785.321
766.082
747.079
728.302
709.744
691.398
673.256
655.312
637.559
619.992
602.604
585.388
568.341
551.456
534.727
518.151
501.721
485.433
469.288
453.281
437.4
421.638
405.991
390.452
375.015
359.674
344.421
329.25
314.156
299.138
284.181
269.274
254.405
239.559
224.723
209.879
195.007
180.085
165.084
149.971
134.707
119.239
103.505
87.4187
70.8669
53.6819
35.7558
17.447
3.86074
165.232
139.413
173.162
214.589
258.202
302.914
348.395
394.354
440.722
487.482
534.503
581.8
629.29
676.98
724.858
772.896
821.055
869.287
917.541
965.756
1013.87
1061.82
1109.53
1156.94
1203.96
1250.53
1296.56
1341.98
1386.71
1430.67
1473.78
1515.96
1557.13
1597.22
1636.13
1673.8
1710.12
1745.02
1778.41
1810.16
1840.16
1868.25
1894.22
1917.77
1938.47
1955.81
1969.35
1979.33
1987.89
2000.37
2024.39
2063.86
2116.64
2142.86
2154.78
2160.06
2163.21
2165.6
2166.79
2164.67
2154.36
2126.94
2071.19
2032.47
2011.86
2002.43
2001.05
2008.51
2034.51
2109.51
2271.81
2078.77
1995.1
1959.3
1937.01
1917.1
1896.77
1875.48
1853.24
1830.14
1806.31
1781.82
1756.78
1731.26
1705.31
1679.02
1652.42
1625.59
1598.55
1571.37
1544.09
1516.75
1489.38
1462.04
1434.74
1407.54
1380.45
1353.52
1326.76
1300.21
1273.88
1247.81
1222
1196.49
1171.28
1146.4
1121.85
1097.65
1073.81
1050.34
1027.25
1004.53
982.213
960.283
938.749
917.612
896.872
876.53
856.584
837.032
817.871
799.098
780.709
762.698
745.061
727.791
710.882
694.327
678.119
662.251
646.715
631.503
616.607
602.02
587.732
573.735
560.022
546.584
533.412
520.499
507.836
495.415
483.229
471.269
459.529
448
436.676
425.55
414.615
403.865
393.293
382.893
372.659
362.587
352.67
342.904
333.283
323.804
314.461
305.251
296.17
287.213
278.378
269.661
261.058
252.567
244.185
235.909
227.737
219.668
211.699
203.824
196.042
188.348
180.74
173.215
165.772
158.407
151.119
143.906
136.767
129.698
122.694
115.751
108.866
102.034
95.2504
88.5091
81.8044
75.1294
68.4761
61.8356
55.1978
48.5517
41.8869
35.1989
28.51
21.9605
16.2565
18.9583
165.178
139.413
173.167
214.59
258.2
302.91
348.39
394.349
440.716
487.476
534.497
581.793
629.283
676.972
724.85
772.888
821.046
869.278
917.53
965.745
1013.86
1061.81
1109.52
1156.93
1203.95
1250.52
1296.55
1341.97
1386.69
1430.65
1473.76
1515.94
1557.11
1597.2
1636.11
1673.78
1710.1
1745.01
1778.39
1810.14
1840.14
1868.24
1894.21
1917.77
1938.5
1955.87
1969.47
1979.5
1988.07
2000.7
2025.75
2067.71
2120.41
2145.14
2156.63
2161.91
2165.11
2167.54
2168.71
2166.32
2154.92
2125
2068.93
2031.72
2011.74
2002.43
2000.98
2008.39
2035.03
2113.1
2272.26
2077.21
1995.01
1959.46
1937.09
1917.12
1896.76
1875.46
1853.22
1830.12
1806.29
1781.8
1756.76
1731.24
1705.3
1679
1652.41
1625.57
1598.53
1571.35
1544.07
1516.73
1489.37
1462.02
1434.73
1407.52
1380.44
1353.5
1326.75
1300.19
1273.87
1247.79
1221.99
1196.47
1171.27
1146.38
1121.84
1097.64
1073.8
1050.33
1027.23
1004.52
982.202
960.273
938.739
917.602
896.862
876.52
856.574
837.023
817.862
799.09
780.701
762.69
745.053
727.783
710.874
694.319
678.112
662.244
646.708
631.496
616.601
602.013
587.726
573.729
560.016
546.578
533.407
520.493
507.831
495.41
483.224
471.264
459.524
447.996
436.672
425.546
414.611
403.861
393.289
382.889
372.655
362.583
352.666
342.9
333.28
323.8
314.458
305.248
296.167
287.21
278.375
269.658
261.056
252.565
244.183
235.907
227.735
219.666
211.697
203.822
196.04
188.346
180.738
173.214
165.771
158.406
151.118
143.904
136.766
129.697
122.693
115.75
108.865
102.033
95.2496
88.5084
81.8037
75.1287
68.4755
61.8351
55.1974
48.5514
41.8866
35.1987
28.5099
21.9604
16.2565
18.9583
290.322
182.12
184.786
205.125
231.451
260.733
291.809
324.099
357.269
391.152
425.614
460.571
495.95
531.701
567.782
604.147
640.753
677.55
714.489
751.516
788.576
825.612
862.564
899.371
935.969
972.294
1008.28
1043.86
1078.97
1113.55
1147.51
1180.8
1213.34
1245.08
1275.93
1305.83
1334.7
1362.48
1389.09
1414.43
1438.44
1461.03
1482.1
1501.61
1519.54
1535.98
1551.13
1565.38
1579.64
1596.77
1624.39
1671.55
1724.87
1758.19
1773.94
1780.9
1784.32
1785.91
1784.98
1778.05
1757.29
1712.96
1658.15
1621.68
1602.22
1592.2
1587.2
1587.16
1598.34
1633.58
1657.16
1596.86
1552.73
1526.78
1508.14
1491.24
1474.2
1456.52
1438.16
1419.17
1399.61
1379.57
1359.1
1338.28
1317.14
1295.75
1274.14
1252.36
1230.46
1208.47
1186.42
1164.35
1142.3
1120.29
1098.36
1076.52
1054.82
1033.26
1011.87
990.679
969.698
948.947
928.441
908.195
888.221
868.533
849.138
830.048
811.269
792.807
774.669
756.858
739.378
722.231
705.418
688.939
672.794
656.982
641.502
626.349
611.522
597.016
582.828
568.952
555.384
542.118
529.148
516.468
504.071
491.952
480.104
468.519
457.19
446.112
435.276
424.676
414.304
404.153
394.217
384.489
374.962
365.628
356.483
347.518
338.729
330.108
321.65
313.35
305.201
297.198
289.337
281.612
274.019
266.553
259.209
251.984
244.874
237.874
230.983
224.195
217.508
210.919
204.425
198.024
191.712
185.488
179.349
173.294
167.321
161.427
155.612
149.872
144.205
138.609
133.083
127.624
122.232
116.905
111.642
106.442
101.304
96.2261
91.207
86.2447
81.3376
76.4841
71.6826
66.9318
62.2304
57.5777
52.9739
48.4205
43.9223
39.4901
35.1478
30.949
27.0253
23.757
22.7361
38.5066
290.301
182.115
184.783
205.122
231.447
260.729
291.805
324.095
357.264
391.147
425.609
460.566
495.945
531.696
567.775
604.141
640.746
677.543
714.481
751.508
788.568
825.604
862.556
899.362
935.96
972.285
1008.27
1043.85
1078.96
1113.53
1147.5
1180.79
1213.33
1245.07
1275.92
1305.82
1334.69
1362.47
1389.07
1414.42
1438.43
1461.01
1482.09
1501.61
1519.55
1536.02
1551.21
1565.44
1579.49
1596.29
1623.84
1671.18
1723.38
1755.94
1771.57
1778.62
1782.12
1783.8
1782.97
1776.17
1755.36
1710.88
1657.25
1621.7
1602.48
1592.35
1587.12
1586.74
1597.68
1633.76
1656.33
1596.82
1553.13
1527.05
1508.25
1491.27
1474.2
1456.52
1438.15
1419.16
1399.6
1379.56
1359.09
1338.27
1317.13
1295.74
1274.13
1252.35
1230.45
1208.46
1186.41
1164.34
1142.29
1120.28
1098.35
1076.51
1054.81
1033.25
1011.86
990.671
969.691
948.94
928.434
908.188
888.215
868.526
849.132
830.042
811.263
792.802
774.664
756.853
739.373
722.226
705.413
688.934
672.789
656.978
641.497
626.345
611.518
597.012
582.824
568.948
555.38
542.114
529.144
516.464
504.068
491.949
480.1
468.516
457.187
446.109
435.273
424.673
414.301
404.151
394.215
384.487
374.959
365.626
356.481
347.516
338.727
330.106
321.648
313.348
305.199
297.197
289.336
281.611
274.017
266.551
259.208
251.983
244.872
237.873
230.981
224.193
217.507
210.918
204.424
198.022
191.711
185.487
179.348
173.293
167.32
161.426
155.611
149.871
144.204
138.608
133.082
127.623
122.231
116.904
111.641
106.441
101.303
96.2255
91.2065
86.2442
81.3372
76.4837
71.6823
66.9315
62.2301
57.5775
52.9737
48.4203
43.9222
39.49
35.1477
30.9489
27.0252
23.757
22.7362
38.5067
407.732
231.229
211.754
218.99
235.426
256.321
279.852
305.14
331.697
359.23
387.545
416.505
446.009
475.977
506.346
537.057
568.056
599.293
630.714
662.267
693.9
725.559
757.188
788.733
820.135
851.336
882.279
912.903
943.148
972.954
1002.26
1031.01
1059.13
1086.57
1113.27
1139.17
1164.19
1188.28
1211.38
1233.42
1254.34
1274.08
1292.62
1309.97
1326.23
1341.62
1356.36
1370.52
1383.88
1397.02
1413.19
1436.31
1461.57
1479.59
1489.89
1495.42
1498.47
1499.96
1499.67
1496.1
1485.91
1465.96
1441.74
1423.42
1411.63
1403.31
1396.13
1389.54
1385.27
1387.19
1384.71
1363.07
1341.59
1324.1
1308.69
1293.68
1278.36
1262.5
1246.07
1229.14
1211.73
1193.93
1175.77
1157.31
1138.59
1119.65
1100.54
1081.3
1061.96
1042.55
1023.1
1003.65
984.229
964.856
945.561
926.367
907.296
888.369
869.607
851.026
832.643
814.473
796.53
778.827
761.375
744.182
727.259
710.613
694.249
678.174
662.391
646.904
631.716
616.827
602.239
587.952
573.964
560.275
546.882
533.783
520.975
508.453
496.215
484.255
472.568
461.15
449.996
439.099
428.453
418.054
407.894
397.967
388.267
378.788
369.524
360.467
351.612
342.952
334.481
326.193
318.081
310.14
302.364
294.747
287.283
279.968
272.795
265.76
258.857
252.082
245.431
238.899
232.482
226.175
219.975
213.878
207.882
201.981
196.174
190.458
184.829
179.285
173.823
168.442
163.139
157.912
152.758
147.678
142.668
137.728
132.855
128.049
123.307
118.628
114.011
109.454
104.957
100.519
96.139
91.8168
87.5521
83.3442
79.1924
75.0964
71.0561
67.0715
63.1431
59.2723
55.461
51.7126
48.033
44.4315
40.9239
37.5381
34.3249
31.3854
28.9459
27.6266
29.9646
57.5764
407.733
231.226
211.75
218.987
235.422
256.317
279.848
305.136
331.693
359.226
387.541
416.501
446.004
475.972
506.34
537.051
568.051
599.287
630.708
662.261
693.894
725.552
757.182
788.726
820.127
851.329
882.271
912.895
943.14
972.946
1002.25
1031
1059.12
1086.57
1113.26
1139.16
1164.18
1188.27
1211.37
1233.41
1254.33
1274.07
1292.6
1309.95
1326.22
1341.61
1356.36
1370.48
1383.68
1396.63
1412.8
1436.08
1461.2
1479.19
1489.6
1495.25
1498.37
1499.9
1499.67
1496.17
1485.98
1465.96
1441.97
1423.73
1411.82
1403.33
1396
1389.3
1385.08
1387.57
1384.99
1363.51
1341.96
1324.31
1308.77
1293.71
1278.36
1262.49
1246.07
1229.13
1211.73
1193.92
1175.76
1157.3
1138.58
1119.65
1100.54
1081.29
1061.95
1042.54
1023.1
1003.65
984.223
964.851
945.556
926.362
907.291
888.365
869.602
851.021
832.638
814.469
796.526
778.823
761.371
744.179
727.256
710.609
694.246
678.17
662.388
646.901
631.713
616.824
602.236
587.949
573.961
560.272
546.88
533.781
520.972
508.451
496.212
484.252
472.566
461.148
449.994
439.097
428.451
418.052
407.892
397.965
388.266
378.787
369.522
360.466
351.611
342.951
334.48
326.191
318.08
310.139
302.363
294.746
287.282
279.967
272.794
265.759
258.856
252.082
245.43
238.898
232.481
226.174
219.974
213.878
207.881
201.981
196.174
190.457
184.828
179.284
173.823
168.441
163.138
157.911
152.758
147.677
142.668
137.727
132.855
128.049
123.307
118.627
114.01
109.454
104.957
100.519
96.1387
91.8166
87.5519
83.3439
79.1922
75.0962
71.0559
67.0713
63.143
59.2722
55.4609
51.7125
48.0329
44.4314
40.9239
37.538
34.3248
31.3854
28.9459
27.6266
29.9648
57.5765
520.019
282.061
243.775
240.758
249.919
264.975
283.482
304.262
326.665
350.293
374.884
400.255
426.272
452.832
479.849
507.253
534.981
562.973
591.174
619.53
647.988
676.494
704.996
733.44
761.773
789.939
817.884
845.554
872.891
899.842
926.35
952.359
977.814
1002.66
1026.84
1050.3
1072.98
1094.83
1115.79
1135.81
1154.84
1172.85
1189.8
1205.73
1220.71
1234.89
1248.42
1261.22
1272.94
1283.46
1293.82
1305.55
1317.62
1327.27
1333.9
1338.16
1340.77
1342.1
1342.16
1340.55
1336.3
1328.55
1318.86
1310.17
1302.83
1295.81
1288.16
1279.66
1270.86
1262.98
1253.97
1240.61
1226.31
1212.41
1198.7
1184.79
1170.46
1155.64
1140.33
1124.57
1108.42
1091.91
1075.09
1058
1040.69
1023.18
1005.52
987.745
969.883
951.965
934.021
916.08
898.167
880.308
862.525
844.842
827.278
809.852
792.582
775.485
758.576
741.869
725.376
709.108
693.075
677.287
661.752
646.475
631.463
616.721
602.252
588.06
574.145
560.511
547.156
534.082
521.286
508.768
496.526
484.557
472.858
461.425
450.255
439.344
428.687
418.278
408.114
398.188
388.496
379.032
369.789
360.762
351.946
343.334
334.92
326.698
318.663
310.809
303.129
295.618
288.27
281.08
274.042
267.15
260.401
253.788
247.307
240.953
234.721
228.607
222.607
216.716
210.931
205.248
199.664
194.175
188.777
183.468
178.245
173.105
168.046
163.064
158.159
153.328
148.568
143.878
139.257
134.703
130.214
125.789
121.426
117.125
112.885
108.703
104.58
100.514
96.5045
92.5518
88.6553
84.8149
81.0307
77.3029
73.6319
70.0181
66.4628
62.9673
59.534
56.1663
52.8689
49.6491
46.5173
43.4899
40.5927
37.8685
35.3927
33.3101
31.9368
32.1287
37.3373
75.9849
520.025
282.058
243.771
240.754
249.915
264.971
283.477
304.258
326.661
350.288
374.879
400.25
426.268
452.827
479.844
507.248
534.976
562.968
591.169
619.525
647.982
676.488
704.99
733.434
761.766
789.932
817.878
845.547
872.884
899.835
926.343
952.352
977.807
1002.65
1026.83
1050.29
1072.97
1094.82
1115.78
1135.8
1154.84
1172.84
1189.79
1205.72
1220.7
1234.88
1248.41
1261.19
1272.85
1283.32
1293.75
1305.66
1317.86
1327.65
1334.39
1338.73
1341.38
1342.72
1342.79
1341.19
1336.88
1329
1319.21
1310.38
1302.88
1295.72
1287.99
1279.47
1270.74
1263.11
1254.2
1240.87
1226.5
1212.51
1198.75
1184.81
1170.46
1155.63
1140.32
1124.57
1108.41
1091.9
1075.08
1058
1040.68
1023.18
1005.52
987.741
969.878
951.96
934.017
916.076
898.163
880.304
862.522
844.838
827.274
809.848
792.579
775.482
758.573
741.866
725.373
709.105
693.073
677.285
661.749
646.473
631.461
616.719
602.25
588.058
574.143
560.509
547.154
534.08
521.284
508.767
496.524
484.555
472.856
461.424
450.254
439.343
428.685
418.277
408.113
398.187
388.495
379.03
369.788
360.761
351.945
343.333
334.919
326.697
318.662
310.808
303.128
295.617
288.269
281.079
274.041
267.15
260.4
253.787
247.306
240.952
234.72
228.606
222.606
216.716
210.931
205.248
199.664
194.174
188.776
183.468
178.244
173.105
168.045
163.064
158.159
153.327
148.568
143.878
139.257
134.702
130.213
125.788
121.426
117.125
112.884
108.703
104.579
100.513
96.5043
92.5517
88.6551
84.8147
81.0305
77.3028
73.6317
70.018
66.4627
62.9672
59.534
56.1662
52.8689
49.649
46.5172
43.4898
40.5927
37.8685
35.3927
33.3101
31.9368
32.1288
37.3376
75.9851
629.436
333.909
278.342
266.38
269.538
279.999
294.707
312.19
331.632
352.538
374.58
397.532
421.226
445.534
470.354
495.6
521.198
547.083
573.194
599.473
625.865
652.317
678.776
705.189
731.505
757.67
783.633
809.342
834.744
859.787
884.419
908.587
932.242
955.329
977.8
999.603
1020.69
1041.01
1060.51
1079.15
1096.89
1113.69
1129.54
1144.44
1158.43
1171.58
1183.98
1195.56
1206.13
1215.52
1224
1232.13
1239.78
1246.25
1251.21
1254.73
1256.98
1258.07
1258.05
1256.9
1254.42
1250.46
1245.41
1239.98
1234.23
1227.75
1220.21
1211.56
1202.07
1192.23
1181.81
1170.19
1157.93
1145.36
1132.48
1119.2
1105.49
1091.32
1076.72
1061.72
1046.36
1030.68
1014.71
998.505
982.088
965.496
948.764
931.924
915.005
898.037
881.048
864.063
847.108
830.205
813.377
796.645
780.028
763.543
747.209
731.039
715.049
699.251
683.657
668.278
653.124
638.202
623.52
609.085
594.901
580.974
567.307
553.902
540.762
527.888
515.28
502.938
490.861
479.047
467.496
456.204
445.168
434.386
423.853
413.566
403.52
393.71
384.133
374.782
365.652
356.739
348.037
339.54
331.243
323.14
315.225
307.493
299.938
292.555
285.338
278.281
271.379
264.627
258.02
251.553
245.22
239.017
232.94
226.983
221.143
215.414
209.794
204.279
198.863
193.545
188.321
183.186
178.14
173.177
168.297
163.495
158.77
154.12
149.542
145.035
140.596
136.224
131.917
127.674
123.494
119.375
115.316
111.317
107.376
103.492
99.6651
95.8947
92.1804
88.5221
84.9199
81.3741
77.8853
74.4544
71.0824
67.7708
64.5217
61.338
58.2234
55.1835
52.2254
49.3598
46.6017
43.9739
41.5112
39.2707
37.3505
35.9369
35.4335
36.9272
44.7564
93.9274
629.44
333.905
278.338
266.376
269.534
279.995
294.703
312.185
331.628
352.533
374.576
397.528
421.222
445.53
470.349
495.595
521.193
547.078
573.188
599.467
625.86
652.312
678.77
705.184
731.499
757.664
783.627
809.336
834.738
859.781
884.412
908.581
932.235
955.323
977.794
999.596
1020.68
1041
1060.5
1079.14
1096.88
1113.69
1129.54
1144.43
1158.42
1171.58
1183.97
1195.56
1206.11
1215.49
1224.02
1232.24
1239.99
1246.54
1251.56
1255.11
1257.37
1258.46
1258.44
1257.28
1254.77
1250.73
1245.59
1240.06
1234.21
1227.66
1220.08
1211.43
1201.98
1192.23
1181.88
1170.29
1158
1145.4
1132.49
1119.21
1105.48
1091.31
1076.71
1061.71
1046.35
1030.67
1014.71
998.501
982.084
965.492
948.76
931.92
915.001
898.034
881.044
864.06
847.105
830.202
813.374
796.642
780.025
763.541
747.206
731.037
715.046
699.249
683.655
668.276
653.121
638.2
623.518
609.083
594.899
580.972
567.305
553.901
540.761
527.886
515.278
502.936
490.859
479.046
467.495
456.203
445.167
434.385
423.852
413.565
403.519
393.709
384.132
374.781
365.652
356.739
348.036
339.539
331.242
323.139
315.224
307.492
299.938
292.554
285.337
278.28
271.379
264.627
258.02
251.552
245.22
239.017
232.939
226.983
221.142
215.414
209.794
204.278
198.863
193.545
188.32
183.186
178.139
173.177
168.296
163.495
158.77
154.12
149.542
145.035
140.596
136.223
131.917
127.674
123.493
119.374
115.316
111.316
107.375
103.492
99.665
95.8946
92.1803
88.522
84.9198
81.374
77.8852
74.4543
71.0823
67.7707
64.5216
61.3379
58.2234
55.1834
52.2254
49.3597
46.6017
43.9738
41.5112
39.2706
37.3504
35.9369
35.4335
36.9273
44.7568
93.9277
736.526
386.521
314.542
294.361
292.245
298.829
310.442
325.317
342.481
361.339
381.501
402.696
424.725
447.436
470.709
494.445
518.559
542.979
567.636
592.47
617.423
642.44
667.467
692.451
717.343
742.089
766.641
790.947
814.958
838.625
861.897
884.727
907.065
928.865
950.077
970.657
990.558
1009.74
1028.15
1045.76
1062.53
1078.42
1093.43
1107.53
1120.75
1133.11
1144.65
1155.35
1165.13
1173.89
1181.69
1188.71
1194.95
1200.23
1204.41
1207.47
1209.4
1210.25
1210.05
1208.85
1206.67
1203.53
1199.54
1194.86
1189.44
1183.13
1175.78
1167.42
1158.19
1148.33
1137.9
1126.85
1115.29
1103.28
1090.85
1077.98
1064.69
1050.97
1036.85
1022.37
1007.56
992.448
977.073
961.468
945.667
929.702
913.605
897.404
881.13
864.81
848.469
832.134
815.826
799.57
783.385
767.292
751.309
735.453
719.741
704.187
688.805
673.608
658.606
643.81
629.229
614.872
600.745
586.854
573.205
559.803
546.649
533.748
521.101
508.709
496.573
484.693
473.068
461.696
450.576
439.705
429.081
418.701
408.562
398.658
388.987
379.544
370.324
361.323
352.535
343.956
335.58
327.403
319.418
311.62
304.005
296.566
289.298
282.196
275.254
268.468
261.831
255.34
248.989
242.773
236.688
230.728
224.89
219.169
213.561
208.061
202.667
197.374
192.178
187.077
182.067
177.145
172.307
167.552
162.876
158.278
153.754
149.303
144.922
140.61
136.365
132.185
128.07
124.016
120.025
116.093
112.221
108.408
104.652
100.953
97.3116
93.7265
90.198
86.7262
83.3117
79.9551
76.6575
73.4203
70.2452
67.1346
64.0916
61.1202
58.2257
55.4154
52.6991
50.0904
47.6087
45.2827
43.1561
41.2989
39.8317
38.9811
39.2368
41.9146
52.2247
111.603
736.528
386.516
314.538
294.357
292.241
298.825
310.438
325.313
342.477
361.335
381.497
402.692
424.721
447.432
470.705
494.44
518.555
542.974
567.631
592.465
617.418
642.434
667.461
692.446
717.337
742.084
766.635
790.941
814.953
838.619
861.892
884.721
907.06
928.859
950.072
970.651
990.553
1009.73
1028.14
1045.75
1062.52
1078.42
1093.42
1107.52
1120.74
1133.11
1144.65
1155.36
1165.13
1173.89
1181.71
1188.76
1195.03
1200.34
1204.55
1207.61
1209.54
1210.39
1210.19
1208.99
1206.8
1203.63
1199.6
1194.87
1189.42
1183.08
1175.72
1167.36
1158.14
1148.31
1137.91
1126.88
1115.3
1103.29
1090.85
1077.98
1064.68
1050.96
1036.85
1022.37
1007.55
992.444
977.069
961.464
945.664
929.699
913.601
897.401
881.127
864.807
848.467
832.131
815.824
799.567
783.383
767.29
751.307
735.451
719.739
704.185
688.803
673.606
658.604
643.808
629.228
614.87
600.743
586.853
573.204
559.801
546.648
533.747
521.1
508.708
496.572
484.692
473.066
461.695
450.575
439.704
429.08
418.7
408.561
398.657
388.986
379.543
370.323
361.322
352.534
343.955
335.58
327.402
319.417
311.62
304.004
296.565
289.297
282.195
275.253
268.467
261.831
255.34
248.989
242.773
236.687
230.728
224.89
219.168
213.56
208.061
202.667
197.373
192.178
187.077
182.067
177.144
172.307
167.552
162.876
158.278
153.754
149.303
144.922
140.61
136.365
132.185
128.069
124.016
120.024
116.093
112.221
108.407
104.652
100.953
97.3115
93.7264
90.1979
86.7261
83.3116
79.955
76.6574
73.4202
70.2451
67.1345
64.0915
61.1201
58.2257
55.4154
52.699
50.0903
47.6087
45.2827
43.156
41.2989
39.8316
38.9811
39.2369
41.9147
52.2252
111.603
841.78
439.772
351.985
324.044
317.113
320.274
329.24
341.95
357.268
374.505
393.208
413.063
433.84
455.364
477.497
500.127
523.158
546.51
570.109
593.889
617.79
641.753
665.725
689.652
713.483
737.168
760.658
783.903
806.857
829.47
851.698
873.492
894.809
915.602
935.828
955.444
974.408
992.68
1010.22
1027
1042.98
1058.13
1072.44
1085.88
1098.47
1110.2
1121.09
1131.13
1140.3
1148.55
1155.89
1162.36
1167.96
1172.64
1176.33
1179.01
1180.66
1181.28
1180.9
1179.57
1177.35
1174.26
1170.39
1165.75
1160.33
1154.05
1146.86
1138.78
1129.9
1120.34
1110.19
1099.48
1088.27
1076.59
1064.46
1051.89
1038.9
1025.52
1011.76
997.663
983.248
968.552
953.604
938.438
923.084
907.573
891.934
876.195
860.385
844.529
828.653
812.781
796.934
781.136
765.405
749.762
734.224
718.807
703.528
688.401
673.438
658.652
644.054
629.655
615.462
601.485
587.729
574.201
560.906
547.849
535.032
522.459
510.131
498.051
486.217
474.631
463.292
452.198
441.348
430.74
420.371
410.239
400.34
390.67
381.226
372.004
362.998
354.206
345.621
337.239
329.055
321.064
313.261
305.641
298.198
290.928
283.825
276.883
270.099
263.467
256.981
250.637
244.431
238.357
232.411
226.589
220.886
215.297
209.82
204.45
199.183
194.015
188.944
183.966
179.077
174.275
169.557
164.92
160.362
155.879
151.471
147.135
142.868
138.67
134.538
130.471
126.468
122.527
118.647
114.827
111.067
107.366
103.722
100.137
96.6096
93.1396
89.7275
86.3738
83.0792
79.8449
76.6723
73.5633
70.5205
67.5469
64.6465
61.8245
59.0877
56.4451
53.9088
51.4954
49.2285
47.1424
45.2891
43.7517
42.6722
42.3177
43.2639
47.055
59.7654
129.147
841.781
439.767
351.981
324.039
317.109
320.27
329.236
341.946
357.264
374.501
393.204
413.058
433.835
455.359
477.492
500.122
523.154
546.505
570.104
593.884
617.785
641.748
665.72
689.647
713.478
737.163
760.652
783.898
806.851
829.465
851.692
873.487
894.803
915.597
935.823
955.439
974.403
992.675
1010.22
1026.99
1042.97
1058.13
1072.43
1085.88
1098.47
1110.2
1121.09
1131.14
1140.3
1148.55
1155.89
1162.37
1167.98
1172.66
1176.37
1179.04
1180.69
1181.31
1180.93
1179.6
1177.37
1174.28
1170.4
1165.75
1160.31
1154.02
1146.83
1138.76
1129.88
1120.33
1110.19
1099.48
1088.27
1076.59
1064.45
1051.89
1038.9
1025.52
1011.76
997.659
983.245
968.548
953.601
938.435
923.081
907.57
891.931
876.192
860.382
844.527
828.651
812.778
796.932
781.134
765.403
749.76
734.222
718.805
703.526
688.399
673.436
658.65
644.053
629.653
615.461
601.483
587.727
574.199
560.905
547.847
535.031
522.458
510.13
498.049
486.216
474.63
463.291
452.197
441.347
430.739
420.37
410.238
400.339
390.669
381.225
372.003
362.998
354.205
345.62
337.238
329.054
321.063
313.261
305.64
298.198
290.927
283.824
276.883
270.099
263.466
256.98
250.637
244.431
238.357
232.411
226.588
220.885
215.297
209.82
204.449
199.182
194.015
188.944
183.965
179.077
174.275
169.557
164.92
160.361
155.879
151.471
147.135
142.868
138.67
134.538
130.471
126.467
122.526
118.646
114.827
111.067
107.365
103.722
100.137
96.6095
93.1395
89.7274
86.3737
83.0791
79.8448
76.6722
73.5633
70.5204
67.5468
64.6464
61.8244
59.0877
56.4451
53.9087
51.4954
49.2285
47.1423
45.289
43.7516
42.6722
42.3177
43.264
47.0552
59.766
129.147
945.845
493.758
390.499
355.112
343.673
343.72
350.344
361.189
374.958
390.865
408.395
427.192
446.996
467.609
488.875
510.669
532.886
555.435
578.238
601.223
624.327
647.489
670.653
693.766
716.776
739.632
762.288
784.694
806.805
828.576
849.96
870.915
891.398
911.365
930.777
949.592
967.774
985.284
1002.09
1018.16
1033.46
1047.96
1061.66
1074.53
1086.55
1097.74
1108.09
1117.59
1126.23
1134.01
1140.9
1146.92
1152.05
1156.28
1159.57
1161.91
1163.28
1163.68
1163.14
1161.68
1159.35
1156.2
1152.26
1147.55
1142.06
1135.78
1128.69
1120.81
1112.19
1102.9
1093
1082.55
1071.59
1060.14
1048.24
1035.91
1023.17
1010.05
996.57
982.762
968.654
954.274
939.653
924.82
909.805
894.638
879.345
863.955
848.493
832.986
817.456
801.928
786.423
770.962
755.565
740.25
725.034
709.935
694.966
680.142
665.476
650.98
636.665
622.54
608.615
594.896
581.392
568.107
555.048
542.219
529.622
517.262
505.139
493.256
481.613
470.21
459.046
448.122
437.434
426.983
416.764
406.776
397.015
387.478
378.162
369.062
360.174
351.494
343.017
334.74
326.656
318.762
311.052
303.522
296.166
288.979
281.957
275.094
268.386
261.827
255.413
249.139
243.001
236.994
231.113
225.355
219.715
214.188
208.771
203.461
198.253
193.144
188.131
183.211
178.379
173.634
168.972
164.392
159.89
155.464
151.112
146.832
142.622
138.48
134.406
130.396
126.45
122.567
118.746
114.986
111.285
107.645
104.064
100.542
97.0793
93.6758
90.332
87.0488
83.8272
80.6688
77.5753
74.5494
71.5939
68.7129
65.9112
63.1952
60.5729
58.055
55.656
53.3953
51.3005
49.4113
47.788
46.5265
45.7904
45.8871
47.479
52.3399
67.4058
146.665
945.845
493.752
390.494
355.107
343.669
343.715
350.34
361.185
374.954
390.86
408.391
427.188
446.992
467.604
488.871
510.665
532.881
555.43
578.233
601.218
624.322
647.484
670.648
693.761
716.771
739.627
762.283
784.689
806.8
828.571
849.955
870.91
891.392
911.36
930.772
949.587
967.769
985.279
1002.08
1018.15
1033.45
1047.96
1061.65
1074.52
1086.55
1097.74
1108.09
1117.59
1126.23
1134.01
1140.9
1146.92
1152.05
1156.28
1159.57
1161.91
1163.27
1163.68
1163.13
1161.68
1159.35
1156.2
1152.25
1147.54
1142.06
1135.78
1128.68
1120.8
1112.18
1102.89
1093
1082.55
1071.58
1060.14
1048.24
1035.9
1023.17
1010.05
996.567
982.759
968.65
954.271
939.65
924.817
909.803
894.635
879.343
863.952
848.491
832.983
817.454
801.926
786.421
770.96
755.563
740.248
725.032
709.933
694.964
680.14
665.475
650.979
636.663
622.539
608.613
594.895
581.39
568.106
555.047
542.217
529.621
517.261
505.138
493.255
481.611
470.208
459.045
448.121
437.434
426.982
416.763
406.775
397.014
387.477
378.161
369.061
360.173
351.493
343.017
334.739
326.656
318.762
311.052
303.521
296.165
288.978
281.956
275.093
268.385
261.826
255.413
249.139
243.001
236.994
231.113
225.355
219.714
214.188
208.771
203.461
198.253
193.144
188.131
183.21
178.379
173.634
168.972
164.392
159.89
155.464
151.112
146.832
142.622
138.48
134.405
130.396
126.45
122.567
118.746
114.985
111.285
107.645
104.064
100.542
97.0792
93.6757
90.3319
87.0487
83.8271
80.6687
77.5753
74.5493
71.5938
68.7128
65.9112
63.1951
60.5728
58.055
55.656
53.3953
51.3004
49.4112
47.788
46.5265
45.7904
45.887
47.479
52.34
67.4065
146.665
1049.25
548.555
430.054
387.418
371.68
368.826
373.325
382.521
394.953
409.74
426.304
444.246
463.275
483.173
503.766
524.915
546.505
568.438
590.627
612.998
635.483
658.018
680.546
703.012
725.364
747.552
769.528
791.246
812.662
833.729
854.407
874.653
894.427
913.688
932.398
950.521
968.02
984.862
1001.01
1016.45
1031.14
1045.06
1058.19
1070.52
1082.03
1092.72
1102.57
1111.59
1119.76
1127.08
1133.54
1139.13
1143.84
1147.67
1150.6
1152.61
1153.71
1153.9
1153.18
1151.6
1149.17
1145.92
1141.9
1137.12
1131.58
1125.29
1118.26
1110.49
1102.04
1092.93
1083.23
1072.97
1062.2
1050.94
1039.23
1027.1
1014.56
1001.66
988.405
974.833
960.969
946.842
932.48
917.912
903.166
888.27
873.25
858.132
842.943
827.706
812.445
797.182
781.939
766.735
751.59
736.521
721.546
706.681
691.94
677.338
662.886
648.597
634.481
620.548
606.807
593.265
579.93
566.807
553.902
541.219
528.762
516.534
504.537
492.771
481.24
469.942