/*--------------------------------*- C++ -*----------------------------------*\
  =========                 |
  \\      /  F ield         | OpenFOAM: The Open Source CFD Toolbox
   \\    /   O peration     | Website:  https://openfoam.org
    \\  /    A nd           | Version:  8
     \\/     M anipulation  |
\*---------------------------------------------------------------------------*/
FoamFile
{
    version     2.0;
    format      ascii;
    class       volScalarField;
    location    "4600";
    object      k;
}
// * * * * * * * * * * * * * * * * * * * * * * * * * * * * * * * * * * * * * //

dimensions      [0 2 -2 0 0 0 0];

internalField   nonuniform List<scalar> 
46000
(
0.0369907
0.126781
0.220253
0.305995
0.386611
0.464349
0.540148
0.614309
0.687253
0.759295
0.830689
0.901569
0.971582
1.04101
1.10991
1.17832
1.24622
1.31358
1.38037
1.44655
1.51205
1.57684
1.64083
1.70397
1.76618
1.82741
1.88756
1.94658
2.00439
2.06091
2.11607
2.16981
2.22203
2.27267
2.32166
2.36891
2.41435
2.45788
2.49942
2.53883
2.57595
2.61057
2.6423
2.67055
2.69441
2.71266
2.72399
2.72773
2.72428
2.71246
2.67938
2.5913
2.42727
2.34254
2.31835
2.31378
2.31519
2.31986
2.3301
2.35441
2.41187
2.52925
2.68306
2.74585
2.76425
2.76704
2.76531
2.75704
2.7276
2.64671
2.45476
2.66965
2.72127
2.725
2.7114
2.69136
2.66834
2.64349
2.61725
2.58985
2.56145
2.53217
2.50211
2.47137
2.44002
2.40812
2.37576
2.34299
2.30987
2.27645
2.24278
2.20892
2.17492
2.14081
2.10665
2.07247
2.03831
2.00421
1.97022
1.93635
1.90264
1.86912
1.83583
1.80277
1.76999
1.7375
1.70532
1.67347
1.64197
1.61083
1.58006
1.54969
1.51971
1.49014
1.46098
1.43224
1.40393
1.37605
1.3486
1.32158
1.295
1.26884
1.24312
1.21782
1.19295
1.1685
1.14446
1.12083
1.0976
1.07477
1.05232
1.03026
1.00857
0.987246
0.966277
0.945657
0.925375
0.905422
0.885791
0.86647
0.847452
0.828728
0.810287
0.792122
0.774224
0.756583
0.739192
0.722041
0.705124
0.688431
0.671956
0.655691
0.639629
0.623763
0.608086
0.592592
0.577274
0.562128
0.547146
0.532325
0.517658
0.50314
0.488767
0.474534
0.460436
0.446469
0.432629
0.418912
0.405313
0.391833
0.378468
0.365209
0.352049
0.338985
0.326011
0.313122
0.300313
0.287579
0.274912
0.262309
0.24977
0.237282
0.224836
0.212421
0.200025
0.187638
0.175244
0.162827
0.150367
0.137842
0.125223
0.112478
0.0995632
0.0864254
0.0729939
0.0591735
0.0448241
0.0298564
0.0145691
0.00306271
0.0369792
0.126758
0.220235
0.30599
0.386612
0.464352
0.54015
0.614311
0.687254
0.759296
0.83069
0.90157
0.971582
1.04101
1.10991
1.17832
1.24622
1.31358
1.38037
1.44655
1.51205
1.57683
1.64083
1.70397
1.76618
1.8274
1.88756
1.94658
2.00439
2.06091
2.11607
2.1698
2.22203
2.27267
2.32166
2.36891
2.41435
2.45788
2.49941
2.53882
2.57595
2.61057
2.6423
2.67055
2.6944
2.71263
2.72393
2.72768
2.72431
2.71264
2.67971
2.59171
2.42752
2.34231
2.31783
2.31313
2.31449
2.31913
2.32933
2.35355
2.41088
2.52821
2.68227
2.7454
2.76403
2.76698
2.76539
2.75727
2.72801
2.64732
2.45469
2.6691
2.72099
2.72488
2.71135
2.69134
2.66833
2.64349
2.61725
2.58985
2.56145
2.53217
2.50211
2.47137
2.44001
2.40812
2.37576
2.34299
2.30986
2.27644
2.24278
2.20892
2.17491
2.1408
2.10664
2.07246
2.03831
2.00421
1.97021
1.93634
1.90264
1.86912
1.83582
1.80277
1.76999
1.7375
1.70532
1.67347
1.64197
1.61083
1.58006
1.54968
1.51971
1.49013
1.46098
1.43224
1.40393
1.37605
1.3486
1.32158
1.29499
1.26884
1.24312
1.21782
1.19295
1.16849
1.14445
1.12082
1.0976
1.07476
1.05232
1.03026
1.00857
0.987243
0.966275
0.945654
0.925373
0.90542
0.885789
0.866468
0.84745
0.828726
0.810286
0.792121
0.774222
0.756581
0.73919
0.72204
0.705122
0.68843
0.671955
0.65569
0.639628
0.623762
0.608085
0.592591
0.577273
0.562127
0.547145
0.532324
0.517656
0.503139
0.488766
0.474532
0.460435
0.446468
0.432628
0.418911
0.405312
0.391832
0.378467
0.365208
0.352048
0.338984
0.32601
0.313121
0.300313
0.287578
0.274911
0.262309
0.24977
0.237282
0.224835
0.21242
0.200025
0.187638
0.175244
0.162827
0.150367
0.137842
0.125223
0.112478
0.0995631
0.0864253
0.0729939
0.0591735
0.0448242
0.0298564
0.0145691
0.00306271
0.126793
0.320972
0.460662
0.579534
0.687332
0.788024
0.88353
0.975254
1.06411
1.15073
1.23537
1.31839
1.39998
1.48032
1.55952
1.63766
1.71479
1.79092
1.86607
1.94022
2.01334
2.0854
2.15636
2.22617
2.29479
2.36214
2.42818
2.49283
2.55605
2.61775
2.67788
2.73637
2.79315
2.84815
2.9013
2.95253
3.00176
3.04892
3.0939
3.1366
3.17689
3.21456
3.24934
3.28077
3.30819
3.33077
3.34768
3.35866
3.36439
3.36542
3.35771
3.33081
3.28803
3.25972
3.24921
3.2477
3.24975
3.25366
3.26007
3.27206
3.29553
3.33551
3.38026
3.40326
3.40901
3.40751
3.40415
3.39848
3.38534
3.35944
3.33641
3.34802
3.35481
3.34616
3.3285
3.30621
3.28125
3.25444
3.22615
3.1966
3.16595
3.13433
3.10184
3.06856
3.0346
3.00002
2.96488
2.92927
2.89323
2.85682
2.82011
2.78314
2.74596
2.70862
2.67118
2.63367
2.59613
2.55861
2.52114
2.48377
2.44652
2.40943
2.37252
2.33584
2.29939
2.26321
2.22733
2.19175
2.15651
2.12161
2.08708
2.05292
2.01915
1.98579
1.95283
1.92029
1.88817
1.85649
1.82523
1.79441
1.76402
1.73407
1.70455
1.67546
1.64681
1.61858
1.59076
1.56337
1.53638
1.5098
1.48361
1.4578
1.43238
1.40733
1.38263
1.35829
1.33429
1.31062
1.28728
1.26424
1.24151
1.21906
1.1969
1.17501
1.15338
1.132
1.11086
1.08995
1.06926
1.04878
1.0285
1.00842
0.988513
0.968785
0.949222
0.929817
0.91056
0.891444
0.872462
0.853604
0.834864
0.816233
0.797706
0.779273
0.760929
0.742665
0.724474
0.706348
0.68828
0.670263
0.652289
0.634351
0.616437
0.598538
0.580643
0.562742
0.544821
0.526868
0.508868
0.490805
0.472661
0.45442
0.436057
0.417546
0.398857
0.379956
0.360802
0.341346
0.321531
0.301286
0.280523
0.25913
0.236962
0.213824
0.189442
0.163415
0.135102
0.103333
0.0650534
0.0144511
0.126814
0.32098
0.460663
0.579534
0.687332
0.788025
0.88353
0.975254
1.06411
1.15073
1.23537
1.31839
1.39998
1.48031
1.55951
1.63766
1.71478
1.79092
1.86607
1.94022
2.01334
2.0854
2.15636
2.22617
2.29478
2.36214
2.42817
2.49283
2.55604
2.61775
2.67788
2.73637
2.79314
2.84814
2.9013
2.95253
3.00176
3.04891
3.09389
3.1366
3.17689
3.21456
3.24934
3.28076
3.30818
3.33074
3.34764
3.35863
3.36443
3.36553
3.35777
3.3307
3.28764
3.25906
3.24838
3.24677
3.24877
3.25265
3.25902
3.27101
3.29458
3.33476
3.37975
3.40293
3.40884
3.40748
3.40423
3.39864
3.38549
3.35947
3.33605
3.34769
3.35463
3.34606
3.32845
3.30619
3.28124
3.25443
3.22614
3.1966
3.16595
3.13432
3.10183
3.06856
3.03459
3.00001
2.96488
2.92926
2.89322
2.85682
2.8201
2.78313
2.74595
2.70862
2.67117
2.63366
2.59612
2.5586
2.52114
2.48376
2.44651
2.40942
2.37252
2.33583
2.29939
2.26321
2.22732
2.19175
2.1565
2.12161
2.08707
2.05292
2.01915
1.98578
1.95283
1.92029
1.88817
1.85648
1.82523
1.7944
1.76402
1.73406
1.70455
1.67546
1.6468
1.61857
1.59076
1.56336
1.53638
1.50979
1.4836
1.4578
1.43238
1.40732
1.38263
1.35829
1.33429
1.31062
1.28727
1.26424
1.2415
1.21906
1.1969
1.17501
1.15338
1.132
1.11086
1.08995
1.06926
1.04878
1.0285
1.00841
0.988511
0.968783
0.94922
0.929814
0.910558
0.891442
0.872459
0.853601
0.834861
0.816231
0.797703
0.779271
0.760927
0.742663
0.724472
0.706346
0.688278
0.670261
0.652288
0.634349
0.616435
0.598536
0.580642
0.56274
0.544819
0.526866
0.508867
0.490803
0.47266
0.454418
0.436055
0.417545
0.398856
0.379955
0.3608
0.341345
0.32153
0.301285
0.280522
0.259129
0.236961
0.213823
0.189442
0.163415
0.135101
0.103333
0.0650535
0.0144511
0.223649
0.464908
0.628619
0.765073
0.888419
1.00343
1.11258
1.21731
1.31854
1.41694
1.51296
1.60695
1.69916
1.78975
1.87888
1.96662
2.05305
2.13819
2.22207
2.30467
2.38598
2.46599
2.54464
2.6219
2.69772
2.77205
2.84483
2.916
2.9855
3.05327
3.11924
3.18335
3.24553
3.30571
3.36383
3.4198
3.47357
3.52505
3.57415
3.62077
3.6648
3.70608
3.74441
3.77949
3.81093
3.8383
3.8613
3.88003
3.89511
3.90702
3.91503
3.91847
3.92001
3.91931
3.92024
3.92284
3.92624
3.92994
3.93397
3.93893
3.94545
3.95236
3.95475
3.95421
3.95008
3.94407
3.93768
3.9307
3.92172
3.91084
3.9017
3.88517
3.87004
3.85147
3.82899
3.8035
3.77575
3.74617
3.71506
3.68259
3.64892
3.61418
3.57847
3.5419
3.50455
3.46649
3.42781
3.38858
3.34885
3.30869
3.26817
3.22734
3.18625
3.14496
3.10352
3.06197
3.02037
2.97876
2.93717
2.89566
2.85426
2.813
2.77192
2.73104
2.69041
2.65005
2.60998
2.57022
2.53081
2.49175
2.45307
2.41479
2.37691
2.33945
2.30242
2.26584
2.2297
2.19401
2.15878
2.12402
2.08972
2.05589
2.02252
1.98961
1.95717
1.92518
1.89365
1.86256
1.83191
1.8017
1.77191
1.74254
1.71358
1.68502
1.65685
1.62906
1.60164
1.57457
1.54786
1.52148
1.49542
1.46968
1.44424
1.41909
1.39422
1.36962
1.34527
1.32117
1.2973
1.27366
1.25022
1.22699
1.20395
1.18109
1.1584
1.13588
1.1135
1.09127
1.06917
1.04719
1.02532
1.00357
0.981906
0.960332
0.938838
0.917414
0.89605
0.87474
0.853471
0.832237
0.811026
0.78983
0.768636
0.747433
0.726207
0.704946
0.683634
0.662255
0.640792
0.619226
0.597533
0.575693
0.553678
0.531456
0.50899
0.48624
0.463157
0.439684
0.41575
0.391273
0.366149
0.340248
0.313403
0.285388
0.255891
0.224446
0.190266
0.151695
0.103549
0.0295077
0.223657
0.464911
0.628619
0.765073
0.888418
1.00343
1.11257
1.21731
1.31854
1.41694
1.51296
1.60695
1.69915
1.78975
1.87887
1.96662
2.05305
2.13819
2.22206
2.30467
2.38598
2.46598
2.54464
2.6219
2.69772
2.77205
2.84483
2.916
2.9855
3.05327
3.11924
3.18335
3.24552
3.30571
3.36382
3.4198
3.47356
3.52504
3.57414
3.62077
3.6648
3.70608
3.74441
3.77948
3.81092
3.83829
3.86129
3.88005
3.89516
3.90706
3.91502
3.91842
3.91989
3.91912
3.91999
3.92256
3.92595
3.92963
3.93365
3.93861
3.94517
3.95211
3.95456
3.9541
3.95005
3.94409
3.93774
3.93075
3.92171
3.91072
3.90158
3.8851
3.86999
3.85143
3.82897
3.80349
3.77574
3.74617
3.71505
3.68258
3.64892
3.61417
3.57847
3.5419
3.50454
3.46649
3.42781
3.38857
3.34884
3.30869
3.26817
3.22733
3.18624
3.14495
3.10351
3.06197
3.02037
2.97875
2.93717
2.89566
2.85425
2.81299
2.77191
2.73104
2.69041
2.65004
2.60997
2.57022
2.5308
2.49175
2.45307
2.41478
2.3769
2.33945
2.30242
2.26583
2.22969
2.19401
2.15878
2.12402
2.08972
2.05588
2.02252
1.98961
1.95717
1.92518
1.89364
1.86256
1.83191
1.8017
1.77191
1.74254
1.71358
1.68502
1.65685
1.62906
1.60163
1.57457
1.54785
1.52147
1.49542
1.46968
1.44424
1.41909
1.39422
1.36961
1.34527
1.32117
1.2973
1.27365
1.25022
1.22699
1.20395
1.18109
1.1584
1.13587
1.1135
1.09126
1.06916
1.04719
1.02532
1.00356
0.981903
0.96033
0.938835
0.917411
0.896048
0.874737
0.853469
0.832234
0.811024
0.789828
0.768634
0.747431
0.726206
0.704944
0.683632
0.662254
0.640791
0.619224
0.597532
0.575692
0.553677
0.531454
0.508989
0.486239
0.463156
0.439682
0.415749
0.391272
0.366148
0.340248
0.313402
0.285387
0.255891
0.224446
0.190266
0.151695
0.103549
0.0295077
0.314829
0.590548
0.772213
0.921184
1.05525
1.18026
1.29908
1.41328
1.52383
1.63138
1.7364
1.83921
1.94004
2.03909
2.13647
2.23228
2.32658
2.4194
2.51076
2.60066
2.68907
2.77598
2.86135
2.94514
3.02729
3.10777
3.1865
3.26344
3.33851
3.41167
3.48283
3.55194
3.61893
3.68373
3.74627
3.80649
3.86431
3.91965
3.97243
4.02257
4.06996
4.11449
4.15601
4.19436
4.22932
4.26074
4.28854
4.31288
4.33401
4.35205
4.36705
4.3797
4.39075
4.39884
4.40519
4.41057
4.41518
4.41897
4.42188
4.42381
4.42441
4.42257
4.41723
4.41047
4.40245
4.39341
4.38367
4.37303
4.36095
4.34737
4.33284
4.31303
4.29166
4.26807
4.24194
4.21347
4.18297
4.15069
4.11683
4.08155
4.045
4.0073
3.96856
3.92888
3.88834
3.84704
3.80505
3.76244
3.71929
3.67566
3.63162
3.58722
3.54253
3.49761
3.4525
3.40726
3.36195
3.3166
3.27128
3.22601
3.18084
3.13581
3.09096
3.04632
3.00192
2.9578
2.91398
2.8705
2.82736
2.7846
2.74224
2.7003
2.65878
2.6177
2.57709
2.53694
2.49727
2.45808
2.41939
2.38118
2.34348
2.30627
2.26956
2.23335
2.19763
2.16241
2.12767
2.09341
2.05962
2.02631
1.99345
1.96104
1.92908
1.89754
1.86643
1.83573
1.80542
1.7755
1.74596
1.71678
1.68795
1.65946
1.6313
1.60344
1.57589
1.54863
1.52164
1.49492
1.46845
1.44222
1.41621
1.39042
1.36484
1.33945
1.31424
1.2892
1.26432
1.23959
1.215
1.19053
1.16619
1.14196
1.11782
1.09378
1.06981
1.04591
1.02208
0.998289
0.974541
0.95082
0.927118
0.903422
0.879721
0.856001
0.832249
0.808448
0.784584
0.760639
0.736594
0.712428
0.688118
0.663638
0.63896
0.61405
0.588871
0.563377
0.537518
0.511234
0.484452
0.457084
0.429025
0.400139
0.370253
0.339133
0.306445
0.271669
0.233858
0.190843
0.135652
0.0442605
0.314829
0.590548
0.772212
0.921183
1.05525
1.18026
1.29907
1.41328
1.52383
1.63138
1.7364
1.8392
1.94004
2.03909
2.13647
2.23228
2.32658
2.4194
2.51076
2.60065
2.68907
2.77598
2.86135
2.94513
3.02729
3.10776
3.1865
3.26343
3.33851
3.41166
3.48282
3.55193
3.61892
3.68372
3.74627
3.80648
3.8643
3.91964
3.97243
4.02257
4.06996
4.11449
4.15601
4.19435
4.22932
4.26073
4.28854
4.31289
4.33402
4.35203
4.36698
4.37961
4.39067
4.39876
4.40511
4.41049
4.4151
4.41889
4.4218
4.42375
4.42437
4.42256
4.41723
4.41049
4.40248
4.39345
4.38371
4.37305
4.36094
4.34734
4.33287
4.31305
4.29166
4.26806
4.24193
4.21346
4.18296
4.15068
4.11682
4.08155
4.045
4.0073
3.96856
3.92887
3.88834
3.84704
3.80504
3.76244
3.71929
3.67566
3.63161
3.58721
3.54252
3.4976
3.45249
3.40726
3.36194
3.3166
3.27127
3.226
3.18083
3.1358
3.09095
3.04631
3.00192
2.9578
2.91398
2.87049
2.82736
2.7846
2.74224
2.70029
2.65877
2.6177
2.57708
2.53694
2.49727
2.45808
2.41938
2.38118
2.34347
2.30627
2.26956
2.23334
2.19763
2.1624
2.12766
2.0934
2.05962
2.0263
1.99345
1.96104
1.92907
1.89754
1.86643
1.83572
1.80542
1.7755
1.74596
1.71678
1.68795
1.65946
1.63129
1.60344
1.57589
1.54863
1.52164
1.49492
1.46845
1.44222
1.41621
1.39042
1.36484
1.33944
1.31423
1.28919
1.26431
1.23958
1.21499
1.19053
1.16619
1.14196
1.11782
1.09378
1.06981
1.04591
1.02208
0.998287
0.974539
0.950819
0.927116
0.903421
0.87972
0.856
0.832247
0.808447
0.784583
0.760638
0.736593
0.712427
0.688116
0.663637
0.638959
0.614049
0.58887
0.563376
0.537518
0.511233
0.484451
0.457083
0.429024
0.400138
0.370252
0.339132
0.306445
0.271669
0.233858
0.190843
0.135653
0.0442606
0.402123
0.706292
0.904067
1.06401
1.20689
1.33996
1.46653
1.58836
1.70646
1.8215
1.93394
2.04408
2.15215
2.25832
2.3627
2.46537
2.56639
2.66579
2.76357
2.85973
2.95426
3.04711
3.13827
3.22768
3.31529
3.40106
3.48492
3.56681
3.64668
3.72445
3.80007
3.87346
3.94457
4.01332
4.07965
4.14348
4.20476
4.2634
4.31932
4.37246
4.42273
4.47002
4.51426
4.55533
4.59314
4.62764
4.65882
4.68677
4.71154
4.73312
4.75162
4.76756
4.78131
4.79248
4.8014
4.8085
4.81401
4.81797
4.82036
4.82105
4.81978
4.81608
4.80975
4.80162
4.79193
4.78074
4.76813
4.75401
4.73818
4.72057
4.70112
4.67869
4.65406
4.62725
4.59824
4.56714
4.53412
4.49934
4.46296
4.42513
4.38597
4.3456
4.30413
4.26166
4.21828
4.17408
4.12914
4.08353
4.03733
3.99061
3.94343
3.89587
3.84799
3.79984
3.75149
3.70299
3.65439
3.60574
3.5571
3.50851
3.46002
3.41167
3.36349
3.31552
3.26781
3.22038
3.17326
3.12648
3.08008
3.03406
2.98846
2.94329
2.89858
2.85433
2.81056
2.76729
2.72451
2.68225
2.64051
2.59929
2.5586
2.51844
2.4788
2.43969
2.40111
2.36305
2.3255
2.28847
2.25195
2.21592
2.18038
2.14532
2.11074
2.07661
2.04293
2.00969
1.97688
1.94448
1.91248
1.88086
1.84963
1.81875
1.78823
1.75803
1.72816
1.6986
1.66934
1.64035
1.61163
1.58317
1.55496
1.52697
1.4992
1.47163
1.44426
1.41708
1.39006
1.3632
1.33649
1.30991
1.28346
1.25712
1.23089
1.20476
1.1787
1.15272
1.1268
1.10093
1.0751
1.04929
1.02351
0.997725
0.971935
0.946123
0.920275
0.894375
0.868405
0.842349
0.816186
0.789894
0.763451
0.736829
0.71
0.682929
0.655577
0.627901
0.599847
0.571356
0.542354
0.512754
0.482446
0.451296
0.419123
0.385679
0.3506
0.313284
0.272584
0.225805
0.164429
0.058534
0.402122
0.706292
0.904066
1.06401
1.20688
1.33995
1.46653
1.58835
1.70646
1.8215
1.93393
2.04407
2.15214
2.25831
2.36269
2.46537
2.56639
2.66579
2.76357
2.85973
2.95425
3.04711
3.13826
3.22767
3.31529
3.40105
3.48491
3.56681
3.64667
3.72445
3.80006
3.87346
3.94456
4.01332
4.07964
4.14348
4.20475
4.26339
4.31932
4.37246
4.42272
4.47002
4.51426
4.55533
4.59314
4.62763
4.65882
4.68676
4.71153
4.7331
4.75159
4.76753
4.7813
4.79249
4.80142
4.80854
4.81404
4.81801
4.8204
4.8211
4.81984
4.81613
4.8098
4.80166
4.79195
4.78076
4.76814
4.754
4.73817
4.72056
4.70113
4.6787
4.65406
4.62725
4.59824
4.56714
4.53411
4.49934
4.46296
4.42512
4.38596
4.3456
4.30413
4.26166
4.21828
4.17407
4.12913
4.08352
4.03732
3.9906
3.94343
3.89587
3.84798
3.79984
3.75148
3.70298
3.65438
3.60574
3.5571
3.50851
3.46002
3.41166
3.36348
3.31552
3.2678
3.22037
3.17326
3.12648
3.08007
3.03406
2.98846
2.94329
2.89857
2.85432
2.81056
2.76728
2.72451
2.68225
2.64051
2.59929
2.5586
2.51843
2.4788
2.43969
2.4011
2.36304
2.3255
2.28847
2.25194
2.21592
2.18038
2.14532
2.11073
2.07661
2.04293
2.00969
1.97687
1.94447
1.91247
1.88086
1.84962
1.81875
1.78822
1.75803
1.72816
1.6986
1.66933
1.64035
1.61163
1.58317
1.55495
1.52697
1.4992
1.47163
1.44426
1.41707
1.39005
1.3632
1.33648
1.30991
1.28346
1.25712
1.23089
1.20475
1.1787
1.15272
1.1268
1.10092
1.07509
1.04929
1.0235
0.997723
0.971934
0.946122
0.920274
0.894373
0.868404
0.842347
0.816184
0.789893
0.76345
0.736828
0.709999
0.682928
0.655577
0.6279
0.599847
0.571355
0.542353
0.512753
0.482446
0.451296
0.419122
0.385679
0.3506
0.313284
0.272584
0.225805
0.164429
0.0585342
0.487247
0.815555
1.02833
1.19876
1.3499
1.49028
1.62372
1.7522
1.87685
1.99838
2.11724
2.23374
2.34811
2.46048
2.57097
2.67965
2.78655
2.8917
2.99509
3.09673
3.19659
3.29463
3.39083
3.48512
3.57747
3.66782
3.7561
3.84227
3.92625
4.00799
4.08741
4.16446
4.23907
4.31118
4.3807
4.4476
4.51178
4.57319
4.63176
4.68741
4.74008
4.78969
4.83618
4.87948
4.91954
4.95635
4.98991
5.02026
5.04743
5.0714
5.09225
5.11029
5.12574
5.13861
5.14906
5.15726
5.16337
5.16743
5.16946
5.16941
5.16717
5.16259
5.15567
5.14663
5.13561
5.12264
5.10774
5.09091
5.07212
5.05134
5.02855
5.00346
4.97621
4.94684
4.9154
4.88197
4.84666
4.80962
4.77098
4.73084
4.68935
4.6466
4.6027
4.55775
4.51185
4.46508
4.41752
4.36925
4.32036
4.2709
4.22097
4.17061
4.1199
4.06891
4.01769
3.96629
3.91479
3.86323
3.81166
3.76014
3.7087
3.6574
3.60628
3.55537
3.50472
3.45435
3.4043
3.35461
3.3053
3.25639
3.20791
3.15988
3.11232
3.06524
3.01867
2.97261
2.92708
2.88208
2.83762
2.79371
2.75034
2.70754
2.66529
2.62359
2.58244
2.54184
2.50179
2.46228
2.42329
2.38484
2.34689
2.30946
2.27252
2.23606
2.20008
2.16457
2.1295
2.09487
2.06066
2.02687
1.99347
1.96045
1.9278
1.89551
1.86356
1.83193
1.80062
1.7696
1.73887
1.70841
1.67821
1.64825
1.61853
1.58902
1.55972
1.53061
1.50168
1.47292
1.44431
1.41585
1.38752
1.35932
1.33122
1.30323
1.27532
1.24748
1.21972
1.192
1.16433
1.13669
1.10906
1.08144
1.05382
1.02617
0.998484
0.970745
0.942937
0.91504
0.887034
0.858899
0.83061
0.80214
0.77346
0.744536
0.715329
0.685796
0.655883
0.625531
0.594666
0.5632
0.531022
0.497991
0.463916
0.428529
0.391417
0.351878
0.30855
0.25824
0.191108
0.0724642
0.487247
0.815554
1.02833
1.19875
1.3499
1.49028
1.62372
1.7522
1.87685
1.99838
2.11724
2.23374
2.3481
2.46048
2.57097
2.67965
2.78655
2.89169
2.99509
3.09673
3.19659
3.29463
3.39082
3.48512
3.57747
3.66781
3.7561
3.84226
3.92625
4.00798
4.08741
4.16446
4.23907
4.31117
4.3807
4.44759
4.51177
4.57319
4.63175
4.68741
4.74008
4.78969
4.83618
4.87948
4.91954
4.95634
4.9899
5.02026
5.04742
5.07138
5.09224
5.11028
5.12575
5.13864
5.14909
5.1573
5.16341
5.16748
5.1695
5.16945
5.16721
5.16263
5.15569
5.14665
5.13562
5.12264
5.10773
5.0909
5.07211
5.05134
5.02855
5.00347
4.97621
4.94684
4.91539
4.88196
4.84666
4.80962
4.77097
4.73084
4.68934
4.64659
4.60269
4.55775
4.51184
4.46507
4.41751
4.36925
4.32035
4.2709
4.22096
4.17061
4.1199
4.0689
4.01768
3.96629
3.91479
3.86323
3.81166
3.76013
3.7087
3.6574
3.60627
3.55537
3.50471
3.45435
3.4043
3.35461
3.30529
3.25639
3.20791
3.15988
3.11231
3.06524
3.01867
2.97261
2.92707
2.88207
2.83761
2.7937
2.75034
2.70754
2.66528
2.62358
2.58244
2.54184
2.50179
2.46227
2.42329
2.38483
2.34689
2.30945
2.27252
2.23606
2.20008
2.16456
2.1295
2.09487
2.06066
2.02686
1.99346
1.96045
1.9278
1.89551
1.86355
1.83193
1.80061
1.7696
1.73887
1.70841
1.67821
1.64825
1.61853
1.58902
1.55972
1.53061
1.50168
1.47291
1.44431
1.41585
1.38752
1.35932
1.33122
1.30322
1.27531
1.24748
1.21971
1.192
1.16433
1.13669
1.10906
1.08144
1.05382
1.02617
0.998483
0.970744
0.942936
0.915039
0.887033
0.858898
0.830609
0.802139
0.773459
0.744535
0.715328
0.685795
0.655883
0.62553
0.594665
0.563199
0.531021
0.49799
0.463916
0.428529
0.391417
0.351878
0.30855
0.25824
0.191108
0.0724644
0.570617
0.920089
1.14731
1.328
1.4873
1.63474
1.77465
1.9093
2.03994
2.16735
2.29202
2.41425
2.53427
2.65221
2.76818
2.88222
2.99438
3.10466
3.21306
3.31956
3.42415
3.52678
3.62741
3.726
3.8225
3.91684
4.00897
4.09884
4.18637
4.27151
4.3542
4.43436
4.51195
4.58688
4.65911
4.72856
4.79517
4.85889
4.91964
4.97738
5.03203
5.08354
5.13186
5.17695
5.21877
5.25733
5.29262
5.32469
5.35355
5.37921
5.40176
5.42134
5.43811
5.45215
5.46356
5.47244
5.47888
5.48293
5.48461
5.48394
5.4809
5.47547
5.46767
5.45758
5.44525
5.43071
5.41398
5.39508
5.37406
5.35092
5.32569
5.29833
5.26885
5.23731
5.20374
5.16824
5.1309
5.09184
5.05115
5.00896
4.96538
4.92052
4.87446
4.82732
4.77919
4.73014
4.68027
4.62965
4.57838
4.52651
4.47413
4.4213
4.3681
4.31458
4.26082
4.20687
4.15279
4.09864
4.04448
3.99034
3.93629
3.88237
3.82863
3.77509
3.72182
3.66883
3.61617
3.56387
3.51195
3.46045
3.40939
3.35879
3.30867
3.25905
3.20995
3.16138
3.11335
3.06587
3.01896
2.97261
2.92683
2.88163
2.837
2.79295
2.74947
2.70656
2.66422
2.62244
2.58121
2.54053
2.50039
2.46078
2.42169
2.3831
2.34501
2.3074
2.27026
2.23358
2.19734
2.16154
2.12615
2.09116
2.05656
2.02233
1.98845
1.95493
1.92173
1.88884
1.85625
1.82395
1.79192
1.76014
1.72861
1.69731
1.66623
1.63535
1.60466
1.57414
1.5438
1.5136
1.48355
1.45362
1.42381
1.39411
1.36449
1.33496
1.3055
1.2761
1.24674
1.21742
1.18811
1.15882
1.12952
1.10019
1.07084
1.04143
1.01195
0.982386
0.952715
0.922915
0.892962
0.862829
0.832488
0.801905
0.771042
0.739854
0.70829
0.676288
0.643774
0.610658
0.576825
0.542124
0.506351
0.469204
0.430215
0.388575
0.342707
0.288966
0.216367
0.0862003
0.570618
0.920088
1.14731
1.328
1.4873
1.63473
1.77465
1.90929
2.03994
2.16735
2.29201
2.41425
2.53427
2.65221
2.76818
2.88222
2.99437
3.10465
3.21305
3.31956
3.42415
3.52678
3.62741
3.726
3.82249
3.91683
4.00897
4.09883
4.18637
4.27151
4.35419
4.43436
4.51194
4.58688
4.6591
4.72855
4.79517
4.85888
4.91964
4.97737
5.03203
5.08354
5.13186
5.17694
5.21877
5.25732
5.29262
5.32468
5.35354
5.37921
5.40175
5.42134
5.43811
5.45216
5.46358
5.47246
5.4789
5.48295
5.48463
5.48396
5.48091
5.47548
5.46767
5.45758
5.44524
5.4307
5.41397
5.39507
5.37405
5.35092
5.32569
5.29833
5.26885
5.2373
5.20374
5.16824
5.1309
5.09183
5.05115
5.00896
4.96538
4.92051
4.87446
4.82732
4.77918
4.73013
4.68026
4.62965
4.57837
4.52651
4.47412
4.4213
4.36809
4.31458
4.26081
4.20686
4.15279
4.09864
4.04447
3.99034
3.93629
3.88237
3.82862
3.77509
3.72181
3.66883
3.61617
3.56386
3.51195
3.46045
3.40938
3.35878
3.30867
3.25905
3.20995
3.16138
3.11335
3.06587
3.01895
2.97261
2.92683
2.88162
2.837
2.79295
2.74947
2.70656
2.66422
2.62244
2.58121
2.54053
2.50039
2.46078
2.42168
2.3831
2.345
2.3074
2.27026
2.23358
2.19734
2.16154
2.12615
2.09116
2.05655
2.02232
1.98845
1.95492
1.92172
1.88884
1.85625
1.82395
1.79192
1.76014
1.72861
1.69731
1.66623
1.63535
1.60466
1.57414
1.54379
1.5136
1.48354
1.45362
1.42381
1.3941
1.36449
1.33496
1.3055
1.2761
1.24674
1.21742
1.18811
1.15882
1.12952
1.10019
1.07084
1.04143
1.01195
0.982386
0.952714
0.922914
0.892961
0.862828
0.832488
0.801905
0.771042
0.739854
0.708289
0.676287
0.643773
0.610657
0.576824
0.542124
0.506351
0.469204
0.430215
0.388575
0.342707
0.288966
0.216367
0.0862006
0.652609
1.02124
1.26242
1.45329
1.62075
1.7752
1.92146
2.06204
2.19839
2.33133
2.46141
2.58896
2.7142
2.83727
2.95825
3.07719
3.19413
3.30907
3.42199
3.53289
3.64172
3.74845
3.85304
3.95544
4.0556
4.15345
4.24895
4.34203
4.43264
4.52072
4.60619
4.68901
4.7691
4.84642
4.9209
4.99248
5.0611
5.12671
5.18925
5.24867
5.30492
5.35795
5.40773
5.45421
5.49739
5.53726
5.57383
5.60713
5.63719
5.66403
5.68772
5.70835
5.72601
5.7408
5.75277
5.76199
5.76853
5.77244
5.77376
5.77251
5.76873
5.76245
5.75369
5.74251
5.72895
5.71302
5.69477
5.67424
5.65145
5.62648
5.59934
5.57008
5.53871
5.50529
5.46989
5.43256
5.39342
5.35254
5.31005
5.26603
5.2206
5.17385
5.12589
5.07681
5.0267
4.97564
4.92373
4.87104
4.81766
4.76366
4.70912
4.6541
4.59869
4.54294
4.48693
4.43071
4.37435
4.3179
4.26142
4.20496
4.14858
4.09232
4.03623
3.98035
3.92472
3.86939
3.81437
3.75972
3.70546
3.65162
3.59822
3.5453
3.49286
3.44094
3.38954
3.33868
3.28838
3.23864
3.18948
3.1409
3.09291
3.04551
2.9987
2.95248
2.90685
2.86181
2.81735
2.77348
2.73017
2.68744
2.64525
2.60362
2.56252
2.52194
2.48188
2.44232
2.40325
2.36466
2.32652
2.28883
2.25158
2.21474
2.1783
2.14226
2.10658
2.07126
2.03629
2.00164
1.9673
1.93327
1.89951
1.86603
1.8328
1.79981
1.76705
1.7345
1.70215
1.66999
1.638
1.60617
1.57449
1.54294
1.51152
1.48021
1.449
1.41787
1.38682
1.35583
1.32489
1.29399
1.26311
1.23225
1.20138
1.17049
1.13957
1.1086
1.07757
1.04645
1.01523
0.98388
0.952383
0.92071
0.888831
0.856715
0.824322
0.791608
0.758522
0.724999
0.690966
0.656326
0.620959
0.584702
0.547329
0.508504
0.467697
0.42399
0.375605
0.318484
0.240633
0.0998453
0.652609
1.02124
1.26242
1.45328
1.62075
1.77519
1.92145
2.06204
2.19838
2.33133
2.46141
2.58896
2.7142
2.83726
2.95824
3.07719
3.19413
3.30906
3.42199
3.53288
3.64172
3.74845
3.85304
3.95544
4.05559
4.15345
4.24895
4.34203
4.43264
4.52071
4.60619
4.689
4.7691
4.84642
4.92089
4.99247
5.0611
5.12671
5.18925
5.24867
5.30492
5.35795
5.40772
5.45421
5.49739
5.53726
5.57383
5.60713
5.63718
5.66403
5.68772
5.70835
5.72602
5.7408
5.75277
5.762
5.76854
5.77245
5.77376
5.77251
5.76873
5.76245
5.75369
5.74251
5.72894
5.71302
5.69477
5.67423
5.65145
5.62647
5.59934
5.57007
5.53871
5.50529
5.46988
5.43256
5.39341
5.35254
5.31004
5.26603
5.2206
5.17385
5.12589
5.07681
5.02669
4.97564
4.92372
4.87104
4.81765
4.76365
4.70911
4.6541
4.59868
4.54294
4.48692
4.43071
4.37434
4.31789
4.26142
4.20496
4.14858
4.09232
4.03623
3.98035
3.92472
3.86938
3.81437
3.75972
3.70546
3.65162
3.59822
3.5453
3.49286
3.44093
3.38954
3.33868
3.28838
3.23864
3.18948
3.1409
3.09291
3.0455
2.99869
2.95247
2.90685
2.86181
2.81735
2.77348
2.73017
2.68743
2.64525
2.60362
2.56252
2.52194
2.48188
2.44232
2.40325
2.36466
2.32652
2.28883
2.25158
2.21474
2.1783
2.14225
2.10658
2.07126
2.03629
2.00164
1.9673
1.93327
1.89951
1.86603
1.8328
1.79981
1.76705
1.7345
1.70215
1.66998
1.638
1.60617
1.57449
1.54294
1.51152
1.48021
1.449
1.41787
1.38682
1.35583
1.32489
1.29399
1.26311
1.23224
1.20137
1.17049
1.13957
1.1086
1.07757
1.04645
1.01523
0.983879
0.952382
0.920709
0.888831
0.856714
0.824322
0.791608
0.758521
0.724999
0.690966
0.656326
0.620959
0.584702
0.547329
0.508504
0.467698
0.423991
0.375605
0.318485
0.240634
0.0998456
0.733718
1.11999
1.37459
1.57562
1.75132
1.91283
2.06542
2.21188
2.35378
2.49207
2.62733
2.75993
2.89008
3.01795
3.14361
3.26711
3.38847
3.50769
3.62477
3.73967
3.85236
3.9628
4.07095
4.17675
4.28016
4.38112
4.47958
4.57548
4.66875
4.75934
4.8472
4.93227
5.01448
5.09378
5.17012
5.24345
5.3137
5.38084
5.4448
5.50556
5.56305
5.61726
5.66814
5.71568
5.75986
5.80068
5.83815
5.8723
5.90316
5.93076
5.95516
5.97641
5.99458
6.00974
6.02194
6.03125
6.0377
6.04136
6.04226
6.04045
6.03598
6.02888
6.01921
6.00701
5.99232
5.97517
5.95562
5.9337
5.90946
5.88296
5.85425
5.82338
5.79041
5.75537
5.71836
5.67944
5.63869
5.59623
5.55213
5.50649
5.45943
5.41102
5.36137
5.31058
5.25872
5.2059
5.15218
5.09767
5.04243
4.98655
4.9301
4.87316
4.81579
4.75807
4.70006
4.64183
4.58344
4.52494
4.46641
4.40788
4.34941
4.29106
4.23287
4.17488
4.11714
4.05969
4.00256
3.94578
3.8894
3.83344
3.77792
3.72288
3.66833
3.6143
3.5608
3.50785
3.45546
3.40365
3.35242
3.30178
3.25174
3.2023
3.15346
3.10523
3.05761
3.01058
2.96415
2.91832
2.87307
2.8284
2.7843
2.74076
2.69778
2.65533
2.61341
2.57201
2.53111
2.4907
2.45077
2.41129
2.37226
2.33367
2.29549
2.25771
2.22031
2.18329
2.14662
2.11029
2.07429
2.03859
2.00319
1.96807
1.93322
1.89861
1.86425
1.8301
1.79616
1.76242
1.72886
1.69546
1.66223
1.62913
1.59617
1.56332
1.53057
1.49792
1.46535
1.43284
1.40039
1.36798
1.3356
1.30323
1.27087
1.23849
1.20608
1.17363
1.14111
1.10852
1.07582
1.043
1.01004
0.976903
0.943567
0.909997
0.876155
0.841995
0.807465
0.772499
0.73702
0.700926
0.664087
0.626327
0.587394
0.546916
0.504299
0.458519
0.40761
0.34714
0.264201
0.113479
0.733718
1.11999
1.37458
1.57562
1.75132
1.91282
2.06542
2.21187
2.35378
2.49207
2.62733
2.75992
2.89008
3.01794
3.1436
3.2671
3.38846
3.50769
3.62476
3.73966
3.85235
3.9628
4.07094
4.17675
4.28016
4.38112
4.47958
4.57547
4.66875
4.75934
4.8472
4.93226
5.01448
5.09378
5.17012
5.24344
5.3137
5.38083
5.4448
5.50555
5.56305
5.61725
5.66814
5.71567
5.75985
5.80067
5.83815
5.8723
5.90316
5.93076
5.95515
5.9764
5.99458
6.00974
6.02194
6.03124
6.0377
6.04135
6.04226
6.04045
6.03597
6.02888
6.0192
6.007
5.99231
5.97517
5.95562
5.93369
5.90946
5.88296
5.85425
5.82338
5.7904
5.75537
5.71835
5.67943
5.63869
5.59622
5.55212
5.50649
5.45942
5.41102
5.36137
5.31057
5.25872
5.20589
5.15218
5.09766
5.04243
4.98655
4.9301
4.87315
4.81579
4.75807
4.70006
4.64183
4.58343
4.52494
4.4664
4.40788
4.34941
4.29106
4.23287
4.17488
4.11714
4.05968
4.00255
3.94578
3.8894
3.83344
3.77792
3.72288
3.66833
3.6143
3.5608
3.50785
3.45546
3.40364
3.35241
3.30178
3.25173
3.2023
3.15346
3.10523
3.0576
3.01058
2.96415
2.91832
2.87307
2.8284
2.7843
2.74076
2.69778
2.65533
2.61341
2.57201
2.53111
2.4907
2.45076
2.41129
2.37226
2.33367
2.29549
2.25771
2.22031
2.18329
2.14662
2.11029
2.07429
2.03859
2.00319
1.96807
1.93322
1.89861
1.86424
1.8301
1.79616
1.76242
1.72886
1.69546
1.66223
1.62913
1.59617
1.56332
1.53057
1.49792
1.46535
1.43284
1.40039
1.36798
1.3356
1.30323
1.27087
1.23849
1.20608
1.17363
1.14111
1.10852
1.07582
1.043
1.01004
0.976903
0.943567
0.909997
0.876154
0.841995
0.807464
0.772499
0.73702
0.700926
0.664087
0.626327
0.587394
0.546916
0.504299
0.45852
0.407611
0.347141
0.264202
0.113479
0.81435
1.21697
1.4846
1.69578
1.87978
2.04843
2.20741
2.35974
2.50715
2.65069
2.79099
2.92846
3.06333
3.19577
3.32586
3.45365
3.57916
3.70238
3.8233
3.94189
4.05812
4.17195
4.28332
4.3922
4.49852
4.60224