/*--------------------------------*- C++ -*----------------------------------*\
  =========                 |
  \\      /  F ield         | OpenFOAM: The Open Source CFD Toolbox
   \\    /   O peration     | Website:  https://openfoam.org
    \\  /    A nd           | Version:  8
     \\/     M anipulation  |
\*---------------------------------------------------------------------------*/
FoamFile
{
    version     2.0;
    format      ascii;
    class       volScalarField;
    location    "4600";
    object      nut;
}
// * * * * * * * * * * * * * * * * * * * * * * * * * * * * * * * * * * * * * //

dimensions      [0 2 -1 0 0 0 0];

internalField   nonuniform List<scalar> 
46000
(
2.64524e-06
9.52336e-06
1.65499e-05
2.29924e-05
2.9049e-05
3.48896e-05
4.05846e-05
4.61567e-05
5.16372e-05
5.70501e-05
6.24142e-05
6.77398e-05
7.30001e-05
7.82161e-05
8.33934e-05
8.85331e-05
9.36345e-05
9.86958e-05
0.000103714
0.000108686
0.000113608
0.000118475
0.000123283
0.000128027
0.000132702
0.000137301
0.000141821
0.000146255
0.000150599
0.000154845
0.00015899
0.000163027
0.00016695
0.000170755
0.000174435
0.000177985
0.000181399
0.000184669
0.000187789
0.000190748
0.000193535
0.00019613
0.000198506
0.000200619
0.000202414
0.000203832
0.000204843
0.000205453
0.000205587
0.000204643
0.000201271
0.000195403
0.000194875
0.000190867
0.000188343
0.000187707
0.000187782
0.000188254
0.00018936
0.000191853
0.000196698
0.000201915
0.00020259
0.00020694
0.000208789
0.000209222
0.000208856
0.000207486
0.000204031
0.000197518
0.000193029
0.000199705
0.000203569
0.000204407
0.000203621
0.000202189
0.00020048
0.000198618
0.000196649
0.000194591
0.000192457
0.000190258
0.000188
0.000185691
0.000183336
0.00018094
0.000178508
0.000176046
0.000173558
0.000171047
0.000168518
0.000165974
0.000163419
0.000160857
0.00015829
0.000155722
0.000153156
0.000150594
0.00014804
0.000145496
0.000142963
0.000140445
0.000137943
0.00013546
0.000132997
0.000130556
0.000128138
0.000125745
0.000123378
0.000121038
0.000118727
0.000116445
0.000114192
0.00011197
0.00010978
0.00010762
0.000105493
0.000103398
0.000101336
9.93058e-05
9.73082e-05
9.53431e-05
9.34103e-05
9.15095e-05
8.96406e-05
8.78032e-05
8.5997e-05
8.42214e-05
8.24761e-05
8.07605e-05
7.90741e-05
7.74164e-05
7.57867e-05
7.41843e-05
7.26088e-05
7.10594e-05
6.95354e-05
6.80362e-05
6.6561e-05
6.51093e-05
6.36803e-05
6.22733e-05
6.08877e-05
5.95228e-05
5.81779e-05
5.68523e-05
5.55455e-05
5.42568e-05
5.29856e-05
5.17313e-05
5.04934e-05
4.92712e-05
4.80643e-05
4.68721e-05
4.56941e-05
4.45299e-05
4.33789e-05
4.22407e-05
4.1115e-05
4.00013e-05
3.88992e-05
3.78083e-05
3.67283e-05
3.56588e-05
3.45995e-05
3.355e-05
3.251e-05
3.14792e-05
3.04574e-05
2.94445e-05
2.84402e-05
2.74439e-05
2.6455e-05
2.54733e-05
2.44984e-05
2.35299e-05
2.25674e-05
2.16105e-05
2.06587e-05
1.97117e-05
1.87694e-05
1.78311e-05
1.68958e-05
1.59628e-05
1.50314e-05
1.41005e-05
1.31692e-05
1.22361e-05
1.12998e-05
1.03586e-05
9.41033e-06
8.45255e-06
7.48205e-06
6.49478e-06
5.48544e-06
4.44686e-06
3.36852e-06
2.24374e-06
1.09494e-06
2.18667e-07
2.64156e-06
9.51646e-06
1.65442e-05
2.29902e-05
2.90487e-05
3.48898e-05
4.05849e-05
4.61568e-05
5.16373e-05
5.70502e-05
6.24142e-05
6.77398e-05
7.30001e-05
7.82161e-05
8.33934e-05
8.85331e-05
9.36345e-05
9.86957e-05
0.000103714
0.000108686
0.000113608
0.000118475
0.000123283
0.000128027
0.000132701
0.000137301
0.000141821
0.000146255
0.000150598
0.000154845
0.00015899
0.000163026
0.00016695
0.000170755
0.000174435
0.000177985
0.000181399
0.000184669
0.000187788
0.000190748
0.000193535
0.00019613
0.000198505
0.000200618
0.000202412
0.000203829
0.000204839
0.000205452
0.000205593
0.000204654
0.000201275
0.000195383
0.000194835
0.000190802
0.000188259
0.000187612
0.000187682
0.00018815
0.000189252
0.000191745
0.0001966
0.000201846
0.000202552
0.000206916
0.000208776
0.00020922
0.000208866
0.000207511
0.000204085
0.000197624
0.000193014
0.000199607
0.000203528
0.000204392
0.000203614
0.000202186
0.000200479
0.000198618
0.000196648
0.00019459
0.000192457
0.000190258
0.000188
0.000185691
0.000183335
0.000180939
0.000178508
0.000176046
0.000173558
0.000171047
0.000168518
0.000165974
0.000163419
0.000160857
0.00015829
0.000155722
0.000153156
0.000150594
0.00014804
0.000145495
0.000142963
0.000140445
0.000137943
0.00013546
0.000132997
0.000130555
0.000128138
0.000125745
0.000123378
0.000121038
0.000118727
0.000116444
0.000114192
0.00011197
0.000109779
0.00010762
0.000105493
0.000103398
0.000101336
9.93056e-05
9.7308e-05
9.53429e-05
9.34101e-05
9.15093e-05
8.96404e-05
8.7803e-05
8.59968e-05
8.42212e-05
8.24759e-05
8.07603e-05
7.9074e-05
7.74162e-05
7.57865e-05
7.41842e-05
7.26086e-05
7.10592e-05
6.95352e-05
6.8036e-05
6.65609e-05
6.51092e-05
6.36802e-05
6.22732e-05
6.08876e-05
5.95226e-05
5.81777e-05
5.68522e-05
5.55454e-05
5.42567e-05
5.29855e-05
5.17312e-05
5.04933e-05
4.92711e-05
4.80642e-05
4.6872e-05
4.5694e-05
4.45298e-05
4.33788e-05
4.22407e-05
4.11149e-05
4.00012e-05
3.88991e-05
3.78082e-05
3.67282e-05
3.56587e-05
3.45994e-05
3.35499e-05
3.25099e-05
3.14792e-05
3.04573e-05
2.94444e-05
2.84401e-05
2.74438e-05
2.6455e-05
2.54733e-05
2.44984e-05
2.35299e-05
2.25674e-05
2.16105e-05
2.06586e-05
1.97116e-05
1.87694e-05
1.7831e-05
1.68957e-05
1.59628e-05
1.50314e-05
1.41005e-05
1.31692e-05
1.22361e-05
1.12998e-05
1.03585e-05
9.41031e-06
8.45254e-06
7.48204e-06
6.49477e-06
5.48543e-06
4.44686e-06
3.36852e-06
2.24374e-06
1.09494e-06
2.18667e-07
8.7567e-06
6.6508e-05
0.000110294
0.000140861
0.00016467
0.000184503
0.000201657
0.000217066
0.000231235
0.000244474
0.000256972
0.00026888
0.000280309
0.000291324
0.000301974
0.000312297
0.000322322
0.000332073
0.000341565
0.000350813
0.000359827
0.000368613
0.000377177
0.000385523
0.000393653
0.000401569
0.00040927
0.000416757
0.000424028
0.000431083
0.000437919
0.000444534
0.000450926
0.000457093
0.000463031
0.000468737
0.000474207
0.000479437
0.000484422
0.000489153
0.000493618
0.000497796
0.000501651
0.000505123
0.000508117
0.00051051
0.000512163
0.000512926
0.000512463
0.000509578
0.000501229
0.000483795
0.00045969
0.000446282
0.000440957
0.000439467
0.000439383
0.000439955
0.000441448
0.000445136
0.000453705
0.000470773
0.000496505
0.000512872
0.00051988
0.000521866
0.000521195
0.000517532
0.000506976
0.000481499
0.00044099
0.000485302
0.000507709
0.00051432
0.000514762
0.000513167
0.000510868
0.000508257
0.000505453
0.000502499
0.000499414
0.000496212
0.000492904
0.000489499
0.000486005
0.00048243
0.000478781
0.000475062
0.000471282
0.000467444
0.000463555
0.000459619
0.000455642
0.000451629
0.000447583
0.00044351
0.000439413
0.000435297
0.000431166
0.000427024
0.000422874
0.000418719
0.000414564
0.000410411
0.000406263
0.000402123
0.000397994
0.000393878
0.000389778
0.000385695
0.000381633
0.000377591
0.000373573
0.00036958
0.000365614
0.000361674
0.000357764
0.000353883
0.000350032
0.000346212
0.000342424
0.000338668
0.000334944
0.000331253
0.000327594
0.000323968
0.000320374
0.000316812
0.000313282
0.000309783
0.000306315
0.000302877
0.000299468
0.000296088
0.000292737
0.000289412
0.000286113
0.00028284
0.00027959
0.000276364
0.00027316
0.000269977
0.000266813
0.000263668
0.00026054
0.000257429
0.000254332
0.000251249
0.000248178
0.000245118
0.000242068
0.000239026
0.000235991
0.000232962
0.000229938
0.000226916
0.000223896
0.000220876
0.000217855
0.000214832
0.000211803
0.000208769
0.000205728
0.000202677
0.000199615
0.00019654
0.00019345
0.000190342
0.000187215
0.000184062
0.000180886
0.000177683
0.00017445
0.000171185
0.000167883
0.000164541
0.000161153
0.000157714
0.000154217
0.000150654
0.000147015
0.000143293
0.000139478
0.000135558
0.000131517
0.000127339
0.000123002
0.00011848
0.00011374
0.00010874
0.000103428
9.77325e-05
9.15541e-05
8.4752e-05
7.71115e-05
6.82807e-05
5.7619e-05
4.376e-05
2.34291e-05
9.91388e-07
8.76238e-06
6.65113e-05
0.000110292
0.000140861
0.000164672
0.000184505
0.00020166
0.000217069
0.000231238
0.000244477
0.000256975
0.000268882
0.000280311
0.000291326
0.000301976
0.0003123
0.000322325
0.000332075
0.000341568
0.000350816
0.00035983
0.000368616
0.00037718
0.000385526
0.000393657
0.000401572
0.000409274
0.00041676
0.000424032
0.000431086
0.000437922
0.000444538
0.00045093
0.000457096
0.000463034
0.00046874
0.000474211
0.000479441
0.000484426
0.000489157
0.000493622
0.0004978
0.000501654
0.000505122
0.000508108
0.000510486
0.00051212
0.000512874
0.000512429
0.000509525
0.000500908
0.000482863
0.000458765
0.000445628
0.000440351
0.000438841
0.000438734
0.000439287
0.000440773
0.000444514
0.000453329
0.000470993
0.000496898
0.000512962
0.000519858
0.000521857
0.000521239
0.000517613
0.00050689
0.000480688
0.000440809
0.000485571
0.000507676
0.000514252
0.000514729
0.000513157
0.000510867
0.00050826
0.000505457
0.000502502
0.000499417
0.000496215
0.000492907
0.000489503
0.000486009
0.000482434
0.000478784
0.000475066
0.000471285
0.000467447
0.000463558
0.000459623
0.000455645
0.000451632
0.000447586
0.000443513
0.000439416
0.0004353
0.000431169
0.000427027
0.000422877
0.000418722
0.000414567
0.000410414
0.000406266
0.000402126
0.000397997
0.000393881
0.00038978
0.000385698
0.000381635
0.000377594
0.000373576
0.000369583
0.000365616
0.000361677
0.000357766
0.000353885
0.000350034
0.000346214
0.000342426
0.00033867
0.000334946
0.000331255
0.000327596
0.00032397
0.000320376
0.000316814
0.000313283
0.000309784
0.000306316
0.000302878
0.00029947
0.00029609
0.000292738
0.000289413
0.000286115
0.000282841
0.000279592
0.000276366
0.000273161
0.000269978
0.000266814
0.000263669
0.000260542
0.00025743
0.000254333
0.00025125
0.000248179
0.000245119
0.000242069
0.000239027
0.000235992
0.000232963
0.000229939
0.000226917
0.000223897
0.000220877
0.000217856
0.000214833
0.000211804
0.00020877
0.000205729
0.000202678
0.000199616
0.000196541
0.000193451
0.000190343
0.000187215
0.000184063
0.000180887
0.000177683
0.000174451
0.000171186
0.000167884
0.000164542
0.000161154
0.000157715
0.000154218
0.000150655
0.000147015
0.000143293
0.000139478
0.000135558
0.000131518
0.00012734
0.000123002
0.00011848
0.00011374
0.000108741
0.000103429
9.77327e-05
9.15544e-05
8.47523e-05
7.71117e-05
6.82809e-05
5.76192e-05
4.376e-05
2.34291e-05
9.9139e-07
1.55058e-05
0.000106812
0.000192464
0.000256821
0.000306916
0.000347553
0.000381771
0.0004115
0.000437958
0.000461954
0.000484042
0.000504607
0.000523928
0.000542202
0.000559575
0.000576158
0.00059204
0.000607289
0.000621959
0.000636095
0.000649732
0.0006629
0.000675622
0.000687917
0.000699803
0.000711291
0.000722393
0.000733119
0.000743476
0.00075347
0.000763106
0.000772389
0.000781321
0.000789907
0.000798147
0.000806044
0.000813598
0.000820808
0.000827672
0.000834185
0.000840332
0.000846087
0.000851394
0.00085615
0.000860183
0.000863248
0.000865091
0.00086555
0.000864423
0.000860382
0.000849228
0.000826718
0.000801786
0.000786313
0.000779702
0.000777686
0.000777542
0.000778311
0.000780318
0.000785332
0.000797247
0.000820746
0.000848899
0.000867756
0.000876461
0.000879294
0.000879204
0.000876113
0.000866018
0.00084264
0.000826772
0.000850735
0.000868115
0.000874418
0.000874923
0.000873096
0.000870347
0.000867163
0.000863705
0.000860033
0.000856177
0.000852155
0.00084798
0.000843664
0.000839217
0.000834648
0.000829965
0.000825176
0.000820288
0.000815307
0.000810241
0.000805095
0.000799875
0.000794587
0.000789237
0.00078383
0.000778371
0.000772867
0.00076732
0.000761738
0.000756123
0.00075048
0.000744815
0.00073913
0.00073343
0.000727719
0.000722
0.000716277
0.000710553
0.000704831
0.000699113
0.000693403
0.000687703
0.000682015
0.000676342
0.000670685
0.000665046
0.000659426
0.000653828
0.000648252
0.000642699
0.00063717
0.000631666
0.000626188
0.000620735
0.000615308
0.000609907
0.000604533
0.000599184
0.00059386
0.000588561
0.000583287
0.000578037
0.000572809
0.000567603
0.000562418
0.000557253
0.000552106
0.000546977
0.000541863
0.000536764
0.000531678
0.000526603
0.000521538
0.00051648
0.000511429
0.000506382
0.000501338
0.000496293
0.000491248
0.000486199
0.000481144
0.000476081
0.000471008
0.000465922
0.000460821
0.000455703
0.000450565
0.000445404
0.000440217
0.000435001
0.000429754
0.000424471
0.000419149
0.000413784
0.000408373
0.000402909
0.000397389
0.000391806
0.000386153
0.000380426
0.000374619
0.000368727
0.00036274
0.00035665
0.000350446
0.000344116
0.000337645
0.000331017
0.000324212
0.000317206
0.000309979
0.000302503
0.000294743
0.000286662
0.000278211
0.000269331
0.00025995
0.000249979
0.000239303
0.00022777
0.000215182
0.000201262
0.00018562
0.00016767
0.000146494
0.000120558
8.71753e-05
4.24445e-05
2.03506e-06
1.55081e-05
0.000106816
0.000192467
0.000256824
0.00030692
0.000347558
0.000381775
0.000411505
0.000437962
0.000461958
0.000484046
0.000504611
0.000523932
0.000542206
0.000559579
0.000576163
0.000592045
0.000607293
0.000621963
0.000636099
0.000649737
0.000662904
0.000675626
0.000687922
0.000699807
0.000711296
0.000722398
0.000733124
0.000743481
0.000753475
0.000763111
0.000772393
0.000781326
0.000789912
0.000798152
0.000806049
0.000813603
0.000820813
0.000827677
0.000834189
0.000840337
0.000846092
0.0008514
0.000856154
0.000860177
0.000863223
0.000865044
0.000865522
0.000864524
0.000860659
0.000849505
0.000826879
0.000802437
0.000787244
0.000780646
0.000778576
0.000778383
0.000779112
0.00078107
0.000786041
0.00079801
0.000821637
0.000849281
0.000867695
0.000876305
0.000879221
0.000879279
0.000876373
0.000866369
0.000842496
0.000827135
0.000850732
0.000867872
0.000874245
0.000874846
0.00087307
0.000870342
0.000867164
0.000863708
0.000860037
0.000856182
0.000852159
0.000847984
0.000843668
0.00083922
0.000834651
0.000829968
0.000825179
0.000820291
0.000815311
0.000810244
0.000805098
0.000799878
0.00079459
0.00078924
0.000783833
0.000778374
0.000772869
0.000767323
0.00076174
0.000756125
0.000750483
0.000744817
0.000739133
0.000733433
0.000727722
0.000722003
0.00071628
0.000710555
0.000704833
0.000699115
0.000693405
0.000687705
0.000682017
0.000676344
0.000670687
0.000665047
0.000659428
0.00065383
0.000648253
0.0006427
0.000637172
0.000631668
0.000626189
0.000620736
0.000615309
0.000609909
0.000604534
0.000599185
0.000593861
0.000588563
0.000583288
0.000578038
0.00057281
0.000567604
0.000562419
0.000557254
0.000552107
0.000546978
0.000541864
0.000536765
0.000531679
0.000526604
0.000521538
0.000516481
0.00051143
0.000506383
0.000501338
0.000496294
0.000491248
0.000486199
0.000481144
0.000476081
0.000471008
0.000465922
0.000460822
0.000455703
0.000450565
0.000445404
0.000440217
0.000435002
0.000429754
0.000424471
0.000419149
0.000413785
0.000408373
0.00040291
0.000397389
0.000391806
0.000386153
0.000380426
0.000374619
0.000368727
0.000362741
0.00035665
0.000350446
0.000344116
0.000337645
0.000331017
0.000324212
0.000317206
0.000309979
0.000302503
0.000294743
0.000286662
0.000278211
0.000269331
0.00025995
0.000249979
0.000239303
0.00022777
0.000215182
0.000201262
0.00018562
0.00016767
0.000146494
0.000120558
8.71753e-05
4.24444e-05
2.03506e-06
2.18785e-05
0.000135741
0.000253446
0.000348747
0.000425696
0.000489118
0.00054273
0.000589113
0.000630047
0.000666779
0.000700196
0.000730942
0.00075949
0.000786192
0.000811316
0.000835067
0.000857606
0.000879063
0.000899542
0.000919126
0.000937886
0.000955878
0.000973151
0.000989746
0.0010057
0.00102103
0.00103577
0.00104995
0.00106358
0.00107667
0.00108925
0.00110131
0.00111289
0.00112398
0.00113459
0.00114473
0.00115441
0.00116363
0.0011724
0.0011807
0.00118853
0.00119586
0.00120262
0.00120868
0.00121385
0.00121782
0.00122036
0.0012215
0.00122159
0.00122019
0.00121455
0.00120193
0.00118713
0.001177
0.00117224
0.00117076
0.00117082
0.00117167
0.00117344
0.00117727
0.00118566
0.0012008
0.00121803
0.00122993
0.00123569
0.00123792
0.00123877
0.00123862
0.00123558
0.00122619
0.0012202
0.00122826
0.00123559
0.00123818
0.00123747
0.00123508
0.00123186
0.00122815
0.00122412
0.00121981
0.00121527
0.00121051
0.00120556
0.00120042
0.0011951
0.00118963
0.00118401
0.00117825
0.00117235
0.00116632
0.00116018
0.00115392
0.00114756
0.00114109
0.00113454
0.0011279
0.00112118
0.00111439
0.00110753
0.0011006
0.00109362
0.00108659
0.00107951
0.00107239
0.00106523
0.00105804
0.00105082
0.00104357
0.00103631
0.00102903
0.00102174
0.00101444
0.00100713
0.000999817
0.000992505
0.000985194
0.000977888
0.000970587
0.000963295
0.000956013
0.000948741
0.000941482
0.000934236
0.000927005
0.000919788
0.000912587
0.000905401
0.00089823
0.000891075
0.000883936
0.000876811
0.0008697
0.000862602
0.000855517
0.000848444
0.000841381
0.000834326
0.000827279
0.000820238
0.000813201
0.000806166
0.000799132
0.000792096
0.000785057
0.000778012
0.000770958
0.000763894
0.000756816
0.000749723
0.000742611
0.000735478
0.00072832
0.000721135
0.000713919
0.000706669
0.000699381
0.000692052
0.000684677
0.000677252
0.000669774
0.000662236
0.000654635
0.000646965
0.00063922
0.000631393
0.000623478
0.000615466
0.000607351
0.000599122
0.000590769
0.000582282
0.000573652
0.000564866
0.00055591
0.000546769
0.000537422
0.00052785
0.000518027
0.000507925
0.00049751
0.000486745
0.000475587
0.000463988
0.000451888
0.000439219
0.000425896
0.000411816
0.000396853
0.000380851
0.000363612
0.00034488
0.00032432
0.000301482
0.000275746
0.000246229
0.000211639
0.000170043
0.00011865
5.52701e-05
3.06219e-06
2.18784e-05
0.000135742
0.00025345
0.000348752
0.000425702
0.000489124
0.000542736
0.000589119
0.000630054
0.000666785
0.000700203
0.000730948
0.000759496
0.000786199
0.000811322
0.000835073
0.000857612
0.000879069
0.000899548
0.000919132
0.000937892
0.000955884
0.000973157
0.000989752
0.0010057
0.00102104
0.00103578
0.00104996
0.00106358
0.00107668
0.00108925
0.00110132
0.00111289
0.00112398
0.0011346
0.00114474
0.00115442
0.00116364
0.0011724
0.00118071
0.00118854
0.00119586
0.00120263
0.0012087
0.00121386
0.00121782
0.00122035
0.00122154
0.00122177
0.00122052
0.00121485
0.00120208
0.0011874
0.00117728
0.00117243
0.00117086
0.00117086
0.00117167
0.0011734
0.00117718
0.00118559
0.00120079
0.00121783
0.00122967
0.00123554
0.00123792
0.00123892
0.00123884
0.00123574
0.00122584
0.00121996
0.00122787
0.00123525
0.00123798
0.00123739
0.00123505
0.00123185
0.00122816
0.00122412
0.00121982
0.00121527
0.00121052
0.00120556
0.00120042
0.00119511
0.00118964
0.00118401
0.00117825
0.00117235
0.00116632
0.00116018
0.00115392
0.00114756
0.0011411
0.00113454
0.0011279
0.00112118
0.00111439
0.00110753
0.0011006
0.00109362
0.00108659
0.00107951
0.00107239
0.00106523
0.00105804
0.00105082
0.00104358
0.00103631
0.00102903
0.00102174
0.00101444
0.00100713
0.000999818
0.000992506
0.000985195
0.000977889
0.000970589
0.000963296
0.000956014
0.000948742
0.000941483
0.000934237
0.000927006
0.000919789
0.000912587
0.000905401
0.000898231
0.000891076
0.000883936
0.000876811
0.0008697
0.000862603
0.000855518
0.000848444
0.000841381
0.000834326
0.000827279
0.000820238
0.000813201
0.000806166
0.000799132
0.000792096
0.000785057
0.000778012
0.000770958
0.000763894
0.000756816
0.000749723
0.000742611
0.000735478
0.00072832
0.000721135
0.000713919
0.000706669
0.000699381
0.000692051
0.000684676
0.000677252
0.000669773
0.000662236
0.000654635
0.000646965
0.000639219
0.000631392
0.000623477
0.000615466
0.000607351
0.000599122
0.000590769
0.000582281
0.000573651
0.000564865
0.00055591
0.000546768
0.000537422
0.000527849
0.000518026
0.000507924
0.00049751
0.000486744
0.000475586
0.000463987
0.000451888
0.000439219
0.000425895
0.000411815
0.000396853
0.000380851
0.000363612
0.000344879
0.00032432
0.000301482
0.000275746
0.000246229
0.000211639
0.000170043
0.00011865
5.52698e-05
3.06219e-06
2.79859e-05
0.000159173
0.000301755
0.000423211
0.000524536
0.000609844
0.000682811
0.00074626
0.000802291
0.000852455
0.000897905
0.000939506
0.000977911
0.00101362
0.00104702
0.00107841
0.00110803
0.00113607
0.0011627
0.00118804
0.00121219
0.00123525
0.00125729
0.00127837
0.00129856
0.00131788
0.0013364
0.00135413
0.00137112
0.0013874
0.00140298
0.00141788
0.00143214
0.00144576
0.00145877
0.00147117
0.00148297
0.0014942
0.00150484
0.00151491
0.0015244
0.00153328
0.00154149
0.00154893
0.00155543
0.00156075
0.00156471
0.00156746
0.00156949
0.00157093
0.00157056
0.0015669
0.00156152
0.00155741
0.00155545
0.00155508
0.00155561
0.00155663
0.00155811
0.00156042
0.00156457
0.00157128
0.00157866
0.00158377
0.00158626
0.00158742
0.00158843
0.00158953
0.00158989
0.00158794
0.00158619
0.00158802
0.00158967
0.00158942
0.0015875
0.00158449
0.00158078
0.00157659
0.00157202
0.00156713
0.00156196
0.00155652
0.00155085
0.00154495
0.00153884
0.00153254
0.00152605
0.00151939
0.00151255
0.00150556
0.00149842
0.00149114
0.00148372
0.00147618
0.00146851
0.00146073
0.00145285
0.00144486
0.00143678
0.00142862
0.00142037
0.00141204
0.00140365
0.00139519
0.00138668
0.00137811
0.00136949
0.00136083
0.00135213
0.00134339
0.00133462
0.00132583
0.00131701
0.00130818
0.00129932
0.00129046
0.00128158
0.00127269
0.0012638
0.0012549
0.001246
0.00123709
0.00122819
0.00121929
0.00121039
0.00120149
0.0011926
0.00118371
0.00117482
0.00116594
0.00115705
0.00114817
0.00113929
0.00113041
0.00112152
0.00111264
0.00110375
0.00109485
0.00108594
0.00107703
0.0010681
0.00105916
0.0010502
0.00104122
0.00103221
0.00102319
0.00101413
0.00100504
0.000995918
0.000986756
0.000977552
0.000968302
0.000959002
0.000949647
0.000940234
0.000930757
0.000921211
0.00091159
0.00090189
0.000892104
0.000882226
0.000872247
0.000862162
0.000851961
0.000841635
0.000831176
0.000820571
0.000809809
0.000798877
0.000787761
0.000776445
0.000764915
0.000753151
0.000741134
0.000728838
0.000716236
0.000703298
0.000689988
0.000676263
0.000662077
0.000647374
0.000632092
0.00061616
0.000599491
0.000581985
0.00056352
0.00054395
0.000523095
0.000500734
0.000476594
0.000450325
0.00042148
0.000389473
0.000353523
0.000312574
0.000265182
0.000209388
0.000142829
6.51713e-05
4.05819e-06
2.79856e-05
0.000159174
0.000301759
0.000423217
0.000524543
0.000609852
0.000682819
0.000746268
0.000802299
0.000852463
0.000897914
0.000939515
0.00097792
0.00101363
0.00104703
0.00107842
0.00110804
0.00113608
0.00116271
0.00118805
0.0012122
0.00123526
0.0012573
0.00127838
0.00129856
0.00131789
0.0013364
0.00135414
0.00137113
0.0013874
0.00140298
0.00141789
0.00143215
0.00144577
0.00145877
0.00147117
0.00148298
0.0014942
0.00150485
0.00151492
0.00152441
0.00153328
0.0015415
0.00154895
0.00155544
0.00156076
0.00156472
0.0015675
0.0015696
0.00157108
0.00157061
0.00156675
0.00156122
0.00155697
0.00155489
0.00155444
0.00155493
0.00155594
0.0015574
0.00155972
0.00156393
0.00157078
0.00157827
0.00158353
0.00158621
0.00158754
0.00158864
0.00158976
0.00159004
0.00158778
0.00158592
0.0015877
0.00158942
0.00158928
0.00158744
0.00158447
0.00158078
0.0015766
0.00157203
0.00156714
0.00156196
0.00155653
0.00155085
0.00154495
0.00153885
0.00153254
0.00152605
0.00151939
0.00151256
0.00150557
0.00149843
0.00149114
0.00148373
0.00147618
0.00146852
0.00146074
0.00145285
0.00144486
0.00143678
0.00142862
0.00142037
0.00141205
0.00140365
0.0013952
0.00138668
0.00137811
0.00136949
0.00136083
0.00135213
0.00134339
0.00133463
0.00132583
0.00131701
0.00130818
0.00129932
0.00129046
0.00128158
0.00127269
0.0012638
0.0012549
0.001246
0.00123709
0.00122819
0.00121929
0.00121039
0.0012015
0.0011926
0.00118371
0.00117482
0.00116594
0.00115705
0.00114817
0.00113929
0.00113041
0.00112152
0.00111264
0.00110375
0.00109485
0.00108594
0.00107703
0.0010681
0.00105916
0.0010502
0.00104122
0.00103221
0.00102319
0.00101413
0.00100504
0.000995917
0.000986756
0.000977552
0.000968302
0.000959001
0.000949647
0.000940233
0.000930756
0.00092121
0.00091159
0.00090189
0.000892104
0.000882225
0.000872247
0.000862161
0.00085196
0.000841635
0.000831175
0.00082057
0.000809808
0.000798877
0.000787761
0.000776444
0.000764914
0.000753151
0.000741133
0.000728837
0.000716236
0.000703298
0.000689987
0.000676262
0.000662076
0.000647373
0.000632091
0.000616159
0.000599491
0.000581985
0.00056352
0.000543949
0.000523094
0.000500734
0.000476594
0.000450325
0.00042148
0.000389472
0.000353523
0.000312574
0.000265182
0.000209388
0.000142829
6.51711e-05
4.0582e-06
3.3946e-05
0.000179276
0.000341922
0.000485514
0.000608453
0.000713876
0.000805147
0.000885099
0.000955974
0.00101951
0.00107705
0.00112963
0.00117805
0.00122293
0.00126477
0.00130397
0.00134083
0.00137561
0.00140852
0.00143973
0.00146939
0.00149761
0.0015245
0.00155015
0.00157463
0.001598
0.00162033
0.00164167
0.00166205
0.00168153
0.00170013
0.00171788
0.00173483
0.00175098
0.00176637
0.00178101
0.00179492
0.00180812
0.00182062
0.00183243
0.00184353
0.00185392
0.00186357
0.00187239
0.00188028
0.00188709
0.00189271
0.00189724
0.00190103
0.0019043
0.00190669
0.00190755
0.00190726
0.00190691
0.00190707
0.00190779
0.00190889
0.00191025
0.00191176
0.00191348
0.00191559
0.00191826
0.00192087
0.00192253
0.00192323
0.00192363
0.00192428
0.00192526
0.00192615
0.00192618
0.00192566
0.00192542
0.00192468
0.0019229
0.00192013
0.00191656
0.00191238
0.00190772
0.00190263
0.00189719
0.00189141
0.00188534
0.00187899
0.00187238
0.00186553
0.00185844
0.00185115
0.00184364
0.00183594
0.00182805
0.00181998
0.00181174
0.00180334
0.00179479
0.00178609
0.00177725
0.00176827
0.00175918
0.00174996
0.00174064
0.00173121
0.00172169
0.00171207
0.00170237
0.00169259
0.00168274
0.00167282
0.00166284
0.00165279
0.0016427
0.00163256
0.00162237
0.00161215
0.00160188
0.00159159
0.00158126
0.00157091
0.00156054
0.00155014
0.00153973
0.0015293
0.00151885
0.00150839
0.00149792
0.00148744
0.00147694
0.00146644
0.00145592
0.00144539
0.00143486
0.00142431
0.00141374
0.00140317
0.00139258
0.00138198
0.00137135
0.00136071
0.00135005
0.00133936
0.00132865
0.0013179
0.00130713
0.00129632
0.00128548
0.00127459
0.00126366
0.00125268
0.00124165
0.00123057
0.00121942
0.00120821
0.00119693
0.00118557
0.00117414
0.00116262
0.00115101
0.00113929
0.00112748
0.00111555
0.0011035
0.00109132
0.00107901
0.00106655
0.00105392
0.00104113
0.00102816
0.00101498
0.0010016
0.000987984
0.00097412
0.000959987
0.000945564
0.000930826
0.000915745
0.000900288
0.00088442
0.000868098
0.000851276
0.0008339
0.000815907
0.000797225
0.000777772
0.000757453
0.000736158
0.000713754
0.000690085
0.000664963
0.000638162
0.000609406
0.000578354
0.000544584
0.000507563
0.000466612
0.000420858
0.000369169
0.000310088
0.000241812
0.000162533
7.3442e-05
5.0315e-06
3.39458e-05
0.000179277
0.000341926
0.00048552
0.00060846
0.000713885
0.000805156
0.000885108
0.000955984
0.00101952
0.00107706
0.00112964
0.00117806
0.00122294
0.00126478
0.00130398
0.00134084
0.00137562
0.00140853
0.00143974
0.0014694
0.00149762
0.00152451
0.00155016
0.00157464
0.00159801
0.00162034
0.00164168
0.00166206
0.00168154
0.00170014
0.00171789
0.00173483
0.00175099
0.00176637
0.00178101
0.00179493
0.00180813
0.00182063
0.00183243
0.00184354
0.00185393
0.00186358
0.0018724
0.00188029
0.00188709
0.00189271
0.00189725
0.00190105
0.00190433
0.00190665
0.00190738
0.00190696
0.00190649
0.00190657
0.00190724
0.00190833
0.00190968
0.0019112
0.00191293
0.0019151
0.00191788
0.00192062
0.00192242
0.00192327
0.00192376
0.00192447
0.00192546
0.00192629
0.00192617
0.00192554
0.00192527
0.00192456
0.00192284
0.0019201
0.00191655
0.00191239
0.00190772
0.00190264
0.00189719
0.00189142
0.00188534
0.00187899
0.00187238
0.00186553
0.00185845
0.00185115
0.00184364
0.00183594
0.00182805
0.00181998
0.00181174
0.00180334
0.00179479
0.00178609
0.00177725
0.00176828
0.00175918
0.00174997
0.00174064
0.00173122
0.00172169
0.00171208
0.00170237
0.0016926
0.00168274
0.00167282
0.00166284
0.0016528
0.0016427
0.00163256
0.00162237
0.00161215
0.00160188
0.00159159
0.00158126
0.00157091
0.00156054
0.00155014
0.00153973
0.0015293
0.00151885
0.00150839
0.00149792
0.00148744
0.00147694
0.00146644
0.00145592
0.00144539
0.00143486
0.00142431
0.00141375
0.00140317
0.00139258
0.00138198
0.00137135
0.00136071
0.00135005
0.00133936
0.00132865
0.0013179
0.00130713
0.00129632
0.00128548
0.00127459
0.00126366
0.00125268
0.00124165
0.00123057
0.00121942
0.00120821
0.00119693
0.00118557
0.00117414
0.00116262
0.001151
0.00113929
0.00112748
0.00111555
0.0011035
0.00109132
0.00107901
0.00106654
0.00105392
0.00104113
0.00102816
0.00101498
0.0010016
0.000987983
0.000974119
0.000959986
0.000945563
0.000930825
0.000915744
0.000900287
0.000884419
0.000868097
0.000851276
0.000833899
0.000815906
0.000797224
0.000777771
0.000757452
0.000736157
0.000713753
0.000690084
0.000664962
0.000638162
0.000609405
0.000578354
0.000544584
0.000507563
0.000466612
0.000420858
0.000369169
0.000310089
0.000241813
0.000162533
7.34418e-05
5.03151e-06
3.97872e-05
0.000197119
0.000376639
0.000539212
0.000681228
0.000804851
0.000913038
0.00100851
0.00109356
0.00117
0.00123931
0.00130266
0.00136094
0.00141491
0.00146514
0.0015121
0.00155617
0.00159767
0.00163685
0.00167393
0.00170909
0.00174248
0.00177422
0.00180443
0.0018332
0.00186062
0.00188676
0.00191168
0.00193545
0.00195812
0.00197972
0.0020003
0.00201991
0.00203857
0.00205631
0.00207316
0.00208916
0.0021043
0.00211862
0.00213212
0.00214481
0.00215668
0.00216772
0.00217788
0.00218711
0.00219533
0.00220248
0.0022086
0.00221387
0.00221847
0.00222232
0.00222525
0.00222735
0.00222902
0.00223058
0.00223218
0.00223386
0.0022356
0.00223734
0.00223901
0.00224056
0.00224196
0.00224301
0.0022435
0.00224354
0.00224349
0.00224361
0.00224394
0.00224422
0.00224406
0.00224331
0.00224209
0.00224021
0.00223755
0.00223414
0.00223006
0.00222541
0.00222025
0.00221466
0.00220866
0.00220231
0.00219562
0.00218862
0.00218133
0.00217376
0.00216594
0.00215787
0.00214957
0.00214104
0.0021323
0.00212336
0.00211422
0.00210489
0.00209538
0.00208571
0.00207587
0.00206588
0.00205574
0.00204546
0.00203505
0.00202451
0.00201386
0.0020031
0.00199223
0.00198127
0.00197021
0.00195907
0.00194785
0.00193655
0.00192519
0.00191376
0.00190227
0.00189072
0.00187912
0.00186748
0.00185579
0.00184406
0.00183229
0.00182049
0.00180866
0.00179679
0.0017849
0.00177298
0.00176103
0.00174906
0.00173707
0.00172505
0.001713
0.00170094
0.00168884
0.00167673
0.00166458
0.00165241
0.00164021
0.00162798
0.00161572
0.00160343
0.00159109
0.00157872
0.00156631
0.00155385
0.00154134