/*--------------------------------*- C++ -*----------------------------------*\
  =========                 |
  \\      /  F ield         | OpenFOAM: The Open Source CFD Toolbox
   \\    /   O peration     | Website:  https://openfoam.org
    \\  /    A nd           | Version:  8
     \\/     M anipulation  |
\*---------------------------------------------------------------------------*/
FoamFile
{
    version     2.0;
    format      ascii;
    class       surfaceScalarField;
    location    "4600";
    object      phi;
}
// * * * * * * * * * * * * * * * * * * * * * * * * * * * * * * * * * * * * * //

dimensions      [1 0 -1 0 0 0 0];

internalField   nonuniform List<scalar> 
114370
(
7.99827e-10
-2.10877e-13
-7.99619e-10
2.04347e-09
-6.48333e-12
-1.20468e-09
3.05069e-09
-5.20254e-12
-1.01511e-09
3.65755e-09
-2.50729e-12
-6.08785e-10
3.8598e-09
-8.32741e-13
-2.02055e-10
3.70967e-09
-1.41849e-13
1.50592e-10
3.27145e-09
4.81338e-14
4.38492e-10
2.60465e-09
6.34286e-14
6.66945e-10
1.75879e-09
4.21534e-14
8.45966e-10
7.73337e-10
2.34443e-14
9.85549e-10
-3.19937e-10
1.19473e-14
1.09338e-09
-1.49478e-09
5.44194e-15
1.17495e-09
-2.73032e-09
2.03991e-15
1.23564e-09
-4.01046e-09
5.42714e-16
1.28024e-09
-5.32214e-09
1.53578e-16
1.31178e-09
-6.6547e-09
4.18001e-16
1.33266e-09
-7.99935e-09
1.10451e-15
1.34475e-09
-9.34877e-09
1.97197e-15
1.34951e-09
-1.06968e-08
2.64124e-15
1.34815e-09
-1.20384e-08
2.68384e-15
1.34161e-09
-1.3369e-08
1.83935e-15
1.33067e-09
-1.46849e-08
2.06643e-16
1.31597e-09
-1.59829e-08
-1.73295e-15
1.29805e-09
-1.72603e-08
-3.30862e-15
1.27734e-09
-1.85145e-08
-3.97584e-15
1.25422e-09
-1.97435e-08
-3.58873e-15
1.229e-09
-2.09455e-08
-2.47331e-15
1.20194e-09
-2.21188e-08
-1.25678e-15
1.17329e-09
-2.3262e-08
-5.36712e-16
1.14324e-09
-2.43739e-08
-5.33516e-16
1.11197e-09
-2.54534e-08
-8.45443e-16
1.07965e-09
-2.64997e-08
-4.13064e-16
1.04639e-09
-2.75119e-08
2.12418e-15
1.0123e-09
-2.84894e-08
7.48274e-15
9.77483e-10
-2.94315e-08
1.43573e-14
9.42005e-10
-3.03375e-08
1.86308e-14
9.0594e-10
-3.12071e-08
1.48603e-14
8.69349e-10
-3.20394e-08
6.87185e-16
8.32278e-10
-3.28342e-08
-1.84728e-14
7.94739e-10
-3.35908e-08
-3.01808e-14
7.56692e-10
-3.43087e-08
-2.44669e-14
7.18028e-10
-3.49873e-08
-5.64743e-15
6.78559e-10
-3.56253e-08
7.94026e-15
6.38022e-10
-3.62215e-08
2.29976e-15
5.96209e-10
-3.67749e-08
-1.25332e-14
5.53513e-10
-3.72875e-08
-9.53293e-15
5.12694e-10
-3.77702e-08
1.46985e-14
4.8283e-10
-3.82473e-08
1.12878e-14
4.7729e-10
-3.87103e-08
-4.06496e-14
4.63084e-10
-3.90147e-08
-7.95055e-14
3.04331e-10
-3.92139e-08
-9.14201e-14
1.99161e-10
-3.96604e-08
-9.4909e-14
4.46223e-10
-4.02207e-08
-4.249e-14
5.59879e-10
-4.03529e-08
5.87101e-14
1.32237e-10
-4.04742e-08
1.32654e-13
1.211e-10
-4.06055e-08
2.41934e-13
1.31115e-10
-4.07344e-08
2.59884e-13
1.28663e-10
-4.08589e-08
1.13654e-13
1.24015e-10
-4.09856e-08
-5.34291e-14
1.26355e-10
-4.11179e-08
-1.26656e-13
1.32673e-10
-4.11894e-08
-1.60807e-13
7.22777e-11
-4.08489e-08
-1.85318e-13
-3.39971e-10
-4.06992e-08
-1.64943e-13
-1.49529e-10
-4.08012e-08
-1.24048e-13
1.0211e-10
-4.08638e-08
-7.35247e-14
6.23908e-11
-4.07906e-08
2.35957e-14
-7.29357e-11
-4.05867e-08
6.89698e-14
-2.03527e-10
-4.02804e-08
-4.65915e-14
-3.06891e-10
-3.99659e-08
-1.40446e-13
-3.15339e-10
-4.00058e-08
-3.6881e-14
3.94179e-11
-3.97456e-08
8.99543e-14
-2.59564e-10
-3.91852e-08
3.43014e-15
-5.61188e-10
-3.89412e-08
-3.09976e-14
-2.44994e-10
-3.86554e-08
-2.08659e-14
-2.85068e-10
-3.83265e-08
-8.34417e-14
-3.29212e-10
-3.79652e-08
-1.46251e-14
-3.61497e-10
-3.75779e-08
7.81535e-14
-3.86865e-10
-3.71691e-08
3.96475e-14
-4.08817e-10
-3.67408e-08
-4.73104e-14
-4.28714e-10
-3.62941e-08
-6.10171e-14
-4.46873e-10
-3.58302e-08
-6.37991e-15
-4.63536e-10
-3.53509e-08
3.84903e-14
-4.79067e-10
-3.48572e-08
3.24399e-14
-4.93727e-10
-3.43499e-08
-2.11846e-15
-5.07559e-10
-3.38297e-08
-2.41896e-14
-5.20479e-10
-3.32973e-08
-1.74441e-14
-5.32428e-10
-3.27537e-08
4.97634e-15
-5.4343e-10
-3.22001e-08
2.12781e-14
-5.53563e-10
-3.16373e-08
2.03369e-14
-5.62893e-10
-3.1066e-08
6.03539e-15
-5.71444e-10
-3.0487e-08
-1.01114e-14
-5.79203e-10
-2.9901e-08
-1.84234e-14
-5.86148e-10
-2.93087e-08
-1.59806e-14
-5.92267e-10
-2.87111e-08
-6.04181e-15
-5.97571e-10
-2.81089e-08
5.50554e-15
-6.02086e-10
-2.7503e-08
1.36642e-14
-6.05845e-10
-2.68941e-08
1.61727e-14
-6.0888e-10
-2.6283e-08
1.35261e-14
-6.11215e-10
-2.56703e-08
7.89902e-15
-6.12865e-10
-2.50566e-08
1.82293e-15
-6.13842e-10
-2.44426e-08
-2.79019e-15
-6.14158e-10
-2.38289e-08
-5.07076e-15
-6.13823e-10
-2.32162e-08
-5.12204e-15
-6.12853e-10
-2.26049e-08
-3.66119e-15
-6.11265e-10
-2.19959e-08
-1.59264e-15
-6.09081e-10
-2.13896e-08
3.28241e-16
-6.06321e-10
-2.07866e-08
1.66647e-15
-6.03008e-10
-2.01875e-08
2.31981e-15
-5.99163e-10
-1.95927e-08
2.42465e-15
-5.94807e-10
-1.90028e-08
2.22489e-15
-5.89961e-10
-1.84182e-08
1.95416e-15
-5.84643e-10
-1.78394e-08
1.77223e-15
-5.78873e-10
-1.72668e-08
1.74247e-15
-5.7267e-10
-1.67008e-08
1.84834e-15
-5.66053e-10
-1.61418e-08
2.02842e-15
-5.5904e-10
-1.55902e-08
2.2084e-15
-5.51651e-10
-1.50464e-08
2.32695e-15
-5.43903e-10
-1.45106e-08
2.34945e-15
-5.35816e-10
-1.39833e-08
2.26922e-15
-5.27405e-10
-1.34646e-08
2.10702e-15
-5.18689e-10
-1.2955e-08
1.89874e-15
-5.09682e-10
-1.24547e-08
1.68775e-15
-5.00402e-10
-1.19639e-08
1.51092e-15
-4.90862e-10
-1.14829e-08
1.3961e-15
-4.81078e-10
-1.10119e-08
1.35154e-15
-4.71064e-10
-1.05511e-08
1.3704e-15
-4.60834e-10
-1.01008e-08
1.43133e-15
-4.504e-10
-9.66106e-09
1.50668e-15
-4.39776e-10
-9.23215e-09
1.56913e-15
-4.28973e-10
-8.81421e-09
1.5997e-15
-4.18004e-10
-8.40739e-09
1.58896e-15
-4.0688e-10
-8.01184e-09
1.54082e-15
-3.95613e-10
-7.62768e-09
1.46742e-15
-3.84213e-10
-7.25505e-09
1.3848e-15
-3.72691e-10
-6.89406e-09
1.31129e-15
-3.61058e-10
-6.5448e-09
1.26022e-15
-3.49322e-10
-6.20736e-09
1.23896e-15
-3.37496e-10
-5.88183e-09
1.24872e-15
-3.25589e-10
-5.56828e-09
1.28482e-15
-3.13611e-10
-5.26677e-09
1.33902e-15
-3.01573e-10
-4.97734e-09
1.40179e-15
-2.89487e-10
-4.70004e-09
1.46424e-15
-2.77363e-10
-4.43489e-09
1.51985e-15
-2.65213e-10
-4.1819e-09
1.56571e-15
-2.53051e-10
-3.94107e-09
1.5991e-15
-2.40888e-10
-3.7124e-09
1.62251e-15
-2.28739e-10
-3.49584e-09
1.63659e-15
-2.16618e-10
-3.29136e-09
1.64331e-15
-2.04542e-10
-3.0989e-09
1.64753e-15
-1.92526e-10
-2.91838e-09
1.64926e-15
-1.80588e-10
-2.7497e-09
1.65001e-15
-1.68748e-10
-2.59274e-09
1.6513e-15
-1.57025e-10
-2.44737e-09
1.65161e-15
-1.4544e-10
-2.31343e-09
1.64976e-15
-1.34017e-10
-2.19072e-09
1.64487e-15
-1.22779e-10
-2.07904e-09
1.63499e-15
-1.11752e-10
-1.97815e-09
1.61796e-15
-1.00963e-10
-1.88779e-09
1.59431e-15
-9.04402e-11
-1.80765e-09
1.56339e-15
-8.0214e-11
-1.73741e-09
1.52294e-15
-7.03159e-11
-1.67671e-09
1.47522e-15
-6.07789e-11
-1.62515e-09
1.42143e-15
-5.16374e-11
-1.5823e-09
1.3607e-15
-4.29275e-11
-1.54769e-09
1.29541e-15
-3.46865e-11
-1.52081e-09
1.22687e-15
-2.69532e-11
-1.50113e-09
1.15616e-15
-1.97674e-11
-1.48803e-09
1.0835e-15
-1.31704e-11
-1.48091e-09
1.01041e-15
-7.2046e-12
-1.47907e-09
9.36011e-16
-1.91333e-12
-1.48181e-09
8.60959e-16
2.65969e-12
-1.48836e-09
7.80706e-16
6.46965e-12
-1.4979e-09
6.93731e-16
9.47009e-12
-1.50959e-09
5.94178e-16
1.16144e-11
-1.52252e-09
4.7988e-16
1.28559e-11
-1.53575e-09
3.46283e-16
1.31477e-11
-1.54826e-09
1.95122e-16
1.24434e-11
-1.55903e-09
2.85644e-17
1.06966e-11
-1.56697e-09
-1.49486e-16
7.86224e-12
-1.57093e-09
-3.30354e-16
3.89631e-12
-1.56976e-09
-5.08391e-16
-1.24234e-12
-1.56223e-09
-6.79717e-16
-7.59025e-12
-1.54712e-09
-8.47574e-16
-1.51803e-11
-1.52314e-09
-1.01283e-15
-2.40393e-11
-1.48902e-09
-1.17374e-15
-3.41825e-11
-1.44346e-09
-1.32078e-15
-4.56093e-11
-1.38523e-09
-1.43355e-15
-5.82954e-11
-1.3131e-09
-1.49103e-15
-7.21811e-11
-1.226e-09
-1.48193e-15
-8.71524e-11
-1.12305e-09
-1.41017e-15
-1.03013e-10
-1.00367e-09
-1.28614e-15
-1.19437e-10
-8.67827e-10
-1.11417e-15
-1.35897e-10
-7.16342e-10
-8.91242e-16
-1.51547e-10
-5.51382e-10
-6.33599e-16
-1.65027e-10
-3.77291e-10
-3.98917e-16
-1.74163e-10
-2.01891e-10
-2.99939e-16
-1.75482e-10
-3.84554e-11
-4.22516e-16
-1.63528e-10
9.15341e-11
-7.44065e-16
-1.30096e-10
1.55917e-10
-9.20696e-16
-6.4508e-11
1.19871e-10
5.72085e-16
3.58905e-11
1.95384e-15
1.19677e-10
7.78075e-10
-7.78796e-10
2.04498e-09
-1.19235e-09
3.05661e-09
-1.00958e-09
3.66073e-09
-6.07012e-10
3.86074e-09
-2.01715e-10
3.70965e-09
1.5056e-10
3.27122e-09
4.38431e-10
2.60445e-09
6.66919e-10
1.75866e-09
8.45965e-10
7.73263e-10
9.85558e-10
-3.1998e-10
1.09339e-09
-1.49481e-09
1.17496e-09
-2.73033e-09
1.23566e-09
-4.01046e-09
1.28025e-09
-5.32213e-09
1.3118e-09
-6.65469e-09
1.33268e-09
-7.99933e-09
1.34476e-09
-9.34874e-09
1.34952e-09
-1.06968e-08
1.34816e-09
-1.20383e-08
1.34161e-09
-1.33689e-08
1.33067e-09
-1.46849e-08
1.31597e-09
-1.59829e-08
1.29805e-09
-1.72603e-08
1.27734e-09
-1.85145e-08
1.25421e-09
-1.97435e-08
1.22899e-09
-2.09455e-08
1.20194e-09
-2.21187e-08
1.17329e-09
-2.32619e-08
1.14324e-09
-2.43738e-08
1.11198e-09
-2.54533e-08
1.07966e-09
-2.64996e-08
1.0464e-09
-2.75119e-08
1.01231e-09
-2.84894e-08
9.77475e-10
-2.94315e-08
9.41988e-10
-3.03375e-08
9.05923e-10
-3.1207e-08
8.69344e-10
-3.20393e-08
8.32287e-10
-3.28341e-08
7.94753e-10
-3.35908e-08
7.56696e-10
-3.43088e-08
7.1802e-10
-3.49873e-08
6.7855e-10
-3.56253e-08
6.38024e-10
-3.62214e-08
5.96218e-10
-3.67749e-08
5.53525e-10
-3.72874e-08
5.12725e-10
-3.77702e-08
4.82867e-10
-3.82475e-08
4.77286e-10
-3.87105e-08
4.63103e-10
-3.9015e-08
3.04407e-10
-3.92144e-08
1.991e-10
-3.96606e-08
4.46049e-10
-4.02208e-08
5.59983e-10
-4.03532e-08
1.3268e-10
-4.04743e-08
1.21366e-10
-4.06053e-08
1.31452e-10
-4.0734e-08
1.28874e-10
-4.08581e-08
1.23924e-10
-4.09843e-08
1.26015e-10
-4.11168e-08
1.32319e-10
-4.1189e-08
7.21292e-11
-4.08486e-08
-3.40447e-10
-4.06989e-08
-1.50076e-10
-4.0801e-08
1.01762e-10
-4.08633e-08
6.23378e-11
-4.07903e-08
-7.27721e-11
-4.0587e-08
-2.03537e-10
-4.02806e-08
-3.06932e-10
-3.99655e-08
-3.14892e-10
-4.00052e-08
3.93213e-11
-3.97458e-08
-2.59984e-10
-3.91851e-08
-5.6098e-10
-3.89411e-08
-2.44374e-10
-3.86555e-08
-2.85084e-10
-3.83261e-08
-3.29261e-10
-3.79647e-08
-3.61405e-10
-3.7578e-08
-3.86932e-10
-3.71695e-08
-4.09024e-10
-3.67409e-08
-4.2882e-10
-3.62938e-08
-4.46808e-10
-3.58299e-08
-4.63427e-10
-3.53508e-08
-4.79033e-10
-3.48573e-08
-4.93771e-10
-3.435e-08
-5.07612e-10
-3.38296e-08
-5.20493e-10
-3.32972e-08
-5.32406e-10
-3.27536e-08
-5.43406e-10
-3.22001e-08
-5.53562e-10
-3.16373e-08
-5.62918e-10
-3.10661e-08
-5.71478e-10
-3.0487e-08
-5.79229e-10
-2.9901e-08
-5.86156e-10
-2.93087e-08
-5.92259e-10
-2.8711e-08
-5.97556e-10
-2.81088e-08
-6.02075e-10
-2.75029e-08
-6.05844e-10
-2.68941e-08
-6.0889e-10
-2.6283e-08
-6.11233e-10
-2.56703e-08
-6.12886e-10
-2.50566e-08
-6.13863e-10
-2.44426e-08
-6.14175e-10
-2.38289e-08
-6.13835e-10
-2.32161e-08
-6.1286e-10
-2.26049e-08
-6.1127e-10
-2.19959e-08
-6.09084e-10
-2.13896e-08
-6.06324e-10
-2.07866e-08
-6.03011e-10
-2.01875e-08
-5.99167e-10
-1.95927e-08
-5.94813e-10
-1.90028e-08
-5.89967e-10
-1.84182e-08
-5.84649e-10
-1.78394e-08
-5.7888e-10
-1.72667e-08
-5.72677e-10
-1.67007e-08
-5.66059e-10
-1.61418e-08
-5.59047e-10
-1.55902e-08
-5.51658e-10
-1.50463e-08
-5.43911e-10
-1.45106e-08
-5.35824e-10
-1.39832e-08
-5.27413e-10
-1.34646e-08
-5.18697e-10
-1.2955e-08
-5.0969e-10
-1.24547e-08
-5.0041e-10
-1.19639e-08
-4.9087e-10
-1.14829e-08
-4.81086e-10
-1.10119e-08
-4.71072e-10
-1.05511e-08
-4.60841e-10
-1.01008e-08
-4.50408e-10
-9.66105e-09
-4.39783e-10
-9.23213e-09
-4.28981e-10
-8.81419e-09
-4.18012e-10
-8.40737e-09
-4.06888e-10
-8.01182e-09
-3.95621e-10
-7.62767e-09
-3.84221e-10
-7.25504e-09
-3.72699e-10
-6.89404e-09
-3.61066e-10
-6.54478e-09
-3.4933e-10
-6.20735e-09
-3.37504e-10
-5.88182e-09
-3.25597e-10
-5.56827e-09
-3.13619e-10
-5.26675e-09
-3.01581e-10
-4.97733e-09
-2.89495e-10
-4.70003e-09
-2.77371e-10
-4.43487e-09
-2.65222e-10
-4.18188e-09
-2.53059e-10
-3.94106e-09
-2.40896e-10
-3.71238e-09
-2.28747e-10
-3.49583e-09
-2.16627e-10
-3.29135e-09
-2.04551e-10
-3.09889e-09
-1.92535e-10
-2.91837e-09
-1.80598e-10
-2.74968e-09
-1.68757e-10
-2.59273e-09
-1.57034e-10
-2.44736e-09
-1.4545e-10
-2.31341e-09
-1.34027e-10
-2.1907e-09
-1.22789e-10
-2.07902e-09
-1.11762e-10
-1.97814e-09
-1.00973e-10
-1.88777e-09
-9.04506e-11
-1.80763e-09
-8.02246e-11
-1.73739e-09
-7.03267e-11
-1.67669e-09
-6.07898e-11
-1.62513e-09
-5.16484e-11
-1.58228e-09
-4.29386e-11
-1.54767e-09
-3.46977e-11
-1.5208e-09
-2.69644e-11
-1.50111e-09
-1.97787e-11
-1.48802e-09
-1.31818e-11
-1.48089e-09
-7.21594e-12
-1.47906e-09
-1.92468e-12
-1.4818e-09
2.64833e-12
-1.48834e-09
6.45829e-12
-1.49789e-09
9.45871e-12
-1.50958e-09
1.1603e-11
-1.52251e-09
1.28444e-11
-1.53574e-09
1.31363e-11
-1.54825e-09
1.24319e-11
-1.55902e-09
1.06852e-11
-1.56696e-09
7.85079e-12
-1.57092e-09
3.88489e-12
-1.56975e-09
-1.25375e-12
-1.56222e-09
-7.60165e-12
-1.54711e-09
-1.51917e-11
-1.52313e-09
-2.40508e-11
-1.48901e-09
-3.41941e-11
-1.44346e-09
-4.56211e-11
-1.38522e-09
-5.83075e-11
-1.3131e-09
-7.21934e-11
-1.226e-09
-8.71651e-11
-1.12305e-09
-1.03026e-10
-1.00367e-09
-1.19451e-10
-8.67828e-10
-1.35912e-10
-7.16344e-10
-1.51563e-10
-5.51384e-10
-1.65045e-10
-3.77295e-10
-1.74182e-10
-2.01896e-10
-1.75503e-10
-3.84634e-11
-1.63552e-10
9.15221e-11
-1.30123e-10
1.55899e-10
-6.45393e-11
1.19847e-10
3.58526e-11
1.19637e-10
1.21808e-09
6.45842e-12
-2.05635e-09
1.94723e-09
6.14246e-13
-1.93352e-09
2.31736e-09
-3.54285e-13
-1.38644e-09
2.42027e-09
-3.04762e-13
-7.11567e-10
2.27817e-09
-1.26789e-13
-5.9712e-11
1.91509e-09
-2.32862e-14
5.13835e-10
1.35854e-09
1.2647e-14
9.95158e-10
6.36696e-10
1.78083e-14
1.3889e-09
-2.23241e-10
1.412e-14
1.70602e-09
-1.19603e-09
9.69587e-15
1.95845e-09
-2.25956e-09
6.41257e-15
2.15703e-09
-3.39546e-09
4.29688e-15
2.31096e-09
-4.58799e-09
3.02857e-15
2.42829e-09
-5.82355e-09
2.29187e-15
2.51591e-09
-7.09068e-09
1.87407e-15
2.57902e-09
-8.37971e-09
1.67687e-15
2.6218e-09
-9.68246e-09
1.64735e-15
2.64759e-09
-1.0992e-08
1.68879e-15
2.6591e-09
-1.23023e-08
1.64585e-15
2.65853e-09
-1.36083e-08
1.36934e-15
2.64768e-09
-1.49056e-08
8.11627e-16
2.62803e-09
-1.61904e-08
8.07091e-17
2.60083e-09
-1.74595e-08
-5.91689e-16
2.5671e-09
-1.87099e-08
-9.58721e-16
2.52772e-09
-1.99391e-08
-8.8619e-16
2.48341e-09
-2.11449e-08
-4.24756e-16
2.4348e-09
-2.23253e-08
2.07819e-16
2.38243e-09
-2.34788e-08
7.21999e-16
2.32676e-09
-2.46037e-08
8.80345e-16
2.2682e-09
-2.56987e-08
6.19104e-16
2.20709e-09
-2.67627e-08
1.61054e-16
2.14376e-09
-2.77947e-08
6.39626e-17
2.07846e-09
-2.87938e-08
1.04254e-15
2.01144e-09
-2.97593e-08
3.39561e-15
1.9429e-09
-3.06905e-08
6.21166e-15
1.87302e-09
-3.15866e-08
7.1296e-15
1.80197e-09
-3.24473e-08
3.64127e-15
1.7299e-09
-3.32719e-08
-4.18194e-15
1.65692e-09
-3.40602e-08
-1.19119e-14
1.58311e-09
-3.4812e-08
-1.32513e-14
1.50852e-09
-3.55271e-08
-6.57432e-15
1.43316e-09
-3.62055e-08
1.39033e-15
1.35702e-09
-3.68476e-08
2.19107e-15
1.28017e-09
-3.74542e-08
-2.92057e-15
1.20282e-09
-3.80261e-08
-4.10897e-15
1.12561e-09
-3.85637e-08
1.46545e-15
1.05037e-09
-3.90619e-08
4.24951e-15
9.81008e-10
-3.95066e-08
8.61881e-15
9.21954e-10
-3.99066e-08
3.8319e-14
8.63085e-10
-4.03561e-08
6.65722e-14
7.5383e-10
-4.08232e-08
6.20634e-14
6.66304e-10
-4.10647e-08
5.08948e-14
6.87719e-10
-4.11616e-08
-1.80068e-15
6.5735e-10
-4.15211e-08
-8.09586e-14
4.92245e-10
-4.18039e-08
-5.59692e-14
4.04273e-10
-4.20098e-08
-3.5861e-14
3.37274e-10
-4.21596e-08
-4.39129e-14
2.78271e-10
-4.22592e-08
-1.99209e-14
2.23172e-10
-4.2301e-08
5.20547e-14
1.67727e-10
-4.22709e-08
8.54124e-14
1.02238e-10
-4.22045e-08
3.7249e-14
5.82653e-12
-4.23926e-08
2.47339e-14
-1.52338e-10
-4.23979e-08
2.45623e-14
-1.44747e-10
-4.22114e-08
-1.56927e-14
-8.48002e-11
-4.20238e-08
-5.41841e-15
-1.25203e-10
-4.18644e-08
4.95587e-14
-2.32014e-10
-4.17234e-08
5.4488e-14
-3.44496e-10
-4.15922e-08
8.75955e-15
-4.37644e-10
-4.14384e-08
-1.40624e-15
-4.69078e-10
-4.09721e-08
-1.61187e-14
-4.26426e-10
-4.06949e-08
-1.76805e-15
-5.36519e-10
-4.06117e-08
4.332e-14
-6.43723e-10
-4.02427e-08
7.839e-14
-6.13423e-10
-3.98831e-08
-3.79621e-15
-6.45254e-10
-3.95208e-08
-4.30486e-14
-6.91913e-10
-3.91435e-08
5.8372e-15
-7.38468e-10
-3.87483e-08
2.09392e-14
-7.82206e-10
-3.83345e-08
-1.33465e-14
-8.22976e-10
-3.79023e-08
-3.16797e-14
-8.60961e-10
-3.74524e-08
-1.24118e-14
-8.96447e-10
-3.6986e-08
1.33083e-14
-9.29753e-10
-3.6504e-08
1.75403e-14
-9.6111e-10
-3.60074e-08
3.25264e-15
-9.9062e-10
-3.54968e-08
-1.0317e-14
-1.01831e-09
-3.49731e-08
-1.1098e-14
-1.04418e-09
-3.44372e-08
-1.79283e-15
-1.0683e-09
-3.38899e-08
7.61542e-15
-1.0907e-09
-3.33321e-08
9.99291e-15
-1.11142e-09
-3.27647e-08
5.18713e-15
-1.13049e-09
-3.21884e-08
-2.1939e-15
-1.14793e-09
-3.1604e-08
-7.23284e-15
-1.16374e-09
-3.10122e-08
-7.67924e-15
-1.17793e-09
-3.04139e-08
-4.31048e-15
-1.19054e-09
-2.98097e-08
4.50871e-16
-1.2016e-09
-2.92006e-08
4.22869e-15
-1.21114e-09
-2.85873e-08
5.73692e-15
-1.21919e-09
-2.79705e-08
4.95803e-15
-1.22579e-09
-2.7351e-08
2.73165e-15
-1.23096e-09
-2.67293e-08
1.59353e-16
-1.23473e-09
-2.61061e-08
-1.8719e-15
-1.23714e-09
-2.54822e-08
-2.9184e-15
-1.23822e-09
-2.48581e-08
-2.97798e-15
-1.238e-09
-2.42345e-08
-2.34491e-15
-1.23653e-09
-2.3612e-08
-1.41765e-15
-1.23383e-09
-2.29911e-08
-5.44351e-16
-1.22995e-09
-2.23726e-08
6.42928e-17
-1.22493e-09
-2.17568e-08
3.4857e-16
-1.2188e-09
-2.11444e-08
3.61743e-16
-1.2116e-09
-2.05359e-08
2.12583e-16
-1.20337e-09
-1.99318e-08
1.17068e-17
-1.19415e-09
-1.93325e-08
-1.60248e-16
-1.18398e-09
-1.87385e-08
-2.65173e-16
-1.17289e-09
-1.81503e-08
-3.00328e-16
-1.16092e-09
-1.75683e-08
-2.85855e-16
-1.14812e-09
-1.69929e-08
-2.49941e-16
-1.13451e-09
-1.64245e-08
-2.18229e-16
-1.12013e-09
-1.58635e-08
-2.07957e-16
-1.10502e-09
-1.53102e-08
-2.25414e-16
-1.08921e-09
-1.47649e-08
-2.67888e-16
-1.07273e-09
-1.4228e-08
-3.25921e-16
-1.05562e-09
-1.36999e-08
-3.86529e-16
-1.03791e-09
-1.31807e-08
-4.37108e-16
-1.01964e-09
-1.26708e-08
-4.68253e-16
-1.00081e-09
-1.21705e-08
-4.75654e-16
-9.81482e-10
-1.168e-08
-4.61181e-16
-9.61665e-10
-1.11995e-08
-4.31476e-16
-9.4139e-10
-1.07293e-08
-3.96105e-16
-9.20684e-10
-1.02695e-08
-3.64963e-16
-8.9957e-10
-9.82049e-09
-3.45558e-16
-8.78074e-10
-9.38233e-09
-3.41467e-16
-8.56219e-10
-8.95525e-09
-3.51823e-16
-8.34026e-10
-8.53941e-09
-3.72127e-16
-8.11518e-10
-8.13497e-09
-3.95846e-16
-7.88717e-10
-7.74208e-09
-4.16259e-16
-7.65644e-10
-7.36089e-09
-4.27889e-16
-7.42319e-10
-6.99151e-09
-4.2838e-16
-7.18763e-10
-6.63407e-09
-4.16701e-16
-6.94997e-10
-6.28868e-09
-3.954e-16
-6.71041e-10
-5.95544e-09
-3.68e-16
-6.46917e-10
-5.63443e-09
-3.38188e-16
-6.22646e-10
-5.32573e-09
-3.09596e-16
-5.98251e-10
-5.0294e-09
-2.85477e-16
-5.73754e-10
-4.7455e-09
-2.66779e-16
-5.49179e-10
-4.47406e-09
-2.54315e-16
-5.24553e-10
-4.21511e-09
-2.47327e-16
-4.999e-10
-3.96866e-09
-2.44921e-16
-4.7525e-10
-3.73472e-09
-2.45414e-16
-4.50632e-10
-3.51325e-09
-2.47806e-16
-4.26078e-10
-3.30422e-09
-2.50658e-16
-4.01622e-10
-3.10758e-09
-2.53132e-16
-3.77298e-10
-2.92325e-09
-2.54982e-16
-3.53147e-10
-2.75114e-09
-2.55559e-16
-3.29207e-10
-2.59113e-09
-2.55296e-16
-3.05523e-10
-2.44307e-09
-2.546e-16
-2.82141e-10
-2.30682e-09
-2.53416e-16
-2.59109e-10
-2.18217e-09
-2.51908e-16
-2.36479e-10
-2.0689e-09
-2.50888e-16
-2.14306e-10
-1.96677e-09
-2.50302e-16
-1.92648e-10
-1.8755e-09
-2.49934e-16
-1.71565e-10
-1.79477e-09
-2.50162e-16
-1.51121e-10
-1.72424e-09
-2.50066e-16
-1.31382e-10
-1.66354e-09
-2.49645e-16
-1.1242e-10
-1.61224e-09
-2.48899e-16
-9.43049e-11
-1.56989e-09
-2.46799e-16
-7.71139e-11
-1.536e-09
-2.43398e-16
-6.09244e-11
-1.51003e-09
-2.37937e-16
-4.58173e-11
-1.49141e-09
-2.30472e-16
-3.18753e-11
-1.47951e-09
-2.2073e-16
-1.91837e-11
-1.47367e-09
-2.08278e-16
-7.82951e-12
-1.47318e-09
-1.93983e-16
2.09911e-12
-1.4773e-09
-1.77737e-16
1.05126e-11
-1.48523e-09
-1.6068e-16
1.73194e-11
-1.49612e-09
-1.43568e-16
2.24272e-11
-1.50908e-09
-1.26403e-16
2.57438e-11
-1.52318e-09
-1.10106e-16
2.71776e-11
-1.53745e-09
-9.32667e-17
2.6638e-11
-1.55086e-09
-7.40973e-17
2.40363e-11
-1.56236e-09
-5.14049e-17
1.92866e-11
-1.57084e-09
-2.32379e-17
1.23073e-11
-1.57517e-09
1.04014e-17
3.02334e-12
-1.57419e-09
4.96802e-17
-8.6303e-12
-1.56673e-09
9.24285e-17
-2.27071e-11
-1.55158e-09
1.37941e-16
-3.92452e-11
-1.52757e-09
1.86002e-16
-5.82584e-11
-1.49351e-09
2.41109e-16
-7.97268e-11
-1.44828e-09
3.06571e-16
-1.03582e-10
-1.39083e-09
3.85857e-16
-1.29686e-10
-1.32025e-09
4.75714e-16
-1.57799e-10
-1.23579e-09
5.70506e-16
-1.87531e-10
-1.13702e-09
6.67251e-16
-2.18271e-10
-1.02391e-09
7.66981e-16
-2.49073e-10
-8.97038e-10
8.70511e-16
-2.78486e-10
-7.57848e-10
9.65051e-16
-3.04297e-10
-6.08971e-10
1.02264e-15
-3.23129e-10
-4.54686e-10
1.02148e-15
-3.29867e-10
-3.01448e-10
9.4796e-16
-3.16881e-10
-1.58523e-10
7.89106e-16
-2.73157e-10
-3.9253e-11
6.7128e-16
-1.83944e-10
2.95146e-11
1.60804e-15
-3.30986e-11
4.04901e-15
1.49025e-10
1.21068e-09
-2.06228e-09
1.9461e-09
-1.93418e-09
2.31778e-09
-1.38618e-09
2.4206e-09
-7.11423e-10
2.27824e-09
-5.97202e-11
1.91503e-09
5.13786e-10
1.35846e-09
9.95118e-10
6.36634e-10
1.38888e-09
-2.2328e-10
1.706e-09
-1.19605e-09
1.95844e-09
-2.25957e-09
2.15702e-09
-3.39546e-09
2.31096e-09
-4.58799e-09
2.42829e-09
-5.82354e-09
2.51591e-09
-7.09067e-09
2.57902e-09
-8.3797e-09
2.6218e-09
-9.68244e-09
2.64759e-09
-1.09919e-08
2.6591e-09
-1.23022e-08
2.65853e-09
-1.36082e-08
2.64767e-09
-1.49056e-08
2.62803e-09
-1.61904e-08
2.60083e-09
-1.74595e-08
2.5671e-09
-1.87098e-08
2.52771e-09
-1.9939e-08
2.4834e-09
-2.11449e-08
2.43479e-09
-2.23253e-08
2.38242e-09
-2.34788e-08
2.32676e-09
-2.46036e-08
2.26819e-09
-2.56986e-08
2.20709e-09
-2.67626e-08
2.14376e-09
-2.77946e-08
2.07846e-09
-2.87938e-08
2.01144e-09
-2.97593e-08
1.94289e-09
-3.06904e-08
1.87301e-09
-3.15866e-08
1.80197e-09
-3.24472e-08
1.7299e-09
-3.32718e-08
1.65693e-09
-3.40602e-08
1.58312e-09
-3.4812e-08
1.50852e-09
-3.55271e-08
1.43315e-09
-3.62055e-08
1.35702e-09
-3.68476e-08
1.28018e-09
-3.74541e-08
1.20282e-09
-3.80261e-08
1.12563e-09
-3.85637e-08
1.05039e-09
-3.90619e-08
9.81005e-10
-3.95065e-08
9.21966e-10
-3.99065e-08
8.63049e-10
-4.0356e-08
7.53662e-10
-4.08229e-08
6.66171e-10
-4.10645e-08
6.87643e-10
-4.11616e-08
6.57333e-10
-4.15209e-08
4.92232e-10
-4.18038e-08
4.04232e-10
-4.201e-08
3.37279e-10
-4.21599e-08
2.78367e-10
-4.22593e-08
2.2328e-10
-4.23009e-08
1.67752e-10
-4.22707e-08
1.02167e-10
-4.22041e-08
5.80883e-12
-4.23925e-08
-1.52423e-10
-4.23981e-08
-1.44825e-10
-4.22114e-08
-8.4794e-11
-4.20235e-08
-1.25156e-10
-4.18644e-08
-2.32133e-10
-4.17235e-08
-3.44774e-10
-4.1592e-08
-4.37703e-10
-4.1438e-08
-4.69025e-10
-4.09721e-08
-4.26486e-10
-4.06947e-08
-5.36468e-10
-4.06118e-08
-6.43894e-10
-4.0243e-08
-6.13637e-10
-3.98832e-08
-6.45193e-10
-3.95205e-08
-6.91727e-10
-3.91434e-08
-7.38434e-10
-3.87484e-08
-7.82296e-10
-3.83345e-08
-8.23037e-10
-3.79022e-08
-8.60945e-10
-3.74522e-08
-8.96405e-10
-3.69859e-08
-9.29734e-10
-3.6504e-08
-9.61118e-10
-3.60074e-08
-9.90632e-10
-3.54968e-08
-1.01831e-09
-3.49731e-08
-1.04418e-09
-3.44371e-08
-1.06829e-09
-3.38899e-08
-1.0907e-09
-3.33321e-08
-1.11143e-09
-3.27647e-08
-1.1305e-09
-3.21884e-08
-1.14793e-09
-3.1604e-08
-1.16374e-09
-3.10122e-08
-1.17793e-09
-3.04138e-08
-1.19054e-09
-2.98097e-08
-1.2016e-09
-2.92006e-08
-1.21114e-09
-2.85873e-08
-1.21919e-09
-2.79705e-08
-1.22579e-09
-2.73509e-08
-1.23096e-09
-2.67293e-08
-1.23473e-09
-2.61061e-08
-1.23714e-09
-2.54822e-08
-1.23822e-09
-2.48581e-08
-1.238e-09
-2.42345e-08
-1.23653e-09
-2.36119e-08
-1.23383e-09
-2.29911e-08
-1.22995e-09
-2.23725e-08
-1.22493e-09
-2.17568e-08
-1.2188e-09
-2.11444e-08
-1.2116e-09
-2.05359e-08
-1.20337e-09
-1.99317e-08
-1.19415e-09
-1.93325e-08
-1.18398e-09
-1.87385e-08
-1.17289e-09
-1.81503e-08
-1.16092e-09
-1.75683e-08
-1.14812e-09
-1.69929e-08
-1.13451e-09
-1.64245e-08
-1.12013e-09
-1.58635e-08
-1.10502e-09
-1.53101e-08
-1.08921e-09
-1.47649e-08
-1.07273e-09
-1.4228e-08
-1.05562e-09
-1.36999e-08
-1.03791e-09
-1.31807e-08
-1.01964e-09
-1.26708e-08
-1.00081e-09
-1.21705e-08
-9.81482e-10
-1.16799e-08
-9.61665e-10
-1.11995e-08
-9.41391e-10
-1.07292e-08
-9.20684e-10
-1.02695e-08
-8.99571e-10
-9.82047e-09
-8.78075e-10
-9.38232e-09
-8.56219e-10
-8.95524e-09
-8.34026e-10
-8.5394e-09
-8.11519e-10
-8.13496e-09
-7.88718e-10
-7.74207e-09
-7.65645e-10
-7.36087e-09
-7.4232e-10
-6.99149e-09
-7.18764e-10
-6.63406e-09
-6.94998e-10
-6.28867e-09
-6.71042e-10
-5.95542e-09
-6.46918e-10
-5.63441e-09
-6.22647e-10
-5.32571e-09
-5.98251e-10
-5.02938e-09
-5.73755e-10
-4.74548e-09
-5.4918e-10
-4.47404e-09
-5.24554e-10
-4.21509e-09
-4.99901e-10
-3.96865e-09
-4.75251e-10
-3.7347e-09
-4.50633e-10
-3.51323e-09
-4.26079e-10
-3.3042e-09
-4.01623e-10
-3.10756e-09
-3.77299e-10
-2.92323e-09
-3.53148e-10
-2.75112e-09
-3.29208e-10
-2.59111e-09
-3.05524e-10
-2.44306e-09
-2.82142e-10
-2.3068e-09
-2.5911e-10
-2.18215e-09
-2.3648e-10
-2.06888e-09
-2.14307e-10
-1.96675e-09
-1.92649e-10
-1.87548e-09
-1.71566e-10
-1.79475e-09
-1.51122e-10
-1.72423e-09
-1.31383e-10
-1.66353e-09
-1.12421e-10
-1.61223e-09
-9.43059e-11
-1.56988e-09
-7.71148e-11
-1.53599e-09
-6.09254e-11
-1.51002e-09
-4.58182e-11
-1.49139e-09
-3.18762e-11
-1.47949e-09
-1.91846e-11
-1.47366e-09
-7.83039e-12
-1.47317e-09
2.09824e-12
-1.47729e-09
1.05117e-11
-1.48522e-09
1.73185e-11
-1.49611e-09
2.24263e-11
-1.50907e-09
2.57429e-11
-1.52317e-09
2.71767e-11
-1.53744e-09
2.66371e-11
-1.55085e-09
2.40353e-11
-1.56235e-09
1.92855e-11
-1.57083e-09
1.23061e-11
-1.57516e-09
3.02208e-12
-1.57419e-09
-8.63168e-12
-1.56672e-09
-2.27086e-11
-1.55158e-09
-3.92469e-11
-1.52756e-09
-5.82603e-11
-1.49351e-09
-7.97289e-11
-1.44828e-09
-1.03584e-10
-1.39083e-09
-1.29689e-10
-1.32024e-09
-1.57802e-10
-1.23579e-09
-1.87535e-10
-1.13701e-09
-2.18275e-10
-1.02391e-09
-2.49077e-10
-8.97038e-10
-2.78491e-10
-7.57849e-10
-3.04302e-10
-6.08972e-10
-3.23135e-10
-4.54689e-10
-3.29874e-10
-3.01452e-10
-3.1689e-10
-1.58529e-10
-2.73168e-10
-3.92646e-11
-1.83957e-10
2.94929e-11
-3.31152e-11
1.49005e-10
9.89124e-10
3.78196e-12
-3.03574e-09
1.35973e-09
7.83734e-13
-2.30245e-09
1.38784e-09
1.43389e-13
-1.41442e-09
1.20768e-09
-2.79799e-15
-5.31344e-10
8.61465e-10
-1.14032e-14
2.86548e-10
3.68111e-10
1.16602e-15
1.00722e-09
-2.58747e-10
7.97742e-15
1.62203e-09
-1.00514e-09
8.78189e-15
2.13531e-09
-1.85622e-09
7.1803e-15
2.55711e-09
-2.79707e-09
5.26977e-15
2.89932e-09
-3.81348e-09
3.71155e-15
3.17346e-09
-4.89247e-09
2.59724e-15
3.38997e-09
-6.0222e-09
1.85445e-15
3.55804e-09
-7.19188e-09
1.36399e-15
3.68561e-09
-8.392e-09
1.03694e-15
3.77917e-09
-9.61423e-09
8.42793e-16
3.84406e-09
-1.08513e-08
7.65961e-16
3.88469e-09
-1.20968e-08
7.51999e-16
3.90468e-09
-1.33453e-08
7.04251e-16
3.90705e-09
-1.45919e-08
5.34801e-16
3.89428e-09
-1.58323e-08
2.24459e-16
3.86848e-09
-1.70629e-08
-1.51625e-16
3.83139e-09
-1.82803e-08
-4.53998e-16
3.78449e-09
-1.94816e-08
-5.48759e-16
3.72903e-09
-2.06643e-08
-3.78067e-16
3.6661e-09
-2.18261e-08
6.11879e-18
3.59659e-09
-2.2965e-08
4.54042e-16
3.52132e-09
-2.40792e-08
7.6461e-16
3.44096e-09
-2.51671e-08
7.5523e-16
3.35612e-09
-2.62273e-08
3.65282e-16
3.26734e-09
-2.72585e-08
-2.1142e-16
3.17507e-09
-2.82598e-08
-4.57168e-16
3.07974e-09
-2.923e-08
2.80698e-16
2.9817e-09
-3.01684e-08
2.21687e-15
2.88128e-09
-3.10742e-08
4.43887e-15
2.77876e-09
-3.19468e-08
4.89167e-15
2.67442e-09
-3.27854e-08
1.78156e-15
2.56849e-09
-3.35896e-08
-4.13145e-15
2.46117e-09
-3.43591e-08
-8.76461e-15
2.35264e-09
-3.50936e-08
-7.85915e-15
2.24303e-09
-3.57929e-08
-2.32749e-15
2.13247e-09
-3.6457e-08
1.12262e-15
2.02111e-09
-3.7086e-08
-1.62725e-15
1.90918e-09
-3.76802e-08
-4.04085e-15
1.79703e-09
-3.82399e-08
2.58237e-15
1.68542e-09
-3.87652e-08
9.93356e-15
1.57574e-09
-3.92543e-08
1.49478e-15
1.47009e-09
-3.97022e-08
-1.63676e-15
1.36985e-09
-4.01129e-08
1.40958e-14
1.27371e-09
-4.05146e-08
2.08124e-14
1.15536e-09
-4.08916e-08
1.78106e-14
1.04308e-09
-4.11738e-08
-4.95188e-15
9.69925e-10
-4.13959e-08
-3.09944e-14
8.79425e-10
-4.16536e-08
-3.06925e-14
7.49942e-10
-4.1883e-08
-2.43143e-14
6.33854e-10
-4.20713e-08
-3.93512e-14
5.25576e-10
-4.22167e-08
-5.09657e-14
4.23541e-10
-4.2319e-08
-1.83104e-14
3.25564e-10
-4.23791e-08
3.76207e-14
2.2791e-10
-4.2402e-08
5.71162e-14
1.25255e-10
-4.24101e-08
4.84606e-14
1.38748e-11
-4.24572e-08
3.06265e-14
-1.05117e-10
-4.24348e-08
1.26862e-14
-1.6736e-10
-4.23149e-08
8.10317e-15
-2.04695e-10
-4.2161e-08
1.66423e-14
-2.78893e-10
-4.20049e-08
1.22704e-14
-3.8838e-10
-4.18488e-08
-2.12591e-14
-5.00998e-10
-4.16834e-08
-7.00477e-15
-6.03354e-10
-4.1479e-08
2.21e-15
-6.73254e-10
-4.11821e-08
-3.12716e-14
-7.23548e-10
-4.09143e-08
-2.99951e-14
-8.04711e-10
-4.06758e-08
9.88919e-15
-8.8188e-10
-4.0358e-08
2.32074e-14
-9.31316e-10
-4.00142e-08
1.36007e-14
-9.89156e-10
-3.96536e-08
1.00369e-14
-1.05231e-09
-3.92762e-08
8.08847e-15
-1.11587e-09
-3.88812e-08
-6.10765e-15
-1.17746e-09
-3.84681e-08
-1.86301e-14
-1.23615e-09
-3.80372e-08
-1.35875e-14
-1.29173e-09
-3.75893e-08
1.83784e-15
-1.34426e-09
-3.71251e-08
1.06121e-14
-1.39391e-09
-3.66455e-08
6.72566e-15
-1.44082e-09
-3.61512e-08
-2.44226e-15
-1.48502e-09
-3.5643e-08
-7.24147e-15
-1.52656e-09
-3.51216e-08
-4.70871e-15
-1.56548e-09
-3.45881e-08
1.34885e-15
-1.60182e-09
-3.40431e-08
5.55221e-15
-1.63563e-09
-3.34877e-08
5.35279e-15
-1.66695e-09
-3.29224e-08
1.83349e-15
-1.69581e-09
-3.23482e-08
-2.16071e-15
-1.72223e-09
-3.17658e-08
-4.29094e-15
-1.74622e-09
-3.11759e-08
-3.86719e-15
-1.76783e-09
-3.05793e-08
-1.67417e-15
-1.78708e-09
-2.99768e-08
8.93773e-16
-1.80403e-09
-2.93692e-08
2.67184e-15
-1.81872e-09
-2.87572e-08
3.15202e-15
-1.83118e-09
-2.81416e-08
2.47328e-15
-1.84148e-09
-2.7523e-08
1.15612e-15
-1.84964e-09
-2.6902e-08
-2.11925e-16
-1.85572e-09
-2.62795e-08
-1.20232e-15
-1.85976e-09
-2.56559e-08
-1.63611e-15
-1.86181e-09
-2.5032e-08
-1.56006e-15
-1.86192e-09
-2.44084e-08
-1.15716e-15
-1.86016e-09
-2.37857e-08
-6.44753e-16
-1.85657e-09
-2.31645e-08
-1.97492e-16
-1.85121e-09
-2.25453e-08
8.96044e-17
-1.84413e-09
-2.19287e-08
2.00044e-16
-1.83539e-09
-2.13152e-08
1.72017e-16
-1.82505e-09
-2.07055e-08
6.68084e-17
-1.81316e-09
-2.00999e-08