/*--------------------------------*- C++ -*----------------------------------*\
  =========                 |
  \\      /  F ield         | OpenFOAM: The Open Source CFD Toolbox
   \\    /   O peration     | Website:  https://openfoam.org
    \\  /    A nd           | Version:  8
     \\/     M anipulation  |
\*---------------------------------------------------------------------------*/
FoamFile
{
    version     2.0;
    format      ascii;
    class       volScalarField;
    location    "4600";
    object      T;
}
// * * * * * * * * * * * * * * * * * * * * * * * * * * * * * * * * * * * * * //

dimensions      [0 0 0 1 0 0 0];

internalField   nonuniform List<scalar> 
46000
(
309.606
308.415
307.625
307.12
306.758
306.472
306.233
306.027
305.846
305.683
305.535
305.399
305.273
305.156
305.047
304.945
304.848
304.757
304.671
304.589
304.511
304.437
304.367
304.3
304.236
304.175
304.117
304.061
304.008
303.958
303.91
303.864
303.82
303.778
303.738
303.7
303.663
303.629
303.596
303.565
303.536
303.509
303.483
303.46
303.44
303.423
303.411
303.406
303.406
303.404
303.404
303.442
303.55
303.605
303.613
303.608
303.598
303.586
303.57
303.547
303.504
303.417
303.312
303.282
303.274
303.265
303.249
303.23
303.217
303.228
303.315
303.202
303.178
303.174
303.174
303.177
303.181
303.187
303.193
303.2
303.208
303.216
303.225
303.235
303.246
303.257
303.269
303.282
303.295
303.309
303.323
303.338
303.354
303.37
303.387
303.405
303.423
303.442
303.461
303.481
303.502
303.523
303.544
303.566
303.589
303.612
303.636
303.66
303.685
303.711
303.737
303.763
303.79
303.817
303.845
303.874
303.903
303.932
303.962
303.992
304.023
304.055
304.086
304.119
304.152
304.185
304.219
304.253
304.288
304.323
304.359
304.395
304.432
304.469
304.507
304.545
304.584
304.623
304.663
304.703
304.744
304.785
304.827
304.87
304.913
304.956
305
305.045
305.091
305.136
305.183
305.23
305.278
305.326
305.375
305.425
305.475
305.526
305.578
305.63
305.683
305.737
305.791
305.847
305.903
305.96
306.018
306.076
306.136
306.196
306.258
306.321
306.384
306.45
306.516
306.584
306.654
306.726
306.799
306.875
306.953
307.034
307.118
307.206
307.298
307.394
307.496
307.605
307.722
307.848
307.986
308.139
308.31
308.507
308.739
309.021
309.381
309.868
310.541
311.229
309.605
308.414
307.625
307.12
306.758
306.472
306.233
306.027
305.846
305.683
305.535
305.399
305.273
305.156
305.047
304.945
304.848
304.757
304.671
304.589
304.511
304.437
304.367
304.3
304.236
304.175
304.117
304.061
304.008
303.958
303.91
303.864
303.82
303.778
303.738
303.7
303.663
303.629
303.596
303.565
303.536
303.509
303.483
303.46
303.44
303.423
303.411
303.406
303.406
303.404
303.403
303.441
303.55
303.605
303.613
303.608
303.598
303.586
303.57
303.547
303.504
303.418
303.313
303.282
303.274
303.265
303.249
303.229
303.216
303.227
303.315
303.202
303.179
303.174
303.174
303.177
303.181
303.187
303.193
303.2
303.208
303.216
303.225
303.235
303.246
303.257
303.269
303.282
303.295
303.309
303.323
303.338
303.354
303.37
303.387
303.405
303.423
303.442
303.461
303.481
303.502
303.523
303.544
303.566
303.589
303.612
303.636
303.66
303.685
303.711
303.737
303.763
303.79
303.817
303.845
303.874
303.903
303.932
303.962
303.992
304.023
304.055
304.086
304.119
304.152
304.185
304.219
304.253
304.288
304.323
304.359
304.395
304.432
304.469
304.507
304.545
304.584
304.623
304.663
304.703
304.744
304.785
304.827
304.87
304.913
304.956
305
305.045
305.091
305.136
305.183
305.23
305.278
305.326
305.375
305.425
305.475
305.526
305.578
305.63
305.683
305.737
305.791
305.847
305.903
305.96
306.018
306.076
306.136
306.196
306.258
306.321
306.384
306.45
306.516
306.584
306.654
306.726
306.799
306.875
306.953
307.034
307.118
307.206
307.298
307.394
307.496
307.605
307.722
307.848
307.986
308.139
308.31
308.507
308.739
309.021
309.381
309.868
310.541
311.229
306.199
305.825
305.508
305.255
305.049
304.876
304.726
304.593
304.473
304.363
304.262
304.168
304.079
303.997
303.918
303.844
303.774
303.707
303.644
303.583
303.525
303.47
303.417
303.366
303.317
303.271
303.226
303.184
303.143
303.103
303.066
303.03
302.995
302.962
302.93
302.9
302.871
302.843
302.816
302.791
302.767
302.744
302.723
302.703
302.685
302.668
302.654
302.643
302.632
302.621
302.61
302.6
302.588
302.581
302.574
302.566
302.556
302.544
302.532
302.519
302.506
302.495
302.495
302.492
302.487
302.48
302.467
302.452
302.437
302.422
302.398
302.41
302.409
302.406
302.405
302.404
302.404
302.405
302.407
302.409
302.411
302.414
302.418
302.422
302.427
302.432
302.437
302.443
302.45
302.457
302.464
302.472
302.481
302.49
302.499
302.509
302.519
302.53
302.541
302.553
302.565
302.577
302.59
302.603
302.617
302.632
302.646
302.661
302.677
302.693
302.71
302.726
302.744
302.762
302.78
302.799
302.818
302.837
302.857
302.878
302.899
302.92
302.942
302.964
302.987
303.01
303.034
303.058
303.083
303.108
303.134
303.16
303.186
303.213
303.241
303.269
303.297
303.326
303.356
303.386
303.416
303.447
303.479
303.511
303.543
303.576
303.61
303.644
303.679
303.714
303.749
303.786
303.822
303.86
303.897
303.936
303.974
304.014
304.054
304.094
304.135
304.177
304.219
304.261
304.305
304.348
304.393
304.438
304.484
304.53
304.577
304.625
304.673
304.723
304.773
304.824
304.877
304.93
304.985
305.042
305.1
305.16
305.223
305.288
305.356
305.427
305.503
305.584
305.671
305.765
305.868
305.982
306.112
306.261
306.436
306.648
306.915
307.26
307.727
308.308
306.198
305.825
305.508
305.255
305.049
304.876
304.726
304.593
304.473
304.363
304.262
304.168
304.079
303.997
303.918
303.844
303.774
303.707
303.644
303.583
303.525
303.47
303.417
303.366
303.317
303.271
303.226
303.184
303.143
303.103
303.066
303.03
302.995
302.962
302.93
302.9
302.871
302.843
302.816
302.791
302.767
302.744
302.723
302.703
302.685
302.668
302.654
302.643
302.632
302.621
302.61
302.6
302.588
302.582
302.575
302.566
302.556
302.545
302.532
302.519
302.506
302.495
302.495
302.492
302.487
302.479
302.467
302.452
302.437
302.423
302.398
302.41
302.409
302.406
302.405
302.404
302.404
302.405
302.407
302.409
302.411
302.414
302.418
302.422
302.427
302.432
302.437
302.443
302.45
302.457
302.464
302.472
302.481
302.49
302.499
302.509
302.519
302.53
302.541
302.553
302.565
302.577
302.59
302.603
302.617
302.632
302.646
302.661
302.677
302.693
302.71
302.726
302.744
302.762
302.78
302.799
302.818
302.837
302.857
302.878
302.899
302.92
302.942
302.964
302.987
303.01
303.034
303.058
303.083
303.108
303.134
303.16
303.186
303.213
303.241
303.269
303.297
303.326
303.356
303.386
303.416
303.447
303.479
303.511
303.543
303.576
303.61
303.644
303.679
303.714
303.749
303.786
303.822
303.86
303.897
303.936
303.974
304.014
304.054
304.094
304.135
304.177
304.219
304.261
304.305
304.348
304.393
304.438
304.484
304.53
304.577
304.625
304.673
304.723
304.773
304.824
304.877
304.93
304.985
305.042
305.1
305.16
305.223
305.288
305.356
305.427
305.503
305.584
305.671
305.765
305.868
305.982
306.112
306.261
306.436
306.648
306.915
307.26
307.727
308.308
304.757
304.684
304.55
304.41
304.278
304.156
304.045
303.942
303.847
303.758
303.675
303.597
303.522
303.452
303.386
303.322
303.261
303.204
303.148
303.095
303.044
302.996
302.949
302.904
302.861
302.819
302.78
302.741
302.705
302.67
302.636
302.603
302.572
302.542
302.513
302.485
302.459
302.433
302.409
302.385
302.363
302.342
302.322
302.303
302.285
302.268
302.253
302.238
302.223
302.21
302.197
302.183
302.166
302.153
302.142
302.132
302.121
302.11
302.099
302.088
302.078
302.072
302.071
302.068
302.061
302.053
302.044
302.035
302.026
302.016
302.005
302.006
302.004
302.002
302
301.998
301.997
301.996
301.996
301.996
301.997
301.998
302
302.002
302.005
302.008
302.011
302.015
302.019
302.024
302.029
302.035
302.041
302.047
302.054
302.061
302.069
302.077
302.086
302.095
302.104
302.114
302.124
302.135
302.146
302.157
302.169
302.181
302.194
302.207
302.221
302.235
302.249
302.264
302.279
302.295
302.311
302.328
302.345
302.363
302.381
302.399
302.418
302.437
302.457
302.477
302.498
302.519
302.541
302.563
302.586
302.609
302.632
302.656
302.681
302.706
302.731
302.757
302.784
302.811
302.838
302.867
302.895
302.924
302.954
302.984
303.014
303.045
303.077
303.109
303.142
303.175
303.208
303.242
303.277
303.312
303.347
303.383
303.42
303.457
303.495
303.533
303.571
303.61
303.65
303.689
303.73
303.771
303.812
303.855
303.897
303.94
303.984
304.029
304.074
304.12
304.167
304.215
304.264
304.315
304.366
304.42
304.475
304.532
304.591
304.654
304.719
304.789
304.863
304.943
305.03
305.126
305.232
305.351
305.487
305.645
305.829
306.045
306.296
306.564
304.757
304.684
304.55
304.41
304.278
304.156
304.045
303.942
303.847
303.758
303.675
303.597
303.522
303.452
303.386
303.322
303.261
303.204
303.148
303.095
303.044
302.996
302.949
302.904
302.861
302.819
302.78
302.741
302.705
302.67
302.636
302.603
302.572
302.542
302.513
302.485
302.459
302.433
302.409
302.385
302.363
302.342
302.322
302.303
302.285
302.268
302.253
302.238
302.223
302.21
302.197
302.183
302.166
302.153
302.142
302.132
302.121
302.11
302.099
302.088
302.078
302.072
302.071
302.067
302.061
302.053
302.044
302.035
302.026
302.017
302.005
302.006
302.004
302.002
302
301.998
301.997
301.996
301.996
301.996
301.997
301.998
302
302.002
302.005
302.008
302.011
302.015
302.019
302.024
302.029
302.035
302.041
302.047
302.054
302.061
302.069
302.077
302.086
302.095
302.104
302.114
302.124
302.135
302.146
302.157
302.169
302.181
302.194
302.207
302.221
302.235
302.249
302.264
302.279
302.295
302.311
302.328
302.345
302.363
302.381
302.399
302.418
302.437
302.457
302.477
302.498
302.519
302.541
302.563
302.586
302.609
302.632
302.656
302.681
302.706
302.731
302.757
302.784
302.811
302.838
302.867
302.895
302.924
302.954
302.984
303.014
303.045
303.077
303.109
303.142
303.175
303.208
303.242
303.277
303.312
303.347
303.383
303.42
303.457
303.495
303.533
303.571
303.61
303.65
303.689
303.73
303.771
303.812
303.855
303.897
303.94
303.984
304.029
304.074
304.12
304.167
304.215
304.264
304.315
304.366
304.42
304.475
304.532
304.591
304.654
304.719
304.789
304.863
304.943
305.03
305.126
305.232
305.351
305.487
305.645
305.829
306.045
306.296
306.564
304.008
304.004
303.945
303.864
303.776
303.688
303.603
303.52
303.442
303.367
303.296
303.228
303.163
303.101
303.042
302.985
302.93
302.878
302.827
302.779
302.732
302.688
302.645
302.603
302.563
302.525
302.488
302.452
302.418
302.385
302.353
302.323
302.293
302.265
302.238
302.211
302.186
302.162
302.139
302.116
302.095
302.075
302.055
302.037
302.019
302.002
301.986
301.97
301.955
301.941
301.928
301.915
301.9
301.887
301.875
301.864
301.853
301.842
301.831
301.821
301.811
301.804
301.797
301.79
301.783
301.775
301.767
301.761
301.755
301.749
301.743
301.74
301.737
301.734
301.731
301.729
301.727
301.725
301.725
301.724
301.724
301.724
301.725
301.726
301.728
301.73
301.732
301.735
301.738
301.742
301.746
301.75
301.755
301.76
301.766
301.772
301.778
301.785
301.792
301.8
301.808
301.816
301.825
301.834
301.844
301.854
301.865
301.876
301.887
301.899
301.911
301.923
301.936
301.95
301.964
301.978
301.993
302.008
302.024
302.04
302.056
302.073
302.091
302.109
302.127
302.146
302.165
302.185
302.205
302.226
302.247
302.268
302.291
302.313
302.336
302.36
302.384
302.409
302.434
302.459
302.485
302.512
302.539
302.566
302.594
302.623
302.652
302.682
302.712
302.742
302.773
302.805
302.837
302.869
302.902
302.935
302.969
303.004
303.038
303.074
303.109
303.146
303.182
303.219
303.257
303.295
303.333
303.372
303.411
303.451
303.491
303.532
303.573
303.615
303.658
303.701
303.745
303.79
303.835
303.882
303.93
303.979
304.03
304.082
304.136
304.193
304.252
304.314
304.38
304.45
304.525
304.606
304.695
304.791
304.898
305.014
305.141
305.274
305.408
305.522
304.008
304.004
303.945
303.864
303.776
303.688
303.603
303.52
303.442
303.367
303.296
303.228
303.163
303.101
303.042
302.985
302.93
302.878
302.827
302.779
302.732
302.688
302.645
302.603
302.563
302.525
302.488
302.452
302.418
302.385
302.353
302.323
302.293
302.265
302.238
302.211
302.186
302.162
302.139
302.116
302.095
302.075
302.055
302.037
302.019
302.002
301.986
301.97
301.955
301.941
301.928
301.915
301.9
301.887
301.875
301.864
301.853
301.842
301.831
301.821
301.811
301.803
301.797
301.79
301.783
301.775
301.767
301.761
301.755
301.749
301.743
301.74
301.737
301.734
301.731
301.729
301.727
301.725
301.725
301.724
301.724
301.724
301.725
301.726
301.728
301.73
301.732
301.735
301.738
301.742
301.746
301.75
301.755
301.76
301.766
301.772
301.778
301.785
301.792
301.8
301.808
301.816
301.825
301.834
301.844
301.854
301.865
301.876
301.887
301.899
301.911
301.923
301.936
301.95
301.964
301.978
301.993
302.008
302.024
302.04
302.056
302.073
302.091
302.109
302.127
302.146
302.165
302.185
302.205
302.226
302.247
302.268
302.291
302.313
302.336
302.36
302.384
302.409
302.434
302.459
302.485
302.512
302.539
302.566
302.594
302.623
302.652
302.682
302.712
302.742
302.773
302.805
302.837
302.869
302.902
302.935
302.969
303.004
303.038
303.074
303.109
303.146
303.182
303.219
303.257
303.295
303.333
303.372
303.411
303.451
303.491
303.532
303.573
303.615
303.658
303.701
303.745
303.79
303.835
303.882
303.93
303.979
304.03
304.082
304.136
304.193
304.252
304.314
304.38
304.45
304.525
304.606
304.695
304.791
304.898
305.014
305.141
305.274
305.408
305.522
303.528
303.537
303.509
303.46
303.4
303.334
303.268
303.201
303.136
303.072
303.01
302.951
302.893
302.837
302.783
302.732
302.682
302.633
302.587
302.542
302.499
302.457
302.417
302.378
302.34
302.304
302.269
302.235
302.203
302.171
302.141
302.112
302.084
302.057
302.031
302.006
301.981
301.958
301.936
301.914
301.893
301.873
301.854
301.836
301.819
301.802
301.786
301.77
301.755
301.74
301.727
301.713
301.7
301.687
301.675
301.663
301.652
301.641
301.63
301.62
301.611
301.602
301.594
301.586
301.578
301.571
301.564
301.558
301.552
301.548
301.543
301.539
301.535
301.532
301.529
301.526
301.524
301.522
301.521
301.52
301.519
301.519
301.519
301.52
301.521
301.522
301.524
301.526
301.528
301.531
301.535
301.538
301.542
301.547
301.552
301.557
301.562
301.568
301.575
301.582
301.589
301.597
301.605
301.613
301.622
301.631
301.641
301.651
301.661
301.672
301.683
301.695
301.707
301.72
301.733
301.746
301.76
301.774
301.789
301.804
301.82
301.836
301.852
301.869
301.887
301.905
301.923
301.942
301.961
301.981
302.001
302.022
302.043
302.065
302.087
302.11
302.133
302.156
302.18
302.205
302.23
302.256
302.282
302.308
302.335
302.363
302.391
302.42
302.449
302.478
302.508
302.539
302.569
302.601
302.633
302.665
302.698
302.731
302.764
302.798
302.833
302.868
302.903
302.939
302.975
303.011
303.048
303.085
303.123
303.161
303.2
303.239
303.278
303.318
303.359
303.4
303.441
303.484
303.527
303.57
303.615
303.661
303.708
303.756
303.806
303.858
303.912
303.968
304.026
304.088
304.154
304.223
304.296
304.374
304.457
304.543
304.63
304.714
304.786
304.836
303.528
303.537
303.509
303.46
303.4
303.334
303.268
303.201
303.136
303.072
303.01
302.951
302.893
302.837
302.783
302.732
302.682
302.633
302.587
302.542
302.499
302.457
302.417
302.378
302.34
302.304
302.269
302.235
302.203
302.171
302.141
302.112
302.084
302.057
302.031
302.006
301.981
301.958
301.936
301.914
301.893
301.873
301.854
301.836
301.819
301.802
301.786
301.77
301.755
301.74
301.727
301.713
301.7
301.687
301.675
301.663
301.651
301.641
301.63
301.62
301.611
301.602
301.594
301.586
301.578
301.571
301.564
301.558
301.552
301.548
301.543
301.539
301.535
301.532
301.529
301.526
301.524
301.522
301.521
301.52
301.519
301.519
301.519
301.52
301.521
301.522
301.524
301.526
301.528
301.531
301.535
301.538
301.542
301.547
301.552
301.557
301.562
301.568
301.575
301.582
301.589
301.597
301.605
301.613
301.622
301.631
301.641
301.651
301.661
301.672
301.683
301.695
301.707
301.72
301.733
301.746
301.76
301.774
301.789
301.804
301.82
301.836
301.852
301.869
301.887
301.905
301.923
301.942
301.961
301.981
302.001
302.022
302.043
302.065
302.087
302.11
302.133
302.156
302.18
302.205
302.23
302.256
302.282
302.308
302.335
302.363
302.391
302.42
302.449
302.478
302.508
302.539
302.569
302.601
302.633
302.665
302.698
302.731
302.764
302.798
302.833
302.868
302.903
302.939
302.975
303.011
303.048
303.085
303.123
303.161
303.2
303.239
303.278
303.318
303.359
303.4
303.441
303.484
303.527
303.57
303.615
303.661
303.708
303.756
303.806
303.858
303.912
303.968
304.026
304.088
304.154
304.223
304.296
304.374
304.457
304.543
304.63
304.714
304.786
304.836
303.178
303.188
303.173
303.14
303.097
303.048
302.995
302.94
302.885
302.83
302.777
302.724
302.672
302.622
302.573
302.525
302.479
302.435
302.391
302.349
302.309
302.27
302.232
302.195
302.159
302.125
302.092
302.059
302.028
301.998
301.969
301.941
301.914
301.888
301.863
301.839
301.815
301.793
301.771
301.75
301.729
301.71
301.691
301.673
301.656
301.639
301.623
301.608
301.593
301.578
301.564
301.551
301.537
301.524
301.512
301.5
301.489
301.478
301.468
301.458
301.449
301.44
301.432
301.423
301.416
301.408
301.401
301.395
301.39
301.385
301.381
301.376
301.373
301.369
301.366
301.363
301.361
301.358
301.357
301.355
301.354
301.354
301.353
301.353
301.354
301.355
301.356
301.358
301.36
301.362
301.365
301.368
301.371
301.375
301.38
301.384
301.389
301.395
301.401
301.407
301.414
301.421
301.428
301.436
301.444
301.453
301.462
301.471
301.481
301.491
301.502
301.513
301.524
301.536
301.549
301.561
301.575
301.588
301.602
301.617
301.632
301.647
301.663
301.679
301.696
301.713
301.731
301.749
301.768
301.787
301.807
301.827
301.847
301.868
301.89
301.912
301.934
301.957
301.98
302.004
302.029
302.053
302.079
302.105
302.131
302.158
302.185
302.213
302.241
302.27
302.299
302.328
302.358
302.389
302.42
302.451
302.483
302.515
302.548
302.581
302.614
302.648
302.682
302.717
302.752
302.787
302.823
302.859
302.895
302.932
302.969
303.007
303.044
303.083
303.122
303.161
303.2
303.241
303.281
303.323
303.365
303.408
303.452
303.497
303.543
303.59
303.639
303.69
303.742
303.797
303.853
303.912
303.973
304.036
304.1
304.164
304.225
304.279
304.32
304.343
303.178
303.188
303.173
303.14
303.097
303.048
302.995
302.94
302.885
302.83
302.777
302.724
302.672
302.622
302.573
302.525
302.479
302.435
302.391
302.349
302.309
302.27
302.232
302.195
302.159
302.125
302.092
302.059
302.028
301.998
301.969
301.941
301.914
301.888
301.863
301.839
301.815
301.793
301.771
301.75
301.729
301.71
301.691
301.673
301.656
301.639
301.623
301.608
301.593
301.578
301.564
301.551
301.537
301.524
301.512
301.5
301.489
301.478
301.468
301.458
301.449
301.44
301.432
301.423
301.416
301.408
301.401
301.395
301.39
301.385
301.381
301.376
301.373
301.369
301.366
301.363
301.361
301.358
301.357
301.355
301.354
301.354
301.353
301.353
301.354
301.355
301.356
301.358
301.36
301.362
301.365
301.368
301.371
301.375
301.38
301.384
301.389
301.395
301.401
301.407
301.414
301.421
301.428
301.436
301.444
301.453
301.462
301.471
301.481
301.491
301.502
301.513
301.524
301.536
301.549
301.561
301.575
301.588
301.602
301.617
301.632
301.647
301.663
301.679
301.696
301.713
301.731
301.749
301.768
301.787
301.807
301.827
301.847
301.868
301.89
301.912
301.934
301.957
301.98
302.004
302.029
302.053
302.079
302.105
302.131
302.158
302.185
302.213
302.241
302.27
302.299
302.328
302.358
302.389
302.42
302.451
302.483
302.515
302.548
302.581
302.614
302.648
302.682
302.717
302.752
302.787
302.823
302.859
302.895
302.932
302.969
303.007
303.045
303.083
303.122
303.161
303.2
303.241
303.281
303.323
303.365
303.408
303.452
303.497
303.543
303.59
303.639
303.69
303.742
303.797
303.853
303.912
303.973
304.036
304.1
304.164
304.225
304.279
304.32
304.342
302.903
302.91
302.9
302.877
302.844
302.806
302.763
302.718
302.671
302.624
302.576
302.529
302.483
302.437
302.392
302.349
302.306
302.265
302.224
302.185
302.147
302.11
302.074
302.039
302.005
301.972
301.94
301.91
301.88
301.851
301.823
301.796
301.77
301.745
301.72
301.697
301.674
301.652
301.631
301.61
301.59
301.571
301.553
301.535
301.518
301.501
301.485
301.47
301.455
301.44
301.426
301.413
301.4
301.387
301.375
301.363
301.352
301.341
301.331
301.321
301.312
301.303
301.295
301.286
301.279
301.271
301.265
301.259
301.253
301.248
301.243
301.239
301.235
301.231
301.228
301.225
301.222
301.219
301.217
301.216
301.214
301.213
301.213
301.213
301.213
301.213
301.214
301.215
301.217
301.219
301.221
301.224
301.227
301.231
301.235
301.239
301.244
301.249
301.254
301.26
301.266
301.272
301.279
301.287
301.294
301.303
301.311
301.32
301.329
301.339
301.349
301.36
301.371
301.382
301.394
301.407
301.419
301.432
301.446
301.46
301.474
301.489
301.505
301.52
301.537
301.553
301.571
301.588
301.606
301.625
301.644
301.663
301.683
301.704
301.725
301.746
301.768
301.79
301.813
301.836
301.86
301.884
301.909
301.934
301.96
301.986
302.013
302.04
302.068
302.096
302.124
302.153
302.182
302.212
302.242
302.273
302.304
302.335
302.367
302.399
302.432
302.465
302.498
302.532
302.566
302.6
302.634
302.669
302.705
302.74
302.776
302.812
302.849
302.885
302.923
302.96
302.998
303.036
303.075
303.114
303.154
303.195
303.236
303.277
303.32
303.364
303.408
303.454
303.501
303.548
303.598
303.648
303.698
303.749
303.8
303.847
303.891
303.926
303.951
303.96
302.903
302.91
302.9
302.877
302.844
302.806
302.763
302.718
302.671
302.624
302.576
302.529
302.483
302.437
302.392
302.349
302.306
302.265
302.224
302.185
302.147
302.11
302.074
302.039
302.005
301.972
301.94
301.91
301.88
301.851
301.823
301.796
301.77
301.745
301.72
301.697
301.674
301.652
301.631
301.61
301.59
301.571
301.553
301.535
301.518
301.501
301.485
301.47
301.455
301.44
301.426
301.413
301.4
301.387
301.375
301.363
301.352
301.341
301.331
301.321
301.312
301.303
301.295
301.286
301.279
301.271
301.265
301.259
301.253
301.248
301.243
301.239
301.235
301.231
301.228
301.225
301.222
301.219
301.217
301.216
301.214
301.213
301.213
301.213
301.213
301.213
301.214
301.215
301.217
301.219
301.221
301.224
301.227
301.231
301.235
301.239
301.244
301.249
301.254
301.26
301.266
301.272
301.279
301.287
301.294
301.303
301.311
301.32
301.329
301.339
301.349
301.36
301.371
301.382
301.394
301.407
301.419
301.432
301.446
301.46
301.474
301.489
301.505
301.52
301.537
301.553
301.571
301.588
301.606
301.625
301.644
301.663
301.683
301.704
301.725
301.746
301.768
301.79
301.813
301.836
301.86
301.884
301.909
301.934
301.96
301.986
302.013
302.04
302.068
302.096
302.124
302.153
302.182
302.212
302.242
302.273
302.304
302.335
302.367
302.399
302.432
302.465
302.498
302.532
302.566
302.6
302.634
302.669
302.705
302.74
302.776
302.812
302.849
302.885
302.923
302.96
302.998
303.036
303.075
303.114
303.154
303.195
303.236
303.277
303.32
303.364
303.408
303.454
303.501
303.548
303.598
303.648
303.698
303.749
303.8
303.847
303.891
303.926
303.951
303.96
302.675
302.679
302.671
302.653
302.628
302.597
302.561
302.523
302.483
302.441
302.4
302.357
302.316
302.274
302.233
302.193
302.153
302.115
302.077
302.04
302.004
301.969
301.935
301.901
301.869
301.838
301.807
301.778
301.749
301.721
301.695
301.668
301.643
301.619
301.595
301.572
301.55
301.528
301.507
301.487
301.468
301.449
301.431
301.414
301.397
301.38
301.365
301.349
301.334
301.32
301.306
301.293
301.28
301.267
301.255
301.243
301.232
301.221
301.211
301.201
301.192
301.183
301.175
301.167
301.159
301.152
301.145
301.139
301.133
301.128
301.123
301.118
301.114
301.11
301.107
301.103
301.1
301.098
301.096
301.094
301.092
301.091
301.09
301.089
301.089
301.09
301.09
301.091
301.092
301.094
301.096
301.099
301.101
301.104
301.108
301.112
301.116
301.121
301.126
301.131
301.137
301.143
301.15
301.157
301.164
301.172
301.18
301.189
301.198
301.207
301.217
301.227
301.238
301.249
301.26
301.272
301.284
301.297
301.31
301.324
301.338
301.352
301.367
301.382
301.398
301.414
301.431
301.448
301.466
301.484
301.503
301.522
301.541
301.561
301.581
301.602
301.624
301.646
301.668
301.691
301.714
301.738
301.762
301.787
301.812
301.838
301.864
301.89
301.917
301.945
301.972
302.001
302.029
302.059
302.088
302.118
302.148
302.179
302.21
302.242
302.273
302.305
302.338
302.371
302.404
302.437
302.471
302.504
302.539
302.573
302.608
302.643
302.678
302.713
302.749
302.785
302.821
302.858
302.895
302.932
302.97
303.008
303.046
303.085
303.125
303.165
303.205
303.246
303.288
303.33
303.373
303.416
303.458
303.499
303.539
303.575
303.607
303.631
303.645
303.649
302.675
302.679
302.671
302.653
302.628
302.597
302.561
302.523
302.483
302.441
302.4
302.357
302.316
302.274
302.233
302.193
302.153
302.115
302.077
302.04
302.004
301.969
301.935
301.901
301.869
301.838
301.807
301.778
301.749
301.721
301.695
301.668
301.643
301.619
301.595
301.572
301.55
301.528
301.507
301.487
301.468
301.449
301.431
301.414
301.397
301.38
301.365
301.349
301.334
301.32
301.306
301.293
301.28
301.267
301.255
301.243
301.232
301.221
301.211
301.201
301.192
301.183
301.175
301.167
301.159
301.152
301.145
301.139
301.133
301.128
301.123
301.118
301.114
301.11
301.107
301.103
301.1
301.098
301.096
301.094
301.092
301.091
301.09
301.089
301.089
301.09
301.09
301.091
301.092
301.094
301.096
301.099
301.101
301.104
301.108
301.112
301.116
301.121
301.126
301.131
301.137
301.143
301.15
301.157
301.164
301.172
301.18
301.189
301.198
301.207
301.217
301.227
301.238
301.249
301.26
301.272
301.284
301.297
301.31
301.324
301.338
301.352
301.367
301.382
301.398
301.414
301.431
301.448
301.466
301.484
301.503
301.522
301.541
301.561
301.581
301.602
301.624
301.646
301.668
301.691
301.714
301.738
301.762
301.787
301.812
301.838
301.864
301.89
301.917
301.945
301.972
302.001
302.029
302.059
302.088
302.118
302.148
302.179
302.21
302.242
302.273
302.305
302.338
302.371
302.404
302.437
302.471
302.504
302.539
302.573
302.608
302.643
302.678
302.713
302.749
302.785
302.821
302.858
302.895
302.932
302.97
303.008
303.046
303.085
303.125
303.165
303.205
303.246
303.288
303.33
303.373
303.416
303.458
303.499
303.539
303.575
303.607
303.631
303.645
303.648
302.479
302.481
302.474
302.459
302.438
302.412
302.382
302.349
302.314
302.278
302.241
302.203
302.165
302.127
302.089
302.052
302.015
301.979
301.944
301.909
301.875
301.842
301.809
301.777
301.747
301.717
301.687
301.659
301.631
301.605
301.579
301.553
301.529
301.505
301.482
301.46
301.438
301.417
301.397
301.377
301.358
301.34
301.322
301.305
301.288
301.272
301.256
301.241
301.226
301.212
301.198
301.185
301.172
301.16
301.148
301.136
301.125
301.114
301.104
301.095
301.085
301.076
301.068
301.06
301.052
301.045
301.038
301.032
301.026
301.02
301.015
301.011
301.006
301.002
300.998
300.995
300.992
300.989
300.986
300.984
300.982
300.981
300.98
300.979
300.979
300.979
300.979
300.98
300.981
300.982
300.984
300.986
300.989
300.992
300.995
300.998
301.002
301.007
301.012
301.017
301.022
301.028
301.034
301.041
301.048
301.055
301.063
301.071
301.08
301.089
301.098
301.108
301.119
301.129
301.14
301.152
301.164
301.176
301.189
301.202
301.216
301.23
301.244
301.259
301.275
301.291
301.307
301.324
301.341
301.359
301.377
301.395
301.414
301.434
301.454
301.475
301.495
301.517
301.539
301.561
301.584
301.607
301.631
301.655
301.68
301.705
301.731
301.757
301.783
301.81
301.837
301.865
301.893
301.922
301.951
301.98
302.01
302.04
302.07
302.101
302.132
302.163
302.195
302.227
302.259
302.292
302.324
302.357
302.39
302.424
302.457
302.491
302.525
302.559
302.594
302.628
302.663
302.698
302.733
302.769
302.804
302.84
302.876
302.912
302.949
302.986
303.023
303.06
303.097
303.134
303.171
303.208
303.243
303.277
303.309
303.337
303.36
303.377
303.386
303.385
302.479
302.481
302.474
302.459
302.438
302.412
302.382
302.349
302.314
302.278
302.241
302.203
302.165
302.127
302.089
302.052
302.015
301.979
301.944
301.909
301.875
301.842
301.809
301.777
301.747
301.717
301.687
301.659
301.631
301.605
301.579
301.553
301.529
301.505
301.482
301.46
301.438
301.417
301.397
301.377
301.358
301.34
301.322
301.305
301.288
301.272
301.256
301.241
301.226
301.212
301.198
301.185
301.172
301.16
301.148
301.136
301.125
301.114
301.104
301.095
301.085
301.076
301.068
301.06
301.052
301.045
301.038
301.032
301.026
301.02
301.015
301.011
301.006
301.002
300.998
300.995
300.992
300.989
300.986
300.984
300.982
300.981
300.98
300.979
300.979
300.979
300.979
300.98
300.981
300.982
300.984
300.986
300.989
300.992
300.995
300.998
301.002
301.007
301.012
301.017
301.022
301.028
301.034
301.041
301.048
301.055
301.063
301.071
301.08
301.089
301.098
301.108
301.119
301.129
301.14
301.152
301.164
301.176
301.189
301.202
301.216
301.23
301.244
301.259
301.275
301.291
301.307
301.324
301.341
301.359
301.377
301.395
301.414
301.434
301.454
301.475
301.495
301.517
301.539
301.561
301.584
301.607
301.631
301.655
301.68
301.705
301.731
301.757
301.783
301.81
301.837
301.865
301.893
301.922
301.951
301.98
302.01
302.04
302.07
302.101
302.132
302.163
302.195
302.227
302.259
302.292
302.324
302.357
302.39
302.424
302.457
302.491
302.525
302.559
302.594
302.628
302.663
302.698
302.733
302.769
302.804
302.84
302.876
302.912
302.949
302.986
303.023
303.06
303.097
303.134
303.171
303.208
303.243
303.277
303.309
303.337
303.36
303.377
303.386
303.385
302.307
302.307
302.3
302.288
302.269
302.247
302.221
302.193
302.162
302.129
302.096
302.062
302.027
301.992
301.957
301.923
301.888
301.855
301.821
301.788
301.756
301.725
301.694
301.664
301.634
301.605
301.577
301.55
301.524
301.498
301.472
301.448
301.424
301.401
301.379
301.357
301.336
301.315
301.295
301.276
301.258
301.239
301.222
301.205
301.189
301.173
301.157
301.142
301.128
301.114
301.1
301.087
301.074
301.062
301.05
301.038
301.027
301.017
301.007
300.997
300.988
300.979
300.971
300.962
300.955
300.948
300.941
300.934
300.928
300.922
300.917
300.912
300.908
300.903
300.899
300.896
300.892
300.889
300.887
300.885
300.883
300.881
300.88
300.879
300.878
300.878
300.878
300.878
300.879
300.88
300.882
300.884
300.886
300.889
300.892
300.895
300.899
300.903
300.907
300.912
300.917
300.923
300.929
300.935
300.942
300.949
300.957
300.965
300.973
300.982
300.991
301
301.01
301.021
301.031
301.043
301.054
301.066
301.079
301.092