/*--------------------------------*- C++ -*----------------------------------*\
  =========                 |
  \\      /  F ield         | OpenFOAM: The Open Source CFD Toolbox
   \\    /   O peration     | Website:  https://openfoam.org
    \\  /    A nd           | Version:  8
     \\/     M anipulation  |
\*---------------------------------------------------------------------------*/
FoamFile
{
    version     2.0;
    format      ascii;
    class       volVectorField;
    location    "4600";
    object      U;
}
// * * * * * * * * * * * * * * * * * * * * * * * * * * * * * * * * * * * * * //

dimensions      [0 1 -1 0 0 0 0];

internalField   nonuniform List<vector> 
46000
(
(0.00232864 -8.60198e-07 -0.00236942)
(0.0113079 -5.66516e-05 -0.00655536)
(0.020396 -4.69248e-05 -0.00608607)
(0.0267741 -2.27407e-05 -0.00376026)
(0.0297953 -7.25703e-06 -0.00135424)
(0.0298586 -8.79889e-07 0.000712342)
(0.027447 7.87709e-07 0.00236841)
(0.0230648 8.24264e-07 0.00365221)
(0.0171328 5.41272e-07 0.0046332)
(0.00999452 3.05782e-07 0.00537941)
(0.0019231 1.56002e-07 0.00593885)
(-0.00687519 6.65438e-08 0.00633986)
(-0.0161896 1.6562e-08 0.00661688)
(-0.0259037 -8.13092e-09 0.0068054)
(-0.0358988 -1.70511e-08 0.00692437)
(-0.0460863 -1.51475e-08 0.00698779)
(-0.0563921 -4.59339e-09 0.00700646)
(-0.0667552 1.20108e-08 0.00698883)
(-0.0771248 2.99008e-08 0.00694155)
(-0.0874582 4.31811e-08 0.00686992)
(-0.0977194 4.73422e-08 0.00677818)
(-0.107878 4.14379e-08 0.00666975)
(-0.117907 2.84735e-08 0.00654739)
(-0.127784 1.35792e-08 0.00641337)
(-0.13749 1.04607e-09 0.00626957)
(-0.147008 -7.91902e-09 0.00611755)
(-0.156322 -1.51387e-08 0.00595866)
(-0.16542 -2.28407e-08 0.00579407)
(-0.174291 -3.00799e-08 0.00562482)
(-0.182923 -3.09127e-08 0.00545185)
(-0.19131 -1.63986e-08 0.0052759)
(-0.199443 1.96047e-08 0.00509755)
(-0.207316 7.33073e-08 0.00491714)
(-0.214925 1.26652e-07 0.0047349)
(-0.222264 1.50261e-07 0.00455104)
(-0.229329 1.17015e-07 0.00436597)
(-0.236114 2.45984e-08 0.00418029)
(-0.242614 -8.66332e-08 0.00399455)
(-0.248828 -1.4581e-07 0.00380887)
(-0.254752 -1.08025e-07 0.00362261)
(-0.260384 -1.83423e-08 0.00343452)
(-0.26572 4.17057e-09 0.00324345)
(-0.270751 -1.02998e-07 0.00304922)
(-0.275465 -2.36251e-07 0.00285378)
(-0.279853 -2.21079e-07 0.00266581)
(-0.283914 -3.58823e-08 0.00251821)
(-0.287671 9.28084e-08 0.00250565)
(-0.291239 -2.36173e-07 0.00276534)
(-0.295091 -9.56893e-07 0.00305936)
(-0.298292 -1.15137e-06 0.00167256)
(-0.299797 -1.16706e-06 0.00174355)
(-0.302146 -1.21782e-06 0.00810811)
(-0.306281 -5.63555e-07 0.0111805)
(-0.30919 2.73105e-07 0.00179275)
(-0.309906 6.80738e-07 0.000660615)
(-0.31093 1.27721e-06 0.000566217)
(-0.311942 1.23774e-06 0.00054309)
(-0.312887 4.42423e-07 0.000510387)
(-0.313795 -2.43582e-07 0.00041432)
(-0.314731 -1.79005e-07 -2.96435e-05)
(-0.315751 9.82648e-10 -0.00220344)
(-0.314469 -4.35344e-07 -0.0108244)
(-0.312352 -9.09764e-07 -0.00589882)
(-0.312084 -1.17404e-06 0.000295544)
(-0.313016 -1.07809e-06 0.000872248)
(-0.313054 3.75844e-08 -0.000222738)
(-0.311962 5.6203e-07 -0.00131929)
(-0.309934 -8.20666e-07 -0.00195238)
(-0.307476 -1.70447e-06 -0.0007815)
(-0.306119 -1.92198e-07 0.00705728)
(-0.304824 1.66545e-06 -0.00154629)
(-0.30205 3.69444e-07 -0.00967017)
(-0.299455 -3.00079e-07 -0.00206801)
(-0.297306 -3.15338e-07 -0.00145335)
(-0.294896 -9.14684e-07 -0.00152786)
(-0.292228 -4.61148e-08 -0.00165371)
(-0.289352 9.90225e-07 -0.0017674)
(-0.286302 5.00416e-07 -0.00186942)
(-0.283098 -5.54797e-07 -0.00196318)
(-0.27975 -7.86285e-07 -0.00204957)
(-0.276267 -2.10467e-07 -0.00212942)
(-0.272658 3.21087e-07 -0.00220416)
(-0.268936 3.30208e-07 -0.00227496)
(-0.265106 2.37801e-08 -0.00234218)
(-0.261175 -1.76393e-07 -0.00240558)
(-0.25715 -9.77556e-08 -0.00246496)
(-0.253037 1.254e-07 -0.00252038)
(-0.248844 2.6942e-07 -0.00257209)
(-0.244576 2.25201e-07 -0.00262028)
(-0.240241 4.31624e-08 -0.00266499)
(-0.235843 -1.47008e-07 -0.00270613)
(-0.231389 -2.39004e-07 -0.00274357)
(-0.226883 -2.03193e-07 -0.00277726)
(-0.222334 -7.9507e-08 -0.0028072)
(-0.217746 6.26283e-08 -0.00283351)
(-0.213127 1.6428e-07 -0.00285632)
(-0.208482 1.9828e-07 -0.00287576)
(-0.203816 1.69766e-07 -0.00289193)
(-0.199136 1.03968e-07 -0.00290489)
(-0.194446 3.08593e-08 -0.00291467)
(-0.189751 -2.63807e-08 -0.00292132)
(-0.185055 -5.6617e-08 -0.00292487)
(-0.180364 -6.02911e-08 -0.00292537)
(-0.175682 -4.54074e-08 -0.00292287)
(-0.171014 -2.25656e-08 -0.00291745)
(-0.166365 -8.75598e-10 -0.00290919)
(-0.161739 1.42564e-08 -0.00289819)
(-0.157139 2.14427e-08 -0.00288453)
(-0.152571 2.22652e-08 -0.00286829)
(-0.148037 1.96851e-08 -0.00284957)
(-0.143543 1.65582e-08 -0.00282843)
(-0.13909 1.48058e-08 -0.00280496)
(-0.134683 1.51265e-08 -0.00277924)
(-0.130324 1.72078e-08 -0.00275135)
(-0.126017 2.01931e-08 -0.00272136)
(-0.121765 2.30991e-08 -0.00268937)
(-0.117571 2.51451e-08 -0.00265544)
(-0.113437 2.59197e-08 -0.00261966)
(-0.109365 2.53544e-08 -0.00258211)
(-0.105359 2.37334e-08 -0.00254287)
(-0.101421 2.15027e-08 -0.002502)
(-0.0975516 1.91884e-08 -0.00245957)
(-0.0937542 1.72333e-08 -0.00241567)
(-0.0900306 1.59625e-08 -0.00237036)
(-0.0863824 1.5476e-08 -0.0023237)
(-0.0828113 1.56891e-08 -0.00227576)
(-0.0793191 1.63571e-08 -0.00222661)
(-0.0759072 1.71686e-08 -0.0021763)
(-0.072577 1.78236e-08 -0.0021249)
(-0.06933 1.81188e-08 -0.00207246)
(-0.0661673 1.7969e-08 -0.00201906)
(-0.06309 1.74375e-08 -0.00196473)
(-0.0600994 1.66742e-08 -0.00190954)
(-0.0571963 1.58707e-08 -0.00185354)
(-0.0543817 1.52372e-08 -0.00179679)
(-0.0516565 1.4917e-08 -0.00173934)
(-0.0490213 1.49721e-08 -0.00168124)
(-0.0464769 1.54025e-08 -0.00162256)
(-0.0440238 1.61317e-08 -0.00156335)
(-0.0416627 1.70547e-08 -0.00150366)
(-0.0393938 1.80579e-08 -0.00144356)
(-0.0372177 1.90198e-08 -0.0013831)
(-0.0351345 1.98784e-08 -0.00132237)
(-0.0331445 2.06087e-08 -0.00126141)
(-0.0312477 2.11874e-08 -0.00120032)
(-0.0294441 2.16559e-08 -0.00113915)
(-0.0277336 2.20445e-08 -0.001078)
(-0.0261158 2.23765e-08 -0.00101696)
(-0.0245906 2.27219e-08 -0.000956104)
(-0.0231572 2.30858e-08 -0.000895542)
(-0.0218152 2.34816e-08 -0.000835376)
(-0.0205637 2.39344e-08 -0.000775717)
(-0.0194017 2.44191e-08 -0.000716684)
(-0.0183282 2.49174e-08 -0.000658401)
(-0.0173419 2.54091e-08 -0.000601001)
(-0.0164411 2.58643e-08 -0.000544626)
(-0.0156244 2.6241e-08 -0.000489424)
(-0.0148897 2.65527e-08 -0.000435551)
(-0.0142349 2.67658e-08 -0.000383173)
(-0.0136576 2.68585e-08 -0.000332463)
(-0.0131553 2.68493e-08 -0.000283601)
(-0.012725 2.67614e-08 -0.000236775)
(-0.0123636 2.65881e-08 -0.000192183)
(-0.0120677 2.6368e-08 -0.000150027)
(-0.0118334 2.6121e-08 -0.000110517)
(-0.0116568 2.58674e-08 -7.38694e-05)
(-0.0115335 2.56271e-08 -4.03073e-05)
(-0.0114588 2.54236e-08 -1.00588e-05)
(-0.0114277 2.52503e-08 1.66397e-05)
(-0.0114349 2.51104e-08 3.95558e-05)
(-0.0114746 2.49639e-08 5.84566e-05)
(-0.0115408 2.47839e-08 7.30942e-05)
(-0.011627 2.44966e-08 8.32189e-05)
(-0.0117266 2.40582e-08 8.85841e-05)
(-0.0118322 2.33782e-08 8.89439e-05)
(-0.0119364 2.2453e-08 8.40548e-05)
(-0.0120314 2.12691e-08 7.36765e-05)
(-0.0121088 1.9853e-08 5.7575e-05)
(-0.0121601 1.8319e-08 3.55224e-05)
(-0.0121764 1.67475e-08 7.30328e-06)
(-0.0121482 1.5219e-08 -2.7259e-05)
(-0.0120663 1.37537e-08 -6.83201e-05)
(-0.0119206 1.23047e-08 -0.000116015)
(-0.0117014 1.08651e-08 -0.000170411)
(-0.0113985 9.4551e-09 -0.000231486)
(-0.011002 8.23291e-09 -0.000299088)
(-0.0105022 7.4477e-09 -0.000372867)
(-0.00988995 7.29514e-09 -0.000452171)
(-0.00915734 7.84664e-09 -0.000535885)
(-0.0082983 8.9885e-09 -0.00062216)
(-0.00730991 1.06239e-08 -0.000707998)
(-0.0061943 1.27672e-08 -0.000788555)
(-0.00496175 1.53658e-08 -0.000856023)
(-0.00363566 1.7942e-08 -0.000897814)
(-0.00226011 1.93145e-08 -0.000893768)
(-0.000913768 1.83125e-08 -0.00081213)
(0.000277477 1.4904e-08 -0.000605442)
(0.00110154 1.30259e-08 -0.000218826)
(0.00130531 3.06729e-08 0.000309163)
(0.000522357 2.62109e-08 0.000558464)
(0.00233294 -8.59687e-07 -0.002381)
(0.0113072 -5.66077e-05 -0.00657565)
(0.0204035 -4.69155e-05 -0.00609892)
(0.0267806 -2.27403e-05 -0.00376661)
(0.0297973 -7.25709e-06 -0.00135699)
(0.0298577 -8.79894e-07 0.000711257)
(0.0274453 7.87709e-07 0.002368)
(0.0230632 8.24262e-07 0.00365204)
(0.0171318 5.4127e-07 0.0046331)
(0.00999387 3.05781e-07 0.00537934)
(0.0019227 1.56001e-07 0.00593879)
(-0.00687542 6.65436e-08 0.00633982)
(-0.0161897 1.6562e-08 0.00661687)
(-0.0259038 -8.1309e-09 0.0068054)
(-0.0358988 -1.70511e-08 0.00692439)
(-0.0460862 -1.51475e-08 0.00698783)
(-0.056392 -4.59338e-09 0.00700652)
(-0.066755 1.20107e-08 0.0069889)
(-0.0771246 2.99007e-08 0.00694162)
(-0.0874579 4.3181e-08 0.00686999)
(-0.0977191 4.73421e-08 0.00677823)
(-0.107877 4.14378e-08 0.00666976)
(-0.117907 2.84735e-08 0.00654735)
(-0.127784 1.35792e-08 0.00641329)
(-0.13749 1.04607e-09 0.00626945)
(-0.147008 -7.919e-09 0.00611742)
(-0.156322 -1.51387e-08 0.00595853)
(-0.16542 -2.28407e-08 0.00579399)
(-0.174291 -3.00799e-08 0.00562482)
(-0.182923 -3.09127e-08 0.00545193)
(-0.191309 -1.63986e-08 0.00527604)
(-0.199442 1.96047e-08 0.00509768)
(-0.207316 7.33072e-08 0.00491717)
(-0.214925 1.26652e-07 0.00473477)
(-0.222265 1.50261e-07 0.0045508)
(-0.229329 1.17015e-07 0.00436578)
(-0.236113 2.45984e-08 0.00418032)
(-0.242613 -8.66332e-08 0.00399487)
(-0.248827 -1.4581e-07 0.0038093)
(-0.254751 -1.08024e-07 0.00362278)
(-0.260385 -1.83423e-08 0.00343425)
(-0.265721 4.17056e-09 0.00324301)
(-0.270751 -1.02998e-07 0.00304912)
(-0.275464 -2.36252e-07 0.00285409)
(-0.279852 -2.21081e-07 0.00266609)
(-0.283913 -3.58832e-08 0.00251844)
(-0.287672 9.28133e-08 0.00250618)
(-0.29124 -2.36189e-07 0.00276456)
(-0.295091 -9.56891e-07 0.00305585)
(-0.298292 -1.15113e-06 0.00166725)
(-0.299799 -1.16662e-06 0.00173471)
(-0.302149 -1.21759e-06 0.00809732)
(-0.306282 -5.63453e-07 0.01118)
(-0.309193 2.73119e-07 0.00180947)
(-0.30991 6.80942e-07 0.000674758)
(-0.310933 1.27774e-06 0.000581497)
(-0.311938 1.23832e-06 0.000555955)
(-0.312878 4.42637e-07 0.00051216)
(-0.313784 -2.43711e-07 0.000402131)
(-0.314719 -1.7912e-07 -4.71137e-05)
(-0.315744 9.83425e-10 -0.00221641)
(-0.314468 -4.35622e-07 -0.0108434)
(-0.312351 -9.1015e-07 -0.00591653)
(-0.312084 -1.17441e-06 0.000287547)
(-0.313014 -1.07825e-06 0.000870043)
(-0.313051 3.75858e-08 -0.000222715)
(-0.311962 5.61995e-07 -0.00132128)
(-0.309935 -8.20488e-07 -0.00195499)
(-0.307474 -1.70355e-06 -0.00077991)
(-0.306115 -1.91986e-07 0.00704898)
(-0.304822 1.66542e-06 -0.00155382)
(-0.30205 3.69784e-07 -0.00967725)
(-0.299456 -3.00181e-07 -0.00206482)
(-0.297306 -3.15371e-07 -0.00145381)
(-0.294895 -9.14713e-07 -0.001528)
(-0.292225 -4.61152e-08 -0.0016532)
(-0.289351 9.90226e-07 -0.00176771)
(-0.286304 5.00416e-07 -0.00187049)
(-0.283099 -5.54797e-07 -0.00196386)
(-0.279749 -7.86284e-07 -0.00204941)
(-0.276265 -2.10467e-07 -0.0021289)
(-0.272657 3.21087e-07 -0.00220385)
(-0.268935 3.30208e-07 -0.00227499)
(-0.265106 2.37801e-08 -0.00234233)
(-0.261175 -1.76393e-07 -0.00240567)
(-0.25715 -9.77555e-08 -0.00246497)
(-0.253037 1.254e-07 -0.0025204)
(-0.248844 2.6942e-07 -0.00257219)
(-0.244576 2.252e-07 -0.00262046)
(-0.240241 4.31624e-08 -0.00266519)
(-0.235843 -1.47008e-07 -0.00270628)
(-0.231388 -2.39004e-07 -0.00274365)
(-0.226883 -2.03193e-07 -0.00277726)
(-0.222333 -7.95069e-08 -0.00280717)
(-0.217746 6.26283e-08 -0.00283349)
(-0.213126 1.6428e-07 -0.00285634)
(-0.208481 1.98279e-07 -0.00287583)
(-0.203816 1.69766e-07 -0.00289203)
(-0.199136 1.03968e-07 -0.00290501)
(-0.194446 3.08592e-08 -0.0029148)
(-0.189751 -2.63807e-08 -0.00292144)
(-0.185055 -5.6617e-08 -0.00292497)
(-0.180364 -6.0291e-08 -0.00292544)
(-0.175682 -4.54073e-08 -0.00292292)
(-0.171014 -2.25656e-08 -0.00291749)
(-0.166365 -8.75598e-10 -0.00290923)
(-0.161738 1.42564e-08 -0.00289822)
(-0.157139 2.14427e-08 -0.00288456)
(-0.152571 2.22652e-08 -0.00286833)
(-0.148037 1.96851e-08 -0.0028496)
(-0.143542 1.65581e-08 -0.00282847)
(-0.13909 1.48058e-08 -0.002805)
(-0.134682 1.51265e-08 -0.00277928)
(-0.130324 1.72078e-08 -0.00275138)
(-0.126017 2.01931e-08 -0.0027214)
(-0.121765 2.30991e-08 -0.0026894)
(-0.117571 2.51451e-08 -0.00265548)
(-0.113437 2.59197e-08 -0.0026197)
(-0.109365 2.53544e-08 -0.00258216)
(-0.105359 2.37334e-08 -0.00254291)
(-0.10142 2.15027e-08 -0.00250204)
(-0.0975514 1.91883e-08 -0.00245962)
(-0.0937541 1.72333e-08 -0.00241572)
(-0.0900304 1.59625e-08 -0.0023704)
(-0.0863822 1.5476e-08 -0.00232374)
(-0.0828112 1.56891e-08 -0.0022758)
(-0.0793189 1.63571e-08 -0.00222665)
(-0.075907 1.71686e-08 -0.00217634)
(-0.0725769 1.78236e-08 -0.00212494)
(-0.0693298 1.81188e-08 -0.00207251)
(-0.0661671 1.7969e-08 -0.0020191)
(-0.0630899 1.74375e-08 -0.00196477)
(-0.0600993 1.66742e-08 -0.00190958)
(-0.0571962 1.58707e-08 -0.00185359)
(-0.0543816 1.52372e-08 -0.00179684)
(-0.0516564 1.4917e-08 -0.00173939)
(-0.0490212 1.49721e-08 -0.00168129)
(-0.0464768 1.54025e-08 -0.00162261)
(-0.0440237 1.61317e-08 -0.0015634)
(-0.0416625 1.70546e-08 -0.00150371)
(-0.0393937 1.80579e-08 -0.00144361)
(-0.0372176 1.90198e-08 -0.00138316)
(-0.0351344 1.98784e-08 -0.00132243)
(-0.0331444 2.06087e-08 -0.00126147)
(-0.0312476 2.11873e-08 -0.00120038)
(-0.029444 2.16559e-08 -0.00113922)
(-0.0277334 2.20445e-08 -0.00107807)
(-0.0261157 2.23764e-08 -0.00101702)
(-0.0245904 2.27219e-08 -0.000956173)
(-0.0231571 2.30858e-08 -0.000895613)
(-0.0218151 2.34816e-08 -0.00083545)
(-0.0205636 2.39344e-08 -0.000775794)
(-0.0194016 2.44191e-08 -0.000716763)
(-0.0183281 2.49174e-08 -0.000658483)
(-0.0173417 2.54091e-08 -0.000601086)
(-0.016441 2.58643e-08 -0.000544714)
(-0.0156243 2.6241e-08 -0.000489514)
(-0.0148896 2.65527e-08 -0.000435645)
(-0.0142348 2.67658e-08 -0.00038327)
(-0.0136575 2.68585e-08 -0.000332563)
(-0.0131552 2.68492e-08 -0.000283704)
(-0.0127249 2.67614e-08 -0.000236882)
(-0.0123635 2.65881e-08 -0.000192293)
(-0.0120676 2.6368e-08 -0.00015014)
(-0.0118333 2.6121e-08 -0.000110634)
(-0.0116567 2.58673e-08 -7.39898e-05)
(-0.0115334 2.5627e-08 -4.0431e-05)
(-0.0114587 2.54236e-08 -1.01858e-05)
(-0.0114276 2.52502e-08 1.65093e-05)
(-0.0114348 2.51104e-08 3.94219e-05)
(-0.0114745 2.49639e-08 5.83189e-05)
(-0.0115407 2.47839e-08 7.29526e-05)
(-0.0116269 2.44965e-08 8.3073e-05)
(-0.0117265 2.40582e-08 8.84335e-05)
(-0.0118321 2.33782e-08 8.87884e-05)
(-0.0119364 2.2453e-08 8.38941e-05)
(-0.0120313 2.12691e-08 7.35104e-05)
(-0.0121088 1.9853e-08 5.74033e-05)
(-0.0121601 1.83189e-08 3.53449e-05)
(-0.0121763 1.67475e-08 7.11986e-06)
(-0.0121482 1.5219e-08 -2.74486e-05)
(-0.0120662 1.37537e-08 -6.85164e-05)
(-0.0119206 1.23046e-08 -0.000116219)
(-0.0117014 1.0865e-08 -0.000170623)
(-0.0113985 9.45509e-09 -0.000231706)
(-0.011002 8.2329e-09 -0.000299317)
(-0.0105022 7.44769e-09 -0.000373105)
(-0.00988994 7.29513e-09 -0.00045242)
(-0.00915733 7.84663e-09 -0.000536144)
(-0.0082983 8.98849e-09 -0.000622431)
(-0.00730992 1.06239e-08 -0.000708281)
(-0.00619432 1.27672e-08 -0.000788852)
(-0.00496178 1.53658e-08 -0.000856333)
(-0.00363569 1.7942e-08 -0.000898141)
(-0.00226015 1.93145e-08 -0.000894113)
(-0.000913819 1.83125e-08 -0.000812498)
(0.000277404 1.4904e-08 -0.000605835)
(0.00110144 1.30259e-08 -0.00021925)
(0.00130506 3.06729e-08 0.000308703)
(0.000522158 2.62109e-08 0.000558071)
(0.00628896 5.65483e-05 -0.0119662)
(0.013114 5.40266e-06 -0.0137053)
(0.0169105 -3.31878e-06 -0.0107487)
(0.0187567 -2.79916e-06 -0.00619923)
(0.0185411 -1.07748e-06 -0.0016633)
(0.0165345 -1.0493e-07 0.00231562)
(0.0129343 2.0637e-07 0.00560884)
(0.00795886 2.25213e-07 0.00825814)
(0.00182559 1.66371e-07 0.0103584)
(-0.00526614 1.07419e-07 0.012007)
(-0.0131249 6.50623e-08 0.0132858)
(-0.0216026 3.80903e-08 0.0142608)
(-0.0305653 2.21202e-08 0.0149918)
(-0.0399032 1.31916e-08 0.0155304)
(-0.0495193 8.82797e-09 0.0159123)
(-0.0593338 7.98797e-09 0.0161657)
(-0.0692787 1.01072e-08 0.0163129)
(-0.0792966 1.39606e-08 0.0163716)
(-0.0893385 1.74934e-08 0.016356)
(-0.0993625 1.85751e-08 0.0162776)
(-0.109333 1.6107e-08 0.016146)
(-0.119218 1.06544e-08 0.0159687)
(-0.128992 4.15324e-09 0.0157522)
(-0.138632 -1.18384e-09 0.0155019)
(-0.148116 -4.13418e-09 0.0152223)
(-0.157427 -5.05316e-09 0.0149171)
(-0.16655 -5.37809e-09 0.0145896)
(-0.17547 -6.25893e-09 0.0142426)
(-0.184175 -7.24462e-09 0.0138785)
(-0.192655 -5.97811e-09 0.0134996)
(-0.2009 6.53256e-10 0.0131076)
(-0.208903 1.42701e-08 0.0127042)
(-0.216657 3.24882e-08 0.0122907)
(-0.224156 4.74492e-08 0.0118681)
(-0.231394 4.74144e-08 0.0114375)
(-0.238366 2.35909e-08 0.0109998)
(-0.245067 -1.88928e-08 0.0105559)
(-0.251494 -5.52511e-08 0.0101065)
(-0.257643 -5.54849e-08 0.00965202)
(-0.263514 -1.90411e-08 0.00919196)
(-0.269106 7.03269e-09 0.00872522)
(-0.274419 -2.56948e-08 0.00825032)
(-0.279452 -8.78318e-08 0.00776576)
(-0.284208 -9.27463e-08 0.00727032)
(-0.288696 -3.39757e-08 0.00676565)
(-0.292923 3.466e-09 0.00626556)
(-0.296888 -1.3667e-08 0.00581358)
(-0.300563 6.64074e-09 0.00546653)
(-0.303615 3.6764e-07 0.00507055)
(-0.306692 6.76851e-07 0.00424431)
(-0.310503 6.64885e-07 0.00339753)
(-0.313254 5.98526e-07 0.00312694)
(-0.314304 4.25116e-07 0.00283651)
(-0.31605 -4.31935e-07 0.0023928)
(-0.318673 -2.15714e-07 0.00217298)
(-0.320514 -3.55466e-09 0.00191498)
(-0.321842 -1.73383e-07 0.00164397)
(-0.322787 -3.29295e-07 0.00138968)
(-0.323342 -2.8818e-07 0.00116659)
(-0.323386 -1.59103e-07 0.00097116)
(-0.322794 -3.34954e-09 0.000728378)
(-0.323272 1.96006e-07 0.000237815)
(-0.324161 2.78739e-07 9.6132e-05)
(-0.323496 -9.5495e-08 0.000167412)
(-0.321908 1.26674e-07 -0.000308152)
(-0.320544 7.10745e-07 -0.00118214)
(-0.319397 5.68003e-07 -0.0020601)
(-0.318344 1.26062e-08 -0.00275054)
(-0.317219 1.98457e-08 -0.00301994)
(-0.31509 -3.11294e-09 -0.00284402)
(-0.312435 1.41533e-07 -0.00314637)
(-0.310727 4.49021e-07 -0.00347431)
(-0.308806 7.53275e-07 -0.00350535)
(-0.306123 -8.57905e-08 -0.00383029)
(-0.303401 -4.25087e-07 -0.00416858)
(-0.300584 1.38964e-07 -0.00447595)
(-0.297635 2.77996e-07 -0.00475367)
(-0.294544 -1.45014e-07 -0.0050081)
(-0.291312 -3.88217e-07 -0.00524321)
(-0.287942 -1.96499e-07 -0.00546142)
(-0.284442 9.51083e-08 -0.00566487)
(-0.280819 1.71756e-07 -0.00585544)
(-0.27708 4.855e-08 -0.00603432)
(-0.273233 -7.85304e-08 -0.00620196)
(-0.269283 -8.24821e-08 -0.00635853)
(-0.265237 1.05885e-08 -0.00650421)
(-0.261101 9.84787e-08 -0.00663931)
(-0.256882 1.09385e-07 -0.00676414)
(-0.252586 4.54025e-08 -0.00687891)
(-0.24822 -4.15297e-08 -0.00698373)
(-0.243789 -9.7586e-08 -0.00707864)
(-0.239298 -9.91181e-08 -0.00716371)
(-0.234755 -5.63066e-08 -0.00723906)
(-0.230164 2.36723e-09 -0.00730487)
(-0.225533 4.91428e-08 -0.00736139)
(-0.220866 6.88491e-08 -0.00740882)
(-0.21617 6.10352e-08 -0.00744739)
(-0.21145 3.53496e-08 -0.00747731)
(-0.206712 4.72182e-09 -0.00749878)
(-0.201959 -2.02023e-08 -0.00751199)
(-0.197199 -3.38339e-08 -0.00751714)
(-0.192434 -3.57703e-08 -0.00751443)
(-0.187671 -2.92231e-08 -0.00750409)
(-0.182913 -1.8809e-08 -0.00748634)
(-0.178166 -8.70667e-09 -0.00746141)
(-0.173434 -1.53871e-09 -0.00742954)
(-0.168722 1.87081e-09 -0.00739098)
(-0.164032 2.10263e-09 -0.00734597)
(-0.159371 4.55592e-10 -0.00729474)
(-0.15474 -1.72146e-09 -0.00723754)
(-0.150145 -3.44845e-09 -0.00717459)
(-0.145588 -4.28248e-09 -0.00710614)
(-0.141074 -4.23005e-09 -0.0070324)
(-0.136605 -3.58545e-09 -0.00695362)
(-0.132185 -2.73177e-09 -0.00687)
(-0.127816 -2.0045e-09 -0.00678178)
(-0.123502 -1.62056e-09 -0.00668917)
(-0.119246 -1.65469e-09 -0.00659237)
(-0.115049 -2.06338e-09 -0.00649159)
(-0.110915 -2.72062e-09 -0.00638704)
(-0.106846 -3.45967e-09 -0.0062789)
(-0.102845 -4.11667e-09 -0.00616735)
(-0.0989132 -4.56756e-09 -0.00605259)
(-0.0950531 -4.75212e-09 -0.00593478)
(-0.0912666 -4.68441e-09 -0.0058141)
(-0.0875558 -4.43701e-09 -0.00569069)
(-0.0839223 -4.11778e-09 -0.00556473)
(-0.080368 -3.84209e-09 -0.00543635)
(-0.0768943 -3.69256e-09 -0.00530571)
(-0.0735029 -3.70948e-09 -0.00517294)
(-0.0701951 -3.87668e-09 -0.00503817)
(-0.0669724 -4.13901e-09 -0.00490154)
(-0.0638361 -4.41882e-09 -0.00476318)
(-0.0607872 -4.63722e-09 -0.00462321)
(-0.057827 -4.73607e-09 -0.00448176)
(-0.0549564 -4.69374e-09 -0.00433894)
(-0.0521765 -4.50687e-09 -0.00419487)
(-0.0494881 -4.2128e-09 -0.00404969)
(-0.046892 -3.86053e-09 -0.00390351)
(-0.0443889 -3.4974e-09 -0.00375647)
(-0.0419796 -3.1687e-09 -0.00360868)
(-0.0396645 -2.91101e-09 -0.0034603)
(-0.0374441 -2.73099e-09 -0.00331146)
(-0.0353188 -2.63657e-09 -0.00316231)
(-0.0332888 -2.60864e-09 -0.00301302)
(-0.0313543 -2.63476e-09 -0.00286374)
(-0.0295154 -2.68792e-09 -0.00271467)
(-0.0277719 -2.75523e-09 -0.00256598)
(-0.0261238 -2.81841e-09 -0.00241788)
(-0.0245706 -2.86623e-09 -0.00227059)
(-0.0231119 -2.89743e-09 -0.00212434)
(-0.0217471 -2.90868e-09 -0.00197938)
(-0.0204754 -2.90497e-09 -0.00183597)
(-0.0192958 -2.89628e-09 -0.00169439)
(-0.0182071 -2.8851e-09 -0.00155493)
(-0.0172082 -2.87559e-09 -0.00141793)
(-0.0162973 -2.88274e-09 -0.0012837)
(-0.0154728 -2.90489e-09 -0.00115262)
(-0.0147326 -2.94122e-09 -0.00102504)
(-0.0140745 -2.99755e-09 -0.000901372)
(-0.013496 -3.06057e-09 -0.000782021)
(-0.0129944 -3.13028e-09 -0.000667422)
(-0.0125667 -3.20419e-09 -0.000558024)
(-0.0122094 -3.26398e-09 -0.000454299)
(-0.0119191 -3.30795e-09 -0.000356733)
(-0.0116917 -3.32946e-09 -0.00026583)
(-0.011523 -3.32098e-09 -0.000182111)
(-0.0114085 -3.2825e-09 -0.00010611)
(-0.0113432 -3.20984e-09 -3.83755e-05)
(-0.0113219 -3.11132e-09 2.05354e-05)
(-0.0113391 -2.98777e-09 7.00526e-05)
(-0.0113887 -2.85337e-09 0.00010959)
(-0.0114644 -2.72228e-09 0.000138556)
(-0.0115597 -2.597e-09 0.000156356)
(-0.0116675 -2.49591e-09 0.000162395)
(-0.0117805 -2.40815e-09 0.00015608)
(-0.011891 -2.32121e-09 0.000136823)
(-0.011991 -2.2184e-09 0.000104046)
(-0.0120721 -2.06882e-09 5.71936e-05)
(-0.0121259 -1.85994e-09 -4.25806e-06)
(-0.0121433 -1.57998e-09 -8.07778e-05)
(-0.0121154 -1.23727e-09 -0.000172779)
(-0.0120329 -8.51829e-10 -0.00028059)
(-0.0118868 -4.43681e-10 -0.0004044)
(-0.0116677 1.31109e-11 -0.000544194)
(-0.0113667 5.52873e-10 -0.000699664)
(-0.0109754 1.23172e-09 -0.000870059)
(-0.0104859 2.0389e-09 -0.00105397)
(-0.0098917 2.93106e-09 -0.00124899)
(-0.00918796 3.85226e-09 -0.00145119)
(-0.00837252 4.78757e-09 -0.00165426)
(-0.007447 5.75391e-09 -0.00184823)
(-0.0064185 6.66439e-09 -0.00201733)
(-0.0053019 7.23261e-09 -0.00213672)
(-0.00412272 7.13145e-09 -0.00216739)
(-0.00292147 6.03477e-09 -0.0020492)
(-0.00175541 3.70611e-09 -0.00169287)
(-0.000714291 1.32086e-09 -0.000980936)
(0.000104298 8.27802e-09 0.000175248)
(0.000254648 6.79804e-09 0.0013456)
(0.00630308 5.65583e-05 -0.0119704)
(0.0131202 5.40239e-06 -0.0137126)
(0.0169131 -3.3187e-06 -0.0107517)
(0.018757 -2.79912e-06 -0.00620149)
(0.0185405 -1.07747e-06 -0.00166497)
(0.0165337 -1.04929e-07 0.00231465)
(0.0129335 2.06368e-07 0.00560836)
(0.00795831 2.25211e-07 0.00825792)
(0.00182524 1.6637e-07 0.0103583)
(-0.00526634 1.07418e-07 0.0120069)
(-0.013125 6.50617e-08 0.0132858)
(-0.0216026 3.809e-08 0.0142608)
(-0.0305653 2.212e-08 0.0149918)
(-0.0399031 1.31915e-08 0.0155304)
(-0.0495193 8.82791e-09 0.0159123)
(-0.0593337 7.98791e-09 0.0161657)
(-0.0692786 1.01071e-08 0.0163129)
(-0.0792965 1.39605e-08 0.0163716)
(-0.0893383 1.74932e-08 0.016356)
(-0.0993623 1.8575e-08 0.0162776)
(-0.109333 1.61069e-08 0.0161459)
(-0.119218 1.06543e-08 0.0159687)
(-0.128992 4.15321e-09 0.0157522)
(-0.138632 -1.18383e-09 0.0155019)
(-0.148116 -4.13415e-09 0.0152222)
(-0.157427 -5.05313e-09 0.014917)
(-0.16655 -5.37805e-09 0.0145895)
(-0.175469 -6.25889e-09 0.0142425)
(-0.184175 -7.24458e-09 0.0138785)
(-0.192654 -5.97807e-09 0.0134996)
(-0.2009 6.53251e-10 0.0131077)
(-0.208903 1.427e-08 0.0127043)
(-0.216657 3.2488e-08 0.0122907)
(-0.224156 4.74489e-08 0.0118681)
(-0.231394 4.74141e-08 0.0114374)
(-0.238366 2.35907e-08 0.0109997)
(-0.245067 -1.88927e-08 0.0105559)
(-0.251493 -5.52507e-08 0.0101067)
(-0.257642 -5.54845e-08 0.00965226)
(-0.263514 -1.9041e-08 0.00919205)
(-0.269107 7.03264e-09 0.00872507)
(-0.274419 -2.56947e-08 0.00825015)
(-0.279452 -8.78312e-08 0.00776584)
(-0.284208 -9.27462e-08 0.00727056)
(-0.288696 -3.39762e-08 0.0067657)
(-0.292923 3.46617e-09 0.00626539)
(-0.296888 -1.36685e-08 0.00581359)
(-0.300562 6.64164e-09 0.00546716)
(-0.303614 3.6764e-07 0.00507133)
(-0.306691 6.7665e-07 0.00424418)
(-0.310501 6.64708e-07 0.00339811)
(-0.313251 5.98784e-07 0.00312888)
(-0.314302 4.25359e-07 0.00283862)
(-0.316049 -4.32217e-07 0.00239193)
(-0.318673 -2.15902e-07 0.00217242)
(-0.320515 -3.5583e-09 0.0019166)
(-0.321845 -1.73573e-07 0.00164718)
(-0.322791 -3.29674e-07 0.00139179)
(-0.323345 -2.88536e-07 0.00116604)
(-0.323384 -1.59319e-07 0.000969038)
(-0.322788 -3.35381e-09 0.0007269)
(-0.32327 1.96128e-07 0.000237201)
(-0.324162 2.78826e-07 9.6537e-05)
(-0.323497 -9.55299e-08 0.000167474)
(-0.321907 1.26707e-07 -0.000307188)
(-0.320543 7.10798e-07 -0.00118167)
(-0.319397 5.6791e-07 -0.00206074)
(-0.318343 1.25983e-08 -0.00275047)
(-0.317216 1.9815e-08 -0.00301856)
(-0.315089 -3.10601e-09 -0.0028425)
(-0.312435 1.41627e-07 -0.00314415)
(-0.310728 4.50052e-07 -0.00347288)
(-0.308807 7.54204e-07 -0.00350606)
(-0.306124 -8.58238e-08 -0.00383023)
(-0.3034 -4.25128e-07 -0.00416788)
(-0.300583 1.38967e-07 -0.00447557)
(-0.297635 2.77996e-07 -0.00475411)
(-0.294545 -1.45014e-07 -0.00500874)
(-0.291312 -3.88215e-07 -0.00524343)
(-0.287941 -1.96498e-07 -0.00546121)
(-0.284441 9.51078e-08 -0.00566459)
(-0.280818 1.71755e-07 -0.00585535)
(-0.27708 4.85497e-08 -0.00603436)
(-0.273232 -7.85299e-08 -0.00620201)
(-0.269282 -8.24817e-08 -0.00635852)
(-0.265236 1.05885e-08 -0.00650417)
(-0.261101 9.84782e-08 -0.00663931)
(-0.256882 1.09384e-07 -0.0067642)
(-0.252586 4.54023e-08 -0.00687902)
(-0.24822 -4.15295e-08 -0.00698383)
(-0.243789 -9.75855e-08 -0.0070787)
(-0.239298 -9.91175e-08 -0.00716372)
(-0.234754 -5.63063e-08 -0.00723903)
(-0.230164 2.36722e-09 -0.00730484)
(-0.225532 4.91425e-08 -0.00736137)
(-0.220866 6.88488e-08 -0.00740882)
(-0.21617 6.10349e-08 -0.00744742)
(-0.21145 3.53494e-08 -0.00747736)
(-0.206712 4.72179e-09 -0.00749883)
(-0.201959 -2.02022e-08 -0.00751204)
(-0.197198 -3.38337e-08 -0.00751718)
(-0.192434 -3.57701e-08 -0.00751446)
(-0.187671 -2.92229e-08 -0.00750411)
(-0.182913 -1.88089e-08 -0.00748635)
(-0.178166 -8.70663e-09 -0.00746142)
(-0.173434 -1.53871e-09 -0.00742955)
(-0.168721 1.8708e-09 -0.00739099)
(-0.164032 2.10262e-09 -0.00734598)
(-0.159371 4.5559e-10 -0.00729475)
(-0.15474 -1.72145e-09 -0.00723755)
(-0.150145 -3.44843e-09 -0.0071746)
(-0.145588 -4.28246e-09 -0.00710615)
(-0.141074 -4.23003e-09 -0.00703241)
(-0.136605 -3.58543e-09 -0.00695363)
(-0.132185 -2.73176e-09 -0.00687001)
(-0.127816 -2.00449e-09 -0.00678179)
(-0.123502 -1.62056e-09 -0.00668918)
(-0.119245 -1.65468e-09 -0.00659238)
(-0.115049 -2.06337e-09 -0.0064916)
(-0.110915 -2.72061e-09 -0.00638705)
(-0.106846 -3.45966e-09 -0.00627891)
(-0.102845 -4.11666e-09 -0.00616737)
(-0.098913 -4.56754e-09 -0.0060526)
(-0.0950529 -4.7521e-09 -0.0059348)
(-0.0912665 -4.68439e-09 -0.00581411)
(-0.0875557 -4.43699e-09 -0.00569071)
(-0.0839222 -4.11776e-09 -0.00556474)
(-0.0803678 -3.84208e-09 -0.00543637)
(-0.0768942 -3.69255e-09 -0.00530572)
(-0.0735028 -3.70946e-09 -0.00517295)
(-0.070195 -3.87667e-09 -0.00503818)
(-0.0669723 -4.13899e-09 -0.00490156)
(-0.0638359 -4.4188e-09 -0.0047632)
(-0.0607871 -4.63721e-09 -0.00462323)
(-0.0578268 -4.73606e-09 -0.00448177)
(-0.0549563 -4.69372e-09 -0.00433895)
(-0.0521764 -4.50685e-09 -0.00419489)
(-0.0494879 -4.21278e-09 -0.00404971)
(-0.0468919 -3.86051e-09 -0.00390353)
(-0.0443888 -3.49738e-09 -0.00375648)
(-0.0419795 -3.16869e-09 -0.0036087)
(-0.0396644 -2.911e-09 -0.00346032)
(-0.037444 -2.73098e-09 -0.00331148)
(-0.0353187 -2.63656e-09 -0.00316233)
(-0.0332887 -2.60863e-09 -0.00301304)
(-0.0313542 -2.63475e-09 -0.00286377)
(-0.0295152 -2.68791e-09 -0.00271469)
(-0.0277718 -2.75522e-09 -0.002566)
(-0.0261237 -2.8184e-09 -0.0024179)
(-0.0245705 -2.86622e-09 -0.00227062)
(-0.0231118 -2.89742e-09 -0.00212437)
(-0.021747 -2.90867e-09 -0.0019794)
(-0.0204752 -2.90496e-09 -0.00183599)
(-0.0192956 -2.89627e-09 -0.00169441)
(-0.018207 -2.88509e-09 -0.00155496)
(-0.0172081 -2.87558e-09 -0.00141795)
(-0.0162972 -2.88273e-09 -0.00128373)
(-0.0154727 -2.90488e-09 -0.00115264)
(-0.0147325 -2.94121e-09 -0.00102507)
(-0.0140744 -2.99754e-09 -0.0009014)
(-0.0134959 -3.06056e-09 -0.00078205)
(-0.0129943 -3.13028e-09 -0.000667451)
(-0.0125666 -3.20419e-09 -0.000558054)
(-0.0122093 -3.26397e-09 -0.00045433)
(-0.011919 -3.30794e-09 -0.000356764)
(-0.0116916 -3.32945e-09 -0.000265862)
(-0.0115229 -3.32097e-09 -0.000182143)
(-0.0114084 -3.28249e-09 -0.000106142)
(-0.0113431 -3.20983e-09 -3.84087e-05)
(-0.0113218 -3.11131e-09 2.05015e-05)
(-0.011339 -2.98777e-09 7.00181e-05)
(-0.0113886 -2.85336e-09 0.000109555)
(-0.0114644 -2.72227e-09 0.00013852)
(-0.0115596 -2.597e-09 0.000156319)
(-0.0116675 -2.4959e-09 0.000162357)
(-0.0117805 -2.40814e-09 0.000156041)
(-0.011891 -2.3212e-09 0.000136782)
(-0.0119909 -2.21839e-09 0.000104004)
(-0.0120721 -2.06881e-09 5.71495e-05)
(-0.0121258 -1.85994e-09 -4.30391e-06)
(-0.0121432 -1.57998e-09 -8.08257e-05)
(-0.0121153 -1.23727e-09 -0.000172829)
(-0.0120329 -8.51827e-10 -0.000280643)
(-0.0118867 -4.4368e-10 -0.000404456)
(-0.0116676 1.31109e-11 -0.000544253)
(-0.0113667 5.52872e-10 -0.000699726)
(-0.0109754 1.23171e-09 -0.000870125)
(-0.0104859 2.03889e-09 -0.00105404)
(-0.00989168 2.93105e-09 -0.00124907)
(-0.00918796 3.85225e-09 -0.00145127)
(-0.00837252 4.78756e-09 -0.00165435)
(-0.007447 5.7539e-09 -0.00184832)
(-0.00641851 6.66438e-09 -0.00201743)
(-0.00530191 7.23259e-09 -0.00213683)
(-0.00412273 7.13144e-09 -0.00216751)
(-0.00292149 6.03476e-09 -0.00204934)
(-0.00175544 3.7061e-09 -0.00169303)
(-0.000714344 1.32086e-09 -0.000981131)
(0.000104146 8.27802e-09 0.000174971)
(0.000254415 6.79806e-09 0.0013452)
(0.00550785 3.47569e-05 -0.0214534)
(0.00996765 7.40312e-06 -0.0177192)
(0.0109464 1.44988e-06 -0.0117722)
(0.0103297 4.52327e-08 -0.00537861)
(0.00824716 -4.47824e-08 0.000659239)