/*--------------------------------*- C++ -*----------------------------------*\
  =========                 |
  \\      /  F ield         | OpenFOAM: The Open Source CFD Toolbox
   \\    /   O peration     | Website:  https://openfoam.org
    \\  /    A nd           | Version:  8
     \\/     M anipulation  |
\*---------------------------------------------------------------------------*/
FoamFile
{
    version     2.0;
    format      ascii;
    class       volScalarField;
    location    "2300";
    object      k;
}
// * * * * * * * * * * * * * * * * * * * * * * * * * * * * * * * * * * * * * //

dimensions      [0 2 -2 0 0 0 0];

internalField   nonuniform List<scalar> 
48000
(
0.024824
0.0463132
0.0709495
0.0929677
0.113368
0.132024
0.149351
0.165966
0.18192
0.197242
0.212069
0.226461
0.240465
0.254116
0.267441
0.280458
0.293179
0.305613
0.317765
0.329637
0.34123
0.352542
0.363572
0.374315
0.384771
0.394934
0.404802
0.414371
0.423639
0.432604
0.441263
0.449615
0.45766
0.465396
0.472825
0.479948
0.486765
0.49328
0.499494
0.505411
0.511035
0.516368
0.521416
0.526184
0.530674
0.534893
0.538845
0.542562
0.54605
0.549293
0.552295
0.555059
0.557595
0.559908
0.562005
0.563894
0.56558
0.567071
0.568372
0.56949
0.570432
0.571204
0.57181
0.572259
0.572554
0.572702
0.572707
0.572576
0.572313
0.571924
0.571412
0.570782
0.570039
0.569187
0.568231
0.567173
0.566018
0.564769
0.56343
0.562004
0.560494
0.558904
0.557235
0.555491
0.553673
0.551786
0.54983
0.547809
0.545723
0.543575
0.541368
0.539101
0.536778
0.534399
0.531965
0.529479
0.526941
0.524353
0.521714
0.519027
0.516292
0.513509
0.51068
0.507804
0.504883
0.501917
0.498906
0.49585
0.492751
0.489607
0.486419
0.483188
0.479912
0.476593
0.47323
0.469824
0.466373
0.462878
0.459339
0.455756
0.452128
0.448456
0.444738
0.440976
0.437168
0.433314
0.429415
0.425469
0.421478
0.41744
0.413355
0.409224
0.405046
0.400821
0.396549
0.39223
0.387865
0.383452
0.378993
0.374487
0.369934
0.365335
0.360691
0.356
0.351265
0.346485
0.34166
0.336792
0.331881
0.326928
0.321933
0.316897
0.311821
0.306706
0.301554
0.296364
0.291138
0.285877
0.280582
0.275254
0.269895
0.264505
0.259086
0.253639
0.248165
0.242665
0.237141
0.231592
0.22602
0.220427
0.214811
0.209175
0.203518
0.197841
0.192142
0.186423
0.180681
0.174917
0.169127
0.16331
0.157464
0.151587
0.14568
0.139754
0.133828
0.127837
0.121759
0.115581
0.109279
0.102826
0.0961869
0.0893127
0.0821564
0.0747225
0.0668192
0.0582539
0.0486935
0.0374378
0.023288
0.0172546
0.0248243
0.0463145
0.0709511
0.0929694
0.113369
0.132025
0.149352
0.165967
0.181922
0.197243
0.21207
0.226462
0.240466
0.254118
0.267443
0.280459
0.29318
0.305614
0.317766
0.329638
0.341231
0.352543
0.363573
0.374316
0.384772
0.394935
0.404803
0.414372
0.42364
0.432605
0.441264
0.449616
0.45766
0.465397
0.472826
0.479948
0.486766
0.49328
0.499495
0.505412
0.511035
0.516368
0.521417
0.526184
0.530675
0.534893
0.538845
0.542562
0.54605
0.549294
0.552295
0.555059
0.557595
0.559908
0.562005
0.563894
0.56558
0.567071
0.568372
0.56949
0.570432
0.571203
0.57181
0.572258
0.572554
0.572701
0.572707
0.572576
0.572313
0.571923
0.571411
0.570782
0.570039
0.569187
0.568231
0.567173
0.566018
0.564769
0.56343
0.562004
0.560494
0.558903
0.557235
0.55549
0.553673
0.551786
0.54983
0.547808
0.545723
0.543575
0.541367
0.539101
0.536777
0.534398
0.531965
0.529479
0.526941
0.524352
0.521714
0.519027
0.516291
0.513509
0.510679
0.507804
0.504883
0.501917
0.498906
0.49585
0.49275
0.489607
0.486419
0.483187
0.479912
0.476593
0.47323
0.469823
0.466373
0.462878
0.459339
0.455756
0.452128
0.448456
0.444738
0.440975
0.437167
0.433314
0.429414
0.425469
0.421477
0.417439
0.413355
0.409224
0.405046
0.400821
0.396549
0.39223
0.387865
0.383452
0.378992
0.374486
0.369934
0.365335
0.36069
0.356
0.351265
0.346485
0.34166
0.336792
0.331881
0.326928
0.321933
0.316897
0.311821
0.306706
0.301553
0.296363
0.291137
0.285876
0.280582
0.275254
0.269895
0.264505
0.259086
0.253639
0.248165
0.242665
0.237141
0.231592
0.22602
0.220427
0.214811
0.209175
0.203518
0.197841
0.192142
0.186423
0.180681
0.174917
0.169127
0.16331
0.157464
0.151587
0.14568
0.139754
0.133828
0.127837
0.121759
0.115581
0.109279
0.102827
0.096187
0.0893128
0.0821564
0.0747226
0.0668194
0.0582546
0.0486964
0.0374455
0.0232812
0.0172276
0.0468173
0.117796
0.168403
0.213143
0.254262
0.292864
0.32937
0.3643
0.397953
0.430531
0.462192
0.493049
0.523186
0.552664
0.581524
0.609795
0.637492
0.664626
0.691197
0.717204
0.742639
0.767493
0.791756
0.815415
0.83846
0.860879
0.882659
0.903792
0.924268
0.944078
0.963218
0.981681
0.999465
1.01657
1.03299
1.04873
1.06379
1.07819
1.09191
1.10497
1.11738
1.12914
1.14027
1.15077
1.16066
1.16995
1.17864
1.18676
1.19431
1.20133
1.20781
1.21378
1.21924
1.22422
1.22872
1.23276
1.23636
1.23953
1.24228
1.24463
1.24659
1.24818
1.24941
1.25029
1.25084
1.25106
1.25097
1.25058
1.24991
1.24895
1.24773
1.24625
1.24453
1.24256
1.24037
1.23796
1.23533
1.2325
1.22948
1.22626
1.22286
1.21929
1.21555
1.21164
1.20757
1.20336
1.19899
1.19448
1.18984
1.18506
1.18015
1.17511
1.16995
1.16467
1.15927
1.15376
1.14814
1.14241
1.13657
1.13063
1.12458
1.11843
1.11219
1.10584
1.0994
1.09285
1.08622
1.07949
1.07266
1.06574
1.05872
1.05162
1.04441
1.03712
1.02973
1.02225
1.01467
1.007
0.999242
0.991384
0.983431
0.975383
0.967239
0.959
0.950664
0.942231
0.9337
0.925072
0.916346
0.907522
0.898599
0.889577
0.880456
0.871235
0.861915
0.852496
0.842978
0.833361
0.823645
0.81383
0.803918
0.793909
0.783803
0.773601
0.763304
0.752914
0.742431
0.731857
0.721193
0.710442
0.699603
0.68868
0.677675
0.666589
0.655424
0.644183
0.632868
0.621482
0.610027
0.598505
0.586919
0.575273
0.563567
0.551805
0.53999
0.528124
0.516209
0.504246
0.49224
0.48019
0.468098
0.455966
0.443794
0.431582
0.41933
0.407036
0.3947
0.382317
0.369884
0.357396
0.344847
0.332228
0.319531
0.306744
0.29385
0.280815
0.267612
0.254229
0.240614
0.226719
0.212479
0.197807
0.182587
0.166667
0.14988
0.131927
0.112359
0.0903569
0.063305
0.0249548
0.0468185
0.117798
0.168405
0.213145
0.254264
0.292865
0.329372
0.364301
0.397954
0.430532
0.462193
0.49305
0.523187
0.552665
0.581525
0.609795
0.637493
0.664626
0.691198
0.717204
0.742639
0.767493
0.791756
0.815416
0.83846
0.860879
0.882659
0.903792
0.924267
0.944078
0.963217
0.981681
0.999464
1.01657
1.03299
1.04873
1.06379
1.07818
1.09191
1.10497
1.11738
1.12914
1.14027
1.15077
1.16066
1.16995
1.17864
1.18675
1.19431
1.20133
1.20781
1.21378
1.21924
1.22421
1.22872
1.23276
1.23636
1.23952
1.24228
1.24463
1.24659
1.24818
1.24941
1.25029
1.25084
1.25106
1.25097
1.25058
1.24991
1.24895
1.24773
1.24625
1.24453
1.24256
1.24037
1.23796
1.23533
1.2325
1.22948
1.22626
1.22286
1.21929
1.21555
1.21164
1.20757
1.20336
1.19899
1.19448
1.18984
1.18506
1.18014
1.17511
1.16995
1.16467
1.15927
1.15376
1.14814
1.14241
1.13657
1.13063
1.12458
1.11843
1.11219
1.10584
1.09939
1.09285
1.08622
1.07948
1.07266
1.06574
1.05872
1.05161
1.04441
1.03712
1.02973
1.02225
1.01467
1.007
0.99924
0.991382
0.983429
0.975382
0.967238
0.958998
0.950662
0.942229
0.933699
0.925071
0.916345
0.907521
0.898597
0.889575
0.880454
0.871234
0.861914
0.852495
0.842977
0.83336
0.823643
0.813829
0.803917
0.793907
0.783801
0.7736
0.763303
0.752913
0.74243
0.731856
0.721192
0.710441
0.699602
0.688679
0.677674
0.666588
0.655423
0.644182
0.632867
0.621481
0.610026
0.598504
0.586918
0.575272
0.563566
0.551805
0.539989
0.528123
0.516208
0.504246
0.492239
0.480189
0.468097
0.455965
0.443793
0.431581
0.419329
0.407036
0.394699
0.382316
0.369884
0.357396
0.344846
0.332228
0.319531
0.306743
0.293849
0.280814
0.267612
0.254228
0.240614
0.226719
0.212479
0.197806
0.182586
0.166667
0.14988
0.131927
0.112359
0.0903579
0.0633014
0.0249572
0.0701576
0.168042
0.231658
0.285926
0.335973
0.383326
0.428618
0.472246
0.514474
0.555492
0.595445
0.634444
0.672573
0.709893
0.746448
0.782269
0.817373
0.851769
0.885457
0.918433
0.950688
0.982211
1.01299
1.043
1.07224
1.10068
1.12831
1.15513
1.18111
1.20625
1.23053
1.25396
1.27653
1.29822
1.31906
1.33902
1.35813
1.37638
1.39378
1.41033
1.42606
1.44096
1.45506
1.46836
1.48088
1.49263
1.50362
1.51389
1.52344
1.5323
1.54048
1.548
1.55488
1.56114
1.56679
1.57186
1.57636
1.58032
1.58374
1.58665
1.58907
1.59101
1.59248
1.59352
1.59413
1.59432
1.59412
1.59353
1.59258
1.59128
1.58963
1.58766
1.58537
1.58277
1.57989
1.57673
1.57329
1.5696
1.56566
1.56147
1.55706
1.55242
1.54756
1.5425
1.53724
1.53178
1.52614
1.52032
1.51432
1.50815
1.50182
1.49532
1.48868
1.48188
1.47493
1.46784
1.46061
1.45324
1.44574
1.43811
1.43034
1.42245
1.41443
1.40629
1.39803
1.38964
1.38114
1.37251
1.36377
1.35491
1.34593
1.33683
1.32762
1.31829
1.30884
1.29928
1.2896
1.2798
1.26989
1.25985
1.2497
1.23943
1.22904
1.21853
1.2079
1.19715
1.18628
1.17528
1.16417
1.15293
1.14157
1.13008
1.11847
1.10674
1.09488
1.0829
1.0708
1.05858
1.04623
1.03376
1.02117
1.00845
0.99562
0.982669
0.9696
0.956416
0.943116
0.929704
0.916181
0.902549
0.888811
0.874967
0.861022
0.846978
0.832837
0.818602
0.804277
0.789863
0.775366
0.760786
0.746129
0.731397
0.716594
0.701722
0.686784
0.671785
0.656727
0.641611
0.626442
0.611221
0.59595
0.580629
0.565261
0.549845
0.534381
0.518867
0.503301
0.487681
0.472
0.456254
0.440434
0.424531
0.408532
0.392423
0.376182
0.359783
0.343195
0.326383
0.309294
0.291888
0.274092
0.255811
0.236928
0.217279
0.196674
0.174796
0.151124
0.124601
0.0919848
0.0390979
0.0701591
0.168043
0.231659
0.285927
0.335973
0.383326
0.428619
0.472246
0.514474
0.555492
0.595445
0.634444
0.672572
0.709892
0.746448
0.782269
0.817373
0.851768
0.885456
0.918432
0.950688
0.98221
1.01299
1.043
1.07223
1.10068
1.12831
1.15513
1.18111
1.20625
1.23053
1.25396
1.27652
1.29822
1.31906
1.33902
1.35813
1.37638
1.39378
1.41033
1.42606
1.44096
1.45506
1.46836
1.48087
1.49262
1.50362
1.51389
1.52344
1.5323
1.54048
1.548
1.55488
1.56114
1.56679
1.57186
1.57636
1.58032
1.58374
1.58665
1.58907
1.591
1.59248
1.59352
1.59412
1.59432
1.59412
1.59353
1.59258
1.59127
1.58963
1.58765
1.58536
1.58277
1.57989
1.57672
1.57329
1.5696
1.56565
1.56147
1.55705
1.55241
1.54756
1.5425
1.53724
1.53178
1.52614
1.52031
1.51432
1.50815
1.50182
1.49532
1.48867
1.48188
1.47493
1.46784
1.46061
1.45324
1.44574
1.43811
1.43034
1.42245
1.41443
1.40629
1.39803
1.38964
1.38114
1.37251
1.36377
1.35491
1.34593
1.33683
1.32762
1.31829
1.30884
1.29928
1.2896
1.2798
1.26988
1.25985
1.2497
1.23943
1.22904
1.21853
1.2079
1.19715
1.18628
1.17528
1.16416
1.15293
1.14156
1.13008
1.11847
1.10674
1.09488
1.0829
1.0708
1.05857
1.04623
1.03376
1.02116
1.00845
0.995619
0.982668
0.969599
0.956414
0.943115
0.929703
0.91618
0.902548
0.888809
0.874966
0.861021
0.846977
0.832836
0.818601
0.804275
0.789862
0.775364
0.760785
0.746128
0.731396
0.716592
0.70172
0.686783
0.671784
0.656725
0.64161
0.626441
0.61122
0.595949
0.580628
0.56526
0.549844
0.53438
0.518866
0.503301
0.48768
0.471999
0.456253
0.440433
0.42453
0.408531
0.392422
0.376182
0.359783
0.343195
0.326382
0.309294
0.291888
0.274091
0.255811
0.236928
0.217279
0.196674
0.174796
0.151125
0.124603
0.0919836
0.0390911
0.0903605
0.210773
0.284837
0.346359
0.402756
0.456167
0.50743
0.556969
0.605038
0.651811
0.697419
0.741961
0.785517
0.828146
0.869892
0.910786
0.950849
0.99009
1.02851
1.06611
1.10288
1.13881
1.17388
1.20808
1.2414
1.27381
1.3053
1.33585
1.36546
1.39411
1.42178
1.44848
1.4742
1.49894
1.52269
1.54545
1.56723
1.58803
1.60787
1.62675
1.64468
1.66167
1.67773
1.69289
1.70716
1.72056
1.73309
1.74479
1.75567
1.76576
1.77508
1.78364
1.79146
1.79857
1.80499
1.81074
1.81584
1.82031
1.82418
1.82745
1.83016
1.83232
1.83395
1.83507
1.8357
1.83586
1.83556
1.83483
1.83367
1.8321
1.83014
1.82781
1.82511
1.82207
1.81869
1.81499
1.81098
1.80667
1.80207
1.7972
1.79206
1.78666
1.78102
1.77514
1.76903
1.7627
1.75615
1.74939
1.74244
1.73529
1.72795
1.72043
1.71273
1.70485
1.69681
1.68861
1.68024
1.67172
1.66304
1.65421
1.64523
1.63611
1.62685
1.61744
1.60789
1.59821
1.58838
1.57843
1.56833
1.5581
1.54774
1.53725
1.52662
1.51586
1.50497
1.49394
1.48278
1.47149
1.46006
1.4485
1.43681
1.42498
1.41301
1.40091
1.38868
1.3763
1.36379
1.35115
1.33836
1.32543
1.31237
1.29916
1.28582
1.27234
1.25871
1.24495
1.23105
1.21701
1.20283
1.18851
1.17406
1.15947
1.14475
1.12989
1.1149
1.09978
1.08453
1.06915
1.05365
1.03802
1.02228
1.00642
0.990443
0.974356
0.958161
0.94186
0.925458
0.908958
0.892364
0.875678
0.858905
0.842049
0.825112
0.8081
0.791014
0.77386
0.756639
0.739356
0.722012
0.70461
0.687153
0.669642
0.652078
0.63446
0.61679
0.599066
0.581285
0.563443
0.545537
0.52756
0.509504
0.491358
0.47311
0.454744
0.436239
0.417569
0.398705
0.379609
0.360237
0.340533
0.320427
0.29983
0.27863
0.256663
0.233701
0.209408
0.18314
0.153476
0.115995
0.0512031
0.0903622
0.210775
0.284838
0.34636
0.402757
0.456167
0.50743
0.556969
0.605038
0.651811
0.697418
0.741961
0.785517
0.828145
0.869891
0.910786
0.950848
0.990089
1.02851
1.06611
1.10288
1.13881
1.17388
1.20808
1.2414
1.27381
1.3053
1.33585
1.36546
1.3941
1.42178
1.44848
1.4742
1.49894
1.52268
1.54545
1.56723
1.58803
1.60787
1.62675
1.64467
1.66166
1.67773
1.69289
1.70716
1.72055
1.73309
1.74479
1.75567
1.76576
1.77507
1.78363
1.79146
1.79857
1.80499
1.81074
1.81584
1.82031
1.82417
1.82745
1.83016
1.83232
1.83395
1.83507
1.8357
1.83586
1.83556
1.83482
1.83367
1.8321
1.83014
1.82781
1.82511
1.82207
1.81869
1.81499
1.81098
1.80667
1.80207
1.7972
1.79206
1.78666
1.78102
1.77514
1.76903
1.76269
1.75615
1.74939
1.74244
1.73529
1.72795
1.72043
1.71273
1.70485
1.69681
1.68861
1.68024
1.67172
1.66304
1.65421
1.64523
1.63611
1.62685
1.61744
1.60789
1.59821
1.58838
1.57842
1.56833
1.5581
1.54774
1.53725
1.52662
1.51586
1.50496
1.49394
1.48278
1.47149
1.46006
1.4485
1.43681
1.42498
1.41301
1.40091
1.38868
1.3763
1.36379
1.35114
1.33836
1.32543
1.31237
1.29916
1.28582
1.27234
1.25871
1.24495
1.23105
1.21701
1.20283
1.18851
1.17406
1.15947
1.14475
1.12989
1.1149
1.09978
1.08452
1.06915
1.05365
1.03802
1.02228
1.00642
0.990442
0.974355
0.95816
0.941859
0.925457
0.908957
0.892363
0.875677
0.858904
0.842048
0.825111
0.808099
0.791013
0.773859
0.756638
0.739355
0.722011
0.70461
0.687152
0.669641
0.652077
0.63446
0.61679
0.599065
0.581284
0.563443
0.545537
0.52756
0.509503
0.491358
0.47311
0.454743
0.436238
0.417569
0.398705
0.379609
0.360236
0.340533
0.320427
0.29983
0.27863
0.256663
0.233701
0.209408
0.18314
0.153476
0.115994
0.0512008
0.108448
0.24968
0.333683
0.402012
0.464042
0.522591
0.578763
0.633073
0.685803
0.73713
0.787179
0.836047
0.883808
0.930522
0.976233
1.02098
1.06478
1.10765
1.1496
1.19063
1.23073
1.2699
1.30812
1.34539
1.38168
1.41698
1.45128
1.48456
1.51681
1.54801
1.57816
1.60725
1.63527
1.66223
1.68811
1.71292
1.73666
1.75935
1.78098
1.80157
1.82112
1.83966
1.85719
1.87373
1.8893
1.90392
1.91761
1.93038
1.94226
1.95327
1.96344
1.97278
1.98132
1.98908
1.99608
2.00235
2.00791
2.01277
2.01698
2.02053
2.02347
2.0258
2.02755
2.02874
2.0294
2.02953
2.02916
2.02831
2.027
2.02523
2.02304
2.02043
2.01743
2.01403
2.01028
2.00616
2.0017
1.99692
1.99182
1.98641
1.98071
1.97473
1.96847
1.96196
1.95518
1.94817
1.94091
1.93343
1.92573
1.91781
1.90968
1.90135
1.89283
1.88411
1.87521
1.86613
1.85687
1.84744
1.83784
1.82807
1.81814
1.80804
1.79779
1.78739
1.77683
1.76612
1.75525
1.74424
1.73308
1.72178
1.71032
1.69872
1.68697
1.67508
1.66304
1.65086
1.63853
1.62606
1.61344
1.60067
1.58776
1.5747
1.56149
1.54813
1.53462
1.52097
1.50716
1.4932
1.47909
1.46484
1.45042
1.43586
1.42115
1.40628
1.39126
1.37609
1.36077
1.3453
1.32967
1.3139
1.29798
1.28191
1.26569
1.24933
1.23282
1.21618
1.19939
1.18246
1.1654
1.14821
1.13089
1.11344
1.09586
1.07817
1.06036
1.04243
1.02439
1.00625
0.988004
0.969659
0.95122
0.93269
0.914074
0.895375
0.876596
0.857742
0.838817
0.819822
0.800763
0.78164
0.762456
0.743214
0.723914
0.704557
0.685142
0.665669
0.646135
0.626537
0.606871
0.587131
0.567307
0.547392
0.527371
0.50723
0.486948
0.466502
0.445864
0.424996
0.403857
0.382392
0.360533
0.33819
0.315244
0.291521
0.266765
0.240579
0.212169
0.179731
0.137708
0.0617689
0.10845
0.249682
0.333684
0.402012
0.464042
0.522591
0.578763
0.633072
0.685802
0.737129
0.787179
0.836047
0.883808
0.930521
0.976232
1.02098
1.06478
1.10765
1.1496
1.19063
1.23073
1.2699
1.30812
1.34539
1.38168
1.41698
1.45128
1.48456
1.51681
1.54801
1.57816
1.60725
1.63527
1.66222
1.68811
1.71292
1.73666
1.75935
1.78098
1.80156
1.82112
1.83966
1.85719
1.87373
1.8893
1.90392
1.91761
1.93038
1.94226
1.95327
1.96344
1.97278
1.98132
1.98908
1.99608
2.00235
2.0079
2.01277
2.01697
2.02053
2.02346
2.0258
2.02755
2.02874
2.0294
2.02953
2.02916
2.02831
2.02699
2.02523
2.02304
2.02043
2.01742
2.01403
2.01027
2.00616
2.0017
1.99692
1.99182
1.98641
1.98071
1.97473
1.96847
1.96195
1.95518
1.94817
1.94091
1.93343
1.92573
1.91781
1.90968
1.90135
1.89283
1.88411
1.87521
1.86613
1.85687
1.84744
1.83783
1.82807
1.81813
1.80804
1.79779
1.78739
1.77683
1.76612
1.75525
1.74424
1.73308
1.72177
1.71032
1.69872
1.68697
1.67508
1.66304
1.65086
1.63853
1.62606
1.61344
1.60067
1.58776
1.57469
1.56148
1.54813
1.53462
1.52096
1.50716
1.4932
1.47909
1.46483
1.45042
1.43586
1.42115
1.40628
1.39126
1.37609
1.36077
1.3453
1.32967
1.3139
1.29798
1.28191
1.26569
1.24933
1.23282
1.21617
1.19939
1.18246
1.1654
1.14821
1.13089
1.11344
1.09586
1.07817
1.06035
1.04243
1.02439
1.00625
0.988003
0.969658
0.951219
0.93269
0.914073
0.895374
0.876595
0.857742
0.838816
0.819822
0.800762
0.781639
0.762456
0.743213
0.723913
0.704556
0.685141
0.665668
0.646134
0.626537
0.606871
0.58713
0.567307
0.547391
0.527371
0.507229
0.486948
0.466502
0.445863
0.424996
0.403857
0.382392
0.360533
0.33819
0.315244
0.291521
0.266765
0.240579
0.21217
0.179732
0.137708
0.0617685
0.12514
0.286328
0.380145
0.455204
0.522659
0.585994
0.646595
0.705107
0.761866
0.817071
0.870858
0.923324
0.974547
1.02459
1.0735
1.12132
1.16808
1.21381
1.25851
1.30219
1.34485
1.3865
1.42712
1.46671
1.50525
1.54273
1.57914
1.61447
1.6487
1.68182
1.71382
1.7447
1.77446
1.80308
1.83057
1.85692
1.88215
1.90626
1.92926
1.95115
1.97194
1.99166
2.01032
2.02793
2.0445
2.06007
2.07465
2.08826
2.10092
2.11265
2.12349
2.13345
2.14256
2.15083
2.1583
2.16498
2.17091
2.1761
2.18058
2.18437
2.1875
2.18998
2.19184
2.1931
2.19379
2.19391
2.1935
2.19258
2.19115
2.18924
2.18687
2.18405
2.18081
2.17715
2.1731
2.16866
2.16386
2.1587
2.1532
2.14737
2.14123
2.13478
2.12804
2.12101
2.11371
2.10614
2.09832
2.09025
2.08195
2.07341
2.06464
2.05566
2.04647
2.03707
2.02746
2.01767
2.00768
1.9975
1.98715
1.97661
1.96589
1.95501
1.94395
1.93272
1.92133
1.90978
1.89806
1.88618
1.87414
1.86194
1.84958
1.83707
1.8244
1.81157
1.79859
1.78545
1.77215
1.7587
1.74509
1.73132
1.71739
1.70331
1.68907
1.67467
1.6601
1.64538
1.6305
1.61546
1.60025
1.58489
1.56936
1.55367
1.53781
1.5218
1.50562
1.48928
1.47277
1.45611
1.43929
1.4223
1.40516
1.38786
1.3704
1.35278
1.33502
1.3171
1.29904
1.28082
1.26246
1.24397
1.22533
1.20655
1.18765
1.16861
1.14945
1.13017
1.11077
1.09126
1.07164
1.05191
1.03208
1.01215
0.992125
0.972014
0.951818
0.93154
0.911184
0.890753
0.870251
0.849681
0.829045
0.808344
0.78758
0.766754
0.745866
0.724915
0.703899
0.682815
0.661658
0.640424
0.619105
0.59769
0.57617
0.554527
0.532746
0.510802
0.488669
0.466313
0.443692
0.420752
0.397425
0.373618
0.349202
0.32399
0.297688
0.269801
0.239386
0.204278
0.157876
0.0714541
0.125141
0.28633
0.380146
0.455204
0.522659
0.585993
0.646595
0.705106
0.761865
0.817071
0.870857
0.923323
0.974546
1.02459
1.0735
1.12132
1.16808
1.21381
1.2585
1.30219
1.34485
1.3865
1.42712
1.46671
1.50525
1.54273
1.57914
1.61447
1.64869
1.68182
1.71382
1.7447
1.77446
1.80308
1.83057
1.85692
1.88215
1.90626
1.92926
1.95115
1.97194
1.99166
2.01032
2.02792
2.0445
2.06007
2.07465
2.08825
2.10092
2.11265
2.12349
2.13345
2.14255
2.15083
2.1583
2.16498
2.17091
2.1761
2.18058
2.18437
2.1875
2.18998
2.19184
2.1931
2.19379
2.19391
2.1935
2.19257
2.19115
2.18924
2.18687
2.18405
2.18081
2.17715
2.1731
2.16866
2.16386
2.1587
2.1532
2.14737
2.14123
2.13478
2.12804
2.12101
2.11371
2.10614
2.09832
2.09025
2.08194
2.07341
2.06464
2.05566
2.04647
2.03706
2.02746
2.01767
2.00768
1.9975
1.98714
1.97661
1.96589
1.95501
1.94395
1.93272
1.92133
1.90977
1.89806
1.88618
1.87414
1.86194
1.84958
1.83707
1.8244
1.81157
1.79859
1.78545
1.77215
1.7587
1.74509
1.73132
1.71739
1.70331
1.68907
1.67466
1.6601
1.64538
1.6305
1.61546
1.60025
1.58489
1.56936
1.55367
1.53781
1.5218
1.50562
1.48928
1.47277
1.45611
1.43928
1.4223
1.40516
1.38785
1.3704
1.35278
1.33502
1.3171
1.29903
1.28082
1.26246
1.24396
1.22533
1.20655
1.18765
1.16861
1.14945
1.13017
1.11077
1.09126
1.07164
1.05191
1.03207
1.01215
0.992125
0.972014
0.951817
0.931539
0.911183
0.890753
0.870251
0.849681
0.829044
0.808343
0.78758
0.766754
0.745866
0.724915
0.703898
0.682814
0.661658
0.640424
0.619104
0.59769
0.576169
0.554527
0.532746
0.510802
0.488669
0.466313
0.443692
0.420752
0.397425
0.373618
0.349202
0.32399
0.297688
0.269801
0.239386
0.204278
0.157876
0.0714541
0.14144
0.321631
0.425181
0.506959
0.579779
0.647746
0.712531
0.77492
0.835323
0.893975
0.951032
1.0066
1.06077
1.11362
1.16519
1.21553
1.2647
1.31271
1.35959
1.40536
1.45003
1.49359
1.53606
1.57742
1.61766
1.65679
1.69479
1.73166
1.76737
1.80193
1.83533
1.86755
1.8986
1.92848
1.95717
1.9847
2.01105
2.03624
2.06026
2.08315
2.10489
2.12552
2.14504
2.16346
2.18082
2.19713
2.2124
2.22666
2.23994
2.25225
2.26362
2.27408
2.28364
2.29233
2.30018
2.30721
2.31344
2.3189
2.32362
2.32761
2.3309
2.33352
2.33548
2.33682
2.33754
2.33768
2.33725
2.33628
2.33478
2.33277
2.33027
2.3273
2.32388
2.32002
2.31575
2.31106
2.30599
2.30054
2.29473
2.28857
2.28207
2.27525
2.26812
2.26068
2.25295
2.24495
2.23667
2.22812
2.21933
2.21028
2.201
2.19148
2.18174
2.17177
2.1616
2.15121
2.14062
2.12983
2.11885
2.10767
2.09631
2.08476
2.07303
2.06112
2.04903
2.03677
2.02433
2.01173
1.99895
1.98601
1.97289
1.95961
1.94616
1.93255
1.91877
1.90482
1.8907
1.87642
1.86198
1.84736
1.83258
1.81763
1.80251
1.78723
1.77177
1.75615
1.74035
1.72439
1.70825
1.69194
1.67546
1.65881
1.64199
1.625
1.60783
1.59049
1.57298
1.5553
1.53746
1.51944
1.50125
1.4829
1.46439
1.44571
1.42686
1.40786
1.3887
1.36939
1.34992
1.33031
1.31055
1.29064
1.27059
1.25041
1.23009
1.20965
1.18908
1.16839
1.14758
1.12666
1.10563
1.08449
1.06326
1.04193
1.0205
0.99899
0.977394
0.955716
0.93396
0.91213
0.890226
0.868252
0.846209
0.824098
0.801918
0.77967
0.757351
0.734959
0.71249
0.68994
0.667301
0.644564
0.621719
0.598751
0.575645
0.552378
0.528925
0.505252
0.481318
0.45707
0.432434
0.407312
0.381565
0.354979
0.327218
0.2977
0.265329
0.227588
0.176925
0.0805281
0.141442
0.321633
0.425181
0.506959
0.579779
0.647745
0.712531
0.77492
0.835322
0.893974
0.951031
1.0066
1.06077
1.11361
1.16518
1.21553
1.2647
1.31271
1.35959
1.40536
1.45003
1.49359
1.53605
1.57741
1.61766
1.65679
1.69479
1.73166
1.76737
1.80193
1.83532
1.86755
1.8986
1.92848
1.95717
1.9847
2.01105
2.03623
2.06026
2.08314
2.10489
2.12552
2.14503
2.16346
2.18082
2.19713
2.2124
2.22666
2.23994
2.25225
2.26362
2.27408
2.28364
2.29233
2.30018
2.3072
2.31344
2.3189
2.32361
2.32761
2.3309
2.33352
2.33548
2.33682
2.33754
2.33768
2.33725
2.33628
2.33478
2.33277
2.33027
2.3273
2.32388
2.32002
2.31574
2.31106
2.30599
2.30054
2.29472
2.28856
2.28207
2.27525
2.26811
2.26068
2.25295
2.24494
2.23667
2.22812
2.21932
2.21028
2.20099
2.19148
2.18173
2.17177
2.1616
2.15121
2.14062
2.12983
2.11885
2.10767
2.09631
2.08476
2.07303
2.06112
2.04903
2.03677
2.02433
2.01173
1.99895
1.98601
1.97289
1.95961
1.94616
1.93255
1.91876
1.90482
1.8907
1.87642
1.86197
1.84736
1.83258
1.81763
1.80251
1.78723
1.77177
1.75615
1.74035
1.72439
1.70825
1.69194
1.67546
1.65881
1.64199
1.62499
1.60783
1.59049
1.57298
1.5553
1.53746
1.51944
1.50125
1.4829
1.46439
1.44571
1.42686
1.40786
1.3887
1.36939
1.34992
1.33031
1.31054
1.29064
1.27059
1.25041
1.23009
1.20965
1.18908
1.16839
1.14758
1.12666
1.10563
1.08449
1.06326
1.04193
1.0205
0.99899
0.977393
0.955716
0.93396
0.912129
0.890226
0.868252
0.846209
0.824097
0.801918
0.779669
0.75735
0.734959
0.71249
0.68994
0.6673
0.644564
0.621718
0.598751
0.575644
0.552378
0.528924
0.505252
0.481318
0.457069
0.432434
0.407312
0.381565
0.354979
0.327218
0.2977
0.265329
0.227589
0.176925
0.0805281
0.157508
0.356212
0.469368
0.557848
0.636009
0.708528
0.777351
0.843409
0.907193
0.968987
1.02897
1.08728
1.14402
1.19926
1.25307
1.30553
1.35666
1.40653
1.45516
1.50257
1.5488
1.59384
1.63771
1.68041
1.72194
1.76229
1.80147
1.83947
1.87628
1.91189
1.94631
1.97951
2.01152
2.04231
2.07189
2.10027
2.12745
2.15344
2.17823
2.20185
2.22431
2.24561
2.26578
2.28484
2.30279
2.31966
2.33547
2.35024
2.36399
2.37676
2.38855
2.39939
2.40932
2.41835
2.4265
2.43381
2.4403
2.44599
2.45091
2.45507
2.45852
2.46126
2.46332
2.46473
2.46551
2.46567
2.46525
2.46425
2.46271
2.46064
2.45805
2.45498
2.45143
2.44742
2.44298
2.43811
2.43283
2.42716
2.42111
2.41469
2.40792
2.4008
2.39336
2.3856
2.37754
2.36918
2.36053
2.3516
2.34241
2.33296
2.32325
2.3133
2.3031
2.29268
2.28203
2.27116
2.26007
2.24878
2.23727
2.22557
2.21366
2.20156
2.18927
2.17679
2.16412
2.15127
2.13823
2.12501
2.11162
2.09804
2.08429
2.07036
2.05625
2.04197
2.02751
2.01288
1.99807
1.98309
1.96793
1.95259
1.93708
1.92139
1.90553
1.88949
1.87327
1.85687
1.84029
1.82354
1.8066
1.78949
1.77219
1.75472
1.73706
1.71923
1.70121
1.68302
1.66464
1.64609
1.62736
1.60845
1.58937
1.57011
1.55068
1.53108
1.51131
1.49137
1.47126
1.45099
1.43057
1.40998
1.38924
1.36835
1.34731
1.32613
1.30481
1.28335
1.26176
1.24003
1.21819
1.19622
1.17414
1.15195
1.12964
1.10724
1.08473
1.06213
1.03943
1.01665
0.993781
0.970829
0.947796
0.924685
0.901498
0.878235
0.854896
0.831481
0.807989
0.784418
0.760764
0.737022
0.713187
0.689251
0.665203
0.64103
0.616716
0.592242
0.567582
0.542702
0.517561
0.492102
0.466248
0.439893
0.412878
0.384967
0.355777
0.324644
0.290306
0.249935
0.195087
0.0892149
0.15751
0.356214
0.469369
0.557848
0.636009
0.708528
0.777351
0.843408
0.907192
0.968986
1.02897
1.08728
1.14402
1.19926
1.25307
1.30553
1.35666
1.40653
1.45516
1.50257
1.5488
1.59384
1.63771
1.68041
1.72193
1.76229
1.80147
1.83947
1.87628
1.91189
1.9463
1.97951
2.01151
2.04231
2.07189
2.10027
2.12745
2.15343
2.17823
2.20185
2.22431
2.24561
2.26578
2.28483
2.30279
2.31966
2.33547
2.35024
2.36399
2.37675
2.38855
2.39939
2.40932
2.41835
2.4265
2.43381
2.4403
2.44599
2.45091
2.45507
2.45852
2.46126
2.46332
2.46473
2.46551
2.46567
2.46524
2.46425
2.46271
2.46063
2.45805
2.45498
2.45143
2.44742
2.44298
2.43811
2.43283
2.42716
2.4211
2.41469
2.40792
2.4008
2.39336
2.3856
2.37754
2.36918
2.36053
2.3516
2.34241
2.33296
2.32325
2.31329
2.3031
2.29268
2.28203
2.27116
2.26007
2.24878
2.23727
2.22557
2.21366
2.20156
2.18927
2.17679
2.16412
2.15127
2.13823
2.12501
2.11162
2.09804
2.08429
2.07036
2.05625
2.04197
2.02751
2.01288
1.99807
1.98308
1.96793
1.95259
1.93708
1.92139
1.90553
1.88949
1.87327
1.85687
1.84029
1.82354
1.8066
1.78949
1.77219
1.75472
1.73706
1.71923
1.70121
1.68302
1.66464
1.64609
1.62736
1.60845
1.58937
1.57011
1.55068
1.53108
1.51131
1.49137
1.47126
1.45099
1.43057
1.40998
1.38924
1.36835
1.34731
1.32613
1.30481
1.28335
1.26176
1.24003
1.21819
1.19622
1.17414
1.15195
1.12964
1.10724
1.08473
1.06213
1.03943
1.01665
0.99378
0.970828
0.947796
0.924685
0.901498
0.878234
0.854895
0.831481
0.807989
0.784418
0.760764
0.737022
0.713187
0.689251
0.665202
0.64103
0.616716
0.592242
0.567582
0.542702
0.517561
0.492102
0.466248
0.439893
0.412878
0.384967
0.355777
0.324644
0.290306
0.249935
0.195088
0.0892149
0.173332
0.39036
0.513056
0.608233
0.691723
0.768743
0.841502
0.911077
0.978044
1.04274
1.1054
1.16616
1.22514
1.28246
1.33819
1.3924
1.44516
1.49653
1.54655
1.59525
1.64267
1.68883
1.73375
1.77744
1.8199
1.86114
1.90116
1.93996
1.97754
2.01389
2.04901
2.0829
2.11557
2.147
2.1772
2.20618
2.23394
2.26048
2.28582
2.30997
2.33293
2.35473
2.37537
2.39487
2.41326
2.43055
2.44676
2.46191
2.47602
2.48913
2.50124
2.51239
2.5226
2.5319
2.5403
2.54784
2.55453
2.56041
2.5655
2.56982
2.57339
2.57625
2.5784
2.57989
2.58072
2.58092
2.58052
2.57952
2.57796
2.57586
2.57323
2.57008
2.56645
2.56234
2.55778
2.55278
2.54735
2.54151
2.53528
2.52867
2.52169
2.51435
2.50668
2.49867
2.49034
2.4817
2.47276
2.46353
2.45402
2.44424
2.43419
2.42389
2.41334
2.40254
2.3915
2.38024
2.36874
2.35703
2.3451
2.33296
2.32061
2.30805
2.29529
2.28234
2.26919
2.25584
2.2423
2.22857
2.21465
2.20055
2.18626
2.17178
2.15712
2.14227
2.12724
2.11203
2.09663
2.08105
2.06528
2.04934
2.0332
2.01689
2.00038
1.9837
1.96682
1.94976
1.93252
1.91508
1.89746
1.87965
1.86166
1.84347
1.8251
1.80654
1.78779
1.76886
1.74974
1.73043
1.71094
1.69126
1.6714
1.65135
1.63113
1.61072
1.59014
1.56939
1.54846
1.52736
1.50609
1.48466
1.46307
1.44131
1.4194
1.39734
1.37514
1.35278
1.33029
1.30766
1.2849
1.26201
1.23899
1.21585
1.1926
1.16924
1.14576
1.12218
1.0985
1.07473
1.05085
1.02689
1.00284
0.978694
0.954467
0.930155
0.905759
0.881278
0.856711
0.832057
0.807312
0.782473
0.757534
0.732487
0.707323
0.682029
0.656592
0.630989
0.605197
0.579182
0.552898
0.526287
0.499266
0.471715
0.443462
0.41424
0.383619
0.350859
0.314542
0.271541
0.21257
0.0975248
0.173335
0.390362
0.513056
0.608233
0.691722
0.768743
0.841502
0.911076
0.978043
1.04274
1.10539
1.16615
1.22514
1.28246
1.33819
1.3924
1.44516
1.49653
1.54654
1.59525
1.64267
1.68883
1.73375
1.77743
1.8199
1.86114
1.90116
1.93996
1.97753
2.01389
2.04901
2.0829
2.11557
2.147
2.1772
2.20618
2.23394
2.26048
2.28582
2.30997
2.33293
2.35473
2.37537
2.39487
2.41326
2.43055
2.44676
2.46191
2.47602
2.48913
2.50124
2.51239
2.5226
2.5319
2.5403
2.54784
2.55453
2.56041
2.5655
2.56982
2.57339
2.57624
2.5784
2.57989
2.58072
2.58092
2.58051
2.57952
2.57796
2.57586
2.57322
2.57008
2.56645
2.56234
2.55778
2.55278
2.54735
2.54151
2.53528
2.52867
2.52169
2.51435
2.50667
2.49867
2.49034
2.4817
2.47276
2.46353
2.45402
2.44424
2.43419
2.42389
2.41333
2.40254
2.3915
2.38024
2.36874
2.35703
2.3451
2.33296
2.32061
2.30805
2.29529
2.28234
2.26918
2.25584
2.2423
2.22857
2.21465
2.20055
2.18625
2.17178
2.15712
2.14227
2.12724
2.11203
2.09663
2.08105
2.06528
2.04933
2.0332
2.01688
2.00038
1.98369
1.96682
1.94976
1.93252
1.91508
1.89746
1.87965
1.86166
1.84347
1.8251
1.80654
1.78779