/*--------------------------------*- C++ -*----------------------------------*\
  =========                 |
  \\      /  F ield         | OpenFOAM: The Open Source CFD Toolbox
   \\    /   O peration     | Website:  https://openfoam.org
    \\  /    A nd           | Version:  8
     \\/     M anipulation  |
\*---------------------------------------------------------------------------*/
FoamFile
{
    version     2.0;
    format      ascii;
    class       volVectorField;
    location    "2300";
    object      U;
}
// * * * * * * * * * * * * * * * * * * * * * * * * * * * * * * * * * * * * * //

dimensions      [0 1 -1 0 0 0 0];

internalField   nonuniform List<vector> 
48000
(
(-0.0160357 -1.28186e-06 0.0175299)
(-0.0303205 -1.79991e-07 0.0134826)
(-0.0405216 -9.06486e-08 0.00504997)
(-0.0408358 -1.0942e-07 -0.00210414)
(-0.0349954 -1.49101e-07 -0.00699452)
(-0.0249086 -1.85179e-07 -0.0101255)
(-0.0122058 -2.09942e-07 -0.0120707)
(0.00225221 -2.18867e-07 -0.0131246)
(0.0174507 -2.11907e-07 -0.0134757)
(0.032932 -1.97573e-07 -0.0134254)
(0.0484084 -1.81997e-07 -0.0131535)
(0.06362 -1.6497e-07 -0.0127408)
(0.0784189 -1.4783e-07 -0.0122396)
(0.0927012 -1.32258e-07 -0.0116845)
(0.106399 -1.19473e-07 -0.011099)
(0.119467 -1.09875e-07 -0.0104995)
(0.131883 -1.03269e-07 -0.00989735)
(0.143633 -9.89475e-08 -0.00930073)
(0.154716 -9.59131e-08 -0.00871542)
(0.165137 -9.30728e-08 -0.00814552)
(0.174908 -8.94064e-08 -0.0075939)
(0.184045 -8.41713e-08 -0.00706253)
(0.192566 -7.71925e-08 -0.00655268)
(0.200493 -6.89002e-08 -0.0060651)
(0.207847 -5.99416e-08 -0.00560013)
(0.214652 -5.1101e-08 -0.00515782)
(0.220933 -4.31856e-08 -0.00473796)
(0.226713 -3.69454e-08 -0.00434016)
(0.232017 -3.2864e-08 -0.00396388)
(0.23687 -3.09794e-08 -0.00360849)
(0.241293 -3.08614e-08 -0.00327325)
(0.245311 -3.1996e-08 -0.00295741)
(0.248946 -3.3774e-08 -0.00266012)
(0.252219 -3.56357e-08 -0.00238057)
(0.25515 -3.69873e-08 -0.0021179)
(0.25776 -3.73357e-08 -0.00187128)
(0.260068 -3.64943e-08 -0.00163986)
(0.262091 -3.4583e-08 -0.00142284)
(0.263846 -3.20474e-08 -0.00121944)
(0.265351 -2.94089e-08 -0.00102889)
(0.266619 -2.71055e-08 -0.000850466)
(0.267667 -2.55369e-08 -0.00068348)
(0.268507 -2.4863e-08 -0.000527274)
(0.269153 -2.52038e-08 -0.000381227)
(0.269617 -2.65116e-08 -0.000244761)
(0.269911 -2.86665e-08 -0.000117329)
(0.270045 -3.14763e-08 1.74121e-06)
(0.270031 -3.4602e-08 0.000112949)
(0.269878 -3.77221e-08 0.000216537)
(0.269596 -4.0549e-08 0.00031293)
(0.269192 -4.28276e-08 0.000402644)
(0.268676 -4.44457e-08 0.000486103)
(0.268055 -4.54622e-08 0.000563677)
(0.267336 -4.60257e-08 0.000635703)
(0.266527 -4.63893e-08 0.000702498)
(0.265634 -4.67852e-08 0.000764361)
(0.264663 -4.74153e-08 0.000821575)
(0.26362 -4.83633e-08 0.000874409)
(0.26251 -4.96387e-08 0.000923117)
(0.261339 -5.12226e-08 0.000967939)
(0.260111 -5.30234e-08 0.0010091)
(0.258832 -5.49613e-08 0.00104683)
(0.257504 -5.69601e-08 0.00108132)
(0.256133 -5.89151e-08 0.00111277)
(0.254722 -6.07254e-08 0.00114138)
(0.253275 -6.22445e-08 0.00116731)
(0.251795 -6.32972e-08 0.00119074)
(0.250286 -6.37084e-08 0.00121183)
(0.248749 -6.33429e-08 0.00123074)
(0.247189 -6.21055e-08 0.0012476)
(0.245607 -5.99791e-08 0.00126257)
(0.244005 -5.70133e-08 0.00127578)
(0.242387 -5.33164e-08 0.00128734)
(0.240755 -4.90618e-08 0.00129739)
(0.239109 -4.44322e-08 0.00130603)
(0.237451 -3.95894e-08 0.00131337)
(0.235785 -3.47123e-08 0.00131953)
(0.23411 -2.99342e-08 0.00132459)
(0.232428 -2.53522e-08 0.00132865)
(0.230741 -2.10634e-08 0.0013318)
(0.22905 -1.7081e-08 0.00133412)
(0.227355 -1.3487e-08 0.00133568)
(0.225657 -1.02603e-08 0.00133657)
(0.223959 -7.39728e-09 0.00133686)
(0.222259 -4.93209e-09 0.00133661)
(0.220559 -2.80195e-09 0.00133589)
(0.21886 -1.02968e-09 0.00133476)
(0.217162 3.86603e-10 0.00133328)
(0.215465 1.42217e-09 0.0013315)
(0.21377 2.08843e-09 0.00132947)
(0.212077 2.3416e-09 0.00132725)
(0.210386 2.15123e-09 0.00132489)
(0.208698 1.53446e-09 0.00132242)
(0.207012 4.98882e-10 0.0013199)
(0.205329 -9.32644e-10 0.00131736)
(0.203649 -2.72966e-09 0.00131484)
(0.201972 -4.77035e-09 0.00131238)
(0.200297 -6.98235e-09 0.00131001)
(0.198625 -9.22482e-09 0.00130776)
(0.196955 -1.14368e-08 0.00130568)
(0.195288 -1.34889e-08 0.00130378)
(0.193622 -1.52669e-08 0.0013021)
(0.191958 -1.67175e-08 0.00130067)
(0.190295 -1.78368e-08 0.0012995)
(0.188634 -1.85754e-08 0.00129864)
(0.186973 -1.90018e-08 0.0012981)
(0.185312 -1.91922e-08 0.00129791)
(0.183651 -1.9215e-08 0.00129808)
(0.181989 -1.9177e-08 0.00129865)
(0.180326 -1.91465e-08 0.00129964)
(0.178661 -1.9215e-08 0.00130108)
(0.176995 -1.93902e-08 0.00130297)
(0.175325 -1.97366e-08 0.00130535)
(0.173652 -2.02316e-08 0.00130825)
(0.171974 -2.08598e-08 0.00131167)
(0.170292 -2.16479e-08 0.00131566)
(0.168604 -2.25464e-08 0.00132022)
(0.166911 -2.35972e-08 0.00132538)
(0.16521 -2.47965e-08 0.00133117)
(0.163501 -2.61861e-08 0.0013376)
(0.161784 -2.77471e-08 0.00134469)
(0.160058 -2.9506e-08 0.00135248)
(0.158321 -3.13449e-08 0.00136097)
(0.156573 -3.31343e-08 0.00137019)
(0.154814 -3.46838e-08 0.00138017)
(0.153041 -3.56242e-08 0.00139091)
(0.151255 -3.57004e-08 0.00140245)
(0.149454 -3.4642e-08 0.00141481)
(0.147636 -3.2331e-08 0.001428)
(0.145803 -2.88436e-08 0.00144206)
(0.143951 -2.45338e-08 0.001457)
(0.14208 -1.9927e-08 0.00147284)
(0.140189 -1.57391e-08 0.0014896)
(0.138277 -1.26743e-08 0.0015073)
(0.136343 -1.13075e-08 0.00152595)
(0.134385 -1.18557e-08 0.00154558)
(0.132403 -1.41819e-08 0.00156619)
(0.130395 -1.77265e-08 0.0015878)
(0.12836 -2.15984e-08 0.00161043)
(0.126296 -2.47851e-08 0.00163409)
(0.124204 -2.63879e-08 0.0016588)
(0.122081 -2.59767e-08 0.00168457)
(0.119926 -2.36353e-08 0.00171141)
(0.117738 -1.9927e-08 0.00173932)
(0.115516 -1.57733e-08 0.00176832)
(0.113259 -1.21374e-08 0.00179839)
(0.110964 -9.56376e-09 0.00182953)
(0.108633 -8.20838e-09 0.00186173)
(0.106262 -7.62207e-09 0.00189499)
(0.103851 -7.05479e-09 0.0019293)
(0.101399 -5.72607e-09 0.00196464)
(0.0989051 -3.23614e-09 0.00200098)
(0.0963677 3.50268e-10 0.00203831)
(0.0937861 4.46969e-09 0.00207658)
(0.0911594 8.35687e-09 0.00211576)
(0.0884867 1.14217e-08 0.00215579)
(0.0857673 1.35842e-08 0.00219661)
(0.0830005 1.52023e-08 0.00223817)
(0.0801859 1.69764e-08 0.00228038)
(0.0773229 1.93522e-08 0.00232316)
(0.0744113 2.22152e-08 0.0023664)
(0.0714509 2.48764e-08 0.00240998)
(0.0684417 2.6407e-08 0.00245376)
(0.0653842 2.61671e-08 0.00249758)
(0.0622786 2.45186e-08 0.00254127)
(0.0591257 2.26873e-08 0.00258461)
(0.0559266 2.24056e-08 0.0026274)
(0.0526826 2.46518e-08 0.00266935)
(0.0493952 2.90149e-08 0.00271015)
(0.0460668 3.37016e-08 0.00274946)
(0.0426997 3.65456e-08 0.00278686)
(0.0392971 3.66941e-08 0.00282188)
(0.0358627 3.54263e-08 0.002854)
(0.0324009 3.51788e-08 0.00288258)
(0.0289169 3.72423e-08 0.00290688)
(0.0254168 4.041e-08 0.00292605)
(0.0219078 4.15141e-08 0.0029391)
(0.0183983 3.87805e-08 0.00294485)
(0.0148981 3.39986e-08 0.00294192)
(0.0114189 3.13792e-08 0.00292865)
(0.00797416 3.31458e-08 0.00290304)
(0.00457948 3.6618e-08 0.00286251)
(0.00125846 3.69987e-08 0.00280289)
(-0.00198141 3.35493e-08 0.00271297)
(-0.00508609 3.13944e-08 0.00259035)
(-0.00804239 3.30392e-08 0.00243794)
(-0.0108061 3.35798e-08 0.00225129)
(-0.0133341 2.78766e-08 0.00202249)
(-0.0155733 1.99347e-08 0.00174148)
(-0.017459 1.85793e-08 0.00139741)
(-0.0189139 2.27368e-08 0.000975734)
(-0.0198439 2.24474e-08 0.000458933)
(-0.0201395 1.90666e-08 -0.000172876)
(-0.0196646 2.62623e-08 -0.000935236)
(-0.0182874 3.87423e-08 -0.00183782)
(-0.0158725 3.77524e-08 -0.00286695)
(-0.0123079 5.47947e-08 -0.00392198)
(-0.00792919 6.67596e-08 -0.00464311)
(-0.00219395 9.81107e-08 -0.00354225)
(-0.000302105 3.32768e-08 -0.000367329)
(-0.0160352 -1.2818e-06 0.0175302)
(-0.03032 -1.79986e-07 0.0134827)
(-0.0405212 -9.06467e-08 0.00504993)
(-0.0408353 -1.09418e-07 -0.00210422)
(-0.0349949 -1.49098e-07 -0.0069946)
(-0.024908 -1.85176e-07 -0.0101256)
(-0.0122052 -2.09939e-07 -0.0120708)
(0.00225275 -2.18863e-07 -0.0131247)
(0.0174512 -2.11904e-07 -0.0134758)
(0.0329325 -1.9757e-07 -0.0134255)
(0.0484087 -1.81994e-07 -0.0131535)
(0.0636203 -1.64968e-07 -0.0127408)
(0.0784192 -1.47828e-07 -0.0122396)
(0.0927014 -1.32257e-07 -0.0116845)
(0.106399 -1.19472e-07 -0.0110991)
(0.119468 -1.09874e-07 -0.0104995)
(0.131883 -1.03268e-07 -0.00989738)
(0.143633 -9.89468e-08 -0.00930076)
(0.154715 -9.59125e-08 -0.00871544)
(0.165137 -9.30723e-08 -0.00814554)
(0.174908 -8.94059e-08 -0.00759392)
(0.184045 -8.41709e-08 -0.00706255)
(0.192566 -7.71921e-08 -0.00655269)
(0.200492 -6.88998e-08 -0.0060651)
(0.207847 -5.99413e-08 -0.00560014)
(0.214652 -5.11008e-08 -0.00515782)
(0.220933 -4.31854e-08 -0.00473796)
(0.226713 -3.69453e-08 -0.00434016)
(0.232017 -3.28639e-08 -0.00396388)
(0.236869 -3.09793e-08 -0.00360849)
(0.241293 -3.08613e-08 -0.00327326)
(0.245311 -3.19959e-08 -0.00295742)
(0.248946 -3.37739e-08 -0.00266013)
(0.252219 -3.56356e-08 -0.00238058)
(0.25515 -3.69872e-08 -0.00211791)
(0.25776 -3.73356e-08 -0.00187128)
(0.260068 -3.64942e-08 -0.00163986)
(0.262091 -3.45829e-08 -0.00142284)
(0.263846 -3.20473e-08 -0.00121944)
(0.26535 -2.94088e-08 -0.00102888)
(0.266619 -2.71054e-08 -0.00085046)
(0.267667 -2.55368e-08 -0.000683473)
(0.268507 -2.4863e-08 -0.000527266)
(0.269153 -2.52037e-08 -0.000381218)
(0.269617 -2.65115e-08 -0.000244751)
(0.26991 -2.86664e-08 -0.000117319)
(0.270045 -3.14762e-08 1.75158e-06)
(0.270031 -3.4602e-08 0.000112961)
(0.269878 -3.7722e-08 0.000216551)
(0.269595 -4.05489e-08 0.000312947)
(0.269192 -4.28275e-08 0.000402664)
(0.268676 -4.44456e-08 0.000486126)
(0.268055 -4.54622e-08 0.000563702)
(0.267336 -4.60256e-08 0.00063573)
(0.266527 -4.63892e-08 0.000702526)
(0.265634 -4.67852e-08 0.00076439)
(0.264663 -4.74152e-08 0.000821605)
(0.26362 -4.83632e-08 0.00087444)
(0.26251 -4.96387e-08 0.000923148)
(0.261339 -5.12225e-08 0.00096797)
(0.260111 -5.30233e-08 0.00100914)
(0.258831 -5.49612e-08 0.00104686)
(0.257504 -5.696e-08 0.00108135)
(0.256133 -5.8915e-08 0.0011128)
(0.254722 -6.07253e-08 0.00114141)
(0.253275 -6.22444e-08 0.00116734)
(0.251795 -6.32971e-08 0.00119077)
(0.250285 -6.37083e-08 0.00121186)
(0.248749 -6.33428e-08 0.00123077)
(0.247189 -6.21054e-08 0.00124763)
(0.245607 -5.99791e-08 0.0012626)
(0.244005 -5.70132e-08 0.00127581)
(0.242387 -5.33164e-08 0.00128737)
(0.240754 -4.90618e-08 0.00129741)
(0.239109 -4.44322e-08 0.00130606)
(0.237451 -3.95893e-08 0.0013134)
(0.235785 -3.47123e-08 0.00131956)
(0.23411 -2.99342e-08 0.00132462)
(0.232428 -2.53522e-08 0.00132868)
(0.230741 -2.10633e-08 0.00133182)
(0.229049 -1.7081e-08 0.00133414)
(0.227355 -1.34869e-08 0.0013357)
(0.225657 -1.02603e-08 0.00133659)
(0.223959 -7.39727e-09 0.00133688)
(0.222259 -4.93209e-09 0.00133663)
(0.220559 -2.80194e-09 0.0013359)
(0.21886 -1.02968e-09 0.00133477)
(0.217162 3.86602e-10 0.00133329)
(0.215465 1.42216e-09 0.00133151)
(0.21377 2.08842e-09 0.00132948)
(0.212077 2.3416e-09 0.00132726)
(0.210386 2.15123e-09 0.0013249)
(0.208698 1.53445e-09 0.00132243)
(0.207012 4.98882e-10 0.00131991)
(0.205329 -9.32642e-10 0.00131737)
(0.203649 -2.72966e-09 0.00131484)
(0.201972 -4.77034e-09 0.00131238)
(0.200297 -6.98234e-09 0.00131001)
(0.198625 -9.22481e-09 0.00130777)
(0.196955 -1.14368e-08 0.00130568)
(0.195288 -1.34889e-08 0.00130379)
(0.193622 -1.52669e-08 0.00130211)
(0.191958 -1.67174e-08 0.00130068)
(0.190295 -1.78368e-08 0.00129952)
(0.188634 -1.85754e-08 0.00129865)
(0.186973 -1.90018e-08 0.00129811)
(0.185312 -1.91922e-08 0.00129792)
(0.183651 -1.9215e-08 0.0012981)
(0.181989 -1.91769e-08 0.00129867)
(0.180326 -1.91465e-08 0.00129966)
(0.178661 -1.9215e-08 0.0013011)
(0.176995 -1.93901e-08 0.00130299)
(0.175325 -1.97366e-08 0.00130537)
(0.173652 -2.02315e-08 0.00130826)
(0.171974 -2.08597e-08 0.00131169)
(0.170292 -2.16478e-08 0.00131567)
(0.168604 -2.25463e-08 0.00132023)
(0.166911 -2.35971e-08 0.00132539)
(0.16521 -2.47964e-08 0.00133118)
(0.163501 -2.61861e-08 0.00133761)
(0.161784 -2.7747e-08 0.0013447)
(0.160058 -2.9506e-08 0.00135249)
(0.158321 -3.13449e-08 0.00136098)
(0.156573 -3.31343e-08 0.0013702)
(0.154814 -3.46838e-08 0.00138018)
(0.153041 -3.56242e-08 0.00139093)
(0.151255 -3.57003e-08 0.00140247)
(0.149454 -3.46419e-08 0.00141483)
(0.147636 -3.23309e-08 0.00142802)
(0.145803 -2.88435e-08 0.00144208)
(0.143951 -2.45337e-08 0.00145702)
(0.14208 -1.9927e-08 0.00147286)
(0.140189 -1.57391e-08 0.00148962)
(0.138277 -1.26742e-08 0.00150732)
(0.136343 -1.13074e-08 0.00152597)
(0.134385 -1.18557e-08 0.00154559)
(0.132403 -1.41819e-08 0.0015662)
(0.130395 -1.77264e-08 0.00158781)
(0.12836 -2.15984e-08 0.00161044)
(0.126296 -2.4785e-08 0.0016341)
(0.124204 -2.63879e-08 0.00165881)
(0.122081 -2.59767e-08 0.00168458)
(0.119926 -2.36352e-08 0.00171142)
(0.117738 -1.9927e-08 0.00173934)
(0.115516 -1.57733e-08 0.00176833)
(0.113259 -1.21374e-08 0.0017984)
(0.110965 -9.56374e-09 0.00182954)
(0.108633 -8.20837e-09 0.00186174)
(0.106262 -7.62206e-09 0.00189501)
(0.103851 -7.05478e-09 0.00192931)
(0.101399 -5.72606e-09 0.00196465)
(0.0989051 -3.23614e-09 0.002001)
(0.0963677 3.50267e-10 0.00203832)
(0.0937861 4.46968e-09 0.00207659)
(0.0911594 8.35686e-09 0.00211576)
(0.0884867 1.14217e-08 0.00215579)
(0.0857673 1.35842e-08 0.00219661)
(0.0830006 1.52022e-08 0.00223817)
(0.0801859 1.69764e-08 0.00228038)
(0.0773229 1.93521e-08 0.00232315)
(0.0744113 2.22152e-08 0.00236639)
(0.0714509 2.48764e-08 0.00240996)
(0.0684418 2.64069e-08 0.00245373)
(0.0653842 2.6167e-08 0.00249755)
(0.0622786 2.45185e-08 0.00254123)
(0.0591258 2.26872e-08 0.00258458)
(0.0559267 2.24055e-08 0.00262736)
(0.0526826 2.46518e-08 0.00266931)
(0.0493953 2.90148e-08 0.00271011)
(0.0460668 3.37015e-08 0.00274941)
(0.0426997 3.65455e-08 0.00278681)
(0.0392971 3.6694e-08 0.00282183)
(0.0358627 3.54262e-08 0.00285395)
(0.0324009 3.51787e-08 0.00288252)
(0.0289169 3.72423e-08 0.00290682)
(0.0254168 4.04099e-08 0.002926)
(0.0219078 4.1514e-08 0.00293904)
(0.0183983 3.87804e-08 0.00294479)
(0.0148982 3.39985e-08 0.00294186)
(0.0114189 3.13791e-08 0.0029286)
(0.0079742 3.31457e-08 0.00290298)
(0.00457953 3.66179e-08 0.00286245)
(0.0012585 3.69986e-08 0.00280284)
(-0.00198136 3.35492e-08 0.00271292)
(-0.00508604 3.13944e-08 0.0025903)
(-0.00804234 3.30391e-08 0.0024379)
(-0.010806 3.35797e-08 0.00225126)
(-0.013334 2.78765e-08 0.00202246)
(-0.0155733 1.99346e-08 0.00174146)
(-0.017459 1.85792e-08 0.00139739)
(-0.0189139 2.27367e-08 0.000975733)
(-0.0198439 2.24474e-08 0.00045895)
(-0.0201395 1.90666e-08 -0.000172857)
(-0.0196646 2.62622e-08 -0.00093522)
(-0.0182874 3.87424e-08 -0.00183782)
(-0.0158725 3.77525e-08 -0.00286697)
(-0.0123081 5.47925e-08 -0.00392205)
(-0.00792919 6.6737e-08 -0.00464366)
(-0.00219423 9.81595e-08 -0.00354265)
(-0.000301688 3.33039e-08 -0.000366651)
(-0.0109152 -2.49242e-07 0.0342533)
(-0.014834 4.2888e-08 0.0195692)
(-0.013373 4.41914e-08 0.00564309)
(-0.00861822 3.52107e-08 -0.00582875)
(-0.00121335 2.59241e-08 -0.0140824)
(0.00828777 1.86441e-08 -0.0196267)
(0.0192957 1.40065e-08 -0.023154)
(0.0313578 1.13032e-08 -0.0252149)
(0.0440662 9.68398e-09 -0.0262134)
(0.0571149 9.05664e-09 -0.0264989)
(0.0702552 9.02993e-09 -0.0263047)
(0.0832963 9.36302e-09 -0.0257794)
(0.096099 9.70373e-09 -0.0250272)
(0.10856 9.77412e-09 -0.0241203)
(0.120605 9.44189e-09 -0.0231105)
(0.132182 8.7594e-09 -0.0220356)
(0.143253 7.82562e-09 -0.0209233)
(0.153798 6.81474e-09 -0.0197947)
(0.163801 5.95331e-09 -0.0186654)
(0.17326 5.49355e-09 -0.0175473)
(0.182176 5.56778e-09 -0.0164493)
(0.190554 6.16836e-09 -0.0153784)
(0.198405 7.16396e-09 -0.0143393)
(0.205743 8.36324e-09 -0.0133357)
(0.212581 9.57966e-09 -0.0123702)
(0.218937 1.06067e-08 -0.0114443)
(0.224828 1.12477e-08 -0.010559)
(0.230274 1.1389e-08 -0.00971447)
(0.235293 1.10297e-08 -0.00891072)
(0.239905 1.02939e-08 -0.00814723)
(0.244127 9.34256e-09 -0.0074232)
(0.247981 8.31886e-09 -0.00673764)
(0.251483 7.36559e-09 -0.00608936)
(0.254652 6.60745e-09 -0.00547707)
(0.257506 6.15722e-09 -0.0048994)
(0.260061 6.0587e-09 -0.00435489)
(0.262335 6.2757e-09 -0.00384209)
(0.264342 6.67831e-09 -0.00335954)
(0.266098 7.12899e-09 -0.00290576)
(0.267617 7.50448e-09 -0.00247933)
(0.268914 7.72957e-09 -0.00207885)
(0.27 7.76145e-09 -0.00170297)
(0.270889 7.60772e-09 -0.00135038)
(0.271592 7.28457e-09 -0.00101983)
(0.27212 6.84053e-09 -0.000710141)
(0.272485 6.33558e-09 -0.000420163)
(0.272696 5.85158e-09 -0.00014882)
(0.272763 5.44229e-09 0.00010489)
(0.272694 5.17006e-09 0.000341948)
(0.2725 5.10057e-09 0.000563317)
(0.272186 5.23905e-09 0.000769875)
(0.271763 5.56028e-09 0.000962449)
(0.271235 6.02381e-09 0.00114182)
(0.270612 6.55682e-09 0.00130871)
(0.269898 7.09174e-09 0.00146383)
(0.269101 7.58287e-09 0.00160783)
(0.268225 7.98643e-09 0.00174133)
(0.267277 8.30719e-09 0.00186492)
(0.266263 8.55798e-09 0.00197917)
(0.265185 8.76262e-09 0.0020846)
(0.26405 8.94726e-09 0.00218174)
(0.262862 9.12762e-09 0.00227105)
(0.261625 9.32655e-09 0.002353)
(0.260342 9.54593e-09 0.00242803)
(0.259018 9.81434e-09 0.00249655)
(0.257656 1.01375e-08 0.00255896)
(0.256259 1.05387e-08 0.00261565)
(0.25483 1.10307e-08 0.00266697)
(0.253373 1.16142e-08 0.00271328)
(0.251889 1.22785e-08 0.00275489)
(0.250381 1.29924e-08 0.00279214)
(0.248852 1.37191e-08 0.0028253)
(0.247303 1.44096e-08 0.00285468)
(0.245738 1.50216e-08 0.00288055)
(0.244157 1.55104e-08 0.00290316)
(0.242562 1.58573e-08 0.00292275)
(0.240955 1.60439e-08 0.00293957)
(0.239338 1.60639e-08 0.00295384)
(0.237712 1.59268e-08 0.00296578)
(0.236078 1.56531e-08 0.00297557)
(0.234438 1.52486e-08 0.00298342)
(0.232791 1.4736e-08 0.0029895)
(0.23114 1.41293e-08 0.00299399)
(0.229486 1.34454e-08 0.00299706)
(0.227828 1.26944e-08 0.00299885)
(0.226168 1.18863e-08 0.00299952)
(0.224506 1.10301e-08 0.00299921)
(0.222843 1.01273e-08 0.00299804)
(0.221179 9.18125e-09 0.00299615)
(0.219515 8.20183e-09 0.00299366)
(0.217851 7.19338e-09 0.00299067)
(0.216187 6.17018e-09 0.0029873)
(0.214524 5.14841e-09 0.00298364)
(0.212861 4.1471e-09 0.0029798)
(0.211199 3.19577e-09 0.00297587)
(0.209538 2.322e-09 0.00297193)
(0.207878 1.55104e-09 0.00296808)
(0.206219 9.07609e-10 0.00296437)
(0.204561 4.16473e-10 0.00296091)
(0.202903 8.23854e-11 0.00295774)
(0.201245 -7.84729e-11 0.00295496)
(0.199588 -7.51441e-11 0.00295261)
(0.197931 7.42874e-11 0.00295077)
(0.196273 3.44599e-10 0.00294949)
(0.194615 7.11519e-10 0.00294883)
(0.192957 1.13222e-09 0.00294885)
(0.191296 1.56148e-09 0.00294961)
(0.189635 1.97884e-09 0.00295116)
(0.187971 2.34481e-09 0.00295354)
(0.186304 2.64511e-09 0.00295682)
(0.184635 2.87164e-09 0.00296104)
(0.182962 3.0263e-09 0.00296625)
(0.181285 3.12719e-09 0.00297251)
(0.179603 3.18858e-09 0.00297986)
(0.177916 3.23903e-09 0.00298836)
(0.176223 3.28995e-09 0.00299804)
(0.174523 3.35848e-09 0.00300897)
(0.172817 3.45556e-09 0.00302119)
(0.171102 3.58167e-09 0.00303474)
(0.169379 3.72968e-09 0.00304967)
(0.167646 3.89386e-09 0.00306603)
(0.165903 4.07185e-09 0.00308386)
(0.164149 4.27078e-09 0.0031032)
(0.162383 4.50778e-09 0.00312411)
(0.160605 4.80997e-09 0.00314661)
(0.158813 5.21687e-09 0.00317076)
(0.157006 5.76321e-09 0.00319659)
(0.155184 6.4547e-09 0.00322415)
(0.153346 7.27658e-09 0.00325348)
(0.151491 8.16795e-09 0.0032846)
(0.149617 9.03504e-09 0.00331757)
(0.147724 9.74842e-09 0.00335242)
(0.145811 1.01834e-08 0.00338918)
(0.143877 1.02391e-08 0.00342788)
(0.141921 9.87501e-09 0.00346856)
(0.139941 9.13213e-09 0.00351125)
(0.137936 8.13416e-09 0.00355596)
(0.135907 7.06718e-09 0.00360272)
(0.13385 6.14868e-09 0.00365155)
(0.131766 5.57284e-09 0.00370247)
(0.129654 5.4453e-09 0.00375548)
(0.127511 5.75654e-09 0.0038106)
(0.125338 6.37331e-09 0.00386782)
(0.123133 7.08907e-09 0.00392713)
(0.120894 7.67919e-09 0.00398854)
(0.118622 7.97235e-09 0.004052)
(0.116315 7.90953e-09 0.00411751)
(0.113971 7.56307e-09 0.00418501)
(0.111591 7.09383e-09 0.00425447)
(0.109172 6.67027e-09 0.00432584)
(0.106715 6.43327e-09 0.00439904)
(0.104218 6.38854e-09 0.00447401)
(0.101681 6.44945e-09 0.00455064)
(0.0991018 6.4504e-09 0.00462884)
(0.0964812 6.25719e-09 0.00470848)
(0.0938182 5.81364e-09 0.00478942)
(0.0911122 5.20068e-09 0.0048715)
(0.088363 4.55535e-09 0.00495454)
(0.0855703 4.01473e-09 0.00503833)
(0.0827339 3.62544e-09 0.00512263)
(0.0798539 3.29421e-09 0.00520719)
(0.0769304 2.82592e-09 0.00529171)
(0.073964 2.06733e-09 0.00537584)
(0.0709551 9.8417e-10 0.00545921)
(0.0679046 -2.14156e-10 0.00554139)
(0.0648136 -1.20975e-09 0.00562192)
(0.0616834 -1.69422e-09 0.00570024)
(0.0585158 -1.63045e-09 0.00577576)
(0.0553126 -1.32682e-09 0.00584778)
(0.0520765 -1.27352e-09 0.00591552)
(0.0488102 -1.83509e-09 0.00597812)
(0.0455172 -2.91063e-09 0.00603455)
(0.0422014 -3.96904e-09 0.0060837)
(0.0388673 -4.49349e-09 0.00612424)
(0.0355203 -4.52109e-09 0.00615468)
(0.0321664 -4.68766e-09 0.00617331)
(0.0288128 -5.68039e-09 0.00617812)
(0.0254675 -7.4203e-09 0.00616682)
(0.0221399 -8.94509e-09 0.0061367)
(0.0188405 -9.33153e-09 0.00608459)
(0.0155819 -8.81755e-09 0.00600669)
(0.0123781 -8.62529e-09 0.00589823)
(0.00924589 -9.4191e-09 0.0057537)
(0.00620277 -1.02767e-08 0.00556369)
(0.00327137 -1.01082e-08 0.00532124)
(0.000474385 -9.72939e-09 0.00502064)
(-0.00215914 -1.10296e-08 0.00465106)
(-0.00459481 -1.36261e-08 0.00420047)
(-0.00679777 -1.46388e-08 0.00365373)
(-0.00872655 -1.32853e-08 0.00299273)
(-0.0103358 -1.2897e-08 0.00219561)
(-0.0115757 -1.50062e-08 0.00123841)
(-0.0123947 -1.57163e-08 9.72047e-05)
(-0.0127417 -1.37765e-08 -0.00124245)
(-0.0125689 -1.42543e-08 -0.0027761)
(-0.011848 -1.41765e-08 -0.00445222)
(-0.0105656 -5.86761e-09 -0.00609157)
(-0.00878007 -3.01995e-09 -0.00726558)
(-0.0060598 -7.56916e-09 -0.00678868)
(-0.00350066 -1.27061e-07 -0.00280014)
(-0.010915 -2.49236e-07 0.0342533)
(-0.0148337 4.28864e-08 0.019569)
(-0.0133728 4.41897e-08 0.00564287)
(-0.00861792 3.52095e-08 -0.00582895)
(-0.00121306 2.59233e-08 -0.0140825)
(0.00828804 1.86436e-08 -0.0196268)
(0.0192959 1.40062e-08 -0.0231541)
(0.031358 1.13029e-08 -0.025215)
(0.0440664 9.68377e-09 -0.0262135)
(0.057115 9.05646e-09 -0.026499)
(0.0702553 9.02976e-09 -0.0263048)
(0.0832964 9.36286e-09 -0.0257795)
(0.096099 9.70357e-09 -0.0250273)
(0.10856 9.77398e-09 -0.0241203)
(0.120605 9.44176e-09 -0.0231105)
(0.132182 8.75928e-09 -0.0220356)
(0.143253 7.82552e-09 -0.0209233)
(0.153797 6.81466e-09 -0.0197947)
(0.163801 5.95324e-09 -0.0186654)
(0.17326 5.4935e-09 -0.0175473)
(0.182176 5.56772e-09 -0.0164494)
(0.190554 6.1683e-09 -0.0153784)
(0.198405 7.16389e-09 -0.0143393)
(0.205742 8.36317e-09 -0.0133357)
(0.212581 9.57959e-09 -0.0123702)
(0.218937 1.06066e-08 -0.0114443)
(0.224828 1.12476e-08 -0.010559)
(0.230274 1.1389e-08 -0.00971447)
(0.235293 1.10296e-08 -0.00891073)
(0.239904 1.02939e-08 -0.00814724)
(0.244127 9.3425e-09 -0.00742321)
(0.24798 8.31881e-09 -0.00673764)
(0.251483 7.36555e-09 -0.00608937)
(0.254652 6.60741e-09 -0.00547708)
(0.257506 6.15719e-09 -0.0048994)
(0.260061 6.05867e-09 -0.0043549)
(0.262335 6.27567e-09 -0.0038421)
(0.264342 6.67828e-09 -0.00335954)
(0.266098 7.12896e-09 -0.00290577)
(0.267617 7.50444e-09 -0.00247934)
(0.268914 7.72954e-09 -0.00207886)
(0.27 7.76141e-09 -0.00170297)
(0.270889 7.60769e-09 -0.00135039)
(0.271592 7.28454e-09 -0.00101984)
(0.27212 6.84051e-09 -0.000710147)
(0.272485 6.33556e-09 -0.000420168)
(0.272696 5.85155e-09 -0.000148825)
(0.272763 5.44227e-09 0.000104885)
(0.272694 5.17004e-09 0.000341944)
(0.272499 5.10055e-09 0.000563314)
(0.272186 5.23903e-09 0.000769872)
(0.271762 5.56026e-09 0.000962446)
(0.271235 6.02379e-09 0.00114181)
(0.270611 6.5568e-09 0.00130871)
(0.269898 7.09171e-09 0.00146383)
(0.2691 7.58284e-09 0.00160783)
(0.268225 7.98641e-09 0.00174133)
(0.267277 8.30716e-09 0.00186492)
(0.266262 8.55796e-09 0.00197917)
(0.265185 8.76259e-09 0.0020846)
(0.26405 8.94724e-09 0.00218173)
(0.262862 9.1276e-09 0.00227105)
(0.261625 9.32652e-09 0.002353)
(0.260342 9.54591e-09 0.00242802)
(0.259018 9.81431e-09 0.00249654)
(0.257656 1.01374e-08 0.00255896)
(0.256259 1.05386e-08 0.00261565)
(0.25483 1.10307e-08 0.00266697)
(0.253373 1.16142e-08 0.00271328)
(0.251889 1.22785e-08 0.00275489)
(0.250381 1.29924e-08 0.00279213)
(0.248852 1.37191e-08 0.0028253)
(0.247303 1.44096e-08 0.00285468)
(0.245738 1.50216e-08 0.00288055)
(0.244157 1.55104e-08 0.00290315)
(0.242562 1.58573e-08 0.00292275)
(0.240955 1.60438e-08 0.00293957)
(0.239338 1.60638e-08 0.00295384)
(0.237712 1.59267e-08 0.00296577)
(0.236078 1.56531e-08 0.00297557)
(0.234438 1.52486e-08 0.00298342)
(0.232791 1.4736e-08 0.0029895)
(0.23114 1.41292e-08 0.00299399)
(0.229485 1.34453e-08 0.00299706)
(0.227828 1.26944e-08 0.00299885)
(0.226167 1.18863e-08 0.00299952)
(0.224506 1.10301e-08 0.00299921)
(0.222843 1.01273e-08 0.00299804)
(0.221179 9.18122e-09 0.00299615)
(0.219515 8.20181e-09 0.00299366)
(0.217851 7.19337e-09 0.00299067)
(0.216187 6.17017e-09 0.0029873)
(0.214524 5.1484e-09 0.00298364)
(0.212861 4.14709e-09 0.0029798)
(0.211199 3.19576e-09 0.00297587)
(0.209538 2.322e-09 0.00297193)
(0.207878 1.55103e-09 0.00296807)
(0.206219 9.07607e-10 0.00296437)
(0.20456 4.16472e-10 0.0029609)
(0.202903 8.23852e-11 0.00295774)
(0.201245 -7.84727e-11 0.00295496)
(0.199588 -7.5144e-11 0.00295261)
(0.197931 7.42872e-11 0.00295077)
(0.196273 3.44598e-10 0.00294949)
(0.194615 7.11517e-10 0.00294883)
(0.192956 1.13221e-09 0.00294886)
(0.191296 1.56148e-09 0.00294961)
(0.189635 1.97884e-09 0.00295116)
(0.187971 2.34481e-09 0.00295355)
(0.186304 2.6451e-09 0.00295682)
(0.184635 2.87163e-09 0.00296104)
(0.182962 3.0263e-09 0.00296626)
(0.181285 3.12719e-09 0.00297251)
(0.179603 3.18857e-09 0.00297986)
(0.177916 3.23902e-09 0.00298836)
(0.176223 3.28994e-09 0.00299804)
(0.174523 3.35847e-09 0.00300897)
(0.172817 3.45555e-09 0.00302118)
(0.171102 3.58166e-09 0.00303473)
(0.169379 3.72967e-09 0.00304966)
(0.167646 3.89385e-09 0.00306602)
(0.165903 4.07184e-09 0.00308385)
(0.164149 4.27077e-09 0.0031032)
(0.162383 4.50777e-09 0.00312411)
(0.160605 4.80996e-09 0.00314661)
(0.158813 5.21686e-09 0.00317076)
(0.157006 5.76319e-09 0.0031966)
(0.155184 6.45468e-09 0.00322415)
(0.153346 7.27656e-09 0.00325348)
(0.151491 8.16793e-09 0.0032846)
(0.149617 9.03502e-09 0.00331757)
(0.147724 9.7484e-09 0.00335242)
(0.145811 1.01834e-08 0.00338918)
(0.143877 1.02391e-08 0.00342788)
(0.141921 9.87499e-09 0.00346856)
(0.139941 9.13211e-09 0.00351124)
(0.137936 8.13414e-09 0.00355595)
(0.135907 7.06716e-09 0.00360271)
(0.13385 6.14867e-09 0.00365155)
(0.131766 5.57283e-09 0.00370246)
(0.129654 5.44528e-09 0.00375548)
(0.127511 5.75652e-09 0.00381059)
(0.125338 6.37329e-09 0.00386781)
(0.123133 7.08905e-09 0.00392713)
(0.120894 7.67917e-09 0.00398853)
(0.118622 7.97233e-09 0.004052)
(0.116315 7.90951e-09 0.0041175)
(0.113971 7.56305e-09 0.00418501)
(0.111591 7.09381e-09 0.00425447)
(0.109172 6.67026e-09 0.00432584)
(0.106715 6.43326e-09 0.00439904)
(0.104218 6.38852e-09 0.004474)
(0.101681 6.44944e-09 0.00455064)
(0.0991018 6.45039e-09 0.00462884)
(0.0964812 6.25717e-09 0.00470847)
(0.0938182 5.81363e-09 0.00478941)
(0.0911122 5.20067e-09 0.00487149)
(0.088363 4.55534e-09 0.00495453)
(0.0855703 4.01472e-09 0.00503832)
(0.0827339 3.62543e-09 0.00512262)
(0.0798539 3.2942e-09 0.00520718)
(0.0769304 2.82591e-09 0.0052917)
(0.073964 2.06732e-09 0.00537583)
(0.0709551 9.84167e-10 0.0054592)
(0.0679046 -2.14156e-10 0.00554138)
(0.0648136 -1.20974e-09 0.00562191)
(0.0616835 -1.69421e-09 0.00570023)
(0.0585158 -1.63044e-09 0.00577575)
(0.0553127 -1.32682e-09 0.00584776)
(0.0520765 -1.27352e-09 0.00591551)
(0.0488102 -1.83508e-09 0.0059781)
(0.0455172 -2.91062e-09 0.00603454)
(0.0422014 -3.96903e-09 0.00608368)
(0.0388673 -4.49347e-09 0.00612422)
(0.0355203 -4.52108e-09 0.00615467)
(0.0321665 -4.68764e-09 0.00617329)
(0.0288128 -5.68037e-09 0.00617811)
(0.0254676 -7.42027e-09 0.00616681)
(0.0221399 -8.94507e-09 0.00613669)
(0.0188406 -9.3315e-09 0.00608458)
(0.0155819 -8.81752e-09 0.00600668)
(0.0123781 -8.62526e-09 0.00589822)
(0.00924591 -9.41906e-09 0.00575369)
(0.00620279 -1.02766e-08 0.00556368)
(0.00327139 -1.01082e-08 0.00532123)
(0.000474408 -9.72935e-09 0.00502063)
(-0.00215912 -1.10295e-08 0.00465106)
(-0.00459479 -1.3626e-08 0.00420047)
(-0.00679775 -1.46388e-08 0.00365373)
(-0.00872654 -1.32853e-08 0.00299273)
(-0.0103358 -1.2897e-08 0.00219561)
(-0.0115757 -1.50062e-08 0.00123842)
(-0.0123947 -1.57162e-08 9.72211e-05)
(-0.0127417 -1.37764e-08 -0.00124243)
(-0.0125689 -1.42542e-08 -0.00277609)
(-0.011848 -1.41759e-08 -0.0044522)
(-0.0105656 -5.86627e-09 -0.00609159)
(-0.00878002 -3.01832e-09 -0.00726559)
(-0.00606013 -7.56841e-09 -0.00678877)
(-0.00350067 -1.2711e-07 -0.00280078)
(-0.00274724 -1.38681e-07 0.0434032)
(-0.0011847 3.69404e-08 0.0171793)
(0.0047317 2.54308e-08 -0.000972729)
(0.01194 2.11543e-08 -0.0143477)
(0.0202126 1.86143e-08 -0.024042)
(0.0294059 1.66095e-08 -0.0308011)
(0.0393999 1.51469e-08 -0.0352875)
(0.0500278 1.38689e-08 -0.0380507)
(0.0611111 1.29085e-08 -0.0395232)
(0.0724757 1.23263e-08 -0.0400544)
(0.0839536 1.18337e-08 -0.0399038)
(0.0954016 1.1372e-08 -0.0392598)
(0.106703 1.08471e-08 -0.0382609)
(0.117767 1.01722e-08 -0.0370092)
(0.12852 9.34978e-09 -0.035581)
(0.138909 8.39649e-09 -0.0340338)
(0.148894 7.32994e-09 -0.0324115)
(0.158447 6.31384e-09 -0.0307476)
(0.16755 5.54522e-09 -0.0290681)
(0.176193 5.0731e-09 -0.0273929)
(0.184369 4.85178e-09 -0.0257377)
(0.192081 4.86747e-09 -0.0241142)
(0.199332 5.11398e-09 -0.0225315)
(0.206131 5.52136e-09 -0.0209964)
(0.212488 5.95109e-09 -0.0195138)
(0.218414 6.26281e-09 -0.0180872)
(0.223924 6.38273e-09 -0.0167186)
(0.229032 6.2911e-09 -0.0154095)
(0.233753 6.0015e-09 -0.0141601)
(0.238104 5.56079e-09 -0.0129704)
(0.242099 5.02871e-09 -0.0118394)
(0.245756 4.48354e-09 -0.0107662)
(0.24909 4.01452e-09 -0.00974925)
(0.252116 3.68875e-09 -0.00878684)
(0.25485 3.5474e-09 -0.00787711)
(0.257308 3.58904e-09 -0.00701808)
(0.259502 3.76964e-09 -0.00620768)
(0.261448 4.02282e-09 -0.0054438)
(0.263159 4.28861e-09 -0.00472434)
(0.264647 4.51513e-09 -0.0040472)
(0.265925 4.67289e-09 -0.00341032)