/*--------------------------------*- C++ -*----------------------------------*\
  =========                 |
  \\      /  F ield         | OpenFOAM: The Open Source CFD Toolbox
   \\    /   O peration     | Website:  https://openfoam.org
    \\  /    A nd           | Version:  8
     \\/     M anipulation  |
\*---------------------------------------------------------------------------*/
FoamFile
{
    version     2.0;
    format      ascii;
    class       volScalarField;
    location    "100";
    object      alphat;
}
// * * * * * * * * * * * * * * * * * * * * * * * * * * * * * * * * * * * * * //

dimensions      [1 -1 -1 0 0 0 0];

internalField   nonuniform List<scalar> 
78750
(
0.000909851
0.000765096
0.000818591
0.00102143
0.00110028
0.000837685
0.000827171
0.00079199
0.000821952
0.000882991
0.00122388
0.000797493
0.000774904
0.000828086
0.000796025
0.000762673
0.000749949
0.00074783
0.000749605
0.000754889
0.000787611
0.000784632
0.000819614
0.000872804
0.000846454
0.00080778
0.000806726
0.000802584
0.000818958
0.000798605
0.00107018
0.0010933
0.000854462
0.000793744
0.00104235
0.00108644
0.00137617
0.00129046
0.00125789
0.00122481
0.00124473
0.00123773
0.00120962
0.0012467
0.00125872
0.0013481
0.00118922
0.0011874
0.00123847
0.00116425
0.00114482
0.00112341
0.00117406
0.00116212
0.00115538
0.00118018
0.00118806
0.00120227
0.00122865
0.00124315
0.0012134
0.00121683
0.00123992
0.00122841
0.00127143
0.00125845
0.0012595
0.00127679
0.00134991
0.00104788
0.00142742
0.00116751
0.00119738
0.00151831
0.00163378
0.00121482
0.00120198
0.0010659
0.00111978
0.00121794
0.00149713
0.0012051
0.00114556
0.00106131
0.0010868
0.0010619
0.00112861
0.00106197
0.0011391
0.00109772
0.00108662
0.00111404
0.00122742
0.00130176
0.00116399
0.00113418
0.00111442
0.00109739
0.00113933
0.00124419
0.00149749
0.00154608
0.00128726
0.00125025
0.00123646
0.00143121
0.00126272
0.00194489
0.00244831
0.00228201
0.00149833
0.00146601
0.00139444
0.00148128
0.00146772
0.00174402
0.00141507
0.00130797
0.00132459
0.00120193
0.00112592
0.00115721
0.00114043
0.00113725
0.00117932
0.00118233
0.00115159
0.00150421
0.00156415
0.00134047
0.00132116
0.0013472
0.00143561
0.00149411
0.00144742
0.00219759
0.00259906
0.00198513
0.00125868
0.00149461
0.00113505
0.00207324
0.00287327
0.00292308
0.00256774
0.00229907
0.00237099
0.00242499
0.00237697
0.00264858
0.00244708
0.00218451
0.002052
0.00231109
0.00185367
0.00155073
0.00150947
0.00177552
0.00151631
0.00158056
0.0017892
0.00170867
0.00206636
0.00231873
0.00209313
0.00219436
0.00272162
0.00251444
0.00236831
0.00212375
0.00291186
0.00286267
0.00289573
0.00170756
0.00122994
0.00109086
0.00205261
0.00257747
0.00255488
0.00266641
0.00315879
0.00311084
0.00310286
0.00301283
0.00265804
0.00247645
0.00266935
0.00250873
0.00278039
0.00257328
0.00235919
0.00303863
0.00269257
0.00311161
0.00267165
0.00296459
0.00316011
0.00274144
0.002671
0.00309572
0.00318558
0.0030587
0.00310314
0.0031495
0.00316875
0.00269997
0.00257385
0.00249591
0.00222922
0.00107954
0.00102658
0.00209446
0.00224899
0.0022937
0.00245413
0.00323123
0.00321044
0.00318875
0.00302541
0.00264068
0.00231102
0.00259305
0.00261686
0.00272566
0.00265498
0.00266557
0.00315232
0.00281977
0.00305529
0.002936
0.00283499
0.00287697
0.00262558
0.00260638
0.00292496
0.00311756
0.00286798
0.00322765
0.00330134
0.00320578
0.00248999
0.00226788
0.00223914
0.00198746
0.0010266
0.000982199
0.00176697
0.0019697
0.00207598
0.00220997
0.00291379
0.00294553
0.00302175
0.00292499
0.00294477
0.00261215
0.002905
0.0030424
0.0028629
0.00292362
0.00323537
0.00302711
0.00299468
0.00288529
0.00294276
0.00273264
0.00284268
0.00269501
0.00273931
0.00297562
0.00293734
0.00298644
0.00307836
0.00302109
0.00307282
0.00230284
0.00204856
0.00192311
0.00167564
0.00094394
0.000802024
0.0013906
0.0015752
0.00164684
0.00179543
0.00223856
0.00228274
0.00242721
0.00239828
0.00241554
0.00236957
0.00252166
0.00266368
0.00269078
0.00281745
0.0030503
0.00294371
0.00317594
0.00306612
0.00284766
0.00278503
0.00270381
0.00256373
0.00247239
0.00260224
0.0024206
0.00238545
0.00237125
0.00235259
0.00239057
0.00182158
0.00164647
0.0015435
0.00131269
0.000804253
0.00066874
0.00104002
0.00116237
0.0012194
0.00131057
0.00151026
0.00154288
0.00160308
0.0015947
0.00166126
0.00160773
0.00177105
0.00187617
0.00190539
0.00205658
0.00226685
0.00225331
0.00251288
0.00243103
0.00216425
0.00206762
0.00192456
0.00177782
0.00173576
0.00175296
0.00163705
0.00160846
0.00155745
0.00155491
0.00156043
0.00130811
0.00122113
0.00116564
0.000993469
0.000686973
0.000625564
0.000927684
0.00106242
0.00112456
0.00118007
0.00127447
0.00132327
0.00135235
0.00133088
0.00133452
0.00131251
0.00134559
0.00134551
0.00140105
0.0014665
0.00153962
0.00156463
0.00170157
0.00166675
0.0015687
0.00150505
0.00142571
0.00137103
0.00133698
0.00138206
0.00135524
0.0013311
0.00135861
0.00133591
0.00131557
0.00119568
0.00112383
0.00104722
0.000930874
0.000631337
0.000599001
0.00103027
0.00115053
0.00121405
0.00129619
0.00138894
0.00141292
0.00138644
0.00136431
0.00139202
0.00133131
0.00134714
0.00133791
0.00133027
0.0013508
0.00138732
0.00138387
0.00144312
0.00140575
0.00135643
0.00133719
0.0013385
0.00132532
0.0013353
0.00137518
0.00138779
0.00138674
0.0014149
0.00137954
0.00136991
0.00129736
0.00121897
0.00115977
0.00103024
0.000610095
0.000625438
0.00115694
0.0012662
0.00134276
0.0013876
0.00146426
0.00148342
0.00149547
0.00148244
0.00149535
0.00146927
0.00145082
0.00147749
0.0014479
0.00142822
0.0014554
0.00143653
0.00146668
0.00145605
0.00146497
0.00144904
0.00145317
0.00144282
0.0014283
0.00149548
0.0014978
0.0014669
0.00152028
0.00148317
0.00147937
0.001422
0.00135219
0.00124668
0.0011825
0.000614541
0.000654118
0.00125565
0.0013076
0.00138544
0.00142222
0.00145888
0.0015286
0.0014828
0.00149537
0.00153341
0.00148727
0.00152301
0.00151338
0.00147651
0.0015289
0.00154822
0.00153901
0.00157165
0.00152358
0.00152826
0.00149831
0.00148438
0.00147063
0.00150217
0.0015033
0.00148899
0.00152451
0.00150151
0.00148878
0.00145586
0.00143755
0.00138144
0.00130443
0.00124638
0.00063701
0.000627619
0.00124884
0.00135475
0.00146115
0.00145907
0.00149875
0.00155316
0.00152912
0.0015424
0.00150775
0.00149602
0.00150816
0.00150295
0.00148804
0.00150262
0.00151172
0.0015247
0.00155947
0.00155519
0.00149433
0.00149238
0.00150431
0.00150512
0.00149435
0.00152175
0.00152977
0.0015288
0.00155323
0.00156486
0.00150315
0.00150837
0.0014405
0.0013449
0.00125026
0.000628196
0.000614342
0.00125249
0.00141049
0.0015444
0.00158736
0.00161466
0.00164181
0.00163525
0.00161619
0.00160784
0.00156626
0.00159287
0.00157757
0.00155831
0.00153394
0.00154226
0.00155885
0.00158365
0.0015493
0.00152945
0.00154379
0.00156212
0.0015791
0.00156438
0.00159244
0.00162262
0.00162705
0.00166591
0.00166567
0.00162133
0.00159025
0.00156255
0.00143228
0.00125202
0.000629729
0.000662389
0.00130423
0.00148579
0.00159772
0.00172251
0.0017258
0.00172177
0.00172919
0.00169369
0.00172615
0.00168576
0.00169818
0.0016797
0.00169034
0.00162172
0.001636
0.0016239
0.00162372
0.00159579
0.00160471
0.00162543
0.00164851
0.00165672
0.00165207
0.00171204
0.00171106
0.00172196
0.00175882
0.00173559
0.00173317
0.00166273
0.00166699
0.0015068
0.00131506
0.000647153
0.000726824
0.00140339
0.0015813
0.00166364
0.00178788
0.00180031
0.00180033
0.00180333
0.00177311
0.0018074
0.00178031
0.00176965
0.00175188
0.00176222
0.00170673
0.00171419
0.00166534
0.0016371
0.00163207
0.00166095
0.00168592
0.0017075
0.00171459
0.00173958
0.00183061
0.00178163
0.00178271
0.00182834
0.00180243
0.00179964
0.00175866
0.00169567
0.00157125
0.00142254
0.000676907
0.000758221
0.00152377
0.00166301
0.00175948
0.00180646
0.00185444
0.00188052
0.00187126
0.00186186
0.00187309
0.00183822
0.00184078
0.00182434
0.00179615
0.00178892
0.0017705
0.00171736
0.00166729
0.00170395
0.00173256
0.0017626
0.00177313
0.00178731
0.00182677
0.00189931
0.00184937
0.00184951
0.00190506
0.00188522
0.00184242
0.00184736
0.00171159
0.00164499
0.001545
0.000719566
0.000765484
0.00161479
0.00172349
0.00184517
0.00184843
0.0019157
0.00195625
0.00193868
0.00196572
0.00194613
0.00192771
0.00194562
0.00192254
0.00187123
0.00189778
0.0018511
0.00181587
0.00176215
0.00181622
0.00182781
0.0018685
0.00187843
0.0018814
0.00192273
0.00194344
0.0019454
0.00195868
0.00197747
0.00196334
0.00190061
0.00188805
0.00180114
0.00173263
0.00162395
0.000754222
0.000763686
0.00162825
0.00179252
0.00188993
0.00191792
0.00196798
0.00202808
0.00199973
0.00204626
0.00202502
0.00205798
0.00206372
0.00202358
0.0020013
0.00202212
0.00196987
0.00195036
0.00191846
0.0019386
0.00193183
0.00198912
0.00201895
0.00199966
0.00203875
0.00200423
0.00205528
0.0020708
0.00201476
0.00200546
0.00198185
0.00191643
0.00191645
0.00180445
0.00162437
0.000755251
0.000743753
0.00158016
0.00183865
0.00189651
0.00197016
0.00199157
0.00207323
0.00204583
0.00207848
0.00208829
0.00213871
0.00213239
0.00209533
0.00211665
0.00210025
0.00206708
0.00206196
0.00205777
0.00204921
0.00202543
0.00209386
0.00212098
0.00210365
0.00212369
0.00207207
0.00211806
0.00212387
0.00203429
0.00202833
0.00204613
0.0019591
0.00195033
0.00181495
0.00157515
0.000727651
0.0007131
0.00153092
0.00179323
0.00187944
0.00198167
0.00201486
0.00206395
0.00206392
0.00207511
0.00211148
0.00210882
0.00213058
0.0021238
0.00215278
0.00212038
0.00210024
0.00208633
0.00210202
0.00210347
0.00207424
0.00215202
0.00212061
0.00213234
0.0021295
0.00212146
0.00210705
0.0021191
0.00206229
0.00206792
0.00204493
0.00197544
0.00190161
0.00177056
0.00150944
0.000692353
0.00068746
0.00148469
0.00170159
0.00186047
0.00194738
0.00203352
0.00202501
0.00205014
0.00205248
0.00209411
0.002043
0.00209875
0.00211136
0.00212407
0.00212607
0.00210578
0.00205185
0.00208363
0.00206586
0.00206352
0.00214179
0.00207819
0.00210994
0.00209708
0.00213989
0.00207226
0.00208606
0.00208964
0.00208559
0.0020111
0.00195286
0.00185618
0.00172273
0.00145127
0.000668439
0.000671511
0.00143182
0.00165114
0.00184144
0.0018862
0.00200573
0.0019953
0.0020268
0.00203108
0.00207007
0.00203146
0.00207987
0.00208578
0.00209896
0.00212504
0.00210047
0.00203876
0.00206961
0.00201913
0.00204552
0.00209221
0.0020672
0.00209438
0.00207737
0.00212966
0.00206808
0.00204666
0.00209563
0.00202982
0.00199746
0.0019314
0.00184968
0.00168885
0.00140975
0.000660467
0.000663082
0.00139602
0.00164902
0.00182485
0.00185797
0.0019535
0.00197888
0.00201523
0.00201877
0.0020643
0.00206938
0.00208133
0.00208218
0.00211701
0.00211525
0.0020719
0.00205987
0.00207693
0.00205434
0.00206423
0.00206896
0.0020815
0.00208313
0.00207443
0.00210006
0.00208426
0.00202316
0.00206025
0.00196334
0.00198262
0.00190725
0.00184519
0.00166747
0.00138005
0.000655023
0.000664075
0.0013903
0.00166282
0.00181849
0.00185846
0.0019148
0.00195253
0.00200139
0.00200867
0.00205433
0.00208761
0.00208029
0.00209668
0.00213486
0.00210483
0.00204709
0.00208046
0.0020954
0.00212728
0.00208977
0.00208274
0.0020872
0.00206768
0.00206715
0.00206179
0.00207995
0.00201358
0.00199487
0.00194204
0.00194421
0.0018603
0.00182073
0.00165884
0.00136856
0.000645895
0.000678201
0.00139682
0.00166586
0.0017984
0.00183005
0.00189005
0.00191271
0.00195868
0.00199688
0.00201858
0.00205337
0.00206568
0.00208985
0.00209832
0.00209108
0.00204971
0.00208195
0.00210367
0.00212857
0.00207874
0.00207677
0.00207046
0.00205842
0.00204598
0.00202806
0.0020448
0.00199487
0.00194178
0.00192803
0.00191347
0.00180667
0.00179165
0.00164876
0.00137666
0.000649505
0.00069978
0.00139652
0.00164133
0.00174353
0.00178237
0.00187413
0.00189372
0.00191115
0.00197059
0.00197241
0.00200148
0.00204049
0.00205054
0.00204036
0.00207668
0.00206418
0.00206886
0.00208936
0.00206741
0.00203866
0.00204348
0.00202905
0.00205142
0.00202552
0.00201262
0.00200091
0.00196238
0.00191806
0.00189617
0.0018986
0.00177351
0.00174633
0.00162578
0.00137345
0.000673371
0.000711386
0.0013755
0.00159975
0.00168611
0.00175684
0.00185699
0.00188717
0.00189574
0.00191972
0.00194473
0.00195682
0.00199545
0.00200218
0.00200457
0.0020568
0.00205372
0.00204491
0.00206716
0.0020304
0.00199376
0.00202043
0.00197923
0.00202906
0.00201229
0.00199937
0.00196265
0.00194059
0.00189501
0.00186684
0.00187724
0.00176613
0.00169171
0.00159613
0.00134794
0.000694685
0.000706838
0.0013408
0.00156651
0.00166222
0.00173612
0.00181681
0.00184975
0.00188323
0.0018653
0.0019243
0.00191244
0.00193421
0.00195847
0.00198203
0.0020115
0.00200055
0.00200738
0.00203046
0.0020186
0.00195826
0.00199137
0.00195251
0.00198544
0.00197893
0.00194881
0.00192111
0.00192685
0.00185008
0.00183387
0.00183694
0.00176242
0.00166894
0.00155921
0.00131861
0.000698495
0.000706125
0.00130692
0.00153728
0.00164917
0.00168688
0.00176225
0.00178156
0.00183054
0.00182231
0.00186829
0.00186777
0.001874
0.00192246
0.00195055
0.0019488
0.0019359
0.00194925
0.00196333
0.00198314
0.00193698
0.00194045
0.00194133
0.00193305
0.00192108
0.00188131
0.00186906
0.00187491
0.00180354
0.00177922
0.00178163
0.00172929
0.00165591
0.00151841
0.0012867
0.000699929
0.00071802
0.00127978
0.00150063
0.00161244
0.00162611
0.00172665
0.00171124
0.00174871
0.00178131
0.00179424
0.0018276
0.00182611
0.00188461
0.0019085
0.00189759
0.00189816
0.00188463
0.00191401
0.00193528
0.00192219
0.00189483
0.00190085
0.00188652
0.0018686
0.00183954
0.00183261
0.00178729
0.00177025
0.00172496
0.00172736
0.00165511
0.00160049
0.00148703
0.00125109
0.000704392
0.000725386
0.00124731
0.00145879
0.00156624
0.00158143
0.0016979
0.00165459
0.00168513
0.00173224
0.00174828
0.00179343
0.00179638
0.00183394
0.0018664
0.0018665
0.00188233
0.00184275
0.00191822
0.00190346
0.00189486
0.00186437
0.00183537
0.001851
0.00182422
0.00180662
0.00181822
0.0017212
0.00172593
0.0016828
0.00168117
0.00157719
0.00152743
0.00145745
0.00122274
0.000708688
0.000719071
0.00120914
0.00141668
0.00151824
0.00154247
0.0016312
0.00162239
0.00165524
0.00167329
0.00171653
0.00175712
0.00177209
0.00177647
0.00182325
0.00183177
0.00185501
0.00183202
0.00191612
0.00188024
0.00184395
0.0018284
0.00178995
0.0018116
0.0017798
0.00175718
0.00177668
0.00168995
0.00166372
0.0016309
0.00163709
0.00153183
0.00147922
0.00140224
0.0011957
0.000707275
0.000709847
0.00117924
0.00136973
0.00144835
0.0014855
0.00153851
0.00159434
0.00162403
0.00161425
0.00166777
0.00169457
0.00172781
0.00173128
0.00176964
0.00178178
0.0017983
0.00182986
0.00184715
0.00185857
0.00178949
0.00177078
0.00175557
0.00175998
0.00174
0.00170215
0.00169634
0.00166113
0.00160662
0.00157186
0.00158851
0.00150393
0.00144654
0.00132883
0.00115616
0.000697252
0.000700309
0.00115061
0.00131475
0.00137679
0.00141898
0.00147628
0.00152944
0.00155528
0.00156406
0.00160111
0.00161573
0.00166106
0.00169944
0.00171211
0.00173585
0.00173103
0.00180231
0.00176975
0.00181504
0.00174997
0.00170562
0.00170808
0.00170846
0.00169275
0.00165141
0.001623
0.00160573
0.00155686
0.00151716
0.00152353
0.00145212
0.00140101
0.00126945
0.00111178
0.000689606
0.000694782
0.00110876
0.00126113
0.0013269
0.00135399
0.0014372
0.00144067
0.00146629
0.00151596
0.0015346
0.0015578
0.00159198
0.00164781
0.00165665
0.00169281
0.0016806
0.00173053
0.0017361
0.00173572
0.00171111
0.00166102
0.0016632
0.0016603
0.00162914
0.00159039
0.00157099
0.00152582
0.00149654
0.00145358
0.00144487
0.00137369
0.00132937
0.00122544
0.00107461
0.000694683
0.000694055
0.00106811
0.00121177
0.00127756
0.00128757
0.00138025
0.00136605
0.00139726
0.0014555
0.00147624
0.00151478
0.00152488
0.00157122
0.0015934
0.00163062
0.00164481
0.00164136
0.00170577
0.00166313
0.00165019
0.00162562
0.00161068
0.00160244
0.00156464
0.00151534
0.0015156
0.00144784
0.0014298
0.00138622
0.00137543
0.0012997
0.00124416
0.001182
0.00104674
0.000696199
0.000686295
0.0010429
0.00116682
0.00121236
0.00122517
0.00130295
0.00131327
0.0013528
0.00138378
0.00141261
0.001454
0.00146095
0.00150349
0.00152837
0.00156188
0.00160326
0.00157949
0.00164624
0.00161346
0.00157881
0.00156268
0.00153745
0.00153547
0.00150112
0.00145182
0.00144673
0.00138686
0.0013713
0.00132801
0.00131877
0.00124386
0.00117538
0.00113613
0.00101901
0.000685731
0.000670745
0.00102224
0.00111648
0.00114817
0.00117001
0.00122936
0.00125913
0.00130606
0.0013084
0.00133825
0.00136869
0.00140574
0.00144795
0.00147225
0.00150062
0.00154121
0.0015386
0.00157701
0.00156651
0.00152116
0.00148014
0.001469
0.00146702
0.00143009
0.00140285
0.00137508
0.00132607
0.00130346
0.00126894
0.00125283
0.0011901
0.00112608
0.00107828
0.000989533
0.000671444
0.00066575
0.000990439
0.00104899
0.00109281
0.00111441
0.00117245
0.00119505
0.00123787
0.00124141
0.00127071
0.00128609
0.00134545
0.00138891
0.00140872
0.00143092
0.00145995
0.00147775
0.00150942
0.00151438
0.00146484
0.00140929
0.00140588
0.00139337
0.00135876
0.00134047
0.00130477
0.00125882
0.00122025
0.00119879
0.00117795
0.0011253
0.0010759
0.00101475
0.000963257
0.000657473
0.000659514
0.000950808
0.000990182
0.00104124
0.00106055
0.00111869
0.00113264
0.00115915
0.00118223
0.00121702
0.00122962
0.00127348
0.00131933
0.0013303
0.00135901
0.00138026
0.00139737
0.00144034
0.00143882
0.00139031
0.00135604
0.00132983
0.00132241
0.00128693
0.00125991
0.00123669
0.00119507
0.00115178
0.00112456
0.00111456
0.00106115
0.00102108
0.000971034
0.000940704
0.000651463
0.000638504
0.000922801
0.000958131
0.000991488
0.00101114
0.00105356
0.00106855
0.00108888
0.00111728
0.001161
0.00118252
0.00120337
0.00123714
0.00125893
0.00130374
0.00131782
0.0013308
0.00137205
0.00134219
0.00131781
0.00130444
0.00126439
0.00125661
0.00121525
0.00118984
0.00117005
0.00113289
0.00110531
0.00105836
0.00106017
0.00100287
0.000975439
0.000947998
0.000920646
0.000647624
0.000629721
0.000910806
0.000931604
0.000944009
0.000957812
0.000988457
0.000998796
0.00102806
0.00105271
0.00109202
0.00111675
0.00113643
0.00116417
0.00119763
0.00123853
0.00126034
0.00127341
0.00130383
0.00126926
0.00126068
0.00123406
0.00121646
0.00118483
0.00116198
0.00113057
0.00110342
0.0010692
0.00105123
0.00100725
0.00100247
0.000947934
0.000938843
0.000920088
0.000899391
0.000634815
0.000628223
0.000894384
0.00089634
0.000901562
0.000904514
0.0009365
0.00094129
0.00097443
0.0010026
0.00102221
0.0010453
0.00107329
0.00111009
0.00112982
0.00115055
0.00118737
0.00120684
0.00123377
0.00122831
0.00119597
0.00115457
0.00115062
0.00111912
0.00111525
0.00106739
0.00104611
0.00101291
0.000987524
0.000963068
0.000947144
0.000903352
0.000896876
0.000881276
0.000879999
0.000618146
0.000607568
0.000866962
0.000860573
0.000862394
0.000859774
0.000893077
0.000902229
0.000929763
0.000961139
0.00097497
0.000995905
0.00102375
0.00105247
0.00107347
0.00108729
0.00112025
0.00114949
0.00117608
0.00117567
0.00112906
0.00110171
0.00108093
0.00107539
0.00104777
0.00101669
0.00100617
0.000967209
0.00093933
0.000918794
0.000907022
0.000868575
0.000846333
0.000845561
0.000865783
0.000604924
0.000583459
0.000844446
0.000828212
0.000819042
0.000826159
0.00085246
0.000865233
0.000890636
0.000912284
0.000940403
0.000959682
0.000984366
0.000998631
0.00104369
0.00106137
0.00107903
0.00110008
0.00112657
0.00110288
0.00108229
0.00106448
0.00103789
0.00103154
0.000982579
0.000977468
0.000967182
0.000922383
0.000903351
0.000880895
0.000867528
0.000835925
0.000803242
0.000810192
0.000846634
0.00059172
0.000579208
0.000830101
0.000799305
0.000783508
0.000800125
0.000814617
0.000827405
0.0008562
0.000865145
0.00089267
0.000913188
0.000939407
0.000965556
0.000998302
0.00102553
0.00103459
0.00103471
0.001064
0.00104669
0.00103874
0.0010064
0.000994578
0.000970632
0.000947002
0.000928157
0.000909349
0.000876108
0.000865183
0.000841011
0.000818555
0.000801849
0.000778242
0.000783311
0.000815491
0.000579187
0.000572907
0.000806368
0.000776494
0.000764703
0.000772858
0.000778941
0.000797495
0.000823653
0.00083153
0.000849798
0.00086502
0.000889809
0.000928258
0.000925419
0.000960759
0.00097459
0.00097732
0.00100784
0.00100838
0.000977806
0.000948568
0.000933916
0.000919183
0.000916756
0.000881313
0.000857084
0.000842259
0.000831091
0.000797496
0.000780625
0.000765762
0.000760436
0.00077184
0.000787275
0.000564704
0.00054712
0.000778231
0.000758549
0.00074367
0.000740747
0.000749163
0.000768966
0.000783562
0.000797904
0.000827849
0.000837149
0.000851384
0.000871751
0.000877146
0.000901926
0.000921254
0.000948826
0.000978255
0.000958458
0.000922204
0.000917632
0.0008889
0.000887114
0.000864303
0.000846847
0.000828316
0.00081106
0.000794577
0.000766081
0.000751987
0.000729936
0.000733925
0.000750131
0.000772552
0.000549198
0.000524588
0.000762604
0.000742029
0.000716029
0.000711497
0.000727322
0.000731954
0.000744196
0.000758755
0.000793075
0.000808003
0.000818855
0.000827831
0.000859804
0.000868165
0.000883623
0.000916466
0.000942006
0.000900028
0.000894156
0.00088427
0.000868073
0.000850732
0.000816469
0.000809429
0.000799181
0.000770297
0.000749454
0.000745255
0.000721214
0.000704187
0.000707886
0.00072582
0.000758899
0.000531917
0.000514932
0.000754972
0.000726554
0.000695511
0.000692765
0.000704283
0.000704194
0.000719789
0.000730832
0.000744342
0.000760761
0.000778206
0.000805638
0.000831547
0.000842208
0.00085603
0.00086371
0.000878645
0.000857931
0.000870439
0.000836853
0.000839264
0.000809046
0.00079649
0.000769395
0.000757655
0.000737975
0.000721451
0.000717445
0.000701108
0.000692017
0.000692227
0.000717317
0.000737687
0.000515483
0.000501176
0.000731479
0.000708035
0.000679689
0.000679168
0.000678811
0.000694574
0.000704764
0.000717071
0.000719441
0.000727324
0.000750182
0.000777446
0.000781291
0.000801891
0.00081686
0.000818726
0.000827662
0.00083255
0.000822027
0.000797148
0.000784957
0.000777533
0.000777696
0.000743661
0.000729711
0.000719965
0.000711103
0.000689852
0.000691738
0.000679392
0.000672968
0.000699231
0.000711741
0.000498173
0.000482298
0.000701662
0.000682539
0.000655704
0.000659322
0.00065837
0.000679099
0.000683016
0.000696824
0.000712362
0.000717922
0.000736799
0.000736724
0.00074179
0.000760217
0.000770445
0.000796523
0.000807885
0.000809649
0.000777083
0.000776099
0.000741127
0.000752992
0.000740366
0.000734851
0.000717439
0.000698267
0.000691722
0.000673339
0.000668202
0.000655118
0.000648871
0.000670482
0.00068969
0.00048217
0.000470996
0.000686685
0.000667074
0.000639167
0.000638571
0.000643525
0.000647623
0.00066143
0.000668918
0.000690283
0.00070175
0.000713911
0.000710385
0.000730881
0.000740933
0.000749965
0.000778474
0.000791143
0.000777599
0.000761307
0.000761708
0.000736256
0.000726115
0.000708634
0.000715484
0.00069581
0.000672841
0.000663388
0.000659709
0.000637514
0.000634935
0.000637917
0.000661032
0.000676909
0.000465193
0.000462152
0.000677402
0.000664374
0.000638841
0.000625789
0.000625239
0.000627103
0.000645159
0.000650538
0.000655361
0.000673117
0.000686065
0.000704052
0.000726505
0.000732439
0.000744645
0.000736119
0.000748777
0.000737617
0.000747378
0.000725586
0.000732296
0.000700612
0.000690283
0.000676353
0.000662069
0.000652734
0.000644343
0.000635324
0.000619324
0.000624841
0.000630501
0.000655038
0.000662848
0.000449368
0.000437531
0.000656295
0.000653355
0.000625324
0.000612334
0.000605507
0.000620655
0.000627773
0.000637499
0.000633408
0.000647514
0.000659887
0.000683263
0.000696977
0.000707041
0.000714629
0.000691249
0.000704938
0.000704172
0.000709434
0.000682077
0.000691738
0.000680805
0.000675317
0.000647826
0.000642518
0.000641979
0.000635435
0.000611986
0.000611928
0.000610308
0.000612849
0.000633497
0.00063845
0.000430253
0.00040527
0.000626345
0.000626199
0.000597349
0.000593824
0.000592837
0.000603784
0.000607474
0.000619418
0.000632203
0.000636302
0.00064331
0.000647348
0.000652428
0.000665395
0.00067128
0.000681601
0.000691486
0.00068697
0.000671726
0.000670226
0.000653413
0.000661773
0.000657278
0.000641515
0.000636897
0.000627254
0.000619314
0.000601378
0.000601594
0.000591443
0.000596349
0.000614281
0.000612959
0.000414786
0.000397466
0.000606248
0.000606019
0.000586656
0.000583195
0.000586293
0.000581064
0.000592174
0.000598914
0.000626706
0.000631289
0.000638569
0.000632369
0.000628541
0.000637381
0.000646904
0.000688719
0.000691135
0.000677307
0.000656932
0.000674525
0.000642031
0.000641716
0.000635623
0.000632391
0.000624324
0.000601804
0.00059092
0.000592423
0.000576977
0.000577199
0.000587112
0.000601489
0.000593872
0.000396581
0.000397464
0.000593329
0.000601645
0.000584283
0.000574631
0.000572727
0.000568961
0.000582839
0.000583183
0.000597939
0.000609375
0.000622936
0.000629875
0.000633487
0.000636753
0.000646275
0.000662718
0.000668308
0.000662599
0.000656173
0.000651195
0.000641117
0.000626684
0.000613693
0.000610671
0.00060168
0.000584099
0.000574406
0.000573987
0.000554935
0.000566301
0.000572118
0.000587353
0.000577123
0.000376045
0.000365947
0.000580013
0.000600447
0.000564807
0.000557785
0.000553502
0.000566153
0.000572509
0.000576
0.00056991
0.000580522
0.000594828
0.000612288
0.000636217
0.000639378
0.000645162
0.000618535
0.000628008
0.000638867
0.000643793
0.000612519
0.000629882
0.000613609
0.000600233
0.00058737
0.000582909
0.000580112
0.000573392
0.000555946
0.000551867
0.000555929
0.000552742
0.000575666
0.000566051
0.000374496
0.000343943
0.000564814
0.000581071
0.000545649
0.000543079
0.00054297
0.000558023
0.000555714
0.000568282
0.00056163
0.000571272
0.000579641
0.000592545
0.000610411
0.000613124
0.000618964
0.000597475
0.000604586
0.000611548
0.00061386
0.000594435
0.00060436
0.000595873
0.000591703
0.000575046
0.00056977
0.000570101
0.000566481
0.000548133
0.000551541
0.000542983
0.000542011
0.00056426
0.000553415
0.000366863
0.000357101
0.000553065
0.000556101
0.000539436
0.000535292
0.000538712
0.000543555
0.000541623
0.000553525
0.000561723
0.000571014
0.000578626
0.000581822
0.000578356
0.000579903
0.000586712
0.000604226
0.000606585
0.000595212
0.000589378
0.00059808
0.000579091
0.000577994
0.000582062
0.000571776
0.000560793
0.000552685
0.000549835
0.000544734
0.000536311
0.000526838
0.000535069
0.000550379
0.000539343
0.000337452
0.000352678
0.000543155
0.000550097
0.000535516
0.000528423
0.000531844
0.000529496
0.00053761
0.000541965
0.000557171
0.000562176
0.00057218
0.00056996
0.000568571
0.000570739
0.000577405
0.000607705
0.000608715
0.000591806
0.000583175
0.000598977
0.00057038
0.00056882
0.000572697
0.000568008
0.000554602
0.000543066
0.000537288
0.000536543
0.000517085
0.000519075
0.000524144
0.00054182
0.000530149
0.000326948
0.000317793
0.000536712
0.00055757
0.000524042
0.000519632
0.000520266
0.000521808
0.000536018
0.000539134
0.000549805
0.000549374
0.000557906
0.000558792
0.000574198
0.000576476
0.000580085
0.0005865
0.000589714
0.000586639
0.000580552
0.000578256
0.00056851
0.000565601
0.000558142
0.000554807
0.000547526
0.000536466
0.000529711
0.000522745
0.000507517
0.000517356
0.000515255
0.000538467
0.000528988
0.000347733
0.000319251
0.000534886
0.000549032
0.000511771
0.000510111
0.000512859
0.000518474
0.000528084
0.000534107
0.000537987
0.000541009
0.000547351
0.000554589
0.000569637
0.000570964
0.000573075
0.000559327
0.000561825
0.000572675
0.000570198
0.000553962
0.000562497
0.000558617
0.000544891
0.000537312
0.000536917
0.000528602
0.000523945
0.000511977
0.000508437
0.000510356
0.000507927
0.000535064
0.000525513
0.00034083
0.000344649
0.000535339
0.000528359
0.00050674
0.000505747
0.00051008
0.000515712
0.000519943
0.000525313
0.000526237
0.000536345
0.000541119
0.000552637
0.000554862
0.000557959
0.000561984
0.000549439
0.000551421
0.000561244
0.000560849
0.000546228
0.000554015
0.00054858
0.000540241
0.000531085
0.000529259
0.000522818
0.000522197
0.000510533
0.000511934
0.000500565
0.000502572
0.000532022
0.000522404
0.000301895
0.000323008
0.00053222
0.000529711
0.000503746
0.000501404
0.000508919
0.000514806
0.000516422
0.000520939
0.000523855
0.000534805
0.00053925
0.000548282
0.000546997
0.000549804
0.000555024
0.000556227
0.00055724
0.000558884
0.000557921
0.00055167
0.00055072
0.000542898
0.000541726
0.000532156
0.00052564
0.000522184
0.000521093
0.000510893
0.000507326
0.000496607
0.000498545
0.000528843
0.000522978
0.000301423
0.000302659
0.000533819
0.000547448
0.00050351
0.000501082
0.000509835
0.000512545
0.000515349
0.00052127
0.000526754
0.000534102
0.000540271
0.000541398
0.000546872
0.000548387
0.00055326
0.000561
0.000562984
0.000557405
0.000556707
0.000557501
0.000548803
0.000540873
0.000544529
0.000534441
0.000525174
0.000520565
0.00051973
0.000510824
0.000502326
0.000500397
0.000502794
0.000529053
0.000522599
0.000342451
0.000325775
0.000535158
0.000546507
0.00051126
0.000502517
0.000510473
0.000512407
0.000516564
0.000522479
0.000530533
0.000535103
0.000540859
0.000540137
0.000547609
0.000549688
0.000552873
0.000559956
0.000560832
0.000556196
0.00055475
0.000554561
0.000548338
0.00054065
0.000543443
0.000535028
0.000527055
0.00051999
0.000519064
0.00051072
0.000501655
0.000503482
0.000512341
0.000530917
0.000520492
0.000350273
0.00034358
0.000531632
0.000534276
0.000511818
0.000504395
0.000510429
0.000512593
0.000519317
0.000523156
0.000533095
0.000537778
0.000541777
0.000543783
0.000552671
0.000554127
0.000554809
0.000559745
0.000559437
0.000557849
0.000557163
0.000554343
0.000550846
0.000543515
0.000545377
0.000536751
0.000527992
0.000522795
0.000520466
0.00051096
0.000502183
0.00050435
0.000511667
0.000535535
0.000516659
0.00029808
0.000311667
0.000527771
0.000534591
0.00050358
0.000507282
0.000514057
0.000516845
0.000522147
0.000527991
0.000535386
0.000541716
0.000545521
0.000551346
0.000557952
0.000558186
0.000558137
0.00056046
0.000560425
0.000559708
0.00056097
0.000556878
0.000553774
0.000547479
0.00054968
0.000538379
0.000531158
0.000527451
0.000525902
0.000515809
0.000507412
0.000505128
0.000501823
0.000538808
0.000518155
0.00027938
0.0002873
0.000527281
0.000546159
0.000500384
0.000511011
0.000518857
0.000522515
0.000527779
0.000533905
0.000540229
0.00054599
0.00055166
0.000558428
0.000560836
0.000561909
0.000561113
0.000564745
0.000563936
0.00056434
0.000565501
0.00055988
0.00055828
0.000552476
0.000551753
0.0005431
0.000536467
0.000532864
0.00053086
0.000520525
0.000512117
0.000508645
0.000499957
0.000544215
0.000519741
0.000314473
0.000305454
0.000529311