/*--------------------------------*- C++ -*----------------------------------*\
  =========                 |
  \\      /  F ield         | OpenFOAM: The Open Source CFD Toolbox
   \\    /   O peration     | Website:  https://openfoam.org
    \\  /    A nd           | Version:  8
     \\/     M anipulation  |
\*---------------------------------------------------------------------------*/
FoamFile
{
    version     2.0;
    format      ascii;
    class       volScalarField;
    location    "100";
    object      k;
}
// * * * * * * * * * * * * * * * * * * * * * * * * * * * * * * * * * * * * * //

dimensions      [0 2 -2 0 0 0 0];

internalField   nonuniform List<scalar> 
78750
(
0.0887367
0.119178
0.12288
0.115205
0.116225
0.137884
0.136413
0.130121
0.131068
0.13063
0.120823
0.124858
0.123357
0.127773
0.113791
0.111708
0.119616
0.120164
0.124286
0.121398
0.11477
0.116869
0.122602
0.123246
0.131985
0.128142
0.12743
0.128781
0.137142
0.129993
0.116362
0.115022
0.122592
0.113904
0.0921449
0.0964804
0.129957
0.131817
0.124132
0.124163
0.138016
0.136567
0.132988
0.133183
0.13272
0.124641
0.127414
0.125485
0.128584
0.121616
0.119639
0.121698
0.124121
0.125983
0.123681
0.121349
0.12312
0.125002
0.127321
0.132182
0.130645
0.130482
0.133303
0.136382
0.137514
0.12648
0.124412
0.131431
0.127113
0.100124
0.0957531
0.126236
0.132021
0.126913
0.131912
0.142412
0.139666
0.136218
0.134676
0.132597
0.129116
0.129929
0.127824
0.126788
0.121079
0.120103
0.124565
0.124807
0.126117
0.122737
0.121261
0.123389
0.127352
0.129635
0.133306
0.13302
0.133547
0.136229
0.139445
0.140075
0.129687
0.127016
0.133236
0.126498
0.0980727
0.0947415
0.126072
0.138264
0.131203
0.131554
0.143763
0.141922
0.139058
0.137374
0.134295
0.13052
0.133232
0.132982
0.129794
0.12557
0.126233
0.127784
0.129032
0.129976
0.127839
0.126948
0.127081
0.131209
0.131653
0.13633
0.135342
0.136415
0.139717
0.141956
0.143207
0.13348
0.132083
0.13476
0.122668
0.0954583
0.0934052
0.127643
0.146589
0.139985
0.13989
0.148669
0.146074
0.142679
0.141329
0.139635
0.133284
0.138403
0.136556
0.134101
0.131081
0.131042
0.13106
0.134453
0.134747
0.131974
0.131348
0.132362
0.133808
0.135662
0.140614
0.139376
0.140715
0.143759
0.146547
0.149784
0.142142
0.138295
0.144527
0.12393
0.0938618
0.0904429
0.130299
0.145136
0.141566
0.141244
0.155157
0.152298
0.148815
0.1485
0.146069
0.137926
0.143714
0.141927
0.140325
0.137246
0.137441
0.135206
0.139286
0.139794
0.137525
0.137162
0.138927
0.138441
0.139729
0.147232
0.148473
0.149156
0.151069
0.153149
0.15483
0.143717
0.140768
0.145187
0.126512
0.0898588
0.08602
0.130367
0.145094
0.141974
0.142696
0.155901
0.153507
0.151429
0.15096
0.147506
0.141712
0.146903
0.144787
0.14337
0.142098
0.14346
0.140436
0.143046
0.144412
0.142257
0.141975
0.143731
0.141894
0.142546
0.151586
0.151118
0.150691
0.155175
0.15476
0.156654
0.143779
0.141602
0.14554
0.127328
0.0861041
0.0829134
0.127732
0.142645
0.141117
0.142636
0.154415
0.153365
0.152205
0.150878
0.148699
0.142524
0.147991
0.145843
0.145765
0.144157
0.147424
0.143227
0.146965
0.14857
0.145113
0.144888
0.146299
0.143183
0.14302
0.15167
0.152278
0.150988
0.154172
0.154719
0.155394
0.143476
0.141223
0.142605
0.125241
0.08268
0.079547
0.123837
0.140364
0.139845
0.143593
0.152483
0.153102
0.15204
0.151096
0.149863
0.144662
0.148802
0.147912
0.145975
0.145516
0.147893
0.145386
0.146691
0.1488
0.146256
0.14672
0.146802
0.145074
0.145399
0.151835
0.152347
0.151667
0.154006
0.153881
0.153088
0.144678
0.140447
0.141051
0.122772
0.0793945
0.0773292
0.120658
0.137499
0.138121
0.142924
0.150437
0.152131
0.15192
0.151026
0.15188
0.145894
0.150823
0.148859
0.148436
0.146266
0.152677
0.14665
0.14809
0.150359
0.148384
0.147698
0.149178
0.146033
0.146408
0.153834
0.152732
0.151635
0.153995
0.152947
0.151016
0.143983
0.138904
0.138046
0.120201
0.0765438
0.0760634
0.118482
0.134552
0.136844
0.142407
0.149136
0.151353
0.151447
0.150527
0.151815
0.147803
0.150171
0.150351
0.148537
0.14824
0.151569
0.148803
0.149258
0.150253
0.148429
0.149124
0.149056
0.147519
0.148058
0.152909
0.152575
0.151224
0.153526
0.152077
0.149675
0.143331
0.137629
0.13517
0.11773
0.0756694
0.0751787
0.117795
0.132294
0.135548
0.140539
0.146755
0.149056
0.149431
0.148596
0.150429
0.147146
0.148882
0.149273
0.148041
0.147712
0.150455
0.148771
0.1485
0.149632
0.148029
0.148274
0.148301
0.146742
0.146878
0.151155
0.150832
0.149279
0.151422
0.149717
0.147463
0.141523
0.136319
0.132736
0.117027
0.0745729
0.0744185
0.11643
0.129294
0.133502
0.13822
0.143851
0.146148
0.146345
0.145643
0.147681
0.144973
0.146589
0.147035
0.146252
0.146099
0.148464
0.147617
0.147124
0.147833
0.146304
0.146295
0.146368
0.144874
0.14463
0.148216
0.147708
0.14642
0.148246
0.146553
0.144525
0.139112
0.134234
0.129676
0.11563
0.0739051
0.0736315
0.114345
0.126584
0.131669
0.135918
0.140974
0.143199
0.143328
0.142835
0.144753
0.142602
0.144062
0.144344
0.143878
0.143707
0.14561
0.145199
0.144803
0.145141
0.143625
0.143621
0.143894
0.142584
0.142109
0.145205
0.144587
0.143596
0.145115
0.143521
0.14165
0.136813
0.132373
0.126746
0.113876
0.07302
0.0724585
0.112303
0.123921
0.129545
0.133473
0.137902
0.140061
0.140088
0.139859
0.141682
0.140057
0.141504
0.141578
0.141398
0.141265
0.142765
0.142469
0.142205
0.142169
0.140724
0.140864
0.14131
0.140118
0.139631
0.142159
0.141395
0.140656
0.141772
0.140293
0.138493
0.134262
0.130265
0.123948
0.112063
0.0718442
0.0709975
0.109872
0.121125
0.127055
0.130682
0.134482
0.13658
0.136578
0.136578
0.138345
0.13722
0.138666
0.138604
0.138693
0.138597
0.139726
0.139343
0.139236
0.138905
0.137515
0.137955
0.138471
0.137287
0.13691
0.138955
0.13803
0.137428
0.138165
0.136771
0.135015
0.131366
0.127799
0.120993
0.109795
0.0702637
0.0692656
0.106905
0.118086
0.124148
0.127401
0.130675
0.132694
0.132691
0.13294
0.134665
0.134003
0.135457
0.135367
0.135623
0.135583
0.136446
0.135833
0.135903
0.135324
0.134012
0.134823
0.135307
0.134163
0.133874
0.135483
0.134398
0.133778
0.134214
0.132869
0.131167
0.128036
0.12489
0.117849
0.106982
0.0684291
0.0672645
0.103635
0.114722
0.120795
0.123637
0.126454
0.128383
0.128399
0.128867
0.130575
0.130272
0.131821
0.131765
0.132136
0.132251
0.132782
0.131957
0.132213
0.131444
0.130212
0.131424
0.1317
0.130649
0.130451
0.13161
0.130401
0.129659
0.129852
0.128553
0.126957
0.12425
0.121494
0.114457
0.103658
0.0663093
0.0649959
0.100119
0.111002
0.117022
0.119435
0.121879
0.123637
0.123651
0.124377
0.126045
0.126044
0.127704
0.127677
0.128236
0.128557
0.128664
0.127736
0.128175
0.127264
0.126111
0.12768
0.127635
0.126705
0.126586
0.127287
0.126016
0.125122
0.12509
0.123837
0.122429
0.120023
0.117667
0.110783
0.0999223
0.0639347
0.0625219
0.0963013
0.106947
0.112844
0.114861
0.117037
0.118522
0.118548
0.119501
0.121165
0.121428
0.123098
0.123197
0.123929
0.124431
0.124123
0.123194
0.123802
0.122783
0.121705
0.123509
0.12318
0.122348
0.122205
0.12254
0.121256
0.12025
0.120019
0.118792
0.117648
0.115404
0.113431
0.106813
0.095877
0.0613237
0.0598917
0.0921825
0.102618
0.108315
0.110003
0.111996
0.11318
0.113236
0.114311
0.115974
0.116445
0.118092
0.118348
0.11923
0.11988
0.119191
0.118352
0.119103
0.118024
0.117014
0.118932
0.118335
0.117631
0.117364
0.117422
0.116168
0.115078
0.114688
0.11352
0.112651
0.110515
0.108833
0.102603
0.0916101
0.0585729
0.0571929
0.0878276
0.0981026
0.103535
0.104941
0.106816
0.107703
0.107817
0.10891
0.110547
0.111149
0.112764
0.113188
0.114178
0.114938
0.113938
0.113254
0.114111
0.113041
0.112082
0.113991
0.113156
0.112613
0.112196
0.112053
0.110837
0.109691
0.109196
0.10809
0.107486
0.105429
0.103978
0.0981967
0.0871004
0.0557715
0.0544987
0.0832842
0.0934826
0.0986076
0.0997909
0.101592
0.102184
0.102356
0.103409
0.104977
0.105654
0.107206
0.107783
0.108853
0.109692
0.108474
0.107964
0.108905
0.107901
0.10696
0.10876
0.107744
0.107371
0.106791
0.106509
0.105367
0.104201
0.103616
0.102587
0.102247
0.100261
0.098984
0.0936837
0.0824247
0.0530079
0.0518499
0.0786335
0.0888466
0.0936357
0.0946477
0.0963795
0.096726
0.0969333
0.0978989
0.09936
0.100086
0.10153
0.102231
0.103357
0.104229
0.102909
0.102571
0.103578
0.102675
0.101717
0.103329
0.102204
0.102005
0.101264
0.100882
0.0998599
0.0987029
0.0980273
0.0970913
0.0970172
0.0951093
0.0939532
0.0891124
0.0776767
0.0503448
0.0492849
0.0739863
0.0842681
0.0886997
0.0895951
0.0912522
0.0913887
0.0916147
0.0924608
0.0937882
0.0945474
0.0958462
0.0966332
0.0977918
0.0986539
0.0973477
0.097156
0.0982164
0.0974345
0.0964261
0.0978047
0.0966403
0.0965901
0.0957244
0.0952721
0.0944038
0.0932763
0.0925125
0.0916878
0.0918821
0.0900612
0.0889704
0.0845557
0.0729747
0.0477995
0.0468194
0.0694388
0.079796
0.0838695
0.0846787
0.086253
0.0862229
0.0864452
0.0871587
0.0883289
0.0891064
0.0902454
0.0910919
0.0922528
0.0930663
0.0918763
0.0917841
0.09289
0.0922365
0.0911625
0.0922805
0.0911136
0.0911965
0.0902608
0.0897614
0.089061
0.0879704
0.087145
0.0864513
0.0868727
0.0851538
0.0840915
0.0800525
0.0684227
0.0454075
0.0444813
0.0650628
0.0754471
0.0791812
0.0799241
0.0814278
0.0812517
0.081452
0.0820377
0.0830407
0.0838154
0.0847956
0.0856788
0.0868111
0.0875671
0.0865459
0.0865149
0.0876598
0.0871265
0.0859837
0.0868386
0.0857171
0.0859147
0.08494
0.0844189
0.0838776
0.0828378
0.0819735
0.0814177
0.0820275
0.0804179
0.0793424
0.0756295
0.0640667
0.0431554
0.0422735
0.0608442
0.0712155
0.0746356
0.0753257
0.0767726
0.076492
0.0766486
0.0771232
0.0779626
0.0787146
0.0795443
0.0804488
0.0815315
0.0822322
0.0814073
0.0814158
0.0825749
0.0821496
0.0809478
0.0815417
0.0805044
0.080799
0.0798086
0.0792921
0.0788891
0.0779007
0.0770312
0.0765984
0.0773465
0.075843
0.0747269
0.0712824
0.0598768
0.0410803
0.0401911
0.0568257
0.067081
0.0702283
0.0708829
0.0722818
0.0719298
0.0720381
0.0724205
0.0731174
0.073841
0.074526
0.0754389
0.0764593
0.0771113
0.0764819
0.0765206
0.0776743
0.0773443
0.0761031
0.0764454
0.0755172
0.075885
0.0748994
0.0743991
0.0741117
0.0731652
0.07231
0.0719851
0.0728282
0.0714236
0.0702447
0.0670107
0.0558403
0.0391304
0.0382406
0.0530185
0.0630508
0.0659579
0.066578
0.0679301
0.0675419
0.0676149
0.0679182
0.0684973
0.0691992
0.0697543
0.0706729
0.0716248
0.0722272
0.0717824
0.0718519
0.072989
0.0727398
0.071476
0.0715851
0.0707729
0.0711856
0.0702229
0.0697454
0.0695423
0.0686284
0.0678027
0.0675626
0.0684533
0.0671329
0.0658916
0.062825
0.0520255
0.0373204
0.0364057
0.0494474
0.0591366
0.0618176
0.0623989
0.0637092
0.0633084
0.0633605
0.0636114
0.0640935
0.0647788
0.065235
0.0661508
0.0670319
0.0675943
0.0673172
0.0674176
0.068528
0.0683444
0.0670836
0.0669766
0.0662829
0.0667092
0.0657725
0.0653115
0.0651738
0.0642798
0.0634889
0.0633143
0.0642135
0.0629593
0.0616646
0.0587466
0.0484451
0.035611
0.0347184
0.046076
0.0553256
0.0577968
0.0583379
0.0596131
0.0592248
0.0592632
0.0594855
0.0598891
0.0605661
0.0609484
0.0618646
0.0626754
0.0632109
0.0630879
0.0632154
0.0642891
0.0641509
0.0629115
0.0626202
0.0620287
0.0624462
0.0615395
0.0610892
0.0609907
0.0601096
0.0593645
0.0592282
0.0600989
0.0588881
0.0575591
0.0547803
0.045093
0.0340323
0.0331291
0.0429118
0.0516146
0.0538871
0.0543979
0.0556428
0.0552843
0.0553117
0.0555338
0.0558808
0.0565454
0.0568874
0.0577975
0.0585393
0.0590653
0.0590803
0.0592309
0.0602666
0.0601516
0.0589496
0.0585057
0.0579945
0.05839
0.057514
0.057064
0.0569881
0.0561086
0.0554092
0.0552984
0.0561142
0.0549309
0.053575
0.050941
0.0419527
0.0325394
0.0316671
0.0399712
0.0480254
0.050106
0.0505917
0.0517966
0.0514896
0.0515133
0.0517429
0.052059
0.052709
0.0530309
0.0539355
0.0546144
0.0551417
0.0552773
0.0554525
0.0564498
0.0563381
0.0551831
0.0546203
0.0541652
0.0545296
0.0536786
0.0532255
0.0531552
0.0522805
0.0516193
0.0515163
0.0522577
0.0510971
0.049728
0.0472362
0.0390455
0.031158
0.0302784
0.0372602
0.0445707
0.0464597
0.0469213
0.0480775
0.0478382
0.0478688
0.0481168
0.0484201
0.0490463
0.0493711
0.0502637
0.0508876
0.0514239
0.051662
0.0518621
0.0528211
0.0527022
0.0516015
0.0509505
0.0505344
0.0508515
0.0500287
0.0495644
0.0494884
0.0486209
0.0479885
0.0478834
0.0485364
0.047399
0.0460379
0.0437152
0.0363675
0.0298488
0.0290122
0.0347726
0.0412818
0.0429683
0.0434107
0.0445079
0.0443381
0.0443861
0.0446534
0.0449584
0.0455573
0.0458913
0.0467786
0.0473552
0.0479002
0.0482219
0.0484464
0.0493683
0.0492379
0.0481938
0.0474812
0.047088
0.0473472
0.0465529
0.0460793
0.0459836
0.0451309
0.0445247
0.0444008
0.044957
0.0438488
0.042526
0.04039
0.0339259
0.0286385
0.0278062
0.0324942
0.0381542
0.0396489
0.0400665
0.0411067
0.0409928
0.0410652
0.0413641
0.0416758
0.0422405
0.0425939
0.0434707
0.0440098
0.0445635
0.0449495
0.0451943
0.0460885
0.0459371
0.0449531
0.044206
0.0438193
0.0440124
0.0432487
0.0427707
0.0426479
0.0418099
0.0412306
0.0410857
0.0415364
0.0404626
0.0391928
0.0372767
0.0317006
0.0274912
0.0267005
0.030412
0.0352311
0.0365231
0.0369133
0.0378831
0.0378247
0.0379207
0.0382453
0.0385707
0.0391051
0.0394723
0.0403321
0.0408466
0.0414068
0.0418385
0.0421011
0.0429754
0.0427961
0.0418724
0.0411139
0.0407229
0.0408479
0.0401126
0.0396352
0.0394863
0.0386659
0.0381146
0.0379397
0.0382869
0.0372553
0.0360578
0.0343771
0.0296815
0.0264301
0.0256356
0.0285292
0.0325059
0.0335968
0.0339541
0.0348498
0.0348423
0.0349641
0.0353069
0.0356461
0.0361508
0.0365348
0.0373638
0.0378598
0.0384261
0.0388888
0.0391664
0.040023
0.0398133
0.038948
0.0381993
0.0377952
0.0378563
0.0371487
0.0366757
0.036501
0.035705
0.0351776
0.0349811
0.0352283
0.0342449
0.033126
0.0316989
0.0278625
0.0254085
0.0246492
0.0268211
0.029997
0.0308825
0.0312093
0.0320127
0.0320599
0.0322025
0.0325514
0.0329023
0.0333767
0.0337758
0.0345675
0.0350498
0.0356155
0.0360948
0.0363918
0.0372245
0.0369909
0.0361816
0.0354483
0.0350333
0.0350361
0.034356
0.0338942
0.0336948
0.0329343
0.0324321
0.0322086
0.0323684
0.0314456
0.0304241
0.0292532
0.0262233
0.0244578
0.0236944
0.0252827
0.0276964
0.0283844
0.0286755
0.0293876
0.0294736
0.0296375
0.0299884
0.0303438
0.030787
0.0311994
0.0319483
0.0324148
0.0329752
0.0334591
0.0337775
0.0345825
0.0343246
0.0335729
0.0328666
0.0324391
0.0323903
0.0317396
0.0312933
0.031072
0.0303521
0.0298744
0.029639
0.0297169
0.0288642
0.0279481
0.0270251
0.024751
0.0235399
0.022802
0.0238821
0.0256001
0.02611
0.0263609
0.0269748
0.0270918
0.0272666
0.0276188
0.0279735
0.0283822
0.0287981
0.0295008
0.0299549
0.030505
0.03098
0.0313202
0.0320923
0.0318142
0.0311203
0.030446
0.0300118
0.0299161
0.0292988
0.0288719
0.0286371
0.0279667
0.0275157
0.027265
0.0272744
0.0264998
0.0257005
0.0250153
0.0234203
0.0226784
0.0219312
0.0226175
0.0237136
0.0240485
0.0242526
0.0247783
0.0249131
0.025094
0.0254425
0.0257914
0.026169
0.026575
0.0272276
0.0276685
0.0282018
0.0286623
0.0290175
0.0297549
0.0294566
0.0288212
0.0281931
0.0277503
0.0276161
0.0270394
0.0266301
0.0263861
0.0257691
0.0253454
0.0250937
0.0250453
0.0243496
0.0236693
0.0231969
0.0222167
0.0218436
0.0211085
0.02147
0.0220138
0.0221931
0.0223525
0.0227857
0.0229342
0.0231149
0.0234493
0.023784
0.0241337
0.0245284
0.0251266
0.0255532
0.0260695
0.0265058
0.0268691
0.0275676
0.0272586
0.0266778
0.026092
0.0256518
0.0254889
0.0249538
0.0245678
0.0243202
0.0237614
0.023371
0.0231184
0.0230241
0.0224087
0.0218512
0.0215737
0.0211218
0.0210457
0.0203102
0.0204129
0.0204949
0.0205353
0.0206424
0.020997
0.0211507
0.0213267
0.0216421
0.0219555
0.0222768
0.0226516
0.023197
0.0236068
0.0240959
0.0245092
0.0248739
0.0255292
0.0252152
0.0246901
0.0241518
0.023716
0.0235343
0.0230443
0.0226799
0.0224309
0.021929
0.0215708
0.0213311
0.0212027
0.0206651
0.0202349
0.0201194
0.0200949
0.0202658
0.0195462
0.0194426
0.0191426
0.0190505
0.0191212
0.0193944
0.0195483
0.019715
0.0200055
0.0202936
0.0205859
0.0209461
0.0214379
0.0218244
0.0222866
0.0226706
0.0230317
0.0236416
0.0233309
0.0228543
0.0223566
0.0219399
0.0217469
0.0213002
0.0209614
0.02072
0.0202738
0.0199495
0.0197273
0.0195739
0.0191158
0.018798
0.0188142
0.0191644
0.0195237
0.0188088
0.0185558
0.0179399
0.0177281
0.0177677
0.0179689
0.0181228
0.0182715
0.0185386
0.0187987
0.0190651
0.0193973
0.0198386
0.0202035
0.0206309
0.0209872
0.0213371
0.0218995
0.0215975
0.0211705
0.0207204
0.0203183
0.0201226
0.0197189
0.0194085
0.0191708
0.0187785
0.018489
0.0182851
0.0181217
0.0177419
0.0175174
0.0176505
0.018294
0.0187961
0.0181022
0.017727
0.0168757
0.0165533
0.0165687
0.016704
0.0168483
0.0169812
0.01722
0.0174538
0.0176902
0.0180037
0.0183964
0.0187339
0.0191292
0.0194548
0.0197899
0.0203036
0.0200122
0.0196317
0.019222
0.0188454
0.018651
0.0182919
0.0180069
0.0177818
0.0174414
0.017182
0.0170048
0.0168341
0.0165313
0.0163829
0.0166193
0.017495
0.0180976
0.0174166
0.0169736
0.0159294
0.0155142
0.0155065
0.0155835
0.0157212
0.0158292
0.016047
0.0162505
0.0164661
0.0167472
0.0170963
0.0174074
0.0177665
0.0180634
0.0183793
0.0188425
0.0185696
0.0182356
0.0178665
0.0175136
0.0173266
0.017008
0.0167501
0.016532
0.0162403
0.0160141
0.0158564
0.0156884
0.0154602
0.0153722
0.0156994
0.0167425
0.0174161
0.0167532
0.0162515
0.0150913
0.0146038
0.0145637
0.0145967
0.0147149
0.0148071
0.0149988
0.0151753
0.0153625
0.0156226
0.0159289
0.0162117
0.0165344
0.0168071
0.0171016
0.0175148
0.0172592
0.0169662
0.0166357
0.0163113
0.0161349
0.0158581
0.0156211
0.0154212
0.0151737
0.0149672
0.0148426
0.0146796
0.0145163
0.0144767
0.0148827
0.0160431
0.0167512
0.0161141
0.0155976
0.0143404
0.0137903
0.013729
0.0137183
0.0138265
0.0138895
0.0140662
0.0142167
0.0143884
0.0146172
0.0148857
0.0151417
0.0154276
0.015675
0.0159477
0.0163115
0.0160807
0.0158237
0.0155301
0.0152344
0.0150715
0.0148244
0.0146153
0.0144263
0.0142146
0.0140396
0.0139307
0.0137796
0.0136808
0.0136748
0.0141446
0.0153776
0.016105
0.015495
0.0149572
0.0136663
0.013078
0.0129871
0.0129447
0.0130317
0.0130824
0.0132367
0.0133598
0.0135093
0.0137177
0.01395
0.0141826
0.0144315
0.0146566
0.0149063
0.0152253
0.0150149
0.0147927
0.0145326
0.0142643
0.014115
0.0139037
0.0137154
0.0135451
0.0133673
0.013207
0.0131299
0.0129897
0.0129397
0.0129671
0.013484
0.0147534
0.0154857
0.0149095
0.0143733
0.0130561
0.012434
0.0123262
0.0122513
0.0123267
0.0123519
0.0124932
0.0125974
0.0127337
0.0129172
0.0131208
0.0133254
0.0135427
0.0137474
0.0139701
0.0142437
0.0140629
0.0138695
0.0136381
0.0133995
0.0132658
0.0130789
0.0129127
0.0127534
0.0126042
0.0124686
0.0124014
0.0122797
0.0122751
0.0123303
0.0128758
0.0141556
0.014877
0.0143264
0.013801
0.012501
0.0118642
0.0117332
0.0116348
0.0116932
0.0117101
0.0118315
0.0119135
0.0120355
0.0121979
0.012374
0.0125578
0.012745
0.0129292
0.0131269
0.0133653
0.0132041
0.0130369
0.0128354
0.0126215
0.0125034
0.0123437
0.0121954
0.0120536
0.011929
0.0118062
0.0117596
0.0116503
0.011683
0.0117627
0.0123255
0.01358
0.0142921
0.0137778
0.0132557
0.0119834
0.0113421
0.0111946
0.0110749
0.0111225
0.0111229
0.0112339
0.0113022
0.0114122
0.0115571
0.0117102
0.0118701
0.0120291
0.0122004
0.0123719
0.0125732
0.0124403
0.0122917
0.0121153
0.0119288
0.0118226
0.0116792
0.011552
0.0114185
0.0113178
0.0112085
0.0111725
0.0110803
0.0111418
0.0112422
0.0118049
0.0130326
0.0137286
0.0132328
0.0127404
0.0115107
0.0108701
0.0107088
0.010573
0.0106052
0.0105991
0.0106936
0.0107486
0.0108516
0.010976
0.0111137
0.0112546
0.0113883
0.0115395
0.0116926
0.0118661
0.0117475
0.0116189
0.0114691
0.0113028
0.0112105
0.0110872
0.0109704
0.0108568
0.0107707
0.0106704
0.0106462
0.0105629
0.0106518
0.010771
0.0113267
0.0125023
0.0131673
0.0127029
0.0122211
0.011052
0.0104307
0.0102547
0.010109
0.0101325
0.0101185
0.0102048
0.0102477
0.0103449
0.0104551
0.0105738
0.0106963
0.0108078
0.0109506
0.0110778
0.0112255
0.0111294
0.0110173
0.0108855
0.0107426
0.0106599
0.0105433
0.0104496
0.0103387
0.0102693
0.010181
0.0101628
0.0100942
0.0102015
0.0103283
0.0108647
0.0119842
0.0126406
0.0121916
0.0117432
0.0106288
0.0100212
0.00984224
0.00968763
0.00970268
0.00968216
0.00975514
0.00979176
0.0098798
0.00998024
0.0100899
0.010193
0.0102881
0.0104147
0.010529
0.010648
0.0105677
0.0104696
0.0103592
0.0102311
0.0101599
0.0100618
0.00996917
0.00987722
0.00981925
0.0097304
0.00972178
0.00965956
0.00977985
0.00991948
0.0104326
0.0115047
0.0121146
0.0116939
0.0112656
0.0102117
0.0096379
0.00944903
0.00929183
0.00930322
0.00927781
0.00934628
0.00937219
0.00946244
0.00954636
0.00964184
0.00973525
0.00981185
0.00993024
0.0100244
0.0101297
0.0100614
0.00997567
0.00988154
0.00976813
0.00970549
0.00960976
0.00954147
0.00944818
0.00939668
0.00932478
0.00931495
0.00926024
0.0093896
0.00952925
0.0100179
0.0110255
0.0116184
0.0112194
0.0108436
0.00982709
0.0092685
0.00908649
0.00893264
0.00894145
0.00891156
0.00897133
0.00898937
0.00906858
0.00915347
0.00923994
0.00931719
0.00938247
0.00948867
0.00957159
0.00964978
0.00960206
0.00952574
0.00944538
0.00934326
0.00928902
0.00920766
0.00913623
0.00906076
0.00901571
0.00894429
0.00894415
0.00889199
0.00902326
0.00916609
0.00961766
0.0105965
0.0111559
0.0108136
0.0104256
0.00945506
0.00892899
0.00874678
0.00859555
0.00860006
0.00856899
0.00862689
0.00864035
0.00871636
0.00878701
0.00886737
0.00893882
0.00898915
0.00908602
0.00915129
0.00922431
0.00918016
0.00911583
0.00904647
0.00895878
0.00890967
0.00883218
0.00877975
0.00870032
0.00866172
0.00860347
0.00859818
0.00854751
0.00868043
0.00881991
0.00925253
0.0102051
0.0107152
0.0103956
0.0100717
0.00911051
0.00860098
0.00842332
0.00828378
0.00829585
0.00826163
0.00831562
0.00831754
0.00838766
0.00845982
0.00852728
0.00859213
0.00863778
0.00872006
0.00877883
0.00883044
0.00880235
0.00874497
0.00868505
0.00860345
0.00856036
0.00849454
0.00843915
0.00837621
0.00833517
0.00828732
0.00828123
0.00823274
0.00836011
0.00849298
0.00890438
0.00985585
0.0103481
0.010072
0.00975729
0.00878804
0.00830096
0.00813421
0.00800837
0.00800946
0.00797799
0.00802974
0.00802751
0.00809327
0.0081597
0.00821942
0.00828237
0.00831396
0.0083919
0.00843246
0.0084775
0.00845616
0.00840923
0.00835694
0.00828685
0.00824537
0.00819387
0.00814354
0.00807403
0.00804082
0.00799971
0.0079961
0.00794756
0.00807121
0.00819919
0.00859249
0.00953943
0.0099808
0.00977576
0.00950808
0.00850674
0.00802057
0.00786252
0.00774958
0.0077601
0.00772647
0.00777718
0.00776856
0.00782365
0.00788398
0.00794
0.0080047
0.00802857
0.00808957
0.00812715
0.00816724
0.00814705
0.00810303
0.00805775
0.0079921
0.00796073
0.00791005
0.00786793
0.00780442
0.00777309
0.00774115
0.00773246
0.00768665
0.00780033
0.00792417
0.00832614
0.00930573
0.00970904
0.0095347
0.0092889
0.00825486
0.00777052
0.00761861
0.00753515
0.00752702
0.00749695
0.00754796
0.00752499
0.00758577
0.0076429
0.00768577
0.00775161
0.00777238
0.00782804
0.00785079
0.00788253
0.00787117
0.00783715
0.00779745
0.00773811
0.00770386
0.00767372
0.00762117
0.00755815
0.00754082
0.00751269
0.00750162
0.00746302
0.00756264
0.00768061
0.00808845
0.00911348
0.00944931
0.00940322
0.00914052
0.00803098
0.00755774
0.0074172
0.00733349
0.00732944
0.00730209
0.00734913
0.00732742
0.00737712
0.00742643
0.00746657
0.00753656
0.00754632
0.00759251
0.00760924
0.00764541
0.00763344
0.00760094
0.0075592
0.00750836
0.0074861
0.00745223
0.0074189
0.0073493
0.00732252
0.00731103
0.00730059
0.00726235
0.00735192
0.00747961
0.00788746
0.00900504
0.00931544
0.00929329
0.00905951
0.00786013
0.00736689
0.00722113
0.00717089
0.00715867
0.00713276
0.0071711
0.00714376
0.00720415
0.00724368
0.00727931
0.00734248
0.00734498
0.00738134
0.00740229
0.00742551
0.00742309
0.00739052
0.00735696
0.00732152
0.00729256
0.00726542
0.00722066
0.00715014
0.00714555
0.00713029
0.00712296
0.0070887
0.00717981
0.00729242
0.0077296
0.00889441
0.00918707
0.00924177
0.00901307
0.00771111
0.00722382
0.00707708
0.00703439
0.00701043
0.00698445
0.00702263
0.00697779
0.00704741
0.00707752
0.00710445
0.00717203
0.00718254
0.00721767
0.00722398
0.00724781
0.00724754
0.00722252
0.00718718
0.00715102
0.00712767
0.00710961
0.00706682
0.00699665
0.00699375
0.00699878
0.0069919
0.00695943
0.0070312
0.00715769
0.0076052
0.00882425
0.00912937
0.0092303
0.00896023
0.00759634
0.007104
0.00693446
0.00691763
0.00690104
0.00687728
0.00689784
0.0068735
0.00693554
0.00695416
0.00697901
0.00703758
0.0070353
0.00705777
0.00709059
0.00709716
0.00710698
0.00707878
0.00703967
0.00702036
0.0069965
0.00697137
0.00692863
0.0068645
0.0068848
0.00688535
0.00687389
0.00683076
0.00690126
0.00702534
0.00751221
0.0088075
0.00914337
0.00923064
0.00895611
0.00753903
0.00699564
0.00685503
0.00683943
0.00679869
0.00678353
0.00679695
0.00679374
0.00683574
0.00686166
0.0068798
0.00692041
0.00692129
0.00693593
0.0069738
0.0069842
0.00698085
0.0069688
0.00693646
0.00690699
0.0068918
0.00688623
0.00682939
0.00676512
0.00678526
0.00680214
0.00678779
0.00674595
0.00684284
0.00696693
0.00745969
0.00876142
0.00910535
0.00920892
0.00894369
0.00748485
0.00693602
0.0068019
0.00677522
0.00673844
0.00670406
0.00673166
0.00673556
0.00676944
0.00678013
0.00681729
0.0068131
0.00683961
0.00684808
0.00688431
0.00688397
0.00688046
0.00686546
0.0068379
0.00683364
0.00680244
0.00679981
0.00676206
0.00671096
0.00672099
0.00674846
0.00673648
0.00670932
0.00681615
0.00694149
0.00740951
0.00874282
0.00910815
0.00918109
0.00890329
0.00744395
0.0069097
0.00678322
0.00673743
0.00670295
0.00667517
0.00668515
0.00670069
0.00673872
0.00673473
0.00677324
0.00679796
0.00682287
0.00680696
0.00684467
0.00683791
0.00683999
0.00683405
0.00680414
0.0068103
0.00675888
0.0067704
0.00673481
0.006667
0.00669977
0.00671612
0.00670418
0.00666644
0.00678536
0.00690246
0.00740007
0.0087181
0.0090821
0.00919318
0.00890129
0.00742288
0.00689218
0.00677433
0.0067401
0.00670529
0.0066657
0.00669097
0.00667847
0.00673225
0.00671443
0.00677516
0.0067899
0.00678934
0.00677068
0.00680768
0.00680969
0.006798
0.00681259
0.00678907
0.00677901
0.00673214
0.0067606
0.00669064
0.00664159
0.00667535
0.00670242
0.00670179
0.00664882
0.00675169
0.0068911
0.00738427
0.00873198
0.00911934
0.00920962
0.00889002
0.00739777
0.00686866
0.00675999
0.00673749
0.00669983
0.00666951
0.00668718
0.00667737
0.00671264
0.0067164
0.00676987
0.0067604
0.00677827
0.00675279
0.00680582
0.00679728
0.00679579
0.00680739
0.00676439
0.00676295
0.00671702
0.00673211
0.00668844
0.00664478
0.00667599
0.00669558
0.00669438
0.0066408
0.0067476
0.00687921
0.00738627
0.00873184
0.00912582
0.00922262
0.00886134
0.00739795
0.00687028
0.00673638
0.00672208
0.0066798
0.00666644
0.00667114
0.00667098
0.00671048
0.00671208
0.00674805
0.00675453
0.00674599
0.00675586
0.00680083
0.00679533
0.00679033
0.00678989
0.00676058
0.00676473
0.00671984
0.00673456
0.00667003
0.0066415
0.00667006
0.00667807
0.00668302
0.00661881
0.00673966
0.00688271
0.00738179
0.00870439
0.00910372
0.00920425
0.00882032
0.00739099
0.00686577
0.00673598
0.00672574
0.00668188
0.00665796
0.00667434
0.00666093
0.00670452
0.0067051
0.00675234
0.00673428
0.00676324
0.00674869
0.00680598
0.00680076
0.00679525
0.00679191
0.00675769
0.0067567
0.00671222
0.00672642
0.00666957
0.00664514
0.00666636
0.00668485
0.00668212
0.00662943
0.00673195
0.00687932
0.00735883
0.008709
0.00910646
0.0092079
0.00882225
0.00736567
0.00684635
0.00673583
0.00672745
0.0066713
0.00666282
0.00668038
0.00665709
0.00670666
0.00671981
0.00674874
0.00676812
0.0067833
0.00678338
0.00682198
0.00683944
0.00681181
0.0068249
0.00679318
0.00678989
0.00674611
0.00676099
0.00670314
0.00665905
0.00667348
0.00667428
0.00667105
0.00662447
0.0067328
0.00686216
0.00736039
0.00869852
0.00910684
0.00922881
0.00881199
0.00736717
0.00685838
0.00673129
0.00672398
0.00669188
0.00665661
0.0066843
0.00668852
0.00671639
0.00672907
0.006785
0.00676079
0.00677428
0.00676455
0.00681105
0.00682672
0.00680191
0.00681201
0.00677164
0.00676791
0.00673025
0.00674601
0.00668884
0.00664411
0.00666756
0.00667939
0.00665886
0.00662258
0.00671351
0.00686827
0.00735355
0.00868384
0.0091727
0.00930521
0.00877253
0.00735975
0.00685765
0.00673244
0.00672161
0.00667911
0.00665227
0.00668304
0.00667766
0.00670268
0.00672874
0.00677302
0.00673765
0.00677595
0.00674633
0.00679842
0.00680969
0.00679992
0.00679449
0.00676954
0.0067577
0.00673671
0.00674392
0.00669661
0.00664774
0.0066632
0.0066788
0.00666209
0.00660517
0.00672106
0.00686637
0.00733453
0.00868788
0.00925808
0.00934848
0.00874059
0.00733677
0.00685155
0.00673051
0.00669685
0.00666856
0.00664272
0.00668079
0.00666092
0.00668531
0.00672386
0.00677442
0.00674319
0.00676304
0.00675388
0.00680974
0.00681295
0.00678969
0.00680479
0.00676293
0.00676331
0.00672291
0.00673466
0.00668899
0.00663725
0.00665685
0.00666178
0.00664231
0.00661487
0.00672044
0.00685889
0.00731909
0.00868028
0.00923156
0.00937239
0.00876995
0.00731918
0.00683731
0.00671739
0.00670441
0.00667477
0.00665552
0.00668534
0.00667814
0.00671005
0.00671674
0.00676823
0.00673931
0.00678383
0.0067671
0.00682415
0.00683383
0.00681204
0.006817
0.00677309
0.00678903
0.00676897
0.00675647
0.0066965
0.00666251
0.00665164
0.00668402
0.00666668
0.00661968
0.00672122
0.00685807
0.00731103
0.00865574
0.00926996
0.00939016
0.00877945
0.00730667
0.00683507
0.00671355
0.00668745
0.00668808
0.00666117
0.00670052
0.00668867
0.00674763
0.00672319
0.00679315
0.00679569
0.00680168
0.00678885
0.00684129
0.00685909
0.00682134
0.00684243
0.00683687
0.00681238
0.00677279
0.00676867
0.00674697
0.00667712
0.00665439
0.00669481
0.006653
0.00662372
0.0067334
0.00683695
0.00731348
0.00867621
0.00924289
0.00940937
0.00877294
0.00729098
0.00684536
0.00675434
0.00673585
0.00669812
0.00667286
0.00672686
0.00669136
0.00675056
0.00678595
0.00684783
0.00683275
0.00683763
0.00682906
0.00687917
0.0068901
0.00685818
0.00685106
0.00682615
0.00683824
0.00680514
0.00679852
0.00674288
0.00670027
0.00665935
0.00669173
0.00665901
0.00662876
0.00673694
0.00684658
0.00729112
0.0086758
0.00928575
0.00942882
0.00877126
0.00728054
0.00686385
0.00673699
0.00673989
0.00669947
0.00667922
0.00671183
0.00672417
0.00676611
0.00677727
0.00683523
0.00681681
0.00682471
0.00681773
0.00687663
0.00686303
0.00685113
0.0068649
0.00683098
0.00681486
0.00679722
0.00678393
0.00674021
0.0067005
0.00667506
0.00669116
0.00665529
0.00661576
0.0067409
0.00684802
0.00727881
0.00867576
0.00937171
0.00947707
0.00873624
0.00727858
0.00685312
0.00675054
0.00674314