/*--------------------------------*- C++ -*----------------------------------*\
  =========                 |
  \\      /  F ield         | OpenFOAM: The Open Source CFD Toolbox
   \\    /   O peration     | Website:  https://openfoam.org
    \\  /    A nd           | Version:  8
     \\/     M anipulation  |
\*---------------------------------------------------------------------------*/
FoamFile
{
    version     2.0;
    format      ascii;
    class       volScalarField;
    location    "100";
    object      nut;
}
// * * * * * * * * * * * * * * * * * * * * * * * * * * * * * * * * * * * * * //

dimensions      [0 2 -1 0 0 0 0];

internalField   nonuniform List<scalar> 
78750
(
0.000764219
0.000642576
0.000687528
0.000857892
0.000924147
0.000703596
0.000694768
0.000665217
0.000690385
0.000741646
0.00102797
0.000669841
0.000650865
0.000695537
0.000668607
0.000640595
0.000629907
0.000628129
0.000629619
0.000634051
0.000661542
0.000659038
0.000688419
0.000733093
0.000710964
0.000678478
0.000677591
0.000674113
0.000687871
0.000670774
0.000898863
0.000918265
0.000717651
0.000666637
0.000875471
0.000912637
0.0011558
0.00108386
0.00105652
0.00102879
0.0010455
0.00103963
0.00101603
0.00104717
0.00105726
0.00113238
0.000998891
0.000997357
0.00104027
0.000977927
0.000961606
0.00094363
0.000986171
0.000976141
0.000970464
0.000991315
0.000997922
0.00100986
0.00103201
0.00104417
0.00101918
0.00102206
0.00104147
0.00103181
0.00106793
0.00105705
0.0010579
0.00107237
0.00113375
0.000880185
0.00119915
0.000980613
0.00100574
0.00127535
0.00137245
0.00102048
0.00100967
0.000895348
0.000940643
0.00102309
0.00125773
0.00101234
0.000962308
0.000891552
0.000912986
0.000892062
0.000948091
0.00089211
0.000956925
0.000922115
0.000912814
0.000935842
0.00103109
0.00109356
0.000977779
0.00095274
0.000936131
0.000921808
0.00095702
0.00104515
0.00125796
0.0012987
0.00108121
0.00105012
0.00103868
0.00120231
0.00106065
0.00163368
0.00205657
0.00191701
0.00125867
0.0012315
0.00117139
0.00124434
0.00123302
0.00146523
0.00118881
0.00109884
0.00111281
0.00100973
0.000945883
0.00097216
0.000958125
0.00095541
0.000990759
0.000993297
0.00096747
0.00126373
0.00131407
0.00112608
0.00110986
0.00113171
0.00120594
0.00125513
0.00121588
0.00184611
0.00218325
0.00166747
0.00105725
0.00125558
0.0009535
0.00174152
0.00241358
0.00245553
0.00215706
0.00193136
0.00199181
0.00203715
0.00199691
0.00222508
0.0020559
0.00183524
0.00172391
0.0019416
0.00155731
0.00130282
0.00126817
0.00149171
0.00127393
0.00132785
0.00150313
0.0014355
0.00173601
0.00194803
0.00175849
0.00184351
0.00228645
0.00211233
0.00198954
0.00178407
0.00244618
0.0024048
0.00243241
0.00143434
0.00103324
0.000916387
0.00172422
0.00216514
0.00214626
0.00223993
0.00265357
0.00261336
0.00260674
0.0025311
0.00223307
0.00208056
0.00224257
0.00210764
0.00233591
0.00216187
0.00198202
0.00255286
0.00226219
0.00261419
0.0022445
0.00249062
0.00265493
0.00230318
0.00224398
0.00260077
0.00267624
0.00256963
0.00260693
0.00264587
0.00266196
0.00226817
0.00216218
0.00209665
0.00187256
0.000906914
0.00086242
0.00175947
0.00188931
0.00192688
0.00206161
0.00271446
0.00269707
0.00267888
0.00254172
0.00221849
0.00194156
0.00217849
0.00219849
0.0022899
0.00223052
0.0022394
0.00264835
0.00236902
0.00256685
0.00246659
0.00238173
0.00241702
0.00220582
0.00218969
0.00245733
0.00261911
0.00240947
0.00271158
0.0027734
0.00269309
0.00209178
0.00190518
0.00188099
0.0016696
0.000862482
0.000825158
0.00148441
0.00165472
0.00174397
0.00185653
0.0024478
0.00247451
0.00253861
0.00245733
0.00247399
0.00219453
0.00244058
0.002556
0.0024052
0.00245621
0.00271812
0.00254316
0.00251592
0.00242397
0.00247227
0.00229574
0.00238821
0.00226417
0.00230135
0.0024999
0.00246773
0.00250901
0.00258616
0.00253802
0.00258141
0.00193458
0.00172096
0.00161559
0.00140771
0.000793044
0.000673813
0.0011683
0.00132333
0.0013835
0.0015083
0.00188058
0.00191771
0.00203914
0.00201486
0.00202938
0.00199075
0.00211854
0.00223785
0.0022606
0.00236703
0.00256265
0.00247309
0.00266817
0.00257592
0.00239237
0.00233975
0.00227156
0.00215389
0.00207712
0.00218622
0.00203364
0.00200411
0.00199214
0.00197644
0.00200826
0.0015303
0.0013832
0.00129668
0.00110285
0.000675699
0.000561829
0.000873758
0.000976518
0.00102442
0.00110099
0.00126877
0.00129619
0.00134678
0.00133975
0.0013957
0.00135071
0.00148794
0.00157624
0.00160079
0.00172781
0.00190446
0.00189308
0.00211112
0.00204238
0.00181822
0.00173707
0.0016169
0.00149362
0.00145829
0.00147274
0.00137536
0.00135133
0.00130846
0.00130631
0.00131092
0.00109894
0.00102587
0.000979261
0.000834657
0.000577169
0.000525558
0.000779387
0.000892558
0.000944743
0.000991363
0.00107068
0.0011117
0.00113615
0.00111813
0.00112121
0.00110269
0.00113051
0.00113044
0.00117708
0.00123206
0.00129349
0.00131451
0.00142953
0.00140029
0.0013179
0.00126444
0.0011978
0.00115186
0.00112326
0.00116114
0.0011386
0.00111833
0.00114142
0.00112233
0.00110522
0.0010045
0.000944132
0.000879779
0.000782084
0.000530428
0.000503247
0.000865577
0.00096658
0.00101993
0.00108893
0.00116686
0.00118702
0.00116479
0.00114621
0.00116952
0.00111851
0.0011318
0.00112405
0.00111763
0.00113486
0.00116554
0.00116266
0.00121242
0.00118103
0.00113958
0.00112342
0.00112454
0.00111347
0.00112185
0.00115536
0.00116596
0.00116508
0.00118873
0.00115898
0.00115088
0.00108994
0.00102408
0.000974351
0.000865573
0.000512583
0.000525468
0.000972024
0.00106381
0.00112812
0.00116579
0.00123016
0.00124628
0.0012564
0.00124547
0.00125634
0.00123442
0.00121893
0.00124132
0.00121645
0.00119992
0.00122275
0.0012069
0.00123222
0.00122329
0.00123078
0.00121741
0.00122088
0.00121221
0.0012
0.00125643
0.00125838
0.00123245
0.00127728
0.00124609
0.0012429
0.00119471
0.00113606
0.00104741
0.000993513
0.000516322
0.0005496
0.00105508
0.00109874
0.00116416
0.00119508
0.00122581
0.00128441
0.00124588
0.00125645
0.00128843
0.00124965
0.00127966
0.00127154
0.00124054
0.00128454
0.00130076
0.00129301
0.00132041
0.00128004
0.00128398
0.00125883
0.00124716
0.00123563
0.00126215
0.00126311
0.00125112
0.001281
0.00126169
0.00125101
0.00122336
0.00120798
0.00116083
0.00109609
0.00104733
0.000535243
0.000527429
0.0010496
0.00113865
0.00122811
0.00122636
0.00125961
0.00130534
0.00128507
0.00129624
0.00126712
0.00125725
0.00126741
0.00126298
0.00125042
0.00126264
0.00127025
0.00128114
0.00131029
0.00130674
0.00125562
0.00125403
0.00126409
0.00126481
0.0012558
0.00127886
0.00128564
0.00128489
0.00130544
0.00131525
0.00126341
0.00126781
0.00121076
0.00113038
0.00105081
0.000527935
0.000516394
0.00105295
0.00118581
0.00129841
0.00133456
0.0013574
0.00138023
0.00137463
0.00135861
0.00135159
0.00131662
0.00133894
0.00132601
0.00130978
0.00128925
0.00129619
0.00131009
0.00133084
0.00130206
0.00128541
0.00129752
0.00131298
0.00132731
0.00131498
0.00133862
0.00136403
0.00136783
0.00140052
0.00140037
0.00136312
0.00133701
0.00131371
0.00120416
0.0010526
0.000529344
0.000556917
0.00109675
0.00124948
0.00134362
0.00144857
0.00145123
0.00144785
0.001454
0.00142415
0.00145145
0.00141746
0.00142784
0.00141224
0.00142114
0.0013634
0.00137533
0.0013651
0.00136484
0.00134147
0.00134901
0.0013665
0.00138597
0.00139293
0.00138907
0.00143955
0.00143877
0.001448
0.00147904
0.00145954
0.00145754
0.00139832
0.00140189
0.00126717
0.0011059
0.00054412
0.000611219
0.00118044
0.00133011
0.00139937
0.00150389
0.00151426
0.00151429
0.00151672
0.00149132
0.00152016
0.00149734
0.00148832
0.00147331
0.00148196
0.00143524
0.00144145
0.00140031
0.00137646
0.00137233
0.00139667
0.00141774
0.00143595
0.00144197
0.00146304
0.00153964
0.00149849
0.00149946
0.00153786
0.0015161
0.00151379
0.00147933
0.00142633
0.00132169
0.00119656
0.000569258
0.000637735
0.00128191
0.00139914
0.00148028
0.00151979
0.0015601
0.00158205
0.0015742
0.00156629
0.00157574
0.00154637
0.00154848
0.0015346
0.00151085
0.00150472
0.00148917
0.00144442
0.0014022
0.00143313
0.00145725
0.00148258
0.0014915
0.00150346
0.00153669
0.00159775
0.00155578
0.00155596
0.00160271
0.00158605
0.00155006
0.00155422
0.00144
0.00138398
0.0012998
0.000605234
0.000643916
0.00135867
0.00145022
0.00155258
0.00155533
0.00161189
0.00164602
0.00163118
0.00165394
0.00163746
0.00162194
0.00163697
0.00161751
0.00157431
0.00159661
0.00155729
0.00152759
0.00148233
0.00152789
0.00153769
0.00157197
0.00158038
0.00158291
0.00161771
0.00163517
0.00163685
0.00164806
0.00166388
0.00165202
0.00159925
0.00158869
0.00151556
0.00145794
0.00136637
0.000634458
0.00064247
0.0013701
0.0015085
0.00159046
0.00161399
0.0016561
0.00170668
0.00168279
0.00172194
0.00170407
0.00173178
0.00173659
0.00170278
0.00168401
0.00170149
0.00165748
0.00164102
0.00161412
0.00163113
0.00162547
0.00167372
0.00169886
0.00168266
0.00171557
0.00168655
0.00172953
0.00174262
0.00169547
0.00168767
0.00166781
0.00161276
0.00161278
0.00151854
0.00136687
0.000635377
0.000625738
0.00132977
0.00154748
0.00159617
0.00165814
0.00167614
0.00174487
0.00172179
0.00174927
0.00175753
0.00179994
0.0017946
0.00176339
0.00178132
0.00176747
0.00173953
0.00173517
0.0017316
0.00172445
0.00170447
0.0017621
0.00178495
0.00177039
0.00178728
0.00174386
0.00178257
0.00178748
0.0017121
0.0017071
0.00172209
0.00164885
0.00164148
0.00152755
0.00132554
0.000612202
0.00060001
0.00128846
0.00150947
0.00158205
0.00166803
0.00169597
0.00173729
0.00173723
0.00174665
0.00177725
0.00177499
0.0017933
0.00178758
0.00181195
0.00178465
0.00176767
0.00175592
0.00176909
0.00177035
0.00174577
0.00181127
0.00178487
0.00179476
0.00179238
0.00178564
0.00177351
0.00178368
0.00173588
0.00174062
0.00172127
0.0016628
0.00160071
0.00149039
0.0012704
0.000582553
0.000578495
0.00124974
0.00143255
0.00156632
0.00163941
0.0017119
0.00170474
0.00172586
0.00172783
0.00176286
0.00171983
0.00176675
0.00177734
0.00178803
0.00178969
0.00177259
0.00172715
0.00175387
0.00173894
0.00173701
0.00180291
0.0017494
0.00177614
0.00176534
0.00180139
0.00174446
0.0017561
0.00175913
0.00175573
0.00169303
0.00164404
0.00156271
0.00145036
0.0012216
0.000562494
0.00056515
0.00120543
0.00139038
0.00155063
0.00158817
0.00168878
0.00168001
0.00170647
0.00171009
0.00174288
0.00171037
0.00175112
0.00175608
0.00176715
0.0017891
0.00176837
0.0017164
0.00174234
0.00169987
0.00172211
0.00176144
0.00174041
0.0017633
0.00174901
0.00179305
0.00174121
0.0017232
0.00176444
0.00170904
0.00168181
0.00162625
0.00155757
0.00142214
0.00118687
0.000555859
0.000558152
0.00117554
0.0013889
0.00153699
0.00156472
0.0016451
0.00166647
0.00169702
0.00170001
0.00173832
0.0017426
0.00175265
0.00175334
0.00178264
0.00178114
0.00174462
0.00173446
0.00174879
0.0017298
0.00173816
0.00174216
0.00175274
0.00175411
0.00174682
0.00176841
0.00175511
0.00170371
0.00173493
0.00165335
0.0016696
0.00160622
0.00155411
0.00140443
0.00116208
0.000551366
0.000559075
0.00117095
0.00140086
0.00153199
0.00156542
0.00161281
0.00164457
0.00168566
0.00169181
0.00173021
0.00175824
0.00175207
0.00176585
0.00179798
0.00177267
0.00172402
0.0017521
0.00176465
0.00179152
0.00175996
0.00175406
0.00175784
0.00174141
0.001741
0.00173648
0.00175178
0.00169594
0.00168018
0.0016357
0.00163755
0.001567
0.00153388
0.00139752
0.00115267
0.000543772
0.000571081
0.0011767
0.00140374
0.00151539
0.0015418
0.00159225
0.00161132
0.00164998
0.00168217
0.00170041
0.00172972
0.00174007
0.0017604
0.0017675
0.00176139
0.00172653
0.00175366
0.00177193
0.00179292
0.00175097
0.00174934
0.00174405
0.00173392
0.00172347
0.00170837
0.00172247
0.00168048
0.00163574
0.00162418
0.00161195
0.00152211
0.00150968
0.00138933
0.00115972
0.000546913
0.00058933
0.00117666
0.00138335
0.00146942
0.00150189
0.0015791
0.00159558
0.00161022
0.00166029
0.00166179
0.00168627
0.00171913
0.00172757
0.00171897
0.00174956
0.00173901
0.00174292
0.00176018
0.0017417
0.0017175
0.00172159
0.00170945
0.00172832
0.00170652
0.00169565
0.00168579
0.00165339
0.00161604
0.0015976
0.0015997
0.00149445
0.0014718
0.00137028
0.00115725
0.000567086
0.000599188
0.00115912
0.00134858
0.00142129
0.0014806
0.00156489
0.0015903
0.00159746
0.00161767
0.00163872
0.0016489
0.00168145
0.00168708
0.00168908
0.00173309
0.00173047
0.00172302
0.00174176
0.00171079
0.00167995
0.00170244
0.00166775
0.00170974
0.00169563
0.00168475
0.00165381
0.00163527
0.00159686
0.00157314
0.00158193
0.00148845
0.00142599
0.00134552
0.00113591
0.000585125
0.0005954
0.00113005
0.00132072
0.00140134
0.00146332
0.00153122
0.00155895
0.00158712
0.00157202
0.00162171
0.00161172
0.00163006
0.00165048
0.00167033
0.00169514
0.0016859
0.00169164
0.00171108
0.0017011
0.00165027
0.00167819
0.00164545
0.00167321
0.00166774
0.00164236
0.00161901
0.0016239
0.0015592
0.00154554
0.00154816
0.00148552
0.00140701
0.00131462
0.00111136
0.000588378
0.000594863
0.00110158
0.00129628
0.00139049
0.00142196
0.00148537
0.00150162
0.00154288
0.00153596
0.00157469
0.00157424
0.00157949
0.00162031
0.00164398
0.00164251
0.00163162
0.00164284
0.00165471
0.00167141
0.00163254
0.00163546
0.00163622
0.00162924
0.00161917
0.00158565
0.00157533
0.00158028
0.00152014
0.00149965
0.00150171
0.00145772
0.00139616
0.00128035
0.00108454
0.00058964
0.000604905
0.00107881
0.00126549
0.00135965
0.00137085
0.0014555
0.00144248
0.00147404
0.00150152
0.00151241
0.00154053
0.00153928
0.00158857
0.0016087
0.00159949
0.00159996
0.00158855
0.00161331
0.00163125
0.00162022
0.00159717
0.00160224
0.00159017
0.00157508
0.00155059
0.00154475
0.00150655
0.00149221
0.00145403
0.00145607
0.00139532
0.00134958
0.00125405
0.00105463
0.000593415
0.000611163
0.0010515
0.00123034
0.0013208
0.00133326
0.00143134
0.00139481
0.00142055
0.00146026
0.00147378
0.00151183
0.00151433
0.00154597
0.00157333
0.00157342
0.00158675
0.00155338
0.001617
0.00160456
0.00159731
0.00157161
0.00154718
0.00156036
0.00153779
0.00152295
0.00153274
0.00145095
0.00145495
0.00141859
0.00141725
0.0013297
0.00128805
0.00122918
0.00103077
0.000597072
0.00060586
0.00101942
0.00119487
0.00128038
0.00130049
0.00137518
0.00136775
0.00139543
0.00141064
0.00144709
0.0014813
0.00149393
0.00149762
0.00153705
0.00154423
0.00156382
0.00154444
0.00161533
0.00158508
0.00155449
0.00154139
0.00150898
0.00152723
0.00150043
0.00148136
0.0014978
0.00142468
0.00140257
0.00137492
0.00138016
0.00129153
0.0012475
0.00118274
0.00100807
0.000595889
0.000598131
0.000994243
0.00115538
0.00122152
0.00125251
0.0012971
0.00134414
0.00136917
0.00136093
0.00140604
0.00142863
0.00145667
0.00145959
0.00149192
0.00150217
0.00151608
0.0015427
0.00155726
0.00156689
0.00150866
0.00149288
0.00148007
0.00148378
0.00146693
0.00143503
0.00143012
0.00140045
0.00135448
0.00132519
0.00133927
0.00126805
0.00121998
0.00112085
0.000974758
0.000587491
0.000590088
0.000970136
0.00110904
0.0011612
0.00119646
0.00124468
0.00128947
0.00131124
0.00131866
0.00134987
0.00136221
0.00140042
0.00143279
0.00144346
0.00146349
0.00145942
0.00151952
0.00149206
0.00153024
0.00147539
0.001438
0.00144007
0.00144039
0.00142714
0.00139229
0.00136834
0.00135377
0.00131258
0.00127912
0.00128451
0.00122442
0.00118165
0.00107085
0.000937382
0.000581047
0.000585433
0.000934832
0.00106394
0.00111919
0.00114171
0.00121178
0.00121465
0.00123625
0.00127813
0.00129384
0.00131339
0.00134221
0.00138929
0.00139674
0.00142724
0.00141694
0.00145903
0.00146373
0.00146339
0.00144266
0.00140043
0.00140226
0.00139981
0.00137354
0.00134088
0.00132451
0.00128644
0.00126175
0.00122554
0.00121825
0.00115832
0.00112126
0.00103376
0.000906024
0.000585332
0.000584815
0.000900556
0.00102234
0.00107761
0.00108572
0.00116378
0.00115178
0.00117808
0.00122717
0.00124465
0.00127714
0.00128566
0.00132473
0.00134344
0.00137482
0.00138679
0.00138387
0.00143819
0.00140223
0.00139132
0.00137061
0.00135801
0.00135106
0.00131918
0.00127762
0.00127784
0.00122071
0.00120551
0.00116878
0.00115972
0.00109598
0.00104942
0.000997231
0.000882526
0.000586606
0.000578273
0.000879291
0.000984473
0.00102268
0.00103315
0.00109864
0.00110729
0.00114061
0.00116672
0.00119103
0.00122592
0.00123177
0.00126764
0.00128862
0.00131689
0.00135177
0.00133172
0.00138802
0.00136036
0.00133116
0.00131755
0.00129627
0.0012946
0.00126565
0.00122409
0.00121979
0.00116931
0.0011562
0.00111973
0.00111199
0.00104892
0.000991475
0.000958556
0.000859136
0.000577782
0.000565166
0.000861862
0.000941976
0.000968571
0.000986663
0.00103662
0.00106167
0.00110122
0.00110318
0.00112835
0.001154
0.00118524
0.00122082
0.00124132
0.00126525
0.00129947
0.00129726
0.00132965
0.00132081
0.00128256
0.00124797
0.00123858
0.00123691
0.00120577
0.00118281
0.00115939
0.00111808
0.00109903
0.00106993
0.0010564
0.00100362
0.000949901
0.000909776
0.000834278
0.000565741
0.000560953
0.000835042
0.000885021
0.000921927
0.000939806
0.000988646
0.00100766
0.00104375
0.00104671
0.00107141
0.00108437
0.00113442
0.00117105
0.00118776
0.00120649
0.00123097
0.00124597
0.00127268
0.00127686
0.0012351
0.00118824
0.00118537
0.00117482
0.00114564
0.00113023
0.00110012
0.00106139
0.00102889
0.00101081
0.000993299
0.000949012
0.000907647
0.000856152
0.000812111
0.000553965
0.000555692
0.00080162
0.000835398
0.000878431
0.000894425
0.000943348
0.00095505
0.000977398
0.000996835
0.00102616
0.00103678
0.00107376
0.00111242
0.00112166
0.00114588
0.0011638
0.00117821
0.00121445
0.00121318
0.00117227
0.00114336
0.00112126
0.00111501
0.0010851
0.00106232
0.00104273
0.00100766
0.000971169
0.000948239
0.000939859
0.000894933
0.000861427
0.000819263
0.00079309
0.0005489
0.000537988
0.000777999
0.000808344
0.000836511
0.000852765
0.000888441
0.000901039
0.000918147
0.000942088
0.000978944
0.000997077
0.00101465
0.00104312
0.0010615
0.00109928
0.00111116
0.00112208
0.00115688
0.00113171
0.00111116
0.00109986
0.0010661
0.00105954
0.00102467
0.00100325
0.000986565
0.000955251
0.000932015
0.00089244
0.000894027
0.000845819
0.000822996
0.000799814
0.000776177
0.000545661
0.000530583
0.000767871
0.000785947
0.000796468
0.000807833
0.000833566
0.000842228
0.000866891
0.000887656
0.000920787
0.000941645
0.000958232
0.00098161
0.00100983
0.00104433
0.0010627
0.00107372
0.00109937
0.00107024
0.001063
0.00104054
0.0010257
0.000999024
0.000979773
0.000953288
0.000930403
0.000901553
0.000886431
0.000849383
0.000845384
0.000799501
0.000792144
0.000776253
0.000758251
0.000534864
0.000529312
0.000754025
0.000756185
0.000760717
0.000762889
0.000789775
0.000793772
0.000821684
0.000845427
0.00086194
0.000881412
0.000905002
0.000936021
0.000952664
0.000970151
0.00100119
0.00101759
0.00104031
0.00103573
0.00100844
0.000973516
0.000970208
0.000943641
0.000940377
0.000900038
0.000882087
0.000854103
0.000832732
0.000812131
0.000798761
0.000761928
0.000756808
0.000743492
0.000741896
0.000520814
0.000511901
0.000730905
0.000725993
0.000727686
0.000725192
0.000753174
0.000760846
0.00078403
0.000810471
0.000822111
0.00083978
0.000863243
0.000887459
0.000905164
0.000916812
0.000944615
0.000969241
0.000991686
0.000991364
0.000952053
0.000928966
0.000911459
0.000906778
0.000883498
0.000857292
0.000848426
0.000815576
0.000792124
0.000774835
0.000764932
0.000732602
0.000714148
0.000713344
0.000729905
0.000509672
0.000491584
0.000711917
0.000698683
0.000691148
0.000696847
0.000718954
0.000729682
0.000751074
0.000769291
0.000792982
0.000809263
0.000830065
0.000842071
0.000880085
0.000894988
0.000909868
0.000927595
0.000949944
0.000929996
0.00091262
0.000897585
0.000875194
0.000869816
0.000828532
0.000824244
0.00081556
0.000777801
0.000761793
0.000742889
0.000731663
0.000705091
0.000677778
0.000683492
0.000713754
0.000498542
0.000488001
0.00069982
0.000674281
0.000661135
0.000674929
0.000687063
0.000697788
0.000722046
0.000729552
0.000752739
0.000770075
0.000792173
0.000814219
0.000841818
0.00086477
0.000872429
0.000872483
0.000897209
0.000882657
0.000875933
0.000848638
0.000838707
0.000818482
0.000798554
0.000782675
0.000766806
0.000738788
0.000729629
0.000709295
0.000690366
0.000676353
0.000656674
0.000660805
0.000687493
0.000487974
0.000482688
0.00067981
0.000655029
0.000645251
0.000651949
0.000656983
0.000672593
0.000694626
0.000701218
0.00071661
0.000729478
0.000750359
0.000782775
0.000780397
0.000810186
0.00082186
0.00082411
0.000849868
0.000850363
0.000824571
0.00079988
0.000787574
0.000775105
0.000773055
0.000743218
0.000722752
0.000710262
0.000700884
0.000672602
0.000658413
0.000645945
0.000641641
0.000651116
0.000663698
0.000475768
0.000460958
0.000656086
0.000639876
0.000627487
0.000624925
0.000631914
0.000648544
0.000660849
0.000672885
0.000698106
0.000706025
0.000718006
0.000735162
0.000739705
0.00076059
0.000776914
0.000800093
0.000824955
0.000808306
0.000777729
0.000773825
0.000749656
0.000748098
0.000728848
0.000714174
0.000698501
0.000683977
0.000670109
0.000646144
0.000634272
0.000615731
0.000619262
0.000632788
0.000651291
0.000462699
0.000441971
0.000642912
0.00062593
0.000604153
0.000600259
0.000613512
0.000617347
0.000627654
0.000639874
0.000668809
0.000681459
0.00069059
0.000698133
0.000725122
0.000732139
0.000745233
0.00077283
0.000794393
0.000759039
0.000754087
0.000745703
0.0007321
0.000717428
0.000688516
0.000682638
0.00067395
0.000649606
0.000632072
0.000628588
0.000608341
0.000594061
0.000597284
0.000612266
0.000639781
0.000448135
0.000433836
0.000636476
0.000612868
0.000586831
0.000584472
0.000594117
0.000593976
0.000607109
0.000616367
0.000627718
0.000641651
0.000656346
0.000679457
0.000701298
0.000710293
0.000721984
0.000728352
0.000740994
0.000723578
0.000734123
0.000705739
0.000707842
0.00068231
0.000671698
0.000648914
0.000638938
0.000622389
0.000608459
0.000605168
0.000591442
0.00058381
0.000584063
0.000605084
0.000621896
0.000434289
0.000422247
0.000616667
0.00059724
0.000573471
0.00057299
0.000572637
0.000585867
0.00059445
0.000604781
0.000606746
0.000613457
0.000632721
0.000655695
0.000658959
0.000676299
0.000688965
0.000690455
0.00069801
0.00070219
0.000693299
0.000672296
0.000662052
0.000655741
0.000655855
0.00062722
0.000615394
0.000607209
0.000599764
0.00058194
0.000583553
0.000573185
0.000567804
0.000589817
0.00060002
0.000419706
0.000406341
0.000591534
0.000575727
0.000553225
0.000556246
0.000555442
0.000572864
0.000576148
0.000587745
0.000600783
0.000605566
0.000621475
0.000621395
0.000625657
0.000641192
0.00064983
0.00067174
0.000681376
0.000682919
0.000655439
0.000654551
0.000625114
0.000635082
0.000624407
0.000619818
0.000605051
0.000588945
0.000583424
0.00056801
0.000563713
0.000552693
0.000547464
0.000565561
0.000581428
0.000406226
0.000396817
0.000578908
0.000562677
0.000539266
0.000538737
0.000542919
0.000546315
0.000557953
0.000564222
0.000582204
0.000591944
0.000602189
0.000599186
0.000616481
0.000624939
0.000632569
0.000656565
0.00066727
0.000655877
0.000642131
0.000642459
0.000620996
0.000612427
0.000597655
0.000603517
0.000586838
0.000567514
0.000559559
0.000556514
0.000537814
0.000535661
0.000538213
0.000557582
0.000570653
0.000391922
0.000389365
0.000571079
0.000560394
0.000538983
0.000527952
0.000527491
0.000529013
0.000544257
0.000548755
0.000552767
0.00056779
0.000578699
0.000593861
0.000612777
0.000617795
0.000628068
0.000620854
0.000631566
0.000622149
0.00063038
0.000611992
0.000617658
0.000590952
0.000582224
0.000570513
0.000558391
0.000550593
0.000543506
0.00053594
0.000522465
0.00052714
0.000531947
0.000552516
0.000558796
0.000378588
0.000368624
0.000553282
0.000551092
0.000527567
0.000516595
0.000510839
0.000523566
0.000529574
0.000537747
0.00053428
0.000546204
0.00055663
0.000576312
0.00058787
0.000596358
0.000602742
0.000583024
0.000594576
0.000593937
0.000598371
0.000575297
0.000583446
0.000574234
0.000569602
0.000546459
0.000541944
0.000541514
0.000536027
0.000516248
0.00051622
0.000514873
0.000517043
0.000534337
0.000538229
0.000362483
0.000341445
0.000528035
0.000528181
0.000503957
0.000500974
0.000500148
0.00050933
0.000512444
0.000522488
0.000533254
0.000536741
0.000542639
0.000546016
0.000550294
0.000561227
0.000566177
0.000574879
0.000583221
0.000579428
0.000566563
0.0005653
0.000551117
0.000558174
0.000554391
0.000541133
0.000537202
0.00052909
0.00052242
0.000507296
0.000507497
0.000498952
0.000503112
0.000518121
0.000516739
0.000349452
0.000334869
0.000511091
0.000511153
0.000494929
0.000492002
0.000494625
0.000490163
0.000499533
0.000505186
0.000528617
0.00053252
0.000538647
0.000533379
0.000530145
0.000537592
0.000545614
0.000580878
0.000582922
0.000571272
0.000554079
0.000568921
0.00054151
0.000541251
0.000536122
0.000533447
0.000526597
0.000507623
0.000498463
0.000499737
0.000486726
0.000486931
0.000495311
0.000507322
0.000500652
0.000334115
0.000334869
0.000500198
0.000507457
0.000492916
0.000484768
0.00048317
0.00047995
0.000491656
0.000491913
0.000504352
0.00051404
0.000525459
0.000531273
0.000534314
0.000537054
0.000545078
0.000558943
0.000563667
0.000558863
0.000553434
0.000549238
0.000540735
0.000528568
0.000517631
0.000515131
0.000507499
0.000492687
0.000484528
0.000484177
0.000468126
0.000477729
0.000482651
0.000495393
0.000486533
0.000316814
0.000308316
0.000488974
0.00050644
0.000476477
0.000470549
0.00046694
0.000477574
0.000482938
0.000485849
0.000480709
0.000489694
0.000501746
0.000516435
0.000536611
0.000539263
0.000544133
0.000521674
0.000529672
0.000538837
0.00054299
0.000516616
0.000531257
0.000517539
0.000506278
0.000495464
0.000491667
0.000489317
0.000483665
0.000468954
0.000465533
0.000468974
0.000466299
0.00048553
0.000477197
0.00031551
0.000289779
0.000476161
0.000490092
0.000460312
0.000458135
0.000458047
0.00047071
0.000468765
0.000479335
0.000473721
0.00048189
0.000488931
0.00049978
0.000514843
0.000517118
0.000522035
0.000503911
0.000509913
0.000515791
0.000517739
0.000501359
0.000509727
0.000502573
0.000499079
0.000485058
0.000480579
0.000480867
0.000477826
0.000462358
0.00046525
0.000458046
0.00045724
0.000475905
0.000466543
0.00030908
0.000300868
0.000466254
0.000469026
0.000455067
0.00045156
0.000454447
0.000458499
0.000456872
0.000466884
0.000473796
0.000481674
0.000488072
0.00049073
0.000487804
0.000489094
0.00049483
0.000509601
0.000511595
0.000502011
0.000497083
0.000504426
0.000488408
0.000487488
0.00049094
0.000482289
0.000473
0.000466174
0.000463779
0.000459488
0.000452399
0.000444418
0.000451375
0.000464195
0.00045468
0.000284302
0.000297143
0.000457902
0.000463958
0.000451756
0.000445758
0.000448644
0.000446637
0.000453486
0.000457128
0.000469954
0.000474206
0.000482626
0.000480723
0.000479546
0.000481363
0.000486979
0.000512531
0.000513388
0.000499137
0.000491847
0.000505179
0.000481058
0.000479748
0.000483042
0.000479096
0.000467774
0.000458062
0.000453195
0.000452574
0.000436175
0.000437862
0.000442153
0.000456969
0.00044693
0.000275455
0.000267753
0.000452471
0.000470252
0.000442072
0.000438335
0.000438867
0.000440151
0.000452138
0.000454739
0.000463737
0.0004634
0.000470582
0.000471302
0.000484286
0.000486194
0.000489234
0.000494644
0.00049736
0.000494777
0.000489634
0.000487701
0.000479479
0.000477034
0.000470761
0.000467953
0.000461805
0.000452491
0.000446802
0.000440928
0.000428098
0.000436405
0.000434648
0.000454136
0.00044595
0.00029297
0.000268988
0.000450931
0.000463047
0.000431717
0.000430299
0.000432612
0.000437335
0.00044544
0.000450496
0.000453763
0.000456337
0.00046167
0.000467755
0.000480436
0.000481543
0.000483315
0.000471721
0.000473834
0.000482995
0.000480896
0.000467212
0.000474401
0.00047114
0.000459573
0.000453188
0.000452851
0.00044585
0.000441932
0.000431839
0.000428866
0.000430495
0.000428461
0.00045126
0.000443018
0.000287154
0.000290389
0.000451316
0.00044561
0.000427467
0.000426612
0.000430261
0.000435
0.00043857
0.000443079
0.000443844
0.000452388
0.000456403
0.000466104
0.000467973
0.000470572
0.000473964
0.000463377
0.000465054
0.000473355
0.000473006
0.000460687
0.000467243
0.000462668
0.000455643
0.000447929
0.000446386
0.000440962
0.000440453
0.000430614
0.000431809
0.000422228
0.000423936
0.00044869
0.000440401
0.000254354
0.000272158
0.000448687
0.000446748
0.000424939
0.000422939
0.000429277
0.000434231
0.000435596
0.000439387
0.000441829
0.000451073
0.000454815
0.000462424
0.000461337
0.000463697
0.000468096
0.0004691
0.000469959
0.00047136
0.000470534
0.000465272
0.000464464
0.000457871
0.000456895
0.000448826
0.000443338
0.000440427
0.000439523
0.000430918
0.00042792
0.000418884
0.000420535
0.000446008
0.000440886
0.000253964
0.00025502
0.000450031
0.000461703
0.000424734
0.000422664
0.00043005
0.000432323
0.000434688
0.000439662
0.000444272
0.000450471
0.000455669
0.000456617
0.000461226
0.000462493
0.000466609
0.000473126
0.00047481
0.000470108
0.00046951
0.000470189
0.000462846
0.000456162
0.00045926
0.000450749
0.000442946
0.00043906
0.000438372
0.000430852
0.000423699
0.000422078
0.000424114
0.00044618
0.000440567
0.000288538
0.000274506
0.00045116
0.000460902
0.000431265
0.00042387
0.000430586
0.0004322
0.000435711
0.000440677
0.000447457
0.000451311
0.000456162
0.00045555
0.000461842
0.000463587
0.000466274
0.000472245
0.000472993
0.000469085
0.000467856
0.000467707
0.000462452
0.000455973
0.000458339
0.000451238
0.000444529
0.000438573
0.000437804
0.000430759
0.000423124
0.000424672
0.000432161
0.000447744
0.000438794
0.000295129
0.00028951
0.000448191
0.000450582
0.000431732
0.000425446
0.000430544
0.000432354
0.000438022
0.000441239
0.000449615
0.000453562
0.000456932
0.00045862
0.000466111
0.000467327
0.000467906
0.000472062
0.000471811
0.000470472
0.000469886
0.00046752
0.000464565
0.000458383
0.000459962
0.000452687
0.000445314
0.000440935
0.000438978
0.000430958
0.000423569
0.000425401
0.000431585
0.000451638
0.000435563
0.000251155
0.000262621
0.000444935
0.000450845
0.000424779
0.000427877
0.0004336
0.000435938
0.000440402
0.000445316
0.000451542
0.000456874
0.000460082
0.000465004
0.00047056
0.000470747
0.000470713
0.000472667
0.000472641
0.000472039
0.000473095
0.000469657
0.000467034
0.000461726
0.000463594
0.00045406
0.000447991
0.00044486
0.000443561
0.000435047
0.000427978
0.000426054
0.000423276
0.000454393
0.000436824
0.000235409
0.000242098
0.000444523
0.000460599
0.000422081
0.00043102
0.000437648
0.000440721
0.000445151
0.000450305
0.000455626
0.000460479
0.000465258
0.000470975
0.000473001
0.00047389
0.000473222
0.000476279
0.000475603
0.000475942
0.000476917
0.000472188