/*--------------------------------*- C++ -*----------------------------------*\
  =========                 |
  \\      /  F ield         | OpenFOAM: The Open Source CFD Toolbox
   \\    /   O peration     | Website:  https://openfoam.org
    \\  /    A nd           | Version:  8
     \\/     M anipulation  |
\*---------------------------------------------------------------------------*/
FoamFile
{
    version     2.0;
    format      ascii;
    class       volScalarField;
    location    "100";
    object      omega;
}
// * * * * * * * * * * * * * * * * * * * * * * * * * * * * * * * * * * * * * //

dimensions      [0 0 -1 0 0 0 0];

internalField   nonuniform List<scalar> 
78750
(
39.1024
57.9615
59.0166
56.7195
56.8644
61.0845
61.1132
62.6139
60.2734
59.5885
56.8241
61.9822
61.0917
58.9522
57.0895
56.731
59.9705
58.7816
59.2422
58.9656
57.3492
57.7322
61.3966
61.4871
59.7535
62.4829
62.6115
62.5174
61.1577
62.2801
57.1087
56.2685
58.8063
56.9503
39.857
19.9613
24.0463
24.3648
23.5369
23.5404
24.8671
24.737
24.788
24.4455
24.3037
23.5111
24.3284
24.1714
24.0979
23.4014
23.4272
23.8858
23.6996
24.0515
23.8908
23.4955
23.5436
24.1024
24.2531
24.2678
24.5842
24.6047
24.7968
24.6819
25.1045
23.8076
23.4719
24.3032
23.9532
20.3252
19.9409
23.8038
24.4406
23.8136
24.2976
25.4853
25.2462
25.0475
24.7189
24.4741
23.9901
24.4035
24.2716
23.8636
23.4475
23.3749
23.9382
23.8711
23.9501
23.6471
23.4058
23.6897
24.2037
24.3324
24.6286
24.6163
24.7422
25.0229
25.2368
25.2698
24.0579
23.8631
24.4913
23.7865
20.1243
19.8537
23.854
25.2585
24.5604
24.458
25.5154
25.3317
25.0952
24.9172
24.6187
24.1742
24.5689
24.5686
24.2661
23.8992
24.0654
24.0544
24.2053
24.3529
24.1348
24.1202
24.0093
24.3396
24.3836
24.8195
24.6915
24.8412
25.1617
25.3604
25.5153
24.7292
24.5031
24.8343
23.4043
19.9182
19.69
23.9722
25.5471
25.1227
25.0808
26.1302
25.8124
25.4954
25.4036
25.2676
24.5285
25.1181
24.9167
24.6997
24.4558
24.4372
24.368
24.7259
24.7653
24.4968
24.4593
24.5942
24.6301
24.8002
25.3269
25.2918
25.3982
25.619
25.8842
26.1665
25.3775
25.0862
25.5837
23.63
19.7175
19.2883
24.1114
25.349
25.1664
25.1612
26.4956
26.1953
25.9078
25.8824
25.6133
24.941
25.5058
25.3195
25.1842
24.9935
25.0538
24.7826
25.1039
25.2029
24.9904
24.9598
25.1675
25.0227
25.1102
25.7974
25.8923
25.9387
26.1416
26.3603
26.5691
25.3993
25.1633
25.4666
23.7902
19.2216
18.7899
24.101
25.3144
25.1493
25.2339
26.3929
26.2202
26.0173
25.9605
25.6992
25.1981
25.673
25.4918
25.3791
25.3086
25.4422
25.1963
25.4011
25.5637
25.3396
25.3145
25.4681
25.2471
25.2607
25.948
25.9606
25.9877
26.1772
26.3289
26.4978
25.2964
25.1422
25.3605
23.8127
18.808
18.4373
23.6542
25.056
24.9919
25.2309
26.1356
26.1307
26.029
25.926
25.7899
25.2545
25.7195
25.557
25.5211
25.4073
25.6082
25.3603
25.5633
25.7571
25.4973
25.4887
25.5856
25.325
25.3031
25.9915
26.0465
25.9678
26.1563
26.2182
26.2261
25.3035
25.0311
25.0543
23.4816
18.4085
18.061
23.2496
24.7989
24.8252
25.2293
25.9241
26.0418
25.9876
25.897
25.8893
25.4245
25.789
25.727
25.5372
25.4948
25.7318
25.5192
25.5785
25.7803
25.5897
25.6209
25.6268
25.4788
25.5115
26.0344
26.0366
25.9517
26.1401
26.0921
25.9766
25.3264
24.9024
24.858
23.2003
18.0505
17.8537
22.9798
24.4991
24.6661
25.1526
25.7539
25.938
25.9408
25.8533
25.9162
25.5052
25.795
25.7599
25.7197
25.5488
25.8938
25.597
25.713
25.8786
25.7196
25.6666
25.7747
25.519
25.5449
26.0399
26.024
25.9064
26.1257
25.9994
25.8049
25.2492
24.7417
24.5308
22.939
17.7622
17.7012
22.8551
24.2624
24.5824
25.0903
25.644
25.8499
25.8657
25.7799
25.9111
25.6179
25.7665
25.7798
25.6812
25.6683
25.8715
25.7503
25.7134
25.8305
25.6827
25.6795
25.7126
25.5456
25.5623
25.9803
25.9694
25.8417
26.0488
25.9035
25.6964
25.1747
24.6544
24.3018
22.7675
17.6578
17.5929
22.7998
24.082
24.4663
24.9045
25.4239
25.6267
25.656
25.5834
25.7548
25.5119
25.638
25.6724
25.5986
25.5781
25.7825
25.7073
25.6502
25.7364
25.6027
25.5994
25.6089
25.4754
25.4556
25.8064
25.7734
25.6449
25.8295
25.6726
25.4903
24.9947
24.5326
24.1111
22.7205
17.5181
17.4938
22.6372
23.8204
24.2902
24.6986
25.1717
25.3723
25.3829
25.3269
25.5073
25.2948
25.4273
25.4604
25.413
25.403
25.5842
25.5485
25.5053
25.5423
25.4098
25.3999
25.4149
25.2948
25.2519
25.5392
25.4877
25.3988
25.5468
25.3992
25.2327
24.7798
24.356
23.8461
22.5665
17.4296
17.3803
22.4216
23.5816
24.1147
24.4867
24.9098
25.1077
25.1099
25.0788
25.2465
25.0825
25.2097
25.2211
25.198
25.1836
25.3265
25.3072
25.2775
25.2845
25.1528
25.1568
25.1924
25.0855
25.0353
25.2815
25.2175
25.1488
25.2644
25.1281
24.9678
24.5646
24.1805
23.5859
22.3912
17.3011
17.2154
22.2113
23.3311
23.902
24.2512
24.6201
24.8154
24.8129
24.8044
24.9652
24.8467
24.9765
24.9701
24.9708
24.9588
25.069
25.0429
25.0289
25.0047
24.8768
24.9061
24.9549
24.8528
24.8112
25.0118
24.9324
24.8787
24.9585
24.8308
24.6702
24.3185
23.9712
23.3219
22.2018
17.1331
17.0213
21.9525
23.057
23.6498
23.9738
24.2921
24.4843
24.4803
24.4962
24.6538
24.5772
24.7104
24.6966
24.7171
24.7092
24.7908
24.744
24.7452
24.6968
24.5739
24.6395
24.6887
24.5842
24.5565
24.7186
24.6233
24.5733
24.622
24.4983
24.3379
24.0327
23.7216
23.0351
21.9558
16.9204
16.7901
21.639
22.7508
23.353
23.6433
23.922
24.1086
24.1063
24.1457
24.3027
24.2641
24.403
24.3919
24.4236
24.425
24.4824
24.4088
24.4266
24.3585
24.2424
24.3482
24.3853
24.286
24.2661
24.3907
24.2804
24.2194
24.245
24.1226
23.9666
23.6997
23.424
22.7235
21.6515
16.6736
16.5224
21.2909
22.4047
23.0093
23.2626
23.5078
23.6859
23.6858
23.7473
23.9053
23.895
24.0486
24.042
24.0872
24.1075
24.1285
24.0371
24.0719
23.9889
23.8792
24.0256
24.0328
23.9434
23.9324
24.0162
23.8949
23.8162
23.8217
23.7013
23.5571
23.3185
23.0756
22.3797
21.2897
16.3876
16.2186
20.9081
22.0162
22.6199
22.8347
23.0557
23.215
23.2144
23.3033
23.4627
23.4791
23.6404
23.6426
23.7059
23.7454
23.7272
23.6286
23.6804
23.586
23.4822
23.6582
23.6353
23.5548
23.5476
23.5912
23.465
23.3727
23.3569
23.2365
23.1122
22.8894
22.681
22.0002
20.8795
16.0665
15.8861
20.4832
21.588
22.1848
22.3661
22.5721
22.7033
22.7083
22.8147
22.9784
23.0188
23.1819
23.1988
23.2792
23.3354
23.2778
23.1836
23.2513
23.1485
23.0493
23.2437
23.1927
23.121
23.1045
23.1184
22.9918
22.8882
22.8537
22.734
22.636
22.4182
22.2404
21.5835
20.43
15.7124
15.5306
20.0172
21.1261
21.7095
21.8637
22.0613
22.1639
22.1736
22.2887
22.4557
22.5138
22.6773
22.7115
22.8068
22.8771
22.7835
22.7024
22.784
22.6772
22.5812
22.7822
22.7046
22.6464
22.6153
22.6046
22.4799
22.3667
22.317
22.2015
22.1304
21.9148
21.7592
21.1355
19.9472
15.3384
15.1634
19.5161
20.6386
21.2033
21.3348
21.5286
21.6028
21.6193
21.7339
21.9008
21.9701
22.1328
22.1848
22.2919
22.3728
22.2506
22.1877
22.2806
22.1761
22.0806
22.2771
22.1767
22.135
22.0848
22.0577
21.9362
21.816
21.7553
21.6444
21.6
21.3854
21.2467
20.6599
19.4272
14.955
14.7928
18.9836
20.1327
20.6752
20.7894
20.9823
21.0284
21.0507
21.1601
21.3218
21.3981
21.5561
21.6244
21.7412
21.8296
21.6888
21.6444
21.7478
21.6503
21.5515
21.7342
21.6171
21.5928
21.5224
21.4836
21.3696
21.2458
21.1744
21.0702
21.0534
20.8404
20.7131
20.1647
18.8785
14.5738
14.4235
18.4282
19.6166
20.1337
20.2355
20.4267
20.4494
20.4751
20.5748
20.7271
20.8089
20.9572
21.039
21.1634
21.2551
21.1081
21.0805
21.1931
21.1056
20.9996
21.1616
21.0348
21.0275
20.9384
20.8907
20.7893
20.664
20.5818
20.4858
20.4977
20.288
20.1668
19.6537
18.3101
14.2015
14.0605
17.861
19.0965
19.5858
19.68
19.8683
19.8704
19.898
19.9852
20.1249
20.2113
20.346
20.438
20.5677
20.6584
20.5174
20.5026
20.6239
20.5481
20.4316
20.5685
20.4364
20.4446
20.3422
20.2879
20.2024
20.0775
19.9845
19.8992
19.9403
19.7354
19.6146
19.1333
17.7344
13.8406
13.7056
17.2921
18.5759
19.0371
19.1261
19.3107
19.2959
19.3228
19.3965
19.5209
19.6109
19.7304
19.8307
19.9624
20.049
19.9223
19.9166
20.0463
19.9828
19.8543
19.9633
19.8309
19.8533
19.7418
19.6826
19.6144
19.4903
19.3893
19.3169
19.3831
19.185
19.0606
18.6058
17.1622
13.4955
13.3632
16.7285
18.0554
18.4898
18.5752
18.7578
18.7275
18.7517
18.8128
18.9208
19.0124
19.1167
19.2233
19.3538
19.4365
19.3291
19.3288
19.4658
19.4137
19.2731
19.3536
19.2261
19.2609
19.1431
19.0815
19.0293
18.9074
18.8006
18.7418
18.8296
18.6386
18.5059
18.0729
16.5971
13.1646
13.0329
16.1681
17.5329
17.9428
18.0256
18.2077
18.1664
18.1856
18.2361
18.3282
18.4197
18.5092
18.6211
18.7483
18.8276
18.742
18.7461
18.8872
18.8454
18.6941
18.7452
18.6269
18.6724
18.5507
18.4887
18.4504
18.3302
18.2211
18.1744
18.2783
18.0941
17.9499
17.5327
16.0349
12.8533
12.7149
15.618
17.006
17.3954
17.4771
17.6593
17.6103
17.6243
17.6663
17.7451
17.8363
17.9115
18.0278
18.1503
18.2269
18.1632
18.171
18.3146
18.2819
18.1224
18.1443
18.0374
18.0911
17.9673
17.9056
17.8784
17.759
17.6492
17.6132
17.7288
17.5504
17.3923
16.985
15.4765
12.5534
12.4102
15.0797
16.4757
16.847
16.9271
17.1095
17.0567
17.0671
17.1022
17.1702
17.2621
17.3249
17.4459
17.5631
17.6367
17.5944
17.6063
17.7513
17.7262
17.5608
17.5543
17.4596
17.5181
17.3939
17.3325
17.3132
17.1931
17.0845
17.0567
17.1784
17.004
16.8322
16.4313
14.9323
12.2685
12.1176
14.5581
15.9433
16.2967
16.3744
16.5577
16.5035
16.512
16.5437
16.603
16.6961
16.7503
16.875
16.9867
17.059
17.0369
17.0529
17.1983
17.1792
17.0107
16.9773
16.8945
16.9541
16.8296
16.7674
16.7541
16.6319
16.5249
16.5031
16.6264
16.4537
16.2693
15.8737
14.4042
11.9927
11.8422
14.0486
15.4066
15.7432
15.8181
16.0031
15.9508
15.9581
15.9893
16.0421
16.1374
16.1858
16.315
16.4211
16.4936
16.4909
16.5108
16.6557
16.6401
16.4707
16.4133
16.3403
16.3985
16.2741
16.2102
16.1998
16.0743
15.9705
15.9514
16.0716
15.8978
15.703
15.3131
13.8931
11.7324
11.5763
13.5558
14.8664
15.186
15.2594
15.4461
15.398
15.4047
15.439
15.4879
15.5845
15.6315
15.7642
15.8648
15.9397
15.9553
15.9789
16.1233
16.1086
15.9402
15.8621
15.7959
15.8511
15.7267
15.6596
15.6503
15.5201
15.4192
15.4014
15.5152
15.3385
15.134
14.7518
13.3986
11.4797
11.326
13.0831
14.326
14.628
14.7004
14.8868
14.8463
14.8537
14.8917
14.9399
15.0374
15.0854
15.222
15.3176
15.3965
15.4287
15.4567
15.6005
15.5843
15.4181
15.3228
15.2604
15.3111
15.1859
15.1153
15.1049
14.9706
14.8716
14.8526
14.9571
14.7772
14.5651
14.1918
12.9269
11.2409
11.0822
12.6337
13.7883
14.0706
14.1419
14.3266
14.296
14.3057
14.3489
14.3987
14.4957
14.5477
14.6873
14.7789
14.8626
14.9097
14.9425
15.0859
15.0668
14.9038
14.7947
14.734
14.7775
14.6522
14.577
14.5639
14.426
14.3275
14.3061
14.3991
14.2164
13.9998
13.6418
12.4787
11.0089
10.8553
12.2081
13.2585
13.5178
13.5886
13.7697
13.7493
13.7628
13.8115
13.8645
13.9604
14.0172
14.1609
14.2493
14.3379
14.3978
14.4357
14.5788
14.5562
14.3969
14.277
14.2157
14.2504
14.1249
14.0457
14.0277
13.8874
13.7894
13.7631
13.8428
13.6585
13.4421
13.1038
12.0572
10.79
10.6328
11.806
12.7373
12.9734
13.0424
13.2195
13.2077
13.2261
13.2821
13.3391
13.4326
13.4956
13.6422
13.7289
13.8224
13.8929
13.9355
14.0799
14.0521
13.8972
13.7701
13.7059
13.7302
13.605
13.5225
13.4986
13.3558
13.2587
13.2273
13.2917
13.107
12.893
12.5824
11.6613
10.5773
10.4245
11.4277
12.2338
12.442
12.5085
12.6788
12.6762
12.6995
12.7615
12.8233
12.9152
12.9833
13.1315
13.2184
13.3164
13.3954
13.4426
13.5891
13.5551
13.4048
13.2735
13.2051
13.2185
13.0931
13.0081
12.9785
12.8341
12.738
12.7
12.7489
12.5656
12.3575
12.0793
11.2913
10.376
10.218
11.0753
11.7472
11.9262
11.9889
12.1509
12.1571
12.1858
12.2528
12.3193
12.4092
12.4832
12.6306
12.7181
12.8207
12.9063
12.958
13.1067
13.0661
12.9203
12.7877
12.7139
12.7167
12.5913
12.5046
12.469
12.3244
12.229
12.1859
12.2191
12.0386
11.8383
11.5986
10.9481
10.1772
10.0228
10.7459
11.2841
11.4303
11.4893
11.6386
11.6547
11.6882
11.758
11.8287
11.9163
11.9956
12.1411
12.2299
12.3357
12.4259
12.4833
12.6328
12.5865
12.4454
12.3121
12.2333
12.2258
12.101
12.0137
11.9722
11.8297
11.7354
11.6862
11.705
11.5303
11.3425
11.1439
10.6296
9.98829
9.8286
10.4407
10.8437
10.9574
11.0108
11.147
11.1702
11.2084
11.2807
11.3543
11.439
11.5233
11.6655
11.7549
11.8633
11.9562
12.0197
12.1692
12.1168
11.9812
11.8493
11.7652
11.7481
11.6247
11.5375
11.4906
11.3515
11.2584
11.206
11.2105
11.044
10.8711
10.7147
10.3351
9.80101
9.64321
10.1542
10.4293
10.5112
10.5576
10.6782
10.7075
10.7485
10.8231
10.8986
10.9795
11.0665
11.2043
11.295
11.4047
11.4983
11.568
11.7162
11.6584
11.5289
11.3993
11.311
11.2847
11.164
11.0777
11.0268
10.8933
10.8022
10.7456
10.7377
10.5817
10.4277
10.3138
10.0611
9.62158
9.45761
9.88888
10.0435
10.0918
10.1294
10.2354
10.2685
10.3114
10.3869
10.4631
10.5408
10.6282
10.7603
10.8517
10.9615
11.0547
11.1294
11.2757
11.2122
11.0895
10.9651
10.8722
10.8382
10.7217
10.6363
10.5821
10.4553
10.3668
10.3093
10.2903
10.1457
10.0126
9.93853
9.80631
9.44307
9.27894
9.64015
9.68384
9.70128
9.72973
9.8188
9.85521
9.8986
9.97298
10.0477
10.1223
10.2097
10.3348
10.4264
10.536
10.627
10.7054
10.8484
10.7813
10.6652
10.5453
10.4503
10.4102
10.2985
10.2153
10.1588
10.0404
9.95632
9.89752
9.86929
9.73751
9.6285
9.59392
9.56317
9.2686
9.10127
9.40404
9.35264
9.33871
9.35728
9.43133
9.46915
9.51209
9.58407
9.65588
9.72666
9.81219
9.93012
10.0209
10.1278
10.2168
10.2976
10.436
10.3662
10.2576
10.1437
10.0472
10.0027
9.89717
9.81589
9.75775
9.64796
9.56814
9.51174
9.47618
9.35812
9.27457
9.27005
9.33347
9.09464
8.92807
9.18264
9.04824
9.00273
9.01476
9.07143
9.11006
9.15103
9.21929
9.28692
9.35363
9.43812
9.54789
9.63633
9.74035
9.82552
9.90772
10.0406
9.96994
9.86791
9.759
9.66412
9.6167
9.51727
9.43951
9.38154
9.28096
9.20663
9.15308
9.11188
9.00968
8.9478
8.97398
9.11915
8.92557
8.75733
8.9744
8.76932
8.69364
8.69916
8.74042
8.77938
8.8165
8.88101
8.94372
9.00639
9.08637
9.18807
9.27426
9.37311
9.45478
9.53654
9.66272
9.5922
9.49795
9.39644
9.30209
9.25346
9.16098
9.08735
9.02868
8.93764
8.86904
8.81931
8.7756
8.68997
8.64665
8.70151
8.91258
8.75593
8.59009
8.77526
8.51514
8.41089
8.41029
8.43642
8.47345
8.50689
8.56625
8.62398
8.68153
8.75918
8.85254
8.93449
9.02858
9.10548
9.18597
9.30459
9.235
9.14826
9.05249
8.96206
8.91299
8.82816
8.75846
8.70145
8.62016
8.55705
8.51292
8.46691
8.39887
8.37126
8.45288
8.71851
8.59013
8.42437
8.58905
8.28231
8.15319
8.14589
8.15839
8.19409
8.22151
8.27724
8.32851
8.38268
8.45389
8.53941
8.61732
8.70484
8.77749
8.85532
8.96529
8.89849
8.82007
8.73129
8.64399
8.59604
8.51863
8.45358
8.39691
8.32531
8.2684
8.22874
8.18309
8.13256
8.11791
8.22444
8.5304
8.42463
8.2614
8.4062
8.07027
7.92039
7.90389
7.90547
7.93625
7.95964
8.0101
8.05576
8.10417
8.1721
8.24929
8.32192
8.40264
8.47151
8.54605
8.64682
8.58275
8.51163
8.42963
8.34752
8.30145
8.23204
8.17057
8.11749
8.05492
8.00144
7.96975
7.92492
7.89052
7.88664
8.01553
8.35131
8.25991
8.10041
8.2367
7.87437
7.70601
7.68317
7.67292
7.70169
7.7173
7.76524
7.80467
7.8508
7.91174
7.98135
8.04909
8.12224
8.18654
8.25738
8.3485
8.28939
8.2252
8.15028
8.07329
8.0299
7.96603
7.91053
7.85888
7.80385
7.75753
7.72922
7.68721
7.66912
7.67428
7.82105
8.17648
8.0976
7.94249
8.06575
7.69366
7.51305
7.48084
7.462
7.48498
7.49757
7.5403
7.57331
7.61435
7.67175
7.7337
7.79659
7.86183
7.92228
7.9885
8.07038
8.01538
7.95824
7.88989
7.81835
7.77778
7.72185
7.67026
7.62271
7.57547
7.53128
7.51157
7.47232
7.46634
7.48127
7.64191
8.0088
7.93797
7.78872
7.90748
7.52536
7.3328
7.29541
7.2668
7.28718
7.29226
7.33254
7.36116
7.40022
7.4515
7.50746
7.56408
7.62247
7.67884
7.73925
7.8113
7.76312
7.71185
7.64953
7.58428
7.54734
7.49613
7.4496
7.40387
7.36306
7.32522
7.30689
7.27242
7.27931
7.30228
7.47208
7.84325
7.77783
7.63279
7.74611
7.36731
7.16934
7.12371
7.08812
7.10359
7.10718
7.14232
7.165
7.20071
7.24761
7.29714
7.34937
7.40059
7.45314
7.50787
7.57228
7.52837
7.48265
7.4271
7.36717
7.33364
7.28874
7.24635
7.20462
7.17004
7.13402
7.122
7.09047
7.1077
7.13806
7.31386
7.68074
7.62168
7.483
7.59109
7.21617
7.01444
6.96356
6.92093
6.93365
6.93168
6.96486
6.98455
7.01811
7.06077
7.10546
7.15157
7.19599
7.24602
7.29467
7.35006
7.31337
7.27152
7.22185
7.16831
7.13753
7.09589
7.05839
7.01836
6.98963
6.95671
6.94673
6.91983
6.94567
6.98273
7.15951
7.52277
7.46636
7.3299
7.43907
7.07362
6.87074
6.81448
6.76677
6.77492
6.77172
6.80037
6.81618
6.84888
6.88611
6.92735
6.96914
7.00716
7.05252
7.09668
7.14607
7.11223
7.07523
7.03216
6.98311
6.95589
6.91882
6.88397
6.84897
6.82359
6.79274
6.78603
6.76108
6.79555
6.83813
7.01411
7.36491
7.30931
7.17898
7.28366
6.93156
6.73246
6.67136
6.62006
6.62616
6.62012
6.64714
6.65992
6.69114
6.72575
6.76222
6.79883
6.83137
6.87561
6.91294
6.9552
6.92811
6.89479
6.85591
6.81292
6.7878
6.75181
6.72298
6.68787
6.66727
6.6388
6.63369
6.61297
6.65281
6.69809
6.86929
7.20976
7.15952
7.03066
7.13877
6.79761
6.60078
6.53806
6.48338
6.48726
6.47916
6.50244
6.51351
6.54323
6.57494
6.60978
6.64156
6.66971
6.70949
6.74403
6.7791
6.7554
6.72559
6.69275
6.65281
6.63093
6.59998
6.57073
6.54125
6.52289
6.49413
6.4914
6.47156
6.51571
6.56554
6.73163
7.06257
7.00574
6.88311
6.9922
6.66232
6.47353
6.40706
6.35188
6.35533
6.34562
6.36832
6.37551
6.40656
6.43433
6.46487
6.49442
6.51749
6.55587
6.58424
6.61579
6.59617
6.56944
6.54047
6.50442
6.48461
6.45321
6.43156
6.40058
6.38361
6.36047
6.35719
6.33918
6.38618
6.43575
6.59505
6.91315
6.86136
6.74577
6.86181
6.53634
6.3489
6.28496
6.23069
6.23308
6.22193
6.24227
6.24751
6.2744
6.30352
6.3325
6.3573
6.37732
6.41208
6.43762
6.46113
6.44737
6.42316
6.39791
6.36491
6.34722
6.32067
6.29656
6.27117
6.25625
6.23206
6.23217
6.21381
6.26151
6.31285
6.46274
6.78188
6.72364
6.62442
6.73052
6.41159
6.23255
6.167
6.11379
6.11575
6.10395
6.12477
6.12798
6.15484
6.17924
6.20609
6.23056
6.2462
6.27808
6.29846
6.32152
6.30804
6.28727
6.26492
6.23578
6.21927
6.19316
6.17579
6.14817
6.13423
6.11598
6.11272
6.09448
6.14274
6.19252
6.34062
6.65999
6.59453
6.49919
6.62341
6.29548
6.11777
6.05412
6.00583
6.00999
5.99721
6.01667
6.01545
6.04059
6.06719
6.08951
6.11245
6.12682
6.15456
6.17299
6.18832
6.18102
6.16212
6.14235
6.1145
6.0995
6.07859
6.05777
6.03585
6.02084
6.00529
6.0027
5.98477
6.03102
6.07902
6.22217
6.54968
6.48429
6.40666
6.52811
6.18683
6.01253
5.9524
5.90855
5.90879
5.89718
5.91637
5.91421
5.93752
5.96128
5.98232
6.00605
6.01489
6.04138
6.0536
6.06895
6.06206
6.04631
6.02866
6.00457
5.99044
5.97312
5.95545
5.92905
5.91751
5.90403
5.90173
5.88356
5.92869
5.97599
6.11874
6.454
6.37492
6.31783
6.45339
6.09255
5.91298
5.85463
5.81705
5.82015
5.80754
5.82701
5.82089
5.84171
5.86385
5.88315
5.90834
5.91584
5.93604
5.94792
5.96136
5.95502
5.94005
5.92443
5.90091
5.88985
5.87333
5.8566
5.83307
5.82286
5.81233
5.80743
5.79107
5.83169
5.87799
6.02952
6.38744
6.2971
6.25756
6.38889
6.00616
5.82601
5.76959
5.74158
5.73616
5.72532
5.74495
5.734
5.7573
5.77832
5.79285
5.81927
5.82527
5.84485
5.85056
5.86218
5.85897
5.84747
5.83256
5.8117
5.79947
5.79041
5.77064
5.74512
5.73902
5.73083
5.72583
5.7118
5.74733
5.79385
5.94828
6.33458
6.22548
6.22957
6.35363
5.9321
5.75123
5.69705
5.66896
5.66686
5.65664
5.67359
5.66445
5.68398
5.7011
5.71602
5.74343
5.7447
5.76004
5.76626
5.77927
5.77573
5.76317
5.74763
5.73105
5.72301
5.71024
5.69797
5.66936
5.66031
5.65786
5.65376
5.6391
5.67311
5.7229
5.88217
6.30637
6.19721
6.20114
6.33762
5.87683
5.6855
5.62675
5.61308
5.60547
5.59556
5.60959
5.59536
5.62261
5.63566
5.64798
5.67281
5.67379
5.68666
5.69369
5.701
5.70172
5.68966
5.67747
5.66565
5.65387
5.64533
5.62571
5.59735
5.59891
5.5952
5.59233
5.57934
5.6132
5.6577
5.83179
6.2718
6.16407
6.19698
6.32474
5.82669
5.63851
5.57666
5.56451
5.55418
5.54426
5.55724
5.53926
5.56803
5.57724
5.58647
5.61291
5.61632
5.62851
5.63266
5.63986
5.64138
5.63199
5.61719
5.60495
5.59645
5.58945
5.57225
5.54482
5.54706
5.5515
5.54776
5.53337
5.55911
5.61168
5.79226
6.25855
6.16123
6.18226
6.31121
5.79463
5.59536
5.52765
5.52534
5.5162
5.50828
5.51293
5.50914
5.5307
5.53759
5.54645
5.56607
5.56337
5.56962
5.58769
5.58819
5.59186
5.58227
5.56684
5.56022
5.55183
5.54312
5.52369
5.49835
5.5101
5.51204
5.50604
5.48698
5.51898
5.56872
5.76556
6.2552
6.16108
6.19014
6.29357
5.78097
5.55985
5.50839
5.50123
5.48132
5.47367
5.48009
5.48314
5.49613
5.50569
5.51485
5.52244
5.52693
5.53092
5.54673
5.54991
5.54659
5.54383
5.53227
5.52247
5.5152
5.51637
5.49358
5.46896
5.47601
5.48712
5.48083
5.46591
5.51065
5.56076
5.75141
6.23805
6.15017
6.18401
6.29383
5.76194
5.54767
5.49567
5.4809
5.46676
5.45063
5.46163
5.46613
5.47924
5.4791
5.4975
5.49343
5.50803
5.50704
5.52165
5.51884
5.51822
5.51305
5.50191
5.50582
5.48742
5.48919
5.47656
5.45521
5.46132
5.47287
5.46778
5.45724
5.50388
5.55349
5.73746
6.23456
6.14819
6.18086
6.28954
5.75045
5.54301
5.49446
5.47494
5.46122
5.44941
5.45285
5.45716
5.47583
5.46964
5.48888
5.48125
5.50651
5.49597
5.51269
5.50998
5.5094
5.51122
5.49966
5.50139
5.47812
5.48786
5.46795
5.44058
5.45749
5.46409
5.46107
5.44172
5.48997
5.53933
5.73722
6.23024
6.14879
6.17527
6.27499
5.74463
5.53627
5.49138
5.47047
5.45288
5.44875
5.4478
5.4517
5.47389
5.46769
5.48306
5.48426
5.4931
5.48459
5.50318
5.50362
5.49803
5.50662
5.49546
5.4902
5.4717
5.48441
5.45365
5.43709
5.45069
5.46279
5.44932
5.43949
5.47974
5.53865
5.73375
6.22108
6.15154
6.18717
6.2756
5.73783
5.52932
5.48328
5.47224
5.45377
5.4418
5.45041
5.44134
5.46668
5.46116
5.48465
5.4816
5.49076
5.4842
5.49778
5.50278
5.49201
5.49587
5.4871
5.4888
5.47016
5.47442
5.44596
5.43175
5.44262
5.45962
5.45059
5.43572
5.46674
5.53584
5.72209
6.22415
6.14639
6.18098
6.27264
5.72484
5.51923
5.47565
5.47062
5.45188
5.44262
5.44955
5.44246
5.45619
5.4619
5.48015
5.47283
5.48178
5.48239
5.49949
5.49523
5.49409
5.49817
5.47843
5.4864
5.46784
5.47421
5.44851
5.43376
5.44347
5.4548
5.44297
5.42943
5.46814
5.52695
5.72367
6.22125
6.1502
6.18348
6.26276
5.72538
5.52073
5.46459
5.46733
5.44841
5.43488
5.44669
5.43556
5.45783
5.45638
5.47985
5.47753
5.4813
5.48494
5.49728
5.50934
5.49148
5.50352
5.48926
5.48769
5.4695
5.47559
5.45414
5.43228
5.44054
5.45473
5.44919
5.4294
5.46289
5.52797
5.72092
6.20654
6.15064
6.19104
6.24637
5.72295
5.52005
5.46922
5.46881
5.45164
5.44353
5.45081
5.44812
5.45673
5.47013
5.48457
5.48382
5.49589
5.49041
5.51095
5.51208
5.506
5.50611
5.49435
5.49262
5.47467
5.48594
5.45728
5.4433
5.44829
5.45113
5.44737
5.42008
5.46913
5.52657
5.71018
6.20715
6.1619
6.20617
6.24833
5.71221
5.51787
5.46355
5.46081
5.45166
5.4429
5.44671
5.45066
5.46426
5.46682
5.49525
5.48294
5.49145
5.48323
5.50539
5.51009
5.50321
5.50494
5.48768
5.48492
5.47367
5.4797
5.45708
5.43811
5.43964
5.44639
5.4457
5.42271
5.46551
5.51881
5.71196
6.19536
6.19035
6.23201
6.23929
5.71274
5.51821
5.46956
5.46327
5.45127
5.44223
5.44931
5.45021
5.45974
5.46899
5.49204
5.47705
5.48506
5.48191
5.50487
5.50745
5.49203
5.50212
5.47859
5.48473
5.47358
5.46975
5.45637
5.43186
5.4401
5.45014
5.4368
5.42201
5.46046
5.52158
5.71096
6.20742
6.19725
6.23818
6.23791
5.71046
5.5111
5.46688
5.45758
5.45051
5.44104
5.44869
5.44828
5.45941
5.46432
5.48612
5.47538
5.48998
5.47667
5.50234
5.49907
5.50066
5.49754
5.48847
5.48125
5.47574
5.47871
5.45865
5.43904
5.43528
5.4477
5.43914
5.42039
5.4638
5.51303
5.7045
6.20733
6.19267
6.24308
6.23574
5.70572
5.51557
5.46732
5.45641
5.44399
5.43613
5.45122
5.44366
5.45742
5.4675
5.49048
5.48075
5.49737
5.49155
5.51464
5.52144
5.50667
5.49787
5.49645
5.5046
5.47583
5.48458
5.46418
5.44819
5.44054
5.44716
5.4427
5.42169
5.46129
5.51888
5.70338
6.20565
6.18951
6.24948
6.24621
5.69988
5.51706
5.47099
5.45828
5.45259
5.4459
5.4479
5.45599
5.48424
5.47387
5.50413
5.50698
5.50483
5.49985
5.52063
5.52826
5.51108
5.52265
5.5157
5.50978
5.49246
5.49014
5.47132
5.45324
5.44189
5.45708
5.43919
5.42105
5.47233
5.51427
5.69113
6.20138
6.19711
6.25616
6.23371
5.69446
5.51752
5.4775
5.47446
5.44974
5.44877
5.46992
5.45779
5.48085
5.49558
5.51944
5.507
5.5146
5.51075
5.53227
5.52961
5.52315
5.52517
5.51111
5.51065
5.50211
5.49809
5.46453
5.45516
5.44878
5.45004
5.42977
5.42882
5.47152
5.50602
5.69292
6.20198
6.22275
6.2643
6.23821
5.69275
5.52778
5.47493
5.46758
5.4621
5.45706
5.46452
5.46863
5.47121
5.49327
5.51391
5.50504
5.51131
5.50718
5.52662
5.52333
5.52265
5.52525
5.50239
5.50485
5.4998
5.49541
5.46889
5.45482
5.44881
5.4526
5.43303
5.4269
5.47343
5.51307
5.69364
6.20052
6.26026
6.28615
6.23407
5.67455
5.52414
5.46866
5.4728
5.46227
5.45739
5.4599
5.46803
5.47524
5.48902
5.51302
5.49889
5.5085
5.50494
5.52722
5.51391
5.52218
5.52261
5.50279
5.49585
5.49667
5.49374
5.46565
5.45513
5.4417
5.44778
5.42816
5.42131
5.46973
5.51154
5.70411
6.20556
6.29695
6.31969
6.23296
5.69559
5.52173
5.47642
5.46444
5.46417
5.45485
5.46151
5.46822
5.46736
5.49276
5.50507
5.48313
5.50779
5.50444
5.52369
5.52075
5.52156
5.5181
5.50203
5.50291
5.49295
5.49456
5.45734
5.45487
5.45495
5.45097
5.42862
5.42425
5.47613
5.50852
5.72116
6.20669
6.28042
6.3589
6.26027
5.71085
5.53057
5.47504
5.47148
5.46829
5.45074
5.46882
5.47108
5.48061
5.48939
5.50887
5.51694
5.50603
5.50465
5.5395
5.53805
5.54018
5.54261
5.50689
5.51275
5.51791
5.49391
5.49179
5.4564
5.4686
5.45808
5.43751
5.42655
5.47833
5.52086
5.74234
6.2016
6.30178
6.39842
6.26951
5.76868
5.53698
5.48033
5.48111
5.46985
5.46875
5.4867
5.48563
5.49881
5.5249
5.54171
5.54766
5.56731
5.55833
5.58239
5.56818
5.56514
5.56632
5.55983
5.54961
5.5436
5.54301
5.51612
5.49676
5.48781
5.49685
5.45855
5.46582
5.48665
5.52032
5.72745
6.21913
6.29162
6.38638
6.26164
5.76229
5.54505
5.49268
5.52261
5.50465
5.48185
5.50667
5.5047
5.51909
5.54035
5.56367
5.59021
5.62626
5.57397
5.64379
5.62049
5.62406
5.62656
5.58364
5.5989
5.59933
5.55972
5.53287
5.51349
5.50369
5.51482
5.4935
5.4797
5.49304
5.52254
5.73289
6.20932
6.30624
6.41825
6.27771
5.75072
5.55807
5.51902
5.53552
5.51702
5.52221
5.51382
5.54976
5.55283
5.58234
5.60105
5.6268
5.61425
5.60319
5.64983
5.62736
5.62584
5.63216
5.61047
5.60401
5.60107
5.57843
5.55234
5.53152
5.51999
5.52878
5.4961
5.49644
5.49727
5.52285
5.73413
6.20107
6.31048
6.41264
6.26679
5.75468
5.54661
5.52303
5.55115
5.5197
5.52441
5.52662
5.55234
5.55302
5.58586
5.59699
5.61616
5.59769
5.59322
5.64858
5.63421
5.61683
5.62993
5.60176
5.61136
5.59997
5.56919
5.55038
5.53196
5.52033
5.52358
5.50706
5.49855
5.50594
5.51947
5.7258
6.19824
6.369
6.42416
6.25717
5.75266
5.55566
5.52741
5.55325
5.52084
5.52576
5.52761
5.55276
5.56197
5.58619
5.58457
5.60586
5.58219
5.58697
5.64096
5.62305
5.60703
5.62092
5.59257
5.60464
5.59047
5.56275
5.54896
5.53233
5.52124
5.51056
5.49988
5.50113
5.50819
5.52935
5.72218
6.19471
6.39794
6.44426
6.24276
5.74288
5.5457
5.52895
5.55471
5.52669
5.52302
5.52896
5.5494
5.55358
5.57687
5.57986
5.59215
5.56513
5.57491
5.63063
5.62456
5.6088
5.60635
5.59465
5.59155
5.59088
5.55405
5.54097
5.52981
5.51627
5.51099
5.4915
5.50016
5.50929
5.52873
5.70774
6.18779
6.44376
6.48574
6.23671
5.72773
5.54427
5.53182
5.54929
5.5271
5.52217
5.52922
5.54726
5.54622
5.56507
5.57603
5.57387
5.54778
5.57974
5.62161
5.62206
5.6064
5.60537
5.59267
5.58291
5.58747
5.55491
5.5273
5.52799
5.5088
5.50726
5.49525
5.49325
5.50747
5.52141
5.70438
6.17226
6.47736
6.53186
6.20983
5.72823
5.55033
5.52461
5.54029
5.53403
5.51387
5.52613
5.5405
5.54002
5.56059
5.56844
5.55924
5.52671
5.5796
5.60904
5.61332
5.59927
5.60165
5.58645
5.57886
5.57864
5.55235
5.52191
5.52073
5.50118
5.49565
5.48791
5.48296
5.50757
5.52004
5.69319
6.14894
6.49939
6.56647
6.19418
5.72726
5.56137
5.5293
5.53107
5.53199
5.51532
5.52377
5.53017
5.54133
5.55016
5.5572
5.54216
5.50362
5.57792
5.60876
5.61275
5.58977
5.59152
5.57824
5.57118
5.56929
5.54775
5.51853
5.51391
5.50267
5.49566
5.49287
5.48802
5.50491
5.52037
5.70409
6.11983
6.54217
6.59505
6.19091
5.73045
5.55506
5.52574
5.5345
5.53117
5.51424
5.51981
5.53261
5.53495
5.55071
5.5596
5.53674
5.49777
5.57894
5.60662
5.60395
5.59131
5.59122
5.5804
5.57171
5.55956
5.54588
5.51276
5.5118
5.50202
5.49414
5.48687
5.48506
5.50517
5.52586
5.7087
6.08867
6.56191
6.62533
6.1843
5.7316
5.56574
5.52646
5.52773
5.52625
5.50679
5.51873
5.5328
5.53941
5.54398
5.55938
5.53127
5.49595
5.57942
5.60068
5.60791
5.59055
5.58943
5.57543
5.56502
5.56008
5.54298
5.51598
5.50922
5.50116
5.49227
5.4837
5.48577
5.5058
5.53552
5.72059
6.05659
6.57071
6.66282
6.17534
5.74975
5.56575
5.52566
5.53367
5.52316
5.51152
5.51608
5.53143
5.53412
5.53891
5.55751
5.52704
5.49745
5.57405
5.59421
5.60629
5.589
5.58065
5.58045
5.56946
5.55869
5.54236
5.51687
5.51327
5.49395
5.49331
5.48414
5.48378
5.49976
5.54229
5.72246
6.02519
6.59602
6.71323
6.1466
5.75938
5.56458
5.53948
5.52882
5.51906
5.51203
5.51616
5.53326
5.53816
5.545
5.55574
5.53079
5.49503
5.58059
5.60176
5.60131
5.58347
5.58541
5.57622
5.56736
5.54951
5.54208
5.51523
5.51494
5.50115
5.4929
5.47653
5.493
5.50492
5.5432
5.71962
6.00049
6.60385
6.76639
6.11731
5.80649
5.58008
5.54087
5.51977
5.52508
5.51013
5.51431
5.53202
5.5382
5.54485
5.55288
5.52996
5.49676
5.58241
5.59925
5.60752
5.58134
5.58385
5.58128
5.56362
5.55356
5.53645
5.50718
5.51638
5.50229
5.49403
5.48402
5.49438
5.50434
5.55775
5.74327
5.9793
6.62285
6.77511
6.09759
5.80632
5.57601
5.542
5.52508
5.52299
5.50409
5.5109
5.53275
5.53797
5.54574
5.55922
5.52817
5.49702
5.58295
5.59599
5.60809
5.58196
5.58454
5.58357
5.55993
5.5551
5.5345
5.51397
5.51565
5.5031
5.49444
5.48184
5.48789
5.51662
5.57383
5.73869
5.95804
6.63669
6.7552
6.07519
5.80327
5.56902
5.53891
5.5273
5.53233
5.50597
5.50981
5.53305
5.54122
5.54645
5.555
5.53592
5.50064
5.5794
5.60423
5.60384
5.58418
5.58365
5.58411
5.56721
5.55426
5.5358
5.50951
5.51206
5.50642
5.49017
5.48419
5.49682
5.51927
5.57604
5.73469
5.93924
6.63032
6.76158
6.05573
5.79678
5.55869
5.52844
5.52438
5.53248
5.50392
5.51904
5.53062
5.54223
5.54577
5.55969
5.53762
5.50123
5.57605
5.60475
5.61091
5.58377
5.59155
5.58221
5.56204
5.55573
5.53503
5.52038
5.52054
5.51027
5.49241
5.48363
5.49603
5.53188
5.57934
5.72189
5.92718
6.63784
6.79057
6.01939
5.79035
5.55035
5.53706
5.51879
5.52983
5.51248
5.51977
5.53801
5.54416
5.55332
5.56094
5.53619
5.5088
5.58257
5.60147
5.61047
5.59091
5.59235
5.58333
5.5681
5.54834
5.5427
5.52299
5.52108
5.50974
5.49349
5.494
5.48768
5.52325
5.57436
5.71273
5.91157
6.66215
6.80249
5.97916
5.77431
5.53883
5.52708
5.52529
5.53746
5.51328
5.51604
5.53734
5.54014
5.55404
5.56166
5.54227
5.50919
5.57935
5.60913
5.61252
5.59137
5.59282
5.58231
5.57111
5.55493
5.54335
5.52648
5.52543
5.52029
5.50448
5.50042
5.48583
5.5277
5.56499
5.70493
5.89