/*--------------------------------*- C++ -*----------------------------------*\
  =========                 |
  \\      /  F ield         | OpenFOAM: The Open Source CFD Toolbox
   \\    /   O peration     | Website:  https://openfoam.org
    \\  /    A nd           | Version:  8
     \\/     M anipulation  |
\*---------------------------------------------------------------------------*/
FoamFile
{
    version     2.0;
    format      ascii;
    class       volScalarField;
    location    "100";
    object      p_rgh;
}
// * * * * * * * * * * * * * * * * * * * * * * * * * * * * * * * * * * * * * //

dimensions      [1 -1 -2 0 0 0 0];

internalField   nonuniform List<scalar> 
78750
(
58.593
60.2502
60.4491
59.8672
59.7937
60.2753
60.3095
60.4259
59.9947
59.9111
59.5929
59.9911
60.2876
60.2086
60.039
60.012
60.1214
60.2017
60.2463
60.2661
60.0295
60.1062
59.854
59.8657
60.3685
60.3663
59.9943
60.0169
60.1438
60.1703
59.7644
59.8751
60.3327
60.4367
59.0855
58.4077
60.2301
60.4295
59.8278
59.7405
60.2468
60.2723
60.227
59.955
59.9007
59.217
59.9299
60.0491
59.9871
59.6994
59.718
59.7854
59.8408
59.8602
59.9064
59.7098
59.8269
59.8432
59.8329
60.1698
60.1766
59.9787
60.0003
60.1164
60.1759
59.6928
59.6813
60.3027
60.3183
58.8683
58.1565
59.8987
59.8724
59.1467
59.025
59.4339
59.3325
58.9753
58.9957
59.0012
58.5063
59.1803
59.0355
58.8886
58.796
58.755
58.7466
58.7639
58.8633
58.9014
58.687
58.797
58.9235
58.9223
59.146
59.0599
59.0541
59.0152
59.1623
59.3276
58.9232
59.0828
59.7981
59.9586
58.3238
57.8023
59.1857
58.939
58.0544
57.9051
57.8043
57.4216
57.3511
57.3395
57.2168
57.3448
57.643
57.5303
57.5186
57.428
57.5035
57.4526
57.4494
57.4969
57.5266
57.2667
57.3541
57.4087
57.2259
57.5598
57.4251
57.1658
57.2196
57.4367
57.6916
57.8673
58.0978
58.8097
59.3803
57.5733
57.1108
58.4474
57.8378
57.1032
56.9337
56.6137
56.279
56.2062
56.1407
56.2035
56.2836
56.3367
56.2801
56.3477
56.2016
56.2067
56.2016
56.3356
56.1876
56.2061
56.018
56.0585
56.0726
56.1571
56.1611
56.1556
56.0257
56.0297
56.1038
56.2194
56.8203
57.1156
57.8207
58.1382
56.8719
56.1572
57.1286
56.9263
56.1909
55.833
55.4313
55.0901
54.9629
54.9593
55.0438
55.1572
55.1099
55.1208
55.1751
55.0249
55.1549
55.1617
55.1476
55.181
55.2304
55.0787
55.074
55.048
54.997
55.0226
55.0463
54.8272
54.8256
54.9443
55.2653
55.837
56.1831
56.8748
57.0063
55.983
55.039
56.1322
55.8088
55.0445
54.7609
54.2877
53.9657
53.8643
53.8564
53.7736
53.9552
53.9247
53.8776
53.9875
53.8898
53.9094
54.0041
53.9891
54.0417
54.031
53.8945
53.9198
53.8534
53.8553
53.8571
53.8048
53.6743
53.7206
53.8876
54.0317
54.65
55.0462
55.8068
56.0981
54.9918
54.1736
54.9842
54.5841
53.9097
53.5889
53.0777
52.7941
52.6513
52.6372
52.7733
52.7697
52.8487
52.8883
52.8865
52.8081
52.8435
52.8798
52.8815
52.8419
52.8363
52.7094
52.7069
52.6859
52.7622
52.6631
52.6556
52.5878
52.5093
52.7059
52.8683
53.48
53.867
54.597
54.882
54.0796
53.0632
53.6381
53.3564
52.7165
52.3299
51.9033
51.6567
51.5804
51.5785
51.5966
51.799
51.7704
51.7558
51.8634
51.7301
51.7677
51.8221
51.8086
51.8538
51.8281
51.7436
51.7447
51.7357
51.6935
51.661
51.5852
51.4871
51.4197
51.6245
51.799
52.3056
52.6885
53.3213
53.5818
52.9691
51.9041
52.2915
51.9021
51.3908
51.0597
50.6427
50.4276
50.2649
50.2626
50.3951
50.5368
50.5798
50.6538
50.6686
50.6098
50.6773
50.7282
50.768
50.7204
50.6226
50.544
50.5156
50.5342
50.5363
50.4537
50.27
50.2618
50.0987
50.3348
50.5034
50.9553
51.3167
51.9431
52.1473
51.8812
50.9119
50.9297
50.7833
50.3778
49.9831
49.5904
49.44
49.409
49.3624
49.2789
49.5501
49.4523
49.4548
49.6532
49.4274
49.5089
49.5501
49.6039
49.6147
49.4703
49.4368
49.4303
49.5714
49.4378
49.4818
49.3637
49.2277
49.2533
49.479
49.6296
50.0172
50.3085
50.7087
50.9659
50.8293
49.8136
49.9425
49.7992
49.5321
49.3482
49.0549
48.7576
48.6269
48.5758
48.5292
48.6808
48.5791
48.5604
48.6964
48.5853
48.6396
48.6983
48.7521
48.6506
48.4678
48.4655
48.5643
48.6454
48.5748
48.5984
48.5434
48.515
48.5257
48.7163
48.8628
49.2697
49.4468
49.8873
50.0285
49.9386
49.3736
49.3773
49.0913
48.943
48.8003
48.5878
48.2691
48.1682
48.1138
48.1014
48.1575
48.1027
48.1154
48.0982
47.9802
47.9793
48.018
48.0653
48.0032
47.9944
48.0222
47.9965
48.0647
48.0875
48.0774
48.0564
48.0437
48.0826
48.268
48.3854
48.7686
48.8254
49.1692
49.4721
49.3118
48.8839
48.8341
48.4822
48.2942
48.2472
47.9109
47.8606
47.6058
47.5555
47.7049
47.5638
47.6752
47.6566
47.5195
47.5854
47.5772
47.612
47.6486
47.6114
47.6545
47.6183
47.4594
47.5041
47.6631
47.4936
47.4971
47.6547
47.5314
47.6889
47.7869
48.0749
48.1982
48.6118
48.6712
48.7651
48.2784
48.1949
48.1782
48.0178
47.8498
47.5672
47.5109
47.4227
47.3811
47.3188
47.3661
47.2527
47.2744
47.1299
47.149
47.1421
47.1677
47.1934
47.2862
47.2008
47.1208
47.0688
47.1184
47.2223
47.302
47.3149
47.3066
47.3675
47.4972
47.5968
47.8565
47.9508
48.0818
48.1359
48.1228
47.9634
47.9427
47.9237
47.7911
47.6819
47.4554
47.3956
47.302
47.2672
47.2081
47.2284
47.1163
47.106
46.9519
47.0299
47.0228
47.0393
47.0583
47.0171
47.0085
46.9152
46.8925
46.958
47.0787
47.1674
47.1871
47.2121
47.2607
47.379
47.4526
47.675
47.7554
47.8793
47.8107
47.8686
47.7725
47.7306
47.7286
47.6266
47.5519
47.3666
47.313
47.2148
47.1831
47.1147
47.1273
47.0415
47.0275
46.9151
46.9678
46.9569
46.9668
46.9767
46.9559
46.9459
46.8784
46.8597
46.9131
47.0043
47.0747
47.0922
47.1412
47.183
47.2969
47.3538
47.5437
47.6038
47.6844
47.6348
47.6506
47.5764
47.5707
47.6002
47.5219
47.4669
47.3115
47.2693
47.1775
47.1494
47.075
47.084
47.007
46.9908
46.9104
46.9321
46.9202
46.9235
46.9253
46.9168
46.9107
46.8726
46.8611
46.909
46.9725
47.0373
47.0598
47.1118
47.1522
47.2596
47.2986
47.467
47.5077
47.5552
47.5062
47.4817
47.436
47.4608
47.5083
47.4537
47.4172
47.2832
47.2535
47.1667
47.1419
47.0697
47.0722
47.0071
46.991
46.93
46.9374
46.927
46.9263
46.9243
46.9178
46.9142
46.8934
46.8868
46.9308
46.9765
47.0369
47.0546
47.1052
47.1452
47.2468
47.2719
47.4187
47.4419
47.4656
47.4155
47.3588
47.3316
47.3848
47.4412
47.4105
47.3875
47.2758
47.2534
47.1726
47.1515
47.0833
47.0815
47.0258
47.0099
46.9627
46.9619
46.9528
46.95
46.9464
46.9423
46.9391
46.9287
46.925
46.965
46.999
47.0544
47.0681
47.1175
47.1544
47.2498
47.2648
47.3903
47.399
47.4027
47.3516
47.2651
47.2515
47.3311
47.3942
47.3828
47.3723
47.2804
47.2632
47.1886
47.1712
47.108
47.1045
47.0558
47.0401
47.003
46.9975
46.9892
46.9859
46.9814
46.9793
46.9759
46.9722
46.9711
47.0058
47.0321
47.0804
47.0949
47.1441
47.1724
47.2602
47.2708
47.3757
47.3729
47.3624
47.3025
47.1981
47.1972
47.2905
47.3641
47.3672
47.3659
47.2907
47.279
47.2112
47.1965
47.1381
47.134
47.091
47.0759
47.0464
47.0388
47.0306
47.0276
47.0225
47.0213
47.0184
47.019
47.0202
47.0493
47.0696
47.1125
47.1272
47.1751
47.1957
47.2757
47.2837
47.3702
47.359
47.3368
47.2689
47.1541
47.1644
47.2664
47.3432
47.3592
47.3652
47.3038
47.2965
47.2358
47.2232
47.1711
47.1664
47.1267
47.1133
47.0892
47.0813
47.0731
47.0703
47.065
47.0645
47.0618
47.0649
47.0677
47.0923
47.1084
47.1463
47.1614
47.2061
47.2224
47.2945
47.2989
47.3694
47.3523
47.3203
47.2485
47.1287
47.1488
47.2528
47.3287
47.3557
47.3679
47.3174
47.3137
47.2586
47.2495
47.2023
47.1969
47.1608
47.1494
47.1291
47.1217
47.114
47.1113
47.1059
47.1063
47.1037
47.1083
47.1112
47.1326
47.1455
47.1797
47.1933
47.235
47.2485
47.3123
47.3132
47.3704
47.3494
47.3098
47.2385
47.1191
47.1448
47.2465
47.3192
47.3537
47.3714
47.33
47.3293
47.2801
47.2734
47.2301
47.2242
47.1928
47.183
47.1651
47.1586
47.1514
47.1492
47.1433
47.1448
47.1424
47.1474
47.1502
47.1693
47.1793
47.2111
47.2216
47.2609
47.272
47.3278
47.3262
47.3721
47.3482
47.3037
47.2338
47.1202
47.1478
47.2447
47.3138
47.3531
47.3743
47.341
47.343
47.2997
47.2945
47.2548
47.2494
47.2216
47.2134
47.1972
47.1918
47.1849
47.1833
47.177
47.1794
47.1774
47.1823
47.1848
47.2021
47.2098
47.239
47.2472
47.2841
47.2923
47.3411
47.3378
47.3744
47.3485
47.3011
47.2339
47.1277
47.1561
47.247
47.3108
47.3533
47.3768
47.3506
47.3546
47.317
47.3132
47.2773
47.2731
47.2476
47.241
47.226
47.2214
47.2148
47.2139
47.2076
47.2106
47.2086
47.2134
47.2153
47.231
47.2374
47.2636
47.2707
47.3044
47.31
47.3527
47.348
47.3769
47.3494
47.3001
47.2368
47.1389
47.1668
47.2503
47.3111
47.3544
47.3793
47.3589
47.3644
47.332
47.3297
47.2976
47.2947
47.2708
47.2656
47.2517
47.2476
47.2411
47.2411
47.2352
47.2384
47.2359
47.2409
47.2425
47.2568
47.2623
47.2858
47.2921
47.322
47.3256
47.3627
47.3565
47.3791
47.3509
47.3027
47.2416
47.1519
47.1794
47.2557
47.312
47.3558
47.3818
47.3658
47.3731
47.3447
47.3439
47.3153
47.3134
47.2915
47.2875
47.2747
47.2708
47.2646
47.2653
47.2597
47.2626
47.2602
47.2654
47.267
47.28
47.2844
47.3055
47.3104
47.3375
47.3392
47.3715
47.3636
47.3811
47.3522
47.3047
47.2479
47.1668
47.192
47.2629
47.3126
47.3572
47.3839
47.372
47.3808
47.3556
47.3564
47.3305
47.3294
47.3098
47.3068
47.295
47.2917
47.2859
47.2866
47.2815
47.284
47.2821
47.2873
47.2886
47.3006
47.3038
47.3226
47.3263
47.351
47.3511
47.379
47.3698
47.3834
47.3543
47.307
47.2561
47.1812
47.2051
47.27
47.3157
47.3593
47.3858
47.3775
47.3874
47.3651
47.3674
47.3444
47.3438
47.3263
47.324
47.3131
47.3106
47.3051
47.3056
47.301
47.3031
47.3018
47.3066
47.3077
47.3189
47.321
47.3379
47.3408
47.3629
47.3617
47.3857
47.3757
47.3855
47.3564
47.3105
47.264
47.1961
47.2177
47.278
47.319
47.3619
47.388
47.3828
47.3933
47.3741
47.3772
47.3569
47.357
47.3409
47.3394
47.3295
47.3274
47.3221
47.3224
47.3184
47.3205
47.3191
47.3239
47.3247
47.335
47.3364
47.3516
47.3536
47.3735
47.3711
47.3917
47.3809
47.3879
47.3595
47.3151
47.2727
47.2103
47.2311
47.2855
47.3234
47.3648
47.3902
47.3874
47.3986
47.3821
47.3863
47.368
47.3686
47.3539
47.3531
47.3442
47.3424
47.3375
47.3376
47.334
47.3361
47.3347
47.3391
47.3399
47.3491
47.3501
47.364
47.3651
47.3828
47.3797
47.3972
47.3859
47.3899
47.3624
47.3193
47.2806
47.2246
47.2433
47.2932
47.3275
47.3676
47.3929
47.392
47.4036
47.3896
47.3943
47.3778
47.3792
47.366
47.3656
47.3573
47.356
47.3513
47.3513
47.3481
47.3502
47.3487
47.353
47.3534
47.3618
47.3624
47.3752
47.3753
47.3912
47.3874
47.4023
47.3904
47.3923
47.3658
47.3245
47.2893
47.2378
47.2553
47.3
47.3327
47.3709
47.3956
47.3963
47.4083
47.3962
47.4016
47.3869
47.3889
47.3769
47.3768
47.3692
47.3684
47.3639
47.3639
47.3611
47.3631
47.3616
47.3656
47.3658
47.3735
47.3736
47.3853
47.3846
47.3988
47.3944
47.4072
47.395
47.3948
47.3687
47.3291
47.2967
47.251
47.2662
47.3076
47.3371
47.3739
47.3985
47.4004
47.4128
47.4023
47.4082
47.3951
47.3976
47.3868
47.3871
47.38
47.3797
47.3754
47.3756
47.373
47.3747
47.3733
47.3771
47.377
47.3842
47.3837
47.3944
47.3931
47.4058
47.4007
47.4118
47.3993
47.3979
47.3724
47.3347
47.3047
47.2626
47.2777
47.315
47.342
47.3774
47.4015
47.4044
47.4169
47.408
47.4146
47.4028
47.4056
47.396
47.3966
47.3899
47.3902
47.3861
47.3865
47.3839
47.3856
47.3843
47.3878
47.3874
47.394
47.393
47.4028
47.4009
47.4125
47.4067
47.416
47.4036
47.4008
47.3758
47.3392
47.3123
47.2743
47.2884
47.3226
47.346
47.3803
47.4042
47.4081
47.421
47.4134
47.4205
47.4099
47.4131
47.4043
47.4053
47.3992
47.3997
47.3958
47.3965
47.394
47.3956
47.3943
47.3976
47.397
47.4031
47.4017
47.4106
47.4082
47.4185
47.4124
47.4201
47.4073
47.4038
47.3793
47.3446
47.3204
47.2855
47.2987
47.3295
47.3512
47.3836
47.4074
47.412
47.4246
47.4185
47.4259
47.4165
47.4201
47.412
47.4134
47.4076
47.4085
47.4049
47.4056
47.4033
47.4047
47.4035
47.4065
47.4058
47.4114
47.4097
47.4178
47.4149
47.4241
47.4175
47.4239
47.4112
47.4064
47.3827
47.3489
47.3274
47.2961
47.3086
47.3364
47.3558
47.3863
47.41
47.4155
47.4283
47.4233
47.4308
47.4225
47.4264
47.419
47.4208
47.4155
47.4165
47.4133
47.4139
47.4118
47.4132
47.4118
47.4149
47.4139
47.4191
47.4171
47.4244
47.421
47.4293
47.4223
47.4275
47.4145
47.4092
47.3855
47.3542
47.3343
47.3063
47.318
47.3429
47.3615
47.3896
47.4128
47.4189
47.4317
47.4277
47.4353
47.428
47.4321
47.4256
47.4276
47.4228
47.4239
47.421
47.4216
47.4197
47.4209
47.4197
47.4225
47.4213
47.426
47.4238
47.4305
47.4268
47.434
47.4267
47.4311
47.4182
47.4121
47.3891
47.3591
47.3409
47.3157
47.3269
47.3494
47.3667
47.3921
47.4154
47.4223
47.4349
47.4319
47.4397
47.4333
47.4376
47.4319
47.434
47.4297
47.4308
47.4281
47.4289
47.4269
47.4282
47.4269
47.4296
47.4283
47.4325
47.4302
47.4362
47.432
47.4385
47.4309
47.4342
47.4213
47.4146
47.3914
47.3646
47.3475
47.3251
47.3357
47.3554
47.3717
47.3953
47.4178
47.4251
47.4381
47.4356
47.4436
47.4383
47.4426
47.4375
47.4398
47.436
47.4371
47.4346
47.4355
47.4338
47.4349
47.4337
47.4361
47.4348
47.4385
47.436
47.4415
47.4371
47.4427
47.4348
47.4373
47.4247
47.4174
47.3943
47.3695
47.3538
47.3337
47.3437
47.3614
47.3765
47.3975
47.4206
47.4282
47.4407
47.4393
47.4473
47.4428
47.4474
47.4428
47.4452
47.4419
47.443
47.4408
47.4417
47.4401
47.4411
47.4399
47.4421
47.4406
47.444
47.4415
47.4463
47.4416
47.4465
47.4383
47.4403
47.4273
47.4198
47.3961
47.3745
47.3597
47.3421
47.3516
47.3671
47.3812
47.4003
47.4227
47.4307
47.4435
47.4424
47.4506
47.447
47.4514
47.4475
47.45
47.447
47.4482
47.4464
47.4473
47.4459
47.4467
47.4455
47.4476
47.446
47.4493
47.4464
47.4508
47.4459
47.4501
47.4415
47.4426
47.4301
47.4223
47.3986
47.3792
47.3652
47.3498
47.3589
47.3725
47.3855
47.4019
47.4253
47.4331
47.4456
47.4454
47.4536
47.4506
47.4553
47.4518
47.4546
47.4519
47.4531
47.4515
47.4526
47.4509
47.4515
47.4506
47.4527
47.4508
47.4539
47.451
47.4546
47.4498
47.4532
47.4446
47.4452
47.4322
47.4242
47.3998
47.3838
47.3708
47.3574
47.3666
47.3776
47.3897
47.4043
47.4269
47.4354
47.448
47.4483
47.4566
47.4542
47.4587
47.4558
47.4585
47.4564
47.4577
47.4559
47.4573
47.4557
47.4562
47.4551
47.4571
47.4553
47.4581
47.4551
47.4583
47.4533
47.4563
47.4471
47.447
47.4348
47.4266
47.4029
47.388
47.376
47.3644
47.373
47.3826
47.3936
47.4057
47.4291
47.4371
47.4496
47.4504
47.4592
47.4573
47.4617
47.4592
47.4625
47.4602
47.4616
47.4603
47.4618
47.4605
47.4607
47.4597
47.4615
47.4592
47.4621
47.459
47.4615
47.4568
47.4589
47.45
47.4492
47.4365
47.4285
47.4059
47.3921
47.3811
47.3716
47.3802
47.3875
47.3975
47.4089
47.4304
47.4388
47.4518
47.4529
47.4617
47.4605
47.4646
47.4625
47.4655
47.4641
47.4657
47.4638
47.4659
47.4642
47.4641
47.4634
47.4651
47.4626
47.4654
47.4624
47.4647
47.4598
47.4615
47.4522
47.4506
47.4389
47.4308
47.4087
47.3959
47.386
47.3784
47.3858
47.3917
47.4011
47.4118
47.4321
47.4409
47.4531
47.4548
47.4639
47.4629
47.4671
47.4658
47.4688
47.4669
47.4688
47.4673
47.4694
47.4681
47.4678
47.467
47.4689
47.466
47.4688
47.4659
47.4667
47.4624
47.4637
47.4546
47.4525
47.4401
47.4321
47.4114
47.3996
47.3906
47.3847
47.392
47.3958
47.4047
47.4146
47.4322
47.4416
47.4547
47.4561
47.4655
47.4655
47.4685
47.4675
47.471
47.4699
47.4718
47.4701
47.4728
47.4709
47.4705
47.4694
47.4717
47.4683
47.4711
47.4683
47.4689
47.465
47.4653
47.4565
47.4533
47.4418
47.4339
47.4139
47.4032
47.3945
47.3904
47.3976
47.3996
47.408
47.4172
47.4337
47.4429
47.456
47.458
47.4675
47.4672
47.4706
47.4699
47.4736
47.4718
47.4744
47.4719
47.4756
47.4741
47.4736
47.4724
47.4746
47.4711
47.4738
47.471
47.4708
47.467
47.4674
47.4581
47.4549
47.4431
47.4341
47.4164
47.4066
47.3986
47.3965
47.4033
47.4033
47.411
47.4196
47.4348
47.4434
47.4563
47.4586
47.4682
47.4694
47.4718
47.4714
47.4751
47.4745
47.4761
47.4743
47.4784
47.4762
47.4753
47.4745
47.477
47.473
47.4755
47.4729
47.472
47.4692
47.4681
47.4601
47.4556
47.443
47.4353
47.4187
47.4098
47.4023
47.4015
47.4083
47.4065
47.4139
47.4219
47.4368
47.4449
47.4577
47.4601
47.4693
47.4706
47.4736
47.4734
47.4771
47.4759
47.4787
47.4768
47.4801
47.4787
47.4778
47.4773
47.4785
47.4754
47.4778
47.4754
47.4739
47.4707
47.4696
47.4609
47.4553
47.4441
47.4361
47.421
47.4128
47.4058
47.4064
47.4142
47.41
47.4166
47.424
47.4385
47.4446
47.4574
47.4603
47.4697
47.4723
47.4741
47.4742
47.4779
47.4778
47.4798
47.4789
47.4825
47.4801
47.4791
47.4784
47.4808
47.4768
47.4788
47.4765
47.475
47.4725
47.47
47.4625
47.4568
47.4452
47.4382
47.4232
47.4155
47.4092
47.4118
47.419
47.4127
47.4193
47.4261
47.44
47.4461
47.4586
47.4613
47.4707
47.4727
47.4753
47.4756
47.4796
47.4791
47.4815
47.4807
47.4834
47.4821
47.4818
47.4808
47.4816
47.4793
47.4805
47.4782
47.4755
47.4734
47.4711
47.4629
47.4582
47.4471
47.4399
47.4253
47.4182
47.4125
47.4176
47.4225
47.4157
47.4217
47.428
47.4415
47.4475
47.4595
47.4616
47.4707
47.4738
47.4771
47.4776
47.481
47.4816
47.4829
47.4833
47.4851
47.4834
47.4841
47.4831
47.4838
47.4815
47.4812
47.4786
47.4771
47.4749
47.4711
47.464
47.4596
47.4487
47.4415
47.4274
47.4208
47.4157
47.4205
47.4317
47.4185
47.4242
47.4301
47.443
47.4489
47.4609
47.4636
47.4723
47.4741
47.4782
47.4789
47.4834
47.4837
47.4855
47.4859
47.4867
47.4859
47.4863
47.4855
47.4857
47.4838
47.4835
47.4804
47.4783
47.4748
47.4726
47.4639
47.4609
47.4502
47.4431
47.4294
47.4233
47.4185
47.4224
47.4321
47.4209
47.4264
47.4319
47.4445
47.4503
47.4622
47.4652
47.4738
47.4759
47.4798
47.4809
47.4852
47.4857
47.4877
47.4881
47.489
47.4883
47.4883
47.4876
47.4877
47.4859
47.4855
47.482
47.4799
47.4763
47.474
47.4656
47.4622
47.4517
47.4446
47.4314
47.4257
47.4215
47.4269
47.4337
47.423
47.4285
47.4337
47.4459
47.4516
47.4633
47.4666
47.4753
47.4774
47.4808
47.4821
47.4869
47.4875
47.4897
47.49
47.491
47.4904
47.4903
47.4896
47.4896
47.4878
47.4873
47.4837
47.4808
47.4776
47.4752
47.4671
47.4635
47.4532
47.446
47.4332
47.428
47.4244
47.4343
47.4396
47.4262
47.4305
47.4355
47.4474
47.4532
47.4645
47.4679
47.4766
47.4788
47.4818
47.4836
47.4886
47.4891
47.4916
47.4919
47.493
47.4922
47.4922
47.4915
47.4915
47.4896
47.489
47.4849
47.4818
47.479
47.4764
47.4685
47.4649
47.4546
47.4475
47.4351
47.4301
47.427
47.4416
47.4457
47.4286
47.4325
47.4372
47.4488
47.4547
47.4657
47.4693
47.4779
47.4802
47.4834
47.4852
47.4903
47.4909
47.4934
47.4938
47.4948
47.4941
47.4943
47.4934
47.4933
47.4914
47.4906
47.4864
47.4836
47.4804
47.4778
47.4699
47.466
47.4558
47.4488
47.4367
47.4321
47.4294
47.4425
47.4461
47.4309
47.4345
47.4386
47.4502
47.4561
47.4668
47.4706
47.479
47.4814
47.4846
47.4867
47.4917
47.4926
47.495
47.4955
47.4964
47.4959
47.496
47.4951
47.4949
47.4931
47.4922
47.4879
47.4853
47.4818
47.479
47.4714
47.4672
47.4573
47.4503
47.4383
47.434
47.4319
47.4469
47.4467
47.434
47.4363
47.4401
47.4515
47.4576
47.4681
47.4719
47.4802
47.4827
47.4854
47.488
47.4932
47.4941
47.4966
47.4971
47.4979
47.4974
47.4974
47.4969
47.4964
47.4947
47.4937
47.4894
47.4868
47.4832
47.48
47.4727
47.4682
47.4585
47.4517
47.4399
47.4357
47.4335
47.453
47.4501
47.4368
47.4379
47.4413
47.4527
47.4589
47.469
47.4729
47.4813
47.484
47.4871
47.4896
47.4945
47.4955
47.498
47.4985
47.4994
47.4989
47.4986
47.4982
47.4979
47.4961
47.4949
47.4907
47.4885
47.4846
47.4808
47.4737
47.4692
47.4597
47.4528
47.4413
47.4374
47.435
47.4533
47.4524
47.4384
47.4397
47.4427
47.4539
47.4602
47.4697
47.4741
47.4822
47.4851
47.4885
47.4909
47.4957
47.4971
47.4994
47.5
47.501
47.5004
47.5002
47.4997
47.4993
47.4976
47.4962
47.492
47.4901
47.4857
47.4818
47.4747
47.4704
47.461
47.4542
47.4429
47.4391
47.4386
47.4544
47.4537
47.4412
47.4412
47.4438
47.455
47.4614
47.4706
47.4753
47.4832
47.4864
47.4897
47.4925
47.4969
47.4984
47.5008
47.5014
47.5023
47.5017
47.5014
47.501
47.5003
47.499
47.4974
47.4937
47.4915
47.4872
47.483
47.4762
47.4713
47.462
47.4552
47.4442
47.4406
47.4411
47.4606
47.4557
47.4439
47.4425
47.4451
47.4559
47.4622
47.4713
47.4762
47.4837
47.4879
47.4918
47.494
47.4981
47.4995
47.5017
47.5021
47.5035
47.5029
47.5023
47.5022
47.5013
47.5001
47.4987
47.4949
47.4925
47.4883
47.4839
47.4768
47.4724
47.463
47.4562
47.4455
47.442
47.4415
47.4662
47.4564
47.4449
47.4435
47.4461
47.4568
47.4632
47.4721
47.4765
47.4843
47.4888
47.4934
47.4953
47.4993
47.5006
47.5024
47.5031
47.5045
47.5039
47.5035
47.5035
47.5026
47.5012
47.4999
47.4959
47.494
47.4882
47.4849
47.477
47.4732
47.4641
47.4574
47.4469
47.4433
47.4432
47.4648
47.4566
47.4469
47.4446
47.4472
47.4581
47.4639
47.4727
47.4771
47.4855
47.4899
47.4941
47.4968
47.5002
47.5024
47.504
47.5041
47.5053
47.5044
47.5046
47.5044
47.5035
47.5024
47.5009
47.4968
47.495
47.4886
47.4856
47.4776
47.4736
47.4647
47.4577
47.448
47.4445
47.4457
47.4642
47.4585
47.4489
47.4461
47.4481
47.4582
47.464
47.4732
47.4781
47.4863
47.4906
47.4948
47.4977
47.5013
47.5033
47.5049
47.5052
47.5064
47.5055
47.5055
47.5053
47.5049
47.5029
47.5021
47.4977
47.4956
47.4894
47.486
47.4787
47.4745
47.4656
47.4589
47.4486
47.4461
47.447
47.4661
47.4599
47.4499
47.447
47.4489
47.4595
47.4651
47.4744
47.4791
47.4869
47.491
47.4956
47.4987
47.5022
47.5039
47.5064
47.5061
47.5076
47.5066
47.5064
47.5061
47.5052
47.5035
47.5024
47.4992
47.4966
47.4905
47.4875
47.4804
47.4758
47.4667
47.4605
47.4499
47.4469
47.4482
47.4681
47.4595
47.4507
47.4478
47.4506
47.4611
47.4665
47.4757
47.4804
47.4878
47.4917
47.497
47.4994
47.5021
47.5049
47.5067
47.5058
47.5072
47.5068
47.5066
47.5064
47.5045
47.5033
47.5018
47.4987
47.4959
47.49
47.4869
47.4797
47.4748
47.466
47.4596
47.4507
47.4477
47.4509
47.4662
47.4589
47.4515
47.4487
47.4505
47.4603
47.4654
47.4743
47.4796
47.4868
47.491
47.4965
47.499
47.5016
47.5033
47.5054
47.506
47.5075
47.5072
47.5075
47.507
47.5051
47.5037
47.5024
47.4986
47.4956
47.4906
47.4867
47.4786
47.4743
47.4658
47.4588
47.4509
47.4485
47.4556
47.4658
47.4604
47.4551
47.4491
47.4506
47.4599
47.4647
47.4733
47.479
47.4867
47.491
47.4963
47.4994
47.5022
47.5038
47.5059
47.5071
47.5086
47.5082
47.5083
47.5079
47.5065
47.5048
47.5035
47.5001
47.4971
47.4917
47.4881
47.4804
47.4756
47.4669
47.4602
47.4516
47.4493
47.4559
47.4677
47.4628
47.455
47.4502
47.4522
47.4614
47.466
47.4749
47.4803
47.4879
47.4924
47.4972
47.5005
47.503
47.505
47.5081
47.5081
47.5096
47.5092
47.5085
47.5085
47.5079
47.5058
47.5046
47.5014
47.4982
47.4929
47.4897
47.4817
47.4767
47.4681
47.4611
47.4518
47.45
47.4539
47.4668
47.4632
47.4557
47.4513
47.4524
47.462
47.4671
47.4759
47.481
47.4887
47.4937
47.4982
47.5009
47.5038
47.5052
47.5082
47.5088
47.5104
47.5096
47.5089
47.5091
47.508
47.5063
47.5053
47.5019
47.4985
47.4932
47.4909
47.4829
47.4774
47.4695
47.4617
47.4513
47.4491
47.4557
47.4629
47.4618
47.4552
47.4509
47.4524
47.4618
47.4677
47.4763
47.4811
47.4885
47.4935
47.4986
47.5006
47.5032
47.5038
47.5062
47.5073
47.5087
47.5075
47.5076
47.5071
47.5064
47.5047
47.5036
47.5002
47.4966
47.4915
47.4895
47.482
47.4758
47.4683
47.4609
47.4506
47.4484
47.4587
47.4611
47.4601
47.4562
47.4506
47.4517
47.4601
47.4666
47.474
47.4796
47.4868
47.4918
47.4969
47.4985
47.5017
47.5036
47.5056
47.507
47.5081
47.5069
47.5069
47.5065
47.5064
47.5039
47.5029
47.4995
47.4958
47.4909
47.4884
47.4814
47.4753
47.468
47.4603
47.4508
47.4496
47.4595
47.4623
47.4601
47.4588
47.4515
47.4512
47.4602
47.4656
47.4737
47.4789
47.4862
47.491
47.4962
47.4986
47.5019
47.5054
47.5067
47.5083
47.5092
47.5088
47.5081
47.5079
47.5074
47.5051
47.5041
47.5011
47.497
47.4925
47.4897
47.4823
47.4764
47.4692
47.4613
47.4502
47.4497
47.4596
47.4645
47.4614
47.4614
47.4519
47.452
47.4622
47.4672
47.4755
47.4802
47.4876
47.492
47.4966
47.5003
47.5031
47.5056
47.5067
47.5083
47.509
47.5088
47.508
47.5076
47.5071
47.5047
47.5043
47.5009
47.4969
47.4923
47.4899
47.4827
47.4772
47.4698
47.4612
47.4494
47.4482
47.4566
47.464
47.4621
47.4606
47.452
47.4509
47.4621
47.4672
47.4764
47.4802
47.4873
47.4916
47.496
47.4993
47.5021
47.5041
47.5052
47.5071
47.5081
47.5081
47.5067
47.5063
47.5056
47.5035
47.5032
47.4995
47.4956
47.4904
47.4896
47.4831
47.4771
47.4697
47.4604
47.4483
47.4471
47.4523
47.4604
47.4604
47.4596
47.4518
47.4491
47.4597
47.4658
47.4755
47.4779
47.4853
47.489
47.4931
47.4965
47.4994
47.5017
47.5027
47.5051
47.5056
47.5065
47.5044
47.5044
47.5037
47.5013
47.5006
47.4973
47.493
47.4879
47.4881
47.4821
47.4761
47.4686
47.4594
47.4471
47.4456
47.4534
47.4569
47.457
47.4608
47.451
47.4471
47.4585
47.4649
47.4744
47.4753
47.4825
47.4863
47.4908
47.4946
47.4977
47.4994
47.5014
47.5035
47.5043
47.505
47.5036
47.5033
47.503
47.5002
47.4994
47.4964
47.4921
47.4874
47.4877
47.4816
47.4749
47.4677
47.4588
47.4452
47.4478
47.4564
47.4544
47.4536
47.4625
47.4516
47.4452
47.4581
47.4634
47.4731
47.474
47.4816
47.4857
47.4896
47.4932
47.4961
47.4991
47.5008
47.5032
47.504
47.504
47.5024
47.5019
47.5018
47.4997
47.4993
47.4963
47.4923
47.4869
47.4889
47.483
47.4766
47.4693
47.4595
47.4441
47.4489
47.4557
47.4539
47.451
47.46
47.4537
47.4441
47.4576
47.4626
47.4731
47.4739
47.4818
47.4855
47.4897
47.4943
47.4993
47.5015
47.5042
47.5053
47.5068
47.5066
47.5049
47.5044
47.5042
47.5024
47.5024
47.4993
47.4949
47.4897
47.4908
47.4851
47.4793
47.4719
47.4591
47.4428
47.4431
47.4519
47.4549
47.4489
47.454
47.4494
47.4421
47.4568
47.4648
47.4746
47.4765
47.4842
47.4879
47.4927
47.4974
47.5024
47.5062
47.5077
47.5083
47.5099
47.5094
47.5081
47.5075
47.5073
47.5056
47.5052
47.502
47.4977
47.4921
47.4915
47.4846
47.4781
47.4702
47.4563
47.4411
47.4393
47.4474
47.4522
47.448
47.4473
47.4426
47.438
47.4537
47.465
47.4745
47.4787
47.4862
47.4899
47.495
47.4987
47.5007
47.5049
47.5029
47.5042
47.5052
47.5049
47.5041
47.5034
47.5031
47.5011
47.5012
47.4982
47.4936
47.4882
47.4867
47.4799
47.4736
47.4657
47.4534
47.4411
47.4337
47.4422
47.4464
47.4454
47.4402
47.4376
47.4339
47.45
47.4596
47.4694
47.4739
47.4815
47.4846
47.4896
47.4926
47.4939
47.4978
47.4978
47.4982
47.4995
47.4994
47.4982
47.4973
47.4977
47.4959
47.4966
47.4938
47.4883
47.4832
47.4823
47.476
47.4698
47.4617
47.451
47.4392
47.426
47.4348
47.4464
47.4415
47.4316
47.4299
47.4323
47.4468
47.4549
47.465
47.4692
47.4775
47.48
47.4854
47.4884
47.4911
47.4941
47.4922
47.4958
47.4969
47.4971
47.496
47.4954
47.4956
47.4929
47.4928
47.4893
47.4857
47.4806
47.4779
47.4721
47.4656
47.4586
47.4482
47.4372
47.4221
47.4325
47.4375
47.4412
47.4236
47.4221
47.4299
47.444
47.4512
47.4612
47.4657
47.4735
47.4764
47.4823
47.4856
47.4878
47.4885
47.4857
47.4924
47.4931
47.4926
47.4919
47.4913
47.4912
47.4894
47.4883
47.4851
47.4825
47.477
47.474
47.4682
47.4623
47.4545
47.4462
47.4373
47.4242
47.434
47.4291
47.4385
47.4227
47.419
47.4266
47.4408
47.4466
47.4575
47.4629
47.4696
47.4739
47.4785
47.4813
47.4847
47.4836
47.4822
47.4889
47.489
47.4896
47.4892
47.4886
47.4885
47.4864
47.4852
47.4822
47.4797
47.4764
47.4726
47.4664
47.4605
47.4535
47.4458
47.4364
47.4279
47.4419
47.4311
47.4319
47.4237
47.4203
47.4246
47.4395
47.4451
47.4566
47.4618
47.4687
47.4722
47.4779
47.4803
47.4832
47.4831
47.483
47.4889
47.4893
47.4888
47.4885
47.488
47.4878
47.4855
47.485
47.482
47.4791
47.475
47.4717
47.466
47.4597
47.4516
47.4439
47.4357
47.4325
47.4484
47.4327
47.428
47.4291
47.4228
47.4242
47.4375
47.4437
47.455
47.4612
47.4688
47.4725
47.4774
47.4802
47.4836
47.482
47.4838
47.4892
47.4893
47.4894
47.4884
47.4888
47.4879
47.4863
47.4845
47.4813
47.48
47.4758
47.4719
47.4651
47.4599
47.4517
47.4443
47.4362
47.4377
47.4536
47.4354
47.4284
47.4332
47.4261
47.4216
47.4365
47.4433
47.4542
47.4605
47.468
47.4717
47.478
47.4808
47.4832
47.4826
47.4864
47.4893
47.4893
47.4889
47.489
47.4883
47.4883
47.4861
47.4849
47.481
47.4797
47.475
47.4726
47.4656
47.4589
47.4505
47.4437
47.4387
47.4429
47.4581
47.4361
47.4291
47.4396
47.4298
47.422
47.434
47.4421
47.4543
47.4613
47.4686
47.4729
47.4781
47.4811
47.4844
47.4819
47.4887
47.49
47.4897
47.4899
47.4887
47.4893
47.4876
47.487
47.4848
47.482
47.4806
47.4756
47.4733
47.4652
47.459
47.45
47.4449
47.4397
47.4454
47.4617
47.4404
47.4311
47.4467
47.4325
47.4221
47.4349
47.4425
47.4539
47.4618
47.4689
47.4732
47.4796
47.4825
47.4856
47.4841
47.4908
47.4911
47.4907
47.4898
47.489
47.4896
47.488
47.4871
47.4863
47.4814
47.4805
47.4748
47.4724
47.4649
47.4579
47.4507
47.4457
47.4395
47.4461
47.4623
47.4444
47.4296
47.4492
47.4314
47.4219
47.4351
47.4404
47.4533
47.4606
47.4677
47.4733
47.4804
47.4833
47.485
47.4849
47.492
47.4914
47.4917
47.49
47.4901
47.4887
47.4894
47.4866
47.4858
47.4828
47.4803
47.476
47.4727
47.4653
47.4589
47.4496
47.4475
47.4386
47.4458
47.4621
47.4422
47.4275
47.4458
47.4292
47.4218
47.4347
47.4413
47.454
47.4613
47.469
47.4745
47.4805
47.4839
47.4864
47.4859
47.4942
47.4923
47.4919
47.4914
47.4903
47.4902
47.4899
47.4883
47.4868
47.4836
47.4815
47.4774
47.4741
47.4663
47.4593
47.4498
47.4475
47.4381
47.4445
47.4598
47.4399
47.4247
47.4433
47.4266
47.4202
47.4336
47.4414
47.4544
47.4624
47.4703
47.4761
47.4817
47.4838
47.4876
47.4877
47.4962
47.494
47.4936
47.4918
47.4922
47.4921
47.4907
47.4894
47.4875
47.4845
47.483
47.4775
47.4745
47.4679
47.4602
47.4506
47.4472
47.4373
47.4422
47.4542
47.4375
47.4257
47.4398
47.4232
47.4201
47.4324
47.4416
47.4542
47.4622
47.471
47.4759
47.4815
47.4845
47.4891
47.4895
47.4976
47.4946
47.4946
47.4935
47.4931
47.4932
47.492
47.4904
47.4887
47.4859
47.4822
47.4784
47.475
47.4676
47.4605
47.4493
47.4458
47.4354
47.4403
47.4511
47.4349
47.4252
47.4264
47.422
47.4202
47.4314
47.4427
47.4541
47.4643
47.4728
47.4781
47.4839
47.4866
47.491
47.4919
47.4989
47.4964
47.4965
47.4954
47.4957
47.4944
47.4935
47.4928
47.491
47.4878
47.4843
47.4795
47.4747
47.4677
47.4616
47.4504
47.4457
47.4324
47.4367
47.4456
47.4352
47.4208
47.4174
47.4202
47.4204
47.4308
47.4439
47.4558
47.4664
47.4744
47.48
47.486
47.4889
47.4934
47.494
47.5001
47.4987
47.4975
47.4975
47.4975
47.4968
47.4962
47.4939
47.4934
47.4901
47.4865
47.482
47.4776
47.4705
47.4622
47.4519
47.4449
47.4333
47.4347
47.4366
47.4352
47.4202
47.4118
47.4119
47.4206
47.4307
47.4456
47.4565
47.4673
47.4754
47.4819
47.4872
47.4904
47.4954
47.4965
47.5017
47.501
47.5002
47.5003
47.4986
47.4994
47.4984
47.4959
47.4948
47.492
47.4875
47.4832
47.4779
47.4703
47.4621
47.4523
47.4433
47.4329
47.4333
47.4266
47.4341
47.4217
47.4085
47.4073
47.4211
47.4323
47.4476
47.458
47.4682
47.4767
47.4846
47.4887
47.4933
47.4982
47.5002
47.5055
47.502
47.503
47.5034
47.502
47.5018
47.5017
47.4988
47.4969
47.4945
47.491
47.4857
47.4794
47.471
47.4624
47.4536
47.4431
47.4346
47.4285
47.4223
47.4298
47.4195
47.4066
47.4041
47.4201
47.435
47.4496
47.4604
47.4709
47.4804
47.4871
47.4924
47.4955
47.5012
47.5028
47.5098
47.5049
47.5068
47.5061
47.505
47.5052
47.5033
47.502
47.4995
47.4968
47.4933
47.4877
47.4821
47.4738
47.4653
47.4558
47.4445
47.436
47.4221
47.4177
47.4319
47.4247
47.4091