/*--------------------------------*- C++ -*----------------------------------*\
  =========                 |
  \\      /  F ield         | OpenFOAM: The Open Source CFD Toolbox
   \\    /   O peration     | Website:  https://openfoam.org
    \\  /    A nd           | Version:  8
     \\/     M anipulation  |
\*---------------------------------------------------------------------------*/
FoamFile
{
    version     2.0;
    format      ascii;
    class       surfaceScalarField;
    location    "100";
    object      phi;
}
// * * * * * * * * * * * * * * * * * * * * * * * * * * * * * * * * * * * * * //

dimensions      [1 0 -1 0 0 0 0];

internalField   nonuniform List<scalar> 
228225
(
-0.00312456
0.00978761
-0.00666344
-0.000171779
0.00962853
-0.0125818
0.00146664
0.0114218
-0.0130609
0.000546562
0.0124056
-0.0114862
-0.000589285
0.0125376
-0.0114025
-0.000199273
0.0135203
-0.0139112
-0.000370587
0.0140765
-0.0139064
-9.21495e-05
0.0139714
-0.0142511
-0.000384686
0.0137411
-0.0134513
-0.00014651
0.0128963
-0.0131379
-0.00065913
0.0123786
-0.0118688
-0.000509197
0.013151
-0.0133049
-0.000146283
0.0132506
-0.0136162
1.38939e-05
0.0131644
-0.0133273
-0.000121173
0.0122131
-0.0120807
-0.000277237
0.01185
-0.0116965
-0.000163416
0.0131685
-0.0132845
4.33942e-06
0.0131629
-0.0133327
0.000192802
0.0134983
-0.0136887
0.000440689
0.0132021
-0.013452
0.000193236
0.0125045
-0.0122592
0.000402989
0.012382
-0.012594
0.000321351
0.0130886
-0.0130102
-3.39549e-05
0.0132958
-0.0129435
0.00031314
0.0133125
-0.0136613
0.000656103
0.0136013
-0.0139456
0.000393153
0.0136873
-0.0134257
0.000256749
0.0137817
-0.0136462
0.000164467
0.0141404
-0.0140484
0.000487101
0.0134486
-0.0137712
-0.000649613
0.0127265
-0.0115893
-0.0013445
0.0124087
-0.011713
2.32731e-05
0.0115483
-0.0129146
0.00222626
0.00964197
-0.0118437
0.0102384
-0.0080109
-0.00392206
0.018968
-0.00525867
-0.000150391
0.0200522
-0.0141956
0.00133042
0.0232591
-0.0133183
0.000459263
0.0238819
-0.0106053
-0.000842338
0.0246431
-0.0108041
-0.000389202
0.0277765
-0.0147096
-0.000267896
0.0285235
-0.0145687
-0.000247377
0.0287494
-0.0147992
-0.000122072
0.0280935
-0.0144787
-0.00011726
0.0266828
-0.0137926
-0.00105089
0.0242988
-0.0109881
-0.000662988
0.0269075
-0.0141458
-0.00020093
0.0271547
-0.0143676
2.6894e-07
0.0270833
-0.0141214
-0.00015268
0.0263679
-0.0140032
-0.000220741
0.0263445
-0.0144278
-0.000149127
0.0275995
-0.0145039
-1.80993e-05
0.0274798
-0.0144491
0.000189114
0.027813
-0.014523
0.00039058
0.0274184
-0.0144188
0.000265913
0.0265913
-0.0139632
0.000348567
0.0265022
-0.014204
0.00034788
0.0266738
-0.0135857
0.00010431
0.0267238
-0.0131855
0.000299106
0.0274378
-0.014321
0.000511526
0.0278554
-0.0144671
0.000432099
0.0281058
-0.0143396
0.000373858
0.0283522
-0.0145126
0.00043315
0.0288202
-0.0147392
0.00079612
0.027565
-0.0144794
-0.000449481
0.0248585
-0.0108862
-0.00154503
0.0237432
-0.0102384
0.000110208
0.0227867
-0.0128931
0.00305485
0.0205799
-0.0138816
0.0204118
-0.00711785
-0.00430467
0.0259816
-0.00270922
-0.000292003
0.0298688
-0.0138294
0.00129776
0.0332282
-0.011559
0.000532108
0.0327653
-0.00811784
-0.00079346
0.0340219
-0.00805339
-0.000377861
0.0396444
-0.0122837
-0.000119166
0.0406034
-0.0123388
-0.000186461
0.041465
-0.0126487
0.000112295
0.040161
-0.0123668
-0.000122045
0.0385165
-0.0115999
-0.00111231
0.0357891
-0.0105009
-0.000809973
0.0386636
-0.0120592
-0.000350882
0.0392749
-0.0125802
-0.000294753
0.0392679
-0.0122417
-0.000242119
0.0390278
-0.0127134
-0.000110647
0.0395485
-0.0133363
-0.00010386
0.0398776
-0.0122857
-9.49824e-05
0.0404401
-0.0129699
0.000151909
0.0403544
-0.0127891
0.000391121
0.0401678
-0.0129894
0.000400461
0.0392898
-0.0127085
0.000581831
0.0391112
-0.0127911
0.00041226
0.0380406
-0.0111978
7.38324e-05
0.0379316
-0.0108699
0.000331174
0.0397485
-0.0125686
0.000488449
0.040305
-0.0126074
0.000414559
0.0405637
-0.0123842
0.000331787
0.0409382
-0.0125034
0.000458751
0.0410964
-0.0124033
0.000830127
0.0393943
-0.0122007
-0.000409002
0.0345528
-0.00845498
-0.00157766
0.0325828
-0.00767073
-0.000252608
0.0322291
-0.010767
0.00363877
0.030083
-0.0133937
0.0285547
-0.00450363
-0.00403647
0.0331692
-0.00315115
-0.000355908
0.0367328
-0.0105447
0.00138598
0.0395498
-0.00806352
0.000922566
0.0396007
-0.00637198
-0.000167363
0.0415978
-0.00648609
-8.4909e-05
0.0473675
-0.00780573
7.3946e-05
0.0481375
-0.00769322
0.00011642
0.0486754
-0.00725332
0.000199376
0.0473881
-0.0073105
-0.000280447
0.046726
-0.00773024
-0.00109014
0.0440425
-0.00744437
-0.000917941
0.0469991
-0.00850844
-0.000458788
0.0475809
-0.00876589
-0.000480295
0.0473352
-0.00804652
-0.00041259
0.0478462
-0.00888681
-1.91602e-05
0.049321
-0.0101666
-1.64264e-05
0.0493639
-0.00948967
-0.000159036
0.0496369
-0.00905478
7.81441e-05
0.0497681
-0.00965151
0.000420541
0.0494902
-0.00966534
0.000515902
0.0482002
-0.0090064
0.000741306
0.0482545
-0.00936922
0.000561975
0.0467884
-0.00856904
7.26801e-05
0.0463958
-0.00797546
0.00026903
0.047992
-0.00844031
0.000420361
0.0483652
-0.00821194
0.000147191
0.048307
-0.00747044
-2.71751e-05
0.0483277
-0.00721532
0.000142452
0.0482944
-0.00736772
0.000187691
0.047992
-0.00864293
-0.000972544
0.0423108
-0.0065977
-0.00185342
0.0393783
-0.00591445
-0.000416649
0.0386217
-0.0078291
0.00350242
0.0375192
-0.0113549
0.0353842
-0.00332675
-0.00282335
0.0410403
-0.00504778
-0.000197833
0.0425009
-0.00839356
0.00154143
0.0450768
-0.0072662
0.00125362
0.0461345
-0.006246
0.000403151
0.0491742
-0.00672591
0.000121298
0.0540236
-0.00637433
-6.00348e-05
0.0545791
-0.00626044
-0.00014771
0.055095
-0.00633219
-0.000163137
0.0539882
-0.00658506
-0.000463322
0.0531405
-0.00611487
-0.000935578
0.051151
-0.00663684
-0.000807346
0.0533961
-0.00652571
-0.000521274
0.0536717
-0.00637747
-0.00050234
0.0534609
-0.00614523
-0.000350639
0.0541373
-0.00644338
3.38649e-05
0.0551058
-0.00616988
1.53758e-05
0.0553952
-0.00601333
-9.44231e-05
0.0557225
-0.00597633
8.91774e-05
0.0558186
-0.00623455
0.000420373
0.0551917
-0.00603327
0.000562894
0.0538146
-0.0057574
0.000699058
0.054185
-0.00606721
0.000552813
0.0530189
-0.00608474
0.000342727
0.0530675
-0.00646208
0.000364552
0.0542319
-0.00626214
0.000409645
0.0543234
-0.00600365
0.000304207
0.0542384
-0.00582622
0.000195624
0.0548486
-0.00641251
4.71583e-05
0.0548375
-0.0063948
-0.0004034
0.0538702
-0.00542767
-0.00135856
0.0488574
-0.00559137
-0.00201049
0.0460149
-0.00598445
-0.000588474
0.0444189
-0.00721888
0.00238573
0.0435281
-0.00898278
0.0424181
-0.00464786
-0.00122188
0.0479519
-0.00568974
0.000591572
0.0493936
-0.00870602
0.00182579
0.052007
-0.00816434
0.00148627
0.0537394
-0.00726536
0.000660206
0.0559989
-0.00599867
0.000176745
0.0595663
-0.00505929
-0.000154265
0.0600414
-0.00513144
-0.000400129
0.0603471
-0.00500644
-0.00059698
0.0595722
-0.00538743
-0.000742755
0.0598296
-0.00654363
-0.000908662
0.0581496
-0.00683303
-0.000821875
0.0594744
-0.00616557
-0.000589585
0.0597756
-0.00633664
-0.000505243
0.0592256
-0.00584945
-0.000389355
0.0595158
-0.00549483
-7.44884e-05
0.0604825
-0.005692
-1.67111e-05
0.0598983
-0.00456133
-3.69071e-05
0.0605857
-0.00484345
0.000164102
0.06019
-0.00457284
0.000416617
0.0601554
-0.00521662
0.000531771
0.059113
-0.00541403
0.000601437
0.0592116
-0.00509668
0.000622947
0.05895
-0.005953
0.000597772
0.0590412
-0.00594886
0.000593954
0.0596882
-0.00545285
0.000729637
0.0598974
-0.00570999
0.000612671
0.0601638
-0.00580868
0.000233042
0.0604038
-0.00517582
-0.000250732
0.0602919
-0.0049708
-0.000816694
0.059754
-0.00531789
-0.00160713
0.0561647
-0.00651688
-0.00205468
0.0536093
-0.00714675
-0.000973677
0.0517568
-0.00841868
0.00106809
0.0495887
-0.00810215
0.0490858
-0.0055994
0.000230182
0.0546684
-0.00694665
0.00133871
0.0570833
-0.00879815
0.00213644
0.0598822
-0.00867285
0.00181829
0.0615174
-0.00745979
0.00116471
0.0634762
-0.00682367
0.000603251
0.0656766
-0.00554888
4.71104e-05
0.066144
-0.00554662
-0.000341528
0.0663788
-0.00564331
-0.000570701
0.0657668
-0.00596565
-0.000745314
0.0656797
-0.00567583
-0.000799561
0.0650295
-0.00682593
-0.00073287
0.0655546
-0.00614717
-0.000631458
0.065108
-0.00543415
-0.00054463
0.0648228
-0.0056844
-0.000423341
0.0651019
-0.00570776
-0.000251918
0.0654848
-0.00517406
-0.000125072
0.0649165
-0.00514545
4.10221e-06
0.0656509
-0.00519475
0.000242731
0.065412
-0.00546099
0.000455131
0.0654516
-0.0055089
0.00050811
0.0647702
-0.00571043
0.000601949
0.0650584
-0.00594095
0.000695556
0.0649685
-0.00611242
0.000688647
0.0651092
-0.00606145
0.000704216
0.0657639
-0.0060916
0.000701845
0.0655881
-0.00568861
0.000435999
0.0663216
-0.00589227
8.8932e-05
0.0665052
-0.00575456
-0.000416928
0.0663853
-0.00558761
-0.00111077
0.0657979
-0.00535017
-0.00184193
0.0634544
-0.00655847
-0.00232127
0.0616191
-0.00753035
-0.00159078
0.0598196
-0.00879314
-0.000316844
0.0577103
-0.00939531
0.0555946
-0.00682545
0.000604184
0.0617815
-0.0077172
0.00185462
0.0658528
-0.0100198
0.00270899
0.0683787
-0.00935074
0.00231401
0.0699842
-0.00807173
0.00173405
0.0715499
-0.00749368
0.00119757
0.0725231
-0.00631014
0.000668378
0.0729091
-0.00623595
0.000183934
0.072762
-0.00589887
-0.000188429
0.0722135
-0.00607452
-0.000339948
0.0721957
-0.00636467
-0.00041877
0.0712176
-0.00610958
-0.000359527
0.0715643
-0.0060692
-0.00029451
0.0710589
-0.00601619
-0.000376007
0.0707552
-0.00585119
-0.000340403
0.0707057
-0.00563967
-0.000190456
0.0706413
-0.00530671
-2.97186e-05
0.0701914
-0.00543586
0.000126139
0.0706236
-0.00512879
0.000223537
0.0705632
-0.00524884
0.000297172
0.0708246
-0.00544693
0.000270111
0.0705073
-0.00571028
0.000318112
0.0708408
-0.00583068
0.000392903
0.0709165
-0.00602297
0.000392489
0.0712745
-0.00616509
0.000286765
0.0718043
-0.00593488
0.000139836
0.0720433
-0.00630845
-0.00011705
0.072708
-0.00612966
-0.000434665
0.0729014
-0.0060787
-0.000981173
0.0730135
-0.00608179
-0.00180239
0.0724195
-0.00580035
-0.00252865
0.0712849
-0.00710417
-0.00273428
0.0699487
-0.00812389
-0.00183202
0.0685553
-0.00963779
-0.000734925
0.0667285
-0.0101151
0.0626114
-0.00775164
0.00029728
0.0698017
-0.00831739
0.00166656
0.0749903
-0.0105066
0.00246563
0.0776201
-0.0100404
0.00231326
0.0787471
-0.00861046
0.00199091
0.0797393
-0.00786709
0.00144562
0.080284
-0.00721561
0.000924194
0.0805207
-0.00709021
0.000521499
0.0802562
-0.00709161
0.00024071
0.0798115
-0.00731737
7.55293e-05
0.0795463
-0.00718548
7.27355e-05
0.0786896
-0.00746936
7.86223e-05
0.0786918
-0.00713351
5.23591e-05
0.0779423
-0.00685726
3.46304e-05
0.0775442
-0.00677139
-1.76108e-05
0.0770105
-0.00625277
2.11765e-05
0.0766604
-0.00605804
5.13383e-05
0.0761109
-0.00594983
1.02706e-05
0.0759577
-0.00529318
7.55216e-06
0.076306
-0.00574025
-1.17496e-05
0.0770378
-0.00619408
-6.27022e-05
0.0769625
-0.00640447
-4.50289e-05
0.0776168
-0.00679376
-1.10805e-05
0.0779019
-0.00701958
-4.7482e-05
0.0783373
-0.00702653
-0.000152833
0.0789563
-0.00704684
-0.000310071
0.0796974
-0.00749699
-0.000525031
0.0801929
-0.00727007
-0.000768441
0.0805146
-0.00736987
-0.00117908
0.0806501
-0.00722601
-0.00185783
0.080027
-0.0069288
-0.00244308
0.0798257
-0.00795554
-0.00260676
0.0788064
-0.00869385
-0.00158938
0.0777162
-0.0101781
-0.00030326
0.0763479
-0.0109054
0.0701861
-0.00787784
-0.000315082
0.0779997
-0.00788278
0.00106649
0.0841146
-0.0105058
0.00191948
0.0863004
-0.00953315
0.00177058
0.0868973
-0.00800113
0.00154447
0.0875848
-0.00761925
0.00119965
0.0877597
-0.00713084
0.000839902
0.0878645
-0.00698411
0.000514452
0.0875419
-0.00696022
0.000332209
0.0873206
-0.00732682
0.00025183
0.0872784
-0.00765181
0.000222752
0.0865475
-0.00782877
0.000244529
0.0863856
-0.00771562
0.00027665
0.0856057
-0.00769553
0.000293142
0.08497
-0.00744234
0.000231344
0.0842982
-0.00722596
0.000217134
0.0837469
-0.00707238
0.000114761
0.0830463
-0.00683312
-5.34907e-05
0.0824352
-0.00630934
-0.000156181
0.0828386
-0.00643002
-0.000243883
0.0838909
-0.0067655
-0.000271179
0.084071
-0.00708127
-0.000291142
0.0849899
-0.00735322
-0.000272732
0.0854179
-0.00753444
-0.000230299
0.0859832
-0.00768848
-0.000296024
0.0866171
-0.00759516
-0.00038623
0.0873279
-0.00754041
-0.000496555
0.0878039
-0.00750075
-0.000760874
0.0879662
-0.00718744
-0.00107287
0.0880071
-0.00704504
-0.00155451
0.0872646
-0.00675597
-0.00198307
0.0876981
-0.00744375
-0.00196499
0.086892
-0.00810366
-0.00094633
0.0865559
-0.00985828
0.000194257
0.0855026
-0.0102952
0.0781669
-0.00778645
-0.000682462
0.0842559
-0.00557361
0.000420239
0.0912018
-0.00818976
0.00125819
0.093142
-0.0076793
0.00124068
0.0930395
-0.00612455
0.00108382
0.0932173
-0.00547554
0.000862305
0.0933588
-0.00537754
0.000534315
0.0934476
-0.00525511
0.000268027
0.0935185
-0.00571032
0.000183093
0.093491
-0.00608545
0.000127157
0.0935729
-0.00623846
0.00014129
0.0932787
-0.00674528
0.000174932
0.0931743
-0.00682231
0.000222349
0.0927457
-0.00718746
0.000323674
0.0921995
-0.0073309
0.000292218
0.0911623
-0.0068327
0.000263598
0.0906741
-0.00689862
0.000105953
0.0900351
-0.00683118
-0.00015218
0.0890183
-0.00632508
-0.00027177
0.089607
-0.00664882
-0.000314469
0.0905025
-0.00656885
-0.000291822
0.0910711
-0.00702274
-0.000263918
0.0918864
-0.00692443
-0.000189038
0.0925328
-0.00718983
-0.000171739
0.0928746
-0.00690868
-0.000168915
0.0932815
-0.00666717
-0.000149572
0.0937882
-0.00647971
-0.000261491
0.0937772
-0.00586145
-0.000505377
0.0937243
-0.00551418
-0.000732654
0.093782
-0.00554766
-0.00102765
0.0931161
-0.00555642
-0.00130512
0.0934736
-0.00549791
-0.00131901
0.0931395
-0.00623337
-0.000403844
0.0933776
-0.00773677
0.000662327
0.0921928
-0.00775621
0.0844311
-0.00560178
-0.000894347
0.088022
-0.00287153
2.67426e-05
0.0943616
-0.00408057
0.000852223
0.0957225
-0.00340576
0.000745435
0.0952515
-0.002105
0.00054219
0.0951874
-0.00176671
0.000441842
0.0952432
-0.00178386
0.000183165
0.0955642
-0.00185783
-6.05185e-05
0.0957512
-0.00198894
-0.000127428
0.0958478
-0.00228978
-0.000135403
0.0963579
-0.00277695
-0.00010557
0.0962117
-0.00296273
-4.76839e-05
0.0965648
-0.00344824
3.74105e-05
0.096341
-0.0036802
0.000154239
0.0961074
-0.00402454
0.000193107
0.0957136
-0.0045901
0.000221627
0.0955274
-0.00488176
0.000106429
0.0952177
-0.00506739
-0.000115985
0.0942205
-0.0049797
-0.000206327
0.0947332
-0.00503585
-0.000189271
0.0952794
-0.00479398
-0.00013717
0.0957136
-0.00469458
-6.23749e-05
0.0960139
-0.00420225
2.08203e-05
0.0962192
-0.00376946
6.53548e-05
0.0964172
-0.00358704
0.000119919
0.096227
-0.00300009
0.00015904
0.0964035
-0.00265438
8.0364e-05
0.0962932
-0.00243734
-0.000154157
0.0957735
-0.00181473
-0.000378455
0.0957193
-0.00171292
-0.000623645
0.0951954
-0.00183402
-0.000824255
0.0951801
-0.00150573
-0.00085141
0.0953903
-0.00222349
-5.9232e-05
0.096127
-0.00354138
0.000847833
0.0948346
-0.00354871
0.0882962
-0.0030172
-0.000779486
0.0898246
-0.00102294
-0.000163646
0.0950606
-0.0013146
0.000438555
0.0957968
-0.000676348
0.00032333
0.0953096
5.72315e-05
5.63533e-05
0.0949854
0.00046903
-3.17387e-06
0.0951816
0.000121144
-0.000220349
0.0952596
0.000521903
-0.00042071
0.0959893
-3.7678e-05
-0.000481418
0.096123
-0.000214438
-0.000443476
0.0966581
-0.000337965
-0.000392651
0.0970452
-0.00088418
-0.00031593
0.0973823
-0.000894014
-0.00018139
0.0974334
-0.00122679
-7.68798e-05
0.0974696
-0.00146657
4.99314e-06
0.0972311
-0.00159921
7.89979e-05
0.0971899
-0.00173645
3.73385e-05
0.0971497
-0.00189023
-7.75441e-05
0.0964309
-0.0020954
-9.46778e-05
0.0969348
-0.00218435
-2.14367e-06
0.0969777
-0.00179071
8.56532e-05
0.097236
-0.00161005
0.000178632
0.097432
-0.00151097
0.000284577
0.0973133
-0.00119999
0.000359218
0.0973625
-0.0010198
0.000427881
0.0970313
-0.00087288
0.000503029
0.096925
-0.000596643
0.000449722
0.09636
-1.33839e-05
0.000263989
0.0958923
6.69939e-05
4.74769e-05
0.0955734
0.000362442
-0.000116873
0.0952013
0.000158542
-0.000304894
0.0949442
0.000424051
-0.000417946
0.0952803
0.000223182
0.000120693
0.0960195
-0.000430926
0.000803802
0.0954593
-0.00130766
0.0902044
-0.00110422
-0.000587071
0.089665
0.000746782
-0.000240675
0.0937195
0.000994885
0.000153514
0.0939436
0.00145921
-4.32979e-05
0.0932973
0.00220932
-0.000388876
0.0927384
0.00259274
-0.000482869
0.092909
0.00236673
-0.000589526
0.0927635
0.00260293
-0.000752755
0.0937039
0.00244879
-0.000836549
0.0938585
0.00234853
-0.000791735
0.0946338
0.00197968
-0.000721128
0.0952662
0.00170861
-0.000560726
0.0956946
0.00152745
-0.000432783
0.0962365
0.0010691
-0.000368612
0.096563
0.000842554
-0.000211067
0.0967503
0.000323362
-7.96548e-05
0.0968904
0.000168195
-3.5914e-05
0.0970964
9.57855e-06
1.34019e-05
0.0967664
-0.000384759
9.37404e-05
0.0969387
-8.41613e-05
0.000216348
0.0968554
-1.84521e-07
0.000316821
0.0967161
0.000419513
0.000423815
0.0965592
0.000765901
0.000561455
0.0961221
0.00105372
0.000698127
0.0958612
0.00136475
0.000776264
0.095161
0.00179233
0.000844207
0.094827
0.0020303
0.000817822
0.0941174
0.00226907
0.000644311
0.0935308
0.00253524
0.000460239
0.0930171
0.00274052
0.00032572
0.0928855
0.00245051
9.84072e-05
0.092521
0.00265074
-0.000104383
0.0932276
0.00225568
0.000223669
0.0940619
0.0016296
0.000584394
0.0938265
0.00127223
0.0901708
0.000618013
-0.000254911
0.0879197
0.00200033
-0.000213073
0.0907342
0.0029436
-0.000136063
0.0904356
0.00343124
-0.000317632
0.0897106
0.00376847
-0.000663032
0.0890651
0.00401891
-0.000834358
0.0891826
0.00389795
-0.00092764
0.0889106
0.0039463
-0.000991971
0.0897479
0.00402063
-0.00106432
0.0900483
0.00388273
-0.00108381
0.0908492
0.00380434
-0.000992762
0.0915957
0.0035797
-0.000851144
0.0920425
0.0035107
-0.000708588
0.0928059
0.00328832
-0.000622012
0.0933934
0.00308323
-0.000454248
0.0939176
0.0026652
-0.000308455
0.0942272
0.00251762
-0.000151919
0.0946005
0.00233956
9.7911e-05
0.0946549
0.00186186
0.00030792
0.094709
0.00201988
0.000447604
0.094329
0.00238688
0.000553323
0.0938876
0.00272287
0.000690276
0.0934104
0.00301203
0.000891201
0.0927191
0.00320219
0.00103149
0.09232
0.00340112
0.00106043
0.0914644
0.00366795
0.00108923
0.0909768
0.00382157
0.00103798
0.0902308
0.00393804
0.000924582
0.0895695
0.0040749
0.000803037
0.0891061
0.00403275
0.000691741
0.0891975
0.00379952
0.000360682
0.0889557
0.00389653
8.06664e-05
0.0896541
0.00385376
0.000156065
0.0903596
0.00362715
0.000245442
0.0906344
0.00310286
0.088281
0.00213538
0.000282753
0.0846045
0.00303265
6.54439e-05
0.0869878
0.00396399
-0.00020852
0.0864043
0.00430544
-0.000517758
0.0856458
0.00437421
-0.000779826
0.0846341
0.00469323
-0.000963617
0.0848152
0.00455141
-0.00111918
0.0845576
0.00450877
-0.00114637
0.0851607
0.00461464
-0.00122471
0.085626
0.00450097
-0.00125043
0.0863394
0.00453585
-0.00117149
0.087077
0.0044401
-0.00108835
0.0875104
0.00444934
-0.000948234
0.0882688
0.00439726
-0.000822268
0.0889544
0.00431332
-0.000661163
0.0897238
0.00403291
-0.00048267
0.0901449
0.00390406
-0.000194697
0.0906225
0.00369028
0.000199069
0.0910175
0.00324374
0.0004531
0.0909264
0.00352877
0.00064621
0.09029
0.00384606
0.000822287
0.0897037
0.00400812
0.000961428
0.0890828
0.00418869
0.0010928
0.0883515
0.00423655
0.00121249
0.0878367
0.0043639
0.00123378
0.0869452
0.00449819
0.00120053
0.0865021
0.00450821
0.00117495
0.0856691
0.0045876
0.00110148
0.0850042
0.00463892
0.000999021
0.0846753
0.00453353
0.000884065
0.0848327
0.00447992
0.000443126
0.0848525
0.00454443
6.34195e-05
0.0855315
0.0045025
-0.000124083
0.0861585
0.0043888
-0.000255671
0.086688
0.00407811
0.085165
0.00286045
0.000699464
0.0806727
0.00323254
0.000384632
0.0827766
0.00452623
-2.2187e-05
0.081953
0.0048584
-0.000508827
0.0813524
0.00478031
-0.000805465
0.0800358
0.00489519
-0.00096542
0.0801211
0.00485429
-0.00115173
0.0798587
0.00488549
-0.00119607
0.0802661
0.00493925
-0.00128483
0.0807834
0.00493168
-0.0013033
0.0814276
0.00493061
-0.00124091
0.0821041
0.00491088
-0.00119563
0.082652
0.00481351
-0.00109734
0.0834123
0.00475855
-0.000963983
0.0841361
0.00468527
-0.000775041
0.0849634
0.00457176
-0.000525316
0.0854589
0.00443651
-0.000176522
0.0860658
0.00420807
0.000241918
0.0867864
0.00381293
0.000521931
0.0865018
0.00414477
0.000756187
0.0856567
0.00439931
0.00101486
0.0849543
0.00449094
0.00112851
0.0843374
0.004632
0.00111939
0.0837045
0.00465638
0.00121101
0.0829442
0.00480114
0.00131788
0.0818939
0.00494476
0.00129856
0.0816154
0.00490631
0.00123659
0.0807899
0.00494142
0.00113734
0.0801615
0.00494228
0.00101471
0.0799317
0.00486654
0.000865215
0.0801777
0.00480484
0.000410801
0.0803751
0.00493204
-3.96937e-05
0.0811947
0.00478755
-0.00043509
0.0817386
0.0048155
-0.00064921
0.0823134
0.00458897
0.0815219
0.00299405
0.000804012
0.0767331
0.00313582
0.000562369
0.0782412
0.00477729
0.000197053
0.0773832
0.00493541
-0.00029957
0.0769797
0.00486955
-0.000711848
0.0757158
0.00473256
-0.000909662
0.0755135
0.00480569
-0.00107615
0.0750974
0.00492806
-0.00114664
0.0754064
0.00493051
-0.00122394
0.0758634
0.00499761
-0.00123225
0.0764622
0.00497409
-0.00122496
0.0771392
0.00495796
-0.00118577
0.0776354
0.00497779
-0.00111138
0.0783959
0.00494245
-0.00101535
0.0791852
0.00485513
-0.000805607
0.0798738
0.00488011
-0.000520188
0.0804114
0.00476234
-0.000196999
0.0811283
0.0046146
0.000206766
0.0820495
0.00433339
0.000543568
0.081526
0.00463926
0.000811333
0.0806002
0.00478899
0.00107904
0.0798547
0.00483217
0.00114085
0.0793399
0.00493603
0.00107532
0.0788166
0.00495381
0.00116664
0.077842
0.00501128
0.00130581
0.0767748
0.0049803
0.00130357
0.0766614
0.00495661
0.00117483
0.0759341
0.00498491
0.00105546
0.0753637
0.00491754
0.000911059
0.0751789
0.00489752
0.000710626
0.0755986
0.00477982
0.000289929
0.0758817
0.00491443
-0.000197274
0.0769508
0.00473143
-0.000671265
0.0773295
0.00488334
-0.000870278
0.0777309
0.00478171
0.0775293
0.0031225
0.000792734
0.0731154
0.00282514
0.000678805
0.0738297
0.00452576
0.000319224
0.0730459
0.00469716
-4.60107e-05
0.0726881
0.00465715
-0.000479364
0.0716439
0.00450556
-0.000751881
0.0711719
0.00461432
-0.000938468
0.070567
0.00471736
-0.00103352
0.070772
0.00472973
-0.00109107
0.0710824
0.00483899
-0.00111188
0.0716668
0.00481664
-0.00114065
0.0723405
0.00482795
-0.00109973
0.0726815
0.00491333
-0.00102955
0.0734379
0.00488823
-0.000952121
0.0742518
0.00485638
-0.000769637
0.0747876
0.00490411
-0.000525479
0.0753224
0.00484516
-0.000245638
0.0760446
0.00480418
0.000153911
0.0769808
0.00466938
0.000550432
0.0762784
0.00485139
0.000816407
0.0754396
0.00489487
0.00101703
0.074745
0.00490945
0.00104716
0.0743514
0.00495876
0.00101597
0.0738913
0.00495687
0.00110673
0.0728222
0.00492946
0.00116884
0.0719458
0.00476724
0.00115501
0.0718517
0.00482389
0.00103853
0.0711889
0.0048621
0.000914886
0.070802
0.00468567
0.000736801
0.0706587
0.00469866
0.000491378
0.0712416
0.00460274
5.95052e-05
0.0716847
0.00462918
-0.00037749
0.0727798
0.00460829
-0.000799972
0.0730358
0.00471643
-0.000931091
0.0733677
0.00449459
0.0736546
0.00294375
0.000804756
0.0699661
0.00234476
0.000803248
0.0698218
0.00400965
0.000409846
0.0690617
0.00437779
0.000162225
0.0686476
0.00428833
-0.000193449
0.0677286
0.00427122
-0.000478329
0.0671258
0.00433127
-0.000716407
0.0664086
0.00439682
-0.000859071
0.0664875
0.00442755
-0.000954867
0.0666506
0.00452791
-0.00100291
0.0671734
0.00454184
-0.000989431
0.0677057
0.00462168
-0.000958008
0.0679698
0.00468071
-0.00092544
0.0687445
0.00466124
-0.000831075
0.0694223
0.00473558
-0.000677179
0.0699028
0.00473122
-0.000513077
0.0704081
0.00475058
-0.000252638
0.0710278
0.00475659
0.00016027
0.0718078
0.00476045
0.000538098
0.0711206
0.0047802
0.000735817
0.0704848
0.00475744
0.000862828
0.0698503
0.00476803
0.000910688
0.0695183
0.00478555
0.000930486
0.069123
0.00474893
0.00100187
0.0680652
0.00468602
0.000965038
0.0674805
0.0045026
0.000939454
0.0673074
0.00457028
0.000887845
0.0666625
0.00457836
0.000721877
0.0666063
0.00436199
0.000484465
0.0665297
0.00436674
0.000215192
0.0671476
0.0043636
-0.000201604
0.0678147
0.00428716
-0.00048442
0.068669
0.00439385
-0.000845861
0.0689996
0.00439796
-0.000908597
0.0694716
0.00395907
0.0703104
0.00243578
0.000845471
0.0673437
0.00177706
0.000888162
0.066287
0.00349237
0.000489579
0.0654219
0.0040387
0.000329998
0.0648716
0.00393588
4.45927e-05
0.0640333
0.00398099
-0.000199824
0.0633826
0.00398789
-0.000443228
0.0625992
0.0040531
-0.000632429
0.0625887
0.00408836
-0.000802246
0.0626751
0.00414575
-0.000863641
0.0630239
0.0042113
-0.000809038
0.0633717
0.00427988
-0.000797906
0.0636434
0.00431574
-0.000805746
0.0644227
0.00433001
-0.000702974
0.064877
0.00444286
-0.000572988
0.0653738
0.00439937
-0.000473566
0.0658495
0.00445952
-0.000217969
0.0663064
0.00446615
0.00019066
0.0668648
0.00453469
0.00049026
0.0663366
0.00448474
0.000604065
0.0659172
0.00445409
0.000680258
0.0653174
0.00445699
0.000767372
0.0649773
0.00445425
0.000834014
0.0646464
0.00441037
0.000872586
0.0637084
0.00431854
0.000779348
0.0633567
0.00421744
0.00073247
0.0631311
0.00422364
0.000688857
0.0625445
0.00416199
0.000469378
0.0627628
0.0040634
0.000192787
0.0627795
0.00402714
-4.69917e-05
0.0633101
0.00407765
-0.000363148
0.0641289
0.00400225
-0.000510566
0.0647758
0.00404095
-0.00089742
0.0653812
0.00400553
-0.000915855
0.0660343
0.00345601
0.067558
0.00183674
0.00091396
0.0650122
0.00141774
0.000954559
0.0631015
0.00314516
0.000546229
0.0621801
0.00365038
0.000437407
0.0613349
0.00364573
0.000195738
0.0606172
0.00365803
3.78095e-06
0.0599009
0.00367401
-0.000217066
0.0591327
0.00368763
-0.000421848
0.0590445
0.00374925
-0.000601946
0.0590824
0.00377314
-0.000663894
0.0592316
0.00385463
-0.000665006
0.0595299
0.00384325
-0.000672711
0.0597544
0.00389712
-0.000666477
0.0604575
0.00395943
-0.000578739
0.0607603
0.00402936
-0.000483188
0.0612686
0.00401009
-0.00041058
0.061721
0.00405621
-0.000185605
0.0620435
0.00403823
0.000157073
0.062415
0.00410743
0.000394981
0.0620354
0.00406366
0.000493435
0.0617562
0.0040629
0.000549688
0.0612028
0.00405872
0.000644758
0.0608692
0.00401346
0.000730369
0.0605702
0.00399095
0.000732253
0.059816
0.00389099
0.000632693
0.0595492
0.0039074
0.000549542
0.0593765
0.00383815
0.00043724
0.0589212
0.00373601
0.000225978
0.0591738
0.00380054
-9.27104e-06
0.0592798
0.00373526
-0.00019411
0.0597627
0.00373259
-0.000417276
0.0606412
0.00371115
-0.000530703
0.0612274
0.00366205
-0.000982456
0.0621984
0.00363486
-0.000983646
0.0629288
0.00310693
0.0651191
0.00145542
0.000995522
0.0626093
0.00140764
0.00104196
0.0601182
0.00293707
0.000610259
0.0593133
0.00329864
0.000468543
0.0580799
0.00339693
0.000248115
0.0574809
0.00335691
0.00011481
0.056639
0.00339541
-8.21344e-05
0.0559901
0.00333985
-0.000277394
0.055814
0.0034261
-0.000406866
0.0557779
0.00343432
-0.000471137
0.0557995
0.00349678
-0.000568949
0.0561753
0.00345281
-0.000584326
0.0562602
0.00350992
-0.000544219
0.0568282
0.0035895
-0.000489245
0.0570934
0.00361232
-0.000406498
0.0575303
0.00365584
-0.000316563
0.0579535
0.00367787
-0.000150335
0.0582474
0.00363017
9.06971e-05
0.0584862
0.00368801
0.000285626
0.0582153
0.00362542
0.000407403
0.0579783
0.00365644
0.000465342
0.0575061
0.00363907
0.000544274
0.0571987
0.00359187
0.000618259
0.0569143
0.00358222
0.000592561
0.0563326
0.00350945
0.000513021
0.0560499
0.0035793
0.000401015
0.0560036
0.00348529
0.0002226
0.0557179
0.00338207
8.26989e-05
0.0558091
0.00350494
-7.09337e-05
0.0560083
0.00342545
-0.000234126
0.0565561
0.00337008
-0.000445242
0.0574782
0.00337443
-0.000592612
0.0580133
0.00336183
-0.00105547
0.059315
0.00334643
-0.00105563
0.0600365
0.00289265
0.0626561
0.00140752
0.00105006
0.0600094
0.00155001
0.0011067
0.0572754
0.00278637
0.000690242
0.056659
0.00307104
0.000479169
0.0551342
0.00315697
0.000238163
0.0546386
0.00308356
0.000120069
0.0536654
0.00309197
-4.35092e-05
0.0530981
0.00305579
-0.000196724
0.0528337
0.00313382
-0.000284315
0.052723
0.00314281
-0.000355225
0.0526957
0.00317501
-0.000481825
0.0531231
0.00317922
-0.000501439
0.0530833
0.00319691
-0.000463071
0.053529
0.00326121
-0.000435264
0.0537935
0.00327245
-0.000345617
0.0541072
0.00333385
-0.000227708
0.0544816
0.00335429
-0.000101231
0.0547899
0.00333137
6.99723e-05
0.0549539
0.00336136
0.000215627
0.0547736
0.00329634
0.000327378
0.0545402
0.00332659
0.000387419
0.0541786
0.00326779
0.000459199
0.0538573
0.0032699
0.000515963
0.0536018
0.00325614
0.000473552
0.0531732
0.00320208
0.000414954
0.0528591
0.00324966
0.000305144
0.0529114
0.00320233
0.000125207
0.0527965
0.00310167
4.73875e-05
0.0527155
0.00317175
-9.01804e-05
0.0530757
0.00307048
-0.000253045
0.0536559
0.00306335
-0.000463751
0.0546254
0.00306373
-0.000662462
0.0550709
0.00314133
-0.00109058
0.0566218
0.0031216
-0.00109679
0.0572724
0.00277052
0.0599886
0.00157091
0.00105392
0.0572688
0.00168676
0.00110497
0.0545402
0.00268432
0.000737925
0.0540952
0.00293096
0.000486171
0.0524634
0.00292275
0.000242547
0.0520273
0.00285506
9.27867e-05
0.0510112
0.00280413
-5.82247e-05
0.0504288
0.00282056
-0.000154179
0.0500541
0.00287583
-0.000245694
0.0499207
0.00289413
-0.000315473
0.0498582
0.00290761
-0.000384629
0.0502208
0.00297174
-0.000417476
0.0501643
0.00295209
-0.000403688
0.0505197
0.00299583
-0.000363833
0.0507433
0.0030106
-0.000287553
0.0510003
0.00303087
-0.000192969
0.0513375
0.00304978
-7.95411e-05
0.0515771
0.00309966
7.07238e-05
0.0517136
0.00309034
0.000192317
0.0515566
0.00309572
0.000278775
0.0513685
0.00308554
0.000330876
0.0511342
0.00299255
0.000392639
0.0507845
0.00301138
0.000425904
0.0505846
0.00298419
0.000383494
0.0502771
0.00293891
0.000337998
0.0499652
0.00293974
0.000258366
0.050035
0.00295634
0.000125921
0.0500581
0.00287109
4.91365e-05
0.0499486
0.00284396
-0.000124605
0.0504843
0.00276537
-0.000262508
0.0509793
0.00281471
-0.000444321
0.0519953
0.00281211
-0.00069159
0.0523801
0.00293824
-0.00107541
0.0540777
0.00292812
-0.00107113
0.0545774
0.00269099
0.057194
0.00172359
0.00100703
0.0544494
0.00181255
0.00104012
0.0518868
0.00262039
0.00072684
0.0516127
0.00279592
0.000459837
0.0500104
0.00272018
0.000261602
0.0495671
0.00265867
9.60691e-05
0.0485953
0.00258165
-6.05518e-05
0.0479917
0.00259391
-0.000113736
0.0474756
0.00263194
-0.000232253
0.047375
0.0026644
-0.000298375
0.0472597
0.00266488
-0.00030553