/*--------------------------------*- C++ -*----------------------------------*\
  =========                 |
  \\      /  F ield         | OpenFOAM: The Open Source CFD Toolbox
   \\    /   O peration     | Website:  https://openfoam.org
    \\  /    A nd           | Version:  8
     \\/     M anipulation  |
\*---------------------------------------------------------------------------*/
FoamFile
{
    version     2.0;
    format      ascii;
    class       volScalarField;
    location    "100";
    object      T;
}
// * * * * * * * * * * * * * * * * * * * * * * * * * * * * * * * * * * * * * //

dimensions      [0 0 0 1 0 0 0];

internalField   nonuniform List<scalar> 
78750
(
292.728
292.707
292.717
292.717
292.724
292.73
292.731
292.73
292.73
292.727
292.724
292.73
292.729
292.729
292.73
292.731
292.731
292.732
292.732
292.729
292.731
292.73
292.729
292.728
292.729
292.729
292.728
292.729
292.731
292.731
292.725
292.719
292.715
292.707
292.716
292.757
292.709
292.718
292.724
292.738
292.733
292.734
292.739
292.735
292.732
292.745
292.735
292.734
292.737
292.738
292.739
292.74
292.741
292.742
292.736
292.74
292.737
292.738
292.736
292.733
292.731
292.732
292.733
292.739
292.734
292.739
292.729
292.716
292.708
292.739
292.774
292.723
292.732
292.742
292.763
292.758
292.752
292.744
292.757
292.753
292.779
292.764
292.76
292.764
292.771
292.77
292.766
292.767
292.774
292.757
292.766
292.762
292.763
292.769
292.758
292.758
292.755
292.75
292.743
292.759
292.764
292.747
292.729
292.726
292.764
292.766
292.737
292.742
292.744
292.763
292.76
292.754
292.758
292.758
292.775
292.793
292.782
292.781
292.784
292.775
292.776
292.773
292.792
292.779
292.783
292.784
292.784
292.787
292.784
292.766
292.764
292.759
292.75
292.76
292.756
292.766
292.751
292.741
292.738
292.769
292.759
292.745
292.747
292.757
292.763
292.761
292.765
292.76
292.774
292.775
292.788
292.779
292.776
292.781
292.78
292.783
292.787
292.793
292.789
292.778
292.777
292.781
292.782
292.782
292.78
292.778
292.775
292.765
292.762
292.758
292.767
292.76
292.743
292.741
292.768
292.758
292.746
292.747
292.758
292.755
292.755
292.762
292.771
292.77
292.774
292.782
292.775
292.775
292.781
292.776
292.777
292.78
292.79
292.782
292.775
292.776
292.781
292.78
292.776
292.774
292.772
292.77
292.766
292.766
292.758
292.761
292.756
292.751
292.742
292.768
292.765
292.757
292.76
292.759
292.752
292.754
292.762
292.765
292.772
292.771
292.775
292.772
292.773
292.774
292.773
292.77
292.774
292.779
292.775
292.77
292.771
292.774
292.773
292.772
292.772
292.768
292.772
292.767
292.758
292.755
292.758
292.758
292.753
292.761
292.781
292.769
292.762
292.76
292.753
292.752
292.751
292.756
292.763
292.765
292.769
292.768
292.769
292.768
292.768
292.768
292.768
292.768
292.77
292.764
292.766
292.765
292.768
292.771
292.766
292.769
292.766
292.77
292.762
292.759
292.752
292.757
292.756
292.764
292.766
292.778
292.774
292.774
292.761
292.754
292.751
292.75
292.752
292.76
292.763
292.767
292.765
292.767
292.766
292.764
292.766
292.766
292.764
292.761
292.764
292.761
292.761
292.767
292.768
292.764
292.764
292.768
292.767
292.761
292.758
292.747
292.755
292.757
292.758
292.777
292.779
292.765
292.768
292.757
292.753
292.748
292.749
292.753
292.756
292.759
292.767
292.762
292.767
292.764
292.763
292.763
292.762
292.762
292.758
292.762
292.756
292.76
292.765
292.765
292.765
292.766
292.766
292.764
292.759
292.755
292.749
292.752
292.753
292.757
292.771
292.776
292.763
292.766
292.757
292.749
292.745
292.745
292.752
292.757
292.76
292.765
292.76
292.766
292.764
292.761
292.76
292.758
292.76
292.754
292.758
292.755
292.758
292.761
292.762
292.763
292.764
292.762
292.765
292.758
292.753
292.748
292.749
292.751
292.754
292.772
292.774
292.762
292.763
292.754
292.747
292.746
292.747
292.75
292.753
292.757
292.762
292.762
292.761
292.762
292.76
292.756
292.756
292.76
292.756
292.758
292.752
292.754
292.761
292.76
292.758
292.761
292.762
292.762
292.758
292.75
292.747
292.751
292.753
292.755
292.77
292.771
292.765
292.767
292.763
292.762
292.758
292.749
292.753
292.754
292.757
292.761
292.761
292.763
292.76
292.757
292.758
292.757
292.757
292.753
292.755
292.753
292.756
292.758
292.763
292.761
292.759
292.76
292.763
292.762
292.76
292.759
292.764
292.765
292.764
292.771
292.77
292.781
292.8
292.8
292.804
292.806
292.788
292.79
292.78
292.783
292.784
292.781
292.778
292.771
292.766
292.762
292.76
292.758
292.753
292.756
292.756
292.761
292.767
292.773
292.777
292.781
292.787
292.797
292.799
292.804
292.808
292.811
292.809
292.804
292.809
292.791
292.831
292.864
292.871
292.878
292.879
292.854
292.855
292.84
292.841
292.841
292.837
292.828
292.818
292.81
292.802
292.794
292.789
292.776
292.786
292.79
292.8
292.81
292.819
292.828
292.836
292.845
292.859
292.865
292.873
292.879
292.883
292.882
292.876
292.87
292.842
292.898
292.942
292.947
292.954
292.958
292.935
292.935
292.915
292.916
292.917
292.912
292.901
292.887
292.877
292.866
292.855
292.845
292.827
292.844
292.852
292.864
292.877
292.888
292.9
292.911
292.92
292.936
292.942
292.951
292.958
292.962
292.96
292.955
292.951
292.907
292.968
293.021
293.033
293.035
293.036
293.014
293.014
292.997
292.997
292.996
292.991
292.978
292.966
292.956
292.944
292.93
292.918
292.895
292.916
292.926
292.942
292.956
292.966
292.978
292.99
292.999
293.013
293.02
293.029
293.035
293.04
293.038
293.037
293.03
292.975
293.027
293.092
293.1
293.099
293.1
293.085
293.087
293.069
293.07
293.07
293.064
293.053
293.041
293.032
293.021
293.008
292.994
292.972
292.994
293.006
293.019
293.033
293.043
293.054
293.064
293.071
293.084
293.089
293.096
293.101
293.105
293.102
293.107
293.097
293.035
293.078
293.141
293.16
293.156
293.153
293.142
293.143
293.132
293.131
293.131
293.125
293.117
293.108
293.1
293.09
293.078
293.067
293.046
293.065
293.076
293.09
293.101
293.109
293.116
293.124
293.131
293.142
293.145
293.152
293.154
293.158
293.157
293.161
293.148
293.083
293.109
293.18
293.199
293.193
293.195
293.187
293.189
293.179
293.18
293.18
293.175
293.169
293.161
293.156
293.147
293.139
293.128
293.112
293.127
293.137
293.147
293.156
293.163
293.169
293.175
293.18
293.187
293.189
293.194
293.197
293.198
293.198
293.205
293.179
293.116
293.138
293.202
293.236
293.232
293.228
293.224
293.225
293.219
293.218
293.218
293.215
293.21
293.205
293.201
293.193
293.187
293.179
293.166
293.178
293.185
293.194
293.201
293.206
293.21
293.214
293.218
293.223
293.224
293.228
293.23
293.231
293.233
293.234
293.209
293.139
293.154
293.23
293.264
293.262
293.26
293.257
293.257
293.252
293.253
293.253
293.25
293.246
293.242
293.24
293.233
293.228
293.221
293.212
293.221
293.228
293.233
293.238
293.243
293.246
293.25
293.252
293.255
293.257
293.26
293.261
293.264
293.264
293.267
293.227
293.159
293.182
293.257
293.305
293.306
293.294
293.294
293.293
293.288
293.288
293.286
293.283
293.281
293.279
293.275
293.271
293.266
293.26
293.253
293.259
293.264
293.271
293.275
293.278
293.281
293.285
293.285
293.289
293.292
293.294
293.294
293.297
293.306
293.304
293.262
293.182
293.211
293.3
293.349
293.351
293.337
293.332
293.332
293.327
293.326
293.324
293.323
293.321
293.317
293.315
293.311
293.307
293.301
293.295
293.3
293.306
293.309
293.313
293.315
293.32
293.323
293.323
293.327
293.329
293.33
293.331
293.34
293.351
293.349
293.297
293.213
293.25
293.344
293.412
293.413
293.385
293.379
293.38
293.37
293.372
293.366
293.366
293.364
293.361
293.357
293.354
293.349
293.345
293.339
293.344
293.349
293.352
293.357
293.358
293.364
293.365
293.366
293.371
293.372
293.374
293.377
293.388
293.412
293.412
293.351
293.251
293.299
293.408
293.474
293.475
293.442
293.43
293.43
293.419
293.42
293.414
293.415
293.414
293.408
293.405
293.4
293.397
293.393
293.387
293.393
293.398
293.4
293.404
293.405
293.41
293.411
293.412
293.421
293.419
293.422
293.426
293.442
293.472
293.472
293.405
293.297
293.343
293.464
293.545
293.54
293.496
293.483
293.481
293.47
293.472
293.463
293.463
293.462
293.457
293.452
293.45
293.446
293.443
293.437
293.442
293.445
293.449
293.453
293.455
293.461
293.461
293.462
293.472
293.471
293.473
293.479
293.501
293.541
293.548
293.472
293.344
293.401
293.527
293.611
293.604
293.553
293.536
293.532
293.519
293.521
293.514
293.514
293.513
293.506
293.502
293.5
293.498
293.492
293.488
293.491
293.496
293.499
293.503
293.506
293.511
293.511
293.511
293.522
293.52
293.525
293.531
293.556
293.599
293.61
293.527
293.398
293.438
293.578
293.668
293.656
293.602
293.584
293.579
293.569
293.568
293.562
293.56
293.56
293.554
293.551
293.549
293.546
293.54
293.537
293.541
293.543
293.549
293.551
293.555
293.56
293.559
293.56
293.571
293.57
293.571
293.579
293.609
293.659
293.677
293.585
293.437
293.478
293.621
293.727
293.708
293.648
293.625
293.62
293.61
293.61
293.605
293.604
293.603
293.597
293.596
293.593
293.591
293.585
293.584
293.585
293.59
293.593
293.597
293.599
293.603
293.603
293.602
293.612
293.612
293.616
293.621
293.651
293.703
293.724
293.625
293.48
293.498
293.664
293.762
293.746
293.683
293.661
293.655
293.647
293.647
293.642
293.642
293.641
293.636
293.636
293.633
293.629
293.626
293.624
293.627
293.63
293.634
293.636
293.638
293.64
293.64
293.641
293.649
293.649
293.65
293.655
293.689
293.748
293.775
293.666
293.501
293.528
293.685
293.807
293.779
293.71
293.687
293.681
293.675
293.678
293.674
293.673
293.672
293.668
293.668
293.666
293.664
293.659
293.659
293.66
293.666
293.665
293.669
293.669
293.672
293.671
293.673
293.676
293.679
293.681
293.686
293.713
293.775
293.803
293.688
293.527
293.538
293.714
293.831
293.804
293.734
293.711
293.706
293.702
293.702
293.699
293.699
293.699
293.696
293.696
293.694
293.691
293.689
293.689
293.69
293.692
293.693
293.694
293.696
293.697
293.698
293.699
293.7
293.703
293.704
293.707
293.737
293.807
293.839
293.715
293.533
293.562
293.727
293.862
293.826
293.75
293.726
293.722
293.721
293.721
293.72
293.718
293.72
293.717
293.717
293.716
293.715
293.713
293.713
293.714
293.715
293.715
293.717
293.717
293.719
293.718
293.72
293.72
293.722
293.723
293.729
293.752
293.822
293.854
293.723
293.551
293.57
293.757
293.872
293.838
293.765
293.741
293.74
293.737
293.735
293.733
293.733
293.736
293.734
293.733
293.733
293.731
293.732
293.731
293.731
293.731
293.732
293.733
293.733
293.734
293.734
293.733
293.734
293.735
293.737
293.742
293.77
293.846
293.884
293.749
293.554
293.589
293.764
293.899
293.856
293.776
293.753
293.747
293.746
293.747
293.745
293.743
293.746
293.746
293.744
293.747
293.745
293.746
293.743
293.744
293.744
293.745
293.746
293.745
293.745
293.745
293.743
293.747
293.745
293.746
293.756
293.778
293.853
293.89
293.757
293.576
293.585
293.772
293.909
293.864
293.785
293.763
293.757
293.752
293.754
293.751
293.752
293.752
293.754
293.752
293.755
293.753
293.754
293.754
293.752
293.754
293.753
293.753
293.753
293.753
293.752
293.752
293.752
293.754
293.757
293.762
293.79
293.869
293.915
293.768
293.574
293.585
293.766
293.943
293.881
293.795
293.774
293.76
293.759
293.76
293.758
293.758
293.758
293.759
293.758
293.761
293.76
293.759
293.76
293.756
293.76
293.76
293.759
293.758
293.757
293.759
293.757
293.759
293.758
293.761
293.774
293.796
293.877
293.922
293.76
293.576
293.582
293.763
293.954
293.889
293.801
293.778
293.768
293.765
293.764
293.762
293.761
293.76
293.762
293.763
293.764
293.764
293.762
293.765
293.763
293.763
293.764
293.763
293.761
293.762
293.761
293.761
293.762
293.766
293.768
293.778
293.807
293.886
293.955
293.759
293.573
293.578
293.759
293.969
293.909
293.812
293.785
293.772
293.77
293.766
293.765
293.764
293.763
293.764
293.765
293.767
293.767
293.764
293.767
293.765
293.767
293.765
293.763
293.762
293.764
293.766
293.764
293.766
293.769
293.774
293.788
293.816
293.904
293.962
293.755
293.57
293.575
293.756
293.96
293.917
293.819
293.792
293.779
293.774
293.769
293.768
293.767
293.767
293.766
293.767
293.768
293.769
293.767
293.768
293.769
293.768
293.767
293.767
293.766
293.767
293.769
293.765
293.77
293.773
293.777
293.789
293.824
293.907
293.97
293.752
293.568
293.572
293.751
293.956
293.935
293.828
293.795
293.784
293.777
293.771
293.771
293.769
293.768
293.767
293.769
293.769
293.77
293.767
293.771
293.77
293.772
293.768
293.769
293.767
293.768
293.771
293.771
293.773
293.777
293.783
293.8
293.835
293.929
293.961
293.746
293.564
293.567
293.747
293.951
293.937
293.839
293.805
293.787
293.784
293.778
293.775
293.775
293.772
293.772
293.772
293.773
293.773
293.77
293.772
293.775
293.773
293.771
293.77
293.77
293.772
293.774
293.773
293.776
293.78
293.788
293.802
293.841
293.938
293.959
293.743
293.562
293.565
293.742
293.946
293.954
293.843
293.808
293.796
293.785
293.782
293.779
293.776
293.773
293.773
293.773
293.775
293.774
293.771
293.775
293.777
293.777
293.772
293.775
293.774
293.775
293.777
293.778
293.781
293.788
293.793
293.814
293.852
293.963
293.953
293.74
293.559
293.561
293.736
293.938
293.958
293.856
293.817
293.797
293.792
293.786
293.779
293.784
293.779
293.777
293.778
293.78
293.778
293.775
293.776
293.779
293.779
293.775
293.777
293.775
293.779
293.778
293.781
293.782
293.794
293.805
293.815
293.856
293.972
293.946
293.737
293.555
293.555
293.734
293.932
293.982
293.858
293.824
293.809
293.796
293.792
293.784
293.786
293.782
293.779
293.78
293.782
293.78
293.775
293.78
293.787
293.782
293.777
293.782
293.779
293.78
293.784
293.784
293.787
293.799
293.807
293.828
293.866
293.999
293.938
293.733
293.551
293.55
293.732
293.924
293.988
293.873
293.831
293.813
293.8
293.793
293.785
293.791
293.787
293.786
293.784
293.783
293.787
293.778
293.783
293.791
293.789
293.782
293.785
293.783
293.784
293.785
293.789
293.789
293.809
293.82
293.83
293.868
293.993
293.931
293.729
293.549
293.546
293.729
293.919
294.004
293.875
293.843
293.826
293.813
293.799
293.791
293.8
293.795
293.787
293.793
293.791
293.789
293.78
293.783
293.794
293.79
293.784
293.793
293.785
293.786
293.793
293.79
293.796
293.812
293.825
293.844
293.878
293.988
293.924
293.725
293.544
293.544
293.726
293.911
293.991
293.892
293.853
293.828
293.817
293.802
293.793
293.806
293.801
293.8
293.794
293.792
293.8
293.782
293.793
293.806
293.8
293.793
293.805
293.793
293.793
293.797
293.794
293.798
293.82
293.841
293.845
293.879
293.983
293.918
293.722
293.539
293.541
293.724
293.905
293.982
293.9
293.856
293.84
293.828
293.806
293.801
293.814
293.804
293.802
293.808
293.803
293.807
293.788
293.795
293.81
293.806
293.794
293.812
293.795
293.794
293.813
293.8
293.805
293.821
293.843
293.861
293.891
293.978
293.911
293.717
293.535
293.537
293.722
293.898
293.974
293.929
293.877
293.844
293.841
293.815
293.802
293.834
293.824
293.816
293.813
293.808
293.817
293.791
293.807
293.824
293.823
293.805
293.828
293.808
293.802
293.821
293.802
293.814
293.828
293.859
293.866
293.894
293.973
293.904
293.718
293.531
293.534
293.721
293.891
293.967
293.933
293.886
293.851
293.843
293.816
293.813
293.839
293.83
293.818
293.829
293.815
293.838
293.799
293.808
293.826
293.827
293.808
293.83
293.811
293.804
293.829
293.809
293.815
293.835
293.862
293.877
293.917
293.968
293.896
293.717
293.527
293.533
293.719
293.887
293.961
293.94
293.904
293.871
293.861
293.834
293.814
293.854
293.845
293.835
293.83
293.832
293.846
293.801
293.821
293.842
293.84
293.816
293.845
293.825
293.815
293.845
293.811
293.833
293.836
293.878
293.906
293.924
293.963
293.89
293.715
293.525
293.532
293.716
293.882
293.955
293.934
293.907
293.873
293.867
293.843
293.827
293.856
293.85
293.84
293.849
293.834
293.852
293.817
293.825
293.848
293.842
293.833
293.85
293.827
293.817
293.849
293.82
293.837
293.851
293.902
293.912
293.936
293.956
293.884
293.713
293.524
293.53
293.717
293.877
293.949
293.932
293.932
293.897
293.887
293.862
293.829
293.874
293.868
293.86
293.855
293.852
293.857
293.819
293.843
293.866
293.861
293.835
293.862
293.844
293.832
293.861
293.822
293.854
293.853
293.9
293.919
293.928
293.951
293.88
293.711
293.525
293.527
293.716
293.873
293.944
293.93
293.931
293.898
293.893
293.869
293.849
293.882
293.876
293.862
293.865
293.856
293.862
293.839
293.848
293.862
293.859
293.855
293.857
293.849
293.836
293.877
293.835
293.86
293.869
293.9
293.913
293.925
293.945
293.875
293.709
293.523
293.526
293.713
293.869
293.938
293.928
293.929
293.901
293.908
293.887
293.857
293.88
293.874
293.869
293.859
293.865
293.854
293.843
293.86
293.858
293.857
293.854
293.856
293.865
293.857
293.877
293.839
293.879
293.874
293.897
293.909
293.921
293.938
293.868
293.707
293.521
293.526
293.71
293.865
293.931
293.924
293.926
293.896
293.898
293.881
293.872
293.886
293.88
293.861
293.857
293.856
293.848
293.849
293.852
293.856
293.854
293.854
293.854
293.859
293.857
293.881
293.86
293.874
293.892
293.893
293.905
293.916
293.931
293.862
293.706
293.519
293.526
293.711
293.86
293.925
293.919
293.923
293.893
293.893
293.875
293.865
293.882
293.874
293.859
293.855
293.853
293.845
293.844
293.847
293.854
293.85
293.852
293.851
293.854
293.858
293.879
293.859
293.871
293.886
293.89
293.901
293.912
293.924
293.856
293.704
293.517
293.524
293.709
293.855
293.919
293.915
293.921
293.891
293.889
293.87
293.864
293.885
293.877
293.856
293.853
293.848
293.842
293.841
293.844
293.851
293.846
293.848
293.846
293.849
293.855
293.883
293.858
293.87
293.882
293.886
293.897
293.907
293.918
293.849
293.705
293.517
293.525
293.706
293.85
293.912
293.909
293.914
293.888
293.887
293.867
293.863
293.887
293.875
293.853
293.85
293.842
293.838
293.837
293.842
293.847
293.843
293.844
293.843
293.846
293.857
293.885
293.858
293.868
293.878
293.88
293.892
293.901
293.91
293.845
293.705
293.516
293.524
293.706
293.846
293.906
293.903
293.906
293.882
293.883
293.863
293.86
293.881
293.872
293.85
293.846
293.838
293.834
293.833
293.838
293.841
293.84
293.842
293.84
293.844
293.856
293.877
293.857
293.863
293.873
293.875
293.888
293.897
293.905
293.84
293.702
293.515
293.524
293.705
293.841
293.902
293.897
293.899
293.877
293.878
293.859
293.857
293.879
293.868
293.847
293.844
293.836
293.832
293.831
293.834
293.837
293.836
293.838
293.836
293.839
293.852
293.87
293.852
293.858
293.866
293.871
293.882
293.891
293.9
293.836
293.7
293.515
293.527
293.703
293.836
293.899
293.892
293.893
293.871
293.873
293.855
293.854
293.879
293.866
293.843
293.841
293.832
293.828
293.828
293.83
293.835
293.831
293.833
293.831
293.835
293.847
293.862
293.846
293.855
293.861
293.868
293.878
293.884
293.894
293.833
293.699
293.514
293.527
293.703
293.832
293.895
293.885
293.886
293.868
293.871
293.851
293.851
293.871
293.859
293.84
293.837
293.83
293.826
293.824
293.827
293.833
293.827
293.83
293.829
293.832
293.847
293.852
293.843
293.855
293.859
293.863
293.873
293.879
293.888
293.828
293.699
293.516
293.528
293.703
293.826
293.891
293.879
293.877
293.866
293.867
293.849
293.848
293.865
293.855
293.838
293.832
293.824
293.822
293.822
293.825
293.831
293.825
293.828
293.826
293.832
293.842
293.846
293.842
293.851
293.857
293.858
293.867
293.873
293.882
293.823
293.697
293.518
293.533
293.701
293.822
293.887
293.875
293.871
293.862
293.863
293.846
293.843
293.859
293.848
293.836
293.829
293.821
293.817
293.817
293.821
293.827
293.821
293.827
293.821
293.828
293.834
293.839
293.837
293.844
293.851
293.852
293.861
293.868
293.878
293.818
293.694
293.518
293.534
293.702
293.82
293.882
293.87
293.866
293.858
293.859
293.845
293.836
293.848
293.84
293.831
293.827
293.819
293.817
293.812
293.816
293.827
293.817
293.824
293.817
293.823
293.828
293.833
293.831
293.837
293.847
293.846
293.856
293.861
293.871
293.814
293.695
293.519
293.535
293.701
293.817
293.879
293.863
293.861
293.854
293.855
293.842
293.831
293.836
293.832
293.826
293.824
293.819
293.817
293.81
293.814
293.822
293.814
293.82
293.816
293.818
293.827
293.828
293.833
293.836
293.846
293.845
293.853
293.856
293.868
293.812
293.695
293.528
293.544
293.698
293.813
293.874
293.859
293.861
293.852
293.852
293.839
293.829
293.829
293.826
293.824
293.82
293.813
293.817
293.81
293.816
293.819
293.812
293.818
293.814
293.816
293.825
293.824
293.833
293.833
293.844
293.839
293.849
293.852
293.863
293.807
293.694
293.533
293.551
293.696
293.808
293.869
293.854
293.858
293.847
293.849
293.834
293.826
293.825
293.823
293.821
293.815
293.809
293.81
293.808
293.814
293.815
293.809
293.815
293.812
293.815
293.821
293.819
293.829
293.831
293.839
293.834
293.842
293.846
293.858
293.802
293.695
293.532
293.552
293.698
293.804
293.865
293.848
293.854
293.843
293.84
293.827
293.822
293.821
293.819
293.816
293.814
293.806
293.808
293.804
293.81
293.81
293.805
293.813
293.809
293.81
293.815
293.815
293.825
293.827
293.832
293.831
293.84
293.843
293.851
293.799
293.695
293.533
293.553
293.696
293.801
293.861
293.844
293.85
293.84
293.835
293.825
293.818
293.814
293.813
293.819
293.81
293.803
293.807
293.804
293.806
293.808
293.803
293.811
293.808
293.808
293.816
293.814
293.827
293.825
293.83
293.829
293.838
293.84
293.846
293.795
293.693
293.545
293.563
293.695
293.798
293.858
293.841
293.848
293.84
293.833
293.825
293.817
293.813
293.811
293.817
293.813
293.803
293.806
293.802
293.806
293.805
293.802
293.809
293.807
293.807
293.815
293.813
293.823
293.82
293.832
293.826
293.834
293.838
293.843
293.793
293.692
293.554
293.575
293.697
293.796
293.854
293.837
293.846
293.838
293.83
293.82
293.816
293.809
293.809
293.808
293.807
293.8
293.806
293.798
293.803
293.802
293.797
293.804
293.804
293.804
293.808
293.81
293.82
293.815
293.824
293.82
293.83
293.835
293.842
293.79
293.692
293.555
293.579
293.707
293.789
293.846
293.832
293.842
293.832
293.826
293.816
293.811
293.808
293.803
293.804
293.803
293.795
293.803
293.793
293.8
293.804
293.794
293.797
293.801
293.801
293.803
293.808
293.815
293.808
293.818
293.817
293.822
293.83
293.839
293.789
293.697
293.555
293.579
293.707
293.787
293.844
293.83
293.835
293.829
293.825
293.815
293.803
293.801
293.8
293.8
293.804
293.797
293.801
293.79
293.799
293.802
293.792
293.798
293.797
293.796
293.799
293.807
293.813
293.803
293.814
293.817
293.817
293.827
293.84
293.786
293.694
293.56
293.582
293.707
293.785
293.843
293.831
293.831
293.825
293.823
293.814
293.802
293.796
293.801
293.8
293.803
293.797
293.798
293.79
293.8
293.799
293.795
293.797
293.796
293.796
293.797
293.806
293.812
293.801
293.813
293.818
293.82
293.826
293.841
293.784
293.692
293.573
293.593
293.707
293.783
293.84
293.832
293.828
293.829
293.821
293.812
293.802
293.796
293.803
293.796
293.796
293.792
293.792
293.788
293.798
293.799
293.794
293.791
293.797
293.795
293.797
293.804
293.806
293.804
293.81
293.813
293.813
293.825
293.834
293.781
293.692
293.583
293.604
293.713
293.778
293.838
293.824
293.825
293.82
293.818
293.81
293.801
293.795
293.795
293.794
293.792
293.793
293.789
293.787
293.791
293.796
293.789
293.79
293.792
293.792
293.791
293.802
293.802
293.798
293.807
293.811
293.808
293.819
293.836
293.775
293.69
293.585
293.61
293.713
293.775
293.834
293.818
293.818
293.812
293.813
293.804
293.797
293.795
293.791
293.795
293.79
293.79
293.786
293.785
293.79
293.792
293.789
293.786
293.791
293.788
293.789
293.799
293.8
293.795
293.805
293.807
293.804
293.815
293.834
293.777
293.691
293.584
293.612
293.713
293.773
293.831
293.811
293.815
293.806
293.808
293.801
293.795
293.792
293.792
293.791
293.792
293.787
293.786
293.782
293.788
293.792
293.788
293.788
293.79
293.787
293.789
293.796
293.801
293.794
293.801
293.806
293.805
293.812
293.83
293.776
293.708
293.589
293.612
293.71
293.77
293.826
293.812
293.812
293.802
293.809
293.8
293.797
293.796
293.793
293.794
293.79
293.79
293.784
293.784
293.786
293.793
293.787
293.79
293.793
293.79
293.789
293.799
293.804
293.793
293.799
293.801
293.804
293.814
293.828
293.772
293.72
293.603
293.62
293.706
293.766
293.827
293.81
293.809
293.801
293.81
293.803
293.799
293.794
293.793
293.791
293.795
293.79
293.786
293.784
293.785
293.789
293.785
293.786
293.792
293.791
293.788
293.799
293.799
293.791
293.798
293.8
293.801
293.81
293.831
293.76
293.717
293.622
293.633
293.697
293.753
293.826
293.808
293.81
293.801
293.808
293.802
293.794
293.795
293.795
293.795
293.789
293.783
293.779
293.777
293.784
293.788
293.784
293.783
293.785
293.785
293.786
293.792
293.797
293.786
293.791
293.791
293.793
293.804
293.83
293.75
293.713
293.631
293.645
293.69
293.732
293.822
293.803
293.802
293.795
293.802
293.794
293.79
293.787
293.784
293.78
293.775
293.767
293.762
293.755
293.763
293.768
293.767
293.764
293.766
293.763
293.765
293.773
293.778
293.768
293.771
293.774
293.777
293.798
293.826
293.747
293.712
293.637
293.654
293.688
293.721
293.817
293.798
293.786
293.779
293.782
293.776
293.771
293.767
293.759
293.751
293.742
293.739
293.736
293.726
293.736
293.741
293.74
293.738
293.738
293.739
293.743
293.748
293.756
293.747
293.755
293.758
293.765
293.795
293.827
293.746
293.714
293.638
293.66
293.702
293.72
293.815
293.796
293.771
293.766
293.761
293.756
293.75
293.746
293.737
293.731
293.719
293.73
293.726
293.714
293.726
293.729
293.729
293.729
293.729
293.729
293.733
293.738
293.747
293.741
293.75
293.754
293.76
293.796
293.824
293.769
293.722
293.644
293.664
293.728
293.732
293.814
293.795
293.766
293.762
293.755
293.752
293.745
293.74
293.731
293.728
293.715
293.731
293.723
293.714
293.723
293.728
293.726
293.726
293.727
293.727
293.734
293.738
293.747
293.742
293.748
293.753
293.762
293.795
293.827
293.811
293.751
293.653
293.672
293.758
293.769
293.816
293.799
293.768
293.764
293.754
293.752
293.744
293.738
293.733
293.729
293.716
293.746
293.727
293.719
293.725
293.728
293.727
293.728
293.737
293.733
293.743
293.742
293.747
293.75
293.754
293.762
293.765
293.796
293.831
293.842
293.767
293.683
293.683
293.792
293.807
293.817
293.798
293.77
293.767
293.761
293.758
293.753
293.745
293.739
293.74
293.742
293.777
293.742
293.738
293.748
293.749
293.749
293.751
293.753
293.755
293.756
293.757
293.766
293.764
293.767
293.771
293.782
293.808
293.833
293.84
293.789
293.712
293.706
293.801
293.828
293.827
293.806
293.79
293.781
293.774
293.777
293.766
293.767
293.763
293.759
293.767
293.812
293.763
293.764
293.763
293.764
293.764
293.764
293.772
293.775
293.78
293.775
293.777
293.779
293.787
293.79
293.791
293.812
293.847
293.832
293.789
293.739
293.726
293.811
293.823
293.842
293.81
293.798
293.791
293.787
293.79
293.788
293.78
293.776
293.784
293.79
293.819
293.775
293.779
293.783
293.783
293.784
293.783
293.793
293.788
293.793
293.794
293.797
293.793
293.795
293.802
293.811
293.832
293.85
293.813
293.784
293.767
293.747
293.798
293.812
293.844
293.826
293.813
293.807
293.799
293.799
293.796
293.796
293.792
293.794
293.813
293.825
293.783
293.792
293.79
293.796
293.79
293.794
293.799
293.804
293.807
293.798
293.802
293.8
293.81
293.808
293.818
293.838
293.855
293.791
293.768
293.773
293.763
293.778
293.792
293.863
293.832
293.818
293.818
293.81
293.814
293.811
293.803
293.8
293.81
293.824
293.818
293.79
293.804
293.803
293.804
293.806
293.803
293.813
293.811
293.822
293.812
293.818
293.803
293.815
293.825
293.834
293.85
293.85
293.774
293.746
293.783
293.768
293.741
293.767
293.861
293.847
293.832
293.822
293.813
293.817
293.813
293.813
293.81
293.813
293.839
293.817
293.796
293.812
293.805
293.818
293.809
293.819
293.816
293.821
293.824
293.814
293.822
293.807
293.826
293.83
293.842
293.845
293.848
293.761
293.728
293.776
293.769
293.715
293.748
293.864
293.844
293.835
293.834
293.82
293.826
293.825
293.815
293.813
293.819
293.836
293.81
293.801
293.818
293.819
293.828
293.821
293.827
293.828
293.822
293.838
293.827
293.838
293.824
293.838
293.845
293.843
293.844
293.848
293.754
293.714
293.775
293.773
293.705
293.741
293.867
293.844
293.852
293.842
293.835
293.841
293.832
293.82
293.818
293.836
293.839
293.807
293.807
293.819
293.826
293.829
293.836
293.828
293.84
293.835
293.839
293.836
293.838
293.831
293.84
293.843
293.851
293.841
293.845
293.751
293.708
293.773
293.776
293.704
293.741
293.868
293.842
293.85
293.843
293.84
293.841
293.836
293.833
293.828
293.838
293.84
293.805
293.815
293.83
293.827
293.84
293.837
293.837
293.84
293.838
293.84
293.838
293.839
293.833
293.845
293.847
293.849
293.839
293.844
293.749
293.708
293.772
293.791
293.736
293.74
293.868
293.844
293.853
293.849
293.841
293.843
293.836
293.838
293.842
293.844
293.838
293.802
293.814
293.83
293.837
293.838
293.837
293.838
293.843
293.846
293.847
293.84
293.844
293.837
293.844
293.849
293.848
293.836
293.848
293.748
293.712
293.772
293.805
293.781
293.742
293.871
293.845
293.855
293.85
293.85
293.846
293.847
293.849
293.847
293.842
293.837
293.805
293.823
293.833
293.835
293.84
293.838
293.837
293.845
293.844
293.845
293.851
293.843
293.838
293.845
293.847
293.853
293.837
293.847
293.747
293.719
293.776
293.814
293.859
293.751
293.873
293.843
293.854
293.857
293.849
293.846
293.846
293.848
293.848
293.843
293.84
293.806
293.827
293.836
293.838
293.838
293.845
293.843
293.844
293.844
293.845
293.85
293.844
293.849
293.851
293.846
293.848
293.837
293.857
293.75
293.762
293.779
293.828
293.903
293.768
293.877
293.846
293.854
293.854
293.85
293.85
293.845
293.849
293.846
293.842
293.843
293.805
293.828
293.843
293.839
293.842
293.843
293.842
293.851
293.842
293.844
293.848
293.844
293.846
293.846
293.851
293.85
293.835
293.863
293.754
293.799
293.789
293.832
293.96
293.809
293.88
293.852
293.853
293.855
293.849
293.847
293.846
293.851
293.852
293.844
293.842
293.811
293.833
293.84
293.837
293.85
293.84
293.84
293.851
293.847
293.844
293.853
293.847
293.848
293.85
293.849
293.853
293.837
293.864
293.762
293.856
293.79
293.847
293.97
293.834
293.888
293.85
293.852
293.855
293.852
293.851
293.846
293.856
293.853
293.846
293.843
293.813
293.849
293.843
293.839
293.849
293.846
293.841
293.852
293.853
293.849
293.849
293.848
293.846
293.854
293.851
293.852
293.84
293.863
293.784
293.886
293.801
293.853
293.982
293.878
293.905
293.849
293.855
293.855
293.855
293.847
293.848
293.852
293.859
293.846
293.849
293.814
293.853
293.84
293.844
293.85
293.845
293.852
293.851
293.855
293.853
293.852
293.854
293.85
293.853
293.849
293.85
293.841
293.866
293.821
293.921
293.804
293.872
293.969
293.895
293.913