/*--------------------------------*- C++ -*----------------------------------*\
  =========                 |
  \\      /  F ield         | OpenFOAM: The Open Source CFD Toolbox
   \\    /   O peration     | Website:  https://openfoam.org
    \\  /    A nd           | Version:  8
     \\/     M anipulation  |
\*---------------------------------------------------------------------------*/
FoamFile
{
    version     2.0;
    format      ascii;
    class       volVectorField;
    location    "100";
    object      U;
}
// * * * * * * * * * * * * * * * * * * * * * * * * * * * * * * * * * * * * * //

dimensions      [0 1 -1 0 0 0 0];

internalField   nonuniform List<vector> 
78750
(
(-0.756508 0.17929 -0.403261)
(-0.230967 0.237909 -1.56853)
(0.15442 0.355443 -1.61862)
(0.285503 0.346397 -1.04194)
(-0.0868948 0.412414 -0.885705)
(-0.0421682 0.405458 -1.68405)
(-0.0597868 0.39622 -1.67847)
(-0.0341959 0.358537 -1.64491)
(-0.0621072 0.40107 -1.59004)
(-0.0377855 0.346958 -1.46569)
(-0.0763453 0.196111 -0.831585)
(-0.117407 0.366732 -1.56512)
(-0.0528031 0.336579 -1.57991)
(-0.0182413 0.316393 -1.50514)
(-0.00460696 0.247505 -1.31206)
(-0.0533655 0.295371 -1.2341)
(-0.0452669 0.331531 -1.51517)
(-0.0173713 0.317256 -1.53469)
(0.0179651 0.265779 -1.63013)
(0.0668647 0.262288 -1.57088)
(0.0721266 0.241716 -1.35481)
(0.0389023 0.258005 -1.40714)
(0.0813718 0.355521 -1.46511)
(0.0384766 0.370277 -1.37254)
(0.0320362 0.313237 -1.54186)
(0.0754945 0.319869 -1.58609)
(0.10166 0.379121 -1.5551)
(0.0540437 0.385082 -1.60128)
(0.0540607 0.410725 -1.70329)
(0.0301143 0.396857 -1.66588)
(0.0702195 0.373726 -0.951823)
(-0.287076 0.308909 -0.907989)
(-0.166238 0.354015 -1.55227)
(0.23004 0.180298 -1.39258)
(0.439083 0.224868 -0.630337)
(-1.124 0.629283 0.211953)
(-0.218572 0.677783 -1.66441)
(0.107706 0.724466 -1.33704)
(0.353545 0.844193 -0.461194)
(-0.181899 0.796179 -0.355277)
(-0.103771 0.873706 -1.5111)
(-0.052739 0.938448 -1.47135)
(-0.0422389 0.912353 -1.54645)
(-0.0629978 0.908979 -1.43991)
(0.0421472 0.901382 -1.22829)
(-0.144088 0.841715 -0.261746)
(-0.196861 0.856287 -1.42169)
(-0.0643616 0.83256 -1.56333)
(-0.0109853 0.862186 -1.49016)
(-0.00669569 0.802438 -1.50466)
(-0.0488416 0.754127 -1.7362)
(-0.0348441 0.822399 -1.68325)
(-0.0218675 0.839991 -1.69079)
(0.0126544 0.895818 -1.71412)
(0.0653145 0.88202 -1.6418)
(0.0702581 0.85803 -1.49317)
(0.0426069 0.842938 -1.52332)
(0.0909619 0.90416 -1.28944)
(0.0337684 0.902449 -1.08441)
(0.0273331 0.877852 -1.47064)
(0.0809848 0.907768 -1.46225)
(0.0963066 0.930717 -1.4106)
(0.0665689 0.939583 -1.42829)
(0.0774475 0.943462 -1.51037)
(0.0999498 0.896477 -1.47984)
(0.170844 0.847476 -0.406747)
(-0.354519 0.830886 -0.32549)
(-0.182256 0.72198 -1.20115)
(0.250092 0.66035 -1.55756)
(0.817242 0.657209 -0.0428344)
(-1.28995 1.05228 0.785997)
(-0.227584 1.05041 -1.34987)
(0.100179 1.2752 -0.7408)
(0.370841 1.19389 0.124034)
(-0.16795 1.31683 0.308318)
(-0.118883 1.5106 -0.986925)
(-0.0267742 1.50876 -0.99401)
(-0.0260141 1.52333 -1.14085)
(-0.0380803 1.47699 -1.00838)
(0.0871345 1.37561 -0.753345)
(-0.157142 1.29 -0.423837)
(-0.23446 1.47266 -1.00405)
(-0.0823801 1.49407 -1.23898)
(-0.0523456 1.43373 -1.1107)
(-0.0597082 1.48689 -1.28529)
(-0.0322233 1.52427 -1.50667)
(-0.00989447 1.56252 -1.18559)
(-0.030913 1.53355 -1.42127)
(-0.00414267 1.52271 -1.42058)
(0.0638556 1.4938 -1.37859)
(0.0762803 1.43642 -1.30087)
(0.0814859 1.43993 -1.30704)
(0.142952 1.38305 -0.764695)
(0.00950143 1.37623 -0.573908)
(0.0249518 1.47655 -1.16627)
(0.093343 1.47053 -1.12212)
(0.0916828 1.48069 -0.992016)
(0.0617787 1.47466 -1.03)
(0.0650991 1.53465 -1.03145)
(0.115167 1.46502 -1.00497)
(0.184892 1.27316 0.195981)
(-0.339921 1.22249 0.237922)
(-0.239906 1.2527 -0.536622)
(0.194524 1.14909 -1.42995)
(1.08273 1.11309 0.678676)
(-1.15218 1.24869 0.752131)
(-0.300359 1.56194 -0.726545)
(0.129178 1.63809 -0.0908796)
(0.372303 1.65317 0.244764)
(-0.0133296 1.64006 0.144828)
(-0.0461733 1.91294 -0.257259)
(0.00762699 1.97717 -0.221277)
(0.0245523 2.07768 -0.0329459)
(0.0220386 1.9981 -0.0770573)
(0.0500184 1.92982 -0.123751)
(-0.154105 1.82505 0.00152218)
(-0.250838 1.88005 -0.443936)
(-0.103004 1.92011 -0.565057)
(-0.0680675 1.99564 -0.167425)
(-0.116883 1.9179 -0.558292)
(-0.0343508 1.95409 -0.949587)
(0.025054 1.94317 -0.753913)
(-0.0317038 2.01235 -0.593527)
(-0.0283197 2.0192 -0.829345)
(0.0603132 2.02949 -0.769615)
(0.0896418 1.99586 -0.554274)
(0.111493 1.9771 -0.646964)
(0.172622 1.92632 -0.370471)
(0.030836 1.89068 -0.217594)
(0.00953257 1.98124 -0.376182)
(0.0867692 2.03126 -0.290293)
(0.0641327 2.00558 -0.0462619)
(-0.00833199 2.0613 0.0298136)
(-0.000837186 2.0184 -0.0846838)
(0.0558402 1.95887 -0.431421)
(0.0141939 1.75038 0.226035)
(-0.388101 1.61978 0.390013)
(-0.302424 1.55141 -0.0623383)
(0.184556 1.52732 -0.940228)
(1.06249 1.36729 0.847061)
(-0.738238 1.64911 0.188446)
(-0.292601 1.70436 -0.350309)
(0.19775 1.82555 -0.43621)
(0.374491 1.84516 -0.285773)
(0.107999 2.03988 -0.208259)
(0.0424171 2.289 -0.0374821)
(0.00132538 2.31122 -0.0210124)
(-0.0200101 2.24886 0.00393771)
(-0.0369187 2.20592 -0.0507978)
(-0.0226135 2.24182 0.0163738)
(-0.151393 2.06676 -0.144415)
(-0.201506 2.27033 -0.1207)
(-0.106344 2.28705 -0.114622)
(-0.0865454 2.19247 -0.0396178)
(-0.107391 2.31055 -0.104264)
(-0.0225379 2.38598 -0.187978)
(0.03377 2.40766 0.159082)
(-0.0229635 2.3863 0.013692)
(-0.0182465 2.36637 0.0200406)
(0.0556351 2.32995 -0.136655)
(0.0965783 2.25268 -0.0318103)
(0.11924 2.27226 0.0299453)
(0.144631 2.18981 -0.133817)
(0.0672553 2.24058 -0.0755407)
(0.0622212 2.25105 -0.0186832)
(0.0761422 2.24937 0.0391826)
(0.0739335 2.30048 0.129423)
(0.0401266 2.24066 0.0120585)
(0.0330488 2.24609 -0.0257379)
(-0.0204358 2.25943 -0.00591853)
(-0.121823 1.97584 -0.0920306)
(-0.400965 1.84673 -0.219422)
(-0.348397 1.84938 -0.407918)
(0.136801 1.72722 -0.53208)
(0.728557 1.76124 0.330788)
(-0.366271 1.95874 -0.389704)
(-0.0662107 1.99732 -0.87683)
(0.282645 2.17185 -0.886284)
(0.396744 2.23727 -0.756875)
(0.16958 2.289 -0.563186)
(0.07906 2.4787 -0.191463)
(-0.0129863 2.49933 -0.193185)
(-0.0435887 2.6002 -0.0946729)
(-0.106935 2.55673 -0.179846)
(-0.117566 2.44314 -0.427633)
(-0.160911 2.44439 -0.448276)
(-0.185066 2.44228 -0.387617)
(-0.125349 2.45596 -0.3386)
(-0.0946988 2.52465 -0.199288)
(-0.101233 2.46711 -0.202173)
(-0.0411704 2.49577 -0.173253)
(0.0122782 2.4958 0.10817)
(-0.0192944 2.52589 -0.0177659)
(0.00549793 2.58054 0.0896536)
(0.0583328 2.56968 0.00258898)
(0.0946004 2.52577 -0.056966)
(0.107861 2.5327 -0.0629664)
(0.119894 2.50872 -0.226932)
(0.115312 2.43407 -0.3257)
(0.112198 2.54703 -0.159392)
(0.114332 2.55706 -0.145957)
(0.155295 2.47967 -0.28683)
(0.0761714 2.59556 -0.118148)
(0.0103531 2.59667 -0.102659)
(-0.105705 2.53583 -0.117218)
(-0.19782 2.34795 -0.52628)
(-0.416286 2.22335 -0.740191)
(-0.350512 2.07831 -0.958097)
(-0.0108426 2.1 -0.835433)
(0.386701 1.97176 -0.382934)
(-0.0118264 2.25003 -1.05016)
(0.126966 2.37879 -1.32852)
(0.368989 2.40836 -1.32925)
(0.429468 2.49108 -1.12053)
(0.264478 2.65681 -0.910869)
(0.17291 2.78262 -0.511917)
(0.0552582 2.80356 -0.473136)
(-0.0355822 2.7354 -0.47551)
(-0.0916352 2.70899 -0.55089)
(-0.127199 2.81816 -0.46268)
(-0.149682 2.68086 -0.695255)
(-0.154528 2.80137 -0.491843)
(-0.124152 2.80232 -0.344676)
(-0.110628 2.69591 -0.471145)
(-0.0984551 2.78279 -0.319271)
(-0.0608855 2.82167 -0.18524)
(-0.0321836 2.78032 -0.17885)
(-0.0168615 2.81764 -0.148634)
(0.0195531 2.72452 -0.305281)
(0.0723779 2.72554 -0.307266)
(0.0962223 2.67824 -0.453675)
(0.0980998 2.68535 -0.46587)
(0.128207 2.68266 -0.560996)
(0.136062 2.77215 -0.499797)
(0.125372 2.71659 -0.522717)
(0.14072 2.71652 -0.536298)
(0.12109 2.82777 -0.466205)
(0.0434909 2.74311 -0.490351)
(-0.0089989 2.73537 -0.492475)
(-0.15352 2.72119 -0.472746)
(-0.259872 2.59734 -0.887281)
(-0.442534 2.49695 -1.14275)
(-0.427294 2.48727 -1.35225)
(-0.164992 2.2959 -1.42282)
(0.0182243 2.35051 -1.0292)
(0.0675226 2.60105 -1.31406)
(0.181493 2.65696 -1.77896)
(0.510578 2.8695 -1.67721)
(0.507931 2.93938 -1.46019)
(0.371877 2.94342 -1.33276)
(0.280271 3.00908 -1.00316)
(0.173985 3.03023 -0.970097)
(0.0793927 3.1121 -0.822609)
(-0.00984984 3.08389 -0.851192)
(-0.0586295 2.99488 -0.852979)
(-0.071911 3.04879 -0.825175)
(-0.085386 2.98696 -0.796147)
(-0.0502926 2.95834 -0.663702)
(-0.0604841 3.02375 -0.62833)
(-0.0834631 2.96195 -0.580422)
(-0.0439826 2.96253 -0.461882)
(-0.0274251 2.9446 -0.509318)
(0.0162853 2.97383 -0.382519)
(0.030513 3.03392 -0.437738)
(0.0549971 3.03975 -0.510361)
(0.0544635 3.02601 -0.583054)
(0.0488096 3.04126 -0.635463)
(0.0706706 3.04146 -0.693853)
(0.0807903 2.97214 -0.795361)
(0.0655116 3.07454 -0.731131)
(0.0441726 3.07018 -0.824718)
(0.00760548 3.02768 -0.887971)
(-0.0549324 3.11638 -0.864769)
(-0.106913 3.11552 -0.888479)
(-0.268646 3.08415 -0.864839)
(-0.407009 3.00225 -1.26498)
(-0.55447 2.93773 -1.46894)
(-0.472626 2.78642 -1.77372)
(-0.214001 2.78422 -1.82665)
(-0.0827202 2.56905 -1.31057)
(-0.0286293 2.84271 -1.45497)
(0.153864 3.14378 -2.04657)
(0.47217 3.17161 -2.0231)
(0.455279 3.23796 -1.7949)
(0.421858 3.36678 -1.62762)
(0.329491 3.3952 -1.46129)
(0.217775 3.40839 -1.4136)
(0.132895 3.32347 -1.41512)
(0.0646884 3.30421 -1.43663)
(0.0249047 3.36868 -1.33746)
(0.007175 3.25503 -1.39129)
(0.018152 3.33196 -1.24784)
(0.0105953 3.30439 -1.16313)
(0.0122377 3.22728 -1.17254)
(-0.00277188 3.27645 -0.98245)
(-0.00239583 3.26926 -0.889979)
(0.0113857 3.25154 -0.857695)
(0.00688554 3.25601 -0.67291)
(-0.00214309 3.20431 -0.812892)
(0.00443304 3.22202 -0.955657)
(-0.0105151 3.21033 -1.03291)
(-0.0122856 3.22809 -1.16493)
(-0.0041652 3.2329 -1.2331)
(-7.07405e-05 3.31996 -1.22674)
(-0.0170458 3.27563 -1.32143)
(-0.0408133 3.29798 -1.41717)
(-0.0772344 3.39166 -1.36444)
(-0.123508 3.32928 -1.4716)
(-0.164711 3.33933 -1.46622)
(-0.284341 3.31821 -1.44672)
(-0.414832 3.29316 -1.66266)
(-0.512235 3.24063 -1.79941)
(-0.468815 3.2626 -1.99643)
(-0.128345 3.10385 -2.12179)
(0.000670142 2.94638 -1.32358)
(-0.139231 3.30953 -1.28448)
(0.0292862 3.47263 -1.92682)
(0.369001 3.65727 -1.78949)
(0.354625 3.69477 -1.57435)
(0.31694 3.66042 -1.54911)
(0.265389 3.67763 -1.52857)
(0.190048 3.6846 -1.47843)
(0.127219 3.73486 -1.44273)
(0.0673728 3.71553 -1.49153)
(0.0590797 3.6454 -1.55706)
(0.03724 3.66915 -1.5418)
(0.0459258 3.60599 -1.56847)
(0.0468651 3.57645 -1.55739)
(0.0574971 3.60062 -1.48259)
(0.0516596 3.51603 -1.44979)
(0.0372975 3.49634 -1.40958)
(0.0450327 3.46434 -1.35869)
(-0.00114457 3.44931 -1.20174)
(-0.0195897 3.52026 -1.22572)
(-0.0404676 3.5645 -1.30009)
(-0.0524364 3.56536 -1.37314)
(-0.0499664 3.60385 -1.45924)
(-0.0591886 3.62262 -1.47674)
(-0.0427233 3.58677 -1.55317)
(-0.0435957 3.67702 -1.49718)
(-0.0706718 3.7117 -1.50019)
(-0.073574 3.67319 -1.52886)
(-0.118562 3.75145 -1.44397)
(-0.165671 3.75546 -1.4507)
(-0.242744 3.72141 -1.46481)
(-0.342726 3.73037 -1.49994)
(-0.410268 3.69318 -1.58301)
(-0.328186 3.58403 -1.85094)
(-0.0295226 3.61963 -1.84437)
(0.0974344 3.24645 -1.27015)
(-0.195559 3.58345 -1.01367)
(-0.0615826 3.93521 -1.2938)
(0.221069 3.96188 -1.23569)
(0.252781 3.97544 -1.05724)
(0.216177 4.0581 -0.967244)
(0.192114 4.05408 -1.01513)
(0.135688 4.06369 -0.966792)
(0.0681043 3.9998 -1.09323)
(0.0334629 3.9972 -1.13536)
(0.0328603 4.04509 -1.12031)
(0.0205489 3.97027 -1.24336)
(0.0295439 4.00901 -1.2195)
(0.0355901 3.96095 -1.29861)
(0.0523291 3.89833 -1.35644)
(0.0645906 3.90605 -1.31736)
(0.0490152 3.88003 -1.32346)
(0.0504645 3.84802 -1.3301)
(-0.0103787 3.80761 -1.25905)
(-0.0465632 3.7829 -1.35026)
(-0.0586639 3.83183 -1.32406)
(-0.0603822 3.84677 -1.36294)
(-0.0506283 3.88975 -1.34208)
(-0.0451493 3.91892 -1.30184)
(-0.0287352 3.99302 -1.21947)
(-0.0334019 3.96846 -1.22935)
(-0.0316052 4.00177 -1.17231)
(-0.0265382 4.06937 -1.0664)
(-0.0727998 4.02022 -1.05428)
(-0.116494 4.01897 -1.06466)
(-0.162979 3.98602 -1.07855)
(-0.223678 4.01321 -0.992601)
(-0.271922 3.97828 -1.05922)
(-0.225482 4.0432 -1.20516)
(0.0747357 3.92672 -1.25124)
(0.172042 3.64668 -0.980815)
(-0.20945 3.82474 -0.595165)
(-0.126615 4.10806 -0.722063)
(0.136685 4.23949 -0.626349)
(0.183779 4.22078 -0.485257)
(0.100943 4.17702 -0.497361)
(0.103724 4.19765 -0.55476)
(0.0626033 4.18291 -0.547247)
(0.00723678 4.23145 -0.560224)
(-0.0292791 4.23294 -0.587946)
(-0.020644 4.21024 -0.664291)
(-0.0255493 4.23913 -0.68454)
(-0.0185262 4.2046 -0.755426)
(-0.000499411 4.21301 -0.758559)
(0.0192922 4.21458 -0.825201)
(0.0350775 4.1385 -0.917757)
(0.0394839 4.12049 -0.945842)
(0.044584 4.09847 -0.989571)
(-0.00343214 4.04932 -0.989969)
(-0.0412599 4.11586 -0.952978)
(-0.0393593 4.13883 -0.893761)
(-0.0322708 4.17483 -0.88878)
(-0.0178228 4.2057 -0.821996)
(-0.0026519 4.2236 -0.770288)
(0.00848286 4.19439 -0.771484)
(0.0183661 4.23907 -0.683771)
(0.0255856 4.25285 -0.630691)
(0.0343183 4.20582 -0.629175)
(-0.0063458 4.23344 -0.528219)
(-0.0493868 4.23715 -0.527033)
(-0.0984453 4.21183 -0.552927)
(-0.131668 4.2224 -0.446047)
(-0.187313 4.22532 -0.486298)
(-0.1284 4.20435 -0.661568)
(0.106555 4.19542 -0.624047)
(0.210308 3.79959 -0.6416)
(-0.170966 3.96231 -0.239115)
(-0.120909 4.23011 -0.257907)
(0.0537615 4.21623 -0.248218)
(0.113139 4.19673 -0.142761)
(0.0110347 4.22565 -0.115843)
(0.0112333 4.21867 -0.220361)
(-0.0162594 4.24999 -0.157647)
(-0.0646776 4.23402 -0.236691)
(-0.0944192 4.24108 -0.248505)
(-0.0883673 4.29961 -0.248459)
(-0.0779596 4.26698 -0.32968)
(-0.0724371 4.3209 -0.30097)
(-0.046332 4.30169 -0.362045)
(-0.0221322 4.28195 -0.447539)
(-0.00911082 4.29873 -0.448795)
(0.0127707 4.2952 -0.483827)
(0.0181303 4.28898 -0.524146)
(-0.00260913 4.25061 -0.556736)
(-0.0288965 4.24246 -0.579145)
(-0.00748639 4.27398 -0.478171)
(0.00757619 4.28787 -0.482766)
(0.0235352 4.28124 -0.448935)
(0.0451996 4.28218 -0.401292)
(0.0630461 4.31694 -0.320377)
(0.0728043 4.26894 -0.331509)
(0.0889504 4.2698 -0.299174)
(0.100503 4.29131 -0.200382)
(0.0693003 4.23229 -0.214209)
(0.0312783 4.22602 -0.196223)
(-0.0151335 4.20271 -0.242731)
(-0.026677 4.19041 -0.131047)
(-0.0917548 4.2011 -0.145525)
(-0.0639126 4.27513 -0.223395)
(0.11303 4.20346 -0.239952)
(0.184956 3.99328 -0.272988)
(-0.123555 3.95926 -0.0892797)
(-0.0972095 4.16299 -0.000903933)
(0.00331415 4.22741 0.0917401)
(0.0554387 4.1992 0.1642)
(-0.068919 4.15067 0.149337)
(-0.0805838 4.16427 0.0743134)
(-0.0994485 4.15808 0.092594)
(-0.125902 4.22005 0.0803991)
(-0.15864 4.22504 0.0680734)
(-0.154846 4.23142 -0.00519108)
(-0.147882 4.28043 -0.0218636)
(-0.122584 4.27161 -0.041713)
(-0.089379 4.29495 -0.0801494)
(-0.0765423 4.31012 -0.1097)
(-0.0614521 4.2906 -0.179183)
(-0.0186954 4.29198 -0.214796)
(-0.0110454 4.29619 -0.243847)
(-0.00214647 4.27117 -0.299545)
(0.00572389 4.31361 -0.22742)
(0.031096 4.29176 -0.211656)
(0.0511026 4.30007 -0.180017)
(0.0662306 4.30959 -0.1157)
(0.0945382 4.29673 -0.0685755)
(0.120166 4.27507 -0.0573595)
(0.141227 4.27731 -0.00853997)
(0.152588 4.26785 0.0304596)
(0.169046 4.21358 0.0527066)
(0.136672 4.21337 0.102601)
(0.108997 4.19098 0.125548)
(0.0628801 4.18065 0.0676935)
(0.0624781 4.16707 0.165876)
(-0.0286023 4.19441 0.153611)
(-0.00690287 4.2023 0.0893951)
(0.0896909 4.2027 0.0364702)
(0.131774 3.97143 -0.099282)
(-0.0650796 3.94042 0.023598)
(-0.0323921 4.0929 0.212353)
(-0.0468364 4.0743 0.320846)
(-0.00533597 4.0446 0.367041)
(-0.113799 4.02765 0.403871)
(-0.139132 4.0316 0.34295)
(-0.174097 4.01984 0.331857)
(-0.177089 4.05677 0.337017)
(-0.197456 4.06572 0.302744)
(-0.205985 4.10991 0.282439)
(-0.202265 4.13449 0.238114)
(-0.175641 4.16213 0.240339)
(-0.144532 4.19043 0.205756)
(-0.12555 4.20838 0.170992)
(-0.108443 4.23535 0.0956249)
(-0.0632132 4.24555 0.0659978)
(-0.0529219 4.25938 0.0335619)
(-0.00481385 4.25511 -0.043363)
(0.0432586 4.24244 -0.000985248)
(0.0720706 4.24392 0.070198)
(0.0965089 4.2233 0.104251)
(0.111826 4.20747 0.15885)
(0.149422 4.18181 0.204859)
(0.188679 4.1724 0.219982)
(0.202321 4.1281 0.253206)
(0.198601 4.10834 0.294183)
(0.212675 4.08342 0.31642)
(0.179706 4.04935 0.356376)
(0.170347 4.02613 0.356751)
(0.131537 4.02643 0.333842)
(0.132228 4.01073 0.378531)
(0.00270941 4.0437 0.385767)
(0.0285504 4.08818 0.351393)
(0.0300623 4.07733 0.226177)
(0.0624566 3.96996 0.0400552)
(0.045466 3.82501 0.201657)
(0.0610943 3.92618 0.394408)
(-0.0355302 3.90766 0.49068)
(-0.0441962 3.87319 0.481861)
(-0.150329 3.83973 0.545456)
(-0.146599 3.84561 0.499592)
(-0.216087 3.83279 0.476828)
(-0.207847 3.86412 0.489276)
(-0.225084 3.88179 0.463115)
(-0.238985 3.91496 0.477499)
(-0.232776 3.94931 0.448485)
(-0.212519 3.96682 0.437337)
(-0.197651 4.00109 0.410618)
(-0.163935 4.03248 0.406429)
(-0.144422 4.06039 0.326809)
(-0.105974 4.0765 0.305922)
(-0.0761844 4.09527 0.255847)
(0.00313036 4.10432 0.161762)
(0.0715854 4.10848 0.230358)
(0.100413 4.08372 0.306156)
(0.142095 4.06092 0.333063)
(0.167973 4.03505 0.374494)
(0.195851 4.00033 0.395282)
(0.218829 3.98089 0.412034)
(0.240757 3.94368 0.454852)
(0.22568 3.92092 0.464018)
(0.228367 3.88675 0.481414)
(0.215605 3.85669 0.501449)
(0.201707 3.8397 0.48323)
(0.17447 3.84697 0.493944)
(0.162037 3.84135 0.504023)
(0.00413384 3.87067 0.518263)
(0.0214354 3.8976 0.501103)
(-0.0711142 3.92111 0.413362)
(-0.0240616 3.83263 0.148879)
(0.132531 3.6482 0.307397)
(0.13133 3.7537 0.53925)
(0.0152282 3.72113 0.590344)
(-0.0245329 3.68863 0.54638)
(-0.166675 3.6327 0.569319)
(-0.139869 3.64177 0.554745)
(-0.223777 3.63148 0.552244)
(-0.212813 3.65249 0.553035)
(-0.238869 3.67578 0.553717)
(-0.248242 3.70476 0.559838)
(-0.243703 3.73643 0.554965)
(-0.227455 3.7588 0.535593)
(-0.223849 3.79173 0.517362)
(-0.193485 3.82364 0.511739)
(-0.169214 3.86015 0.478458)
(-0.124305 3.88011 0.458378)
(-0.0740697 3.90306 0.400324)
(0.00765338 3.92831 0.308148)
(0.0836494 3.92131 0.385417)
(0.114136 3.88793 0.447548)
(0.170519 3.86078 0.464278)
(0.212626 3.83275 0.495665)
(0.214549 3.80192 0.503274)
(0.209949 3.77364 0.527439)
(0.248993 3.73058 0.559665)
(0.249178 3.71377 0.54919)
(0.242519 3.67522 0.554067)
(0.224657 3.64696 0.557183)
(0.20657 3.63568 0.544001)
(0.17567 3.64342 0.548669)
(0.153731 3.65091 0.573594)
(0.000444382 3.68109 0.545593)
(-0.0143989 3.70764 0.573581)
(-0.151992 3.73702 0.547794)
(-0.0929669 3.68514 0.230372)
(0.137081 3.47236 0.290362)
(0.166789 3.55678 0.59735)
(0.047193 3.51793 0.616105)
(0.0263638 3.49675 0.58008)
(-0.138501 3.43584 0.545922)
(-0.132587 3.43362 0.557448)
(-0.210122 3.42048 0.577338)
(-0.198061 3.43546 0.568755)
(-0.23493 3.45789 0.589989)
(-0.229434 3.4853 0.58022)
(-0.235698 3.51394 0.581113)
(-0.229366 3.53954 0.577282)
(-0.218566 3.5733 0.5659)
(-0.203493 3.60592 0.544909)
(-0.179464 3.64055 0.554814)
(-0.125541 3.6636 0.530698)
(-0.0710055 3.69361 0.494798)
(-0.00335987 3.7313 0.423425)
(0.0815701 3.71364 0.501237)
(0.124243 3.67282 0.534022)
(0.181845 3.6399 0.544449)
(0.225768 3.61501 0.564629)
(0.206302 3.59061 0.569077)
(0.201149 3.55059 0.580871)
(0.241116 3.50088 0.572054)
(0.252663 3.49384 0.581539)
(0.24111 3.45923 0.583509)
(0.202796 3.43251 0.571414)
(0.197706 3.4238 0.567689)
(0.145267 3.43803 0.552496)
(0.125802 3.44864 0.58869)
(-0.0172814 3.49075 0.541148)
(-0.05663 3.51213 0.600019)
(-0.198618 3.53381 0.593403)
(-0.130767 3.5132 0.275482)
(0.0995988 3.30463 0.231095)
(0.200446 3.3549 0.564793)
(0.0575856 3.31841 0.589972)
(0.0622514 3.30363 0.567443)
(-0.0784623 3.25285 0.527481)
(-0.104699 3.23643 0.542584)
(-0.178303 3.21278 0.56373)
(-0.177974 3.22466 0.557325)
(-0.21224 3.24259 0.589301)
(-0.201938 3.26806 0.573948)
(-0.217839 3.29922 0.588015)
(-0.215173 3.31777 0.592832)
(-0.200454 3.35106 0.58514)
(-0.190335 3.38818 0.569414)
(-0.169183 3.41389 0.588734)
(-0.122179 3.43784 0.567602)
(-0.0764882 3.47067 0.562156)
(-0.0163715 3.51382 0.523195)
(0.0746092 3.48519 0.575329)
(0.133771 3.44452 0.578886)
(0.174624 3.4126 0.58868)
(0.209681 3.39306 0.603402)
(0.187104 3.37172 0.597056)
(0.197636 3.32508 0.589884)
(0.222109 3.28036 0.549624)
(0.219827 3.27717 0.588785)
(0.217855 3.24759 0.593686)
(0.174574 3.22435 0.559188)
(0.172914 3.21709 0.557327)
(0.104069 3.24021 0.543919)
(0.0840982 3.25483 0.55461)
(-0.0627623 3.3071 0.555108)
(-0.0795874 3.31935 0.593084)
(-0.223989 3.33337 0.550417)
(-0.129053 3.33441 0.270482)
(0.0697148 3.1536 0.177049)
(0.235389 3.168 0.477754)
(0.0695454 3.13555 0.547104)
(0.08479 3.1187 0.517161)
(-0.0223086 3.07689 0.508998)
(-0.0525291 3.05148 0.511223)
(-0.127007 3.02135 0.527328)
(-0.145326 3.02732 0.525675)
(-0.178867 3.03684 0.550218)
(-0.183799 3.06292 0.548839)
(-0.194888 3.09138 0.576484)
(-0.180765 3.10303 0.574825)
(-0.181406 3.13646 0.570965)
(-0.169759 3.17136 0.58184)
(-0.144274 3.19245 0.586036)
(-0.112078 3.21534 0.580891)
(-0.0819923 3.2459 0.586583)
(-0.0135822 3.28502 0.582077)
(0.0742717 3.25189 0.588176)
(0.129403 3.21865 0.580004)
(0.148767 3.18999 0.591149)
(0.177289 3.17545 0.606389)
(0.167946 3.15651 0.590555)
(0.184292 3.10827 0.57073)
(0.195853 3.07548 0.528618)
(0.168904 3.07021 0.568034)
(0.187304 3.04136 0.566958)
(0.14812 3.03073 0.5219)
(0.126457 3.02564 0.517089)
(0.0550023 3.05415 0.524521)
(0.0285951 3.07882 0.507744)
(-0.106067 3.12332 0.547596)
(-0.076973 3.13362 0.549901)
(-0.243583 3.14928 0.456911)
(-0.10157 3.17144 0.214809)
(0.0595992 3.0266 0.119496)
(0.261434 3.00139 0.382852)
(0.0754454 2.96715 0.488703)
(0.109231 2.94727 0.455275)
(0.0166811 2.90778 0.46813)
(-0.00128304 2.87978 0.462529)
(-0.0729093 2.84626 0.473463)
(-0.0960578 2.84705 0.479672)
(-0.142334 2.85198 0.486089)
(-0.162575 2.87205 0.50448)
(-0.163485 2.8908 0.517954)
(-0.143788 2.9025 0.516645)
(-0.15791 2.93744 0.52481)
(-0.147775 2.96254 0.549077)
(-0.117989 2.98347 0.538407)
(-0.0989268 3.00492 0.551854)
(-0.0802358 3.02886 0.554802)
(-0.0022763 3.05826 0.567809)
(0.0745215 3.03094 0.551066)
(0.111004 3.00812 0.545788)
(0.117482 2.98135 0.551499)
(0.139567 2.96711 0.556777)
(0.151434 2.9513 0.548036)
(0.164225 2.90578 0.519158)
(0.166938 2.88666 0.500984)
(0.127577 2.87685 0.511331)
(0.150401 2.84889 0.498961)
(0.109583 2.8544 0.476266)
(0.0694905 2.85291 0.465789)
(0.00164181 2.87933 0.48201)
(-0.017433 2.91364 0.465461)
(-0.121166 2.94465 0.48458)
(-0.0718373 2.96368 0.478284)
(-0.268126 2.98927 0.367673)
(-0.0801462 3.03965 0.13961)
(0.0624635 2.92264 0.0725197)
(0.284762 2.8557 0.321793)
(0.0772638 2.81473 0.407573)
(0.128946 2.78576 0.395219)
(0.037553 2.75096 0.408331)
(0.0351815 2.72132 0.413276)
(-0.0323442 2.68555 0.405665)
(-0.0510177 2.68367 0.425463)
(-0.107654 2.68637 0.420467)
(-0.12142 2.697 0.443572)
(-0.129072 2.70911 0.429513)
(-0.123596 2.72154 0.440348)
(-0.130803 2.7554 0.461507)
(-0.122027 2.77057 0.476414)
(-0.0968457 2.79319 0.468069)
(-0.0860993 2.81351 0.487494)
(-0.0692394 2.82975 0.48165)
(-0.0010633 2.8494 0.495166)
(0.0606138 2.8302 0.484343)
(0.0888266 2.81615 0.486824)
(0.097899 2.7904 0.484735)
(0.109821 2.77501 0.468156)
(0.134734 2.76166 0.472268)
(0.141647 2.72402 0.443115)
(0.136358 2.71202 0.456992)
(0.102669 2.70182 0.436632)
(0.106148 2.67805 0.420839)
(0.0584579 2.69178 0.432488)
(0.0285017 2.69493 0.419459)
(-0.0337464 2.71566 0.414838)
(-0.0379118 2.75379 0.411935)
(-0.121115 2.77999 0.400462)
(-0.0795783 2.81452 0.403564)
(-0.292565 2.84599 0.30743)
(-0.0815956 2.92879 0.0807346)
(0.0758068 2.82113 0.0572879)
(0.302545 2.72082 0.292305)
(0.0925131 2.68115 0.337653)
(0.138117 2.63542 0.348153)
(0.0400769 2.60649 0.345676)
(0.0525997 2.57277 0.366521)
(-0.00778958 2.54053 0.344077)
(-0.0244624 2.53457 0.370006)
(-0.0795608 2.53511 0.363689)
(-0.0755924 2.53774 0.380136)
(-0.101963 2.55207 0.35968)
(-0.114319 2.55941 0.375902)
(-0.106649 2.58772 0.397154)
(-0.099819 2.59939 0.400023)
(-0.0852509 2.62146 0.406803)
(-0.0686955 2.64089 0.420917)
(-0.0510558 2.65297 0.406783)
(-0.00592515 2.66593 0.416788)
(0.0403578 2.65169 0.406455)
(0.0676651 2.64121 0.417913)
(0.0865721 2.6184 0.408784)
(0.0893041 2.60466 0.389157)
(0.117173 2.59166 0.394461)
(0.116744 2.5625 0.374149)
(0.108318 2.55081 0.401669)
(0.0854604 2.54579 0.373384)
(0.067131 2.52926 0.357342)
(0.0161744 2.53803 0.38534)
(0.0165385 2.54443 0.367882)
(-0.0450285 2.5664 0.348682)
(-0.0419383 2.60599 0.350338)
(-0.127586 2.63172 0.341268)
(-0.0966758 2.683 0.351723)
(-0.30309 2.71537 0.27899)
(-0.0985147 2.82457 0.0596453)
(0.097707 2.71097 0.0691596)
(0.301482 2.59268 0.278171)
(0.118018 2.56202 0.310599)
(0.143117 2.49883 0.315292)
(0.0390407 2.47453 0.291487)
(0.0499353 2.43367 0.312876)
(-0.00318231 2.40845 0.301562)
(-0.014463 2.39865 0.3224)
(-0.0590059 2.39501 0.320686)
(-0.0497125 2.39425 0.330518)
(-0.0840134 2.41317 0.328665)
(-0.0992507 2.41336 0.333951)
(-0.0903524 2.43526 0.345733)
(-0.0853524 2.44709 0.346543)
(-0.0793341 2.46346 0.358108)
(-0.0515889 2.48129 0.365389)
(-0.0345246 2.49502 0.360451)
(-0.00389573 2.503 0.363548)
(0.030509 2.4934 0.350006)
(0.0509909 2.48303 0.36322)
(0.0730179 2.46439 0.343957)
(0.0733994 2.45116 0.34404)
(0.100861 2.4391 0.340813)
(0.0942984 2.41676 0.329143)
(0.0856899 2.40341 0.345684)
(0.0709608 2.40427 0.334774)
(0.0453505 2.39558 0.31151)
(0.00109005 2.39499 0.334396)
(0.0182183 2.40628 0.306335)
(-0.0538957 2.43276 0.306072)
(-0.0403827 2.47483 0.303307)
(-0.136062 2.49661 0.313527)
(-0.114816 2.56036 0.324881)
(-0.298216 2.59109 0.277378)
(-0.119108 2.71183 0.0780091)
(0.119882 2.59204 0.0997281)
(0.280886 2.47026 0.28015)
(0.137927 2.44744 0.313107)
(0.141467 2.37584 0.291069)
(0.0433182 2.35596 0.261487)
(0.0473804 2.3106 0.266827)
(-0.0110142 2.28562 0.272368)
(-0.0122066 2.2719 0.286084)
(-0.045159 2.26574 0.289828)
(-0.0489232 2.26399 0.297509)
(-0.0698252 2.28282 0.314583)
(-0.0765626 2.2793 0.307003)
(-0.0812731 2.29676 0.312386)
(-0.0719435 2.3083 0.316128)
(-0.0657151 2.31953 0.317431)
(-0.0432512 2.33467 0.317797)
(-0.0297027 2.34809 0.334291)
(-0.000550262 2.35444 0.330079)
(0.027485 2.34818 0.329526)
(0.0451851 2.33804 0.330272)
(0.0604655 2.3249 0.305265)
(0.0645768 2.30994 0.316633)
(0.0844919 2.29946 0.30403)
(0.076527 2.28386 0.301101)
(0.0693954 2.26947 0.297556)
(0.0580583 2.27304 0.307197)
(0.0405966 2.27167 0.281141)
(0.00614833 2.26522 0.283484)
(0.0137651 2.28582 0.260229)
(-0.0623772 2.3107 0.276119)
(-0.0356329 2.35453 0.269153)
(-0.133377 2.37247 0.293873)
(-0.128683 2.44586 0.311248)
(-0.278648 2.47169 0.287519)
(-0.129006 2.5895 0.109522)
(0.133855 2.46949 0.142434)
(0.24925 2.35177 0.294572)
(0.144992 2.33637 0.314911)
(0.130374 2.26365 0.274006)
(0.0444077 2.24444 0.248674)
(0.0535921 2.19978 0.240228)
(-0.0160422 2.17324 0.247982)
(-0.00802982 2.15366 0.255744)
(-0.034057 2.14796 0.26446)
(-0.0549321 2.14408 0.269114)
(-0.0573844 2.15738 0.288339)
(-0.0590146 2.15597 0.281823)
(-0.0727819 2.1699 0.287671)
(-0.0573024 2.17814 0.288306)
(-0.0491078 2.18952 0.286443)
(-0.0407207 2.20408 0.284619)
(-0.0310102 2.21173 0.30734)
(-0.00230453 2.21729 0.303292)
(0.0227639 2.20976 0.314086)
(0.0442035 2.20339 0.301063)
(0.0532383 2.19595 0.285679)
(0.0623056 2.18018 0.288681)
(0.0677166 2.17302 0.27444)
(0.0629633 2.16138 0.277261)
(0.0578099 2.14817 0.260779)
(0.0452195 2.15071 0.274852)
(0.0433845 2.15429 0.259554)
(0.0101124 2.15101 0.241226)
(0.00519295 2.17788 0.241781)
(-0.0571772 2.19687 0.245704)
(-0.0336431 2.24313 0.23887)
(-0.126944 2.25966 0.270083)
(-0.135941 2.33641 0.304321)
(-0.247333 2.35377 0.299316)
(-0.128131 2.46558 0.140027)
(0.143397 2.34366 0.183784)
(0.218694 2.23672 0.303715)
(0.142039 2.22886 0.304898)
(0.120558 2.15986 0.256795)
(0.0409655 2.13921 0.230341)
(0.0550571 2.09776 0.225247)
(-0.0110743 2.07084 0.225653)
(-0.00311612 2.04463 0.225951)
(-0.0247536 2.04143 0.240556)
(-0.048354 2.03502 0.239533)
(-0.0482966 2.04137 0.249119)
(-0.0513823 2.04246 0.25348)
(-0.0600197 2.05256 0.258354)
(-0.0449466 2.05935 0.251751)
(-0.0440938 2.07221 0.261218)
(-0.0378746 2.08556 0.265067)
(-0.0260221 2.08662 0.274741)
(-0.00165502 2.09183 0.275435)
(0.0185019 2.08218 0.276204)
(0.0371359 2.08028 0.264792)
(0.0467356 2.07559 0.262964)
(0.0562299 2.06333 0.258421)
(0.0550581 2.05847 0.25181)
(0.0538735 2.04835 0.252768)
(0.0504753 2.03846 0.235331)
(0.032533 2.0383 0.239384)
(0.0412549 2.04552 0.238975)
(0.00577328 2.04907 0.215807)
(-0.00162327 2.07558 0.229744)
(-0.0465285 2.09214 0.22335)
(-0.0349686 2.14123 0.217715)
(-0.12418 2.15635 0.250228)
(-0.136579 2.23051 0.295475)
(-0.215533 2.23856 0.308073)
(-0.129075 2.34393 0.175741)
(0.146964 2.21701 0.207374)
(0.195106 2.12802 0.298521)
(0.139857 2.1271 0.284337)
(0.116858 2.06388 0.236011)
(0.0365944 2.04272 0.209504)
(0.0479009 2.00072 0.213263)
(0.00336798 1.9774 0.211376)
(0.00162374 1.94675 0.202597)
(-0.0222138 1.94287 0.216319)
(-0.0300939 1.93576 0.213378)
(-0.0428272 1.9377 0.21447)
(-0.0454133 1.93839 0.225447)
(-0.0470956 1.94561 0.225263)
(-0.037965 1.95458 0.220173)
(-0.0464709 1.96517 0.237906)
(-0.0319323 1.97474 0.246388)
(-0.0138752 1.97299 0.241607)
(0.00475941 1.97826 0.244707)
(0.0155308 1.97063 0.232091)
(0.0265868 1.97086 0.23054)
(0.0397158 1.96626 0.234782)
(0.0439982 1.95676 0.229304)
(0.0466015 1.95302 0.23164)
(0.0465359 1.94375 0.230053)
(0.0462779 1.9387 0.217927)
(0.0223374 1.93687 0.210423)
(0.0310385 1.94565 0.218022)
(-0.00234134 1.95542 0.204732)
(-0.00843569 1.98001 0.21244)
(-0.0417699 1.99417 0.210341)
(-0.0362919 2.04713 0.209279)
(-0.118799 2.06032 0.234328)
(-0.134172 2.12804 0.280886)
(-0.192995 2.12722 0.302991)
(-0.138568 2.22135 0.209586)
(0.139955 2.0941 0.203439)
(0.173946 2.02554 0.279203)
(0.138068 2.03052 0.26154)
(0.111941 1.97617 0.22124)
(0.0333151 1.95409 0.198528)
(0.0434145 1.90884 0.201162)
(0.013256 1.88778 0.200484)
(0.0109557 1.85921 0.192027)
(-0.0217827 1.85225 0.191947)
(-0.0145306 1.84447 0.195506)
(-0.035572 1.84502 0.19186)
(-0.0370439 1.84289 0.198845)
(-0.0398526 1.84928 0.19879)
(-0.0352344 1.86 0.20263)
(-0.0440491 1.86618 0.215174)
(-0.0231975 1.87053 0.22065)
(-0.00469072 1.86964 0.211805)
(0.00862172 1.87681 0.2168)
(0.0130003 1.87287 0.206139)
(0.0189103 1.87208 0.205849)
(0.035677 1.86679 0.213401)
(0.0348185 1.85972 0.205249)
(0.0365781 1.85496 0.209159)
(0.0376503 1.84713 0.210608)