/*--------------------------------*- C++ -*----------------------------------*\
  =========                 |
  \\      /  F ield         | OpenFOAM: The Open Source CFD Toolbox
   \\    /   O peration     | Website:  https://openfoam.org
    \\  /    A nd           | Version:  8
     \\/     M anipulation  |
\*---------------------------------------------------------------------------*/
FoamFile
{
    version     2.0;
    format      ascii;
    class       volScalarField;
    location    "1500";
    object      alphat;
}
// * * * * * * * * * * * * * * * * * * * * * * * * * * * * * * * * * * * * * //

dimensions      [1 -1 -1 0 0 0 0];

internalField   nonuniform List<scalar> 
46000
(
2.73249e-08
1.4026e-07
3.02449e-07
4.73621e-07
6.45712e-07
8.17531e-07
9.89872e-07
1.15986e-06
1.32536e-06
1.48587e-06
1.64041e-06
1.78874e-06
1.93101e-06
2.06587e-06
2.19377e-06
2.31466e-06
2.42851e-06
2.53536e-06
2.63528e-06
2.72838e-06
2.81481e-06
2.89474e-06
2.96838e-06
3.03674e-06
3.10185e-06
3.16169e-06
3.2163e-06
3.26589e-06
3.31073e-06
3.35106e-06
3.38714e-06
3.41918e-06
3.44743e-06
3.47211e-06
3.49344e-06
3.51167e-06
3.52684e-06
3.53921e-06
3.54894e-06
3.55616e-06
3.56102e-06
3.56364e-06
3.56415e-06
3.56266e-06
3.55927e-06
3.55407e-06
3.54714e-06
3.53857e-06
3.52842e-06
3.51675e-06
3.50364e-06
3.48913e-06
3.47329e-06
3.45617e-06
3.43782e-06
3.41832e-06
3.39772e-06
3.37609e-06
3.35348e-06
3.32996e-06
3.30562e-06
3.2806e-06
3.25569e-06
3.23066e-06
3.20515e-06
3.17921e-06
3.15296e-06
3.12648e-06
3.09989e-06
3.0733e-06
3.04681e-06
3.02055e-06
2.99461e-06
2.96912e-06
2.94418e-06
2.91991e-06
2.89639e-06
2.87374e-06
2.85205e-06
2.83142e-06
2.81193e-06
2.79367e-06
2.7767e-06
2.76112e-06
2.74697e-06
2.73433e-06
2.72325e-06
2.71377e-06
2.70594e-06
2.6998e-06
2.69538e-06
2.69271e-06
2.69179e-06
2.69267e-06
2.69534e-06
2.69982e-06
2.7061e-06
2.71418e-06
2.72407e-06
2.73576e-06
2.74924e-06
2.76447e-06
2.78144e-06
2.80016e-06
2.8206e-06
2.84274e-06
2.86657e-06
2.89206e-06
2.91918e-06
2.94793e-06
2.97827e-06
3.01019e-06
3.04366e-06
3.07867e-06
3.11519e-06
3.15322e-06
3.19272e-06
3.2337e-06
3.27614e-06
3.32002e-06
3.36533e-06
3.41208e-06
3.46025e-06
3.50985e-06
3.56086e-06
3.6133e-06
3.66715e-06
3.72243e-06
3.77914e-06
3.83727e-06
3.89684e-06
3.95785e-06
4.02028e-06
4.08416e-06
4.14946e-06
4.21618e-06
4.2843e-06
4.3538e-06
4.42465e-06
4.49681e-06
4.57023e-06
4.64485e-06
4.72057e-06
4.7973e-06
4.87492e-06
4.95329e-06
5.03224e-06
5.11157e-06
5.19105e-06
5.27043e-06
5.3494e-06
5.42763e-06
5.50474e-06
5.58032e-06
5.6539e-06
5.72496e-06
5.79296e-06
5.85729e-06
5.9173e-06
5.97231e-06
6.02159e-06
6.06437e-06
6.09986e-06
6.12725e-06
6.1457e-06
6.15439e-06
6.1525e-06
6.13929e-06
6.11433e-06
6.07926e-06
6.03135e-06
5.96958e-06
5.8934e-06
5.80244e-06
5.69645e-06
5.57533e-06
5.43911e-06
5.28798e-06
5.1223e-06
4.94258e-06
4.74952e-06
4.54397e-06
4.32694e-06
4.0996e-06
3.86324e-06
3.61928e-06
3.3692e-06
3.11454e-06
2.85686e-06
2.59764e-06
2.33812e-06
2.07788e-06
1.81964e-06
1.5642e-06
1.30797e-06
1.05039e-06
7.94329e-07
5.31609e-07
2.60305e-07
5.14292e-08
2.7325e-08
1.40263e-07
3.02453e-07
4.73625e-07
6.45716e-07
8.17535e-07
9.89875e-07
1.15986e-06
1.32536e-06
1.48587e-06
1.64042e-06
1.78874e-06
1.93101e-06
2.06587e-06
2.19377e-06
2.31466e-06
2.42851e-06
2.53536e-06
2.63528e-06
2.72837e-06
2.8148e-06
2.89473e-06
2.96838e-06
3.03673e-06
3.10184e-06
3.16169e-06
3.2163e-06
3.26589e-06
3.31073e-06
3.35106e-06
3.38714e-06
3.41918e-06
3.44744e-06
3.47212e-06
3.49345e-06
3.51168e-06
3.52685e-06
3.53922e-06
3.54895e-06
3.55618e-06
3.56103e-06
3.56366e-06
3.56417e-06
3.56268e-06
3.55929e-06
3.55409e-06
3.54717e-06
3.5386e-06
3.52845e-06
3.51678e-06
3.50367e-06
3.48916e-06
3.47332e-06
3.4562e-06
3.43786e-06
3.41835e-06
3.39775e-06
3.37612e-06
3.35351e-06
3.32999e-06
3.30565e-06
3.28063e-06
3.25572e-06
3.23069e-06
3.20518e-06
3.17924e-06
3.15298e-06
3.1265e-06
3.09991e-06
3.07332e-06
3.04683e-06
3.02056e-06
2.99463e-06
2.96914e-06
2.9442e-06
2.91991e-06
2.8964e-06
2.87375e-06
2.85206e-06
2.83142e-06
2.81193e-06
2.79366e-06
2.7767e-06
2.76111e-06
2.74697e-06
2.73432e-06
2.72324e-06
2.71376e-06
2.70593e-06
2.69978e-06
2.69536e-06
2.69269e-06
2.69178e-06
2.69265e-06
2.69532e-06
2.69979e-06
2.70607e-06
2.71415e-06
2.72404e-06
2.73573e-06
2.74921e-06
2.76443e-06
2.78141e-06
2.80012e-06
2.82056e-06
2.84271e-06
2.86653e-06
2.89202e-06
2.91914e-06
2.94789e-06
2.97823e-06
3.01015e-06
3.04362e-06
3.07862e-06
3.11515e-06
3.15317e-06
3.19268e-06
3.23365e-06
3.27609e-06
3.31997e-06
3.36528e-06
3.41203e-06
3.4602e-06
3.5098e-06
3.56081e-06
3.61325e-06
3.6671e-06
3.72238e-06
3.77909e-06
3.83722e-06
3.89679e-06
3.95779e-06
4.02023e-06
4.0841e-06
4.1494e-06
4.21612e-06
4.28424e-06
4.35375e-06
4.4246e-06
4.49676e-06
4.57018e-06
4.6448e-06
4.72052e-06
4.79725e-06
4.87487e-06
4.95324e-06
5.03219e-06
5.11152e-06
5.191e-06
5.27038e-06
5.34935e-06
5.42758e-06
5.5047e-06
5.58028e-06
5.65385e-06
5.72492e-06
5.79292e-06
5.85725e-06
5.91726e-06
5.97228e-06
6.02156e-06
6.06434e-06
6.09983e-06
6.12722e-06
6.14567e-06
6.15437e-06
6.15248e-06
6.13927e-06
6.11432e-06
6.07924e-06
6.03133e-06
5.96956e-06
5.89339e-06
5.80243e-06
5.69645e-06
5.57533e-06
5.43911e-06
5.28799e-06
5.12231e-06
4.94259e-06
4.74953e-06
4.54398e-06
4.32695e-06
4.09961e-06
3.86326e-06
3.6193e-06
3.36921e-06
3.11456e-06
2.85687e-06
2.59765e-06
2.33813e-06
2.07789e-06
1.81965e-06
1.56421e-06
1.30798e-06
1.0504e-06
7.94342e-07
5.3162e-07
2.60312e-07
5.14306e-08
1.31231e-07
6.66698e-06
1.49908e-05
2.11162e-05
2.6012e-05
3.01709e-05
3.37311e-05
3.6836e-05
3.96098e-05
4.21198e-05
4.44011e-05
4.64831e-05
4.83872e-05
5.01349e-05
5.17381e-05
5.3208e-05
5.45551e-05
5.57886e-05
5.69171e-05
5.79484e-05
5.88894e-05
5.97456e-05
6.05198e-05
6.12057e-05
6.18044e-05
6.23362e-05
6.28117e-05
6.32376e-05
6.36189e-05
6.39598e-05
6.4264e-05
6.45347e-05
6.47746e-05
6.49863e-05
6.51719e-05
6.53336e-05
6.54736e-05
6.55929e-05
6.56925e-05
6.57732e-05
6.58361e-05
6.5882e-05
6.59114e-05
6.59249e-05
6.59232e-05
6.59066e-05
6.58757e-05
6.58308e-05
6.57723e-05
6.57003e-05
6.56154e-05
6.55177e-05
6.54076e-05
6.52853e-05
6.51512e-05
6.50055e-05
6.48487e-05
6.4681e-05
6.45028e-05
6.43142e-05
6.41149e-05
6.39032e-05
6.36729e-05
6.34324e-05
6.31849e-05
6.2932e-05
6.26751e-05
6.2415e-05
6.21527e-05
6.18892e-05
6.16255e-05
6.13627e-05
6.11016e-05
6.08434e-05
6.0589e-05
6.03396e-05
6.00961e-05
5.98596e-05
5.96311e-05
5.94114e-05
5.92017e-05
5.90027e-05
5.88153e-05
5.86403e-05
5.84784e-05
5.83304e-05
5.81969e-05
5.80784e-05
5.79755e-05
5.78884e-05
5.78177e-05
5.77636e-05
5.77263e-05
5.77059e-05
5.77025e-05
5.77161e-05
5.77468e-05
5.77943e-05
5.78586e-05
5.79394e-05
5.80365e-05
5.81498e-05
5.82789e-05
5.84235e-05
5.85831e-05
5.87575e-05
5.89463e-05
5.9149e-05
5.93652e-05
5.95945e-05
5.98366e-05
6.00911e-05
6.03574e-05
6.06354e-05
6.09246e-05
6.12247e-05
6.15353e-05
6.18561e-05
6.21869e-05
6.25274e-05
6.28773e-05
6.32365e-05
6.36046e-05
6.39815e-05
6.43671e-05
6.47611e-05
6.51634e-05
6.55738e-05
6.59923e-05
6.64186e-05
6.68526e-05
6.72941e-05
6.7743e-05
6.8199e-05
6.8662e-05
6.91316e-05
6.96076e-05
7.00895e-05
7.0577e-05
7.10695e-05
7.15664e-05
7.20672e-05
7.2571e-05
7.30769e-05
7.3584e-05
7.4091e-05
7.45967e-05
7.50997e-05
7.55984e-05
7.60909e-05
7.65753e-05
7.70494e-05
7.75109e-05
7.79571e-05
7.83854e-05
7.87927e-05
7.91759e-05
7.95315e-05
7.98559e-05
8.01455e-05
8.03961e-05
8.06038e-05
8.07642e-05
8.0873e-05
8.09257e-05
8.09179e-05
8.08446e-05
8.0701e-05
8.04808e-05
8.01624e-05
7.97495e-05
7.92417e-05
7.8637e-05
7.79326e-05
7.71259e-05
7.62144e-05
7.5196e-05
7.40689e-05
7.28319e-05
7.1484e-05
7.00249e-05
6.84544e-05
6.67728e-05
6.49806e-05
6.30783e-05
6.10663e-05
5.89448e-05
5.67131e-05
5.43689e-05
5.19082e-05
4.93233e-05
4.66037e-05
4.37104e-05
4.05671e-05
3.70373e-05
3.28606e-05
2.7364e-05
1.99958e-05
9.35841e-06
2.28892e-07
1.31232e-07
6.66725e-06
1.49913e-05
2.11168e-05
2.60125e-05
3.01715e-05
3.37317e-05
3.68365e-05
3.96103e-05
4.21203e-05
4.44016e-05
4.64836e-05
4.83876e-05
5.01354e-05
5.17386e-05
5.32085e-05
5.45556e-05
5.57891e-05
5.69177e-05
5.7949e-05
5.88899e-05
5.97462e-05
6.05204e-05
6.12064e-05
6.18051e-05
6.2337e-05
6.28125e-05
6.32384e-05
6.36198e-05
6.39608e-05
6.4265e-05
6.45357e-05
6.47757e-05
6.49875e-05
6.51732e-05
6.5335e-05
6.5475e-05
6.55944e-05
6.56941e-05
6.57749e-05
6.5838e-05
6.58839e-05
6.59133e-05
6.5927e-05
6.59253e-05
6.59089e-05
6.5878e-05
6.58332e-05
6.57747e-05
6.57029e-05
6.5618e-05
6.55203e-05
6.54103e-05
6.5288e-05
6.51539e-05
6.50083e-05
6.48514e-05
6.46837e-05
6.45055e-05
6.43169e-05
6.41177e-05
6.39059e-05
6.36755e-05
6.3435e-05
6.31874e-05
6.29345e-05
6.26775e-05
6.24173e-05
6.2155e-05
6.18915e-05
6.16277e-05
6.13648e-05
6.11036e-05
6.08453e-05
6.05909e-05
6.03414e-05
6.00978e-05
5.98612e-05
5.96326e-05
5.94129e-05
5.9203e-05
5.90039e-05
5.88164e-05
5.86414e-05
5.84794e-05
5.83314e-05
5.81977e-05
5.80792e-05
5.79761e-05
5.7889e-05
5.78182e-05
5.7764e-05
5.77266e-05
5.77062e-05
5.77027e-05
5.77162e-05
5.77468e-05
5.77943e-05
5.78585e-05
5.79392e-05
5.80363e-05
5.81495e-05
5.82786e-05
5.84231e-05
5.85827e-05
5.87571e-05
5.89458e-05
5.91484e-05
5.93646e-05
5.95939e-05
5.9836e-05
6.00904e-05
6.03567e-05
6.06347e-05
6.09238e-05
6.12239e-05
6.15344e-05
6.18553e-05
6.21861e-05
6.25265e-05
6.28764e-05
6.32356e-05
6.36037e-05
6.39806e-05
6.43661e-05
6.47601e-05
6.51624e-05
6.55728e-05
6.59913e-05
6.64176e-05
6.68516e-05
6.72931e-05
6.7742e-05
6.8198e-05
6.8661e-05
6.91306e-05
6.96065e-05
7.00885e-05
7.05759e-05
7.10684e-05
7.15654e-05
7.20662e-05
7.25699e-05
7.30759e-05
7.35829e-05
7.40899e-05
7.45957e-05
7.50987e-05
7.55973e-05
7.60898e-05
7.65742e-05
7.70483e-05
7.75098e-05
7.7956e-05
7.83843e-05
7.87916e-05
7.91748e-05
7.95304e-05
7.98548e-05
8.01443e-05
8.0395e-05
8.06026e-05
8.0763e-05
8.08719e-05
8.09246e-05
8.09168e-05
8.08436e-05
8.07e-05
8.04797e-05
8.01614e-05
7.97485e-05
7.92408e-05
7.86361e-05
7.79318e-05
7.71251e-05
7.62137e-05
7.51953e-05
7.40682e-05
7.28312e-05
7.14834e-05
7.00243e-05
6.84538e-05
6.67723e-05
6.49801e-05
6.30778e-05
6.10659e-05
5.89444e-05
5.67127e-05
5.43686e-05
5.19079e-05
4.93231e-05
4.66035e-05
4.37101e-05
4.05669e-05
3.70372e-05
3.28604e-05
2.73638e-05
1.99957e-05
9.35837e-06
2.28889e-07
2.85391e-07
1.47536e-05
3.57312e-05
5.18757e-05
6.45892e-05
7.50969e-05
8.39865e-05
9.16999e-05
9.85013e-05
0.000104571
0.000110032
0.000114969
0.000119444
0.000123509
0.000127204
0.000130565
0.000133622
0.000136402
0.000138929
0.000141226
0.000143311
0.000145201
0.000146906
0.000148429
0.000149779
0.000150984
0.000152066
0.00015304
0.000153918
0.00015471
0.000155424
0.000156068
0.000156646
0.000157163
0.000157625
0.000158034
0.000158394
0.000158708
0.000158976
0.000159202
0.000159388
0.000159533
0.000159639
0.000159707
0.000159739
0.000159735
0.000159698
0.000159626
0.000159523
0.000159389
0.000159225
0.000159033
0.000158812
0.000158565
0.000158292
0.000157995
0.000157674
0.00015733
0.000156963
0.000156575
0.000156164
0.000155729
0.000155265
0.000154779
0.000154277
0.000153762
0.000153238
0.000152706
0.000152169
0.000151628
0.000151085
0.000150543
0.000150002
0.000149465
0.000148934
0.00014841
0.000147895
0.000147392
0.000146902
0.000146426
0.000145966
0.000145525
0.000145103
0.000144701
0.000144322
0.000143966
0.000143634
0.000143328
0.000143048
0.000142794
0.000142568
0.00014237
0.0001422
0.000142058
0.000141945
0.00014186
0.000141804
0.000141776
0.000141776
0.000141803
0.000141857
0.000141938
0.000142046
0.000142179
0.000142337
0.00014252
0.000142727
0.000142957
0.00014321
0.000143485
0.000143782
0.0001441
0.000144438
0.000144797
0.000145175
0.000145573
0.00014599
0.000146425
0.000146878
0.000147349
0.000147838
0.000148345
0.000148869
0.00014941
0.000149968
0.000150543
0.000151135
0.000151744
0.000152368
0.000153009
0.000153666
0.000154339
0.000155027
0.00015573
0.000156448
0.00015718
0.000157925
0.000158682
0.000159451
0.000160231
0.000161019
0.000161816
0.000162619
0.000163426
0.000164235
0.000165044
0.000165851
0.000166651
0.000167443
0.000168223
0.000168986
0.000169729
0.000170447
0.000171135
0.000171788
0.000172401
0.000172968
0.000173483
0.000173939
0.00017433
0.000174649
0.000174889
0.000175041
0.0001751
0.000175057
0.000174904
0.000174634
0.000174236
0.000173701
0.000173004
0.000172145
0.000171118
0.000169922
0.00016855
0.000166999
0.000165263
0.000163338
0.000161219
0.000158902
0.000156383
0.000153656
0.000150719
0.000147565
0.000144189
0.000140584
0.00013674
0.000132646
0.000128286
0.000123637
0.000118669
0.000113332
0.000107553
0.000101202
9.40584e-05
8.57447e-05
7.55655e-05
6.22957e-05
4.41105e-05
1.93128e-05
4.93679e-07
2.85393e-07
1.47541e-05
3.57324e-05
5.18771e-05
6.45906e-05
7.50982e-05
8.39878e-05
9.17011e-05
9.85024e-05
0.000104572
0.000110033
0.00011497
0.000119445
0.00012351
0.000127205
0.000130566
0.000133623
0.000136402
0.00013893
0.000141227
0.000143312
0.000145202
0.000146907
0.00014843
0.00014978
0.000150985
0.000152067
0.000153041
0.000153919
0.000154712
0.000155426
0.000156069
0.000156648
0.000157166
0.000157627
0.000158037
0.000158397
0.00015871
0.000158979
0.000159206
0.000159391
0.000159536
0.000159642
0.000159711
0.000159743
0.00015974
0.000159702
0.000159631
0.000159528
0.000159394
0.00015923
0.000159037
0.000158817
0.00015857
0.000158297
0.000158
0.000157679
0.000157335
0.000156968
0.00015658
0.000156169
0.000155734
0.00015527
0.000154784
0.000154281
0.000153767
0.000153242
0.000152711
0.000152173
0.000151632
0.000151089
0.000150546
0.000150005
0.000149468
0.000148937
0.000148413
0.000147898
0.000147394
0.000146904
0.000146428
0.000145968
0.000145526
0.000145104
0.000144702
0.000144323
0.000143967
0.000143635
0.000143328
0.000143048
0.000142794
0.000142568
0.000142369
0.000142199
0.000142057
0.000141944
0.000141859
0.000141803
0.000141774
0.000141774
0.000141801
0.000141855
0.000141936
0.000142043
0.000142176
0.000142335
0.000142517
0.000142724
0.000142954
0.000143207
0.000143482
0.000143779
0.000144097
0.000144435
0.000144794
0.000145172
0.00014557
0.000145986
0.000146421
0.000146874
0.000147346
0.000147835
0.000148342
0.000148866
0.000149407
0.000149965
0.00015054
0.000151132
0.00015174
0.000152365
0.000153006
0.000153663
0.000154336
0.000155024
0.000155727
0.000156444
0.000157176
0.000157921
0.000158679
0.000159448
0.000160227
0.000161016
0.000161813
0.000162615
0.000163423
0.000164232
0.000165041
0.000165847
0.000166648
0.00016744
0.000168219
0.000168983
0.000169725
0.000170443
0.000171132
0.000171785
0.000172398
0.000172965
0.00017348
0.000173936
0.000174327
0.000174646
0.000174886
0.000175039
0.000175097
0.000175054
0.000174902
0.000174631
0.000174234
0.000173698
0.000173002
0.000172143
0.000171117
0.00016992
0.000168549
0.000166997
0.000165262
0.000163336
0.000161218
0.000158901
0.000156382
0.000153656
0.000150718
0.000147565
0.000144189
0.000140583
0.000136739
0.000132645
0.000128285
0.000123637
0.000118669
0.000113332
0.000107553
0.000101202
9.40585e-05
8.57448e-05
7.55655e-05
6.22956e-05
4.41105e-05
1.93129e-05
4.93674e-07
4.44198e-07
2.06078e-05
5.1368e-05
7.66317e-05
9.70541e-05
0.000114027
0.000128497
0.000141086
0.000152194
0.000162094
0.00017098
0.000178992
0.000186237
0.000192802
0.000198757
0.000204163
0.000209071
0.000213529
0.000217577
0.000221254
0.000224591
0.000227617
0.000230356
0.000232824
0.000235039
0.000237036
0.00023884
0.000240474
0.000241956
0.000243301
0.000244522
0.000245629
0.000246631
0.000247536
0.000248349
0.000249076
0.000249721
0.000250287
0.000250778
0.000251198
0.000251547
0.000251828
0.000252044
0.000252196
0.000252285
0.000252315
0.000252286
0.000252201
0.000252062
0.000251871
0.000251632
0.000251344
0.000251012
0.000250637
0.00025022
0.000249765
0.000249272
0.000248743
0.000248181
0.000247585
0.000246955
0.000246293
0.000245595
0.000244868
0.000244117
0.000243346
0.00024256
0.000241762
0.000240953
0.000240139
0.00023932
0.000238499
0.00023768
0.000236864
0.000236054
0.000235252
0.000234462
0.000233684
0.000232922
0.000232178
0.000231453
0.00023075
0.000230071
0.000229417
0.00022879
0.000228191
0.000227622
0.000227083
0.000226577
0.000226102
0.000225661
0.000225253
0.00022488
0.00022454
0.000224234
0.000223963
0.000223725
0.000223521
0.000223351
0.000223213
0.000223109
0.000223037
0.000222996
0.000222987
0.000223008
0.00022306
0.000223141
0.000223252
0.000223391
0.000223559
0.000223755
0.000223978
0.000224229
0.000224506
0.00022481
0.000225141
0.000225499
0.000225882
0.000226292
0.000226729
0.000227191
0.00022768
0.000228195
0.000228737
0.000229304
0.000229899
0.000230519
0.000231166
0.000231839
0.000232538
0.000233263
0.000234013
0.000234789
0.000235589
0.000236413
0.00023726
0.000238128
0.000239018
0.000239927
0.000240853
0.000241796
0.000242752
0.000243719
0.000244694
0.000245674
0.000246656
0.000247636
0.000248609
0.000249571
0.000250517
0.000251441
0.000252337
0.0002532
0.000254022
0.000254796
0.000255514
0.00025617
0.000256753
0.000257257
0.000257671
0.000257987
0.000258194
0.000258284
0.000258247
0.000258071
0.000257748
0.000257265
0.000256612
0.000255776
0.000254736
0.000253484
0.000252014
0.000250319
0.000248391
0.000246223
0.000243809
0.000241139
0.000238206
0.000235002
0.000231516
0.00022774
0.000223661
0.000219267
0.000214541
0.000209466
0.000204017
0.000198165
0.000191872
0.000185089
0.000177744
0.000169737
0.000160918
0.000151053
0.000139775
0.000126494
0.000110255
8.95555e-05
6.22093e-05
2.67955e-05
7.81616e-07
4.44201e-07
2.06084e-05
5.13694e-05
7.66334e-05
9.70559e-05
0.000114029
0.000128499
0.000141087
0.000152195
0.000162095
0.000170981
0.000178993
0.000186239
0.000192804
0.000198759
0.000204165
0.000209073
0.000213531
0.000217579
0.000221256
0.000224593
0.00022762
0.000230358
0.000232826
0.000235042
0.000237038
0.000238843
0.000240477
0.000241959
0.000243304
0.000244525
0.000245632
0.000246635
0.00024754
0.000248353
0.00024908
0.000249725
0.000250292
0.000250783
0.000251202
0.000251552
0.000251834
0.00025205
0.000252202
0.000252291
0.000252321
0.000252292
0.000252207
0.000252068
0.000251878
0.000251638
0.000251351
0.000251019
0.000250643
0.000250227
0.000249772
0.000249279
0.00024875
0.000248187
0.000247591
0.000246962
0.000246299
0.000245601
0.000244874
0.000244123
0.000243352
0.000242566
0.000241767
0.000240958
0.000240143
0.000239324
0.000238503
0.000237684
0.000236867
0.000236057
0.000235255
0.000234464
0.000233687
0.000232924
0.00023218
0.000231455
0.000230751
0.000230072
0.000229418
0.00022879
0.000228191
0.000227622
0.000227083
0.000226576
0.000226101
0.000225659
0.000225251
0.000224877
0.000224537
0.000224231
0.000223959
0.000223722
0.000223518
0.000223347
0.00022321
0.000223105
0.000223032
0.000222992
0.000222982
0.000223003
0.000223055
0.000223136
0.000223247
0.000223386
0.000223554
0.000223749
0.000223973
0.000224223
0.000224501
0.000224805
0.000225136
0.000225493
0.000225877
0.000226287
0.000226723
0.000227186
0.000227674
0.000228189
0.000228731
0.000229299
0.000229893
0.000230513
0.00023116
0.000231833
0.000232532
0.000233257
0.000234008
0.000234783
0.000235583
0.000236407
0.000237254
0.000238123
0.000239013
0.000239922
0.000240848
0.000241791
0.000242747
0.000243714
0.000244689
0.000245669
0.000246651
0.000247631
0.000248604
0.000249566
0.000250512
0.000251436
0.000252332
0.000253195
0.000254017
0.000254791
0.00025551
0.000256165
0.000256749
0.000257253
0.000257667
0.000257982
0.00025819
0.00025828
0.000258243
0.000258068
0.000257744
0.000257262
0.000256609
0.000255773
0.000254733
0.000253482
0.000252012
0.000250317
0.000248389
0.000246222
0.000243807
0.000241138
0.000238205
0.000235001
0.000231516
0.00022774
0.000223661
0.000219267
0.000214541
0.000209466
0.000204017
0.000198165
0.000191873
0.000185089
0.000177744
0.000169737
0.000160918
0.000151054
0.000139776
0.000126495
0.000110255
8.9556e-05
6.22096e-05
2.67957e-05
7.81611e-07
6.01356e-07
2.51746e-05
6.33322e-05
9.60798e-05
0.00012322
0.000146114
0.000165821
0.000183058
0.000198315
0.000211937
0.000224174
0.000235215
0.000245203
0.000254258
0.000262476
0.00026994
0.000276723
0.000282889
0.000288495
0.000293592
0.000298227
0.000302438
0.000306261
0.000309727
0.000312863
0.000315706
0.000318288
0.000320636
0.000322773
0.000324719
0.000326492
0.000328104
0.000329568
0.000330893
0.000332088
0.00033316
0.000334114
0.000334955
0.000335688
0.000336317
0.000336845
0.000337275
0.000337611
0.000337855
0.00033801
0.00033808
0.000338066
0.000337972
0.000337802
0.000337559
0.000337246
0.000336867
0.000336424
0.000335921
0.000335361
0.000334748
0.000334083
0.00033337
0.00033261
0.000331806
0.000330959
0.000330071
0.000329142
0.000328176
0.000327181
0.000326159
0.000325116
0.000324056
0.000322982
0.000321899
0.000320809
0.000319715
0.000318622
0.000317531
0.000316447
0.000315371
0.000314308
0.000313259
0.000312226
0.000311214
0.000310224
0.000309258
0.000308318
0.000307406
0.000306524
0.000305674
0.000304856
0.000304072
0.000303322
0.000302608
0.00030193
0.000301288
0.000300682
0.000300113
0.000299581
0.000299086
0.000298627
0.000298204
0.000297817
0.000297465
0.000297149
0.000296867
0.00029662
0.000296407
0.000296227
0.00029608
0.000295967
0.000295886
0.000295838
0.000295823
0.00029584
0.000295889
0.000295971
0.000296085
0.000296231
0.000296411
0.000296624
0.00029687
0.00029715
0.000297464
0.000297812
0.000298195
0.000298613
0.000299066
0.000299555
0.00030008
0.000300641
0.000301238
0.000301872
0.000302541
0.000303247
0.000303988
0.000304764
0.000305575
0.000306419
0.000307295
0.000308203
0.00030914
0.000310105
0.000311095
0.000312108
0.000313141
0.00031419
0.000315253
0.000316325
0.000317401
0.000318477
0.000319547
0.000320605
0.000321646
0.000322661
0.000323644
0.000324587
0.000325481
0.000326318
0.000327089
0.000327783
0.000328392
0.000328903
0.000329308
0.000329594
0.00032975
0.000329765
0.000329627
0.000329324
0.000328844
0.000328175
0.000327302
0.000326213
0.000324887
0.000323315
0.000321485
0.000319389
0.000317016
0.000314356
0.000311398
0.000308132
0.000304544
0.000300621
0.000296349
0.000291709
0.000286683
0.000281247
0.000275375
0.000269034
0.000262186
0.000254782
0.00024676
0.00023804
0.000228513
0.000218028
0.000206368
0.000193211
0.000178071
0.000160212
0.000138511
0.000111314
7.64181e-05
3.291e-05
1.08801e-06
6.01359e-07
2.51752e-05
6.33336e-05
9.60816e-05
0.000123222
0.000146116
0.000165823
0.00018306
0.000198317
0.000211939
0.000224177
0.000235217
0.000245206
0.00025426
0.000262479
0.000269943
0.000276727
0.000282893
0.000288499
0.000293596
0.000298231
0.000302442
0.000306266
0.000309732
0.000312868
0.000315711
0.000318294
0.000320642
0.000322779
0.000324725
0.000326498
0.00032811
0.000329574
0.0003309
0.000332095
0.000333167
0.000334121
0.000334962
0.000335696
0.000336325
0.000336853
0.000337283
0.000337619
0.000337864
0.000338019
0.000338089
0.000338075
0.000337982
0.000337812
0.000337569
0.000337256
0.000336876
0.000336433
0.000335931
0.000335371
0.000334757
0.000334092
0.000333379
0.000332619
0.000331815
0.000330968
0.000330079
0.00032915
0.000328185
0.000327188
0.000326166
0.000325123
0.000324063
0.000322989
0.000321905
0.000320815
0.000319721
0.000318627
0.000317536
0.000316452
0.000315376
0.000314312
0.000313262
0.00031223
0.000311217
0.000310226
0.000309259
0.000308319
0.000307407
0.000306525
0.000305674
0.000304855
0.000304071
0.000303321
0.000302606
0.000301928
0.000301285
0.00030068
0.000300111
0.000299578
0.000299082
0.000298623
0.0002982
0.000297812
0.000297461
0.000297144
0.000296862
0.000296615
0.000296401
0.000296221
0.000296075
0.000295961
0.00029588
0.000295832
0.000295817
0.000295833
0.000295883
0.000295964
0.000296078
0.000296225
0.000296404
0.000296617
0.000296863
0.000297143
0.000297457
0.000297805
0.000298188
0.000298606
0.00029906
0.000299549
0.000300074
0.000300635
0.000301232
0.000301865
0.000302535
0.000303241
0.000303982
0.000304758
0.000305569
0.000306413
0.000307289
0.000308197
0.000309134
0.000310099
0.000311089
0.000312102
0.000313135
0.000314185
0.000315247
0.000316319
0.000317396
0.000318471
0.000319542
0.0003206
0.00032164
0.000322656
0.000323639
0.000324581
0.000325476
0.000326313
0.000327084
0.000327778
0.000328387
0.000328898
0.000329303
0.000329589
0.000329745
0.000329761
0.000329623
0.00032932
0.000328841
0.000328171
0.000327299
0.00032621
0.000324884
0.000323312
0.000321483
0.000319387
0.000317014
0.000314354
0.000311397
0.000308131
0.000304543
0.000300621
0.000296349
0.000291709
0.000286683
0.000281247
0.000275375
0.000269035
0.000262187
0.000254783
0.000246761
0.000238041
0.000228514
0.00021803
0.00020637
0.000193212
0.000178073
0.000160213
0.000138513
0.000111315
7.64187e-05
3.29105e-05
1.088e-06
7.59917e-07
2.90186e-05
7.29753e-05
0.000111847
0.000144743
0.000172877
0.000197304
0.000218788
0.000237876
0.000254963
0.000270344
0.000284244
0.00029684
0.000308276
0.000318671
0.000328129
0.000336738
0.000344577
0.000351717
0.000358222
0.000364148
0.000369546
0.000374462
0.000378935
0.000383002
0.000386704
0.000390076
0.000393151
0.000395955
0.000398513
0.000400845
0.000402969
0.000404898
0.000406646
0.000408223
0.000409638
0.000410897
0.000412009
0.000412978
0.00041381
0.000414509
0.00041508
0.000415528
0.000415857
0.00041607
0.000416172
0.000416167
0.000416059
0.000415852
0.000415552
0.000415162
0.000414686
0.00041413
0.000413498
0.000412793
0.00041202
0.000411183
0.000410284
0.000409328
0.000408317
0.000407255
0.000406144
0.000404986
0.000403786
0.00040255
0.000401282
0.000399989
0.000398674
0.000397342
0.000395999
0.000394646
0.000393289
0.000391932
0.000390578
0.00038923
0.000387891
0.000386566
0.000385257
0.000383968
0.0003827
0.000381456
0.000380239
0.000379051
0.000377894
0.00037677
0.000375679
0.000374623
0.000373603
0.00037262
0.000371674
0.000370766
0.000369896
0.000369064
0.000368269
0.000367513
0.000366794
0.000366111
0.000365466
0.000364857
0.000364284
0.000363747
0.000363244
0.000362777
0.000362345
0.000361946
0.000361583
0.000361253
0.000360958
0.000360697
0.000360471
0.00036028
0.000360125
0.000360005
0.000359922
0.000359875
0.000359867
0.000359897
0.000359966
0.000360074
0.000360224
0.000360415
0.000360648
0.000360923
0.000361243
0.000361606
0.000362015
0.000362468
0.000362967
0.000363511
0.000364101
0.000364737
0.000365417
0.000366143
0.000366912
0.000367724
0.000368578
0.000369471
0.000370403
0.00037137
0.000372371
0.000373401
0.000374458
0.000375538
0.000376636
0.000377747
0.000378867
0.000379988
0.000381106
0.000382212
0.0003833
0.000384361
0.000385387
0.000386369
0.000387297
0.000388161
0.000388951
0.000389656
0.000390263
0.000390763
0.000391141
0.000391387
0.000391487
0.000391429
0.000391198
0.000390783
0.00039017
0.000389344
0.000388291
0.000386996
0.000385441
0.000383613
0.000381498
0.000379085
0.000376361
0.000373312
0.000369925
0.000366183
0.000362071
0.000357568
0.000352653
0.000347301
0.000341485
0.000335171
0.000328321
0.000320888
0.000312817
0.000304041
0.000294476
0.000284012
0.000272507
0.000259765
0.000245512
0.000229355
0.000210722
0.000188768
0.000162259
0.000129441
8.81344e-05
3.79388e-05
1.40543e-06
7.59921e-07
2.90191e-05
7.29767e-05
0.000111849
0.000144745
0.00017288
0.000197306
0.000218791
0.000237879
0.000254966
0.000270348
0.000284248
0.000296844
0.00030828
0.000318676
0.000328134
0.000336743
0.000344583
0.000351724
0.000358229
0.000364155
0.000369554
0.00037447
0.000378943
0.000383011
0.000386713
0.000390085
0.00039316
0.000395964
0.000398523
0.000400855
0.000402979
0.000404909
0.000406657
0.000408234
0.000409649
0.000410909
0.00041202
0.00041299
0.000413822
0.000414521
0.000415093
0.00041554
0.000415869
0.000416082
0.000416184
0.000416179
0.000416072
0.000415865
0.000415565
0.000415174
0.000414699
0.000414143
0.000413511
0.000412806
0.000412033
0.000411195
0.000410296
0.00040934
0.000408329
0.000407267
0.000406155
0.000404997
0.000403797
0.00040256
0.000401292
0.000399999
0.000398683
0.000397352
0.000396007
0.000394655
0.000393297
0.00039194
0.000390585
0.000389236
0.000387898
0.000386572
0.000385263
0.000383973
0.000382704
0.00038146
0.000380243
0.000379054
0.000377897
0.000376772
0.00037568
0.000374624
0.000373604
0.00037262
0.000371674
0.000370766
0.000369895
0.000369062
0.000368268
0.000367511
0.000366791
0.000366109
0.000365463
0.000364854
0.00036428
0.000363743
0.00036324
0.000362773
0.00036234
0.000361941
0.000361577
0.000361247
0.000360952
0.000360691
0.000360465
0.000360274
0.000360118
0.000359999
0.000359915
0.000359869
0.00035986
0.00035989
0.000359959
0.000360068
0.000360217
0.000360408
0.000360641
0.000360917
0.000361236
0.0003616
0.000362008
0.000362461
0.00036296
0.000363505
0.000364095
0.00036473
0.000365411
0.000366136
0.000366906
0.000367718
0.000368572
0.000369465
0.000370397
0.000371364
0.000372365
0.000373396
0.000374453
0.000375532
0.00037663
0.000377742
0.000378861
0.000379983
0.0003811
0.000382207
0.000383295
0.000384356
0.000385382
0.000386364
0.000387292
0.000388156
0.000388946
0.000389651
0.000390259
0.000390758
0.000391137
0.000391382
0.000391483
0.000391424
0.000391194
0.00039078
0.000390166
0.00038934
0.000388287
0.000386994
0.000385439
0.00038361
0.000381496
0.000379083
0.000376359
0.000373311
0.000369924
0.000366183
0.000362071
0.000357568
0.000352653
0.000347302
0.000341486
0.000335172
0.000328322
0.000320889
0.000312819
0.000304043
0.000294478
0.000284015
0.000272509
0.000259767
0.000245514
0.000229358
0.000210724
0.00018877
0.000162261
0.000129443
8.81354e-05
3.79396e-05
1.40542e-06
9.24717e-07
3.23124e-05
8.11043e-05
0.000125134
0.000162996
0.00019573
0.000224357
0.00024966
0.000272221
0.000292472
0.000310742
0.000327285
0.000342304
0.000355964
0.000368404
0.000379743
0.000390085
0.00039952
0.000408132
0.000415993
0.00042317
0.000429722
0.000435703
0.00044116
0.000446139
0.000450681
0.000454828
0.000458614
0.000462072
0.000465228
0.000468106
0.000470727
0.000473107
0.000475261
0.000477202
0.000478942
0.000480488
0.00048185
0.000483035
0.00048405
0.000484901
0.000485594
0.000486135
0.000486529
0.000486782
0.000486899
0.000486887
0.000486749
0.000486493
0.000486123
0.000485645
0.000485064
0.000484387
0.000483617
0.000482762
0.000481824
0.000480811
0.000479725
0.000478571
0.000477354
0.000476078
0.000474746
0.000473362
0.000471931