/*--------------------------------*- C++ -*----------------------------------*\
  =========                 |
  \\      /  F ield         | OpenFOAM: The Open Source CFD Toolbox
   \\    /   O peration     | Website:  https://openfoam.org
    \\  /    A nd           | Version:  8
     \\/     M anipulation  |
\*---------------------------------------------------------------------------*/
FoamFile
{
    version     2.0;
    format      ascii;
    class       volScalarField;
    location    "1500";
    object      epsilon;
}
// * * * * * * * * * * * * * * * * * * * * * * * * * * * * * * * * * * * * * //

dimensions      [0 2 -3 0 0 0 0];

internalField   nonuniform List<scalar> 
46000
(
0.499854
2.31032
4.97429
7.77947
10.595
13.4027
16.2166
18.9893
21.6867
24.3015
26.8178
29.2322
31.5464
33.7399
35.8196
37.7849
39.6355
41.372
42.9955
44.5081
45.9121
47.2103
48.4061
49.5148
50.5714
51.5425
52.4281
53.2322
53.9588
54.6119
55.1956
55.7136
56.1697
56.5674
56.9105
57.2028
57.4454
57.6422
57.7959
57.9087
57.9829
58.0207
58.024
57.9948
57.9347
57.8452
57.7277
57.5836
57.4139
57.2199
57.0025
56.7627
56.5014
56.2197
55.9185
55.5988
55.2615
54.9078
54.5386
54.1552
53.7585
53.3513
52.946
52.5393
52.1252
51.7047
51.2792
50.8505
50.4203
49.9904
49.5625
49.1386
48.7203
48.3096
47.908
47.5174
47.1395
46.7759
46.428
46.0976
45.7858
45.4942
45.2239
44.976
44.7517
44.552
44.3777
44.2295
44.1083
44.0145
43.9489
43.9116
43.9031
43.9236
43.9734
44.0526
44.1611
44.299
44.4663
44.6629
44.8887
45.1427
45.4253
45.7363
46.0753
46.4419
46.836
47.2571
47.705
48.1791
48.6793
49.2051
49.7562
50.3323
50.9332
51.5584
52.2079
52.8812
53.5784
54.2991
55.0432
55.8106
56.6013
57.4152
58.2523
59.1125
59.9959
60.9026
61.8325
62.7858
63.7625
64.7626
65.7862
66.8332
67.9035
68.997
70.1135
71.2526
72.4137
73.5964
74.7996
76.0224
77.2634
78.521
79.7933
81.0779
82.3721
83.6727
84.976
86.2778
87.5733
88.8569
90.1225
91.3634
92.5719
93.7398
94.858
95.9167
96.9054
97.8128
98.627
99.3356
99.9256
100.384
100.696
100.85
100.831
100.628
100.233
99.6724
98.9025
97.9064
96.6747
95.2011
93.4817
91.5144
89.2996
86.8402
84.1417
81.2124
78.0634
74.7083
71.1634
67.4476
63.5819
59.5888
55.4928
51.3186
47.0917
42.8362
38.5726
34.2947
30.0438
25.8371
21.6141
17.3657
13.1377
8.79831
4.31182
0.946322
0.499849
2.31035
4.97434
7.77952
10.5951
13.4027
16.2166
18.9893
21.6867
24.3015
26.8178
29.2322
31.5464
33.7398
35.8195
37.7848
39.6355
41.3719
42.9954
44.508
45.912
47.2102
48.406
49.5147
50.5713
51.5424
52.4281
53.2321
53.9587
54.6119
55.1955
55.7136
56.1697
56.5675
56.9105
57.2029
57.4455
57.6423
57.7961
57.9089
57.9831
58.0209
58.0243
57.9951
57.935
57.8455
57.7281
57.584
57.4144
57.2203
57.0029
56.7631
56.5019
56.2202
55.919
55.5992
55.262
54.9083
54.5391
54.1556
53.759
53.3517
52.9465
52.5398
52.1257
51.7051
51.2796
50.8508
50.4206
49.9907
49.5628
49.1389
48.7206
48.3098
47.9082
47.5176
47.1396
46.7759
46.4281
46.0976
45.7858
45.4942
45.2238
44.9759
44.7516
44.5519
44.3775
44.2293
44.1081
44.0143
43.9486
43.9113
43.9028
43.9233
43.9731
44.0522
44.1607
44.2986
44.4658
44.6624
44.8882
45.1422
45.4248
45.7357
46.0747
46.4413
46.8354
47.2565
47.7043
48.1784
48.6786
49.2044
49.7555
50.3316
50.9324
51.5577
52.2071
52.8805
53.5776
54.2983
55.0424
55.8098
56.6005
57.4144
58.2514
59.1116
59.995
60.9017
61.8316
62.7849
63.7616
64.7617
65.7853
66.8323
67.9026
68.9961
70.1126
71.2517
72.4128
73.5955
74.7987
76.0215
77.2625
78.5201
79.7924
81.077
82.3712
83.6718
84.9752
86.277
87.5724
88.856
90.1217
91.3626
92.5711
93.739
94.8572
95.916
96.9046
97.8121
98.6263
99.3349
99.925
100.383
100.696
100.849
100.831
100.627
100.232
99.672
98.9022
97.9061
96.6744
95.201
93.4816
91.5143
89.2995
86.8402
84.1417
81.2125
78.0635
74.7084
71.1636
67.4478
63.582
59.589
55.4929
51.3188
47.0919
42.8364
38.5728
34.2948
30.0439
25.8372
21.6142
17.3658
13.1378
8.79841
4.31188
0.946335
2.57965
2.13867
3.05381
4.12805
5.2259
6.32393
7.42251
8.51198
9.5818
10.6296
11.6452
12.6275
13.5757
14.4865
15.359
16.1924
16.9854
17.7374
18.4478
19.1163
19.7429
20.3281
20.8734
21.3839
21.8658
22.3128
22.7231
23.0969
23.435
23.7385
24.0087
24.2471
24.4552
24.6346
24.7867
24.9133
25.0156
25.0951
25.1533
25.1913
25.2103
25.2118
25.1969
25.1666
25.1218
25.0636
24.9926
24.9097
24.8153
24.7102
24.5949
24.4698
24.3356
24.1926
24.0414
23.8824
23.7162
23.5433
23.3642
23.1796
22.9904
22.7982
22.6061
22.4131
22.2183
22.0216
21.8235
21.6248
21.4262
21.2285
21.0324
20.8389
20.6486
20.4625
20.2812
20.1055
19.9363
19.7742
19.6198
19.474
19.3373
19.2103
19.0936
18.9876
18.893
18.81
18.7392
18.6808
18.6353
18.6028
18.5837
18.5782
18.5865
18.6087
18.6449
18.6952
18.7597
18.8384
18.9313
19.0385
19.1598
19.2953
19.4448
19.6084
19.7858
19.9771
20.1821
20.4006
20.6327
20.8781
21.1367
21.4084
21.693
21.9905
22.3007
22.6234
22.9587
23.3064
23.6663
24.0385
24.4228
24.8192
25.2276
25.6481
26.0805
26.5249
26.9813
27.4496
27.93
28.4224
28.9268
29.4433
29.9719
30.5125
31.0652
31.6298
32.2064
32.7947
33.3945
34.0057
34.6278
35.2604
35.903
36.5548
37.215
37.8826
38.5563
39.2347
39.9161
40.5987
41.28
41.9577
42.6288
43.29
43.9379
44.5683
45.177
45.7591
46.3095
46.8225
47.2924
47.7128
48.0773
48.3789
48.611
48.7664
48.8386
48.8215
48.7113
48.5112
48.2088
47.7955
47.2654
46.6144
45.8395
44.9391
43.9127
42.7614
41.4875
40.0948
38.5888
36.976
35.2646
33.4641
31.5848
29.6382
27.6364
25.5921
23.5177
21.4257
19.3271
17.2302
15.1475
13.0868
11.0439
9.06833
7.18632
5.42091
3.94028
4.55442
2.57964
2.13862
3.05373
4.12795
5.22579
6.32381
7.42237
8.51183
9.58164
10.6294
11.645
12.6273
13.5755
14.4862
15.3588
16.1921
16.9851
17.7371
18.4475
19.116
19.7426
20.3278
20.873
21.3835
21.8654
22.3123
22.7226
23.0963
23.4344
23.7379
24.0081
24.2465
24.4545
24.6338
24.786
24.9125
25.0147
25.0942
25.1523
25.1903
25.2093
25.2107
25.1958
25.1654
25.1207
25.0624
24.9914
24.9084
24.814
24.7089
24.5935
24.4685
24.3342
24.1912
24.04
23.881
23.7148
23.5419
23.3628
23.1782
22.989
22.7968
22.6047
22.4118
22.217
22.0203
21.8222
21.6236
21.425
21.2273
21.0313
20.8378
20.6475
20.4614
20.2801
20.1045
19.9353
19.7732
19.6189
19.4731
19.3365
19.2095
19.0928
18.9869
18.8922
18.8093
18.7385
18.6802
18.6347
18.6022
18.5832
18.5777
18.586
18.6082
18.6444
18.6948
18.7593
18.838
18.9309
19.0381
19.1595
19.295
19.4446
19.6081
19.7856
19.9769
20.1819
20.4005
20.6325
20.8779
21.1365
21.4082
21.6929
21.9904
22.3006
22.6234
22.9587
23.3063
23.6663
24.0385
24.4228
24.8192
25.2276
25.6481
26.0805
26.5249
26.9813
27.4497
27.9301
28.4225
28.9269
29.4434
29.972
30.5126
31.0653
31.63
32.2065
32.7948
33.3947
34.0059
34.628
35.2606
35.9032
36.555
37.2153
37.8828
38.5566
39.235
39.9164
40.599
41.2804
41.958
42.6291
43.2904
43.9383
44.5688
45.1774
45.7596
46.3099
46.823
47.2929
47.7134
48.0778
48.3795
48.6116
48.767
48.8392
48.8221
48.7119
48.5118
48.2094
47.7961
47.2661
46.6151
45.8401
44.9397
43.9133
42.762
41.488
40.0954
38.5893
36.9765
35.2652
33.4646
31.5853
29.6387
27.6369
25.5925
23.5181
21.4261
19.3275
17.2305
15.1478
13.087
11.0441
9.06847
7.18643
5.42097
3.94028
4.55439
5.5008
3.13635
3.36786
3.95933
4.64547
5.36721
6.10441
6.84577
7.58111
8.30614
9.01625
9.70868
10.3814
11.0323
11.6599
12.2629
12.8402
13.3907
13.9137
14.4086
14.875
15.3129
15.723
16.107
16.4666
16.8001
17.1067
17.3861
17.6385
17.8646
18.065
18.2406
18.3925
18.5217
18.6294
18.7168
18.7851
18.8354
18.8688
18.8864
18.8893
18.8785
18.8549
18.8196
18.7733
18.7168
18.6509
18.5761
18.4931
18.4022
18.3041
18.1991
18.0877
17.9702
17.8469
17.7184
17.5849
17.4469
17.3049
17.1594
17.011
16.8607
16.7096
16.5578
16.4051
16.2516
16.0978
15.9441
15.7909
15.6389
15.4887
15.3408
15.1959
15.0545
14.9172
14.7847
14.6575
14.5362
14.4213
14.3132
14.2126
14.1198
14.0354
13.9597
13.893
13.8359
13.7885
13.7512
13.7243
13.7081
13.7027
13.7083
13.7252
13.7534
13.7931
13.8444
13.9073
13.982
14.0685
14.1668
14.2769
14.3988
14.5325
14.6779
14.8351
15.0039
15.1844
15.3764
15.5798
15.7947
16.0209
16.2583
16.5068
16.7663
17.0368
17.3181
17.6102
17.913
18.2264
18.5503
18.8846
19.2293
19.5844
19.9498
20.3255
20.7114
21.1074
21.5137
21.9302
22.3569
22.7937
23.2408
23.698
24.1653
24.6428
25.1303
25.6279
26.1353
26.6524
27.1791
27.715
28.2598
28.813
29.3742
29.9426
30.5175
31.0979
31.6826
32.2703
32.8595
33.4484
34.035
34.6169
35.1916
35.7561
36.3072
36.8414
37.3547
37.843
38.3017
38.7259
39.1104
39.45
39.7389
39.9716
40.1422
40.2453
40.2757
40.2295
40.1038
39.8923
39.5891
39.1896
38.6903
38.0884
37.3826
36.5724
35.6586
34.643
33.5288
32.3204
31.0233
29.6442
28.1909
26.6719
25.0968
23.4755
21.8187
20.1372
18.4422
16.745
15.0572
13.3924
11.7657
10.1959
8.71757
7.37717
6.28877
5.87662
9.69415
5.50081
3.13626
3.36774
3.95921
4.64534
5.36708
6.10428
6.84563
7.58097
8.306
9.01611
9.70853
10.3812
11.0321
11.6597
12.2628
12.84
13.3905
13.9135
14.4084
14.8747
15.3127
15.7228
16.1067
16.4663
16.7998
17.1064
17.3857
17.6382
17.8642
18.0646
18.2401
18.392
18.5212
18.6289
18.7163
18.7845
18.8347
18.8681
18.8858
18.8886
18.8778
18.8542
18.8188
18.7724
18.716
18.65
18.5752
18.4921
18.4013
18.3032
18.1982
18.0867
17.9692
17.8459
17.7174
17.5839
17.446
17.304
17.1585
17.0101
16.8598
16.7087
16.5569
16.4042
16.2508
16.097
15.9433
15.7901
15.6382
15.4879
15.3401
15.1952
15.0538
14.9166
14.7841
14.657
14.5356
14.4207
14.3127
14.2121
14.1194
14.035
13.9593
13.8927
13.8355
13.7882
13.751
13.7241
13.7079
13.7025
13.7081
13.725
13.7533
13.793
13.8443
13.9073
13.982
14.0685
14.1668
14.2769
14.3988
14.5325
14.678
14.8352
15.004
15.1845
15.3765
15.58
15.7949
16.0211
16.2585
16.507
16.7665
17.037
17.3184
17.6105
17.9133
18.2266
18.5505
18.8849
19.2297
19.5848
19.9501
20.3258
20.7117
21.1078
21.5141
21.9306
22.3573
22.7941
23.2412
23.6984
24.1657
24.6432
25.1307
25.6283
26.1357
26.6529
27.1795
27.7154
28.2603
28.8135
29.3747
29.9431
30.518
31.0984
31.6831
32.2709
32.8601
33.449
34.0356
34.6175
35.1922
35.7567
36.3078
36.842
37.3554
37.8437
38.3023
38.7265
39.1111
39.4506
39.7396
39.9722
40.1428
40.2459
40.2764
40.2301
40.1045
39.8929
39.5897
39.1902
38.6908
38.089
37.3831
36.5729
35.659
34.6434
33.5292
32.3208
31.0236
29.6445
28.1912
26.6722
25.097
23.4758
21.8189
20.1374
18.4424
16.7452
15.0574
13.3925
11.7658
10.196
8.71764
7.37722
6.28879
5.87657
9.69409
8.44291
4.27096
4.01716
4.33962
4.8256
5.37793
5.9612
6.55867
7.1599
7.75834
8.34918
8.92891
9.4949
10.045
10.5774
11.0908
11.5838
12.0555
12.5052
12.932
13.3357
13.716
14.0732
14.4077
14.7203
15.0103
15.2771
15.5204
15.7404
15.9374
16.1116
16.2639
16.3948
16.5053
16.5962
16.6686
16.7233
16.7615
16.7842
16.7923
16.7868
16.7688
16.739
16.6983
16.6477
16.5879
16.5197
16.4436
16.3603
16.2703
16.174
16.0721
15.9647
15.8524
15.7356
15.6145
15.4896
15.3613
15.2299
15.096
14.96
14.8226
14.6844
14.5458
14.4067
14.2676
14.1285
13.99
13.8524
13.7163
13.582
13.4502
13.3214
13.196
13.0746
12.9576
12.8457
12.7393
12.6388
12.5447
12.4575
12.3775
12.3053
12.2411
12.1853
12.1383
12.1003
12.0717
12.0528
12.0437
12.0447
12.056
12.0777
12.1101
12.1532
12.2072
12.2722
12.3482
12.4353
12.5336
12.6431
12.7638
12.8957
13.0389
13.1933
13.3588
13.5355
13.7233
13.9222
14.1321
14.3529
14.5846
14.827
15.0802
15.344
15.6183
15.9032
16.1984
16.5039
16.8197
17.1456
17.4817
17.8278
18.1839
18.55
18.9259
19.3118
19.7075
20.113
20.5283
20.9534
21.3882
21.8328
22.2871
22.7511
23.2247
23.7078
24.2003
24.702
25.2128
25.7324
26.2604
26.7965
27.3402
27.8907
28.4474
29.0094
29.5757
30.1449
30.7156
31.2863
31.8549
32.4194
32.9773
33.5259
34.0622
34.5829
35.0844
35.5626
36.0134
36.4323
36.8144
37.1548
37.4483
37.6895
37.8732
37.9942
38.0477
38.0293
37.935
37.7597
37.4989
37.1485
36.7055
36.1676
35.5335
34.8027
33.976
33.0553
32.0433
30.9439
29.7623
28.5043
27.1768
25.7875
24.3449
22.8582
21.337
19.7919
18.234
16.6757
15.1308
13.6163
12.1528
10.7688
9.50709
8.44003
7.73771
8.10371
15.2269
8.44292
4.27085
4.01703
4.33949
4.82547
5.3778
5.96108
6.55855
7.15978
7.75822
8.34905
8.92878
9.49477
10.0448
10.5773
11.0906
11.5836
12.0554
12.505
12.9318
13.3355
13.7158
14.0729
14.4074
14.72
15.01
15.2767
15.5201
15.7401
15.937
16.1112
16.2635
16.3944
16.5048
16.5957
16.6681
16.7228
16.761
16.7836
16.7917
16.7863
16.7682
16.7383
16.6977
16.6471
16.5873
16.519
16.4429
16.3596
16.2695
16.1733
16.0713
15.964
15.8517
15.7348
15.6138
15.4889
15.3605
15.2292
15.0952
14.9593
14.8219
14.6837
14.5451
14.4061
14.2669
14.1279
13.9894
13.8518
13.7157
13.5815
13.4497
13.3209
13.1955
13.0741
12.9572
12.8453
12.7389
12.6384
12.5444
12.4572
12.3773
12.305
12.2408
12.1851
12.1381
12.1002
12.0716
12.0526
12.0436
12.0446
12.0559
12.0777
12.1101
12.1532
12.2072
12.2722
12.3482
12.4354
12.5337
12.6432
12.7639
12.8959
13.039
13.1934
13.359
13.5357
13.7236
13.9224
14.1323
14.3531
14.5848
14.8273
15.0805
15.3443
15.6186
15.9035
16.1987
16.5042
16.82
17.146
17.4821
17.8282
18.1843
18.5504
18.9263
19.3122
19.7079
20.1134
20.5287
20.9538
21.3887
21.8333
22.2876
22.7516
23.2251
23.7082
24.2007
24.7025
25.2133
25.7329
26.261
26.7971
27.3407
27.8913
28.448
29.01
29.5762
30.1454
30.7162
31.2869
31.8555
32.42
32.9779
33.5265
34.0628
34.5835
35.085
35.5632
36.0141
36.4329
36.8151
37.1555
37.4489
37.6901
37.8738
37.9948
38.0483
38.0299
37.9355
37.7602
37.4994
37.149
36.706
36.168
35.5338
34.803
33.9764
33.0556
32.0435
30.9442
29.7625
28.5044
27.1769
25.7876
24.345
22.8583
21.3371
19.792
18.2341
16.6757
15.1309
13.6163
12.1529
10.7688
9.50708
8.44002
7.73768
8.10361
15.2268
11.3125
5.44441
4.78629
4.91058
5.26178
5.70781
6.20108
6.7188
7.24784
7.77981
8.30888
8.83082
9.34244
9.84129
10.3254
10.7933
11.2437
11.6757
12.0884
12.4812
12.8538
13.2058
13.5373
13.8484
14.1393
14.4097
14.659
14.8871
15.0938
15.2793
15.4437
15.5875
15.7111
15.8151
15.9003
15.9674
16.0173
16.0508
16.069
16.0726
16.0627
16.0401
16.0059
15.9608
15.9057
15.8414
15.7687
15.6884
15.6011
15.5074
15.4078
15.3029
15.1931
15.079
14.9608
14.839
14.7141
14.5863
14.4561
14.324
14.1903
14.0556
13.9203
13.7849
13.6495
13.5143
13.3796
13.2458
13.1133
12.9824
12.8537
12.7275
12.6043
12.4846
12.3689
12.2577
12.1513
12.0504
11.9552
11.8663
11.784
11.7088
11.6411
11.5812
11.5294
11.4862
11.4518
11.4265
11.4105
11.4042
11.4077
11.4212
11.445
11.4792
11.5239
11.5793
11.6455
11.7225
11.8106
11.9096
12.0198
12.141
12.2734
12.417
12.5718
12.7377
12.9148
13.103
13.3023
13.5127
13.734
13.9663
14.2094
14.4634
14.7281
15.0034
15.2894
15.5858
15.8927
16.2099
16.5375
16.8753
17.2232
17.5812
17.9493
18.3274
18.7155
19.1134
19.5213
19.9389
20.3665
20.8037
21.2508
21.7075
22.1739
22.6498
23.1352
23.6299
24.1339
24.6467
25.1683
25.6983
26.2362
26.7815
27.3336
27.8918
28.4552
29.0227
29.5931
30.165
30.7368
31.3066
31.8722
32.4314
32.9814
33.5194
34.042
34.5458
35.0269
35.4812
35.9043
36.2917
36.6385
36.9397
37.1903
37.3852
37.5194
37.5882
37.5873
37.5123
37.3587
37.1227
36.8007
36.3901
35.8887
35.2956
34.6104
33.8338
32.9675
32.0142
30.9772
29.8612
28.6713
27.4138
26.0954
24.7237
23.307
21.8546
20.3766
18.8844
17.3912
15.9131
14.4698
13.0872
11.801
10.6661
9.78129
9.38871
10.4615
21.0876
11.3125
5.44428
4.78615
4.91045
5.26165
5.70768
6.20096
6.71868
7.24772
7.77968
8.30875
8.83068
9.34229
9.84113
10.3253
10.7931
11.2435
11.6755
12.0882
12.481
12.8535
13.2055
13.537
13.848
14.139
14.4093
14.6586
14.8867
15.0934
15.2789
15.4433
15.587
15.7106
15.8146
15.8998
15.9669
16.0168
16.0503
16.0684
16.072
16.0621
16.0396
16.0053
15.9602
15.905
15.8408
15.7681
15.6878
15.6004
15.5067
15.4071
15.3022
15.1925
15.0783
14.9602
14.8384
14.7134
14.5857
14.4555
14.3233
14.1897
14.055
13.9197
13.7843
13.6489
13.5138
13.3791
13.2453
13.1128
12.9819
12.8532
12.727
12.6039
12.4842
12.3686
12.2573
12.151
12.0501
11.9549
11.866
11.7838
11.7086
11.6409
11.581
11.5293
11.4861
11.4517
11.4264
11.4104
11.4041
11.4077
11.4212
11.445
11.4792
11.5239
11.5793
11.6455
11.7226
11.8106
11.9097
12.0199
12.1412
12.2736
12.4172
12.572
12.7379
12.915
13.1033
13.3026
13.5129
13.7343
13.9665
14.2097
14.4637
14.7284
15.0037
15.2897
15.5861
15.893
16.2103
16.5378
16.8756
17.2235
17.5816
17.9497
18.3278
18.7158
19.1138
19.5216
19.9393
20.3669
20.8041
21.2512
21.7079
22.1743
22.6502
23.1356
23.6304
24.1343
24.6472
25.1688
25.6987
26.2366
26.782
27.3341
27.8923
28.4557
29.0232
29.5936
30.1655
30.7373
31.3071
31.8728
32.432
32.982
33.5199
34.0426
34.5464
35.0275
35.4818
35.9049
36.2923
36.639
36.9402
37.1908
37.3857
37.5199
37.5887
37.5878
37.5127
37.3591
37.1231
36.8011
36.3904
35.8891
35.2959
34.6106
33.834
32.9677
32.0143
30.9774
29.8613
28.6714
27.4138
26.0954
24.7237
23.307
21.8546
20.3766
18.8843
17.3912
15.913
14.4697
13.0871
11.8009
10.666
9.78121
9.38862
10.4613
21.0875
14.1818
6.65851
5.6348
5.59272
5.83819
6.20712
6.63909
7.10534
7.5896
8.08163
8.57441
9.06293
9.5435
10.0133
10.4703
10.9128
11.3395
11.7496
12.1423
12.517
12.8734
13.2112
13.5303
13.8308
14.1126
14.3754
14.6188
14.8424
15.046
15.2296
15.3932
15.5368
15.6609
15.7657
15.8518
15.9197
15.9701
16.0038
16.0216
16.0243
16.0129
15.9882
15.9512
15.9027
15.8437
15.7751
15.6975
15.612
15.5191
15.4197
15.3144
15.2038
15.0885
14.9689
14.8455
14.7189
14.5893
14.4574
14.3234
14.1879
14.0511
13.9137
13.776
13.6383
13.501
13.3641
13.2281
13.0933
12.96
12.8285
12.6993
12.5729
12.4496
12.3298
12.2141
12.1028
11.9965
11.8955
11.8003
11.7112
11.6288
11.5534
11.4854
11.4251
11.373
11.3292
11.2943
11.2683
11.2517
11.2446
11.2474
11.2601
11.283
11.3163
11.3602
11.4147
11.48
11.5563
11.6436
11.742
11.8515
11.9723
12.1043
12.2477
12.4023
12.5683
12.7456
12.9342
13.1341
13.3452
13.5676
13.8011
14.0457
14.3014
14.568
14.8456
15.134
15.4332
15.743
16.0636
16.3946
16.7362
17.0882
17.4505
17.8232
18.2061
18.5992
19.0024
19.4157
19.8391
20.2725
20.7158
21.1691
21.6322
22.1051
22.5877
23.0799
23.5815
24.0923
24.6122
25.1408
25.6777
26.2226
26.775
27.3341
27.8992
28.4694
29.0436
29.6207
30.1991
30.7773
31.3533
31.9251
32.4902
33.0461
33.5898
34.1181
34.6276
35.1144
35.5746
36.0038
36.3977
36.7514
37.0603
37.3194
37.524
37.6691
37.7504
37.7634
37.7039
37.5681
37.3523
37.0536
36.6694
36.1982
35.6389
34.9914
34.2564
33.4353
32.5304
31.5448
30.4824
29.3475
28.1455
26.8822
25.5643
24.1993
22.7955
21.3627
19.9126
18.459
17.0197
15.6172
14.2816
13.0561
12.0079
11.2636
11.1399
12.9137
27.1365
14.1818
6.65838
5.63466
5.59257
5.83805
6.20698
6.63895
7.1052
7.58946
8.08148
8.57425
9.06276
9.54332
10.0131
10.4701
10.9125
11.3393
11.7493
12.142
12.5167
12.873
13.2108
13.53
13.8304
14.1122
14.375
14.6183
14.8419
15.0456
15.2291
15.3927
15.5363
15.6604
15.7652
15.8512
15.9191
15.9695
16.0032
16.021
16.0237
16.0123
15.9876
15.9506
15.9021
15.8431
15.7744
15.6969
15.6113
15.5185
15.4191
15.3138
15.2032
15.0878
14.9682
14.8449
14.7182
14.5887
14.4568
14.3228
14.1873
14.0505
13.9131
13.7754
13.6378
13.5004
13.3636
13.2277
13.0928
12.9595
12.8281
12.6989
12.5725
12.4492
12.3294
12.2137
12.1025
11.9962
11.8952
11.8
11.711
11.6286
11.5532
11.4852
11.4249
11.3728
11.3291
11.2941
11.2682
11.2516
11.2446
11.2473
11.26
11.283
11.3163
11.3602
11.4147
11.4801
11.5563
11.6436
11.742
11.8516
11.9724
12.1044
12.2478
12.4025
12.5685
12.7458
12.9344
13.1343
13.3454
13.5678
13.8013
14.0459
14.3016
14.5682
14.8458
15.1342
15.4334
15.7433
16.0638
16.3949
16.7365
17.0885
17.4508
17.8235
18.2064
18.5995
19.0027
19.416
19.8394
20.2728
20.7162
21.1695
21.6326
22.1055
22.5881
23.0802
23.5818
24.0927
24.6125
25.1411
25.6781
26.223
26.7754
27.3345
27.8996
28.4698
29.0441
29.6211
30.1996
30.7778
31.3538
31.9256
32.4907
33.0466
33.5903
34.1186
34.6281
35.1149
35.5751
36.0043
36.3981
36.7519
37.0607
37.3199
37.5244
37.6696
37.7508
37.7638
37.7043
37.5684
37.3526
37.0538
36.6697
36.1984
35.6391
34.9916
34.2565
33.4354
32.5305
31.5449
30.4824
29.3475
28.1455
26.8822
25.5643
24.1992
22.7954
21.3626
19.9124
18.4589
17.0196
15.617
14.2815
13.0559
12.0078
11.2635
11.1398
12.9135
27.1365
17.1469
7.93714
6.55515
6.36024
6.51621
6.82406
7.21046
7.64061
8.09505
8.56157
9.032
9.50052
9.96293
10.4161
10.8578
11.2863
11.7003
12.0989
12.4815
12.8477
13.197
13.5293
13.8446
14.1426
14.4233
14.6864
14.9314
15.1578
15.3653
15.5536
15.7226
15.8721
16.0023
16.1132
16.2051
16.2784
16.3336
16.3713
16.3922
16.397
16.3867
16.362
16.324
16.2735
16.2115
16.1389
16.0567
15.9657
15.8667
15.7607
15.6483
15.5304
15.4075
15.2803
15.1492
15.015
14.878
14.7387
14.5976
14.4551
14.3116
14.1677
14.0237
13.8799
13.7367
13.5942
13.4528
13.3127
13.1743
13.0379
12.904
12.7729
12.6451
12.5209
12.4008
12.2851
12.1745
12.0692
11.9696
11.8763
11.7896
11.7099
11.6376
11.5731
11.5167
11.4688
11.4296
11.3995
11.3787
11.3675
11.3661
11.3748
11.3938
11.4232
11.4633
11.5141
11.5759
11.6488
11.7328
11.828
11.9346
12.0526
12.1821
12.3231
12.4755
12.6396
12.8152
13.0023
13.201
13.4112
13.6328
13.8659
14.1104
14.3662
14.6333
14.9117
15.2012
15.5017
15.8133
16.1358
16.4692
16.8134
17.1684
17.534
17.9102
18.297
18.6942
19.1019
19.5199
19.9483
20.3869
20.8358
21.2947
21.7638
22.2428
22.7317
23.2304
23.7386
24.2562
24.7829
25.3184
25.8624
26.4143
26.9737
27.5398
28.1119
28.689
29.27
29.8537
30.4386
31.0231
31.6052
32.1829
32.7538
33.3151
33.8641
34.3976
34.9121
35.4039
35.869
36.3034
36.7027
37.0624
37.3778
37.6444
37.8574
38.0124
38.1051
38.1313
38.0871
37.969
37.7738
37.4989
37.1422
36.7023
36.1783
35.5702
34.8784
34.1043
33.2498
32.3172
31.3097
30.2309
29.085
27.8767
26.6117
25.2963
23.9381
22.5463
21.1325
19.711
18.3009
16.9271
15.624
14.4413
13.4595
12.8329
12.9555
15.4201
33.1847
17.147
7.93698
6.55499
6.36008
6.51605
6.8239
7.21031
7.64045
8.09488
8.5614
9.03181
9.50031
9.96271
10.4159
10.8575
11.286
11.7
12.0986
12.4812
12.8473
13.1966
13.5289
13.8441
14.1421
14.4228
14.6859
14.9308
15.1572
15.3647
15.553
15.722
15.8715
16.0017
16.1125
16.2044
16.2777
16.3329
16.3706
16.3915
16.3963
16.386
16.3613
16.3233
16.2728
16.2108
16.1382
16.056
15.9649
15.866
15.76
15.6476
15.5297
15.4068
15.2796
15.1486
15.0143
14.8773
14.738
14.5969
14.4544
14.311
14.1671
14.0231
13.8794
13.7361
13.5937
13.4522
13.3122
13.1738
13.0375
12.9036
12.7725
12.6447
12.5205
12.4004
12.2848
12.1741
12.0688
11.9693
11.876
11.7893
11.7097
11.6374
11.5729
11.5165
11.4686
11.4294
11.3993
11.3785
11.3673
11.366
11.3747
11.3937
11.4231
11.4632
11.5141
11.5759
11.6488
11.7328
11.828
11.9347
12.0527
12.1821
12.3231
12.4756
12.6397
12.8153
13.0024
13.2011
13.4113
13.6329
13.8661
14.1106
14.3664
14.6335
14.9118
15.2013
15.5019
15.8135
16.136
16.4695
16.8137
17.1686
17.5342
17.9104
18.2972
18.6944
19.1021
19.5202
19.9485
20.3872
20.836
21.295
21.7641
22.2431
22.732
23.2307
23.7389
24.2565
24.7832
25.3187
25.8627
26.4147
26.974
27.5401
28.1122
28.6893
29.2703
29.8541
30.439
31.0235
31.6056
32.1833
32.7541
33.3155
33.8645
34.398
34.9124
35.4042
35.8694
36.3038
36.7031
37.0627
37.3782
37.6447
37.8577
38.0128
38.1054
38.1316
38.0873
37.9692
37.774
37.4991
37.1423
36.7024
36.1784
35.5702
34.8784
34.1043
33.2498
32.3172
31.3097
30.2308
29.0849
27.8766
26.6116
25.2961
23.9379
22.5462
21.1323
19.7109
18.3007
16.9269
15.6238
14.4411
13.4593
12.8327
12.9553
15.4197
33.1847
20.2122
9.28338
7.54672
7.2052
7.28067
7.5371
7.88764
8.29128
8.72525
9.17543
9.63241
10.0896
10.5423
10.9871
11.4215
11.8438
12.2526
12.6472
13.027
13.3915
13.7406
14.0741
14.3918
14.6938
14.9797
15.2493
15.5018
15.7368
15.9538
16.1523
16.332
16.4924
16.6334
16.7548
16.8568
16.9395
17.0031
17.0482
17.0753
17.085
17.0782
17.0556
17.0183
16.9671
16.9032
16.8274
16.7408
16.6444
16.5391
16.4259
16.3056
16.1792
16.0474
15.9108
15.7703
15.6263
15.4794
15.3303
15.1793
15.027
14.8739
14.7204
14.5669
14.4137
14.2612
14.1096
13.9592
13.8102
13.663
13.518
13.3756
13.236
13.0997
12.9672
12.8387
12.7148
12.5958
12.4823
12.3745
12.273
12.1782
12.0904
12.01
11.9375
11.8731
11.8171
11.77
11.7321
11.7035
11.6846
11.6757
11.6769
11.6886
11.7108
11.7438
11.7877
11.8428
11.909
11.9867
12.0757
12.1763
12.2886
12.4125
12.5481
12.6955
12.8547
13.0257
13.2086
13.4032
13.6096
13.8278
14.0577
14.2992
14.5525
14.8173
15.0936
15.3814
15.6806
15.9912
16.313
16.646
16.9901
17.3453
17.7114
18.0885
18.4765
18.8752
19.2847
19.7048
20.1355
20.5768
21.0285
21.4906
21.9631
22.4457
22.9384
23.441
23.9534
24.4752
25.0063
25.5464
26.0949
26.6514
27.2153
27.786
28.3625
28.944
29.5294
30.1172
30.7061
31.2944
31.8802
32.4613
33.0353
33.5997
34.1515
34.6877
35.2048
35.6993
36.1673
36.6049
37.0077
37.3716
37.6922
37.965
38.1858
38.3503
38.4544
38.4944
38.4667
38.3682
38.1962
37.9484
37.623
37.2189
36.7353
36.1721
35.5297
34.8091
34.0116
33.139
32.1936
31.1778
30.0947
28.9479
27.7417
26.4813
25.1733
23.8261
22.4509
21.0625
19.6807
18.3328
17.0566
15.9088
14.9825
14.4594
14.8084
17.9207
39.1448
20.2122
9.2832
7.54653
7.20502
7.28049
7.53692
7.88745
8.29109
8.72504
9.17521
9.63217
10.0893
10.542
10.9868
11.4212
11.8434
12.2522
12.6468
13.0265
13.391
13.7401
14.0736
14.3913
14.6932
14.9791
15.2486
15.5012
15.7362
15.9532
16.1517
16.3313
16.4917
16.6326
16.7541
16.8561
16.9387
17.0024
17.0474
17.0745
17.0842
17.0774
17.0548
17.0175
16.9663
16.9024
16.8266
16.74
16.6436
16.5383
16.4251
16.3049
16.1785
16.0466
15.9101
15.7695
15.6255
15.4787
15.3296
15.1786
15.0264
14.8733
14.7197
14.5662
14.4131
14.2606
14.109
13.9586
13.8096
13.6625
13.5175
13.3751
13.2355
13.0993
12.9667
12.8383
12.7144
12.5954
12.4819
12.3742
12.2727
12.1779
12.0901
12.0097
11.9372
11.8728
11.8169
11.7698
11.7319
11.7033
11.6845
11.6755
11.6768
11.6884
11.7107
11.7437
11.7877
11.8427
11.909
11.9866
12.0757
12.1763
12.2885
12.4125
12.5481
12.6955
12.8547
13.0258
13.2086
13.4032
13.6096
13.8278
14.0577
14.2993
14.5526
14.8174
15.0937
15.3815
15.6807
15.9913
16.3131
16.6461
16.9902
17.3454
17.7116
18.0887
18.4766
18.8754
19.2848
19.705
20.1357
20.577
21.0287
21.4908
21.9633
22.4459
22.9386
23.4412
23.9536
24.4754
25.0066
25.5466
26.0951
26.6516
27.2155
27.7862
28.3628
28.9443
29.5296
30.1175
30.7064
31.2947
31.8804
32.4615
33.0356
33.5999
34.1518
34.688
35.2051
35.6996
36.1676
36.6051
37.008
37.3719
37.6924
37.9653
38.186
38.3505
38.4546
38.4945
38.4668
38.3683
38.1963
37.9485
37.6231
37.2189
36.7353
36.172
35.5297
34.809
34.0115
33.1389
32.1934
31.1776
30.0945
28.9478
27.7416
26.4811
25.1731
23.8259
22.4507
21.0623
19.6805
18.3325
17.0563
15.9086
14.9822
14.4592
14.8081
17.9203
39.1448
23.4248
10.7104
8.61046
8.12567
8.12594
8.33708
8.65824
9.04196
9.46208
9.90249
10.3526
10.8049
11.2544
11.6971
12.1306
12.553
12.9629
13.3597
13.7427
14.1117
14.4666
14.8071
15.1332
15.4448
15.7416
16.0232
16.2888
16.5377
16.7694
16.983
17.1781
17.3539
17.5101
17.6463
17.7623
17.858
17.9335
17.9891
18.0252
18.0424
18.0413
18.0229
17.9879
17.9375
17.8726
17.7943
17.7038
17.6021
17.4904
17.3695
17.2407
17.1048
16.9628
16.8155
16.6637
16.508
16.3493
16.1879
16.0247
15.86
15.6943
15.5283
15.3623
15.1966
15.0316
14.8675
14.7047
14.5433
14.3838
14.2265
14.0718
13.9199
13.7714
13.6267
13.486
13.3498
13.2187
13.093
12.9731
12.8595
12.7525
12.6527
12.5603
12.4757
12.3994
12.3317
12.2728
12.2231
12.183
12.1527
12.1324
12.1225
12.123
12.1344
12.1567
12.1901
12.2348
12.2909
12.3586
12.438
12.5291
12.632
12.7469
12.8738
13.0127
13.1636
13.3266
13.5016
13.6887
13.8879
14.0992
14.3224
14.5576
14.8048
15.0638
15.3347
15.6173
15.9116
16.2176
16.5351
16.8642
17.2047
17.5565
17.9196
18.294
18.6795
19.0761
19.4838
19.9023
20.3318
20.7721
21.2231
21.6847
22.1568
22.6394
23.1322
23.6352
24.148
24.6705
25.2023
25.7431
26.2924
26.8498
27.4146
27.9861
28.5635
29.1457
29.7316
30.3199
30.9091
31.4975
32.0832
32.6641
33.2378
33.8017
34.353
34.8886
35.4053
35.8996
36.3677
36.8059
37.2102
37.5765
37.9007
38.1788
38.4068
38.5808
38.697
38.7521
38.743
38.667
38.5218
38.3055
38.0166
37.6541
37.2174
36.7064
36.1212
35.4624
34.7307
33.9272
33.053
32.1097
31.099
30.0231
28.8848
27.6882
26.4385
25.1434
23.8134
22.4634
21.114
19.7939
18.5449
17.4297
16.5538
16.126
16.6883
20.4263
45.0673
23.4249
10.7102
8.61025
8.12546
8.12573
8.33687
8.65801
9.04172
9.46182
9.90222
10.3523
10.8046
11.254
11.6968
12.1302
12.5525
12.9625
13.3592
13.7422
14.1112
14.466
14.8065
15.1325
15.4441
15.7409
16.0224
16.288
16.537
16.7686
16.9822
17.1773
17.3531
17.5093
17.6455
17.7614
17.8571
17.9326
17.9882
18.0243
18.0415
18.0404
18.022
17.987
17.9366
17.8717
17.7934
17.7029
17.6013
17.4895
17.3687
17.2398
17.104
16.962
16.8147
16.6629
16.5072
16.3485
16.1872
16.0239
15.8592
15.6936
15.5276
15.3616
15.1959
15.0309
14.8669
14.704
14.5427
14.3832
14.2259
14.0712
13.9194
13.7709
13.6261
13.4855
13.3494
13.2182
13.0925
12.9727
12.8591
12.7521
12.6523
12.5599
12.4754
12.3991
12.3314
12.2725
12.2229
12.1828
12.1524
12.1322
12.1222
12.1228
12.1342
12.1565
12.1899
12.2346
12.2908
12.3585
12.4378
12.529
12.632
12.7468
12.8737
13.0126
13.1635
13.3265
13.5016
13.6887
13.8879
14.0992
14.3224
14.5576
14.8048
15.0638
15.3347
15.6173
15.9117
16.2176
16.5352
16.8642
17.2047
17.5566
17.9197
18.2941
18.6796
19.0762
19.4838
19.9024
20.3319
20.7722
21.2232
21.6848
22.1569
22.6395
23.1324
23.6353
24.1481
24.6706
25.2024
25.7432
26.2926
26.85
27.4148
27.9863
28.5636
29.1458
29.7317
30.32
30.9093
31.4977
32.0834
32.6643
33.2379
33.8018
34.3531
34.8888
35.4055
35.8997
36.3679
36.8061
37.2103
37.5766
37.9009
38.179
38.4069
38.5808
38.6971
38.7521
38.743
38.667
38.5218
38.3054
38.0165
37.654
37.2173
36.7063
36.1211
35.4622
34.7305
33.927
33.0528
32.1095
31.0988
30.0228
28.8846
27.6879
26.4382
25.1431
23.8131
22.4631
21.1136
19.7936
18.5446
17.4294
16.5534
16.1257
16.6879
20.4258
45.0673
26.8293
12.2333
9.7537
9.12405
9.05146
9.22118
9.51752
9.88627
10.2977
10.7337
11.1823
11.6353
12.0872
12.5337
12.972
13.4003
13.8173
14.2221
14.6144
14.9938
15.3603
15.7137
16.054
16.381
16.6944
16.9936
17.2776
17.5458
17.7972
18.031
18.2461
18.4419
18.6176
18.7726
18.9063
19.0186
19.1092
19.1783
19.2262
19.2532
19.2601
19.2476
19.2165
19.168
19.1032
19.0231
18.929
18.8221
18.7036
18.5747
18.4365
18.2902
18.1368
17.9772
17.8124
17.6432
17.4704
17.2946
17.1165
16.9367
16.7558
16.5742
16.3926
16.2113
16.0305
15.8505
15.6717
15.4944
15.3189
15.1455
14.9746
14.8067
14.642
14.481
14.324
14.1716
14.0242
13.8822
13.7461
13.6162
13.493
13.3769
13.2683
13.1677
13.0753
12.9915
12.9168
12.8513
12.7955
12.7496
12.714
12.6888
12.6744
12.6708
12.6785
12.6974
12.7278
12.7699
12.8238
12.8896
12.9673
13.0572
13.1592
13.2735
13.4
13.5388
13.69
13.8534
14.0293
14.2174
14.4179
14.6306
14.8556
15.0928