/*--------------------------------*- C++ -*----------------------------------*\
  =========                 |
  \\      /  F ield         | OpenFOAM: The Open Source CFD Toolbox
   \\    /   O peration     | Website:  https://openfoam.org
    \\  /    A nd           | Version:  8
     \\/     M anipulation  |
\*---------------------------------------------------------------------------*/
FoamFile
{
    version     2.0;
    format      ascii;
    class       volScalarField;
    location    "1500";
    object      k;
}
// * * * * * * * * * * * * * * * * * * * * * * * * * * * * * * * * * * * * * //

dimensions      [0 2 -2 0 0 0 0];

internalField   nonuniform List<scalar> 
46000
(
0.000396469
0.00193005
0.00415549
0.00649866
0.00885027
0.0111951
0.0135448
0.0158603
0.018113
0.0202968
0.0223985
0.024415
0.0263485
0.0281811
0.0299188
0.0315613
0.0331082
0.0345599
0.0359174
0.0371825
0.0383571
0.0394435
0.0404447
0.0413736
0.0422588
0.0430726
0.0438152
0.0444898
0.0450998
0.0456485
0.0461393
0.0465753
0.0469597
0.0472954
0.0475854
0.0478331
0.0480391
0.0482069
0.0483387
0.0484362
0.0485014
0.0485361
0.0485419
0.0485204
0.0484729
0.0484007
0.0483051
0.048187
0.0480474
0.0478872
0.0477073
0.0475085
0.0472917
0.0470575
0.0468068
0.0465405
0.0462593
0.0459642
0.045656
0.0453356
0.0450041
0.0446635
0.0443245
0.043984
0.0436372
0.0432848
0.0429282
0.0425687
0.0422078
0.041847
0.0414879
0.0411319
0.0407806
0.0404353
0.0400978
0.0397693
0.0394513
0.0391451
0.0388522
0.0385737
0.0383108
0.0380646
0.0378363
0.0376267
0.0374368
0.0372673
0.0371191
0.0369928
0.036889
0.0368081
0.0367508
0.0367172
0.0367076
0.0367223
0.0367615
0.0368252
0.0369135
0.0370264
0.0371639
0.0373258
0.0375123
0.0377223
0.0379563
0.0382139
0.038495
0.0387993
0.0391265
0.0394763
0.0398485
0.0402427
0.0406586
0.041096
0.0415545
0.042034
0.0425341
0.0430546
0.0435954
0.0441561
0.0447367
0.045337
0.0459569
0.0465962
0.047255
0.0479331
0.0486306
0.0493474
0.0500835
0.0508391
0.0516141
0.0524086
0.0532225
0.0540561
0.0549091
0.0557817
0.0566738
0.0575852
0.0585157
0.059465
0.0604327
0.0614183
0.062421
0.0634399
0.0644741
0.065522
0.066582
0.0676523
0.0687305
0.069814
0.0708996
0.0719839
0.0730628
0.0741317
0.0751855
0.0762186
0.0772246
0.0781966
0.079127
0.0800077
0.0808298
0.0815841
0.0822606
0.082849
0.0833383
0.0837176
0.0839756
0.0841009
0.0840824
0.08391
0.0835777
0.0831079
0.0824633
0.08163
0.0806005
0.0793694
0.0779335
0.0762912
0.0744426
0.0723904
0.0701391
0.0676956
0.0650691
0.0622711
0.0593152
0.0562171
0.0529941
0.0496653
0.0462508
0.0427714
0.0392482
0.0357014
0.0321477
0.0285819
0.0250395
0.0215335
0.0180139
0.0144731
0.0109499
0.0073331
0.00359376
0.000748646
0.000396467
0.00193007
0.00415553
0.0064987
0.00885032
0.0111951
0.0135448
0.0158603
0.018113
0.0202968
0.0223985
0.024415
0.0263485
0.0281811
0.0299188
0.0315613
0.0331081
0.0345598
0.0359174
0.0371825
0.0383571
0.0394435
0.0404446
0.0413736
0.0422587
0.0430726
0.0438152
0.0444898
0.0450998
0.0456485
0.0461393
0.0465753
0.0469597
0.0472954
0.0475855
0.0478332
0.0480392
0.048207
0.0483389
0.0484364
0.0485016
0.0485363
0.0485421
0.0485206
0.0484732
0.048401
0.0483054
0.0481873
0.0480477
0.0478876
0.0477077
0.0475089
0.0472921
0.0470579
0.0468072
0.0465409
0.0462597
0.0459646
0.0456564
0.045336
0.0450045
0.0446639
0.0443249
0.0439844
0.0436376
0.0432852
0.0429285
0.042569
0.0422081
0.0418473
0.0414882
0.0411321
0.0407808
0.0404355
0.0400979
0.0397694
0.0394514
0.0391452
0.0388522
0.0385737
0.0383108
0.0380646
0.0378362
0.0376266
0.0374367
0.0372672
0.037119
0.0369927
0.0368888
0.0368079
0.0367505
0.0367169
0.0367073
0.036722
0.0367612
0.0368249
0.0369132
0.0370261
0.0371635
0.0373254
0.0375118
0.0377219
0.0379558
0.0382134
0.0384945
0.0387988
0.039126
0.0394758
0.0398479
0.0402421
0.040658
0.0410954
0.0415539
0.0420334
0.0425335
0.043054
0.0435947
0.0441555
0.0447361
0.0453363
0.0459562
0.0465955
0.0472543
0.0479324
0.0486299
0.0493467
0.0500828
0.0508384
0.0516134
0.0524078
0.0532218
0.0540553
0.0549084
0.055781
0.0566731
0.0575844
0.0585149
0.0594642
0.060432
0.0614175
0.0624202
0.0634392
0.0644733
0.0655212
0.0665813
0.0676516
0.0687298
0.0698133
0.0708989
0.0719832
0.0730621
0.074131
0.0751849
0.076218
0.0772239
0.0781959
0.0791264
0.0800071
0.0808293
0.0815836
0.0822601
0.0828485
0.0833378
0.0837172
0.0839751
0.0841005
0.0840821
0.0839097
0.0835774
0.0831076
0.082463
0.0816298
0.0806003
0.0793693
0.0779335
0.0762911
0.0744426
0.0723904
0.0701392
0.0676957
0.0650693
0.0622713
0.0593154
0.0562173
0.0529943
0.0496655
0.046251
0.0427716
0.0392484
0.0357015
0.0321479
0.028582
0.0250397
0.0215336
0.018014
0.0144732
0.0109501
0.00733321
0.00359383
0.000748662
0.00196508
0.0127415
0.0228074
0.0314461
0.0392437
0.0464688
0.0532084
0.059524
0.0654703
0.0710922
0.0763854
0.0813732
0.0860736
0.090497
0.0946541
0.0985537
0.102204
0.105614
0.108791
0.111744
0.11448
0.117008
0.119337
0.121474
0.123439
0.125235
0.126869
0.128347
0.129679
0.130872
0.131935
0.132875
0.133699
0.134414
0.135029
0.135548
0.135977
0.136324
0.136591
0.136784
0.136906
0.136963
0.136957
0.136892
0.136772
0.1366
0.136377
0.136106
0.135789
0.135429
0.135026
0.134583
0.134102
0.133583
0.133028
0.132439
0.131818
0.131167
0.130487
0.12978
0.129049
0.128295
0.127523
0.126737
0.125938
0.125128
0.124309
0.123484
0.122657
0.121831
0.121008
0.120193
0.119388
0.118597
0.117823
0.117071
0.116341
0.115639
0.114967
0.114328
0.113725
0.113161
0.112638
0.112158
0.111724
0.111338
0.111001
0.110716
0.110484
0.110305
0.110182
0.110115
0.110104
0.110151
0.110256
0.110419
0.110639
0.110918
0.111254
0.111647
0.112097
0.112603
0.113165
0.113782
0.114453
0.115177
0.115953
0.116781
0.117659
0.118586
0.119562
0.120584
0.121653
0.122768
0.123926
0.125128
0.126373
0.127659
0.128986
0.130353
0.131759
0.133204
0.134687
0.136208
0.137766
0.13936
0.140991
0.142658
0.14436
0.146098
0.14787
0.149678
0.151519
0.153394
0.155302
0.157243
0.159215
0.161219
0.163252
0.165313
0.167401
0.169514
0.171649
0.173803
0.175973
0.178155
0.180345
0.182538
0.184727
0.186905
0.189067
0.191202
0.193302
0.195356
0.197354
0.199282
0.201127
0.202875
0.204509
0.206015
0.207373
0.208565
0.209573
0.210377
0.210955
0.211289
0.211358
0.211142
0.210625
0.209787
0.208605
0.207059
0.205135
0.202819
0.200099
0.196968
0.19342
0.189453
0.185066
0.180265
0.175057
0.169452
0.163465
0.157112
0.150412
0.143388
0.136061
0.128455
0.120592
0.112493
0.104169
0.0956263
0.0868508
0.0777862
0.0682916
0.0583011
0.0473717
0.0351804
0.0205265
0.00345266
0.00196508
0.0127416
0.0228075
0.0314461
0.0392436
0.0464687
0.0532083
0.0595238
0.0654702
0.071092
0.0763852
0.081373
0.0860733
0.0904968
0.0946538
0.0985533
0.102204
0.105614
0.108791
0.111744
0.11448
0.117008
0.119336
0.121473
0.123439
0.125235
0.126868
0.128346
0.129678
0.130872
0.131934
0.132874
0.133698
0.134414
0.135028
0.135547
0.135977
0.136323
0.13659
0.136783
0.136905
0.136962
0.136956
0.136891
0.136771
0.136599
0.136376
0.136105
0.135788
0.135428
0.135025
0.134582
0.134101
0.133582
0.133027
0.132438
0.131817
0.131166
0.130486
0.129779
0.129048
0.128294
0.127522
0.126736
0.125937
0.125127
0.124308
0.123483
0.122656
0.12183
0.121007
0.120192
0.119387
0.118596
0.117822
0.117069
0.11634
0.115638
0.114966
0.114327
0.113724
0.11316
0.112637
0.112157
0.111723
0.111337
0.111
0.110715
0.110482
0.110304
0.110181
0.110114
0.110103
0.11015
0.110255
0.110418
0.110638
0.110916
0.111252
0.111646
0.112096
0.112602
0.113164
0.113781
0.114452
0.115176
0.115952
0.11678
0.117658
0.118585
0.119561
0.120583
0.121653
0.122767
0.123925
0.125127
0.126372
0.127658
0.128985
0.130352
0.131758
0.133203
0.134686
0.136207
0.137765
0.139359
0.14099
0.142657
0.144359
0.146097
0.14787
0.149677
0.151518
0.153393
0.155301
0.157242
0.159215
0.161218
0.163251
0.165313
0.167401
0.169513
0.171648
0.173802
0.175972
0.178155
0.180345
0.182537
0.184726
0.186905
0.189066
0.191202
0.193302
0.195356
0.197353
0.199281
0.201127
0.202874
0.204509
0.206014
0.207372
0.208565
0.209573
0.210376
0.210955
0.211289
0.211358
0.211142
0.210625
0.209787
0.208605
0.20706
0.205136
0.202819
0.2001
0.196969
0.193421
0.189453
0.185067
0.180266
0.175058
0.169453
0.163465
0.157112
0.150413
0.143388
0.136062
0.128456
0.120593
0.112493
0.10417
0.0956268
0.0868513
0.0777867
0.068292
0.0583014
0.0473719
0.0351805
0.0205264
0.00345263
0.0042179
0.0228826
0.0368741
0.0481443
0.05816
0.0673802
0.0759669
0.0840371
0.0916353
0.0988097
0.105585
0.111982
0.118017
0.123705
0.129057
0.134084
0.138798
0.143208
0.147325
0.151159
0.154719
0.158017
0.161063
0.163868
0.166447
0.168808
0.170961
0.172913
0.174673
0.176252
0.177658
0.178899
0.179986
0.180927
0.18173
0.182403
0.182953
0.183389
0.183716
0.183941
0.18407
0.184109
0.184062
0.183934
0.183732
0.183458
0.183117
0.182713
0.182248
0.181726
0.18115
0.180522
0.179845
0.179121
0.178353
0.177543
0.176693
0.175806
0.174885
0.173932
0.172951
0.171944
0.170916
0.169871
0.16881
0.167738
0.166656
0.16557
0.164482
0.163396
0.162318
0.16125
0.160198
0.159164
0.158155
0.157174
0.156225
0.155311
0.154439
0.15361
0.152829
0.152099
0.151423
0.150806
0.150249
0.149755
0.149326
0.148966
0.148676
0.148457
0.148311
0.148239
0.148242
0.148322
0.148478
0.148711
0.14902
0.149407
0.149869
0.150408
0.151022
0.15171
0.152472
0.153307
0.154213
0.15519
0.156235
0.157349
0.158529
0.159773
0.161082
0.162452
0.163884
0.165374
0.166923
0.168528
0.170189
0.171904
0.173672
0.175491
0.177362
0.179283
0.181252
0.18327
0.185335
0.187447
0.189605
0.191808
0.194057
0.196349
0.198686
0.201066
0.203488
0.205952
0.208458
0.211004
0.213588
0.216211
0.21887
0.221563
0.224289
0.227044
0.229825
0.232629
0.235451
0.238287
0.241131
0.243976
0.246814
0.249638
0.252438
0.255203
0.257921
0.26058
0.263166
0.265662
0.268052
0.270319
0.272442
0.274401
0.276174
0.277738
0.279071
0.280146
0.28094
0.281426
0.281581
0.28138
0.2808
0.279814
0.278398
0.276528
0.274186
0.271354
0.268016
0.264163
0.259785
0.254878
0.24944
0.243474
0.236986
0.229986
0.222486
0.214503
0.206055
0.197163
0.187847
0.178131
0.168034
0.157574
0.146763
0.135603
0.124077
0.112139
0.0996874
0.0865477
0.0723003
0.0561811
0.035941
0.00738137
0.00421792
0.0228827
0.0368741
0.0481442
0.0581598
0.06738
0.0759666
0.0840368
0.091635
0.0988093
0.105585
0.111981
0.118017
0.123704
0.129056
0.134084
0.138798
0.143208
0.147324
0.151158
0.154718
0.158016
0.161062
0.163867
0.166446
0.168808
0.17096
0.172912
0.174672
0.176251
0.177656
0.178898
0.179985
0.180926
0.181729
0.182401
0.182952
0.183387
0.183714
0.18394
0.184069
0.184107
0.18406
0.183933
0.18373
0.183456
0.183115
0.182711
0.182246
0.181724
0.181148
0.18052
0.179843
0.179119
0.178351
0.177541
0.176691
0.175804
0.174883
0.17393
0.172949
0.171942
0.170914
0.169868
0.168808
0.167736
0.166654
0.165568
0.16448
0.163394
0.162316
0.161248
0.160196
0.159163
0.158153
0.157172
0.156223
0.15531
0.154437
0.153608
0.152827
0.152097
0.151422
0.150804
0.150247
0.149753
0.149325
0.148965
0.148674
0.148455
0.148309
0.148238
0.148241
0.148321
0.148477
0.14871
0.149019
0.149405
0.149868
0.150407
0.151021
0.151709
0.152471
0.153306
0.154212
0.155189
0.156234
0.157348
0.158528
0.159772
0.161081
0.162451
0.163883
0.165373
0.166922
0.168527
0.170188
0.171903
0.173671
0.175491
0.177361
0.179282
0.181251
0.183269
0.185334
0.187446
0.189604
0.191808
0.194056
0.196349
0.198685
0.201065
0.203487
0.205952
0.208457
0.211003
0.213588
0.216211
0.218869
0.221563
0.224288
0.227043
0.229825
0.232629
0.235451
0.238287
0.241131
0.243975
0.246814
0.249638
0.252437
0.255202
0.257921
0.26058
0.263165
0.265662
0.268052
0.270319
0.272442
0.274401
0.276174
0.277738
0.279071
0.280146
0.28094
0.281427
0.281581
0.28138
0.2808
0.279814
0.278398
0.276529
0.274187
0.271354
0.268017
0.264163
0.259785
0.254878
0.24944
0.243475
0.236987
0.229987
0.222487
0.214504
0.206056
0.197163
0.187848
0.178132
0.168035
0.157575
0.146764
0.135603
0.124078
0.112139
0.0996878
0.086548
0.0723005
0.0561812
0.0359409
0.00738131
0.00650417
0.0314929
0.0481968
0.0611577
0.0725501
0.0829901
0.0927281
0.101894
0.110553
0.118746
0.1265
0.133835
0.140767
0.147309
0.153473
0.159272
0.164718
0.169821
0.174593
0.179045
0.18319
0.187039
0.190603
0.193895
0.196928
0.199713
0.202258
0.204572
0.206664
0.208544
0.210221
0.211704
0.213002
0.214124
0.215079
0.215876
0.216523
0.217028
0.217399
0.217645
0.217771
0.217785
0.217693
0.217502
0.217218
0.216847
0.216393
0.215863
0.21526
0.21459
0.213855
0.213061
0.212209
0.211305
0.210351
0.20935
0.208305
0.20722
0.206099
0.204943
0.203758
0.202547
0.201314
0.200064
0.198799
0.197523
0.196239
0.194952
0.193666
0.192385
0.191114
0.189857
0.18862
0.187407
0.186223
0.185073
0.183961
0.182893
0.181873
0.180905
0.179994
0.179143
0.178356
0.177638
0.17699
0.176418
0.175923
0.175507
0.175175
0.174926
0.174764
0.174689
0.174702
0.174805
0.174998
0.175282
0.175656
0.176121
0.176675
0.17732
0.178053
0.178874
0.179782
0.180775
0.181853
0.183014
0.184257
0.185579
0.18698
0.188458
0.19001
0.191636
0.193333
0.1951
0.196936
0.198838
0.200805
0.202836
0.204929
0.207082
0.209296
0.211567
0.213896
0.216282
0.218722
0.221217
0.223765
0.226366
0.229019
0.231723
0.234478
0.237282
0.240136
0.243037
0.245986
0.248981
0.25202
0.255102
0.258225
0.261387
0.264586
0.267817
0.271078
0.274363
0.277669
0.280989
0.284316
0.287644
0.290962
0.294263
0.297534
0.300763
0.303938
0.307043
0.310062
0.312977
0.315769
0.318418
0.320901
0.323195
0.325276
0.327117
0.328693
0.329975
0.330935
0.331546
0.331779
0.331606
0.331003
0.329939
0.328387
0.326323
0.323725
0.320573
0.316852
0.312548
0.307651
0.302155
0.296057
0.289357
0.282061
0.274174
0.26571
0.256679
0.247099
0.236987
0.226362
0.215241
0.203642
0.191583
0.179074
0.166118
0.152706
0.1388
0.124314
0.109065
0.0926261
0.073925
0.049654
0.0116247
0.00650419
0.0314929
0.0481967
0.0611575
0.0725498
0.0829898
0.0927277
0.101893
0.110552
0.118746
0.1265
0.133835
0.140767
0.147308
0.153473
0.159272
0.164717
0.16982
0.174592
0.179045
0.183189
0.187038
0.190602
0.193894
0.196928
0.199712
0.202257
0.204571
0.206663
0.208543
0.21022
0.211703
0.213
0.214123
0.215078
0.215874
0.216521
0.217027
0.217398
0.217643
0.217769
0.217783
0.217692
0.217501
0.217216
0.216845
0.216391
0.215861
0.215258
0.214588
0.213853
0.213059
0.212207
0.211303
0.210349
0.209348
0.208303
0.207218
0.206097
0.204941
0.203756
0.202545
0.201312
0.200062
0.198797
0.197521
0.196237
0.19495
0.193664
0.192383
0.191112
0.189855
0.188618
0.187405
0.186221
0.185071
0.18396
0.182892
0.181871
0.180903
0.179992
0.179141
0.178355
0.177636
0.176989
0.176417
0.175921
0.175506
0.175173
0.174925
0.174762
0.174687
0.174701
0.174804
0.174997
0.175281
0.175655
0.17612
0.176674
0.177319
0.178052
0.178873
0.179781
0.180774
0.181853
0.183014
0.184256
0.185579
0.18698
0.188457
0.19001
0.191635
0.193333
0.1951
0.196935
0.198837
0.200804
0.202835
0.204928
0.207082
0.209295
0.211567
0.213896
0.216281
0.218721
0.221216
0.223764
0.226365
0.229018
0.231723
0.234477
0.237282
0.240135
0.243037
0.245986
0.24898
0.25202
0.255102
0.258225
0.261387
0.264585
0.267817
0.271077
0.274363
0.277669
0.280989
0.284316
0.287644
0.290962
0.294263
0.297534
0.300763
0.303938
0.307043
0.310062
0.312977
0.315769
0.318418
0.320901
0.323195
0.325276
0.327118
0.328693
0.329975
0.330936
0.331546
0.331779
0.331607
0.331004
0.329939
0.328387
0.326323
0.323725
0.320574
0.316853
0.312549
0.307652
0.302156
0.296058
0.289358
0.282061
0.274175
0.26571
0.25668
0.2471
0.236988
0.226362
0.215241
0.203643
0.191584
0.179074
0.166119
0.152706
0.1388
0.124315
0.109065
0.0926262
0.073925
0.049654
0.0116247
0.00874498
0.0392386
0.0583334
0.0727533
0.085262
0.0966772
0.107326
0.117359
0.12685
0.135845
0.14437
0.152445
0.160084
0.167301
0.17411
0.180522
0.18655
0.192208
0.197508
0.202462
0.207084
0.211386
0.215382
0.219083
0.222503
0.225653
0.22854
0.231174
0.233564
0.235719
0.237646
0.239355
0.240854
0.242152
0.243258
0.244179
0.244925
0.245505
0.245926
0.246197
0.246326
0.246322
0.246191
0.245943
0.245583
0.245119
0.244558
0.243907
0.243171
0.242356
0.241469
0.240513
0.239494
0.238416
0.237284
0.236101
0.234871
0.2336
0.23229
0.230946
0.229571
0.228171
0.22675
0.225313
0.223862
0.222401
0.220935
0.219468
0.218004
0.216548
0.215105
0.213681
0.21228
0.210907
0.209568
0.208268
0.207012
0.205805
0.204653
0.203559
0.202529
0.201568
0.200678
0.199865
0.199132
0.198483
0.197921
0.197448
0.197068
0.196782
0.196593
0.196502
0.19651
0.196618
0.196828
0.197138
0.197551
0.198065
0.19868
0.199396
0.200211
0.201126
0.202138
0.203246
0.204449
0.205746
0.207134
0.208613
0.210179
0.211832
0.213569
0.215388
0.217289
0.219267
0.221323
0.223453
0.225657
0.227932
0.230278
0.232691
0.235172
0.237718
0.240328
0.243001
0.245736
0.248532
0.251388
0.254303
0.257275
0.260305
0.263391
0.266533
0.269729
0.272978
0.276279
0.279631
0.283032
0.28648
0.289973
0.293509
0.297084
0.300695
0.304338
0.308007
0.311697
0.315403
0.319115
0.322826
0.326525
0.330203
0.333848
0.337445
0.34098
0.344436
0.347796
0.35104
0.354148
0.357096
0.359862
0.362419
0.364741
0.366801
0.368569
0.370016
0.371112
0.371827
0.372132
0.371996
0.371392
0.370289
0.368658
0.366477
0.36372
0.360369
0.356406
0.351816
0.346588
0.340715
0.334192
0.327018
0.319194
0.310724
0.301617
0.291879
0.281524
0.270562
0.259007
0.246872
0.234171
0.220918
0.207121
0.192787
0.17791
0.162458
0.146349
0.129384
0.111084
0.0901795
0.0624711
0.0161263
0.008745
0.0392386
0.0583332
0.072753
0.0852617
0.0966768
0.107326
0.117358
0.12685
0.135845
0.14437
0.152444
0.160083
0.167301
0.174109
0.180521
0.18655
0.192207
0.197507
0.202461
0.207083
0.211385
0.215381
0.219082
0.222503
0.225652
0.228539
0.231174
0.233563
0.235718
0.237645
0.239354
0.240853
0.242151
0.243257
0.244178
0.244924
0.245503
0.245924
0.246195
0.246325
0.24632
0.24619
0.245941
0.245581
0.245117
0.244556
0.243905
0.243169
0.242355
0.241467
0.240511
0.239492
0.238414
0.237282
0.236099
0.234869
0.233598
0.232288
0.230944
0.229569
0.22817
0.226748
0.225311
0.22386
0.222399
0.220933
0.219466
0.218002
0.216546
0.215104
0.213679
0.212278
0.210905
0.209566
0.208266
0.207011
0.205804
0.204651
0.203558
0.202528
0.201566
0.200677
0.199864
0.199131
0.198482
0.19792
0.197447
0.197067
0.196781
0.196592
0.196501
0.196509
0.196617
0.196827
0.197138
0.19755
0.198064
0.198679
0.199395
0.200211
0.201125
0.202137
0.203245
0.204449
0.205745
0.207134
0.208612
0.210179
0.211831
0.213568
0.215388
0.217288
0.219267
0.221322
0.223453
0.225657
0.227932
0.230277
0.232691
0.235171
0.237717
0.240328
0.243001
0.245736
0.248532
0.251388
0.254303
0.257275
0.260305
0.263391
0.266533
0.269728
0.272978
0.276279
0.279631
0.283032
0.28648
0.289973
0.293509
0.297084
0.300695
0.304338
0.308007
0.311697
0.315403
0.319115
0.322826
0.326525
0.330204
0.333848
0.337445
0.34098
0.344436
0.347796
0.35104
0.354148
0.357096
0.359862
0.362419
0.364741
0.366801
0.368569
0.370016
0.371113
0.371828
0.372132
0.371996
0.371392
0.370289
0.368659
0.366477
0.363721
0.36037
0.356406
0.351816
0.346589
0.340716
0.334193
0.327018
0.319194
0.310725
0.301617
0.29188
0.281524
0.270562
0.259007
0.246873
0.234172
0.220918
0.207122
0.192788
0.17791
0.162458
0.146349
0.129384
0.111084
0.0901795
0.062471
0.0161262
0.0109922
0.0465321
0.0678655
0.0836854
0.0972472
0.109566
0.121036
0.131837
0.142059
0.15175
0.160942
0.169653
0.177901
0.185699
0.19306
0.2
0.206531
0.212669
0.218427
0.22382
0.228863
0.233569
0.237952
0.242026
0.245803
0.249293
0.252504
0.255446
0.258126
0.260552
0.262731
0.264671
0.26638
0.267865
0.269133
0.270194
0.271054
0.271723
0.272209
0.272521
0.272668
0.272658
0.272501
0.272205
0.271779
0.271232
0.270571
0.269804
0.268941
0.267986
0.266949
0.265835
0.26465
0.2634
0.26209
0.260727
0.259314
0.257857
0.25636
0.254829
0.253268
0.251681
0.250074
0.248452
0.246818
0.245176
0.243531
0.241887
0.240248
0.238621
0.23701
0.23542
0.233857
0.232326
0.230833
0.229384
0.227983
0.226636
0.225348
0.224125
0.222972
0.221893
0.220893
0.219977
0.219147
0.218409
0.217766
0.21722
0.216775
0.216433
0.216196
0.216065
0.216043
0.21613
0.216327
0.216635
0.217054
0.217584
0.218224
0.218974
0.219833
0.2208
0.221874
0.223054
0.224337
0.225723
0.227209
0.228793
0.230474
0.23225
0.234118
0.236076
0.238123
0.240257
0.242474
0.244774
0.247154
0.249613
0.252149
0.25476
0.257444
0.2602
0.263027
0.265923
0.268887
0.271917
0.275013
0.278174
0.281398
0.284684
0.288032
0.291441
0.294908
0.298434
0.302016
0.305653
0.309343
0.313085
0.316874
0.32071
0.324588
0.328503
0.332453
0.33643
0.34043
0.344444
0.348465
0.352483
0.356488
0.360468
0.36441
0.3683
0.372121
0.375856
0.379487
0.382992
0.386349
0.389534
0.392522
0.395287
0.3978
0.400033
0.401955
0.403537
0.404746
0.405552
0.405925
0.405833
0.405249
0.40414
0.40248
0.400244
0.397408
0.393953
0.389861
0.385116
0.379707
0.373624
0.366861
0.359413
0.351278
0.342457
0.332951
0.322763
0.311897
0.300357
0.28815
0.275282
0.26176
0.247591
0.232784
0.217342
0.201259
0.184505
0.16699
0.148494
0.128464
0.105425
0.0744748
0.0207783
0.0109923
0.0465321
0.0678653
0.0836851
0.0972469
0.109565
0.121036
0.131837
0.142058
0.15175
0.160941
0.169653
0.1779
0.185698
0.19306
0.199999
0.206531
0.212668
0.218426
0.22382
0.228862
0.233568
0.237952
0.242025
0.245802
0.249292
0.252503
0.255445
0.258125
0.260551
0.26273
0.26467
0.266379
0.267863
0.269132
0.270192
0.271053
0.271722
0.272208
0.27252
0.272666
0.272657
0.2725
0.272204
0.271778
0.27123
0.270569
0.269803
0.268939
0.267985
0.266947
0.265833
0.264648
0.263398
0.262089
0.260725
0.259312
0.257855
0.256359
0.254827
0.253266
0.25168
0.250073
0.24845
0.246816
0.245175
0.243529
0.241885
0.240247
0.23862
0.237008
0.235419
0.233856
0.232325
0.230832
0.229382
0.227981
0.226634
0.225347
0.224124
0.222971
0.221892
0.220892
0.219976
0.219146
0.218409
0.217765
0.21722
0.216774
0.216432
0.216195
0.216064
0.216042
0.216129
0.216327
0.216635
0.217054
0.217583
0.218223
0.218974
0.219833
0.2208
0.221874
0.223053
0.224337
0.225722
0.227208
0.228793
0.230474
0.232249
0.234117
0.236076
0.238123
0.240256
0.242474
0.244774
0.247154
0.249613
0.252149
0.254759
0.257444
0.2602
0.263027
0.265923
0.268886
0.271917
0.275013
0.278174
0.281398
0.284684
0.288032
0.291441
0.294908
0.298434
0.302016
0.305653
0.309343
0.313085
0.316874
0.32071
0.324588
0.328503
0.332453
0.33643
0.34043
0.344444
0.348465
0.352483
0.356488
0.360468
0.36441
0.3683
0.372121
0.375857
0.379487
0.382992
0.386349
0.389534
0.392522
0.395287
0.397801
0.400033
0.401956
0.403537
0.404747
0.405553
0.405925
0.405834
0.40525
0.404141
0.402481
0.400245
0.397409
0.393954
0.389861
0.385117
0.379707
0.373624
0.366861
0.359413
0.351279
0.342458
0.332952
0.322764
0.311897
0.300358
0.28815
0.275282
0.26176
0.247592
0.232785
0.217342
0.20126
0.184505
0.166991
0.148494
0.128464
0.105425
0.0744747
0.0207783
0.013319
0.0535565
0.077097
0.0943153
0.108939
0.122149
0.134413
0.145943
0.156847
0.167184
0.176988
0.186281
0.195082
0.203407
0.211271
0.21869
0.225679
0.232255
0.238434
0.244233
0.249668
0.254754
0.259505
0.263936
0.268059
0.271884
0.275418
0.278671
0.281647
0.284354
0.286798
0.288985
0.29092
0.29261
0.294062
0.295283
0.296279
0.297059
0.297631
0.298004
0.298187
0.29819
0.298022
0.297693
0.297214
0.296594
0.295843
0.294969
0.293984
0.292894
0.29171
0.290439
0.28909
0.287668
0.28618
0.284634
0.283036
0.28139
0.279703
0.277981
0.276228
0.27445
0.272652
0.27084
0.269017
0.267188
0.265358
0.26353
0.26171
0.259904
0.258117
0.256353
0.254619
0.252921
0.251263
0.249652
0.248094
0.246594
0.245157
0.24379
0.242497
0.241284
0.240155
0.239115
0.238169
0.237319
0.236571
0.235927
0.235391
0.234964
0.234649
0.234449
0.234364
0.234397
0.234547
0.234816
0.235204
0.23571
0.236335
0.237078
0.237938
0.238914
0.240005
0.241209
0.242525
0.243951
0.245485
0.247125
0.24887
0.250716
0.252662
0.254706
0.256845
0.259077
0.2614
0.263813
0.266312
0.268897
0.271564
0.274313
0.277142
0.280048
0.283031
0.286089
0.28922
0.292424
0.295698
0.299043
0.302456
0.305937
0.309484
0.313096
0.316772
0.32051
0.324309
0.328167
0.332082
0.336052
0.340073
0.344143
0.348258
0.352413
0.356603
0.360823
0.365065
0.369322
0.373585
0.377844
0.382089
0.386305
0.39048
0.394599
0.398643
0.402596
0.406437
0.410144
0.413694
0.417062
0.420223
0.423149
0.425812
0.428181
0.430227
0.431918
0.433223
0.434112
0.434553
0.434516
0.433972
0.432891
0.431246
0.429014
0.426171
0.422699
0.418578
0.413795
0.408335
0.402187
0.395343
0.387794
0.379534
0.370556
0.360857
0.350431
0.339273
0.32738
0.314746
0.30137
0.28725
0.272387
0.256782
0.240433
0.223332
0.205442
0.186662
0.166741
0.145055
0.119942
0.0859347
0.0254354
0.0133191
0.0535565
0.0770967
0.0943149
0.108938
0.122149
0.134412
0.145943
0.156847
0.167184
0.176987
0.186281
0.195082
0.203407
0.211271
0.218689
0.225678
0.232254
0.238434
0.244233
0.249667
0.254753
0.259505
0.263935
0.268058
0.271883
0.275418
0.27867
0.281646
0.284353
0.286797
0.288983
0.290919
0.292609
0.294061
0.295281
0.296278
0.297057
0.297629
0.298002
0.298185
0.298188
0.29802
0.297692
0.297213
0.296593
0.295841
0.294968
0.293982
0.292893
0.291709
0.290438
0.289088
0.287666
0.286179
0.284633
0.283034
0.281389
0.279702
0.277979
0.276226
0.274448
0.272651
0.270839
0.269016
0.267187
0.265356
0.263529
0.261709
0.259903
0.258115
0.256352
0.254618
0.252919
0.251262
0.249651
0.248093
0.246593
0.245156
0.243789
0.242496
0.241283
0.240154
0.239114
0.238168
0.237319
0.23657
0.235926
0.23539
0.234963
0.234649
0.234448
0.234364
0.234396
0.234546
0.234815
0.235203
0.23571
0.236335
0.237078
0.237938
0.238914
0.240005
0.241209
0.242525
0.243951
0.245485
0.247125
0.248869
0.250716
0.252662
0.254705
0.256844
0.259077
0.2614
0.263813
0.266312
0.268896
0.271564
0.274313
0.277142
0.280048
0.283031
0.286089
0.28922
0.292424
0.295698
0.299043
0.302456
0.305936
0.309483
0.313096
0.316772
0.32051
0.324309
0.328167
0.332082
0.336052
0.340073
0.344143
0.348258
0.352413
0.356603
0.360823
0.365065
0.369322
0.373585
0.377844
0.382089
0.386305
0.39048
0.394599
0.398644
0.402596
0.406437
0.410144
0.413694
0.417062
0.420223
0.423149
0.425812
0.428181
0.430227
0.431918
0.433224
0.434112
0.434553
0.434516
0.433973
0.432891
0.431247
0.429014
0.426172
0.422699
0.418579
0.413795
0.408335
0.402187
0.395343
0.387794
0.379534
0.370557
0.360858
0.350432
0.339274
0.32738
0.314746
0.30137
0.287251
0.272387
0.256782
0.240433
0.223332
0.205442
0.186662
0.166741
0.145055
0.119941
0.0859346
0.0254353
0.0157278
0.0605105
0.0862487
0.104876
0.120582
0.134696
0.147754
0.160005
0.171575
0.182535
0.192925
0.202774
0.212101
0.220926
0.229266
0.237139
0.244564
0.25156
0.258144
0.264336
0.270153
0.275612
0.280729
0.285517
0.28999
0.294156
0.298024
0.301599
0.304887
0.307893
0.310622
0.313076
0.315261
0.317181
0.318841
0.320246
0.321402
0.322317
0.322999
0.323455
0.323696
0.323731
0.32357
0.323226
0.322708
0.322028
0.321197
0.320226
0.319125
0.317906
0.316579
0.315154
0.31364
0.312045
0.310377
0.308645
0.306856
0.305016
0.303132
0.30121
0.299257
0.297279
0.29528
0.293267
0.291244
0.289216
0.287187
0.285163
0.283148
0.281148
0.279168
0.277214
0.275292
0.273408
0.271567
0.269776
0.268039
0.266364
0.264756
0.263221
0.261764
0.260391
0.259107
0.257916
0.256823
0.255833
0.254948
0.254173
0.253512
0.252965
0.252538
0.25223
0.252045
0.251984
0.252047
0.252235
0.252549
0.252989
0.253554
0.254244
0.255059
0.255996
0.257056
0.258236
0.259534
0.26095
0.262481
0.264125
0.265879
0.267743
0.269713
0.271787
0.273963
0.276238
0.278612
0.28108
0.283642
0.286295
0.289036
0.291866
0.29478
0.297779
0.300859
0.30402
0.30726
0.310577
0.313971
0.31744
0.320983
0.324598
0.328284
0.33204
0.335864
0.339755
0.343711
0.34773
0.35181
0.355947
0.360139
0.364383
0.368674
0.373007
0.377377
0.381778
0.386202
0.390641
0.395085
0.399525
0.403948
0.408342
0.412691
0.41698
0.421191
0.425305
0.429301
0.433158
0.436851
0.440356
0.443646
0.446693
0.449468
0.451943
0.454086
0.455868
0.457257
0.458223
0.458736
0.458766
0.458284
0.457264
0.455679
0.453506
0.450725
0.447316
0.443261
0.438545
0.433152
0.427071
0.420288
0.412791
0.404569
0.395608
0.385895
0.375416
0.364157
0.352102
0.339235
0.325544
0.311017
0.295643
0.279416
0.262327
0.244359
0.225465
0.205527
0.184261
0.160972
0.133824
0.09681
0.0300294
0.0157279
0.0605104
0.0862484
0.104876
0.120582
0.134696
0.147754
0.160004
0.171575
0.182535
0.192925
0.202773
0.2121
0.220925
0.229265
0.237139
0.244564
0.251559
0.258143
0.264335
0.270152
0.275611
0.280728
0.285516
0.289989
0.294155
0.298023
0.301598
0.304886
0.307892
0.31062
0.313075
0.31526
0.31718
0.31884
0.320244
0.321401
0.322316
0.322997
0.323454
0.323694
0.323729
0.323569
0.323224
0.322706
0.322026
0.321195
0.320224
0.319124
0.317905
0.316578
0.315153
0.313638
0.312043
0.310376
0.308644
0.306854
0.305014
0.303131
0.301209
0.299256
0.297277
0.295279
0.293266
0.291243
0.289215
0.287186
0.285161
0.283146
0.281146
0.279167
0.277213
0.275291
0.273407
0.271566
0.269774
0.268038
0.266363
0.264755
0.26322
0.261763
0.26039
0.259106
0.257915
0.256822
0.255832
0.254947
0.254173
0.253511
0.252965
0.252537
0.25223
0.252045
0.251983
0.252046
0.252234
0.252548
0.252988
0.253554
0.254244
0.255058
0.255996
0.257055
0.258235
0.259534
0.26095
0.262481
0.264124
0.265879
0.267742
0.269712
0.271786
0.273962
0.276238
0.278611
0.28108
0.283641
0.286294
0.289036
0.291865
0.29478
0.297778
0.300859
0.30402
0.30726
0.310577
0.313971
0.31744
0.320983
0.324598
0.328284
0.33204
0.335864
0.339755
0.343711
0.34773
0.351809
0.355947
0.360139
0.364383
0.368674
0.373007
0.377377
0.381778
0.386202
0.390641
0.395085
0.399525
0.403948
0.408342
0.412691
0.41698
0.421191
0.425305
0.429301
0.433158
0.436851
0.440356
0.443646
0.446693
0.449468
0.451943
0.454087
0.455868
0.457257
0.458223
0.458736
0.458766
0.458285
0.457264
0.455679
0.453507
0.450726
0.447316
0.443261
0.438545
0.433153
0.427071
0.420288
0.412792
0.404569
0.395608
0.385895
0.375417
0.364157
0.352102
0.339236
0.325545
0.311017
0.295643
0.279416
0.262327
0.244359
0.225465
0.205527
0.18426
0.160972
0.133824
0.0968099
0.0300294
0.0182547
0.0675247
0.0954494
0.115521
0.13234
0.147381
0.161249
0.174228
0.186466
0.198046
0.209017
0.219413
0.229258
0.238575
0.247384
0.255707
0.263564
0.270978
0.277968
0.284555
0.29076
0.2966
0.302092
0.30725
0.312088
0.316613
0.320833
0.324752