/*--------------------------------*- C++ -*----------------------------------*\
  =========                 |
  \\      /  F ield         | OpenFOAM: The Open Source CFD Toolbox
   \\    /   O peration     | Website:  https://openfoam.org
    \\  /    A nd           | Version:  8
     \\/     M anipulation  |
\*---------------------------------------------------------------------------*/
FoamFile
{
    version     2.0;
    format      ascii;
    class       volScalarField;
    location    "1500";
    object      nut;
}
// * * * * * * * * * * * * * * * * * * * * * * * * * * * * * * * * * * * * * //

dimensions      [0 2 -1 0 0 0 0];

internalField   nonuniform List<scalar> 
46000
(
2.83021e-08
1.45113e-07
3.12432e-07
4.88585e-07
6.65356e-07
8.41601e-07
1.01819e-06
1.19222e-06
1.36154e-06
1.52568e-06
1.68367e-06
1.83525e-06
1.98063e-06
2.11843e-06
2.24912e-06
2.37265e-06
2.48902e-06
2.59824e-06
2.70041e-06
2.79564e-06
2.88408e-06
2.96591e-06
3.04134e-06
3.11139e-06
3.17813e-06
3.23951e-06
3.29555e-06
3.34649e-06
3.39258e-06
3.43407e-06
3.47121e-06
3.50424e-06
3.53339e-06
3.55888e-06
3.58095e-06
3.59984e-06
3.61558e-06
3.62845e-06
3.63861e-06
3.64619e-06
3.65133e-06
3.65417e-06
3.65484e-06
3.65344e-06
3.65007e-06
3.64485e-06
3.63784e-06
3.62913e-06
3.6188e-06
3.6069e-06
3.59351e-06
3.57868e-06
3.56248e-06
3.54496e-06
3.52619e-06
3.50622e-06
3.48513e-06
3.46296e-06
3.43981e-06
3.41572e-06
3.39077e-06
3.36514e-06
3.33961e-06
3.31396e-06
3.28782e-06
3.26125e-06
3.23434e-06
3.20721e-06
3.17997e-06
3.15272e-06
3.12559e-06
3.09869e-06
3.07212e-06
3.04601e-06
3.02047e-06
2.99561e-06
2.97153e-06
2.94833e-06
2.92613e-06
2.905e-06
2.88505e-06
2.86635e-06
2.84899e-06
2.83304e-06
2.81857e-06
2.80564e-06
2.7943e-06
2.78462e-06
2.77662e-06
2.77035e-06
2.76584e-06
2.76313e-06
2.76222e-06
2.76314e-06
2.76591e-06
2.77052e-06
2.77699e-06
2.7853e-06
2.79546e-06
2.80747e-06
2.82132e-06
2.83695e-06
2.85438e-06
2.87359e-06
2.89457e-06
2.91729e-06
2.94174e-06
2.9679e-06
2.99573e-06
3.02522e-06
3.05635e-06
3.08909e-06
3.12343e-06
3.15934e-06
3.19681e-06
3.23581e-06
3.27633e-06
3.31835e-06
3.36187e-06
3.40687e-06
3.45334e-06
3.50128e-06
3.55068e-06
3.60153e-06
3.65383e-06
3.70759e-06
3.7628e-06
3.81947e-06
3.87759e-06
3.93718e-06
3.99824e-06
4.06076e-06
4.12475e-06
4.1902e-06
4.25711e-06
4.32547e-06
4.39527e-06
4.46647e-06
4.53905e-06
4.61297e-06
4.68818e-06
4.7646e-06
4.84215e-06
4.92074e-06
5.00023e-06
5.08048e-06
5.16133e-06
5.24256e-06
5.32395e-06
5.40523e-06
5.4861e-06
5.56621e-06
5.64518e-06
5.72258e-06
5.79795e-06
5.87075e-06
5.94042e-06
6.00636e-06
6.06789e-06
6.12432e-06
6.17491e-06
6.21887e-06
6.2554e-06
6.28366e-06
6.30281e-06
6.31201e-06
6.31041e-06
6.29726e-06
6.27213e-06
6.23666e-06
6.18808e-06
6.12535e-06
6.0479e-06
5.95535e-06
5.84743e-06
5.72403e-06
5.58517e-06
5.43105e-06
5.26201e-06
5.07856e-06
4.88141e-06
4.67141e-06
4.44957e-06
4.21709e-06
3.97525e-06
3.72549e-06
3.46932e-06
3.2083e-06
2.944e-06
2.67794e-06
2.41137e-06
2.14386e-06
1.87819e-06
1.6152e-06
1.3512e-06
1.08561e-06
8.21386e-07
5.50071e-07
2.69575e-07
5.33037e-08
2.83021e-08
1.45115e-07
3.12435e-07
4.88589e-07
6.6536e-07
8.41605e-07
1.01819e-06
1.19222e-06
1.36154e-06
1.52568e-06
1.68367e-06
1.83525e-06
1.98063e-06
2.11843e-06
2.24912e-06
2.37265e-06
2.48902e-06
2.59824e-06
2.70041e-06
2.79564e-06
2.88408e-06
2.96591e-06
3.04134e-06
3.11139e-06
3.17813e-06
3.23951e-06
3.29555e-06
3.34649e-06
3.39257e-06
3.43407e-06
3.47121e-06
3.50424e-06
3.53339e-06
3.55889e-06
3.58095e-06
3.59984e-06
3.61558e-06
3.62846e-06
3.63862e-06
3.6462e-06
3.65135e-06
3.65419e-06
3.65486e-06
3.65346e-06
3.6501e-06
3.64487e-06
3.63786e-06
3.62916e-06
3.61882e-06
3.60693e-06
3.59354e-06
3.57871e-06
3.56251e-06
3.54499e-06
3.52622e-06
3.50625e-06
3.48516e-06
3.463e-06
3.43984e-06
3.41575e-06
3.39081e-06
3.36517e-06
3.33965e-06
3.31399e-06
3.28785e-06
3.26127e-06
3.23437e-06
3.20724e-06
3.17999e-06
3.15274e-06
3.12561e-06
3.0987e-06
3.07214e-06
3.04603e-06
3.02048e-06
2.99562e-06
2.97153e-06
2.94834e-06
2.92613e-06
2.90501e-06
2.88505e-06
2.86635e-06
2.84899e-06
2.83304e-06
2.81857e-06
2.80563e-06
2.79429e-06
2.7846e-06
2.7766e-06
2.77033e-06
2.76583e-06
2.76311e-06
2.7622e-06
2.76312e-06
2.76589e-06
2.7705e-06
2.77696e-06
2.78527e-06
2.79543e-06
2.80744e-06
2.82129e-06
2.83692e-06
2.85434e-06
2.87355e-06
2.89453e-06
2.91726e-06
2.9417e-06
2.96786e-06
2.99569e-06
3.02518e-06
3.05631e-06
3.08905e-06
3.12339e-06
3.1593e-06
3.19676e-06
3.23576e-06
3.27628e-06
3.31831e-06
3.36182e-06
3.40682e-06
3.45329e-06
3.50123e-06
3.55062e-06
3.60147e-06
3.65378e-06
3.70754e-06
3.76275e-06
3.81941e-06
3.87754e-06
3.93713e-06
3.99818e-06
4.06071e-06
4.12469e-06
4.19015e-06
4.25706e-06
4.32542e-06
4.39521e-06
4.46642e-06
4.539e-06
4.61292e-06
4.68813e-06
4.76455e-06
4.8421e-06
4.92069e-06
5.00018e-06
5.08043e-06
5.16128e-06
5.24251e-06
5.3239e-06
5.40518e-06
5.48605e-06
5.56616e-06
5.64513e-06
5.72254e-06
5.7979e-06
5.87071e-06
5.94038e-06
6.00632e-06
6.06785e-06
6.12429e-06
6.17488e-06
6.21884e-06
6.25537e-06
6.28363e-06
6.30279e-06
6.31198e-06
6.31039e-06
6.29724e-06
6.27211e-06
6.23664e-06
6.18807e-06
6.12534e-06
6.04789e-06
5.95534e-06
5.84742e-06
5.72403e-06
5.58518e-06
5.43106e-06
5.26202e-06
5.07858e-06
4.88142e-06
4.67142e-06
4.44959e-06
4.2171e-06
3.97527e-06
3.72551e-06
3.46934e-06
3.20832e-06
2.94402e-06
2.67795e-06
2.41139e-06
2.14388e-06
1.87821e-06
1.61522e-06
1.35121e-06
1.08562e-06
8.214e-07
5.50081e-07
2.69582e-07
5.33051e-08
1.34723e-07
6.83185e-06
1.53303e-05
2.15591e-05
2.65229e-05
3.07311e-05
3.43283e-05
3.74624e-05
4.02609e-05
4.27927e-05
4.50938e-05
4.71942e-05
4.91157e-05
5.08802e-05
5.24997e-05
5.39856e-05
5.53483e-05
5.65973e-05
5.77412e-05
5.87877e-05
5.97438e-05
6.06149e-05
6.14039e-05
6.21041e-05
6.27166e-05
6.32618e-05
6.37504e-05
6.41891e-05
6.45829e-05
6.4936e-05
6.5252e-05
6.5534e-05
6.57848e-05
6.60069e-05
6.62024e-05
6.63734e-05
6.6522e-05
6.66494e-05
6.67564e-05
6.68439e-05
6.69129e-05
6.69641e-05
6.69981e-05
6.70157e-05
6.70173e-05
6.70035e-05
6.69746e-05
6.69311e-05
6.68735e-05
6.68019e-05
6.67168e-05
6.66185e-05
6.65072e-05
6.63834e-05
6.62474e-05
6.60995e-05
6.59401e-05
6.57695e-05
6.55881e-05
6.53961e-05
6.51933e-05
6.49776e-05
6.47431e-05
6.44982e-05
6.42461e-05
6.39886e-05
6.3727e-05
6.34622e-05
6.31952e-05
6.29271e-05
6.26588e-05
6.23913e-05
6.21258e-05
6.18632e-05
6.16046e-05
6.13511e-05
6.11036e-05
6.08633e-05
6.06312e-05
6.04081e-05
6.01952e-05
5.99932e-05
5.98031e-05
5.96256e-05
5.94616e-05
5.93116e-05
5.91765e-05
5.90566e-05
5.89526e-05
5.88648e-05
5.87936e-05
5.87394e-05
5.87023e-05
5.86824e-05
5.86798e-05
5.86945e-05
5.87267e-05
5.8776e-05
5.88424e-05
5.89255e-05
5.90253e-05
5.91417e-05
5.92741e-05
5.94223e-05
5.95858e-05
5.97644e-05
5.99575e-05
6.01649e-05
6.03861e-05
6.06206e-05
6.08682e-05
6.11282e-05
6.14005e-05
6.16846e-05
6.19801e-05
6.22866e-05
6.26039e-05
6.29317e-05
6.32695e-05
6.36172e-05
6.39745e-05
6.43411e-05
6.47169e-05
6.51017e-05
6.54951e-05
6.58972e-05
6.63077e-05
6.67264e-05
6.71532e-05
6.7588e-05
6.80306e-05
6.84808e-05
6.89385e-05
6.94034e-05
6.98753e-05
7.03539e-05
7.08388e-05
7.13299e-05
7.18265e-05
7.23282e-05
7.28343e-05
7.33443e-05
7.38574e-05
7.43726e-05
7.48889e-05
7.54052e-05
7.59201e-05
7.64323e-05
7.69401e-05
7.74417e-05
7.79351e-05
7.84181e-05
7.88884e-05
7.93433e-05
7.97801e-05
8.01958e-05
8.05872e-05
8.09507e-05
8.12829e-05
8.158e-05
8.18378e-05
8.20524e-05
8.22194e-05
8.23344e-05
8.23929e-05
8.23903e-05
8.2322e-05
8.21826e-05
8.1966e-05
8.16503e-05
8.12391e-05
8.07321e-05
8.01272e-05
7.94217e-05
7.86129e-05
7.76982e-05
7.66753e-05
7.55426e-05
7.42985e-05
7.29421e-05
7.14728e-05
6.98904e-05
6.81949e-05
6.63867e-05
6.4466e-05
6.2433e-05
6.02875e-05
5.80282e-05
5.56528e-05
5.31563e-05
5.05307e-05
4.77646e-05
4.48177e-05
4.16116e-05
3.80062e-05
3.3734e-05
2.81044e-05
2.05481e-05
9.62375e-06
2.35568e-07
1.34724e-07
6.83213e-06
1.53308e-05
2.15596e-05
2.65234e-05
3.07316e-05
3.43288e-05
3.74629e-05
4.02615e-05
4.27932e-05
4.50943e-05
4.71947e-05
4.91162e-05
5.08807e-05
5.25002e-05
5.39861e-05
5.53488e-05
5.65978e-05
5.77417e-05
5.87883e-05
5.97443e-05
6.06155e-05
6.14045e-05
6.21048e-05
6.27173e-05
6.32625e-05
6.37512e-05
6.41899e-05
6.45838e-05
6.49369e-05
6.5253e-05
6.55351e-05
6.5786e-05
6.60081e-05
6.62037e-05
6.63748e-05
6.65235e-05
6.6651e-05
6.67581e-05
6.68457e-05
6.69147e-05
6.6966e-05
6.70002e-05
6.70178e-05
6.70195e-05
6.70057e-05
6.69769e-05
6.69336e-05
6.6876e-05
6.68045e-05
6.67194e-05
6.66211e-05
6.65099e-05
6.63862e-05
6.62502e-05
6.61023e-05
6.59429e-05
6.57723e-05
6.55909e-05
6.53989e-05
6.5196e-05
6.49804e-05
6.47458e-05
6.45008e-05
6.42486e-05
6.39911e-05
6.37294e-05
6.34646e-05
6.31975e-05
6.29293e-05
6.2661e-05
6.23935e-05
6.21279e-05
6.18652e-05
6.16065e-05
6.13529e-05
6.11054e-05
6.0865e-05
6.06327e-05
6.04096e-05
6.01966e-05
5.99945e-05
5.98043e-05
5.96267e-05
5.94626e-05
5.93126e-05
5.91773e-05
5.90574e-05
5.89533e-05
5.88654e-05
5.87941e-05
5.87398e-05
5.87026e-05
5.86827e-05
5.868e-05
5.86947e-05
5.87267e-05
5.8776e-05
5.88423e-05
5.89254e-05
5.90251e-05
5.91414e-05
5.92738e-05
5.94219e-05
5.95854e-05
5.97639e-05
5.9957e-05
6.01644e-05
6.03855e-05
6.062e-05
6.08675e-05
6.11276e-05
6.13998e-05
6.16838e-05
6.19793e-05
6.22858e-05
6.26031e-05
6.29308e-05
6.32686e-05
6.36163e-05
6.39736e-05
6.43402e-05
6.4716e-05
6.51007e-05
6.54942e-05
6.58962e-05
6.63067e-05
6.67254e-05
6.71522e-05
6.7587e-05
6.80296e-05
6.84798e-05
6.89375e-05
6.94024e-05
6.98742e-05
7.03528e-05
7.08378e-05
7.13288e-05
7.18254e-05
7.23271e-05
7.28333e-05
7.33433e-05
7.38563e-05
7.43715e-05
7.48878e-05
7.54041e-05
7.5919e-05
7.64312e-05
7.6939e-05
7.74406e-05
7.79339e-05
7.8417e-05
7.88872e-05
7.93422e-05
7.9779e-05
8.01947e-05
8.0586e-05
8.09496e-05
8.12818e-05
8.15788e-05
8.18367e-05
8.20512e-05
8.22182e-05
8.23332e-05
8.23918e-05
8.23892e-05
8.23209e-05
8.21815e-05
8.1965e-05
8.16493e-05
8.12381e-05
8.07311e-05
8.01263e-05
7.94209e-05
7.86121e-05
7.76974e-05
7.66746e-05
7.55419e-05
7.42978e-05
7.29414e-05
7.14722e-05
6.98898e-05
6.81944e-05
6.63862e-05
6.44656e-05
6.24326e-05
6.02871e-05
5.80279e-05
5.56524e-05
5.3156e-05
5.05304e-05
4.77643e-05
4.48174e-05
4.16114e-05
3.8006e-05
3.37339e-05
2.81042e-05
2.05479e-05
9.62371e-06
2.35565e-07
2.91078e-07
1.50255e-05
3.63355e-05
5.26878e-05
6.55333e-05
7.61305e-05
8.50839e-05
9.28458e-05
9.96863e-05
0.000105789
0.000111281
0.000116246
0.000120748
0.000124839
0.000128561
0.000131949
0.000135032
0.00013784
0.000140395
0.000142721
0.000144835
0.000146755
0.00014849
0.000150042
0.000151422
0.000152657
0.000153769
0.000154772
0.00015568
0.000156501
0.000157243
0.000157914
0.000158519
0.000159063
0.00015955
0.000159982
0.000160365
0.000160699
0.000160988
0.000161232
0.000161433
0.000161593
0.000161713
0.000161793
0.000161835
0.00016184
0.000161809
0.000161743
0.000161644
0.000161513
0.000161351
0.000161158
0.000160937
0.000160688
0.000160413
0.000160112
0.000159787
0.000159438
0.000159066
0.000158672
0.000158255
0.000157813
0.000157341
0.000156847
0.000156337
0.000155814
0.000155281
0.000154741
0.000154195
0.000153646
0.000153095
0.000152544
0.000151995
0.00015145
0.000150911
0.00015038
0.000149858
0.000149348
0.000148851
0.000148369
0.000147904
0.000147457
0.000147029
0.000146623
0.00014624
0.00014588
0.000145545
0.000145236
0.000144954
0.000144699
0.000144471
0.000144272
0.000144102
0.000143961
0.000143849
0.000143765
0.000143711
0.000143685
0.000143687
0.000143718
0.000143776
0.000143862
0.000143974
0.000144112
0.000144276
0.000144465
0.000144678
0.000144916
0.000145176
0.000145459
0.000145764
0.00014609
0.000146437
0.000146805
0.000147193
0.0001476
0.000148027
0.000148472
0.000148936
0.000149418
0.000149919
0.000150437
0.000150972
0.000151525
0.000152096
0.000152683
0.000153287
0.000153908
0.000154545
0.000155199
0.000155869
0.000156555
0.000157257
0.000157973
0.000158705
0.00015945
0.000160208
0.00016098
0.000161763
0.000162556
0.000163359
0.00016417
0.000164986
0.000165807
0.000166631
0.000167454
0.000168274
0.000169089
0.000169895
0.000170688
0.000171465
0.000172221
0.000172953
0.000173655
0.000174321
0.000174948
0.000175528
0.000176055
0.000176524
0.000176927
0.000177258
0.00017751
0.000177674
0.000177744
0.000177713
0.000177571
0.000177311
0.000176923
0.000176397
0.00017571
0.000174858
0.000173839
0.000172648
0.000171282
0.000169735
0.000168002
0.000166079
0.000163961
0.000161644
0.000159122
0.000156391
0.000153446
0.000150283
0.000146893
0.00014327
0.000139404
0.000135281
0.000130886
0.000126194
0.000121171
0.000115769
0.000109909
0.000103459
9.61913e-05
8.77198e-05
7.73318e-05
6.37724e-05
4.51708e-05
1.97831e-05
5.05832e-07
2.91081e-07
1.50261e-05
3.63367e-05
5.26892e-05
6.55347e-05
7.61318e-05
8.50851e-05
9.28469e-05
9.96874e-05
0.00010579
0.000111282
0.000116247
0.000120748
0.00012484
0.000128562
0.00013195
0.000135033
0.000137841
0.000140396
0.000142721
0.000144836
0.000146756
0.000148491
0.000150044
0.000151424
0.000152659
0.00015377
0.000154774
0.000155681
0.000156502
0.000157245
0.000157916
0.000158521
0.000159065
0.000159552
0.000159985
0.000160367
0.000160702
0.00016099
0.000161235
0.000161437
0.000161597
0.000161716
0.000161797
0.000161839
0.000161844
0.000161813
0.000161748
0.000161649
0.000161518
0.000161355
0.000161163
0.000160942
0.000160694
0.000160418
0.000160117
0.000159792
0.000159443
0.000159072
0.000158677
0.00015826
0.000157818
0.000157346
0.000156852
0.000156342
0.000155818
0.000155286
0.000154745
0.000154199
0.00015365
0.000153098
0.000152547
0.000151998
0.000151453
0.000150914
0.000150382
0.000149861
0.00014935
0.000148853
0.000148371
0.000147905
0.000147458
0.000147031
0.000146624
0.000146241
0.000145881
0.000145546
0.000145236
0.000144954
0.000144698
0.000144471
0.000144272
0.000144101
0.00014396
0.000143847
0.000143764
0.000143709
0.000143683
0.000143686
0.000143716
0.000143774
0.000143859
0.000143971
0.00014411
0.000144274
0.000144462
0.000144676
0.000144913
0.000145173
0.000145456
0.00014576
0.000146087
0.000146434
0.000146802
0.000147189
0.000147597
0.000148023
0.000148469
0.000148933
0.000149415
0.000149915
0.000150433
0.000150969
0.000151522
0.000152092
0.000152679
0.000153283
0.000153904
0.000154542
0.000155196
0.000155866
0.000156552
0.000157253
0.00015797
0.000158701
0.000159446
0.000160205
0.000160976
0.000161759
0.000162553
0.000163356
0.000164166
0.000164983
0.000165804
0.000166627
0.000167451
0.000168271
0.000169086
0.000169891
0.000170685
0.000171462
0.000172218
0.00017295
0.000173651
0.000174318
0.000174944
0.000175524
0.000176052
0.000176521
0.000176924
0.000177255
0.000177507
0.000177671
0.000177742
0.00017771
0.000177568
0.000177308
0.000176921
0.000176395
0.000175707
0.000174856
0.000173837
0.000172646
0.00017128
0.000169733
0.000168001
0.000166078
0.00016396
0.000161643
0.000159121
0.00015639
0.000153446
0.000150282
0.000146893
0.00014327
0.000139403
0.000135281
0.000130885
0.000126193
0.000121171
0.000115769
0.000109909
0.000103459
9.61914e-05
8.77198e-05
7.73318e-05
6.37723e-05
4.51708e-05
1.97832e-05
5.05827e-07
4.50956e-07
2.08998e-05
5.20428e-05
7.75699e-05
9.81674e-05
0.00011526
0.000129817
0.00014247
0.000153629
0.000163573
0.000172497
0.000180545
0.000187825
0.000194424
0.000200414
0.000205856
0.000210801
0.000215296
0.000219384
0.000223101
0.00022648
0.00022955
0.000232332
0.000234845
0.000237106
0.000239148
0.000240998
0.000242678
0.000244206
0.000245597
0.000246862
0.000248014
0.000249059
0.000250005
0.000250859
0.000251624
0.000252306
0.000252907
0.000253431
0.00025388
0.000254257
0.000254564
0.000254803
0.000254975
0.000255082
0.000255126
0.00025511
0.000255036
0.000254905
0.000254721
0.000254486
0.000254201
0.000253869
0.000253493
0.000253074
0.000252615
0.000252117
0.000251583
0.000251013
0.000250409
0.000249771
0.000249099
0.000248391
0.000247654
0.000246892
0.00024611
0.000245312
0.000244502
0.000243682
0.000242856
0.000242025
0.000241194
0.000240363
0.000239536
0.000238716
0.000237904
0.000237103
0.000236316
0.000235545
0.000234793
0.00023406
0.000233349
0.000232663
0.000232003
0.00023137
0.000230766
0.000230192
0.000229649
0.000229139
0.000228661
0.000228218
0.000227808
0.000227433
0.000227093
0.000226788
0.000226517
0.000226281
0.000226079
0.000225911
0.000225777
0.000225676
0.000225608
0.000225573
0.000225569
0.000225597
0.000225655
0.000225743
0.000225861
0.000226009
0.000226185
0.00022639
0.000226622
0.000226883
0.00022717
0.000227485
0.000227827
0.000228196
0.000228591
0.000229014
0.000229462
0.000229938
0.000230439
0.000230968
0.000231523
0.000232105
0.000232713
0.000233348
0.00023401
0.000234698
0.000235412
0.000236152
0.000236918
0.000237709
0.000238525
0.000239365
0.000240228
0.000241113
0.000242019
0.000242945
0.000243888
0.000244847
0.00024582
0.000246803
0.000247795
0.000248792
0.000249791
0.000250788
0.000251778
0.000252757
0.000253719
0.00025466
0.000255574
0.000256453
0.000257291
0.000258082
0.000258818
0.000259489
0.00026009
0.00026061
0.00026104
0.000261372
0.000261596
0.000261703
0.000261681
0.000261522
0.000261215
0.000260749
0.000260112
0.000259291
0.000258267
0.00025703
0.000255575
0.000253894
0.00025198
0.000249825
0.000247422
0.000244764
0.000241841
0.000238645
0.000235166
0.000231394
0.000227316
0.000222919
0.000218186
0.000213097
0.000207627
0.000201747
0.000195415
0.000188578
0.000181165
0.00017307
0.000164139
0.000154133
0.000142673
0.000129157
0.000112607
9.14882e-05
6.35642e-05
2.73822e-05
7.98726e-07
4.50958e-07
2.09004e-05
5.20442e-05
7.75716e-05
9.81693e-05
0.000115262
0.000129819
0.000142471
0.000153631
0.000163574
0.000172499
0.000180547
0.000187827
0.000194426
0.000200416
0.000205857
0.000210802
0.000215298
0.000219386
0.000223103
0.000226482
0.000229552
0.000232334
0.000234848
0.000237108
0.000239151
0.000241001
0.000242681
0.000244209
0.0002456
0.000246866
0.000248017
0.000249063
0.000250009
0.000250863
0.000251628
0.00025231
0.000252911
0.000253435
0.000253885
0.000254262
0.000254569
0.000254808
0.00025498
0.000255088
0.000255133
0.000255117
0.000255042
0.000254912
0.000254728
0.000254492
0.000254208
0.000253876
0.0002535
0.000253081
0.000252622
0.000252124
0.00025159
0.00025102
0.000250416
0.000249778
0.000249105
0.000248398
0.00024766
0.000246898
0.000246116
0.000245318
0.000244507
0.000243687
0.000242861
0.00024203
0.000241198
0.000240367
0.00023954
0.000238719
0.000237907
0.000237106
0.000236319
0.000235548
0.000234794
0.000234061
0.000233351
0.000232664
0.000232003
0.00023137
0.000230765
0.000230191
0.000229648
0.000229137
0.00022866
0.000228216
0.000227806
0.000227431
0.000227091
0.000226785
0.000226514
0.000226277
0.000226075
0.000225908
0.000225773
0.000225672
0.000225604
0.000225568
0.000225564
0.000225592
0.00022565
0.000225738
0.000225856
0.000226004
0.00022618
0.000226384
0.000226617
0.000226877
0.000227165
0.00022748
0.000227822
0.00022819
0.000228586
0.000229008
0.000229457
0.000229932
0.000230434
0.000230962
0.000231517
0.000232099
0.000232707
0.000233342
0.000234004
0.000234692
0.000235406
0.000236147
0.000236913
0.000237704
0.00023852
0.00023936
0.000240223
0.000241108
0.000242014
0.000242939
0.000243883
0.000244842
0.000245814
0.000246798
0.00024779
0.000248787
0.000249786
0.000250783
0.000251773
0.000252752
0.000253715
0.000254655
0.000255569
0.000256448
0.000257287
0.000258078
0.000258813
0.000259485
0.000260085
0.000260605
0.000261036
0.000261368
0.000261592
0.000261699
0.000261677
0.000261519
0.000261211
0.000260745
0.000260108
0.000259288
0.000258264
0.000257028
0.000255572
0.000253891
0.000251977
0.000249823
0.000247421
0.000244762
0.00024184
0.000238644
0.000235165
0.000231393
0.000227316
0.000222919
0.000218186
0.000213097
0.000207628
0.000201747
0.000195415
0.000188579
0.000181166
0.000173071
0.00016414
0.000154134
0.000142674
0.000129157
0.000112607
9.14886e-05
6.35645e-05
2.73824e-05
7.98721e-07
6.08418e-07
2.54518e-05
6.3985e-05
9.70097e-05
0.000124343
0.000147374
0.000167181
0.000184493
0.00019981
0.000213483
0.000225765
0.000236846
0.000246875
0.00025597
0.000264229
0.000271736
0.000278564
0.000284776
0.00029043
0.000295578
0.000300265
0.000304531
0.00030841
0.000311934
0.000315128
0.000318031
0.000320674
0.000323082
0.00032528
0.000327287
0.000329119
0.00033079
0.000332312
0.000333693
0.000334943
0.000336067
0.000337071
0.00033796
0.000338737
0.000339408
0.000339974
0.00034044
0.000340807
0.00034108
0.000341261
0.000341352
0.000341357
0.00034128
0.000341123
0.00034089
0.000340584
0.000340209
0.000339769
0.000339267
0.000338706
0.000338089
0.000337419
0.000336699
0.000335932
0.000335119
0.000334262
0.000333362
0.000332421
0.000331444
0.000330435
0.0003294
0.000328343
0.000327269
0.000326181
0.000325084
0.00032398
0.000322873
0.000321766
0.000320662
0.000319565
0.000318477
0.000317401
0.000316341
0.000315298
0.000314275
0.000313274
0.000312299
0.00031135
0.000310431
0.000309541
0.000308684
0.00030786
0.00030707
0.000306316
0.000305598
0.000304916
0.000304272
0.000303664
0.000303094
0.000302562
0.000302066
0.000301608
0.000301187
0.000300802
0.000300453
0.00030014
0.000299862
0.000299619
0.000299411
0.000299237
0.000299097
0.000298991
0.000298918
0.000298878
0.000298871
0.000298897
0.000298955
0.000299047
0.000299171
0.000299329
0.00029952
0.000299745
0.000300003
0.000300295
0.000300622
0.000300984
0.00030138
0.000301812
0.00030228
0.000302784
0.000303324
0.0003039
0.000304513
0.000305163
0.000305849
0.000306571
0.000307328
0.000308122
0.000308949
0.000309811
0.000310705
0.00031163
0.000312585
0.000313568
0.000314576
0.000315607
0.000316659
0.000317727
0.000318808
0.000319899
0.000320994
0.000322088
0.000323177
0.000324254
0.000325314
0.000326348
0.00032735
0.000328312
0.000329225
0.000330082
0.000330872
0.000331586
0.000332214
0.000332745
0.00033317
0.000333476
0.000333653
0.000333689
0.000333572
0.000333291
0.000332833
0.000332185
0.000331335
0.000330268
0.000328965
0.000327415
0.000325608
0.000323535
0.000321184
0.000318547
0.000315611
0.000312366
0.000308798
0.000304894
0.000300637
0.000296011
0.000290995
0.000285565
0.000279692
0.000273344
0.000266479
0.000259046
0.000250982
0.000242203
0.000232595
0.000222005
0.000210206
0.00019687
0.000181501
0.000163343
0.000141253
0.00011354
7.79565e-05
3.35743e-05
1.1099e-06
6.0842e-07
2.54524e-05
6.39864e-05
9.70115e-05
0.000124345
0.000147376
0.000167183
0.000184495
0.000199813
0.000213485
0.000225767
0.000236849
0.000246878
0.000255973
0.000264232
0.000271739
0.000278567
0.000284779
0.000290434
0.000295582
0.000300269
0.000304535
0.000308415
0.000311939
0.000315133
0.000318037
0.000320679
0.000323088
0.000325286
0.000327293
0.000329125
0.000330796
0.000332318
0.0003337
0.00033495
0.000336074
0.000337078
0.000337967
0.000338745
0.000339416
0.000339982
0.000340448
0.000340816
0.000341089
0.00034127
0.000341361
0.000341367
0.000341289
0.000341132
0.000340899
0.000340594
0.000340219
0.000339779
0.000339277
0.000338715
0.000338098
0.000337428
0.000336708
0.000335941
0.000335128
0.000334271
0.000333371
0.00033243
0.000331452
0.000330443
0.000329407
0.00032835
0.000327276
0.000326188
0.00032509
0.000323986
0.000322879
0.000321771
0.000320668
0.00031957
0.000318481
0.000317405
0.000316344
0.000315301
0.000314277
0.000313277
0.000312301
0.000311352
0.000310432
0.000309542
0.000308684
0.00030786
0.00030707
0.000306315
0.000305597
0.000304915
0.00030427
0.000303662
0.000303092
0.000302559
0.000302063
0.000301604
0.000301183
0.000300797
0.000300448
0.000300135
0.000299857
0.000299614
0.000299406
0.000299232
0.000299092
0.000298985
0.000298912
0.000298872
0.000298864
0.00029889
0.000298949
0.00029904
0.000299165
0.000299322
0.000299513
0.000299738
0.000299996
0.000300288
0.000300615
0.000300977
0.000301374
0.000301806
0.000302273
0.000302777
0.000303317
0.000303894
0.000304507
0.000305156
0.000305842
0.000306564
0.000307322
0.000308115
0.000308943
0.000309804
0.000310699
0.000311624
0.000312579
0.000313562
0.00031457
0.000315601
0.000316653
0.000317721
0.000318802
0.000319893
0.000320988
0.000322083
0.000323172
0.000324249
0.000325308
0.000326342
0.000327344
0.000328307
0.00032922
0.000330077
0.000330867
0.000331581
0.000332209
0.000332741
0.000333165
0.000333471
0.000333648
0.000333685
0.000333568
0.000333287
0.000332829
0.000332181
0.000331331
0.000330265
0.000328962
0.000327412
0.000325606
0.000323532
0.000321182
0.000318545
0.00031561
0.000312365
0.000308797
0.000304893
0.000300637
0.000296011
0.000290995
0.000285565
0.000279693
0.000273345
0.00026648
0.000259048
0.000250983
0.000242204
0.000232597
0.000222006
0.000210208
0.000196872
0.000181503
0.000163345
0.000141255
0.000113541
7.79572e-05
3.35749e-05
1.10989e-06
7.66805e-07
2.92665e-05
7.35634e-05
0.000112699
0.000145787
0.000174062
0.000198593
0.000220157
0.000239309
0.00025645
0.000271879
0.000285823
0.000298463
0.000309943
0.000320383
0.000329888
0.000338547
0.000346439
0.000353635
0.000360199
0.000366186
0.000371648
0.00037663
0.000381171
0.000385308
0.000389082
0.000392526
0.000395674
0.000398551
0.000401182
0.000403587
0.000405783
0.000407783
0.0004096
0.000411243
0.000412722
0.000414044
0.000415214
0.000416238
0.000417121
0.000417869
0.000418484
0.000418973
0.000419337
0.000419583
0.000419713
0.000419733
0.000419646
0.000419457
0.000419171
0.000418791
0.000418324
0.000417773
0.000417142
0.000416437
0.000415662
0.000414819
0.000413915
0.00041295
0.00041193
0.000410857
0.000409734
0.000408563
0.000407349
0.000406099
0.000404816
0.000403507
0.000402177
0.00040083
0.00039947
0.000398102
0.00039673
0.000395357
0.000393988
0.000392625
0.000391273
0.000389934
0.000388612
0.00038731
0.00038603
0.000384775
0.000383548
0.00038235
0.000381184
0.000380051
0.000378952
0.000377889
0.000376863
0.000375875
0.000374924
0.000374012
0.000373138
0.000372303
0.000371507
0.000370749
0.00037003
0.000369348
0.000368703
0.000368096
0.000367525
0.000366991
0.000366492
0.000366029
0.000365602
0.000365209
0.000364851
0.000364528
0.00036424
0.000363987
0.000363769
0.000363587
0.000363441
0.000363331
0.000363258
0.000363223
0.000363225
0.000363267
0.000363348
0.000363469
0.000363632
0.000363836
0.000364083
0.000364373
0.000364707
0.000365086
0.00036551
0.000365979
0.000366494
0.000367054
0.000367661
0.000368314
0.000369012
0.000369755
0.000370542
0.000371372
0.000372244
0.000373156
0.000374107
0.000375093
0.000376112
0.000377162
0.000378239
0.000379338
0.000380455
0.000381587
0.000382726
0.000383868
0.000385005
0.000386132
0.00038724
0.000388322
0.000389369
0.000390372
0.000391321
0.000392207
0.000393019
0.000393746
0.000394376
0.000394899
0.000395301
0.00039557
0.000395695
0.000395662
0.000395458
0.000395069
0.000394483
0.000393684
0.00039266
0.000391395
0.00038987
0.000388072
0.000385989
0.000383607
0.000380915
0.000377898
0.000374543
0.000370832
0.00036675
0.000362276
0.000357388
0.00035206
0.000346264
0.000339964
0.00033312
0.000325686
0.000317602
0.0003088
0.000299191
0.000288663
0.000277068
0.000264204
0.000249792
0.000233428
0.000214526
0.000192227
0.000165268
0.000131865
8.97948e-05
3.86553e-05
1.43189e-06
7.66809e-07
2.9267e-05
7.35648e-05
0.000112701
0.000145789
0.000174064
0.000198595
0.00022016
0.000239312
0.000256453
0.000271882
0.000285827
0.000298467
0.000309947
0.000320388
0.000329893
0.000338553
0.000346445
0.000353642
0.000360205
0.000366193
0.000371656
0.000376638
0.000381179
0.000385317
0.00038909
0.000392535
0.000395683
0.000398561
0.000401192
0.000403597
0.000405793
0.000407793
0.000409611
0.000411254
0.000412733
0.000414055
0.000415225
0.00041625
0.000417133
0.000417881
0.000418497
0.000418985
0.00041935
0.000419596
0.000419726
0.000419746
0.000419659
0.00041947
0.000419184
0.000418804
0.000418337
0.000417785
0.000417155
0.00041645
0.000415674
0.000414832
0.000413927
0.000412963
0.000411942
0.000410869
0.000409745
0.000408574
0.00040736
0.000406109
0.000404826
0.000403517
0.000402186
0.000400839
0.000399479
0.000398111
0.000396738
0.000395365
0.000393995
0.000392632
0.000391279
0.00038994
0.000388618
0.000387315
0.000386035
0.000384779
0.000383552
0.000382353
0.000381186
0.000380053
0.000378954
0.00037789
0.000376864
0.000375875
0.000374924
0.000374011
0.000373137
0.000372302
0.000371505
0.000370747
0.000370027
0.000369345
0.0003687
0.000368093
0.000367522
0.000366987
0.000366488
0.000366025
0.000365597
0.000365204
0.000364846
0.000364522
0.000364234
0.000363981
0.000363763
0.000363581
0.000363435
0.000363325
0.000363252
0.000363216
0.000363219
0.00036326
0.000363341
0.000363463
0.000363625
0.00036383
0.000364076
0.000364367
0.000364701
0.000365079
0.000365503
0.000365972
0.000366487
0.000367048
0.000367655
0.000368307
0.000369005
0.000369748
0.000370536
0.000371366
0.000372238
0.00037315
0.0003741
0.000375087
0.000376106
0.000377156
0.000378233
0.000379332
0.00038045
0.000381581
0.00038272
0.000383862
0.000385
0.000386127
0.000387235
0.000388317
0.000389364
0.000390367
0.000391316
0.000392202
0.000393014
0.000393741
0.000394371
0.000394894
0.000395296
0.000395566
0.000395691
0.000395658
0.000395454
0.000395065
0.000394479
0.000393681
0.000392657
0.000391392
0.000389868
0.00038807
0.000385986
0.000383605
0.000380913
0.000377897
0.000374542
0.000370832
0.00036675
0.000362276
0.000357388
0.000352061
0.000346265
0.000339965
0.000333122
0.000325687
0.000317604
0.000308802
0.000299193
0.000288665
0.00027707
0.000264207
0.000249794
0.00023343
0.000214529
0.000192229
0.00016527
0.000131866
8.97959e-05
3.8656e-05
1.43188e-06
9.31114e-07
3.2524e-05
8.16084e-05
0.000125873
0.000163913
0.00019678
0.000225507
0.000250889
0.000273513
0.000293819
0.000312137
0.000328725
0.000343789
0.000357494
0.000369982
0.000381372
0.000391767
0.00040126
0.000409932
0.000417858
0.000425102
0.000431725
0.00043778
0.000443315
0.000448372
0.000452995
0.000457224
0.000461094
0.000464635
0.000467875
0.000470836
0.000473539
0.000476001
0.000478234
0.000480253
0.000482066
0.000483684
0.000485114
0.000486364
0.000487439
0.000488346
0.000489091
0.00048968
0.000490117
0.000490409
0.000490561
0.000490578
0.000490467
0.000490232
0.000489879
0.000489415
0.000488845
0.000488175
0.000487409
0.000486555
0.000485616
0.000484598
0.000483507
0.000482345
0.000481119
0.000479831
0.000478486
0.000477089
0.000475643