/*--------------------------------*- C++ -*----------------------------------*\
  =========                 |
  \\      /  F ield         | OpenFOAM: The Open Source CFD Toolbox
   \\    /   O peration     | Website:  https://openfoam.org
    \\  /    A nd           | Version:  8
     \\/     M anipulation  |
\*---------------------------------------------------------------------------*/
FoamFile
{
    version     2.0;
    format      ascii;
    class       surfaceScalarField;
    location    "1500";
    object      phi;
}
// * * * * * * * * * * * * * * * * * * * * * * * * * * * * * * * * * * * * * //

dimensions      [1 0 -1 0 0 0 0];

internalField   nonuniform List<scalar> 
114370
(
-1.81442e-10
-4.61427e-15
1.81447e-10
-5.30928e-10
-4.7578e-15
3.50064e-10
-8.99887e-10
-8.73757e-15
3.69425e-10
-1.18407e-09
-9.19167e-15
2.84573e-10
-1.34492e-09
-8.85654e-15
1.612e-10
-1.38114e-09
-8.18799e-15
3.65622e-11
-1.30701e-09
-7.60416e-15
-7.38189e-11
-1.14253e-09
-7.03489e-15
-1.64176e-10
-9.0862e-10
-6.38369e-15
-2.33614e-10
-6.24385e-10
-5.78454e-15
-2.83955e-10
-3.06762e-10
-5.25047e-15
-3.17356e-10
2.93624e-11
-4.72379e-15
-3.3587e-10
3.70948e-10
-4.09573e-15
-3.41343e-10
7.06943e-10
-3.4291e-15
-3.35766e-10
1.02834e-09
-2.84572e-15
-3.21185e-10
1.32763e-09
-2.33301e-15
-2.99091e-10
1.59865e-09
-1.86408e-15
-2.70842e-10
1.83647e-09
-1.39209e-15
-2.37652e-10
2.03725e-09
-8.88862e-16
-2.0062e-10
2.19814e-09
-3.36608e-16
-1.60749e-10
2.31722e-09
2.70739e-16
-1.18956e-10
2.39343e-09
9.17564e-16
-7.60913e-11
2.42648e-09
1.59562e-15
-3.29449e-11
2.41676e-09
2.29324e-15
9.80671e-12
2.36509e-09
3.00384e-15
5.1745e-11
2.27269e-09
3.73829e-15
9.24673e-11
2.14127e-09
4.48924e-15
1.31464e-10
1.97299e-09
5.2519e-15
1.68309e-10
1.77037e-09
6.01761e-15
2.02644e-10
1.53619e-09
6.77985e-15
2.34178e-10
1.2735e-09
7.52605e-15
2.62678e-10
9.85501e-10
8.25794e-15
2.87969e-10
6.75525e-10
8.97032e-15
3.09933e-10
3.46974e-10
9.64455e-15
3.28491e-10
3.26384e-12
1.02849e-14
3.43634e-10
-3.5199e-10
1.07471e-14
3.55162e-10
-7.15141e-10
1.10817e-14
3.63045e-10
-1.08283e-09
1.1406e-14
3.67571e-10
-1.45201e-09
1.16079e-14
3.69041e-10
-1.81987e-09
1.17336e-14
3.6771e-10
-2.1836e-09
1.18194e-14
3.63577e-10
-2.54063e-09
1.18323e-14
3.56852e-10
-2.88861e-09
1.17789e-14
3.47792e-10
-3.22537e-09
1.1689e-14
3.36561e-10
-3.549e-09
1.15628e-14
3.23419e-10
-3.85781e-09
1.13962e-14
3.08589e-10
-4.15036e-09
1.11949e-14
2.92316e-10
-4.42543e-09
1.09581e-14
2.7483e-10
-4.68204e-09
1.06991e-14
2.56359e-10
-4.91942e-09
1.04216e-14
2.37117e-10
-5.137e-09
1.01305e-14
2.1731e-10
-5.33441e-09
9.82909e-15
1.97128e-10
-5.51145e-09
9.51595e-15
1.76746e-10
-5.66807e-09
9.19586e-15
1.56322e-10
-5.80438e-09
8.87014e-15
1.36e-10
-5.9206e-09
8.53965e-15
1.15907e-10
-6.01707e-09
8.20785e-15
9.61516e-11
-6.09423e-09
7.87344e-15
7.68304e-11
-6.1526e-09
7.54077e-15
5.80236e-11
-6.19274e-09
7.20982e-15
3.97996e-11
-6.21531e-09
6.88321e-15
2.22171e-11
-6.221e-09
6.56268e-15
5.33254e-12
-6.21055e-09
6.24617e-15
-1.08095e-11
-6.18469e-09
5.94036e-15
-2.62247e-11
-6.14414e-09
5.64234e-15
-4.09257e-11
-6.08963e-09
5.35039e-15
-5.48912e-11
-6.02189e-09
5.06494e-15
-6.81177e-11
-5.94167e-09
4.78511e-15
-8.06102e-11
-5.84967e-09
4.50702e-15
-9.23813e-11
-5.74662e-09
4.23195e-15
-1.03449e-10
-5.63318e-09
3.96338e-15
-1.13833e-10
-5.51001e-09
3.6922e-15
-1.2356e-10
-5.37775e-09
3.42666e-15
-1.32656e-10
-5.237e-09
3.1611e-15
-1.41148e-10
-5.08833e-09
2.89815e-15
-1.49066e-10
-4.93229e-09
2.63518e-15
-1.56439e-10
-4.76938e-09
2.37438e-15
-1.63297e-10
-4.60011e-09
2.11444e-15
-1.69669e-10
-4.42491e-09
1.85622e-15
-1.75585e-10
-4.24423e-09
1.59757e-15
-1.81072e-10
-4.05846e-09
1.34151e-15
-1.86158e-10
-3.86797e-09
1.08502e-15
-1.90869e-10
-3.67312e-09
8.30257e-16
-1.95227e-10
-3.47422e-09
5.74189e-16
-1.9926e-10
-3.2716e-09
3.18118e-16
-2.02989e-10
-3.06553e-09
6.46471e-17
-2.06426e-10
-2.85628e-09
-1.90561e-16
-2.09604e-10
-2.64408e-09
-4.40133e-16
-2.12539e-10
-2.4292e-09
-6.89706e-16
-2.15215e-10
-2.21184e-09
-9.49687e-16
-2.17685e-10
-1.99216e-09
-1.20446e-15
-2.19993e-10
-1.77037e-09
-1.4458e-15
-2.22091e-10
-1.54674e-09
-1.67585e-15
-2.23919e-10
-1.32146e-09
-1.91934e-15
-2.25571e-10
-1.09459e-09
-2.17367e-15
-2.2714e-10
-8.66293e-10
-2.41065e-15
-2.28551e-10
-6.36757e-10
-2.64025e-15
-2.29781e-10
-4.06133e-10
-2.87722e-15
-2.30857e-10
-1.74547e-10
-3.0964e-15
-2.31805e-10
5.78073e-11
-3.32641e-15
-2.32559e-10
2.90666e-10
-3.54337e-15
-2.33049e-10
5.23828e-10
-3.70954e-15
-2.33336e-10
7.5714e-10
-3.86659e-15
-2.3347e-10
9.90447e-10
-4.00802e-15
-2.3345e-10
1.2236e-09
-4.12429e-15
-2.33277e-10
1.45644e-09
-4.22624e-15
-2.32952e-10
1.68882e-09
-4.31647e-15
-2.32477e-10
1.92059e-09
-4.39802e-15
-2.31854e-10
2.15161e-09
-4.46654e-15
-2.31085e-10
2.38174e-09
-4.51945e-15
-2.30174e-10
2.61083e-09
-4.56107e-15
-2.29125e-10
2.83875e-09
-4.59097e-15
-2.27943e-10
3.06538e-09
-4.60742e-15
-2.26635e-10
3.29059e-09
-4.61346e-15
-2.25205e-10
3.51427e-09
-4.60821e-15
-2.23663e-10
3.73632e-09
-4.59168e-15
-2.22015e-10
3.95664e-09
-4.563e-15
-2.2027e-10
4.17513e-09
-4.51957e-15
-2.18438e-10
4.39173e-09
-4.464e-15
-2.16528e-10
4.60636e-09
-4.39324e-15
-2.14551e-10
4.81896e-09
-4.30642e-15
-2.12519e-10
5.02951e-09
-4.2053e-15
-2.10442e-10
5.23795e-09
-4.08986e-15
-2.08334e-10
5.44427e-09
-3.9575e-15
-2.06206e-10
5.64846e-09
-3.80866e-15
-2.04072e-10
5.85054e-09
-3.64637e-15
-2.01944e-10
6.05051e-09
-3.4689e-15
-1.99836e-10
6.24841e-09
-3.27495e-15
-1.9776e-10
6.44429e-09
-3.06625e-15
-1.95731e-10
6.6382e-09
-2.84194e-15
-1.93761e-10
6.83021e-09
-2.60115e-15
-1.91863e-10
7.02042e-09
-2.34605e-15
-1.90048e-10
7.2089e-09
-2.07446e-15
-1.8833e-10
7.39578e-09
-1.7877e-15
-1.86718e-10
7.58116e-09
-1.48445e-15
-1.85222e-10
7.76517e-09
-1.16863e-15
-1.83852e-10
7.94794e-09
-8.36764e-16
-1.82615e-10
8.12961e-09
-4.8885e-16
-1.81517e-10
8.31032e-09
-1.27492e-16
-1.80561e-10
8.49022e-09
2.48611e-16
-1.79749e-10
8.66944e-09
6.39893e-16
-1.79079e-10
8.84812e-09
1.04332e-15
-1.78547e-10
9.0264e-09
1.46062e-15
-1.78144e-10
9.20438e-09
1.89354e-15
-1.77857e-10
9.38216e-09
2.33816e-15
-1.77668e-10
9.55982e-09
2.79709e-15
-1.77554e-10
9.73741e-09
3.26774e-15
-1.77484e-10
9.91491e-09
3.75009e-15
-1.7742e-10
1.00923e-08
4.24459e-15
-1.77317e-10
1.02695e-08
4.74863e-15
-1.7712e-10
1.04463e-08
5.26177e-15
-1.76764e-10
1.06225e-08
5.78663e-15
-1.76174e-10
1.07978e-08
6.31842e-15
-1.75263e-10
1.09718e-08
6.85672e-15
-1.73932e-10
1.11438e-08
7.40108e-15
-1.72068e-10
1.13133e-08
7.95196e-15
-1.69547e-10
1.14795e-08
8.50413e-15
-1.66231e-10
1.16415e-08
9.05935e-15
-1.61966e-10
1.1798e-08
9.61976e-15
-1.56587e-10
1.19478e-08
1.0181e-14
-1.49917e-10
1.20895e-08
1.07432e-14
-1.41767e-10
1.22213e-08
1.13108e-14
-1.31938e-10
1.23413e-08
1.18831e-14
-1.20224e-10
1.24476e-08
1.24633e-14
-1.06416e-10
1.25377e-08
1.30549e-14
-9.03061e-11
1.26092e-08
1.36559e-14
-7.16959e-11
1.26594e-08
1.42722e-14
-5.04073e-11
1.26854e-08
1.49031e-14
-2.62874e-11
1.26845e-08
1.55407e-14
6.94559e-13
1.26533e-08
1.6185e-14
3.08989e-11
1.25882e-08
1.68443e-14
6.47748e-11
1.24854e-08
1.75114e-14
1.02405e-10
1.23412e-08
1.81842e-14
1.43832e-10
1.21518e-08
1.88517e-14
1.89053e-10
1.19133e-08
1.95184e-14
2.38007e-10
1.16223e-08
2.01889e-14
2.90562e-10
1.12754e-08
2.08708e-14
3.46503e-10
1.08693e-08
2.15812e-14
4.05514e-10
1.04017e-08
2.23472e-14
4.67157e-10
9.87024e-09
2.32025e-14
5.30859e-10
9.27376e-09
2.41788e-14
5.95885e-10
8.61182e-09
2.53099e-14
6.61318e-10
7.88514e-09
2.66067e-14
7.26028e-10
7.09581e-09
2.80561e-14
7.88638e-10
6.2476e-09
2.96075e-14
8.4748e-10
5.34628e-09
3.11887e-14
9.00537e-10
4.40009e-09
3.27262e-14
9.45365e-10
3.42023e-09
3.4189e-14
9.78978e-10
2.4216e-09
3.56115e-14
9.97685e-10
1.42378e-09
3.70644e-14
9.96816e-10
4.52211e-10
3.85983e-14
9.70502e-10
-4.58509e-10
3.9693e-14
9.09586e-10
-1.26265e-09
4.01228e-14
8.02947e-10
-1.90406e-09
4.08579e-14
6.40193e-10
-2.31583e-09
4.22601e-14
4.10502e-10
-2.42291e-09
4.40432e-14
1.05754e-10
-2.15994e-09
4.56117e-14
-2.64357e-10
-1.52213e-09
4.65624e-14
-6.39314e-10
-6.61307e-10
4.51633e-14
-8.62486e-10
2.00648e-14
-6.63147e-10
-1.81332e-10
1.81555e-10
-5.30856e-10
3.50179e-10
-8.99842e-10
3.695e-10
-1.18404e-09
2.84626e-10
-1.34488e-09
1.61241e-10
-1.3811e-09
3.65955e-11
-1.30696e-09
-7.37906e-11
-1.14247e-09
-1.64152e-10
-9.08559e-10
-2.33592e-10
-6.24317e-10
-2.83936e-10
-3.06686e-10
-3.17339e-10
2.94459e-11
-3.35854e-10
3.71038e-10
-3.4133e-10
7.07038e-10
-3.35754e-10
1.02844e-09
-3.21175e-10
1.32773e-09
-2.99082e-10
1.59876e-09
-2.70834e-10
1.83659e-09
-2.37645e-10
2.03737e-09
-2.00614e-10
2.19827e-09
-1.60743e-10
2.31736e-09
-1.18951e-10
2.39357e-09
-7.60871e-11
2.42662e-09
-3.29414e-11
2.41691e-09
9.80969e-12
2.36524e-09
5.17475e-11
2.27284e-09
9.24694e-11
2.14142e-09
1.31465e-10
1.97315e-09
1.6831e-10
1.77053e-09
2.02645e-10
1.53635e-09
2.34177e-10
1.27366e-09
2.62676e-10
9.85666e-10
2.87967e-10
6.75691e-10
3.09929e-10
3.47141e-10
3.28487e-10
3.43127e-12
3.43628e-10
-3.51822e-10
3.55155e-10
-7.14973e-10
3.63036e-10
-1.08266e-09
3.6756e-10
-1.45184e-09
3.69029e-10
-1.8197e-09
3.67696e-10
-2.18344e-09
3.63561e-10
-2.54046e-09
3.56834e-10
-2.88844e-09
3.47771e-10
-3.2252e-09
3.36538e-10
-3.54883e-09
3.23394e-10
-3.85764e-09
3.08562e-10
-4.15019e-09
2.92287e-10
-4.42526e-09
2.74799e-10
-4.68187e-09
2.56325e-10
-4.91925e-09
2.37082e-10
-5.13683e-09
2.17273e-10
-5.33424e-09
1.97089e-10
-5.51128e-09
1.76705e-10
-5.6679e-09
1.56279e-10
-5.80421e-09
1.35956e-10
-5.92043e-09
1.1586e-10
-6.01691e-09
9.61037e-11
-6.09407e-09
7.67809e-11
-6.15243e-09
5.79726e-11
-6.19257e-09
3.97472e-11
-6.21514e-09
2.21633e-11
-6.22083e-09
5.27746e-12
-6.21039e-09
-1.08657e-11
-6.18453e-09
-2.6282e-11
-6.14398e-09
-4.09839e-11
-6.08946e-09
-5.49503e-11
-6.02173e-09
-6.81775e-11
-5.94151e-09
-8.06707e-11
-5.84951e-09
-9.24424e-11
-5.74646e-09
-1.0351e-10
-5.63302e-09
-1.13895e-10
-5.50985e-09
-1.23622e-10
-5.37759e-09
-1.32718e-10
-5.23684e-09
-1.4121e-10
-5.08818e-09
-1.49128e-10
-4.93214e-09
-1.56501e-10
-4.76923e-09
-1.63359e-10
-4.59996e-09
-1.69731e-10
-4.42477e-09
-1.75646e-10
-4.24408e-09
-1.81133e-10
-4.05831e-09
-1.86218e-10
-3.86783e-09
-1.90927e-10
-3.67298e-09
-1.95285e-10
-3.47409e-09
-1.99317e-10
-3.27147e-09
-2.03044e-10
-3.0654e-09
-2.0648e-10
-2.85615e-09
-2.09657e-10
-2.64395e-09
-2.12591e-10
-2.42907e-09
-2.15265e-10
-2.21171e-09
-2.17733e-10
-1.99204e-09
-2.20039e-10
-1.77025e-09
-2.22136e-10
-1.54663e-09
-2.23962e-10
-1.32135e-09
-2.25612e-10
-1.09448e-09
-2.27179e-10
-8.6619e-10
-2.28587e-10
-6.36657e-10
-2.29816e-10
-4.06036e-10
-2.30889e-10
-1.74454e-10
-2.31835e-10
5.78975e-11
-2.32587e-10
2.90753e-10
-2.33074e-10
5.23912e-10
-2.33359e-10
7.57221e-10
-2.33491e-10
9.90526e-10
-2.33468e-10
1.22367e-09
-2.33292e-10
1.45651e-09
-2.32965e-10
1.68889e-09
-2.32487e-10
1.92066e-09
-2.31861e-10
2.15168e-09
-2.3109e-10
2.3818e-09
-2.30177e-10
2.61089e-09
-2.29126e-10
2.83881e-09
-2.27942e-10
3.06543e-09
-2.26631e-10
3.29064e-09
-2.252e-10
3.51432e-09
-2.23655e-10
3.73637e-09
-2.22005e-10
3.95668e-09
-2.20259e-10
4.17518e-09
-2.18425e-10
4.39177e-09
-2.16513e-10
4.6064e-09
-2.14535e-10
4.819e-09
-2.12501e-10
5.02954e-09
-2.10423e-10
5.23798e-09
-2.08313e-10
5.4443e-09
-2.06184e-10
5.64849e-09
-2.04049e-10
5.85057e-09
-2.0192e-10
6.05054e-09
-1.99811e-10
6.24844e-09
-1.97735e-10
6.44431e-09
-1.95705e-10
6.63822e-09
-1.93735e-10
6.83024e-09
-1.91836e-10
7.02044e-09
-1.90021e-10
7.20893e-09
-1.88302e-10
7.3958e-09
-1.8669e-10
7.58118e-09
-1.85195e-10
7.76519e-09
-1.83825e-10
7.94796e-09
-1.82588e-10
8.12963e-09
-1.8149e-10
8.31034e-09
-1.80534e-10
8.49024e-09
-1.79723e-10
8.66946e-09
-1.79054e-10
8.84814e-09
-1.78522e-10
9.02642e-09
-1.7812e-10
9.2044e-09
-1.77834e-10
9.38218e-09
-1.77647e-10
9.55984e-09
-1.77534e-10
9.73742e-09
-1.77465e-10
9.91493e-09
-1.77402e-10
1.00923e-08
-1.77301e-10
1.02695e-08
-1.77106e-10
1.04463e-08
-1.76752e-10
1.06225e-08
-1.76163e-10
1.07978e-08
-1.75254e-10
1.09718e-08
-1.73925e-10
1.11438e-08
-1.72064e-10
1.13134e-08
-1.69546e-10
1.14796e-08
-1.66231e-10
1.16415e-08
-1.61969e-10
1.1798e-08
-1.56593e-10
1.19478e-08
-1.49926e-10
1.20895e-08
-1.41778e-10
1.22213e-08
-1.31952e-10
1.23414e-08
-1.20241e-10
1.24476e-08
-1.06436e-10
1.25377e-08
-9.0329e-11
1.26092e-08
-7.17217e-11
1.26594e-08
-5.04361e-11
1.26855e-08
-2.63192e-11
1.26845e-08
6.59901e-13
1.26533e-08
3.08613e-11
1.25882e-08
6.4734e-11
1.24855e-08
1.02361e-10
1.23413e-08
1.43785e-10
1.21518e-08
1.89003e-10
1.19134e-08
2.37953e-10
1.16224e-08
2.90506e-10
1.12754e-08
3.46444e-10
1.08694e-08
4.05452e-10
1.04017e-08
4.67092e-10
9.87028e-09
5.30791e-10
9.27381e-09
5.95814e-10
8.61187e-09
6.61244e-10
7.88518e-09
7.25951e-10
7.09585e-09
7.88557e-10
6.24764e-09
8.47395e-10
5.34632e-09
9.00447e-10
4.40012e-09
9.4527e-10
3.42025e-09
9.78876e-10
2.42162e-09
9.97576e-10
1.4238e-09
9.96699e-10
4.52219e-10
9.70377e-10
-4.58506e-10
9.09455e-10
-1.26264e-09
8.0281e-10
-1.90406e-09
6.40049e-10
-2.31584e-09
4.10349e-10
-2.42292e-09
1.0559e-10
-2.15997e-09
-2.64531e-10
-1.5222e-09
-6.39499e-10
-6.61454e-10
-8.62698e-10
-6.6338e-10
-3.43105e-10
-3.3402e-15
5.25118e-10
-7.37122e-10
-3.09904e-15
7.44962e-10
-9.98298e-10
-5.41756e-15
6.31178e-10
-1.11136e-09
-4.61099e-15
3.98096e-10
-1.08994e-09
-3.80971e-15
1.40181e-10
-9.53183e-10
-3.13945e-15
-9.98224e-11
-7.22358e-10
-2.65562e-15
-3.04298e-10
-4.17931e-10
-2.29204e-15
-4.68279e-10
-5.86481e-11
-1.97465e-15
-5.92592e-10
3.38185e-10
-1.71719e-15
-6.805e-10
7.57059e-10
-1.50649e-15
-7.35958e-10
1.18469e-09
-1.31648e-15
-7.63244e-10
1.6096e-09
-1.1526e-15
-7.66018e-10
2.02188e-09
-1.01444e-15
-7.47819e-10
2.4129e-09
-8.95627e-16
-7.12005e-10
2.77541e-09
-7.91068e-16
-6.61409e-10
3.10335e-09
-6.87437e-16
-5.98608e-10
3.39178e-09
-5.76395e-16
-5.25928e-10
3.63681e-09
-4.51118e-16
-4.45498e-10
3.83546e-09
-3.13453e-16
-3.59273e-10
3.98568e-09
-1.65682e-16
-2.69055e-10
4.0862e-09
-1.24727e-17
-1.76507e-10
4.13651e-09
1.40423e-16
-8.31573e-11
4.13676e-09
2.95381e-16
9.62576e-12
4.08783e-09
4.51768e-16
1.00743e-10
3.99113e-09
6.08282e-16
1.89213e-10
3.84858e-09
7.64264e-16
2.74042e-10
3.66254e-09
9.16893e-16
3.5436e-10
3.43577e-09
1.06291e-15
4.29418e-10
3.17135e-09
1.20135e-15
4.98585e-10
2.87265e-09
1.33014e-15
5.61348e-10
2.54326e-09
1.45351e-15
6.17311e-10
2.18695e-09
1.56669e-15
6.66185e-10
1.80758e-09
1.65353e-15
7.07776e-10
1.40912e-09
1.72564e-15
7.42002e-10
9.9545e-10
1.78809e-15
7.68724e-10
5.70399e-10
1.83667e-15
7.87973e-10
1.37762e-10
1.87648e-15
8.00068e-10
-2.98616e-10
1.88766e-15
8.05267e-10
-7.34904e-10
1.88801e-15
8.03831e-10
-1.16773e-09
1.87732e-15
7.96225e-10
-1.59408e-09
1.84203e-15
7.83012e-10
-2.01111e-09
1.79602e-15
7.64612e-10
-2.41621e-09
1.74015e-15
7.41445e-10
-2.80705e-09
1.67551e-15
7.14025e-10
-3.18153e-09
1.60339e-15
6.82825e-10
-3.53782e-09
1.52316e-15
6.48355e-10
-3.87436e-09
1.4361e-15
6.11104e-10
-4.18983e-09
1.34482e-15
5.71554e-10
-4.48317e-09
1.24878e-15
5.30169e-10
-4.75354e-09
1.14971e-15
4.87388e-10
-5.00034e-09
1.04684e-15
4.43622e-10
-5.22317e-09
9.41386e-16
3.99253e-10
-5.4218e-09
8.33005e-16
3.5463e-10
-5.5962e-09
7.22675e-16
3.10069e-10
-5.74649e-09
6.09963e-16
2.6585e-10
-5.87291e-09
4.96386e-16
2.22223e-10
-5.97584e-09
3.8216e-16
1.79402e-10
-6.05575e-09
2.66418e-16
1.37572e-10
-6.11321e-09
1.50351e-16
9.68862e-11
-6.14885e-09
3.52583e-17
5.74738e-11
-6.16334e-09
-7.8864e-17
1.94392e-11
-6.15741e-09
-1.9205e-16
-1.71233e-11
-6.13188e-09
-3.03789e-16
-5.21598e-11
-6.08755e-09
-4.12489e-16
-8.56495e-11
-6.02528e-09
-5.21191e-16
-1.17572e-10
-5.94588e-09
-6.28702e-16
-1.47923e-10
-5.85019e-09
-7.34807e-16
-1.76711e-10
-5.73903e-09
-8.40046e-16
-2.03956e-10
-5.61321e-09
-9.43662e-16
-2.2969e-10
-5.47351e-09
-1.04576e-15
-2.53952e-10
-5.3207e-09
-1.14635e-15
-2.76787e-10
-5.15553e-09
-1.24455e-15
-2.98245e-10
-4.97872e-09
-1.3407e-15
-3.18381e-10
-4.79095e-09
-1.43446e-15
-3.3725e-10
-4.5929e-09
-1.52508e-15
-3.5491e-10
-4.38519e-09
-1.61256e-15
-3.71418e-10
-4.16844e-09
-1.69755e-15
-3.86833e-10
-3.94323e-09
-1.77821e-15
-4.01212e-10
-3.71009e-09
-1.85583e-15
-4.14609e-10
-3.46957e-09
-1.92955e-15
-4.27079e-10
-3.22216e-09
-2.00002e-15
-4.38674e-10
-2.96834e-09
-2.06572e-15
-4.4944e-10
-2.70855e-09
-2.12741e-15
-4.59429e-10
-2.44324e-09
-2.1839e-15
-4.68683e-10
-2.1728e-09
-2.2342e-15
-4.77231e-10
-1.89763e-09
-2.2818e-15
-4.85134e-10
-1.61808e-09
-2.3243e-15
-4.92429e-10
-1.33453e-09
-2.36137e-15
-4.99104e-10
-1.04733e-09
-2.39736e-15
-5.05221e-10
-7.56786e-10
-2.42793e-15
-5.1085e-10
-4.63213e-10
-2.44754e-15
-5.15971e-10
-1.66847e-10
-2.45956e-15
-5.20579e-10
1.31968e-10
-2.47374e-15
-5.24668e-10
4.32794e-10
-2.47934e-15
-5.28233e-10
7.35312e-10
-2.468e-15
-5.31323e-10
1.03926e-09
-2.4533e-15
-5.33967e-10
1.34435e-09
-2.4374e-15
-5.36176e-10
1.6503e-09
-2.41639e-15
-5.37961e-10
1.95682e-09
-2.39018e-15
-5.3928e-10
2.26369e-09
-2.35963e-15
-5.40094e-10
2.57065e-09
-2.32311e-15
-5.40458e-10
2.87745e-09
-2.28137e-15
-5.40414e-10
3.18384e-09
-2.23226e-15
-5.39972e-10
3.48959e-09
-2.1788e-15
-5.3914e-10
3.79447e-09
-2.12285e-15
-5.37926e-10
4.09825e-09
-2.06591e-15
-5.36338e-10
4.40072e-09
-2.00745e-15
-5.34386e-10
4.70167e-09
-1.94648e-15
-5.32079e-10
5.00089e-09
-1.88487e-15
-5.29429e-10
5.2982e-09
-1.82151e-15
-5.26449e-10
5.5934e-09
-1.75868e-15
-5.23154e-10
5.88634e-09
-1.69499e-15
-5.19558e-10
6.17684e-09
-1.63216e-15
-5.15681e-10
6.46475e-09
-1.56975e-15
-5.11539e-10
6.74994e-09
-1.50745e-15
-5.07153e-10
7.03228e-09
-1.44623e-15
-5.02544e-10
7.31165e-09
-1.38479e-15
-4.97735e-10
7.58796e-09
-1.32433e-15
-4.9275e-10
7.86112e-09
-1.26472e-15
-4.87614e-10
8.13106e-09
-1.20588e-15
-4.82354e-10
8.39773e-09
-1.14746e-15
-4.76995e-10
8.66109e-09
-1.09034e-15
-4.71567e-10
8.92111e-09
-1.03431e-15
-4.66097e-10
9.17779e-09
-9.80553e-16
-4.60616e-10
9.43115e-09
-9.27661e-16
-4.55152e-10
9.6812e-09
-8.7596e-16
-4.49735e-10
9.92799e-09
-8.25776e-16
-4.44395e-10
1.01716e-08
-7.77544e-16
-4.39161e-10
1.0412e-08
-7.30937e-16
-4.34063e-10
1.06495e-08
-6.85414e-16
-4.29127e-10
1.0884e-08
-6.41518e-16
-4.24383e-10
1.11157e-08
-5.99789e-16
-4.19854e-10
1.13447e-08
-5.59362e-16
-4.15566e-10
1.15712e-08
-5.20452e-16
-4.11539e-10
1.17953e-08
-4.83386e-16
-4.07793e-10
1.20172e-08
-4.4838e-16
-4.04344e-10
1.2237e-08
-4.14675e-16
-4.01204e-10
1.2455e-08
-3.83248e-16
-3.98381e-10
1.26713e-08
-3.52905e-16
-3.95875e-10
1.2886e-08
-3.2473e-16
-3.93684e-10
1.30994e-08
-2.98725e-16
-3.91796e-10
1.33116e-08
-2.7337e-16
-3.90191e-10
1.35227e-08
-2.50509e-16
-3.88839e-10
1.37328e-08
-2.28624e-16
-3.87701e-10
1.39421e-08
-2.08908e-16
-3.86722e-10
1.41506e-08
-1.90818e-16
-3.85837e-10
1.43582e-08
-1.74029e-16
-3.84962e-10
1.45649e-08
-1.59518e-16
-3.83997e-10
1.47707e-08
-1.46308e-16
-3.82825e-10
1.49753e-08
-1.35158e-16
-3.81304e-10
1.51784e-08
-1.26068e-16
-3.79274e-10
1.53797e-08
-1.18279e-16
-3.76548e-10
1.55787e-08
-1.13202e-16
-3.72915e-10
1.57747e-08
-1.09208e-16
-3.68138e-10
1.59671e-08
-1.07817e-16
-3.61953e-10
1.61549e-08
-1.07836e-16
-3.54067e-10
1.6337e-08
-1.10024e-16
-3.44162e-10
1.65122e-08
-1.13513e-16
-3.31891e-10
1.66791e-08
-1.18845e-16
-3.16884e-10
1.68359e-08
-1.24938e-16
-2.98748e-10
1.69809e-08
-1.31139e-16
-2.77067e-10
1.71119e-08
-1.36907e-16
-2.51414e-10
1.72266e-08
-1.41159e-16
-2.2135e-10
1.73225e-08
-1.43676e-16
-1.86433e-10
1.73968e-08
-1.4446e-16
-1.46229e-10
1.74465e-08
-1.41125e-16
-1.00322e-10
1.74682e-08
-1.35623e-16
-4.83176e-11
1.74585e-08
-1.28061e-16
1.0113e-11
1.74136e-08
-1.18979e-16
7.54634e-11
1.73298e-08
-1.08488e-16
1.48248e-10
1.7203e-08
-9.83244e-17
2.28738e-10
1.70294e-08
-9.13076e-17
3.17098e-10
1.68046e-08
-8.7112e-17
4.13374e-10
1.65246e-08
-8.61714e-17
5.17484e-10
1.61855e-08
-8.62091e-17
6.29199e-10
1.57834e-08
-8.55992e-17
7.48114e-10
1.53147e-08
-7.95718e-17
8.73615e-10
1.47764e-08
-6.27065e-17
1.00485e-09
1.4166e-08
-2.81737e-17
1.1407e-09
1.34815e-08
3.04227e-17
1.27971e-09
1.2722e-08
1.15575e-16
1.42007e-09
1.18878e-08
2.23163e-16
1.55954e-09
1.09803e-08
3.37464e-16
1.6954e-09
1.00026e-08
4.3159e-16
1.82435e-09
8.95987e-09
4.76375e-16
1.94239e-09
7.85962e-09
4.52197e-16
2.0447e-09
6.7122e-09
3.65565e-16
2.12542e-09
5.53143e-09
2.40227e-16
2.17741e-09
4.3354e-09
1.12406e-16
2.19175e-09
3.14734e-09
1.05206e-17
2.15738e-09
1.99604e-09
-2.37775e-17
2.05965e-09
9.16832e-10
9.04254e-17
1.88086e-09
-4.63209e-11
3.59756e-16
1.60199e-09
-8.37953e-10
7.6732e-16
1.2007e-09
-1.39446e-09
1.34411e-15
6.60722e-10
-1.64146e-09
2.16693e-15
-1.90463e-11
-1.49233e-09
3.12867e-15
-7.90384e-10
-8.61468e-10
2.24933e-15
-1.49575e-09
-2.25196e-14
-1.52627e-09
-3.42988e-10
5.25195e-10
-7.37043e-10
7.45032e-10
-9.98239e-10
6.31205e-10
-1.11131e-09
3.98098e-10
-1.08988e-09
1.4017e-10
-9.53122e-10
-9.98396e-11
-7.22291e-10
-3.04318e-10
-4.17856e-10
-4.68301e-10
-5.85657e-11
-5.92614e-10
3.38274e-10
-6.80521e-10
7.57155e-10
-7.35979e-10
1.18479e-09
-7.63264e-10
1.60971e-09
-7.66038e-10
2.02199e-09
-7.47837e-10
2.41302e-09
-7.12023e-10
2.77553e-09
-6.61426e-10
3.10348e-09
-5.98624e-10
3.39192e-09
-5.25943e-10
3.63694e-09
-4.45512e-10
3.8356e-09
-3.59286e-10
3.98582e-09
-2.69067e-10
4.08635e-09
-1.76518e-10
4.13665e-09
-8.31664e-11
4.13691e-09
9.61805e-12
4.08798e-09
1.00737e-10
3.99128e-09
1.89208e-10
3.84874e-09
2.74038e-10
3.6627e-09
3.54359e-10
3.43593e-09
4.29418e-10
3.17151e-09
4.98586e-10
2.87281e-09
5.61351e-10
2.54343e-09
6.17315e-10
2.18711e-09
6.6619e-10
1.80775e-09
7.07783e-10
1.40929e-09
7.42009e-10
9.95622e-10
7.68732e-10
5.70572e-10
7.87981e-10
1.37937e-10
8.00076e-10
-2.98439e-10
8.05275e-10
-7.34726e-10
8.03839e-10
-1.16755e-09
7.96232e-10
-1.5939e-09
7.83019e-10
-2.01093e-09
7.64618e-10
-2.41603e-09
7.4145e-10
-2.80686e-09
7.14029e-10
-3.18134e-09
6.82829e-10
-3.53763e-09
6.48358e-10
-3.87417e-09
6.11105e-10
-4.18964e-09
5.71555e-10
-4.48297e-09
5.30169e-10
-4.75334e-09
4.87387e-10
-5.00014e-09
4.4362e-10
-5.22296e-09
3.9925e-10
-5.4216e-09
3.54627e-10
-5.596e-09
3.10064e-10
-5.74628e-09
2.65845e-10
-5.8727e-09
2.22217e-10
-5.97563e-09
1.79396e-10
-6.05555e-09
1.37564e-10
-6.11301e-09
9.68781e-11
-6.14864e-09
5.74651e-11
-6.16313e-09
1.94298e-11
-6.15721e-09
-1.71333e-11
-6.13167e-09
-5.21704e-11
-6.08735e-09
-8.56605e-11
-6.02507e-09
-1.17584e-10
-5.94568e-09
-1.47935e-10
-5.84999e-09
-1.76723e-10
-5.73884e-09
-2.03968e-10
-5.61301e-09
-2.29702e-10
-5.47332e-09
-2.53965e-10
-5.32051e-09
-2.768e-10
-5.15534e-09
-2.98259e-10
-4.97853e-09
-3.18394e-10
-4.79077e-09
-3.37263e-10
-4.59272e-09
-3.54923e-10
-4.38502e-09
-3.71432e-10
-4.16827e-09
-3.86847e-10
-3.94305e-09
-4.01225e-10
-3.70993e-09
-4.14622e-10
-3.46941e-09
-4.27092e-10
-3.222e-09
-4.38687e-10
-2.96818e-09
-4.49452e-10
-2.7084e-09
-4.5944e-10
-2.44308e-09
-4.68695e-10
-2.17265e-09
-4.77242e-10
-1.89748e-09
-4.85145e-10
-1.61794e-09
-4.9244e-10
-1.33439e-09
-4.99114e-10
-1.04719e-09
-5.05231e-10
-7.56653e-10
-5.1086e-10
-4.63083e-10
-5.15979e-10
-1.6672e-10
-5.20587e-10
1.32092e-10
-5.24675e-10
4.32914e-10
-5.2824e-10
7.3543e-10
-5.3133e-10
1.03937e-09
-5.33974e-10
1.34446e-09
-5.36181e-10
1.65041e-09
-5.37966e-10
1.95693e-09
-5.39284e-10
2.26379e-09
-5.40098e-10
2.57075e-09
-5.40462e-10
2.87755e-09
-5.40417e-10
3.18394e-09
-5.39974e-10
3.48969e-09
-5.39142e-10
3.79456e-09
-5.37928e-10
4.09834e-09
-5.3634e-10
4.40081e-09
-5.34386e-10
4.70175e-09
-5.32079e-10
5.00097e-09
-5.29429e-10
5.29828e-09
-5.26448e-10
5.59348e-09
-5.23152e-10
5.88641e-09
-5.19557e-10
6.17691e-09
-5.15678e-10
6.46482e-09
-5.11536e-10
6.75001e-09
-5.0715e-10
7.03234e-09
-5.02541e-10
7.31172e-09
-4.97732e-10
7.58802e-09
-4.92747e-10
7.86118e-09
-4.87611e-10
8.13112e-09
-4.8235e-10
8.39779e-09
-4.76991e-10
8.66115e-09
-4.71562e-10
8.92117e-09
-4.66093e-10
9.17785e-09
-4.60611e-10
9.4312e-09
-4.55146e-10
9.68125e-09
-4.49729e-10
9.92804e-09
-4.44389e-10
1.01716e-08
-4.39155e-10
1.04121e-08
-4.34057e-10
1.06495e-08
-4.29122e-10
1.0884e-08
-4.24377e-10
1.11157e-08
-4.19848e-10
1.13447e-08
-4.1556e-10
1.15712e-08
-4.11533e-10
1.17953e-08
-4.07787e-10
1.20172e-08
-4.04338e-10
1.22371e-08
-4.01198e-10
1.2455e-08
-3.98375e-10
1.26713e-08
-3.95869e-10
1.28861e-08
-3.93679e-10
1.30995e-08
-3.9179e-10
1.33116e-08
-3.90185e-10
1.35227e-08
-3.88834e-10
1.37329e-08
-3.87695e-10
1.39422e-08
-3.86717e-10
1.41506e-08
-3.85832e-10
1.43582e-08
-3.84957e-10
1.4565e-08
-3.83993e-10
1.47707e-08
-3.82821e-10
1.49753e-08
-3.81301e-10
1.51785e-08
-3.7927e-10
1.53798e-08
-3.76545e-10
1.55787e-08
-3.72912e-10
1.57748e-08
-3.68136e-10
1.59671e-08
-3.61951e-10
1.61549e-08
-3.54065e-10
1.6337e-08
-3.4416e-10
1.65123e-08
-3.3189e-10
1.66791e-08
-3.16884e-10
1.6836e-08
-2.98748e-10
1.69809e-08
-2.77068e-10
1.7112e-08
-2.51415e-10
1.72267e-08
-2.21352e-10
1.73226e-08
-1.86435e-10
1.73969e-08
-1.46232e-10
1.74465e-08
-1.00325e-10
1.74683e-08
-4.83209e-11
1.74586e-08
1.01095e-11
1.74136e-08
7.54596e-11
1.73298e-08
1.48244e-10
1.72031e-08
2.28734e-10
1.70294e-08
3.17094e-10
1.68046e-08
4.13369e-10
1.65247e-08
5.1748e-10
1.61856e-08
6.29196e-10
1.57834e-08
7.4811e-10
1.53148e-08
8.73612e-10
1.47765e-08
1.00485e-09
1.4166e-08
1.1407e-09
1.34815e-08
1.27971e-09
1.27221e-08
1.42007e-09
1.18879e-08
1.55954e-09
1.09803e-08
1.6954e-09
1.00026e-08
1.82435e-09
8.95991e-09
1.94239e-09
7.85966e-09
2.0447e-09
6.71223e-09
2.12543e-09
5.53146e-09
2.17741e-09
4.33542e-09
2.19175e-09
3.14736e-09
2.15738e-09
1.99605e-09
2.05965e-09
9.16841e-10
1.88085e-09
-4.63162e-11
1.60198e-09
-8.37952e-10
1.20069e-09
-1.39446e-09
6.60702e-10
-1.64147e-09
-1.90738e-11
-1.49238e-09
-7.90421e-10
-8.61619e-10
-1.4958e-09
-1.52633e-09
-3.49109e-10
-5.66921e-15
8.74675e-10
-5.99889e-10
-4.40997e-15
9.96321e-10
-6.78048e-10
-5.40769e-15
7.09606e-10
-6.29245e-10
-4.17134e-15
3.49474e-10
-4.82674e-10
-3.24184e-15
-6.24138e-12
-2.57251e-10
-2.58435e-15
-3.25118e-10
3.17641e-11
-2.16689e-15
-5.932e-10
3.70831e-10
-1.84514e-15
-8.07245e-10
7.47147e-10
-1.54346e-15
-9.68816e-10
1.14873e-09
-1.30409e-15
-1.08199e-09
1.56445e-09
-1.14252e-15
-1.15161e-09
1.98403e-09
-1.03063e-15
-1.18276e-09
2.39827e-09
-9.38655e-16
-1.18019e-09
2.79893e-09
-8.51267e-16
-1.14842e-09
3.17864e-09
-7.68484e-16
-1.09166e-09
3.53102e-09
-6.91836e-16
-1.01374e-09
3.85062e-09
-6.20573e-16
-9.1816e-10
4.13289e-09
-5.51448e-16
-8.08153e-10
4.37414e-09
-4.80403e-16
-6.86709e-10
4.57151e-09
-4.06574e-16
-5.56605e-10
4.7229e-09
-3.29259e-16
-4.20421e-10
4.82698e-09
-2.49492e-16
-2.80554e-10
4.88305e-09
-1.68034e-16
-1.3921e-10
4.8911e-09
-8.61345e-17
1.60358e-12
4.85172e-09
-3.79573e-18
1.40134e-10
4.76613e-09
7.98035e-17
2.74817e-10
4.636e-09
1.64059e-16
4.04182e-10
4.46345e-09
2.48155e-16
5.26921e-10
4.25097e-09
3.29651e-16
6.41891e-10
4.00144e-09
4.0806e-16
7.48119e-10
3.71798e-09
4.83869e-16
8.44804e-10
3.40397e-09
5.58433e-16
9.31312e-10
3.06296e-09
6.26821e-16
1.00717e-09
2.69866e-09
6.86862e-16
1.07206e-09
2.31483e-09
7.45009e-16
1.12581e-09
1.9152e-09
7.96817e-16
1.16833e-09
1.50343e-09
8.38165e-16
1.19971e-09
1.08324e-09
8.75614e-16
1.22022e-09
6.58238e-10
9.07968e-16
1.23023e-09
2.31869e-10
9.36587e-16
1.23016e-09
-1.92529e-10
9.55397e-16
1.22058e-09
-6.11691e-10
9.66242e-16
1.20213e-09
-1.02266e-09
9.77366e-16
1.17553e-09
-1.42284e-09
9.81393e-16
1.14157e-09
-1.80986e-09
9.80764e-16
1.10099e-09
-2.1816e-09
9.75694e-16
1.0545e-09
-2.53617e-09
9.66942e-16
1.00286e-09
-2.87194e-09
9.5646e-16
9.46809e-10
-3.18753e-09
9.43761e-16
8.87065e-10
-3.48176e-09
9.28029e-16
8.24331e-10
-3.75372e-09
9.10188e-16
7.59272e-10
-4.0027e-09
8.90615e-16
6.92517e-10
-4.22818e-09
8.68985e-16
6.24651e-10
-4.42985e-09
8.4492e-16
5.56209e-10
-4.60755e-09
8.19068e-16
4.87682e-10
-4.76129e-09
7.91321e-16
4.19507e-10
-4.89124e-09
7.61516e-16
3.52073e-10
-4.99765e-09
7.296e-16
2.85721e-10
-5.08092e-09
6.96383e-16
2.20743e-10
-5.14152e-09
6.61597e-16
1.57387e-10
-5.18e-09
6.26052e-16
9.58597e-11
-5.197e-09
5.8975e-16
3.63301e-11
-5.19317e-09
5.51224e-16
-2.10573e-11
-5.16924e-09
5.10694e-16
-7.61938e-11
-5.12598e-09
4.69405e-16
-1.29015e-10
-5.06418e-09
4.2687e-16
-1.79482e-10
-4.98463e-09
3.82762e-16
-2.27581e-10
-4.88814e-09
3.37515e-16
-2.73316e-10
-4.77549e-09
2.90858e-16
-3.16711e-10
-4.64749e-09
2.42954e-16
-3.57805e-10
-4.50491e-09
1.94073e-16
-3.96647e-10
-4.34851e-09
1.44271e-16
-4.33299e-10
-4.17904e-09
9.42505e-17
-4.67829e-10
-3.99722e-09
4.3579e-17
-5.00312e-10
-3.80376e-09
-7.58116e-18
-5.30828e-10
-3.59932e-09
-5.8959e-17
-5.59457e-10
-3.38457e-09
-1.10771e-16
-5.86283e-10
-3.16012e-09
-1.62584e-16
-6.11388e-10
-2.92659e-09
-2.14615e-16
-6.34855e-10
-2.68454e-09
-2.6605e-16
-6.56764e-10
-2.43454e-09
-3.16835e-16
-6.77194e-10
-2.1771e-09
-3.67241e-16
-6.96221e-10
-1.91273e-09
-4.16238e-16
-7.13913e-10
-1.64191e-09
-4.64529e-16
-7.30346e-10
-1.36511e-09
-5.12225e-16
-7.45589e-10
-1.08275e-09
-5.58239e-16
-7.59681e-10
-7.95278e-10
-6.02301e-16
-7.72703e-10
-5.03083e-10
-6.45874e-16
-7.84718e-10
-2.06526e-10
-6.87495e-16
-7.95751e-10
9.39935e-11
-7.28355e-16
-8.05827e-10
3.98024e-10
-7.67583e-16
-8.14965e-10
7.05179e-10
-8.01927e-16
-8.23206e-10
1.01512e-09
-8.34535e-16
-8.30593e-10
1.32749e-09
-8.66057e-16
-8.37119e-10
1.64199e-09
-8.96005e-16
-8.42796e-10
1.95827e-09
-9.21559e-16
-8.47676e-10
2.27604e-09
-9.44942e-16
-8.51793e-10
2.59497e-09
-9.66642e-16
-8.55162e-10
2.91475e-09
-9.84708e-16
-8.57797e-10
3.2351e-09
-1.00223e-15
-8.59687e-10
3.5558e-09
-1.02023e-15
-8.60831e-10
3.87656e-09
-1.03634e-15
-8.61267e-10
4.19714e-09
-1.04951e-15
-8.61025e-10
4.51726e-09
-1.06046e-15
-8.60127e-10
4.83667e-09
-1.06919e-15
-8.58588e-10
5.15515e-09
-1.07709e-15
-8.56424e-10
5.47244e-09
-1.08337e-15
-8.53654e-10
5.78833e-09
-1.08862e-15
-8.50293e-10
6.1026e-09
-1.09174e-15
-8.4636e-10
6.41504e-09
-1.09384e-15
-8.41877e-10
6.72545e-09
-1.09506e-15
-8.36865e-10
7.03364e-09
-1.09558e-15
-8.31349e-10
7.33944e-09
-1.09528e-15
-8.25356e-10
7.64268e-09
-1.09455e-15
-8.18913e-10
7.9432e-09
-1.09295e-15
-8.1205e-10
8.24086e-09
-1.09074e-15
-8.04801e-10
8.53553e-09
-1.08773e-15
-7.972e-10
8.8271e-09
-1.08411e-15
-7.89282e-10
9.11545e-09
-1.08022e-15
-7.81086e-10
9.40052e-09
-1.07568e-15
-7.72652e-10
9.68221e-09
-1.07065e-15
-7.64021e-10
9.96048e-09