/*--------------------------------*- C++ -*----------------------------------*\
  =========                 |
  \\      /  F ield         | OpenFOAM: The Open Source CFD Toolbox
   \\    /   O peration     | Website:  https://openfoam.org
    \\  /    A nd           | Version:  8
     \\/     M anipulation  |
\*---------------------------------------------------------------------------*/
FoamFile
{
    version     2.0;
    format      ascii;
    class       volScalarField;
    location    "1500";
    object      T;
}
// * * * * * * * * * * * * * * * * * * * * * * * * * * * * * * * * * * * * * //

dimensions      [0 0 0 1 0 0 0];

internalField   nonuniform List<scalar> 
46000
(
311.508
311.146
310.65
310.209
309.841
309.533
309.27
309.047
308.858
308.699
308.563
308.449
308.352
308.271
308.203
308.148
308.103
308.067
308.04
308.02
308.007
307.999
307.997
307.998
308.001
308.007
308.016
308.028
308.042
308.057
308.073
308.091
308.109
308.127
308.145
308.163
308.181
308.198
308.215
308.23
308.245
308.258
308.271
308.282
308.293
308.302
308.31
308.318
308.325
308.331
308.336
308.341
308.346
308.349
308.353
308.356
308.36
308.363
308.366
308.369
308.372
308.374
308.377
308.379
308.382
308.385
308.387
308.391
308.394
308.398
308.402
308.406
308.41
308.414
308.419
308.424
308.428
308.433
308.438
308.443
308.448
308.453
308.458
308.463
308.467
308.472
308.476
308.481
308.485
308.489
308.492
308.496
308.499
308.502
308.504
308.507
308.509
308.511
308.513
308.514
308.516
308.517
308.517
308.518
308.518
308.518
308.518
308.518
308.517
308.517
308.516
308.514
308.513
308.512
308.51
308.508
308.506
308.503
308.501
308.498
308.495
308.492
308.489
308.485
308.481
308.477
308.473
308.468
308.464
308.459
308.453
308.448
308.442
308.436
308.429
308.423
308.416
308.409
308.401
308.394
308.386
308.378
308.37
308.362
308.353
308.345
308.337
308.329
308.321
308.313
308.306
308.299
308.292
308.287
308.282
308.278
308.275
308.273
308.273
308.274
308.277
308.281
308.288
308.297
308.309
308.324
308.341
308.362
308.386
308.413
308.443
308.477
308.516
308.559
308.606
308.659
308.717
308.781
308.85
308.925
309.006
309.094
309.187
309.287
309.392
309.504
309.62
309.742
309.867
309.996
310.126
310.259
310.393
310.526
310.665
310.814
310.981
311.187
311.463
311.722
311.508
311.146
310.65
310.209
309.841
309.533
309.27
309.047
308.858
308.699
308.563
308.449
308.351
308.271
308.203
308.148
308.103
308.067
308.04
308.02
308.007
307.999
307.997
307.998
308.001
308.007
308.016
308.028
308.042
308.057
308.073
308.091
308.109
308.127
308.145
308.163
308.181
308.198
308.215
308.23
308.245
308.258
308.271
308.282
308.292
308.302
308.31
308.318
308.325
308.331
308.336
308.341
308.345
308.349
308.353
308.356
308.36
308.363
308.366
308.369
308.372
308.374
308.377
308.379
308.382
308.385
308.387
308.391
308.394
308.398
308.402
308.406
308.41
308.414
308.419
308.424
308.428
308.433
308.438
308.443
308.448
308.453
308.458
308.463
308.468
308.472
308.476
308.481
308.485
308.489
308.492
308.496
308.499
308.502
308.505
308.507
308.509
308.511
308.513
308.514
308.516
308.517
308.517
308.518
308.518
308.518
308.518
308.518
308.517
308.517
308.516
308.514
308.513
308.512
308.51
308.508
308.506
308.503
308.501
308.498
308.495
308.492
308.489
308.485
308.481
308.477
308.473
308.469
308.464
308.459
308.453
308.448
308.442
308.436
308.429
308.423
308.416
308.409
308.401
308.394
308.386
308.378
308.37
308.362
308.353
308.345
308.337
308.329
308.321
308.313
308.306
308.299
308.292
308.287
308.282
308.278
308.275
308.273
308.273
308.274
308.277
308.281
308.288
308.297
308.309
308.324
308.341
308.362
308.386
308.413
308.443
308.477
308.516
308.559
308.606
308.659
308.717
308.781
308.85
308.925
309.006
309.094
309.187
309.287
309.392
309.504
309.62
309.742
309.867
309.996
310.126
310.259
310.393
310.526
310.665
310.814
310.981
311.187
311.463
311.722
308.64
308.044
307.383
306.847
306.42
306.076
305.798
305.574
305.391
305.242
305.121
305.023
304.944
304.883
304.836
304.801
304.777
304.763
304.757
304.759
304.767
304.781
304.799
304.822
304.848
304.877
304.908
304.941
304.975
305.011
305.047
305.083
305.119
305.154
305.189
305.222
305.254
305.284
305.313
305.339
305.364
305.387
305.407
305.426
305.442
305.456
305.469
305.48
305.489
305.497
305.503
305.508
305.511
305.514
305.516
305.517
305.517
305.517
305.516
305.515
305.513
305.512
305.51
305.508
305.506
305.504
305.502
305.5
305.499
305.498
305.497
305.496
305.495
305.495
305.495
305.496
305.496
305.497
305.498
305.5
305.502
305.504
305.506
305.509
305.511
305.514
305.518
305.521
305.525
305.529
305.533
305.537
305.542
305.547
305.552
305.557
305.562
305.567
305.573
305.579
305.584
305.59
305.597
305.603
305.609
305.616
305.622
305.629
305.635
305.642
305.649
305.656
305.663
305.67
305.676
305.683
305.69
305.697
305.704
305.71
305.717
305.723
305.729
305.735
305.741
305.747
305.752
305.758
305.763
305.768
305.772
305.776
305.781
305.784
305.788
305.791
305.794
305.796
305.799
305.801
305.803
305.804
305.806
305.807
305.808
305.809
305.81
305.812
305.813
305.814
305.816
305.818
305.82
305.824
305.827
305.832
305.837
305.844
305.852
305.861
305.872
305.885
305.9
305.916
305.936
305.957
305.982
306.009
306.04
306.074
306.112
306.154
306.199
306.25
306.305
306.365
306.431
306.503
306.58
306.663
306.753
306.849
306.951
307.06
307.176
307.297
307.424
307.555
307.69
307.827
307.964
308.101
308.236
308.367
308.498
308.631
308.782
308.959
309.19
309.447
308.64
308.044
307.383
306.847
306.42
306.076
305.798
305.574
305.391
305.242
305.12
305.023
304.944
304.883
304.836
304.801
304.777
304.763
304.757
304.759
304.767
304.781
304.799
304.822
304.848
304.877
304.908
304.941
304.975
305.011
305.047
305.083
305.119
305.154
305.189
305.222
305.254
305.284
305.313
305.339
305.364
305.387
305.407
305.426
305.442
305.456
305.469
305.48
305.489
305.497
305.503
305.508
305.511
305.514
305.516
305.517
305.517
305.517
305.516
305.515
305.513
305.512
305.51
305.508
305.506
305.504
305.502
305.5
305.499
305.498
305.497
305.496
305.495
305.495
305.495
305.496
305.496
305.497
305.498
305.5
305.502
305.504
305.506
305.509
305.511
305.514
305.518
305.521
305.525
305.529
305.533
305.537
305.542
305.547
305.552
305.557
305.562
305.567
305.573
305.579
305.585
305.591
305.597
305.603
305.609
305.616
305.622
305.629
305.636
305.642
305.649
305.656
305.663
305.67
305.676
305.683
305.69
305.697
305.704
305.71
305.717
305.723
305.729
305.735
305.741
305.747
305.752
305.758
305.763
305.768
305.772
305.777
305.781
305.784
305.788
305.791
305.794
305.796
305.799
305.801
305.803
305.804
305.806
305.807
305.808
305.809
305.81
305.812
305.813
305.814
305.816
305.818
305.82
305.824
305.827
305.832
305.837
305.844
305.852
305.861
305.872
305.885
305.9
305.916
305.936
305.957
305.982
306.009
306.04
306.074
306.112
306.154
306.199
306.25
306.305
306.365
306.431
306.503
306.58
306.663
306.753
306.849
306.951
307.06
307.176
307.297
307.424
307.555
307.69
307.827
307.964
308.101
308.236
308.367
308.498
308.631
308.782
308.959
309.19
309.447
306.514
306.033
305.543
305.138
304.802
304.525
304.299
304.114
303.962
303.839
303.74
303.661
303.599
303.552
303.518
303.495
303.482
303.478
303.481
303.492
303.508
303.529
303.555
303.585
303.619
303.654
303.692
303.732
303.773
303.814
303.856
303.898
303.94
303.981
304.021
304.059
304.096
304.131
304.164
304.195
304.224
304.251
304.275
304.297
304.317
304.334
304.349
304.362
304.374
304.383
304.391
304.397
304.401
304.405
304.407
304.408
304.409
304.408
304.407
304.406
304.403
304.401
304.398
304.395
304.392
304.389
304.386
304.383
304.38
304.377
304.375
304.372
304.37
304.369
304.367
304.366
304.365
304.365
304.365
304.365
304.366
304.367
304.368
304.37
304.372
304.374
304.377
304.38
304.383
304.387
304.391
304.395
304.4
304.405
304.411
304.416
304.422
304.428
304.435
304.442
304.449
304.456
304.464
304.472
304.48
304.488
304.496
304.505
304.514
304.523
304.532
304.541
304.55
304.559
304.569
304.578
304.588
304.597
304.607
304.616
304.625
304.635
304.644
304.653
304.662
304.671
304.679
304.687
304.696
304.704
304.711
304.719
304.726
304.733
304.74
304.746
304.752
304.758
304.763
304.769
304.774
304.779
304.783
304.788
304.792
304.797
304.801
304.805
304.81
304.814
304.819
304.825
304.83
304.836
304.843
304.851
304.86
304.869
304.88
304.893
304.906
304.922
304.939
304.959
304.981
305.005
305.032
305.062
305.095
305.132
305.172
305.216
305.264
305.316
305.373
305.435
305.503
305.575
305.654
305.738
305.828
305.925
306.027
306.136
306.25
306.37
306.494
306.622
306.753
306.885
307.017
307.146
307.271
307.391
307.505
307.613
307.719
307.824
307.925
308.009
306.513
306.033
305.543
305.138
304.802
304.525
304.299
304.114
303.962
303.839
303.74
303.661
303.599
303.552
303.518
303.495
303.482
303.478
303.481
303.492
303.508
303.529
303.555
303.585
303.618
303.654
303.692
303.732
303.773
303.814
303.856
303.898
303.94
303.981
304.021
304.059
304.096
304.131
304.164
304.195
304.224
304.251
304.275
304.297
304.317
304.334
304.349
304.362
304.374
304.383
304.391
304.397
304.401
304.405
304.407
304.408
304.409
304.408
304.407
304.406
304.403
304.401
304.398
304.395
304.392
304.389
304.386
304.383
304.38
304.377
304.375
304.372
304.37
304.369
304.367
304.366
304.365
304.365
304.365
304.365
304.366
304.367
304.368
304.37
304.372
304.374
304.377
304.38
304.383
304.387
304.391
304.395
304.4
304.405
304.411
304.416
304.422
304.429
304.435
304.442
304.449
304.456
304.464
304.472
304.48
304.488
304.496
304.505
304.514
304.523
304.532
304.541
304.55
304.559
304.569
304.578
304.588
304.597
304.607
304.616
304.625
304.635
304.644
304.653
304.662
304.671
304.679
304.687
304.696
304.704
304.711
304.719
304.726
304.733
304.74
304.746
304.752
304.758
304.763
304.769
304.774
304.779
304.783
304.788
304.792
304.797
304.801
304.805
304.81
304.814
304.819
304.825
304.83
304.836
304.843
304.851
304.86
304.869
304.88
304.893
304.906
304.922
304.939
304.959
304.981
305.005
305.032
305.062
305.095
305.132
305.172
305.216
305.264
305.316
305.373
305.435
305.503
305.575
305.654
305.738
305.828
305.925
306.027
306.136
306.25
306.37
306.494
306.622
306.753
306.885
307.017
307.146
307.271
307.391
307.505
307.613
307.719
307.824
307.925
308.009
304.995
304.657
304.322
304.032
303.78
303.567
303.388
303.238
303.115
303.014
302.932
302.868
302.818
302.781
302.756
302.741
302.735
302.736
302.745
302.76
302.781
302.806
302.836
302.869
302.905
302.944
302.985
303.028
303.071
303.116
303.16
303.205
303.249
303.293
303.335
303.376
303.415
303.453
303.489
303.522
303.553
303.582
303.608
303.633
303.654
303.674
303.691
303.706
303.718
303.729
303.738
303.746
303.751
303.756
303.759
303.761
303.762
303.762
303.761
303.76
303.758
303.755
303.753
303.749
303.746
303.743
303.739
303.736
303.733
303.73
303.727
303.724
303.721
303.719
303.717
303.715
303.714
303.713
303.712
303.712
303.712
303.713
303.714
303.715
303.716
303.718
303.721
303.724
303.727
303.73
303.734
303.738
303.743
303.748
303.753
303.759
303.765
303.771
303.778
303.785
303.792
303.8
303.808
303.816
303.824
303.833
303.842
303.851
303.86
303.87
303.88
303.889
303.899
303.909
303.92
303.93
303.94
303.95
303.961
303.971
303.981
303.992
304.002
304.012
304.022
304.032
304.041
304.051
304.06
304.069
304.078
304.087
304.095
304.104
304.111
304.119
304.127
304.134
304.141
304.147
304.154
304.16
304.166
304.172
304.178
304.184
304.19
304.196
304.202
304.208
304.214
304.221
304.228
304.236
304.245
304.254
304.264
304.276
304.288
304.302
304.318
304.335
304.354
304.375
304.399
304.425
304.453
304.485
304.519
304.557
304.599
304.644
304.693
304.747
304.805
304.868
304.936
305.01
305.089
305.173
305.263
305.359
305.461
305.568
305.68
305.797
305.918
306.042
306.168
306.295
306.421
306.543
306.66
306.771
306.872
306.963
307.042
307.105
307.142
307.141
304.995
304.657
304.322
304.032
303.78
303.567
303.388
303.238
303.115
303.014
302.932
302.868
302.818
302.781
302.756
302.741
302.735
302.736
302.745
302.76
302.781
302.806
302.836
302.869
302.905
302.944
302.985
303.028
303.071
303.116
303.16
303.205
303.249
303.293
303.335
303.376
303.415
303.453
303.489
303.522
303.553
303.582
303.608
303.633
303.654
303.674
303.691
303.706
303.718
303.729
303.738
303.746
303.751
303.756
303.759
303.761
303.762
303.762
303.761
303.76
303.758
303.755
303.753
303.749
303.746
303.743
303.739
303.736
303.733
303.73
303.727
303.724
303.721
303.719
303.717
303.715
303.714
303.713
303.712
303.712
303.712
303.713
303.714
303.715
303.716
303.718
303.721
303.724
303.727
303.73
303.734
303.738
303.743
303.748
303.753
303.759
303.765
303.771
303.778
303.785
303.792
303.8
303.808
303.816
303.824
303.833
303.842
303.851
303.86
303.87
303.88
303.889
303.899
303.909
303.92
303.93
303.94
303.95
303.961
303.971
303.981
303.992
304.002
304.012
304.022
304.032
304.041
304.051
304.06
304.069
304.078
304.087
304.095
304.104
304.111
304.119
304.127
304.134
304.141
304.147
304.154
304.16
304.166
304.172
304.178
304.184
304.19
304.196
304.202
304.208
304.214
304.221
304.228
304.236
304.245
304.254
304.264
304.276
304.288
304.302
304.318
304.335
304.354
304.375
304.399
304.425
304.453
304.485
304.519
304.557
304.599
304.644
304.693
304.747
304.805
304.868
304.936
305.01
305.089
305.173
305.263
305.359
305.461
305.568
305.68
305.797
305.918
306.042
306.168
306.295
306.421
306.543
306.66
306.771
306.872
306.963
307.042
307.105
307.142
307.141
303.869
303.63
303.401
303.195
303.011
302.85
302.711
302.593
302.495
302.414
302.348
302.297
302.258
302.23
302.212
302.203
302.202
302.208
302.221
302.239
302.263
302.291
302.323
302.358
302.396
302.437
302.48
302.524
302.569
302.615
302.661
302.707
302.753
302.797
302.841
302.884
302.924
302.963
303
303.035
303.068
303.098
303.126
303.152
303.175
303.196
303.214
303.23
303.245
303.257
303.267
303.275
303.282
303.287
303.291
303.294
303.296
303.296
303.296
303.295
303.293
303.291
303.289
303.286
303.283
303.279
303.276
303.273
303.269
303.266
303.263
303.26
303.257
303.255
303.253
303.251
303.249
303.248
303.247
303.246
303.246
303.246
303.247
303.248
303.249
303.251
303.253
303.255
303.258
303.262
303.265
303.269
303.274
303.278
303.284
303.289
303.295
303.301
303.308
303.315
303.322
303.329
303.337
303.345
303.354
303.362
303.371
303.38
303.39
303.399
303.409
303.419
303.429
303.439
303.449
303.46
303.47
303.481
303.491
303.502
303.513
303.523
303.534
303.544
303.555
303.565
303.575
303.585
303.595
303.604
303.614
303.623
303.632
303.641
303.649
303.658
303.666
303.674
303.681
303.689
303.696
303.703
303.71
303.717
303.724
303.73
303.737
303.744
303.751
303.758
303.766
303.774
303.782
303.791
303.801
303.811
303.823
303.835
303.849
303.864
303.881
303.899
303.92
303.942
303.967
303.994
304.024
304.057
304.093
304.132
304.175
304.221
304.271
304.326
304.385
304.449
304.518
304.592
304.671
304.755
304.845
304.94
305.04
305.146
305.256
305.37
305.488
305.608
305.73
305.851
305.971
306.087
306.197
306.299
306.391
306.471
306.534
306.578
306.596
306.573
303.869
303.63
303.401
303.195
303.011
302.85
302.711
302.593
302.495
302.414
302.348
302.297
302.258
302.23
302.212
302.203
302.202
302.208
302.221
302.239
302.263
302.291
302.323
302.358
302.396
302.437
302.48
302.524
302.569
302.615
302.661
302.707
302.753
302.797
302.841
302.884
302.924
302.963
303
303.035
303.068
303.098
303.126
303.152
303.175
303.196
303.214
303.23
303.245
303.257
303.267
303.275
303.282
303.287
303.291
303.294
303.296
303.296
303.296
303.295
303.293
303.291
303.289
303.286
303.283
303.279
303.276
303.273
303.269
303.266
303.263
303.26
303.257
303.255
303.253
303.251
303.249
303.248
303.247
303.246
303.246
303.246
303.247
303.248
303.249
303.251
303.253
303.255
303.258
303.262
303.265
303.269
303.274
303.278
303.284
303.289
303.295
303.301
303.308
303.315
303.322
303.329
303.337
303.345
303.354
303.362
303.371
303.38
303.39
303.399
303.409
303.419
303.429
303.439
303.449
303.46
303.47
303.481
303.491
303.502
303.513
303.523
303.534
303.544
303.554
303.565
303.575
303.585
303.595
303.604
303.614
303.623
303.632
303.641
303.649
303.658
303.666
303.674
303.681
303.689
303.696
303.703
303.71
303.717
303.724
303.73
303.737
303.744
303.751
303.758
303.766
303.774
303.782
303.791
303.801
303.811
303.823
303.835
303.849
303.864
303.881
303.899
303.92
303.942
303.967
303.994
304.024
304.057
304.093
304.132
304.175
304.221
304.271
304.326
304.385
304.449
304.518
304.592
304.671
304.755
304.845
304.94
305.04
305.146
305.256
305.37
305.488
305.608
305.73
305.851
305.971
306.087
306.197
306.299
306.391
306.471
306.534
306.578
306.596
306.573
302.994
302.824
302.665
302.52
302.388
302.269
302.163
302.073
301.996
301.933
301.881
301.842
301.812
301.793
301.781
301.778
301.782
301.792
301.808
301.829
301.855
301.885
301.919
301.956
301.995
302.037
302.08
302.125
302.171
302.218
302.265
302.312
302.358
302.404
302.448
302.491
302.533
302.573
302.611
302.646
302.68
302.711
302.74
302.767
302.791
302.813
302.832
302.85
302.865
302.878
302.889
302.898
302.906
302.912
302.917
302.92
302.922
302.924
302.924
302.924
302.922
302.921
302.918
302.916
302.913
302.91
302.907
302.903
302.9
302.897
302.894
302.891
302.888
302.885
302.883
302.881
302.879
302.878
302.877
302.876
302.875
302.875
302.876
302.877
302.878
302.879
302.881
302.883
302.886
302.889
302.893
302.896
302.9
302.905
302.91
302.915
302.921
302.927
302.933
302.94
302.947
302.954
302.962
302.97
302.978
302.986
302.995
303.004
303.013
303.022
303.032
303.042
303.052
303.062
303.072
303.082
303.093
303.103
303.114
303.124
303.135
303.145
303.156
303.167
303.177
303.187
303.198
303.208
303.218
303.228
303.237
303.247
303.256
303.265
303.274
303.283
303.292
303.3
303.308
303.316
303.324
303.331
303.339
303.346
303.354
303.361
303.369
303.376
303.384
303.392
303.4
303.409
303.418
303.428
303.439
303.45
303.463
303.476
303.491
303.507
303.525
303.545
303.566
303.59
303.616
303.644
303.675
303.709
303.746
303.787
303.831
303.878
303.93
303.985
304.045
304.11
304.179
304.253
304.332
304.416
304.506
304.6
304.699
304.803
304.911
305.022
305.137
305.253
305.37
305.487
305.601
305.712
305.816
305.912
305.997
306.07
306.126
306.164
306.178
306.16
302.994
302.824
302.665
302.52
302.388
302.268
302.163
302.073
301.996
301.933
301.881
301.842
301.812
301.793
301.781
301.778
301.782
301.792
301.808
301.829
301.855
301.885
301.919
301.955
301.995
302.037
302.08
302.125
302.171
302.218
302.265
302.312
302.358
302.404
302.448
302.491
302.533
302.573
302.611
302.646
302.68
302.711
302.74
302.767
302.791
302.813
302.832
302.85
302.865
302.878
302.889
302.898
302.906
302.912
302.917
302.92
302.922
302.924
302.924
302.924
302.922
302.921
302.918
302.916
302.913
302.91
302.907
302.903
302.9
302.897
302.894
302.891
302.888
302.885
302.883
302.881
302.879
302.878
302.877
302.876
302.875
302.875
302.876
302.877
302.878
302.879
302.881
302.883
302.886
302.889
302.892
302.896
302.9
302.905
302.91
302.915
302.921
302.927
302.933
302.94
302.947
302.954
302.962
302.969
302.978
302.986
302.995
303.004
303.013
303.022
303.032
303.042
303.052
303.062
303.072
303.082
303.093
303.103
303.114
303.124
303.135
303.145
303.156
303.167
303.177
303.187
303.198
303.208
303.218
303.228
303.237
303.247
303.256
303.265
303.274
303.283
303.292
303.3
303.308
303.316
303.324
303.331
303.339
303.346
303.354
303.361
303.369
303.376
303.384
303.392
303.4
303.409
303.418
303.428
303.439
303.45
303.463
303.476
303.491
303.507
303.525
303.545
303.566
303.59
303.616
303.644
303.675
303.709
303.746
303.787
303.831
303.878
303.93
303.985
304.045
304.11
304.179
304.253
304.332
304.416
304.506
304.6
304.699
304.803
304.911
305.022
305.137
305.253
305.37
305.487
305.601
305.712
305.816
305.912
305.997
306.07
306.126
306.164
306.178
306.16
302.29
302.169
302.059
301.958
301.864
301.778
301.701
301.633
301.575
301.527
301.489
301.46
301.44
301.427
301.422
301.424
301.432
301.445
301.464
301.488
301.516
301.547
301.582
301.62
301.66
301.703
301.747
301.792
301.839
301.886
301.933
301.98
302.027
302.072
302.117
302.161
302.203
302.243
302.281
302.318
302.352
302.384
302.413
302.44
302.465
302.488
302.508
302.526
302.542
302.556
302.568
302.578
302.586
302.593
302.599
302.603
302.605
302.607
302.608
302.608
302.607
302.606
302.604
302.602
302.599
302.596
302.593
302.59
302.587
302.584
302.581
302.578
302.575
302.572
302.57
302.568
302.566
302.565
302.563
302.563
302.562
302.562
302.562
302.563
302.564
302.565
302.567
302.569
302.571
302.574
302.577
302.581
302.585
302.589
302.594
302.599
302.604
302.61
302.616
302.622
302.629
302.636
302.643
302.651
302.659
302.667
302.675
302.684
302.693
302.702
302.711
302.721
302.731
302.74
302.75
302.761
302.771
302.781
302.792
302.802
302.813
302.823
302.834
302.844
302.854
302.865
302.875
302.885
302.895
302.905
302.915
302.925
302.934
302.944
302.953
302.962
302.97
302.979
302.987
302.996
303.004
303.012
303.02
303.028
303.036
303.044
303.052
303.06
303.068
303.077
303.086
303.095
303.106
303.116
303.128
303.14
303.153
303.168
303.184
303.201
303.22
303.241
303.264
303.288
303.315
303.345
303.377
303.412
303.45
303.492
303.537
303.585
303.638
303.694
303.755
303.82
303.89
303.965
304.044
304.128
304.217
304.31
304.408
304.51
304.616
304.725
304.836
304.949
305.062
305.175
305.284
305.39
305.489
305.581
305.662
305.73
305.784
305.821
305.837
305.831
302.29
302.169
302.059
301.958
301.864
301.778
301.701
301.633
301.575
301.527
301.489
301.46
301.44
301.427
301.422
301.424
301.432
301.445
301.464
301.488
301.516
301.547
301.582
301.62
301.66
301.703
301.747
301.792
301.839
301.886
301.933
301.98
302.027
302.072
302.117
302.161
302.203
302.243
302.281
302.318
302.352
302.384
302.413
302.44
302.465
302.488
302.508
302.526
302.542
302.556
302.568
302.578
302.586
302.593
302.599
302.603
302.605
302.607
302.608
302.608
302.607
302.606
302.604
302.602
302.599
302.596
302.593
302.59
302.587
302.584
302.581
302.578
302.575
302.572
302.57
302.568
302.566
302.565
302.563
302.563
302.562
302.562
302.562
302.563
302.564
302.565
302.567
302.569
302.571
302.574
302.577
302.581
302.585
302.589
302.594
302.599
302.604
302.61
302.616
302.622
302.629
302.636
302.643
302.651
302.659
302.667
302.675
302.684
302.693
302.702
302.711
302.721
302.731
302.74
302.75
302.761
302.771
302.781
302.792
302.802
302.813
302.823
302.834
302.844
302.854
302.865
302.875
302.885
302.895
302.905
302.915
302.925
302.934
302.944
302.953
302.962
302.97
302.979
302.987
302.996
303.004
303.012
303.02
303.028
303.036
303.044
303.052
303.06
303.068
303.077
303.086
303.095
303.106
303.116
303.128
303.14
303.153
303.168
303.184
303.201
303.22
303.241
303.263
303.288
303.315
303.345
303.377
303.412
303.45
303.492
303.537
303.585
303.638
303.694
303.755
303.82
303.89
303.965
304.044
304.128
304.217
304.31
304.408
304.51
304.616
304.725
304.836
304.949
305.062
305.175
305.284
305.39
305.489
305.581
305.662
305.73
305.784
305.821
305.837
305.831
301.71
301.625
301.55
301.482
301.417
301.357
301.301
301.253
301.211
301.176
301.15
301.13
301.117
301.112
301.112
301.118
301.13
301.147
301.168
301.194
301.223
301.256
301.292
301.331
301.372
301.414
301.459
301.504
301.551
301.598
301.645
301.692
301.738
301.784
301.829
301.872
301.914
301.955
301.993
302.03
302.064
302.096
302.126
302.154
302.179
302.202
302.223
302.241
302.258
302.272
302.285
302.296
302.305
302.312
302.318
302.322
302.326
302.328
302.329
302.33
302.329
302.328
302.327
302.325
302.323
302.32
302.317
302.314
302.311
302.308
302.305
302.302
302.3
302.297
302.295
302.293
302.291
302.289
302.288
302.287
302.287
302.286
302.286
302.287
302.288
302.289
302.29
302.292
302.295
302.297
302.3
302.304
302.307
302.311
302.316
302.321
302.326
302.331
302.337
302.343
302.349
302.356
302.363
302.37
302.378
302.386
302.394
302.402
302.411
302.42
302.429
302.438
302.447
302.457
302.467
302.477
302.487
302.497
302.507
302.517
302.527
302.538
302.548
302.559
302.569
302.579
302.589
302.599
302.61
302.619
302.629
302.639
302.649
302.658
302.667
302.676
302.685
302.694
302.703
302.711
302.72
302.728
302.737
302.745
302.753
302.762
302.77
302.779
302.788
302.797
302.807
302.817
302.828
302.839
302.852
302.865
302.879
302.895
302.912
302.93
302.95
302.972
302.995
303.021
303.05
303.08
303.114
303.15
303.189
303.232
303.278
303.328
303.381
303.439
303.5
303.566
303.636
303.711
303.791
303.874
303.963
304.055
304.152
304.253
304.357
304.463
304.572
304.681
304.791
304.9
305.005
305.107
305.203
305.29
305.368
305.435
305.489
305.527
305.55
305.554
301.71
301.625
301.55
301.482
301.417
301.357
301.301
301.253
301.211
301.176
301.15
301.13
301.117
301.111
301.112
301.118
301.13
301.147
301.168
301.194
301.223
301.256
301.292
301.331
301.372
301.414
301.459
301.504
301.551
301.598
301.645
301.692
301.738
301.784
301.829
301.872
301.914
301.955
301.993
302.03
302.064
302.096
302.126
302.154
302.179
302.202
302.223
302.241
302.258
302.272
302.285
302.296
302.305
302.312
302.318
302.322
302.326
302.328
302.329
302.33
302.329
302.328
302.327
302.325
302.323
302.32
302.317
302.314
302.311
302.308
302.305
302.302
302.3
302.297
302.295
302.293
302.291
302.289
302.288
302.287
302.287
302.286
302.286
302.287
302.288
302.289
302.29
302.292
302.295
302.297
302.3
302.304
302.307
302.311
302.316
302.321
302.326
302.331
302.337
302.343
302.349
302.356
302.363
302.37
302.378
302.386
302.394
302.402
302.411
302.42
302.429
302.438
302.447
302.457
302.467
302.477
302.487
302.497
302.507
302.517
302.527
302.538
302.548
302.559
302.569
302.579
302.589
302.599
302.61
302.619
302.629
302.639
302.649
302.658
302.667
302.676
302.685
302.694
302.703
302.711
302.72
302.728
302.737
302.745
302.753
302.762
302.77
302.779
302.788
302.797
302.807
302.817
302.828
302.839
302.852
302.865
302.879
302.895
302.912
302.93
302.95
302.972
302.995
303.021
303.05
303.08
303.114
303.15
303.189
303.232
303.278
303.328
303.381
303.439
303.5
303.566
303.636
303.711
303.791
303.874
303.963
304.055
304.152
304.253
304.357
304.463
304.572
304.681
304.791
304.9
305.005
305.107
305.203
305.29
305.368
305.435
305.489
305.527
305.55
305.555
301.225
301.167
301.119
301.075
301.032
300.991
300.953
300.92
300.891
300.868
300.851
300.84
300.834
300.834
300.839
300.85
300.865
300.884
300.908
300.935
300.966
301
301.037
301.076
301.117
301.16
301.204
301.25
301.296
301.343
301.389
301.436
301.482
301.527
301.572
301.615
301.657
301.697
301.735
301.772
301.806
301.838
301.868
301.896
301.921
301.945
301.966
301.985
302.002
302.016
302.029
302.04
302.05
302.058
302.064
302.069
302.073
302.075
302.077
302.078
302.078
302.077
302.076
302.074
302.072
302.07
302.067
302.065
302.062
302.059
302.056
302.053
302.051
302.048
302.046
302.044
302.042
302.041
302.039
302.038
302.038
302.037
302.038
302.038
302.039
302.04
302.041
302.043
302.045
302.048
302.05
302.054
302.057
302.061
302.065
302.07
302.075
302.08
302.085
302.091
302.097
302.104
302.11
302.117
302.125
302.132
302.14
302.148
302.156
302.165
302.173
302.182
302.192
302.201
302.21
302.22
302.23
302.239
302.249
302.259
302.27
302.28
302.29
302.3
302.31
302.32
302.33
302.34
302.35
302.36
302.37
302.38
302.389
302.399
302.408
302.418
302.427
302.436
302.445
302.453
302.462
302.471
302.479
302.488
302.497
302.506
302.515
302.524
302.533
302.543
302.554
302.565
302.576
302.588
302.602
302.616
302.631
302.647
302.665
302.684
302.705
302.728
302.753
302.78
302.81
302.842
302.876
302.914
302.954
302.998
303.045
303.096
303.15
303.209
303.271
303.338
303.409
303.484
303.563
303.647
303.735
303.827
303.922
304.022
304.124
304.228
304.334
304.441
304.548
304.653
304.755
304.854
304.946
305.032
305.108
305.174
305.228
305.27
305.298
305.308
301.225
301.167
301.119
301.075
301.032
300.991
300.953
300.92
300.891
300.868
300.851
300.84
300.834
300.834
300.839
300.85
300.865
300.884
300.908
300.935
300.966
301
301.037
301.076
301.117
301.16
301.204
301.25
301.296
301.343
301.389
301.436
301.482
301.527
301.572
301.615
301.657
301.697
301.735
301.772
301.806
301.838
301.868
301.896
301.921
301.945
301.966
301.985
302.002
302.016
302.029
302.04
302.05
302.058
302.064
302.069
302.073
302.075
302.077
302.078
302.078
302.077
302.076
302.074
302.072
302.07
302.067
302.065
302.062
302.059
302.056
302.053
302.051
302.048
302.046
302.044
302.042
302.041
302.039
302.038
302.038
302.037
302.038
302.038
302.039
302.04
302.041
302.043
302.045
302.048
302.05
302.054
302.057
302.061
302.065
302.07
302.075
302.08
302.085
302.091
302.097
302.104
302.11
302.117
302.125
302.132
302.14
302.148
302.156
302.165
302.173
302.182
302.192
302.201
302.21
302.22
302.23
302.239
302.249
302.259
302.269
302.28
302.29
302.3
302.31
302.32
302.33
302.34
302.35
302.36
302.37
302.38
302.389
302.399
302.408
302.418
302.427
302.436
302.444
302.453
302.462
302.471
302.479
302.488
302.497
302.506
302.515
302.524
302.533
302.543
302.554
302.565
302.576
302.588
302.602
302.616
302.631
302.647
302.665
302.684
302.705
302.728
302.753
302.78
302.81
302.842
302.876
302.914
302.954
302.998
303.045
303.096
303.15
303.209
303.271
303.338
303.409
303.484
303.563
303.647
303.735
303.827
303.922
304.022
304.124
304.228
304.334
304.441
304.548
304.653
304.755
304.854
304.946
305.032
305.108
305.174
305.228
305.27
305.298
305.308
300.816
300.779
300.751
300.724
300.698
300.672
300.648
300.627
300.609
300.595
300.586
300.582
300.582
300.587
300.597
300.611
300.628
300.65
300.676
300.705
300.736
300.771
300.808
300.848
300.889
300.932
300.976
301.021
301.067
301.113
301.159
301.205
301.251
301.295
301.339
301.382
301.423
301.463
301.501
301.537
301.571
301.603
301.632
301.66
301.686
301.709
301.73
301.749
301.766
301.781
301.795
301.806
301.816
301.824
301.831
301.836
301.84
301.843
301.845
301.846
301.846
301.846
301.845
301.844
301.842
301.84
301.837
301.835
301.832
301.83
301.827
301.824
301.822
301.819
301.817
301.815
301.813
301.812
301.811
301.81
301.809
301.809
301.809
301.809
301.81
301.811
301.812
301.814
301.816
301.818
301.821
301.824
301.827
301.831
301.835
301.839
301.844
301.849
301.854
301.86
301.866
301.872
301.878
301.885
301.892
301.899
301.907
301.914
301.922
301.931
301.939
301.948
301.956
301.965
301.975
301.984
301.993