/*--------------------------------*- C++ -*----------------------------------*\
  =========                 |
  \\      /  F ield         | OpenFOAM: The Open Source CFD Toolbox
   \\    /   O peration     | Website:  https://openfoam.org
    \\  /    A nd           | Version:  8
     \\/     M anipulation  |
\*---------------------------------------------------------------------------*/
FoamFile
{
    version     2.0;
    format      ascii;
    class       volVectorField;
    location    "1500";
    object      U;
}
// * * * * * * * * * * * * * * * * * * * * * * * * * * * * * * * * * * * * * //

dimensions      [0 1 -1 0 0 0 0];

internalField   nonuniform List<vector> 
46000
(
(-0.000402103 -2.01785e-07 0.000428539)
(-0.00264268 -1.61427e-07 0.00114118)
(-0.00570833 -1.89814e-07 0.00156264)
(-0.00836932 -1.81179e-07 0.00141669)
(-0.0101196 -1.66614e-07 0.000981159)
(-0.0108594 -1.5111e-07 0.000471841)
(-0.0106668 -1.38525e-07 -1.25276e-05)
(-0.00968938 -1.27793e-07 -0.000428367)
(-0.00809485 -1.1715e-07 -0.000760307)
(-0.00603911 -1.07528e-07 -0.00101247)
(-0.00366448 -9.87141e-08 -0.00119239)
(-0.0010966 -9.00822e-08 -0.00130486)
(0.00156801 -7.99235e-08 -0.00135401)
(0.00421797 -6.90325e-08 -0.00134869)
(0.00678958 -5.91543e-08 -0.00130124)
(0.00921439 -4.99089e-08 -0.00121871)
(0.0114408 -4.10656e-08 -0.00110728)
(0.0134259 -3.21849e-08 -0.000972581)
(0.015136 -2.30165e-08 -0.000819714)
(0.0165455 -1.33844e-08 -0.000653334)
(0.017636 -3.14659e-09 -0.000477702)
(0.0183961 7.56941e-09 -0.000296759)
(0.0188208 1.87505e-08 -0.000114201)
(0.0189095 3.02696e-08 6.70126e-05)
(0.0186707 4.20986e-08 0.000245235)
(0.0181082 5.43397e-08 0.000418804)
(0.0172353 6.68584e-08 0.000585482)
(0.0160668 7.95809e-08 0.000743301)
(0.0146208 9.23588e-08 0.000890649)
(0.0129182 1.05085e-07 0.00102621)
(0.0109815 1.17569e-07 0.00114896)
(0.00883518 1.2982e-07 0.0012581)
(0.00650464 1.41708e-07 0.0013531)
(0.0040155 1.5297e-07 0.00143365)
(0.00139815 1.63788e-07 0.0014995)
(-0.0013312 1.71801e-07 0.00154703)
(-0.00412885 1.77676e-07 0.00157502)
(-0.00697719 1.83431e-07 0.00158746)
(-0.00984921 1.87425e-07 0.00158722)
(-0.0127217 1.90205e-07 0.00157633)
(-0.0155727 1.92263e-07 0.00155381)
(-0.0183817 1.93241e-07 0.00152005)
(-0.0211289 1.93261e-07 0.00147649)
(-0.0237972 1.92606e-07 0.00142382)
(-0.0263704 1.91336e-07 0.00136336)
(-0.0288345 1.89404e-07 0.00129611)
(-0.0311773 1.86925e-07 0.00122319)
(-0.0333884 1.83898e-07 0.00114562)
(-0.0354594 1.8048e-07 0.00106441)
(-0.0373833 1.76704e-07 0.000980511)
(-0.0391551 1.72684e-07 0.000894791)
(-0.0407709 1.68428e-07 0.00080806)
(-0.0422287 1.63942e-07 0.000721051)
(-0.0435275 1.59307e-07 0.000634421)
(-0.0446677 1.54536e-07 0.000548752)
(-0.0456504 1.49658e-07 0.000464549)
(-0.0464779 1.44725e-07 0.000382246)
(-0.0471533 1.39704e-07 0.00030221)
(-0.0476803 1.34683e-07 0.000224749)
(-0.0480632 1.29649e-07 0.000150124)
(-0.0483067 1.24641e-07 7.85634e-05)
(-0.0484161 1.19667e-07 1.02857e-05)
(-0.0483969 1.14728e-07 -5.45227e-05)
(-0.048255 1.09868e-07 -0.000116066)
(-0.0479959 1.05109e-07 -0.000174518)
(-0.0476254 1.00384e-07 -0.000229774)
(-0.0471492 9.57194e-08 -0.000281823)
(-0.0465729 9.11019e-08 -0.000330702)
(-0.0459023 8.64977e-08 -0.000376485)
(-0.045143 8.19001e-08 -0.000419272)
(-0.0443002 7.73766e-08 -0.000459177)
(-0.0433793 7.27921e-08 -0.000496327)
(-0.0423852 6.8248e-08 -0.000530856)
(-0.0413227 6.36835e-08 -0.000562905)
(-0.0401963 5.91322e-08 -0.000592616)
(-0.0390106 5.45807e-08 -0.000620136)
(-0.0377694 5.00223e-08 -0.000645608)
(-0.0364768 4.54502e-08 -0.000669174)
(-0.0351364 4.0871e-08 -0.000690975)
(-0.0337515 3.62849e-08 -0.000711143)
(-0.0323255 3.16986e-08 -0.000729809)
(-0.0308613 2.71053e-08 -0.0007471)
(-0.0293618 2.25119e-08 -0.000763121)
(-0.0278296 1.78912e-08 -0.000778001)
(-0.0262671 1.32568e-08 -0.000791841)
(-0.0246766 8.65599e-09 -0.000804693)
(-0.0230603 4.00102e-09 -0.000816731)
(-0.0214201 -6.1359e-10 -0.00082802)
(-0.0197579 -5.20132e-09 -0.000838419)
(-0.0180757 -9.91744e-09 -0.000848261)
(-0.0163748 -1.45729e-08 -0.00085777)
(-0.0146563 -1.90731e-08 -0.000866547)
(-0.0129227 -2.34654e-08 -0.000874087)
(-0.0111753 -2.80399e-08 -0.000881481)
(-0.0094154 -3.27224e-08 -0.000889523)
(-0.0076436 -3.71888e-08 -0.000897285)
(-0.00586149 -4.15405e-08 -0.000904507)
(-0.00406997 -4.59798e-08 -0.000911397)
(-0.00227131 -5.01624e-08 -0.000918114)
(-0.00046515 -5.45543e-08 -0.000923651)
(0.00134716 -5.87767e-08 -0.00092669)
(0.0031607 -6.22015e-08 -0.000928073)
(0.00497686 -6.54303e-08 -0.000928947)
(0.00679353 -6.84631e-08 -0.000929358)
(0.00860958 -7.11513e-08 -0.000929291)
(0.0104238 -7.36368e-08 -0.000928737)
(0.0122351 -7.59127e-08 -0.000927691)
(0.0140422 -7.80466e-08 -0.000926152)
(0.015844 -7.99913e-08 -0.00092412)
(0.0176394 -8.17129e-08 -0.000921599)
(0.0194273 -8.3279e-08 -0.000918597)
(0.0212065 -8.46762e-08 -0.000915124)
(0.0229762 -8.58638e-08 -0.000911195)
(0.0247353 -8.69094e-08 -0.000906827)
(0.0264829 -8.77793e-08 -0.000902041)
(0.0282181 -8.846e-08 -0.000896863)
(0.0299402 -8.89785e-08 -0.00089132)
(0.0316484 -8.9247e-08 -0.000885444)
(0.0333421 -8.93465e-08 -0.00087927)
(0.0350207 -8.92164e-08 -0.000872836)
(0.0366837 -8.88498e-08 -0.000866181)
(0.0383307 -8.82603e-08 -0.00085935)
(0.0399614 -8.74478e-08 -0.000852389)
(0.0415756 -8.63787e-08 -0.000845345)
(0.0431733 -8.50598e-08 -0.000838268)
(0.0447543 -8.35179e-08 -0.00083121)
(0.0463188 -8.17397e-08 -0.000824223)
(0.0478669 -7.96846e-08 -0.00081736)
(0.049399 -7.74067e-08 -0.000810673)
(0.0509155 -7.48588e-08 -0.000804217)
(0.0524169 -7.2061e-08 -0.000798042)
(0.0539037 -6.90067e-08 -0.000792201)
(0.0553767 -6.57027e-08 -0.000786742)
(0.0568366 -6.21422e-08 -0.000781712)
(0.0582843 -5.83253e-08 -0.000777153)
(0.0597207 -5.42654e-08 -0.000773104)
(0.0611469 -4.99695e-08 -0.000769599)
(0.0625639 -4.53901e-08 -0.000766665)
(0.0639727 -4.05814e-08 -0.000764319)
(0.0653745 -3.55164e-08 -0.000762571)
(0.0667705 -3.02019e-08 -0.000761418)
(0.0681616 -2.46784e-08 -0.000760845)
(0.0695489 -1.89189e-08 -0.000760819)
(0.0709335 -1.28965e-08 -0.00076129)
(0.0723161 -6.65847e-09 -0.000762185)
(0.0736975 -1.7776e-10 -0.000763406)
(0.0750781 6.51183e-09 -0.000764827)
(0.0764581 1.34035e-08 -0.00076629)
(0.0778374 2.05041e-08 -0.000767601)
(0.0792156 2.77933e-08 -0.000768523)
(0.0805917 3.52509e-08 -0.000768778)
(0.0819642 4.28972e-08 -0.000768037)
(0.083331 5.06916e-08 -0.000765918)
(0.0846893 5.86074e-08 -0.000761984)
(0.0860355 6.66647e-08 -0.000755738)
(0.0873649 7.48434e-08 -0.000746624)
(0.088672 8.30897e-08 -0.000734019)
(0.0899501 9.14171e-08 -0.00071724)
(0.0911912 9.98562e-08 -0.000695542)
(0.0923861 1.08363e-07 -0.000668122)
(0.0935241 1.16932e-07 -0.000634125)
(0.094593 1.25633e-07 -0.000592652)
(0.0955789 1.34449e-07 -0.000542774)
(0.0964665 1.43436e-07 -0.000483551)
(0.0972388 1.52644e-07 -0.000414061)
(0.0978771 1.6205e-07 -0.000333447)
(0.0983612 1.71741e-07 -0.000240985)
(0.0986702 1.81726e-07 -0.000136116)
(0.098779 1.91822e-07 -1.87319e-05)
(0.0986707 2.02056e-07 0.000112802)
(0.0983121 2.12567e-07 0.000260744)
(0.0976766 2.23259e-07 0.000425695)
(0.0967343 2.34151e-07 0.000607728)
(0.0954555 2.45121e-07 0.000806695)
(0.0938107 2.56202e-07 0.00102218)
(0.091771 2.67452e-07 0.00125345)
(0.0893087 2.78954e-07 0.00149937)
(0.0863983 2.90891e-07 0.00175834)
(0.0830168 3.03574e-07 0.00202817)
(0.0791454 3.17351e-07 0.00230602)
(0.0747699 3.326e-07 0.00258831)
(0.0698825 3.4967e-07 0.00287057)
(0.0644835 3.68691e-07 0.00314732)
(0.0585826 3.89571e-07 0.00341194)
(0.0522012 4.11833e-07 0.00365643)
(0.045375 4.3474e-07 0.00387116)
(0.0381569 4.57602e-07 0.00404451)
(0.0306209 4.80094e-07 0.00416235)
(0.0228675 5.02569e-07 0.00420727)
(0.0150254 5.25629e-07 0.00415755)
(0.00728408 5.49526e-07 0.00398473)
(-0.000166424 5.6665e-07 0.00363129)
(-0.00698184 5.74036e-07 0.00303719)
(-0.0127459 5.86274e-07 0.00217981)
(-0.0170164 6.09258e-07 0.00104374)
(-0.0191968 6.38944e-07 -0.000389376)
(-0.0186778 6.66523e-07 -0.00200217)
(-0.0150649 6.84156e-07 -0.00336483)
(-0.00875922 6.63196e-07 -0.00353482)
(-0.00204032 3.01371e-07 -0.00215241)
(-0.000401287 -2.01786e-07 0.000429356)
(-0.00264172 -1.61427e-07 0.00114216)
(-0.00570791 -1.89814e-07 0.00156341)
(-0.00836901 -1.81179e-07 0.00141734)
(-0.0101193 -1.66614e-07 0.000981732)
(-0.0108591 -1.51109e-07 0.000472358)
(-0.0106665 -1.38525e-07 -1.2053e-05)
(-0.00968899 -1.27793e-07 -0.000427928)
(-0.0080944 -1.1715e-07 -0.000759899)
(-0.0060386 -1.07528e-07 -0.0010121)
(-0.00366392 -9.87141e-08 -0.00119203)
(-0.00109597 -9.0082e-08 -0.00130452)
(0.00156869 -7.99232e-08 -0.0013537)
(0.00421869 -6.90323e-08 -0.00134841)
(0.00679034 -5.91541e-08 -0.00130098)
(0.0092152 -4.99087e-08 -0.00121848)
(0.0114416 -4.10654e-08 -0.00110706)
(0.0134268 -3.21848e-08 -0.000972377)
(0.015137 -2.30164e-08 -0.000819526)
(0.0165464 -1.33844e-08 -0.000653161)
(0.017637 -3.14657e-09 -0.000477545)
(0.0183972 7.56937e-09 -0.000296616)
(0.0188219 1.87504e-08 -0.000114074)
(0.0189106 3.02694e-08 6.71262e-05)
(0.0186719 4.20983e-08 0.000245335)
(0.0181093 5.43393e-08 0.00041889)
(0.0172365 6.68579e-08 0.000585554)
(0.016068 7.95803e-08 0.00074336)
(0.0146221 9.23581e-08 0.000890693)
(0.0129194 1.05084e-07 0.00102624)
(0.0109828 1.17568e-07 0.00114897)
(0.00883646 1.29819e-07 0.0012581)
(0.00650593 1.41706e-07 0.00135308)
(0.0040168 1.52968e-07 0.00143361)
(0.00139945 1.63786e-07 0.00149944)
(-0.0013299 1.718e-07 0.00154695)
(-0.00412754 1.77675e-07 0.00157492)
(-0.00697588 1.8343e-07 0.00158734)
(-0.0098479 1.87424e-07 0.00158708)
(-0.0127204 1.90204e-07 0.00157617)
(-0.0155714 1.92262e-07 0.00155363)
(-0.0183804 1.9324e-07 0.00151984)
(-0.0211276 1.9326e-07 0.00147626)
(-0.0237959 1.92604e-07 0.00142357)
(-0.0263691 1.91334e-07 0.00136309)
(-0.0288332 1.89402e-07 0.00129581)
(-0.031176 1.86923e-07 0.00122286)
(-0.0333871 1.83897e-07 0.00114528)
(-0.0354581 1.80479e-07 0.00106405)
(-0.037382 1.76702e-07 0.000980125)
(-0.0391537 1.72683e-07 0.000894385)
(-0.0407696 1.68426e-07 0.000807633)
(-0.0422274 1.6394e-07 0.000720605)
(-0.0435262 1.59305e-07 0.000633957)
(-0.0446663 1.54535e-07 0.000548269)
(-0.045649 1.49656e-07 0.000464048)
(-0.0464766 1.44723e-07 0.000381728)
(-0.047152 1.39703e-07 0.000301677)
(-0.047679 1.34682e-07 0.000224201)
(-0.0480619 1.29647e-07 0.000149562)
(-0.0483054 1.2464e-07 7.79882e-05)
(-0.0484148 1.19666e-07 9.69803e-06)
(-0.0483956 1.14727e-07 -5.51212e-05)
(-0.0482537 1.09867e-07 -0.000116674)
(-0.0479947 1.05108e-07 -0.000175135)
(-0.0476242 1.00383e-07 -0.000230398)
(-0.0471479 9.57185e-08 -0.000282453)
(-0.0465717 9.1101e-08 -0.000331338)
(-0.0459011 8.64968e-08 -0.000377126)
(-0.0451417 8.18993e-08 -0.000419916)
(-0.044299 7.73759e-08 -0.000459823)
(-0.0433781 7.27915e-08 -0.000496974)
(-0.0423839 6.82474e-08 -0.000531502)
(-0.0413214 6.3683e-08 -0.00056355)
(-0.0401951 5.91318e-08 -0.000593259)
(-0.0390094 5.45804e-08 -0.000620775)
(-0.0377682 5.0022e-08 -0.000646243)
(-0.0364756 4.54499e-08 -0.000669803)
(-0.0351352 4.08708e-08 -0.000691597)
(-0.0337504 3.62847e-08 -0.000711757)
(-0.0323244 3.16985e-08 -0.000730414)
(-0.0308602 2.71052e-08 -0.000747695)
(-0.0293607 2.25118e-08 -0.000763704)
(-0.0278285 1.78911e-08 -0.000778572)
(-0.026266 1.32567e-08 -0.0007924)
(-0.0246756 8.65597e-09 -0.000805237)
(-0.0230593 4.00101e-09 -0.00081726)
(-0.0214191 -6.13589e-10 -0.000828534)
(-0.0197569 -5.20131e-09 -0.000838915)
(-0.0180748 -9.91743e-09 -0.00084874)
(-0.0163738 -1.45729e-08 -0.000858231)
(-0.0146554 -1.90731e-08 -0.000866988)
(-0.0129219 -2.34654e-08 -0.000874508)
(-0.0111745 -2.80399e-08 -0.000881881)
(-0.00941457 -3.27224e-08 -0.000889902)
(-0.00764279 -3.71889e-08 -0.000897641)
(-0.00586071 -4.15405e-08 -0.000904841)
(-0.00406921 -4.59799e-08 -0.000911707)
(-0.00227058 -5.01626e-08 -0.0009184)
(-0.000464437 -5.45544e-08 -0.000923912)
(0.00134785 -5.87767e-08 -0.000926924)
(0.00316137 -6.22015e-08 -0.000928282)
(0.0049775 -6.54304e-08 -0.00092913)
(0.00679415 -6.84632e-08 -0.000929515)
(0.00861018 -7.11514e-08 -0.000929422)
(0.0104244 -7.36369e-08 -0.000928842)
(0.0122357 -7.59129e-08 -0.000927771)
(0.0140428 -7.80468e-08 -0.000926207)
(0.0158446 -7.99915e-08 -0.00092415)
(0.0176399 -8.17132e-08 -0.000921604)
(0.0194277 -8.32793e-08 -0.000918578)
(0.021207 -8.46765e-08 -0.000915082)
(0.0229766 -8.58641e-08 -0.000911129)
(0.0247357 -8.69098e-08 -0.000906739)
(0.0264833 -8.77797e-08 -0.000901932)
(0.0282185 -8.84604e-08 -0.000896733)
(0.0299406 -8.89789e-08 -0.00089117)
(0.0316488 -8.92474e-08 -0.000885274)
(0.0333424 -8.9347e-08 -0.000879081)
(0.035021 -8.92169e-08 -0.000872629)
(0.036684 -8.88503e-08 -0.000865957)
(0.038331 -8.82608e-08 -0.00085911)
(0.0399617 -8.74483e-08 -0.000852133)
(0.0415759 -8.63792e-08 -0.000845074)
(0.0431735 -8.50603e-08 -0.000837984)
(0.0447545 -8.35184e-08 -0.000830913)
(0.046319 -8.17402e-08 -0.000823913)
(0.0478671 -7.96851e-08 -0.000817039)
(0.0493992 -7.74072e-08 -0.000810342)
(0.0509157 -7.48592e-08 -0.000803877)
(0.0524171 -7.20614e-08 -0.000797695)
(0.0539039 -6.90072e-08 -0.000791847)
(0.0553769 -6.57031e-08 -0.000786382)
(0.0568368 -6.21426e-08 -0.000781346)
(0.0582845 -5.83257e-08 -0.000776784)
(0.0597209 -5.42658e-08 -0.000772732)
(0.0611471 -4.99698e-08 -0.000769225)
(0.062564 -4.53904e-08 -0.00076629)
(0.0639729 -4.05817e-08 -0.000763945)
(0.0653747 -3.55166e-08 -0.000762199)
(0.0667706 -3.02021e-08 -0.000761049)
(0.0681617 -2.46786e-08 -0.00076048)
(0.0695491 -1.89191e-08 -0.000760459)
(0.0709337 -1.28966e-08 -0.000760936)
(0.0723163 -6.65851e-09 -0.000761838)
(0.0736976 -1.77761e-10 -0.000763067)
(0.0750782 6.51187e-09 -0.000764498)
(0.0764582 1.34036e-08 -0.000765972)
(0.0778375 2.05042e-08 -0.000767294)
(0.0792157 2.77935e-08 -0.00076823)
(0.0805918 3.52511e-08 -0.000768499)
(0.0819643 4.28974e-08 -0.000767772)
(0.0833312 5.06919e-08 -0.000765669)
(0.0846895 5.86077e-08 -0.000761753)
(0.0860356 6.6665e-08 -0.000755526)
(0.087365 7.48438e-08 -0.000746431)
(0.0886721 8.30901e-08 -0.000733846)
(0.0899502 9.14176e-08 -0.000717088)
(0.0911914 9.98567e-08 -0.000695412)
(0.0923863 1.08364e-07 -0.000668016)
(0.0935243 1.16932e-07 -0.000634042)
(0.0945931 1.25633e-07 -0.000592594)
(0.0955791 1.3445e-07 -0.000542741)
(0.0964667 1.43437e-07 -0.000483544)
(0.097239 1.52645e-07 -0.00041408)
(0.0978773 1.62051e-07 -0.000333493)
(0.0983615 1.71742e-07 -0.000241058)
(0.0986704 1.81727e-07 -0.000136216)
(0.0987792 1.91822e-07 -1.88595e-05)
(0.098671 2.02056e-07 0.000112647)
(0.0983124 2.12568e-07 0.000260559)
(0.0976768 2.23259e-07 0.000425479)
(0.0967345 2.34152e-07 0.000607482)
(0.0954558 2.45122e-07 0.000806419)
(0.093811 2.56203e-07 0.00102188)
(0.0917713 2.67453e-07 0.00125312)
(0.089309 2.78955e-07 0.00149901)
(0.0863986 2.90892e-07 0.00175794)
(0.0830172 3.03575e-07 0.00202774)
(0.0791457 3.17351e-07 0.00230557)
(0.0747702 3.32601e-07 0.00258783)
(0.0698829 3.4967e-07 0.00287005)
(0.0644839 3.68691e-07 0.00314677)
(0.0585829 3.89572e-07 0.00341135)
(0.0522015 4.11833e-07 0.0036558)
(0.0453753 4.3474e-07 0.00387048)
(0.0381572 4.57602e-07 0.00404378)
(0.0306212 4.80094e-07 0.00416157)
(0.0228677 5.02569e-07 0.00420643)
(0.0150256 5.25629e-07 0.00415664)
(0.00728417 5.49526e-07 0.00398375)
(-0.000166383 5.66651e-07 0.00363025)
(-0.00698182 5.74037e-07 0.0030361)
(-0.0127459 5.86274e-07 0.00217868)
(-0.0170164 6.09258e-07 0.00104255)
(-0.0191968 6.38944e-07 -0.000390632)
(-0.0186779 6.66521e-07 -0.00200347)
(-0.0150652 6.84153e-07 -0.00336616)
(-0.00876016 6.6319e-07 -0.00353619)
(-0.00204099 3.01369e-07 -0.00215362)
(-0.00104197 -1.40452e-07 0.00276996)
(-0.00443615 -7.15198e-08 0.00476041)
(-0.00701647 -8.52577e-08 0.00455315)
(-0.00843531 -6.69501e-08 0.0032262)
(-0.00875025 -5.18028e-08 0.00157055)
(-0.0080886 -4.04717e-08 -2.62881e-05)
(-0.0066224 -3.26551e-08 -0.00140643)
(-0.00451577 -2.70927e-08 -0.00251924)
(-0.00192221 -2.26143e-08 -0.00336658)
(0.00102572 -1.916e-08 -0.00397137)
(0.00419365 -1.63607e-08 -0.00436038)
(0.00747537 -1.38262e-08 -0.00456342)
(0.0107766 -1.16598e-08 -0.00460455)
(0.0140145 -9.8274e-09 -0.00450836)
(0.0171194 -8.19203e-09 -0.0042991)
(0.0200302 -6.69505e-09 -0.00399548)
(0.0226962 -5.20118e-09 -0.00361451)
(0.0250755 -3.64862e-09 -0.00317135)
(0.0271344 -1.96558e-09 -0.00267974)
(0.0288467 -1.70369e-10 -0.00215221)
(0.0301931 1.74039e-09 -0.00160024)
(0.031161 3.72667e-09 -0.00103443)
(0.0317437 5.75012e-09 -0.000464515)
(0.0319393 7.84569e-09 0.000100872)
(0.0317525 1.00004e-08 0.000655618)
(0.0311914 1.21825e-08 0.00119415)
(0.0302693 1.43703e-08 0.00171013)
(0.0290024 1.65186e-08 0.00219816)
(0.0274103 1.85807e-08 0.00265364)
(0.0255155 2.05348e-08 0.00307276)
(0.0233428 2.23474e-08 0.00345243)
(0.020919 2.40486e-08 0.00379031)
(0.0182724 2.55798e-08 0.00408471)
(0.0154325 2.67622e-08 0.0043345)
(0.0124297 2.77292e-08 0.00453933)
(0.0092937 2.84841e-08 0.00469721)
(0.00605505 2.90168e-08 0.00480798)
(0.00274317 2.94761e-08 0.00487481)
(-0.000614361 2.94639e-08 0.00489979)
(-0.00398562 2.92326e-08 0.00488482)
(-0.00734194 2.88677e-08 0.00483253)
(-0.0106609 2.81482e-08 0.00474668)
(-0.0139185 2.72447e-08 0.00462985)
(-0.0170941 2.61739e-08 0.00448419)
(-0.0201685 2.49624e-08 0.00431298)
(-0.0231244 2.36254e-08 0.00411916)
(-0.0259467 2.21662e-08 0.00390593)
(-0.0286223 2.05948e-08 0.00367629)
(-0.03114 1.89464e-08 0.00343324)
(-0.0334906 1.7221e-08 0.0031796)
(-0.0356667 1.54403e-08 0.00291807)
(-0.0376629 1.36061e-08 0.00265116)
(-0.0394753 1.17301e-08 0.00238119)
(-0.0411014 9.8172e-09 0.00211026)
(-0.0425404 7.87925e-09 0.00184027)
(-0.0437926 5.91455e-09 0.00157291)
(-0.0448593 3.94818e-09 0.00130965)
(-0.0457431 1.97849e-09 0.00105177)
(-0.0464473 8.81658e-12 0.000800359)
(-0.046976 -1.95749e-09 0.000556315)
(-0.0473336 -3.8987e-09 0.000320404)
(-0.0475255 -5.81321e-09 9.32724e-05)
(-0.047557 -7.70155e-09 -0.000124512)
(-0.0474338 -9.55917e-09 -0.000332797)
(-0.0471626 -1.13615e-08 -0.000531587)
(-0.0467497 -1.31405e-08 -0.000720743)
(-0.0462016 -1.48893e-08 -0.000900238)
(-0.0455246 -1.65981e-08 -0.00107014)
(-0.0447252 -1.82734e-08 -0.00123061)
(-0.0438096 -1.99102e-08 -0.00138186)
(-0.0427841 -2.15003e-08 -0.00152416)
(-0.0416546 -2.30503e-08 -0.00165779)
(-0.0404269 -2.45552e-08 -0.0017831)
(-0.0391067 -2.6005e-08 -0.00190044)
(-0.0376995 -2.74046e-08 -0.00201017)
(-0.0362104 -2.87441e-08 -0.00211265)
(-0.0346445 -3.00201e-08 -0.00220826)
(-0.0330066 -3.12426e-08 -0.00229737)
(-0.0313012 -3.23883e-08 -0.00238034)
(-0.0295327 -3.34722e-08 -0.00245752)
(-0.0277053 -3.44876e-08 -0.00252926)
(-0.0258228 -3.54361e-08 -0.00259587)
(-0.023889 -3.62994e-08 -0.00265765)
(-0.0219075 -3.70874e-08 -0.00271494)
(-0.0198817 -3.77885e-08 -0.00276799)
(-0.0178149 -3.83894e-08 -0.00281697)
(-0.0157101 -3.89434e-08 -0.00286228)
(-0.0135701 -3.94104e-08 -0.00290409)
(-0.0113978 -3.97805e-08 -0.00294226)
(-0.0091959 -4.0107e-08 -0.00297743)
(-0.00696704 -4.03583e-08 -0.00301016)
(-0.00471351 -4.04674e-08 -0.00304007)
(-0.00243808 -4.04426e-08 -0.00306692)
(-0.00014116 -4.04345e-08 -0.00309089)
(0.00217259 -4.02955e-08 -0.00311213)
(0.00450033 -3.98971e-08 -0.00313074)
(0.0068403 -3.94366e-08 -0.00314688)
(0.00919039 -3.8956e-08 -0.00316062)
(0.0115482 -3.83883e-08 -0.00317216)
(0.0139116 -3.77587e-08 -0.00318088)
(0.0162786 -3.70553e-08 -0.00318609)
(0.0186474 -3.62347e-08 -0.00318843)
(0.021016 -3.53471e-08 -0.00318846)
(0.0233825 -3.43724e-08 -0.00318624)
(0.0257451 -3.33423e-08 -0.0031818)
(0.0281019 -3.22669e-08 -0.00317519)
(0.0304512 -3.1173e-08 -0.00316643)
(0.0327913 -3.00589e-08 -0.00315557)
(0.0351206 -2.89111e-08 -0.00314267)
(0.0374374 -2.77633e-08 -0.00312778)
(0.0397403 -2.65952e-08 -0.00311098)
(0.0420278 -2.54371e-08 -0.00309234)
(0.0442984 -2.42738e-08 -0.00307195)
(0.046551 -2.3122e-08 -0.00304992)
(0.0487843 -2.19802e-08 -0.00302634)
(0.0509972 -2.0845e-08 -0.00300133)
(0.0531886 -1.97281e-08 -0.00297503)
(0.0553577 -1.86161e-08 -0.00294754)
(0.0575035 -1.75274e-08 -0.00291903)
(0.0596254 -1.64521e-08 -0.00288963)
(0.0617228 -1.54017e-08 -0.00285951)
(0.0637951 -1.4363e-08 -0.00282881)
(0.0658421 -1.33459e-08 -0.00279771)
(0.0678634 -1.23539e-08 -0.00276637)
(0.069859 -1.13953e-08 -0.00273498)
(0.0718289 -1.04568e-08 -0.0027037)
(0.0737731 -9.54326e-09 -0.00267272)
(0.075692 -8.65815e-09 -0.0026422)
(0.0775859 -7.79978e-09 -0.00261233)
(0.0794554 -6.97486e-09 -0.00258328)
(0.0813011 -6.16998e-09 -0.00255523)
(0.0831238 -5.39856e-09 -0.00252832)
(0.0849242 -4.65892e-09 -0.00250272)
(0.0867034 -3.94269e-09 -0.00247857)
(0.0884624 -3.25825e-09 -0.00245601)
(0.0902025 -2.61063e-09 -0.00243515)
(0.0919247 -1.99145e-09 -0.00241609)
(0.0936305 -1.4024e-09 -0.0023989)
(0.0953211 -8.46828e-10 -0.00238364)
(0.0969978 -3.1971e-10 -0.00237031)
(0.0986621 1.77275e-10 -0.00235891)
(0.100315 6.30733e-10 -0.00234936)
(0.101958 1.06912e-09 -0.00234155)
(0.103593 1.46733e-09 -0.00233531)
(0.105219 1.84378e-09 -0.00233041)
(0.106839 2.18506e-09 -0.00232653)
(0.108452 2.49621e-09 -0.00232327)
(0.110058 2.78225e-09 -0.00232014)
(0.111659 3.02978e-09 -0.00231655)
(0.113252 3.25219e-09 -0.00231178)
(0.114837 3.43945e-09 -0.00230499)
(0.116413 3.59323e-09 -0.0022952)
(0.117976 3.7219e-09 -0.00228129)
(0.119524 3.8104e-09 -0.00226197)
(0.121051 3.87378e-09 -0.00223581)
(0.122554 3.89866e-09 -0.00220118)
(0.124026 3.89844e-09 -0.0021563)
(0.125459 3.86306e-09 -0.00209922)
(0.126844 3.80927e-09 -0.00202781)
(0.128172 3.72367e-09 -0.0019398)
(0.129429 3.62971e-09 -0.00183275)
(0.130604 3.53407e-09 -0.00170411)
(0.13168 3.44011e-09 -0.00155124)
(0.13264 3.36792e-09 -0.00137143)
(0.133467 3.32085e-09 -0.00116198)
(0.134138 3.29891e-09 -0.000920224)
(0.134633 3.32891e-09 -0.000643717)
(0.134927 3.3807e-09 -0.000330201)
(0.134993 3.46436e-09 2.16104e-05)
(0.134803 3.56487e-09 0.000415551)
(0.134329 3.67882e-09 0.000856089)
(0.13354 3.78444e-09 0.00134472)
(0.132406 3.8549e-09 0.00188237)
(0.130894 3.90193e-09 0.00246928)
(0.128973 3.91043e-09 0.00310497)
(0.12661 3.90386e-09 0.00378806)
(0.123776 3.90234e-09 0.00451611)
(0.120441 3.95116e-09 0.00528541)
(0.116578 4.10574e-09 0.00609076)
(0.112166 4.43496e-09 0.00692525)
(0.107186 5.00444e-09 0.00777994)
(0.101627 5.82785e-09 0.00864359)
(0.0954839 6.86344e-09 0.00950226)
(0.0887618 7.94172e-09 0.0103388)
(0.0814774 8.77361e-09 0.0111325)
(0.0736608 9.06122e-09 0.0118578)
(0.0653589 8.59366e-09 0.0124839)
(0.056639 7.42726e-09 0.0129728)
(0.0475928 5.77843e-09 0.0132776)
(0.0383411 3.98692e-09 0.0133385)
(0.0290441 2.27179e-09 0.0130804)
(0.0199002 1.27576e-09 0.0123952)
(0.0111569 2.52667e-09 0.0111495)
(0.00312912 6.51681e-09 0.00920782)
(-0.00383082 1.30877e-08 0.00640686)
(-0.00919152 2.26546e-08 0.00264712)
(-0.012486 3.67305e-08 -0.00202087)
(-0.0130026 5.34766e-08 -0.0070445)
(-0.0102437 4.27619e-08 -0.010867)
(-0.00330463 -3.06258e-07 -0.0092336)
(-0.00104103 -1.40452e-07 0.00277096)
(-0.0044352 -7.15188e-08 0.00476137)
(-0.007016 -8.52562e-08 0.00455366)
(-0.00843489 -6.6949e-08 0.00322646)
(-0.00874983 -5.18021e-08 0.00157067)
(-0.00808814 -4.04712e-08 -2.62363e-05)
(-0.0066219 -3.26548e-08 -0.00140642)
(-0.00451522 -2.70925e-08 -0.00251925)
(-0.0019216 -2.26141e-08 -0.00336661)
(0.00102638 -1.91599e-08 -0.00397141)
(0.00419436 -1.63605e-08 -0.00436043)
(0.00747613 -1.38261e-08 -0.00456347)
(0.0107774 -1.16597e-08 -0.0046046)
(0.0140153 -9.82733e-09 -0.00450842)
(0.0171203 -8.19196e-09 -0.00429916)
(0.0200311 -6.69499e-09 -0.00399553)
(0.0226972 -5.20114e-09 -0.00361456)
(0.0250765 -3.64859e-09 -0.0031714)
(0.0271354 -1.96556e-09 -0.00267979)
(0.0288477 -1.70368e-10 -0.00215225)
(0.0301942 1.74037e-09 -0.00160028)
(0.0311621 3.72664e-09 -0.00103446)
(0.0317448 5.75007e-09 -0.000464548)
(0.0319405 7.84562e-09 0.000100845)
(0.0317537 1.00003e-08 0.000655598)
(0.0311926 1.21824e-08 0.00119414)
(0.0302705 1.43702e-08 0.00171012)
(0.0290036 1.65185e-08 0.00219816)
(0.0274115 1.85805e-08 0.00265365)
(0.0255167 2.05346e-08 0.00307277)
(0.023344 2.23472e-08 0.00345245)
(0.0209202 2.40483e-08 0.00379033)
(0.0182737 2.55795e-08 0.00408474)
(0.0154338 2.67618e-08 0.00433453)
(0.012431 2.77288e-08 0.00453936)
(0.00929502 2.84836e-08 0.00469725)
(0.00605638 2.90163e-08 0.00480801)
(0.00274451 2.94756e-08 0.00487484)
(-0.000613006 2.94634e-08 0.00489981)
(-0.00398425 2.92321e-08 0.00488483)
(-0.00734055 2.88672e-08 0.00483253)
(-0.0106595 2.81477e-08 0.00474668)
(-0.0139171 2.72441e-08 0.00462983)
(-0.0170927 2.61733e-08 0.00448417)
(-0.020167 2.49618e-08 0.00431294)
(-0.023123 2.36248e-08 0.00411912)
(-0.0259453 2.21656e-08 0.00390587)
(-0.0286208 2.05943e-08 0.00367623)
(-0.0311385 1.89459e-08 0.00343316)
(-0.033489 1.72205e-08 0.00317951)
(-0.0356652 1.54399e-08 0.00291797)
(-0.0376614 1.36057e-08 0.00265105)
(-0.0394737 1.17297e-08 0.00238107)
(-0.0410999 9.81692e-09 0.00211012)
(-0.0425388 7.87902e-09 0.00184013)
(-0.043791 5.91437e-09 0.00157275)
(-0.0448577 3.94806e-09 0.00130949)
(-0.0457416 1.97843e-09 0.0010516)
(-0.0464458 8.81632e-12 0.000800177)
(-0.0469744 -1.95743e-09 0.000556125)
(-0.047332 -3.89858e-09 0.000320205)
(-0.047524 -5.81304e-09 9.30658e-05)
(-0.0475554 -7.70133e-09 -0.000124726)
(-0.0474322 -9.5589e-09 -0.000333017)
(-0.047161 -1.13612e-08 -0.000531813)
(-0.0467482 -1.31401e-08 -0.000720974)
(-0.0462 -1.48889e-08 -0.000900473)
(-0.0455231 -1.65976e-08 -0.00107038)
(-0.0447237 -1.82729e-08 -0.00123086)
(-0.0438081 -1.99097e-08 -0.00138211)
(-0.0427826 -2.14998e-08 -0.0015244)
(-0.0416531 -2.30498e-08 -0.00165804)
(-0.0404254 -2.45547e-08 -0.00178336)
(-0.0391053 -2.60044e-08 -0.00190069)
(-0.0376981 -2.7404e-08 -0.00201042)
(-0.036209 -2.87435e-08 -0.0021129)
(-0.0346432 -3.00195e-08 -0.00220851)
(-0.0330053 -3.12421e-08 -0.00229762)
(-0.0312999 -3.23878e-08 -0.00238059)
(-0.0295314 -3.34717e-08 -0.00245777)
(-0.027704 -3.44871e-08 -0.0025295)
(-0.0258215 -3.54356e-08 -0.0025961)
(-0.0238878 -3.62989e-08 -0.00265788)
(-0.0219063 -3.7087e-08 -0.00271516)
(-0.0198806 -3.77882e-08 -0.00276821)
(-0.0178137 -3.8389e-08 -0.00281719)
(-0.0157089 -3.89431e-08 -0.00286249)
(-0.013569 -3.94102e-08 -0.00290429)
(-0.0113967 -3.97803e-08 -0.00294245)
(-0.00919483 -4.01069e-08 -0.00297761)
(-0.006966 -4.03582e-08 -0.00301034)
(-0.00471249 -4.04673e-08 -0.00304024)
(-0.00243709 -4.04426e-08 -0.00306708)
(-0.000140191 -4.04344e-08 -0.00309104)
(0.00217354 -4.02955e-08 -0.00311227)
(0.00450125 -3.98971e-08 -0.00313088)
(0.0068412 -3.94367e-08 -0.003147)
(0.00919126 -3.89561e-08 -0.00316074)
(0.011549 -3.83885e-08 -0.00317227)
(0.0139124 -3.77588e-08 -0.00318098)
(0.0162794 -3.70555e-08 -0.00318618)
(0.0186482 -3.62349e-08 -0.0031885)
(0.0210168 -3.53473e-08 -0.00318853)
(0.0233833 -3.43726e-08 -0.0031863)
(0.0257458 -3.33426e-08 -0.00318185)
(0.0281026 -3.22672e-08 -0.00317522)
(0.0304519 -3.11733e-08 -0.00316645)
(0.032792 -3.00592e-08 -0.00315559)
(0.0351212 -2.89114e-08 -0.00314267)
(0.0374381 -2.77636e-08 -0.00312778)
(0.0397409 -2.65955e-08 -0.00311096)
(0.0420284 -2.54373e-08 -0.00309232)
(0.044299 -2.4274e-08 -0.00307192)
(0.0465516 -2.31223e-08 -0.00304988)
(0.0487849 -2.19805e-08 -0.0030263)
(0.0509978 -2.08453e-08 -0.00300128)
(0.0531892 -1.97284e-08 -0.00297497)
(0.0553582 -1.86163e-08 -0.00294748)
(0.057504 -1.75277e-08 -0.00291896)
(0.0596259 -1.64523e-08 -0.00288955)
(0.0617233 -1.54019e-08 -0.00285942)
(0.0637956 -1.43632e-08 -0.00282872)
(0.0658426 -1.33461e-08 -0.00279761)
(0.0678639 -1.23541e-08 -0.00276627)
(0.0698595 -1.13955e-08 -0.00273487)
(0.0718293 -1.04569e-08 -0.00270359)
(0.0737735 -9.54338e-09 -0.0026726)
(0.0756924 -8.65826e-09 -0.00264208)
(0.0775864 -7.79989e-09 -0.00261221)
(0.0794559 -6.97495e-09 -0.00258316)
(0.0813015 -6.17006e-09 -0.0025551)
(0.0831242 -5.39863e-09 -0.00252819)
(0.0849246 -4.65898e-09 -0.00250259)
(0.0867038 -3.94274e-09 -0.00247844)
(0.0884628 -3.25829e-09 -0.00245588)
(0.0902029 -2.61066e-09 -0.00243502)
(0.0919251 -1.99148e-09 -0.00241596)
(0.0936309 -1.40242e-09 -0.00239877)
(0.0953214 -8.46838e-10 -0.0023835)
(0.0969982 -3.19714e-10 -0.00237018)
(0.0986624 1.77277e-10 -0.00235878)
(0.100316 6.30741e-10 -0.00234923)
(0.101959 1.06914e-09 -0.00234142)
(0.103593 1.46735e-09 -0.00233519)
(0.105219 1.8438e-09 -0.00233029)
(0.106839 2.18509e-09 -0.00232641)
(0.108452 2.49624e-09 -0.00232316)
(0.110059 2.78228e-09 -0.00232004)
(0.111659 3.02981e-09 -0.00231645)
(0.113252 3.25223e-09 -0.00231168)
(0.114838 3.43949e-09 -0.0023049)
(0.116413 3.59327e-09 -0.00229511)
(0.117976 3.72195e-09 -0.00228121)
(0.119524 3.81044e-09 -0.0022619)
(0.121052 3.87383e-09 -0.00223574)
(0.122555 3.89871e-09 -0.00220112)
(0.124026 3.89849e-09 -0.00215625)
(0.125459 3.86311e-09 -0.00209918)
(0.126845 3.80932e-09 -0.00202778)
(0.128172 3.72372e-09 -0.00193977)
(0.12943 3.62975e-09 -0.00183273)
(0.130604 3.53411e-09 -0.00170411)
(0.13168 3.44014e-09 -0.00155125)
(0.13264 3.36795e-09 -0.00137145)
(0.133467 3.32088e-09 -0.001162)
(0.134139 3.29894e-09 -0.000920255)
(0.134634 3.32894e-09 -0.000643757)
(0.134927 3.38073e-09 -0.000330251)
(0.134994 3.4644e-09 2.15522e-05)
(0.134804 3.5649e-09 0.000415484)
(0.134329 3.67886e-09 0.000856012)
(0.133541 3.78447e-09 0.00134463)
(0.132406 3.85493e-09 0.00188227)
(0.130895 3.90196e-09 0.00246918)
(0.128973 3.91046e-09 0.00310486)
(0.126611 3.90389e-09 0.00378795)
(0.123776 3.90237e-09 0.00451599)
(0.120441 3.95119e-09 0.00528528)
(0.116579 4.10576e-09 0.00609063)
(0.112167 4.43498e-09 0.00692511)
(0.107187 5.00447e-09 0.0077798)
(0.101628 5.82788e-09 0.00864345)
(0.0954843 6.86348e-09 0.00950212)
(0.0887622 7.94176e-09 0.0103387)
(0.0814777 8.77365e-09 0.0111323)
(0.0736611 9.06126e-09 0.0118576)
(0.0653592 8.59369e-09 0.0124837)
(0.0566393 7.4273e-09 0.0129726)
(0.047593 5.77846e-09 0.0132774)
(0.0383413 3.98693e-09 0.0133383)
(0.0290443 2.2718e-09 0.0130802)
(0.0199003 1.27576e-09 0.012395)
(0.011157 2.52668e-09 0.0111492)
(0.00312917 6.51684e-09 0.00920745)
(-0.00383079 1.30878e-08 0.00640642)
(-0.00919152 2.26547e-08 0.00264659)
(-0.012486 3.67306e-08 -0.0020215)
(-0.0130028 5.34767e-08 -0.00704526)
(-0.0102445 4.27619e-08 -0.0108681)
(-0.00330553 -3.06258e-07 -0.00923494)