/*--------------------------------*- C++ -*----------------------------------*\
  =========                 |
  \\      /  F ield         | OpenFOAM: The Open Source CFD Toolbox
   \\    /   O peration     | Website:  https://openfoam.org
    \\  /    A nd           | Version:  8
     \\/     M anipulation  |
\*---------------------------------------------------------------------------*/
FoamFile
{
    version     2.0;
    format      ascii;
    class       volScalarField;
    location    "1300";
    object      alphat;
}
// * * * * * * * * * * * * * * * * * * * * * * * * * * * * * * * * * * * * * //

dimensions      [1 -1 -1 0 0 0 0];

internalField   nonuniform List<scalar> 
48000
(
4.82704e-05
3.42117e-05
5.79565e-05
6.62607e-05
7.30482e-05
7.86967e-05
8.36766e-05
8.81249e-05
9.2176e-05
9.59235e-05
9.94261e-05
0.000102726
0.000105856
0.000108838
0.000111692
0.000114432
0.000117069
0.000119613
0.000122069
0.000124445
0.000126745
0.000128972
0.000131131
0.000133224
0.000135253
0.000137221
0.000139128
0.000140978
0.00014277
0.000144507
0.00014619
0.00014782
0.000149398
0.000150924
0.000152401
0.000153828
0.000155208
0.00015654
0.000157826
0.000159067
0.000160263
0.000161416
0.000162526
0.000163594
0.000164622
0.000165609
0.000166557
0.000167467
0.000168339
0.000169174
0.000169974
0.000170737
0.000171467
0.000172162
0.000172824
0.000173454
0.000174051
0.000174616
0.000175154
0.000175663
0.000176144
0.000176596
0.00017702
0.000177417
0.000177786
0.000178129
0.000178446
0.000178738
0.000179004
0.000179246
0.000179464
0.000179659
0.00017983
0.000179978
0.000180104
0.000180209
0.000180291
0.000180352
0.000180393
0.000180412
0.000180412
0.000180392
0.000180352
0.000180292
0.000180214
0.000180117
0.000180002
0.000179868
0.000179716
0.000179547
0.00017936
0.000179156
0.000178935
0.000178697
0.000178443
0.000178172
0.000177884
0.000177581
0.000177262
0.000176927
0.000176576
0.00017621
0.000175828
0.000175432
0.00017502
0.000174593
0.000174151
0.000173695
0.000173224
0.000172738
0.000172237
0.000171722
0.000171192
0.000170648
0.000170089
0.000169516
0.000168928
0.000168326
0.000167709
0.000167077
0.000166431
0.00016577
0.000165094
0.000164404
0.000163699
0.000162978
0.000162243
0.000161492
0.000160726
0.000159944
0.000159147
0.000158334
0.000157505
0.000156661
0.0001558
0.000154922
0.000154029
0.000153118
0.000152191
0.000151247
0.000150285
0.000149306
0.00014831
0.000147296
0.000146263
0.000145213
0.000144144
0.000143057
0.000141951
0.000140827
0.000139683
0.00013852
0.000137337
0.000136134
0.000134912
0.000133669
0.000132407
0.000131123
0.000129819
0.000128493
0.000127147
0.000125779
0.000124389
0.000122977
0.000121543
0.000120086
0.000118606
0.000117103
0.000115576
0.000114025
0.00011245
0.000110849
0.000109222
0.000107568
0.000105887
0.000104178
0.000102438
0.000100668
9.8865e-05
9.70274e-05
9.51529e-05
9.32387e-05
9.12817e-05
8.92784e-05
8.72262e-05
8.51218e-05
8.29787e-05
8.07678e-05
7.84632e-05
7.60501e-05
7.35025e-05
7.07865e-05
6.78541e-05
6.46448e-05
6.10893e-05
5.68346e-05
5.07331e-05
3.55767e-05
0.000204001
0.000141902
4.81682e-05
3.423e-05
5.7954e-05
6.62607e-05
7.30492e-05
7.86979e-05
8.36778e-05
8.81261e-05
9.21771e-05
9.59246e-05
9.9427e-05
0.000102727
0.000105856
0.000108839
0.000111693
0.000114433
0.00011707
0.000119613
0.00012207
0.000124446
0.000126745
0.000128973
0.000131132
0.000133224
0.000135253
0.000137221
0.000139129
0.000140978
0.00014277
0.000144508
0.00014619
0.00014782
0.000149398
0.000150924
0.000152401
0.000153828
0.000155208
0.00015654
0.000157826
0.000159067
0.000160263
0.000161416
0.000162526
0.000163594
0.000164622
0.000165609
0.000166557
0.000167467
0.000168339
0.000169174
0.000169973
0.000170737
0.000171466
0.000172162
0.000172824
0.000173453
0.000174051
0.000174616
0.000175154
0.000175663
0.000176144
0.000176596
0.00017702
0.000177416
0.000177786
0.000178129
0.000178446
0.000178737
0.000179004
0.000179246
0.000179464
0.000179659
0.00017983
0.000179978
0.000180104
0.000180208
0.000180291
0.000180352
0.000180392
0.000180412
0.000180412
0.000180391
0.000180352
0.000180292
0.000180214
0.000180117
0.000180002
0.000179868
0.000179716
0.000179547
0.00017936
0.000179156
0.000178935
0.000178697
0.000178442
0.000178171
0.000177884
0.000177581
0.000177261
0.000176926
0.000176576
0.00017621
0.000175828
0.000175431
0.00017502
0.000174593
0.000174151
0.000173695
0.000173223
0.000172737
0.000172237
0.000171722
0.000171192
0.000170648
0.000170089
0.000169516
0.000168928
0.000168325
0.000167708
0.000167077
0.000166431
0.00016577
0.000165094
0.000164404
0.000163698
0.000162978
0.000162242
0.000161492
0.000160726
0.000159944
0.000159147
0.000158334
0.000157505
0.000156661
0.0001558
0.000154922
0.000154029
0.000153118
0.000152191
0.000151247
0.000150285
0.000149306
0.00014831
0.000147295
0.000146263
0.000145213
0.000144144
0.000143057
0.000141951
0.000140827
0.000139683
0.000138519
0.000137337
0.000136134
0.000134912
0.000133669
0.000132406
0.000131123
0.000129819
0.000128493
0.000127147
0.000125779
0.000124389
0.000122977
0.000121543
0.000120086
0.000118606
0.000117103
0.000115576
0.000114025
0.00011245
0.000110849
0.000109222
0.000107568
0.000105887
0.000104178
0.000102438
0.000100668
9.8865e-05
9.70274e-05
9.51528e-05
9.32387e-05
9.12817e-05
8.92784e-05
8.72262e-05
8.51217e-05
8.29787e-05
8.07678e-05
7.84632e-05
7.60501e-05
7.35025e-05
7.07865e-05
6.78544e-05
6.4646e-05
6.10937e-05
5.68504e-05
5.07713e-05
3.55968e-05
0.000203891
0.00014188
3.45579e-05
0.000238187
0.000466521
0.000600348
0.000694686
0.000770204
0.000833995
0.000889843
0.000939791
0.000985142
0.00102682
0.00106547
0.00110161
0.0011356
0.00116773
0.00119823
0.00122729
0.00125504
0.00128161
0.00130711
0.0013316
0.00135517
0.00137786
0.00139974
0.00142084
0.0014412
0.00146086
0.00147984
0.00149818
0.00151589
0.00153301
0.00154954
0.00156552
0.00158095
0.00159585
0.00161024
0.00162414
0.00163755
0.00165049
0.00166298
0.00167502
0.00168663
0.00169782
0.0017086
0.00171898
0.00172897
0.00173857
0.00174781
0.00175667
0.00176519
0.00177335
0.00178117
0.00178866
0.00179583
0.00180267
0.00180919
0.0018154
0.00182127
0.00182674
0.00183187
0.00183672
0.0018413
0.00184561
0.00184967
0.00185348
0.00185704
0.00186035
0.00186342
0.00186625
0.00186885
0.00187121
0.00187335
0.00187527
0.00187696
0.00187844
0.0018797
0.00188074
0.00188158
0.00188222
0.00188264
0.00188287
0.0018829
0.00188273
0.00188236
0.00188181
0.00188106
0.00188013
0.00187901
0.00187771
0.00187623
0.00187456
0.00187272
0.00187071
0.00186852
0.00186615
0.00186362
0.00186092
0.00185805
0.00185501
0.00185181
0.00184845
0.00184492
0.00184123
0.00183738
0.00183338
0.00182921
0.00182488
0.0018204
0.00181577
0.00181097
0.00180602
0.00180092
0.00179566
0.00179024
0.00178467
0.00177895
0.00177307
0.00176703
0.00176084
0.00175449
0.00174798
0.00174132
0.00173449
0.00172751
0.00172037
0.00171307
0.0017056
0.00169797
0.00169017
0.00168221
0.00167408
0.00166579
0.00165732
0.00164868
0.00163987
0.00163088
0.00162172
0.00161238
0.00160285
0.00159315
0.00158326
0.00157319
0.00156293
0.00155249
0.00154185
0.00153102
0.00151999
0.00150877
0.00149735
0.00148573
0.00147391
0.00146188
0.00144965
0.00143721
0.00142455
0.00141169
0.00139861
0.00138531
0.0013718
0.00135806
0.00134409
0.0013299
0.00131548
0.00130082
0.00128593
0.00127079
0.00125541
0.00123978
0.00122389
0.00120774
0.00119132
0.00117463
0.00115765
0.00114037
0.00112279
0.00110489
0.00108665
0.00106805
0.00104908
0.00102969
0.00100987
0.000989563
0.000968721
0.000947273
0.00092512
0.000902126
0.000878068
0.000852886
0.000826465
0.000798584
0.000768881
0.000736819
0.000701496
0.000661163
0.000612858
0.000553329
0.000473802
0.00035979
0.000265256
0.000169021
3.45661e-05
0.00023831
0.000466332
0.000600326
0.00069473
0.000770263
0.000834056
0.000889904
0.00093985
0.000985201
0.00102687
0.00106553
0.00110166
0.00113565
0.00116778
0.00119828
0.00122733
0.00125509
0.00128166
0.00130715
0.00133164
0.00135521
0.0013779
0.00139978
0.00142088
0.00144124
0.0014609
0.00147988
0.00149822
0.00151593
0.00153304
0.00154958
0.00156555
0.00158098
0.00159588
0.00161027
0.00162416
0.00163758
0.00165052
0.00166301
0.00167505
0.00168666
0.00169785
0.00170863
0.001719
0.00172899
0.0017386
0.00174783
0.0017567
0.00176521
0.00177337
0.0017812
0.00178868
0.00179585
0.00180269
0.00180921
0.00181542
0.00182129
0.00182676
0.00183188
0.00183673
0.00184131
0.00184563
0.00184969
0.0018535
0.00185705
0.00186036
0.00186343
0.00186626
0.00186886
0.00187123
0.00187337
0.00187528
0.00187697
0.00187845
0.00187971
0.00188076
0.0018816
0.00188223
0.00188266
0.00188288
0.00188291
0.00188274
0.00188238
0.00188182
0.00188108
0.00188014
0.00187902
0.00187772
0.00187624
0.00187458
0.00187274
0.00187072
0.00186853
0.00186617
0.00186363
0.00186093
0.00185806
0.00185502
0.00185182
0.00184846
0.00184493
0.00184124
0.0018374
0.00183339
0.00182922
0.0018249
0.00182042
0.00181578
0.00181098
0.00180603
0.00180093
0.00179567
0.00179025
0.00178468
0.00177896
0.00177308
0.00176704
0.00176085
0.0017545
0.00174799
0.00174133
0.00173451
0.00172752
0.00172038
0.00171308
0.00170561
0.00169798
0.00169018
0.00168222
0.0016741
0.0016658
0.00165733
0.00164869
0.00163988
0.00163089
0.00162173
0.00161239
0.00160286
0.00159316
0.00158327
0.0015732
0.00156294
0.00155249
0.00154186
0.00153103
0.00152
0.00150878
0.00149736
0.00148574
0.00147392
0.00146189
0.00144966
0.00143722
0.00142456
0.0014117
0.00139862
0.00138532
0.00137181
0.00135807
0.0013441
0.00132991
0.00131549
0.00130083
0.00128594
0.0012708
0.00125542
0.00123979
0.0012239
0.00120775
0.00119133
0.00117464
0.00115766
0.00114038
0.0011228
0.0011049
0.00108666
0.00106806
0.00104909
0.0010297
0.00100988
0.000989572
0.00096873
0.000947283
0.000925129
0.000902135
0.000878077
0.000852894
0.000826474
0.000798592
0.00076889
0.000736827
0.000701507
0.00066118
0.000612891
0.000553379
0.000473782
0.000359734
0.000265519
0.000168876
4.82993e-05
0.000441859
0.000809727
0.00108608
0.00130342
0.00148272
0.00163571
0.0017695
0.00188863
0.00199616
0.00209428
0.00218461
0.00226837
0.0023465
0.00241975
0.00248872
0.00255388
0.00261564
0.00267433
0.00273021
0.00278353
0.00283448
0.00288324
0.00292995
0.00297474
0.00301774
0.00305904
0.00309873
0.00313689
0.00317361
0.00320894
0.00324296
0.00327572
0.00330727
0.00333766
0.00336694
0.00339515
0.00342233
0.00344853
0.00347377
0.00349808
0.00352151
0.00354408
0.00356581
0.00358673
0.00360687
0.00362624
0.00364488
0.0036628
0.00368001
0.00369654
0.00371241
0.00372762
0.0037422
0.00375614
0.00376947
0.00378218
0.00379427
0.00380569
0.00381645
0.00382663
0.00383628
0.0038454
0.00385402
0.00386214
0.00386976
0.0038769
0.00388356
0.00388975
0.00389548
0.00390075
0.00390556
0.00390993
0.00391386
0.00391735
0.00392041
0.00392305
0.00392527
0.00392706
0.00392845
0.00392943
0.00393001
0.00393019
0.00392998
0.00392937
0.00392838
0.00392701
0.00392526
0.00392313
0.00392064
0.00391777
0.00391454
0.00391096
0.00390701
0.00390271
0.00389806
0.00389306
0.00388771
0.00388202
0.00387599
0.00386963
0.00386292
0.00385588
0.00384851
0.00384081
0.00383278
0.00382442
0.00381574
0.00380673
0.00379739
0.00378773
0.00377775
0.00376744
0.00375681
0.00374586
0.00373458
0.00372297
0.00371104
0.00369879
0.00368621
0.0036733
0.00366005
0.00364648
0.00363257
0.00361833
0.00360374
0.00358882
0.00357356
0.00355794
0.00354198
0.00352567
0.00350901
0.00349199
0.0034746
0.00345685
0.00343874
0.00342025
0.00340139
0.00338215
0.00336253
0.00334252
0.00332212
0.00330132
0.00328013
0.00325853
0.00323652
0.0032141
0.00319126
0.003168
0.00314431
0.00312019
0.00309563
0.00307063
0.00304518
0.00301927
0.0029929
0.00296606
0.00293874
0.00291094
0.00288265
0.00285385
0.00282455
0.00279473
0.00276437
0.00273347
0.00270201
0.00266998
0.00263737
0.00260414
0.00257028
0.00253578
0.00250059
0.00246469
0.00242805
0.00239063
0.00235238
0.00231324
0.00227315
0.00223205
0.00218983
0.0021464
0.00210163
0.00205536
0.00200738
0.00195745
0.00190524
0.00185036
0.0017924
0.00173082
0.00166482
0.00159327
0.00151462
0.00142654
0.00132542
0.00120575
0.00106032
0.000876089
0.000631763
0.000302901
3.85537e-05
4.83114e-05
0.000441746
0.000809622
0.00108612
0.00130353
0.00148285
0.00163585
0.00176964
0.00188876
0.00199629
0.00209441
0.00218473
0.00226849
0.00234662
0.00241986
0.00248882
0.00255398
0.00261574
0.00267442
0.0027303
0.00278362
0.00283456
0.00288332
0.00293002
0.00297482
0.00301781
0.0030591
0.00309879
0.00313695
0.00317366
0.00320899
0.00324301
0.00327576
0.00330731
0.0033377
0.00336698
0.00339519
0.00342237
0.00344856
0.0034738
0.00349811
0.00352154
0.0035441
0.00356583
0.00358675
0.00360689
0.00362626
0.0036449
0.00366281
0.00368003
0.00369656
0.00371242
0.00372764
0.00374221
0.00375615
0.00376948
0.00378219
0.00379427
0.0038057
0.00381646
0.00382664
0.00383628
0.00384541
0.00385403
0.00386214
0.00386977
0.0038769
0.00388357
0.00388976
0.00389548
0.00390075
0.00390556
0.00390993
0.00391386
0.00391735
0.00392041
0.00392305
0.00392527
0.00392706
0.00392845
0.00392943
0.00393001
0.00393019
0.00392997
0.00392937
0.00392838
0.00392701
0.00392526
0.00392313
0.00392063
0.00391777
0.00391454
0.00391095
0.00390701
0.00390271
0.00389805
0.00389305
0.00388771
0.00388202
0.00387599
0.00386962
0.00386292
0.00385588
0.00384851
0.00384081
0.00383278
0.00382442
0.00381573
0.00380672
0.00379739
0.00378773
0.00377774
0.00376744
0.0037568
0.00374585
0.00373457
0.00372297
0.00371104
0.00369878
0.0036862
0.00367329
0.00366005
0.00364647
0.00363256
0.00361832
0.00360374
0.00358881
0.00357355
0.00355794
0.00354198
0.00352567
0.003509
0.00349198
0.00347459
0.00345685
0.00343873
0.00342024
0.00340138
0.00338214
0.00336252
0.00334251
0.00332211
0.00330131
0.00328012
0.00325852
0.00323651
0.00321409
0.00319125
0.00316799
0.0031443
0.00312018
0.00309562
0.00307062
0.00304517
0.00301926
0.00299289
0.00296605
0.00293873
0.00291093
0.00288264
0.00285385
0.00282454
0.00279472
0.00276436
0.00273346
0.00270201
0.00266998
0.00263736
0.00260413
0.00257028
0.00253577
0.00250058
0.00246469
0.00242805
0.00239062
0.00235237
0.00231323
0.00227315
0.00223204
0.00218983
0.0021464
0.00210163
0.00205535
0.00200738
0.00195744
0.00190524
0.00185036
0.0017924
0.00173082
0.00166481
0.00159327
0.00151462
0.00142654
0.00132543
0.00120577
0.00106034
0.00087607
0.00063187
0.000302363
3.85592e-05
5.66484e-05
0.000543779
0.00103897
0.00143966
0.00176924
0.00204775
0.00228858
0.00250069
0.00269026
0.00286168
0.00301814
0.00316208
0.00329536
0.00341943
0.00353546
0.0036444
0.00374703
0.00384398
0.0039358
0.00402295
0.00410581
0.00418473
0.00425998
0.00433184
0.00440053
0.00446624
0.00452917
0.00458946
0.00464727
0.00470273
0.00475597
0.00480709
0.0048562
0.0049034
0.00494877
0.0049924
0.00503437
0.00507474
0.00511358
0.00515096
0.00518693
0.00522156
0.00525488
0.00528695
0.00531781
0.0053475
0.00537606
0.00540354
0.00542995
0.00545534
0.00547972
0.00550314
0.00552561
0.00554715
0.00556778
0.00558752
0.00560638
0.00562435
0.00564145
0.00565765
0.00567298
0.00568754
0.00570134
0.0057144
0.00572674
0.00573837
0.0057493
0.00575953
0.00576908
0.00577796
0.00578618
0.00579375
0.00580066
0.00580694
0.00581259
0.00581761
0.00582201
0.0058258
0.00582899
0.00583158
0.00583357
0.00583498
0.00583581
0.00583607
0.00583575
0.00583488
0.00583344
0.00583145
0.00582891
0.00582583
0.00582221
0.00581806
0.00581338
0.00580818
0.00580245
0.00579621
0.00578946
0.0057822
0.00577443
0.00576617
0.0057574
0.00574814
0.00573839
0.00572815
0.00571743
0.00570621
0.00569452
0.00568234
0.00566968
0.00565654
0.00564292
0.00562883
0.00561425
0.0055992
0.00558367
0.00556766
0.00555117
0.00553419
0.00551674
0.00549879
0.00548036
0.00546145
0.00544204
0.00542213
0.00540173
0.00538082
0.00535941
0.00533749
0.00531505
0.0052921
0.00526863
0.00524462
0.00522009
0.00519502
0.0051694
0.00514324
0.00511652
0.00508925
0.0050614
0.00503299
0.00500399
0.00497441
0.00494423
0.00491346
0.00488207
0.00485007
0.00481745
0.0047842
0.0047503
0.00471575
0.00468055
0.00464467
0.00460812
0.00457087
0.00453292
0.00449426
0.00445487
0.00441474
0.00437385
0.0043322
0.00428975
0.00424649
0.0042024
0.00415747
0.00411165
0.00406493
0.00401728
0.00396866
0.00391904
0.00386837
0.00381661
0.0037637
0.00370959
0.0036542
0.00359746
0.00353928
0.00347955
0.00341815
0.00335495
0.00328978
0.00322243
0.00315267
0.00308021
0.0030047
0.0029257
0.00284266
0.00275493
0.00266169
0.00256192
0.00245421
0.0023367
0.00220683
0.00206108
0.00189449
0.00170037
0.00146994
0.00119358
0.000867586
0.000510941
0.000336246
5.66501e-05
0.000543777
0.00103902
0.00143979
0.00176941
0.00204794
0.00228878
0.00250089
0.00269046
0.00286187
0.00301833
0.00316227
0.00329553
0.0034196
0.00353563
0.00364456
0.00374718
0.00384413
0.00393595
0.00402309
0.00410594
0.00418485
0.0042601
0.00433195
0.00440063
0.00446634
0.00452926
0.00458955
0.00464735
0.00470281
0.00475604
0.00480716
0.00485627
0.00490346
0.00494883
0.00499245
0.00503441
0.00507478
0.00511362
0.005151
0.00518697
0.00522159
0.00525491
0.00528697
0.00531783
0.00534752
0.00537608
0.00540355
0.00542996
0.00545535
0.00547973
0.00550315
0.00552561
0.00554715
0.00556778
0.00558752
0.00560638
0.00562435
0.00564144
0.00565765
0.00567298
0.00568753
0.00570133
0.0057144
0.00572674
0.00573836
0.00574929
0.00575952
0.00576907
0.00577795
0.00578617
0.00579373
0.00580065
0.00580693
0.00581257
0.00581759
0.005822
0.00582579
0.00582897
0.00583156
0.00583356
0.00583497
0.0058358
0.00583605
0.00583574
0.00583486
0.00583342
0.00583143
0.0058289
0.00582582
0.0058222
0.00581805
0.00581336
0.00580816
0.00580243
0.00579619
0.00578944
0.00578218
0.00577442
0.00576615
0.00575738
0.00574813
0.00573837
0.00572813
0.00571741
0.00570619
0.0056945
0.00568232
0.00566966
0.00565652
0.0056429
0.00562881
0.00561423
0.00559918
0.00558365
0.00556764
0.00555114
0.00553417
0.00551671
0.00549877
0.00548034
0.00546142
0.00544201
0.00542211
0.0054017
0.0053808
0.00535939
0.00533746
0.00531503
0.00529208
0.0052686
0.0052446
0.00522007
0.00519499
0.00516938
0.00514322
0.0051165
0.00508922
0.00506138
0.00503296
0.00500397
0.00497439
0.00494421
0.00491343
0.00488205
0.00485005
0.00481743
0.00478417
0.00475027
0.00471573
0.00468052
0.00464465
0.00460809
0.00457085
0.0045329
0.00449424
0.00445485
0.00441472
0.00437383
0.00433217
0.00428972
0.00424647
0.00420238
0.00415744
0.00411163
0.00406491
0.00401726
0.00396864
0.00391902
0.00386835
0.00381659
0.00376368
0.00370957
0.00365418
0.00359744
0.00353926
0.00347953
0.00341813
0.00335493
0.00328976
0.00322241
0.00315265
0.0030802
0.00300468
0.00292568
0.00284264
0.00275491
0.00266168
0.00256191
0.0024542
0.00233669
0.00220682
0.00206107
0.00189448
0.00170034
0.00146976
0.00119288
0.00086605
0.000510574
0.000336385
6.22043e-05
0.000611082
0.00120452
0.00170635
0.00213071
0.0024958
0.00281528
0.00309897
0.00335394
0.0035854
0.00379728
0.00399256
0.0041736
0.00434224
0.0045
0.0046481
0.00478754
0.00491919
0.00504374
0.00516183
0.00527396
0.00538061
0.00548216
0.00557897
0.00567137
0.00575961
0.00584397
0.00592466
0.0060019
0.00607587
0.00614676
0.00621472
0.0062799
0.00634245
0.00640248
0.00646013
0.0065155
0.00656869
0.00661981
0.00666895
0.00671619
0.00676161
0.00680528
0.00684728
0.00688766
0.0069265
0.00696384
0.00699974
0.00703424
0.00706739
0.00709924
0.00712981
0.00715915
0.00718728
0.00721424
0.00724005
0.00726472
0.00728828
0.00731072
0.00733207
0.00735234
0.00737156
0.00738981
0.00740711
0.00742349
0.00743894
0.00745349
0.00746715
0.00747994
0.00749187
0.00750295
0.00751318
0.00752259
0.00753117
0.00753895
0.00754593
0.00755211
0.00755751
0.00756213
0.00756599
0.00756908
0.00757143
0.00757303
0.00757389
0.00757402
0.00757343
0.00757212
0.0075701
0.00756738
0.00756396
0.00755985
0.00755505
0.00754958
0.00754343
0.00753661
0.00752913
0.00752099
0.0075122
0.00750276
0.00749267
0.00748195
0.00747058
0.00745859
0.00744596
0.0074327
0.00741882
0.00740432
0.0073892
0.00737345
0.00735709
0.00734011
0.00732252
0.00730431
0.00728548
0.00726603
0.00724596
0.00722528
0.00720397
0.00718204
0.00715948
0.00713629
0.00711247
0.00708801
0.00706291
0.00703717
0.00701077
0.00698373
0.00695602
0.00692765
0.0068986
0.00686888
0.00683847
0.00680737
0.00677557
0.00674307
0.00670985
0.00667591
0.00664124
0.00660583
0.00656966
0.00653275
0.00649506
0.00645659
0.00641734
0.00637728
0.00633642
0.00629473
0.0062522
0.00620883
0.00616459
0.00611948
0.00607347
0.00602656
0.00597872
0.00592994
0.00588019
0.00582946
0.00577773
0.00572497
0.00567116
0.00561627
0.00556026
0.00550311
0.00544479
0.00538524
0.00532443
0.00526232
0.00519884
0.00513394
0.00506756
0.00499961
0.00493003
0.00485871
0.00478555
0.00471042
0.0046332
0.00455372
0.0044718
0.00438723
0.00429974
0.00420905
0.0041148
0.00401656
0.00391382
0.00380593
0.00369215
0.00357151
0.00344283
0.00330462
0.00315496
0.00299133
0.00281046
0.002608
0.00237823
0.00211363
0.0018044
0.0014391
0.00100758
0.000511835
5.17976e-05
6.22056e-05
0.000611125
0.00120463
0.00170651
0.00213091
0.00249603
0.00281553
0.00309922
0.00335419
0.00358565
0.00379752
0.0039928
0.00417383
0.00434247
0.00450022
0.00464831
0.00478774
0.00491938
0.00504393
0.005162
0.00527413
0.00538077
0.00548231
0.00557912
0.0056715
0.00575974
0.00584409
0.00592478
0.00600201
0.00607598
0.00614686
0.00621481
0.00627999
0.00634253
0.00640256
0.0064602
0.00651556
0.00656875
0.00661987
0.006669
0.00671624
0.00676165
0.00680532
0.00684731
0.0068877
0.00692653
0.00696386
0.00699976
0.00703426
0.00706741
0.00709925
0.00712982
0.00715916
0.00718729
0.00721425
0.00724005
0.00726472
0.00728828
0.00731072
0.00733207
0.00735233
0.00737155
0.0073898
0.00740711
0.00742348
0.00743893
0.00745348
0.00746714
0.00747993
0.00749186
0.00750293
0.00751317
0.00752257
0.00753116
0.00753893
0.00754591
0.00755209
0.00755749
0.00756211
0.00756597
0.00756906
0.00757141
0.00757301
0.00757387
0.007574
0.00757341
0.0075721
0.00757008
0.00756736
0.00756394
0.00755983
0.00755503
0.00754956
0.00754341
0.00753659
0.00752911
0.00752097
0.00751218
0.00750273
0.00749265
0.00748192
0.00747056
0.00745856
0.00744593
0.00743268
0.0074188
0.00740429
0.00738917
0.00737343
0.00735707
0.00734009
0.00732249
0.00730428
0.00728545
0.007266
0.00724594
0.00722525
0.00720394
0.00718201
0.00715945
0.00713626
0.00711244
0.00708798
0.00706288
0.00703714
0.00701075
0.0069837
0.00695599
0.00692762
0.00689857
0.00686885
0.00683844
0.00680734
0.00677554
0.00674304
0.00670982
0.00667588
0.00664121
0.00660579
0.00656963
0.00653271
0.00649503
0.00645656
0.00641731
0.00637725
0.00633639
0.0062947
0.00625217
0.0062088
0.00616456
0.00611945
0.00607344
0.00602653
0.00597869
0.0059299
0.00588016
0.00582943
0.0057777
0.00572494
0.00567113
0.00561624
0.00556023
0.00550308
0.00544475
0.00538521
0.0053244
0.00526229
0.00519881
0.00513391
0.00506753
0.00499958
0.00493
0.00485868
0.00478552
0.00471039
0.00463317
0.0045537
0.00447178
0.0043872
0.00429972
0.00420903
0.00411478
0.00401654
0.00391379
0.00380591
0.00369213
0.00357148
0.00344281
0.00330461
0.00315494
0.00299132
0.00281045
0.00260799
0.00237823
0.00211364
0.00180441
0.00143904
0.00100749
0.000512277
5.18189e-05
6.69495e-05
0.000664449
0.00133466
0.0019179
0.00242086
0.00285955
0.00324729
0.00359415
0.00390767
0.00419357
0.0044562
0.00469895
0.00492451
0.00513502
0.00533222
0.00551755
0.0056922
0.00585718
0.00601332
0.00616138
0.00630198
0.00643567
0.00656293
0.00668421
0.00679988
0.00691029
0.00701576
0.00711657
0.00721298
0.00730524
0.00739356
0.00747815
0.00755921
0.0076369
0.00771141
0.00778287
0.00785144
0.00791726
0.00798045
0.00804112
0.0080994
0.00815539
0.00820918
0.00826086
0.00831053
0.00835825
0.00840411
0.00844817
0.0084905
0.00853115
0.00857019
0.00860766
0.00864361
0.00867807
0.0087111
0.00874272
0.00877296
0.00880186
0.00882942
0.00885567
0.00888064
0.00890434
0.00892684
0.0089482
0.00896842
0.00898753
0.00900554
0.00902249
0.00903837
0.00905322
0.00906703
0.00907984
0.00909164
0.00910245
0.00911229
0.00912116
0.00912908
0.00913606
0.00914211
0.00914723
0.00915144
0.00915474
0.00915715
0.00915868
0.00915932
0.0091591
0.00915802
0.00915609
0.00915331
0.00914969
0.00914524
0.00913997
0.00913389
0.009127
0.0091193
0.00911081
0.00910153
0.00909146
0.00908062
0.009069
0.00905661
0.00904346
0.00902954
0.00901487
0.00899945
0.00898328
0.00896636
0.00894869
0.00893028
0.00891113
0.00889124
0.0088706
0.00884923
0.00882711
0.00880425
0.00878065
0.0087563
0.00873121
0.00870536
0.00867876
0.0086514
0.00862328
0.00859439
0.00856474
0.0085343
0.00850308
0.00847107
0.00843827
0.00840466
0.00837024
0.008335
0.00829894
0.00826203
0.00822428
0.00818567
0.0081462
0.00810585
0.00806461
0.00802247
0.00797942
0.00793545
0.00789053
0.00784467
0.00779783
0.00775002
0.00770121
0.00765139
0.00760054
0.00754864
0.00749568
0.00744163
0.00738647
0.00733019
0.00727275
0.00721414
0.00715432
0.00709326
0.00703095
0.00696734
0.00690239
0.00683608
0.00676835
0.00669917
0.00662848
0.00655622
0.00648235
0.00640679
0.00632946
0.0062503
0.0061692
0.00608607
0.00600079
0.00591324
0.00582327
0.00573072
0.0056354
0.0055371
0.00543557
0.00533052
0.00522161
0.00510845
0.00499057
0.0048674
0.00473827
0.00460237
0.00445869
0.00430603
0.00414288
0.00396736
0.00377709
0.00356908
0.00333951
0.00308352
0.00279494
0.00246603
0.00208724
0.00164754
0.00113701
0.00055868
5.48644e-05
6.6951e-05
0.000664502
0.00133478
0.00191809
0.00242108
0.0028598
0.00324756
0.00359443
0.00390796
0.00419386
0.00445648
0.00469923
0.00492478
0.00513528
0.00533248
0.0055178
0.00569244
0.00585741
0.00601355
0.0061616
0.00630218
0.00643586
0.00656312
0.00668439
0.00680005
0.00691045
0.00701591
0.00711672
0.00721312
0.00730537
0.00739368
0.00747827
0.00755931
0.007637
0.0077115
0.00778296
0.00785152
0.00791733
0.00798052
0.00804119
0.00809946
0.00815544
0.00820923
0.00826091
0.00831057
0.00835829
0.00840414
0.0084482
0.00849053
0.00853118
0.00857021
0.00860768
0.00864362
0.00867809
0.00871111
0.00874273
0.00877297
0.00880186
0.00882942
0.00885567
0.00888063
0.00890433
0.00892684
0.00894819
0.00896841
0.00898752
0.00900553
0.00902247
0.00903836
0.0090532
0.00906702
0.00907982
0.00909162
0.00910243
0.00911227
0.00912114
0.00912906
0.00913604
0.00914209
0.00914721
0.00915142
0.00915472
0.00915713
0.00915865
0.0091593
0.00915908
0.009158
0.00915606
0.00915328
0.00914966
0.00914522
0.00913995
0.00913386
0.00912697
0.00911927
0.00911078
0.0091015
0.00909143
0.00908059
0.00906897
0.00905658
0.00904343
0.00902952
0.00901485
0.00899942
0.00898325
0.00896633
0.00894866
0.00893025
0.0089111
0.00889121
0.00887057
0.0088492
0.00882708
0.00880422
0.00878062
0.00875627
0.00873118
0.00870533
0.00867873
0.00865137
0.00862325
0.00859436
0.0085647
0.00853427
0.00850305
0.00847104
0.00843824
0.00840463
0.00837021
0.00833497
0.0082989
0.008262
0.00822425
0.00818564
0.00814617
0.00810582
0.00806458
0.00802244
0.00797939
0.00793541
0.0078905
0.00784463
0.0077978
0.00774999
0.00770118
0.00765136
0.00760051
0.00754861
0.00749565
0.0074416
0.00738644
0.00733015
0.00727272
0.0072141
0.00715428
0.00709323
0.00703091
0.0069673
0.00690236
0.00683604
0.00676832
0.00669913
0.00662844
0.00655619
0.00648231
0.00640675
0.00632943
0.00625026
0.00616916
0.00608603
0.00600076
0.00591321
0.00582324
0.00573069
0.00563537
0.00553707
0.00543554
0.00533049
0.00522158
0.00510842
0.00499054
0.00486737
0.00473824
0.00460234
0.00445867
0.00430601
0.00414286
0.00396734
0.00377707
0.00356907
0.0033395
0.00308351
0.00279494
0.00246603
0.00208725
0.00164754
0.00113701
0.00055881
5.48687e-05
7.12531e-05
0.000710412
0.00144328
0.00209319
0.00266153
0.0031625
0.00360888
0.00401076
0.00437591
0.0047103
0.00501857
0.0053044
0.00557067
0.00581975
0.00605354
0.00627363
0.00648134
0.00667779
0.00686392
0.00704056
0.00720841
0.00736811
0.0075202
0.00766516
0.00780345
0.00793546
0.00806155
0.00818205
0.00829727
0.00840749
0.00851296
0.00861394
0.00871064
0.00880329
0.00889207
0.00897718
0.00905879
0.00913707
0.00921217
0.00928424
0.00935341
0.0094198
0.00948355
0.00954477
0.00960355
0.00966
0.00971421
0.00976626
0.00981624
0.00986423
0.00991027
0.00995446
0.00999683
0.0100374
0.0100764
0.0101136
0.0101493
0.0101833
0.0102158
0.0102468
0.0102763
0.0103043
0.0103309
0.0103561
0.0103801
0.0104027
0.010424
0.0104441
0.010463
0.0104806
0.0104971
0.0105124
0.0105265
0.0105394
0.0105513
0.010562
0.0105716
0.0105801
0.0105875
0.0105939
0.0105992
0.0106035
0.0106067
0.0106089
0.0106101
0.0106103
0.0106095
0.0106077
0.010605
0.0106012
0.0105966
0.0105909
0.0105844
0.0105769
0.0105684
0.0105591
0.0105489
0.0105377
0.0105257
0.0105127
0.0104989
0.0104842
0.0104686
0.0104522
0.0104348
0.0104167
0.0103976
0.0103777
0.010357
0.0103354
0.0103129
0.0102896
0.0102654
0.0102404
0.0102145
0.0101878
0.0101602
0.0101318
0.0101024
0.0100723
0.0100412
0.0100093
0.00997644
0.00994272
0.00990812
0.0098726
0.00983618
0.00979884
0.00976056
0.00972135
0.00968119
0.00964006
0.00959797
0.0095549
0.00951083
0.00946575
0.00941965
0.00937252
0.00932434
0.00927509
0.00922477
0.00917335
0.00912081
0.00906714
0.00901232
0.00895632
0.00889914
0.00884074
0.0087811
0.00872021
0.00865802
0.00859453
0.00852969
0.00846347
0.00839586
0.0083268
0.00825627
0.00818421
0.00811061
0.00803539
0.00795852
0.00787994
0.00779959
0.00771742
0.00763333
0.00754728
0.00745915
0.00736887
0.00727633
0.00718142
0.007084
0.00698394
0.00688107
0.00677521
0.00666615
0.00655367
0.00643749
0.0063173
0.00619274
0.0060634
0.00592878
0.00578831
0.00564129
0.00548691
0.00532418
0.0051519
0.00496861
0.00477254
0.00456148
0.00433272
0.00408286
0.00380771
0.00350204
0.00315941
0.00277201
0.00233059
0.00182491
0.00124652
0.000603
5.8346e-05
7.12547e-05
0.000710466
0.00144341
0.00209338
0.00266176
0.00316277
0.00360917
0.00401106
0.00437622
0.00471061
0.00501888
0.0053047
0.00557097
0.00582004
0.00605383
0.00627391
0.00648161
0.00667805
0.00686417
0.0070408
0.00720865
0.00736833
0.00752041
0.00766537
0.00780365
0.00793565
0.00806173
0.00818222
0.00829743
0.00840764
0.0085131
0.00861407
0.00871077
0.0088034
0.00889218
0.00897728
0.00905889
0.00913716
0.00921225
0.00928431
0.00935348
0.00941987
0.00948361
0.00954482
0.0096036
0.00966004
0.00971425
0.0097663
0.00981628
0.00986425
0.0099103