/*--------------------------------*- C++ -*----------------------------------*\
  =========                 |
  \\      /  F ield         | OpenFOAM: The Open Source CFD Toolbox
   \\    /   O peration     | Website:  https://openfoam.org
    \\  /    A nd           | Version:  8
     \\/     M anipulation  |
\*---------------------------------------------------------------------------*/
FoamFile
{
    version     2.0;
    format      ascii;
    class       surfaceScalarField;
    location    "1300";
    object      phi;
}
// * * * * * * * * * * * * * * * * * * * * * * * * * * * * * * * * * * * * * //

dimensions      [1 0 -1 0 0 0 0];

internalField   nonuniform List<scalar> 
119360
(
-1.4592e-07
-1.88488e-11
1.45941e-07
-2.39582e-07
-1.62278e-11
9.37907e-08
-2.5956e-07
-1.16526e-11
2.00774e-08
-2.15532e-07
-1.01986e-11
-4.39452e-08
-1.31436e-07
-1.00134e-11
-8.40254e-08
-2.33008e-08
-9.62209e-12
-1.08068e-07
9.84524e-08
-9.10207e-12
-1.21689e-07
2.26948e-07
-8.22511e-12
-1.28434e-07
3.5806e-07
-7.38867e-12
-1.31055e-07
4.89237e-07
-6.70156e-12
-1.31125e-07
6.18883e-07
-5.94267e-12
-1.29597e-07
7.46001e-07
-5.14941e-12
-1.27074e-07
8.69977e-07
-4.53674e-12
-1.23936e-07
9.90439e-07
-4.15949e-12
-1.20426e-07
1.10717e-06
-3.97203e-12
-1.16701e-07
1.22006e-06
-3.94599e-12
-1.12862e-07
1.32907e-06
-3.99779e-12
-1.08974e-07
1.43417e-06
-3.97186e-12
-1.05079e-07
1.5354e-06
-3.78618e-12
-1.01202e-07
1.63279e-06
-3.50288e-12
-9.73586e-08
1.72637e-06
-3.21605e-12
-9.35585e-08
1.81621e-06
-2.93142e-12
-8.98074e-08
1.90235e-06
-2.59244e-12
-8.61083e-08
1.98484e-06
-2.19384e-12
-8.2463e-08
2.06374e-06
-1.81964e-12
-7.88729e-08
2.1391e-06
-1.56421e-12
-7.53393e-08
2.21099e-06
-1.43859e-12
-7.18636e-08
2.27945e-06
-1.37422e-12
-6.84469e-08
2.34457e-06
-1.30511e-12
-6.50908e-08
2.40638e-06
-1.23445e-12
-6.1797e-08
2.46497e-06
-1.21513e-12
-5.85673e-08
2.52039e-06
-1.2785e-12
-5.54042e-08
2.57272e-06
-1.38405e-12
-5.23096e-08
2.62202e-06
-1.44287e-12
-4.92858e-08
2.66838e-06
-1.38361e-12
-4.63347e-08
2.71186e-06
-1.20545e-12
-4.34581e-08
2.75254e-06
-9.7624e-13
-4.06581e-08
2.79049e-06
-7.80591e-13
-3.79365e-08
2.82581e-06
-6.68487e-13
-3.52951e-08
2.85856e-06
-6.31683e-13
-3.27352e-08
2.88884e-06
-6.24883e-13
-3.02579e-08
2.91672e-06
-6.06148e-13
-2.78638e-08
2.94229e-06
-5.64155e-13
-2.55534e-08
2.96563e-06
-5.22466e-13
-2.33266e-08
2.98683e-06
-5.15166e-13
-2.11833e-08
3.00597e-06
-5.60325e-13
-1.91232e-08
3.02313e-06
-6.45896e-13
-1.71454e-08
3.0384e-06
-7.36157e-13
-1.5249e-08
3.05185e-06
-7.91058e-13
-1.34326e-08
3.06356e-06
-7.88476e-13
-1.16948e-08
3.07361e-06
-7.33992e-13
-1.00337e-08
3.08208e-06
-6.55805e-13
-8.44769e-09
3.08903e-06
-5.90358e-13
-6.93472e-09
3.09454e-06
-5.65517e-13
-5.49285e-09
3.09868e-06
-5.87416e-13
-4.11996e-09
3.10151e-06
-6.43038e-13
-2.81379e-09
3.1031e-06
-7.06404e-13
-1.57187e-09
3.10351e-06
-7.51979e-13
-3.90951e-10
3.1028e-06
-7.65635e-13
7.30861e-10
3.10102e-06
-7.48621e-13
1.79406e-09
3.09824e-06
-7.16786e-13
2.80072e-09
3.09451e-06
-6.9114e-13
3.75381e-09
3.08988e-06
-6.91306e-13
4.65596e-09
3.08439e-06
-7.275e-13
5.50955e-09
3.07809e-06
-7.98138e-13
6.31683e-09
3.07103e-06
-8.91285e-13
7.08e-09
3.06325e-06
-9.88097e-13
7.80122e-09
3.05479e-06
-1.06953e-12
8.48261e-09
3.04569e-06
-1.12044e-12
9.12627e-09
3.03598e-06
-1.13306e-12
9.73423e-09
3.0257e-06
-1.10783e-12
1.03084e-08
3.01487e-06
-1.05194e-12
1.08508e-08
3.00354e-06
-9.7694e-13
1.13629e-08
2.99172e-06
-8.95144e-13
1.18467e-08
2.97944e-06
-8.17234e-13
1.23035e-08
2.96674e-06
-7.50343e-13
1.27349e-08
2.95362e-06
-6.97636e-13
1.31422e-08
2.94012e-06
-6.59083e-13
1.3527e-08
2.92626e-06
-6.31466e-13
1.38903e-08
2.91205e-06
-6.10594e-13
1.42336e-08
2.89752e-06
-5.91554e-13
1.45581e-08
2.88268e-06
-5.70959e-13
1.48648e-08
2.86755e-06
-5.45757e-13
1.5155e-08
2.85214e-06
-5.14782e-13
1.54296e-08
2.83647e-06
-4.7845e-13
1.56898e-08
2.82056e-06
-4.3826e-13
1.59364e-08
2.80441e-06
-3.9746e-13
1.61704e-08
2.78803e-06
-3.59407e-13
1.63926e-08
2.77145e-06
-3.27182e-13
1.66039e-08
2.75466e-06
-3.04423e-13
1.68049e-08
2.73769e-06
-2.93265e-13
1.69964e-08
2.72052e-06
-2.96124e-13
1.7179e-08
2.70319e-06
-3.13083e-13
1.73534e-08
2.68568e-06
-3.43836e-13
1.75203e-08
2.66802e-06
-3.86968e-13
1.76801e-08
2.6502e-06
-4.39454e-13
1.78334e-08
2.63223e-06
-4.97241e-13
1.79808e-08
2.61413e-06
-5.55583e-13
1.81228e-08
2.59588e-06
-6.08596e-13
1.82599e-08
2.57751e-06
-6.51451e-13
1.83925e-08
2.559e-06
-6.78763e-13
1.85211e-08
2.54037e-06
-6.87478e-13
1.86461e-08
2.52162e-06
-6.75765e-13
1.8768e-08
2.50275e-06
-6.43902e-13
1.88872e-08
2.48377e-06
-5.94885e-13
1.90042e-08
2.46466e-06
-5.33185e-13
1.91193e-08
2.44545e-06
-4.6535e-13
1.92329e-08
2.42612e-06
-3.9882e-13
1.93456e-08
2.40668e-06
-3.41144e-13
1.94576e-08
2.38713e-06
-2.99843e-13
1.95694e-08
2.36747e-06
-2.80026e-13
1.96815e-08
2.34769e-06
-2.85355e-13
1.97943e-08
2.32779e-06
-3.15553e-13
1.99082e-08
2.30779e-06
-3.67067e-13
2.00237e-08
2.28766e-06
-4.33098e-13
2.01413e-08
2.26741e-06
-5.04652e-13
2.02616e-08
2.24704e-06
-5.71265e-13
2.0385e-08
2.22655e-06
-6.22141e-13
2.0512e-08
2.20592e-06
-6.49619e-13
2.06433e-08
2.18516e-06
-6.49092e-13
2.07793e-08
2.16426e-06
-6.20587e-13
2.09206e-08
2.14321e-06
-5.69239e-13
2.10677e-08
2.122e-06
-5.04236e-13
2.12211e-08
2.10064e-06
-4.374e-13
2.13812e-08
2.07911e-06
-3.80057e-13
2.15486e-08
2.0574e-06
-3.41033e-13
2.17235e-08
2.03551e-06
-3.23685e-13
2.19067e-08
2.01343e-06
-3.25628e-13
2.20984e-08
1.99114e-06
-3.37924e-13
2.22992e-08
1.96865e-06
-3.47639e-13
2.25097e-08
1.94593e-06
-3.42393e-13
2.27303e-08
1.92299e-06
-3.12694e-13
2.29617e-08
1.8998e-06
-2.56933e-13
2.32042e-08
1.87636e-06
-1.8166e-13
2.34584e-08
1.85265e-06
-1.01141e-13
2.37248e-08
1.82866e-06
-3.31957e-14
2.40036e-08
1.80437e-06
6.49482e-15
2.42952e-08
1.77979e-06
8.82629e-15
2.46e-08
1.75488e-06
-2.40641e-14
2.49183e-08
1.72964e-06
-7.8576e-14
2.52505e-08
1.70405e-06
-1.35919e-13
2.5597e-08
1.6781e-06
-1.75693e-13
2.59583e-08
1.65177e-06
-1.85074e-13
2.63349e-08
1.62506e-06
-1.6126e-13
2.67273e-08
1.59793e-06
-1.12937e-13
2.71359e-08
1.57038e-06
-5.28189e-14
2.75611e-08
1.54238e-06
6.49481e-15
2.80034e-08
1.51393e-06
6.02574e-14
2.8463e-08
1.48499e-06
1.09107e-13
2.89406e-08
1.45556e-06
1.57874e-13
2.94364e-08
1.42562e-06
2.07112e-13
2.9951e-08
1.39514e-06
2.49162e-13
3.04847e-08
1.3641e-06
2.70367e-13
3.10379e-08
1.3325e-06
2.59098e-13
3.16109e-08
1.30029e-06
2.15467e-13
3.2204e-08
1.26748e-06
1.56569e-13
3.28175e-08
1.23403e-06
1.09024e-13
3.34516e-08
1.19992e-06
9.4813e-14
3.41066e-08
1.16514e-06
1.14964e-13
3.47826e-08
1.12966e-06
1.48076e-13
3.54794e-08
1.09347e-06
1.62814e-13
3.61968e-08
1.05653e-06
1.43718e-13
3.69341e-08
1.01884e-06
1.0425e-13
3.76906e-08
9.80373e-07
8.03801e-14
3.84653e-08
9.41116e-07
9.78106e-14
3.92568e-08
9.01051e-07
1.44607e-13
4.00634e-08
8.60168e-07
1.72751e-13
4.08827e-08
8.18455e-07
1.37668e-13
4.17115e-08
7.75907e-07
4.35763e-14
4.25461e-08
7.32524e-07
-4.38538e-14
4.33821e-08
6.88308e-07
-5.06262e-14
4.42144e-08
6.43271e-07
3.28071e-14
4.50365e-08
5.97431e-07
1.27287e-13
4.58405e-08
5.50814e-07
1.36502e-13
4.66168e-08
5.03459e-07
5.10148e-14
4.7354e-08
4.55419e-07
-2.43139e-14
4.8039e-08
4.06763e-07
1.94844e-14
4.86564e-08
3.57576e-07
1.53322e-13
4.91875e-08
3.07966e-07
2.1344e-13
4.961e-08
2.58069e-07
9.55347e-14
4.98969e-08
2.08052e-07
-9.19265e-14
5.00169e-08
1.5812e-07
-1.40998e-13
4.99323e-08
1.08524e-07
-3.18634e-14
4.95972e-08
5.95731e-08
1.57097e-14
4.89525e-08
1.16449e-08
-1.26232e-13
4.79293e-08
-3.47602e-08
-2.48579e-13
4.64063e-08
-7.90261e-08
-9.99756e-14
4.42683e-08
-1.2044e-07
1.69476e-13
4.14173e-08
-1.58165e-07
2.35645e-13
3.77265e-08
-1.91169e-07
1.20293e-13
3.30065e-08
-2.18153e-07
2.35923e-14
2.69878e-08
-2.37533e-07
-1.72083e-15
1.9383e-08
-2.47376e-07
3.01759e-13
9.8456e-09
-2.45409e-07
1.0526e-12
-1.96205e-09
-2.29237e-07
1.14941e-12
-1.61648e-08
-1.96471e-07
1.70197e-13
-3.27647e-08
-1.4647e-07
-4.10783e-13
-4.99998e-08
-8.87774e-08
3.21077e-13
-5.76802e-08
-3.46987e-08
3.59379e-13
-5.40619e-08
-1.30362e-12
-3.46866e-08
-1.4591e-07
1.45943e-07
-2.3958e-07
9.37802e-08
-2.59552e-07
2.00574e-08
-2.1552e-07
-4.39621e-08
-1.3142e-07
-8.40384e-08
-2.3285e-08
-1.08078e-07
9.84671e-08
-1.21697e-07
2.2696e-07
-1.28441e-07
3.5807e-07
-1.31062e-07
4.89246e-07
-1.31131e-07
6.1889e-07
-1.29602e-07
7.46006e-07
-1.27079e-07
8.6998e-07
-1.2394e-07
9.90441e-07
-1.2043e-07
1.10717e-06
-1.16705e-07
1.22006e-06
-1.12865e-07
1.32907e-06
-1.08977e-07
1.43417e-06
-1.05082e-07
1.5354e-06
-1.01204e-07
1.63278e-06
-9.736e-08
1.72637e-06
-9.35596e-08
1.8162e-06
-8.98081e-08
1.90234e-06
-8.61087e-08
1.98483e-06
-8.24631e-08
2.06373e-06
-7.88729e-08
2.13909e-06
-7.53393e-08
2.21098e-06
-7.18635e-08
2.27945e-06
-6.84468e-08
2.34456e-06
-6.50905e-08
2.40638e-06
-6.17965e-08
2.46496e-06
-5.85668e-08
2.52038e-06
-5.54035e-08
2.57271e-06
-5.23089e-08
2.62202e-06
-4.92849e-08
2.66837e-06
-4.63335e-08
2.71185e-06
-4.34567e-08
2.75253e-06
-4.06566e-08
2.79049e-06
-3.7935e-08
2.8258e-06
-3.52936e-08
2.85855e-06
-3.27338e-08
2.88883e-06
-3.02566e-08
2.91671e-06
-2.78625e-08
2.94228e-06
-2.5552e-08
2.96563e-06
-2.33252e-08
2.98683e-06
-2.11819e-08
3.00596e-06
-1.91217e-08
3.02313e-06
-1.71439e-08
3.03839e-06
-1.52475e-08
3.05184e-06
-1.34311e-08
3.06355e-06
-1.16932e-08
3.0736e-06
-1.0032e-08
3.08207e-06
-8.44592e-09
3.08902e-06
-6.93293e-09
3.09453e-06
-5.49106e-09
3.09867e-06
-4.11819e-09
3.1015e-06
-2.81203e-09
3.10309e-06
-1.5701e-09
3.1035e-06
-3.89143e-10
3.10279e-06
7.32738e-10
3.10102e-06
1.79602e-09
3.09824e-06
2.80276e-09
3.0945e-06
3.75591e-09
3.08987e-06
4.6581e-09
3.08438e-06
5.51171e-09
3.07809e-06
6.31899e-09
3.07103e-06
7.08218e-09
3.06325e-06
7.80343e-09
3.05479e-06
8.48489e-09
3.04569e-06
9.12863e-09
3.03598e-06
9.7367e-09
3.02569e-06
1.0311e-08
3.01487e-06
1.08534e-08
3.00353e-06
1.13657e-08
2.99171e-06
1.18495e-08
2.97944e-06
1.23063e-08
2.96673e-06
1.27376e-08
2.95362e-06
1.3145e-08
2.94012e-06
1.35296e-08
2.92625e-06
1.38929e-08
2.91205e-06
1.42361e-08
2.89751e-06
1.45605e-08
2.88267e-06
1.48671e-08
2.86754e-06
1.51572e-08
2.85213e-06
1.54318e-08
2.83647e-06
1.56919e-08
2.82055e-06
1.59385e-08
2.8044e-06
1.61724e-08
2.78803e-06
1.63946e-08
2.77145e-06
1.66057e-08
2.75466e-06
1.68067e-08
2.73768e-06
1.69981e-08
2.72052e-06
1.71806e-08
2.70318e-06
1.7355e-08
2.68568e-06
1.75218e-08
2.66802e-06
1.76816e-08
2.6502e-06
1.78349e-08
2.63223e-06
1.79823e-08
2.61412e-06
1.81243e-08
2.59588e-06
1.82614e-08
2.5775e-06
1.83941e-08
2.559e-06
1.85228e-08
2.54037e-06
1.86479e-08
2.52162e-06
1.87698e-08
2.50275e-06
1.88891e-08
2.48376e-06
1.90061e-08
2.46466e-06
1.91212e-08
2.44545e-06
1.92348e-08
2.42612e-06
1.93474e-08
2.40668e-06
1.94594e-08
2.38713e-06
1.95711e-08
2.36746e-06
1.96832e-08
2.34769e-06
1.97959e-08
2.32779e-06
1.99098e-08
2.30778e-06
2.00253e-08
2.28766e-06
2.01429e-08
2.26741e-06
2.02632e-08
2.24704e-06
2.03866e-08
2.22655e-06
2.05137e-08
2.20592e-06
2.0645e-08
2.18516e-06
2.07811e-08
2.16425e-06
2.09224e-08
2.1432e-06
2.10695e-08
2.122e-06
2.12229e-08
2.10064e-06
2.1383e-08
2.07911e-06
2.15503e-08
2.0574e-06
2.17253e-08
2.03551e-06
2.19084e-08
2.01343e-06
2.21001e-08
1.99114e-06
2.23009e-08
1.96865e-06
2.25114e-08
1.94593e-06
2.2732e-08
1.92299e-06
2.29633e-08
1.8998e-06
2.32059e-08
1.87636e-06
2.346e-08
1.85265e-06
2.37263e-08
1.82866e-06
2.4005e-08
1.80437e-06
2.42965e-08
1.77978e-06
2.46012e-08
1.75488e-06
2.49194e-08
1.72964e-06
2.52515e-08
1.70405e-06
2.5598e-08
1.6781e-06
2.59593e-08
1.65177e-06
2.6336e-08
1.62506e-06
2.67283e-08
1.59793e-06
2.71369e-08
1.57038e-06
2.75621e-08
1.54238e-06
2.80043e-08
1.51393e-06
2.84639e-08
1.48499e-06
2.89413e-08
1.45556e-06
2.94371e-08
1.42562e-06
2.99516e-08
1.39514e-06
3.04852e-08
1.3641e-06
3.10383e-08
1.3325e-06
3.16112e-08
1.30029e-06
3.22042e-08
1.26748e-06
3.28176e-08
1.23403e-06
3.34517e-08
1.19992e-06
3.41068e-08
1.16514e-06
3.47827e-08
1.12966e-06
3.54796e-08
1.09347e-06
3.61969e-08
1.05653e-06
3.69341e-08
1.01884e-06
3.76906e-08
9.80374e-07
3.84652e-08
9.41116e-07
3.92568e-08
9.01052e-07
4.00635e-08
8.60168e-07
4.08827e-08
8.18455e-07
4.17114e-08
7.75908e-07
4.2546e-08
7.32524e-07
4.33821e-08
6.88309e-07
4.42145e-08
6.43273e-07
4.50367e-08
5.97432e-07
4.58406e-08
5.50815e-07
4.66168e-08
5.0346e-07
4.7354e-08
4.5542e-07
4.80391e-08
4.06764e-07
4.86567e-08
3.57577e-07
4.91879e-08
3.07967e-07
4.96102e-08
2.5807e-07
4.9897e-08
2.08053e-07
5.0017e-08
1.58121e-07
4.99326e-08
1.08526e-07
4.95976e-08
5.95742e-08
4.89527e-08
1.1646e-08
4.79293e-08
-3.47582e-08
4.64067e-08
-7.90235e-08
4.4269e-08
-1.20438e-07
4.14182e-08
-1.58163e-07
3.77274e-08
-1.91168e-07
3.30081e-08
-2.18152e-07
2.69896e-08
-2.37531e-07
1.93834e-08
-2.47372e-07
9.84467e-09
-2.45407e-07
-1.96252e-09
-2.29239e-07
-1.61639e-08
-1.9647e-07
-3.27632e-08
-1.46465e-07
-5.00018e-08
-8.87728e-08
-5.7685e-08
-3.46987e-08
-5.40601e-08
-3.46914e-08
-7.70033e-08
-9.52209e-12
2.23053e-07
-6.78595e-08
-3.7403e-12
8.47771e-08
-2.31853e-08
-1.65596e-12
-2.45169e-08
4.01463e-08
-1.22722e-12
-1.07214e-07
1.19546e-07
-1.03484e-12
-1.63369e-07
2.11129e-07
-9.28945e-13
-1.99598e-07
3.11179e-07
-8.03354e-13
-2.21689e-07
4.16708e-07
-7.48608e-13
-2.33916e-07
5.253e-07
-7.33566e-13
-2.39605e-07
6.35153e-07
-6.50356e-13
-2.40939e-07
7.44968e-07
-5.13882e-13
-2.39376e-07
8.53818e-07
-4.0998e-13
-2.35892e-07
9.61049e-07
-3.70006e-13
-2.31138e-07
1.0662e-06
-3.81018e-13
-2.25551e-07
1.16895e-06
-4.33255e-13
-2.19427e-07
1.26908e-06
-5.0492e-13
-2.12966e-07
1.36643e-06
-5.48039e-13
-2.06301e-07
1.4609e-06
-5.30366e-13
-1.99525e-07
1.55242e-06
-4.69519e-13
-1.92699e-07
1.64095e-06
-4.0512e-13
-1.85863e-07
1.72646e-06
-3.49713e-13
-1.79047e-07
1.80894e-06
-2.85841e-13
-1.72268e-07
1.8884e-06
-2.02817e-13
-1.65541e-07
1.96484e-06
-1.20036e-13
-1.58876e-07
2.03827e-06
-6.82028e-14
-1.5228e-07
2.10871e-06
-5.6511e-14
-1.4576e-07
2.17618e-06
-6.50252e-14
-1.39321e-07
2.24072e-06
-6.8259e-14
-1.3297e-07
2.30236e-06
-6.09525e-14
-1.26711e-07
2.36113e-06
-5.88433e-14
-1.20551e-07
2.41708e-06
-7.77866e-14
-1.14495e-07
2.47024e-06
-1.13397e-13
-1.08549e-07
2.52067e-06
-1.41583e-13
-1.02718e-07
2.56841e-06
-1.37774e-13
-9.70079e-08
2.61351e-06
-9.59255e-14
-9.14243e-08
2.65605e-06
-3.26499e-14
-8.59719e-08
2.69606e-06
2.5366e-14
-8.06554e-08
2.73362e-06
5.93109e-14
-7.54791e-08
2.76879e-06
6.79844e-14
-7.04465e-08
2.80163e-06
6.42719e-14
-6.55608e-08
2.83222e-06
6.34877e-14
-6.08246e-08
2.86061e-06
7.2411e-14
-5.62396e-08
2.88688e-06
8.63857e-14
-5.18074e-08
2.91109e-06
9.48441e-14
-4.75285e-08
2.93333e-06
8.96814e-14
-4.34031e-08
2.95365e-06
7.16957e-14
-3.94307e-08
2.97213e-06
4.9838e-14
-3.56105e-08
2.98884e-06
3.60018e-14
-3.19409e-08
3.00384e-06
3.84164e-14
-2.84199e-08
3.01721e-06
5.74149e-14
-2.50454e-08
3.02901e-06
8.56353e-14
-2.18144e-08
3.0393e-06
1.12322e-13
-1.8724e-08
3.04815e-06
1.28379e-13
-1.57709e-08
3.05563e-06
1.30405e-13
-1.29513e-08
3.06179e-06
1.21113e-13
-1.02616e-08
3.06669e-06
1.07798e-13
-7.69743e-09
3.07039e-06
9.78332e-14
-5.25465e-09
3.07294e-06
9.62233e-14
-2.92859e-09
3.07441e-06
1.03009e-13
-7.15056e-10
3.07483e-06
1.14382e-13
1.38894e-09
3.07426e-06
1.24804e-13
3.38647e-09
3.07275e-06
1.28968e-13
5.28199e-09
3.07035e-06
1.24291e-13
7.08025e-09
3.06709e-06
1.11391e-13
8.7857e-09
3.06303e-06
9.39051e-14
1.04026e-08
3.05819e-06
7.6988e-14
1.19352e-08
3.05263e-06
6.56498e-14
1.33874e-08
3.04637e-06
6.35333e-14
1.47631e-08
3.03945e-06
7.17004e-14
1.60662e-08
3.03191e-06
8.89504e-14
1.73002e-08
3.02377e-06
1.12341e-13
1.84688e-08
3.01507e-06
1.38022e-13
1.95753e-08
3.00584e-06
1.62308e-13
2.0623e-08
2.99609e-06
1.82466e-13
2.1615e-08
2.98587e-06
1.97114e-13
2.25545e-08
2.97518e-06
2.06245e-13
2.34442e-08
2.96406e-06
2.10811e-13
2.4287e-08
2.95253e-06
2.12275e-13
2.50856e-08
2.9406e-06
2.12303e-13
2.58424e-08
2.9283e-06
2.12219e-13
2.65601e-08
2.91564e-06
2.12788e-13
2.72408e-08
2.90264e-06
2.14364e-13
2.78868e-08
2.88931e-06
2.16695e-13
2.85003e-08
2.87568e-06
2.19172e-13
2.90833e-08
2.86175e-06
2.20921e-13
2.96376e-08
2.84754e-06
2.21032e-13
3.01652e-08
2.83306e-06
2.18707e-13
3.06677e-08
2.81832e-06
2.13198e-13
3.11468e-08
2.80334e-06
2.04246e-13
3.16041e-08
2.78812e-06
1.91819e-13
3.2041e-08
2.77267e-06
1.76262e-13
3.24589e-08
2.75701e-06
1.58283e-13
3.28593e-08
2.74113e-06
1.38688e-13
3.32433e-08
2.72506e-06
1.1869e-13
3.36123e-08
2.70878e-06
9.94552e-14
3.39672e-08
2.69232e-06
8.23578e-14
3.43093e-08
2.67567e-06
6.86119e-14
3.46396e-08
2.65885e-06
5.93276e-14
3.4959e-08
2.64186e-06
5.53863e-14
3.52685e-08
2.6247e-06
5.71904e-14
3.55689e-08
2.60737e-06
6.46983e-14
3.58613e-08
2.58989e-06
7.73618e-14
3.61463e-08
2.57225e-06
9.39457e-14
3.64247e-08
2.55445e-06
1.12924e-13
3.66976e-08
2.53651e-06
1.32394e-13
3.69655e-08
2.51841e-06
1.50296e-13
3.72294e-08
2.50017e-06
1.64771e-13
3.74901e-08
2.48179e-06
1.74132e-13
3.77484e-08
2.46325e-06
1.77268e-13
3.80052e-08
2.44458e-06
1.73542e-13
3.82614e-08
2.42576e-06
1.63126e-13
3.85179e-08
2.40679e-06
1.4698e-13
3.87757e-08
2.38767e-06
1.26794e-13
3.90356e-08
2.36841e-06
1.04743e-13
3.92987e-08
2.349e-06
8.34749e-14
3.95659e-08
2.32944e-06
6.54546e-14
3.98381e-08
2.30972e-06
5.30826e-14
4.01164e-08
2.28985e-06
4.77743e-14
4.04017e-08
2.26981e-06
5.03001e-14
4.0695e-08
2.24961e-06
5.99104e-14
4.09972e-08
2.22924e-06
7.50095e-14
4.13094e-08
2.20869e-06
9.29951e-14
4.16325e-08
2.18796e-06
1.10773e-13
4.19674e-08
2.16704e-06
1.25268e-13
4.23153e-08
2.14592e-06
1.34219e-13
4.26769e-08
2.12461e-06
1.36426e-13
4.30534e-08
2.10309e-06
1.32422e-13
4.34456e-08
2.08134e-06
1.23963e-13
4.38546e-08
2.05938e-06
1.14068e-13
4.42813e-08
2.03717e-06
1.05811e-13
4.47266e-08
2.01473e-06
1.01787e-13
4.51914e-08
1.99202e-06
1.03022e-13
4.56768e-08
1.96906e-06
1.0867e-13
4.61835e-08
1.94582e-06
1.16074e-13
4.67125e-08
1.92229e-06
1.21493e-13
4.72645e-08
1.89846e-06
1.21271e-13
4.78405e-08
1.87433e-06
1.13375e-13
4.84412e-08
1.84987e-06
9.79564e-14
4.90673e-08
1.82508e-06
7.76948e-14
4.97197e-08
1.79994e-06
5.71765e-14
5.03991e-08
1.77444e-06
4.11823e-14
5.11062e-08
1.74856e-06
3.29459e-14
5.18419e-08
1.7223e-06
3.31957e-14
5.26068e-08
1.69563e-06
3.9857e-14
5.34017e-08
1.66855e-06
4.90094e-14
5.42273e-08
1.64103e-06
5.68365e-14
5.50843e-08
1.61307e-06
6.12219e-14
5.59735e-08
1.58464e-06
6.23321e-14
5.68956e-08
1.55574e-06
6.18255e-14
5.78513e-08
1.52634e-06
6.10415e-14
5.88413e-08
1.49643e-06
5.9501e-14
5.98663e-08
1.46599e-06
5.46577e-14
6.09268e-08
1.435e-06
4.32154e-14
6.20235e-08
1.40346e-06
2.43069e-14
6.31568e-08
1.37134e-06
8.95119e-16
6.43271e-08
1.33862e-06
-2.04212e-14
6.55346e-08
1.30529e-06
-3.2932e-14
6.67796e-08
1.27134e-06
-3.441e-14
6.80619e-08
1.23674e-06
-2.91225e-14
6.93812e-08
1.20148e-06
-2.57155e-14
7.07367e-08
1.16555e-06
-3.08573e-14
7.21276e-08
1.12893e-06
-4.35693e-14
7.35523e-08
1.09162e-06
-5.5185e-14
7.50088e-08
1.05359e-06
-5.62328e-14
7.64946e-08
1.01484e-06
-4.53595e-14
7.80064e-08
9.75358e-07
-3.34524e-14
7.95399e-08
9.3515e-07
-3.52079e-14
8.10899e-08
8.9421e-07
-5.56152e-14
8.265e-08
8.52542e-07
-8.15945e-14
8.42126e-08
8.10156e-07
-9.06636e-14
8.57682e-08
7.67064e-07
-7.27404e-14
8.73059e-08
7.23288e-07
-4.31322e-14
8.88123e-08
6.78857e-07
-3.10307e-14
9.02717e-08
6.33808e-07
-4.94674e-14
9.16655e-08
5.88189e-07
-7.61544e-14
9.2972e-08
5.42063e-07
-7.51205e-14
9.41655e-08
4.95504e-07
-4.07868e-14
9.52159e-08
4.48604e-07
-1.27259e-14
9.60877e-08
4.01475e-07
-3.21132e-14
9.67392e-08
3.5425e-07
-8.45712e-14
9.71216e-08
3.07091e-07
-1.09579e-13
9.7177e-08
2.60188e-07
-8.23647e-14
9.68366e-08
2.13768e-07
-5.6552e-14
9.60183e-08
1.68101e-07
-8.71664e-14
9.46209e-08
1.23505e-07
-1.35433e-13
9.25264e-08
8.03461e-08
-1.19404e-13
8.95676e-08
3.90476e-08
-5.3027e-14
8.55695e-08
1.04874e-10
-1.60705e-14
8.03624e-08
-3.58754e-08
6.59195e-15
7.37093e-08
-6.82036e-08
6.7904e-14
6.53382e-08
-9.61347e-08
4.9849e-14
5.49227e-08
-1.18838e-07
-1.47535e-13
4.20887e-08
-1.35432e-07
-2.59195e-13
2.64418e-08
-1.45029e-07
-4.78506e-14
7.638e-09
-1.46827e-07
1.36571e-13
-1.43609e-08
-1.40393e-07
4.90164e-14
-3.91904e-08
-1.25701e-07
4.26881e-14
-6.46862e-08
-9.81324e-08
-9.6034e-15
-8.52469e-08
-5.59262e-08
-1.20681e-13
-9.62633e-08
2.87215e-13
-9.06075e-08
-7.69881e-08
2.23028e-07
-6.78475e-08
8.47445e-08
-2.31754e-08
-2.45492e-08
4.01548e-08
-1.07241e-07
1.19553e-07
-1.63391e-07
2.11135e-07
-1.99616e-07
3.11184e-07
-2.21705e-07
4.16711e-07
-2.3393e-07
5.25302e-07
-2.39617e-07
6.35153e-07
-2.4095e-07
7.44967e-07
-2.39386e-07
8.53816e-07
-2.35901e-07
9.61046e-07
-2.31146e-07
1.0662e-06
-2.25559e-07
1.16895e-06
-2.19435e-07
1.26907e-06
-2.12972e-07
1.36642e-06
-2.06308e-07
1.46089e-06
-1.99531e-07
1.55241e-06
-1.92704e-07
1.64094e-06
-1.85868e-07
1.72645e-06
-1.79051e-07
1.80894e-06
-1.72272e-07
1.88839e-06
-1.65545e-07
1.96483e-06
-1.5888e-07
2.03826e-06
-1.52284e-07
2.1087e-06
-1.45763e-07
2.17618e-06
-1.39324e-07
2.24072e-06
-1.32972e-07
2.30236e-06
-1.26714e-07
2.36113e-06
-1.20553e-07
2.41707e-06
-1.14497e-07
2.47023e-06
-1.0855e-07
2.52066e-06
-1.02719e-07
2.5684e-06
-9.70093e-08
2.61351e-06
-9.14255e-08
2.65604e-06
-8.59731e-08
2.69606e-06
-8.06565e-08
2.73362e-06
-7.54801e-08
2.76879e-06
-7.04474e-08
2.80163e-06
-6.55617e-08
2.83221e-06
-6.08253e-08
2.8606e-06
-5.62403e-08
2.88687e-06
-5.1808e-08
2.91109e-06
-4.75291e-08
2.93332e-06
-4.34036e-08
2.95365e-06
-3.94312e-08
2.97213e-06
-3.56109e-08
2.98883e-06
-3.19413e-08
3.00384e-06
-2.84204e-08
3.0172e-06
-2.50458e-08
3.029e-06
-2.18148e-08
3.03929e-06
-1.87244e-08
3.04815e-06
-1.57712e-08
3.05562e-06
-1.29517e-08
3.06178e-06
-1.02619e-08
3.06668e-06
-7.69776e-09
3.07038e-06
-5.25498e-09
3.07294e-06
-2.92893e-09
3.0744e-06
-7.15393e-10
3.07482e-06
1.3886e-09
3.07426e-06
3.38615e-09
3.07275e-06
5.28167e-09
3.07034e-06
7.07994e-09
3.06709e-06
8.78541e-09
3.06302e-06
1.04023e-08
3.05819e-06
1.19349e-08
3.05262e-06
1.33871e-08
3.04636e-06
1.47628e-08
3.03945e-06
1.60659e-08
3.0319e-06
1.72999e-08
3.02377e-06
1.84685e-08
3.01507e-06
1.9575e-08
3.00583e-06
2.06227e-08
2.99609e-06
2.16147e-08
2.98587e-06
2.25542e-08
2.97518e-06
2.34439e-08
2.96406e-06
2.42867e-08
2.95253e-06
2.50853e-08
2.9406e-06
2.58421e-08
2.92829e-06
2.65598e-08
2.91563e-06
2.72405e-08
2.90263e-06
2.78865e-08
2.88931e-06
2.85e-08
2.87567e-06
2.90829e-08
2.86175e-06
2.96373e-08
2.84754e-06
3.01649e-08
2.83306e-06
3.06674e-08
2.81832e-06
3.11465e-08
2.80334e-06
3.16038e-08
2.78812e-06
3.20407e-08
2.77267e-06
3.24586e-08
2.75701e-06
3.2859e-08
2.74113e-06
3.32431e-08
2.72505e-06
3.3612e-08
2.70878e-06
3.3967e-08
2.69232e-06
3.43091e-08
2.67567e-06
3.46394e-08
2.65885e-06
3.49588e-08
2.64186e-06
3.52683e-08
2.62469e-06
3.55688e-08
2.60737e-06
3.58611e-08
2.58989e-06
3.61461e-08
2.57224e-06
3.64246e-08
2.55445e-06
3.66974e-08
2.53651e-06
3.69653e-08
2.51841e-06
3.72292e-08
2.50017e-06
3.74898e-08
2.48178e-06
3.77482e-08
2.46325e-06
3.8005e-08
2.44458e-06
3.82612e-08
2.42575e-06
3.85177e-08
2.40679e-06
3.87755e-08
2.38767e-06
3.90355e-08
2.36841e-06
3.92986e-08
2.349e-06
3.95658e-08
2.32944e-06
3.9838e-08
2.30972e-06
4.01163e-08
2.28985e-06
4.04016e-08
2.26981e-06
4.06949e-08
2.24961e-06
4.09971e-08
2.22924e-06
4.13092e-08
2.20869e-06
4.16323e-08
2.18796e-06
4.19673e-08
2.16704e-06
4.23151e-08
2.14592e-06
4.26768e-08
2.12461e-06
4.30532e-08
2.10308e-06
4.34455e-08
2.08134e-06
4.38545e-08
2.05937e-06
4.42811e-08
2.03717e-06
4.47264e-08
2.01472e-06
4.51913e-08
1.99202e-06
4.56767e-08
1.96906e-06
4.61834e-08
1.94582e-06
4.67124e-08
1.92229e-06
4.72645e-08
1.89846e-06
4.78404e-08
1.87433e-06
4.84411e-08
1.84987e-06
4.90672e-08
1.82508e-06
4.97196e-08
1.79994e-06
5.0399e-08
1.77444e-06
5.11062e-08
1.74856e-06
5.18418e-08
1.7223e-06
5.26067e-08
1.69563e-06
5.34016e-08
1.66855e-06
5.42272e-08
1.64103e-06
5.50842e-08
1.61307e-06
5.59734e-08
1.58464e-06
5.68955e-08
1.55574e-06
5.78513e-08
1.52634e-06
5.88413e-08
1.49642e-06
5.98662e-08
1.46599e-06
6.09268e-08
1.435e-06
6.20234e-08
1.40346e-06
6.31567e-08
1.37134e-06
6.4327e-08
1.33862e-06
6.55346e-08
1.30529e-06
6.67796e-08
1.27134e-06
6.80619e-08
1.23674e-06
6.93811e-08
1.20148e-06
7.07367e-08
1.16555e-06
7.21275e-08
1.12893e-06
7.35522e-08
1.09162e-06
7.50087e-08
1.05359e-06
7.64946e-08
1.01484e-06
7.80064e-08
9.75358e-07
7.95398e-08
9.3515e-07
8.10898e-08
8.9421e-07
8.265e-08
8.52543e-07
8.42125e-08
8.10156e-07
8.57682e-08
7.67064e-07
8.73059e-08
7.23289e-07
8.88123e-08
6.78857e-07
9.02717e-08
6.33808e-07
9.16655e-08
5.8819e-07
9.2972e-08
5.42063e-07
9.41655e-08
4.95505e-07
9.52159e-08
4.48605e-07
9.60877e-08
4.01475e-07
9.67392e-08
3.54251e-07
9.71217e-08
3.07091e-07
9.71771e-08
2.60188e-07
9.68367e-08
2.13768e-07
9.60184e-08
1.68101e-07
9.4621e-08
1.23506e-07
9.25265e-08
8.03468e-08
8.95678e-08
3.90482e-08
8.55697e-08
1.05415e-10
8.03626e-08
-3.58747e-08
7.37095e-08
-6.8203e-08
6.53384e-08
-9.61348e-08
5.4923e-08
-1.18838e-07
4.20894e-08
-1.35431e-07
2.64428e-08
-1.45027e-07
7.6385e-09
-1.46825e-07
-1.43605e-08
-1.40391e-07
-3.91895e-08
-1.25701e-07
-6.46849e-08
-9.81341e-08
-8.52458e-08
-5.59229e-08
-9.62642e-08
-9.06108e-08
8.03771e-10
-1.38945e-11
2.22316e-07
5.5244e-08
-3.17025e-12
3.04242e-08
1.23161e-07
-1.41987e-12
-9.24114e-08
1.95475e-07
-8.35324e-13
-1.79512e-07
2.72769e-07
-5.92725e-13
-2.4065e-07
3.55283e-07
-4.75302e-13
-2.821e-07
4.42445e-07
-4.08947e-13
-3.08841e-07
5.3334e-07
-3.83226e-13
-3.24801e-07
6.26819e-07
-3.54632e-13
-3.33076e-07
7.21806e-07
-2.93702e-13
-3.35916e-07
8.17377e-07
-2.25917e-13
-3.3494e-07
9.12787e-07
-1.84707e-13
-3.31294e-07
1.00744e-06
-1.77012e-13
-3.25788e-07
1.10089e-06
-1.96792e-13
-3.18992e-07
1.19278e-06
-2.34699e-13
-3.11308e-07
1.28284e-06
-2.70074e-13
-3.03018e-07
1.37086e-06
-2.79407e-13
-2.94321e-07
1.4567e-06
-2.60502e-13
-2.85357e-07
1.54023e-06
-2.31775e-13
-2.76225e-07
1.62137e-06
-2.06868e-13
-2.66996e-07
1.70005e-06
-1.81208e-13
-2.57721e-07
1.77622e-06
-1.45244e-13
-2.48435e-07
1.84985e-06
-1.02303e-13
-2.39167e-07
1.92092e-06
-6.73902e-14
-2.29938e-07
1.98941e-06
-5.15385e-14
-2.20765e-07
2.05532e-06
-5.13686e-14
-2.11662e-07
2.11864e-06
-5.42692e-14
-2.02643e-07
2.1794e-06
-5.21668e-14
-1.9372e-07
2.23759e-06
-4.86801e-14
-1.84903e-07
2.29325e-06
-5.33015e-14
-1.76204e-07
2.34639e-06
-6.98335e-14
-1.67632e-07
2.39705e-06
-9.05497e-14
-1.59199e-07
2.44525e-06
-1.01021e-13
-1.50914e-07
2.49103e-06
-9.13132e-14
-1.42787e-07
2.53444e-06
-6.3013e-14
-1.34826e-07
2.57551e-06
-2.78988e-14
-1.27041e-07
2.6143e-06
5.5052e-16
-1.19438e-07
2.65085e-06
1.56564e-14
-1.12024e-07
2.68521e-06
2.00209e-14
-1.04806e-07
2.71744e-06
2.15577e-14
-9.77897e-08
2.7476e-06
2.69943e-14
-9.09783e-08
2.77574e-06
3.73678e-14
-8.43756e-08
2.80192e-06
4.81647e-14
-7.79843e-08
2.8262e-06
5.34069e-14
-7.1806e-08
2.84864e-06
5.00137e-14
-6.58413e-08
2.8693e-06
4.01708e-14
-6.00903e-08
2.88825e-06
2.97762e-14
-5.4552e-08
2.90554e-06
2.5252e-14
-4.92249e-08
2.92123e-06
2.98836e-14
-4.41068e-08
2.93538e-06
4.24187e-14
-3.91946e-08
2.94805e-06
5.79825e-14
-3.44849e-08
2.95931e-06
7.07743e-14
-2.99738e-08
2.9692e-06
7.66446e-14
-2.56569e-08
2.97778e-06
7.49132e-14
-2.15294e-08
2.98511e-06
6.80923e-14
-1.7586e-08
2.99123e-06
6.02165e-14
-1.38214e-08
2.99621e-06
5.50435e-14
-1.02297e-08
3.00009e-06
5.42351e-14
-6.80514e-09
3.00292e-06
5.70141e-14
-3.54188e-09
3.00475e-06
6.07853e-14
-4.34446e-10
3.00562e-06
6.24992e-14
2.52201e-09
3.00557e-06
5.99526e-14
5.33275e-09
3.00465e-06
5.26251e-14
8.00402e-09
3.0029e-06
4.18558e-14
1.0542e-08
3.00036e-06
3.02609e-14
1.29526e-08
2.99706e-06
2.0876e-14
1.52416e-08
2.99303e-06
1.61576e-14
1.74147e-08
2.98832e-06
1.7469e-14
1.94774e-08
2.98296e-06
2.46715e-14
2.14349e-08
2.97697e-06
3.64815e-14
2.32926e-08
2.97039e-06
5.08589e-14
2.50553e-08
2.96325e-06
6.56387e-14
2.67279e-08
2.95556e-06
7.90619e-14
2.83151e-08
2.94736e-06
9.00948e-14
2.98214e-08
2.93867e-06
9.83971e-14
3.1251e-08
2.92951e-06
1.04413e-13
3.26083e-08
2.91991e-06
1.08851e-13
3.38971e-08
2.90988e-06
1.12552e-13
3.51212e-08
2.89944e-06
1.16105e-13
3.62845e-08
2.88861e-06
1.19918e-13
3.73903e-08
2.87742e-06
1.23877e-13
3.8442e-08
2.86587e-06
1.27631e-13
3.94428e-08
2.85397e-06
1.30628e-13
4.03959e-08
2.84176e-06
1.32193e-13
4.1304e-08
2.82923e-06
1.31714e-13
4.217e-08
2.8164e-06
1.2871e-13
4.29965e-08
2.80329e-06
1.22909e-13
4.37861e-08
2.7899e-06
1.14308e-13
4.4541e-08
2.77624e-06
1.03272e-13
4.52636e-08
2.76233e-06
9.03028e-14
4.59561e-08
2.74817e-06
7.62134e-14
4.66204e-08
2.73378e-06
6.19158e-14
4.72585e-08
2.71915e-06
4.83745e-14
4.78722e-08
2.7043e-06
3.65715e-14
4.84634e-08
2.68924e-06
2.73531e-14
4.90337e-08
2.67397e-06
2.13961e-14
4.95846e-08
2.65849e-06
1.91791e-14
5.01178e-08
2.64282e-06
2.09034e-14
5.06346e-08
2.62696e-06
2.63505e-14
5.11364e-08
2.6109e-06
3.50796e-14
5.16246e-08
2.59467e-06
4.63067e-14
5.21004e-08
2.57825e-06
5.89286e-14
5.25651e-08
2.56166e-06
7.17412e-14
5.30199e-08
2.54489e-06
8.35061e-14
5.34662e-08
2.52796e-06
9.30298e-14
5.3905e-08
2.51085e-06
9.93407e-14
5.43376e-08
2.49358e-06
1.01769e-13
5.47652e-08
2.47614e-06
9.99999e-14
5.51892e-08
2.45854e-06
9.41365e-14
5.56108e-08
2.44077e-06
8.46094e-14
5.60313e-08
2.42284e-06
7.23067e-14
5.64521e-08
2.40475e-06
5.83179e-14
5.68744e-08
2.38649e-06
4.39787e-14
5.72997e-08
2.36806e-06
3.06942e-14
5.77294e-08
2.34946e-06
1.98522e-14
5.81648e-08
2.3307e-06
1.25837e-14
5.86074e-08
2.31176e-06
9.61037e-15
5.90586e-08
2.29264e-06
1.12896e-14
5.95197e-08
2.27335e-06
1.73576e-14
5.99924e-08
2.25387e-06
2.69368e-14
6.04779e-08
2.23421e-06
3.86913e-14
6.09777e-08
2.21435e-06
5.09245e-14
6.14933e-08
2.1943e-06
6.18325e-14
6.2026e-08
2.17404e-06
6.97741e-14
6.25774e-08
2.15357e-06
7.36806e-14
6.31489e-08
2.13288e-06
7.31498e-14
6.37418e-08
2.11197e-06
6.87228e-14
6.43575e-08
2.09083e-06
6.16209e-14
6.49976e-08
2.06945e-06
5.36932e-14
6.56633e-08
2.04783e-06
4.67994e-14
6.6356e-08
2.02594e-06
4.24591e-14
6.7077e-08
2.0038e-06
4.13003e-14
6.78277e-08
1.98137e-06
4.30211e-14
6.86093e-08
1.95867e-06
4.62339e-14
6.94231e-08
1.93566e-06
4.90649e-14
7.02703e-08
1.91235e-06
4.96721e-14
7.1152e-08
1.88873e-06
4.6952e-14
7.20694e-08
1.86477e-06
4.09603e-14
7.30236e-08
1.84048e-06