/*--------------------------------*- C++ -*----------------------------------*\
  =========                 |
  \\      /  F ield         | OpenFOAM: The Open Source CFD Toolbox
   \\    /   O peration     | Website:  https://openfoam.org
    \\  /    A nd           | Version:  8
     \\/     M anipulation  |
\*---------------------------------------------------------------------------*/
FoamFile
{
    version     2.0;
    format      ascii;
    class       volVectorField;
    location    "1300";
    object      U;
}
// * * * * * * * * * * * * * * * * * * * * * * * * * * * * * * * * * * * * * //

dimensions      [0 1 -1 0 0 0 0];

internalField   nonuniform List<vector> 
48000
(
(-0.00748764 -2.19181e-06 0.00953334)
(-0.0132872 -2.08073e-06 0.00709506)
(-0.0186803 -1.53343e-06 0.00214916)
(-0.0170837 -1.30742e-06 -0.00246724)
(-0.0122485 -1.29241e-06 -0.0050604)
(-0.00554908 -1.24669e-06 -0.00657551)
(0.00251669 -1.18446e-06 -0.00739044)
(0.0111454 -1.08375e-06 -0.00771662)
(0.0200879 -9.81768e-07 -0.0077845)
(0.0291109 -8.91144e-07 -0.0077081)
(0.0380729 -7.99187e-07 -0.00754701)
(0.0468895 -7.08869e-07 -0.00733712)
(0.0555075 -6.35881e-07 -0.00710037)
(0.0638945 -5.85061e-07 -0.00685024)
(0.0720314 -5.52051e-07 -0.00659502)
(0.0799076 -5.32724e-07 -0.00633968)
(0.0875179 -5.19992e-07 -0.0060872)
(0.0948607 -5.02456e-07 -0.00583925)
(0.101937 -4.73642e-07 -0.00559671)
(0.108747 -4.3708e-07 -0.00535991)
(0.115296 -3.99239e-07 -0.00512894)
(0.121585 -3.61326e-07 -0.00490369)
(0.127619 -3.20378e-07 -0.004684)
(0.133401 -2.76655e-07 -0.00446966)
(0.138935 -2.36332e-07 -0.00426048)
(0.144224 -2.0651e-07 -0.00405626)
(0.149273 -1.88364e-07 -0.00385687)
(0.154085 -1.77174e-07 -0.00366219)
(0.158665 -1.67816e-07 -0.00347215)
(0.163017 -1.59672e-07 -0.0032867)
(0.167145 -1.55522e-07 -0.0031058)
(0.171054 -1.56741e-07 -0.00292943)
(0.174748 -1.59878e-07 -0.00275763)
(0.178232 -1.58503e-07 -0.00259042)
(0.181511 -1.4785e-07 -0.00242784)
(0.184591 -1.28384e-07 -0.00226993)
(0.187475 -1.05396e-07 -0.00211673)
(0.19017 -8.51219e-08 -0.00196827)
(0.192682 -7.12597e-08 -0.00182458)
(0.195015 -6.34967e-08 -0.00168568)
(0.197175 -5.91031e-08 -0.00155159)
(0.199167 -5.56271e-08 -0.00142233)
(0.200999 -5.24823e-08 -0.00129787)
(0.202675 -5.09937e-08 -0.00117819)
(0.204201 -5.2707e-08 -0.00106324)
(0.205582 -5.7881e-08 -0.000952967)
(0.206826 -6.48674e-08 -0.000847293)
(0.207936 -7.09095e-08 -0.000746145)
(0.208919 -7.33994e-08 -0.000649438)
(0.209781 -7.12407e-08 -0.000557077)
(0.210526 -6.521e-08 -0.000468956)
(0.211159 -5.74813e-08 -0.000384961)
(0.211686 -5.05826e-08 -0.000304972)
(0.212112 -4.64975e-08 -0.000228864)
(0.212442 -4.58007e-08 -0.000156512)
(0.212679 -4.79937e-08 -8.77893e-05)
(0.212829 -5.17325e-08 -2.2562e-05)
(0.212897 -5.5612e-08 3.942e-05)
(0.212885 -5.86693e-08 9.8257e-05)
(0.212798 -6.05767e-08 0.000153867)
(0.21264 -6.16732e-08 0.000206357)
(0.212415 -6.25032e-08 0.00025594)
(0.212126 -6.3691e-08 0.000302786)
(0.211778 -6.56023e-08 0.000347042)
(0.211372 -6.8275e-08 0.000388839)
(0.210913 -7.15149e-08 0.000428299)
(0.210402 -7.48539e-08 0.000465534)
(0.209844 -7.78388e-08 0.000500653)
(0.20924 -8.00279e-08 0.00053376)
(0.208593 -8.11092e-08 0.000564957)
(0.207906 -8.0915e-08 0.000594346)
(0.20718 -7.9434e-08 0.000622023)
(0.206418 -7.67766e-08 0.000648088)
(0.205622 -7.31369e-08 0.000672633)
(0.204794 -6.877e-08 0.000695748)
(0.203936 -6.39348e-08 0.000717519)
(0.203049 -5.89359e-08 0.000738028)
(0.202134 -5.41236e-08 0.000757349)
(0.201194 -4.96996e-08 0.000775553)
(0.20023 -4.59114e-08 0.000792708)
(0.199243 -4.28237e-08 0.000808876)
(0.198235 -4.04937e-08 0.000824118)
(0.197206 -3.87766e-08 0.000838491)
(0.196157 -3.75469e-08 0.000852051)
(0.19509 -3.66027e-08 0.000864851)
(0.194006 -3.57651e-08 0.000876943)
(0.192906 -3.49846e-08 0.000888377)
(0.191789 -3.42308e-08 0.0008992)
(0.190658 -3.35188e-08 0.000909456)
(0.189513 -3.30011e-08 0.000919189)
(0.188355 -3.27612e-08 0.000928439)
(0.187183 -3.30277e-08 0.000937242)
(0.186 -3.38958e-08 0.000945634)
(0.184805 -3.54148e-08 0.000953647)
(0.183598 -3.76497e-08 0.000961313)
(0.182381 -4.04709e-08 0.000968659)
(0.181153 -4.36575e-08 0.000975712)
(0.179916 -4.69241e-08 0.000982498)
(0.178669 -4.98709e-08 0.00098904)
(0.177413 -5.21705e-08 0.000995363)
(0.176147 -5.34116e-08 0.00100149)
(0.174873 -5.33774e-08 0.00100744)
(0.173591 -5.19154e-08 0.00101323)
(0.1723 -4.90714e-08 0.00101889)
(0.171001 -4.50548e-08 0.00102444)
(0.169695 -4.02082e-08 0.00102989)
(0.16838 -3.50379e-08 0.00103528)
(0.167058 -3.00885e-08 0.00104063)
(0.165727 -2.59615e-08 0.00104595)
(0.164389 -2.32165e-08 0.00105127)
(0.163044 -2.22533e-08 0.00105662)
(0.16169 -2.33726e-08 0.00106203)
(0.160329 -2.65212e-08 0.00106751)
(0.15896 -3.14515e-08 0.00107309)
(0.157583 -3.75812e-08 0.00107881)
(0.156198 -4.42096e-08 0.00108468)
(0.154805 -5.04687e-08 0.00109074)
(0.153402 -5.54333e-08 0.00109701)
(0.151992 -5.8441e-08 0.00110353)
(0.150571 -5.90425e-08 0.0011103)
(0.149142 -5.7158e-08 0.00111738)
(0.147703 -5.31375e-08 0.00112478)
(0.146253 -4.76703e-08 0.00113253)
(0.144792 -4.17158e-08 0.00114066)
(0.143321 -3.62601e-08 0.00114919)
(0.141838 -3.2114e-08 0.00115816)
(0.140342 -2.97078e-08 0.0011676)
(0.138834 -2.90073e-08 0.00117752)
(0.137312 -2.94527e-08 0.00118797)
(0.135776 -3.00924e-08 0.00119896)
(0.134225 -2.99553e-08 0.00121053)
(0.132659 -2.82268e-08 0.00122271)
(0.131076 -2.46594e-08 0.00123552)
(0.129476 -1.9592e-08 0.00124899)
(0.127859 -1.4022e-08 0.00126314)
(0.126223 -9.21731e-09 0.001278)
(0.124567 -6.34665e-09 0.00129361)
(0.122891 -6.08776e-09 0.00130997)
(0.121194 -8.31499e-09 0.00132711)
(0.119474 -1.19471e-08 0.00134507)
(0.117731 -1.56287e-08 0.00136386)
(0.115963 -1.78559e-08 0.00138352)
(0.114171 -1.77722e-08 0.00140408)
(0.112352 -1.53165e-08 0.00142555)
(0.110505 -1.13113e-08 0.00144798)
(0.10863 -6.81875e-09 0.00147138)
(0.106725 -2.74882e-09 0.0014958)
(0.104789 7.00532e-10 0.00152125)
(0.102821 3.792e-09 0.00154776)
(0.10082 7.10049e-09 0.00157539)
(0.0987841 1.06983e-08 0.00160414)
(0.0967122 1.38355e-08 0.00163407)
(0.0946031 1.52099e-08 0.00166521)
(0.0924553 1.37136e-08 0.00169758)
(0.0902675 9.34295e-09 0.00173122)
(0.0880384 3.70063e-09 0.00176615)
(0.0857665 -8.1094e-10 0.00180242)
(0.0834504 -2.23484e-09 0.00184003)
(0.0810887 -5.67277e-10 0.00187903)
(0.0786799 2.13586e-09 0.00191942)
(0.0762226 2.99248e-09 0.0019612)
(0.0737154 7.00531e-10 0.00200439)
(0.0711571 -3.31991e-09 0.00204895)
(0.0685462 -5.61947e-09 0.00209486)
(0.0658816 -3.70824e-09 0.00214208)
(0.0631622 1.25639e-09 0.00219053)
(0.060387 4.80473e-09 0.00224013)
(0.0575553 2.64222e-09 0.00229073)
(0.0546665 -5.04839e-09 0.00234218)
(0.0517203 -1.24801e-08 0.00239426)
(0.0487168 -1.29751e-08 0.0024467)
(0.0456564 -5.49003e-09 0.00249918)
(0.0425402 3.1067e-09 0.00255129)
(0.0393696 4.2641e-09 0.00260255)
(0.0361469 -3.0534e-09 0.00265233)
(0.0328752 -9.93688e-09 0.00269992)
(0.0295586 -6.82256e-09 0.00274443)
(0.0262022 4.20319e-09 0.00278479)
(0.0228128 9.40387e-09 0.00281975)
(0.0193987 -3.73108e-10 0.00284772)
(0.01597 -1.66376e-08 0.00286683)
(0.0125393 -2.2219e-08 0.00287478)
(0.00912251 -1.46883e-08 0.00286872)
(0.00573706 -1.09344e-08 0.00284503)
(0.00241407 -2.12368e-08 0.0027989)
(-0.000837445 -2.95898e-08 0.00271557)
(-0.00395379 -1.663e-08 0.00258617)
(-0.00690274 6.05351e-09 0.00241183)
(-0.00963161 1.28685e-08 0.0021883)
(-0.0120743 5.49765e-09 0.00190324)
(-0.0141536 1.59907e-10 0.00153834)
(-0.0157701 -2.60415e-09 0.00107442)
(-0.0168041 1.10105e-08 0.000487309)
(-0.0171161 6.12203e-08 -0.000248227)
(-0.0165079 7.76224e-08 -0.00114779)
(-0.0150194 1.61435e-08 -0.00222489)
(-0.0120621 -2.70833e-08 -0.00348059)
(-0.00833181 -1.91762e-08 -0.0037201)
(-0.00361424 -1.47228e-07 -0.00309512)
(-0.00136629 -3.05916e-07 -0.00182203)
(-0.00748657 -2.19296e-06 0.00953408)
(-0.0132882 -2.08131e-06 0.007094)
(-0.0186796 -1.53318e-06 0.00214742)
(-0.0170827 -1.30728e-06 -0.00246863)
(-0.0122476 -1.29232e-06 -0.0050616)
(-0.00554798 -1.24662e-06 -0.00657653)
(0.00251774 -1.1844e-06 -0.00739129)
(0.0111463 -1.0837e-06 -0.00771733)
(0.0200887 -9.81727e-07 -0.00778512)
(0.0291115 -8.91111e-07 -0.00770866)
(0.0380734 -7.99161e-07 -0.00754752)
(0.0468899 -7.08848e-07 -0.00733758)
(0.0555078 -6.35864e-07 -0.00710078)
(0.0638947 -5.85046e-07 -0.00685062)
(0.0720315 -5.52038e-07 -0.00659534)
(0.0799076 -5.32713e-07 -0.00633996)
(0.0875179 -5.19982e-07 -0.00608744)
(0.0948606 -5.02447e-07 -0.00583947)
(0.101936 -4.73634e-07 -0.00559689)
(0.108747 -4.37073e-07 -0.00536007)
(0.115296 -3.99233e-07 -0.00512906)
(0.121585 -3.61321e-07 -0.0049038)
(0.127619 -3.20374e-07 -0.00468409)
(0.133401 -2.76652e-07 -0.00446974)
(0.138934 -2.36329e-07 -0.00426053)
(0.144224 -2.06507e-07 -0.0040563)
(0.149272 -1.88362e-07 -0.00385689)
(0.154085 -1.77173e-07 -0.0036622)
(0.158665 -1.67814e-07 -0.00347215)
(0.163016 -1.59671e-07 -0.00328668)
(0.167144 -1.55521e-07 -0.00310576)
(0.171053 -1.56739e-07 -0.00292938)
(0.174747 -1.59876e-07 -0.00275757)
(0.178232 -1.58502e-07 -0.00259036)
(0.181511 -1.47849e-07 -0.00242778)
(0.18459 -1.28383e-07 -0.00226987)
(0.187475 -1.05395e-07 -0.00211666)
(0.19017 -8.51214e-08 -0.00196819)
(0.192681 -7.12593e-08 -0.00182449)
(0.195014 -6.34963e-08 -0.0016856)
(0.197174 -5.91028e-08 -0.00155152)
(0.199167 -5.56268e-08 -0.00142226)
(0.200998 -5.2482e-08 -0.00129781)
(0.202674 -5.09934e-08 -0.00117813)
(0.2042 -5.27067e-08 -0.00106318)
(0.205582 -5.78808e-08 -0.000952894)
(0.206825 -6.48671e-08 -0.000847218)
(0.207936 -7.09092e-08 -0.000746072)
(0.208919 -7.33991e-08 -0.000649369)
(0.20978 -7.12404e-08 -0.000557011)
(0.210525 -6.52098e-08 -0.000468892)
(0.211159 -5.74811e-08 -0.000384898)
(0.211686 -5.05824e-08 -0.000304908)
(0.212112 -4.64973e-08 -0.000228799)
(0.212441 -4.58006e-08 -0.000156449)
(0.212679 -4.79936e-08 -8.77293e-05)
(0.212829 -5.17323e-08 -2.25057e-05)
(0.212896 -5.56118e-08 3.94733e-05)
(0.212884 -5.86691e-08 9.83104e-05)
(0.212797 -6.05765e-08 0.000153925)
(0.212639 -6.1673e-08 0.000206422)
(0.212414 -6.2503e-08 0.000256012)
(0.212126 -6.36909e-08 0.000302867)
(0.211777 -6.56021e-08 0.000347128)
(0.211372 -6.82748e-08 0.000388926)
(0.210912 -7.15147e-08 0.000428384)
(0.210402 -7.48537e-08 0.000465614)
(0.209844 -7.78385e-08 0.000500728)
(0.20924 -8.00277e-08 0.000533831)
(0.208593 -8.1109e-08 0.000565027)
(0.207906 -8.09148e-08 0.000594416)
(0.20718 -7.94338e-08 0.000622098)
(0.206418 -7.67764e-08 0.000648167)
(0.205622 -7.31367e-08 0.000672718)
(0.204794 -6.87698e-08 0.000695838)
(0.203935 -6.39346e-08 0.000717612)
(0.203048 -5.89357e-08 0.00073812)
(0.202134 -5.41234e-08 0.000757437)
(0.201194 -4.96994e-08 0.000775636)
(0.20023 -4.59112e-08 0.000792783)
(0.199243 -4.28236e-08 0.000808944)
(0.198234 -4.04936e-08 0.000824177)
(0.197205 -3.87765e-08 0.000838544)
(0.196157 -3.75468e-08 0.000852098)
(0.19509 -3.66026e-08 0.000864895)
(0.194006 -3.5765e-08 0.000876985)
(0.192905 -3.49845e-08 0.000888418)
(0.191789 -3.42307e-08 0.000899241)
(0.190658 -3.35188e-08 0.0009095)
(0.189513 -3.3001e-08 0.000919235)
(0.188355 -3.27611e-08 0.000928487)
(0.187183 -3.30276e-08 0.000937293)
(0.186 -3.38957e-08 0.000945688)
(0.184804 -3.54148e-08 0.000953705)
(0.183598 -3.76496e-08 0.000961374)
(0.182381 -4.04708e-08 0.000968723)
(0.181153 -4.36574e-08 0.000975779)
(0.179916 -4.6924e-08 0.000982567)
(0.178669 -4.98708e-08 0.000989111)
(0.177413 -5.21704e-08 0.000995434)
(0.176147 -5.34115e-08 0.00100156)
(0.174873 -5.33773e-08 0.0010075)
(0.173591 -5.19153e-08 0.0010133)
(0.1723 -4.90713e-08 0.00101895)
(0.171001 -4.50547e-08 0.0010245)
(0.169694 -4.02081e-08 0.00102995)
(0.16838 -3.50379e-08 0.00103534)
(0.167057 -3.00885e-08 0.00104068)
(0.165727 -2.59614e-08 0.001046)
(0.164389 -2.32164e-08 0.00105132)
(0.163044 -2.22532e-08 0.00105667)
(0.16169 -2.33725e-08 0.00106208)
(0.160329 -2.65211e-08 0.00106756)
(0.15896 -3.14515e-08 0.00107315)
(0.157583 -3.75811e-08 0.00107888)
(0.156198 -4.42095e-08 0.00108475)
(0.154804 -5.04685e-08 0.00109082)
(0.153402 -5.54332e-08 0.00109709)
(0.151991 -5.84409e-08 0.00110361)
(0.150571 -5.90424e-08 0.00111039)
(0.149142 -5.71578e-08 0.00111746)
(0.147702 -5.31374e-08 0.00112486)
(0.146253 -4.76702e-08 0.00113261)
(0.144792 -4.17157e-08 0.00114074)
(0.143321 -3.626e-08 0.00114927)
(0.141838 -3.21139e-08 0.00115824)
(0.140342 -2.97078e-08 0.00116768)
(0.138834 -2.90072e-08 0.0011776)
(0.137312 -2.94527e-08 0.00118805)
(0.135776 -3.00923e-08 0.00119905)
(0.134225 -2.99552e-08 0.00121062)
(0.132659 -2.82267e-08 0.0012228)
(0.131076 -2.46594e-08 0.00123561)
(0.129476 -1.9592e-08 0.00124908)
(0.127859 -1.4022e-08 0.00126323)
(0.126223 -9.21728e-09 0.0012781)
(0.124567 -6.34664e-09 0.0012937)
(0.122891 -6.08775e-09 0.00131006)
(0.121193 -8.31497e-09 0.0013272)
(0.119474 -1.19471e-08 0.00134516)
(0.117731 -1.56286e-08 0.00136395)
(0.115963 -1.78559e-08 0.00138361)
(0.114171 -1.77721e-08 0.00140417)
(0.112352 -1.53165e-08 0.00142564)
(0.110505 -1.13113e-08 0.00144806)
(0.10863 -6.81873e-09 0.00147147)
(0.106725 -2.74881e-09 0.00149588)
(0.104789 7.0053e-10 0.00152132)
(0.102821 3.79199e-09 0.00154784)
(0.10082 7.10047e-09 0.00157546)
(0.0987841 1.06983e-08 0.00160422)
(0.0967122 1.38354e-08 0.00163415)
(0.0946031 1.52099e-08 0.00166528)
(0.0924553 1.37136e-08 0.00169765)
(0.0902676 9.34292e-09 0.00173129)
(0.0880384 3.70062e-09 0.00176623)
(0.0857665 -8.10938e-10 0.00180249)
(0.0834504 -2.23484e-09 0.00184011)
(0.0810887 -5.67276e-10 0.0018791)
(0.0786799 2.13585e-09 0.00191949)
(0.0762226 2.99248e-09 0.00196128)
(0.0737155 7.00529e-10 0.00200446)
(0.0711571 -3.3199e-09 0.00204902)
(0.0685462 -5.61946e-09 0.00209493)
(0.0658816 -3.70823e-09 0.00214215)
(0.0631622 1.25638e-09 0.0021906)
(0.0603871 4.80471e-09 0.0022402)
(0.0575553 2.64221e-09 0.00229081)
(0.0546665 -5.04838e-09 0.00234226)
(0.0517203 -1.24801e-08 0.00239433)
(0.0487168 -1.2975e-08 0.00244677)
(0.0456565 -5.49001e-09 0.00249926)
(0.0425403 3.10669e-09 0.00255138)
(0.0393697 4.26409e-09 0.00260263)
(0.036147 -3.05339e-09 0.00265242)
(0.0328753 -9.93684e-09 0.0027)
(0.0295587 -6.82254e-09 0.00274451)
(0.0262023 4.20317e-09 0.00278489)
(0.0228129 9.40383e-09 0.00281985)
(0.0193987 -3.73107e-10 0.00284782)
(0.01597 -1.66375e-08 0.00286693)
(0.0125394 -2.22189e-08 0.00287488)
(0.00912261 -1.46882e-08 0.00286883)
(0.00573717 -1.09343e-08 0.00284514)
(0.00241418 -2.12367e-08 0.00279902)
(-0.000837337 -2.95897e-08 0.00271569)
(-0.00395366 -1.66299e-08 0.0025863)
(-0.0069026 6.05348e-09 0.00241198)
(-0.00963148 1.28684e-08 0.00218845)
(-0.0120742 5.49763e-09 0.00190339)
(-0.0141535 1.59906e-10 0.00153853)
(-0.01577 -2.60413e-09 0.00107462)
(-0.016804 1.10105e-08 0.000487468)
(-0.0171159 6.12201e-08 -0.000248083)
(-0.0165077 7.76211e-08 -0.00114762)
(-0.0150193 1.61418e-08 -0.0022247)
(-0.0120619 -2.70707e-08 -0.00348085)
(-0.00833174 -1.91701e-08 -0.00372058)
(-0.00361392 -1.47268e-07 -0.00309454)
(-0.00136614 -3.05707e-07 -0.00182233)
(-0.00548457 -1.10484e-06 0.014917)
(-0.0054902 -5.07881e-07 0.0079176)
(-0.0035739 -2.46062e-07 0.000420261)
(0.000304049 -1.98617e-07 -0.00573223)
(0.00526039 -1.7162e-07 -0.00992555)
(0.0111813 -1.52755e-07 -0.012569)
(0.0178118 -1.36067e-07 -0.0141291)
(0.0249031 -1.25454e-07 -0.0149495)
(0.0322798 -1.17846e-07 -0.0153034)
(0.0397956 -1.063e-07 -0.0153584)
(0.0473464 -9.17693e-08 -0.0152218)
(0.0548577 -8.01168e-08 -0.0149625)
(0.0622768 -7.38327e-08 -0.0146251)
(0.0695664 -7.19909e-08 -0.0142389)
(0.0767005 -7.34072e-08 -0.0138227)
(0.083661 -7.62084e-08 -0.0133892)
(0.0904353 -7.69213e-08 -0.0129466)
(0.0970148 -7.31063e-08 -0.0125003)
(0.103394 -6.58581e-08 -0.0120537)
(0.109569 -5.8015e-08 -0.0116092)
(0.115538 -5.06801e-08 -0.011168)
(0.121299 -4.28351e-08 -0.0107313)
(0.126852 -3.38803e-08 -0.0102994)
(0.132198 -2.53215e-08 -0.00987296)
(0.137337 -1.94706e-08 -0.00945213)
(0.142271 -1.70597e-08 -0.0090372)
(0.147 -1.66475e-08 -0.00862841)
(0.151527 -1.63087e-08 -0.00822597)
(0.155853 -1.55197e-08 -0.00783016)
(0.159982 -1.52084e-08 -0.00744122)
(0.163915 -1.62821e-08 -0.00705945)
(0.167656 -1.82248e-08 -0.00668513)
(0.171207 -1.92014e-08 -0.00631855)
(0.174573 -1.75243e-08 -0.00596002)
(0.177756 -1.29536e-08 -0.00560983)
(0.18076 -6.8858e-09 -0.00526825)
(0.18359 -1.35194e-09 -0.00493554)
(0.186249 2.28018e-09 -0.00461192)
(0.188742 3.92585e-09 -0.00429759)
(0.191073 4.44552e-09 -0.00399273)
(0.193247 4.82337e-09 -0.00369748)
(0.195268 5.43918e-09 -0.00341192)
(0.197141 5.98074e-09 -0.00313613)
(0.198871 5.87316e-09 -0.00287013)
(0.200463 4.80806e-09 -0.0026139)
(0.201921 3.10048e-09 -0.0023674)
(0.203251 1.51664e-09 -0.00213055)
(0.204456 8.77001e-10 -0.00190324)
(0.205542 1.62511e-09 -0.00168534)
(0.206514 3.61724e-09 -0.00147668)
(0.207376 6.22043e-09 -0.00127708)
(0.208132 8.64088e-09 -0.00108634)
(0.208787 1.02418e-08 -0.000904228)
(0.209346 1.079e-08 -0.000730514)
(0.209813 1.04255e-08 -0.000564945)
(0.210191 9.57834e-09 -0.000407254)
(0.210484 8.66268e-09 -0.000257159)
(0.210698 7.9964e-09 -0.000114357)
(0.210835 7.62708e-09 2.14007e-05)
(0.210898 7.45098e-09 0.000150265)
(0.210892 7.30439e-09 0.000272443)
(0.21082 7.03025e-09 0.000388245)
(0.210685 6.59336e-09 0.000497985)
(0.21049 6.05462e-09 0.00060195)
(0.210238 5.55206e-09 0.000700413)
(0.209932 5.24461e-09 0.000793636)
(0.209574 5.24365e-09 0.000881871)
(0.209168 5.61009e-09 0.000965361)
(0.208715 6.30871e-09 0.00104434)
(0.208219 7.26146e-09 0.00111903)
(0.20768 8.36746e-09 0.00118966)
(0.207102 9.52485e-09 0.00125644)
(0.206486 1.06604e-08 0.00131957)
(0.205835 1.17292e-08 0.00137925)
(0.205149 1.27229e-08 0.00143568)
(0.204431 1.3649e-08 0.00148904)
(0.203683 1.45009e-08 0.0015395)
(0.202905 1.52709e-08 0.00158723)
(0.2021 1.59352e-08 0.00163239)
(0.201269 1.64625e-08 0.00167514)
(0.200412 1.68204e-08 0.00171562)
(0.199531 1.69917e-08 0.00175397)
(0.198628 1.6966e-08 0.00179032)
(0.197703 1.67538e-08 0.0018248)
(0.196758 1.63635e-08 0.00185753)
(0.195792 1.58134e-08 0.00188862)
(0.194808 1.51252e-08 0.00191817)
(0.193806 1.43e-08 0.0019463)
(0.192786 1.33587e-08 0.0019731)
(0.19175 1.23164e-08 0.00199867)
(0.190698 1.11904e-08 0.00202308)
(0.189631 1.0015e-08 0.00204642)
(0.188549 8.80901e-09 0.00206878)
(0.187453 7.63733e-09 0.00209022)
(0.186344 6.55036e-09 0.00211082)
(0.185221 5.62235e-09 0.00213063)
(0.184086 4.92657e-09 0.00214972)
(0.182938 4.53252e-09 0.00216815)
(0.181778 4.49921e-09 0.00218598)
(0.180606 4.85328e-09 0.00220326)
(0.179424 5.58998e-09 0.00222004)
(0.17823 6.66648e-09 0.00223638)
(0.177025 7.98188e-09 0.00225232)
(0.17581 9.42291e-09 0.00226792)
(0.174584 1.08392e-08 0.00228323)
(0.173348 1.20747e-08 0.00229829)
(0.172102 1.29893e-08 0.00231317)
(0.170846 1.34633e-08 0.00232792)
(0.169579 1.34205e-08 0.00234258)
(0.168303 1.28199e-08 0.00235722)
(0.167017 1.16911e-08 0.00237188)
(0.165721 1.01225e-08 0.00238664)
(0.164415 8.26741e-09 0.00240153)
(0.163099 6.30193e-09 0.00241662)
(0.161773 4.45447e-09 0.00243197)
(0.160436 2.92491e-09 0.00244763)
(0.159089 1.91219e-09 0.00246366)
(0.157731 1.53432e-09 0.00248012)
(0.156362 1.85793e-09 0.00249708)
(0.154982 2.81831e-09 0.00251459)
(0.153591 4.28314e-09 0.00253271)
(0.152187 6.03161e-09 0.0025515)
(0.150772 7.79912e-09 0.00257103)
(0.149344 9.31155e-09 0.00259136)
(0.147902 1.03547e-08 0.00261255)
(0.146447 1.07954e-08 0.00263465)
(0.144978 1.06507e-08 0.00265774)
(0.143494 1.0034e-08 0.00268186)
(0.141995 9.18591e-09 0.00270709)
(0.140481 8.36259e-09 0.00273347)
(0.13895 7.80102e-09 0.00276107)
(0.137401 7.62399e-09 0.00278994)
(0.135835 7.80674e-09 0.00282014)
(0.134251 8.18365e-09 0.00285172)
(0.132647 8.48157e-09 0.00288474)
(0.131023 8.42351e-09 0.00291923)
(0.129379 7.84195e-09 0.00295526)
(0.127712 6.73785e-09 0.00299287)
(0.126024 5.30443e-09 0.00303212)
(0.124311 3.88052e-09 0.00307304)
(0.122575 2.82497e-09 0.0031157)
(0.120813 2.35858e-09 0.00316013)
(0.119026 2.50706e-09 0.00320639)
(0.117211 3.07625e-09 0.00325453)
(0.115368 3.7387e-09 0.00330458)
(0.113496 4.20795e-09 0.00335661)
(0.111593 4.35357e-09 0.00341066)
(0.10966 4.25363e-09 0.00346678)
(0.107694 4.08992e-09 0.00352502)
(0.105695 3.99855e-09 0.00358543)
(0.103661 3.90717e-09 0.00364805)
(0.101592 3.56072e-09 0.00371293)
(0.0994858 2.63175e-09 0.00378011)
(0.0973419 1.02986e-09 0.00384963)
(0.0951589 -9.68941e-10 0.00392152)
(0.0929358 -2.74026e-09 0.00399581)
(0.0906714 -3.67017e-09 0.00407252)
(0.0883644 -3.57404e-09 0.00415166)
(0.0860139 -2.87732e-09 0.00423321)
(0.0836187 -2.40141e-09 0.00431716)
(0.0811779 -2.765e-09 0.00440345)
(0.0786903 -3.84531e-09 0.00449201)
(0.0761551 -4.78665e-09 0.00458275)
(0.0735715 -4.67719e-09 0.00467551)
(0.0709387 -3.38749e-09 0.00477012)
(0.0682563 -1.95977e-09 0.00486634)
(0.0655239 -1.80748e-09 0.00496387)
(0.0627412 -3.46649e-09 0.00506233)
(0.0599085 -5.76891e-09 0.00516127)
(0.057026 -6.63982e-09 0.00526014)
(0.0540946 -5.09408e-09 0.00535826)
(0.0511154 -2.44615e-09 0.00545484)
(0.0480901 -1.32016e-09 0.00554891)
(0.045021 -2.95346e-09 0.00563933)
(0.041911 -5.43673e-09 0.00572476)
(0.0387638 -5.57189e-09 0.00580359)
(0.0355841 -2.75073e-09 0.00587394)
(0.0323776 -3.3694e-10 0.00593357)
(0.0291512 -1.95502e-09 0.00597983)
(0.0259132 -6.5732e-09 0.00600959)
(0.0226737 -9.13547e-09 0.00601913)
(0.0194447 -7.34416e-09 0.00600397)
(0.0162404 -5.37772e-09 0.00595872)
(0.0130776 -7.69443e-09 0.00587648)
(0.00997697 -1.12694e-08 0.00574943)
(0.00696065 -9.53333e-09 0.00556428)
(0.00405685 -3.57309e-09 0.0053083)
(0.00129681 -1.40867e-10 0.0049714)
(-0.0012848 1.00321e-09 0.0045372)
(-0.00363825 4.42782e-09 0.00398637)
(-0.00571812 3.75013e-09 0.00329365)
(-0.00746899 -8.0447e-09 0.00242976)
(-0.00883141 -1.54498e-08 0.00136213)
(-0.0097455 -2.11874e-09 6.16289e-05)
(-0.0101442 1.16258e-08 -0.00147169)
(-0.00999733 1.15339e-08 -0.00320503)
(-0.00929252 1.49788e-08 -0.00488178)
(-0.00797351 6.71228e-09 -0.00591997)
(-0.0052827 -4.17995e-08 -0.00597576)
(-0.00289246 1.55806e-08 -0.00471996)
(-0.00548397 -1.10513e-06 0.0149161)
(-0.00548959 -5.07845e-07 0.00791591)
(-0.00357309 -2.46017e-07 0.000418003)
(0.000304652 -1.98592e-07 -0.00573431)
(0.00526094 -1.71603e-07 -0.00992726)
(0.0111818 -1.52743e-07 -0.0125704)
(0.0178122 -1.36057e-07 -0.0141304)
(0.0249034 -1.25445e-07 -0.0149506)
(0.0322799 -1.17839e-07 -0.0153044)
(0.0397956 -1.06294e-07 -0.0153593)
(0.0473463 -9.17647e-08 -0.0152225)
(0.0548576 -8.01131e-08 -0.0149632)
(0.0622766 -7.38295e-08 -0.0146258)
(0.0695662 -7.19879e-08 -0.0142394)
(0.0767003 -7.34043e-08 -0.0138232)
(0.0836607 -7.62056e-08 -0.0133897)
(0.0904349 -7.69186e-08 -0.0129471)
(0.0970145 -7.31039e-08 -0.0125007)
(0.103394 -6.5856e-08 -0.0120541)
(0.109569 -5.80133e-08 -0.0116095)
(0.115537 -5.06787e-08 -0.0111683)
(0.121299 -4.2834e-08 -0.0107315)
(0.126852 -3.38795e-08 -0.0102997)
(0.132198 -2.53209e-08 -0.00987319)
(0.137337 -1.94702e-08 -0.00945234)
(0.14227 -1.70593e-08 -0.0090374)
(0.146999 -1.66472e-08 -0.00862858)
(0.151526 -1.63084e-08 -0.00822613)
(0.155853 -1.55194e-08 -0.0078303)
(0.159981 -1.52082e-08 -0.00744135)
(0.163914 -1.62818e-08 -0.00705956)
(0.167655 -1.82245e-08 -0.00668522)
(0.171207 -1.92011e-08 -0.00631863)
(0.174572 -1.7524e-08 -0.00596009)
(0.177755 -1.29534e-08 -0.0056099)
(0.18076 -6.8857e-09 -0.00526831)
(0.18359 -1.35192e-09 -0.00493559)
(0.186249 2.28015e-09 -0.00461196)
(0.188742 3.9258e-09 -0.00429763)
(0.191073 4.44547e-09 -0.00399277)
(0.193247 4.82332e-09 -0.00369751)
(0.195268 5.43912e-09 -0.00341195)
(0.197141 5.98067e-09 -0.00313616)
(0.198871 5.8731e-09 -0.00287016)
(0.200463 4.80801e-09 -0.00261393)
(0.201921 3.10045e-09 -0.00236742)
(0.20325 1.51663e-09 -0.00213057)
(0.204456 8.76993e-10 -0.00190326)
(0.205542 1.6251e-09 -0.00168535)
(0.206513 3.61721e-09 -0.00147669)
(0.207375 6.22038e-09 -0.00127709)
(0.208132 8.64081e-09 -0.00108635)
(0.208787 1.02417e-08 -0.000904238)
(0.209346 1.079e-08 -0.000730523)
(0.209812 1.04254e-08 -0.000564952)
(0.21019 9.57827e-09 -0.000407262)
(0.210484 8.66262e-09 -0.000257168)
(0.210698 7.99634e-09 -0.000114367)
(0.210834 7.62703e-09 2.13908e-05)
(0.210898 7.45093e-09 0.000150256)
(0.210892 7.30434e-09 0.000272436)
(0.21082 7.03021e-09 0.00038824)
(0.210685 6.59332e-09 0.000497983)
(0.21049 6.05458e-09 0.00060195)
(0.210238 5.55202e-09 0.000700414)
(0.209932 5.24458e-09 0.000793638)
(0.209574 5.24362e-09 0.000881872)
(0.209168 5.61005e-09 0.000965361)
(0.208715 6.30867e-09 0.00104434)
(0.208218 7.26142e-09 0.00111903)
(0.20768 8.36741e-09 0.00118966)
(0.207102 9.5248e-09 0.00125644)
(0.206486 1.06603e-08 0.00131957)
(0.205834 1.17292e-08 0.00137926)
(0.205149 1.27228e-08 0.00143568)
(0.204431 1.36489e-08 0.00148904)
(0.203683 1.45008e-08 0.0015395)
(0.202905 1.52708e-08 0.00158723)
(0.2021 1.59352e-08 0.00163239)
(0.201268 1.64625e-08 0.00167514)
(0.200412 1.68203e-08 0.00171562)
(0.199531 1.69917e-08 0.00175396)
(0.198628 1.6966e-08 0.00179031)
(0.197703 1.67537e-08 0.00182479)
(0.196757 1.63635e-08 0.00185752)
(0.195792 1.58133e-08 0.0018886)
(0.194808 1.51252e-08 0.00191816)
(0.193806 1.42999e-08 0.00194629)
(0.192786 1.33586e-08 0.00197309)
(0.19175 1.23164e-08 0.00199866)
(0.190698 1.11904e-08 0.00202307)
(0.189631 1.00149e-08 0.00204642)
(0.188549 8.80897e-09 0.00206878)
(0.187453 7.63729e-09 0.00209022)
(0.186344 6.55033e-09 0.00211082)
(0.185221 5.62232e-09 0.00213063)
(0.184085 4.92655e-09 0.00214973)
(0.182938 4.5325e-09 0.00216816)
(0.181778 4.49919e-09 0.00218599)
(0.180606 4.85326e-09 0.00220327)
(0.179424 5.58996e-09 0.00222005)
(0.17823 6.66645e-09 0.00223638)
(0.177025 7.98184e-09 0.00225232)
(0.17581 9.42287e-09 0.00226792)
(0.174584 1.08392e-08 0.00228322)
(0.173348 1.20746e-08 0.00229829)
(0.172102 1.29893e-08 0.00231317)
(0.170845 1.34633e-08 0.00232791)
(0.169579 1.34205e-08 0.00234258)
(0.168303 1.28199e-08 0.00235721)
(0.167017 1.1691e-08 0.00237188)
(0.165721 1.01224e-08 0.00238664)
(0.164415 8.26738e-09 0.00240153)
(0.163099 6.3019e-09 0.00241662)
(0.161773 4.45445e-09 0.00243197)
(0.160436 2.9249e-09 0.00244763)
(0.159089 1.91218e-09 0.00246367)
(0.157731 1.53431e-09 0.00248013)
(0.156362 1.85793e-09 0.00249709)
(0.154982 2.8183e-09 0.0025146)
(0.153591 4.28312e-09 0.00253272)
(0.152187 6.03159e-09 0.00255151)
(0.150772 7.79909e-09 0.00257104)
(0.149343 9.31151e-09 0.00259137)
(0.147902 1.03547e-08 0.00261255)
(0.146447 1.07954e-08 0.00263466)
(0.144978 1.06507e-08 0.00265774)
(0.143494 1.00339e-08 0.00268187)
(0.141995 9.18587e-09 0.00270709)
(0.140481 8.36256e-09 0.00273348)
(0.138949 7.801e-09 0.00276108)
(0.137401 7.62396e-09 0.00278996)
(0.135835 7.80671e-09 0.00282015)
(0.134251 8.18362e-09 0.00285173)
(0.132647 8.48154e-09 0.00288475)
(0.131023 8.42348e-09 0.00291924)
(0.129379 7.84192e-09 0.00295527)
(0.127712 6.73783e-09 0.00299288)
(0.126024 5.30441e-09 0.00303213)
(0.124311 3.88051e-09 0.00307305)
(0.122575 2.82496e-09 0.00311571)
(0.120813 2.35857e-09 0.00316014)
(0.119026 2.50706e-09 0.0032064)
(0.117211 3.07623e-09 0.00325453)
(0.115368 3.73869e-09 0.00330459)
(0.113496 4.20793e-09 0.00335662)
(0.111593 4.35356e-09 0.00341067)
(0.10966 4.25362e-09 0.00346679)
(0.107694 4.08991e-09 0.00352503)
(0.105695 3.99853e-09 0.00358543)
(0.103661 3.90716e-09 0.00364805)
(0.101592 3.5607e-09 0.00371293)
(0.0994858 2.63174e-09 0.00378011)
(0.0973419 1.02985e-09 0.00384963)
(0.0951589 -9.68937e-10 0.00392152)
(0.0929358 -2.74025e-09 0.00399582)
(0.0906714 -3.67016e-09 0.00407253)
(0.0883644 -3.57403e-09 0.00415166)
(0.0860139 -2.87731e-09 0.00423321)
(0.0836187 -2.4014e-09 0.00431716)
(0.0811779 -2.76499e-09 0.00440345)
(0.0786903 -3.84529e-09 0.00449201)
(0.0761551 -4.78663e-09 0.00458275)
(0.0735715 -4.67717e-09 0.00467552)
(0.0709387 -3.38747e-09 0.00477013)
(0.0682563 -1.95977e-09 0.00486635)
(0.0655239 -1.80748e-09 0.00496387)
(0.0627412 -3.46647e-09 0.00506233)
(0.0599085 -5.76889e-09 0.00516127)
(0.057026 -6.63979e-09 0.00526014)
(0.0540946 -5.09406e-09 0.00535827)
(0.0511154 -2.44614e-09 0.00545484)
(0.0480901 -1.32015e-09 0.00554891)
(0.045021 -2.95345e-09 0.00563934)
(0.041911 -5.43671e-09 0.00572477)
(0.0387638 -5.57186e-09 0.0058036)
(0.0355842 -2.75071e-09 0.00587395)
(0.0323776 -3.36938e-10 0.00593358)
(0.0291512 -1.95501e-09 0.00597984)
(0.0259133 -6.57316e-09 0.00600961)
(0.0226738 -9.13541e-09 0.00601915)
(0.0194447 -7.34412e-09 0.00600399)
(0.0162404 -5.37769e-09 0.00595873)
(0.0130776 -7.69438e-09 0.0058765)
(0.009977 -1.12694e-08 0.00574945)
(0.00696068 -9.53326e-09 0.00556431)
(0.00405689 -3.57307e-09 0.00530833)
(0.00129685 -1.40866e-10 0.00497144)
(-0.00128476 1.0032e-09 0.00453724)
(-0.00363821 4.42779e-09 0.00398641)
(-0.00571809 3.75011e-09 0.0032937)
(-0.00746897 -8.04464e-09 0.00242982)
(-0.00883138 -1.54496e-08 0.0013622)
(-0.00974543 -2.1187e-09 6.16931e-05)
(-0.0101441 1.16249e-08 -0.00147161)
(-0.0099972 1.15303e-08 -0.00320492)
(-0.00929236 1.49689e-08 -0.00488171)
(-0.00797361 6.71201e-09 -0.00591999)
(-0.00528263 -4.18376e-08 -0.00597599)
(-0.00289239 1.55777e-08 -0.00472015)
(-0.0012303 -1.6484e-06 0.0194636)
(0.00171811 -4.16512e-07 0.00516673)
(0.00600206 -2.06184e-07 -0.00441843)
(0.0108448 -1.32938e-07 -0.0113002)
(0.0159691 -9.8755e-08 -0.0160601)
(0.0214572 -8.02363e-08 -0.0192237)
(0.0272907 -6.91052e-08 -0.0212173)
(0.0334148 -6.2328e-08 -0.0223721)
(0.0397565 -5.6218e-08 -0.0229453)
(0.0462362 -4.85422e-08 -0.023118)
(0.0527847 -4.09703e-08 -0.0230165)
(0.0593451 -3.59464e-08 -0.0227281)
(0.0658716 -3.3979e-08 -0.0223126)
(0.072329 -3.44044e-08 -0.0218115)
(0.0786898 -3.63185e-08 -0.0212532)
(0.0849331 -3.80651e-08 -0.0206573)
(0.0910431 -3.77643e-08 -0.0200374)
(0.0970077 -3.51939e-08 -0.0194027)
(0.102818 -3.17768e-08 -0.0187598)
(0.108466 -2.8562e-08 -0.018113)
(0.113948 -2.51858e-08 -0.0174656)
(0.119259 -2.10044e-08 -0.0168197)
(0.124396 -1.64452e-08 -0.016177)
(0.129359 -1.27649e-08 -0.0155385)
(0.134145 -1.07785e-08 -0.0149054)
(0.138753 -1.01726e-08 -0.0142785)
(0.143185 -9.99369e-09 -0.0136583)
(0.14744 -9.66247e-09 -0.0130457)
(0.151519 -9.42166e-09 -0.0124412)
(0.155423 -9.84618e-09 -0.0118456)
(0.159153 -1.10355e-08 -0.0112594)