/*--------------------------------*- C++ -*----------------------------------*\
  =========                 |
  \\      /  F ield         | OpenFOAM: The Open Source CFD Toolbox
   \\    /   O peration     | Website:  https://openfoam.org
    \\  /    A nd           | Version:  8
     \\/     M anipulation  |
\*---------------------------------------------------------------------------*/
FoamFile
{
    version     2.0;
    format      ascii;
    class       volScalarField;
    location    "4000";
    object      alphat;
}
// * * * * * * * * * * * * * * * * * * * * * * * * * * * * * * * * * * * * * //

dimensions      [1 -1 -1 0 0 0 0];

internalField   nonuniform List<scalar> 
46000
(
1.69063e-06
6.65467e-06
1.19359e-05
1.68152e-05
2.14137e-05
2.58549e-05
3.01939e-05
3.44441e-05
3.8629e-05
4.27659e-05
4.68684e-05
5.09482e-05
5.49808e-05
5.8983e-05
6.29587e-05
6.69086e-05
7.08318e-05
7.47266e-05
7.85909e-05
8.24217e-05
8.62159e-05
8.997e-05
9.36802e-05
9.73426e-05
0.000100953
0.000104507
0.000108001
0.00011143
0.00011479
0.000118076
0.000121285
0.000124412
0.000127453
0.000130403
0.000133261
0.00013602
0.000138679
0.000141234
0.000143681
0.000146018
0.000148243
0.000150352
0.000152343
0.000154216
0.000155967
0.000157596
0.000159101
0.000160481
0.000161737
0.000162867
0.000163871
0.00016475
0.000165504
0.000166134
0.000166641
0.000167025
0.000167289
0.000167434
0.000167462
0.000167375
0.000167177
0.000166871
0.000166462
0.000165948
0.000165332
0.000164617
0.000163806
0.000162902
0.000161908
0.000160829
0.000159667
0.000158427
0.000157111
0.000155725
0.000154271
0.000152753
0.000151177
0.000149544
0.000147859
0.000146127
0.00014435
0.000142533
0.000140678
0.000138791
0.000136874
0.000134931
0.000132965
0.00013098
0.000128978
0.000126964
0.00012494
0.000122908
0.000120873
0.000118835
0.000116799
0.000114766
0.000112739
0.00011072
0.000108711
0.000106714
0.000104731
0.000102763
0.000100813
9.88812e-05
9.69694e-05
9.50789e-05
9.32106e-05
9.13657e-05
8.9545e-05
8.77493e-05
8.59792e-05
8.42355e-05
8.25185e-05
8.08286e-05
7.91662e-05
7.75315e-05
7.59246e-05
7.43456e-05
7.27944e-05
7.12711e-05
6.97754e-05
6.83071e-05
6.68661e-05
6.54519e-05
6.40642e-05
6.27027e-05
6.13669e-05
6.00564e-05
5.87705e-05
5.75089e-05
5.62709e-05
5.50559e-05
5.38635e-05
5.26929e-05
5.15435e-05
5.04148e-05
4.93061e-05
4.82167e-05
4.71461e-05
4.60937e-05
4.50587e-05
4.40406e-05
4.30387e-05
4.20526e-05
4.10816e-05
4.01251e-05
3.91827e-05
3.82537e-05
3.73377e-05
3.64341e-05
3.55426e-05
3.46626e-05
3.37937e-05
3.29356e-05
3.20878e-05
3.125e-05
3.04219e-05
2.9603e-05
2.87932e-05
2.79922e-05
2.71997e-05
2.64154e-05
2.56392e-05
2.48707e-05
2.41099e-05
2.33566e-05
2.26117e-05
2.18741e-05
2.11432e-05
2.0419e-05
1.97012e-05
1.89895e-05
1.82839e-05
1.75843e-05
1.68903e-05
1.62018e-05
1.55187e-05
1.48406e-05
1.41675e-05
1.34989e-05
1.28347e-05
1.21744e-05
1.15177e-05
1.08641e-05
1.02131e-05
9.56406e-06
8.91625e-06
8.26933e-06
7.62322e-06
6.97596e-06
6.32594e-06
5.67137e-06
5.01004e-06
4.33911e-06
3.65489e-06
2.95248e-06
2.22564e-06
1.46882e-06
7.02405e-07
1.37126e-07
1.69198e-06
6.65761e-06
1.19384e-05
1.68164e-05
2.14141e-05
2.5855e-05
3.0194e-05
3.44442e-05
3.86291e-05
4.2766e-05
4.68685e-05
5.09483e-05
5.49809e-05
5.8983e-05
6.29588e-05
6.69086e-05
7.08318e-05
7.47266e-05
7.85909e-05
8.24217e-05
8.62159e-05
8.997e-05
9.36802e-05
9.73426e-05
0.000100953
0.000104507
0.000108001
0.00011143
0.00011479
0.000118076
0.000121285
0.000124412
0.000127452
0.000130403
0.00013326
0.00013602
0.000138679
0.000141234
0.000143681
0.000146018
0.000148243
0.000150352
0.000152343
0.000154215
0.000155967
0.000157595
0.0001591
0.000160481
0.000161737
0.000162867
0.000163871
0.00016475
0.000165504
0.000166134
0.000166641
0.000167025
0.000167289
0.000167434
0.000167462
0.000167375
0.000167177
0.000166871
0.000166461
0.000165948
0.000165332
0.000164617
0.000163806
0.000162902
0.000161908
0.000160829
0.000159667
0.000158426
0.000157111
0.000155724
0.00015427
0.000152753
0.000151176
0.000149544
0.000147859
0.000146127
0.00014435
0.000142532
0.000140678
0.000138791
0.000136874
0.000134931
0.000132965
0.00013098
0.000128978
0.000126964
0.000124939
0.000122908
0.000120872
0.000118835
0.000116799
0.000114766
0.000112739
0.00011072
0.000108711
0.000106714
0.000104731
0.000102763
0.000100813
9.8881e-05
9.69692e-05
9.50786e-05
9.32104e-05
9.13655e-05
8.95448e-05
8.7749e-05
8.5979e-05
8.42353e-05
8.25183e-05
8.08284e-05
7.9166e-05
7.75313e-05
7.59244e-05
7.43454e-05
7.27943e-05
7.12709e-05
6.97752e-05
6.83069e-05
6.68659e-05
6.54517e-05
6.40641e-05
6.27026e-05
6.13668e-05
6.00562e-05
5.87704e-05
5.75087e-05
5.62707e-05
5.50558e-05
5.38633e-05
5.26927e-05
5.15434e-05
5.04147e-05
4.9306e-05
4.82166e-05
4.7146e-05
4.60935e-05
4.50585e-05
4.40404e-05
4.30386e-05
4.20525e-05
4.10815e-05
4.0125e-05
3.91826e-05
3.82536e-05
3.73376e-05
3.6434e-05
3.55425e-05
3.46625e-05
3.37937e-05
3.29355e-05
3.20877e-05
3.12499e-05
3.04218e-05
2.9603e-05
2.87932e-05
2.79921e-05
2.71996e-05
2.64153e-05
2.56391e-05
2.48707e-05
2.41098e-05
2.33565e-05
2.26116e-05
2.1874e-05
2.11432e-05
2.0419e-05
1.97011e-05
1.89895e-05
1.82839e-05
1.75842e-05
1.68902e-05
1.62018e-05
1.55186e-05
1.48406e-05
1.41674e-05
1.34989e-05
1.28346e-05
1.21744e-05
1.15177e-05
1.08641e-05
1.02131e-05
9.56403e-06
8.91623e-06
8.26932e-06
7.62321e-06
6.97595e-06
6.32593e-06
5.67136e-06
5.01003e-06
4.33911e-06
3.65488e-06
2.95248e-06
2.22565e-06
1.46883e-06
7.02406e-07
1.37126e-07
6.13164e-06
5.5818e-05
9.42416e-05
0.000120917
0.000141624
0.000158825
0.000173651
0.000186934
0.000199122
0.000210488
0.0002212
0.000231387
0.00024115
0.000250547
0.00025962
0.000268402
0.000276921
0.000285196
0.000293244
0.000301076
0.000308702
0.000316128
0.000323361
0.000330403
0.000337257
0.000343925
0.000350408
0.000356705
0.000362817
0.000368744
0.000374483
0.000380034
0.000385395
0.000390565
0.000395543
0.000400327
0.000404915
0.000409307
0.0004135
0.000417493
0.000421286
0.000424878
0.000428267
0.000431453
0.000434436
0.000437216
0.000439793
0.000442166
0.000444337
0.000446307
0.000448076
0.000449645
0.000451016
0.000452191
0.000453172
0.00045396
0.000454558
0.000454969
0.000455195
0.000455239
0.000455104
0.000454791
0.000454304
0.000453648
0.000452829
0.000451849
0.000450715
0.000449429
0.000447998
0.000446425
0.000444715
0.000442873
0.000440903
0.000438812
0.000436603
0.000434282
0.000431853
0.000429323
0.000426695
0.000423975
0.000421168
0.000418279
0.000415313
0.000412275
0.00040917
0.000406002
0.000402777
0.000399499
0.000396173
0.000392803
0.000389393
0.000385948
0.000382473
0.00037897
0.000375445
0.000371901
0.000368341
0.00036477
0.00036119
0.000357605
0.000354019
0.000350433
0.000346852
0.000343277
0.000339711
0.000336157
0.000332617
0.000329094
0.000325588
0.000322101
0.000318637
0.000315195
0.000311778
0.000308386
0.000305021
0.000301684
0.000298375
0.000295095
0.000291844
0.000288624
0.000285435
0.000282276
0.000279147
0.00027605
0.000272983
0.000269946
0.000266939
0.000263962
0.000261014
0.000258094
0.000255202
0.000252337
0.000249499
0.000246686
0.000243897
0.000241132
0.00023839
0.00023567
0.000232969
0.000230289
0.000227626
0.000224981
0.000222352
0.000219738
0.000217137
0.000214549
0.000211972
0.000209405
0.000206847
0.000204296
0.000201752
0.000199213
0.000196679
0.000194147
0.000191617
0.000189087
0.000186557
0.000184025
0.00018149
0.000178951
0.000176407
0.000173856
0.000171297
0.000168727
0.000166146
0.00016355
0.000160933
0.000158301
0.000155653
0.000152986
0.000150298
0.000147588
0.000144854
0.000142092
0.0001393
0.000136474
0.000133612
0.000130708
0.000127759
0.000124759
0.000121702
0.000118581
0.000115387
0.000112109
0.000108737
0.000105255
0.000101643
9.78715e-05
9.391e-05
8.97347e-05
8.52998e-05
8.05446e-05
7.53851e-05
6.97006e-05
6.33074e-05
5.59047e-05
4.69457e-05
3.52865e-05
1.82834e-05
6.38497e-07
6.12967e-06
5.58173e-05
9.42443e-05
0.00012092
0.000141627
0.000158828
0.000173654
0.000186937
0.000199125
0.000210491
0.000221203
0.00023139
0.000241154
0.00025055
0.000259623
0.000268405
0.000276924
0.0002852
0.000293247
0.00030108
0.000308705
0.000316132
0.000323364
0.000330406
0.000337261
0.000343929
0.000350412
0.000356709
0.000362822
0.000368748
0.000374487
0.000380038
0.000385399
0.00039057
0.000395548
0.000400332
0.00040492
0.000409311
0.000413504
0.000417498
0.000421291
0.000424882
0.000428271
0.000431458
0.000434441
0.000437221
0.000439797
0.000442171
0.000444342
0.000446312
0.00044808
0.00044965
0.000451021
0.000452196
0.000453177
0.000453965
0.000454563
0.000454974
0.0004552
0.000455244
0.000455108
0.000454795
0.000454309
0.000453653
0.000452833
0.000451854
0.000450719
0.000449434
0.000448003
0.000446429
0.000444719
0.000442877
0.000440908
0.000438816
0.000436607
0.000434286
0.000431858
0.000429327
0.000426699
0.000423979
0.000421172
0.000418283
0.000415317
0.000412279
0.000409174
0.000406006
0.000402781
0.000399503
0.000396177
0.000392806
0.000389397
0.000385952
0.000382476
0.000378974
0.000375448
0.000371904
0.000368344
0.000364773
0.000361193
0.000357609
0.000354022
0.000350436
0.000346855
0.00034328
0.000339714
0.00033616
0.00033262
0.000329096
0.00032559
0.000322104
0.000318639
0.000315198
0.00031178
0.000308389
0.000305023
0.000301686
0.000298377
0.000295097
0.000291847
0.000288627
0.000285437
0.000282278
0.00027915
0.000276052
0.000272985
0.000269948
0.000266941
0.000263964
0.000261015
0.000258096
0.000255204
0.000252339
0.0002495
0.000246687
0.000243899
0.000241134
0.000238392
0.000235671
0.000232971
0.00023029
0.000227628
0.000224983
0.000222354
0.000219739
0.000217138
0.00021455
0.000211973
0.000209406
0.000206848
0.000204297
0.000201753
0.000199215
0.00019668
0.000194148
0.000191618
0.000189088
0.000186558
0.000184026
0.000181491
0.000178952
0.000176408
0.000173857
0.000171297
0.000168728
0.000166147
0.000163551
0.000160934
0.000158302
0.000155654
0.000152987
0.000150299
0.000147589
0.000144854
0.000142092
0.0001393
0.000136475
0.000133612
0.000130709
0.00012776
0.00012476
0.000121703
0.000118581
0.000115387
0.00011211
0.000108738
0.000105256
0.000101643
9.7872e-05
9.39104e-05
8.97351e-05
8.53002e-05
8.05449e-05
7.53854e-05
6.97009e-05
6.33077e-05
5.59049e-05
4.69459e-05
3.52866e-05
1.82833e-05
6.38498e-07
1.12469e-05
9.14616e-05
0.000168248
0.000225798
0.000270526
0.000306777
0.000337271
0.000363742
0.000387279
0.000408608
0.000428221
0.000446462
0.000463582
0.000479757
0.000495118
0.000509765
0.000523778
0.000537218
0.000550136
0.000562572
0.000574558
0.00058612
0.000597281
0.000608058
0.000618467
0.00062852
0.000638227
0.000647596
0.000656635
0.000665351
0.000673747
0.000681829
0.0006896
0.000697063
0.000704221
0.000711077
0.000717632
0.000723889
0.000729849
0.000735514
0.000740886
0.000745967
0.000750757
0.00075526
0.000759476
0.000763408
0.000767058
0.000770427
0.000773518
0.000776334
0.000778877
0.000781149
0.000783154
0.000784895
0.000786374
0.000787595
0.000788562
0.000789277
0.000789744
0.000789966
0.000789946
0.000789687
0.000789192
0.000788468
0.000787523
0.000786363
0.000784993
0.000783419
0.000781647
0.000779683
0.000777531
0.000775199
0.000772692
0.000770015
0.000767174
0.000764176
0.000761027
0.000757732
0.000754297
0.000750728
0.000747032
0.000743214
0.000739281
0.000735238
0.000731091
0.000726846
0.000722508
0.000718085
0.00071358
0.000709
0.00070435
0.000699636
0.000694862
0.000690035
0.000685158
0.000680237
0.000675278
0.000670283
0.000665259
0.000660208
0.000655137
0.000650047
0.000644945
0.000639832
0.000634713
0.000629591
0.00062447
0.000619352
0.00061424
0.000609137
0.000604045
0.000598967
0.000593905
0.000588861
0.000583836
0.000578832
0.000573851
0.000568894
0.000563961
0.000559055
0.000554174
0.000549321
0.000544494
0.000539695
0.000534924
0.000530181
0.000525464
0.000520775
0.000516112
0.000511474
0.000506862
0.000502274
0.00049771
0.000493167
0.000488646
0.000484144
0.000479661
0.000475195
0.000470744
0.000466308
0.000461884
0.000457471
0.000453067
0.000448671
0.000444281
0.000439894
0.00043551
0.000431126
0.00042674
0.000422351
0.000417957
0.000413555
0.000409144
0.000404722
0.000400286
0.000395835
0.000391367
0.000386879
0.000382368
0.000377834
0.000373273
0.000368682
0.000364058
0.000359397
0.000354695
0.000349947
0.000345146
0.000340294
0.000335389
0.000330427
0.000325404
0.000320315
0.000315153
0.000309912
0.000304585
0.000299164
0.000293638
0.000287997
0.000282228
0.000276316
0.000270246
0.000263997
0.000257545
0.000250862
0.000243915
0.000236661
0.000229047
0.000221006
0.00021245
0.000203292
0.000193404
0.000182614
0.000170682
0.000157266
0.000141858
0.000123658
0.000101336
7.25845e-05
3.42427e-05
1.34262e-06
1.12462e-05
9.14623e-05
0.000168252
0.000225803
0.000270531
0.000306782
0.000337277
0.000363748
0.000387285
0.000408614
0.000428227
0.000446468
0.000463588
0.000479762
0.000495123
0.00050977
0.000523783
0.000537224
0.000550142
0.000562577
0.000574563
0.000586126
0.000597287
0.000608064
0.000618473
0.000628526
0.000638233
0.000647602
0.000656641
0.000665357
0.000673753
0.000681835
0.000689606
0.000697069
0.000704227
0.000711083
0.000717638
0.000723895
0.000729855
0.00073552
0.000740892
0.000745973
0.000750764
0.000755266
0.000759483
0.000763414
0.000767064
0.000770433
0.000773525
0.00077634
0.000778883
0.000781156
0.000783161
0.000784901
0.00078638
0.000787601
0.000788568
0.000789283
0.00078975
0.000789972
0.000789952
0.000789693
0.000789198
0.000788474
0.000787529
0.000786368
0.000784998
0.000783425
0.000781653
0.000779688
0.000777537
0.000775204
0.000772697
0.00077002
0.000767179
0.000764181
0.000761032
0.000757736
0.000754301
0.000750733
0.000747037
0.000743219
0.000739285
0.000735242
0.000731095
0.00072685
0.000722513
0.000718089
0.000713584
0.000709004
0.000704354
0.000699639
0.000694866
0.000690038
0.000685162
0.000680241
0.000675281
0.000670287
0.000665262
0.000660212
0.00065514
0.00065005
0.000644948
0.000639835
0.000634716
0.000629594
0.000624472
0.000619354
0.000614242
0.000609139
0.000604048
0.00059897
0.000593907
0.000588863
0.000583838
0.000578835
0.000573853
0.000568896
0.000563963
0.000559056
0.000554176
0.000549322
0.000544496
0.000539697
0.000534926
0.000530182
0.000525466
0.000520776
0.000516113
0.000511476
0.000506864
0.000502276
0.000497711
0.000493168
0.000488647
0.000484145
0.000479662
0.000475196
0.000470745
0.000466309
0.000461885
0.000457472
0.000453068
0.000448672
0.000444281
0.000439895
0.00043551
0.000431126
0.000426741
0.000422352
0.000417957
0.000413556
0.000409145
0.000404722
0.000400287
0.000395836
0.000391367
0.000386879
0.000382369
0.000377834
0.000373273
0.000368682
0.000364058
0.000359397
0.000354696
0.000349947
0.000345146
0.000340294
0.000335389
0.000330427
0.000325404
0.000320315
0.000315153
0.000309912
0.000304585
0.000299164
0.000293638
0.000287997
0.000282228
0.000276316
0.000270246
0.000263997
0.000257545
0.000250862
0.000243915
0.000236661
0.000229047
0.000221006
0.000212449
0.000203292
0.000193404
0.000182614
0.000170682
0.000157266
0.000141858
0.000123658
0.000101336
7.25846e-05
3.42426e-05
1.34262e-06
1.61167e-05
0.000116929
0.000223138
0.000308985
0.000378236
0.000435304
0.00048355
0.000525297
0.000562143
0.000595205
0.000625279
0.000652941
0.000678616
0.000702621
0.000725196
0.000746526
0.000766757
0.000786006
0.000804367
0.000821915
0.000838715
0.000854819
0.000870269
0.000885103
0.000899351
0.000913041
0.000926195
0.000938833
0.000950972
0.000962626
0.00097381
0.000984535
0.000994811
0.00100465
0.00101405
0.00102303
0.0010316
0.00103975
0.0010475
0.00105486
0.00106182
0.00106839
0.00107458
0.00108039
0.00108583
0.00109089
0.0010956
0.00109994
0.00110393
0.00110757
0.00111087
0.00111382
0.00111643
0.00111872
0.00112067
0.0011223
0.00112362
0.00112462
0.00112531
0.0011257
0.00112579
0.00112558
0.00112508
0.0011243
0.00112324
0.00112191
0.00112032
0.00111848
0.00111639
0.00111406
0.0011115
0.00110871
0.0011057
0.00110248
0.00109905
0.00109542
0.0010916
0.00108759
0.0010834
0.00107904
0.00107452
0.00106984
0.001065
0.00106002
0.00105491
0.00104966
0.00104428
0.00103879
0.00103319
0.00102748
0.00102167
0.00101577
0.00100978
0.00100371
0.000997573
0.000991362
0.000985089
0.000978759
0.000972377
0.000965948
0.000959477
0.00095297
0.000946431
0.000939865
0.000933276
0.000926669
0.000920046
0.000913413
0.000906772
0.000900128
0.000893483
0.000886839
0.000880201
0.000873571
0.00086695
0.000860341
0.000853745
0.000847165
0.000840602
0.000834056
0.00082753
0.000821023
0.000814537
0.000808071
0.000801627
0.000795203
0.0007888
0.000782417
0.000776055
0.000769711
0.000763386
0.000757078
0.000750786
0.000744508
0.000738245
0.000731993
0.000725752
0.000719519
0.000713292
0.000707071
0.000700852
0.000694634
0.000688415
0.000682191
0.000675962
0.000669724
0.000663476
0.000657214
0.000650937
0.000644641
0.000638325
0.000631984
0.000625618
0.000619222
0.000612794
0.000606331
0.000599829
0.000593286
0.000586698
0.000580062
0.000573372
0.000566625
0.000559816
0.000552938
0.000545986
0.000538953
0.000531829
0.000524616
0.000517305
0.000509892
0.000502367
0.000494723
0.000486949
0.000479034
0.000470964
0.000462724
0.000454296
0.000445663
0.0004368
0.000427681
0.000418278
0.000408552
0.000398463
0.00038796
0.000376982
0.000365456
0.000353289
0.000340369
0.000326552
0.000311669
0.000295504
0.000277765
0.000258057
0.000235836
0.000210329
0.000180404
0.000144378
9.98428e-05
4.51493e-05
2.04595e-06
1.61169e-05
0.000116931
0.000223143
0.000308991
0.000378243
0.000435312
0.000483558
0.000525305
0.000562151
0.000595213
0.000625287
0.000652949
0.000678624
0.000702629
0.000725204
0.000746534
0.000766765
0.000786014
0.000804374
0.000821923
0.000838723
0.000854827
0.000870277
0.00088511
0.000899359
0.000913049
0.000926203
0.00093884
0.000950979
0.000962634
0.000973818
0.000984542
0.000994818
0.00100465
0.00101406
0.00102304
0.00103161
0.00103976
0.00104751
0.00105486
0.00106182
0.0010684
0.00107459
0.0010804
0.00108583
0.0010909
0.00109561
0.00109995
0.00110394
0.00110758
0.00111087
0.00111382
0.00111644
0.00111872
0.00112068
0.00112231
0.00112363
0.00112463
0.00112532
0.00112571
0.0011258
0.00112559
0.00112509
0.0011243
0.00112324
0.00112191
0.00112033
0.00111848
0.00111639
0.00111407
0.0011115
0.00110871
0.0011057
0.00110248
0.00109905
0.00109542
0.0010916
0.00108759
0.00108341
0.00107905
0.00107452
0.00106984
0.00106501
0.00106003
0.00105491
0.00104966
0.00104429
0.00103879
0.00103319
0.00102748
0.00102167
0.00101577
0.00100979
0.00100372
0.000997576
0.000991365
0.000985092
0.000978762
0.000972379
0.00096595
0.00095948
0.000952973
0.000946434
0.000939868
0.000933279
0.000926671
0.000920048
0.000913415
0.000906774
0.00090013
0.000893484
0.000886841
0.000880203
0.000873572
0.000866951
0.000860342
0.000853747
0.000847166
0.000840603
0.000834058
0.000827531
0.000821024
0.000814538
0.000808072
0.000801628
0.000795204
0.000788801
0.000782418
0.000776055
0.000769712
0.000763386
0.000757078
0.000750786
0.000744509
0.000738245
0.000731993
0.000725752
0.000719519
0.000713293
0.000707071
0.000700852
0.000694634
0.000688415
0.000682191
0.000675962
0.000669724
0.000663476
0.000657214
0.000650937
0.000644641
0.000638324
0.000631984
0.000625618
0.000619222
0.000612794
0.00060633
0.000599829
0.000593286
0.000586698
0.000580061
0.000573372
0.000566625
0.000559815
0.000552938
0.000545986
0.000538952
0.000531829
0.000524615
0.000517305
0.000509891
0.000502367
0.000494723
0.000486949
0.000479033
0.000470963
0.000462723
0.000454296
0.000445662
0.000436799
0.000427681
0.000418277
0.000408552
0.000398463
0.00038796
0.000376982
0.000365455
0.000353289
0.000340368
0.000326552
0.000311669
0.000295504
0.000277765
0.000258057
0.000235836
0.000210329
0.000180404
0.000144378
9.98429e-05
4.51491e-05
2.04596e-06
2.08089e-05
0.000137485
0.000266572
0.000376361
0.000467873
0.000544917
0.00061084
0.000668195
0.000718869
0.000764257
0.000805394
0.000843055
0.000877827
0.000910159
0.000940397
0.000968815
0.000995628
0.00102101
0.00104511
0.00106803
0.00108988
0.00111073
0.00113065
0.0011497
0.00116793
0.00118538
0.00120209
0.00121809
0.0012334
0.00124806
0.00126209
0.0012755
0.00128831
0.00130055
0.00131222
0.00132333
0.00133391
0.00134396
0.00135349
0.00136251
0.00137104
0.00137908
0.00138664
0.00139373
0.00140035
0.00140652
0.00141225
0.00141753
0.00142238
0.0014268
0.00143081
0.0014344
0.00143758
0.00144037
0.00144277
0.00144478
0.00144641
0.00144766
0.00144855
0.00144908
0.00144926
0.00144908
0.00144856
0.0014477
0.00144652
0.00144502
0.00144321
0.00144111
0.00143871
0.00143602
0.00143306
0.00142983
0.00142634
0.00142259
0.0014186
0.00141437
0.00140991
0.00140523
0.00140033
0.00139523
0.00138992
0.00138442
0.00137874
0.00137288
0.00136685
0.00136066
0.00135431
0.00134782
0.00134119
0.00133442
0.00132753
0.00132052
0.0013134
0.00130618
0.00129886
0.00129144
0.00128394
0.00127637
0.00126872
0.001261
0.00125323
0.0012454
0.00123752
0.00122959
0.00122163
0.00121364
0.00120561
0.00119756
0.00118949
0.0011814
0.0011733
0.00116518
0.00115707
0.00114894
0.00114082
0.0011327
0.00112458
0.00111647
0.00110837
0.00110027
0.00109219
0.00108412
0.00107605
0.001068
0.00105997
0.00105194
0.00104393
0.00103593
0.00102794
0.00101996
0.00101199
0.00100403
0.000996071
0.000988121
0.000980175
0.00097223
0.000964285
0.000956338
0.000948386
0.000940427
0.000932459
0.000924479
0.000916484
0.000908472
0.00090044
0.000892385
0.000884304
0.000876194
0.000868051
0.000859873
0.000851657
0.000843398
0.000835093
0.000826739
0.000818331
0.000809866
0.00080134
0.000792747
0.000784084
0.000775345
0.000766524
0.000757615
0.000748611
0.000739505
0.000730288
0.000720952
0.000711487
0.000701886
0.000692142
0.000682244
0.00067218
0.000661937
0.0006515
0.000640851
0.000629972
0.000618839
0.000607428
0.000595709
0.000583649
0.000571208
0.000558342
0.000544998
0.000531113
0.000516614
0.000501413
0.000485403
0.000468455
0.000450409
0.00043107
0.000410193
0.000387482
0.000362542
0.00033486
0.000303747
0.000268275
0.000227172
0.000178725
0.000120888
5.36211e-05
2.73326e-06
2.08092e-05
0.000137488
0.000266577
0.000376369
0.000467881
0.000544927
0.000610851
0.000668205
0.00071888
0.000764268
0.000805405
0.000843066
0.000877838
0.000910169
0.000940407
0.000968825
0.000995638
0.00102102
0.00104512
0.00106804
0.00108989
0.00111074
0.00113066
0.00114971
0.00116794
0.00118539
0.0012021
0.0012181
0.00123341
0.00124807
0.0012621
0.00127551
0.00128832
0.00130056
0.00131223
0.00132334
0.00133392
0.00134397
0.0013535
0.00136252
0.00137105
0.00137909
0.00138665
0.00139374
0.00140036
0.00140653
0.00141225
0.00141754
0.00142239
0.00142681
0.00143081
0.00143441
0.00143759
0.00144038
0.00144277
0.00144478
0.00144641
0.00144767
0.00144856
0.00144909
0.00144926
0.00144909
0.00144857
0.00144771
0.00144653
0.00144503
0.00144322
0.00144111
0.00143871
0.00143603
0.00143307
0.00142984
0.00142634
0.0014226
0.00141861
0.00141438
0.00140992
0.00140523
0.00140034
0.00139523
0.00138992
0.00138443
0.00137874
0.00137288
0.00136686
0.00136066
0.00135432
0.00134783
0.00134119
0.00133443
0.00132754
0.00132053
0.00131341
0.00130618
0.00129886
0.00129145
0.00128395
0.00127637
0.00126872
0.00126101
0.00125323
0.0012454
0.00123752
0.0012296
0.00122163
0.00121364
0.00120561
0.00119756
0.00118949
0.0011814
0.0011733
0.00116519
0.00115707
0.00114895
0.00114082
0.0011327
0.00112459
0.00111647
0.00110837
0.00110028
0.00109219
0.00108412
0.00107605
0.001068
0.00105997
0.00105194
0.00104393
0.00103593
0.00102794
0.00101996
0.00101199
0.00100403
0.000996072
0.000988122
0.000980175
0.00097223
0.000964285
0.000956338
0.000948386
0.000940427
0.000932459
0.000924478
0.000916484
0.000908472
0.000900439
0.000892384
0.000884303
0.000876193
0.000868051
0.000859873
0.000851656
0.000843397
0.000835093
0.000826738
0.000818331
0.000809866
0.000801339
0.000792746
0.000784083
0.000775344
0.000766523
0.000757614
0.00074861
0.000739504
0.000730287
0.000720951
0.000711486
0.000701885
0.000692141
0.000682243
0.000672179
0.000661936
0.000651499
0.00064085
0.000629971
0.000618838
0.000607427
0.000595708
0.000583648
0.000571207
0.000558341
0.000544997
0.000531112
0.000516613
0.000501412
0.000485403
0.000468454
0.000450409
0.000431069
0.000410192
0.000387481
0.000362542
0.00033486
0.000303747
0.000268275
0.000227173
0.000178725
0.000120888
5.36209e-05
2.73326e-06
2.54087e-05
0.000155079
0.000302646
0.000432728
0.000543991
0.000639392
0.000722016
0.000794437
0.000858678
0.000916305
0.000968523
0.00101626
0.00106024
0.00110102
0.00113905
0.00117468
0.00120819
0.00123982
0.00126974
0.00129813
0.0013251
0.00135077
0.00137523
0.00139855
0.0014208
0.00144205
0.00146235
0.00148173
0.00150024
0.00151792
0.00153479
0.00155089
0.00156624
0.00158086
0.00159478
0.00160801
0.00162058
0.0016325
0.00164378
0.00165445
0.00166451
0.00167399
0.00168288
0.00169121
0.00169898
0.00170622
0.00171292
0.0017191
0.00172476
0.00172993
0.0017346
0.0017388
0.00174251
0.00174577
0.00174856
0.00175091
0.00175282
0.0017543
0.00175536
0.001756
0.00175624
0.00175607
0.00175551
0.00175456
0.00175325
0.00175156
0.00174953
0.00174715
0.00174444
0.0017414
0.00173804
0.00173438
0.00173041
0.00172616
0.00172162
0.00171681
0.00171173
0.0017064
0.00170082
0.001695
0.00168895
0.00168267
0.00167618
0.00166949
0.00166259
0.00165551
0.00164825
0.00164081
0.00163321
0.00162545
0.00161754
0.00160949
0.0016013
0.00159299
0.00158456
0.00157602
0.00156737
0.00155862
0.00154979
0.00154087
0.00153187
0.00152281
0.00151367
0.00150448
0.00149524
0.00148594
0.0014766
0.00146723
0.00145782
0.00144838
0.00143892
0.00142944
0.00141993
0.00141042
0.00140089
0.00139136
0.00138182
0.00137227
0.00136272
0.00135318
0.00134363
0.00133408
0.00132454
0.001315
0.00130547
0.00129594
0.00128641
0.00127688
0.00126736
0.00125783
0.00124831
0.00123878
0.00122925
0.00121972
0.00121018
0.00120063
0.00119106
0.00118148
0.00117189
0.00116227
0.00115264
0.00114297
0.00113328
0.00112356
0.0011138
0.001104
0.00109416
0.00108428
0.00107434
0.00106435
0.0010543
0.00104419
0.00103401
0.00102376
0.00101344
0.00100303
0.000992543
0.00098196
0.000971278
0.000960491
0.000949592
0.000938573
0.000927425
0.000916138
0.000904703
0.000893109
0.000881344
0.000869397
0.000857256
0.000844908
0.000832336
0.000819522
0.000806447
0.000793086
0.000779414
0.000765401
0.000751012
0.00073621
0.000720949
0.000705178
0.000688837
0.000671855
0.000654151
0.000635629
0.000616173
0.000595648
0.000573887
0.00055069
0.000525814
0.000498955
0.000469745
0.000437718
0.000402273
0.000362638
0.000317812
0.000266507
0.000207132
0.000138112
6.07204e-05
3.40959e-06
2.54089e-05
0.000155082
0.000302652
0.000432735
0.000544
0.000639403
0.000722028
0.000794449
0.000858691
0.000916318
0.000968536
0.00101627
0.00106025
0.00110103
0.00113906
0.00117469
0.0012082
0.00123983
0.00126976
0.00129814
0.00132511
0.00135078
0.00137524
0.00139856
0.00142082
0.00144207
0.00146236
0.00148174
0.00150026
0.00151793
0.0015348
0.0015509
0.00156625
0.00158087
0.00159479
0.00160802
0.00162059
0.00163251
0.00164379
0.00165446
0.00166452
0.001674
0.00168289
0.00169122
0.00169899
0.00170623
0.00171293
0.00171911
0.00172477
0.00172994
0.00173461
0.0017388
0.00174252
0.00174578
0.00174857
0.00175092
0.00175283
0.00175431
0.00175537
0.00175601
0.00175624
0.00175608
0.00175551
0.00175457
0.00175325
0.00175157
0.00174954
0.00174716
0.00174445
0.00174141
0.00173805
0.00173438
0.00173042
0.00172617
0.00172163
0.00171682
0.00171174
0.00170641
0.00170083
0.001695
0.00168895
0.00168268
0.00167619
0.00166949
0.0016626
0.00165552
0.00164825
0.00164081
0.00163321
0.00162545
0.00161754
0.00160949
0.0016013
0.00159299
0.00158456
0.00157602
0.00156737
0.00155863
0.00154979
0.00154087
0.00153188
0.00152281
0.00151368
0.00150448
0.00149524
0.00148594
0.00147661
0.00146723
0.00145782
0.00144838
0.00143892
0.00142944
0.00141994
0.00141042
0.00140089
0.00139136
0.00138182
0.00137227
0.00136272
0.00135318
0.00134363
0.00133409
0.00132454
0.00131501
0.00130547
0.00129594
0.00128641
0.00127688
0.00126736
0.00125784
0.00124831
0.00123878
0.00122926
0.00121972
0.00121018
0.00120063
0.00119106
0.00118148
0.00117189
0.00116227
0.00115264
0.00114297
0.00113328
0.00112356
0.0011138
0.001104
0.00109416
0.00108427
0.00107434
0.00106435
0.0010543
0.00104419
0.00103401
0.00102376
0.00101344
0.00100303
0.000992543
0.000981959
0.000971277
0.000960491
0.000949591
0.000938572
0.000927424
0.000916137
0.000904703
0.000893109
0.000881343
0.000869396
0.000857255
0.000844907
0.000832335
0.000819521
0.000806446
0.000793085
0.000779413
0.0007654
0.000751011
0.000736209
0.000720949
0.000705177
0.000688836
0.000671854
0.00065415
0.000635628
0.000616173
0.000595647
0.000573886
0.00055069
0.000525813
0.000498954
0.000469745
0.000437718
0.000402273
0.000362638
0.000317812
0.000266507
0.000207132
0.000138113
6.07202e-05
3.40961e-06
2.99365e-05
0.000170654
0.000333795
0.000481307
0.000610021
0.000722036
0.00082009
0.00090667
0.000983838
0.00105325
0.00111624
0.00117383
0.00122685
0.00127597
0.00132171
0.00136449
0.00140465
0.00144248
0.00147821
0.00151204
0.00154411
0.00157458
0.00160354
0.00163112
0.00165738
0.00168241
0.00170627
0.00172901
0.0017507
0.00177137
0.00179106
0.00180982
0.00182768
0.00184466
0.0018608
0.00187611
0.00189064
0.00190439
0.0019174
0.00192967
0.00194123
0.0019521
0.00196229
0.00197182
0.00198071
0.00198896
0.0019966
0.00200364
0.00201008
0.00201595
0.00202126
0.00202601
0.00203022
0.00203391
0.00203707
0.00203973
0.00204188
0.00204356
0.00204475
0.00204548
0.00204574
0.00204556
0.00204494
0.00204389
0.00204242
0.00204054
0.00203827
0.00203561
0.00203258
0.00202918
0.00202543
0.00202133
0.0020169
0.00201214
0.00200707
0.00200168
0.00199601
0.00199004
0.0019838
0.00197728
0.00197051
0.00196348
0.00195622
0.00194872
0.001941
0.00193306
0.00192492
0.00191658
0.00190805
0.00189934
0.00189046
0.00188142
0.00187223
0.00186288
0.00185341
0.0018438
0.00183406
0.00182422
0.00181426
0.00180421
0.00179406
0.00178383
0.00177352
0.00176313
0.00175268
0.00174217
0.0017316
0.00172098
0.00171032
0.00169962
0.00168888
0.00167811
0.00166731
0.00165649
0.00164565
0.00163479
0.00162391
0.00161302
0.00160213
0.00159122
0.0015803
0.00156938
0.00155845
0.00154752
0.00153658
0.00152564
0.00151469