/*--------------------------------*- C++ -*----------------------------------*\
  =========                 |
  \\      /  F ield         | OpenFOAM: The Open Source CFD Toolbox
   \\    /   O peration     | Website:  https://openfoam.org
    \\  /    A nd           | Version:  8
     \\/     M anipulation  |
\*---------------------------------------------------------------------------*/
FoamFile
{
    version     2.0;
    format      ascii;
    class       volScalarField;
    location    "4000";
    object      epsilon;
}
// * * * * * * * * * * * * * * * * * * * * * * * * * * * * * * * * * * * * * //

dimensions      [0 2 -3 0 0 0 0];

internalField   nonuniform List<scalar> 
46000
(
30.6059
108.863
194.851
274.088
348.654
420.594
490.82
559.558
627.194
694.016
760.248
826.08
891.122
955.647
1019.72
1083.36
1146.54
1209.25
1271.45
1333.09
1394.13
1454.51
1514.17
1573.04
1631.07
1688.19
1744.32
1799.4
1853.37
1906.14
1957.65
2007.85
2056.65
2104.01
2149.85
2194.12
2236.77
2277.74
2316.98
2354.45
2390.11
2423.91
2455.82
2485.82
2513.86
2539.94
2564.04
2586.13
2606.22
2624.29
2640.34
2654.38
2666.41
2676.45
2684.51
2690.62
2694.78
2697.04
2697.42
2695.96
2692.71
2687.74
2681.09
2672.78
2662.84
2651.3
2638.22
2623.65
2607.64
2590.26
2571.56
2551.59
2530.43
2508.12
2484.74
2460.33
2434.98
2408.72
2381.64
2353.79
2325.23
2296.01
2266.21
2235.88
2205.07
2173.84
2142.25
2110.35
2078.19
2045.82
2013.29
1980.65
1947.94
1915.2
1882.48
1849.82
1817.25
1784.81
1752.52
1720.44
1688.57
1656.96
1625.62
1594.58
1563.86
1533.47
1503.45
1473.81
1444.55
1415.69
1387.24
1359.22
1331.62
1304.46
1277.74
1251.47
1225.64
1200.26
1175.32
1150.84
1126.79
1103.19
1080.02
1057.28
1034.97
1013.08
991.603
970.529
949.852
929.562
909.652
890.112
870.932
852.103
833.614
815.457
797.62
780.093
762.867
745.931
729.275
712.889
696.764
680.89
665.258
649.859
634.683
619.723
604.97
590.416
576.053
561.875
547.874
534.044
520.378
506.872
493.518
480.313
467.251
454.327
441.539
428.882
416.351
403.945
391.657
379.489
367.454
355.534
343.72
332.011
320.402
308.889
297.472
286.147
274.912
263.763
252.696
241.71
230.799
219.959
209.186
198.474
187.816
177.205
166.633
156.089
145.561
135.043
124.534
114.002
103.421
92.7604
81.9841
71.0448
59.8812
48.4115
36.5302
24.1403
11.5648
2.50789
30.605
108.861
194.849
274.09
348.657
420.597
490.823
559.56
627.195
694.018
760.25
826.081
891.123
955.647
1019.72
1083.36
1146.54
1209.25
1271.45
1333.09
1394.13
1454.51
1514.17
1573.04
1631.07
1688.19
1744.32
1799.4
1853.36
1906.14
1957.65
2007.84
2056.65
2104
2149.85
2194.12
2236.77
2277.74
2316.98
2354.45
2390.1
2423.91
2455.82
2485.81
2513.86
2539.94
2564.03
2586.13
2606.21
2624.28
2640.34
2654.38
2666.41
2676.45
2684.51
2690.61
2694.77
2697.03
2697.41
2695.95
2692.71
2687.73
2681.09
2672.78
2662.83
2651.29
2638.21
2623.64
2607.64
2590.26
2571.55
2551.59
2530.42
2508.12
2484.73
2460.33
2434.97
2408.72
2381.64
2353.78
2325.22
2296.01
2266.21
2235.87
2205.06
2173.84
2142.24
2110.34
2078.18
2045.81
2013.28
1980.64
1947.93
1915.2
1882.48
1849.81
1817.24
1784.8
1752.52
1720.43
1688.57
1656.95
1625.61
1594.57
1563.85
1533.47
1503.45
1473.8
1444.54
1415.68
1387.24
1359.21
1331.62
1304.46
1277.74
1251.47
1225.64
1200.26
1175.32
1150.83
1126.79
1103.19
1080.02
1057.28
1034.97
1013.08
991.601
970.527
949.849
929.56
909.65
890.11
870.93
852.101
833.612
815.455
797.618
780.091
762.865
745.929
729.273
712.887
696.762
680.888
665.256
649.857
634.681
619.721
604.968
590.414
576.052
561.873
547.873
534.042
520.377
506.87
493.517
480.311
467.249
454.326
441.538
428.881
416.35
403.943
391.656
379.488
367.453
355.533
343.72
332.01
320.401
308.888
297.471
286.147
274.911
263.762
252.696
241.709
230.798
219.958
209.185
198.473
187.815
177.205
166.632
156.088
145.561
135.043
124.534
114.002
103.421
92.7603
81.9839
71.0448
59.8812
48.4115
36.5303
24.1403
11.5648
2.50789
118.22
100.238
126.159
157.501
190.328
223.89
257.99
292.413
327.118
362.092
397.248
432.61
468.109
503.756
539.541
575.446
611.441
647.493
683.561
719.603
755.573
791.42
827.095
862.542
897.708
932.535
966.966
1000.94
1034.41
1067.3
1099.57
1131.15
1161.99
1192.04
1221.24
1249.53
1276.88
1303.23
1328.54
1352.76
1375.86
1397.8
1418.55
1438.07
1456.34
1473.34
1489.04
1503.43
1516.49
1528.22
1538.61
1547.65
1555.35
1561.71
1566.75
1570.46
1572.87
1573.99
1573.84
1572.46
1569.88
1566.13
1561.26
1555.27
1548.19
1540.04
1530.87
1520.71
1509.61
1497.59
1484.71
1471.02
1456.54
1441.34
1425.44
1408.91
1391.79
1374.11
1355.93
1337.29
1318.23
1298.81
1279.05
1259
1238.7
1218.2
1197.53
1176.72
1155.81
1134.85
1113.85
1092.85
1071.89
1050.98
1030.16
1009.46
988.885
968.471
948.237
928.2
908.378
888.788
869.444
850.359
831.546
813.015
794.774
776.833
759.198
741.874
724.865
708.176
691.809
675.765
660.045
644.648
629.574
614.82
600.385
586.264
572.455
558.953
545.754
532.852
520.242
507.918
495.874
484.103
472.599
461.355
450.364
439.619
429.113
418.838
408.788
398.955
389.332
379.912
370.687
361.652
352.798
344.121
335.612
327.265
319.076
311.036
303.142
295.386
287.764
280.271
272.902
265.652
258.517
251.492
244.574
237.759
231.043
224.424
217.898
211.462
205.114
198.852
192.673
186.576
180.56
174.623
168.769
162.99
157.282
151.644
146.073
140.568
135.127
129.75
124.435
119.181
113.987
108.85
103.77
98.7452
93.774
88.8544
83.9844
79.1619
74.3843
69.649
64.9536
60.2979
55.6807
51.0926
46.527
41.9765
37.4331
32.8877
28.3312
23.7582
19.1809
14.6871
10.763
12.5571
118.224
100.235
126.155
157.497
190.324
223.886
257.985
292.409
327.113
362.087
397.242
432.603
468.102
503.748
539.533
575.437
611.432
647.483
683.551
719.592
755.561
791.408
827.082
862.529
897.694
932.52
966.951
1000.93
1034.39
1067.29
1099.55
1131.14
1161.98
1192.02
1221.22
1249.52
1276.86
1303.21
1328.52
1352.74
1375.84
1397.78
1418.53
1438.05
1456.32
1473.31
1489.02
1503.4
1516.47
1528.2
1538.58
1547.63
1555.33
1561.69
1566.72
1570.43
1572.84
1573.96
1573.82
1572.44
1569.86
1566.11
1561.24
1555.25
1548.16
1540.02
1530.85
1520.69
1509.58
1497.57
1484.69
1470.99
1456.52
1441.31
1425.42
1408.89
1391.77
1374.09
1355.91
1337.27
1318.21
1298.79
1279.03
1258.98
1238.69
1218.18
1197.51
1176.7
1155.8
1134.83
1113.83
1092.84
1071.87
1050.97
1030.15
1009.44
988.87
968.457
948.223
928.186
908.365
888.775
869.431
850.347
831.534
813.003
794.763
776.822
759.187
741.863
724.855
708.166
691.799
675.755
660.035
644.639
629.565
614.811
600.376
586.256
572.447
558.946
545.746
532.845
520.235
507.911
495.867
484.096
472.593
461.349
450.358
439.613
429.107
418.833
408.782
398.95
389.327
379.907
370.682
361.647
352.794
344.116
335.607
327.261
319.071
311.032
303.138
295.382
287.761
280.268
272.899
265.649
258.513
251.489
244.571
237.756
231.04
224.421
217.895
211.459
205.112
198.849
192.671
186.574
180.557
174.621
168.767
162.988
157.28
151.642
146.072
140.566
135.126
129.749
124.434
119.18
113.985
108.849
103.769
98.7441
93.7729
88.8533
83.9835
79.161
74.3835
69.6482
64.9529
60.2972
55.6801
51.0921
46.5265
41.9761
37.4327
32.8874
28.331
23.7581
19.1807
14.687
10.763
12.5571
213.785
132.622
135.199
150.683
170.475
192.379
215.566
239.614
264.288
289.467
315.058
341.005
367.253
393.769
420.521
447.478
474.607
501.874
529.242
556.671
584.122
611.553
638.919
666.176
693.278
720.176
746.824
773.172
799.172
824.775
849.932
874.595
898.716
922.25
945.149
967.371
988.872
1009.61
1029.55
1048.65
1066.88
1084.2
1100.59
1116.02
1130.47
1143.9
1156.31
1167.67
1177.99
1187.23
1195.41
1202.5
1208.53
1213.48
1217.36
1220.18
1221.95
1222.68
1222.4
1221.12
1218.87
1215.68
1211.57
1206.56
1200.67
1193.93
1186.37
1178.02
1168.9
1159.07
1148.54
1137.36
1125.56
1113.19
1100.27
1086.84
1072.96
1058.64
1043.93
1028.86
1013.48
997.809
981.893
965.763
949.452
932.992
916.415
899.751
883.028
866.275
849.518
832.782
816.092
799.469
782.937
766.513
750.218
734.069
718.081
702.27
686.65
671.232
656.028
641.048
626.3
611.793
597.533
583.526
569.777
556.288
543.064
530.105
517.414
504.991
492.835
480.946
469.323
457.962
446.862
436.019
425.43
415.091
404.998
395.146
385.53
376.145
366.986
358.048
349.324
340.809
332.497
324.382
316.458
308.719
301.159
293.772
286.553
279.495
272.592
265.839
259.231
252.762
246.426
240.219
234.135
228.169
222.318
216.576
210.939
205.403
199.964
194.618
189.362
184.192
179.106
174.099
169.17
164.315
159.533
154.82
150.176
145.599
141.086
136.636
132.248
127.922
123.656
119.447
115.295
111.196
107.149
103.154
99.2096
95.3143
91.4674
87.6683
83.9165
80.2113
76.5518
72.9373
69.3672
65.8406
62.3568
58.915
55.5144
52.1544
48.8346
45.5552
42.3168
39.1175
35.9568
32.835
29.7548
26.7228
23.754
20.8838
18.1997
15.958
15.2507
25.9884
213.788
132.619
135.195
150.679
170.471
192.375
215.562
239.61
264.283
289.462
315.053
340.999
367.247
393.763
420.514
447.471
474.6
501.867
529.234
556.663
584.114
611.545
638.911
666.167
693.268
720.166
746.814
773.162
799.161
824.764
849.92
874.583
898.705
922.238
945.137
967.358
988.859
1009.6
1029.54
1048.64
1066.87
1084.19
1100.58
1116.01
1130.45
1143.89
1156.29
1167.66
1177.97
1187.22
1195.39
1202.49
1208.51
1213.46
1217.34
1220.16
1221.93
1222.67
1222.38
1221.11
1218.86
1215.66
1211.55
1206.55
1200.66
1193.92
1186.36
1178
1168.89
1159.05
1148.53
1137.35
1125.55
1113.17
1100.25
1086.83
1072.94
1058.62
1043.91
1028.85
1013.47
997.798
981.882
965.752
949.441
932.982
916.405
899.741
883.019
866.266
849.509
832.773
816.083
799.461
782.928
766.505
750.21
734.061
718.074
702.263
686.643
671.225
656.021
641.041
626.294
611.787
597.528
583.521
569.771
556.283
543.058
530.1
517.409
504.986
492.831
480.942
469.318
457.958
446.857
436.015
425.426
415.087
404.994
395.142
385.526
376.142
366.983
358.045
349.321
340.806
332.494
324.379
316.455
308.716
301.156
293.77
286.55
279.492
272.59
265.837
259.229
252.76
246.424
240.217
234.133
228.168
222.316
216.574
210.937
205.402
199.963
194.617
189.361
184.191
179.104
174.098
169.169
164.314
159.532
154.819
150.175
145.598
141.085
136.635
132.248
127.921
123.655
119.447
115.294
111.195
107.149
103.154
99.2089
95.3137
91.4668
87.6677
83.916
80.2107
76.5513
72.9369
69.3668
65.8402
62.3565
58.9147
55.5141
52.1541
48.8343
45.5549
42.3165
39.1173
35.9566
32.8348
29.7547
26.7226
23.7539
20.8837
18.1997
15.958
15.2508
25.9885
304.165
169.615
155.536
161.244
173.664
189.317
206.873
225.695
245.43
265.866
286.863
308.324
330.176
352.363
374.837
397.557
420.485
443.582
466.81
490.132
513.508
536.9
560.267
583.568
606.761
629.804
652.654
675.268
697.602
719.612
741.255
762.489
783.27
803.557
823.309
842.487
861.051
878.966
896.196
912.708
928.47
943.452
957.627
970.971
983.461
995.077
1005.8
1015.62
1024.52
1032.49
1039.52
1045.62
1050.78
1054.99
1058.28
1060.63
1062.06
1062.59
1062.22
1060.99
1058.89
1055.97
1052.23
1047.7
1042.4
1036.36
1029.59
1022.13
1014.01
1005.25
995.89
985.958
975.487
964.51
953.061
941.174
928.88
916.215
903.211
889.9
876.314
862.486
848.446
834.225
819.852
805.355
790.762
776.101
761.395
746.671
731.95
717.257
702.611
688.032
673.54
659.152
644.884
630.751
616.768
602.947
589.301
575.839
562.572
549.508
536.655
524.018
511.605
499.419
487.464
475.744
464.26
453.015
442.008
431.241
420.713
410.422
400.367
390.547
380.958
371.597
362.462
353.549
344.854
336.372
328.1
320.031
312.163
304.489
297.005
289.705
282.584
275.636
268.857
262.241
255.783
249.477
243.318
237.3
231.42
225.671
220.048
214.548
209.164
203.893
198.731
193.671
188.712
183.848
179.076
174.392
169.792
165.274
160.833
156.468
152.175
147.952
143.795
139.704
135.675
131.707
127.798
123.947
120.152
116.411
112.723
109.088
105.504
101.969
98.483
95.0435
91.6497
88.3007
84.9957
81.734
78.5151
75.3383
72.2033
69.1095
66.0571
63.0457
60.0749
57.1448
54.2552
51.4062
48.5981
45.8312
43.1065
40.4253
37.7897
35.2019
32.6653
30.1862
27.7749
25.4498
23.245
21.2285
19.5533
18.6421
20.2452
39.2237
304.166
169.612
155.532
161.24
173.66
189.313
206.869
225.691
245.425
265.861
286.858
308.319
330.171
352.357
374.831
397.551
420.479
443.576
466.804
490.125
513.501
536.893
560.26
583.56
606.753
629.796
652.646
675.26
697.593
719.603
741.246
762.48
783.261
803.548
823.3
842.477
861.042
878.957
896.187
912.698
928.46
943.442
957.617
970.961
983.451
995.067
1005.79
1015.61
1024.51
1032.48
1039.51
1045.61
1050.77
1054.98
1058.26
1060.62
1062.05
1062.58
1062.21
1060.98
1058.88
1055.96
1052.22
1047.69
1042.4
1036.35
1029.58
1022.13
1014
1005.24
995.882
985.949
975.478
964.502
953.053
941.165
928.872
916.207
903.203
889.892
876.307
862.479
848.439
834.218
819.845
805.348
790.756
776.094
761.389
746.665
731.945
717.251
702.605
688.027
673.535
659.147
644.879
630.746
616.763
602.943
589.297
575.835
562.568
549.504
536.651
524.015
511.601
499.415
487.461
475.74
464.257
453.012
442.005
431.238
420.71
410.419
400.365
390.544
380.955
371.595
362.46
353.547
344.852
336.37
328.098
320.029
312.161
304.487
297.003
289.703
282.582
275.635
268.856
262.24
255.782
249.475
243.316
237.299
231.419
225.67
220.047
214.547
209.163
203.893
198.73
193.671
188.711
183.847
179.075
174.391
169.791
165.273
160.833
156.468
152.175
147.951
143.795
139.703
135.674
131.706
127.798
123.946
120.151
116.41
112.723
109.087
105.503
101.969
98.4826
95.0432
91.6494
88.3004
84.9954
81.7338
78.5148
75.338
72.2031
69.1093
66.0569
63.0454
60.0747
57.1446
54.2551
51.4061
48.5979
45.8311
43.1064
40.4252
37.7896
35.2018
32.6653
30.1861
27.7748
25.4497
23.2449
21.2285
19.5533
18.6422
20.2453
39.2238
390.918
207.865
179.584
177.644
184.658
195.978
209.808
225.289
241.945
259.488
277.728
296.532
315.803
335.467
355.461
375.735
396.243
416.94
437.788
458.745
479.774
500.836
521.89
542.899
563.823
584.621
605.254
625.681
645.863
665.759
685.328
704.532
723.331
741.687
759.562
776.919
793.723
809.941
825.539
840.486
854.754
868.315
881.144
893.217
904.513
915.014
924.703
933.566
941.592
948.77
955.096
960.564
965.173
968.924
971.82
973.867
975.073
975.448
975.007
973.763
971.735
968.942
965.404
961.139
956.167
950.511
944.193
937.24
929.679
921.537
912.842
903.625
893.914
883.741
873.136
862.13
850.754
839.037
827.012
814.707
802.152
789.377
776.41
763.279
750.011
736.632
723.168
709.644
696.083
682.507
668.939
655.398
641.904
628.476
615.13
601.883
588.75
575.745
562.88
550.168
537.619
525.243
513.05
501.045
489.238
477.633
466.235
455.05
444.08
433.328
422.796
412.485
402.397
392.531
382.887
373.463
364.258
355.271
346.498
337.938
329.586
321.44
313.496
305.75
298.197
290.834
283.656
276.657
269.835
263.182
256.696
250.37
244.2
238.181
232.307
226.574
220.978
215.512
210.173
204.955
199.854
194.866
189.986
185.21
180.534
175.953
171.465
167.064
162.749
158.515
154.358
150.277
146.268
142.327
138.454
134.644
130.897
127.208
123.578
120.005
116.486
113.019
109.604
106.239
102.923
99.654
96.4322
93.256
90.1242
87.0357
83.9895
80.9851
78.0216
75.0986
72.2158
69.3727
66.5691
63.805
61.0803
58.395
55.7495
53.1442
50.5795
48.0561
45.5751
43.1379
40.7463
38.4032
36.112
33.8779
31.708
29.6132
27.611
25.7302
24.0218
22.5838
21.6311
21.7499
25.3304
52.0696
390.92
207.862
179.58
177.64
184.654
195.973
209.804
225.285
241.941
259.483
277.723
296.527
315.798
335.462
355.456
375.73
396.237
416.935
437.782
458.739
479.768
500.829
521.884
542.893
563.816
584.614
605.247
625.674
645.856
665.752
685.321
704.525
723.324
741.679
759.554
776.911
793.715
809.933
825.531
840.478
854.746
868.307
881.135
893.208
904.505
915.005
924.694
933.558
941.583
948.762
955.088
960.556
965.165
968.916
971.812
973.859
975.065
975.44
974.999
973.755
971.728
968.935
965.397
961.132
956.16
950.503
944.186
937.233
929.672
921.53
912.835
903.618
893.908
883.735
873.13
862.124
850.748
839.032
827.006
814.701
802.146
789.371
776.404
763.273
750.006
736.627
723.164
709.639
696.078
682.503
668.934
655.394
641.9
628.472
615.126
601.879
588.746
575.741
562.877
550.165
537.616
525.24
513.047
501.043
489.235
477.63
466.233
455.047
444.077
433.325
422.794
412.483
402.395
392.529
382.885
373.461
364.257
355.269
346.497
337.936
329.585
321.439
313.495
305.748
298.196
290.833
283.654
276.656
269.833
263.181
256.695
250.369
244.199
238.18
232.306
226.574
220.977
215.511
210.172
204.954
199.853
194.865
189.985
185.209
180.533
175.953
171.464
167.064
162.748
158.514
154.358
150.276
146.267
142.327
138.453
134.644
130.896
127.208
123.578
120.004
116.485
113.019
109.604
106.239
102.922
99.6538
96.432
93.2558
90.124
87.0355
83.9893
80.9849
78.0214
75.0985
72.2156
69.3725
66.569
63.8049
61.0802
58.3949
55.7494
53.1441
50.5794
48.056
45.575
43.1378
40.7463
38.4031
36.1119
33.8778
31.7079
29.6132
27.611
25.7302
24.0217
22.5837
21.6311
21.7499
25.3307
52.0698
475.735
246.903
205.532
196.913
199.469
207.386
218.408
231.455
245.929
261.468
277.834
294.862
312.429
330.443
348.828
367.524
386.475
405.634
424.957
444.4
463.924
483.489
503.056
522.587
542.042
561.384
580.575
599.575
618.347
636.852
655.054
672.914
690.396
707.464
724.083
740.219
755.838
770.908
785.4
799.283
812.532
825.119
837.021
848.218
858.687
868.413
877.379
885.573
892.983
899.6
905.418
910.434
914.644
918.051
920.657
922.467
923.489
923.732
923.208
921.931
919.917
917.183
913.748
909.63
904.847
899.421
893.375
886.732
879.518
871.758
863.48
854.711
845.479
835.812
825.74
815.291
804.494
793.377
781.971
770.302
758.398
746.288
733.998
721.554
708.982
696.307
683.553
670.742
657.897
645.04
632.191
619.368
606.591
593.876
581.241
568.699
556.266
543.955
531.777
519.745
507.867
496.154
484.614
473.254
462.08
451.099
440.315
429.732
419.353
409.182
399.219
389.466
379.925
370.594
361.474
352.563
343.86
335.364
327.071
318.98
311.087
303.389
295.883
288.565
281.431
274.477
267.699
261.091
254.651
248.372
242.251
236.283
230.462
224.785
219.247
213.843
208.567
203.417
198.387
193.472
188.669
183.973
179.38
174.886
170.487
166.179
161.959
157.823
153.768
149.79
145.886
142.054
138.291
134.594
130.96
127.387
123.874
120.417
117.016
113.669
110.374
107.129
103.933
100.785
97.6835
94.6274
91.6158
88.6478
85.7223
82.8384
79.9955
77.1928
74.4298
71.7062
69.0217
66.3762
63.7696
61.202
58.6737
56.1849
53.7363
51.3287
48.9629
46.6404
44.363
42.1328
39.9528
37.827
35.7607
33.7612
31.8391
30.0097
28.2967
26.7388
25.4027
24.415
24.0508
25.0565
30.4473
64.6588
475.737
246.898
205.527
196.909
199.465
207.382
218.404
231.45
245.924
261.464
277.83
294.857
312.424
330.438
348.823
367.519
386.47
405.629
424.951
444.394
463.918
483.483
503.05
522.581
542.036
561.378
580.568
599.568
618.34
636.846
655.047
672.907
690.389
707.457
724.076
740.212
755.831
770.901
785.393
799.276
812.524
825.112
837.014
848.21
858.68
868.406
877.372
885.566
892.975
899.593
905.411
910.427
914.637
918.044
920.65
922.46
923.482
923.725
923.201
921.925
919.911
917.177
913.742
909.623
904.841
899.415
893.369
886.727
879.512
871.753
863.475
854.706
845.474
835.807
825.735
815.286
804.489
793.373
781.966
770.297
758.394
746.284
733.994
721.55
708.978
696.303
683.549
670.738
657.894
645.037
632.187
619.365
606.588
593.873
581.238
568.696
556.264
543.952
531.775
519.742
507.865
496.152
484.612
473.252
462.078
451.097
440.313
429.73
419.351
409.18
399.217
389.465
379.923
370.593
361.472
352.562
343.859
335.362
327.07
318.979
311.086
303.388
295.882
288.564
281.43
274.476
267.698
261.09
254.65
248.371
242.25
236.282
230.462
224.785
219.246
213.842
208.567
203.416
198.386
193.472
188.668
183.972
179.379
174.885
170.486
166.179
161.958
157.822
153.767
149.789
145.886
142.054
138.291
134.593
130.96
127.387
123.873
120.417
117.016
113.669
110.374
107.129
103.933
100.785
97.6834
94.6272
91.6156
88.6476
85.7221
82.8383
79.9953
77.1926
74.4297
71.7061
69.0216
66.3761
63.7695
61.2019
58.6736
56.1849
53.7363
51.3286
48.9628
46.6404
44.3629
42.1327
39.9528
37.827
35.7607
33.7612
31.8391
30.0096
28.2967
26.7388
25.4027
24.415
24.0508
25.0566
30.4477
64.659
559.034
286.59
232.739
217.97
216.609
221.657
230.397
241.527
254.33
268.371
283.365
299.114
315.473
332.33
349.598
367.205
385.088
403.194
421.473
439.881
458.375
476.913
495.457
513.967
532.405
550.734
568.916
586.914
604.692
622.212
639.44
656.339
672.876
689.015
704.723
719.969
734.72
748.948
762.623
775.717
788.206
800.065
811.272
821.805
831.647
840.782
849.193
856.869
863.8
869.977
875.395
880.049
883.937
887.062
889.424
891.029
891.885
892
891.384
890.052
888.017
885.296
881.906
877.865
873.191
867.904
862.026
855.58
848.59
841.08
833.076
824.603
815.69
806.362
796.647
786.572
776.165
765.453
754.464
743.225
731.761
720.099
708.266
696.285
684.181
671.978
659.699
647.366
635
622.622
610.25
597.904
585.601
573.358
561.19
549.112
537.137
525.278
513.548
501.956
490.512
479.226
468.105
457.157
446.387
435.802
425.406
415.203
405.196
395.388
385.78
376.375
367.171
358.171
349.373
340.776
332.379
324.181
316.179
308.371
300.754
293.325
286.081
279.018
272.132
265.42
258.877
252.499
246.282
240.222
234.314
228.553
222.936
217.456
212.111
206.896
201.806
196.836
191.983
187.241
182.608
178.079
173.649
169.316
165.075
160.922
156.855
152.869
148.962
145.13
141.371
137.681
134.059
130.5
127.004
123.567
120.188
116.866
113.597
110.381
107.216
104.1
101.032
98.0102
95.0342
92.1028
89.215
86.3699
83.5667
80.8046
78.0829
75.4011
72.7588
70.1557
67.5917
65.0668
62.5812
60.1351
57.7289
55.3633
53.0392
50.7578
48.5203
46.3288
44.1855
42.0937
40.0572
38.0812
36.1728
34.3413
32.6004
30.9695
29.4785
28.175
27.1411
26.531
26.6797
28.4924
35.6008
77.1061
559.036
286.585
232.734
217.966
216.604
221.653
230.393
241.522
254.325
268.367
283.361
299.11
315.468
332.325
349.593
367.2
385.083
403.189
421.468
439.876
458.369
476.908
495.451
513.961
532.399
550.728
568.91
586.908
604.686
622.206
639.434
656.333
672.869
689.008
704.717
719.963
734.714
748.942
762.616
775.711
788.2
800.059
811.265
821.799
831.641
840.775
849.187
856.863
863.794
869.971
875.389
880.042
883.931
887.055
889.418
891.023
891.879
891.994
891.379
890.046
888.012
885.291
881.901
877.86
873.186
867.899
862.021
855.575
848.585
841.075
833.071
824.599
815.685
806.357
796.642
786.568
776.161
765.449
754.46
743.221
731.757
720.096
708.262
696.281
684.178
671.975
659.696
647.363
634.997
622.619
610.248
597.902
585.599
573.355
561.187
549.109
537.135
525.276
513.545
501.954
490.51
479.224
468.103
457.155
446.386
435.8
425.404
415.201
405.194
395.386
385.779
376.373
367.17
358.17
349.371
340.775
332.378
324.18
316.178
308.37
300.753
293.324
286.08
279.017
272.131
265.419
258.876
252.498
246.282
240.221
234.313
228.553
222.935
217.456
212.111
206.895
201.805
196.835
191.982
187.241
182.608
178.078
173.649
169.315
165.074
160.922
156.854
152.869
148.962
145.13
141.371
137.681
134.058
130.5
127.004
123.567
120.188
116.865
113.597
110.381
107.216
104.1
101.031
98.01
95.0341
92.1027
89.2149
86.3698
83.5666
80.8045
78.0828
75.401
72.7587
70.1556
67.5916
65.0668
62.5811
60.135
57.7288
55.3633
53.0392
50.7577
48.5203
46.3288
44.1855
42.0936
40.0572
38.0812
36.1727
34.3413
32.6003
30.9695
29.4784
28.175
27.141
26.531
26.6797
28.4925
35.6012
77.1065
641.155
326.849
260.935
240.35
235.41
237.928
244.72
254.263
265.72
278.585
292.525
307.31
322.772
338.783
355.242
372.066
389.186
406.541
424.078
441.749
459.507
477.31
495.118
512.891
530.59
548.179
565.621
582.878
599.917
616.7
633.195
649.367
665.183
680.61
695.617
710.174
724.249
737.816
750.848
763.317
775.201
786.477
797.122
807.12
816.451
825.1
833.053
840.3
846.83
852.635
857.71
862.053
865.66
868.533
870.675
872.09
872.785
872.769
872.052
870.646
868.565
865.825
862.441
858.431
853.813
848.607
842.832
836.511
829.667
822.324
814.505
806.236
797.542
788.45
778.984
769.172
759.04
748.614
737.919
726.983
715.83
704.485
692.974
681.319
669.545
657.674
645.729
633.73
621.698
609.653
597.614
585.597
573.621
561.701
549.853
538.09
526.426
514.873
503.443
492.145
480.99
469.987
459.142
448.463
437.957
427.628
417.482
407.522
397.751
388.172
378.787
369.598
360.604
351.807
343.205
334.799
326.587
318.567
310.738
303.097
295.641
288.368
281.275
274.358
267.613
261.038
254.627
248.377
242.284
236.344
230.552
224.904
219.396
214.023
208.781
203.666
198.674
193.799
189.039
184.388
179.843
175.4
171.056
166.805
162.646
158.573
154.585
150.676
146.846
143.09
139.405
135.789
132.239
128.753
125.328
121.963
118.655
115.403
112.205
109.059
105.963
102.916
99.9171
96.9645
94.0573
91.1944
88.375
85.5983
82.8636
80.1701
77.5172
74.9046
72.3319
69.7989
67.3057
64.8523
62.4391
60.0666
57.7353
55.4462
53.2005
50.9996
48.8454
46.7403
44.6873
42.6903
40.754
38.885
37.0918
35.386
33.7838
32.3089
30.9968
29.904
29.1275
28.8494
29.4638
32.0356
40.8091
89.4998
641.157
326.844
260.93
240.346
235.405
237.924
244.716
254.259
265.716
278.581
292.52
307.305
322.767
338.778
355.237
372.061
389.181
406.536
424.073
441.744
459.502
477.305
495.113
512.885
530.585
548.174
565.615
582.873
599.911
616.695
633.19
649.361
665.177
680.604
695.611
710.168
724.243
737.811
750.842
763.311
775.195
786.471
797.117
807.114
816.445
825.094
833.047
840.294
846.824
852.629
857.705
862.047
865.654
868.528
870.67
872.085
872.78
872.764
872.047
870.641
868.56
865.82
862.437
858.427
853.809
848.602
842.828
836.507
829.663
822.32
814.501
806.232
797.538
788.446
778.98
769.168
759.036
748.61
737.916
726.979
715.826
704.482
692.97
681.316
669.542
657.671
645.726
633.727
621.696
609.651
597.611
585.595
573.619
561.699
549.851
538.088
526.424
514.871
503.441
492.143
480.989
469.985
459.14
448.462
437.955
427.627
417.48
407.52
397.749
388.171
378.786
369.596
360.603
351.805
343.204
334.798
326.586
318.566
310.737
303.096
295.64
288.367
281.274
274.357
267.612
261.037
254.626
248.376
242.284
236.343
230.551
224.904
219.395
214.023
208.781
203.666
198.673
193.799
189.038
184.388
179.843
175.4
171.055
166.805
162.645
158.573
154.584
150.676
146.845
143.089
139.404
135.789
132.239
128.753
125.328
121.963
118.655
115.403
112.205
109.058
105.963
102.916
99.9169
96.9643
94.0571
91.1942
88.3749
85.5982
82.8635
80.1699
77.5171
74.9045
72.3318
69.7988
67.3056
64.8523
62.4391
60.0665
57.7352
55.4461
53.2004
50.9995
48.8454
46.7403
44.6873
42.6902
40.7539
38.8849
37.0918
35.386
33.7838
32.3089
30.9967
29.904
29.1275
28.8493
29.4638
32.0358
40.8096
89.5002
722.62
367.777
290.016
263.838
255.543
255.759
260.832
269.015
279.35
291.258
304.361
318.397
333.175
348.55
364.409
380.658
397.22
414.028
431.025
448.157
465.377
482.639
499.902
517.126
534.271
551.3
568.177
584.866
601.333
617.542
633.461
649.057
664.299
679.155
693.595
707.59
721.112
734.135
746.632
758.581
769.956
780.739
790.908
800.446
809.337
817.566
825.12
831.989
838.163
843.637
848.404
852.462
855.81
858.448
860.38
861.609
862.144
861.991
861.161
859.667
857.52
854.735
851.33
847.318
842.72
837.552
831.836
825.593
818.843
811.611
803.918
795.791
787.252
778.327
769.04
759.418
749.485
739.266
728.787
718.072
707.145
696.032
684.756
673.34
661.806
650.176
638.473
626.715
614.924
603.118
591.316
579.534
567.789
556.097
544.472
532.929
521.479
510.136
498.91
487.812
476.851
466.035
455.372
444.87
434.534
424.369
414.381
404.573
394.949
385.51
376.26
367.2
358.33
349.65
341.162
332.863
324.754
316.832
309.095
301.543
294.171
286.979
279.961
273.116
266.44
259.929
253.58
247.389
241.352
235.464
229.722
224.122
218.659
213.329
208.129
203.053
198.097
193.259
188.533
183.915
179.402
174.99
170.675
166.454
162.323
158.278
154.316
150.435
146.63
142.9
139.241
135.651
132.127
128.666
125.268
121.928
118.647
115.421
112.25
109.131
106.062
103.043
100.072
97.1476
94.2691
91.4354
88.6457
85.8992
83.1952
80.5331
77.9124
75.3328
72.7939
70.2958
67.8386
65.4224
63.0478
60.7153
58.4259
56.1806
53.9811
51.8289
49.7266
47.6769
45.6834
43.7507
41.8847
40.0929
38.3852
36.7755
35.2826
33.9339
32.7707
31.8584
31.3086
31.3314
32.3812
35.6829
46.0934
101.91
722.622
367.771
290.011
263.833
255.538
255.755
260.828
269.01
279.345
291.253
304.356
318.392
333.171
348.546
364.404
380.653
397.215
414.023
431.02
448.152
465.372
482.634
499.897
517.121
534.266
551.295
568.172
584.861
601.327
617.536
633.456
649.052
664.293
679.149
693.589
707.584
721.107
734.129
746.627
758.575
769.951
780.733
790.903
800.441
809.332
817.561
825.115
831.984
838.158
843.632
848.399
852.457
855.804
858.443
860.375
861.604
862.139
861.986
861.157
859.662
857.515
854.731
851.325
847.314
842.716
837.548
831.832
825.589
818.839
811.607
803.915
795.787
787.248
778.323
769.037
759.415
749.481
739.263
728.783
718.069
707.143
696.03
684.753
673.337
661.803
650.174
638.47
626.713
614.922
603.116
591.313
579.532
567.787
556.095
544.47
532.927
521.477
510.134
498.909
487.81
476.849
466.033
455.371
444.868
434.532
424.368
414.38
404.572
394.947
385.509
376.259
367.199
358.329
349.649
341.161
332.862
324.753
316.831
309.094
301.542
294.171
286.978
279.96
273.115
266.439
259.929
253.58
247.388
241.351
235.463
229.722
224.121
218.658
213.329
208.128
203.052
198.097
193.258
188.532
183.915
179.402
174.99
170.675
166.454
162.322
158.277
154.316
150.434
146.63
142.9
139.241
135.651
132.127
128.666
125.267
121.928
118.647
115.421
112.25
109.13
106.062
103.043
100.072
97.1474
94.2689
91.4352
88.6455
85.899
83.195
80.533
77.9123
75.3326
72.7938
70.2957
67.8385
65.4223
63.0477
60.7152
58.4258
56.1806
53.981
51.8289
49.7265
47.6768
45.6834
43.7507
41.8846
40.0928
38.3852
36.7754
35.2825
33.9338
32.7706
31.8583
31.3086
31.3314
32.3812
35.683
46.094
101.911
803.855
409.451
319.98
288.343
276.843
274.917
278.432
285.417
294.792
305.903
318.327
331.77
346.018
360.909
376.317
392.139
408.29
424.697
441.296
458.031
474.852
491.71
508.563
525.369
542.088
558.683
575.118
591.357
607.367
623.113
638.564
653.688
668.454
682.833
696.797
710.317
723.367
735.923
747.959
759.453
770.384
780.732
790.479
799.608
808.103
815.952
823.142
829.665
835.511
840.676
845.153
848.942
852.041
854.451
856.176
857.22
857.59
857.293
856.341
854.743
852.513
849.666
846.216
842.179
837.572
832.415
826.725
820.523
813.831
806.671
799.064
791.034
782.605
773.801
764.645
755.162
745.376
735.312
724.993
714.443
703.687
692.748
681.648
670.409
659.055
647.605
636.081
624.502
612.888
601.257
589.627
578.014
566.436
554.906
543.439
532.049
520.749
509.55
498.463
487.498
476.665
465.971
455.426
445.034
434.804
424.739
414.846
405.127
395.586
386.226
377.049
368.056
359.249
350.627