/*--------------------------------*- C++ -*----------------------------------*\
  =========                 |
  \\      /  F ield         | OpenFOAM: The Open Source CFD Toolbox
   \\    /   O peration     | Website:  https://openfoam.org
    \\  /    A nd           | Version:  8
     \\/     M anipulation  |
\*---------------------------------------------------------------------------*/
FoamFile
{
    version     2.0;
    format      ascii;
    class       volScalarField;
    location    "4000";
    object      k;
}
// * * * * * * * * * * * * * * * * * * * * * * * * * * * * * * * * * * * * * //

dimensions      [0 2 -2 0 0 0 0];

internalField   nonuniform List<scalar> 
46000
(
0.024342
0.0909196
0.162704
0.228863
0.291124
0.351191
0.409827
0.467219
0.523692
0.579485
0.634785
0.689752
0.744058
0.797933
0.851432
0.904564
0.95732
1.00968
1.06161
1.11308
1.16404
1.21446
1.26427
1.31343
1.36188
1.40957
1.45643
1.50242
1.54748
1.59154
1.63455
1.67646
1.71721
1.75675
1.79502
1.83199
1.8676
1.90181
1.93457
1.96586
1.99563
2.02385
2.05049
2.07554
2.09896
2.12073
2.14085
2.1593
2.17607
2.19116
2.20456
2.21628
2.22633
2.23472
2.24145
2.24654
2.25002
2.25191
2.25223
2.25101
2.2483
2.24415
2.23861
2.23167
2.22337
2.21374
2.20282
2.19066
2.1773
2.16278
2.14717
2.1305
2.11283
2.09421
2.07469
2.05432
2.03315
2.01123
1.98862
1.96537
1.94152
1.91714
1.89225
1.86693
1.84121
1.81514
1.78876
1.76213
1.73528
1.70825
1.68109
1.65384
1.62653
1.5992
1.57188
1.54461
1.51742
1.49033
1.46338
1.43659
1.40999
1.38359
1.35742
1.33151
1.30586
1.28049
1.25542
1.23067
1.20624
1.18214
1.15839
1.13499
1.11195
1.08928
1.06697
1.04503
1.02346
1.00227
0.981447
0.961
0.940923
0.921214
0.901868
0.882884
0.864254
0.845975
0.828039
0.810442
0.793176
0.776234
0.759608
0.743291
0.727276
0.711553
0.696114
0.680952
0.666057
0.651422
0.637037
0.622894
0.608986
0.595303
0.581838
0.568583
0.555529
0.54267
0.529997
0.517505
0.505185
0.493032
0.481038
0.469199
0.457507
0.445959
0.434547
0.423268
0.412118
0.401091
0.390183
0.379392
0.368713
0.358144
0.34768
0.33732
0.32706
0.316899
0.306849
0.296895
0.28703
0.277252
0.267558
0.257945
0.248411
0.238955
0.229573
0.220262
0.211022
0.201847
0.192736
0.183685
0.174688
0.165743
0.156843
0.147983
0.139154
0.130349
0.121558
0.112775
0.103999
0.0952041
0.0863677
0.0774652
0.068466
0.0593306
0.0500079
0.0404295
0.0305075
0.0201607
0.00965859
0.00198908
0.0243514
0.0909389
0.162721
0.228872
0.291128
0.351193
0.409828
0.467221
0.523693
0.579486
0.634787
0.689753
0.744059
0.797934
0.851433
0.904565
0.95732
1.00968
1.06161
1.11308
1.16404
1.21445
1.26427
1.31343
1.36188
1.40956
1.45643
1.50242
1.54748
1.59154
1.63455
1.67646
1.71721
1.75675
1.79502
1.83199
1.8676
1.9018
1.93457
1.96585
1.99562
2.02384
2.05049
2.07553
2.09895
2.12073
2.14085
2.15929
2.17606
2.19115
2.20456
2.21628
2.22633
2.23471
2.24145
2.24654
2.25002
2.2519
2.25222
2.25101
2.2483
2.24415
2.2386
2.23167
2.22336
2.21373
2.20281
2.19065
2.17729
2.16278
2.14717
2.1305
2.11283
2.09421
2.07469
2.05431
2.03314
2.01123
1.98862
1.96537
1.94152
1.91713
1.89225
1.86693
1.8412
1.81513
1.78876
1.76212
1.73527
1.70825
1.68109
1.65384
1.62653
1.5992
1.57188
1.54461
1.51742
1.49033
1.46338
1.43659
1.40998
1.38359
1.35742
1.3315
1.30585
1.28049
1.25542
1.23067
1.20624
1.18214
1.15839
1.13499
1.11195
1.08927
1.06696
1.04502
1.02346
1.00226
0.981445
0.960998
0.940921
0.921211
0.901866
0.882881
0.864252
0.845972
0.828037
0.81044
0.793174
0.776232
0.759606
0.74329
0.727274
0.711551
0.696112
0.68095
0.666055
0.65142
0.637035
0.622893
0.608984
0.595302
0.581836
0.568581
0.555527
0.542668
0.529996
0.517503
0.505184
0.49303
0.481037
0.469198
0.457506
0.445957
0.434546
0.423267
0.412117
0.401089
0.390182
0.379391
0.368712
0.358143
0.347679
0.337319
0.327059
0.316898
0.306848
0.296894
0.28703
0.277252
0.267557
0.257944
0.248411
0.238954
0.229572
0.220262
0.211021
0.201847
0.192736
0.183684
0.174688
0.165743
0.156843
0.147982
0.139154
0.130349
0.121557
0.112774
0.103999
0.0952039
0.0863676
0.0774651
0.0684659
0.0593306
0.0500079
0.0404295
0.0305075
0.0201607
0.00965861
0.00198908
0.090624
0.251619
0.366605
0.463798
0.551596
0.633376
0.710757
0.784937
0.85669
0.926535
0.994704
1.06151
1.12711
1.19165
1.25523
1.31792
1.37976
1.44076
1.50095
1.56029
1.6188
1.67642
1.73315
1.78893
1.84373
1.89751
1.95022
2.00181
2.05224
2.10145
2.1494
2.19603
2.2413
2.28516
2.32756
2.36846
2.40782
2.44559
2.48174
2.51624
2.54904
2.58013
2.60946
2.63703
2.66281
2.68679
2.70894
2.72926
2.74775
2.7644
2.77921
2.79219
2.80334
2.81267
2.8202
2.82595
2.82994
2.83218
2.83272
2.83158
2.8288
2.82442
2.81849
2.81102
2.80206
2.79163
2.7798
2.76659
2.75206
2.73626
2.71924
2.70105
2.68175
2.66138
2.64
2.61766
2.59442
2.57034
2.54546
2.51984
2.49354
2.46661
2.4391
2.41106
2.38254
2.3536
2.32427
2.29462
2.26468
2.23451
2.20414
2.17361
2.14298
2.11227
2.08153
2.05078
2.02008
1.98944
1.95889
1.92848
1.89822
1.86815
1.83828
1.80863
1.77924
1.75012
1.72128
1.69274
1.66452
1.63662
1.60907
1.58187
1.55503
1.52855
1.50244
1.47671
1.45136
1.42639
1.40181
1.3776
1.35378
1.33035
1.30728
1.2846
1.26228
1.24032
1.21873
1.19749
1.17659
1.15604
1.13581
1.11591
1.09632
1.07704
1.05805
1.03935
1.02093
1.00278
0.984887
0.967242
0.949837
0.932662
0.915707
0.898963
0.882421
0.866071
0.849904
0.833912
0.818086
0.802417
0.786898
0.77152
0.756276
0.741159
0.726161
0.711275
0.696496
0.681816
0.66723
0.652732
0.638318
0.62398
0.609714
0.595517
0.58138
0.567299
0.55327
0.539292
0.525355
0.511454
0.497583
0.483734
0.469904
0.456087
0.442275
0.428462
0.414639
0.400798
0.386929
0.373022
0.359064
0.345041
0.330936
0.316732
0.302406
0.287931
0.273276
0.258402
0.243267
0.227823
0.211998
0.195705
0.178828
0.161212
0.142638
0.122785
0.101139
0.0767684
0.0473378
0.00956328
0.0906111
0.251613
0.366605
0.463799
0.551597
0.633376
0.710758
0.784937
0.85669
0.926535
0.994704
1.06151
1.12711
1.19165
1.25523
1.31792
1.37975
1.44076
1.50094
1.56029
1.61879
1.67642
1.73314
1.78893
1.84373
1.89751
1.95022
2.00181
2.05224
2.10145
2.14939
2.19602
2.24129
2.28515
2.32755
2.36845
2.40781
2.44559
2.48174
2.51623
2.54904
2.58012
2.60946
2.63703
2.66281
2.68678
2.70893
2.72926
2.74775
2.76439
2.7792
2.79218
2.80333
2.81266
2.8202
2.82594
2.82993
2.83218
2.83272
2.83158
2.8288
2.82442
2.81848
2.81102
2.80205
2.79163
2.77979
2.76658
2.75206
2.73626
2.71924
2.70105
2.68174
2.66137
2.63999
2.61765
2.59442
2.57033
2.54545
2.51984
2.49354
2.4666
2.43909
2.41105
2.38253
2.35359
2.32427
2.29462
2.26468
2.2345
2.20413
2.17361
2.14297
2.11226
2.08152
2.05078
2.02007
1.98943
1.95889
1.92848
1.89822
1.86814
1.83827
1.80863
1.77924
1.75011
1.72127
1.69273
1.66451
1.63662
1.60907
1.58186
1.55502
1.52854
1.50244
1.47671
1.45136
1.42639
1.4018
1.3776
1.35378
1.33034
1.30728
1.28459
1.26227
1.24032
1.21873
1.19749
1.17659
1.15603
1.13581
1.11591
1.09632
1.07704
1.05805
1.03935
1.02093
1.00278
0.984884
0.967239
0.949834
0.932659
0.915704
0.89896
0.882418
0.866068
0.849901
0.833909
0.818083
0.802414
0.786895
0.771517
0.756273
0.741156
0.726158
0.711273
0.696493
0.681814
0.667228
0.65273
0.638316
0.623978
0.609712
0.595514
0.581378
0.567297
0.553268
0.53929
0.525353
0.511452
0.497581
0.483732
0.469903
0.456086
0.442274
0.42846
0.414637
0.400796
0.386927
0.37302
0.359062
0.345039
0.330935
0.316731
0.302405
0.28793
0.273275
0.258401
0.243266
0.227822
0.211998
0.195705
0.178828
0.161212
0.142638
0.122785
0.101139
0.0767684
0.0473378
0.0095633
0.164666
0.369801
0.506301
0.619073
0.720599
0.815017
0.904442
0.990112
1.0728
1.15308
1.23135
1.30789
1.38292
1.45658
1.529
1.60026
1.6704
1.73946
1.80745
1.87439
1.94025
2.00501
2.06866
2.13115
2.19246
2.25254
2.31135
2.36883
2.42495
2.47966
2.5329
2.58463
2.6348
2.68336
2.73027
2.77548
2.81895
2.86065
2.90052
2.93855
2.97469
3.00891
3.0412
3.07152
3.09987
3.12621
3.15055
3.17287
3.19316
3.21143
3.22767
3.2419
3.25411
3.26433
3.27257
3.27885
3.28319
3.28562
3.28617
3.28487
3.28176
3.27689
3.27028
3.26199
3.25204
3.24049
3.22737
3.21274
3.19665
3.17915
3.16029
3.14014
3.11874
3.09617
3.07246
3.04768
3.0219
2.99516
2.96753
2.93907
2.90983
2.87987
2.84925
2.81802
2.78624
2.75397
2.72126
2.68815
2.6547
2.62097
2.58699
2.55282
2.5185
2.48407
2.44957
2.41505
2.38055
2.34609
2.31172
2.27746
2.24336
2.20943
2.17571
2.14222
2.10898
2.07602
2.04336
2.01102
1.979
1.94734
1.91603
1.8851
1.85455
1.8244
1.79464
1.76529
1.73635
1.70783
1.67972
1.65202
1.62475
1.59788
1.57143
1.54539
1.51976
1.49452
1.46968
1.44523
1.42116
1.39745
1.37412
1.35114
1.3285
1.30621
1.28424
1.26258
1.24123
1.22018
1.19941
1.17892
1.15869
1.13871
1.11898
1.09947
1.08019
1.06111
1.04224
1.02355
1.00504
0.986704
0.968526
0.950499
0.932614
0.914862
0.897235
0.879725
0.862324
0.845025
0.82782
0.810702
0.793666
0.776706
0.759814
0.742984
0.726209
0.709482
0.692797
0.67615
0.659535
0.642942
0.626366
0.609798
0.593231
0.576657
0.560067
0.543454
0.526806
0.510115
0.493367
0.476549
0.459646
0.44264
0.425513
0.40824
0.390795
0.373146
0.355256
0.337081
0.318565
0.29965
0.280253
0.260271
0.23957
0.21797
0.195219
0.170941
0.144498
0.114551
0.0769454
0.0198974
0.164662
0.369799
0.5063
0.619073
0.720598
0.815016
0.904441
0.990111
1.0728
1.15308
1.23135
1.30789
1.38292
1.45658
1.529
1.60025
1.67039
1.73945
1.80745
1.87438
1.94024
2.00501
2.06865
2.13115
2.19246
2.25254
2.31134
2.36883
2.42495
2.47965
2.53289
2.58462
2.63479
2.68335
2.73026
2.77547
2.81895
2.86064
2.90052
2.93854
2.97468
3.00891
3.04119
3.07152
3.09986
3.12621
3.15054
3.17286
3.19315
3.21142
3.22766
3.24189
3.2541
3.26432
3.27256
3.27884
3.28318
3.28561
3.28616
3.28486
3.28175
3.27688
3.27028
3.26198
3.25203
3.24048
3.22736
3.21273
3.19664
3.17914
3.16028
3.14013
3.11874
3.09616
3.07245
3.04768
3.02189
2.99516
2.96753
2.93906
2.90982
2.87986
2.84924
2.81801
2.78624
2.75396
2.72125
2.68814
2.6547
2.62096
2.58698
2.55281
2.51849
2.48406
2.44957
2.41505
2.38054
2.34608
2.31171
2.27746
2.24335
2.20942
2.1757
2.14221
2.10898
2.07602
2.04336
2.01101
1.979
1.94733
1.91603
1.8851
1.85455
1.82439
1.79464
1.76529
1.73635
1.70782
1.67971
1.65202
1.62474
1.59788
1.57143
1.54539
1.51975
1.49452
1.46968
1.44522
1.42115
1.39745
1.37411
1.35113
1.3285
1.3062
1.28423
1.26258
1.24123
1.22018
1.19941
1.17892
1.15869
1.13871
1.11897
1.09947
1.08018
1.06111
1.04223
1.02355
1.00504
0.986701
0.968523
0.950496
0.932611
0.914859
0.897232
0.879722
0.862322
0.845022
0.827817
0.810699
0.793664
0.776704
0.759812
0.742982
0.726206
0.709479
0.692795
0.676148
0.659533
0.64294
0.626364
0.609796
0.593229
0.576655
0.560066
0.543452
0.526805
0.510113
0.493365
0.476547
0.459644
0.442639
0.425511
0.408238
0.390793
0.373145
0.355255
0.33708
0.318564
0.299649
0.280252
0.26027
0.239569
0.217969
0.195219
0.17094
0.144498
0.114551
0.0769455
0.0198974
0.234836
0.472346
0.624782
0.74848
0.859302
0.962366
1.06014
1.15398
1.24472
1.3329
1.41893
1.50308
1.58556
1.66653
1.74609
1.82433
1.90129
1.97702
2.05152
2.12479
2.19683
2.26763
2.33714
2.40534
2.47219
2.53765
2.60168
2.66422
2.72524
2.78467
2.84248
2.89861
2.95301
3.00563
3.05644
3.10538
3.15241
3.19749
3.24058
3.28165
3.32066
3.35759
3.39241
3.4251
3.45563
3.48399
3.51018
3.53417
3.55598
3.57559
3.59301
3.60824
3.62131
3.63221
3.64097
3.64761
3.65216
3.65465
3.65509
3.65354
3.65003
3.64461
3.63731
3.62817
3.61725
3.60458
3.59022
3.57422
3.55664
3.53753
3.51694
3.49495
3.47161
3.44697
3.42111
3.39408
3.36595
3.33678
3.30662
3.27556
3.24364
3.21093
3.17749
3.14338
3.10866
3.07339
3.03762
3.00142
2.96484
2.92792
2.89073
2.85331
2.81572
2.77799
2.74018
2.70233
2.66448
2.62666
2.58893
2.55132
2.51385
2.47656
2.43948
2.40265
2.36608
2.3298
2.29384
2.25821
2.22293
2.18802
2.1535
2.11938
2.08566
2.05237
2.01951
1.98708
1.9551
1.92356
1.89247
1.86183
1.83164
1.8019
1.77261
1.74376
1.71535
1.68737
1.65983
1.6327
1.60599
1.57969
1.55378
1.52826
1.50312
1.47834
1.45392
1.42985
1.4061
1.38269
1.35958
1.33677
1.31425
1.29201
1.27003
1.2483
1.22681
1.20554
1.1845
1.16366
1.14302
1.12256
1.10227
1.08215
1.06218
1.04235
1.02266
1.00309
0.983641
0.964299
0.945056
0.925908
0.906846
0.887862
0.868949
0.850099
0.831304
0.812557
0.793851
0.775181
0.756539
0.737917
0.719306
0.700699
0.682086
0.66346
0.64481
0.626127
0.6074
0.588616
0.569763
0.550828
0.531792
0.512638
0.493344
0.473886
0.454235
0.434359
0.414218
0.393765
0.372944
0.351688
0.329917
0.307522
0.284365
0.260257
0.23493
0.207962
0.178584
0.145036
0.101658
0.0301267
0.234838
0.472346
0.624781
0.748478
0.859301
0.962364
1.06014
1.15398
1.24471
1.3329
1.41892
1.50307
1.58556
1.66652
1.74609
1.82432
1.90129
1.97701
2.05151
2.12479
2.19683
2.26762
2.33713
2.40533
2.47218
2.53765
2.60167
2.66422
2.72523
2.78467
2.84247
2.8986
2.953
3.00563
3.05643
3.10537
3.1524
3.19748
3.24057
3.28164
3.32066
3.35759
3.3924
3.42509
3.45562
3.48399
3.51017
3.53417
3.55597
3.57558
3.593
3.60824
3.6213
3.6322
3.64097
3.64761
3.65216
3.65464
3.65509
3.65354
3.65003
3.6446
3.6373
3.62816
3.61724
3.60457
3.59021
3.57421
3.55663
3.53752
3.51694
3.49494
3.4716
3.44696
3.4211
3.39407
3.36594
3.33677
3.30662
3.27555
3.24363
3.21092
3.17748
3.14337
3.10865
3.07338
3.03762
3.00141
2.96483
2.92791
2.89072
2.8533
2.81571
2.77798
2.74017
2.70232
2.66447
2.62666
2.58893
2.55131
2.51384
2.47655
2.43948
2.40264
2.36607
2.3298
2.29383
2.2582
2.22292
2.18802
2.15349
2.11937
2.08566
2.05237
2.0195
1.98708
1.95509
1.92355
1.89246
1.86182
1.83164
1.8019
1.7726
1.74375
1.71535
1.68737
1.65982
1.6327
1.60599
1.57968
1.55378
1.52825
1.50311
1.47834
1.45392
1.42984
1.4061
1.38268
1.35958
1.33677
1.31425
1.292
1.27002
1.24829
1.2268
1.20554
1.1845
1.16366
1.14301
1.12255
1.10227
1.08214
1.06217
1.04235
1.02266
1.00309
0.983639
0.964296
0.945054
0.925906
0.906844
0.88786
0.868947
0.850097
0.831302
0.812555
0.793849
0.775179
0.756537
0.737915
0.719304
0.700697
0.682085
0.663458
0.644809
0.626126
0.607399
0.588614
0.569762
0.550826
0.531791
0.512637
0.493343
0.473885
0.454234
0.434358
0.414217
0.393764
0.372943
0.351688
0.329916
0.307521
0.284364
0.260257
0.23493
0.207962
0.178584
0.145036
0.101658
0.0301268
0.302276
0.566581
0.73327
0.866496
0.984909
1.09489
1.19931
1.29967
1.39686
1.49144
1.5838
1.67421
1.76287
1.84993
1.93548
2.01959
2.10232
2.18369
2.26371
2.34238
2.41968
2.4956
2.57011
2.64317
2.71475
2.7848
2.85327
2.92012
2.98529
3.04875
3.11043
3.17029
3.22827
3.28433
3.33842
3.3905
3.44052
3.48845
3.53423
3.57784
3.61925
3.65842
3.69534
3.72997
3.7623
3.79231
3.81999
3.84534
3.86835
3.88902
3.90736
3.92337
3.93707
3.94847
3.95758
3.96445
3.96908
3.97151
3.97178
3.96992
3.96597
3.95998
3.95198
3.94204
3.93019
3.91648
3.90096
3.8837
3.86476
3.84418
3.82203
3.79837
3.77327
3.74679
3.719
3.68996
3.65974
3.62841
3.59602
3.56265
3.52836
3.49322
3.4573
3.42065
3.38334
3.34544
3.30699
3.26807
3.22874
3.18904
3.14903
3.10878
3.06832
3.02772
2.98701
2.94625
2.90548
2.86475
2.82409
2.78355
2.74315
2.70294
2.66295
2.62321
2.58374
2.54458
2.50575
2.46726
2.42915
2.39143
2.35412
2.31723
2.28077
2.24476
2.2092
2.17411
2.13949
2.10534
2.07167
2.03848
2.00578
1.97355
1.9418
1.91052
1.87971
1.84937
1.81948
1.79005
1.76106
1.73251
1.70438
1.67667
1.64936
1.62245
1.59592
1.56976
1.54396
1.51851
1.49339
1.46859
1.4441
1.41991
1.396
1.37236
1.34898
1.32585
1.30295
1.28027
1.2578
1.23553
1.21344
1.19153
1.16979
1.1482
1.12675
1.10544
1.08426
1.06319
1.04222
1.02136
1.00059
0.979908
0.959296
0.938751
0.918264
0.897827
0.877434
0.857077
0.836748
0.816438
0.79614
0.775844
0.75554
0.735221
0.714875
0.694493
0.674062
0.653569
0.633003
0.612346
0.591582
0.570694
0.549659
0.528451
0.507043
0.485401
0.463485
0.441249
0.418637
0.395578
0.371992
0.347771
0.322769
0.29679
0.269537
0.240523
0.208819
0.172231
0.123802
0.0400776
0.302279
0.566581
0.733269
0.866494
0.984907
1.09489
1.19931
1.29967
1.39686
1.49143
1.58379
1.67421
1.76287
1.84992
1.93547
2.01959
2.10232
2.18368
2.2637
2.34237
2.41968
2.4956
2.57011
2.64317
2.71475
2.78479
2.85326
2.92011
2.98529
3.04874
3.11042
3.17028
3.22826
3.28433
3.33842
3.3905
3.44052
3.48844
3.53422
3.57784
3.61924
3.65842
3.69533
3.72996
3.76229
3.7923
3.81999
3.84534
3.86835
3.88902
3.90736
3.92337
3.93706
3.94846
3.95758
3.96444
3.96907
3.9715
3.97177
3.96991
3.96596
3.95997
3.95198
3.94203
3.93018
3.91647
3.90096
3.8837
3.86475
3.84417
3.82202
3.79836
3.77327
3.74679
3.719
3.68996
3.65974
3.6284
3.59601
3.56264
3.52836
3.49322
3.45729
3.42064
3.38334
3.34543
3.30699
3.26807
3.22873
3.18903
3.14903
3.10877
3.06832
3.02771
2.98701
2.94625
2.90548
2.86475
2.82409
2.78354
2.74315
2.70294
2.66295
2.6232
2.58374
2.54458
2.50574
2.46726
2.42915
2.39143
2.35411
2.31722
2.28077
2.24475
2.2092
2.17411
2.13949
2.10534
2.07167
2.03848
2.00577
1.97354
1.94179
1.91051
1.87971
1.84937
1.81948
1.79005
1.76106
1.73251
1.70438
1.67667
1.64936
1.62245
1.59592
1.56976
1.54396
1.5185
1.49338
1.46859
1.4441
1.41991
1.396
1.37236
1.34898
1.32584
1.30294
1.28027
1.2578
1.23553
1.21344
1.19153
1.16979
1.1482
1.12675
1.10544
1.08425
1.06318
1.04222
1.02136
1.00059
0.979906
0.959294
0.938749
0.918262
0.897826
0.877432
0.857075
0.836746
0.816437
0.796138
0.775842
0.755539
0.73522
0.714874
0.694491
0.67406
0.653568
0.633002
0.612345
0.591581
0.570693
0.549658
0.52845
0.507042
0.4854
0.463485
0.441249
0.418636
0.395577
0.371992
0.34777
0.322769
0.29679
0.269537
0.240523
0.208819
0.172232
0.123802
0.0400778
0.36827
0.65545
0.835403
0.977712
1.10324
1.21949
1.32977
1.4358
1.53856
1.63865
1.73648
1.83231
1.92633
2.01867
2.10943
2.19866
2.28642
2.37271
2.45754
2.54091
2.6228
2.70319
2.78204
2.85932
2.93499
3.009
3.0813
3.15186
3.22061
3.2875
3.35249
3.41552
3.47655
3.53552
3.59239
3.64711
3.69963
3.74993
3.79796
3.84367
3.88706
3.92807
3.96669
4.0029
4.03668
4.06801
4.09689
4.1233
4.14725
4.16873
4.18775
4.20433
4.21847
4.23019
4.23951
4.24646
4.25107
4.25336
4.25337
4.25115
4.24673
4.24017
4.23149
4.22077
4.20803
4.19335
4.17676
4.15834
4.13814
4.11623
4.09266
4.0675
4.04083
4.0127
3.98318
3.95235
3.92027
3.88701
3.85264
3.81724
3.78085
3.74357
3.70545
3.66656
3.62697
3.58675
3.54595
3.50464
3.46288
3.42073
3.37825
3.3355
3.29253
3.24939
3.20614
3.16283
3.1195
3.07619
3.03296
2.98983
2.94686
2.90408
2.86152
2.81921
2.7772
2.73549
2.69413
2.65313
2.61252
2.57231
2.53253
2.49319
2.4543
2.41589
2.37795
2.34049
2.30353
2.26707
2.23111
2.19566
2.16071
2.12627
2.09233
2.05889
2.02595
1.99349
1.96153
1.93004
1.89902
1.86845
1.83834
1.80867
1.77943
1.7506
1.72219
1.69416
1.66652
1.63924
1.61232
1.58574
1.55948
1.53355
1.50791
1.48256
1.45749
1.43267
1.40811
1.38378
1.35968
1.33579
1.31209
1.28859
1.26525
1.24209
1.21908
1.19621
1.17347
1.15086
1.12837
1.10599
1.0837
1.0615
1.03938
1.01733
0.995344
0.973412
0.951526
0.929679
0.907862
0.886066
0.864282
0.842501
0.820714
0.79891
0.77708
0.755212
0.733295
0.711316
0.68926
0.667113
0.644857
0.622473
0.59994
0.577233
0.554323
0.531178
0.507758
0.484017
0.459898
0.435331
0.410233
0.384491
0.357955
0.330407
0.301515
0.270712
0.236894
0.197459
0.144334
0.0498429
0.368273
0.65545
0.835401
0.97771
1.10324
1.21948
1.32977
1.4358
1.53856
1.63865
1.73648
1.83231
1.92633
2.01867
2.10943
2.19866
2.28641
2.3727
2.45754
2.54091
2.6228
2.70318
2.78204
2.85932
2.93498
3.00899
3.0813
3.15185
3.2206
3.2875
3.35249
3.41552
3.47654
3.53551
3.59238
3.6471
3.69963
3.74992
3.79795
3.84367
3.88705
3.92806
3.96669
4.0029
4.03667
4.06801
4.09688
4.12329
4.14724
4.16872
4.18775
4.20432
4.21846
4.23018
4.23951
4.24645
4.25106
4.25335
4.25337
4.25115
4.24673
4.24016
4.23149
4.22076
4.20803
4.19334
4.17676
4.15834
4.13814
4.11622
4.09265
4.0675
4.04082
4.01269
3.98318
3.95235
3.92027
3.88701
3.85264
3.81723
3.78085
3.74357
3.70545
3.66656
3.62697
3.58674
3.54594
3.50463
3.46287
3.42073
3.37825
3.3355
3.29253
3.24939
3.20614
3.16282
3.11949
3.07619
3.03295
2.98983
2.94686
2.90408
2.86152
2.81921
2.77719
2.73549
2.69412
2.65312
2.61251
2.57231
2.53253
2.49319
2.4543
2.41588
2.37794
2.34049
2.30353
2.26707
2.23111
2.19566
2.16071
2.12626
2.09233
2.05889
2.02594
1.99349
1.96152
1.93003
1.89901
1.86845
1.83834
1.80867
1.77943
1.7506
1.72218
1.69416
1.66651
1.63924
1.61231
1.58573
1.55948
1.53354
1.50791
1.48256
1.45748
1.43267
1.40811
1.38378
1.35968
1.33578
1.31209
1.28858
1.26525
1.24209
1.21908
1.19621
1.17347
1.15086
1.12837
1.10598
1.0837
1.0615
1.03938
1.01733
0.995343
0.973411
0.951525
0.929678
0.90786
0.886064
0.864281
0.8425
0.820713
0.798909
0.777079
0.755211
0.733294
0.711315
0.689259
0.667112
0.644856
0.622473
0.599939
0.577232
0.554323
0.531178
0.507758
0.484016
0.459897
0.435331
0.410232
0.384491
0.357955
0.330407
0.301515
0.270713
0.236894
0.197459
0.144334
0.0498431
0.433132
0.740449
0.933197
1.08441
1.21695
1.33923
1.45504
1.56633
1.67419
1.77929
1.88206
1.98277
2.0816
2.17869
2.27412
2.36795
2.4602
2.55089
2.64002
2.72757
2.81354
2.89788
2.98058
3.06158
3.14084
3.21833
3.29398
3.36776
3.4396
3.50947
3.57731
3.64306
3.70668
3.76812
3.82733
3.88427
3.9389
3.99117
4.04105
4.0885
4.13349
4.176
4.216
4.25347
4.28839
4.32076
4.35055
4.37777
4.40241
4.42448
4.44399
4.46094
4.47535
4.48724
4.49663
4.50355
4.50803
4.5101
4.5098
4.50717
4.50225
4.49509
4.48575
4.47426
4.46068
4.44507
4.42748
4.40798
4.38663
4.36349
4.33863
4.31212
4.28402
4.2544
4.22334
4.1909
4.15716
4.12219
4.08605
4.04883
4.01059
3.9714
3.93134
3.89047
3.84886
3.80657
3.76369
3.72026
3.67636
3.63205
3.58738
3.54242
3.49723
3.45185
3.40634
3.36076
3.31515
3.26957
3.22405
3.17864
3.13337
3.0883
3.04346
2.99887
2.95457
2.9106
2.86697
2.82372
2.78087
2.73844
2.69645
2.65491
2.61384
2.57326
2.53317
2.49359
2.45452
2.41597
2.37794
2.34044
2.30346
2.26701
2.23108
2.19568
2.16079
2.12642
2.09255
2.05918
2.02631
1.99391
1.96198
1.93052
1.8995
1.86892
1.83877
1.80903
1.77969
1.75073
1.72215
1.69392
1.66604
1.6385
1.61126
1.58434
1.5577
1.53134
1.50524
1.47938
1.45377
1.42838
1.40319
1.37821
1.35341
1.32879
1.30433
1.28002
1.25586
1.23183
1.20792
1.18413
1.16045
1.13685
1.11334
1.08991
1.06655
1.04324
1.01999
0.996774
0.973593
0.950436
0.927294
0.904157
0.881015
0.857859
0.834677
0.811458
0.788191
0.764862
0.741458
0.717963
0.69436
0.67063
0.646751
0.622699
0.598445
0.573958
0.549197
0.524117
0.49866
0.472756
0.446314
0.419219
0.391306
0.362335
0.331928
0.299431
0.263568
0.221367
0.163779
0.0595079
0.433134
0.740449
0.933196
1.08441
1.21695
1.33923
1.45504
1.56633
1.67419
1.77929
1.88206
1.98276
2.0816
2.17869
2.27412
2.36794
2.46019
2.55088
2.64001
2.72757
2.81354
2.89788
2.98057
3.06157
3.14084
3.21832
3.29398
3.36775
3.4396
3.50947
3.5773
3.64305
3.70668
3.76812
3.82733
3.88427
3.93889
3.99116
4.04104
4.08849
4.13349
4.176
4.216
4.25347
4.28839
4.32075
4.35054
4.37776
4.40241
4.42448
4.44398
4.46093
4.47535
4.48724
4.49663
4.50355
4.50802
4.51009
4.50979
4.50716
4.50224
4.49509
4.48574
4.47425
4.46067
4.44506
4.42748
4.40798
4.38663
4.36349
4.33863
4.31211
4.28401
4.2544
4.22333
4.1909
4.15715
4.12218
4.08605
4.04882
4.01058
3.9714
3.93133
3.89046
3.84885
3.80657
3.76368
3.72026
3.67636
3.63204
3.58738
3.54242
3.49722
3.45184
3.40634
3.36076
3.31515
3.26956
3.22404
3.17863
3.13337
3.0883
3.04345
2.99886
2.95457
2.91059
2.86697
2.82372
2.78087
2.73844
2.69644
2.65491
2.61384
2.57326
2.53317
2.49359
2.45452
2.41597
2.37794
2.34043
2.30346
2.26701
2.23108
2.19568
2.16079
2.12642
2.09255
2.05918
2.0263
1.99391
1.96198
1.93051
1.8995
1.86892
1.83877
1.80902
1.77968
1.75073
1.72214
1.69392
1.66604
1.63849
1.61126
1.58433
1.5577
1.53133
1.50523
1.47938
1.45377
1.42837
1.40319
1.37821
1.35341
1.32879
1.30433
1.28002
1.25586
1.23183
1.20792
1.18413
1.16044
1.13685
1.11334
1.08991
1.06655
1.04324
1.01999
0.996773
0.973592
0.950435
0.927293
0.904156
0.881014
0.857858
0.834676
0.811457
0.78819
0.764861
0.741457
0.717962
0.694359
0.670629
0.64675
0.622699
0.598445
0.573957
0.549197
0.524116
0.49866
0.472755
0.446314
0.419219
0.391306
0.362335
0.331928
0.299432
0.263569
0.221367
0.16378
0.0595081
0.497119
0.822748
1.02788
1.18793
1.3275
1.45579
1.57703
1.69339
1.80612
1.91594
2.02333
2.12857
2.23187
2.33334
2.43307
2.5311
2.62746
2.72216
2.8152
2.90655
2.9962
3.08411
3.17025
3.25458
3.33705
3.41761
3.49622
3.57283
3.64738
3.71983
3.79013
3.85822
3.92406
3.9876
4.0488
4.1076
4.16397
4.21788
4.26928
4.31814
4.36443
4.40813
4.44921
4.48766
4.52346
4.5566
4.58707
4.61486
4.63999
4.66245
4.68225
4.69941
4.71394
4.72586
4.73519
4.74197
4.74623
4.748
4.74732
4.74423
4.73878
4.73102
4.721
4.70876
4.69437
4.67787
4.65934
4.63883
4.61641
4.59215
4.5661
4.53835
4.50895
4.47799
4.44553
4.41165
4.37641
4.33991
4.30219
4.26335
4.22345
4.18257
4.14077
4.09814
4.05473
4.01063
3.96589
3.92058
3.87478
3.82854
3.78193
3.73501
3.68783
3.64046
3.59295
3.54535
3.49771
3.45009
3.40252
3.35506
3.30775
3.26063
3.21373
3.16709
3.12075
3.07473
3.02907
2.98379
2.93891
2.89446
2.85047
2.80693
2.76389
2.72133
2.67929
2.63776
2.59677
2.5563
2.51638
2.47699
2.43815
2.39985
2.3621
2.32488
2.2882
2.25205
2.21642
2.18131
2.14671
2.1126
2.07898
2.04585
2.01317
1.98096
1.94918
1.91783
1.8869
1.85637
1.82622
1.79645
1.76704
1.73798
1.70925
1.68083
1.65271
1.62489
1.59733
1.57004
1.543
1.51619
1.4896
1.46321
1.43703
1.41103
1.3852
1.35953
1.33402
1.30865
1.28341
1.25829
1.23328
1.20837
1.18355
1.15881
1.13415
1.10955
1.085
1.0605
1.03604
1.0116
0.987182
0.962771
0.938358
0.913933
0.889485
0.865002
0.840473
0.815884
0.791222
0.76647
0.741613
0.716631
0.691503
0.666204
0.640707
0.614977
0.588976
0.562657
0.535962
0.508817
0.481126
0.452764
0.423551
0.393218
0.361339
0.327174
0.289281
0.244351
0.18247
0.0691388
0.49712
0.822747
1.02787
1.18793
1.3275
1.45579
1.57703
1.69339
1.80611
1.91594
2.02333
2.12857
2.23187
2.33334
2.43306
2.5311
2.62746
2.72216
2.8152
2.90655
2.9962
3.08411
3.17025
3.25457
3.33704
3.4176
3.49622
3.57282
3.64738
3.71983
3.79013
3.85822
3.92406
3.9876
4.04879
4.1076
4.16397
4.21787
4.26927
4.31813
4.36442
4.40812
4.44921
4.48766
4.52345
4.55659
4.58706
4.61486
4.63999
4.66244
4.68225
4.6994
4.71393
4.72585
4.73519
4.74197
4.74622
4.74799
4.74731
4.74423
4.73878
4.73102
4.72099
4.70876
4.69436
4.67787
4.65934
4.63883
4.61641
4.59214
4.5661
4.53834
4.50895
4.47798
4.44552
4.41164
4.37641
4.3399
4.30219
4.26335
4.22345
4.18256
4.14077
4.09813
4.05473
4.01062
3.96588
3.92058
3.87478
3.82854
3.78193
3.735
3.68783
3.64045
3.59294
3.54534
3.49771
3.45008
3.40252
3.35506
3.30775
3.26062
3.21373
3.16709
3.12074
3.07473
3.02906
2.98378
2.93891
2.89446
2.85046
2.80693
2.76388
2.72133
2.67929
2.63776
2.59676
2.5563
2.51637
2.47699
2.43815
2.39985
2.3621
2.32488
2.2882
2.25205
2.21642
2.18131
2.1467
2.1126
2.07898
2.04584
2.01317
1.98095
1.94918
1.91783
1.8869
1.85637
1.82622
1.79645
1.76704
1.73798
1.70924
1.68083
1.65271
1.62488
1.59733
1.57004
1.543
1.51618
1.48959
1.46321
1.43703
1.41103
1.3852
1.35953
1.33402
1.30865
1.2834
1.25828
1.23327
1.20837
1.18355
1.15881
1.13415
1.10955
1.085
1.0605
1.03604
1.0116
0.987181
0.96277
0.938358
0.913933
0.889484
0.865002
0.840472
0.815883
0.791221
0.76647
0.741613
0.716631
0.691503
0.666204
0.640706
0.614977
0.588976
0.562657
0.535962
0.508817
0.481126
0.452764
0.423551
0.393218
0.36134
0.327174
0.289282
0.244352
0.182471
0.0691391
0.560632
0.903189
1.12027
1.28918
1.43585
1.57021
1.69688
1.81827
1.93575
2.05016
2.16199
2.27156
2.37908
2.48468
2.58844
2.6904
2.7906
2.88902
2.98567
3.08052
3.17354
3.26471
3.35398
3.44131
3.52666
3.60998
3.69122
3.77034
3.84727
3.92198
3.99442
4.06453
4.13227
4.19759
4.26045
4.32081
4.37862
4.43386
4.48649
4.53647
4.58379
4.62841
4.67032
4.7095
4.74594
4.77962
4.81055
4.83872
4.86414
4.88681
4.90674
4.92394
4.93845
4.95027
4.95943
4.96597
4.96992
4.97132
4.9702
4.96661
4.9606
4.95221
4.94151
4.92853
4.91334
4.896
4.87657
4.85511
4.83169
4.80638
4.77924
4.75034
4.71976
4.68758
4.65385
4.61867
4.58209
4.5442
4.50507
4.46478
4.4234
4.38101
4.33767
4.29346
4.24845
4.20272
4.15634
4.10936
4.06186
4.01391
3.96556
3.91689
3.86795
3.81879
3.76948
3.72008
3.67063
3.62118
3.57178
3.52248
3.47333
3.42435
3.3756
3.32711
3.27892
3.23105
3.18354
3.13641
3.08969
3.04341
2.99758
2.95222
2.90736
2.863
2.81916
2.77584
2.73307
2.69083
2.64915
2.60803
2.56745
2.52744
2.48798
2.44907
2.41071
2.37289
2.33561
2.29887
2.26264
2.22693
2.19171
2.15699
2.12275
2.08898
2.05567
2.02279
1.99035
1.95831
1.92668
1.89544
1.86457
1.83405
1.80388
1.77403
1.7445
1.71527
1.68632
1.65765
1.62923
1.60106
1.57311
1.54539
1.51787
1.49054
1.46339
1.43642
1.4096
1.38294
1.35641
1.33001
1.30373
1.27755
1.25147
1.22548
1.19957
1.17373
1.14794
1.1222
1.09651
1.07085
1.0452
1.01957
0.993943
0.968303
0.942644
0.916953
0.891217
0.865425
0.839562
0.813613
0.787561
0.761386
0.735069
0.708583
0.681902
0.65499
0.62781
0.600311
0.572433
0.544097
0.515204
0.485612
0.455126
0.423448
0.3901
0.354257
0.314327
0.266687
0.200637
0.0787897
0.560633
0.903188
1.12027
1.28918
1.43585
1.57021
1.69687
1.81826
1.93575
2.05016
2.16198
2.27155
2.37907
2.48467
2.58843
2.6904
2.79059
2.88902
2.98566
3.08051
3.17354
3.2647
3.35397
3.44131
3.52666
3.60998
3.69122
3.77033
3.84727
3.92198
3.99442
4.06453
4.13226
4.19759
4.26045
4.3208
4.37862
4.43386
4.48649
4.53647
4.58379
4.62841
4.67032
4.7095
4.74593
4.77962
4.81055
4.83872
4.86413
4.8868
4.90673
4.92394
4.93844
4.95026
4.95943
4.96597
4.96992
4.97131
4.97019
4.9666
4.96059
4.95221
4.9415
4.92853
4.91334
4.896
4.87657
4.85511
4.83169
4.80637
4.77923
4.75034
4.71976
4.68757
4.65385
4.61866
4.58209
4.5442
4.50507
4.46478
4.4234
4.381
4.33766
4.29346
4.24845
4.20272
4.15633
4.10936
4.06186
4.0139
3.96556
3.91689
3.86794
3.81879
3.76948
3.72008
3.67062
3.62117
3.57178
3.52248
3.47332
3.42435
3.3756
3.32711
3.27892
3.23105
3.18353
3.13641
3.08969
3.04341
2.99758
2.95222
2.90736
2.863
2.81915
2.77584
2.73306
2.69083
2.64915
2.60802
2.56745
2.52744
2.48798
2.44907
2.41071
2.37289
2.33561
2.29886
2.26264
2.22692
2.19171
2.15699
2.12275
2.08898
2.05566
2.02279
1.99034
1.95831
1.92668
1.89544
1.86456
1.83405
1.80388
1.77403
1.7445
1.71527
1.68632
1.65765
1.62923
1.60105
1.57311
1.54538
1.51786
1.49054
1.46339
1.43641
1.4096
1.38294
1.35641
1.33001
1.30373
1.27755
1.25147
1.22548
1.19957
1.17372
1.14794
1.1222
1.09651
1.07084
1.0452
1.01957
0.993942
0.968303
0.942643
0.916952
0.891217
0.865425
0.839562
0.813613
0.78756
0.761386
0.735068
0.708583
0.681901
0.65499
0.627809
0.600311
0.572432
0.544097