/*--------------------------------*- C++ -*----------------------------------*\
  =========                 |
  \\      /  F ield         | OpenFOAM: The Open Source CFD Toolbox
   \\    /   O peration     | Website:  https://openfoam.org
    \\  /    A nd           | Version:  8
     \\/     M anipulation  |
\*---------------------------------------------------------------------------*/
FoamFile
{
    version     2.0;
    format      ascii;
    class       volScalarField;
    location    "4000";
    object      nut;
}
// * * * * * * * * * * * * * * * * * * * * * * * * * * * * * * * * * * * * * //

dimensions      [0 2 -1 0 0 0 0];

internalField   nonuniform List<scalar> 
46000
(
1.74241e-06
6.83405e-06
1.22275e-05
1.7199e-05
2.18778e-05
2.63916e-05
3.07979e-05
3.51106e-05
3.93543e-05
4.35469e-05
4.77025e-05
5.1833e-05
5.59139e-05
5.99623e-05
6.39825e-05
6.79751e-05
7.19394e-05
7.58739e-05
7.97764e-05
8.3644e-05
8.74736e-05
9.12619e-05
9.5005e-05
9.8699e-05
0.00010234
0.000105923
0.000109445
0.000112901
0.000116287
0.000119598
0.00012283
0.000125979
0.000129041
0.000132012
0.000134888
0.000137666
0.000140342
0.000142913
0.000145375
0.000147726
0.000149963
0.000152083
0.000154086
0.000155968
0.000157727
0.000159364
0.000160876
0.000162262
0.000163522
0.000164656
0.000165663
0.000166545
0.0001673
0.00016793
0.000168436
0.000168819
0.00016908
0.000169222
0.000169246
0.000169155
0.000168952
0.00016864
0.000168223
0.000167702
0.000167079
0.000166355
0.000165535
0.000164621
0.000163617
0.000162527
0.000161354
0.000160102
0.000158774
0.000157375
0.000155908
0.000154377
0.000152787
0.00015114
0.000149441
0.000147694
0.000145902
0.00014407
0.000142201
0.000140298
0.000138365
0.000136406
0.000134424
0.000132423
0.000130405
0.000128375
0.000126334
0.000124286
0.000122234
0.000120181
0.000118128
0.000116079
0.000114035
0.000112
0.000109975
0.000107962
0.000105963
0.000103979
0.000102013
0.000100065
9.81379e-05
9.62318e-05
9.43482e-05
9.2488e-05
9.06522e-05
8.88415e-05
8.70567e-05
8.52983e-05
8.35669e-05
8.18627e-05
8.01862e-05
7.85375e-05
7.69168e-05
7.53242e-05
7.37596e-05
7.2223e-05
7.07142e-05
6.92331e-05
6.77793e-05
6.63526e-05
6.49525e-05
6.35788e-05
6.2231e-05
6.09085e-05
5.96109e-05
5.83377e-05
5.70882e-05
5.5862e-05
5.46583e-05
5.34767e-05
5.23164e-05
5.11769e-05
5.00575e-05
4.89576e-05
4.78766e-05
4.68137e-05
4.57684e-05
4.47401e-05
4.37281e-05
4.27319e-05
4.17509e-05
4.07845e-05
3.98321e-05
3.88932e-05
3.79673e-05
3.70539e-05
3.61526e-05
3.52628e-05
3.43841e-05
3.35162e-05
3.26586e-05
3.18109e-05
3.09729e-05
3.01442e-05
2.93244e-05
2.85134e-05
2.77109e-05
2.69165e-05
2.61302e-05
2.53516e-05
2.45805e-05
2.38168e-05
2.30616e-05
2.23135e-05
2.15721e-05
2.08373e-05
2.01087e-05
1.93862e-05
1.86698e-05
1.79591e-05
1.7254e-05
1.65543e-05
1.58598e-05
1.51703e-05
1.44856e-05
1.38053e-05
1.31292e-05
1.24569e-05
1.1788e-05
1.11221e-05
1.04586e-05
9.79687e-06
9.13614e-06
8.47604e-06
7.8165e-06
7.1555e-06
6.49138e-06
5.82229e-06
5.14591e-06
4.45931e-06
3.75863e-06
3.03872e-06
2.293e-06
1.51534e-06
7.25993e-07
1.41983e-07
1.74381e-06
6.83707e-06
1.22301e-05
1.72002e-05
2.18782e-05
2.63918e-05
3.0798e-05
3.51107e-05
3.93544e-05
4.3547e-05
4.77026e-05
5.18331e-05
5.59139e-05
5.99624e-05
6.39825e-05
6.79751e-05
7.19395e-05
7.58739e-05
7.97763e-05
8.36439e-05
8.74736e-05
9.12618e-05
9.50049e-05
9.86989e-05
0.00010234
0.000105923
0.000109445
0.000112901
0.000116287
0.000119598
0.00012283
0.000125979
0.000129041
0.000132012
0.000134888
0.000137666
0.000140342
0.000142912
0.000145374
0.000147725
0.000149962
0.000152083
0.000154085
0.000155967
0.000157727
0.000159364
0.000160875
0.000162262
0.000163522
0.000164656
0.000165663
0.000166544
0.0001673
0.00016793
0.000168436
0.000168819
0.00016908
0.000169222
0.000169246
0.000169155
0.000168951
0.00016864
0.000168223
0.000167702
0.000167078
0.000166355
0.000165534
0.000164621
0.000163617
0.000162527
0.000161354
0.000160101
0.000158774
0.000157375
0.000155908
0.000154377
0.000152787
0.00015114
0.000149441
0.000147694
0.000145902
0.00014407
0.0001422
0.000140297
0.000138365
0.000136406
0.000134424
0.000132423
0.000130405
0.000128375
0.000126334
0.000124286
0.000122234
0.00012018
0.000118128
0.000116079
0.000114035
0.000112
0.000109975
0.000107962
0.000105962
0.000103979
0.000102013
0.000100065
9.81377e-05
9.62316e-05
9.43479e-05
9.24878e-05
9.0652e-05
8.88413e-05
8.70565e-05
8.52981e-05
8.35666e-05
8.18625e-05
8.0186e-05
7.85373e-05
7.69166e-05
7.5324e-05
7.37594e-05
7.22228e-05
7.07141e-05
6.92329e-05
6.77791e-05
6.63524e-05
6.49524e-05
6.35787e-05
6.22308e-05
6.09083e-05
5.96108e-05
5.83375e-05
5.70881e-05
5.58618e-05
5.46582e-05
5.34766e-05
5.23163e-05
5.11768e-05
5.00574e-05
4.89575e-05
4.78764e-05
4.68136e-05
4.57683e-05
4.474e-05
4.3728e-05
4.27318e-05
4.17508e-05
4.07843e-05
3.9832e-05
3.88931e-05
3.79672e-05
3.70538e-05
3.61525e-05
3.52627e-05
3.4384e-05
3.35161e-05
3.26585e-05
3.18108e-05
3.09728e-05
3.01441e-05
2.93244e-05
2.85134e-05
2.77108e-05
2.69165e-05
2.61301e-05
2.53515e-05
2.45804e-05
2.38168e-05
2.30615e-05
2.23134e-05
2.15721e-05
2.08372e-05
2.01087e-05
1.93862e-05
1.86697e-05
1.7959e-05
1.72539e-05
1.65542e-05
1.58598e-05
1.51703e-05
1.44855e-05
1.38053e-05
1.31292e-05
1.24569e-05
1.1788e-05
1.11221e-05
1.04586e-05
9.79685e-06
9.13612e-06
8.47602e-06
7.81649e-06
7.15549e-06
6.49137e-06
5.82228e-06
5.14591e-06
4.45931e-06
3.75863e-06
3.03873e-06
2.293e-06
1.51534e-06
7.25994e-07
1.41983e-07
6.25228e-06
5.68457e-05
9.58785e-05
0.000122919
0.000143874
0.000161261
0.000176231
0.000189633
0.000201923
0.000213377
0.000224165
0.000234421
0.000244246
0.000253699
0.000262824
0.000271653
0.000280216
0.000288531
0.000296616
0.000304483
0.000312141
0.000319597
0.000326857
0.000333925
0.000340803
0.000347493
0.000353996
0.000360313
0.000366443
0.000372386
0.00037814
0.000383705
0.000389079
0.000394261
0.000399249
0.000404042
0.000408638
0.000413036
0.000417236
0.000421234
0.000425031
0.000428626
0.000432017
0.000435205
0.000438188
0.000440968
0.000443543
0.000445914
0.000448082
0.000450048
0.000451812
0.000453376
0.000454741
0.000455909
0.000456882
0.000457663
0.000458252
0.000458653
0.000458869
0.000458902
0.000458755
0.00045843
0.000457931
0.000457262
0.000456429
0.000455436
0.000454287
0.000452986
0.00045154
0.000449951
0.000448225
0.000446367
0.000444381
0.000442272
0.000440046
0.000437708
0.000435262
0.000432714
0.000430068
0.000427331
0.000424506
0.000421599
0.000418615
0.000415559
0.000412435
0.000409249
0.000406006
0.00040271
0.000399365
0.000395977
0.000392549
0.000389087
0.000385593
0.000382073
0.00037853
0.000374968
0.000371392
0.000367803
0.000364206
0.000360605
0.000357002
0.0003534
0.000349802
0.000346211
0.00034263
0.000339061
0.000335506
0.000331967
0.000328446
0.000324945
0.000321467
0.000318011
0.00031458
0.000311175
0.000307797
0.000304446
0.000301125
0.000297833
0.000294571
0.000291339
0.000288138
0.000284968
0.000281828
0.00027872
0.000275643
0.000272596
0.000269579
0.000266592
0.000263635
0.000260706
0.000257805
0.000254932
0.000252085
0.000249264
0.000246467
0.000243695
0.000240945
0.000238217
0.000235509
0.000232821
0.000230152
0.000227499
0.000224863
0.000222242
0.000219634
0.000217039
0.000214455
0.000211882
0.000209316
0.000206759
0.000204208
0.000201662
0.00019912
0.000196581
0.000194043
0.000191505
0.000188967
0.000186427
0.000183883
0.000181335
0.000178781
0.00017622
0.00017365
0.00017107
0.000168477
0.000165869
0.000163239
0.000160594
0.000157932
0.00015525
0.000152546
0.00014982
0.000147068
0.000144288
0.000141476
0.00013863
0.000135746
0.00013282
0.000129847
0.000126822
0.000123738
0.000120588
0.000117363
0.000114054
0.000110648
0.000107129
0.000103477
9.96625e-05
9.56542e-05
9.14279e-05
8.69367e-05
8.21187e-05
7.68883e-05
7.11221e-05
6.46324e-05
5.71108e-05
4.79966e-05
3.61137e-05
1.87382e-05
6.55492e-07
6.25027e-06
5.68449e-05
9.58812e-05
0.000122922
0.000143877
0.000161264
0.000176234
0.000189636
0.000201926
0.00021338
0.000224168
0.000234424
0.00024425
0.000253703
0.000262827
0.000271657
0.000280219
0.000288535
0.00029662
0.000304486
0.000312144
0.000319601
0.000326861
0.000333928
0.000340807
0.000347497
0.000354001
0.000360317
0.000366447
0.00037239
0.000378144
0.000383709
0.000389083
0.000394265
0.000399253
0.000404046
0.000408643
0.000413041
0.00041724
0.000421239
0.000425036
0.00042863
0.000432022
0.000435209
0.000438193
0.000440972
0.000443548
0.000445919
0.000448087
0.000450053
0.000451817
0.000453381
0.000454746
0.000455914
0.000456887
0.000457667
0.000458257
0.000458658
0.000458874
0.000458907
0.00045876
0.000458435
0.000457936
0.000457267
0.000456434
0.00045544
0.000454291
0.000452991
0.000451544
0.000449955
0.000448229
0.000446371
0.000444385
0.000442277
0.000440051
0.000437712
0.000435266
0.000432718
0.000430073
0.000427335
0.00042451
0.000421603
0.000418619
0.000415563
0.000412439
0.000409253
0.00040601
0.000402714
0.000399369
0.000395981
0.000392553
0.00038909
0.000385597
0.000382077
0.000378534
0.000374972
0.000371395
0.000367806
0.00036421
0.000360608
0.000357005
0.000353403
0.000349805
0.000346215
0.000342633
0.000339064
0.000335509
0.00033197
0.000328449
0.000324948
0.000321469
0.000318014
0.000314583
0.000311177
0.000307799
0.000304449
0.000301127
0.000297835
0.000294573
0.000291341
0.00028814
0.00028497
0.000281831
0.000278722
0.000275645
0.000272598
0.000269581
0.000266594
0.000263637
0.000260708
0.000257807
0.000254934
0.000252087
0.000249266
0.000246469
0.000243696
0.000240946
0.000238218
0.000235511
0.000232823
0.000230153
0.000227501
0.000224865
0.000222243
0.000219636
0.000217041
0.000214457
0.000211883
0.000209318
0.00020676
0.000204209
0.000201663
0.000199121
0.000196582
0.000194044
0.000191506
0.000188968
0.000186428
0.000183884
0.000181336
0.000178782
0.000176221
0.000173651
0.000171071
0.000168478
0.00016587
0.00016324
0.000160595
0.000157932
0.00015525
0.000152547
0.000149821
0.000147069
0.000144288
0.000141477
0.000138631
0.000135747
0.000132821
0.000129848
0.000126823
0.000123739
0.000120589
0.000117364
0.000114055
0.000110648
0.000107129
0.000103477
9.9663e-05
9.56546e-05
9.14283e-05
8.6937e-05
8.2119e-05
7.68886e-05
7.11224e-05
6.46326e-05
5.7111e-05
4.79968e-05
3.61138e-05
1.87381e-05
6.55493e-07
1.14149e-05
9.28035e-05
0.000170642
0.000228909
0.000274138
0.000310754
0.000341525
0.000368213
0.000391924
0.000413395
0.000433127
0.000451469
0.000468674
0.000484923
0.000500348
0.000515051
0.000529112
0.000542595
0.00055555
0.000568018
0.000580032
0.000591619
0.000602801
0.000613597
0.000624021
0.000634087
0.000643805
0.000653183
0.00066223
0.000670951
0.000679351
0.000687436
0.000695208
0.000702671
0.000709828
0.000716681
0.000723233
0.000729485
0.00073544
0.000741099
0.000746464
0.000751537
0.000756318
0.000760811
0.000765017
0.000768938
0.000772576
0.000775933
0.000779011
0.000781813
0.000784342
0.0007866
0.000788589
0.000790314
0.000791777
0.000792981
0.00079393
0.000794628
0.000795076
0.00079528
0.000795241
0.000794963
0.000794448
0.000793704
0.000792738
0.000791557
0.000790167
0.000788572
0.000786779
0.000784793
0.00078262
0.000780266
0.000777737
0.000775039
0.000772177
0.000769157
0.000765986
0.000762669
0.000759213
0.000755623
0.000751906
0.000748067
0.000744113
0.000740049
0.000735882
0.000731616
0.000727259
0.000722815
0.000718291
0.000713691
0.000709022
0.000704289
0.000699497
0.000694651
0.000689757
0.000684819
0.000679842
0.000674831
0.00066979
0.000664724
0.000659636
0.000654532
0.000649414
0.000644287
0.000639154
0.000634019
0.000628884
0.000623753
0.000618629
0.000613514
0.000608411
0.000603322
0.00059825
0.000593196
0.000588161
0.000583149
0.000578159
0.000573194
0.000568253
0.000563339
0.000558452
0.000553592
0.00054876
0.000543956
0.00053918
0.000534432
0.000529711
0.000525018
0.000520352
0.000515712
0.000511097
0.000506507
0.000501941
0.000497397
0.000492874
0.000488372
0.000483888
0.000479422
0.000474972
0.000470535
0.000466112
0.0004617
0.000457297
0.000452902
0.000448512
0.000444127
0.000439744
0.000435361
0.000430977
0.000426588
0.000422195
0.000417794
0.000413383
0.000408961
0.000404525
0.000400074
0.000395604
0.000391114
0.000386602
0.000382065
0.0003775
0.000372905
0.000368276
0.00036361
0.000358901
0.000354145
0.000349334
0.000344471
0.000339554
0.000334578
0.00032954
0.000324434
0.000319254
0.000313993
0.000308643
0.000303197
0.000297644
0.000291973
0.000286172
0.000280225
0.000274116
0.000267824
0.000261326
0.000254593
0.00024759
0.000240275
0.000232594
0.000224478
0.000215837
0.000206585
0.00019659
0.000185676
0.0001736
0.000160012
0.000144394
0.000125928
0.000103253
7.40053e-05
3.49396e-05
1.37105e-06
1.14142e-05
9.28042e-05
0.000170646
0.000228914
0.000274144
0.00031076
0.000341531
0.000368218
0.000391929
0.0004134
0.000433133
0.000451474
0.00046868
0.000484929
0.000500353
0.000515056
0.000529118
0.000542601
0.000555556
0.000568024
0.000580038
0.000591625
0.000602807
0.000613603
0.000624027
0.000634093
0.000643811
0.000653189
0.000662236
0.000670957
0.000679357
0.000687442
0.000695214
0.000702677
0.000709834
0.000716687
0.000723239
0.000729492
0.000735446
0.000741105
0.00074647
0.000751543
0.000756325
0.000760818
0.000765024
0.000768944
0.000772582
0.000775939
0.000779017
0.00078182
0.000784348
0.000786606
0.000788595
0.00079032
0.000791783
0.000792987
0.000793936
0.000794634
0.000795082
0.000795286
0.000795247
0.000794968
0.000794453
0.00079371
0.000792744
0.000791563
0.000790172
0.000788577
0.000786784
0.000784798
0.000782625
0.000780272
0.000777742
0.000775044
0.000772182
0.000769162
0.000765991
0.000762674
0.000759218
0.000755628
0.000751911
0.000748072
0.000744118
0.000740054
0.000735886
0.00073162
0.000727263
0.000722819
0.000718295
0.000713695
0.000709026
0.000704293
0.000699501
0.000694655
0.000689761
0.000684823
0.000679845
0.000674834
0.000669793
0.000664727
0.000659639
0.000654535
0.000649417
0.00064429
0.000639157
0.000634021
0.000628887
0.000623756
0.000618632
0.000613517
0.000608414
0.000603325
0.000598252
0.000593198
0.000588164
0.000583151
0.000578161
0.000573196
0.000568255
0.000563341
0.000558454
0.000553594
0.000548762
0.000543958
0.000539182
0.000534433
0.000529713
0.00052502
0.000520353
0.000515713
0.000511098
0.000506508
0.000501942
0.000497398
0.000492875
0.000488373
0.000483889
0.000479423
0.000474972
0.000470536
0.000466113
0.000461701
0.000457298
0.000452903
0.000448513
0.000444128
0.000439745
0.000435362
0.000430977
0.000426589
0.000422195
0.000417794
0.000413384
0.000408962
0.000404526
0.000400074
0.000395605
0.000391115
0.000386602
0.000382065
0.000377501
0.000372905
0.000368276
0.00036361
0.000358901
0.000354145
0.000349334
0.000344471
0.000339554
0.000334579
0.00032954
0.000324434
0.000319254
0.000313993
0.000308643
0.000303197
0.000297644
0.000291973
0.000286172
0.000280225
0.000274116
0.000267824
0.000261326
0.000254593
0.00024759
0.000240275
0.000232594
0.000224478
0.000215837
0.000206585
0.00019659
0.000185676
0.0001736
0.000160012
0.000144394
0.000125928
0.000103253
7.40054e-05
3.49394e-05
1.37105e-06
1.63179e-05
0.000118386
0.000225875
0.000312694
0.00038267
0.000440285
0.000488952
0.00053103
0.000568141
0.000601417
0.000631666
0.000659474
0.00068527
0.000709377
0.000732037
0.000753438
0.00077373
0.000793029
0.000811431
0.000829015
0.000845843
0.000861969
0.000877437
0.000892285
0.000906543
0.000920239
0.000933396
0.000946034
0.000958171
0.000969822
0.000981
0.000991716
0.00100198
0.00101181
0.0010212
0.00103017
0.00103872
0.00104686
0.00105459
0.00106193
0.00106887
0.00107542
0.00108159
0.00108738
0.0010928
0.00109784
0.00110253
0.00110685
0.00111081
0.00111443
0.0011177
0.00112062
0.00112321
0.00112547
0.0011274
0.00112901
0.0011303
0.00113127
0.00113194
0.0011323
0.00113236
0.00113213
0.0011316
0.00113079
0.0011297
0.00112834
0.00112673
0.00112486
0.00112274
0.00112038
0.00111779
0.00111498
0.00111194
0.00110869
0.00110524
0.00110158
0.00109773
0.0010937
0.00108949
0.00108511
0.00108056
0.00107585
0.00107099
0.00106599
0.00106085
0.00105558
0.00105018
0.00104467
0.00103904
0.00103331
0.00102749
0.00102157
0.00101556
0.00100947
0.00100331
0.000997087
0.000990797
0.00098445
0.000978053
0.000971609
0.000965124
0.000958603
0.000952052
0.000945473
0.000938872
0.000932254
0.000925621
0.000918978
0.000912328
0.000905675
0.000899022
0.000892372
0.000885727
0.000879091
0.000872465
0.000865851
0.000859252
0.000852669
0.000846103
0.000839556
0.000833028
0.000826521
0.000820035
0.000813571
0.000807127
0.000800706
0.000794305
0.000787926
0.000781567
0.000775228
0.000768908
0.000762605
0.000756319
0.000750049
0.000743792
0.000737548
0.000731315
0.00072509
0.000718872
0.00071266
0.000706451
0.000700242
0.000694032
0.000687819
0.0006816
0.000675372
0.000669134
0.000662883
0.000656616
0.00065033
0.000644023
0.000637693
0.000631335
0.000624948
0.000618529
0.000612074
0.000605579
0.000599043
0.00059246
0.000585828
0.000579143
0.000572398
0.00056559
0.000558712
0.000551758
0.000544721
0.000537592
0.000530371
0.000523051
0.000515626
0.000508088
0.000500427
0.000492634
0.000484696
0.0004766
0.00046833
0.00045987
0.000451199
0.000442295
0.00043313
0.000423675
0.000413892
0.000403739
0.000393165
0.000382107
0.000370492
0.000358226
0.000345194
0.00033125
0.000316222
0.000299891
0.000281959
0.000262024
0.000239532
0.000213693
0.000183354
0.000146794
0.000101554
4.59414e-05
2.08256e-06
1.63181e-05
0.000118388
0.00022588
0.0003127
0.000382678
0.000440293
0.000488961
0.000531039
0.000568149
0.000601425
0.000631675
0.000659482
0.000685278
0.000709385
0.000732045
0.000753446
0.000773738
0.000793037
0.000811439
0.000829023
0.000845851
0.000861977
0.000877445
0.000892292
0.000906551
0.000920247
0.000933404
0.000946042
0.000958179
0.00096983
0.000981007
0.000991724
0.00100199
0.00101182
0.00102121
0.00103018
0.00103873
0.00104687
0.0010546
0.00106193
0.00106888
0.00107543
0.0010816
0.00108739
0.0010928
0.00109785
0.00110253
0.00110685
0.00111082
0.00111444
0.0011177
0.00112063
0.00112322
0.00112548
0.00112741
0.00112902
0.0011303
0.00113128
0.00113195
0.00113231
0.00113237
0.00113213
0.0011316
0.00113079
0.0011297
0.00112835
0.00112673
0.00112486
0.00112275
0.00112039
0.0011178
0.00111498
0.00111195
0.0011087
0.00110524
0.00110159
0.00109774
0.00109371
0.00108949
0.00108511
0.00108056
0.00107586
0.001071
0.00106599
0.00106085
0.00105558
0.00105019
0.00104467
0.00103905
0.00103332
0.00102749
0.00102157
0.00101556
0.00100948
0.00100332
0.00099709
0.0009908
0.000984453
0.000978055
0.000971612
0.000965127
0.000958606
0.000952054
0.000945476
0.000938875
0.000932256
0.000925623
0.00091898
0.00091233
0.000905677
0.000899024
0.000892374
0.000885729
0.000879092
0.000872466
0.000865853
0.000859253
0.00085267
0.000846104
0.000839557
0.00083303
0.000826522
0.000820036
0.000813572
0.000807128
0.000800707
0.000794306
0.000787927
0.000781568
0.000775229
0.000768908
0.000762606
0.00075632
0.000750049
0.000743793
0.000737548
0.000731315
0.00072509
0.000718873
0.00071266
0.000706451
0.000700242
0.000694032
0.000687819
0.0006816
0.000675372
0.000669134
0.000662883
0.000656616
0.00065033
0.000644023
0.000637692
0.000631335
0.000624948
0.000618528
0.000612073
0.000605579
0.000599042
0.00059246
0.000585828
0.000579142
0.000572397
0.000565589
0.000558711
0.000551757
0.00054472
0.000537592
0.00053037
0.000523051
0.000515625
0.000508087
0.000500426
0.000492633
0.000484695
0.000476599
0.00046833
0.00045987
0.000451199
0.000442294
0.00043313
0.000423674
0.000413891
0.000403738
0.000393164
0.000382107
0.000370492
0.000358226
0.000345193
0.00033125
0.000316222
0.000299891
0.000281959
0.000262024
0.000239532
0.000213693
0.000183354
0.000146794
0.000101554
4.59411e-05
2.08256e-06
2.1036e-05
0.00013899
0.000269465
0.000380386
0.000472786
0.000550528
0.000617001
0.000674795
0.000725823
0.000771499
0.000812872
0.000850727
0.00088566
0.000918125
0.000948474
0.000976983
0.00100387
0.00102932
0.00105346
0.00107643
0.0010983
0.00111918
0.00113912
0.00115818
0.00117641
0.00119387
0.00121057
0.00122656
0.00124187
0.00125652
0.00127053
0.00128392
0.00129672
0.00130893
0.00132057
0.00133167
0.00134222
0.00135224
0.00136174
0.00137074
0.00137924
0.00138724
0.00139477
0.00140183
0.00140842
0.00141456
0.00142025
0.0014255
0.00143032
0.00143471
0.00143868
0.00144223
0.00144538
0.00144814
0.0014505
0.00145247
0.00145407
0.00145529
0.00145614
0.00145664
0.00145678
0.00145656
0.00145601
0.00145512
0.0014539
0.00145237
0.00145053
0.00144838
0.00144595
0.00144323
0.00144024
0.00143698
0.00143345
0.00142967
0.00142565
0.00142139
0.0014169
0.00141219
0.00140726
0.00140213
0.00139679
0.00139127
0.00138556
0.00137968
0.00137362
0.00136741
0.00136104
0.00135452
0.00134787
0.00134108
0.00133417
0.00132714
0.00132
0.00131276
0.00130542
0.00129799
0.00129047
0.00128288
0.00127522
0.00126749
0.0012597
0.00125186
0.00124397
0.00123603
0.00122806
0.00122006
0.00121203
0.00120397
0.00119589
0.0011878
0.00117969
0.00117158
0.00116346
0.00115533
0.00114721
0.00113909
0.00113098
0.00112287
0.00111477
0.00110668
0.0010986
0.00109053
0.00108247
0.00107443
0.0010664
0.00105839
0.00105038
0.00104239
0.00103442
0.00102645
0.00101849
0.00101054
0.0010026
0.000994668
0.000986738
0.000978809
0.000970881
0.000962951
0.000955017
0.000947077
0.000939127
0.000931166
0.000923191
0.000915199
0.000907186
0.000899151
0.00089109
0.000883
0.000874877
0.000866719
0.000858522
0.000850282
0.000841996
0.00083366
0.00082527
0.000816821
0.000808311
0.000799733
0.000791084
0.000782357
0.000773547
0.000764647
0.000755651
0.000746551
0.000737338
0.000728003
0.000718537
0.000708933
0.000699182
0.000689274
0.000679198
0.000668938
0.000658481
0.000647808
0.0006369
0.000625733
0.000614283
0.00060252
0.000590408
0.00057791
0.000564979
0.000551561
0.000537594
0.000523002
0.000507697
0.00049157
0.000474489
0.000456293
0.000436783
0.00041571
0.000392773
0.000367572
0.000339582
0.000308104
0.000272191
0.000230548
0.000181428
0.000122747
5.44572e-05
2.77627e-06
2.10364e-05
0.000138993
0.00026947
0.000380394
0.000472795
0.000550537
0.000617012
0.000674805
0.000725834
0.00077151
0.000812883
0.000850738
0.000885671
0.000918135
0.000948484
0.000976994
0.00100388
0.00102933
0.00105347
0.00107644
0.00109831
0.00111919
0.00113913
0.00115819
0.00117642
0.00119387
0.00121058
0.00122657
0.00124188
0.00125653
0.00127054
0.00128393
0.00129673
0.00130894
0.00132058
0.00133167
0.00134222
0.00135225
0.00136175
0.00137075
0.00137924
0.00138725
0.00139478
0.00140184
0.00140843
0.00141457
0.00142026
0.00142551
0.00143032
0.00143471
0.00143868
0.00144224
0.00144539
0.00144814
0.00145051
0.00145248
0.00145407
0.0014553
0.00145615
0.00145664
0.00145678
0.00145657
0.00145601
0.00145512
0.00145391
0.00145237
0.00145053
0.00144839
0.00144596
0.00144324
0.00144024
0.00143698
0.00143346
0.00142968
0.00142566
0.0014214
0.00141691
0.00141219
0.00140727
0.00140213
0.0013968
0.00139127
0.00138557
0.00137968
0.00137363
0.00136741
0.00136104
0.00135453
0.00134787
0.00134108
0.00133417
0.00132714
0.00132
0.00131276
0.00130542
0.00129799
0.00129048
0.00128288
0.00127522
0.00126749
0.0012597
0.00125186
0.00124397
0.00123604
0.00122807
0.00122006
0.00121203
0.00120397
0.00119589
0.0011878
0.00117969
0.00117158
0.00116346
0.00115534
0.00114721
0.00113909
0.00113098
0.00112287
0.00111477
0.00110668
0.0010986
0.00109053
0.00108247
0.00107443
0.0010664
0.00105839
0.00105038
0.00104239
0.00103442
0.00102645
0.00101849
0.00101054
0.0010026
0.000994669
0.000986738
0.000978809
0.000970881
0.000962951
0.000955017
0.000947077
0.000939127
0.000931166
0.000923191
0.000915198
0.000907186
0.000899151
0.000891089
0.000882999
0.000874877
0.000866718
0.000858521
0.000850281
0.000841995
0.000833659
0.000825269
0.000816821
0.00080831
0.000799732
0.000791083
0.000782356
0.000773546
0.000764646
0.00075565
0.00074655
0.000737337
0.000728002
0.000718536
0.000708932
0.000699181
0.000689273
0.000679197
0.000668937
0.00065848
0.000647807
0.000636899
0.000625732
0.000614282
0.000602519
0.000590407
0.000577909
0.000564978
0.00055156
0.000537593
0.000523001
0.000507696
0.000491569
0.000474488
0.000456292
0.000436782
0.00041571
0.000392773
0.000367572
0.000339582
0.000308104
0.000272191
0.000230548
0.000181428
0.000122747
5.44569e-05
2.77628e-06
2.56573e-05
0.000156601
0.000305602
0.000436908
0.000549172
0.000645382
0.000728661
0.000801612
0.000866287
0.000924269
0.000976779
0.00102476
0.00106894
0.00110988
0.00114805
0.00118379
0.0012174
0.0012491
0.00127909
0.00130752
0.00133453
0.00136022
0.00138469
0.00140802
0.00143028
0.00145153
0.00147182
0.00149119
0.00150968
0.00152734
0.00154419
0.00156026
0.00157558
0.00159017
0.00160406
0.00161726
0.00162979
0.00164167
0.00165292
0.00166355
0.00167357
0.001683
0.00169186
0.00170014
0.00170788
0.00171506
0.00172172
0.00172786
0.00173348
0.0017386
0.00174323
0.00174738
0.00175106
0.00175426
0.00175702
0.00175932
0.00176119
0.00176263
0.00176364
0.00176424
0.00176443
0.00176422
0.00176361
0.00176263
0.00176127
0.00175955
0.00175747
0.00175505
0.0017523
0.00174922
0.00174583
0.00174212
0.00173812
0.00173383
0.00172926
0.00172441
0.0017193
0.00171394
0.00170832
0.00170247
0.00169639
0.00169008
0.00168356
0.00167684
0.00166992
0.00166281
0.00165552
0.00164806
0.00164043
0.00163265
0.00162472
0.00161665
0.00160845
0.00160012
0.00159167
0.00158311
0.00157445
0.00156569
0.00155684
0.00154791
0.00153891
0.00152983
0.00152069
0.00151149
0.00150224
0.00149294
0.0014836
0.00147422
0.00146481
0.00145537
0.00144591
0.00143642
0.00142693
0.00141741
0.00140789
0.00139836
0.00138883
0.00137929
0.00136976
0.00136022
0.00135068
0.00134115
0.00133162
0.0013221
0.00131258
0.00130307
0.00129356
0.00128405
0.00127454
0.00126504
0.00125554
0.00124603
0.00123653
0.00122702
0.0012175
0.00120797
0.00119844
0.00118888
0.00117932
0.00116973
0.00116012
0.00115049
0.00114082
0.00113113
0.0011214
0.00111163
0.00110182
0.00109197
0.00108206
0.0010721
0.00106208
0.001052
0.00104185
0.00103163
0.00102133
0.00101095
0.00100048
0.000989925
0.000979265
0.000968499
0.000957618
0.000946616
0.000935482
0.000924208
0.000912783
0.000901196
0.000889434
0.000877487
0.000865343
0.000852987
0.000840404
0.000827574
0.000814478
0.000801091
0.000787387
0.000773336
0.000758903
0.000744049
0.000728728
0.000712888
0.000696469
0.000679398
0.000661593
0.000642957
0.000623373
0.000602702
0.000580777
0.000557393
0.000532303
0.0005052
0.00047571
0.000443357
0.000407533
0.00036745
0.000322093
0.000270148
0.00021
0.000140047
6.15783e-05
3.45798e-06
2.56575e-05
0.000156604
0.000305607
0.000436916
0.000549181
0.000645393
0.000728672
0.000801624
0.000866299
0.000924282
0.000976792
0.00102477
0.00106895
0.0011099
0.00114806
0.0011838
0.00121741
0.00124911
0.0012791
0.00130753
0.00133454
0.00136023
0.0013847
0.00140804
0.00143029
0.00145154
0.00147183
0.0014912
0.00150969
0.00152735
0.0015442
0.00156027
0.00157559
0.00159018
0.00160407
0.00161727
0.0016298
0.00164168
0.00165293
0.00166356
0.00167358
0.00168301
0.00169186
0.00170015
0.00170788
0.00171507
0.00172173
0.00172787
0.00173349
0.00173861
0.00174324
0.00174739
0.00175106
0.00175427
0.00175703
0.00175933
0.0017612
0.00176263
0.00176365
0.00176425
0.00176443
0.00176422
0.00176362
0.00176263
0.00176128
0.00175955
0.00175748
0.00175506
0.00175231
0.00174923
0.00174583
0.00174213
0.00173813
0.00173384
0.00172926
0.00172442
0.00171931
0.00171394
0.00170833
0.00170248
0.00169639
0.00169009
0.00168357
0.00167685
0.00166993
0.00166282
0.00165553
0.00164806
0.00164044
0.00163266
0.00162473
0.00161665
0.00160845
0.00160012
0.00159167
0.00158311
0.00157445
0.00156569
0.00155685
0.00154792
0.00153891
0.00152983
0.00152069
0.00151149
0.00150224
0.00149294
0.0014836
0.00147422
0.00146481
0.00145537
0.00144591
0.00143643
0.00142693
0.00141742
0.00140789
0.00139836
0.00138883
0.00137929
0.00136976
0.00136022
0.00135068
0.00134115
0.00133163
0.0013221
0.00131258
0.00130307
0.00129356
0.00128405
0.00127454
0.00126504
0.00125554
0.00124603
0.00123653
0.00122702
0.0012175
0.00120797
0.00119844
0.00118888
0.00117932
0.00116973
0.00116012
0.00115049
0.00114082
0.00113113
0.0011214
0.00111163
0.00110182
0.00109197
0.00108206
0.0010721
0.00106208
0.001052
0.00104185
0.00103163
0.00102133
0.00101095
0.00100048
0.000989924
0.000979264
0.000968498
0.000957618
0.000946615
0.000935481
0.000924207
0.000912782
0.000901195
0.000889433
0.000877486
0.000865342
0.000852986
0.000840403
0.000827573
0.000814477
0.00080109
0.000787386
0.000773335
0.000758902
0.000744048
0.000728727
0.000712887
0.000696468
0.000679397
0.000661592
0.000642956
0.000623372
0.000602701
0.000580776
0.000557392
0.000532303
0.0005052
0.00047571
0.000443357
0.000407533
0.000367451
0.000322093
0.000270149
0.00021
0.000140047
6.1578e-05
3.45799e-06
3.02027e-05
0.000172176
0.00033676
0.000485547
0.000615333
0.000728236
0.000827022
0.000914205
0.000991872
0.0010617
0.00112503
0.0011829
0.00123616
0.00128548
0.00133138
0.00137429
0.00141456
0.00145248
0.00148828
0.00152216
0.00155427
0.00158477
0.00161375
0.00164134
0.0016676
0.00169262
0.00171647
0.0017392
0.00176086
0.00178151
0.00180117
0.0018199
0.00183771
0.00185466
0.00187075
0.00188603
0.00190051
0.00191422
0.00192717
0.0019394
0.00195091
0.00196173
0.00197187
0.00198135
0.00199018
0.00199838
0.00200597
0.00201295
0.00201935
0.00202516
0.00203041
0.00203511
0.00203927
0.0020429
0.00204601
0.00204862
0.00205072
0.00205234
0.00205349
0.00205416
0.00205438
0.00205415
0.00205347
0.00205237
0.00205086
0.00204893
0.00204661
0.00204391
0.00204083
0.00203739
0.00203359
0.00202945
0.00202498
0.00202018
0.00201506
0.00200964
0.00200393
0.00199792
0.00199164
0.0019851
0.00197829
0.00197123
0.00196393
0.0019564
0.00194865
0.00194069
0.00193252
0.00192415
0.0019156
0.00190687
0.00189797
0.00188891
0.0018797
0.00187034
0.00186084
0.00185122
0.00184147
0.00183161
0.00182165
0.00181158
0.00180143
0.00179119
0.00178087
0.00177048
0.00176003
0.00174951
0.00173895
0.00172833
0.00171767
0.00170697
0.00169624
0.00168547
0.00167468
0.00166387
0.00165304
0.00164219
0.00163133
0.00162046
0.00160957
0.00159868
0.00158779
0.00157688
0.00156598
0.00155507
0.00154415
0.00153323
0.00152231
0.00151138
0.00150044
0.0014895
0.00147854
0.00146758