/*--------------------------------*- C++ -*----------------------------------*\
  =========                 |
  \\      /  F ield         | OpenFOAM: The Open Source CFD Toolbox
   \\    /   O peration     | Website:  https://openfoam.org
    \\  /    A nd           | Version:  8
     \\/     M anipulation  |
\*---------------------------------------------------------------------------*/
FoamFile
{
    version     2.0;
    format      ascii;
    class       surfaceScalarField;
    location    "4000";
    object      phi;
}
// * * * * * * * * * * * * * * * * * * * * * * * * * * * * * * * * * * * * * //

dimensions      [1 0 -1 0 0 0 0];

internalField   nonuniform List<scalar> 
114370
(
6.93118e-10
9.12079e-14
-6.9321e-10
1.73265e-09
2.62658e-12
-1.05715e-09
2.63521e-09
2.03655e-12
-8.97729e-10
3.18214e-09
9.57399e-13
-5.45557e-10
3.37248e-09
2.90053e-13
-1.90332e-10
3.25339e-09
2.04238e-14
1.18839e-10
2.88145e-09
-4.21252e-14
3.71748e-10
2.30879e-09
-3.46659e-14
5.7253e-10
1.57879e-09
-1.56623e-14
7.29881e-10
7.26095e-10
-1.34805e-15
8.52584e-10
-2.2153e-10
6.83468e-15
9.47504e-10
-1.24116e-09
1.0477e-14
1.0195e-09
-2.31453e-09
1.12374e-14
1.07325e-09
-3.42768e-09
1.05132e-14
1.11303e-09
-4.56931e-09
9.27613e-15
1.14151e-09
-5.73022e-09
8.14149e-15
1.16079e-09
-6.90286e-09
7.32897e-15
1.17252e-09
-8.08096e-09
6.77015e-15
1.17799e-09
-9.25929e-09
6.30046e-15
1.17822e-09
-1.04334e-08
5.80865e-15
1.17403e-09
-1.15996e-08
5.28204e-15
1.1661e-09
-1.27547e-08
4.77288e-15
1.15496e-09
-1.38959e-08
4.34277e-15
1.14106e-09
-1.50207e-08
4.02444e-15
1.12477e-09
-1.61272e-08
3.81274e-15
1.10639e-09
-1.72135e-08
3.67992e-15
1.08618e-09
-1.82779e-08
3.59263e-15
1.06436e-09
-1.93191e-08
3.52448e-15
1.04111e-09
-2.03358e-08
3.45997e-15
1.01658e-09
-2.13268e-08
3.3909e-15
9.9093e-10
-2.22912e-08
3.31522e-15
9.64262e-10
-2.3228e-08
3.23249e-15
9.36688e-10
-2.41363e-08
3.14081e-15
9.08302e-10
-2.50156e-08
3.03933e-15
8.79189e-10
-2.58651e-08
2.92554e-15
8.49426e-10
-2.66843e-08
2.797e-15
8.19083e-10
-2.74726e-08
2.64993e-15
7.88226e-10
-2.82295e-08
2.48431e-15
7.56917e-10
-2.89548e-08
2.30059e-15
7.25212e-10
-2.96481e-08
2.10104e-15
6.93166e-10
-3.03089e-08
1.89119e-15
6.6083e-10
-3.09373e-08
1.6776e-15
6.28254e-10
-3.15328e-08
1.46862e-15
5.95485e-10
-3.20954e-08
1.27107e-15
5.6257e-10
-3.2625e-08
1.09223e-15
5.29554e-10
-3.31216e-08
9.36052e-16
4.9648e-10
-3.3585e-08
8.04102e-16
4.63391e-10
-3.40154e-08
6.95735e-16
4.30328e-10
-3.44127e-08
6.07045e-16
3.97334e-10
-3.47772e-08
5.32993e-16
3.64447e-10
-3.51089e-08
4.68156e-16
3.31707e-10
-3.54081e-08
4.07114e-16
2.99153e-10
-3.5675e-08
3.45801e-16
2.66822e-10
-3.59098e-08
2.81832e-16
2.34753e-10
-3.61128e-08
2.13851e-16
2.0298e-10
-3.62843e-08
1.41588e-16
1.71541e-10
-3.64248e-08
6.63433e-17
1.40471e-10
-3.65346e-08
-9.60622e-18
1.09803e-10
-3.66142e-08
-8.31163e-17
7.95705e-11
-3.6664e-08
-1.50609e-16
4.98023e-11
-3.66846e-08
-2.08452e-16
2.05253e-11
-3.66764e-08
-2.5399e-16
-8.23142e-12
-3.66399e-08
-2.86571e-16
-3.6436e-11
-3.65759e-08
-3.0728e-16
-6.40635e-11
-3.64848e-08
-3.18286e-16
-9.10956e-11
-3.63673e-08
-3.2257e-16
-1.1751e-10
-3.6224e-08
-3.24143e-16
-1.43283e-10
-3.60556e-08
-3.2577e-16
-1.6839e-10
-3.58628e-08
-3.29837e-16
-1.92809e-10
-3.56463e-08
-3.37373e-16
-2.1652e-10
-3.54068e-08
-3.47674e-16
-2.39504e-10
-3.51451e-08
-3.6177e-16
-2.61746e-10
-3.48619e-08
-3.77438e-16
-2.8323e-10
-3.45579e-08
-3.93594e-16
-3.03943e-10
-3.42341e-08
-4.08665e-16
-3.23874e-10
-3.38911e-08
-4.21623e-16
-3.43012e-10
-3.35297e-08
-4.31273e-16
-3.61349e-10
-3.31508e-08
-4.36749e-16
-3.78878e-10
-3.27553e-08
-4.37022e-16
-3.95594e-10
-3.23438e-08
-4.31602e-16
-4.11493e-10
-3.19172e-08
-4.21086e-16
-4.26572e-10
-3.14764e-08
-4.05312e-16
-4.4083e-10
-3.10221e-08
-3.85581e-16
-4.54268e-10
-3.05552e-08
-3.62651e-16
-4.66888e-10
-3.00766e-08
-3.38366e-16
-4.78693e-10
-2.95869e-08
-3.13485e-16
-4.89688e-10
-2.9087e-08
-2.89959e-16
-4.99878e-10
-2.85778e-08
-2.68601e-16
-5.09272e-10
-2.80599e-08
-2.49737e-16
-5.17878e-10
-2.75342e-08
-2.33801e-16
-5.25705e-10
-2.70014e-08
-2.21171e-16
-5.32764e-10
-2.64624e-08
-2.10764e-16
-5.39068e-10
-2.59178e-08
-2.02525e-16
-5.44629e-10
-2.53683e-08
-1.95262e-16
-5.49461e-10
-2.48148e-08
-1.88324e-16
-5.5358e-10
-2.42578e-08
-1.80465e-16
-5.57001e-10
-2.36981e-08
-1.7228e-16
-5.5974e-10
-2.31363e-08
-1.62252e-16
-5.61816e-10
-2.2573e-08
-1.50869e-16
-5.63245e-10
-2.2009e-08
-1.37697e-16
-5.64046e-10
-2.14448e-08
-1.22844e-16
-5.64239e-10
-2.0881e-08
-1.06908e-16
-5.63842e-10
-2.03181e-08
-9.06998e-17
-5.62876e-10
-1.97568e-08
-7.36245e-17
-5.61361e-10
-1.91975e-08
-5.65492e-17
-5.59316e-10
-1.86408e-08
-4.01786e-17
-5.56762e-10
-1.80871e-08
-2.41332e-17
-5.53721e-10
-1.75369e-08
-8.41308e-18
-5.50211e-10
-1.69906e-08
6.22289e-18
-5.46254e-10
-1.64488e-08
2.09673e-17
-5.41869e-10
-1.59118e-08
3.37602e-17
-5.37077e-10
-1.53799e-08
4.7312e-17
-5.31897e-10
-1.48536e-08
6.05386e-17
-5.26349e-10
-1.43331e-08
7.31147e-17
-5.2045e-10
-1.3819e-08
8.49319e-17
-5.14221e-10
-1.33113e-08
9.73996e-17
-5.07677e-10
-1.28105e-08
1.08024e-16
-5.00837e-10
-1.23168e-08
1.18974e-16
-4.93717e-10
-1.18305e-08
1.28623e-16
-4.86333e-10
-1.13519e-08
1.36971e-16
-4.78699e-10
-1.08811e-08
1.45644e-16
-4.70831e-10
-1.04183e-08
1.53124e-16
-4.62741e-10
-9.96394e-09
1.60496e-16
-4.54443e-10
-9.51803e-09
1.67542e-16
-4.45947e-10
-9.0808e-09
1.74697e-16
-4.37266e-10
-8.65243e-09
1.81527e-16
-4.28409e-10
-8.23308e-09
1.88573e-16
-4.19385e-10
-7.82292e-09
1.9627e-16
-4.10203e-10
-7.42209e-09
2.04834e-16
-4.0087e-10
-7.03073e-09
2.14916e-16
-3.91393e-10
-6.64899e-09
2.25756e-16
-3.81779e-10
-6.277e-09
2.38657e-16
-3.72033e-10
-5.91488e-09
2.52858e-16
-3.62159e-10
-5.56276e-09
2.69661e-16
-3.52161e-10
-5.22076e-09
2.87765e-16
-3.42044e-10
-4.88899e-09
3.08904e-16
-3.31809e-10
-4.56757e-09
3.32754e-16
-3.21461e-10
-4.25662e-09
3.58555e-16
-3.11e-10
-3.95623e-09
3.86849e-16
-3.00431e-10
-3.66652e-09
4.19045e-16
-2.89755e-10
-3.38759e-09
4.55362e-16
-2.78973e-10
-3.11954e-09
4.93087e-16
-2.6809e-10
-2.86248e-09
5.33631e-16
-2.57107e-10
-2.6165e-09
5.77319e-16
-2.46028e-10
-2.3817e-09
6.248e-16
-2.34856e-10
-2.15815e-09
6.74341e-16
-2.23597e-10
-1.94594e-09
7.27243e-16
-2.12254e-10
-1.74516e-09
7.81878e-16
-2.00835e-10
-1.55586e-09
8.39983e-16
-1.89348e-10
-1.37812e-09
9.01122e-16
-1.77801e-10
-1.21197e-09
9.64212e-16
-1.66203e-10
-1.05746e-09
1.0312e-15
-1.54568e-10
-9.14604e-10
1.10101e-15
-1.42909e-10
-7.83422e-10
1.17364e-15
-1.31241e-10
-6.63901e-10
1.24735e-15
-1.19582e-10
-5.56013e-10
1.32302e-15
-1.07951e-10
-4.59707e-10
1.39889e-15
-9.637e-11
-3.74909e-10
1.47542e-15
-8.48637e-11
-3.01518e-10
1.55108e-15
-7.34586e-11
-2.39405e-10
1.62674e-15
-6.21837e-11
-1.88408e-10
1.69827e-15
-5.10689e-11
-1.48335e-10
1.76916e-15
-4.01463e-11
-1.18958e-10
1.83722e-15
-2.94534e-11
-1.00008e-10
1.9042e-15
-1.90286e-11
-9.11738e-11
1.96858e-15
-8.91473e-12
-9.20991e-11
2.03187e-15
8.42287e-13
-1.02382e-10
2.09646e-15
1.01972e-11
-1.2157e-10
2.15974e-15
1.91e-11
-1.49155e-10
2.22433e-15
2.74949e-11
-1.84573e-10
2.29521e-15
3.53252e-11
-2.27199e-10
2.36998e-15
4.25306e-11
-2.76348e-10
2.45387e-15
4.90505e-11
-3.31267e-10
2.54512e-15
5.48187e-11
-3.91136e-10
2.64505e-15
5.97646e-11
-4.5506e-10
2.75213e-15
6.38172e-11
-5.22072e-10
2.86312e-15
6.69021e-11
-5.91125e-10
2.9728e-15
6.89393e-11
-6.61087e-10
3.07858e-15
6.98452e-11
-7.3074e-10
3.17742e-15
6.95324e-11
-7.98773e-10
3.2678e-15
6.79084e-11
-8.63778e-10
3.35623e-15
6.48758e-11
-9.24243e-10
3.44337e-15
6.0332e-11
-9.78548e-10
3.53679e-15
5.41687e-11
-1.02496e-09
3.63975e-15
4.62728e-11
-1.06164e-09
3.75681e-15
3.65269e-11
-1.0866e-09
3.89144e-15
2.48124e-11
-1.09777e-09
4.038e-15
1.10147e-11
-1.09297e-09
4.19151e-15
-4.96129e-12
-1.06997e-09
4.34632e-15
-2.31682e-11
-1.02654e-09
4.4929e-15
-4.36018e-11
-9.60586e-10
4.63385e-15
-6.61414e-11
-8.70343e-10
4.78306e-15
-9.04323e-11
-7.54839e-10
4.96698e-15
-1.15703e-10
-6.14614e-10
5.20992e-15
-1.40433e-10
-4.53073e-10
5.51275e-15
-1.61761e-10
-2.7885e-10
5.86942e-15
-1.74455e-10
-1.09795e-10
6.25479e-15
-1.69303e-10
2.0654e-11
6.55915e-15
-1.30721e-10
6.22412e-11
6.60766e-15
-4.18959e-11
2.39695e-15
6.18895e-11
7.05204e-10
-7.04988e-10
1.73284e-09
-1.06608e-09
2.63235e-09
-9.01985e-10
3.18038e-09
-5.47158e-10
3.37183e-09
-1.90814e-10
3.25325e-09
1.18734e-10
2.88144e-09
3.71737e-10
2.30877e-09
5.7253e-10
1.57875e-09
7.29875e-10
7.26036e-10
8.52573e-10
-2.21587e-10
9.47491e-10
-1.2412e-09
1.01949e-09
-2.31457e-09
1.07324e-09
-3.42771e-09
1.11301e-09
-4.56932e-09
1.14149e-09
-5.73023e-09
1.16078e-09
-6.90286e-09
1.17251e-09
-8.08096e-09
1.17797e-09
-9.25928e-09
1.1782e-09
-1.04334e-08
1.17402e-09
-1.15996e-08
1.16608e-09
-1.27547e-08
1.15494e-09
-1.38958e-08
1.14104e-09
-1.50207e-08
1.12475e-09
-1.61272e-08
1.10638e-09
-1.72135e-08
1.08617e-09
-1.82779e-08
1.06435e-09
-1.93191e-08
1.04109e-09
-2.03358e-08
1.01657e-09
-2.13268e-08
9.90919e-10
-2.22911e-08
9.64253e-10
-2.32279e-08
9.36679e-10
-2.41363e-08
9.08293e-10
-2.50156e-08
8.7918e-10
-2.58651e-08
8.49417e-10
-2.66842e-08
8.19075e-10
-2.74725e-08
7.88219e-10
-2.82295e-08
7.56909e-10
-2.89548e-08
7.25205e-10
-2.9648e-08
6.93159e-10
-3.03089e-08
6.60823e-10
-3.09372e-08
6.28247e-10
-3.15327e-08
5.95479e-10
-3.20954e-08
5.62564e-10
-3.2625e-08
5.29548e-10
-3.31215e-08
4.96475e-10
-3.35849e-08
4.63386e-10
-3.40153e-08
4.30324e-10
-3.44127e-08
3.9733e-10
-3.47772e-08
3.64443e-10
-3.51089e-08
3.31703e-10
-3.54081e-08
2.99149e-10
-3.56749e-08
2.66819e-10
-3.59097e-08
2.34749e-10
-3.61127e-08
2.02977e-10
-3.62843e-08
1.71539e-10
-3.64248e-08
1.40468e-10
-3.65346e-08
1.09801e-10
-3.66142e-08
7.95682e-11
-3.6664e-08
4.98002e-11
-3.66845e-08
2.05233e-11
-3.66763e-08
-8.23328e-12
-3.66399e-08
-3.64378e-11
-3.65758e-08
-6.40652e-11
-3.64847e-08
-9.10972e-11
-3.63672e-08
-1.17512e-10
-3.6224e-08
-1.43284e-10
-3.60556e-08
-1.68391e-10
-3.58628e-08
-1.9281e-10
-3.56463e-08
-2.16521e-10
-3.54068e-08
-2.39506e-10
-3.5145e-08
-2.61747e-10
-3.48618e-08
-2.83231e-10
-3.45579e-08
-3.03945e-10
-3.4234e-08
-3.23875e-10
-3.3891e-08
-3.43014e-10
-3.35297e-08
-3.61351e-10
-3.31508e-08
-3.7888e-10
-3.27552e-08
-3.95596e-10
-3.23437e-08
-4.11495e-10
-3.19172e-08
-4.26574e-10
-3.14763e-08
-4.40832e-10
-3.10221e-08
-4.5427e-10
-3.05552e-08
-4.6689e-10
-3.00765e-08
-4.78695e-10
-2.95868e-08
-4.8969e-10
-2.9087e-08
-4.99881e-10
-2.85777e-08
-5.09274e-10
-2.80598e-08
-5.1788e-10
-2.75342e-08
-5.25707e-10
-2.70014e-08
-5.32767e-10
-2.64624e-08
-5.3907e-10
-2.59177e-08
-5.44632e-10
-2.53683e-08
-5.49464e-10
-2.48147e-08
-5.53583e-10
-2.42578e-08
-5.57004e-10
-2.3698e-08
-5.59743e-10
-2.31362e-08
-5.61819e-10
-2.2573e-08
-5.63248e-10
-2.2009e-08
-5.64049e-10
-2.14448e-08
-5.64242e-10
-2.08809e-08
-5.63846e-10
-2.03181e-08
-5.62879e-10
-1.97568e-08
-5.61364e-10
-1.91975e-08
-5.59319e-10
-1.86407e-08
-5.56766e-10
-1.8087e-08
-5.53724e-10
-1.75368e-08
-5.50215e-10
-1.69906e-08
-5.46258e-10
-1.64488e-08
-5.41873e-10
-1.59117e-08
-5.37081e-10
-1.53799e-08
-5.31901e-10
-1.48535e-08
-5.26353e-10
-1.43331e-08
-5.20454e-10
-1.38189e-08
-5.14225e-10
-1.33113e-08
-5.07681e-10
-1.28105e-08
-5.00842e-10
-1.23168e-08
-4.93722e-10
-1.18305e-08
-4.86337e-10
-1.13518e-08
-4.78704e-10
-1.0881e-08
-4.70836e-10
-1.04183e-08
-4.62746e-10
-9.96392e-09
-4.54448e-10
-9.51801e-09
-4.45952e-10
-9.08078e-09
-4.37271e-10
-8.65241e-09
-4.28414e-10
-8.23306e-09
-4.1939e-10
-7.82289e-09
-4.10208e-10
-7.42206e-09
-4.00875e-10
-7.03071e-09
-3.91399e-10
-6.64897e-09
-3.81785e-10
-6.27698e-09
-3.72039e-10
-5.91486e-09
-3.62164e-10
-5.56274e-09
-3.52167e-10
-5.22074e-09
-3.42049e-10
-4.88897e-09
-3.31815e-10
-4.56755e-09
-3.21467e-10
-4.25659e-09
-3.11007e-10
-3.95621e-09
-3.00437e-10
-3.6665e-09
-2.89761e-10
-3.38757e-09
-2.7898e-10
-3.11952e-09
-2.68097e-10
-2.86246e-09
-2.57114e-10
-2.61648e-09
-2.46035e-10
-2.38167e-09
-2.34863e-10
-2.15813e-09
-2.23604e-10
-1.94592e-09
-2.12262e-10
-1.74514e-09
-2.00843e-10
-1.55584e-09
-1.89356e-10
-1.3781e-09
-1.77809e-10
-1.21195e-09
-1.66212e-10
-1.05743e-09
-1.54577e-10
-9.14583e-10
-1.42918e-10
-7.83401e-10
-1.3125e-10
-6.6388e-10
-1.19591e-10
-5.55992e-10
-1.0796e-10
-4.59686e-10
-9.63796e-11
-3.74888e-10
-8.48736e-11
-3.01497e-10
-7.34686e-11
-2.39383e-10
-6.2194e-11
-1.88386e-10
-5.10794e-11
-1.48314e-10
-4.01571e-11
-1.18937e-10
-2.94644e-11
-9.99873e-11
-1.90399e-11
-9.11536e-11
-8.92618e-12
-9.20793e-11
8.30622e-13
-1.02362e-10
1.01853e-11
-1.21551e-10
1.90879e-11
-1.49136e-10
2.74826e-11
-1.84555e-10
3.53127e-11
-2.27182e-10
4.25179e-11
-2.76331e-10
4.90376e-11
-3.31251e-10
5.48056e-11
-3.9112e-10
5.97513e-11
-4.55045e-10
6.38037e-11
-5.22058e-10
6.68884e-11
-5.91111e-10
6.89253e-11
-6.61074e-10
6.98308e-11
-7.30729e-10
6.95178e-11
-7.98762e-10
6.78934e-11
-8.63768e-10
6.48605e-11
-9.24233e-10
6.03163e-11
-9.7854e-10
5.41525e-11
-1.02495e-09
4.62561e-11
-1.06163e-09
3.65097e-11
-1.08659e-09
2.47946e-11
-1.09777e-09
1.09962e-11
-1.09297e-09
-4.98072e-12
-1.06997e-09
-2.31886e-11
-1.02654e-09
-4.36233e-11
-9.60584e-10
-6.61642e-11
-8.70342e-10
-9.04566e-11
-7.54838e-10
-1.15729e-10
-6.14614e-10
-1.40461e-10
-4.53073e-10
-1.61791e-10
-2.78852e-10
-1.74488e-10
-1.098e-10
-1.69338e-10
2.06408e-11
-1.30758e-10
6.22124e-11
-4.19385e-11
6.18408e-11
1.06887e-09
-2.58527e-12
-1.74501e-09
1.70372e-09
-2.69712e-13
-1.69243e-09
2.02973e-09
1.16541e-13
-1.22325e-09
2.11755e-09
1.03771e-13
-6.33491e-10
1.98901e-09
3.87097e-14
-6.19577e-11
1.66663e-09
1.31046e-15
4.41084e-10
1.17526e-09
-9.00703e-15
8.6301e-10
5.39832e-10
-7.71997e-15
1.20784e-09
-2.15742e-10
-3.85343e-15
1.48533e-09
-1.06942e-09
-5.96198e-16
1.70614e-09
-2.00199e-09
1.37459e-15
1.87994e-09
-2.9975e-09
2.20366e-15
2.01488e-09
-4.0424e-09
2.25433e-15
2.11802e-09
-5.12499e-09
1.91799e-15
2.19549e-09
-6.23544e-09
1.49357e-15
2.25183e-09
-7.3655e-09
1.13553e-15
2.29073e-09
-8.50819e-09
8.69104e-16
2.31509e-09
-9.65759e-09
6.51333e-16
2.32727e-09
-1.08087e-08
4.36978e-16
2.32917e-09
-1.19571e-08
2.1208e-16
2.32232e-09
-1.30991e-08
-7.53222e-18
2.308e-09
-1.42315e-08
-1.95241e-16
2.28726e-09
-1.53515e-08
-3.31938e-16
2.26094e-09
-1.64566e-08
-4.13584e-16
2.22978e-09
-1.75447e-08
-4.49666e-16
2.19437e-09
-1.86139e-08
-4.54549e-16
2.15523e-09
-1.96624e-08
-4.41923e-16
2.11279e-09
-2.06888e-08
-4.20758e-16
2.06742e-09
-2.16918e-08
-3.9691e-16
2.01945e-09
-2.26701e-08
-3.73251e-16
1.96914e-09
-2.36227e-08
-3.52763e-16
1.91675e-09
-2.45485e-08
-3.37398e-16
1.86249e-09
-2.54469e-08
-3.29514e-16
1.80655e-09
-2.63169e-08
-3.30248e-16
1.74911e-09
-2.71579e-08
-3.39874e-16
1.69032e-09
-2.79692e-08
-3.57576e-16
1.63033e-09
-2.87503e-08
-3.81702e-16
1.56928e-09
-2.95008e-08
-4.09677e-16
1.50729e-09
-3.02201e-08
-4.38627e-16
1.44446e-09
-3.09079e-08
-4.65409e-16
1.38093e-09
-3.15639e-08
-4.86797e-16
1.31678e-09
-3.21879e-08
-5.00054e-16
1.25212e-09
-3.27795e-08
-5.03173e-16
1.18706e-09
-3.33386e-08
-4.95504e-16
1.12167e-09
-3.38652e-08
-4.77372e-16
1.05605e-09
-3.43591e-08
-4.50458e-16
9.90296e-10
-3.48202e-08
-4.17527e-16
9.24485e-10
-3.52486e-08
-3.81208e-16
8.58705e-10
-3.56444e-08
-3.44401e-16
7.93037e-10
-3.60075e-08
-3.09328e-16
7.27562e-10
-3.63382e-08
-2.77562e-16
6.62359e-10
-3.66366e-08
-2.50241e-16
5.97506e-10
-3.69029e-08
-2.2761e-16
5.33078e-10
-3.71373e-08
-2.09532e-16
4.69149e-10
-3.73401e-08
-1.95276e-16
4.05793e-10
-3.75117e-08
-1.83649e-16
3.4308e-10
-3.76523e-08
-1.73431e-16
2.8108e-10
-3.77624e-08
-1.63159e-16
2.19859e-10
-3.78423e-08
-1.51613e-16
1.59482e-10
-3.78925e-08
-1.37736e-16
1.00012e-10
-3.79135e-08
-1.20986e-16
4.15063e-11
-3.79058e-08
-1.01661e-16
-1.59767e-11
-3.78699e-08
-8.03843e-17
-7.23833e-11
-3.78063e-08
-5.843e-17
-1.27662e-10
-3.77156e-08
-3.71532e-17
-1.81764e-10
-3.75985e-08
-1.77738e-17
-2.34641e-10
-3.74555e-08
-1.34887e-18
-2.86246e-10
-3.72874e-08
1.16067e-17
-3.36536e-10
-3.70948e-08
2.10928e-17
-3.85467e-10
-3.68783e-08
2.76244e-17
-4.33002e-10
-3.66387e-08
3.19877e-17
-4.79104e-10
-3.63767e-08
3.4562e-17
-5.2374e-10
-3.60931e-08
3.64045e-17
-5.66882e-10
-3.57885e-08
3.80844e-17
-6.08503e-10
-3.54638e-08
4.01438e-17
-6.4858e-10
-3.51197e-08
4.28266e-17
-6.87093e-10
-3.47571e-08
4.65936e-17
-7.24025e-10
-3.43766e-08
5.13906e-17
-7.59362e-10
-3.39791e-08
5.7055e-17
-7.93092e-10
-3.35654e-08
6.37222e-17
-8.25208e-10
-3.31363e-08
7.11484e-17
-8.55705e-10
-3.26925e-08
7.88186e-17
-8.84581e-10
-3.2235e-08
8.63532e-17
-9.11836e-10
-3.17644e-08
9.35355e-17
-9.37473e-10
-3.12816e-08
9.97149e-17
-9.615e-10
-3.07874e-08
1.04702e-16
-9.83925e-10
-3.02825e-08
1.08279e-16
-1.00476e-09
-2.97678e-08
1.1023e-16
-1.02402e-09
-2.9244e-08
1.11015e-16
-1.04171e-09
-2.87118e-08
1.10527e-16
-1.05787e-09
-2.81721e-08
1.09009e-16
-1.07251e-09
-2.76255e-08
1.06731e-16
-1.08564e-09
-2.70729e-08
1.0421e-16
-1.09731e-09
-2.65148e-08
1.01499e-16
-1.10753e-09
-2.59521e-08
9.89777e-17
-1.11633e-09
-2.53854e-08
9.66462e-17
-1.12375e-09
-2.48153e-08
9.48296e-17
-1.12982e-09
-2.42426e-08
9.323e-17
-1.13456e-09
-2.36678e-08
9.20098e-17
-1.13802e-09
-2.30917e-08
9.11419e-17
-1.14022e-09
-2.25147e-08
9.05181e-17
-1.14121e-09
-2.19376e-08
8.97858e-17
-1.14103e-09
-2.13608e-08
8.88638e-17
-1.1397e-09
-2.07849e-08
8.77791e-17
-1.13728e-09
-2.02104e-08
8.64777e-17
-1.1338e-09
-1.96379e-08
8.49865e-17
-1.12929e-09
-1.90679e-08
8.31971e-17
-1.1238e-09
-1.85007e-08
8.1191e-17
-1.11737e-09
-1.7937e-08
7.89679e-17
-1.11003e-09
-1.73771e-08
7.67449e-17
-1.10182e-09
-1.68214e-08
7.43322e-17
-1.09279e-09
-1.62703e-08
7.19194e-17
-1.08297e-09
-1.57243e-08
6.93711e-17
-1.0724e-09
-1.51837e-08
6.69584e-17
-1.06111e-09
-1.46488e-08
6.43287e-17
-1.04914e-09
-1.412e-08
6.17262e-17
-1.03652e-09
-1.35976e-08
5.88797e-17
-1.02329e-09
-1.30818e-08
5.59518e-17
-1.00948e-09
-1.25731e-08
5.26987e-17
-9.9511e-10
-1.20716e-08
4.94726e-17
-9.8022e-10
-1.15777e-08
4.57315e-17
-9.64834e-10
-1.10915e-08
4.23156e-17
-9.48978e-10
-1.06133e-08
3.86828e-17
-9.32676e-10
-1.01433e-08
3.52126e-17
-9.15952e-10
-9.68177e-09
3.14441e-17
-8.98826e-10
-9.2289e-09
2.80008e-17
-8.81318e-10
-8.78488e-09
2.45032e-17
-8.63446e-10
-8.3499e-09
2.0897e-17
-8.45226e-10
-7.92414e-09
1.7616e-17
-8.26673e-10
-7.50777e-09
1.44433e-17
-8.07799e-10
-7.10098e-09
1.10536e-17
-7.88618e-10
-6.70391e-09
7.93478e-18
-7.69139e-10
-6.31674e-09
5.00551e-18
-7.49371e-10
-5.93963e-09
2.04894e-18
-7.29323e-10
-5.57271e-09
-8.26523e-19
-7.09002e-10
-5.21615e-09
-3.81065e-18
-6.88413e-10
-4.87009e-09
-6.95765e-18
-6.67564e-10
-4.53468e-09
-1.01591e-17
-6.46457e-10
-4.21006e-09
-1.35236e-17
-6.25099e-10
-3.89636e-09
-1.70509e-17
-6.03495e-10
-3.59374e-09
-2.06328e-17
-5.81647e-10
-3.30231e-09
-2.47572e-17
-5.59563e-10
-3.02222e-09
-2.89362e-17
-5.37248e-10
-2.75359e-09
-3.37119e-17
-5.14709e-10
-2.49654e-09
-3.85965e-17
-4.91952e-10
-2.2512e-09
-4.40779e-17
-4.68989e-10
-2.01768e-09
-4.99393e-17
-4.45829e-10
-1.79608e-09
-5.59638e-17
-4.22486e-10
-1.58651e-09
-6.25852e-17
-3.98975e-10
-1.38905e-09
-6.92072e-17
-3.75315e-10
-1.20379e-09
-7.62636e-17
-3.51525e-10
-1.03078e-09
-8.34832e-17
-3.27631e-10
-8.70093e-10
-9.1083e-17
-3.03659e-10
-7.21754e-10
-9.91715e-17
-2.79642e-10
-5.85785e-10
-1.07694e-16
-2.55614e-10
-4.62186e-10
-1.16652e-16
-2.31615e-10
-3.50934e-10
-1.26369e-16
-2.07689e-10
-2.51981e-10
-1.36846e-16
-1.83886e-10
-1.65252e-10
-1.48299e-16
-1.60258e-10
-9.06456e-11
-1.60404e-16
-1.36863e-10
-2.80257e-11
-1.73378e-16
-1.13763e-10
2.27756e-11
-1.86948e-16
-9.10243e-11
6.19631e-11
-2.00899e-16
-6.87197e-11
8.97842e-11
-2.14905e-16
-4.69308e-11
1.06529e-10
-2.2875e-16
-2.57433e-11
1.12535e-10
-2.42649e-16
-5.24871e-12
1.08186e-10
-2.55466e-16
1.44582e-11
9.39193e-11
-2.67796e-16
3.32761e-11
7.02267e-11
-2.78501e-16
5.10947e-11
3.76568e-11
-2.87635e-16
6.77997e-11
-3.18133e-12
-2.94602e-16
8.32708e-11
-5.1613e-11
-2.99565e-16
9.73816e-11
-1.06896e-10
-3.02143e-16
1.09999e-10
-1.68222e-10
-3.02988e-16
1.20984e-10
-2.34709e-10
-3.03509e-16
1.30194e-10
-3.05398e-10
-3.04464e-16
1.37479e-10
-3.79256e-10
-3.07372e-16
1.4268e-10
-4.55165e-10
-3.12883e-16
1.45635e-10
-5.31928e-10
-3.21594e-16
1.46172e-10
-6.08259e-10
-3.33232e-16
1.44112e-10
-6.82785e-10
-3.46173e-16
1.3927e-10
-7.54042e-10
-3.58897e-16
1.31454e-10
-8.20477e-10
-3.70049e-16
1.20464e-10
-8.80446e-10
-3.79684e-16
1.06097e-10
-9.32218e-10
-3.85795e-16
8.81492e-11
-9.73983e-10
-3.89684e-16
6.64217e-11
-1.00386e-09
-3.92759e-16
4.07335e-11
-1.01993e-09
-3.98438e-16
1.09435e-11
-1.02027e-09
-4.09426e-16
-2.30092e-11
-1.00299e-09
-4.27023e-16
-6.10595e-11
-9.66388e-10
-4.50794e-16
-1.02933e-10
-9.09042e-10
-4.75099e-16
-1.47976e-10
-8.30066e-10
-4.94186e-16
-1.94886e-10
-7.2945e-10
-5.05119e-16
-2.41269e-10
-6.08554e-10
-5.03437e-16
-2.8289e-10
-4.70778e-10
-4.79893e-16
-3.12484e-10
-3.22435e-10
-4.31713e-16
-3.17925e-10
-1.73898e-10
-4.14458e-16
-2.79583e-10
-4.74519e-11
-7.89739e-16
-1.68753e-10
-5.57702e-15
1.41523e-11
1.07444e-09
-1.74229e-09
1.70546e-09
-1.69313e-09
2.03002e-09
-1.22393e-09
2.11751e-09
-6.33854e-10
1.98895e-09
-6.21102e-11
1.66658e-09
4.4103e-10
1.17521e-09
8.62992e-10
5.39784e-10
1.20783e-09
-2.15787e-10
1.48533e-09
-1.06946e-09
1.70614e-09
-2.00202e-09
1.87994e-09
-2.99752e-09
2.01488e-09
-4.04241e-09
2.11802e-09
-5.12499e-09
2.19548e-09
-6.23544e-09
2.25183e-09
-7.36549e-09
2.29073e-09
-8.50818e-09
2.31509e-09
-9.65758e-09
2.32727e-09
-1.08086e-08
2.32917e-09
-1.19571e-08
2.32232e-09
-1.30991e-08
2.308e-09
-1.42315e-08
2.28725e-09
-1.53515e-08
2.26094e-09
-1.64566e-08
2.22978e-09
-1.75447e-08
2.19437e-09
-1.86138e-08
2.15523e-09
-1.96624e-08
2.11279e-09
-2.06888e-08
2.06742e-09
-2.16917e-08
2.01945e-09
-2.267e-08
1.96914e-09
-2.36226e-08
1.91675e-09
-2.45485e-08
1.86249e-09
-2.54468e-08
1.80655e-09
-2.63168e-08
1.74911e-09
-2.71578e-08
1.69032e-09
-2.79691e-08
1.63033e-09
-2.87503e-08
1.56928e-09
-2.95007e-08
1.50728e-09
-3.022e-08
1.44446e-09
-3.09079e-08
1.38093e-09
-3.15639e-08
1.31678e-09
-3.21878e-08
1.25212e-09
-3.27794e-08
1.18705e-09
-3.33386e-08
1.12167e-09
-3.38651e-08
1.05605e-09
-3.4359e-08
9.90295e-10
-3.48201e-08
9.24485e-10
-3.52486e-08
8.58705e-10
-3.56443e-08
7.93037e-10
-3.60075e-08
7.27562e-10
-3.63381e-08
6.62359e-10
-3.66365e-08
5.97505e-10
-3.69028e-08
5.33077e-10
-3.71372e-08
4.69149e-10
-3.73401e-08
4.05792e-10
-3.75116e-08
3.43079e-10
-3.76523e-08
2.81079e-10
-3.77623e-08
2.19859e-10
-3.78423e-08
1.59482e-10
-3.78925e-08
1.00011e-10
-3.79135e-08
4.15059e-11
-3.79057e-08
-1.59771e-11
-3.78698e-08
-7.23836e-11
-3.78062e-08
-1.27662e-10
-3.77156e-08
-1.81764e-10
-3.75984e-08
-2.34641e-10
-3.74555e-08
-2.86247e-10
-3.72874e-08
-3.36536e-10
-3.70947e-08
-3.85468e-10
-3.68782e-08
-4.33002e-10
-3.66386e-08
-4.79104e-10
-3.63767e-08
-5.23741e-10
-3.6093e-08
-5.66883e-10
-3.57885e-08
-6.08504e-10
-3.54638e-08
-6.48581e-10
-3.51197e-08
-6.87094e-10
-3.4757e-08
-7.24026e-10
-3.43765e-08
-7.59362e-10
-3.39791e-08
-7.93093e-10
-3.35654e-08
-8.25209e-10
-3.31362e-08
-8.55706e-10
-3.26925e-08
-8.84581e-10
-3.22349e-08
-9.11836e-10
-3.17644e-08
-9.37474e-10
-3.12816e-08
-9.61501e-10
-3.07873e-08
-9.83925e-10
-3.02825e-08
-1.00476e-09
-2.97677e-08
-1.02402e-09
-2.92439e-08
-1.04171e-09
-2.87118e-08
-1.05787e-09
-2.81721e-08
-1.07251e-09
-2.76255e-08
-1.08564e-09
-2.70728e-08
-1.09731e-09
-2.65148e-08
-1.10753e-09
-2.59521e-08
-1.11633e-09
-2.53853e-08
-1.12375e-09
-2.48153e-08
-1.12982e-09
-2.42425e-08
-1.13456e-09
-2.36678e-08
-1.13802e-09
-2.30916e-08
-1.14022e-09
-2.25147e-08
-1.14121e-09
-2.19375e-08
-1.14103e-09
-2.13607e-08
-1.13971e-09
-2.07848e-08
-1.13728e-09
-2.02104e-08
-1.1338e-09
-1.96379e-08
-1.12929e-09
-1.90678e-08
-1.1238e-09
-1.85007e-08
-1.11737e-09
-1.7937e-08
-1.11003e-09
-1.7377e-08
-1.10183e-09
-1.68214e-08
-1.09279e-09
-1.62703e-08
-1.08297e-09
-1.57243e-08
-1.0724e-09
-1.51837e-08
-1.06111e-09
-1.46488e-08
-1.04914e-09
-1.412e-08
-1.03652e-09
-1.35975e-08
-1.02329e-09
-1.30818e-08
-1.00948e-09
-1.25731e-08
-9.95111e-10
-1.20716e-08
-9.80221e-10
-1.15776e-08
-9.64835e-10
-1.10914e-08
-9.48979e-10
-1.06132e-08
-9.32677e-10
-1.01433e-08
-9.15953e-10
-9.68175e-09
-8.98827e-10
-9.22888e-09
-8.81319e-10
-8.78486e-09
-8.63447e-10
-8.34988e-09
-8.45227e-10
-7.92412e-09
-8.26674e-10
-7.50775e-09
-8.07801e-10
-7.10096e-09
-7.88619e-10
-6.70389e-09
-7.6914e-10
-6.31672e-09
-7.49372e-10
-5.9396e-09
-7.29324e-10
-5.57269e-09
-7.09003e-10
-5.21613e-09
-6.88415e-10
-4.87007e-09
-6.67565e-10
-4.53466e-09
-6.46459e-10
-4.21004e-09
-6.25101e-10
-3.89634e-09
-6.03496e-10
-3.59372e-09
-5.81649e-10
-3.30229e-09
-5.59565e-10
-3.0222e-09
-5.3725e-10
-2.75357e-09
-5.1471e-10
-2.49652e-09
-4.91954e-10
-2.25118e-09
-4.6899e-10
-2.01766e-09
-4.45831e-10
-1.79606e-09
-4.22488e-10
-1.58649e-09
-3.98977e-10
-1.38903e-09
-3.75316e-10
-1.20377e-09
-3.51527e-10
-1.03076e-09
-3.27632e-10
-8.70074e-10
-3.03661e-10
-7.21735e-10
-2.79643e-10
-5.85766e-10
-2.55615e-10
-4.62167e-10
-2.31616e-10
-3.50914e-10
-2.0769e-10
-2.51961e-10
-1.83887e-10
-1.65233e-10
-1.60259e-10
-9.06264e-11
-1.36864e-10
-2.80066e-11
-1.13765e-10
2.27945e-11
-9.10254e-11
6.19818e-11
-6.87208e-11
8.98027e-11
-4.69318e-11
1.06548e-10
-2.57442e-11
1.12553e-10
-5.24963e-12
1.08203e-10
1.44574e-11
9.39366e-11
3.32753e-11
7.02436e-11
5.1094e-11
3.76733e-11
6.77991e-11
-3.16536e-12
8.32703e-11
-5.15976e-11
9.73811e-11
-1.06882e-10
1.09998e-10
-1.68208e-10
1.20984e-10
-2.34695e-10
1.30194e-10
-3.05385e-10
1.37479e-10
-3.79243e-10
1.4268e-10
-4.55154e-10
1.45635e-10
-5.31917e-10
1.46171e-10
-6.08249e-10
1.44112e-10
-6.82775e-10
1.3927e-10
-7.54033e-10
1.31453e-10
-8.20469e-10
1.20464e-10
-8.80439e-10
1.06097e-10
-9.32212e-10
8.8149e-11
-9.73977e-10
6.64213e-11
-1.00386e-09
4.0733e-11
-1.01993e-09
1.09427e-11
-1.02026e-09
-2.30102e-11
-1.00299e-09
-6.10609e-11
-9.66386e-10
-1.02935e-10
-9.0904e-10
-1.47978e-10
-8.30065e-10
-1.94889e-10
-7.29449e-10
-2.41272e-10
-6.08553e-10
-2.82895e-10
-4.70778e-10
-3.12489e-10
-3.22436e-10
-3.17932e-10
-1.73905e-10
-2.79591e-10
-4.7476e-11
-1.68762e-10
1.41378e-11
8.75065e-10
-1.29553e-12
-2.62591e-09
1.19899e-09
-2.64685e-13
-2.01749e-09
1.21762e-09
-4.61207e-14
-1.24203e-09
1.05184e-09
4.01731e-15
-4.67787e-10
7.40446e-10
5.12981e-15
2.49382e-10
3.00829e-10
-6.90962e-16
8.8066e-10
-2.54734e-10
-2.81919e-15
1.41854e-09
-9.13948e-10
-2.23965e-15
1.86702e-09
-1.66387e-09
-8.45247e-16
2.23522e-09
-2.49157e-09
4.0103e-16
2.53381e-09
-3.38476e-09
1.16197e-15
2.77309e-09
-4.33223e-09
1.43398e-15
2.96232e-09
-5.32385e-09
1.36846e-15
3.10961e-09
-6.35037e-09
1.14722e-15
3.22197e-09
-7.40367e-09
9.01686e-16
3.30509e-09
-8.47665e-09
6.91697e-16
3.36367e-09
-9.56312e-09
5.19954e-16
3.40152e-09
-1.06577e-08
3.64448e-16
3.4218e-09
-1.17556e-08
2.06827e-16
3.42709e-09
-1.28529e-08
4.5832e-17
3.41953e-09
-1.39458e-08
-1.05838e-16
3.4009e-09
-1.50313e-08
-2.32558e-16
3.37266e-09
-1.61064e-08
-3.24611e-16
3.33607e-09
-1.71688e-08
-3.81698e-16
3.29215e-09
-1.82163e-08
-4.10256e-16
3.2418e-09
-1.92468e-08
-4.18906e-16
3.18575e-09
-2.02587e-08
-4.15439e-16
3.12466e-09
-2.12504e-08
-4.05142e-16
3.05907e-09
-2.22205e-08
-3.91877e-16
2.98946e-09
-2.31676e-08
-3.7872e-16
2.91626e-09
-2.40907e-08
-3.68477e-16
2.83982e-09
-2.49888e-08
-3.63234e-16
2.76049e-09
-2.58608e-08
-3.64307e-16
2.67855e-09
-2.6706e-08
-3.71451e-16
2.59427e-09
-2.75236e-08
-3.83515e-16
2.50788e-09
-2.83129e-08
-3.97991e-16
2.41962e-09
-2.90733e-08
-4.12413e-16
2.32967e-09
-2.98043e-08
-4.24368e-16
2.23825e-09
-3.05053e-08
-4.31918e-16
2.14551e-09
-3.11761e-08
-4.33776e-16
2.05163e-09
-3.18161e-08
-4.29102e-16
1.95678e-09
-3.24251e-08
-4.17638e-16
1.86111e-09
-3.30028e-08
-3.99994e-16
1.76475e-09
-3.3549e-08
-3.76943e-16
1.66787e-09
-3.40636e-08
-3.50056e-16
1.57058e-09
-3.45463e-08
-3.21041e-16
1.47304e-09
-3.49972e-08
-2.9166e-16
1.37536e-09
-3.54162e-08
-2.63417e-16
1.27769e-09
-3.58033e-08
-2.37113e-16
1.18013e-09
-3.61586e-08
-2.13383e-16
1.08282e-09
-3.64821e-08
-1.92364e-16
9.85876e-10
-3.67741e-08
-1.74029e-16
8.8941e-10
-3.70345e-08
-1.58092e-16
7.9354e-10
-3.72638e-08
-1.43971e-16
6.98379e-10
-3.7462e-08
-1.31015e-16
6.04034e-10
-3.76296e-08
-1.18304e-16
5.10614e-10
-3.77667e-08
-1.05118e-16
4.18221e-10
-3.78738e-08
-9.0861e-17
3.26958e-10
-3.79513e-08
-7.53168e-17
2.3692e-10
-3.79995e-08
-5.85122e-17
1.48202e-10
-3.80189e-08
-4.09215e-17
6.0893e-11
-3.80099e-08
-2.30192e-17
-2.49198e-11
-3.79732e-08
-5.56397e-18
-1.09154e-10
-3.79091e-08
1.06986e-17
-1.91728e-10
-3.78183e-08
2.51723e-17
-2.72566e-10
-3.77013e-08
3.7586e-17
-3.51597e-10
-3.75588e-08
4.76687e-17
-4.2875e-10
-3.73914e-08
5.55287e-17
-5.03959e-10
-3.71997e-08
6.1356e-17
-5.77162e-10
-3.69844e-08
6.56247e-17
-6.483e-10
-3.67462e-08
6.88905e-17
-7.17322e-10
-3.64858e-08
7.14922e-17
-7.84177e-10
-3.62038e-08
7.38907e-17
-8.48821e-10
-3.59011e-08
7.64519e-17
-9.11216e-10
-3.55784e-08
7.93925e-17
-9.71325e-10
-3.52364e-08
8.27532e-17
-1.02912e-09
-3.48758e-08
8.6629e-17
-1.08457e-09
-3.44975e-08
9.08842e-17
-1.13766e-09
-3.41023e-08
9.54783e-17
-1.18837e-09
-3.36908e-08
1.00181e-16
-1.23668e-09
-3.32639e-08
1.04775e-16
-1.2826e-09
-3.28224e-08
1.09139e-16
-1.32611e-09
-3.2367e-08
1.13014e-16
-1.36722e-09
-3.18986e-08
1.1624e-16
-1.40592e-09
-3.14178e-08
1.18611e-16
-1.44224e-09
-3.09256e-08
1.2017e-16
-1.47618e-09
-3.04226e-08
1.2082e-16
-1.50775e-09
-2.99096e-08
1.20752e-16
-1.53699e-09
-2.93874e-08
1.19993e-16
-1.5639e-09
-2.88568e-08
1.18719e-16
-1.58853e-09
-2.83184e-08
1.16957e-16
-1.61089e-09
-2.7773e-08
1.14978e-16
-1.63103e-09
-2.72214e-08
1.12932e-16
-1.64897e-09
-2.66641e-08
1.10831e-16
-1.66476e-09
-2.6102e-08
1.08784e-16
-1.67845e-09
-2.55357e-08
1.06806e-16
-1.69007e-09
-2.49659e-08
1.0503e-16
-1.69966e-09
-2.43932e-08
1.03295e-16
-1.70729e-09
-2.38182e-08
1.01615e-16
-1.713e-09
-2.32416e-08
9.99342e-17
-1.71684e-09
-2.26639e-08
9.83214e-17
-1.71886e-09
-2.20858e-08
9.66545e-17
-1.71912e-09
-2.15079e-08
9.49198e-17
-1.71768e-09
-2.09306e-08
9.29275e-17
-1.71459e-09
-2.03545e-08
9.09489e-17
-1.70991e-09
-1.97801e-08
8.89025e-17
-1.70369e-09
-1.92079e-08
8.68832e-17
-1.69599e-09
-1.86384e-08
8.46877e-17
-1.68687e-09
-1.80721e-08
8.26413e-17
-1.67639e-09
-1.75093e-08
8.05408e-17
-1.6646e-09
-1.69505e-08