/*--------------------------------*- C++ -*----------------------------------*\
  =========                 |
  \\      /  F ield         | OpenFOAM: The Open Source CFD Toolbox
   \\    /   O peration     | Website:  https://openfoam.org
    \\  /    A nd           | Version:  8
     \\/     M anipulation  |
\*---------------------------------------------------------------------------*/
FoamFile
{
    version     2.0;
    format      ascii;
    class       volScalarField;
    location    "4000";
    object      T;
}
// * * * * * * * * * * * * * * * * * * * * * * * * * * * * * * * * * * * * * //

dimensions      [0 0 0 1 0 0 0];

internalField   nonuniform List<scalar> 
46000
(
309.906
308.749
307.951
307.438
307.07
306.779
306.537
306.328
306.144
305.978
305.828
305.69
305.562
305.444
305.334
305.23
305.132
305.04
304.953
304.871
304.793
304.718
304.648
304.581
304.517
304.456
304.398
304.343
304.29
304.24
304.192
304.147
304.103
304.062
304.023
303.985
303.949
303.915
303.883
303.852
303.823
303.795
303.769
303.744
303.721
303.699
303.678
303.658
303.639
303.622
303.606
303.591
303.577
303.564
303.552
303.541
303.531
303.522
303.514
303.507
303.501
303.496
303.491
303.487
303.485
303.482
303.481
303.481
303.481
303.483
303.485
303.487
303.491
303.495
303.501
303.506
303.513
303.52
303.529
303.537
303.547
303.557
303.568
303.58
303.592
303.605
303.618
303.633
303.648
303.663
303.679
303.696
303.714
303.732
303.75
303.77
303.79
303.81
303.831
303.853
303.875
303.897
303.921
303.944
303.969
303.994
304.019
304.045
304.071
304.098
304.126
304.153
304.182
304.211
304.24
304.27
304.3
304.331
304.362
304.393
304.426
304.458
304.491
304.525
304.559
304.593
304.628
304.663
304.699
304.736
304.772
304.81
304.848
304.886
304.925
304.964
305.004
305.044
305.085
305.127
305.169
305.212
305.255
305.299
305.344
305.389
305.435
305.481
305.528
305.576
305.624
305.674
305.723
305.774
305.825
305.877
305.93
305.984
306.038
306.093
306.149
306.206
306.264
306.322
306.381
306.442
306.503
306.564
306.627
306.691
306.756
306.822
306.889
306.957
307.026
307.097
307.17
307.244
307.32
307.397
307.477
307.56
307.645
307.733
307.825
307.921
308.022
308.129
308.242
308.364
308.495
308.64
308.802
308.985
309.2
309.461
309.791
310.233
310.83
311.404
309.906
308.749
307.951
307.438
307.07
306.779
306.537
306.328
306.144
305.978
305.828
305.69
305.562
305.444
305.334
305.23
305.132
305.04
304.953
304.871
304.793
304.718
304.648
304.581
304.517
304.456
304.398
304.343
304.29
304.24
304.192
304.147
304.103
304.062
304.023
303.985
303.949
303.915
303.883
303.852
303.823
303.795
303.769
303.744
303.721
303.699
303.678
303.658
303.64
303.622
303.606
303.591
303.577
303.564
303.552
303.541
303.531
303.522
303.514
303.507
303.501
303.496
303.491
303.487
303.485
303.482
303.481
303.481
303.481
303.483
303.485
303.487
303.491
303.495
303.501
303.506
303.513
303.52
303.529
303.537
303.547
303.557
303.568
303.58
303.592
303.605
303.618
303.633
303.648
303.663
303.679
303.696
303.714
303.732
303.75
303.77
303.79
303.81
303.831
303.853
303.875
303.897
303.921
303.944
303.969
303.994
304.019
304.045
304.071
304.098
304.126
304.153
304.182
304.211
304.24
304.27
304.3
304.331
304.362
304.393
304.426
304.458
304.491
304.525
304.559
304.593
304.628
304.663
304.699
304.736
304.772
304.81
304.848
304.886
304.925
304.964
305.004
305.044
305.085
305.127
305.169
305.212
305.255
305.299
305.344
305.389
305.435
305.481
305.528
305.576
305.624
305.674
305.723
305.774
305.825
305.877
305.93
305.984
306.038
306.093
306.149
306.206
306.264
306.322
306.382
306.442
306.503
306.564
306.627
306.691
306.756
306.822
306.889
306.957
307.026
307.097
307.17
307.244
307.32
307.397
307.477
307.56
307.645
307.733
307.825
307.921
308.022
308.129
308.242
308.364
308.496
308.64
308.802
308.985
309.2
309.461
309.791
310.233
310.83
311.404
306.432
306.026
305.691
305.427
305.214
305.035
304.881
304.746
304.623
304.512
304.409
304.314
304.225
304.142
304.064
303.99
303.919
303.853
303.79
303.729
303.672
303.618
303.565
303.516
303.468
303.423
303.379
303.338
303.298
303.26
303.224
303.189
303.156
303.124
303.094
303.065
303.037
303.01
302.985
302.96
302.937
302.915
302.894
302.873
302.854
302.836
302.818
302.802
302.786
302.771
302.757
302.743
302.731
302.719
302.707
302.697
302.687
302.677
302.669
302.661
302.653
302.646
302.64
302.634
302.629
302.625
302.621
302.617
302.615
302.612
302.61
302.609
302.608
302.608
302.608
302.609
302.611
302.612
302.615
302.618
302.621
302.625
302.629
302.634
302.639
302.645
302.651
302.657
302.665
302.672
302.68
302.689
302.698
302.707
302.717
302.727
302.738
302.749
302.761
302.773
302.785
302.798
302.812
302.825
302.84
302.854
302.869
302.885
302.901
302.917
302.934
302.952
302.969
302.987
303.006
303.025
303.045
303.064
303.085
303.106
303.127
303.149
303.171
303.194
303.217
303.24
303.265
303.289
303.314
303.34
303.366
303.393
303.42
303.448
303.476
303.505
303.534
303.564
303.595
303.626
303.657
303.69
303.723
303.756
303.79
303.825
303.86
303.896
303.933
303.97
304.008
304.047
304.087
304.127
304.167
304.209
304.251
304.293
304.337
304.381
304.426
304.471
304.518
304.564
304.612
304.66
304.709
304.759
304.809
304.861
304.912
304.965
305.019
305.073
305.128
305.185
305.242
305.301
305.36
305.421
305.484
305.548
305.615
305.684
305.755
305.829
305.908
305.99
306.078
306.173
306.276
306.39
306.517
306.662
306.833
307.04
307.298
307.635
308.09
308.643
306.432
306.026
305.691
305.427
305.214
305.035
304.881
304.746
304.623
304.512
304.409
304.314
304.225
304.142
304.064
303.99
303.919
303.853
303.79
303.729
303.672
303.618
303.565
303.516
303.468
303.423
303.379
303.338
303.298
303.26
303.224
303.189
303.156
303.124
303.094
303.065
303.037
303.01
302.985
302.96
302.937
302.915
302.894
302.873
302.854
302.836
302.818
302.802
302.786
302.771
302.757
302.743
302.731
302.719
302.707
302.697
302.687
302.677
302.669
302.661
302.653
302.646
302.64
302.634
302.629
302.625
302.621
302.617
302.615
302.612
302.61
302.609
302.608
302.608
302.608
302.609
302.611
302.612
302.615
302.618
302.621
302.625
302.629
302.634
302.639
302.645
302.651
302.657
302.665
302.672
302.68
302.689
302.698
302.707
302.717
302.727
302.738
302.749
302.761
302.773
302.785
302.798
302.812
302.825
302.84
302.854
302.869
302.885
302.901
302.917
302.934
302.952
302.969
302.987
303.006
303.025
303.045
303.064
303.085
303.106
303.127
303.149
303.171
303.194
303.217
303.24
303.265
303.289
303.314
303.34
303.366
303.393
303.42
303.448
303.476
303.505
303.534
303.564
303.595
303.626
303.657
303.69
303.723
303.756
303.79
303.825
303.86
303.896
303.933
303.97
304.008
304.047
304.087
304.127
304.167
304.209
304.251
304.293
304.337
304.381
304.426
304.471
304.518
304.564
304.612
304.66
304.709
304.759
304.809
304.861
304.912
304.965
305.019
305.073
305.128
305.185
305.242
305.301
305.36
305.421
305.484
305.548
305.615
305.684
305.755
305.829
305.908
305.99
306.078
306.173
306.276
306.39
306.517
306.662
306.833
307.04
307.298
307.635
308.09
308.643
304.906
304.82
304.677
304.53
304.393
304.267
304.152
304.047
303.95
303.86
303.775
303.696
303.622
303.551
303.484
303.421
303.361
303.303
303.248
303.196
303.146
303.098
303.052
303.009
302.967
302.927
302.888
302.851
302.816
302.782
302.75
302.719
302.689
302.66
302.633
302.607
302.581
302.557
302.534
302.512
302.491
302.47
302.451
302.432
302.414
302.397
302.381
302.365
302.35
302.336
302.323
302.31
302.297
302.286
302.274
302.264
302.254
302.245
302.236
302.227
302.219
302.212
302.205
302.199
302.193
302.187
302.183
302.178
302.174
302.17
302.167
302.165
302.163
302.161
302.159
302.159
302.158
302.158
302.159
302.159
302.161
302.162
302.165
302.167
302.17
302.173
302.177
302.182
302.186
302.191
302.197
302.202
302.209
302.215
302.223
302.23
302.238
302.246
302.255
302.264
302.274
302.284
302.294
302.305
302.316
302.328
302.34
302.352
302.365
302.378
302.392
302.406
302.421
302.436
302.451
302.467
302.484
302.5
302.518
302.535
302.553
302.572
302.591
302.611
302.631
302.651
302.673
302.694
302.716
302.739
302.762
302.786
302.81
302.835
302.86
302.886
302.912
302.939
302.967
302.995
303.024
303.053
303.083
303.114
303.145
303.177
303.209
303.243
303.276
303.311
303.346
303.382
303.418
303.455
303.493
303.531
303.57
303.61
303.65
303.691
303.733
303.775
303.818
303.862
303.906
303.951
303.996
304.042
304.089
304.136
304.184
304.233
304.282
304.332
304.383
304.434
304.487
304.54
304.594
304.65
304.706
304.764
304.824
304.885
304.948
305.014
305.083
305.155
305.232
305.313
305.401
305.497
305.602
305.72
305.854
306.008
306.188
306.4
306.648
306.912
304.906
304.82
304.677
304.53
304.393
304.267
304.152
304.047
303.95
303.86
303.775
303.696
303.622
303.551
303.484
303.421
303.361
303.303
303.248
303.196
303.146
303.098
303.052
303.009
302.967
302.927
302.888
302.851
302.816
302.782
302.75
302.719
302.689
302.66
302.633
302.607
302.581
302.557
302.534
302.512
302.491
302.47
302.451
302.432
302.414
302.397
302.381
302.365
302.35
302.336
302.323
302.31
302.297
302.286
302.274
302.264
302.254
302.245
302.236
302.227
302.219
302.212
302.205
302.199
302.193
302.187
302.183
302.178
302.174
302.17
302.167
302.165
302.163
302.161
302.159
302.159
302.158
302.158
302.159
302.159
302.161
302.162
302.165
302.167
302.17
302.173
302.177
302.182
302.186
302.191
302.197
302.202
302.209
302.215
302.223
302.23
302.238
302.246
302.255
302.264
302.274
302.284
302.294
302.305
302.316
302.328
302.34
302.352
302.365
302.378
302.392
302.406
302.421
302.436
302.451
302.467
302.484
302.5
302.518
302.535
302.553
302.572
302.591
302.611
302.631
302.651
302.673
302.694
302.716
302.739
302.762
302.786
302.81
302.835
302.86
302.886
302.912
302.939
302.967
302.995
303.024
303.053
303.083
303.114
303.145
303.177
303.209
303.243
303.276
303.311
303.346
303.382
303.418
303.455
303.493
303.531
303.57
303.61
303.65
303.691
303.733
303.775
303.818
303.862
303.906
303.951
303.996
304.042
304.089
304.136
304.184
304.233
304.282
304.332
304.383
304.434
304.487
304.54
304.594
304.65
304.706
304.764
304.824
304.885
304.948
305.014
305.083
305.155
305.232
305.313
305.401
305.497
305.602
305.72
305.854
306.008
306.188
306.4
306.648
306.912
304.109
304.102
304.039
303.954
303.862
303.771
303.683
303.599
303.519
303.443
303.371
303.302
303.237
303.174
303.115
303.058
303.004
302.952
302.902
302.855
302.809
302.765
302.723
302.683
302.644
302.607
302.572
302.537
302.505
302.473
302.443
302.414
302.386
302.359
302.333
302.309
302.285
302.262
302.24
302.219
302.199
302.18
302.161
302.143
302.126
302.11
302.094
302.079
302.064
302.051
302.037
302.025
302.013
302.001
301.99
301.979
301.969
301.96
301.951
301.942
301.934
301.927
301.92
301.913
301.907
301.901
301.895
301.89
301.886
301.881
301.878
301.874
301.871
301.869
301.867
301.865
301.864
301.863
301.862
301.862
301.863
301.863
301.864
301.866
301.868
301.87
301.872
301.875
301.879
301.883
301.887
301.891
301.896
301.902
301.908
301.914
301.92
301.927
301.934
301.942
301.95
301.959
301.968
301.977
301.987
301.997
302.008
302.018
302.03
302.042
302.054
302.067
302.08
302.093
302.107
302.121
302.136
302.152
302.167
302.184
302.2
302.217
302.235
302.253
302.272
302.291
302.31
302.331
302.351
302.372
302.394
302.416
302.439
302.462
302.486
302.511
302.536
302.561
302.587
302.614
302.642
302.67
302.698
302.727
302.757
302.788
302.819
302.85
302.883
302.916
302.95
302.984
303.019
303.054
303.091
303.127
303.165
303.203
303.242
303.281
303.321
303.362
303.403
303.445
303.487
303.53
303.573
303.617
303.662
303.707
303.753
303.799
303.846
303.894
303.942
303.991
304.04
304.09
304.142
304.193
304.246
304.3
304.356
304.413
304.471
304.531
304.594
304.659
304.728
304.8
304.876
304.958
305.047
305.143
305.248
305.363
305.486
305.617
305.747
305.859
304.109
304.102
304.039
303.954
303.862
303.771
303.683
303.599
303.519
303.443
303.371
303.302
303.237
303.174
303.115
303.058
303.004
302.952
302.902
302.855
302.809
302.765
302.723
302.683
302.644
302.607
302.572
302.537
302.505
302.473
302.443
302.414
302.386
302.359
302.333
302.309
302.285
302.262
302.24
302.219
302.199
302.18
302.161
302.143
302.126
302.11
302.094
302.079
302.064
302.051
302.037
302.025
302.013
302.001
301.99
301.979
301.969
301.96
301.951
301.942
301.934
301.927
301.92
301.913
301.907
301.901
301.895
301.89
301.886
301.881
301.878
301.874
301.871
301.869
301.867
301.865
301.864
301.863
301.862
301.862
301.863
301.863
301.864
301.866
301.868
301.87
301.872
301.875
301.879
301.883
301.887
301.891
301.896
301.902
301.908
301.914
301.92
301.927
301.934
301.942
301.95
301.959
301.968
301.977
301.987
301.997
302.008
302.018
302.03
302.042
302.054
302.067
302.08
302.093
302.107
302.121
302.136
302.152
302.167
302.184
302.2
302.217
302.235
302.253
302.272
302.291
302.31
302.331
302.351
302.372
302.394
302.416
302.439
302.462
302.486
302.511
302.536
302.561
302.587
302.614
302.642
302.67
302.698
302.727
302.757
302.788
302.819
302.85
302.883
302.916
302.95
302.984
303.019
303.054
303.091
303.127
303.165
303.203
303.242
303.281
303.321
303.362
303.403
303.445
303.487
303.53
303.573
303.617
303.662
303.707
303.753
303.799
303.846
303.894
303.942
303.991
304.04
304.09
304.142
304.193
304.246
304.3
304.356
304.413
304.471
304.531
304.594
304.659
304.728
304.8
304.876
304.958
305.047
305.143
305.248
305.363
305.486
305.617
305.747
305.859
303.6
303.609
303.579
303.527
303.464
303.397
303.328
303.26
303.194
303.129
303.066
303.006
302.948
302.892
302.839
302.787
302.737
302.69
302.644
302.6
302.558
302.517
302.478
302.44
302.404
302.369
302.335
302.303
302.272
302.242
302.214
302.186
302.16
302.134
302.11
302.086
302.063
302.041
302.02
302
301.981
301.962
301.944
301.927
301.91
301.894
301.879
301.864
301.85
301.836
301.823
301.811
301.799
301.787
301.777
301.766
301.756
301.747
301.737
301.729
301.721
301.713
301.705
301.699
301.692
301.686
301.68
301.675
301.67
301.665
301.661
301.657
301.654
301.651
301.648
301.646
301.644
301.643
301.642
301.641
301.641
301.641
301.641
301.642
301.643
301.645
301.646
301.649
301.651
301.654
301.658
301.662
301.666
301.67
301.675
301.68
301.686
301.692
301.699
301.705
301.713
301.72
301.728
301.737
301.746
301.755
301.764
301.774
301.785
301.796
301.807
301.819
301.831
301.844
301.857
301.87
301.884
301.898
301.913
301.928
301.944
301.96
301.977
301.994
302.012
302.03
302.049
302.068
302.088
302.108
302.129
302.15
302.172
302.194
302.217
302.241
302.265
302.289
302.315
302.34
302.367
302.394
302.422
302.45
302.479
302.508
302.539
302.569
302.601
302.633
302.665
302.699
302.733
302.767
302.802
302.838
302.875
302.912
302.949
302.987
303.026
303.066
303.106
303.146
303.187
303.229
303.271
303.313
303.356
303.4
303.444
303.489
303.534
303.58
303.626
303.672
303.72
303.768
303.816
303.866
303.916
303.967
304.018
304.071
304.126
304.181
304.239
304.298
304.36
304.424
304.491
304.562
304.636
304.714
304.796
304.881
304.966
305.047
305.117
305.165
303.6
303.609
303.579
303.527
303.464
303.397
303.328
303.26
303.194
303.129
303.066
303.006
302.948
302.892
302.839
302.787
302.737
302.69
302.644
302.6
302.558
302.517
302.478
302.44
302.404
302.369
302.335
302.303
302.272
302.242
302.214
302.186
302.16
302.134
302.11
302.086
302.063
302.041
302.02
302
301.981
301.962
301.944
301.927
301.91
301.894
301.879
301.864
301.85
301.836
301.823
301.811
301.799
301.787
301.777
301.766
301.756
301.747
301.737
301.729
301.721
301.713
301.705
301.699
301.692
301.686
301.68
301.675
301.67
301.665
301.661
301.657
301.654
301.651
301.648
301.646
301.644
301.643
301.642
301.641
301.641
301.641
301.641
301.642
301.643
301.645
301.646
301.649
301.651
301.654
301.658
301.662
301.666
301.67
301.675
301.68
301.686
301.692
301.699
301.705
301.713
301.72
301.728
301.737
301.746
301.755
301.764
301.774
301.785
301.796
301.807
301.819
301.831
301.844
301.857
301.87
301.884
301.898
301.913
301.928
301.944
301.96
301.977
301.994
302.012
302.03
302.049
302.068
302.088
302.108
302.129
302.15
302.172
302.194
302.217
302.241
302.265
302.289
302.315
302.34
302.367
302.394
302.422
302.45
302.479
302.508
302.539
302.569
302.601
302.633
302.665
302.699
302.733
302.767
302.802
302.838
302.875
302.912
302.949
302.987
303.026
303.066
303.106
303.146
303.187
303.229
303.271
303.313
303.356
303.4
303.444
303.489
303.534
303.58
303.626
303.672
303.72
303.768
303.816
303.866
303.916
303.967
304.018
304.071
304.126
304.181
304.239
304.298
304.36
304.424
304.491
304.562
304.636
304.714
304.796
304.881
304.966
305.047
305.117
305.165
303.229
303.24
303.223
303.189
303.145
303.094
303.039
302.984
302.928
302.872
302.818
302.764
302.712
302.662
302.613
302.566
302.521
302.477
302.434
302.393
302.354
302.316
302.279
302.243
302.209
302.176
302.144
302.114
302.084
302.056
302.028
302.002
301.976
301.952
301.928
301.906
301.884
301.863
301.842
301.823
301.804
301.786
301.768
301.751
301.735
301.72
301.705
301.69
301.676
301.663
301.65
301.638
301.626
301.615
301.604
301.593
301.583
301.574
301.565
301.556
301.548
301.54
301.532
301.525
301.519
301.512
301.506
301.501
301.496
301.491
301.486
301.482
301.478
301.475
301.472
301.47
301.467
301.465
301.464
301.463
301.462
301.462
301.461
301.462
301.462
301.463
301.465
301.467
301.469
301.471
301.474
301.477
301.481
301.485
301.489
301.494
301.499
301.504
301.51
301.516
301.523
301.53
301.537
301.545
301.553
301.562
301.571
301.58
301.59
301.6
301.611
301.622
301.633
301.645
301.658
301.67
301.684
301.697
301.711
301.726
301.741
301.757
301.773
301.789
301.806
301.824
301.842
301.86
301.879
301.899
301.919
301.939
301.96
301.982
302.004
302.027
302.051
302.075
302.099
302.125
302.15
302.177
302.204
302.231
302.259
302.288
302.318
302.348
302.378
302.41
302.442
302.474
302.507
302.541
302.575
302.61
302.646
302.682
302.719
302.756
302.794
302.832
302.871
302.91
302.95
302.991
303.032
303.073
303.115
303.157
303.2
303.243
303.287
303.331
303.375
303.42
303.466
303.512
303.558
303.605
303.653
303.701
303.75
303.799
303.85
303.901
303.954
304.008
304.064
304.121
304.18
304.24
304.302
304.366
304.43
304.493
304.553
304.605
304.644
304.664
303.229
303.24
303.223
303.189
303.145
303.094
303.039
302.984
302.928
302.872
302.818
302.764
302.712
302.662
302.613
302.566
302.521
302.477
302.434
302.393
302.354
302.316
302.279
302.243
302.209
302.176
302.144
302.114
302.084
302.056
302.028
302.002
301.976
301.952
301.928
301.906
301.884
301.863
301.842
301.823
301.804
301.786
301.768
301.751
301.735
301.72
301.705
301.69
301.676
301.663
301.65
301.638
301.626
301.615
301.604
301.593
301.583
301.574
301.565
301.556
301.548
301.54
301.532
301.525
301.519
301.512
301.506
301.501
301.496
301.491
301.486
301.482
301.478
301.475
301.472
301.47
301.467
301.465
301.464
301.463
301.462
301.462
301.461
301.462
301.462
301.463
301.465
301.467
301.469
301.471
301.474
301.477
301.481
301.485
301.489
301.494
301.499
301.504
301.51
301.516
301.523
301.53
301.537
301.545
301.553
301.562
301.571
301.58
301.59
301.6
301.611
301.622
301.633
301.645
301.658
301.67
301.684
301.697
301.711
301.726
301.741
301.757
301.773
301.789
301.806
301.824
301.842
301.86
301.879
301.899
301.919
301.939
301.96
301.982
302.004
302.027
302.051
302.075
302.099
302.125
302.15
302.177
302.204
302.231
302.259
302.288
302.318
302.348
302.378
302.41
302.442
302.474
302.507
302.541
302.575
302.61
302.646
302.682
302.719
302.756
302.794
302.832
302.871
302.91
302.95
302.991
303.032
303.073
303.115
303.157
303.2
303.243
303.287
303.331
303.375
303.42
303.466
303.512
303.558
303.605
303.653
303.701
303.75
303.799
303.85
303.901
303.954
304.008
304.064
304.121
304.18
304.24
304.302
304.366
304.43
304.493
304.553
304.605
304.644
304.664
302.937
302.946
302.935
302.911
302.877
302.838
302.794
302.748
302.7
302.652
302.604
302.557
302.511
302.465
302.421
302.377
302.335
302.295
302.255
302.217
302.18
302.144
302.109
302.075
302.043
302.012
301.981
301.952
301.924
301.897
301.87
301.845
301.821
301.797
301.774
301.752
301.731
301.711
301.691
301.672
301.654
301.636
301.619
301.602
301.587
301.571
301.557
301.542
301.529
301.516
301.503
301.491
301.479
301.468
301.457
301.447
301.437
301.427
301.418
301.409
301.401
301.393
301.385
301.378
301.371
301.365
301.359
301.353
301.348
301.343
301.338
301.334
301.33
301.326
301.323
301.32
301.317
301.315
301.313
301.312
301.311
301.31
301.31
301.309
301.31
301.31
301.311
301.313
301.314
301.316
301.319
301.322
301.325
301.328
301.332
301.336
301.341
301.346
301.351
301.357
301.363
301.37
301.376
301.384
301.391
301.399
301.408
301.417
301.426
301.436
301.446
301.456
301.467
301.479
301.491
301.503
301.516
301.529
301.542
301.556
301.571
301.586
301.601
301.617
301.634
301.651
301.668
301.686
301.705
301.724
301.743
301.763
301.784
301.805
301.827
301.849
301.872
301.896
301.92
301.944
301.969
301.995
302.022
302.049
302.076
302.104
302.133
302.163
302.193
302.223
302.255
302.287
302.319
302.352
302.386
302.42
302.455
302.49
302.526
302.563
302.599
302.637
302.675
302.714
302.753
302.792
302.832
302.872
302.913
302.954
302.996
303.037
303.08
303.122
303.165
303.209
303.252
303.296
303.341
303.386
303.431
303.476
303.523
303.569
303.616
303.664
303.713
303.762
303.812
303.863
303.914
303.966
304.018
304.07
304.121
304.169
304.211
304.246
304.268
304.276
302.937
302.946
302.935
302.911
302.877
302.838
302.794
302.748
302.7
302.652
302.604
302.557
302.511
302.465
302.421
302.377
302.335
302.295
302.255
302.217
302.18
302.144
302.109
302.075
302.043
302.012
301.981
301.952
301.924
301.897
301.87
301.845
301.821
301.797
301.774
301.752
301.731
301.711
301.691
301.672
301.654
301.636
301.619
301.602
301.587
301.571
301.557
301.542
301.529
301.516
301.503
301.491
301.479
301.468
301.457
301.447
301.437
301.427
301.418
301.409
301.401
301.393
301.385
301.378
301.371
301.365
301.359
301.353
301.348
301.343
301.338
301.334
301.33
301.326
301.323
301.32
301.317
301.315
301.313
301.312
301.311
301.31
301.31
301.309
301.31
301.31
301.311
301.313
301.314
301.316
301.319
301.322
301.325
301.328
301.332
301.336
301.341
301.346
301.351
301.357
301.363
301.37
301.376
301.384
301.391
301.399
301.408
301.417
301.426
301.436
301.446
301.456
301.467
301.479
301.491
301.503
301.516
301.529
301.542
301.556
301.571
301.586
301.601
301.617
301.634
301.651
301.668
301.686
301.705
301.724
301.743
301.763
301.784
301.805
301.827
301.849
301.872
301.896
301.92
301.944
301.969
301.995
302.022
302.049
302.076
302.104
302.133
302.163
302.193
302.223
302.255
302.287
302.319
302.352
302.386
302.42
302.455
302.49
302.526
302.563
302.599
302.637
302.675
302.714
302.753
302.792
302.832
302.872
302.913
302.954
302.996
303.037
303.08
303.122
303.165
303.209
303.252
303.296
303.341
303.386
303.431
303.476
303.523
303.569
303.616
303.664
303.713
303.762
303.812
303.863
303.914
303.966
304.018
304.07
304.121
304.169
304.211
304.246
304.268
304.276
302.695
302.701
302.692
302.674
302.648
302.616
302.58
302.541
302.5
302.458
302.416
302.374
302.332
302.291
302.25
302.211
302.172
302.134
302.097
302.061
302.026
301.992
301.959
301.927
301.897
301.867
301.838
301.81
301.783
301.757
301.732
301.707
301.684
301.661
301.639
301.617
301.597
301.577
301.558
301.539
301.521
301.504
301.488
301.471
301.456
301.441
301.427
301.413
301.399
301.386
301.374
301.362
301.35
301.339
301.328
301.318
301.308
301.298
301.289
301.28
301.272
301.264
301.256
301.249
301.242
301.236
301.229
301.223
301.218
301.213
301.208
301.203
301.199
301.196
301.192
301.189
301.186
301.184
301.182
301.18
301.178
301.177
301.177
301.176
301.176
301.177
301.177
301.178
301.18
301.181
301.183
301.186
301.188
301.192
301.195
301.199
301.203
301.208
301.213
301.218
301.224
301.23
301.236
301.243
301.25
301.258
301.266
301.275
301.283
301.293
301.302
301.313
301.323
301.334
301.345
301.357
301.369
301.382
301.395
301.409
301.423
301.438
301.453
301.468
301.484
301.501
301.518
301.535
301.553
301.572
301.591
301.611
301.631
301.652
301.673
301.695
301.717
301.74
301.764
301.788
301.812
301.838
301.864
301.89
301.917
301.945
301.973
302.002
302.032
302.062
302.092
302.124
302.156
302.188
302.221
302.255
302.289
302.324
302.359
302.394
302.431
302.467
302.505
302.542
302.58
302.619
302.658
302.697
302.737
302.777
302.817
302.858
302.899
302.94
302.982
303.024
303.066
303.108
303.151
303.194
303.237
303.28
303.323
303.367
303.411
303.456
303.5
303.545
303.59
303.636
303.681
303.726
303.77
303.812
303.853
303.89
303.921
303.944
303.958
303.959
302.695
302.701
302.692
302.674
302.648
302.616
302.58
302.541
302.5
302.458
302.416
302.374
302.332
302.291
302.25
302.211
302.172
302.134
302.097
302.061
302.026
301.992
301.959
301.927
301.897
301.867
301.838
301.81
301.783
301.757
301.732
301.707
301.684
301.661
301.639
301.617
301.597
301.577
301.558
301.539
301.521
301.504
301.488
301.471
301.456
301.441
301.427
301.413
301.399
301.386
301.374
301.362
301.35
301.339
301.328
301.318
301.308
301.298
301.289
301.28
301.272
301.264
301.256
301.249
301.242
301.236
301.229
301.223
301.218
301.213
301.208
301.203
301.199
301.196
301.192
301.189
301.186
301.184
301.182
301.18
301.178
301.177
301.177
301.176
301.176
301.177
301.177
301.178
301.18
301.181
301.183
301.186
301.188
301.192
301.195
301.199
301.203
301.208
301.213
301.218
301.224
301.23
301.236
301.243
301.25
301.258
301.266
301.275
301.283
301.293
301.302
301.313
301.323
301.334
301.345
301.357
301.369
301.382
301.395
301.409
301.423
301.438
301.453
301.468
301.484
301.501
301.518
301.535
301.553
301.572
301.591
301.611
301.631
301.652
301.673
301.695
301.717
301.74
301.764
301.788
301.812
301.838
301.864
301.89
301.917
301.945
301.973
302.002
302.032
302.062
302.092
302.124
302.156
302.188
302.221
302.255
302.289
302.324
302.359
302.394
302.431
302.467
302.505
302.542
302.58
302.619
302.658
302.697
302.737
302.777
302.817
302.858
302.899
302.94
302.982
303.024
303.066
303.108
303.151
303.194
303.237
303.28
303.323
303.367
303.411
303.456
303.5
303.545
303.59
303.636
303.681
303.726
303.77
303.812
303.853
303.89
303.921
303.944
303.958
303.959
302.487
302.49
302.483
302.468
302.446
302.42
302.389
302.356
302.321
302.284
302.247
302.209
302.171
302.133
302.096
302.06
302.024
301.988
301.954
301.92
301.887
301.855
301.824
301.794
301.764
301.736
301.708
301.682
301.656
301.631
301.606
301.583
301.56
301.538
301.517
301.496
301.476
301.457
301.438
301.42
301.403
301.386
301.369
301.354
301.338
301.324
301.309
301.296
301.282
301.27
301.257
301.245
301.234
301.223
301.212
301.202
301.192
301.183
301.173
301.165
301.156
301.148
301.141
301.133
301.126
301.119
301.113
301.107
301.102
301.096
301.091
301.087
301.082
301.078
301.075
301.071
301.068
301.066
301.063
301.061
301.06
301.059
301.058
301.057
301.057
301.057
301.057
301.058
301.059
301.06
301.062
301.064
301.067
301.069
301.073
301.076
301.08
301.084
301.089
301.094
301.099
301.105
301.111
301.118
301.125
301.132
301.14
301.148
301.156
301.165
301.174
301.184
301.194
301.205
301.216
301.227
301.239
301.251
301.264
301.277
301.291
301.305
301.32
301.335
301.351
301.367
301.384
301.401
301.418
301.437
301.455
301.474
301.494
301.515
301.535
301.557
301.579
301.601
301.625
301.648
301.673
301.697
301.723
301.749
301.776
301.803
301.831
301.859
301.888
301.918
301.948
301.979
302.01
302.042
302.074
302.107
302.141
302.175
302.209
302.244
302.28
302.316
302.353
302.389
302.427
302.464
302.502
302.541
302.58
302.619
302.658
302.698
302.737
302.777
302.818
302.858
302.899
302.939
302.98
303.021
303.062
303.103
303.144
303.186
303.227
303.268
303.309
303.35
303.391
303.431
303.471
303.51
303.548
303.583
303.616
303.644
303.668
303.685
303.693
303.691
302.487
302.49
302.483
302.468
302.446
302.42
302.389
302.356
302.321
302.284
302.247
302.209
302.171
302.133
302.096
302.06
302.024
301.988
301.954
301.92
301.887
301.855
301.824
301.794
301.764
301.736
301.708
301.682
301.656
301.631
301.606
301.583
301.56
301.538
301.517
301.496
301.476
301.457
301.438
301.42
301.403
301.386
301.369
301.354
301.338
301.324
301.309
301.296
301.282
301.27
301.257
301.245
301.234
301.223
301.212
301.202
301.192
301.183
301.173
301.165
301.156
301.148
301.141
301.133
301.126
301.119
301.113
301.107
301.102
301.096
301.091
301.087
301.082
301.078
301.075
301.071
301.068
301.066
301.063
301.061
301.06
301.059
301.058
301.057
301.057
301.057
301.057
301.058
301.059
301.06
301.062
301.064
301.067
301.069
301.073
301.076
301.08
301.084
301.089
301.094
301.099
301.105
301.111
301.118
301.125
301.132
301.14
301.148
301.156
301.165
301.174
301.184
301.194
301.205
301.216
301.227
301.239
301.251
301.264
301.277
301.291
301.305
301.32
301.335
301.351
301.367
301.384
301.401
301.418
301.437
301.455
301.474
301.494
301.515
301.535
301.557
301.579
301.601
301.625
301.648
301.673
301.697
301.723
301.749
301.776
301.803
301.831
301.859
301.888
301.918
301.948
301.979
302.01
302.042
302.074
302.107
302.141
302.175
302.209
302.244
302.28
302.316
302.353
302.389
302.427
302.464
302.502
302.541
302.58
302.619
302.658
302.698
302.737
302.777
302.818
302.858
302.899
302.939
302.98
303.021
303.062
303.103
303.144
303.186
303.227
303.268
303.309
303.35
303.391
303.431
303.471
303.51
303.548
303.583
303.616
303.644
303.668
303.685
303.693
303.691
302.305
302.305
302.298
302.285
302.266
302.244
302.217
302.189
302.158
302.125
302.092
302.058
302.023
301.989
301.955
301.921
301.887
301.854
301.822
301.79
301.759
301.729
301.7
301.671
301.643
301.616
301.589
301.564
301.539
301.515
301.491
301.469
301.447
301.425
301.405
301.384
301.365
301.346
301.328
301.311
301.294
301.277
301.261
301.246
301.231
301.216
301.202
301.189
301.176
301.163
301.151
301.139
301.128
301.117
301.106
301.096
301.086
301.077
301.068
301.059
301.05
301.042
301.035
301.027
301.02
301.013
301.007
301.001
300.995
300.99
300.985
300.98
300.975
300.971
300.968
300.964
300.961
300.958
300.956
300.953
300.952
300.95
300.949
300.948
300.947
300.947
300.947
300.948
300.949
300.95
300.951
300.953
300.955
300.958
300.961
300.964
300.968
300.972
300.976
300.981
300.986
300.991
300.997
301.003
301.01
301.017
301.024
301.032
301.04
301.049
301.058
301.067
301.077
301.087
301.098
301.109
301.121
301.133