/*--------------------------------*- C++ -*----------------------------------*\
  =========                 |
  \\      /  F ield         | OpenFOAM: The Open Source CFD Toolbox
   \\    /   O peration     | Website:  https://openfoam.org
    \\  /    A nd           | Version:  8
     \\/     M anipulation  |
\*---------------------------------------------------------------------------*/
FoamFile
{
    version     2.0;
    format      ascii;
    class       volVectorField;
    location    "4000";
    object      U;
}
// * * * * * * * * * * * * * * * * * * * * * * * * * * * * * * * * * * * * * //

dimensions      [0 1 -1 0 0 0 0];

internalField   nonuniform List<vector> 
46000
(
(0.00190154 1.21126e-06 -0.00193964)
(0.00956115 2.28243e-05 -0.0056125)
(0.017563 1.71433e-05 -0.00535517)
(0.0232444 7.74884e-06 -0.00338896)
(0.0259958 1.95983e-06 -0.00130737)
(0.0261548 -2.73218e-07 0.000497084)
(0.0241369 -6.24621e-07 0.00195124)
(0.0203858 -3.85682e-07 0.00308279)
(0.0152717 -1.08798e-07 0.00395056)
(0.0090957 7.03292e-08 0.00461331)
(0.00210039 1.59066e-07 0.00511331)
(-0.00553949 1.87403e-07 0.00547459)
(-0.0136338 1.8122e-07 0.00572632)
(-0.0220846 1.60208e-07 0.00590066)
(-0.0307875 1.36303e-07 0.0060143)
(-0.0396664 1.16106e-07 0.00607957)
(-0.0486573 1.01373e-07 0.00610596)
(-0.057708 9.07995e-08 0.00610085)
(-0.0667748 8.23259e-08 0.00607004)
(-0.0758212 7.46475e-08 0.00601812)
(-0.0848163 6.75112e-08 0.00594875)
(-0.093734 6.12735e-08 0.00586487)
(-0.102552 5.63371e-08 0.00576885)
(-0.11125 5.28112e-08 0.00566263)
(-0.119812 5.04795e-08 0.0055478)
(-0.128223 4.8972e-08 0.00542566)
(-0.13647 4.7913e-08 0.00529731)
(-0.144542 4.70299e-08 0.00516366)
(-0.152429 4.6154e-08 0.00502547)
(-0.160121 4.5183e-08 0.0048834)
(-0.167611 4.40677e-08 0.00473801)
(-0.174891 4.27789e-08 0.00458977)
(-0.181955 4.12776e-08 0.00443911)
(-0.188798 3.95587e-08 0.00428639)
(-0.195414 3.76008e-08 0.00413194)
(-0.201798 3.54129e-08 0.00397605)
(-0.207948 3.29935e-08 0.00381898)
(-0.213858 3.03967e-08 0.00366097)
(-0.219526 2.76749e-08 0.00350223)
(-0.22495 2.49005e-08 0.00334297)
(-0.230126 2.21534e-08 0.00318338)
(-0.235053 1.95058e-08 0.00302362)
(-0.23973 1.70376e-08 0.00286387)
(-0.244155 1.47886e-08 0.00270429)
(-0.248327 1.28063e-08 0.00254502)
(-0.252246 1.11012e-08 0.00238623)
(-0.255912 9.66412e-09 0.00222805)
(-0.259324 8.47346e-09 0.00207061)
(-0.262484 7.4759e-09 0.00191407)
(-0.265391 6.62732e-09 0.00175854)
(-0.268047 5.87613e-09 0.00160416)
(-0.270454 5.1716e-09 0.00145106)
(-0.272612 4.47879e-09 0.00129937)
(-0.274524 3.77441e-09 0.0011492)
(-0.276192 3.04016e-09 0.00100069)
(-0.277618 2.26358e-09 0.000853955)
(-0.278805 1.45048e-09 0.000709108)
(-0.279756 6.16643e-10 0.00056626)
(-0.280475 -2.11327e-10 0.000425495)
(-0.280964 -9.95204e-10 0.000286856)
(-0.281227 -1.6926e-09 0.000150336)
(-0.281269 -2.27029e-09 1.60599e-05)
(-0.281093 -2.70915e-09 -0.000115537)
(-0.280703 -3.01668e-09 -0.00024424)
(-0.280105 -3.20451e-09 -0.000370172)
(-0.279302 -3.30093e-09 -0.000493336)
(-0.278301 -3.34498e-09 -0.000613661)
(-0.277104 -3.36827e-09 -0.000731061)
(-0.275719 -3.39988e-09 -0.000845446)
(-0.274149 -3.46058e-09 -0.000956737)
(-0.272402 -3.5454e-09 -0.00106486)
(-0.270481 -3.67761e-09 -0.00116975)
(-0.268394 -3.84058e-09 -0.00127134)
(-0.266145 -4.02102e-09 -0.00136958)
(-0.263741 -4.20813e-09 -0.00146441)
(-0.261188 -4.38777e-09 -0.0015558)
(-0.258492 -4.54332e-09 -0.0016437)
(-0.255658 -4.65815e-09 -0.00172807)
(-0.252694 -4.71565e-09 -0.00180889)
(-0.249605 -4.70166e-09 -0.00188613)
(-0.246398 -4.62034e-09 -0.00195978)
(-0.243078 -4.46171e-09 -0.00202982)
(-0.239653 -4.23989e-09 -0.00209624)
(-0.236128 -3.96568e-09 -0.00215904)
(-0.232509 -3.65821e-09 -0.00221822)
(-0.228804 -3.32993e-09 -0.00227379)
(-0.225017 -3.01078e-09 -0.00232576)
(-0.221155 -2.71157e-09 -0.00237416)
(-0.217225 -2.44061e-09 -0.002419)
(-0.213231 -2.20871e-09 -0.00246032)
(-0.209181 -2.02421e-09 -0.00249814)
(-0.205079 -1.87296e-09 -0.00253251)
(-0.200932 -1.76078e-09 -0.00256347)
(-0.196744 -1.6694e-09 -0.00259106)
(-0.192523 -1.59215e-09 -0.00261535)
(-0.188272 -1.51406e-09 -0.00263638)
(-0.183998 -1.43846e-09 -0.00265421)
(-0.179705 -1.34205e-09 -0.00266891)
(-0.175398 -1.23398e-09 -0.00268054)
(-0.171083 -1.10177e-09 -0.00268917)
(-0.166763 -9.47911e-10 -0.00269489)
(-0.162444 -7.73223e-10 -0.00269775)
(-0.15813 -5.90188e-10 -0.00269785)
(-0.153825 -3.91314e-10 -0.00269525)
(-0.149534 -1.83254e-10 -0.00269005)
(-0.145259 2.06752e-11 -0.00268232)
(-0.141006 2.27133e-10 -0.00267215)
(-0.136778 4.30294e-10 -0.00265963)
(-0.132578 6.26826e-10 -0.00264483)
(-0.128409 8.21727e-10 -0.00262785)
(-0.124276 1.00167e-09 -0.00260877)
(-0.12018 1.18831e-09 -0.00258767)
(-0.116125 1.37332e-09 -0.00256465)
(-0.112113 1.55003e-09 -0.00253977)
(-0.108148 1.71511e-09 -0.00251312)
(-0.104231 1.88522e-09 -0.00248479)
(-0.100364 2.03537e-09 -0.00245485)
(-0.0965515 2.18722e-09 -0.00242337)
(-0.0927937 2.31909e-09 -0.00239042)
(-0.0890931 2.43266e-09 -0.00235609)
(-0.0854515 2.54959e-09 -0.00232042)
(-0.0818707 2.64987e-09 -0.00228349)
(-0.0783523 2.74183e-09 -0.00224535)
(-0.074898 2.82715e-09 -0.00220607)
(-0.0715091 2.90915e-09 -0.00216569)
(-0.0681871 2.98117e-09 -0.00212426)
(-0.0649333 3.0582e-09 -0.00208183)
(-0.061749 3.13192e-09 -0.00203843)
(-0.0586353 3.21067e-09 -0.00199412)
(-0.0555933 3.30445e-09 -0.00194892)
(-0.0526243 3.40159e-09 -0.00190286)
(-0.0497292 3.51211e-09 -0.00185597)
(-0.0469091 3.63601e-09 -0.00180828)
(-0.0441649 3.77664e-09 -0.0017598)
(-0.0414975 3.93233e-09 -0.00171056)
(-0.038908 4.10977e-09 -0.00166058)
(-0.0363971 4.31397e-09 -0.00160986)
(-0.0339659 4.5366e-09 -0.00155844)
(-0.0316151 4.781e-09 -0.00150631)
(-0.0293457 5.06222e-09 -0.0014535)
(-0.0271584 5.38362e-09 -0.00140001)
(-0.025054 5.7168e-09 -0.00134588)
(-0.0230335 6.0835e-09 -0.0012911)
(-0.0210975 6.4854e-09 -0.00123571)
(-0.0192467 6.93255e-09 -0.00117972)
(-0.0174821 7.40157e-09 -0.00112316)
(-0.0158041 7.91587e-09 -0.00106607)
(-0.0142135 8.45039e-09 -0.00100849)
(-0.0127108 9.0319e-09 -0.000950443)
(-0.0112966 9.65207e-09 -0.000891997)
(-0.00997135 1.03026e-08 -0.000833206)
(-0.00873538 1.10068e-08 -0.000774138)
(-0.007589 1.17481e-08 -0.000714868)
(-0.00653235 1.25264e-08 -0.000655485)
(-0.00556549 1.33318e-08 -0.000596086)
(-0.00468832 1.41609e-08 -0.000536782)
(-0.00390056 1.49936e-08 -0.000477693)
(-0.00320177 1.58467e-08 -0.000418954)
(-0.00259134 1.66935e-08 -0.000360712)
(-0.0020684 1.75338e-08 -0.00030313)
(-0.00163187 1.83375e-08 -0.00024637)
(-0.00128045 1.91383e-08 -0.000190614)
(-0.00101255 1.99125e-08 -0.000136061)
(-0.000826296 2.0687e-08 -8.29143e-05)
(-0.000719493 2.14417e-08 -3.14072e-05)
(-0.000689629 2.22134e-08 1.82093e-05)
(-0.000733756 2.30291e-08 6.5694e-05)
(-0.000848681 2.38653e-08 0.000110778)
(-0.00103071 2.47422e-08 0.000153158)
(-0.00127575 2.5737e-08 0.000192532)
(-0.00157922 2.68094e-08 0.000228579)
(-0.00193611 2.801e-08 0.000260985)
(-0.0023409 2.9322e-08 0.000289411)
(-0.00278752 3.07456e-08 0.000313483)
(-0.00326937 3.22438e-08 0.000332833)
(-0.00377927 3.37864e-08 0.000347086)
(-0.00430946 3.5303e-08 0.00035583)
(-0.0048515 3.67835e-08 0.000358645)
(-0.00539631 3.82244e-08 0.000355095)
(-0.00593411 3.96326e-08 0.000344716)
(-0.00645436 4.11293e-08 0.00032703)
(-0.00694575 4.27617e-08 0.000301534)
(-0.00739611 4.46209e-08 0.000267699)
(-0.00779245 4.6714e-08 0.00022498)
(-0.00812082 4.90446e-08 0.000172815)
(-0.00836636 5.15794e-08 0.000110641)
(-0.00851327 5.42346e-08 3.79242e-05)
(-0.00854487 5.69771e-08 -4.57479e-05)
(-0.0084438 5.98776e-08 -0.000140511)
(-0.00819253 6.29303e-08 -0.00024618)
(-0.00777377 6.61834e-08 -0.00036192)
(-0.00717181 6.97327e-08 -0.000485519)
(-0.00637488 7.3742e-08 -0.00061234)
(-0.00537939 7.84983e-08 -0.000733369)
(-0.00419737 8.42092e-08 -0.000831723)
(-0.00287048 9.10519e-08 -0.00087655)
(-0.00149179 9.86195e-08 -0.00081355)
(-0.000248103 1.04903e-07 -0.000552145)
(0.000548527 1.07293e-07 -3.03608e-05)
(0.000349615 4.54771e-08 0.000374952)
(0.00193355 1.21148e-06 -0.0019765)
(0.00957973 2.28308e-05 -0.00564825)
(0.0175561 1.71443e-05 -0.00537278)
(0.0232375 7.74878e-06 -0.00339591)
(0.0259927 1.9598e-06 -0.00130975)
(0.026154 -2.73215e-07 0.000496352)
(0.0241368 -6.24616e-07 0.001951)
(0.0203857 -3.8568e-07 0.00308268)
(0.0152714 -1.08798e-07 0.00395045)
(0.00909521 7.03288e-08 0.00461318)
(0.00209988 1.59065e-07 0.00511316)
(-0.00553993 1.87402e-07 0.00547444)
(-0.0136341 1.81219e-07 0.00572618)
(-0.0220848 1.60208e-07 0.00590052)
(-0.0307877 1.36303e-07 0.00601417)
(-0.0396664 1.16106e-07 0.00607944)
(-0.0486573 1.01372e-07 0.00610584)
(-0.0577079 9.07991e-08 0.00610074)
(-0.0667747 8.23256e-08 0.00606994)
(-0.0758211 7.46472e-08 0.00601802)
(-0.0848162 6.7511e-08 0.00594866)
(-0.0937339 6.12733e-08 0.00586478)
(-0.102552 5.6337e-08 0.00576877)
(-0.11125 5.2811e-08 0.00566256)
(-0.119812 5.04793e-08 0.00554773)
(-0.128223 4.89718e-08 0.0054256)
(-0.13647 4.79129e-08 0.00529726)
(-0.144542 4.70297e-08 0.00516361)
(-0.152428 4.61539e-08 0.00502542)
(-0.160121 4.51829e-08 0.00488335)
(-0.16761 4.40676e-08 0.00473796)
(-0.174891 4.27788e-08 0.00458973)
(-0.181955 4.12775e-08 0.00443907)
(-0.188798 3.95586e-08 0.00428636)
(-0.195413 3.76007e-08 0.00413191)
(-0.201798 3.54129e-08 0.00397602)
(-0.207947 3.29935e-08 0.00381895)
(-0.213858 3.03966e-08 0.00366094)
(-0.219526 2.76748e-08 0.00350221)
(-0.224949 2.49005e-08 0.00334295)
(-0.230126 2.21533e-08 0.00318335)
(-0.235053 1.95057e-08 0.0030236)
(-0.23973 1.70376e-08 0.00286385)
(-0.244155 1.47886e-08 0.00270427)
(-0.248327 1.28062e-08 0.00254501)
(-0.252246 1.11011e-08 0.00238621)
(-0.255912 9.6641e-09 0.00222803)
(-0.259324 8.47345e-09 0.00207059)
(-0.262483 7.47589e-09 0.00191405)
(-0.265391 6.62731e-09 0.00175852)
(-0.268047 5.87612e-09 0.00160414)
(-0.270454 5.17159e-09 0.00145104)
(-0.272612 4.47878e-09 0.00129935)
(-0.274524 3.7744e-09 0.00114918)
(-0.276192 3.04016e-09 0.00100067)
(-0.277618 2.26358e-09 0.000853934)
(-0.278805 1.45047e-09 0.000709087)
(-0.279756 6.16642e-10 0.000566239)
(-0.280474 -2.11327e-10 0.000425474)
(-0.280963 -9.95203e-10 0.000286835)
(-0.281227 -1.6926e-09 0.000150314)
(-0.281268 -2.27028e-09 1.60378e-05)
(-0.281092 -2.70914e-09 -0.000115559)
(-0.280703 -3.01667e-09 -0.000244263)
(-0.280104 -3.20451e-09 -0.000370196)
(-0.279302 -3.30092e-09 -0.00049336)
(-0.2783 -3.34498e-09 -0.000613686)
(-0.277104 -3.36827e-09 -0.000731086)
(-0.275718 -3.39987e-09 -0.000845472)
(-0.274149 -3.46058e-09 -0.000956764)
(-0.272401 -3.5454e-09 -0.00106489)
(-0.270481 -3.6776e-09 -0.00116978)
(-0.268394 -3.84057e-09 -0.00127137)
(-0.266145 -4.02102e-09 -0.00136961)
(-0.263741 -4.20812e-09 -0.00146444)
(-0.261188 -4.38776e-09 -0.00155583)
(-0.258491 -4.54331e-09 -0.00164373)
(-0.255658 -4.65815e-09 -0.0017281)
(-0.252693 -4.71564e-09 -0.00180892)
(-0.249605 -4.70165e-09 -0.00188617)
(-0.246397 -4.62033e-09 -0.00195982)
(-0.243078 -4.4617e-09 -0.00202985)
(-0.239652 -4.23988e-09 -0.00209627)
(-0.236127 -3.96568e-09 -0.00215907)
(-0.232509 -3.65821e-09 -0.00221825)
(-0.228803 -3.32993e-09 -0.00227383)
(-0.225017 -3.01078e-09 -0.0023258)
(-0.221155 -2.71157e-09 -0.0023742)
(-0.217224 -2.44061e-09 -0.00241904)
(-0.213231 -2.20871e-09 -0.00246036)
(-0.20918 -2.02421e-09 -0.00249818)
(-0.205079 -1.87295e-09 -0.00253255)
(-0.200931 -1.76078e-09 -0.00256351)
(-0.196744 -1.6694e-09 -0.00259111)
(-0.192522 -1.59215e-09 -0.00261539)
(-0.188272 -1.51406e-09 -0.00263642)
(-0.183997 -1.43846e-09 -0.00265425)
(-0.179704 -1.34205e-09 -0.00266895)
(-0.175398 -1.23398e-09 -0.00268058)
(-0.171082 -1.10177e-09 -0.00268922)
(-0.166763 -9.4791e-10 -0.00269493)
(-0.162444 -7.73222e-10 -0.0026978)
(-0.15813 -5.90188e-10 -0.0026979)
(-0.153825 -3.91313e-10 -0.0026953)
(-0.149533 -1.83253e-10 -0.0026901)
(-0.145259 2.06751e-11 -0.00268237)
(-0.141006 2.27133e-10 -0.0026722)
(-0.136778 4.30293e-10 -0.00265968)
(-0.132578 6.26826e-10 -0.00264488)
(-0.128409 8.21726e-10 -0.0026279)
(-0.124276 1.00167e-09 -0.00260882)
(-0.12018 1.18831e-09 -0.00258773)
(-0.116125 1.37331e-09 -0.0025647)
(-0.112113 1.55002e-09 -0.00253982)
(-0.108147 1.71511e-09 -0.00251318)
(-0.10423 1.88522e-09 -0.00248485)
(-0.100364 2.03537e-09 -0.0024549)
(-0.0965513 2.18721e-09 -0.00242343)
(-0.0927935 2.31909e-09 -0.00239048)
(-0.0890929 2.43266e-09 -0.00235614)
(-0.0854513 2.54958e-09 -0.00232048)
(-0.0818705 2.64986e-09 -0.00228355)
(-0.0783522 2.74183e-09 -0.00224541)
(-0.0748978 2.82715e-09 -0.00220613)
(-0.0715089 2.90915e-09 -0.00216575)
(-0.0681869 2.98116e-09 -0.00212432)
(-0.0649331 3.0582e-09 -0.00208189)
(-0.0617488 3.13192e-09 -0.0020385)
(-0.0586351 3.21066e-09 -0.00199418)
(-0.0555932 3.30444e-09 -0.00194898)
(-0.0526241 3.40159e-09 -0.00190292)
(-0.0497291 3.51211e-09 -0.00185603)
(-0.0469089 3.63601e-09 -0.00180834)
(-0.0441647 3.77664e-09 -0.00175987)
(-0.0414973 3.93233e-09 -0.00171063)
(-0.0389078 4.10976e-09 -0.00166064)
(-0.036397 4.31397e-09 -0.00160993)
(-0.0339657 4.5366e-09 -0.00155851)
(-0.031615 4.781e-09 -0.00150638)
(-0.0293455 5.06222e-09 -0.00145357)
(-0.0271582 5.38361e-09 -0.00140009)
(-0.0250539 5.7168e-09 -0.00134595)
(-0.0230333 6.08349e-09 -0.00129117)
(-0.0210973 6.48539e-09 -0.00123578)
(-0.0192466 6.93255e-09 -0.00117979)
(-0.0174819 7.40156e-09 -0.00112324)
(-0.0158039 7.91586e-09 -0.00106615)
(-0.0142133 8.45038e-09 -0.00100856)
(-0.0127106 9.03189e-09 -0.00095052)
(-0.0112964 9.65206e-09 -0.000892075)
(-0.00997118 1.03025e-08 -0.000833285)
(-0.00873522 1.10068e-08 -0.000774217)
(-0.00758883 1.1748e-08 -0.000714948)
(-0.00653219 1.25264e-08 -0.000655566)
(-0.00556533 1.33318e-08 -0.000596168)
(-0.00468815 1.41609e-08 -0.000536864)
(-0.00390039 1.49936e-08 -0.000477776)
(-0.00320161 1.58467e-08 -0.000419038)
(-0.00259117 1.66934e-08 -0.000360798)
(-0.00206823 1.75338e-08 -0.000303217)
(-0.00163171 1.83375e-08 -0.000246458)
(-0.00128029 1.91382e-08 -0.000190702)
(-0.00101239 1.99125e-08 -0.000136151)
(-0.000826137 2.0687e-08 -8.30045e-05)
(-0.000719336 2.14417e-08 -3.14983e-05)
(-0.000689475 2.22134e-08 1.81172e-05)
(-0.000733604 2.30291e-08 6.56008e-05)
(-0.000848532 2.38653e-08 0.000110684)
(-0.00103057 2.47422e-08 0.000153063)
(-0.0012756 2.57369e-08 0.000192435)
(-0.00157908 2.68094e-08 0.000228481)
(-0.00193598 2.801e-08 0.000260886)
(-0.00234077 2.9322e-08 0.000289311)
(-0.0027874 3.07455e-08 0.000313381)
(-0.00326925 3.22437e-08 0.00033273)
(-0.00377916 3.37864e-08 0.000346981)
(-0.00430935 3.5303e-08 0.000355724)
(-0.0048514 3.67834e-08 0.000358537)
(-0.00539622 3.82244e-08 0.000354983)
(-0.00593403 3.96326e-08 0.000344602)
(-0.00645428 4.11293e-08 0.000326914)
(-0.00694567 4.27617e-08 0.000301414)
(-0.00739604 4.46209e-08 0.000267576)
(-0.00779238 4.67139e-08 0.000224853)
(-0.00812076 4.90445e-08 0.000172682)
(-0.00836631 5.15794e-08 0.000110502)
(-0.00851323 5.42346e-08 3.7778e-05)
(-0.00854484 5.6977e-08 -4.59022e-05)
(-0.00844377 5.98775e-08 -0.000140674)
(-0.00819251 6.29303e-08 -0.000246353)
(-0.00777375 6.61833e-08 -0.000362105)
(-0.00717179 6.97325e-08 -0.000485717)
(-0.00637487 7.37419e-08 -0.000612554)
(-0.00537939 7.84981e-08 -0.000733602)
(-0.00419737 8.42091e-08 -0.000831974)
(-0.00287049 9.10517e-08 -0.00087682)
(-0.00149181 9.86193e-08 -0.000813838)
(-0.000248159 1.04903e-07 -0.000552449)
(0.000548342 1.07293e-07 -3.06794e-05)
(0.000349471 4.54772e-08 0.000374677)
(0.00537772 -2.19614e-05 -0.0101186)
(0.0114723 -2.28201e-06 -0.0119965)
(0.0148269 9.25223e-07 -0.00950936)
(0.0164314 7.78489e-07 -0.00554113)
(0.016213 2.00588e-07 -0.00155732)
(0.0144209 -1.06388e-07 0.00194402)
(0.0112339 -1.50673e-07 0.00484304)
(0.00684674 -9.57073e-08 0.00717423)
(0.00145104 -3.33782e-08 0.00902134)
(-0.00477827 9.04336e-09 0.0104708)
(-0.0116745 3.03152e-08 0.0115963)
(-0.0191091 3.60849e-08 0.0124559)
(-0.026966 3.26365e-08 0.013102)
(-0.035151 2.54047e-08 0.013581)
(-0.0435806 1.80453e-08 0.0139241)
(-0.0521866 1.21984e-08 0.0141564)
(-0.060911 7.97427e-09 0.0142973)
(-0.0697049 4.7701e-09 0.0143623)
(-0.0785267 2.02068e-09 0.0143637)
(-0.0873409 -4.82714e-10 0.0143115)
(-0.0961169 -2.64797e-09 0.0142138)
(-0.104828 -4.28948e-09 0.0140771)
(-0.113453 -5.30818e-09 0.0139069)
(-0.12197 -5.74097e-09 0.0137076)
(-0.130363 -5.74023e-09 0.0134829)
(-0.138616 -5.47856e-09 0.0132359)
(-0.146716 -5.10483e-09 0.0129694)
(-0.15465 -4.71044e-09 0.0126854)
(-0.162408 -4.35106e-09 0.0123861)
(-0.169981 -4.05326e-09 0.0120729)
(-0.17736 -3.84274e-09 0.0117475)
(-0.184537 -3.73194e-09 0.011411)
(-0.191505 -3.73743e-09 0.0110647)
(-0.198259 -3.85709e-09 0.0107095)
(-0.204793 -4.08093e-09 0.0103464)
(-0.211101 -4.38444e-09 0.00997633)
(-0.21718 -4.7344e-09 0.00959996)
(-0.223026 -5.08639e-09 0.00921808)
(-0.228635 -5.40016e-09 0.00883138)
(-0.234004 -5.63299e-09 0.00844051)
(-0.239131 -5.75254e-09 0.00804611)
(-0.244013 -5.73849e-09 0.00764877)
(-0.248648 -5.58631e-09 0.00724908)
(-0.253036 -5.30931e-09 0.00684759)
(-0.257176 -4.93363e-09 0.00644484)
(-0.261065 -4.49122e-09 0.00604138)
(-0.264705 -4.02233e-09 0.00563772)
(-0.268094 -3.55682e-09 0.00523436)
(-0.271233 -3.1208e-09 0.00483181)
(-0.274124 -2.72921e-09 0.00443056)
(-0.276765 -2.39031e-09 0.00403108)
(-0.279159 -2.10951e-09 0.00363385)
(-0.281308 -1.88346e-09 0.00323932)
(-0.283212 -1.70802e-09 0.00284796)
(-0.284874 -1.5753e-09 0.0024602)
(-0.286296 -1.47369e-09 0.00207648)
(-0.28748 -1.39032e-09 0.00169723)
(-0.28843 -1.30987e-09 0.00132287)
(-0.289148 -1.21989e-09 0.000953791)
(-0.289638 -1.10753e-09 0.000590392)
(-0.289903 -9.65322e-10 0.000233047)
(-0.289946 -7.94109e-10 -0.000117903)
(-0.289773 -5.98031e-10 -0.000462215)
(-0.289386 -3.88281e-10 -0.000799626)
(-0.288791 -1.78125e-10 -0.00112981)
(-0.287991 1.9176e-11 -0.00145246)
(-0.286992 1.90358e-10 -0.00176728)
(-0.285799 3.29619e-10 -0.00207398)
(-0.284416 4.33646e-10 -0.00237231)
(-0.282848 5.05341e-10 -0.00266202)
(-0.281102 5.50508e-10 -0.0029429)
(-0.279182 5.70807e-10 -0.00321474)
(-0.277094 5.77428e-10 -0.00347737)
(-0.274843 5.77418e-10 -0.00373063)
(-0.272437 5.76166e-10 -0.00397439)
(-0.269879 5.79474e-10 -0.00420851)
(-0.267177 5.9356e-10 -0.0044329)
(-0.264336 6.20082e-10 -0.00464748)
(-0.261362 6.60698e-10 -0.00485218)
(-0.258261 7.17068e-10 -0.00504696)
(-0.25504 7.88776e-10 -0.00523179)
(-0.251704 8.68363e-10 -0.00540666)
(-0.24826 9.52099e-10 -0.00557157)
(-0.244714 1.03542e-09 -0.00572656)
(-0.241071 1.11088e-09 -0.00587167)
(-0.237338 1.17348e-09 -0.00600695)
(-0.233521 1.2191e-09 -0.00613248)
(-0.229626 1.2444e-09 -0.00624834)
(-0.225658 1.25354e-09 -0.00635465)
(-0.221624 1.24527e-09 -0.00645152)
(-0.217529 1.22124e-09 -0.00653908)
(-0.213379 1.1852e-09 -0.00661748)
(-0.20918 1.14335e-09 -0.00668688)
(-0.204937 1.09776e-09 -0.00674745)
(-0.200656 1.05301e-09 -0.00679936)
(-0.196341 1.01074e-09 -0.00684281)
(-0.191999 9.75934e-10 -0.006878)
(-0.187633 9.45688e-10 -0.00690513)
(-0.18325 9.21248e-10 -0.00692443)
(-0.178853 9.05101e-10 -0.0069361)
(-0.174448 8.93516e-10 -0.00694039)
(-0.170039 8.86079e-10 -0.00693752)
(-0.165631 8.77399e-10 -0.00692773)
(-0.161227 8.69548e-10 -0.00691127)
(-0.156832 8.61284e-10 -0.00688836)
(-0.15245 8.52605e-10 -0.00685927)
(-0.148085 8.40608e-10 -0.00682422)
(-0.14374 8.26121e-10 -0.00678347)
(-0.139419 8.09561e-10 -0.00673725)
(-0.135125 7.91755e-10 -0.00668582)
(-0.130862 7.72704e-10 -0.00662939)
(-0.126633 7.51577e-10 -0.00656822)
(-0.12244 7.28789e-10 -0.00650252)
(-0.118287 7.06414e-10 -0.00643252)
(-0.114176 6.80302e-10 -0.00635843)
(-0.110111 6.55434e-10 -0.00628048)
(-0.106092 6.25167e-10 -0.00619885)
(-0.102124 5.94067e-10 -0.00611375)
(-0.0982074 5.57567e-10 -0.00602536)
(-0.0943452 5.21894e-10 -0.00593386)
(-0.0905392 4.78328e-10 -0.00583942)
(-0.0867913 4.38908e-10 -0.0057422)
(-0.0831036 3.96991e-10 -0.00564234)
(-0.0794776 3.56314e-10 -0.00553999)
(-0.0759151 3.12308e-10 -0.00543527)
(-0.0724178 2.70787e-10 -0.0053283)
(-0.068987 2.30504e-10 -0.00521919)
(-0.0656245 1.87307e-10 -0.00510804)
(-0.0623314 1.47841e-10 -0.00499493)
(-0.0591093 1.10028e-10 -0.00487995)
(-0.0559595 7.01296e-11 -0.00476316)
(-0.0528833 3.14691e-11 -0.00464462)
(-0.0498818 -3.87639e-12 -0.00452439)
(-0.0469564 -3.92308e-11 -0.00440251)
(-0.0441082 -7.50101e-11 -0.00427902)
(-0.0413384 -1.10384e-10 -0.00415397)
(-0.0386481 -1.48262e-10 -0.00402736)
(-0.0360385 -1.84488e-10 -0.00389924)
(-0.0335107 -2.23636e-10 -0.00376963)
(-0.0310658 -2.62381e-10 -0.00363855)
(-0.0287048 -2.99891e-10 -0.00350603)
(-0.0264289 -3.42405e-10 -0.00337209)
(-0.0242389 -3.82439e-10 -0.00323677)
(-0.0221361 -4.29143e-10 -0.00310009)
(-0.0201213 -4.73369e-10 -0.00296211)
(-0.0181954 -5.2094e-10 -0.00282287)
(-0.0163595 -5.71027e-10 -0.00268245)
(-0.0146144 -6.20301e-10 -0.0025409)
(-0.0129608 -6.72926e-10 -0.00239834)
(-0.0113996 -7.23908e-10 -0.00225485)
(-0.00993135 -7.78244e-10 -0.00211056)
(-0.00855674 -8.33436e-10 -0.00196562)
(-0.00727621 -8.9032e-10 -0.0018202)
(-0.00609015 -9.53893e-10 -0.00167448)
(-0.0049988 -1.01916e-09 -0.00152868)
(-0.00400227 -1.09279e-09 -0.00138305)
(-0.00310051 -1.17228e-09 -0.00123784)
(-0.00229327 -1.26265e-09 -0.00109336)
(-0.00158012 -1.36722e-09 -0.000949944)
(-0.000960415 -1.48016e-09 -0.000807951)
(-0.000433291 -1.60483e-09 -0.000667754)
(2.40201e-06 -1.73622e-09 -0.000529747)
(0.000348028 -1.87599e-09 -0.000394396)
(0.000605298 -2.01416e-09 -0.000262203)
(0.000776243 -2.14822e-09 -0.000133701)
(0.000863223 -2.284e-09 -9.46124e-06)
(0.00086898 -2.404e-09 0.000109933)
(0.000796636 -2.51739e-09 0.000223853)
(0.000649716 -2.60663e-09 0.000331601)
(0.000432186 -2.67673e-09 0.000432458)
(0.00014847 -2.72183e-09 0.000525671)
(-0.000196556 -2.74777e-09 0.00061045)
(-0.000597438 -2.7512e-09 0.000685943)
(-0.00104826 -2.73961e-09 0.000751276)
(-0.00154253 -2.73556e-09 0.000805536)
(-0.0020732 -2.74742e-09 0.000847777)
(-0.00263262 -2.79022e-09 0.000876978)
(-0.00321252 -2.869e-09 0.000892078)
(-0.00380401 -2.9796e-09 0.000891966)
(-0.00439752 -3.11116e-09 0.000875468)
(-0.00498282 -3.23695e-09 0.000841354)
(-0.00554898 -3.33772e-09 0.000788333)
(-0.00608435 -3.40175e-09 0.000715046)
(-0.0065766 -3.44659e-09 0.000620085)
(-0.00701268 -3.47222e-09 0.000501999)
(-0.00737889 -3.51129e-09 0.000359334)
(-0.00766092 -3.5814e-09 0.000190708)
(-0.00784403 -3.69351e-09 -5.03521e-06)
(-0.00791318 -3.83917e-09 -0.000228538)
(-0.00785345 -4.01174e-09 -0.000479688)
(-0.00765073 -4.23474e-09 -0.000756973)
(-0.00729244 -4.4931e-09 -0.00105617)
(-0.00676906 -4.75835e-09 -0.00136829)
(-0.0060762 -4.9398e-09 -0.00167588)
(-0.00521778 -4.8609e-09 -0.00194667)
(-0.00421073 -4.3394e-09 -0.0021228)
(-0.00308882 -3.3533e-09 -0.00210382)
(-0.00191467 -2.51978e-09 -0.00172384)
(-0.000782449 -6.15031e-09 -0.000768837)
(-5.9447e-05 -7.0927e-08 0.000551016)
(0.00539803 -2.19588e-05 -0.0101314)
(0.0114842 -2.28199e-06 -0.0120102)
(0.0148311 9.25214e-07 -0.00951636)
(0.0164327 7.78479e-07 -0.00554432)
(0.0162133 2.00585e-07 -0.00155862)
(0.0144207 -1.06386e-07 0.00194355)
(0.0112335 -1.50671e-07 0.00484287)
(0.00684637 -9.5706e-08 0.00717415)
(0.00145065 -3.33777e-08 0.00902129)
(-0.00477862 9.04324e-09 0.0104708)
(-0.0116747 3.03148e-08 0.0115963)
(-0.0191093 3.60845e-08 0.0124558)
(-0.0269661 3.26361e-08 0.013102)
(-0.035151 2.54044e-08 0.013581)
(-0.0435806 1.80451e-08 0.0139241)
(-0.0521866 1.21983e-08 0.0141563)
(-0.060911 7.97418e-09 0.0142972)
(-0.0697048 4.77006e-09 0.0143622)
(-0.0785266 2.02066e-09 0.0143637)
(-0.0873407 -4.8271e-10 0.0143115)
(-0.0961167 -2.64795e-09 0.0142138)
(-0.104828 -4.28944e-09 0.0140771)
(-0.113453 -5.30813e-09 0.0139069)
(-0.12197 -5.74092e-09 0.0137075)
(-0.130363 -5.74017e-09 0.0134828)
(-0.138616 -5.47851e-09 0.0132359)
(-0.146715 -5.10478e-09 0.0129693)
(-0.15465 -4.7104e-09 0.0126854)
(-0.162408 -4.35102e-09 0.012386)
(-0.169981 -4.05322e-09 0.0120729)
(-0.177359 -3.84271e-09 0.0117475)
(-0.184536 -3.73191e-09 0.011411)
(-0.191505 -3.73739e-09 0.0110647)
(-0.198259 -3.85705e-09 0.0107095)
(-0.204792 -4.0809e-09 0.0103464)
(-0.211101 -4.38441e-09 0.00997631)
(-0.21718 -4.73436e-09 0.00959995)
(-0.223026 -5.08635e-09 0.00921807)
(-0.228634 -5.40012e-09 0.00883137)
(-0.234004 -5.63294e-09 0.0084405)
(-0.23913 -5.75249e-09 0.0080461)
(-0.244012 -5.73844e-09 0.00764876)
(-0.248648 -5.58627e-09 0.00724907)
(-0.253036 -5.30926e-09 0.00684758)
(-0.257175 -4.93359e-09 0.00644484)
(-0.261065 -4.49119e-09 0.00604137)
(-0.264704 -4.0223e-09 0.00563771)
(-0.268094 -3.55679e-09 0.00523435)
(-0.271233 -3.12078e-09 0.00483181)
(-0.274123 -2.72918e-09 0.00443055)
(-0.276765 -2.39029e-09 0.00403107)
(-0.279159 -2.10949e-09 0.00363384)
(-0.281307 -1.88345e-09 0.00323931)
(-0.283211 -1.70801e-09 0.00284795)
(-0.284873 -1.57529e-09 0.00246019)
(-0.286295 -1.47367e-09 0.00207647)
(-0.28748 -1.39031e-09 0.00169722)
(-0.28843 -1.30986e-09 0.00132286)
(-0.289148 -1.21988e-09 0.000953784)
(-0.289637 -1.10752e-09 0.000590386)
(-0.289902 -9.65314e-10 0.00023304)
(-0.289946 -7.94102e-10 -0.00011791)
(-0.289772 -5.98026e-10 -0.000462222)
(-0.289386 -3.88278e-10 -0.000799632)
(-0.288791 -1.78123e-10 -0.00112982)
(-0.287991 1.91758e-11 -0.00145247)
(-0.286992 1.90356e-10 -0.00176729)
(-0.285798 3.29616e-10 -0.00207399)
(-0.284415 4.33642e-10 -0.00237232)
(-0.282848 5.05337e-10 -0.00266203)
(-0.281101 5.50504e-10 -0.00294291)
(-0.279181 5.70802e-10 -0.00321475)
(-0.277093 5.77423e-10 -0.00347738)
(-0.274843 5.77413e-10 -0.00373064)
(-0.272436 5.76161e-10 -0.0039744)
(-0.269879 5.79469e-10 -0.00420852)
(-0.267176 5.93555e-10 -0.00443291)
(-0.264335 6.20077e-10 -0.00464749)
(-0.261361 6.60693e-10 -0.00485219)
(-0.258261 7.17062e-10 -0.00504697)
(-0.25504 7.8877e-10 -0.0052318)
(-0.251704 8.68357e-10 -0.00540667)
(-0.24826 9.52092e-10 -0.00557158)
(-0.244713 1.03542e-09 -0.00572657)
(-0.24107 1.11087e-09 -0.00587168)
(-0.237338 1.17347e-09 -0.00600696)
(-0.233521 1.21909e-09 -0.00613249)
(-0.229625 1.24439e-09 -0.00624835)
(-0.225658 1.25353e-09 -0.00635466)
(-0.221624 1.24526e-09 -0.00645153)
(-0.217529 1.22123e-09 -0.00653909)
(-0.213379 1.18519e-09 -0.00661749)
(-0.20918 1.14334e-09 -0.00668689)
(-0.204937 1.09776e-09 -0.00674746)
(-0.200656 1.053e-09 -0.00679937)
(-0.196341 1.01073e-09 -0.00684282)
(-0.191999 9.75927e-10 -0.00687801)
(-0.187633 9.45682e-10 -0.00690515)
(-0.18325 9.21242e-10 -0.00692444)
(-0.178853 9.05095e-10 -0.00693612)
(-0.174448 8.9351e-10 -0.0069404)
(-0.170039 8.86073e-10 -0.00693754)
(-0.165631 8.77393e-10 -0.00692775)
(-0.161227 8.69543e-10 -0.00691128)
(-0.156832 8.61278e-10 -0.00688838)
(-0.15245 8.52599e-10 -0.00685928)
(-0.148085 8.40602e-10 -0.00682423)
(-0.14374 8.26116e-10 -0.00678348)
(-0.139418 8.09556e-10 -0.00673727)
(-0.135125 7.9175e-10 -0.00668583)
(-0.130862 7.72699e-10 -0.00662941)
(-0.126632 7.51572e-10 -0.00656823)
(-0.12244 7.28784e-10 -0.00650253)
(-0.118287 7.06409e-10 -0.00643253)
(-0.114176 6.80298e-10 -0.00635845)
(-0.11011 6.5543e-10 -0.00628049)
(-0.106092 6.25163e-10 -0.00619887)
(-0.102124 5.94064e-10 -0.00611377)
(-0.0982072 5.57564e-10 -0.00602538)
(-0.094345 5.21891e-10 -0.00593388)
(-0.090539 4.78325e-10 -0.00583944)
(-0.0867912 4.38905e-10 -0.00574222)
(-0.0831034 3.96989e-10 -0.00564236)
(-0.0794774 3.56312e-10 -0.00554001)
(-0.075915 3.12306e-10 -0.00543529)
(-0.0724176 2.70785e-10 -0.00532832)
(-0.0689869 2.30503e-10 -0.00521921)
(-0.0656243 1.87306e-10 -0.00510806)
(-0.0623313 1.4784e-10 -0.00499495)
(-0.0591092 1.10027e-10 -0.00487997)
(-0.0559594 7.01293e-11 -0.00476318)
(-0.0528831 3.14689e-11 -0.00464464)
(-0.0498816 -3.87637e-12 -0.00452441)
(-0.0469562 -3.92306e-11 -0.00440253)
(-0.044108 -7.50097e-11 -0.00427905)
(-0.0413382 -1.10383e-10 -0.00415399)
(-0.038648 -1.48261e-10 -0.00402738)
(-0.0360384 -1.84487e-10 -0.00389927)
(-0.0335106 -2.23635e-10 -0.00376966)
(-0.0310657 -2.62379e-10 -0.00363858)
(-0.0287047 -2.9989e-10 -0.00350605)
(-0.0264287 -3.42404e-10 -0.00337212)
(-0.0242388 -3.82437e-10 -0.00323679)
(-0.0221359 -4.29141e-10 -0.00310012)
(-0.0201211 -4.73367e-10 -0.00296213)
(-0.0181953 -5.20938e-10 -0.0028229)
(-0.0163593 -5.71024e-10 -0.00268247)
(-0.0146142 -6.20299e-10 -0.00254093)
(-0.0129606 -6.72923e-10 -0.00239836)
(-0.0113994 -7.23905e-10 -0.00225487)
(-0.0099312 -7.78241e-10 -0.00211058)
(-0.00855658 -8.33433e-10 -0.00196565)
(-0.00727606 -8.90316e-10 -0.00182023)
(-0.00609 -9.53889e-10 -0.00167451)
(-0.00499865 -1.01916e-09 -0.00152871)
(-0.00400212 -1.09279e-09 -0.00138307)
(-0.00310036 -1.17228e-09 -0.00123786)
(-0.00229312 -1.26264e-09 -0.00109339)
(-0.00157997 -1.36721e-09 -0.000949968)
(-0.000960267 -1.48016e-09 -0.000807975)
(-0.000433144 -1.60482e-09 -0.000667778)
(2.54825e-06 -1.73621e-09 -0.000529771)
(0.000348173 -1.87599e-09 -0.00039442)
(0.000605442 -2.01416e-09 -0.000262227)
(0.000776385 -2.14822e-09 -0.000133724)
(0.000863363 -2.284e-09 -9.48447e-06)
(0.000869117 -2.404e-09 0.00010991)
(0.00079677 -2.51738e-09 0.00022383)
(0.000649848 -2.60663e-09 0.000331578)
(0.000432314 -2.67672e-09 0.000432436)
(0.000148595 -2.72182e-09 0.000525649)
(-0.000196435 -2.74776e-09 0.000610428)
(-0.000597321 -2.75119e-09 0.000685921)
(-0.00104814 -2.7396e-09 0.000751254)
(-0.00154242 -2.73556e-09 0.000805515)
(-0.0020731 -2.74741e-09 0.000847755)
(-0.00263252 -2.79021e-09 0.000876957)
(-0.00321243 -2.86899e-09 0.000892056)
(-0.00380392 -2.97959e-09 0.000891944)
(-0.00439744 -3.11116e-09 0.000875445)
(-0.00498275 -3.23694e-09 0.000841332)
(-0.00554891 -3.33771e-09 0.000788309)
(-0.00608429 -3.40174e-09 0.000715022)
(-0.00657655 -3.44658e-09 0.00062006)
(-0.00701263 -3.47221e-09 0.000501971)
(-0.00737884 -3.51128e-09 0.000359305)
(-0.00766088 -3.58139e-09 0.000190676)
(-0.007844 -3.6935e-09 -5.0709e-06)
(-0.00791315 -3.83916e-09 -0.000228578)
(-0.00785343 -4.01173e-09 -0.000479732)
(-0.00765071 -4.23473e-09 -0.000757023)
(-0.00729243 -4.49309e-09 -0.00105623)
(-0.00676905 -4.75834e-09 -0.00136836)
(-0.0060762 -4.93979e-09 -0.00167596)
(-0.00521777 -4.86089e-09 -0.00194676)
(-0.00421073 -4.33939e-09 -0.0021229)
(-0.00308882 -3.35329e-09 -0.00210393)
(-0.00191469 -2.51977e-09 -0.00172397)
(-0.000782555 -6.15032e-09 -0.000769025)