/*--------------------------------*- C++ -*----------------------------------*\
  =========                 |
  \\      /  F ield         | OpenFOAM: The Open Source CFD Toolbox
   \\    /   O peration     | Website:  https://openfoam.org
    \\  /    A nd           | Version:  8
     \\/     M anipulation  |
\*---------------------------------------------------------------------------*/
FoamFile
{
    version     2.0;
    format      ascii;
    class       volScalarField;
    location    "5000";
    object      alphat;
}
// * * * * * * * * * * * * * * * * * * * * * * * * * * * * * * * * * * * * * //

dimensions      [1 -1 -1 0 0 0 0];

internalField   nonuniform List<scalar> 
46000
(
3.20532e-06
1.09933e-05
1.88307e-05
2.60287e-05
3.28054e-05
3.93463e-05
4.57252e-05
5.19696e-05
5.81145e-05
6.4186e-05
7.02065e-05
7.61799e-05
8.20829e-05
8.79369e-05
9.37476e-05
9.9516e-05
0.000105241
0.00011092
0.000116549
0.000122124
0.00012764
0.000133092
0.000138472
0.000143774
0.00014899
0.000154112
0.000159132
0.000164039
0.000168821
0.000173467
0.000177962
0.000182285
0.000186413
0.000190313
0.000193932
0.000197183
0.000199877
0.000201488
0.000200158
0.000188536
3.29456e-05
3.15598e-05
3.15432e-05
3.20144e-05
3.37835e-05
0.000180983
3.30525e-05
3.19585e-05
3.32126e-05
0.00018198
0.000178024
0.000170934
0.000171699
0.000175817
0.000178556
0.000183736
0.000197743
0.000206834
0.000207988
0.00021226
0.000211302
0.000211684
0.000210598
0.000196435
3.65478e-05
0.000201263
0.000211446
0.000209622
0.000201705
0.000197384
0.000200232
0.000198338
0.000195275
0.000198612
0.000198791
0.000203534
0.000200775
0.00018532
3.29576e-05
3.1659e-05
3.13054e-05
3.08945e-05
3.10659e-05
3.30603e-05
0.000191824
0.000201346
0.000201667
0.000199956
0.000197699
0.000195231
0.00019265
0.000189993
0.000187282
0.000184533
0.000181757
0.000178961
0.000176153
0.000173339
0.000170523
0.00016771
0.000164902
0.000162105
0.00015932
0.00015655
0.000153798
0.000151066
0.000148356
0.000145669
0.000143008
0.000140374
0.000137769
0.000135192
0.000132646
0.000130132
0.00012765
0.0001252
0.000122784
0.000120402
0.000118054
0.00011574
0.000113461
0.000111216
0.000109006
0.00010683
0.000104689
0.000102582
0.000100508
9.84673e-05
9.64598e-05
9.44847e-05
9.25415e-05
9.06298e-05
8.87488e-05
8.68981e-05
8.50769e-05
8.32847e-05
8.15207e-05
7.97842e-05
7.80747e-05
7.63913e-05
7.47334e-05
7.31002e-05
7.14911e-05
6.99053e-05
6.83422e-05
6.68009e-05
6.5281e-05
6.37816e-05
6.23022e-05
6.08421e-05
5.94006e-05
5.79772e-05
5.65713e-05
5.51822e-05
5.38094e-05
5.24524e-05
5.11106e-05
4.97835e-05
4.84707e-05
4.71717e-05
4.58859e-05
4.46129e-05
4.33524e-05
4.21039e-05
4.08669e-05
3.96411e-05
3.8426e-05
3.72213e-05
3.60265e-05
3.48414e-05
3.36653e-05
3.24981e-05
3.13392e-05
3.01882e-05
2.90446e-05
2.79081e-05
2.67781e-05
2.56541e-05
2.45354e-05
2.34216e-05
2.2312e-05
2.12058e-05
2.01022e-05
1.90003e-05
1.78992e-05
1.67977e-05
1.56946e-05
1.45884e-05
1.34774e-05
1.23595e-05
1.12324e-05
1.00931e-05
8.93786e-06
7.76213e-06
6.55968e-06
5.32117e-06
4.03786e-06
2.69933e-06
1.33013e-06
2.68756e-07
3.20814e-06
1.09982e-05
1.88346e-05
2.60304e-05
3.28059e-05
3.93464e-05
4.57252e-05
5.19697e-05
5.81145e-05
6.4186e-05
7.02065e-05
7.618e-05
8.2083e-05
8.79369e-05
9.37476e-05
9.9516e-05
0.000105241
0.00011092
0.000116549
0.000122124
0.00012764
0.000133091
0.000138472
0.000143773
0.00014899
0.000154112
0.000159132
0.000164038
0.000168821
0.000173467
0.000177961
0.000182282
0.000186404
0.000190288
0.000193873
0.000197063
0.000199718
0.000201668
0.000202756
0.000202882
0.000202028
0.000202381
0.000202779
0.000203447
0.000202205
0.000191562
3.33291e-05
3.17839e-05
3.16412e-05
3.18005e-05
3.1573e-05
3.19415e-05
3.41436e-05
0.000198398
0.000211331
0.00021222
0.000214284
0.000215585
0.000215441
0.000214484
0.000213694
0.000213128
0.000211743
0.00020807
0.000209055
0.000209862
0.000207937
0.000196611
0.000183246
0.000172388
0.000172851
0.000171357
0.000168347
0.000170142
0.000169549
0.000169632
0.000173908
0.000187466
0.000195955
0.000197802
0.000186045
3.24932e-05
3.13162e-05
3.31254e-05
0.000191832
0.000201301
0.000201633
0.00019994
0.000197693
0.00019523
0.00019265
0.000189993
0.000187282
0.000184533
0.000181757
0.000178961
0.000176153
0.000173339
0.000170523
0.000167709
0.000164902
0.000162105
0.00015932
0.00015655
0.000153798
0.000151066
0.000148356
0.000145669
0.000143008
0.000140374
0.000137768
0.000135192
0.000132646
0.000130132
0.00012765
0.0001252
0.000122784
0.000120402
0.000118054
0.00011574
0.000113461
0.000111216
0.000109006
0.00010683
0.000104689
0.000102581
0.000100508
9.84671e-05
9.64596e-05
9.44845e-05
9.25413e-05
9.06296e-05
8.87486e-05
8.68979e-05
8.50767e-05
8.32845e-05
8.15205e-05
7.97841e-05
7.80745e-05
7.63912e-05
7.47332e-05
7.31001e-05
7.14909e-05
6.99052e-05
6.8342e-05
6.68008e-05
6.52809e-05
6.37815e-05
6.23021e-05
6.0842e-05
5.94005e-05
5.79771e-05
5.65711e-05
5.5182e-05
5.38093e-05
5.24523e-05
5.11105e-05
4.97834e-05
4.84706e-05
4.71716e-05
4.58858e-05
4.46129e-05
4.33523e-05
4.21038e-05
4.08668e-05
3.9641e-05
3.84259e-05
3.72212e-05
3.60265e-05
3.48413e-05
3.36653e-05
3.2498e-05
3.13391e-05
3.01881e-05
2.90446e-05
2.79081e-05
2.6778e-05
2.5654e-05
2.45354e-05
2.34216e-05
2.23119e-05
2.12057e-05
2.01021e-05
1.90003e-05
1.78992e-05
1.67977e-05
1.56946e-05
1.45884e-05
1.34774e-05
1.23595e-05
1.12324e-05
1.0093e-05
8.93786e-06
7.76213e-06
6.55968e-06
5.32118e-06
4.03787e-06
2.69934e-06
1.33014e-06
2.68755e-07
1.01805e-05
7.0744e-05
0.000116443
0.000148542
0.000173654
0.00019464
0.000212858
0.000229266
0.000244387
0.000258542
0.000271929
0.000284704
0.000296982
0.000308828
0.000320295
0.000331422
0.000342236
0.000352763
0.000363018
0.000373013
0.00038276
0.000392262
0.000401526
0.000410551
0.00041934
0.00042789
0.000436198
0.00044426
0.00045207
0.00045962
0.000466896
0.000473883
0.000480556
0.000486874
0.000492756
0.00049802
0.000502106
0.000502921
0.000491732
0.000435813
0.00027745
0.000260589
0.000259622
0.000264135
0.000282425
0.00039285
0.000274961
0.000263785
0.000279234
0.00040626
0.000395437
0.000385862
0.000387198
0.000397285
0.000401841
0.000410356
0.000433623
0.000486881
0.000498431
0.000487234
0.000480343
0.000479932
0.000479499
0.000450467
0.00032057
0.000463674
0.000498423
0.000497616
0.000477114
0.000442031
0.000472686
0.000469623
0.000439099
0.00047195
0.000477743
0.000467242
0.000458093
0.000420894
0.000278719
0.000262461
0.00025775
0.000253221
0.000256113
0.000278513
0.000450922
0.000503575
0.000512348
0.000511479
0.000508514
0.000504972
0.000501184
0.000497248
0.000493204
0.000489075
0.000484877
0.000480624
0.000476326
0.00047199
0.000467625
0.000463235
0.000458827
0.000454406
0.000449977
0.000445542
0.000441106
0.000436674
0.000432247
0.000427829
0.000423423
0.000419031
0.000414657
0.000410301
0.000405966
0.000401655
0.000397368
0.000393107
0.000388873
0.000384669
0.000380493
0.000376349
0.000372236
0.000368154
0.000364105
0.000360089
0.000356106
0.000352155
0.000348238
0.000344353
0.000340501
0.000336682
0.000332894
0.000329138
0.000325412
0.000321717
0.00031805
0.000314413
0.000310803
0.00030722
0.000303663
0.000300131
0.000296623
0.000293137
0.000289672
0.000286229
0.000282804
0.000279397
0.000276007
0.000272632
0.000269271
0.000265923
0.000262586
0.000259259
0.000255941
0.00025263
0.000249325
0.000246024
0.000242726
0.000239429
0.000236132
0.000232833
0.000229531
0.000226223
0.000222907
0.000219583
0.000216248
0.000212899
0.000209536
0.000206154
0.000202753
0.000199328
0.000195877
0.000192398
0.000188885
0.000185336
0.000181747
0.000178112
0.000174426
0.000170684
0.000166879
0.000163002
0.000159047
0.000155001
0.000150855
0.000146595
0.000142203
0.000137663
0.00013295
0.000128037
0.000122889
0.000117461
0.000111697
0.000105522
9.88301e-05
9.14734e-05
8.32258e-05
7.37185e-05
6.2271e-05
4.74457e-05
2.57588e-05
1.21399e-06
1.01769e-05
7.07439e-05
0.000116447
0.000148545
0.000173656
0.000194642
0.00021286
0.000229268
0.000244389
0.000258544
0.000271931
0.000284706
0.000296984
0.000308831
0.000320298
0.000331424
0.000342239
0.000352765
0.00036302
0.000373016
0.000382762
0.000392265
0.000401528
0.000410554
0.000419342
0.000427892
0.000436201
0.000444263
0.000452073
0.000459622
0.000466897
0.000473882
0.000480547
0.000486846
0.000492693
0.000497938
0.000502323
0.000505438
0.00050658
0.00050395
0.000490699
0.000488229
0.000489714
0.000490259
0.000481959
0.000437302
0.000278832
0.00026052
0.000258217
0.000260777
0.000261286
0.00026589
0.000288863
0.000446717
0.000492632
0.000504421
0.000511475
0.000518131
0.000518384
0.000515371
0.000513127
0.000511899
0.000509254
0.000499099
0.000475242
0.000476731
0.000477073
0.000464799
0.000415555
0.00039803
0.000395575
0.000392798
0.000389912
0.000391178
0.000390359
0.000390224
0.000396947
0.000418907
0.000463264
0.000470857
0.000423702
0.000273706
0.00025973
0.000278477
0.000448836
0.000502637
0.000512059
0.000511396
0.000508492
0.000504968
0.000501186
0.000497251
0.000493207
0.000489078
0.00048488
0.000480627
0.000476328
0.000471993
0.000467627
0.000463238
0.00045883
0.000454409
0.000449979
0.000445544
0.000441109
0.000436676
0.000432249
0.000427831
0.000423425
0.000419033
0.000414659
0.000410303
0.000405968
0.000401657
0.00039737
0.000393109
0.000388875
0.00038467
0.000380495
0.000376351
0.000372237
0.000368156
0.000364107
0.000360091
0.000356107
0.000352157
0.000348239
0.000344355
0.000340503
0.000336683
0.000332895
0.000329139
0.000325413
0.000321718
0.000318052
0.000314414
0.000310805
0.000307222
0.000303665
0.000300132
0.000296624
0.000293138
0.000289674
0.00028623
0.000282805
0.000279398
0.000276008
0.000272633
0.000269272
0.000265924
0.000262587
0.00025926
0.000255942
0.000252631
0.000249326
0.000246025
0.000242727
0.00023943
0.000236133
0.000232834
0.000229531
0.000226223
0.000222908
0.000219584
0.000216249
0.0002129
0.000209536
0.000206155
0.000202753
0.000199329
0.000195878
0.000192398
0.000188886
0.000185337
0.000181748
0.000178113
0.000174427
0.000170685
0.000166879
0.000163003
0.000159047
0.000155002
0.000150856
0.000146595
0.000142204
0.000137663
0.000132951
0.000128037
0.000122889
0.000117461
0.000111698
0.000105522
9.88303e-05
9.14736e-05
8.3226e-05
7.37187e-05
6.22711e-05
4.74458e-05
2.57588e-05
1.21399e-06
1.78341e-05
0.000113088
0.000201733
0.000268558
0.000320716
0.000363116
0.000398896
0.000430045
0.000457814
0.000483042
0.000506301
0.000527988
0.00054839
0.000567712
0.000586101
0.000603675
0.000620521
0.00063671
0.000652298
0.00066733
0.00068184
0.000695858
0.000709407
0.000722505
0.000735167
0.000747405
0.000759227
0.000770638
0.000781641
0.000792235
0.000802414
0.000812164
0.00082146
0.000830252
0.000838444
0.000845854
0.000852103
0.000856272
0.00085545
0.000838391
0.000763199
0.000742488
0.000740017
0.0007438
0.000756809
0.000811543
0.000763662
0.00074877
0.000752588
0.000796211
0.00078779
0.000777966
0.000775934
0.000779252
0.000783009
0.000791797
0.000814187
0.000842911
0.000845956
0.000835905
0.000829645
0.000832369
0.000842857
0.000843822
0.000793913
0.000836852
0.000852365
0.000852754
0.000837441
0.000826258
0.000837673
0.000831909
0.000822993
0.000834702
0.000833206
0.000826877
0.000830445
0.000830546
0.00077184
0.000753933
0.000747937
0.000743378
0.000744376
0.000759331
0.000839361
0.000870026
0.000876361
0.000875023
0.000871415
0.00086702
0.000862253
0.000857254
0.000852084
0.000846776
0.000841356
0.000835839
0.000830241
0.00082457
0.000818837
0.00081305
0.000807215
0.000801338
0.000795427
0.000789485
0.000783517
0.000777529
0.000771525
0.000765508
0.000759483
0.000753453
0.000747421
0.000741391
0.000735365
0.000729346
0.000723337
0.000717339
0.000711355
0.000705387
0.000699436
0.000693504
0.000687592
0.000681701
0.000675833
0.000669987
0.000664165
0.000658367
0.000652594
0.000646844
0.00064112
0.000635419
0.000629743
0.00062409
0.00061846
0.000612853
0.000607267
0.000601702
0.000596157
0.00059063
0.000585121
0.000579628
0.00057415
0.000568686
0.000563233
0.000557791
0.000552357
0.00054693
0.000541508
0.000536089
0.000530672
0.000525253
0.000519832
0.000514405
0.000508971
0.000503527
0.000498071
0.0004926
0.000487112
0.000481603
0.000476071
0.000470513
0.000464925
0.000459304
0.000453646
0.000447948
0.000442205
0.000436413
0.000430566
0.000424661
0.00041869
0.000412648
0.000406528
0.000400322
0.000394022
0.000387619
0.000381102
0.00037446
0.00036768
0.000360746
0.000353643
0.00034635
0.000338845
0.000331102
0.000323092
0.000314778
0.000306118
0.00029706
0.000287543
0.000277491
0.000266807
0.00025537
0.000243023
0.000229555
0.000214678
0.000197981
0.000178852
0.000156334
0.000128819
9.34995e-05
4.62068e-05
2.47552e-06
1.78327e-05
0.000113088
0.000201735
0.000268561
0.00032072
0.00036312
0.0003989
0.000430048
0.000457818
0.000483046
0.000506305
0.000527991
0.000548394
0.000567715
0.000586105
0.000603679
0.000620525
0.000636714
0.000652302
0.000667333
0.000681844
0.000695862
0.000709411
0.000722509
0.000735171
0.000747409
0.000759231
0.000770642
0.000781644
0.000792238
0.000802415
0.000812161
0.000821443
0.000830195
0.000838286
0.000845462
0.000851278
0.000855092
0.000856268
0.000854422
0.000847477
0.000847047
0.000850242
0.000853207
0.000853014
0.00084225
0.000767623
0.000745194
0.000740859
0.00074312
0.000743231
0.000745529
0.000758738
0.000823615
0.000848682
0.000857197
0.000862583
0.000866755
0.000866108
0.000862971
0.000860737
0.000859819
0.000857533
0.000848059
0.00083254
0.000831324
0.000834883
0.000825516
0.000799191
0.000783992
0.000780222
0.000777287
0.000774549
0.000774688
0.0007734
0.000773341
0.000781226
0.000805964
0.000837579
0.000851467
0.000840326
0.00076693
0.00074633
0.000755535
0.000836156
0.000868615
0.000875869
0.000874866
0.000871369
0.000867009
0.000862253
0.000857257
0.000852087
0.00084678
0.000841359
0.000835842
0.000830243
0.000824573
0.00081884
0.000813052
0.000807217
0.000801341
0.000795429
0.000789487
0.000783519
0.000777531
0.000771527
0.00076551
0.000759485
0.000753455
0.000747423
0.000741393
0.000735367
0.000729348
0.000723338
0.000717341
0.000711357
0.000705389
0.000699438
0.000693506
0.000687594
0.000681703
0.000675834
0.000669989
0.000664167
0.000658368
0.000652595
0.000646845
0.000641121
0.00063542
0.000629744
0.000624091
0.000618461
0.000612853
0.000607268
0.000601703
0.000596157
0.000590631
0.000585122
0.000579629
0.000574151
0.000568686
0.000563234
0.000557791
0.000552358
0.000546931
0.000541509
0.00053609
0.000530672
0.000525254
0.000519832
0.000514406
0.000508972
0.000503528
0.000498072
0.000492601
0.000487112
0.000481603
0.000476071
0.000470513
0.000464925
0.000459304
0.000453646
0.000447948
0.000442205
0.000436413
0.000430567
0.000424661
0.00041869
0.000412648
0.000406528
0.000400322
0.000394022
0.000387619
0.000381102
0.00037446
0.00036768
0.000360746
0.000353643
0.00034635
0.000338845
0.000331102
0.000323092
0.000314778
0.000306118
0.00029706
0.000287543
0.000277491
0.000266807
0.00025537
0.000243023
0.000229555
0.000214678
0.000197981
0.000178852
0.000156334
0.000128819
9.34995e-05
4.62067e-05
2.47553e-06
2.50375e-05
0.000143737
0.000265425
0.000364148
0.000443998
0.0005099
0.00056568
0.000613998
0.000656691
0.000695046
0.000729979
0.000762156
0.000792065
0.00082007
0.000846444
0.0008714
0.000895104
0.000917689
0.00093926
0.000959903
0.000979689
0.000998677
0.00101692
0.00103444
0.00105129
0.0010675
0.00108307
0.00109804
0.00111242
0.0011262
0.0011394
0.001152
0.00116397
0.00117526
0.00118577
0.00119531
0.00120356
0.00121006
0.00121391
0.00121263
0.00119547
0.00118864
0.00118813
0.00118978
0.00119397
0.00120909
0.00120094
0.00119708
0.00119817
0.0012072
0.00120389
0.00120004
0.00119927
0.00120056
0.0012025
0.00120666
0.0012164
0.00122709
0.00122759
0.00122222
0.00121888
0.0012211
0.00122868
0.00123412
0.00122377
0.00123097
0.00123548
0.00123704
0.00123207
0.00122871
0.00123218
0.00122973
0.00122657
0.0012288
0.00122623
0.00122261
0.00122544
0.00123055
0.00122018
0.00121477
0.00121248
0.00121079
0.00121066
0.00121453
0.0012351
0.00124459
0.00124562
0.00124283
0.00123842
0.00123324
0.00122761
0.00122167
0.00121549
0.00120912
0.00120259
0.00119592
0.00118914
0.00118224
0.00117525
0.00116818
0.00116102
0.0011538
0.00114651
0.00113916
0.00113176
0.00112432
0.00111683
0.00110931
0.00110176
0.00109418
0.00108657
0.00107895
0.00107131
0.00106366
0.001056
0.00104833
0.00104066
0.00103299
0.00102532
0.00101765
0.00100999
0.00100233
0.00099468
0.000987039
0.000979408
0.000971787
0.000964177
0.000956579
0.000948992
0.000941417
0.000933853
0.0009263
0.000918758
0.000911225
0.000903702
0.000896187
0.000888679
0.000881176
0.000873678
0.000866183
0.000858689
0.000851194
0.000843697
0.000836195
0.000828686
0.000821169
0.00081364
0.000806097
0.000798538
0.000790959
0.000783359
0.000775732
0.000768078
0.000760391
0.000752668
0.000744907
0.000737102
0.00072925
0.000721345
0.000713384
0.000705362
0.000697271
0.000689108
0.000680866
0.000672538
0.000664116
0.000655592
0.000646959
0.000638205
0.000629322
0.000620296
0.000611116
0.000601767
0.000592233
0.000582496
0.000572536
0.00056233
0.000551853
0.000541074
0.00052996
0.000518472
0.000506564
0.000494182
0.000481264
0.000467735
0.000453506
0.000438468
0.000422489
0.000405402
0.000386999
0.000367013
0.000345092
0.000320766
0.000293385
0.000262029
0.000225347
0.000181323
0.00012703
6.00652e-05
3.71509e-06
2.50377e-05
0.000143739
0.000265428
0.000364153
0.000444003
0.000509905
0.000565686
0.000614004
0.000656697
0.000695051
0.000729984
0.000762161
0.00079207
0.000820075
0.000846449
0.000871405
0.00089511
0.000917694
0.000939265
0.000959908
0.000979694
0.000998682
0.00101692
0.00103445
0.0010513
0.0010675
0.00108308
0.00109805
0.00111242
0.00112621
0.0011394
0.001152
0.00116396
0.00117521
0.0011856
0.00119485
0.00120247
0.00120783
0.00121054
0.00121115
0.00121036
0.00121239
0.00121601
0.00121906
0.00122074
0.00122027
0.00120318
0.00119605
0.00119564
0.00119789
0.00119892
0.00120012
0.00120393
0.0012203
0.00122881
0.00123227
0.00123443
0.00123605
0.00123559
0.00123399
0.00123311
0.00123348
0.00123371
0.00123066
0.00122465
0.00122395
0.00122706
0.0012252
0.00121587
0.00120878
0.00120632
0.00120458
0.00120302
0.00120252
0.00120127
0.00120055
0.0012039
0.00121535
0.00122938
0.00123764
0.00123769
0.00121955
0.00121075
0.00121173
0.00123296
0.00124355
0.00124521
0.00124268
0.00123838
0.00123323
0.00122761
0.00122167
0.00121549
0.00120912
0.00120259
0.00119593
0.00118914
0.00118225
0.00117526
0.00116818
0.00116102
0.0011538
0.00114651
0.00113916
0.00113176
0.00112432
0.00111683
0.00110931
0.00110176
0.00109418
0.00108657
0.00107895
0.00107131
0.00106366
0.001056
0.00104833
0.00104066
0.00103299
0.00102532
0.00101765
0.00100999
0.00100233
0.000994681
0.00098704
0.000979408
0.000971788
0.000964178
0.000956579
0.000948992
0.000941417
0.000933853
0.0009263
0.000918758
0.000911225
0.000903702
0.000896187
0.000888679
0.000881176
0.000873678
0.000866183
0.000858689
0.000851194
0.000843697
0.000836195
0.000828686
0.000821169
0.00081364
0.000806097
0.000798538
0.000790959
0.000783358
0.000775732
0.000768077
0.000760391
0.000752668
0.000744907
0.000737102
0.000729249
0.000721345
0.000713384
0.000705361
0.000697271
0.000689108
0.000680866
0.000672537
0.000664115
0.000655592
0.000646958
0.000638205
0.000629321
0.000620296
0.000611116
0.000601767
0.000592233
0.000582496
0.000572536
0.00056233
0.000551853
0.000541074
0.00052996
0.000518472
0.000506563
0.000494181
0.000481264
0.000467735
0.000453506
0.000438468
0.000422488
0.000405401
0.000386999
0.000367012
0.000345092
0.000320766
0.000293385
0.000262029
0.000225348
0.000181323
0.00012703
6.0065e-05
3.7151e-06
3.19371e-05
0.000168685
0.000316103
0.000441865
0.000546915
0.000635444
0.000711228
0.00077718
0.000835467
0.000887693
0.00093505
0.000978433
0.00101851
0.00105581
0.00109072
0.00112356
0.00115457
0.00118395
0.00121186
0.00123844
0.00126378
0.00128799
0.00131114
0.0013333
0.00135451
0.00137482
0.00139428
0.00141291
0.00143074
0.00144778
0.00146404
0.00147951
0.00149417
0.00150796
0.0015208
0.00153253
0.00154292
0.00155168
0.00155851
0.001563
0.00156325
0.00156445
0.00156659
0.00156879
0.00157135
0.0015765
0.00157791
0.00158003
0.00158341
0.00158796
0.00158958
0.0015907
0.0015924
0.00159432
0.00159614
0.00159839
0.00160224
0.00160633
0.00160719
0.00160577
0.00160493
0.00160636
0.00161018
0.00161375
0.00161277
0.00161359
0.00161424
0.00161464
0.00161312
0.00161164
0.00161204
0.00161103
0.00160968
0.00160955
0.00160787
0.00160581
0.00160628
0.00160832
0.00160711
0.00160566
0.00160447
0.00160335
0.0016025
0.00160231
0.00160523
0.00160575
0.00160346
0.00159933
0.00159409
0.00158815
0.00158171
0.00157491
0.00156782
0.00156048
0.00155294
0.00154522
0.00153735
0.00152933
0.00152119
0.00151293
0.00150456
0.00149609
0.00148752
0.00147888
0.00147015
0.00146136
0.00145249
0.00144357
0.0014346
0.00142557
0.0014165
0.00140738
0.00139823
0.00138905
0.00137984
0.0013706
0.00136134
0.00135206
0.00134276
0.00133345
0.00132412
0.00131478
0.00130544
0.00129609
0.00128673
0.00127736
0.00126799
0.00125862
0.00124924
0.00123986
0.00123047
0.00122109
0.00121169
0.00120229
0.00119289
0.00118347
0.00117405
0.00116462
0.00115518
0.00114572
0.00113625
0.00112676
0.00111725
0.00110772
0.00109816
0.00108857
0.00107896
0.00106931
0.00105962
0.00104989
0.00104012
0.00103029
0.00102042
0.00101048
0.00100049
0.000990425
0.000980289
0.000970075
0.000959776
0.000949386
0.000938897
0.000928303
0.000917594
0.000906763
0.000895799
0.000884692
0.00087343
0.000862002
0.000850392
0.000838587
0.000826568
0.000814318
0.000801815
0.000789036
0.000775955
0.000762543
0.000748765
0.000734584
0.000719957
0.000704834
0.000689157
0.000672861
0.000655866
0.000638083
0.000619403
0.000599697
0.000578811
0.000556555
0.000532699
0.000506952
0.00047895
0.000448224
0.00041416
0.000375945
0.000332475
0.000282242
0.000223202
0.000152873
7.0791e-05
4.91658e-06
3.19374e-05
0.000168687
0.000316106
0.00044187
0.00054692
0.00063545
0.000711235
0.000777187
0.000835474
0.0008877
0.000935057
0.00097844
0.00101852
0.00105582
0.00109073
0.00112357
0.00115458
0.00118396
0.00121187
0.00123844
0.00126379
0.001288
0.00131115
0.0013333
0.00135452
0.00137483
0.00139429
0.00141292
0.00143075
0.00144779
0.00146404
0.00147951
0.00149416
0.00150793
0.00152069
0.00153222
0.00154215
0.00155006
0.00155572
0.00155969
0.00156292
0.00156688
0.00157108
0.00157459
0.00157736
0.00157978
0.00157903
0.00158019
0.00158328
0.00158709
0.00159025
0.00159301
0.00159583
0.00160069
0.00160396
0.0016057
0.00160688
0.0016079
0.00160827
0.00160826
0.00160862
0.00160973
0.00161112
0.00161136
0.00161007
0.00160981
0.00161092
0.00161075
0.00160788
0.00160503
0.00160356
0.00160246
0.00160146
0.00160078
0.00159979
0.00159889
0.00159933
0.00160241
0.00160648
0.00160907
0.00160937
0.0016053
0.00160219
0.00160108
0.00160424
0.00160521
0.00160322
0.00159924
0.00159406
0.00158815
0.00158172
0.00157492
0.00156782
0.00156049
0.00155295
0.00154523
0.00153735
0.00152934
0.00152119
0.00151293
0.00150456
0.00149609
0.00148753
0.00147888
0.00147015
0.00146136
0.0014525
0.00144357
0.0014346
0.00142557
0.0014165
0.00140738
0.00139823
0.00138905
0.00137984
0.0013706
0.00136134
0.00135206
0.00134276
0.00133345
0.00132412
0.00131478
0.00130544
0.00129609
0.00128673
0.00127736
0.00126799
0.00125862
0.00124924
0.00123986
0.00123047
0.00122109
0.00121169
0.00120229
0.00119289
0.00118347
0.00117405
0.00116462
0.00115518
0.00114572
0.00113625
0.00112676
0.00111725
0.00110772
0.00109816
0.00108857
0.00107896
0.00106931
0.00105962
0.00104989
0.00104012
0.00103029
0.00102042
0.00101048
0.00100049
0.000990425
0.000980289
0.000970074
0.000959775
0.000949385
0.000938896
0.000928302
0.000917593
0.000906762
0.000895798
0.000884691
0.00087343
0.000862001
0.000850392
0.000838586
0.000826567
0.000814317
0.000801814
0.000789035
0.000775955
0.000762542
0.000748764
0.000734584
0.000719957
0.000704833
0.000689157
0.00067286
0.000655866
0.000638082
0.000619402
0.000599697
0.00057881
0.000556555
0.000532698
0.000506952
0.00047895
0.000448223
0.00041416
0.000375945
0.000332476
0.000282243
0.000223202
0.000152873
7.07907e-05
4.91659e-06
3.86653e-05
0.000190151
0.000358378
0.000507072
0.000634513
0.000743879
0.000838619
0.000921656
0.000995307
0.00106137
0.00112123
0.00117596
0.0012264
0.00127318
0.00131682
0.00135772
0.0013962
0.00143254
0.00146694
0.00149958
0.0015306
0.00156014
0.0015883
0.00161516
0.0016408
0.00166528
0.00168866
0.00171099
0.00173229
0.0017526
0.00177193
0.00179027
0.00180761
0.00182392
0.00183911
0.0018531
0.00186573
0.00187685
0.00188635
0.00189422
0.0019003
0.00190569
0.0019106
0.00191497
0.00191912
0.00192381
0.00192815
0.00193282
0.00193789
0.00194304
0.0019473
0.00195102
0.00195444
0.00195745
0.00196
0.00196233
0.00196489
0.00196743
0.001969
0.0019697
0.00197034
0.00197156
0.0019735
0.0019754
0.0019759
0.00197596
0.00197565
0.00197515
0.00197405
0.00197275
0.00197188
0.00197078
0.00196958
0.00196863
0.00196718
0.00196549
0.00196447
0.00196398
0.00196278
0.00196115
0.00195933
0.00195741
0.00195543
0.00195334
0.00195141
0.00194853
0.00194439
0.00193917
0.00193311
0.00192641
0.0019192
0.00191158
0.00190363
0.0018954
0.00188692
0.00187823
0.00186935
0.0018603
0.00185109
0.00184173
0.00183223
0.00182261
0.00181287
0.00180301
0.00179306
0.00178301
0.00177287
0.00176264
0.00175234
0.00174197
0.00173153
0.00172102
0.00171046
0.00169985
0.00168919
0.00167848
0.00166773
0.00165694
0.00164612
0.00163526
0.00162437
0.00161346
0.00160252
0.00159155
0.00158056
0.00156955
0.00155852
0.00154747
0.00153639
0.0015253
0.00151419
0.00150305
0.0014919
0.00148072
0.00146952
0.0014583
0.00144705
0.00143577
0.00142446
0.00141312
0.00140175
0.00139034
0.0013789
0.00136741
0.00135587
0.00134429
0.00133265
0.00132096
0.0013092
0.00129739
0.0012855
0.00127354
0.0012615
0.00124937
0.00123715
0.00122483
0.00121241
0.00119988
0.00118722
0.00117444
0.00116152
0.00114846
0.00113523
0.00112184
0.00110826
0.00109449
0.00108051
0.00106629
0.00105184
0.00103711
0.0010221
0.00100677
0.000991108
0.000975068
0.000958622
0.00094173
0.000924348
0.000906425
0.000887903
0.000868718
0.000848793
0.000828042
0.000806363
0.000783637
0.000759724
0.000734459
0.000707643
0.000679038
0.000648355
0.000615235
0.000579236
0.000539801
0.00049622
0.00044758
0.000392703
0.000330066
0.000257788
0.000173973
7.97641e-05
6.09042e-06
3.86654e-05
0.000190153
0.000358381
0.000507077
0.000634519
0.000743886
0.000838627
0.000921664
0.000995315
0.00106138
0.00112124
0.00117597
0.00122641
0.00127319
0.00131683
0.00135773
0.00139621
0.00143255
0.00146694
0.00149958
0.00153061
0.00156015
0.0015883
0.00161516
0.0016408
0.00166529
0.00168867
0.001711
0.0017323
0.00175261
0.00177193
0.00179028
0.00180762
0.00182391
0.00183907
0.00185296
0.00186536
0.00187604
0.0018849
0.00189225
0.00189872
0.00190488
0.00191064
0.00191573
0.00192028
0.0019247
0.00192866
0.00193312
0.00193812
0.00194321
0.00194788
0.00195206
0.00195578
0.00195932
0.00196209
0.00196412
0.00196574
0.0019672
0.00196841
0.00196943
0.00197052
0.00197185
0.0019733
0.00197431
0.0019745
0.00197443
0.00197443
0.00197396
0.00197258
0.00197096
0.00196962
0.00196839
0.00196719
0.00196606
0.00196483
0.00196355
0.00196256
0.00196216
0.00196195
0.00196131
0.00196001
0.00195767
0.00195521
0.00195288
0.00195103
0.0019483
0.00194429
0.00193914
0.00193311
0.00192641
0.00191921
0.00191159
0.00190364
0.0018954
0.00188693
0.00187824
0.00186936
0.0018603
0.00185109
0.00184173
0.00183223
0.00182261
0.00181287
0.00180302
0.00179306
0.00178301
0.00177287
0.00176264
0.00175234
0.00174197
0.00173153
0.00172102
0.00171046
0.00169985
0.00168919
0.00167848
0.00166773
0.00165694
0.00164612
0.00163526
0.00162437
0.00161346
0.00160252
0.00159155
0.00158056
0.00156955
0.00155852
0.00154747
0.00153639
0.0015253
0.00151419
0.00150305
0.0014919
0.00148072
0.00146952
0.0014583
0.00144705
0.00143577
0.00142446
0.00141312
0.00140175
0.00139034
0.0013789
0.00136741
0.00135587
0.00134429
0.00133265
0.00132096
0.0013092
0.00129739
0.0012855
0.00127354
0.00126149
0.00124937
0.00123715
0.00122483
0.00121241
0.00119988
0.00118722
0.00117444
0.00116152
0.00114846
0.00113523
0.00112184
0.00110826
0.00109449
0.00108051
0.00106629
0.00105184
0.00103711
0.0010221
0.00100677
0.000991107
0.000975068
0.000958622
0.00094173
0.000924347
0.000906424
0.000887902
0.000868717
0.000848793
0.000828042
0.000806362
0.000783636
0.000759723
0.000734458
0.000707642
0.000679038
0.000648354
0.000615235
0.000579236
0.000539801
0.00049622
0.000447581
0.000392704
0.000330067
0.000257788
0.000173973
7.97638e-05
6.09044e-06
4.52521e-05
0.000209263
0.000395011
0.000563401
0.000710637
0.000838886
0.000951176
0.00105031
0.00113865
0.00121809
0.00129015
0.00135603
0.00141669
0.00147287
0.00152519
0.00157412
0.00162007
0.00166336
0.00170424
0.00174295
0.00177966
0.00181453
0.00184769
0.00187926
0.00190933
0.00193797
0.00196528
0.00199129
0.00201606
0.00203962
0.002062
0.0020832
0.00210323
0.00212206
0.00213964
0.00215593
0.00217085
0.00218433
0.00219636
0.002207
0.00221636
0.00222477
0.00223239
0.00223934
0.00224583
0.0022522
0.00225844
0.00226469
0.00227093
0.00227697
0.00228251
0.00228752
0.00229202
0.00229595
0.00229933
0.00230229
0.00230502
0.00230753
0.00230962
0.00231124
0.00231259
0.00231388
0.00231517
0.00231627
0.0023168
0.00231679
0.00231632
0.00231552
0.00231435
0.00231292
0.00231147
0.00230991
0.00230827
0.0023066
0.0023047
0.0023026
0.00230053
0.00229848
0.00229615
0.00229352
0.00229065
0.0022876
0.00228435
0.00228081
0.0022769
0.00227232
0.00226692
0.00226073
0.00225384
0.00224636
0.00223837
0.00222996
0.00222119
0.00221211
0.00220275
0.00219315
0.00218333
0.00217331
0.00216309
0.00215271
0.00214216
0.00213146
0.00212061
0.00210963
0.00209853
0.0020873
0.00207597
0.00206453
0.00205298
0.00204135
0.00202963
0.00201783
0.00200595
0.00199399
0.00198197
0.00196989
0.00195775
0.00194555
0.00193329
0.00192099
0.00190864
0.00189624
0.0018838
0.00187132
0.0018588
0.00184624
0.00183365
0.00182101
0.00180834
0.00179564
0.0017829
0.00177012
0.0017573
0.00174444
0.00173155
0.00171861
0.00170563
0.0016926
0.00167953
0.0016664
0.00165322
0.00163999
0.0016267
0.00161335
0.00159992
0.00158643