/*--------------------------------*- C++ -*----------------------------------*\
  =========                 |
  \\      /  F ield         | OpenFOAM: The Open Source CFD Toolbox
   \\    /   O peration     | Website:  https://openfoam.org
    \\  /    A nd           | Version:  8
     \\/     M anipulation  |
\*---------------------------------------------------------------------------*/
FoamFile
{
    version     2.0;
    format      ascii;
    class       volScalarField;
    location    "5000";
    object      epsilon;
}
// * * * * * * * * * * * * * * * * * * * * * * * * * * * * * * * * * * * * * //

dimensions      [0 2 -3 0 0 0 0];

internalField   nonuniform List<scalar> 
46000
(
57.8554
179.614
307.094
423.856
533.622
639.468
742.607
843.502
942.726
1040.71
1137.82
1234.13
1329.26
1423.56
1517.13
1609.99
1702.12
1793.47
1884.01
1973.65
2062.32
2149.92
2236.36
2321.53
2405.3
2487.55
2568.14
2646.9
2723.65
2798.19
2870.26
2939.58
3005.78
3068.34
3126.58
3179.47
3225.51
3262.68
3288.99
3304.33
13981.4
14059.4
14119.1
14087.7
14003.2
3310.35
13990.2
14056.1
14032.4
3235.47
2794.7
2738.63
2733.45
2736.47
2734.4
2750.17
2825.82
3253.54
3224.4
2900.73
2808.68
2839.06
2989.29
3293.81
14075.8
3272.66
3158.58
3172.74
3188.57
2852.3
3229.12
3207.56
2845.78
3206.36
3168.03
2868.25
2919.08
3232.8
14028
14141.2
14140
14101
14069
14020.5
3305.26
3282.75
3253.6
3219.59
3182.18
3142.4
3100.95
3058.3
3014.79
2970.66
2926.08
2881.19
2836.12
2790.94
2745.74
2700.59
2655.53
2610.62
2565.92
2521.46
2477.29
2433.44
2389.94
2346.82
2304.11
2261.83
2220
2178.65
2137.79
2097.42
2057.58
2018.26
1979.47
1941.23
1903.53
1866.39
1829.79
1793.75
1758.27
1723.33
1688.95
1655.11
1621.8
1589.04
1556.8
1525.07
1493.86
1463.16
1432.94
1403.21
1373.95
1345.16
1316.81
1288.91
1261.44
1234.39
1207.74
1181.49
1155.62
1130.13
1105
1080.21
1055.77
1031.66
1007.86
984.369
961.178
938.273
915.646
893.288
871.189
849.341
827.735
806.362
785.216
764.287
743.569
723.054
702.735
682.606
662.659
642.889
623.287
603.849
584.568
565.437
546.45
527.6
508.88
490.284
471.804
453.433
435.163
416.985
398.889
380.867
362.907
344.998
327.126
309.277
291.435
273.582
255.695
237.752
219.724
201.578
183.274
164.762
145.983
126.858
107.285
87.106
66.1744
44.3062
21.8802
4.90927
57.8352
179.582
307.07
423.847
533.62
639.469
742.608
843.502
942.726
1040.71
1137.82
1234.13
1329.26
1423.56
1517.13
1609.99
1702.11
1793.47
1884.01
1973.65
2062.31
2149.92
2236.36
2321.52
2405.3
2487.55
2568.14
2646.89
2723.65
2798.18
2870.26
2939.57
3005.71
3068.1
3125.8
3177.1
3218.91
3245.78
3250.03
3226.95
3194.69
3220.22
3280.98
3308.17
3309.37
3308.8
14005.6
14116.4
14241.7
14304.6
14218.9
14151.8
14092.9
3297.39
3219.38
3265.65
3247.84
3239.73
3222.81
3199.05
3191.69
3195.4
3197.5
3155.81
2890.02
2838.32
2924.52
3125.83
2761.16
2711.93
2719.34
2717.41
2703.99
2708.03
2694.23
2663.98
2675.61
2776.01
3221.03
3276.04
3309.05
14019.6
14008.6
13977.3
3301.3
3280.86
3252.88
3219.38
3182.16
3142.43
3100.98
3058.32
3014.8
2970.66
2926.07
2881.19
2836.12
2790.94
2745.74
2700.58
2655.52
2610.62
2565.92
2521.46
2477.29
2433.44
2389.94
2346.82
2304.11
2261.83
2220
2178.65
2137.78
2097.42
2057.57
2018.25
1979.47
1941.22
1903.53
1866.38
1829.79
1793.75
1758.26
1723.33
1688.94
1655.1
1621.8
1589.03
1556.79
1525.07
1493.86
1463.15
1432.94
1403.21
1373.95
1345.16
1316.81
1288.91
1261.44
1234.38
1207.74
1181.49
1155.62
1130.13
1104.99
1080.21
1055.77
1031.65
1007.86
984.367
961.176
938.271
915.645
893.286
871.188
849.339
827.733
806.361
785.214
764.285
743.567
723.052
702.734
682.605
662.658
642.887
623.286
603.848
584.567
565.436
546.449
527.599
508.879
490.283
471.803
453.432
435.162
416.984
398.888
380.866
362.907
344.997
327.126
309.277
291.435
273.581
255.695
237.752
219.724
201.578
183.273
164.762
145.983
126.858
107.285
87.106
66.1744
44.3062
21.8802
4.90926
195.762
164.664
203.093
250.702
300.969
352.584
405.117
458.229
511.835
565.904
620.285
674.977
729.893
785.036
840.387
895.911
951.558
1007.27
1062.98
1118.61
1174.08
1229.3
1284.19
1338.65
1392.56
1445.81
1498.29
1549.85
1600.36
1649.63
1697.49
1743.72
1788.08
1830.26
1869.96
1906.98
1941.99
1980.35
2051.42
2306.15
3511.57
3732.22
3776.03
3749.85
3564.9
2637.96
3681.81
3838.74
3684.45
2620.42
2698.26
2758.81
2762.56
2717.15
2704.17
2673.44
2572.77
2325.74
2272.94
2296.6
2311.81
2317.63
2336.85
2488.47
3418.77
2418.86
2251.72
2245.67
2321.74
2483.24
2317.97
2317.89
2455.64
2279.04
2233.24
2245.89
2273.29
2456.02
3580.3
3747.18
3774.46
3798.71
3736.84
3466.4
2219.36
1992.36
1934.42
1903.24
1875.33
1847.05
1818.04
1788.44
1758.4
1728.08
1697.58
1667
1636.4
1605.85
1575.4
1545.1
1514.98
1485.08
1455.43
1426.06
1396.99
1368.24
1339.84
1311.8
1284.14
1256.86
1229.99
1203.53
1177.48
1151.86
1126.67
1101.92
1077.6
1053.71
1030.27
1007.26
984.687
962.545
940.832
919.543
898.673
878.217
858.168
838.52
819.265
800.396
781.906
763.785
746.026
728.621
711.559
694.834
678.434
662.353
646.58
631.108
615.926
601.026
586.401
572.04
557.936
544.081
530.466
517.085
503.928
490.989
478.261
465.737
453.41
441.274
429.323
417.55
405.95
394.518
383.249
372.136
361.177
350.365
339.697
329.169
318.776
308.514
298.381
288.372
278.483
268.713
259.056
249.51
240.072
230.738
221.506
212.372
203.333
194.385
185.525
176.749
168.055
159.437
150.891
142.414
134
125.644
117.34
109.082
100.862
92.6729
84.505
76.348
68.1903
60.0197
51.8244
43.6005
35.3846
27.3495
20.3752
23.772
195.796
164.661
203.087
250.697
300.965
352.581
405.113
458.224
511.83
565.898
620.279
674.971
729.887
785.029
840.379
895.903
951.549
1007.26
1062.97
1118.6
1174.07
1229.29
1284.18
1338.63
1392.54
1445.8
1498.28
1549.84
1600.34
1649.62
1697.48
1743.71
1788.04
1830.17
1869.66
1905.99
1938.43
1966.28
1989.87
2015.78
2080.15
2115.16
2139.99
2160.32
2205.84
2409.5
3645.59
3884.51
3948.47
3946.73
3958.95
3922.99
3687.03
2494.22
2293.7
2254.44
2227.18
2200.42
2195.86
2201.48
2206.81
2211.3
2220.32
2251.35
2334.64
2315.91
2311.28
2360.57
2599.56
2670.17
2669.02
2669.77
2667.37
2645.17
2631.59
2613.98
2571.39
2464.03
2250.15
2210.8
2410.01
3560.22
3691.69
3464.82
2227.86
1995.06
1935.05
1903.39
1875.38
1847.07
1818.05
1788.43
1758.39
1728.07
1697.57
1666.98
1636.38
1605.84
1575.39
1545.09
1514.97
1485.07
1455.42
1426.05
1396.98
1368.23
1339.83
1311.79
1284.13
1256.85
1229.98
1203.52
1177.47
1151.85
1126.66
1101.91
1077.59
1053.7
1030.26
1007.25
984.678
962.536
940.823
919.535
898.665
878.209
858.16
838.512
819.258
800.389
781.899
763.778
746.02
728.614
711.553
694.827
678.428
662.347
646.575
631.102
615.92
601.021
586.396
572.035
557.931
544.076
530.462
517.08
503.924
490.985
478.257
465.733
453.406
441.27
429.319
417.547
405.947
394.515
383.245
372.133
361.174
350.362
339.694
329.166
318.773
308.512
298.378
288.369
278.481
268.71
259.054
249.508
240.07
230.736
221.504
212.37
203.331
194.383
185.523
176.748
168.053
159.435
150.89
142.413
133.999
125.643
117.339
109.081
100.861
92.6722
84.5043
76.3474
68.1899
60.0193
51.824
43.6003
35.3844
27.3494
20.3752
23.772
338.448
213.647
216.24
239.542
269.914
303.79
339.792
377.232
415.717
455.045
495.058
535.653
576.741
618.263
660.165
702.393
744.891
787.598
830.452
873.384
916.324
959.197
1001.92
1044.42
1086.59
1128.35
1169.59
1210.2
1250.07
1289.06
1327.02
1363.82
1399.27
1433.22
1465.52
1496.11
1525.14
1553.61
1585.77
1641.6
1820.47
1893.24
1923.22
1936.56
1927.01
1819.87
1946.15
2002.46
2016.11
1933.7
1978.6
2018.39
2036.86
2040.59
2040.84
2027.12
1979.34
1912.77
1908.2
1933.46
1947.36
1940.56
1914.8
1904.33
2013.04
1909.37
1869.84
1859.31
1881.46
1897.28
1853.58
1852.99
1863.05
1818.46
1806.5
1806.27
1781.67
1759.41
1865.1
1885.93
1878.54
1867.08
1843.63
1790.99
1609.77
1534.7
1499.35
1474.02
1450.52
1426.97
1403.06
1378.82
1354.34
1329.7
1304.98
1280.23
1255.52
1230.9
1206.39
1182.04
1157.87
1133.91
1110.19
1086.73
1063.55
1040.66
1018.08
995.823
973.896
952.312
931.077
910.2
889.684
869.534
849.754
830.344
811.305
792.638
774.341
756.413
738.85
721.65
704.808
688.32
672.182
656.387
640.93
625.805
611.004
596.522
582.351
568.483
554.912
541.629
528.628
515.9
503.439
491.235
479.282
467.572
456.097
444.85
433.824
423.012
412.406
401.999
391.786
381.759
371.913
362.24
352.736
343.395
334.21
325.177
316.291
307.547
298.94
290.466
282.121
273.901
265.801
257.818
249.949
242.191
234.539
226.992
219.547
212.2
204.95
197.793
190.727
183.75
176.861
170.056
163.333
156.691
150.128
143.642
137.23
130.891
124.622
118.423
112.291
106.224
100.22
94.2775
88.3946
82.5697
76.8016
71.0895
65.4339
59.8373
54.3059
48.8538
43.5112
38.3459
33.5231
29.5136
28.275
47.7015
338.465
213.646
216.236
239.539
269.911
303.786
339.788
377.227
415.712
455.041
495.054
535.648
576.736
618.258
660.159
702.387
744.885
787.592
830.445
873.377
916.317
959.189
1001.91
1044.41
1086.58
1128.34
1169.58
1210.19
1250.06
1289.05
1327.02
1363.81
1399.28
1433.25
1465.61
1496.33
1525.63
1554.09
1582.61
1612.52
1650.04
1675.39
1692.58
1707.49
1725.37
1760.12
1938.36
2011.87
2043.56
2057.85
2076.09
2087.23
2070.9
1930.24
1886.62
1874.33
1866.55
1859.69
1862.12
1869.02
1873.4
1874.75
1878.29
1896.16
1927.86
1924.34
1906.98
1915.33
1968.07
1990.86
1985.56
1978.12
1969.64
1953.48
1940.49
1924.7
1891.02
1819.5
1732.11
1686.01
1685.23
1814.75
1839.47
1799.43
1615.39
1536.87
1500.05
1474.24
1450.59
1426.99
1403.07
1378.82
1354.34
1329.69
1304.97
1280.23
1255.52
1230.89
1206.38
1182.03
1157.86
1133.91
1110.19
1086.73
1063.54
1040.66
1018.08
995.817
973.89
952.306
931.072
910.194
889.679
869.529
849.749
830.339
811.301
792.633
774.337
756.408
738.846
721.645
704.804
688.317
672.178
656.384
640.927
625.801
611.001
596.519
582.347
568.48
554.909
541.626
528.625
515.898
503.436
491.232
479.279
467.569
456.095
444.848
433.822
423.009
412.404
401.997
391.784
381.757
371.911
362.239
352.735
343.393
334.208
325.176
316.29
307.546
298.939
290.465
282.12
273.899
265.799
257.817
249.948
242.189
234.538
226.991
219.546
212.199
204.949
197.792
190.726
183.75
176.86
170.055
163.333
156.691
150.128
143.641
137.229
130.89
124.622
118.423
112.29
106.223
100.22
94.2771
88.3942
82.5694
76.8013
71.0892
65.4337
59.8371
54.3057
48.8536
43.5111
38.3459
33.523
29.5136
28.2751
47.7016
472.082
270.201
247.286
255.425
274.345
298.51
325.78
355.122
385.962
417.952
450.864
484.533
518.84
553.69
589.004
624.713
660.752
697.055
733.558
770.195
806.9
843.601
880.228
916.703
952.948
988.88
1024.41
1059.44
1093.88
1127.62
1160.55
1192.55
1223.52
1253.35
1281.99
1309.46
1335.9
1361.72
1387.75
1416.79
1462.48
1495.2
1519.04
1539
1554.83
1555.38
1583.97
1606.81
1623.15
1628.64
1650.01
1669
1681.62
1689.67
1695.08
1695.84
1687.26
1674.99
1676.86
1686.55
1691.48
1686.98
1673.21
1659.96
1667.64
1652.24
1639.13
1627.43
1622.84
1616.2
1597.88
1587.82
1579.31
1561.23
1549.8
1539.86
1519.83
1494.82
1488.01
1475.4
1458.7
1440.74
1420.69
1396.08
1352.91
1321.03
1296.63
1274.88
1253.72
1232.51
1211.11
1189.53
1167.8
1145.99
1124.15
1102.32
1080.54
1058.86
1037.3
1015.9
994.675
973.656
952.86
932.306
912.011
891.988
872.25
852.807
833.67
814.846
796.341
778.161
760.31
742.791
725.606
708.756
692.241
676.061
660.214
644.698
629.511
614.648
600.107
585.883
571.97
558.365
545.06
532.051
519.332
506.895
494.734
482.844
471.216
459.844
448.722
437.841
427.195
416.778
406.582
396.6
386.826
377.252
367.873
358.682
349.672
340.838
332.173
323.671
315.328
307.137
299.093
291.192
283.427
275.796
268.292
260.912
253.652
246.508
239.475
232.551
225.733
219.016
212.398
205.877
199.448
193.111
186.862
180.699
174.621
168.624
162.708
156.869
151.108
145.422
139.809
134.269
128.799
123.399
118.068
112.804
107.607
102.476
97.4102
92.4092
87.473
82.6017
77.7961
73.0576
68.3891
63.7947
59.2819
54.8623
50.556
46.3976
42.4505
38.8405
35.8479
34.2376
37.1162
70.9163
472.086
270.199
247.283
255.422
274.341
298.506
325.776
355.118
385.957
417.948
450.859
484.529
518.835
553.685
588.999
624.708
660.746
697.049
733.552
770.189
806.894
843.595
880.221
916.697
952.942
988.873
1024.4
1059.44
1093.87
1127.61
1160.54
1192.55
1223.53
1253.39
1282.12
1309.82
1336.84
1363.79
1391.26
1418.95
1446.46
1468.84
1487.48
1505.26
1523.32
1542.43
1581.52
1608.25
1625.93
1639.18
1652.85
1664.81
1672.1
1661.17
1658.62
1660.16
1661.9
1662.9
1665.54
1668.65
1669.62
1667.81
1664.99
1665.48
1669.15
1663.59
1650.52
1642.07
1644.3
1642.11
1632.57
1621.38
1609.37
1595.18
1581.55
1566.87
1546.47
1515.09
1479.31
1450.94
1431.15
1431.29
1420.73
1399.21
1355.14
1322.07
1297.04
1275.02
1253.77
1232.53
1211.12
1189.53
1167.8
1145.99
1124.14
1102.31
1080.54
1058.85
1037.3
1015.89
994.671
973.651
952.856
932.302
912.007
891.984
872.246
852.804
833.667
814.842
796.338
778.158
760.307
742.788
725.603
708.753
692.238
676.058
660.211
644.695
629.508
614.646
600.105
585.88
571.968
558.362
545.058
532.049
519.33
506.893
494.733
482.842
471.214
459.843
448.72
437.839
427.194
416.777
406.581
396.599
386.825
377.251
367.872
358.681
349.671
340.837
332.172
323.67
315.327
307.136
299.092
291.191
283.427
275.795
268.291
260.911
253.651
246.507
239.475
232.551
225.732
219.015
212.398
205.876
199.448
193.111
186.862
180.699
174.62
168.624
162.707
156.869
151.108
145.421
139.809
134.268
128.799
123.399
118.068
112.804
107.607
102.476
97.41
92.409
87.4728
82.6015
77.7959
73.0575
68.3889
63.7946
59.2818
54.8622
50.5559
46.3975
42.4504
38.8405
35.8479
34.2377
37.1165
70.9165
599.665
328.784
284.242
280.513
290.997
308.385
329.825
353.936
379.954
407.411
436.001
465.506
495.767
526.661
558.087
589.96
622.203
654.744
687.515
720.449
753.478
786.535
819.552
852.456
885.176
917.636
949.756
981.456
1012.65
1043.25
1073.17
1102.33
1130.64
1158.04
1184.5
1210.05
1234.8
1258.95
1282.77
1306.66
1332.43
1355.97
1377.36
1397.49
1416.17
1431.25
1448.33
1463.57
1476.53
1487.25
1499.49
1510.48
1519.3
1526.36
1532.07
1535.92
1536.82
1535.95
1537.2
1539.66
1540.15
1537.02
1530.11
1521.97
1517.2
1510
1501.81
1492.35
1483.46
1473.78
1461.18
1449.25
1437.11
1422.81
1409.47
1395.98
1379.29
1360.2
1343.31
1326.22
1308.41
1290
1270.85
1250.71
1227.66
1205.77
1185.2
1165.24
1145.43
1125.57
1105.61
1085.54
1065.39
1045.2
1025.01
1004.85
984.763
964.773
944.909
925.198
905.662
886.321
867.195
848.299
829.648
811.254
793.129
775.283
757.724
740.458
723.493
706.831
690.478
674.435
658.704
643.286
628.181
613.388
598.906
584.732
570.864
557.298
544.031
531.059
518.377
505.979
493.862
482.018
470.443
459.131
448.074
437.268
426.705
416.38
406.285
396.414
386.761
377.319
368.081
359.042
350.195
341.533
333.05
324.742
316.6
308.621
300.798
293.126
285.6
278.214
270.964
263.844
256.852
249.981
243.228
236.59
230.061
223.639
217.32
211.101
204.978
198.95
193.012
187.163
181.4
175.721
170.124
164.606
159.166
153.802
148.512
143.296
138.151
133.077
128.073
123.136
118.268
113.466
108.731
104.062
99.4596
94.9228
90.4525
86.0495
81.715
77.451
73.2603
69.147
65.1171
61.1795
57.3475
53.6412
50.0927
46.7552
43.7221
41.1727
39.4974
39.7491
46.1435
93.2722
599.666
328.78
284.238
280.509
290.993
308.381
329.821
353.932
379.95
407.407
435.996
465.501
495.763
526.656
558.083
589.956
622.198
654.739
687.51
720.444
753.473
786.53
819.546
852.451
885.17
917.63
949.75
981.45
1012.64
1043.25
1073.17
1102.33
1130.64
1158.06
1184.57
1210.26
1235.36
1260.21
1285.11
1309.75
1333.39
1354.72
1374.25
1393.05
1411.3
1428.56
1447.42
1463.45
1476.54
1487.71
1498.17
1507.56
1515.49
1520.09
1524.64
1528.98
1532.47
1534.73
1536.34
1537.09
1536.22
1533.38
1529.03
1524.57
1520.47
1514.08
1504.94
1495.66
1488.19
1479.72
1468.99
1457.09
1444.35
1430.57
1416.42
1401.62
1385.01
1365.45
1344.31
1323.98
1304.88
1288.66
1271.17
1251.69
1228.43
1206.18
1185.38
1165.31
1145.46
1125.58
1105.61
1085.53
1065.38
1045.2
1025.01
1004.85
984.76
964.769
944.906
925.195
905.659
886.318
867.192
848.296
829.645
811.251
793.127
775.281
757.721
740.456
723.49
706.829
690.476
674.433
658.702
643.284
628.179
613.386
598.904
584.73
570.862
557.297
544.03
531.058
518.375
505.978
493.86
482.017
470.442
459.129
448.073
437.267
426.704
416.379
406.284
396.413
386.76
377.318
368.081
359.041
350.194
341.532
333.05
324.741
316.6
308.62
300.797
293.125
285.599
278.213
270.963
263.844
256.851
249.981
243.228
236.589
230.061
223.638
217.32
211.1
204.978
198.949
193.012
187.163
181.4
175.721
170.123
164.606
159.166
153.802
148.512
143.296
138.151
133.077
128.072
123.136
118.268
113.466
108.731
104.062
99.4595
94.9227
90.4524
86.0494
81.7149
77.4509
73.2602
69.1469
65.117
61.1795
57.3474
53.6411
50.0926
46.7551
43.7221
41.1727
39.4974
39.7492
46.1438
93.2724
723.779
388.529
324.149
310.075
313.596
325.65
342.674
362.95
385.524
409.814
435.437
462.124
489.678
517.948
546.812
576.168
605.928
636.011
666.345
696.858
727.482
758.151
788.795
819.348
849.741
879.903
909.764
939.25
968.287
996.803
1024.72
1051.98
1078.51
1104.28
1129.25
1153.45
1176.92
1199.76
1222.09
1243.94
1265.51
1286.14
1305.78
1324.51
1342.15
1358.11
1372.95
1386.2
1397.81
1408
1417.5
1425.94
1433.18
1439.31
1444.41
1448.32
1450.72
1451.77
1452.32
1452.33
1451.14
1448.26
1443.58
1437.72
1431.79
1425.17
1417.76
1409.33
1400.28
1390.46
1379.37
1367.59
1355.1
1341.61
1327.8
1313.52
1298.07
1281.55
1264.91
1248.02
1230.73
1212.95
1194.68
1175.97
1156.66
1137.39
1118.32
1099.36
1080.42
1061.43
1042.37
1023.26
1004.11
984.942
965.795
946.694
927.668
908.745
889.949
871.302
852.825
834.538
816.457
798.597
780.971
763.592
746.469
729.613
713.03
696.727
680.71
664.983
649.548
634.41
619.568
605.024
590.777
576.827
563.173
549.812
536.741
523.958
511.459
499.24
487.296
475.623
464.216
453.07
442.178
431.536
421.138
410.977
401.047
391.343
381.858
372.586
363.52
354.655
345.985
337.503
329.203
321.08
313.127
305.34
297.711
290.237
282.911
275.728
268.684
261.774
254.992
248.335
241.799
235.378
229.069
222.869
216.774
210.78
204.883
199.082
193.373
187.754
182.221
176.772
171.406
166.12
160.911
155.779
150.722
145.737
140.825
135.983
131.211
126.507
121.871
117.302
112.8
108.365
103.997
99.6949
95.4605
91.2943
87.1977
83.1724
79.2209
75.3468
71.5548
67.8514
64.2458
60.7509
57.3856
54.1777
51.1707
48.4349
46.0921
44.3723
43.773
45.6293
55.2316
115.031
723.78
388.525
324.145
310.071
313.592
325.646
342.67
362.946
385.52
409.81
435.433
462.12
489.674
517.944
546.808
576.164
605.923
636.007
666.34
696.853
727.477
758.145
788.79
819.343
849.736
879.898
909.759
939.244
968.282
996.797
1024.72
1051.98
1078.51
1104.28
1129.28
1153.53
1177.15
1200.3
1223.1
1245.4
1266.84
1287
1306.02
1324.19
1341.47
1357.55
1372.6
1385.98
1397.61
1407.82
1416.96
1425.06
1432.11
1437.91
1442.89
1447.04
1450.16
1452.09
1452.91
1452.62
1451.04
1448.05
1443.76
1438.62
1432.97
1426.39
1418.63
1410.1
1401.29
1391.68
1380.93
1369.23
1356.7
1343.34
1329.35
1314.71
1299.24
1282.75
1265.53
1248.05
1230.41
1212.86
1194.86
1176.27
1156.91
1137.53
1118.39
1099.39
1080.43
1061.43
1042.37
1023.26
1004.1
984.938
965.791
946.691
927.666
908.742
889.946
871.299
852.823
834.536
816.454
798.594
780.969
763.59
746.467
729.611
713.028
696.725
680.708
664.981
649.547
634.408
619.566
605.022
590.776
576.826
563.172
549.81
536.74
523.957
511.458
499.239
487.295
475.622
464.215
453.069
442.177
431.535
421.137
410.976
401.046
391.342
381.857
372.585
363.52
354.655
345.984
337.502
329.203
321.079
313.127
305.339
297.711
290.236
282.91
275.728
268.684
261.773
254.992
248.335
241.798
235.377
229.069
222.869
216.773
210.779
204.883
199.082
193.373
187.753
182.221
176.772
171.406
166.119
160.911
155.779
150.721
145.737
140.825
135.983
131.21
126.507
121.871
117.302
112.8
108.365
103.997
99.6948
95.4604
91.2943
87.1976
83.1723
79.2208
75.3467
71.5547
67.8513
64.2458
60.7509
57.3855
54.1777
51.1707
48.4349
46.092
44.3723
43.773
45.6294
55.232
115.031
845.04
449.093
365.92
342.35
339.758
347.308
360.733
377.974
397.892
419.793
443.219
467.852
493.458
519.858
546.909
574.494
602.512
630.875
659.502
688.32
717.257
746.244
775.216
804.105
832.846
861.373
889.619
917.518
945.004
972.014
998.485
1024.36
1049.59
1074.14
1097.97
1121.1
1143.54
1165.33
1186.48
1207
1226.85
1245.89
1264.05
1281.3
1297.52
1312.48
1326.17
1338.49
1349.44
1359.15
1367.79
1375.39
1381.93
1387.48
1392.03
1395.53
1397.86
1399.03
1399.22
1398.47
1396.69
1393.77
1389.67
1384.53
1378.66
1372.06
1364.7
1356.5
1347.55
1337.8
1327.16
1315.72
1303.5
1290.51
1276.92
1262.78
1247.95
1232.48
1216.58
1200.29
1183.6
1166.48
1148.96
1131.1
1112.98
1094.74
1076.46
1058.17
1039.84
1021.46
1003.04
984.576
966.099
947.626
929.183
910.794
892.484
874.277
856.197
838.263
820.494
802.909
785.522
768.349
751.401
734.691
718.227
702.019
686.074
670.398
654.997
639.874
625.033
610.475
596.203
582.218
568.518
555.104
541.974
529.126
516.558
504.266
492.247
480.498
469.015
457.792
446.825
436.109
425.64
415.41
405.415
395.65
386.107
376.783
367.669
358.762
350.054
341.539
333.213
325.069
317.101
309.303
301.671
294.198
286.879
279.71
272.684
265.797
259.045
252.421
245.923
239.546
233.285
227.137
221.098
215.164
209.332
203.598
197.959
192.413
186.956
181.586
176.301
171.098
165.976
160.931
155.963
151.07
146.249
141.501
136.824
132.216
127.677
123.207
118.804
114.469
110.202
106.002
101.87
97.8073
93.8144
89.893
86.0453
82.2741
78.583
74.9771
71.4629
68.0492
64.7481
61.5765
58.5582
55.7287
53.142
50.8848
49.1059
48.0852
48.4257
51.7414
64.3759
136.41
845.041
449.089
365.916
342.347
339.755
347.305
360.729
377.97
397.888
419.789
443.215
467.848
493.454
519.853
546.904
574.489
602.507
630.87
659.498
688.315
717.252
746.24
775.211
804.1
832.841
861.368
889.614
917.513
944.999
972.009
998.48
1024.35
1049.58
1074.13
1097.98
1121.13
1143.62
1165.5
1186.83
1207.52
1227.42
1246.36
1264.33
1281.39
1297.45
1312.37
1326.05
1338.38
1349.34
1359.04
1367.63
1375.14
1381.64
1387.12
1391.66
1395.25
1397.81
1399.25
1399.6
1398.84
1396.98
1393.97
1389.88
1384.83
1379.01
1372.4
1364.96
1356.72
1347.78
1338.05
1327.45
1316.03
1303.85
1290.91
1277.3
1263.07
1248.2
1232.74
1216.76
1200.37
1183.6
1166.5
1149.02
1131.19
1113.04
1094.78
1076.48
1058.17
1039.84
1021.46
1003.03
984.572
966.095
947.623
929.18
910.791
892.481
874.275
856.194
838.26
820.492
802.907
785.52
768.347
751.399
734.689
718.226
702.018
686.073
670.397
654.995
639.872
625.031
610.474
596.202
582.217
568.517
555.103
541.973
529.125
516.556
504.265
492.246
480.497
469.014
457.791
446.824
436.109
425.639
415.409
405.415
395.649
386.107
376.782
367.669
358.761
350.053
341.539
333.212
325.068
317.1
309.303
301.67
294.198
286.879
279.709
272.684
265.797
259.044
252.421
245.923
239.546
233.285
227.137
221.098
215.164
209.331
203.597
197.959
192.413
186.956
181.586
176.301
171.098
165.976
160.931
155.963
151.069
146.249
141.501
136.824
132.216
127.677
123.207
118.804
114.469
110.202
106.002
101.87
97.8072
93.8143
89.8929
86.0452
82.274
78.583
74.9771
71.4629
68.0492
64.7481
61.5764
58.5582
55.7287
53.142
50.8848
49.1059
48.0852
48.4257
51.7416
64.3764
136.411
964.047
510.325
409.083
376.56
368.39
371.965
382.31
397.025
414.788
434.792
456.507
479.566
503.699
528.699
554.405
580.683
607.42
634.519
661.893
689.463
717.155
744.899
772.627
800.275
827.778
855.072
882.097
908.789
935.09
960.942
986.289
1011.08
1035.28
1058.84
1081.74
1103.97
1125.52
1146.39
1166.57
1186.04
1204.75
1222.62
1239.61
1255.67
1270.72
1284.67
1297.47
1309.08
1319.51
1328.79
1336.98
1344.13
1350.25
1355.37
1359.49
1362.59
1364.64
1365.62
1365.58
1364.54
1362.52
1359.5
1355.49
1350.54
1344.74
1338.13
1330.73
1322.56
1313.61
1303.91
1293.44
1282.21
1270.27
1257.63
1244.38
1230.55
1216.15
1201.23
1185.84
1170.03
1153.82
1137.22
1120.26
1103.01
1085.53
1067.9
1050.17
1032.36
1014.5
996.578
978.62
960.636
942.645
924.667
906.724
888.839
871.035
853.334
835.756
818.321
801.047
783.95
767.045
750.345
733.863
717.61
701.595
685.827
670.312
655.056
640.066
625.345
610.895
596.72
582.821
569.199
555.853
542.784
529.99
517.469
505.219
493.237
481.52
470.065
458.867
447.923
437.227
426.775
416.563
406.584
396.833
387.306
377.996
368.899
360.007
351.316
342.82
334.513
326.389
318.444
310.671
303.064
295.619
288.331
281.193
274.202
267.351
260.637
254.055
247.599
241.267
235.053
228.954
222.965
217.084
211.306
205.629
200.048
194.562
189.167
183.86
178.639
173.502
168.446
163.469
158.571
153.748
148.999
144.324
139.72
135.188
130.725
126.332
122.008
117.753
113.567
109.449
105.402
101.425
97.5193
93.6874
89.9313
86.2537
82.6585
79.1504
75.736
72.4233
69.2235
66.1513
63.2274
60.4808
57.9537
55.7104
53.8537
52.5588
52.155
53.3507
58.0381
73.6027
157.593
964.048
510.32
409.078
376.556
368.386
371.961
382.306
397.021
414.784
434.788
456.503
479.562
503.695
528.695
554.401
580.678
607.415
634.514
661.889
689.459
717.15
744.894
772.623
800.27
827.773
855.067
882.092
908.784
935.085
960.937
986.284
1011.08
1035.27
1058.83
1081.73
1103.97
1125.53
1146.43
1166.66
1186.19
1204.93
1222.79
1239.73
1255.72
1270.72
1284.65
1297.44
1309.05
1319.47
1328.75
1336.93
1344.06
1350.16
1355.26
1359.38
1362.51
1364.63
1365.7
1365.73
1364.72
1362.68
1359.64
1355.6
1350.64
1344.83
1338.22
1330.82
1322.63
1313.68
1303.97
1293.49
1282.27
1270.34
1257.74
1244.49
1230.64
1216.22
1201.29
1185.88
1170.05
1153.82
1137.22
1120.28
1103.03
1085.55
1067.91
1050.17
1032.36
1014.49
996.573
978.616
960.633
942.642
924.664
906.721
888.837
871.033
853.332
835.754
818.319
801.045
783.948
767.043
750.343
733.862
717.609
701.594
685.825
670.31
655.055
640.065
625.343
610.894
596.719
582.82
569.198
555.852
542.783
529.989
517.468
505.218
493.236
481.519
470.064
458.866
447.922
437.226
426.775
416.562
406.583
396.833
387.305
377.996
368.898
360.006
351.315
342.819
334.512
326.389
318.443
310.67
303.064
295.619
288.33
281.193
274.201
267.351
260.637
254.054
247.599
241.266
235.053
228.953
222.965
217.084
211.306
205.629
200.048
194.562
189.166
183.859
178.639
173.501
168.446
163.469
158.571
153.748
148.999
144.324
139.72
135.188
130.725
126.332
122.008
117.753
113.566
109.449
105.402
101.425
97.5192
93.6874
89.9312
86.2536
82.6584
79.1504
75.7359
72.4233
69.2234
66.1513
63.2274
60.4807
57.9536
55.7104
53.8536
52.5588
52.155
53.3507
58.0382
73.6033
157.594
1081.53
572.322
453.423
412.321
398.933
398.891
406.509
419.047
434.996
453.438
473.773
495.582
518.561
542.479
567.151
592.43
618.192
644.33
670.75
697.368
724.106
750.892
777.659
804.34
830.873
857.197
883.253
908.982
934.33
959.242
983.67
1007.57
1030.89
1053.61
1075.69
1097.12
1117.86
1137.92
1157.26
1175.85
1193.64
1210.59
1226.64
1241.77
1255.91
1269.03
1281.1
1292.09
1302.01
1310.85
1318.64
1325.4
1331.15
1335.91
1339.66
1342.42
1344.18
1344.92
1344.67
1343.44
1341.26
1338.14
1334.09
1329.15
1323.34
1316.72
1309.3
1301.11
1292.17
1282.5
1272.11
1261.03
1249.28
1236.89
1223.9
1210.35
1196.28
1181.71
1166.68
1151.23
1135.39
1119.19
1102.67
1085.86
1068.84
1051.64
1034.32
1016.89
999.393
981.837
964.239
946.619
928.995
911.387
893.816
876.305
858.873
841.543
824.332
807.259
790.341
773.594
757.033
740.669
724.515
708.582
692.879
677.413
662.193
647.223
632.51
618.057
603.867
589.943
576.287
562.899
549.78
536.929
524.345
512.027
499.973
488.18
476.645
465.365
454.336
443.555
433.016
422.716
412.65
402.812
393.198
383.803
374.62
365.646
356.874
348.299
339.916
331.718
323.701
315.859
308.187
300.68
293.331
286.137
279.093
272.192
265.431
258.805
252.309
245.939
239.691
233.56
227.544
221.637
215.837
210.139
204.542
199.041
193.634
188.318
183.09
177.948
172.889
167.912
163.015
158.196
153.452
148.784
144.189
139.667
135.217
130.838
126.53
122.292
118.124
114.028
110.003
106.05
102.171
98.3668
94.6404
90.9945
87.4327
83.9596
80.5813
77.3053
74.1416
71.1034
68.2082
65.48
62.9528
60.6757
58.723
57.2131
56.3478
56.5058
58.5015
64.5065
82.9434
178.709
1081.53
572.317
453.419
412.317
398.929
398.887
406.505
419.043
434.992
453.434
473.769
495.578
518.557
542.474
567.147
592.426
618.188
644.326
670.746
697.363
724.101
750.888
777.654
804.335
830.869
857.193
883.248
908.978
934.325
959.238
983.665
1007.56
1030.88
1053.6
1075.68
1097.11
1117.86
1137.92
1157.27
1175.88
1193.68
1210.63
1226.67
1241.78
1255.91
1269.03
1281.09
1292.08
1301.99
1310.84
1318.63
1325.38
1331.13
1335.87
1339.63
1342.39
1344.17
1344.95
1344.72
1343.51
1341.33
1338.2
1334.14
1329.18
1323.37
1316.74
1309.33
1301.14
1292.2
1282.52
1272.12
1261.04
1249.3
1236.92
1223.94
1210.39
1196.3
1181.72
1166.69
1151.24
1135.39
1119.19
1102.66
1085.86
1068.83
1051.64
1034.31
1016.89
999.388
981.832
964.236
946.616
928.992
911.384
893.814
876.303
858.872
841.541
824.33
807.257
790.339
773.593
757.031
740.667
724.514
708.581
692.878
677.412
662.192
647.222
632.509
618.055
603.866
589.942
576.286
562.898
549.779
536.928
524.344
512.026
499.972
488.179
476.644
465.364
454.335
443.554
433.015
422.715
412.649
402.811
393.197
383.802
374.62
365.645
356.874
348.299
339.915
331.718
323.701
315.859
308.187
300.679
293.331
286.137
279.092
272.191
265.43
258.804
252.308
245.938
239.69
233.56
227.543
221.637
215.836
210.139
204.542
199.041
193.634
188.317
183.09
177.947
172.889
167.912
163.015
158.195
153.452
148.784
144.189
139.667
135.217
130.838
126.529
122.292
118.124
114.028
110.003
106.05
102.171
98.3667
94.6404
90.9944
87.4326
83.9596
80.5812
77.3052
74.1416
71.1033
68.2081
65.48
62.9528
60.6757
58.723
57.2131
56.3478
56.5057
58.5015
64.5066
82.9441
178.71
1198.06
635.143
498.889
449.449
431.088
427.679
432.821
443.431
457.811
474.931
494.121
514.912
536.965
560.022
583.882
608.38
633.38
658.768
684.441
710.31
736.294
762.32
788.316
814.219
839.965
865.495
890.752
915.681
940.228
964.345
987.985
1011.1
1033.66
1055.63
1076.97
1097.66
1117.66
1136.97
1155.55
1173.36
1190.36
1206.52
1221.8
1236.16
1249.56
1262
1273.43
1283.86
1293.27
1301.66
1309.04
1315.42
1320.8
1325.2
1328.62
1331.07
1332.54
1333.05
1332.59
1331.18
1328.85
1325.61
1321.48
1316.48
1310.64
1303.99
1296.56
1288.36
1279.44
1269.8
1259.48
1248.5
1236.89
1224.67
1211.89
1198.56
1184.73
1170.42
1155.67
1140.5
1124.96
1109.08
1092.89
1076.43
1059.75
1042.89
1025.89
1008.78
991.585
974.322
957.016
939.685
922.35
905.031
887.749
870.525
853.378
836.328
819.393
802.591
785.938
769.449
753.137
737.017
721.098
705.392
689.907
674.651
659.633
644.856
630.327
616.051
602.029
588.265
574.761
561.518