/*--------------------------------*- C++ -*----------------------------------*\
  =========                 |
  \\      /  F ield         | OpenFOAM: The Open Source CFD Toolbox
   \\    /   O peration     | Website:  https://openfoam.org
    \\  /    A nd           | Version:  8
     \\/     M anipulation  |
\*---------------------------------------------------------------------------*/
FoamFile
{
    version     2.0;
    format      ascii;
    class       volScalarField;
    location    "5000";
    object      k;
}
// * * * * * * * * * * * * * * * * * * * * * * * * * * * * * * * * * * * * * //

dimensions      [0 2 -2 0 0 0 0];

internalField   nonuniform List<scalar> 
46000
(
0.0460494
0.149985
0.256367
0.353832
0.445464
0.533822
0.619919
0.704142
0.786971
0.868764
0.949829
1.03022
1.10963
1.18835
1.26646
1.34397
1.42088
1.49714
1.57271
1.64754
1.72155
1.79468
1.86684
1.93793
2.00785
2.07651
2.14378
2.20952
2.27358
2.33581
2.39598
2.45385
2.50911
2.56132
2.60984
2.65366
2.69089
2.71715
2.71899
2.64498
2.27433
2.23215
2.23627
2.25042
2.30484
2.59377
2.27868
2.24587
2.28753
2.57119
2.36393
2.29315
2.29608
2.3247
2.34184
2.38234
2.50499
2.74846
2.74375
2.62927
2.58147
2.59765
2.65839
2.69469
2.40272
2.71878
2.73781
2.73201
2.68655
2.51387
2.69361
2.67186
2.49744
2.67308
2.65826
2.55961
2.56451
2.5925
2.2773
2.24092
2.22825
2.2105
2.21408
2.28007
2.66664
2.72271
2.71278
2.68713
2.65639
2.62325
2.58866
2.55306
2.51674
2.4799
2.44269
2.40523
2.36761
2.3299
2.29218
2.25448
2.21687
2.17939
2.14207
2.10497
2.06809
2.03149
1.99518
1.95918
1.92353
1.88824
1.85332
1.8188
1.78469
1.751
1.71773
1.68491
1.65253
1.62061
1.58914
1.55813
1.52758
1.4975
1.46788
1.43871
1.41001
1.38176
1.35396
1.3266
1.29969
1.27321
1.24715
1.22152
1.19629
1.17147
1.14705
1.12301
1.09935
1.07606
1.05312
1.03054
1.00829
0.986377
0.964782
0.943499
0.922518
0.901829
0.881423
0.861291
0.841425
0.821816
0.802454
0.783333
0.764443
0.745778
0.727329
0.709089
0.691052
0.673209
0.655555
0.638083
0.620787
0.60366
0.586697
0.569892
0.55324
0.536735
0.520371
0.504143
0.488046
0.472074
0.456223
0.440486
0.424858
0.409333
0.393905
0.378567
0.363314
0.348138
0.333031
0.317985
0.30299
0.288038
0.273118
0.258216
0.24332
0.228414
0.213481
0.198501
0.18345
0.1683
0.153017
0.137562
0.121883
0.105916
0.0895741
0.072727
0.0552509
0.036993
0.0182689
0.00389435
0.0460616
0.150005
0.256384
0.35384
0.445467
0.533823
0.61992
0.704143
0.786971
0.868765
0.94983
1.03022
1.10963
1.18835
1.26646
1.34397
1.42088
1.49714
1.57271
1.64754
1.72155
1.79468
1.86683
1.93792
2.00785
2.07651
2.14377
2.20951
2.27358
2.3358
2.39597
2.45382
2.50902
2.56105
2.60912
2.65187
2.68708
2.71134
2.72039
2.71158
2.69236
2.70538
2.73334
2.74912
2.74123
2.66787
2.28945
2.24451
2.2493
2.25985
2.24497
2.25268
2.32415
2.70995
2.76367
2.78925
2.79517
2.80015
2.79188
2.77537
2.76704
2.76491
2.75673
2.71481
2.6043
2.58593
2.61268
2.62631
2.38338
2.29116
2.29729
2.28651
2.26076
2.27441
2.26463
2.25241
2.28549
2.41671
2.66098
2.69613
2.62782
2.26043
2.21821
2.27881
2.66511
2.72163
2.71225
2.68693
2.65634
2.62325
2.58867
2.55306
2.51674
2.4799
2.44269
2.40523
2.36761
2.3299
2.29217
2.25448
2.21687
2.17938
2.14207
2.10496
2.06809
2.03148
1.99517
1.95918
1.92353
1.88823
1.85332
1.8188
1.78469
1.75099
1.71773
1.68491
1.65253
1.6206
1.58914
1.55813
1.52758
1.4975
1.46787
1.43871
1.41
1.38175
1.35395
1.3266
1.29968
1.2732
1.24715
1.22151
1.19629
1.17147
1.14705
1.12301
1.09935
1.07605
1.05312
1.03053
1.00829
0.986375
0.96478
0.943497
0.922516
0.901827
0.881421
0.861289
0.841423
0.821814
0.802453
0.783331
0.764442
0.745776
0.727328
0.709088
0.69105
0.673208
0.655554
0.638082
0.620785
0.603659
0.586696
0.569891
0.553239
0.536734
0.52037
0.504142
0.488045
0.472073
0.456222
0.440485
0.424857
0.409332
0.393904
0.378567
0.363313
0.348137
0.33303
0.317984
0.30299
0.288038
0.273117
0.258216
0.24332
0.228414
0.213481
0.198501
0.183449
0.168299
0.153017
0.137562
0.121883
0.105916
0.089574
0.072727
0.055251
0.0369931
0.0182689
0.00389434
0.150185
0.362899
0.516822
0.648302
0.767791
0.879577
0.985743
1.08781
1.18677
1.2833
1.37768
1.4703
1.56135
1.65103
1.73946
1.82673
1.91287
1.99791
2.08183
2.16461
2.24622
2.32661
2.4057
2.48344
2.55973
2.63449
2.7076
2.77895
2.84841
2.9158
2.98095
3.04364
3.10357
3.16039
3.21358
3.26239
3.30556
3.34066
3.36194
3.35569
3.30387
3.3009
3.31399
3.33101
3.35834
3.40715
3.36745
3.36778
3.39454
3.45289
3.45661
3.4525
3.46075
3.47655
3.48802
3.50466
3.53413
3.56061
3.5614
3.53934
3.52578
3.52865
3.54161
3.54232
3.50252
3.54315
3.54428
3.53661
3.5211
3.50496
3.50185
3.49038
3.47374
3.46948
3.45542
3.42682
3.41371
3.40115
3.34168
3.31744
3.29946
3.28081
3.27249
3.28677
3.34635
3.3506
3.33017
3.30044
3.26667
3.23066
3.19318
3.15464
3.11533
3.07543
3.03511
2.99446
2.9536
2.9126
2.87153
2.83045
2.78941
2.74846
2.70764
2.66699
2.62655
2.58635
2.54641
2.50677
2.46745
2.42847
2.38986
2.35162
2.31377
2.27634
2.23932
2.20274
2.1666
2.1309
2.09566
2.06087
2.02654
1.99268
1.95927
1.92633
1.89385
1.86182
1.83024
1.79912
1.76843
1.73818
1.70836
1.67896
1.64997
1.62139
1.5932
1.5654
1.53798
1.51092
1.48422
1.45786
1.43184
1.40615
1.38076
1.35568
1.3309
1.30639
1.28215
1.25818
1.23445
1.21096
1.1877
1.16466
1.14183
1.11919
1.09675
1.07448
1.05239
1.03045
1.00867
0.987027
0.96552
0.944138
0.922872
0.901714
0.880655
0.859685
0.838797
0.81798
0.797226
0.776526
0.755868
0.735243
0.71464
0.694047
0.673452
0.652842
0.632201
0.611516
0.590767
0.569937
0.549004
0.527945
0.506733
0.485338
0.463725
0.441854
0.419678
0.397142
0.374178
0.350707
0.326627
0.301811
0.276095
0.249256
0.220986
0.19083
0.158067
0.121366
0.0772413
0.0181289
0.150172
0.362895
0.516823
0.648303
0.767791
0.879577
0.985742
1.08781
1.18677
1.2833
1.37768
1.4703
1.56135
1.65103
1.73946
1.82673
1.91287
1.99791
2.08183
2.16461
2.24622
2.3266
2.4057
2.48343
2.55973
2.63448
2.7076
2.77895
2.8484
2.9158
2.98095
3.04362
3.10351
3.16022
3.21312
3.26128
3.30325
3.33709
3.36075
3.3737
3.38172
3.40138
3.42642
3.44451
3.45097
3.43555
3.37434
3.36675
3.37922
3.39509
3.40358
3.41772
3.45344
3.53218
3.55698
3.56832
3.57136
3.57283
3.56994
3.56405
3.56052
3.5598
3.55774
3.54654
3.52407
3.51535
3.51306
3.50435
3.47706
3.44881
3.43737
3.42574
3.41157
3.40283
3.39049
3.3785
3.37957
3.39853
3.4154
3.41302
3.3803
3.30213
3.27555
3.28581
3.34499
3.34975
3.32977
3.3003
3.26663
3.23066
3.19319
3.15465
3.11533
3.07543
3.0351
2.99446
2.9536
2.9126
2.87153
2.83045
2.78941
2.74845
2.70764
2.66699
2.62655
2.58634
2.54641
2.50677
2.46745
2.42847
2.38985
2.35161
2.31377
2.27633
2.23932
2.20274
2.16659
2.1309
2.09565
2.06087
2.02654
1.99267
1.95927
1.92633
1.89384
1.86182
1.83024
1.79911
1.76843
1.73818
1.70835
1.67895
1.64997
1.62138
1.5932
1.5654
1.53797
1.51092
1.48421
1.45786
1.43184
1.40614
1.38076
1.35568
1.33089
1.30639
1.28215
1.25817
1.23445
1.21096
1.1877
1.16466
1.14183
1.11919
1.09675
1.07448
1.05238
1.03045
1.00867
0.987025
0.965518
0.944136
0.92287
0.901712
0.880652
0.859683
0.838795
0.817978
0.797225
0.776524
0.755866
0.735242
0.714639
0.694046
0.673451
0.65284
0.6322
0.611514
0.590766
0.569936
0.549003
0.527944
0.506732
0.485337
0.463724
0.441853
0.419677
0.397141
0.374178
0.350706
0.326626
0.30181
0.276094
0.249255
0.220986
0.190829
0.158066
0.121366
0.0772413
0.0181289
0.260811
0.521751
0.700935
0.851025
0.987007
1.11398
1.23462
1.35048
1.46255
1.57155
1.67798
1.7822
1.88447
1.98499
2.0839
2.18129
2.27723
2.37175
2.46484
2.5565
2.64671
2.73541
2.82255
2.90807
2.99189
3.07391
3.15405
3.23218
3.30817
3.38187
3.45311
3.52169
3.58737
3.64985
3.70876
3.76364
3.81386
3.85857
3.8963
3.92446
3.94295
3.96594
3.99046
4.01438
4.03924
4.0647
4.07738
4.09532
4.1196
4.14969
4.17519
4.19048
4.20402
4.21677
4.22711
4.23639
4.24487
4.24581
4.24831
4.25075
4.24992
4.24938
4.24756
4.23834
4.22674
4.22626
4.2208
4.20982
4.19659
4.18591
4.1659
4.15084
4.13966
4.11881
4.10154
4.0856
4.06641
4.04119
4.01106
3.98632
3.96264
3.93846
3.91627
3.89854
3.88595
3.86295
3.83209
3.7967
3.75855
3.71853
3.67712
3.63467
3.5914
3.54752
3.50315
3.45842
3.41343
3.36827
3.32299
3.27768
3.23238
3.18715
3.14204
3.09708
3.05231
3.00778
2.96351
2.91954
2.87589
2.83258
2.78965
2.7471
2.70496
2.66325
2.62197
2.58115
2.54078
2.50088
2.46147
2.42253
2.38407
2.34611
2.30863
2.27165
2.23515
2.19914
2.16361
2.12855
2.09397
2.05985
2.0262
1.99299
1.96022
1.92789
1.89598
1.86448
1.83339
1.80268
1.77236
1.74241
1.71281
1.68356
1.65464
1.62605
1.59776
1.56978
1.54208
1.51465
1.48748
1.46057
1.43389
1.40744
1.3812
1.35517
1.32933
1.30367
1.27818
1.25286
1.22768
1.20264
1.17773
1.15294
1.12826
1.10368
1.07918
1.05476
1.0304
1.0061
0.981847
0.957624
0.933421
0.909227
0.885027
0.860808
0.836555
0.812252
0.787881
0.763424
0.73886
0.714166
0.689316
0.664283
0.639034
0.613534
0.587739
0.561603
0.53507
0.508073
0.480533
0.452356
0.423423
0.393588
0.36266
0.330386
0.296415
0.260222
0.220924
0.176661
0.121603
0.0365735
0.260807
0.521751
0.700935
0.851024
0.987006
1.11398
1.23461
1.35048
1.46254
1.57155
1.67798
1.7822
1.88447
1.98499
2.0839
2.18129
2.27723
2.37174
2.46484
2.5565
2.6467
2.7354
2.82255
2.90807
2.99188
3.07391
3.15405
3.23217
3.30816
3.38186
3.45311
3.52168
3.58734
3.64976
3.70852
3.76305
3.81262
3.8565
3.89428
3.92654
3.95566
3.98481
4.01265
4.03721
4.05773
4.07234
4.07975
4.09511
4.11511
4.13567
4.15417
4.17163
4.19184
4.21636
4.23132
4.23855
4.24295
4.2453
4.24641
4.24648
4.24587
4.24508
4.24336
4.23981
4.23572
4.22871
4.21855
4.20398
4.19289
4.17675
4.16111
4.14546
4.12924
4.11261
4.09547
4.07859
4.06329
4.04832
4.02665
4.00549
3.97827
3.94391
3.91698
3.89794
3.88529
3.86254
3.83191
3.79664
3.75854
3.71853
3.67713
3.63467
3.59141
3.54751
3.50314
3.45842
3.41343
3.36826
3.32299
3.27768
3.23238
3.18715
3.14203
3.09707
3.05231
3.00777
2.96351
2.91953
2.87588
2.83258
2.78964
2.7471
2.70496
2.66324
2.62197
2.58114
2.54078
2.50088
2.46146
2.42252
2.38407
2.34611
2.30863
2.27164
2.23515
2.19913
2.1636
2.12855
2.09397
2.05985
2.02619
1.99298
1.96022
1.92788
1.89597
1.86448
1.83338
1.80268
1.77236
1.7424
1.71281
1.68356
1.65464
1.62605
1.59776
1.56977
1.54207
1.51464
1.48748
1.46056
1.43388
1.40743
1.3812
1.35516
1.32932
1.30367
1.27818
1.25285
1.22768
1.20264
1.17773
1.15294
1.12826
1.10367
1.07918
1.05475
1.0304
1.0061
0.981845
0.957622
0.933419
0.909225
0.885025
0.860806
0.836553
0.81225
0.787879
0.763422
0.738858
0.714164
0.689315
0.664282
0.639033
0.613532
0.587738
0.561602
0.535069
0.508072
0.480532
0.452355
0.423423
0.393588
0.36266
0.330386
0.296415
0.260222
0.220924
0.176661
0.121604
0.0365736
0.364568
0.660846
0.859023
1.02248
1.16994
1.30765
1.43867
1.5647
1.68679
1.80563
1.92172
2.03541
2.14696
2.25655
2.36431
2.47035
2.57472
2.67744
2.77853
2.87798
2.97575
3.07181
3.1661
3.25856
3.3491
3.43765
3.52409
3.60833
3.69024
3.76967
3.84648
3.92047
3.99146
4.05921
4.12348
4.18398
4.24044
4.2926
4.3402
4.38293
4.42127
4.45754
4.49183
4.52425
4.55532
4.58476
4.61095
4.6365
4.66203
4.68736
4.7114
4.73075
4.74698
4.76078
4.77218
4.7814
4.78842
4.79182
4.79539
4.7986
4.79895
4.79687
4.79199
4.78349
4.77433
4.76613
4.75581
4.74175
4.72549
4.70934
4.68914
4.66966
4.65112
4.62858
4.60677
4.58515
4.56047
4.53222
4.50276
4.4737
4.44411
4.41358
4.38252
4.35134
4.31966
4.28485
4.24687
4.20638
4.16394
4.11995
4.07471
4.02848
3.98145
3.93377
3.8856
3.83704
3.78819
3.73914
3.68997
3.64073
3.59149
3.54231
3.49324
3.44431
3.39559
3.34709
3.29887
3.25094
3.20335
3.15612
3.10927
3.06283
3.01682
2.97125
2.92615
2.88152
2.83737
2.79372
2.75058
2.70795
2.66583
2.62424
2.58316
2.54261
2.50258
2.46306
2.42406
2.38557
2.34759
2.3101
2.27311
2.2366
2.20056
2.16499
2.12987
2.0952
2.06095
2.02713
1.99372
1.9607
1.92807
1.8958
1.8639
1.83234
1.80111
1.7702
1.7396
1.70929
1.67926
1.64949
1.61998
1.59071
1.56167
1.53284
1.50422
1.47579
1.44754
1.41946
1.39153
1.36374
1.33609
1.30856
1.28114
1.25382
1.22659
1.19942
1.17233
1.14528
1.11827
1.09129
1.06432
1.03735
1.01036
0.983344
0.95628
0.929151
0.901939
0.874622
0.84718
0.819587
0.791815
0.763835
0.735613
0.707108
0.678279
0.649073
0.619432
0.589286
0.558553
0.527134
0.494908
0.461722
0.427381
0.39162
0.354067
0.314134
0.270763
0.221526
0.158636
0.0545433
0.36457
0.660847
0.859023
1.02248
1.16994
1.30765
1.43867
1.5647
1.68679
1.80563
1.92172
2.03541
2.14695
2.25654
2.36431
2.47035
2.57471
2.67744
2.77853
2.87798
2.97575
3.07181
3.1661
3.25855
3.3491
3.43764
3.52409
3.60833
3.69024
3.76967
3.84647
3.92047
3.99145
4.05918
4.12338
4.18376
4.23999
4.29192
4.33963
4.38357
4.42425
4.46196
4.49676
4.5291
4.55919
4.58668
4.61168
4.63658
4.66108
4.68433
4.70573
4.72499
4.74274
4.75914
4.77196
4.78079
4.78739
4.79188
4.79471
4.79601
4.79562
4.79364
4.78998
4.78468
4.77819
4.7688
4.75601
4.74018
4.72525
4.70827
4.68974
4.67024
4.64987
4.62834
4.60609
4.58327
4.55966
4.53457
4.50649
4.47801
4.44747
4.41495
4.38275
4.35119
4.31948
4.28474
4.24682
4.20637
4.16395
4.11996
4.07472
4.02848
3.98144
3.93377
3.88559
3.83703
3.78819
3.73914
3.68996
3.64072
3.59149
3.54231
3.49323
3.44431
3.39558
3.34709
3.29886
3.25094
3.20335
3.15612
3.10927
3.06283
3.01682
2.97125
2.92614
2.88151
2.83737
2.79372
2.75058
2.70794
2.66583
2.62423
2.58316
2.5426
2.50257
2.46306
2.42406
2.38557
2.34759
2.3101
2.27311
2.2366
2.20056
2.16499
2.12987
2.09519
2.06095
2.02713
1.99371
1.9607
1.92806
1.8958
1.86389
1.83234
1.80111
1.7702
1.7396
1.70928
1.67925
1.64949
1.61998
1.59071
1.56167
1.53284
1.50422
1.47579
1.44754
1.41945
1.39153
1.36374
1.33609
1.30856
1.28114
1.25382
1.22658
1.19942
1.17232
1.14528
1.11827
1.09129
1.06432
1.03735
1.01036
0.983343
0.956278
0.929149
0.901937
0.874621
0.847179
0.819585
0.791814
0.763834
0.735611
0.707107
0.678278
0.649072
0.619431
0.589285
0.558552
0.527134
0.494907
0.461722
0.42738
0.39162
0.354066
0.314134
0.270763
0.221527
0.158636
0.0545434
0.463734
0.789163
1.00441
1.17963
1.33656
1.48295
1.62235
1.75662
1.88687
2.01381
2.13792
2.25954
2.3789
2.49619
2.61151
2.72495
2.83656
2.94636
3.05436
3.16055
3.26488
3.36732
3.4678
3.56628
3.66266
3.75687
3.8488
3.93835
4.02541
4.10985
4.19152
4.27028
4.34595
4.41838
4.48738
4.55281
4.61452
4.67248
4.7267
4.77723
4.82432
4.86847
4.90994
4.94901
4.98588
5.02044
5.05242
5.08223
5.11001
5.13576
5.15936
5.17996
5.1977
5.21281
5.22542
5.23558
5.24332
5.24842
5.25188
5.25368
5.25306
5.24998
5.24431
5.23607
5.22622
5.21506
5.20189
5.18606
5.1681
5.1488
5.12734
5.10473
5.08113
5.05557
5.02914
5.0018
4.97249
4.9411
4.90845
4.87492
4.84029
4.80443
4.76737
4.72916
4.68968
4.64843
4.60533
4.56052
4.51419
4.46656
4.41781
4.36812
4.31767
4.26657
4.21497
4.16297
4.11067
4.05814
4.00548
3.95274
3.9
3.8473
3.7947
3.74225
3.69
3.63798
3.58624
3.53481
3.48372
3.43301
3.38269
3.3328
3.28335
3.23437
3.18587
3.13787
3.09038
3.04341
2.99698
2.95108
2.90573
2.86092
2.81667
2.77297
2.72982
2.68722
2.64516
2.60365
2.56267
2.52222
2.48229
2.44287
2.40396
2.36554
2.32761
2.29015
2.25315
2.21659
2.18047
2.14478
2.10949
2.07459
2.04008
2.00594
1.97215
1.9387
1.90557
1.87276
1.84024
1.80801
1.77605
1.74434
1.71288
1.68164
1.65063
1.61981
1.58918
1.55873
1.52845
1.49832
1.46832
1.43845
1.4087
1.37905
1.34949
1.32
1.29058
1.26122
1.23189
1.20258
1.17328
1.14399
1.11467
1.08531
1.05591
1.02643
0.996867
0.96719
0.937378
0.907406
0.877247
0.846868
0.816235
0.785309
0.754045
0.72239
0.690286
0.657663
0.624438
0.59051
0.555758
0.520026
0.483112
0.444739
0.404495
0.361706
0.315087
0.261627
0.191843
0.0718858
0.463737
0.789164
1.00441
1.17962
1.33656
1.48295
1.62235
1.75662
1.88687
2.01381
2.13792
2.25954
2.3789
2.49618
2.6115
2.72494
2.83656
2.94636
3.05436
3.16054
3.26487
3.36731
3.4678
3.56627
3.66266
3.75686
3.8488
3.93835
4.02541
4.10985
4.19152
4.27027
4.34595
4.41837
4.48735
4.55275
4.61443
4.67238
4.72677
4.77779
4.82554
4.87
4.91141
4.95026
4.98681
5.02093
5.05263
5.08226
5.10982
5.13516
5.15818
5.1787
5.19679
5.21249
5.2255
5.23567
5.24347
5.24892
5.25218
5.25335
5.25238
5.24927
5.244
5.23666
5.22747
5.21597
5.20194
5.18555
5.16792
5.14859
5.1275
5.10488
5.08089
5.05548
5.02885
5.00107
4.97201
4.94151
4.90933
4.87599
4.84112
4.80484
4.76751
4.7292
4.68968
4.64843
4.60534
4.56053
4.51421
4.46657
4.41781
4.36813
4.31766
4.26657
4.21497
4.16297
4.11066
4.05814
4.00548
3.95274
3.89999
3.84729
3.79469
3.74225
3.68999
3.63798
3.58624
3.53481
3.48372
3.433
3.38269
3.33279
3.28335
3.23437
3.18587
3.13787
3.09038
3.04341
2.99697
2.95108
2.90572
2.86092
2.81667
2.77297
2.72982
2.68721
2.64516
2.60364
2.56266
2.52221
2.48229
2.44287
2.40396
2.36554
2.32761
2.29015
2.25314
2.21659
2.18047
2.14477
2.10948
2.07459
2.04008
2.00594
1.97215
1.9387
1.90557
1.87276
1.84024
1.80801
1.77605
1.74434
1.71288
1.68164
1.65062
1.61981
1.58918
1.55873
1.52845
1.49831
1.46832
1.43845
1.4087
1.37905
1.34949
1.32
1.29058
1.26121
1.23188
1.20258
1.17328
1.14398
1.11467
1.08531
1.05591
1.02643
0.996866
0.967188
0.937377
0.907405
0.877246
0.846867
0.816234
0.785308
0.754044
0.72239
0.690286
0.657663
0.624437
0.59051
0.555757
0.520025
0.483112
0.444739
0.404495
0.361706
0.315087
0.261627
0.191843
0.071886
0.560283
0.910354
1.14152
1.32797
1.49381
1.64811
1.79493
1.93641
2.07375
2.20772
2.3388
2.46731
2.59349
2.7175
2.83943
2.95935
3.07732
3.19333
3.30739
3.41947
3.52954
3.63755
3.74345
3.84717
3.94864
4.04776
4.14446
4.23863
4.33015
4.41893
4.50482
4.58771
4.66747
4.74396
4.81706
4.88669
4.95278
5.01532
5.07439
5.13007
5.18248
5.23181
5.27822
5.32187
5.36284
5.40106
5.43647
5.46911
5.49904
5.52626
5.55081
5.57252
5.59141
5.60756
5.62104
5.63188
5.64011
5.6457
5.64893
5.64987
5.64837
5.64443
5.63801
5.62917
5.6182
5.60523
5.59012
5.57273
5.55321
5.53181
5.50843
5.4833
5.45651
5.42795
5.39792
5.36648
5.3334
5.29867
5.26254
5.22512
5.18637
5.14626
5.10477
5.06192
5.01771
4.97207
4.92499
4.87652
4.82678
4.77588
4.72397
4.67119
4.61765
4.5635
4.50884
4.45377
4.39839
4.34278
4.28701
4.23116
4.17529
4.11947
4.06374
4.00816
3.95277
3.89762
3.84275
3.7882
3.73399
3.68017
3.62676
3.57379
3.52128
3.46925
3.41772
3.36671
3.31623
3.2663
3.21691
3.16809
3.11984
3.07216
3.02506
2.97853
2.93259
2.88721
2.84241
2.79818
2.75451
2.71139
2.66883
2.6268
2.5853
2.54433
2.50386
2.46389
2.4244
2.38539
2.34683
2.30872
2.27105
2.23379
2.19693
2.16046
2.12436
2.08863
2.05324
2.01817
1.98342
1.94897
1.91481
1.88092
1.84728
1.81389
1.78072
1.74777
1.71502
1.68245
1.65006
1.61783
1.58574
1.55379
1.52196
1.49023
1.45861
1.42706
1.39558
1.36415
1.33276
1.3014
1.27005
1.2387
1.20733
1.17592
1.14447
1.11293
1.08131
1.04957
1.0177
0.985664
0.953437
0.920988
0.888283
0.85528
0.821937
0.7882
0.754012
0.719301
0.683985
0.647962
0.611109
0.573264
0.534214
0.493656
0.451125
0.405836
0.356261
0.298836
0.222636
0.0887859
0.560284
0.910354
1.14152
1.32796
1.49381
1.6481
1.79493
1.93641
2.07375
2.20772
2.3388
2.46731
2.59349
2.71749
2.83942
2.95935
3.07731
3.19333
3.30738
3.41946
3.52953
3.63755
3.74345
3.84717
3.94863
4.04776
4.14446
4.23862
4.33015
4.41892
4.50482
4.58771
4.66746
4.74395
4.81706
4.88668
4.95277
5.01536
5.07453
5.13041
5.18304
5.23244
5.27876
5.32227
5.3631
5.40119
5.43651
5.46911
5.49898
5.52614
5.55058
5.57228
5.59124
5.60751
5.62109
5.63196
5.64026
5.646
5.64923
5.65004
5.64843
5.64444
5.63808
5.6294
5.61853
5.60545
5.59011
5.57257
5.55311
5.53172
5.5084
5.48326
5.45641
5.42789
5.39782
5.36625
5.33321
5.2987
5.26272
5.22538
5.18659
5.14639
5.10485
5.06197
5.01775
4.9721
4.92501
4.87654
4.82679
4.77589
4.72398
4.67119
4.61765
4.5635
4.50884
4.45377
4.39838
4.34277
4.28701
4.23116
4.17529
4.11946
4.06373
4.00815
3.95276
3.89762
3.84275
3.78819
3.73399
3.68017
3.62676
3.57379
3.52128
3.46925
3.41772
3.36671
3.31623
3.26629
3.21691
3.16809
3.11984
3.07216
3.02506
2.97853
2.93258
2.88721
2.84241
2.79818
2.75451
2.71139
2.66882
2.6268
2.5853
2.54432
2.50386
2.46389
2.4244
2.38539
2.34683
2.30872
2.27104
2.23378
2.19693
2.16046
2.12436
2.08863
2.05323
2.01817
1.98342
1.94897
1.91481
1.88092
1.84728
1.81388
1.78072
1.74777
1.71501
1.68245
1.65006
1.61782
1.58574
1.55379
1.52196
1.49023
1.4586
1.42706
1.39557
1.36415
1.33276
1.3014
1.27005
1.2387
1.20733
1.17592
1.14446
1.11293
1.08131
1.04957
1.0177
0.985663
0.953436
0.920987
0.888282
0.85528
0.821936
0.7882
0.754011
0.7193
0.683984
0.647962
0.611109
0.573264
0.534214
0.493655
0.451125
0.405836
0.356261
0.298837
0.222636
0.0887861
0.654675
1.02633
1.27281
1.47026
1.6449
1.80681
1.96065
2.10881
2.25265
2.393
2.53037
2.6651
2.79741
2.92744
3.0553
3.18103
3.30467
3.42622
3.54566
3.66299
3.77814
3.89109
4.00176
4.11009
4.21601
4.31943
4.42028
4.51846
4.61386
4.70639
4.79594
4.8824
4.96566
5.04563
5.12222
5.19537
5.26505
5.33125
5.39404
5.45346
5.5096
5.56254
5.61236
5.65916
5.70295
5.74372
5.78144
5.81611
5.84776
5.87642
5.90211
5.92484
5.94463
5.96153
5.97558
5.98682
5.99526
6.00094
6.00396
6.00437
6.00221
5.9975
5.99026
5.98054
5.96844
5.95405
5.93738
5.91845
5.89733
5.8741
5.84881
5.82153
5.79233
5.76127
5.72848
5.69403
5.65793
5.62022
5.581
5.54032
5.49821
5.45467
5.4097
5.36334
5.31563
5.26659
5.21625
5.16468
5.11196
5.05818
5.00346
4.9479
4.89163
4.83475
4.77736
4.71956
4.66144
4.60308
4.54455
4.48593
4.42729
4.36868
4.31016
4.25178
4.19359
4.13564
4.07798
4.02063
3.96364
3.90703
3.85085
3.79511
3.73984
3.68507
3.63081
3.57708
3.5239
3.47128
3.41923
3.36776
3.31688
3.26659
3.2169
3.1678
3.11931
3.07141
3.0241
2.97739
2.93126
2.88571
2.84073
2.79631
2.75244
2.70912
2.66632
2.62405
2.58228
2.54101
2.50021
2.45989
2.42001
2.38057
2.34155
2.30294
2.26472
2.22687
2.18939
2.15225
2.11545
2.07895
2.04276
2.00685
1.97121
1.93582
1.90068
1.86576
1.83105
1.79654
1.7622
1.72804
1.69403
1.66017
1.62643
1.5928
1.55927
1.52583
1.49246
1.45915
1.42588
1.39264
1.35942
1.32619
1.29295
1.25967
1.22635
1.19295
1.15946
1.12586
1.09212
1.05822
1.02414
0.989829
0.955266
0.920408
0.885211
0.849623
0.813585
0.777027
0.739864
0.701993
0.663284
0.623568
0.582611
0.540077
0.495438
0.447787
0.395357
0.33408
0.251786
0.105408
0.654675
1.02633
1.27281
1.47026
1.64489
1.80681
1.96065
2.10881
2.25265
2.393
2.53037
2.6651
2.7974
2.92744
3.05529
3.18103
3.30466
3.42621
3.54566
3.66298
3.77814
3.89108
4.00175
4.11008
4.216
4.31943
4.42028
4.51845
4.61386
4.70639
4.79594
4.88239
4.96566
5.04563
5.12222
5.19537
5.26505
5.33128
5.39411
5.45362
5.50983
5.56278
5.61256
5.6593
5.70303
5.74375
5.78144
5.8161
5.84774
5.87638
5.90206
5.92479
5.94459
5.9615
5.97556
5.98681
5.9953
6.00104
6.00409
6.0045
6.00232
5.99758
5.99033
5.98061
5.96851
5.95409
5.93737
5.91842
5.8973
5.87407
5.84878
5.82149
5.79229
5.76126
5.72846
5.69398
5.65788
5.62021
5.58103
5.54038
5.49826
5.45471
5.40974
5.36337
5.31565
5.2666
5.21626
5.16469
5.11196
5.05818
5.00346
4.9479
4.89163
4.83475
4.77736
4.71956
4.66144
4.60307
4.54455
4.48593
4.42728
4.36867
4.31015
4.25177
4.19359
4.13564
4.07797
4.02063
3.96363
3.90703
3.85084
3.79511
3.73984
3.68506
3.63081
3.57708
3.5239
3.47128
3.41923
3.36776
3.31688
3.26659
3.21689
3.1678
3.1193
3.07141
3.0241
2.97739
2.93126
2.8857
2.84072
2.79631
2.75244
2.70912
2.66632
2.62405
2.58228
2.54101
2.50021
2.45988
2.42001
2.38057
2.34155
2.30294
2.26472
2.22687
2.18939
2.15225
2.11544
2.07895
2.04276
2.00685
1.97121
1.93582
1.90068
1.86576
1.83105
1.79653
1.7622
1.72804
1.69403
1.66016
1.62642
1.5928
1.55927
1.52583
1.49246
1.45915
1.42588
1.39264
1.35942
1.32619
1.29295
1.25967
1.22635
1.19295
1.15946
1.12586
1.09212
1.05822
1.02414
0.989828
0.955265
0.920407
0.88521
0.849623
0.813585
0.777027
0.739864
0.701993
0.663284
0.623568
0.582611
0.540077
0.495438
0.447787
0.395357
0.33408
0.251787
0.105408
0.747369
1.13853
1.39978
1.60814
1.79158
1.96107
2.12177
2.27636
2.42638
2.57273
2.71597
2.85645
2.99441
3.12998
3.26326
3.39428
3.52308
3.64964
3.77396
3.896
4.01572
4.13306
4.24797
4.36039
4.47024
4.57744
4.68192
4.78358
4.88235
4.97812
5.07081
5.16032
5.24657
5.32948
5.40899
5.48504
5.55762
5.62673
5.69238
5.75463
5.8135
5.86905
5.92131
5.97033
6.01614
6.05871
6.09807
6.13421
6.16715
6.19691
6.22354
6.24705
6.26748
6.28486
6.29924
6.31066
6.31914
6.32473
6.32748
6.32746
6.32471
6.31928
6.31122
6.30057
6.28741
6.27179
6.25377
6.2334
6.21074
6.18586
6.15881
6.12965
6.09845
6.0653
6.03027
5.99345
5.9549
5.91467
5.87284
5.82946
5.78457
5.73821
5.69041
5.64122
5.59068
5.53885
5.48579
5.43156
5.37626
5.31995
5.26275
5.20474
5.14604
5.08673
5.02692
4.96669
4.90613
4.84533
4.78434
4.72326
4.66214
4.60104
4.54003
4.47915
4.41846
4.358
4.29783
4.23797
4.17846
4.11935
4.06066
4.00242
3.94466
3.8874
3.83066
3.77446
3.71882
3.66375
3.60927
3.55538
3.50209
3.4494
3.39733
3.34588
3.29504
3.24481
3.19519
3.14619
3.09778
3.04997
3.00275
2.95612
2.91005
2.86454
2.81958
2.77516
2.73126
2.68788
2.64499
2.60259
2.56065
2.51917
2.47813
2.43751
2.39729
2.35747
2.31803
2.27894
2.2402
2.20179
2.16368
2.12588
2.08836
2.0511
2.01409
1.97732
1.94077
1.90442
1.86827
1.83229
1.79648
1.76081
1.72527
1.68986
1.65455
1.61933
1.58419
1.54911
1.51408
1.47908
1.4441
1.40913
1.37414
1.33911
1.30404
1.26891
1.23368
1.19835
1.16288
1.12725
1.09144
1.05542
1.01914
0.982569
0.945664
0.908373
0.870636
0.83238
0.793519
0.753946
0.713522
0.672064
0.629316
0.584902
0.538223
0.48825
0.432992
0.367924
0.279783
0.121889
0.747369
1.13853
1.39978
1.60814
1.79157
1.96107
2.12176
2.27636
2.42638
2.57273
2.71597
2.85645
2.99441
3.12998
3.26325
3.39428
3.52308
3.64964
3.77396
3.896
4.01571
4.13306
4.24797
4.36038
4.47023
4.57744
4.68191
4.78358
4.88234
4.97812
5.0708
5.16032
5.24657
5.32948
5.40898
5.48504
5.55762
5.62674
5.69241
5.75468
5.81358
5.86913
5.92138
5.97038
6.01616
6.05872
6.09807
6.1342
6.16713
6.1969
6.22352
6.24703
6.26745
6.28483
6.29922
6.31063
6.31913
6.32475
6.32753
6.32751
6.32476
6.31933
6.31125
6.30059
6.28742
6.27179
6.25376
6.23339
6.21074
6.18585
6.15879
6.12963
6.09845
6.0653
6.03028
5.99345
5.95489
5.91466
5.87284
5.82946
5.78458
5.73822
5.69042
5.64123
5.59068
5.53885
5.48579
5.43156
5.37626
5.31995
5.26274
5.20474
5.14603
5.08673
5.02691
4.96669
4.90613
4.84532
4.78434
4.72326
4.66214
4.60104
4.54003
4.47915
4.41846
4.358
4.29782
4.23796
4.17846
4.11935
4.06066
4.00242
3.94465
3.88739
3.83065
3.77446
3.71882
3.66375
3.60926
3.55537
3.50208
3.4494
3.39733
3.34588
3.29504
3.24481
3.19519
3.14618
3.09778
3.04997
3.00275
2.95611
2.91005
2.86454
2.81958
2.77516
2.73126
2.68788
2.64499
2.60259
2.56065
2.51917
2.47813
2.43751
2.39729
2.35747
2.31803
2.27894
2.2402
2.20178
2.16368
2.12588
2.08836
2.0511
2.01409
1.97732
1.94077
1.90442
1.86827
1.83229
1.79648
1.76081
1.72527
1.68986
1.65455
1.61933
1.58419
1.54911
1.51408
1.47908
1.4441
1.40913
1.37414
1.33911
1.30404
1.26891
1.23368
1.19835
1.16288
1.12725
1.09144
1.05542
1.01914
0.982568
0.945664
0.908373
0.870636
0.83238
0.793519
0.753946
0.713522
0.672064
0.629316
0.584902
0.538224
0.488251
0.432993
0.367925
0.279784
0.12189
0.838922
1.248
1.52344
1.74269
1.93498
2.1121
2.27964
2.44058
2.59662
2.74875
2.89759
3.04353
3.1868
3.32755
3.46587
3.60179
3.73535
3.86652
3.99529
4.12161
4.24546
4.36676
4.48548
4.60153
4.71486
4.82539
4.93305
5.03776
5.13943
5.23799
5.33336
5.42547
5.51423
5.59958
5.68149
5.75989
5.83479
5.90616
5.97402
6.03839
6.09929
6.15674
6.21077
6.26139
6.30863
6.3525
6.39301
6.43017
6.46401
6.49454
6.5218
6.54581
6.56662
6.58426
6.59878
6.6102
6.61857
6.62394
6.62635
6.62586
6.62253
6.61641
6.60755
6.59601
6.58184
6.5651
6.54587
6.5242
6.50014
6.47378
6.44516
6.41436
6.38145
6.3465
6.30959
6.2708
6.23019
6.18785
6.14383
6.0982
6.051
6.0023
5.95215
5.90059
5.8477
5.79353
5.73817
5.68167
5.62413
5.56562
5.50624
5.44607
5.38522
5.32377
5.26181
5.19943
5.13671
5.07374
5.01057
4.94729
4.88397
4.82065
4.75741
4.6943
4.63136
4.56866
4.50622
4.4441
4.38233
4.32095
4.25998
4.19948
4.13945
4.07992
4.02092
3.96246
3.90457
3.84726
3.79053
3.73441
3.6789
3.62401
3.56974
3.5161
3.46308
3.41069
3.35892
3.30777
3.25724
3.20732
3.158
3.10928
3.06115
3.01359
2.96659
2.92015
2.87424
2.82886
2.78399
2.73963
2.69574
2.65232
2.60936
2.56683
2.52472
2.48302
2.44171
2.40076
2.36018
2.31993
2.28001
2.2404
2.20108
2.16204
2.12325
2.08471
2.0464
2.00831
1.97041
1.9327
1.89516
1.85777
1.82052
1.7834
1.74639
1.70947
1.67264
1.63588
1.59916
1.56249
1.52584
1.48919
1.45253
1.41585
1.37912
1.34233
1.30545
1.26847
1.23137
1.1941
1.15666
1.11901
1.08111
1.04292
1.0044
0.9655
0.926156
0.886293
0.845822
0.804628
0.762563
0.719427
0.674937
0.628674
0.579968
0.527671
0.469581
0.40076
0.306962
0.13833
0.838922
1.248
1.52344
1.74269
1.93498
2.11209
2.27964
2.44058
2.59662
2.74875
2.89759
3.04352
3.18679
3.32754
3.46586
3.60179
3.73534
3.86652
3.99528
4.12161
4.24545
4.36676
4.48547
4.60153
4.71486
4.82539
4.93305
5.03775
5.13943
5.23799
5.33336
5.42546
5.51422
5.59958
5.68148
5.75989
5.83479
5.90616
5.97403
6.03841
6.09931
6.15676
6.21078
6.2614
6.30864
6.3525
6.39301
6.43017
6.464
6.49453
6.52179
6.5458
6.56661
6.58425
6.59876
6.61018
6.61856
6.62394
6.62636
6.62588
6.62255
6.61643
6.60756
6.59601
6.58184
6.5651
6.54587
6.5242
6.50014
6.47378
6.44516
6.41436
6.38145
6.3465
6.3096
6.2708
6.23019
6.18784
6.14382
6.09819
6.051
6.0023
5.95215
5.90059
5.8477
5.79353
5.73816
5.68167
5.62413
5.56562
5.50624
5.44607
5.38522
5.32377
5.26181
5.19943
5.13671
5.07373
5.01057
4.94729
4.88396
4.82065
4.75741
4.6943
4.63136
4.56865
4.50622
4.44409
4.38232
4.32094
4.25998
4.19947
4.13944
4.07992
4.02091
3.96246
3.90457
3.84725
3.79053
3.73441
3.6789
3.62401
3.56974
3.51609
3.46308
3.41068
3.35892
3.30777
3.25724
3.20732
3.158
3.10928
3.06115
3.01358
2.96659
2.92014
2.87424
2.82886
2.78399
2.73962
2.69574
2.65232
2.60936
2.56683
2.52472
2.48302
2.4417
2.40076
2.36018
2.31993
2.28001
2.2404
2.20108
2.16203
2.12325
2.08471
2.0464
2.00831
1.97041
1.9327
1.89516
1.85777
1.82052
1.7834
1.74639
1.70947
1.67264
1.63588
1.59916
1.56249
1.52584
1.48919
1.45253
1.41585
1.37912
1.34233
1.30545
1.26847
1.23137
1.1941
1.15666
1.11901
1.0811
1.04292
1.0044
0.9655
0.926156
0.886293
0.845822
0.804628
0.762563
0.719427
0.674937
0.628674
0.579968
0.527672
0.469582
0.400761
0.306963
0.13833
0.929779
1.35542
1.64461
1.8747
2.07592
2.26073
2.43517
2.60245
2.76444
2.92223
3.07651
3.2277
3.37605
3.52172
3.6648
3.80533
3.94332
4.07877
4.21165
4.34191
4.46952
4.59443
4.71657
4.83589
4.95231
5.06579
5.17623
5.28358
5.38777
5.48871
5.58635
5.68062
5.77146
5.85882
5.94265
6.02293
6.09962