/*--------------------------------*- C++ -*----------------------------------*\
  =========                 |
  \\      /  F ield         | OpenFOAM: The Open Source CFD Toolbox
   \\    /   O peration     | Website:  https://openfoam.org
    \\  /    A nd           | Version:  8
     \\/     M anipulation  |
\*---------------------------------------------------------------------------*/
FoamFile
{
    version     2.0;
    format      ascii;
    class       volScalarField;
    location    "5000";
    object      nut;
}
// * * * * * * * * * * * * * * * * * * * * * * * * * * * * * * * * * * * * * //

dimensions      [0 2 -1 0 0 0 0];

internalField   nonuniform List<scalar> 
46000
(
3.29872e-06
1.1272e-05
1.92618e-05
2.65839e-05
3.34683e-05
4.01066e-05
4.65751e-05
5.29026e-05
5.91254e-05
6.52705e-05
7.13608e-05
7.74006e-05
8.33666e-05
8.92807e-05
9.51488e-05
0.000100972
0.00010675
0.000112479
0.000118157
0.000123778
0.000129339
0.000134833
0.000140253
0.000145594
0.000150847
0.000156005
0.000161058
0.000165997
0.00017081
0.000175485
0.000180006
0.000184354
0.000188506
0.000192427
0.000196066
0.000199333
0.00020204
0.000203655
0.0002023
0.000190548
3.32964e-05
3.1895e-05
3.18775e-05
3.2354e-05
3.41426e-05
0.000182907
3.3403e-05
3.22959e-05
3.35617e-05
0.000183896
0.00017996
0.000172812
0.000173583
0.000177741
0.000180508
0.000185734
0.000199852
0.000208961
0.000210127
0.000214489
0.000213537
0.000213909
0.00021277
0.000198409
3.69128e-05
0.000203278
0.000213578
0.000211726
0.000203721
0.000199403
0.000202222
0.000200307
0.000197257
0.000200565
0.000200747
0.000205576
0.000202771
0.000187112
3.32726e-05
3.19602e-05
3.16025e-05
3.1187e-05
3.13591e-05
3.33715e-05
0.000193628
0.00020324
0.000203568
0.000201846
0.000199572
0.000197088
0.00019449
0.000191815
0.000189087
0.00018632
0.000183525
0.000180711
0.000177885
0.000175052
0.000172218
0.000169386
0.000166561
0.000163745
0.000160942
0.000158154
0.000155384
0.000152634
0.000149906
0.000147202
0.000144523
0.000141872
0.000139249
0.000136655
0.000134092
0.000131561
0.000129062
0.000126596
0.000124163
0.000121765
0.000119401
0.000117071
0.000114776
0.000112516
0.00011029
0.000108099
0.000105942
0.00010382
0.000101731
9.96758e-05
9.76536e-05
9.5664e-05
9.37065e-05
9.17805e-05
8.98854e-05
8.80206e-05
8.61855e-05
8.43794e-05
8.26017e-05
8.08516e-05
7.91285e-05
7.74316e-05
7.57602e-05
7.41137e-05
7.24912e-05
7.08921e-05
6.93157e-05
6.77612e-05
6.6228e-05
6.47154e-05
6.32228e-05
6.17495e-05
6.02947e-05
5.88581e-05
5.74388e-05
5.60364e-05
5.46502e-05
5.32798e-05
5.19245e-05
5.05839e-05
4.92575e-05
4.79447e-05
4.66451e-05
4.53583e-05
4.40838e-05
4.28211e-05
4.15699e-05
4.03298e-05
3.91003e-05
3.7881e-05
3.66715e-05
3.54715e-05
3.42804e-05
3.3098e-05
3.19237e-05
3.07572e-05
2.9598e-05
2.84456e-05
2.72995e-05
2.61592e-05
2.50241e-05
2.38936e-05
2.27669e-05
2.16435e-05
2.05223e-05
1.94027e-05
1.82834e-05
1.71634e-05
1.60413e-05
1.49157e-05
1.37847e-05
1.26463e-05
1.1498e-05
1.03367e-05
9.1586e-06
7.9588e-06
6.73084e-06
5.46495e-06
4.15176e-06
2.77983e-06
1.37282e-06
2.78033e-07
3.30164e-06
1.1277e-05
1.92657e-05
2.65856e-05
3.34688e-05
4.01067e-05
4.65751e-05
5.29027e-05
5.91255e-05
6.52705e-05
7.13608e-05
7.74006e-05
8.33666e-05
8.92807e-05
9.51488e-05
0.000100972
0.00010675
0.000112479
0.000118157
0.000123778
0.000129339
0.000134832
0.000140253
0.000145594
0.000150847
0.000156005
0.000161058
0.000165997
0.00017081
0.000175484
0.000180005
0.000184351
0.000188497
0.000192402
0.000196006
0.000199212
0.000201881
0.00020384
0.000204936
0.000205067
0.000204211
0.000204557
0.00020494
0.000205609
0.000204355
0.000193598
3.36824e-05
3.21189e-05
3.19725e-05
3.21314e-05
3.19005e-05
3.22723e-05
3.44961e-05
0.000200445
0.000213521
0.000214411
0.000216503
0.000217819
0.000217671
0.000216703
0.0002159
0.000215317
0.000213905
0.000210189
0.000211215
0.000212038
0.000210068
0.000198596
0.000185157
0.000174211
0.000174667
0.000173154
0.000170117
0.00017192
0.000171318
0.000171398
0.000175703
0.000189352
0.000197847
0.000199699
0.000187816
3.28012e-05
3.16121e-05
3.34375e-05
0.000193637
0.000203195
0.000203533
0.000201829
0.000199567
0.000197087
0.00019449
0.000191815
0.000189087
0.00018632
0.000183525
0.000180711
0.000177885
0.000175052
0.000172218
0.000169386
0.00016656
0.000163745
0.000160941
0.000158153
0.000155383
0.000152633
0.000149905
0.000147201
0.000144523
0.000141871
0.000139248
0.000136655
0.000134092
0.000131561
0.000129062
0.000126596
0.000124163
0.000121765
0.0001194
0.000117071
0.000114776
0.000112515
0.00011029
0.000108099
0.000105942
0.00010382
0.000101731
9.96756e-05
9.76534e-05
9.56638e-05
9.37063e-05
9.17803e-05
8.98852e-05
8.80204e-05
8.61853e-05
8.43792e-05
8.26015e-05
8.08514e-05
7.91283e-05
7.74314e-05
7.57601e-05
7.41135e-05
7.2491e-05
7.08919e-05
6.93155e-05
6.77611e-05
6.62279e-05
6.47153e-05
6.32227e-05
6.17493e-05
6.02946e-05
5.88579e-05
5.74387e-05
5.60363e-05
5.46501e-05
5.32797e-05
5.19244e-05
5.05838e-05
4.92574e-05
4.79446e-05
4.6645e-05
4.53582e-05
4.40837e-05
4.2821e-05
4.15699e-05
4.03297e-05
3.91002e-05
3.78809e-05
3.66714e-05
3.54714e-05
3.42804e-05
3.30979e-05
3.19237e-05
3.07572e-05
2.9598e-05
2.84456e-05
2.72995e-05
2.61592e-05
2.50241e-05
2.38935e-05
2.27669e-05
2.16434e-05
2.05223e-05
1.94026e-05
1.82834e-05
1.71634e-05
1.60413e-05
1.49157e-05
1.37847e-05
1.26463e-05
1.1498e-05
1.03367e-05
9.1586e-06
7.9588e-06
6.73084e-06
5.46495e-06
4.15176e-06
2.77984e-06
1.37282e-06
2.78032e-07
1.03698e-05
7.19805e-05
0.000118367
0.000150883
0.000176281
0.000197482
0.000215868
0.000232416
0.000247655
0.000261913
0.00027539
0.000288246
0.000300596
0.000312509
0.000324036
0.000335217
0.000346082
0.000356655
0.000366952
0.000376987
0.000386769
0.000396304
0.000405598
0.000414652
0.000423466
0.000432039
0.000440369
0.00044845
0.000456278
0.000463843
0.000471134
0.000478134
0.000484819
0.000491147
0.000497038
0.000502307
0.000506392
0.000507182
0.000495872
0.000439461
0.00027976
0.000262748
0.000261764
0.000266305
0.000284738
0.000396055
0.000277193
0.000265913
0.00028147
0.000409484
0.000398527
0.000388856
0.000390186
0.000400337
0.000404917
0.000413488
0.000436925
0.000490603
0.000502223
0.000490912
0.000483951
0.000483522
0.000483073
0.000453823
0.000322949
0.000467102
0.000502093
0.000501267
0.000480603
0.000445236
0.000476134
0.000473036
0.000442256
0.000475356
0.000481181
0.000470584
0.00046136
0.000423899
0.000280706
0.000264329
0.000259581
0.000255016
0.000257926
0.000280481
0.000454105
0.000507132
0.00051597
0.0005151
0.000512123
0.000508563
0.000504759
0.000500806
0.000496744
0.000492597
0.000488383
0.000484112
0.000479797
0.000475444
0.000471062
0.000466656
0.000462232
0.000457795
0.000453349
0.000448899
0.000444448
0.00044
0.000435558
0.000431126
0.000426706
0.0004223
0.000417911
0.000413542
0.000409194
0.00040487
0.00040057
0.000396297
0.000392051
0.000387834
0.000383648
0.000379492
0.000375367
0.000371275
0.000367216
0.000363189
0.000359195
0.000355235
0.000351308
0.000347414
0.000343553
0.000339724
0.000335927
0.000332162
0.000328428
0.000324724
0.00032105
0.000317404
0.000313787
0.000310196
0.000306631
0.00030309
0.000299574
0.00029608
0.000292608
0.000289157
0.000285724
0.000282309
0.000278911
0.000275527
0.000272158
0.000268802
0.000265456
0.000262121
0.000258793
0.000255473
0.000252158
0.000248847
0.000245539
0.000242232
0.000238923
0.000235613
0.000232298
0.000228977
0.000225649
0.000222311
0.000218962
0.000215599
0.000212219
0.000208822
0.000205403
0.00020196
0.000198491
0.000194992
0.000191459
0.000187889
0.000184277
0.000180618
0.000176908
0.000173139
0.000169306
0.000165401
0.000161415
0.000157337
0.000153157
0.00014886
0.00014443
0.000139849
0.000135092
0.000130131
0.000124931
0.000119448
0.000113622
0.000107378
0.000100609
9.31623e-05
8.48083e-05
7.51696e-05
6.3549e-05
4.84713e-05
2.63536e-05
1.24429e-06
1.03661e-05
7.19804e-05
0.000118371
0.000150886
0.000176284
0.000197484
0.00021587
0.000232418
0.000247657
0.000261915
0.000275392
0.000288248
0.000300599
0.000312511
0.000324039
0.00033522
0.000346085
0.000356657
0.000366954
0.000376989
0.000386771
0.000396307
0.000405601
0.000414654
0.000423468
0.000432042
0.000440371
0.000448453
0.000456281
0.000463845
0.000471135
0.000478133
0.00048481
0.000491118
0.000496974
0.000502224
0.000506612
0.000509721
0.000510847
0.000508176
0.000494794
0.000492279
0.000493754
0.000494288
0.000485906
0.000440869
0.000281094
0.00026262
0.000260284
0.00026285
0.00026335
0.000267978
0.000291118
0.000450187
0.000496442
0.000508314
0.000515412
0.000522109
0.000522348
0.000519295
0.000517016
0.000515759
0.000513071
0.000502815
0.000478752
0.000480239
0.000480575
0.000468209
0.00041857
0.000400906
0.000398423
0.000395619
0.000392706
0.000393974
0.000393141
0.000392997
0.000399758
0.000421871
0.000466566
0.000474209
0.000426713
0.000275647
0.000261569
0.000280445
0.000452005
0.000506187
0.000515679
0.000515017
0.0005121
0.000508559
0.000504761
0.000500809
0.000496747
0.000492601
0.000488386
0.000484115
0.0004798
0.000475447
0.000471065
0.000466659
0.000462235
0.000457798
0.000453352
0.000448901
0.000444451
0.000440003
0.000435561
0.000431128
0.000426708
0.000422302
0.000417914
0.000413544
0.000409196
0.000404872
0.000400572
0.000396299
0.000392053
0.000387836
0.00038365
0.000379494
0.000375369
0.000371277
0.000367217
0.000363191
0.000359197
0.000355237
0.00035131
0.000347416
0.000343554
0.000339726
0.000335929
0.000332164
0.00032843
0.000324726
0.000321051
0.000317406
0.000313788
0.000310197
0.000306632
0.000303092
0.000299575
0.000296082
0.00029261
0.000289158
0.000285725
0.00028231
0.000278912
0.000275529
0.000272159
0.000268803
0.000265457
0.000262122
0.000258794
0.000255474
0.000252159
0.000248848
0.00024554
0.000242233
0.000238924
0.000235614
0.000232299
0.000228978
0.00022565
0.000222312
0.000218963
0.000215599
0.00021222
0.000208822
0.000205404
0.000201961
0.000198492
0.000194993
0.00019146
0.000187889
0.000184277
0.000180619
0.000176908
0.00017314
0.000169307
0.000165402
0.000161415
0.000157338
0.000153157
0.00014886
0.000144431
0.000139849
0.000135092
0.000130132
0.000124932
0.000119448
0.000113623
0.000107378
0.000100609
9.31625e-05
8.48085e-05
7.51698e-05
6.35492e-05
4.84714e-05
2.63536e-05
1.24429e-06
1.80884e-05
0.000114676
0.000204486
0.00027211
0.00032483
0.00036764
0.000403731
0.000435123
0.000463088
0.000488477
0.000511869
0.000533668
0.000554167
0.00057357
0.00059203
0.000609664
0.000626563
0.000642797
0.000658424
0.000673488
0.000688026
0.000702067
0.000715635
0.00072875
0.000741424
0.000753672
0.000765501
0.000776916
0.000787922
0.000798517
0.000808695
0.000818443
0.000827736
0.000836523
0.000844708
0.000852109
0.000858344
0.000862487
0.000861606
0.000844374
0.000768602
0.000747704
0.000745175
0.000748945
0.000762005
0.000817073
0.000768826
0.000753795
0.000757599
0.000801466
0.000792935
0.000783007
0.000780928
0.000784237
0.00078799
0.000796807
0.000819314
0.000848206
0.000851239
0.000841082
0.000834751
0.000837468
0.000848003
0.000848966
0.000798735
0.000841909
0.000857488
0.000857862
0.000842445
0.00083117
0.000842652
0.00083684
0.000827845
0.000839622
0.000838103
0.000831711
0.000835291
0.0008354
0.000776352
0.000758336
0.000752301
0.000747711
0.000748712
0.000763754
0.000844252
0.000875099
0.000881476
0.000880138
0.000876518
0.000872107
0.000867325
0.00086231
0.000857123
0.0008518
0.000846364
0.000840832
0.000835218
0.000829533
0.000823786
0.000817985
0.000812137
0.000806248
0.000800324
0.00079437
0.000788391
0.000782393
0.000776378
0.000770351
0.000764317
0.000758278
0.000752238
0.0007462
0.000740166
0.00073414
0.000728125
0.000722121
0.000716131
0.000710158
0.000704203
0.000698266
0.00069235
0.000686456
0.000680585
0.000674737
0.000668912
0.000663113
0.000657337
0.000651587
0.000645861
0.00064016
0.000634484
0.000628831
0.000623202
0.000617595
0.00061201
0.000606446
0.000600902
0.000595376
0.000589869
0.000584377
0.000578901
0.000573438
0.000567987
0.000562546
0.000557113
0.000551688
0.000546267
0.000540849
0.000535432
0.000530014
0.000524593
0.000519166
0.000513731
0.000508286
0.000502828
0.000497355
0.000491863
0.000486351
0.000480814
0.000475251
0.000469657
0.000464029
0.000458363
0.000452656
0.000446903
0.000441099
0.00043524
0.00042932
0.000423334
0.000417275
0.000411136
0.00040491
0.000398588
0.00039216
0.000385617
0.000378947
0.000372136
0.000365169
0.000358029
0.000350697
0.000343149
0.000335361
0.0003273
0.000318931
0.000310211
0.000301088
0.000291499
0.000281367
0.000270595
0.000259058
0.000246598
0.000232999
0.000217969
0.000201089
0.000181737
0.000158932
0.000131034
9.51701e-05
4.70686e-05
2.52374e-06
1.8087e-05
0.000114676
0.000204489
0.000272114
0.000324834
0.000367644
0.000403735
0.000435127
0.000463092
0.000488481
0.000511873
0.000533672
0.000554171
0.000573574
0.000592034
0.000609668
0.000626567
0.000642801
0.000658427
0.000673492
0.00068803
0.000702071
0.000715639
0.000728753
0.000741428
0.000753676
0.000765504
0.00077692
0.000787926
0.00079852
0.000808696
0.00081844
0.000827718
0.000836466
0.000844549
0.000851713
0.000857512
0.000861297
0.000862426
0.000860512
0.000853465
0.000852985
0.000856162
0.000859106
0.000858868
0.000847987
0.000772812
0.000750194
0.000745793
0.000748032
0.000748108
0.000750386
0.000763648
0.00082891
0.000854101
0.000862644
0.000868034
0.000872203
0.000871522
0.000868335
0.000866058
0.000865107
0.000862779
0.000853218
0.000837572
0.000836327
0.000839892
0.000830462
0.000803951
0.000788642
0.000784835
0.000781871
0.000779105
0.000779235
0.000777928
0.000777857
0.00078578
0.00081066
0.000842469
0.000856434
0.000845226
0.000771399
0.000750677
0.000759935
0.000841027
0.000873679
0.000880981
0.00087998
0.000876471
0.000872096
0.000867325
0.000862313
0.000857127
0.000851803
0.000846367
0.000840835
0.000835221
0.000829536
0.000823789
0.000817988
0.000812139
0.00080625
0.000800326
0.000794372
0.000788394
0.000782395
0.00077638
0.000770353
0.000764319
0.00075828
0.00075224
0.000746201
0.000740168
0.000734142
0.000728126
0.000722122
0.000716133
0.00071016
0.000704204
0.000698268
0.000692352
0.000686458
0.000680586
0.000674738
0.000668914
0.000663114
0.000657339
0.000651588
0.000645863
0.000640162
0.000634485
0.000628832
0.000623203
0.000617596
0.000612011
0.000606447
0.000600903
0.000595377
0.00058987
0.000584378
0.000578902
0.000573439
0.000567987
0.000562547
0.000557114
0.000551688
0.000546268
0.00054085
0.000535433
0.000530015
0.000524593
0.000519166
0.000513731
0.000508286
0.000502828
0.000497355
0.000491863
0.000486351
0.000480815
0.000475251
0.000469657
0.000464029
0.000458363
0.000452656
0.000446903
0.000441099
0.00043524
0.00042932
0.000423334
0.000417275
0.000411136
0.00040491
0.000398588
0.000392161
0.000385618
0.000378947
0.000372136
0.000365169
0.000358029
0.000350697
0.000343149
0.000335361
0.0003273
0.000318931
0.000310211
0.000301088
0.000291499
0.000281367
0.000270595
0.000259058
0.000246598
0.000232999
0.000217969
0.000201089
0.000181737
0.000158932
0.000131034
9.51701e-05
4.70685e-05
2.52374e-06
2.53386e-05
0.000145464
0.000268567
0.000368371
0.000449029
0.000515542
0.000571793
0.000620481
0.000663469
0.000702061
0.000737189
0.000769527
0.000799569
0.000827683
0.000854149
0.000879181
0.000902948
0.000925583
0.000947195
0.000967871
0.000987682
0.00100669
0.00102494
0.00104247
0.00105933
0.00107553
0.0010911
0.00110606
0.00112042
0.0011342
0.00114738
0.00115996
0.00117191
0.00118319
0.00119367
0.00120318
0.00121141
0.00121786
0.00122166
0.00122029
0.00120295
0.001196
0.00119542
0.001197
0.00120115
0.0012163
0.00120803
0.00120409
0.00120513
0.00121415
0.00121076
0.00120683
0.001206
0.00120725
0.00120917
0.0012133
0.00122305
0.00123376
0.00123422
0.00122877
0.00122537
0.00122758
0.00123516
0.00124061
0.00123017
0.00123738
0.00124187
0.00124342
0.0012384
0.001235
0.00123847
0.00123598
0.00123279
0.00123502
0.00123242
0.00122876
0.00123159
0.00123673
0.0012263
0.00122086
0.00121856
0.00121686
0.00121672
0.00122061
0.00124129
0.00125084
0.00125188
0.00124908
0.00124466
0.00123947
0.00123382
0.00122786
0.00122167
0.00121529
0.00120875
0.00120207
0.00119527
0.00118836
0.00118136
0.00117427
0.00116711
0.00115987
0.00115258
0.00114522
0.00113782
0.00113037
0.00112287
0.00111535
0.00110779
0.00110021
0.0010926
0.00108498
0.00107734
0.00106968
0.00106202
0.00105436
0.00104669
0.00103902
0.00103135
0.00102369
0.00101603
0.00100837
0.00100073
0.000993095
0.00098547
0.000977856
0.000970254
0.000962664
0.000955085
0.000947519
0.000939964
0.000932421
0.000924889
0.000917367
0.000909854
0.00090235
0.000894853
0.000887362
0.000879875
0.000872392
0.000864909
0.000857426
0.00084994
0.00084245
0.000834953
0.000827447
0.000819929
0.000812397
0.000804848
0.000797279
0.000789688
0.00078207
0.000774423
0.000766744
0.000759029
0.000751273
0.000743473
0.000735624
0.000727723
0.000719763
0.000711741
0.000703649
0.000695484
0.000687237
0.000678902
0.000670473
0.000661939
0.000653294
0.000644527
0.000635627
0.000626582
0.000617381
0.000608007
0.000598445
0.000588677
0.000578683
0.000568439
0.00055792
0.000547094
0.000535929
0.000524383
0.000512412
0.000499961
0.000486967
0.000473353
0.000459029
0.000443886
0.000427788
0.000410567
0.000392013
0.000371852
0.000349728
0.000325162
0.000297494
0.000265784
0.000228659
0.000184059
0.000129
6.10213e-05
3.77555e-06
2.53387e-05
0.000145466
0.00026857
0.000368375
0.000449034
0.000515548
0.000571799
0.000620486
0.000663474
0.000702067
0.000737195
0.000769532
0.000799574
0.000827689
0.000854155
0.000879187
0.000902953
0.000925589
0.0009472
0.000967876
0.000987687
0.00100669
0.00102494
0.00104248
0.00105933
0.00107553
0.0010911
0.00110606
0.00112043
0.0011342
0.00114738
0.00115996
0.0011719
0.00118313
0.0011935
0.00120272
0.00121031
0.00121562
0.00121826
0.0012188
0.00121792
0.00121988
0.00122346
0.00122647
0.00122808
0.00122754
0.00121029
0.00120305
0.00120258
0.00120479
0.00120576
0.00120692
0.00121071
0.00122712
0.00123563
0.00123906
0.00124119
0.00124276
0.00124226
0.00124061
0.00123969
0.00124002
0.00124022
0.00123711
0.00123104
0.00123031
0.0012334
0.00123152
0.00122211
0.00121496
0.00121247
0.0012107
0.00120912
0.0012086
0.00120733
0.00120659
0.00120995
0.00122145
0.00123555
0.00124384
0.00124389
0.00122565
0.00121681
0.0012178
0.00123914
0.00124979
0.00125146
0.00124894
0.00124462
0.00123946
0.00123382
0.00122787
0.00122168
0.00121529
0.00120875
0.00120207
0.00119527
0.00118836
0.00118136
0.00117427
0.00116711
0.00115988
0.00115258
0.00114522
0.00113782
0.00113037
0.00112288
0.00111535
0.00110779
0.00110021
0.0010926
0.00108498
0.00107734
0.00106969
0.00106202
0.00105436
0.00104669
0.00103902
0.00103135
0.00102369
0.00101603
0.00100838
0.00100073
0.000993096
0.000985471
0.000977857
0.000970255
0.000962664
0.000955086
0.000947519
0.000939965
0.000932421
0.000924889
0.000917367
0.000909854
0.00090235
0.000894853
0.000887362
0.000879875
0.000872392
0.000864909
0.000857426
0.00084994
0.00084245
0.000834953
0.000827447
0.000819929
0.000812397
0.000804848
0.000797279
0.000789687
0.00078207
0.000774423
0.000766744
0.000759028
0.000751273
0.000743472
0.000735624
0.000727722
0.000719763
0.00071174
0.000703649
0.000695483
0.000687237
0.000678902
0.000670472
0.000661939
0.000653294
0.000644526
0.000635626
0.000626582
0.00061738
0.000608006
0.000598445
0.000588677
0.000578683
0.000568439
0.000557919
0.000547094
0.000535928
0.000524383
0.000512412
0.000499961
0.000486966
0.000473352
0.000459029
0.000443886
0.000427787
0.000410567
0.000392012
0.000371851
0.000349728
0.000325162
0.000297494
0.000265784
0.000228659
0.000184059
0.000129
6.10211e-05
3.77555e-06
3.22755e-05
0.000170477
0.000319433
0.000446455
0.000552498
0.000641806
0.000718206
0.000784649
0.00084333
0.000895877
0.000943495
0.000987092
0.00102735
0.00106479
0.00109982
0.00113276
0.00116384
0.00119328
0.00122124
0.00124785
0.00127323
0.00129745
0.00132061
0.00134277
0.00136397
0.00138428
0.00140372
0.00142233
0.00144014
0.00145715
0.00147338
0.00148882
0.00150345
0.00151721
0.00153
0.00154169
0.00155203
0.00156074
0.0015675
0.00157192
0.00157207
0.00157318
0.00157524
0.00157735
0.00157984
0.00158493
0.00158626
0.00158831
0.00159163
0.00159613
0.00159768
0.00159874
0.00160038
0.00160225
0.00160401
0.00160621
0.00161003
0.00161408
0.00161489
0.00161341
0.00161252
0.00161391
0.0016177
0.00162124
0.00162022
0.001621
0.00162162
0.00162199
0.00162043
0.00161891
0.00161928
0.00161825
0.00161687
0.00161672
0.00161501
0.00161293
0.00161338
0.00161542
0.0016142
0.00161273
0.00161154
0.00161041
0.00160955
0.00160936
0.00161231
0.00161284
0.00161054
0.0016064
0.00160115
0.0015952
0.00158875
0.00158193
0.00157483
0.00156748
0.00155993
0.0015522
0.00154431
0.00153629
0.00152813
0.00151986
0.00151149
0.00150301
0.00149445
0.0014858
0.00147707
0.00146827
0.00145941
0.00145049
0.00144151
0.00143249
0.00142342
0.00141431
0.00140517
0.00139599
0.00138678
0.00137755
0.0013683
0.00135903
0.00134974
0.00134044
0.00133113
0.00132181
0.00131247
0.00130314
0.00129379
0.00128444
0.00127509
0.00126574
0.00125638
0.00124701
0.00123765
0.00122828
0.0012189
0.00120953
0.00120014
0.00119075
0.00118135
0.00117194
0.00116252
0.00115308
0.00114363
0.00113417
0.00112468
0.00111517
0.00110563
0.00109607
0.00108647
0.00107684
0.00106718
0.00105747
0.00104771
0.00103791
0.00102805
0.00101813
0.00100815
0.000998102
0.000987979
0.000977776
0.000967487
0.000957105
0.000946623
0.000936033
0.000925328
0.000914497
0.000903531
0.00089242
0.000881151
0.000869713
0.000858091
0.000846269
0.000834231
0.000821957
0.000809427
0.000796617
0.0007835
0.000770047
0.000756223
0.000741991
0.000727306
0.000712118
0.000696369
0.000679991
0.000662907
0.000645023
0.000626231
0.0006064
0.000585373
0.000562959
0.000538922
0.000512969
0.000484729
0.000453726
0.000419338
0.000380735
0.000336797
0.000285986
0.000226223
0.000154982
7.17835e-05
4.98628e-06
3.22758e-05
0.000170479
0.000319437
0.00044646
0.000552503
0.000641812
0.000718213
0.000784655
0.000843337
0.000895884
0.000943502
0.000987099
0.00102736
0.0010648
0.00109983
0.00113276
0.00116385
0.00119329
0.00122125
0.00124786
0.00127323
0.00129746
0.00132062
0.00134277
0.00136398
0.00138428
0.00140373
0.00142234
0.00144014
0.00145716
0.00147339
0.00148882
0.00150344
0.00151717
0.00152989
0.00154138
0.00155126
0.00155911
0.0015647
0.00156859
0.00157173
0.00157562
0.00157975
0.00158319
0.00158588
0.00158822
0.00158739
0.00158847
0.0015915
0.00159526
0.00159836
0.00160106
0.00160383
0.00160865
0.00161187
0.00161356
0.00161469
0.00161566
0.00161597
0.00161591
0.00161622
0.00161729
0.00161865
0.00161884
0.00161751
0.0016172
0.00161828
0.00161808
0.00161516
0.00161227
0.00161077
0.00160964
0.00160861
0.0016079
0.00160689
0.00160597
0.00160641
0.00160948
0.00161357
0.00161616
0.00161645
0.00161236
0.00160924
0.00160813
0.00161131
0.00161229
0.0016103
0.00160631
0.00160113
0.0015952
0.00158876
0.00158194
0.00157483
0.00156748
0.00155993
0.0015522
0.00154432
0.00153629
0.00152814
0.00151987
0.00151149
0.00150301
0.00149445
0.0014858
0.00147707
0.00146827
0.00145941
0.00145049
0.00144151
0.00143249
0.00142342
0.00141431
0.00140517
0.00139599
0.00138678
0.00137755
0.0013683
0.00135903
0.00134974
0.00134044
0.00133113
0.00132181
0.00131247
0.00130314
0.00129379
0.00128444
0.00127509
0.00126574
0.00125638
0.00124701
0.00123765
0.00122828
0.0012189
0.00120953
0.00120014
0.00119075
0.00118135
0.00117194
0.00116252
0.00115308
0.00114363
0.00113417
0.00112468
0.00111517
0.00110563
0.00109607
0.00108647
0.00107684
0.00106718
0.00105747
0.00104771
0.00103791
0.00102805
0.00101813
0.00100815
0.000998101
0.000987978
0.000977775
0.000967486
0.000957104
0.000946622
0.000936033
0.000925327
0.000914496
0.00090353
0.000892419
0.000881151
0.000869712
0.00085809
0.000846268
0.00083423
0.000821957
0.000809427
0.000796616
0.0007835
0.000770046
0.000756223
0.00074199
0.000727305
0.000712117
0.000696368
0.000679991
0.000662906
0.000645023
0.000626231
0.0006064
0.000585373
0.000562958
0.000538921
0.000512968
0.000484729
0.000453726
0.000419338
0.000380735
0.000336797
0.000285986
0.000226223
0.000154982
7.17832e-05
4.98629e-06
3.90347e-05
0.000191973
0.000361795
0.000511858
0.00064042
0.000750693
0.000846167
0.0009298
0.00100394
0.0010704
0.00113058
0.00118558
0.00123624
0.0012832
0.00132698
0.001368
0.00140659
0.001443
0.00147745
0.00151013
0.00154119
0.00157074
0.0015989
0.00162576
0.00165139
0.00167586
0.00169922
0.00172152
0.00174279
0.00176306
0.00178234
0.00180064
0.00181794
0.00183419
0.00184934
0.00186326
0.00187583
0.00188688
0.0018963
0.00190409
0.00191009
0.00191539
0.00192021
0.00192449
0.00192855
0.00193316
0.00193742
0.00194201
0.00194701
0.0019521
0.00195629
0.00195994
0.0019633
0.00196624
0.00196872
0.00197099
0.00197349
0.00197597
0.00197748
0.00197812
0.0019787
0.00197987
0.00198177
0.00198362
0.00198408
0.00198409
0.00198373
0.00198319
0.00198205
0.0019807
0.00197979
0.00197865
0.00197743
0.00197645
0.00197497
0.00197326
0.00197221
0.00197171
0.00197049
0.00196885
0.00196701
0.00196508
0.00196309
0.00196099
0.00195906
0.00195618
0.00195203
0.0019468
0.00194073
0.00193401
0.00192679
0.00191916
0.0019112
0.00190295
0.00189447
0.00188577
0.00187688
0.00186782
0.0018586
0.00184924
0.00183974
0.00183012
0.00182037
0.00181052
0.00180057
0.00179052
0.00178039
0.00177017
0.00175988
0.00174951
0.00173908
0.00172859
0.00171804
0.00170744
0.00169679
0.0016861
0.00167536
0.00166459
0.00165379
0.00164295
0.00163209
0.00162119
0.00161027
0.00159933
0.00158837
0.00157738
0.00156638
0.00155535
0.0015443
0.00153324
0.00152216
0.00151105
0.00149993
0.00148878
0.00147761
0.00146642
0.0014552
0.00144396
0.00143268
0.00142138
0.00141004
0.00139866
0.00138725
0.00137579
0.00136429
0.00135273
0.00134113
0.00132947
0.00131774
0.00130596
0.0012941
0.00128216
0.00127015
0.00125805
0.00124585
0.00123356
0.00122116
0.00120864
0.00119601
0.00118324
0.00117034
0.00115728
0.00114406
0.00113067
0.0011171
0.00110333
0.00108934
0.00107512
0.00106065
0.00104591
0.00103088
0.00101553
0.000999832
0.000983757
0.00096727
0.000950331
0.000932894
0.00091491
0.000896319
0.000877055
0.000857043
0.000836194
0.000814404
0.000791554
0.000767502
0.000742081
0.000715089
0.000686286
0.000655376
0.000621998
0.000585703
0.000545923
0.00050194
0.000452826
0.000397383
0.000334065
0.000260959
0.000176143
8.07691e-05
6.1676e-06
3.90348e-05
0.000191975
0.000361799
0.000511863
0.000640426
0.0007507
0.000846175
0.000929808
0.00100394
0.0010704
0.00113059
0.00118559
0.00123625
0.00128321
0.00132699
0.00136801
0.00140659
0.001443
0.00147746
0.00151014
0.00154119
0.00157075
0.00159891
0.00162577
0.0016514
0.00167587
0.00169923
0.00172152
0.0017428
0.00176307
0.00178235
0.00180065
0.00181794
0.00183418
0.00184929
0.00186312
0.00187546
0.00188606
0.00189484
0.00190212
0.00190849
0.00191457
0.00192024
0.00192525
0.00192971
0.00193405
0.00193793
0.00194231
0.00194724
0.00195227
0.00195687
0.00196099
0.00196464
0.00196811
0.00197083
0.00197279
0.00197435
0.00197574
0.00197689
0.00197785
0.00197888
0.00198016
0.00198157
0.00198253
0.00198267
0.00198255
0.0019825
0.00198199
0.00198056
0.0019789
0.00197753
0.00197626
0.00197502
0.00197387
0.00197261
0.00197131
0.0019703
0.00196988
0.00196965
0.001969
0.00196769
0.00196534
0.00196287
0.00196053
0.00195868
0.00195595
0.00195193
0.00194677
0.00194073
0.00193402
0.0019268
0.00191917
0.0019112
0.00190296
0.00189447
0.00188577
0.00187688
0.00186782
0.00185861
0.00184924
0.00183974
0.00183012
0.00182038
0.00181053
0.00180057
0.00179053
0.00178039
0.00177017
0.00175988
0.00174951
0.00173908
0.00172859
0.00171804
0.00170744
0.00169679
0.0016861
0.00167536
0.00166459
0.00165379
0.00164295
0.00163209
0.00162119
0.00161027
0.00159933
0.00158837
0.00157738
0.00156638
0.00155535
0.00154431
0.00153324
0.00152216
0.00151105
0.00149993
0.00148878
0.00147761
0.00146642
0.0014552
0.00144396
0.00143268
0.00142138
0.00141004
0.00139866
0.00138725
0.00137579
0.00136429
0.00135273
0.00134113
0.00132947
0.00131774
0.00130596
0.0012941
0.00128216
0.00127015
0.00125805
0.00124585
0.00123356
0.00122116
0.00120864
0.00119601
0.00118324
0.00117034
0.00115728
0.00114406
0.00113067
0.0011171
0.00110333
0.00108934
0.00107512
0.00106065
0.00104591
0.00103088
0.00101553
0.000999831
0.000983757
0.00096727
0.00095033
0.000932894
0.000914909
0.000896318
0.000877055
0.000857042
0.000836193
0.000814403
0.000791553
0.000767501
0.00074208
0.000715089
0.000686285
0.000655376
0.000621998
0.000585702
0.000545923
0.00050194
0.000452827
0.000397384
0.000334065
0.00026096
0.000176143
8.07688e-05
6.16761e-06
4.56475e-05
0.000211096
0.000398458
0.000568278
0.00071672
0.000845969
0.000959084
0.0010589
0.0011478
0.0012277
0.00130015
0.00136635
0.00142726
0.00148366
0.00153615
0.00158523
0.00163129
0.00167467
0.00171562
0.00175438
0.00179112
0.00182601
0.00185918
0.00189074
0.00192079
0.00194942
0.00197669
0.00200267
0.00202739
0.00205091
0.00207323
0.00209438
0.00211435
0.00213312
0.00215064
0.00216685
0.0021817
0.0021951
0.00220704
0.00221759
0.00222685
0.00223517
0.00224269
0.00224955
0.00225594
0.00226223
0.00226838
0.00227454
0.00228069
0.00228666
0.00229212
0.00229705
0.00230147
0.00230533
0.00230863
0.00231152
0.00231417
0.00231662
0.00231863
0.00232019
0.00232148
0.0023227
0.00232393
0.00232498
0.00232545
0.00232538
0.00232486
0.00232401
0.00232279
0.00232131
0.00231981
0.00231821
0.00231653
0.00231483
0.00231289
0.00231076
0.00230866
0.00230659
0.00230424
0.00230158
0.0022987
0.00229563
0.00229237
0.00228882
0.0022849
0.0022803
0.00227489
0.00226869
0.00226179
0.00225429
0.00224629
0.00223787
0.00222909
0.00222
0.00221064
0.00220103
0.0021912
0.00218117
0.00217096
0.00216057
0.00215002
0.00213932
0.00212848
0.00211751
0.00210641
0.00209519
0.00208387
0.00207244
0.00206091
0.00204929
0.00203759
0.0020258
0.00201394
0.00200201
0.00199001
0.00197795
0.00196583
0.00195365
0.00194142
0.00192915
0.00191683
0.00190446
0.00189205
0.00187961
0.00186712
0.0018546
0.00184204
0.00182944
0.00181681
0.00180414
0.00179144
0.0017787
0.00176592
0.0017531
0.00174025
0.00172735
0.00171441
0.00170143
0.0016884
0.00167532
0.00166218
0.001649
0.00163575
0.00162244
0.00160906
0.00159561
0.00158208