/*--------------------------------*- C++ -*----------------------------------*\
  =========                 |
  \\      /  F ield         | OpenFOAM: The Open Source CFD Toolbox
   \\    /   O peration     | Website:  https://openfoam.org
    \\  /    A nd           | Version:  8
     \\/     M anipulation  |
\*---------------------------------------------------------------------------*/
FoamFile
{
    version     2.0;
    format      ascii;
    class       surfaceScalarField;
    location    "5000";
    object      phi;
}
// * * * * * * * * * * * * * * * * * * * * * * * * * * * * * * * * * * * * * //

dimensions      [1 0 -1 0 0 0 0];

internalField   nonuniform List<scalar> 
114370
(
9.16658e-10
4.50669e-13
-9.17109e-10
2.19304e-09
3.91294e-12
-1.30618e-09
3.2728e-09
2.96141e-12
-1.07578e-09
3.90848e-09
1.429e-12
-6.354e-10
4.10781e-09
5.45646e-13
-2.00452e-10
3.93115e-09
1.74828e-13
1.75415e-10
3.44824e-09
4.79924e-14
4.81914e-10
2.72246e-09
8.99814e-15
7.24998e-10
1.80641e-09
-4.01164e-15
9.1541e-10
7.42105e-10
-8.57214e-15
1.06379e-09
-4.36551e-10
-8.33992e-15
1.17822e-09
-1.70154e-09
-4.56398e-15
1.26463e-09
-3.03068e-09
8.56795e-16
1.32883e-09
-4.40676e-09
5.41715e-15
1.37581e-09
-5.81581e-09
7.02306e-15
1.4088e-09
-7.24639e-09
4.90333e-15
1.43034e-09
-8.68901e-09
2.02952e-17
1.4424e-09
-1.01358e-08
-5.25658e-15
1.44656e-09
-1.15801e-08
-8.24377e-15
1.44409e-09
-1.30163e-08
-7.53867e-15
1.436e-09
-1.44396e-08
-4.37627e-15
1.42315e-09
-1.58459e-08
-2.65245e-15
1.40621e-09
-1.72318e-08
-6.78581e-15
1.38574e-09
-1.85941e-08
-1.78792e-14
1.36221e-09
-1.99301e-08
-3.04601e-14
1.336e-09
-2.12375e-08
-3.2949e-14
1.30745e-09
-2.25142e-08
-1.32647e-14
1.27685e-09
-2.37584e-08
3.33474e-14
1.24446e-09
-2.49687e-08
1.01046e-13
1.21045e-09
-2.61435e-08
1.80213e-13
1.17489e-09
-2.72815e-08
2.71631e-13
1.13781e-09
-2.83811e-08
3.9594e-13
1.09922e-09
-2.94409e-08
5.8701e-13
1.05919e-09
-3.04596e-08
8.73494e-13
1.01786e-09
-3.14363e-08
1.26762e-12
9.75572e-10
-3.23712e-08
1.76137e-12
9.33199e-10
-3.32665e-08
2.26201e-12
8.92922e-10
-3.4128e-08
2.43821e-12
8.59016e-10
-3.49661e-08
2.1881e-12
8.36169e-10
-3.57881e-08
3.45134e-12
8.18728e-10
-3.65679e-08
2.20398e-12
7.77453e-10
-3.72614e-08
-9.12321e-12
7.02631e-10
-3.79078e-08
-6.22123e-12
6.52865e-10
-3.85705e-08
-3.84402e-12
6.66536e-10
-3.9226e-08
-3.36881e-12
6.59085e-10
-3.97793e-08
-3.2342e-12
5.57132e-10
-4.02602e-08
-5.23581e-12
4.86274e-10
-4.06648e-08
-1.20214e-11
4.15666e-10
-4.09774e-08
-2.97833e-11
3.41644e-10
-4.14925e-08
-6.79538e-11
5.83693e-10
-4.2054e-08
-7.06942e-11
6.33956e-10
-4.21893e-08
-1.54236e-11
1.54111e-10
-4.23837e-08
8.65711e-13
1.99014e-10
-4.26327e-08
2.47079e-11
2.26716e-10
-4.29936e-08
1.48462e-11
3.4017e-10
-4.33843e-08
2.58623e-11
3.55445e-10
-4.32138e-08
8.44574e-11
-2.60475e-10
-4.308e-08
4.74939e-11
-1.83546e-10
-4.33316e-08
-2.18976e-11
2.7333e-10
-4.36832e-08
-4.44638e-11
3.96882e-10
-4.36899e-08
-3.86513e-12
1.14853e-11
-4.36623e-08
3.06398e-11
-5.79004e-11
-4.33471e-08
8.1239e-11
-3.9633e-10
-4.32053e-08
8.90644e-11
-2.30619e-10
-4.31608e-08
6.14823e-11
-1.04846e-10
-4.31102e-08
-9.39457e-12
-4.09004e-11
-4.30545e-08
-4.73408e-11
-9.30216e-12
-4.25904e-08
2.43667e-11
-4.88173e-10
-4.25757e-08
2.35069e-11
-3.65309e-11
-4.23579e-08
2.95702e-11
-2.47094e-10
-4.17996e-08
5.18028e-11
-6.11505e-10
-4.18337e-08
-3.7396e-11
7.13077e-11
-4.14729e-08
1.42051e-12
-3.59808e-10
-4.07477e-08
4.61981e-11
-7.70762e-10
-4.06004e-08
-3.29575e-11
-1.1547e-10
-4.05769e-08
-5.26016e-11
2.82299e-11
-3.98628e-08
3.4371e-11
-7.48961e-10
-3.92706e-08
-1.79381e-11
-5.74487e-10
-3.88591e-08
-4.22121e-11
-3.69718e-10
-3.84233e-08
-1.85667e-11
-4.17416e-10
-3.79937e-08
-1.07795e-11
-4.18462e-10
-3.75185e-08
-3.54327e-12
-4.72135e-10
-3.69696e-08
-1.98439e-12
-5.47154e-10
-3.6414e-08
-1.75089e-12
-5.53528e-10
-3.58696e-08
-5.69356e-13
-5.44256e-10
-3.53292e-08
-5.3821e-13
-5.40659e-10
-3.4782e-08
-3.32369e-13
-5.47106e-10
-3.42219e-08
-1.42973e-13
-5.5977e-10
-3.36476e-08
-3.53106e-14
-5.74055e-10
-3.30602e-08
-6.23865e-15
-5.87412e-10
-3.24615e-08
-1.05304e-14
-5.98958e-10
-3.1853e-08
-1.21504e-14
-6.08628e-10
-3.12363e-08
-2.66081e-15
-6.16638e-10
-3.06128e-08
8.09255e-15
-6.2327e-10
-2.99839e-08
8.78393e-15
-6.28768e-10
-2.93506e-08
-1.7059e-15
-6.33293e-10
-2.87137e-08
-1.44606e-14
-6.3693e-10
-2.80741e-08
-1.93446e-14
-6.3972e-10
-2.74325e-08
-1.30732e-14
-6.41688e-10
-2.67897e-08
-3.4339e-16
-6.42866e-10
-2.61464e-08
1.09574e-14
-6.43288e-10
-2.55035e-08
1.5413e-14
-6.42993e-10
-2.48615e-08
1.26151e-14
-6.42016e-10
-2.42212e-08
5.99875e-15
-6.40386e-10
-2.35832e-08
-1.03951e-16
-6.38126e-10
-2.2948e-08
-2.92288e-15
-6.35253e-10
-2.23162e-08
-2.09205e-15
-6.31783e-10
-2.16886e-08
9.61763e-16
-6.27735e-10
-2.10655e-08
4.25015e-15
-6.23129e-10
-2.04476e-08
6.2769e-15
-6.17987e-10
-1.98353e-08
6.51401e-15
-6.12332e-10
-1.92292e-08
5.30984e-15
-6.06188e-10
-1.86298e-08
3.46019e-15
-5.99575e-10
-1.80374e-08
1.73219e-15
-5.92514e-10
-1.74524e-08
5.54906e-16
-5.85022e-10
-1.68754e-08
-4.493e-17
-5.77119e-10
-1.63067e-08
-3.06333e-16
-5.68824e-10
-1.57466e-08
-5.13525e-16
-5.60155e-10
-1.51955e-08
-8.28542e-16
-5.51131e-10
-1.46538e-08
-1.2323e-15
-5.41769e-10
-1.41218e-08
-1.58554e-15
-5.32087e-10
-1.35997e-08
-1.74004e-15
-5.22101e-10
-1.30879e-08
-1.63183e-15
-5.1183e-10
-1.25866e-08
-1.31314e-15
-5.01289e-10
-1.20962e-08
-9.18705e-16
-4.90495e-10
-1.16167e-08
-6.02228e-16
-4.79466e-10
-1.11485e-08
-4.68928e-16
-4.68217e-10
-1.06917e-08
-5.45692e-16
-4.56765e-10
-1.02466e-08
-7.84219e-16
-4.45125e-10
-9.81332e-09
-1.09029e-15
-4.33312e-10
-9.39199e-09
-1.36687e-15
-4.2134e-10
-8.98277e-09
-1.54089e-15
-4.09224e-10
-8.58579e-09
-1.58068e-15
-3.96977e-10
-8.20117e-09
-1.49233e-15
-3.84614e-10
-7.82902e-09
-1.31062e-15
-3.72149e-10
-7.46942e-09
-1.0812e-15
-3.59596e-10
-7.12244e-09
-8.50814e-16
-3.4697e-10
-6.78816e-09
-6.53818e-16
-3.34286e-10
-6.4666e-09
-5.15803e-16
-3.21558e-10
-6.1578e-09
-4.44359e-16
-3.08802e-10
-5.86177e-09
-4.37967e-16
-2.96033e-10
-5.5785e-09
-4.85134e-16
-2.83267e-10
-5.30799e-09
-5.6819e-16
-2.70521e-10
-5.05018e-09
-6.65448e-16
-2.57811e-10
-4.80503e-09
-7.57503e-16
-2.45156e-10
-4.57247e-09
-8.28524e-16
-2.32572e-10
-4.35239e-09
-8.68104e-16
-2.2008e-10
-4.1447e-09
-8.73098e-16
-2.07698e-10
-3.94926e-09
-8.45891e-16
-1.95447e-10
-3.76591e-09
-7.92556e-16
-1.83349e-10
-3.59449e-09
-7.21982e-16
-1.71427e-10
-3.43479e-09
-6.41868e-16
-1.59703e-10
-3.2866e-09
-5.57417e-16
-1.48203e-10
-3.14965e-09
-4.71665e-16
-1.36953e-10
-3.02368e-09
-3.85372e-16
-1.25978e-10
-2.90839e-09
-2.96586e-16
-1.15307e-10
-2.80343e-09
-2.04656e-16
-1.04969e-10
-2.70845e-09
-1.05028e-16
-9.49937e-11
-2.62305e-09
4.89839e-18
-8.54121e-11
-2.54681e-09
1.25342e-16
-7.62566e-11
-2.47927e-09
2.60638e-16
-6.75602e-11
-2.41993e-09
4.08727e-16
-5.93571e-11
-2.36828e-09
5.72862e-16
-5.16821e-11
-2.32373e-09
7.52501e-16
-4.45711e-11
-2.2857e-09
9.47209e-16
-3.80605e-11
-2.25355e-09
1.1571e-15
-3.21874e-11
-2.22659e-09
1.37967e-15
-2.69895e-11
-2.20413e-09
1.61438e-15
-2.25046e-11
-2.1854e-09
1.85896e-15
-1.87709e-11
-2.16962e-09
2.1133e-15
-1.58264e-11
-2.15597e-09
2.37891e-15
-1.37093e-11
-2.14357e-09
2.661e-15
-1.24569e-11
-2.13153e-09
2.96239e-15
-1.21061e-11
-2.11891e-09
3.29154e-15
-1.26927e-11
-2.10473e-09
3.64844e-15
-1.42512e-11
-2.088e-09
4.02941e-15
-1.68142e-11
-2.06769e-09
4.42187e-15
-2.04118e-11
-2.04272e-09
4.8087e-15
-2.50711e-11
-2.01201e-09
5.16993e-15
-3.08147e-11
-1.97447e-09
5.49149e-15
-3.76601e-11
-1.92899e-09
5.77466e-15
-4.5617e-11
-1.87445e-09
6.02835e-15
-5.46854e-11
-1.80975e-09
6.26837e-15
-6.48519e-11
-1.73383e-09
6.50124e-15
-7.60847e-11
-1.64568e-09
6.71264e-15
-8.83268e-11
-1.54439e-09
6.87656e-15
-1.01485e-10
-1.42918e-09
6.9713e-15
-1.15416e-10
-1.29949e-09
7.0088e-15
-1.29902e-10
-1.15511e-09
7.03178e-15
-1.44615e-10
-9.96283e-10
7.08252e-15
-1.59069e-10
-8.2401e-10
7.18639e-15
-1.72532e-10
-6.40379e-10
7.33732e-15
-1.83904e-10
-4.49153e-10
7.56134e-15
-1.91515e-10
-2.56628e-10
7.94302e-15
-1.92831e-10
-7.29355e-11
8.61269e-15
-1.84019e-10
8.60786e-11
9.62589e-15
-1.59363e-10
1.96816e-10
1.09245e-14
-1.11115e-10
2.27315e-10
1.21534e-14
-3.09172e-11
1.50419e-10
1.26692e-14
7.64105e-11
5.59035e-15
1.49845e-10
9.312e-10
-9.32064e-10
2.19229e-09
-1.31469e-09
3.26865e-09
-1.07955e-09
3.90581e-09
-6.36667e-10
4.10663e-09
-2.00777e-10
3.93076e-09
1.75339e-10
3.44815e-09
4.81869e-10
2.72246e-09
7.24943e-10
1.80644e-09
9.15352e-10
7.42133e-10
1.06373e-09
-4.36528e-10
1.17818e-09
-1.70153e-09
1.2646e-09
-3.03067e-09
1.3288e-09
-4.40675e-09
1.37579e-09
-5.81581e-09
1.40878e-09
-7.2464e-09
1.43032e-09
-8.68905e-09
1.44238e-09
-1.01358e-08
1.44654e-09
-1.15802e-08
1.44407e-09
-1.30164e-08
1.43599e-09
-1.44397e-08
1.42314e-09
-1.5846e-08
1.4062e-09
-1.72319e-08
1.38574e-09
-1.85942e-08
1.3622e-09
-1.99303e-08
1.33599e-09
-2.12376e-08
1.30745e-09
-2.25143e-08
1.27687e-09
-2.37584e-08
1.2445e-09
-2.49684e-08
1.21049e-09
-2.6143e-08
1.1749e-09
-2.72804e-08
1.13772e-09
-2.83791e-08
1.09892e-09
-2.9437e-08
1.05847e-09
-3.04522e-08
1.01626e-09
-3.14228e-08
9.72066e-10
-3.23471e-08
9.26124e-10
-3.3226e-08
8.81125e-10
-3.40718e-08
8.48386e-10
-3.4927e-08
8.57476e-10
-3.58533e-08
9.30041e-10
-3.67254e-08
8.74466e-10
-3.72733e-08
5.38636e-10
-3.78382e-08
5.58412e-10
-3.85214e-08
6.7882e-10
-3.92119e-08
6.87435e-10
-3.97905e-08
5.76287e-10
-4.0294e-08
4.98523e-10
-4.07382e-08
4.31766e-10
-4.11193e-08
3.51309e-10
-4.14835e-08
2.95959e-10
-4.19319e-08
3.76449e-10
-4.23065e-08
3.57361e-10
-4.24534e-08
1.47083e-10
-4.27387e-08
3.11467e-10
-4.29601e-08
2.38219e-10
-4.3088e-08
1.54468e-10
-4.3325e-08
3.21377e-10
-4.34201e-08
1.42511e-10
-4.34802e-08
3.86644e-11
-4.35316e-08
7.64053e-12
-4.35474e-08
1.23165e-11
-4.35063e-08
-1.07899e-11
-4.33304e-08
-9.52702e-11
-4.31922e-08
-4.94506e-11
-4.33013e-08
1.70045e-10
-4.31454e-08
-1.66303e-10
-4.26711e-08
-5.21015e-10
-4.25902e-08
-5.49734e-11
-4.27244e-08
1.58093e-10
-4.22217e-08
-4.7451e-10
-4.17575e-08
-4.10039e-10
-4.14699e-08
-3.24294e-10
-4.12114e-08
-2.61959e-10
-4.08717e-08
-2.93112e-10
-4.05848e-08
-3.14506e-10
-4.03077e-08
-3.24138e-10
-3.99774e-08
-2.93324e-10
-3.92673e-08
-7.2544e-10
-3.87995e-08
-5.08826e-10
-3.84594e-08
-3.58609e-10
-3.79525e-08
-5.17189e-10
-3.74846e-08
-4.71558e-10
-3.69686e-08
-5.1884e-10
-3.64012e-08
-5.69634e-10
-3.58566e-08
-5.45245e-10
-3.53238e-08
-5.33263e-10
-3.47809e-08
-5.42821e-10
-3.42222e-08
-5.58622e-10
-3.36482e-08
-5.74184e-10
-3.30608e-08
-5.87803e-10
-3.24618e-08
-5.99263e-10
-3.18531e-08
-6.08787e-10
-3.12362e-08
-6.16698e-10
-3.06128e-08
-6.23292e-10
-2.99839e-08
-6.28789e-10
-2.93506e-08
-6.33321e-10
-2.87138e-08
-6.36961e-10
-2.80741e-08
-6.39747e-10
-2.74325e-08
-6.41709e-10
-2.67897e-08
-6.42879e-10
-2.61464e-08
-6.43296e-10
-2.55035e-08
-6.42998e-10
-2.48615e-08
-6.4202e-10
-2.42212e-08
-6.40391e-10
-2.35831e-08
-6.38133e-10
-2.2948e-08
-6.35261e-10
-2.23162e-08
-6.31792e-10
-2.16886e-08
-6.27743e-10
-2.10655e-08
-6.23137e-10
-2.04476e-08
-6.17996e-10
-1.98353e-08
-6.12342e-10
-1.92292e-08
-6.06199e-10
-1.86297e-08
-5.99587e-10
-1.80373e-08
-5.92526e-10
-1.74524e-08
-5.85034e-10
-1.68754e-08
-5.7713e-10
-1.63066e-08
-5.68834e-10
-1.57466e-08
-5.60164e-10
-1.51955e-08
-5.51139e-10
-1.46538e-08
-5.41775e-10
-1.41218e-08
-5.32092e-10
-1.35997e-08
-5.22106e-10
-1.30879e-08
-5.11833e-10
-1.25866e-08
-5.01292e-10
-1.20961e-08
-4.90498e-10
-1.16167e-08
-4.79468e-10
-1.11485e-08
-4.6822e-10
-1.06917e-08
-4.56768e-10
-1.02466e-08
-4.45127e-10
-9.81331e-09
-4.33314e-10
-9.39197e-09
-4.21342e-10
-8.98275e-09
-4.09226e-10
-8.58578e-09
-3.96979e-10
-8.20116e-09
-3.84616e-10
-7.82901e-09
-3.72151e-10
-7.46941e-09
-3.59598e-10
-7.12243e-09
-3.46972e-10
-6.78814e-09
-3.34288e-10
-6.46658e-09
-3.2156e-10
-6.15778e-09
-3.08804e-10
-5.86175e-09
-2.96035e-10
-5.57849e-09
-2.8327e-10
-5.30797e-09
-2.70524e-10
-5.05017e-09
-2.57814e-10
-4.80502e-09
-2.45159e-10
-4.57245e-09
-2.32575e-10
-4.35238e-09
-2.20082e-10
-4.14468e-09
-2.077e-10
-3.94924e-09
-1.9545e-10
-3.7659e-09
-1.83352e-10
-3.59448e-09
-1.7143e-10
-3.43478e-09
-1.59706e-10
-3.28658e-09
-1.48207e-10
-3.14964e-09
-1.36956e-10
-3.02367e-09
-1.25981e-10
-2.90837e-09
-1.15311e-10
-2.80342e-09
-1.04973e-10
-2.70844e-09
-9.49974e-11
-2.62304e-09
-8.54161e-11
-2.5468e-09
-7.62607e-11
-2.47926e-09
-6.75645e-11
-2.41992e-09
-5.93616e-11
-2.36826e-09
-5.16868e-11
-2.32372e-09
-4.45761e-11
-2.28569e-09
-3.80658e-11
-2.25353e-09
-3.21931e-11
-2.22658e-09
-2.69955e-11
-2.20412e-09
-2.2511e-11
-2.18539e-09
-1.87777e-11
-2.16961e-09
-1.58338e-11
-2.15596e-09
-1.37171e-11
-2.14356e-09
-1.24653e-11
-2.13152e-09
-1.21152e-11
-2.1189e-09
-1.27026e-11
-2.10472e-09
-1.4262e-11
-2.08799e-09
-1.68259e-11
-2.06768e-09
-2.04246e-11
-2.04271e-09
-2.5085e-11
-2.012e-09
-3.083e-11
-1.97447e-09
-3.76767e-11
-1.92898e-09
-4.56351e-11
-1.87444e-09
-5.4705e-11
-1.80974e-09
-6.48731e-11
-1.73383e-09
-7.61076e-11
-1.64568e-09
-8.83515e-11
-1.54438e-09
-1.01512e-10
-1.42917e-09
-1.15445e-10
-1.29949e-09
-1.29932e-10
-1.15511e-09
-1.44648e-10
-9.96285e-10
-1.59104e-10
-8.24012e-10
-1.72569e-10
-6.40383e-10
-1.83943e-10
-4.49158e-10
-1.91557e-10
-2.56634e-10
-1.92875e-10
-7.29423e-11
-1.84066e-10
8.60705e-11
-1.59414e-10
1.96804e-10
-1.1117e-10
2.27293e-10
-3.0977e-11
1.50372e-10
7.63395e-11
1.49759e-10
1.32147e-09
-3.7824e-12
-2.21606e-09
2.07351e-09
-3.61878e-13
-2.0612e-09
2.46425e-09
1.8414e-13
-1.46699e-09
2.57091e-09
1.63669e-13
-7.4317e-10
2.41602e-09
7.96303e-14
-4.66393e-11
2.025e-09
2.5912e-14
5.65535e-10
1.42709e-09
5.90862e-16
1.07907e-09
6.52326e-10
-9.56683e-15
1.49912e-09
-2.70185e-10
-1.29166e-14
1.83739e-09
-1.31342e-09
-1.30366e-14
2.10658e-09
-2.45372e-09
-1.13636e-14
2.31816e-09
-3.67137e-09
-8.76062e-15
2.48196e-09
-4.94942e-09
-6.07574e-15
2.6066e-09
-6.27324e-09
-4.1683e-15
2.69936e-09
-7.63047e-09
-3.62483e-15
2.76578e-09
-9.0107e-09
-4.46211e-15
2.81032e-09
-1.04051e-08
-6.01612e-15
2.83653e-09
-1.1806e-08
-7.15931e-15
2.8473e-09
-1.32071e-08
-6.86031e-15
2.84499e-09
-1.46028e-08
-4.92279e-15
2.83153e-09
-1.59883e-08
-2.47868e-15
2.80851e-09
-1.73595e-08
-1.67905e-15
2.77727e-09
-1.87128e-08
-4.30564e-15
2.7389e-09
-2.00449e-08
-9.84616e-15
2.69435e-09
-2.13532e-08
-1.44813e-14
2.64439e-09
-2.26353e-08
-1.24724e-14
2.5897e-09
-2.3889e-08
1.1012e-16
2.53082e-09
-2.51124e-08
2.19006e-14
2.46823e-09
-2.63041e-08
4.67538e-14
2.40234e-09
-2.74627e-08
6.94246e-14
2.33346e-09
-2.85868e-08
9.18472e-14
2.26187e-09
-2.96756e-08
1.22046e-13
2.18782e-09
-3.07281e-08
1.62664e-13
2.11161e-09
-3.1744e-08
1.96829e-13
2.03371e-09
-3.27234e-08
1.81695e-13
1.95493e-09
-3.3667e-08
4.72842e-14
1.87667e-09
-3.45751e-08
-2.88074e-13
1.80128e-09
-3.5447e-08
-7.60183e-13
1.73169e-09
-3.62791e-08
-1.04555e-12
1.66938e-09
-3.70679e-08
-2.48324e-12
1.61001e-09
-3.78243e-08
-3.0059e-12
1.53721e-09
-3.85653e-08
4.58194e-12
1.43923e-09
-3.92588e-08
2.56736e-12
1.34347e-09
-3.98729e-08
7.45326e-13
1.2797e-09
-4.04342e-08
7.04162e-13
1.22007e-09
-4.10031e-08
5.95204e-13
1.12577e-09
-4.15528e-08
8.28375e-13
1.03513e-09
-4.20815e-08
2.98832e-12
9.41793e-10
-4.2617e-08
1.20627e-11
8.64906e-10
-4.29369e-08
4.08534e-11
8.61499e-10
-4.31521e-08
4.40283e-11
8.02797e-10
-4.3653e-08
3.14603e-12
6.47187e-10
-4.40045e-08
-4.39675e-12
5.52799e-10
-4.42578e-08
-1.44528e-11
4.9818e-10
-4.43826e-08
-5.29579e-12
4.77624e-10
-4.43988e-08
-8.96257e-12
3.86721e-10
-4.4793e-08
-5.51198e-11
1.9115e-10
-4.50747e-08
-3.26729e-11
1.31506e-10
-4.50087e-08
1.76673e-11
1.89812e-10
-4.48235e-08
3.39222e-11
1.77725e-10
-4.48519e-08
5.17603e-12
3.49368e-11
-4.4817e-08
-1.53143e-11
-7.72574e-11
-4.49531e-08
-4.87034e-11
-2.11836e-10
-4.49006e-08
-5.21415e-11
-2.31182e-10
-4.47206e-08
-3.60955e-11
-2.48831e-10
-4.44938e-08
1.07431e-11
-2.77964e-10
-4.42228e-08
3.59972e-11
-3.15416e-10
-4.42281e-08
-1.95581e-11
-4.64327e-10
-4.38161e-08
-1.80136e-11
-4.31515e-10
-4.35332e-08
-1.07247e-11
-5.1789e-10
-4.34926e-08
-2.82654e-11
-6.23326e-10
-4.29073e-08
2.51658e-11
-5.38693e-10
-4.25894e-08
-2.81055e-12
-6.76564e-10
-4.25245e-08
-2.98528e-11
-8.05963e-10
-4.19646e-08
1.7463e-11
-6.92433e-10
-4.12609e-08
2.19004e-11
-6.97164e-10
-4.10651e-08
-3.01783e-11
-9.15216e-10
-4.07266e-08
1.39658e-11
-9.2741e-10
-4.02233e-08
2.65748e-11
-8.99074e-10
-3.97163e-08
7.62176e-12
-9.31627e-10
-3.91864e-08
3.76551e-12
-9.52507e-10
-3.86617e-08
1.53526e-13
-9.9756e-10
-3.81563e-08
2.02583e-13
-1.05283e-09
-3.763e-08
2.52704e-13
-1.08045e-09
-3.70795e-08
-3.82363e-13
-1.09495e-09
-3.65141e-08
-1.48643e-13
-1.10609e-09
-3.59389e-08
-5.90277e-14
-1.12205e-09
-3.53554e-08
-6.33087e-15
-1.14311e-09
-3.47636e-08
1.75154e-14
-1.16593e-09
-3.41633e-08
1.51999e-14
-1.18791e-09
-3.35545e-08
6.88923e-15
-1.20782e-09
-3.29377e-08
4.59934e-15
-1.22533e-09
-3.23137e-08
6.48466e-15
-1.24051e-09
-3.16833e-08
6.34346e-15
-1.25353e-09
-3.10475e-08
1.49441e-15
-1.26458e-09
-3.04071e-08
-5.38705e-15
-1.2738e-09
-2.97628e-08
-9.51964e-15
-1.28127e-09
-2.91155e-08
-8.30805e-15
-1.28709e-09
-2.8466e-08
-3.00854e-15
-1.29133e-09
-2.78148e-08
2.80005e-15
-1.29404e-09
-2.71629e-08
5.96784e-15
-1.2953e-09
-2.65108e-08
5.53384e-15
-1.29515e-09
-2.58592e-08
2.67602e-15
-1.29363e-09
-2.52089e-08
-5.35175e-16
-1.2908e-09
-2.45604e-08
-2.47053e-15
-1.2867e-09
-2.39144e-08
-2.60522e-15
-1.28136e-09
-2.32714e-08
-1.4123e-15
-1.27484e-09
-2.2632e-08
1.81589e-16
-1.26716e-09
-2.19968e-08
1.35676e-15
-1.25838e-09
-2.13664e-08
1.72107e-15
-1.24852e-09
-2.07412e-08
1.33542e-15
-1.23764e-09
-2.01217e-08
5.4203e-16
-1.22576e-09
-1.95085e-08
-2.67328e-16
-1.21293e-09
-1.89019e-08
-8.28539e-16
-1.19919e-09
-1.83024e-08
-1.06937e-15
-1.18458e-09
-1.77105e-08
-1.07121e-15
-1.16912e-09
-1.71266e-08
-9.75586e-16
-1.15287e-09
-1.65509e-08
-8.93757e-16
-1.13586e-09
-1.5984e-08
-8.62777e-16
-1.11811e-09
-1.54261e-08
-8.52478e-16
-1.09968e-09
-1.48777e-08
-8.07837e-16
-1.08059e-09
-1.43389e-08
-6.91802e-16
-1.06087e-09
-1.38102e-08
-5.09061e-16
-1.04057e-09
-1.32918e-08
-2.99757e-16
-1.0197e-09
-1.2784e-08
-1.18181e-16
-9.98319e-10
-1.22871e-08
-5.10048e-18
-9.7644e-10
-1.18012e-08
2.66109e-17
-9.54101e-10
-1.13266e-08
-6.16081e-18
-9.3133e-10
-1.08636e-08
-6.83687e-17
-9.08158e-10
-1.04123e-08
-1.21876e-16
-8.84614e-10
-9.97293e-09
-1.38954e-16
-8.60728e-10
-9.54563e-09
-1.08409e-16
-8.36528e-10
-9.13056e-09
-3.46853e-17
-8.12043e-10
-8.72787e-09
6.68749e-17
-7.87302e-10
-8.33768e-09
1.76702e-16
-7.62332e-10
-7.96011e-09
2.77259e-16
-7.37162e-10
-7.59526e-09
3.55915e-16
-7.11822e-10
-7.24321e-09
4.05731e-16
-6.8634e-10
-6.90402e-09
4.26111e-16
-6.60747e-10
-6.57775e-09
4.20226e-16
-6.35072e-10
-6.26444e-09
3.94391e-16
-6.09347e-10
-5.96411e-09
3.56088e-16
-5.83604e-10
-5.67677e-09
3.14207e-16
-5.57876e-10
-5.40239e-09
2.75686e-16
-5.32197e-10
-5.14095e-09
2.463e-16
-5.06602e-10
-4.8924e-09
2.29327e-16
-4.81128e-10
-4.65667e-09
2.25446e-16
-4.55814e-10
-4.43368e-09
2.32895e-16
-4.30699e-10
-4.2233e-09
2.48827e-16
-4.05826e-10
-4.02542e-09
2.69096e-16
-3.81238e-10
-3.83987e-09
2.90368e-16
-3.56981e-10
-3.66648e-09
3.09552e-16
-3.33103e-10
-3.50504e-09
3.25157e-16
-3.09652e-10
-3.35533e-09
3.36128e-16
-2.86681e-10
-3.21707e-09
3.43222e-16
-2.64245e-10
-3.08999e-09
3.46413e-16
-2.42399e-10
-2.97378e-09
3.46839e-16
-2.21202e-10
-2.86807e-09
3.45475e-16
-2.00714e-10
-2.7725e-09
3.42756e-16
-1.80999e-10
-2.68666e-09
3.39332e-16
-1.62121e-10
-2.6101e-09
3.34958e-16
-1.44146e-10
-2.54234e-09
3.30449e-16
-1.27145e-10
-2.48286e-09
3.2556e-16
-1.11186e-10
-2.43112e-09
3.19749e-16
-9.63421e-11
-2.38653e-09
3.13341e-16
-8.26864e-11
-2.34846e-09
3.05577e-16
-7.02934e-11
-2.31626e-09
2.95266e-16
-5.92381e-11
-2.28921e-09
2.8246e-16
-4.95965e-11
-2.26659e-09
2.66401e-16
-4.14445e-11
-2.24761e-09
2.46818e-16
-3.48579e-11
-2.23147e-09
2.24687e-16
-2.99118e-11
-2.21731e-09
2.01091e-16
-2.66801e-11
-2.20426e-09
1.77225e-16
-2.5235e-11
-2.19138e-09
1.5455e-16
-2.5646e-11
-2.17774e-09
1.32634e-16
-2.79794e-11
-2.16236e-09
1.0985e-16
-3.22967e-11
-2.14422e-09
8.19162e-17
-3.86539e-11
-2.1223e-09
4.43865e-17
-4.70993e-11
-2.09557e-09
-6.37079e-18
-5.76717e-11
-2.06296e-09
-6.9922e-17
-7.03973e-11
-2.02344e-09
-1.42201e-16
-8.52863e-11
-1.97595e-09
-2.16324e-16
-1.02327e-10
-1.91949e-09
-2.86978e-16
-1.21482e-10
-1.85308e-09
-3.54379e-16
-1.42673e-10
-1.77583e-09
-4.24708e-16
-1.65773e-10
-1.68693e-09
-5.06475e-16
-1.90586e-10
-1.58574e-09
-6.01578e-16
-2.1682e-10
-1.47182e-09
-7.01559e-16
-2.4405e-10
-1.34502e-09
-7.93788e-16
-2.71658e-10
-1.20559e-09
-8.73005e-16
-2.98758e-10
-1.05432e-09
-9.49075e-16
-3.24069e-10
-8.92771e-10
-1.02937e-15
-3.45741e-10
-7.23497e-10
-1.10006e-15
-3.61091e-10
-5.50423e-10
-1.12943e-15
-3.66226e-10
-3.79237e-10
-1.10219e-15
-3.55548e-10
-2.17829e-10
-1.01885e-15
-3.21145e-10
-7.68871e-11
-8.6299e-16
-2.52475e-10
2.87463e-11
-7.54369e-16
-1.37043e-10
6.94027e-11
-1.53849e-15
3.51181e-11
-1.039e-14
2.18801e-10
1.3264e-09
-2.21277e-09
2.07428e-09
-2.06094e-09
2.46385e-09
-1.4672e-09
2.5705e-09
-7.4328e-10
2.41582e-09
-4.66562e-11
2.02494e-09
5.65545e-10
1.42709e-09
1.07908e-09
6.52354e-10
1.49913e-09
-2.70157e-10
1.83739e-09
-1.3134e-09
2.10658e-09
-2.45371e-09
2.31816e-09
-3.67136e-09
2.48196e-09
-4.94942e-09
2.6066e-09
-6.27324e-09
2.69936e-09
-7.63047e-09
2.76579e-09
-9.0107e-09
2.81032e-09
-1.04051e-08
2.83653e-09
-1.1806e-08
2.8473e-09
-1.32072e-08
2.84499e-09
-1.46029e-08
2.83153e-09
-1.59884e-08
2.80851e-09
-1.73596e-08
2.77727e-09
-1.87128e-08
2.73891e-09
-2.0045e-08
2.69436e-09
-2.13533e-08
2.6444e-09
-2.26354e-08
2.5897e-09
-2.3889e-08
2.53083e-09
-2.51125e-08
2.46825e-09
-2.63042e-08
2.40235e-09
-2.74627e-08
2.33345e-09
-2.85867e-08
2.2618e-09
-2.96753e-08
2.18761e-09
-3.07277e-08
2.11116e-09
-3.17438e-08
2.03281e-09
-3.27246e-08
1.95325e-09
-3.36722e-08
1.87391e-09
-3.45889e-08
1.79758e-09
-3.54709e-08
1.72943e-09
-3.62924e-08
1.67776e-09
-3.70109e-08
1.6462e-09
-3.7708e-08
1.56853e-09
-3.85593e-08
1.39427e-09
-3.93115e-08
1.31314e-09
-3.99131e-08
1.28181e-09
-4.04523e-08
1.22808e-09
-4.10056e-08
1.13013e-09
-4.15415e-08
1.0347e-09
-4.20453e-08
9.38716e-10
-4.25291e-08
8.4761e-10
-4.29663e-08
7.74328e-10
-4.32866e-08
7.42362e-10
-4.35882e-08
6.62175e-10
-4.39702e-08
5.23647e-10
-4.4192e-08
5.17773e-10
-4.44112e-08
4.51653e-10
-4.46259e-08
3.6076e-10
-4.4699e-08
3.39431e-10
-4.4823e-08
2.33446e-10
-4.491e-08
1.43028e-10
-4.49438e-08
7.59104e-11
-4.49466e-08
2.06584e-11
-4.49283e-08
-4.42913e-11
-4.49449e-08
-1.27241e-10
-4.4872e-08
-1.75025e-10
-4.45636e-08
-1.74878e-10
-4.44274e-08
-2.90492e-10
-4.45084e-08
-4.03786e-10
-4.42277e-08
-3.57273e-10
-4.37009e-08
-3.87682e-10
-4.36178e-08
-5.69224e-10
-4.34294e-08
-6.26961e-10
-4.31033e-08
-6.24157e-10
-4.27301e-08
-6.37203e-10
-4.2369e-08
-6.8689e-10
-4.19493e-08
-7.21906e-10
-4.14829e-08
-7.72767e-10
-4.09557e-08
-8.53452e-10
-4.0707e-08
-9.60693e-10
-4.02644e-08
-9.24718e-10
-3.96911e-08
-9.24685e-10
-3.92102e-08
-9.94833e-10
-3.86747e-08
-1.00703e-09
-3.81434e-08
-1.04984e-09
-3.76264e-08
-1.08641e-09
-3.70817e-08
-1.09014e-09
-3.65154e-08
-1.09952e-09
-3.59392e-08
-1.11896e-09
-3.53555e-08
-1.14253e-09
-3.47637e-08
-1.16626e-09
-3.41634e-08
-1.18835e-09
-3.35546e-08
-1.20813e-09
-3.29378e-08
-1.22551e-09
-3.23137e-08
-1.24061e-09
-3.16833e-08
-1.25359e-09
-3.10475e-08
-1.26462e-09
-3.04071e-08
-1.27382e-09
-2.97628e-08
-1.28129e-09
-2.91156e-08
-1.28711e-09
-2.8466e-08
-1.29134e-09
-2.78148e-08
-1.29405e-09
-2.71629e-08
-1.29531e-09
-2.65108e-08
-1.29515e-09
-2.58592e-08
-1.29363e-09
-2.52089e-08
-1.2908e-09
-2.45604e-08
-1.2867e-09
-2.39143e-08
-1.28136e-09
-2.32714e-08
-1.27484e-09
-2.2632e-08
-1.26717e-09
-2.19968e-08
-1.25838e-09
-2.13664e-08
-1.24853e-09
-2.07412e-08
-1.23764e-09
-2.01217e-08
-1.22576e-09
-1.95085e-08
-1.21293e-09
-1.89019e-08
-1.19919e-09
-1.83024e-08
-1.18458e-09
-1.77105e-08
-1.16913e-09
-1.71265e-08
-1.15287e-09
-1.65509e-08
-1.13586e-09
-1.5984e-08
-1.11811e-09
-1.54261e-08
-1.09968e-09
-1.48777e-08
-1.08059e-09
-1.43389e-08
-1.06087e-09
-1.38102e-08
-1.04057e-09
-1.32918e-08
-1.01971e-09
-1.2784e-08
-9.98319e-10
-1.2287e-08
-9.76441e-10
-1.18012e-08
-9.54101e-10
-1.13266e-08
-9.3133e-10
-1.08636e-08
-9.08159e-10
-1.04123e-08
-8.84615e-10
-9.97292e-09
-8.60729e-10
-9.54561e-09
-8.36529e-10
-9.13054e-09
-8.12044e-10
-8.72785e-09
-7.87303e-10
-8.33767e-09
-7.62333e-10
-7.9601e-09
-7.37163e-10
-7.59525e-09
-7.11823e-10
-7.24319e-09
-6.86341e-10
-6.90401e-09
-6.60748e-10
-6.57774e-09
-6.35074e-10
-6.26443e-09
-6.09349e-10
-5.9641e-09
-5.83606e-10
-5.67675e-09
-5.57878e-10
-5.40238e-09
-5.32198e-10
-5.14094e-09
-5.06603e-10
-4.89239e-09
-4.8113e-10
-4.65666e-09
-4.55815e-10
-4.43366e-09
-4.30701e-10
-4.22329e-09
-4.05828e-10
-4.02541e-09
-3.8124e-10
-3.83986e-09
-3.56983e-10
-3.66647e-09
-3.33104e-10
-3.50503e-09
-3.09653e-10
-3.35531e-09
-2.86683e-10
-3.21706e-09
-2.64247e-10
-3.08998e-09
-2.42401e-10
-2.97376e-09
-2.21203e-10
-2.86806e-09
-2.00716e-10
-2.77249e-09
-1.81e-10
-2.68665e-09
-1.62122e-10
-2.61009e-09
-1.44148e-10
-2.54233e-09
-1.27146e-10
-2.48285e-09
-1.11187e-10
-2.43111e-09
-9.63431e-11
-2.38652e-09
-8.26873e-11
-2.34845e-09
-7.02942e-11
-2.31625e-09
-5.92388e-11
-2.2892e-09
-4.95971e-11
-2.26658e-09
-4.1445e-11
-2.2476e-09
-3.48583e-11
-2.23146e-09
-2.99121e-11
-2.2173e-09
-2.66804e-11
-2.20425e-09
-2.52352e-11
-2.19138e-09
-2.56462e-11
-2.17773e-09
-2.79795e-11
-2.16235e-09
-3.22969e-11
-2.14421e-09
-3.86541e-11
-2.12229e-09
-4.70996e-11
-2.09556e-09
-5.7672e-11
-2.06296e-09
-7.03978e-11
-2.02343e-09
-8.52869e-11
-1.97595e-09
-1.02328e-10
-1.91948e-09
-1.21483e-10
-1.85308e-09
-1.42674e-10
-1.77582e-09
-1.65774e-10
-1.68693e-09
-1.90588e-10
-1.58574e-09
-2.16823e-10
-1.47182e-09
-2.44052e-10
-1.34502e-09
-2.71661e-10
-1.20559e-09
-2.98761e-10
-1.05432e-09
-3.24073e-10
-8.92772e-10
-3.45746e-10
-7.23499e-10
-3.61096e-10
-5.50425e-10
-3.66232e-10
-3.7924e-10
-3.55555e-10
-2.17833e-10
-3.21153e-10
-7.68919e-11
-2.52485e-10
2.87355e-11
-1.37055e-10
6.93664e-11
3.5102e-11
2.18777e-10
1.04785e-09
-2.18231e-12
-3.27209e-09
1.43687e-09
-4.44419e-13
-2.45237e-09
1.46668e-09
-7.80189e-14
-1.49724e-09
1.27502e-09
-4.20267e-16
-5.51827e-10
9.05708e-10
6.13701e-15
3.22422e-10
3.78618e-10
-4.12234e-16
1.09241e-09
-2.91766e-10
-6.33971e-15
1.74928e-09
-1.09047e-09
-9.46266e-15
2.29768e-09
-2.00154e-09
-1.03345e-14
2.74833e-09
-3.00891e-09
-9.78957e-15
3.11385e-09
-4.09734e-09
-8.39968e-15
3.4065e-09
-5.25281e-09
-6.58519e-15
3.63736e-09
-6.46254e-09
-4.80577e-15
3.81625e-09
-7.71488e-09
-3.55706e-15
3.95162e-09
-8.99955e-09
-3.17366e-15
4.05038e-09
-1.03075e-08
-3.61336e-15
4.11823e-09
-1.1631e-08
-4.39205e-15
4.15988e-09
-1.2963e-08
-4.75938e-15
4.17921e-09
-1.42975e-08
-4.10807e-15
4.17944e-09
-1.56293e-08
-2.47374e-15
4.16326e-09
-1.69538e-08
-8.04865e-16
4.13292e-09
-1.82669e-08
-6.11702e-16
4.09028e-09
-1.9565e-08
-2.887e-15
4.03697e-09
-2.0845e-08
-6.83635e-15
3.97431e-09
-2.2104e-08
-9.53432e-15
3.90348e-09
-2.33397e-08
-7.39603e-15
3.82545e-09
-2.45498e-08
1.03372e-15
3.74107e-09
-2.57326e-08
1.32165e-14
3.65107e-09
-2.68862e-08
2.40954e-14
3.55608e-09
-2.80094e-08
3.05634e-14
3.45667e-09
-2.91009e-08
3.45907e-14
3.35332e-09
-3.01597e-08
4.04643e-14
3.24653e-09
-3.11849e-08
4.81985e-14
3.13682e-09
-3.21761e-08
5.24977e-14
3.02491e-09
-3.31331e-08
5.30415e-14
2.91179e-09
-3.40554e-08
6.95729e-14
2.79891e-09
-3.49424e-08
1.64883e-13
2.6882e-09
-3.57926e-08
5.34207e-13
2.58149e-09
-3.6604e-08
1.52795e-12
2.47919e-09
-3.73748e-08
2.02723e-12
2.3788e-09
-3.81088e-08
3.3863e-13
2.27102e-09
-3.88155e-08
-1.07351e-12
2.14698e-09
-3.94906e-08
-2.33342e-12
2.0209e-09
-4.01191e-08
-1.49001e-12
1.90983e-09
-4.07021e-08
-2.77178e-13
1.80348e-09
-4.12575e-08
3.23211e-13
1.68062e-09
-4.17828e-08
9.73113e-13
1.55909e-09
-4.22782e-08
2.73607e-12
1.43463e-09
-4.27386e-08
6.92979e-12
1.31876e-09
-4.31127e-08
1.52082e-11
1.22083e-09
-4.34372e-08
1.5891e-11
1.11206e-09
-4.37836e-08
5.12519e-12
9.88747e-10
-4.40912e-08
-6.02197e-13
8.5983e-10
-4.43441e-08
-3.69655e-12
7.53561e-10
-4.4529e-08
-2.35704e-12
6.64325e-10
-4.46811e-08
-3.88432e-12
5.42168e-10
-4.48841e-08
-1.26795e-11
4.06644e-10
-4.5043e-08
-8.62112e-12
2.99196e-10
-4.50802e-08
3.53623e-12
2.23752e-10
-4.50539e-08
7.46515e-12
1.44173e-10
-4.50491e-08
1.9071e-13
3.00697e-11
-4.50292e-08
-7.234e-12
-8.99637e-11
-4.50205e-08
-1.76415e-11
-2.02459e-10
-4.49443e-08
-2.0753e-11
-2.86488e-10
-4.48096e-08
-1.5316e-11
-3.68623e-10
-4.46382e-08
-2.59293e-12
-4.46854e-10
-4.44362e-08
5.01702e-12
-5.21662e-10
-4.42651e-08
-3.24922e-12
-6.31988e-10
-4.39961e-08
-3.68699e-12
-6.97464e-10
-4.3735e-08
-4.50264e-12
-7.7427e-10
-4.34906e-08
-6.52208e-12
-8.60206e-10
-4.31198e-08
3.2541e-12
-9.12812e-10
-4.27902e-08
-6.80622e-13
-1.00606e-09
-4.24963e-08
-5.30753e-12
-1.09437e-09
-4.2068e-08
1.93417e-12
-1.12224e-09
-4.15919e-08
2.82186e-12
-1.17565e-09
-4.1219e-08
-2.71638e-12
-1.28529e-09
-4.08169e-08
7.62231e-12
-1.33707e-09
-4.03539e-08
1.09106e-11
-1.37273e-09
-3.98667e-08
4.62437e-12
-1.42349e-09
-3.9356e-08
9.53735e-13
-1.4642e-09
-3.88374e-08
-7.48592e-14
-1.51611e-09
-3.83202e-08
3.0693e-13
-1.57056e-09
-3.77911e-08
-7.52687e-14
-1.60977e-09
-3.72452e-08
-3.06771e-13
-1.64081e-09
-3.66835e-08
-9.69016e-14
-1.66766e-09
-3.61093e-08
-5.96765e-14
-1.69608e-09
-3.55253e-08
-3.0226e-14
-1.72699e-09
-3.49329e-08
-6.18078e-15
-1.75846e-09
-3.43323e-08
3.38697e-15
-1.7886e-09
-3.37238e-08
5.65259e-15
-1.81635e-09
-3.31078e-08
6.81e-15
-1.84128e-09
-3.24849e-08
6.71249e-15
-1.8633e-09
-3.18559e-08
3.97906e-15
-1.88249e-09
-3.12216e-08
-7.22193e-16
-1.89895e-09
-3.05826e-08
-4.82452e-15
-1.91281e-09
-2.99397e-08
-5.97444e-15
-1.92417e-09
-2.92937e-08
-3.81229e-15
-1.93312e-09
-2.86453e-08
-1.13252e-17
-1.93975e-09
-2.79952e-08
3.1055e-15
-1.94415e-09
-2.73441e-08
4.07762e-15
-1.94638e-09
-2.66928e-08
2.92582e-15
-1.94652e-09
-2.60418e-08
7.49852e-16
-1.94463e-09
-2.53919e-08
-1.14777e-15
-1.94077e-09
-2.47436e-08
-1.97276e-15
-1.93502e-09
-2.40976e-08
-1.66368e-15
-1.92742e-09
-2.34544e-08
-6.87354e-16
-1.91804e-09
-2.28146e-08
3.40957e-16
-1.90694e-09