/*--------------------------------*- C++ -*----------------------------------*\
  =========                 |
  \\      /  F ield         | OpenFOAM: The Open Source CFD Toolbox
   \\    /   O peration     | Website:  https://openfoam.org
    \\  /    A nd           | Version:  8
     \\/     M anipulation  |
\*---------------------------------------------------------------------------*/
FoamFile
{
    version     2.0;
    format      ascii;
    class       volScalarField;
    location    "5000";
    object      T;
}
// * * * * * * * * * * * * * * * * * * * * * * * * * * * * * * * * * * * * * //

dimensions      [0 0 0 1 0 0 0];

internalField   nonuniform List<scalar> 
46000
(
309.438
308.24
307.46
306.961
306.603
306.319
306.082
305.879
305.7
305.539
305.392
305.257
305.132
305.017
304.909
304.807
304.712
304.621
304.536
304.454
304.377
304.304
304.234
304.168
304.105
304.045
303.987
303.933
303.881
303.832
303.785
303.742
303.7
303.662
303.627
303.596
303.569
303.547
303.53
303.52
303.512
303.503
303.496
303.498
303.505
303.506
303.498
303.483
303.468
303.474
303.586
303.622
303.617
303.608
303.604
303.586
303.518
303.393
303.393
303.464
303.489
303.467
303.403
303.317
303.296
303.303
303.326
303.312
303.299
303.376
303.28
303.277
303.35
303.247
303.248
303.31
303.282
303.191
303.156
303.141
303.133
303.126
303.116
303.108
303.105
303.107
303.112
303.12
303.13
303.141
303.153
303.167
303.181
303.196
303.211
303.228
303.245
303.262
303.28
303.299
303.318
303.338
303.359
303.38
303.402
303.424
303.446
303.47
303.493
303.518
303.543
303.568
303.594
303.62
303.647
303.674
303.702
303.731
303.76
303.789
303.819
303.849
303.88
303.911
303.943
303.975
304.008
304.041
304.075
304.109
304.144
304.179
304.215
304.251
304.288
304.325
304.362
304.401
304.439
304.478
304.518
304.558
304.599
304.64
304.681
304.724
304.766
304.81
304.854
304.898
304.943
304.989
305.035
305.081
305.129
305.177
305.225
305.274
305.324
305.374
305.426
305.477
305.53
305.583
305.638
305.692
305.748
305.805
305.863
305.921
305.981
306.042
306.104
306.167
306.232
306.299
306.367
306.437
306.509
306.584
306.661
306.741
306.825
306.912
307.004
307.101
307.204
307.314
307.432
307.56
307.701
307.858
308.034
308.237
308.476
308.769
309.144
309.653
310.364
311.122
309.439
308.241
307.46
306.961
306.603
306.319
306.082
305.879
305.7
305.539
305.392
305.257
305.132
305.017
304.909
304.807
304.712
304.621
304.536
304.454
304.377
304.304
304.234
304.168
304.105
304.045
303.987
303.933
303.881
303.832
303.785
303.742
303.7
303.662
303.628
303.597
303.571
303.552
303.545
303.552
303.562
303.545
303.515
303.505
303.507
303.506
303.495
303.477
303.454
303.432
303.422
303.417
303.406
303.404
303.419
303.406
303.416
303.418
303.416
303.414
303.405
303.389
303.369
303.361
303.409
303.42
303.381
303.332
303.44
303.488
303.467
303.46
303.469
303.449
303.442
303.435
303.405
303.32
303.188
303.165
303.142
303.13
303.121
303.111
303.106
303.107
303.112
303.12
303.13
303.141
303.153
303.167
303.181
303.196
303.211
303.228
303.245
303.262
303.28
303.299
303.318
303.338
303.359
303.38
303.402
303.424
303.446
303.47
303.493
303.518
303.543
303.568
303.594
303.62
303.647
303.674
303.702
303.731
303.76
303.789
303.819
303.849
303.88
303.911
303.943
303.975
304.008
304.041
304.075
304.109
304.144
304.179
304.215
304.251
304.288
304.325
304.362
304.401
304.439
304.478
304.518
304.558
304.599
304.64
304.682
304.724
304.766
304.81
304.854
304.898
304.943
304.989
305.035
305.081
305.129
305.177
305.225
305.274
305.324
305.374
305.426
305.477
305.53
305.583
305.638
305.692
305.748
305.805
305.863
305.921
305.981
306.042
306.104
306.167
306.232
306.299
306.367
306.437
306.509
306.584
306.661
306.741
306.825
306.912
307.004
307.101
307.204
307.314
307.432
307.56
307.701
307.858
308.034
308.237
308.476
308.769
309.144
309.653
310.364
311.122
306.083
305.726
305.418
305.171
304.968
304.797
304.649
304.518
304.399
304.29
304.19
304.096
304.008
303.926
303.848
303.774
303.704
303.638
303.574
303.513
303.455
303.4
303.347
303.296
303.248
303.201
303.157
303.114
303.074
303.035
302.998
302.964
302.931
302.9
302.871
302.845
302.821
302.801
302.782
302.767
302.753
302.739
302.727
302.717
302.708
302.697
302.684
302.667
302.648
302.624
302.585
302.566
302.552
302.541
302.533
302.525
302.519
302.529
302.517
302.497
302.486
302.475
302.466
302.465
302.456
302.446
302.436
302.428
302.42
302.4
302.413
302.405
302.38
302.389
302.381
302.367
302.36
302.363
302.36
302.355
302.351
302.347
302.342
302.339
302.337
302.338
302.34
302.344
302.348
302.354
302.361
302.368
302.376
302.384
302.393
302.402
302.412
302.422
302.433
302.444
302.455
302.467
302.48
302.493
302.506
302.52
302.534
302.549
302.564
302.58
302.596
302.613
302.63
302.647
302.665
302.683
302.702
302.721
302.741
302.761
302.781
302.802
302.823
302.845
302.867
302.89
302.913
302.937
302.961
302.985
303.01
303.035
303.061
303.088
303.114
303.141
303.169
303.197
303.226
303.255
303.284
303.314
303.344
303.375
303.407
303.438
303.471
303.503
303.537
303.57
303.604
303.639
303.674
303.709
303.745
303.782
303.819
303.856
303.894
303.932
303.971
304.011
304.05
304.091
304.132
304.173
304.215
304.258
304.301
304.345
304.39
304.435
304.481
304.528
304.576
304.625
304.675
304.727
304.779
304.834
304.89
304.949
305.009
305.073
305.139
305.21
305.284
305.364
305.45
305.544
305.648
305.763
305.893
306.043
306.22
306.435
306.704
307.053
307.523
308.115
306.084
305.726
305.418
305.171
304.968
304.797
304.649
304.518
304.399
304.29
304.19
304.096
304.008
303.926
303.848
303.774
303.704
303.638
303.574
303.513
303.455
303.4
303.347
303.296
303.248
303.201
303.157
303.114
303.074
303.035
302.998
302.964
302.931
302.9
302.871
302.845
302.822
302.801
302.785
302.772
302.758
302.742
302.728
302.717
302.707
302.696
302.683
302.666
302.647
302.628
302.612
302.597
302.582
302.569
302.558
302.552
302.547
302.539
302.53
302.519
302.507
302.495
302.48
302.463
302.444
302.435
302.429
302.428
302.402
302.391
302.383
302.377
302.371
302.366
302.359
302.351
302.344
302.342
302.359
302.356
302.351
302.347
302.343
302.339
302.337
302.337
302.34
302.344
302.348
302.354
302.361
302.368
302.376
302.384
302.393
302.402
302.412
302.422
302.433
302.444
302.455
302.467
302.48
302.493
302.506
302.52
302.534
302.549
302.564
302.58
302.596
302.613
302.63
302.647
302.665
302.683
302.702
302.721
302.741
302.761
302.781
302.802
302.823
302.845
302.867
302.89
302.913
302.937
302.961
302.985
303.01
303.035
303.061
303.088
303.114
303.141
303.169
303.197
303.226
303.255
303.284
303.314
303.344
303.375
303.407
303.438
303.471
303.503
303.537
303.57
303.604
303.639
303.674
303.709
303.745
303.782
303.819
303.856
303.894
303.932
303.971
304.011
304.05
304.091
304.132
304.173
304.215
304.258
304.301
304.345
304.39
304.435
304.481
304.528
304.576
304.625
304.675
304.727
304.779
304.834
304.89
304.949
305.009
305.073
305.139
305.21
305.284
305.364
305.451
305.544
305.648
305.763
305.893
306.043
306.22
306.435
306.704
307.053
307.523
308.115
304.687
304.618
304.488
304.352
304.222
304.102
303.992
303.891
303.797
303.709
303.626
303.548
303.475
303.405
303.338
303.275
303.214
303.156
303.101
303.048
302.997
302.948
302.901
302.856
302.813
302.772
302.732
302.694
302.657
302.622
302.589
302.557
302.527
302.499
302.472
302.447
302.424
302.402
302.381
302.362
302.343
302.325
302.308
302.29
302.273
302.256
302.239
302.222
302.205
302.186
302.163
302.146
302.131
302.119
302.107
302.096
302.086
302.081
302.069
302.052
302.039
302.029
302.023
302.02
302.012
302.002
301.991
301.985
301.98
301.97
301.97
301.964
301.954
301.953
301.948
301.938
301.934
301.937
301.937
301.936
301.934
301.932
301.931
301.931
301.931
301.932
301.934
301.937
301.941
301.945
301.949
301.954
301.96
301.966
301.972
301.979
301.987
301.994
302.003
302.011
302.02
302.03
302.04
302.05
302.061
302.072
302.084
302.096
302.108
302.121
302.134
302.148
302.162
302.177
302.192
302.207
302.223
302.239
302.256
302.273
302.291
302.309
302.327
302.346
302.366
302.385
302.406
302.426
302.447
302.469
302.491
302.513
302.536
302.56
302.583
302.608
302.632
302.657
302.683
302.709
302.735
302.762
302.79
302.818
302.846
302.875
302.904
302.934
302.964
302.994
303.025
303.056
303.088
303.121
303.153
303.186
303.22
303.254
303.288
303.323
303.358
303.394
303.43
303.467
303.504
303.541
303.579
303.618
303.657
303.696
303.736
303.777
303.818
303.86
303.903
303.947
303.991
304.037
304.084
304.132
304.181
304.233
304.286
304.341
304.399
304.46
304.524
304.593
304.666
304.745
304.832
304.927
305.033
305.153
305.29
305.449
305.634
305.851
306.103
306.368
304.687
304.618
304.488
304.352
304.222
304.102
303.992
303.891
303.797
303.709
303.626
303.548
303.475
303.405
303.338
303.275
303.214
303.156
303.101
303.048
302.997
302.948
302.901
302.856
302.813
302.772
302.732
302.694
302.657
302.622
302.589
302.557
302.527
302.499
302.472
302.447
302.423
302.401
302.38
302.359
302.339
302.32
302.305
302.289
302.272
302.255
302.239
302.222
302.205
302.189
302.173
302.157
302.143
302.129
302.115
302.105
302.093
302.082
302.071
302.059
302.048
302.037
302.027
302.016
302.003
301.994
301.988
301.985
301.974
301.965
301.96
301.954
301.95
301.945
301.941
301.935
301.932
301.931
301.935
301.933
301.933
301.931
301.93
301.93
301.931
301.932
301.934
301.937
301.941
301.945
301.949
301.954
301.96
301.966
301.972
301.979
301.987
301.994
302.003
302.011
302.02
302.03
302.04
302.05
302.061
302.072
302.084
302.096
302.108
302.121
302.134
302.148
302.162
302.177
302.192
302.207
302.223
302.239
302.256
302.273
302.291
302.309
302.327
302.346
302.366
302.385
302.406
302.426
302.447
302.469
302.491
302.513
302.536
302.56
302.583
302.608
302.632
302.657
302.683
302.709
302.735
302.762
302.79
302.818
302.846
302.875
302.904
302.934
302.964
302.994
303.025
303.056
303.088
303.121
303.153
303.186
303.22
303.254
303.288
303.323
303.358
303.394
303.43
303.467
303.504
303.541
303.579
303.618
303.657
303.696
303.736
303.777
303.818
303.86
303.903
303.947
303.991
304.037
304.084
304.132
304.181
304.233
304.286
304.341
304.399
304.46
304.524
304.593
304.666
304.745
304.832
304.927
305.033
305.153
305.29
305.449
305.634
305.851
306.103
306.368
303.96
303.957
303.9
303.821
303.735
303.648
303.564
303.482
303.405
303.331
303.26
303.193
303.128
303.066
303.007
302.95
302.896
302.843
302.793
302.744
302.697
302.652
302.609
302.568
302.528
302.489
302.452
302.416
302.382
302.349
302.318
302.288
302.259
302.232
302.206
302.181
302.158
302.135
302.114
302.093
302.072
302.052
302.032
302.013
301.993
301.975
301.957
301.94
301.924
301.908
301.891
301.876
301.862
301.849
301.836
301.824
301.812
301.802
301.791
301.778
301.767
301.758
301.749
301.742
301.734
301.725
301.717
301.71
301.704
301.697
301.692
301.687
301.681
301.678
301.674
301.669
301.666
301.665
301.664
301.663
301.662
301.661
301.661
301.662
301.663
301.665
301.667
301.669
301.672
301.675
301.678
301.683
301.687
301.692
301.697
301.703
301.709
301.716
301.723
301.73
301.738
301.746
301.755
301.764
301.774
301.783
301.794
301.804
301.815
301.827
301.839
301.851
301.864
301.877
301.891
301.905
301.919
301.934
301.95
301.965
301.982
301.998
302.015
302.033
302.051
302.069
302.088
302.107
302.127
302.147
302.167
302.188
302.21
302.232
302.254
302.277
302.3
302.324
302.348
302.372
302.397
302.423
302.449
302.475
302.502
302.529
302.557
302.585
302.613
302.642
302.672
302.701
302.731
302.762
302.793
302.824
302.856
302.889
302.921
302.954
302.988
303.021
303.056
303.09
303.125
303.161
303.196
303.233
303.269
303.306
303.344
303.382
303.421
303.46
303.5
303.541
303.582
303.624
303.668
303.712
303.758
303.805
303.853
303.903
303.956
304.011
304.068
304.129
304.194
304.263
304.338
304.419
304.507
304.604
304.71
304.828
304.955
305.089
305.223
305.337
303.96
303.957
303.9
303.821
303.735
303.648
303.564
303.482
303.405
303.331
303.26
303.193
303.128
303.066
303.007
302.95
302.896
302.843
302.793
302.744
302.697
302.652
302.609
302.568
302.528
302.489
302.452
302.416
302.382
302.349
302.318
302.288
302.259
302.232
302.206
302.181
302.158
302.135
302.113
302.091
302.069
302.049
302.031
302.012
301.993
301.975
301.957
301.94
301.924
301.909
301.893
301.879
301.865
301.851
301.838
301.826
301.813
301.801
301.79
301.779
301.768
301.758
301.749
301.74
301.731
301.723
301.716
301.71
301.702
301.695
301.69
301.685
301.68
301.676
301.672
301.669
301.666
301.664
301.664
301.662
301.661
301.661
301.661
301.661
301.663
301.665
301.667
301.669
301.672
301.675
301.678
301.683
301.687
301.692
301.697
301.703
301.709
301.716
301.723
301.73
301.738
301.746
301.755
301.764
301.774
301.783
301.794
301.804
301.815
301.827
301.839
301.851
301.864
301.877
301.891
301.905
301.919
301.934
301.95
301.965
301.982
301.998
302.015
302.033
302.051
302.069
302.088
302.107
302.127
302.147
302.167
302.188
302.21
302.232
302.254
302.277
302.3
302.324
302.348
302.372
302.397
302.423
302.449
302.475
302.502
302.529
302.557
302.585
302.613
302.642
302.672
302.701
302.731
302.762
302.793
302.824
302.856
302.889
302.921
302.954
302.988
303.021
303.056
303.09
303.125
303.161
303.196
303.233
303.269
303.306
303.344
303.382
303.421
303.46
303.5
303.541
303.582
303.625
303.668
303.712
303.758
303.805
303.853
303.903
303.956
304.011
304.068
304.129
304.194
304.263
304.338
304.419
304.507
304.604
304.71
304.828
304.955
305.089
305.223
305.337
303.494
303.503
303.476
303.427
303.368
303.304
303.238
303.173
303.108
303.045
302.984
302.924
302.867
302.811
302.758
302.706
302.656
302.608
302.561
302.516
302.472
302.43
302.39
302.351
302.313
302.277
302.241
302.208
302.175
302.144
302.114
302.085
302.057
302.031
302.005
301.981
301.957
301.935
301.913
301.891
301.87
301.85
301.83
301.81
301.791
301.772
301.755
301.738
301.722
301.706
301.691
301.676
301.663
301.649
301.636
301.624
301.612
301.6
301.589
301.579
301.568
301.558
301.549
301.541
301.533
301.525
301.517
301.51
301.503
301.497
301.491
301.486
301.481
301.478
301.474
301.47
301.468
301.466
301.464
301.462
301.461
301.461
301.461
301.462
301.463
301.464
301.466
301.468
301.47
301.473
301.476
301.48
301.484
301.488
301.492
301.497
301.503
301.509
301.515
301.522
301.529
301.536
301.544
301.552
301.561
301.57
301.579
301.589
301.6
301.61
301.621
301.633
301.645
301.657
301.67
301.683
301.697
301.711
301.725
301.74
301.755
301.771
301.787
301.804
301.821
301.838
301.856
301.874
301.893
301.912
301.932
301.952
301.972
301.993
302.015
302.037
302.059
302.082
302.105
302.128
302.152
302.177
302.202
302.227
302.253
302.279
302.306
302.333
302.36
302.388
302.416
302.445
302.474
302.504
302.534
302.564
302.594
302.625
302.657
302.688
302.721
302.753
302.786
302.819
302.853
302.887
302.921
302.955
302.991
303.026
303.062
303.098
303.135
303.172
303.21
303.248
303.287
303.327
303.368
303.409
303.452
303.495
303.54
303.587
303.635
303.685
303.737
303.791
303.849
303.91
303.974
304.043
304.116
304.194
304.277
304.363
304.451
304.535
304.609
304.66
303.494
303.503
303.476
303.427
303.368
303.304
303.238
303.173
303.108
303.045
302.984
302.924
302.867
302.811
302.758
302.706
302.656
302.608
302.561
302.516
302.472
302.43
302.39
302.351
302.313
302.277
302.241
302.208
302.175
302.144
302.114
302.085
302.057
302.031
302.005
301.981
301.957
301.935
301.912
301.89
301.869
301.848
301.829
301.81
301.791
301.772
301.755
301.738
301.722
301.706
301.691
301.677
301.663
301.65
301.637
301.624
301.612
301.6
301.589
301.578
301.568
301.558
301.549
301.54
301.532
301.524
301.517
301.51
301.503
301.496
301.491
301.486
301.481
301.477
301.473
301.47
301.468
301.465
301.464
301.462
301.461
301.461
301.461
301.462
301.463
301.464
301.466
301.468
301.47
301.473
301.476
301.48
301.484
301.488
301.492
301.497
301.503
301.509
301.515
301.522
301.529
301.536
301.544
301.552
301.561
301.57
301.579
301.589
301.6
301.61
301.621
301.633
301.645
301.657
301.67
301.683
301.697
301.711
301.725
301.74
301.755
301.771
301.787
301.804
301.821
301.838
301.856
301.874
301.893
301.912
301.932
301.952
301.972
301.993
302.015
302.037
302.059
302.082
302.105
302.128
302.152
302.177
302.202
302.227
302.253
302.279
302.306
302.333
302.36
302.388
302.416
302.445
302.474
302.504
302.534
302.564
302.594
302.625
302.657
302.688
302.721
302.753
302.786
302.819
302.853
302.887
302.921
302.955
302.991
303.026
303.062
303.098
303.135
303.172
303.21
303.248
303.287
303.327
303.368
303.409
303.452
303.495
303.54
303.587
303.635
303.685
303.737
303.791
303.849
303.91
303.974
304.043
304.116
304.194
304.277
304.363
304.451
304.535
304.609
304.66
303.155
303.164
303.149
303.117
303.074
303.026
302.973
302.919
302.865
302.811
302.757
302.705
302.653
302.603
302.554
302.507
302.46
302.416
302.372
302.33
302.289
302.25
302.212
302.175
302.139
302.104
302.071
302.038
302.007
301.977
301.948
301.92
301.893
301.867
301.842
301.818
301.795
301.772
301.75
301.729
301.708
301.688
301.668
301.649
301.63
301.612
301.594
301.578
301.562
301.546
301.531
301.517
301.503
301.49
301.477
301.464
301.452
301.441
301.43
301.419
301.409
301.399
301.39
301.382
301.373
301.365
301.358
301.351
301.344
301.338
301.332
301.327
301.323
301.318
301.315
301.311
301.308
301.306
301.304
301.303
301.301
301.301
301.301
301.301
301.302
301.303
301.305
301.306
301.308
301.311
301.313
301.316
301.32
301.323
301.328
301.332
301.337
301.342
301.348
301.354
301.361
301.368
301.375
301.383
301.391
301.399
301.408
301.417
301.427
301.437
301.447
301.458
301.47
301.481
301.494
301.506
301.519
301.532
301.546
301.56
301.575
301.59
301.606
301.622
301.638
301.655
301.672
301.69
301.708
301.726
301.745
301.765
301.784
301.805
301.825
301.847
301.868
301.89
301.913
301.935
301.959
301.982
302.007
302.031
302.056
302.082
302.108
302.134
302.16
302.187
302.215
302.243
302.271
302.3
302.328
302.358
302.387
302.418
302.448
302.479
302.51
302.541
302.573
302.605
302.637
302.67
302.703
302.736
302.77
302.804
302.839
302.873
302.908
302.944
302.98
303.017
303.054
303.091
303.13
303.169
303.209
303.249
303.291
303.334
303.378
303.424
303.471
303.52
303.571
303.624
303.68
303.738
303.799
303.862
303.926
303.99
304.051
304.106
304.148
304.171
303.155
303.164
303.149
303.117
303.074
303.026
302.973
302.919
302.865
302.811
302.757
302.705
302.653
302.603
302.554
302.507
302.46
302.416
302.372
302.33
302.289
302.25
302.212
302.175
302.139
302.104
302.071
302.038
302.007
301.977
301.948
301.92
301.893
301.867
301.842
301.818
301.795
301.772
301.75
301.729
301.708
301.687
301.668
301.648
301.63
301.612
301.594
301.578
301.562
301.546
301.531
301.517
301.503
301.49
301.477
301.465
301.452
301.441
301.43
301.419
301.409
301.399
301.39
301.381
301.373
301.365
301.358
301.351
301.344
301.338
301.332
301.327
301.323
301.318
301.315
301.311
301.308
301.306
301.304
301.303
301.301
301.301
301.301
301.301
301.302
301.303
301.305
301.306
301.308
301.311
301.313
301.316
301.32
301.323
301.328
301.332
301.337
301.342
301.348
301.354
301.361
301.368
301.375
301.383
301.391
301.399
301.408
301.417
301.427
301.437
301.447
301.458
301.47
301.481
301.494
301.506
301.519
301.532
301.546
301.56
301.575
301.59
301.606
301.622
301.638
301.655
301.672
301.69
301.708
301.726
301.745
301.765
301.784
301.805
301.825
301.847
301.868
301.89
301.913
301.935
301.959
301.982
302.007
302.031
302.056
302.082
302.108
302.134
302.16
302.187
302.215
302.243
302.271
302.3
302.328
302.358
302.387
302.418
302.448
302.479
302.51
302.541
302.573
302.605
302.637
302.67
302.703
302.736
302.77
302.804
302.839
302.873
302.908
302.944
302.98
303.017
303.054
303.091
303.13
303.169
303.209
303.249
303.291
303.334
303.378
303.424
303.471
303.52
303.571
303.625
303.68
303.738
303.799
303.862
303.926
303.99
304.051
304.106
304.148
304.171
302.887
302.894
302.884
302.861
302.829
302.791
302.749
302.704
302.657
302.61
302.563
302.516
302.47
302.424
302.38
302.336
302.293
302.252
302.211
302.172
302.133
302.096
302.059
302.024
301.99
301.957
301.925
301.894
301.864
301.835
301.807
301.78
301.753
301.728
301.704
301.68
301.657
301.635
301.613
301.592
301.571
301.551
301.532
301.513
301.495
301.477
301.46
301.443
301.427
301.412
301.397
301.383
301.369
301.356
301.343
301.331
301.319
301.307
301.296
301.286
301.276
301.266
301.257
301.248
301.24
301.232
301.225
301.218
301.211
301.205
301.199
301.194
301.189
301.185
301.181
301.178
301.175
301.172
301.17
301.168
301.167
301.166
301.166
301.166
301.166
301.167
301.168
301.17
301.171
301.173
301.176
301.178
301.181
301.185
301.188
301.193
301.197
301.202
301.207
301.213
301.219
301.226
301.232
301.24
301.247
301.255
301.264
301.273
301.282
301.291
301.301
301.312
301.323
301.334
301.346
301.358
301.37
301.383
301.396
301.41
301.424
301.439
301.454
301.469
301.485
301.501
301.518
301.535
301.553
301.571
301.589
301.608
301.627
301.647
301.667
301.688
301.709
301.73
301.752
301.774
301.797
301.82
301.844
301.868
301.892
301.917
301.942
301.967
301.993
302.02
302.047
302.074
302.101
302.129
302.157
302.186
302.215
302.244
302.273
302.303
302.333
302.364
302.395
302.426
302.457
302.489
302.521
302.553
302.586
302.618
302.651
302.685
302.719
302.753
302.787
302.822
302.857
302.893
302.929
302.966
303.004
303.042
303.081
303.12
303.161
303.203
303.246
303.29
303.335
303.382
303.43
303.479
303.529
303.58
303.63
303.678
303.721
303.757
303.782
303.793
302.887
302.894
302.884
302.861
302.829
302.791
302.749
302.704
302.657
302.61
302.563
302.516
302.47
302.424
302.38
302.336
302.293
302.252
302.211
302.172
302.133
302.096
302.059
302.024
301.99
301.957
301.925
301.894
301.864
301.835
301.807
301.78
301.753
301.728
301.704
301.68
301.657
301.635
301.613
301.592
301.571
301.551
301.532
301.513
301.495
301.477
301.46
301.443
301.427
301.412
301.397
301.383
301.369
301.356
301.343
301.331
301.319
301.307
301.296
301.286
301.276
301.266
301.257
301.248
301.24
301.232
301.225
301.218
301.211
301.205
301.199
301.194
301.189
301.185
301.181
301.178
301.175
301.172
301.17
301.168
301.167
301.166
301.166
301.166
301.166
301.167
301.168
301.17
301.171
301.173
301.176
301.178
301.181
301.185
301.188
301.193
301.197
301.202
301.207
301.213
301.219
301.226
301.232
301.24
301.247
301.255
301.264
301.273
301.282
301.291
301.301
301.312
301.323
301.334
301.346
301.358
301.37
301.383
301.396
301.41
301.424
301.439
301.454
301.469
301.485
301.501
301.518
301.535
301.553
301.571
301.589
301.608
301.627
301.647
301.667
301.688
301.709
301.73
301.752
301.774
301.797
301.82
301.844
301.868
301.892
301.917
301.942
301.967
301.993
302.02
302.047
302.074
302.101
302.129
302.157
302.186
302.215
302.244
302.273
302.303
302.333
302.364
302.395
302.426
302.457
302.489
302.521
302.553
302.586
302.618
302.651
302.685
302.719
302.753
302.787
302.822
302.857
302.893
302.929
302.966
303.004
303.042
303.081
303.12
303.161
303.203
303.246
303.29
303.335
303.382
303.43
303.479
303.529
303.58
303.63
303.678
303.721
303.757
303.782
303.793
302.666
302.67
302.662
302.644
302.619
302.588
302.553
302.515
302.475
302.434
302.392
302.35
302.308
302.267
302.226
302.185
302.146
302.107
302.069
302.032
301.995
301.96
301.925
301.892
301.859
301.828
301.797
301.767
301.738
301.71
301.683
301.656
301.631
301.606
301.582
301.559
301.536
301.514
301.493
301.472
301.452
301.432
301.413
301.395
301.377
301.359
301.342
301.326
301.31
301.295
301.281
301.266
301.253
301.239
301.227
301.214
301.202
301.191
301.18
301.17
301.16
301.15
301.141
301.132
301.124
301.116
301.109
301.102
301.095
301.089
301.083
301.078
301.073
301.069
301.065
301.061
301.058
301.055
301.053
301.051
301.049
301.048
301.048
301.048
301.048
301.048
301.049
301.05
301.052
301.053
301.055
301.058
301.06
301.064
301.067
301.071
301.075
301.08
301.085
301.09
301.096
301.102
301.108
301.115
301.122
301.13
301.138
301.147
301.155
301.165
301.174
301.184
301.195
301.206
301.217
301.229
301.241
301.253
301.266
301.279
301.293
301.307
301.322
301.337
301.352
301.368
301.384
301.401
301.418
301.435
301.453
301.472
301.491
301.51
301.53
301.55
301.57
301.591
301.613
301.634
301.656
301.679
301.702
301.726
301.749
301.774
301.798
301.823
301.849
301.874
301.901
301.927
301.954
301.981
302.009
302.036
302.065
302.093
302.122
302.151
302.18
302.21
302.24
302.27
302.301
302.331
302.362
302.394
302.425
302.457
302.489
302.521
302.553
302.586
302.619
302.653
302.686
302.72
302.755
302.789
302.825
302.86
302.897
302.933
302.971
303.009
303.048
303.088
303.128
303.169
303.21
303.252
303.294
303.335
303.374
303.41
303.441
303.466
303.481
303.485
302.666
302.67
302.662
302.644
302.619
302.588
302.553
302.515
302.475
302.434
302.392
302.35
302.308
302.267
302.226
302.185
302.146
302.107
302.069
302.032
301.995
301.96
301.925
301.892
301.859
301.828
301.797
301.767
301.738
301.71
301.683
301.656
301.631
301.606
301.582
301.559
301.536
301.514
301.493
301.472
301.452
301.432
301.413
301.395
301.377
301.359
301.342
301.326
301.31
301.295
301.281
301.266
301.253
301.239
301.227
301.214
301.202
301.191
301.18
301.17
301.16
301.15
301.141
301.132
301.124
301.116
301.109
301.102
301.095
301.089
301.083
301.078
301.073
301.069
301.065
301.061
301.058
301.055
301.053
301.051
301.049
301.048
301.048
301.048
301.048
301.048
301.049
301.05
301.052
301.053
301.055
301.058
301.06
301.064
301.067
301.071
301.075
301.08
301.085
301.09
301.096
301.102
301.108
301.115
301.122
301.13
301.138
301.147
301.155
301.165
301.174
301.184
301.195
301.206
301.217
301.229
301.241
301.253
301.266
301.279
301.293
301.307
301.322
301.337
301.352
301.368
301.384
301.401
301.418
301.435
301.453
301.472
301.491
301.51
301.53
301.55
301.57
301.591
301.613
301.634
301.656
301.679
301.702
301.726
301.749
301.774
301.798
301.823
301.849
301.874
301.901
301.927
301.954
301.981
302.009
302.036
302.065
302.093
302.122
302.151
302.18
302.21
302.24
302.27
302.301
302.331
302.362
302.394
302.425
302.457
302.489
302.521
302.553
302.586
302.619
302.653
302.686
302.72
302.755
302.789
302.825
302.86
302.897
302.933
302.971
303.009
303.048
303.088
303.128
303.169
303.21
303.252
303.294
303.335
303.374
303.41
303.441
303.466
303.481
303.485
302.476
302.477
302.47
302.456
302.435
302.409
302.379
302.347
302.312
302.276
302.238
302.201
302.163
302.125
302.087
302.049
302.013
301.976
301.94
301.905
301.871
301.837
301.805
301.773
301.741
301.711
301.681
301.652
301.625
301.597
301.571
301.545
301.52
301.496
301.473
301.45
301.428
301.406
301.385
301.365
301.345
301.326
301.307
301.289
301.271
301.254
301.237
301.221
301.206
301.191
301.176
301.162
301.149
301.135
301.123
301.111
301.099
301.087
301.077
301.066
301.056
301.047
301.037
301.029
301.02
301.013
301.005
300.998
300.992
300.985
300.98
300.974
300.969
300.965
300.961
300.957
300.954
300.951
300.948
300.946
300.945
300.943
300.942
300.942
300.942
300.942
300.943
300.943
300.945
300.946
300.948
300.95
300.953
300.955
300.959
300.962
300.966
300.97
300.975
300.98
300.986
300.991
300.998
301.004
301.011
301.018
301.026
301.034
301.043
301.052
301.061
301.071
301.081
301.091
301.102
301.113
301.125
301.137
301.15
301.163
301.176
301.19
301.204
301.219
301.234
301.249
301.265
301.281
301.298
301.315
301.333
301.351
301.369
301.388
301.407
301.427
301.447
301.467
301.488
301.51
301.531
301.554
301.576
301.599
301.622
301.646
301.67
301.695
301.72
301.745
301.77
301.796
301.823
301.849
301.876
301.903
301.931
301.959
301.987
302.015
302.044
302.073
302.102
302.131
302.161
302.191
302.221
302.251
302.282
302.312
302.343
302.374
302.406
302.437
302.469
302.501
302.533
302.565
302.598
302.631
302.664
302.697
302.731
302.765
302.8
302.835
302.87
302.906
302.942
302.977
303.013
303.049
303.084
303.117
303.148
303.176
303.199
303.216
303.225
303.225
302.476
302.477
302.47
302.456
302.435
302.409
302.379
302.347
302.312
302.276
302.238
302.201
302.163
302.125
302.087
302.049
302.013
301.976
301.94
301.905
301.871
301.837
301.805
301.773
301.741
301.711
301.681
301.652
301.625
301.597
301.571
301.545
301.52
301.496
301.473
301.45
301.428
301.406
301.385
301.365
301.345
301.326
301.307
301.289
301.271
301.254
301.237
301.221
301.206
301.191
301.176
301.162
301.149
301.135
301.123
301.111
301.099
301.087
301.077
301.066
301.056
301.047
301.037
301.029
301.02
301.013
301.005
300.998
300.992
300.985
300.98
300.974
300.969
300.965
300.961
300.957
300.954
300.951
300.948
300.946
300.945
300.943
300.942
300.942
300.942
300.942
300.943
300.943
300.945
300.946
300.948
300.95
300.953
300.955
300.959
300.962
300.966
300.97
300.975
300.98
300.986
300.991
300.998
301.004
301.011
301.018
301.026
301.034
301.043
301.052
301.061
301.071
301.081
301.091
301.102
301.113
301.125
301.137
301.15
301.163
301.176
301.19
301.204
301.219
301.234
301.249
301.265
301.281
301.298
301.315
301.333
301.351
301.369
301.388
301.407
301.427
301.447
301.467
301.488
301.51
301.531
301.554
301.576
301.599
301.622
301.646
301.67
301.695
301.72
301.745
301.77
301.796
301.823
301.849
301.876
301.903
301.931
301.959
301.987
302.015
302.044
302.073
302.102
302.131
302.161
302.191
302.221
302.251
302.282
302.312
302.343
302.374
302.406
302.437
302.469
302.501
302.533
302.565
302.598
302.631
302.664
302.697
302.731
302.765
302.8
302.835
302.87
302.906
302.942
302.977
303.013
303.049
303.084
303.117
303.148
303.176
303.199
303.216
303.225
303.225
302.309
302.309
302.302
302.289
302.271
302.249
302.223
302.195
302.164
302.132
302.098
302.064
302.03
301.995
301.96
301.925
301.89
301.856
301.823
301.789
301.757
301.725
301.694
301.663
301.633
301.604
301.575
301.548
301.521
301.494
301.469
301.444
301.419
301.396
301.373
301.351
301.329
301.308
301.287
301.267
301.248
301.229
301.21
301.192
301.175
301.158
301.142
301.126
301.111
301.096
301.081
301.067
301.054
301.041
301.028
301.016
301.004
300.993
300.982
300.972
300.962
300.953
300.943
300.935
300.926
300.919
300.911
300.904
300.898
300.891
300.885
300.88
300.875
300.87
300.866
300.862
300.859
300.856
300.853
300.851
300.849
300.848
300.847
300.846
300.845
300.845
300.846
300.846
300.847
300.848
300.85
300.852
300.854
300.857
300.86
300.863
300.867
300.871
300.875
300.88
300.885
300.891
300.897
300.903
300.91
300.917
300.924
300.932
300.94
300.949
300.958
300.967
300.977
300.987