/*--------------------------------*- C++ -*----------------------------------*\
  =========                 |
  \\      /  F ield         | OpenFOAM: The Open Source CFD Toolbox
   \\    /   O peration     | Website:  https://openfoam.org
    \\  /    A nd           | Version:  8
     \\/     M anipulation  |
\*---------------------------------------------------------------------------*/
FoamFile
{
    version     2.0;
    format      ascii;
    class       volVectorField;
    location    "5000";
    object      U;
}
// * * * * * * * * * * * * * * * * * * * * * * * * * * * * * * * * * * * * * //

dimensions      [0 1 -1 0 0 0 0];

internalField   nonuniform List<vector> 
46000
(
(0.00264836 4.59719e-06 -0.0026971)
(0.0123495 3.5871e-05 -0.00705992)
(0.0219295 2.77256e-05 -0.00643725)
(0.0286259 1.37288e-05 -0.00391099)
(0.0317336 5.61554e-06 -0.00132921)
(0.0316771 2.08614e-06 0.000876604)
(0.0289865 7.22449e-07 0.00263824)
(0.0242013 1.94332e-07 0.0040006)
(0.0177695 -3.19943e-08 0.00503949)
(0.0100574 -1.24391e-07 0.00582781)
(0.00135192 -1.33491e-07 0.0064161)
(-0.00811912 -8.97607e-08 0.00683557)
(-0.0181389 -2.88074e-08 0.00712437)
(-0.0285795 1.49868e-08 0.00731898)
(-0.039315 2.02175e-08 0.00743948)
(-0.05025 -1.52615e-08 0.00750069)
(-0.061305 -7.33739e-08 0.00751406)
(-0.0724142 -1.22865e-07 0.00748852)
(-0.0835228 -1.34954e-07 0.00743111)
(-0.0945847 -1.03e-07 0.00734746)
(-0.105561 -5.46588e-08 0.00724209)
(-0.116418 -4.34877e-08 0.00711868)
(-0.127127 -1.15561e-07 0.00698028)
(-0.137662 -2.65111e-07 0.00682941)
(-0.148003 -4.10412e-07 0.00666808)
(-0.15813 -4.18815e-07 0.00649794)
(-0.168028 -1.77317e-07 0.00632033)
(-0.177681 3.42312e-07 0.00613643)
(-0.187076 1.09328e-06 0.00594727)
(-0.196203 2.05968e-06 0.00575361)
(-0.205051 3.38587e-06 0.00555578)
(-0.213609 5.41392e-06 0.00535368)
(-0.221867 8.60321e-06 0.00514739)
(-0.229816 1.34594e-05 0.00493821)
(-0.237446 2.05922e-05 0.00473008)
(-0.244753 3.06896e-05 0.00453224)
(-0.251742 4.36644e-05 0.00436449)
(-0.258441 5.7395e-05 0.00426251)
(-0.264918 7.5762e-05 0.00426371)
(-0.271309 0.00012304 0.00432562)
(-0.277581 6.39885e-05 0.00414318)
(-0.283231 -0.000223468 0.0035992)
(-0.288144 -0.000172547 0.00346898)
(-0.293071 -8.67957e-05 0.00402514)
(-0.298383 -5.78105e-05 0.00419762)
(-0.303107 -4.49767e-05 0.0030342)
(-0.306946 -6.09406e-05 0.00248374)
(-0.310454 -0.000129962 0.00225588)
(-0.313415 -0.000320104 0.00296941)
(-0.316377 -0.000793653 0.0110071)
(-0.319244 -0.000897313 0.0150915)
(-0.322503 -0.00012477 0.00151265)
(-0.324219 5.15013e-05 0.000743692)
(-0.32554 0.000686732 0.000950347)
(-0.327932 0.000277394 0.00193138)
(-0.330714 0.000389545 0.000157268)
(-0.331312 0.00136404 -0.0146125)
(-0.331389 0.000518128 -0.00830893)
(-0.331658 -0.000385646 0.0053833)
(-0.333459 -0.000647736 0.00963779)
(-0.335119 -8.91523e-05 0.00068388)
(-0.334959 0.000381239 -0.00237598)
(-0.333325 0.0010542 -0.0101216)
(-0.331798 0.00112357 -0.00550348)
(-0.330956 0.000672695 -0.000538308)
(-0.330461 -0.000262035 0.00192462)
(-0.330783 -0.000743998 0.00298812)
(-0.328824 0.000231045 -0.00448983)
(-0.325782 0.000291247 0.0057826)
(-0.324424 0.000260029 -0.000724152)
(-0.322457 0.000326323 -0.00891425)
(-0.320554 -0.000279874 0.00672885)
(-0.318626 -2.49194e-06 -0.00220066)
(-0.314619 0.000270096 -0.0107765)
(-0.311486 -0.000366858 0.00333221)
(-0.311246 -0.000467171 0.00603725)
(-0.308232 0.000332972 -0.0108945)
(-0.302889 5.47562e-05 -0.00803289)
(-0.29931 -0.000283818 -0.00297131)
(-0.296015 -0.00015687 -0.00248991)
(-0.29263 -0.000173953 -0.00195754)
(-0.289356 -5.26696e-05 -0.00237951)
(-0.285313 -2.33827e-05 -0.00312025)
(-0.280939 -3.32148e-05 -0.0029814)
(-0.276757 -9.043e-06 -0.00274349)
(-0.272625 -7.71209e-06 -0.00259404)
(-0.26848 -4.8619e-06 -0.00256573)
(-0.264251 -2.44214e-06 -0.00261031)
(-0.259914 -9.60728e-07 -0.0026784)
(-0.25547 -3.45106e-07 -0.0027458)
(-0.250933 -2.12275e-07 -0.00280491)
(-0.246318 -2.10573e-07 -0.00285491)
(-0.241634 -1.55325e-07 -0.00289684)
(-0.236893 -3.295e-08 -0.00293206)
(-0.232105 6.39019e-08 -0.00296176)
(-0.227279 5.81144e-08 -0.00298685)
(-0.222423 -3.19952e-08 -0.00300799)
(-0.217544 -1.1969e-07 -0.0030256)
(-0.212647 -1.33775e-07 -0.00303985)
(-0.207738 -7.08666e-08 -0.00305071)
(-0.202821 1.8505e-08 -0.00305806)
(-0.197904 7.92747e-08 -0.00306187)
(-0.19299 8.9309e-08 -0.00306219)
(-0.188085 6.3173e-08 -0.0030592)
(-0.183196 3.1482e-08 -0.00305309)
(-0.178326 1.7654e-08 -0.00304404)
(-0.173481 2.68205e-08 -0.00303214)
(-0.168665 4.87996e-08 -0.00301748)
(-0.163882 6.82883e-08 -0.00300009)
(-0.159136 7.436e-08 -0.00298004)
(-0.154431 6.47545e-08 -0.00295739)
(-0.14977 4.47519e-08 -0.00293221)
(-0.145158 2.28405e-08 -0.0029046)
(-0.140598 6.13106e-09 -0.00287463)
(-0.136093 -2.36073e-09 -0.0028424)
(-0.131646 -3.88456e-09 -0.00280797)
(-0.127261 -2.18733e-09 -0.00277144)
(-0.122941 -1.04714e-09 -0.00273288)
(-0.118688 -2.54547e-09 -0.00269239)
(-0.114505 -6.50916e-09 -0.00265003)
(-0.110395 -1.12474e-08 -0.0026059)
(-0.106359 -1.47924e-08 -0.00256007)
(-0.102401 -1.5953e-08 -0.00251262)
(-0.0985221 -1.47353e-08 -0.00246363)
(-0.0947243 -1.21065e-08 -0.00241318)
(-0.0910097 -9.4157e-09 -0.00236134)
(-0.0873801 -7.72751e-09 -0.00230819)
(-0.083837 -7.49187e-09 -0.0022538)
(-0.0803819 -8.51853e-09 -0.00219825)
(-0.0770164 -1.018e-08 -0.00214161)
(-0.0737417 -1.17669e-08 -0.00208397)
(-0.0705589 -1.27061e-08 -0.00202538)
(-0.0674692 -1.27325e-08 -0.00196593)
(-0.0644735 -1.18608e-08 -0.0019057)
(-0.0615726 -1.03391e-08 -0.00184475)
(-0.0587674 -8.50532e-09 -0.00178316)
(-0.0560584 -6.73787e-09 -0.00172101)
(-0.0534462 -5.30508e-09 -0.00165837)
(-0.0509312 -4.43549e-09 -0.00159534)
(-0.0485137 -4.18098e-09 -0.00153198)
(-0.0461938 -4.51174e-09 -0.00146838)
(-0.0439717 -5.3029e-09 -0.00140464)
(-0.0418473 -6.35115e-09 -0.00134083)
(-0.0398203 -7.42636e-09 -0.00127704)
(-0.0378906 -8.32834e-09 -0.00121339)
(-0.0360575 -8.89518e-09 -0.00114996)
(-0.0343205 -9.0483e-09 -0.00108686)
(-0.0326789 -8.78922e-09 -0.0010242)
(-0.0311318 -8.18788e-09 -0.00096209)
(-0.0296781 -7.351e-09 -0.000900655)
(-0.0283166 -6.41539e-09 -0.000840017)
(-0.0270459 -5.48455e-09 -0.000780307)
(-0.0258644 -4.63364e-09 -0.000721661)
(-0.0247703 -3.90612e-09 -0.000664221)
(-0.0237616 -3.28866e-09 -0.000608134)
(-0.0228361 -2.75459e-09 -0.000553554)
(-0.0219914 -2.26049e-09 -0.000500641)
(-0.0212249 -1.7278e-09 -0.000449559)
(-0.0205337 -1.09968e-09 -0.00040048)
(-0.0199145 -3.49319e-10 -0.000353581)
(-0.0193642 5.90224e-10 -0.000309043)
(-0.0188789 1.70567e-09 -0.000267053)
(-0.0184549 3.03557e-09 -0.000227803)
(-0.0180879 4.58507e-09 -0.000191488)
(-0.0177734 6.33755e-09 -0.000158309)
(-0.0175067 8.30149e-09 -0.000128467)
(-0.0172828 1.04553e-08 -0.000102168)
(-0.0170964 1.27973e-08 -7.96186e-05)
(-0.0169417 1.5321e-08 -6.10253e-05)
(-0.0168129 1.80299e-08 -4.65957e-05)
(-0.0167038 2.09408e-08 -3.65352e-05)
(-0.0166077 2.41209e-08 -3.10471e-05)
(-0.016518 2.75671e-08 -3.03303e-05)
(-0.0164275 3.138e-08 -3.45781e-05)
(-0.0163288 3.55232e-08 -4.39762e-05)
(-0.0162143 3.99699e-08 -5.86999e-05)
(-0.0160762 4.45932e-08 -7.89108e-05)
(-0.0159061 4.92656e-08 -0.000104754)
(-0.015696 5.38195e-08 -0.000136349)
(-0.0154372 5.81444e-08 -0.00017379)
(-0.0151212 6.22803e-08 -0.000217128)
(-0.0147393 6.62778e-08 -0.000266362)
(-0.0142829 7.02208e-08 -0.000321418)
(-0.0137435 7.40795e-08 -0.000382125)
(-0.0131131 7.76152e-08 -0.000448172)
(-0.0123839 8.0492e-08 -0.000519052)
(-0.0115492 8.24407e-08 -0.000593974)
(-0.0106036 8.3501e-08 -0.000671733)
(-0.00954385 8.39753e-08 -0.000750513)
(-0.00836945 8.4143e-08 -0.000827575)
(-0.0070846 8.4203e-08 -0.000898782)
(-0.00570031 8.41021e-08 -0.000957842)
(-0.00423792 8.41481e-08 -0.000995141)
(-0.00273444 8.51795e-08 -0.000995944)
(-0.0012512 8.85991e-08 -0.000937833)
(0.000115676 9.529e-08 -0.00078698)
(0.00121722 1.05166e-07 -0.000499401)
(0.00182987 1.15059e-07 -3.73394e-05)
(0.00172438 1.22724e-07 0.000505613)
(0.000621472 4.77959e-08 0.000662466)
(0.00266202 4.5993e-06 -0.00271052)
(0.0123634 3.58922e-05 -0.00706228)
(0.0219212 2.77297e-05 -0.00643688)
(0.028613 1.3729e-05 -0.00391008)
(0.0317257 5.61549e-06 -0.00132859)
(0.0316736 2.08612e-06 0.000876866)
(0.0289853 7.22445e-07 0.00263829)
(0.0242011 1.94331e-07 0.00400056)
(0.0177696 -3.19942e-08 0.00503941)
(0.0100576 -1.2439e-07 0.00582776)
(0.00135208 -1.33491e-07 0.00641609)
(-0.00811903 -8.97605e-08 0.0068356)
(-0.0181389 -2.88073e-08 0.00712443)
(-0.0285795 1.49868e-08 0.00731909)
(-0.039315 2.02175e-08 0.00743962)
(-0.05025 -1.52615e-08 0.00750084)
(-0.0613051 -7.33738e-08 0.00751419)
(-0.0724145 -1.22864e-07 0.0074886)
(-0.0835233 -1.34954e-07 0.00743112)
(-0.0945854 -1.03e-07 0.00734741)
(-0.105562 -5.46587e-08 0.00724202)
(-0.116419 -4.34876e-08 0.00711864)
(-0.127128 -1.15561e-07 0.00698031)
(-0.137663 -2.6511e-07 0.00682949)
(-0.148004 -4.10411e-07 0.00666814)
(-0.158132 -4.18815e-07 0.00649792)
(-0.168029 -1.77316e-07 0.00632024)
(-0.177681 3.42311e-07 0.00613635)
(-0.187076 1.09328e-06 0.00594726)
(-0.196201 2.05968e-06 0.00575355)
(-0.205045 3.38588e-06 0.00555524)
(-0.213598 5.41398e-06 0.00535195)
(-0.221846 8.60353e-06 0.00514337)
(-0.229775 1.34609e-05 0.00492958)
(-0.237369 2.05988e-05 0.00471204)
(-0.244613 3.0715e-05 0.00449856)
(-0.251495 4.37504e-05 0.00432333)
(-0.258024 5.76335e-05 0.00430737)
(-0.264374 7.63102e-05 0.00478242)
(-0.271313 0.000124095 0.00614291)
(-0.278931 6.43829e-05 0.00572012)
(-0.284264 -0.000224771 0.000814607)
(-0.287625 -0.000173676 0.00178957)
(-0.292439 -8.71916e-05 0.00391471)
(-0.298142 -5.79318e-05 0.00436203)
(-0.303102 -4.49991e-05 0.00313914)
(-0.307084 -6.08739e-05 0.00247012)
(-0.310748 -0.000129253 0.00198275)
(-0.313943 -0.000312681 0.00145833)
(-0.316458 -0.000670301 0.00127967)
(-0.319363 -0.000451172 0.0027528)
(-0.323209 -5.03838e-05 0.00267085)
(-0.324925 2.08e-05 4.07969e-05)
(-0.326124 0.000278298 0.00306996)
(-0.328531 0.000112889 0.00146095)
(-0.32962 0.000160589 2.03713e-05)
(-0.331048 0.00070401 0.00299996)
(-0.332906 0.00044239 0.000718169)
(-0.333208 -0.000365658 0.000228613)
(-0.33353 -0.000588021 0.000209419)
(-0.333858 -7.89419e-05 0.00019005)
(-0.333843 0.000342248 9.14516e-05)
(-0.333205 0.000996737 -8.66288e-05)
(-0.331711 0.00114914 0.00306746)
(-0.331014 0.000736886 0.00767294)
(-0.331296 -0.000292233 -0.00107677)
(-0.329302 -0.000818806 -0.00843686)
(-0.327475 0.000276214 0.00427239)
(-0.326354 0.000494013 0.0133417)
(-0.324842 0.000402369 -0.00167252)
(-0.321378 0.000689398 -0.00253133)
(-0.318373 -0.000590111 -0.00129933)
(-0.31649 -3.9033e-06 -0.000833728)
(-0.314398 0.000573082 -0.00147689)
(-0.311942 -0.000863265 -0.00139649)
(-0.309968 -0.00106683 -0.00179394)
(-0.307207 0.000764981 -0.00366624)
(-0.302326 0.000104577 -0.0160637)
(-0.299219 -0.000328085 -0.00915684)
(-0.296733 -0.000159088 -0.00280769)
(-0.292757 -0.000174771 -0.00366971)
(-0.288798 -5.2832e-05 -0.00238779)
(-0.285284 -2.34135e-05 -0.00277315)
(-0.280941 -3.32326e-05 -0.00325013)
(-0.276594 -9.04684e-06 -0.00280412)
(-0.272561 -7.71446e-06 -0.00255064)
(-0.268464 -4.8627e-06 -0.00253479)
(-0.264252 -2.44231e-06 -0.00260192)
(-0.259918 -9.60749e-07 -0.00267965)
(-0.255474 -3.45107e-07 -0.00274898)
(-0.250937 -2.12274e-07 -0.00280738)
(-0.246319 -2.10572e-07 -0.00285623)
(-0.241634 -1.55325e-07 -0.00289733)
(-0.236893 -3.295e-08 -0.00293212)
(-0.232104 6.39018e-08 -0.00296168)
(-0.227278 5.81143e-08 -0.00298682)
(-0.222423 -3.19952e-08 -0.0030081)
(-0.217544 -1.1969e-07 -0.00302587)
(-0.212647 -1.33775e-07 -0.00304018)
(-0.207738 -7.08666e-08 -0.00305099)
(-0.202822 1.8505e-08 -0.00305821)
(-0.197903 7.92747e-08 -0.00306186)
(-0.192989 8.9309e-08 -0.00306209)
(-0.188085 6.3173e-08 -0.00305909)
(-0.183196 3.1482e-08 -0.00305304)
(-0.178326 1.7654e-08 -0.00304405)
(-0.173481 2.68205e-08 -0.00303221)
(-0.168665 4.87996e-08 -0.00301757)
(-0.163882 6.82883e-08 -0.00300019)
(-0.159136 7.43599e-08 -0.00298013)
(-0.15443 6.47545e-08 -0.00295746)
(-0.14977 4.47518e-08 -0.00293228)
(-0.145158 2.28405e-08 -0.00290467)
(-0.140598 6.13106e-09 -0.0028747)
(-0.136093 -2.36073e-09 -0.00284247)
(-0.131646 -3.88455e-09 -0.00280804)
(-0.127261 -2.18733e-09 -0.00277151)
(-0.122941 -1.04714e-09 -0.00273295)
(-0.118688 -2.54547e-09 -0.00269245)
(-0.114505 -6.50916e-09 -0.00265009)
(-0.110395 -1.12474e-08 -0.00260595)
(-0.106359 -1.47924e-08 -0.00256012)
(-0.102401 -1.5953e-08 -0.00251267)
(-0.098522 -1.47353e-08 -0.00246368)
(-0.0947242 -1.21065e-08 -0.00241322)
(-0.0910096 -9.41569e-09 -0.00236138)
(-0.0873799 -7.72751e-09 -0.00230823)
(-0.0838368 -7.49187e-09 -0.00225384)
(-0.0803818 -8.51853e-09 -0.00219829)
(-0.0770163 -1.018e-08 -0.00214165)
(-0.0737416 -1.17669e-08 -0.00208401)
(-0.0705588 -1.2706e-08 -0.00202542)
(-0.0674691 -1.27325e-08 -0.00196598)
(-0.0644734 -1.18608e-08 -0.00190575)
(-0.0615725 -1.0339e-08 -0.0018448)
(-0.0587673 -8.50532e-09 -0.00178321)
(-0.0560583 -6.73786e-09 -0.00172106)
(-0.0534461 -5.30508e-09 -0.00165843)
(-0.0509311 -4.43549e-09 -0.0015954)
(-0.0485136 -4.18098e-09 -0.00153204)
(-0.0461937 -4.51174e-09 -0.00146845)
(-0.0439716 -5.3029e-09 -0.0014047)
(-0.0418472 -6.35115e-09 -0.00134089)
(-0.0398202 -7.42636e-09 -0.0012771)
(-0.0378905 -8.32834e-09 -0.00121345)
(-0.0360574 -8.89517e-09 -0.00115002)
(-0.0343204 -9.04829e-09 -0.00108692)
(-0.0326788 -8.78921e-09 -0.00102426)
(-0.0311317 -8.18788e-09 -0.000962151)
(-0.029678 -7.35099e-09 -0.000900717)
(-0.0283165 -6.41539e-09 -0.00084008)
(-0.0270458 -5.48455e-09 -0.000780371)
(-0.0258643 -4.63364e-09 -0.000721726)
(-0.0247702 -3.90611e-09 -0.000664287)
(-0.0237615 -3.28866e-09 -0.000608201)
(-0.022836 -2.75459e-09 -0.000553621)
(-0.0219913 -2.26048e-09 -0.000500708)
(-0.0212248 -1.7278e-09 -0.000449627)
(-0.0205336 -1.09968e-09 -0.000400548)
(-0.0199144 -3.49318e-10 -0.000353648)
(-0.0193641 5.90224e-10 -0.00030911)
(-0.0188788 1.70566e-09 -0.000267119)
(-0.0184548 3.03557e-09 -0.000227869)
(-0.0180878 4.58507e-09 -0.000191554)
(-0.0177733 6.33755e-09 -0.000158374)
(-0.0175066 8.30149e-09 -0.000128532)
(-0.0172827 1.04553e-08 -0.000102233)
(-0.0170963 1.27973e-08 -7.96827e-05)
(-0.0169416 1.5321e-08 -6.10896e-05)
(-0.0168128 1.80299e-08 -4.66602e-05)
(-0.0167037 2.09408e-08 -3.66004e-05)
(-0.0166077 2.41209e-08 -3.11133e-05)
(-0.0165179 2.75671e-08 -3.0398e-05)
(-0.0164274 3.138e-08 -3.4648e-05)
(-0.0163288 3.55232e-08 -4.40489e-05)
(-0.0162143 3.99699e-08 -5.87761e-05)
(-0.0160761 4.45932e-08 -7.89914e-05)
(-0.0159061 4.92656e-08 -0.000104839)
(-0.0156959 5.38195e-08 -0.000136442)
(-0.0154372 5.81443e-08 -0.00017389)
(-0.0151211 6.22803e-08 -0.000217236)
(-0.0147393 6.62777e-08 -0.000266479)
(-0.0142829 7.02208e-08 -0.000321547)
(-0.0137435 7.40794e-08 -0.000382267)
(-0.013113 7.76152e-08 -0.000448328)
(-0.0123838 8.0492e-08 -0.000519222)
(-0.0115492 8.24406e-08 -0.00059416)
(-0.0106036 8.35009e-08 -0.000671937)
(-0.00954385 8.39752e-08 -0.000750734)
(-0.00836945 8.41429e-08 -0.000827815)
(-0.00708461 8.42029e-08 -0.00089904)
(-0.00570033 8.4102e-08 -0.000958119)
(-0.00423796 8.4148e-08 -0.000995437)
(-0.00273449 8.51794e-08 -0.000996259)
(-0.00125126 8.8599e-08 -0.000938167)
(0.000115607 9.52899e-08 -0.000787336)
(0.00121714 1.05166e-07 -0.000499781)
(0.00182976 1.15059e-07 -3.77469e-05)
(0.00172414 1.22724e-07 0.00050517)
(0.000621275 4.77959e-08 0.000662067)
(0.00677882 -3.43719e-05 -0.0130939)
(0.0139817 -3.35314e-06 -0.014619)
(0.0179861 1.73595e-06 -0.0113542)
(0.0199227 1.58441e-06 -0.00647101)
(0.0196706 8.31946e-07 -0.001632)
(0.0175053 3.26935e-07 0.0026051)
(0.0136364 5.56765e-08 0.00610907)
(0.00829648 -7.65913e-08 0.00892698)
(0.00171744 -1.32048e-07 0.0111603)
(-0.00588647 -1.41702e-07 0.0129127)
(-0.0143114 -1.237e-07 0.0142705)
(-0.0233977 -9.28506e-08 0.0153043)
(-0.0330023 -6.255e-08 0.0160781)
(-0.0430062 -4.36282e-08 0.0166463)
(-0.0533055 -4.1549e-08 0.0170465)
(-0.0638139 -5.41317e-08 0.0173089)
(-0.0744579 -7.14379e-08 0.017457)
(-0.0851754 -7.96407e-08 0.0175097)
(-0.0959135 -6.88e-08 0.0174821)
(-0.106627 -4.13964e-08 0.0173866)
(-0.117276 -1.55361e-08 0.0172333)
(-0.127828 -1.70708e-08 0.0170303)
(-0.138253 -6.07671e-08 0.0167845)
(-0.148525 -1.309e-07 0.0165016)
(-0.158622 -1.785e-07 0.0161865)
(-0.168524 -1.45871e-07 0.015843)
(-0.178216 -6.60732e-09 0.0154744)
(-0.187682 2.13634e-07 0.0150834)
(-0.196909 4.65774e-07 0.0146722)
(-0.205884 7.41524e-07 0.0142425)
(-0.2146 1.10864e-06 0.0137954)
(-0.223048 1.65884e-06 0.0133317)
(-0.231221 2.38615e-06 0.0128518)
(-0.239115 3.06193e-06 0.0123574)
(-0.246728 3.09033e-06 0.0118525)
(-0.254065 1.2458e-06 0.0113458)
(-0.261129 -4.35271e-06 0.0108541)
(-0.267926 -1.45197e-05 0.0104032)
(-0.274453 -3.05495e-05 0.0100136)
(-0.280644 -8.20824e-05 0.00965334)
(-0.286472 -8.20342e-05 0.00920083)
(-0.292189 0.000117389 0.00856274)
(-0.297788 9.00672e-05 0.00788291)
(-0.302815 3.22882e-05 0.00747646)
(-0.307116 1.84275e-05 0.0071509)
(-0.311394 1.23335e-05 0.00663018)
(-0.315754 1.28594e-05 0.00611826)
(-0.319803 3.41515e-05 0.0055701)
(-0.323684 0.000129476 0.00498259)
(-0.326897 0.000469383 0.00463227)
(-0.329601 0.000508611 0.00415533)
(-0.332217 7.21838e-06 0.00368952)
(-0.335058 -4.51191e-05 0.00321454)
(-0.337563 -0.00031029 0.00290243)
(-0.338948 -7.53089e-05 0.00289834)
(-0.339597 -9.70773e-05 0.00253337)
(-0.341292 -0.000775317 0.00169321)
(-0.343225 -0.000345867 0.000832036)
(-0.344147 0.000311018 0.000434995)
(-0.343466 0.000519206 0.00019523)
(-0.342716 8.65702e-05 2.37394e-05)
(-0.3427 -0.000207039 -5.86051e-05)
(-0.343213 -0.000686575 -0.000326434)
(-0.34342 -0.000691939 -0.000747083)
(-0.342574 -0.000431739 -0.00152332)
(-0.341093 0.000225129 -0.00199881)
(-0.338654 0.00059222 -0.00198892)
(-0.337519 -0.000200028 -0.00239708)
(-0.33688 -0.000240324 -0.00237731)
(-0.334302 -0.00010474 -0.00280162)
(-0.332278 -0.000233328 -0.00335923)
(-0.330042 0.000231594 -0.00330048)
(-0.326896 -2.26587e-05 -0.00411018)
(-0.32522 -0.000229101 -0.00482349)
(-0.322917 0.000278446 -0.00451901)
(-0.317849 0.000307749 -0.00444643)
(-0.314309 -0.00038453 -0.00487899)
(-0.312599 -1.09382e-05 -0.00485696)
(-0.309272 0.0001897 -0.00496678)
(-0.305406 7.02078e-05 -0.00535141)
(-0.301492 8.80715e-05 -0.00551484)
(-0.297315 6.05809e-06 -0.00582477)
(-0.293448 -4.51467e-07 -0.00625055)
(-0.289584 9.80524e-06 -0.00647402)
(-0.28542 -5.04826e-06 -0.00655367)
(-0.281144 -1.72545e-06 -0.00661038)
(-0.276788 -3.94387e-07 -0.00671757)
(-0.272363 6.75688e-08 -0.00686818)
(-0.267876 2.77789e-07 -0.00702952)
(-0.263327 2.52327e-07 -0.00718035)
(-0.258712 1.28163e-07 -0.00731282)
(-0.254035 4.46962e-08 -0.0074263)
(-0.249299 3.09229e-08 -0.00752248)
(-0.244511 4.45269e-08 -0.00760345)
(-0.239678 3.49857e-08 -0.00767107)
(-0.234807 -9.18368e-09 -0.00772677)
(-0.229903 -5.82687e-08 -0.00777162)
(-0.224974 -7.61461e-08 -0.00780634)
(-0.220026 -5.28214e-08 -0.00783142)
(-0.215062 -8.01288e-09 -0.00784721)
(-0.210089 2.89856e-08 -0.00785399)
(-0.205111 4.09592e-08 -0.00785205)
(-0.200135 3.0087e-08 -0.00784172)
(-0.195166 1.07372e-08 -0.00782333)
(-0.190208 -2.77521e-09 -0.0077972)
(-0.185266 -4.24473e-09 -0.00776364)
(-0.180346 3.65107e-09 -0.0077229)
(-0.175452 1.36686e-08 -0.00767525)
(-0.170587 1.9216e-08 -0.00762091)
(-0.165756 1.75384e-08 -0.00756013)
(-0.160963 9.98328e-09 -0.00749313)
(-0.156211 2.7082e-10 -0.00742017)
(-0.151505 -7.82268e-09 -0.00734147)
(-0.146848 -1.21356e-08 -0.00725728)
(-0.142244 -1.25939e-08 -0.00716783)
(-0.137695 -1.06386e-08 -0.00707334)
(-0.133205 -8.15074e-09 -0.00697406)
(-0.128777 -6.4902e-09 -0.0068702)
(-0.124415 -6.06059e-09 -0.00676198)
(-0.120119 -6.43088e-09 -0.00664963)
(-0.115894 -6.829e-09 -0.00653335)
(-0.111742 -6.62955e-09 -0.00641335)
(-0.107665 -5.64866e-09 -0.00628984)
(-0.103666 -4.1218e-09 -0.00616301)
(-0.0997462 -2.51426e-09 -0.00603306)
(-0.095908 -1.23922e-09 -0.00590017)
(-0.0921534 -5.0666e-10 -0.00576453)
(-0.0884842 -2.67736e-10 -0.00562634)
(-0.084902 -3.03052e-10 -0.00548575)
(-0.0814085 -3.38375e-10 -0.00534296)
(-0.078005 -1.65377e-10 -0.00519814)
(-0.0746931 3.08541e-10 -0.00505146)
(-0.0714738 1.05647e-09 -0.00490308)
(-0.0683484 1.96931e-09 -0.00475319)
(-0.0653179 2.90264e-09 -0.00460195)
(-0.0623832 3.72403e-09 -0.00444953)
(-0.0595452 4.33713e-09 -0.0042961)
(-0.0568045 4.68708e-09 -0.00414184)
(-0.0541617 4.77381e-09 -0.00398693)
(-0.0516174 4.62758e-09 -0.00383154)
(-0.0491718 4.31144e-09 -0.00367586)
(-0.0468253 3.90097e-09 -0.00352009)
(-0.0445779 3.48585e-09 -0.00336442)
(-0.0424296 3.13505e-09 -0.00320905)
(-0.0403803 2.90467e-09 -0.0030542)
(-0.0384297 2.82053e-09 -0.0029001)
(-0.0365774 2.88016e-09 -0.00274696)
(-0.0348227 3.05201e-09 -0.00259503)
(-0.033165 3.2929e-09 -0.00244457)
(-0.0316033 3.55255e-09 -0.00229585)
(-0.0301366 3.78564e-09 -0.00214913)
(-0.0287636 3.96057e-09 -0.0020047)
(-0.0274829 4.06277e-09 -0.00186289)
(-0.0262928 4.0868e-09 -0.00172399)
(-0.0251915 4.05303e-09 -0.00158834)
(-0.0241769 3.96934e-09 -0.00145628)
(-0.0232467 3.86233e-09 -0.00132819)
(-0.0223984 3.75321e-09 -0.00120442)
(-0.0216293 3.65281e-09 -0.00108537)
(-0.0209363 3.57486e-09 -0.000971441)
(-0.0203162 3.51936e-09 -0.000863042)
(-0.0197655 3.49133e-09 -0.000760604)
(-0.0192803 3.49076e-09 -0.000664564)
(-0.0188567 3.50518e-09 -0.000575371)
(-0.0184902 3.53376e-09 -0.000493486)
(-0.0181762 3.56818e-09 -0.000419375)
(-0.0179099 3.59178e-09 -0.000353514)
(-0.0176859 3.60539e-09 -0.000296381)
(-0.0174988 3.60233e-09 -0.000248459)
(-0.0173427 3.57344e-09 -0.000210233)
(-0.0172117 3.52871e-09 -0.000182184)
(-0.0170992 3.4723e-09 -0.000164791)
(-0.0169986 3.41171e-09 -0.000158522)
(-0.0169031 3.35444e-09 -0.000163834)
(-0.0168054 3.28881e-09 -0.000181169)
(-0.016698 3.19898e-09 -0.000210943)
(-0.0165735 3.04073e-09 -0.000253541)
(-0.0164239 2.78148e-09 -0.000309308)
(-0.0162412 2.39114e-09 -0.000378535)
(-0.0160174 1.87799e-09 -0.000461443)
(-0.0157444 1.28121e-09 -0.000558157)
(-0.0154141 6.53322e-10 -0.00066868)
(-0.0150184 2.52105e-11 -0.000792845)
(-0.0145497 -6.28198e-10 -0.000930256)
(-0.0140007 -1.37711e-09 -0.0010802)
(-0.0133648 -2.30933e-09 -0.00124153)
(-0.0126362 -3.44676e-09 -0.00141247)
(-0.0118105 -4.71434e-09 -0.00159034)
(-0.0108852 -6.01191e-09 -0.00177119)
(-0.00986044 -7.29191e-09 -0.00194915)
(-0.00873975 -8.63811e-09 -0.00211554)
(-0.00753165 -1.01077e-08 -0.00225745)
(-0.00625133 -1.1572e-08 -0.00235559)
(-0.00492294 -1.27365e-08 -0.00238114)
(-0.00358258 -1.34301e-08 -0.00229124)
(-0.00228172 -1.35972e-08 -0.00202341)
(-0.00108873 -1.31122e-08 -0.00149297)
(-0.000106397 -1.34408e-08 -0.000604758)
(0.000567551 -2.24578e-08 0.000667847)
(0.000436831 -1.22999e-07 0.00178078)
(0.00677728 -3.43665e-05 -0.0131058)
(0.0139819 -3.35321e-06 -0.0146207)
(0.0179844 1.73596e-06 -0.0113549)
(0.0199205 1.5844e-06 -0.00647064)
(0.0196692 8.31939e-07 -0.00163146)
(0.0175049 3.26932e-07 0.00260542)
(0.0136364 5.5676e-08 0.00610921)
(0.00829667 -7.65907e-08 0.00892702)
(0.00171766 -1.32047e-07 0.0111603)
(-0.00588629 -1.41701e-07 0.0129127)
(-0.0143113 -1.23699e-07 0.0142706)
(-0.0233977 -9.285e-08 0.0153043)
(-0.0330022 -6.25496e-08 0.0160782)
(-0.0430062 -4.3628e-08 0.0166463)
(-0.0533055 -4.15487e-08 0.0170466)
(-0.0638139 -5.41313e-08 0.0173089)
(-0.0744579 -7.14375e-08 0.017457)
(-0.0851756 -7.96403e-08 0.0175097)
(-0.0959138 -6.87996e-08 0.0174822)
(-0.106627 -4.13962e-08 0.0173866)
(-0.117277 -1.5536e-08 0.0172332)
(-0.127828 -1.70707e-08 0.0170302)
(-0.138253 -6.07668e-08 0.0167845)
(-0.148525 -1.309e-07 0.0165016)
(-0.158622 -1.78499e-07 0.0161865)
(-0.168525 -1.4587e-07 0.015843)
(-0.178217 -6.60729e-09 0.0154744)
(-0.187683 2.13633e-07 0.0150834)
(-0.196909 4.65772e-07 0.0146722)
(-0.205885 7.41521e-07 0.0142424)
(-0.2146 1.10863e-06 0.0137948)
(-0.223046 1.65884e-06 0.0133297)
(-0.231218 2.38621e-06 0.0128469)
(-0.239111 3.06216e-06 0.0123463)
(-0.246729 3.09104e-06 0.0118282)
(-0.254083 1.24661e-06 0.0112954)
(-0.261193 -4.35995e-06 0.0107601)
(-0.268086 -1.45759e-05 0.0102616)
(-0.274739 -3.07897e-05 0.00988847)
(-0.280601 -8.31537e-05 0.00969601)
(-0.285469 -8.33481e-05 0.00930146)
(-0.29151 0.000119113 0.00844303)
(-0.298166 9.0976e-05 0.00794894)
(-0.30329 3.24638e-05 0.00773225)
(-0.307345 1.84731e-05 0.00736066)
(-0.311459 1.2342e-05 0.00674257)
(-0.315722 1.28427e-05 0.00616145)
(-0.319657 3.3896e-05 0.00560357)
(-0.323329 0.000125239 0.00501763)
(-0.32702 0.000413087 0.00456937)
(-0.330062 0.00035045 0.00440051)
(-0.331939 4.60198e-06 0.00382499)
(-0.334693 -2.86349e-05 0.00286026)
(-0.337269 -0.0001986 0.00277439)
(-0.33866 -4.86755e-05 0.00252135)
(-0.340563 -6.36779e-05 0.00196279)
(-0.341571 -0.000552005 0.00171625)
(-0.342009 -0.000310555 0.00109065)
(-0.343014 0.000292349 0.00047033)
(-0.343535 0.000466034 0.000183583)
(-0.343622 7.5629e-05 0.000148542)
(-0.343498 -0.000182522 -3.63325e-05)
(-0.343316 -0.000637706 -0.000615027)
(-0.343287 -0.000708896 -0.00123226)
(-0.342103 -0.000481899 -0.00139971)
(-0.340039 0.000256197 -0.00146141)
(-0.339588 0.000658606 -0.00159376)
(-0.338774 -0.000225082 -0.00173821)
(-0.336348 -0.000312161 -0.00253263)
(-0.333895 -0.000125572 -0.00344772)
(-0.332623 -0.00032983 -0.00370938)
(-0.330761 0.000327425 -0.00367269)
(-0.327943 -2.76435e-05 -0.00373869)
(-0.325039 -0.00032723 -0.00408367)
(-0.322126 0.000412381 -0.00437797)
(-0.318676 0.000437486 -0.00468251)
(-0.315218 -0.000545414 -0.00495137)
(-0.312505 -1.51194e-05 -0.00504285)
(-0.309177 0.000211187 -0.00490928)
(-0.305019 7.2247e-05 -0.00518577)
(-0.301427 8.88897e-05 -0.00574854)
(-0.297675 6.08118e-06 -0.00587856)
(-0.293374 -4.52217e-07 -0.00620042)
(-0.289465 9.81317e-06 -0.00649373)
(-0.285461 -5.05074e-06 -0.00650249)
(-0.281158 -1.72597e-06 -0.00653843)
(-0.276792 -3.9445e-07 -0.00668295)
(-0.272364 6.75737e-08 -0.00686049)
(-0.267877 2.77796e-07 -0.00703167)
(-0.263328 2.52328e-07 -0.00718402)
(-0.258713 1.28163e-07 -0.00731561)
(-0.254035 4.46959e-08 -0.00742796)
(-0.249299 3.09227e-08 -0.00752333)
(-0.244511 4.45267e-08 -0.00760385)
(-0.239678 3.49855e-08 -0.00767126)
(-0.234806 -9.18364e-09 -0.00772691)
(-0.229903 -5.82685e-08 -0.00777178)
(-0.224975 -7.61457e-08 -0.00780653)
(-0.220026 -5.28212e-08 -0.00783161)
(-0.215062 -8.01285e-09 -0.00784735)
(-0.210089 2.89855e-08 -0.00785406)
(-0.205111 4.0959e-08 -0.00785205)
(-0.200135 3.00869e-08 -0.00784168)
(-0.195165 1.07372e-08 -0.00782328)
(-0.190208 -2.77519e-09 -0.00779717)
(-0.185266 -4.24471e-09 -0.00776363)
(-0.180346 3.65106e-09 -0.00772292)
(-0.175452 1.36685e-08 -0.00767528)
(-0.170587 1.9216e-08 -0.00762094)
(-0.165756 1.75383e-08 -0.00756016)
(-0.160963 9.98324e-09 -0.00749316)
(-0.156211 2.70819e-10 -0.00742019)
(-0.151505 -7.82265e-09 -0.00734149)
(-0.146848 -1.21355e-08 -0.0072573)
(-0.142244 -1.25939e-08 -0.00716784)
(-0.137695 -1.06386e-08 -0.00707336)
(-0.133205 -8.1507e-09 -0.00697408)
(-0.128777 -6.49017e-09 -0.00687022)
(-0.124414 -6.06057e-09 -0.006762)
(-0.120119 -6.43085e-09 -0.00664965)
(-0.115894 -6.82897e-09 -0.00653337)
(-0.111742 -6.62952e-09 -0.00641337)
(-0.107665 -5.64864e-09 -0.00628985)
(-0.103666 -4.12178e-09 -0.00616302)
(-0.099746 -2.51425e-09 -0.00603307)
(-0.0959079 -1.23921e-09 -0.00590018)
(-0.0921533 -5.06658e-10 -0.00576454)
(-0.0884841 -2.67735e-10 -0.00562635)
(-0.0849019 -3.03051e-10 -0.00548576)
(-0.0814084 -3.38374e-10 -0.00534297)
(-0.0780049 -1.65377e-10 -0.00519815)
(-0.074693 3.0854e-10 -0.00505147)
(-0.0714737 1.05647e-09 -0.00490309)
(-0.0683483 1.96931e-09 -0.0047532)
(-0.0653178 2.90263e-09 -0.00460196)
(-0.0623831 3.72402e-09 -0.00444954)
(-0.0595451 4.33712e-09 -0.00429612)
(-0.0568044 4.68706e-09 -0.00414186)
(-0.0541616 4.7738e-09 -0.00398694)
(-0.0516173 4.62756e-09 -0.00383156)
(-0.0491717 4.31143e-09 -0.00367588)
(-0.0468252 3.90095e-09 -0.00352011)
(-0.0445778 3.48584e-09 -0.00336444)
(-0.0424295 3.13504e-09 -0.00320907)
(-0.0403802 2.90467e-09 -0.00305422)
(-0.0384296 2.82052e-09 -0.00290011)
(-0.0365773 2.88015e-09 -0.00274698)
(-0.0348226 3.052e-09 -0.00259505)
(-0.0331649 3.29289e-09 -0.00244459)
(-0.0316032 3.55254e-09 -0.00229586)
(-0.0301365 3.78563e-09 -0.00214915)
(-0.0287636 3.96056e-09 -0.00200472)
(-0.0274828 4.06276e-09 -0.00186291)
(-0.0262927 4.08679e-09 -0.00172401)
(-0.0251914 4.05302e-09 -0.00158836)
(-0.0241768 3.96932e-09 -0.00145631)
(-0.0232466 3.86231e-09 -0.00132821)
(-0.0223983 3.7532e-09 -0.00120444)
(-0.0216292 3.6528e-09 -0.00108539)
(-0.0209362 3.57485e-09 -0.00097146)
(-0.0203161 3.51935e-09 -0.000863061)
(-0.0197654 3.49132e-09 -0.000760622)
(-0.0192802 3.49075e-09 -0.000664581)
(-0.0188566 3.50517e-09 -0.000575388)
(-0.0184901 3.53375e-09 -0.000493502)
(-0.0181762 3.56817e-09 -0.000419391)
(-0.0179098 3.59177e-09 -0.000353528)
(-0.0176858 3.60538e-09 -0.000296395)
(-0.0174987 3.60232e-09 -0.000248472)
(-0.0173427 3.57344e-09 -0.000210245)
(-0.0172116 3.52871e-09 -0.000182196)
(-0.0170991 3.47229e-09 -0.000164802)
(-0.0169986 3.4117e-09 -0.000158533)
(-0.016903 3.35443e-09 -0.000163846)
(-0.0168053 3.2888e-09 -0.000181181)
(-0.016698 3.19898e-09 -0.000210955)
(-0.0165734 3.04072e-09 -0.000253554)
(-0.0164238 2.78147e-09 -0.000309323)
(-0.0162412 2.39113e-09 -0.000378552)
(-0.0160174 1.87799e-09 -0.000461462)
(-0.0157444 1.2812e-09 -0.000558179)
(-0.015414 6.5332e-10 -0.000668705)
(-0.0150184 2.52104e-11 -0.000792874)
(-0.0145497 -6.28196e-10 -0.00093029)
(-0.0140007 -1.3771e-09 -0.00108024)
(-0.0133648 -2.30933e-09 -0.00124158)
(-0.0126361 -3.44675e-09 -0.00141252)
(-0.0118105 -4.71433e-09 -0.0015904)
(-0.0108852 -6.0119e-09 -0.00177125)
(-0.00986044 -7.2919e-09 -0.00194922)
(-0.00873975 -8.6381e-09 -0.00211562)
(-0.00753165 -1.01076e-08 -0.00225753)
(-0.00625134 -1.1572e-08 -0.00235569)
(-0.00492296 -1.27365e-08 -0.00238124)
(-0.0035826 -1.34301e-08 -0.00229136)
(-0.00228175 -1.35972e-08 -0.00202354)
(-0.00108877 -1.31122e-08 -0.00149313)
(-0.000106447 -1.34408e-08 -0.00060495)
(0.000567415 -2.24578e-08 0.000667585)
(0.000436617 -1.22999e-07 0.00178039)
(0.00582401 -2.08445e-05 -0.0231109)
(0.0105237 -4.33711e-06 -0.018856)
(0.0115649 -7.87325e-07 -0.0124448)