/*--------------------------------*- C++ -*----------------------------------*\
  =========                 |
  \\      /  F ield         | OpenFOAM: The Open Source CFD Toolbox
   \\    /   O peration     | Website:  https://openfoam.org
    \\  /    A nd           | Version:  8
     \\/     M anipulation  |
\*---------------------------------------------------------------------------*/
FoamFile
{
    version     2.0;
    format      ascii;
    class       volScalarField;
    location    "4700";
    object      alphat;
}
// * * * * * * * * * * * * * * * * * * * * * * * * * * * * * * * * * * * * * //

dimensions      [1 -1 -1 0 0 0 0];

internalField   nonuniform List<scalar> 
48000
(
5.4871e-05
9.57789e-05
0.000118631
0.000135402
0.000149363
0.000161207
0.000171502
0.000180632
0.000188946
0.00019671
0.00020389
0.000210609
0.000216926
0.000222887
0.000228531
0.000233887
0.000238979
0.000243827
0.000248447
0.000252853
0.000257055
0.000261063
0.000264886
0.000268531
0.000272005
0.000275312
0.000278459
0.00028145
0.00028429
0.000286983
0.000289533
0.000291944
0.000294221
0.000296367
0.000298385
0.000300279
0.000302054
0.000303712
0.000305257
0.000306693
0.000308022
0.000309249
0.000310377
0.000311409
0.000312348
0.000313212
0.000314
0.000314705
0.00031533
0.000315878
0.000316352
0.000316756
0.000317093
0.000317366
0.000317578
0.000317732
0.00031783
0.000317876
0.000317872
0.00031782
0.000317724
0.000317585
0.000317405
0.000317188
0.000316934
0.000316646
0.000316326
0.000315975
0.000315595
0.000315188
0.000314756
0.000314299
0.00031382
0.000313319
0.000312798
0.000312257
0.000311698
0.000311122
0.00031053
0.000309922
0.0003093
0.000308664
0.000308014
0.000307352
0.000306678
0.000305992
0.000305294
0.000304586
0.000303868
0.000303139
0.0003024
0.000301651
0.000300893
0.000300125
0.000299348
0.000298561
0.000297766
0.000296961
0.000296146
0.000295322
0.000294489
0.000293646
0.000292793
0.000291931
0.000291058
0.000290175
0.000289282
0.000288377
0.000287462
0.000286536
0.000285598
0.000284648
0.000283686
0.000282711
0.000281724
0.000280724
0.00027971
0.000278682
0.00027764
0.000276584
0.000275512
0.000274426
0.000273323
0.000272204
0.000271069
0.000269917
0.000268748
0.000267561
0.000266356
0.000265132
0.00026389
0.000262628
0.000261346
0.000260044
0.000258722
0.000257379
0.000256014
0.000254628
0.00025322
0.000251789
0.000250335
0.000248858
0.000247357
0.000245832
0.000244283
0.000242709
0.000241109
0.000239484
0.000237833
0.000236155
0.000234451
0.000232719
0.000230959
0.000229171
0.000227355
0.000225509
0.000223634
0.000221729
0.000219793
0.000217825
0.000215826
0.000213794
0.000211729
0.00020963
0.000207496
0.000205326
0.00020312
0.000200875
0.000198591
0.000196266
0.0001939
0.000191489
0.000189033
0.000186528
0.000183973
0.000181365
0.0001787
0.000175975
0.000173187
0.000170335
0.000167424
0.000164448
0.000161383
0.000158217
0.000154937
0.00015153
0.000147978
0.000144258
0.000140344
0.0001362
0.000131779
0.000127048
0.000121934
0.000116299
0.000109968
0.000102658
9.38583e-05
8.23553e-05
6.28072e-05
8.23201e-05
5.48713e-05
9.57791e-05
0.000118631
0.000135403
0.000149363
0.000161207
0.000171502
0.000180632
0.000188946
0.00019671
0.00020389
0.000210609
0.000216926
0.000222887
0.000228531
0.000233887
0.000238979
0.000243827
0.000248447
0.000252853
0.000257055
0.000261063
0.000264886
0.000268531
0.000272005
0.000275312
0.000278459
0.00028145
0.00028429
0.000286983
0.000289533
0.000291944
0.000294221
0.000296367
0.000298385
0.000300279
0.000302054
0.000303712
0.000305257
0.000306693
0.000308022
0.00030925
0.000310377
0.000311409
0.000312348
0.000313212
0.000314
0.000314705
0.00031533
0.000315878
0.000316352
0.000316756
0.000317093
0.000317366
0.000317578
0.000317732
0.00031783
0.000317876
0.000317872
0.00031782
0.000317724
0.000317585
0.000317405
0.000317188
0.000316934
0.000316646
0.000316326
0.000315975
0.000315595
0.000315188
0.000314756
0.000314299
0.00031382
0.000313319
0.000312798
0.000312257
0.000311698
0.000311122
0.00031053
0.000309922
0.0003093
0.000308664
0.000308014
0.000307352
0.000306678
0.000305992
0.000305294
0.000304586
0.000303867
0.000303139
0.0003024
0.000301651
0.000300893
0.000300125
0.000299348
0.000298561
0.000297766
0.000296961
0.000296146
0.000295322
0.000294489
0.000293646
0.000292793
0.000291931
0.000291058
0.000290175
0.000289282
0.000288377
0.000287462
0.000286536
0.000285598
0.000284648
0.000283686
0.000282711
0.000281724
0.000280724
0.00027971
0.000278682
0.00027764
0.000276584
0.000275512
0.000274426
0.000273323
0.000272204
0.000271069
0.000269917
0.000268748
0.000267561
0.000266356
0.000265132
0.00026389
0.000262628
0.000261346
0.000260044
0.000258722
0.000257379
0.000256014
0.000254628
0.00025322
0.000251789
0.000250335
0.000248858
0.000247357
0.000245832
0.000244283
0.000242709
0.000241109
0.000239484
0.000237833
0.000236155
0.000234451
0.000232719
0.000230959
0.000229171
0.000227355
0.000225509
0.000223634
0.000221729
0.000219793
0.000217825
0.000215826
0.000213794
0.000211729
0.00020963
0.000207496
0.000205326
0.00020312
0.000200875
0.000198591
0.000196266
0.0001939
0.000191489
0.000189033
0.000186528
0.000183973
0.000181365
0.0001787
0.000175975
0.000173187
0.000170335
0.000167424
0.000164448
0.000161383
0.000158217
0.000154937
0.00015153
0.000147978
0.000144258
0.000140344
0.0001362
0.000131779
0.000127048
0.000121934
0.000116299
0.000109968
0.000102658
9.38583e-05
8.23544e-05
6.28057e-05
8.23108e-05
8.34649e-05
0.000619312
0.000979997
0.00123178
0.00142191
0.00157558
0.00170719
0.00182297
0.00192642
0.00201968
0.00210507
0.0021838
0.00225684
0.00232495
0.0023887
0.00244855
0.00250488
0.002558
0.00260817
0.00265561
0.00270051
0.00274304
0.00278333
0.00282151
0.0028577
0.002892
0.0029245
0.00295528
0.00298442
0.00301199
0.00303806
0.00306269
0.00308594
0.00310786
0.0031285
0.00314791
0.00316614
0.00318324
0.00319924
0.00321418
0.00322811
0.00324106
0.00325306
0.00326412
0.00327422
0.00328319
0.0032912
0.0032984
0.00330487
0.00331068
0.00331584
0.0033204
0.00332439
0.00332782
0.00333073
0.00333313
0.00333505
0.00333652
0.00333754
0.00333815
0.00333835
0.00333818
0.00333763
0.00333674
0.00333551
0.00333397
0.00333212
0.00332998
0.00332756
0.00332488
0.00332194
0.00331876
0.00331535
0.00331171
0.00330787
0.00330382
0.00329957
0.00329514
0.00329052
0.00328573
0.00328078
0.00327566
0.00327038
0.00326495
0.00325938
0.00325366
0.0032478
0.00324181
0.00323568
0.00322942
0.00322303
0.00321651
0.00320986
0.00320309
0.0031962
0.00318918
0.00318203
0.00317476
0.00316737
0.00315985
0.0031522
0.00314443
0.00313653
0.0031285
0.00312033
0.00311203
0.0031036
0.00309502
0.00308631
0.00307745
0.00306845
0.00305929
0.00304999
0.00304053
0.00303091
0.00302113
0.00301118
0.00300107
0.00299078
0.00298032
0.00296968
0.00295886
0.00294784
0.00293664
0.00292524
0.00291365
0.00290185
0.00288984
0.00287763
0.0028652
0.00285255
0.00283967
0.00282657
0.00281324
0.00279968
0.00278587
0.00277182
0.00275753
0.00274298
0.00272818
0.00271311
0.00269779
0.00268219
0.00266632
0.00265018
0.00263375
0.00261704
0.00260003
0.00258273
0.00256514
0.00254723
0.00252902
0.0025105
0.00249165
0.00247248
0.00245297
0.00243313
0.00241294
0.0023924
0.0023715
0.00235023
0.00232859
0.00230656
0.00228414
0.0022613
0.00223805
0.00221436
0.00219023
0.00216563
0.00214055
0.00211496
0.00208884
0.00206217
0.00203491
0.00200704
0.00197851
0.00194927
0.00191926
0.00188841
0.00185661
0.00182369
0.00178957
0.00175422
0.00171757
0.00167946
0.00163972
0.00159811
0.00155431
0.00150793
0.00145837
0.00140476
0.00134543
0.00127935
0.0012047
0.00111837
0.00101511
0.000885332
0.00070938
0.000442088
5.59429e-05
8.34651e-05
0.000619316
0.000980004
0.00123179
0.00142192
0.00157559
0.0017072
0.00182297
0.00192643
0.00201969
0.00210507
0.0021838
0.00225685
0.00232495
0.0023887
0.00244856
0.00250489
0.00255801
0.00260818
0.00265562
0.00270052
0.00274304
0.00278333
0.00282152
0.00285771
0.002892
0.0029245
0.00295528
0.00298442
0.003012
0.00303807
0.0030627
0.00308594
0.00310786
0.0031285
0.00314791
0.00316615
0.00318324
0.00319924
0.00321419
0.00322812
0.00324106
0.00325306
0.00326413
0.00327423
0.00328319
0.0032912
0.0032984
0.00330488
0.00331068
0.00331585
0.00332041
0.00332439
0.00332782
0.00333073
0.00333313
0.00333506
0.00333652
0.00333755
0.00333815
0.00333836
0.00333818
0.00333764
0.00333674
0.00333552
0.00333397
0.00333212
0.00332998
0.00332756
0.00332488
0.00332194
0.00331876
0.00331535
0.00331172
0.00330787
0.00330382
0.00329957
0.00329514
0.00329053
0.00328574
0.00328078
0.00327566
0.00327039
0.00326496
0.00325938
0.00325366
0.00324781
0.00324181
0.00323568
0.00322942
0.00322303
0.00321651
0.00320987
0.00320309
0.0031962
0.00318918
0.00318203
0.00317477
0.00316737
0.00315985
0.00315221
0.00314443
0.00313653
0.0031285
0.00312033
0.00311204
0.0031036
0.00309503
0.00308631
0.00307746
0.00306845
0.0030593
0.00304999
0.00304053
0.00303091
0.00302113
0.00301119
0.00300107
0.00299079
0.00298032
0.00296968
0.00295886
0.00294785
0.00293664
0.00292525
0.00291365
0.00290185
0.00288985
0.00287763
0.0028652
0.00285255
0.00283968
0.00282658
0.00281325
0.00279968
0.00278587
0.00277183
0.00275753
0.00274298
0.00272818
0.00271312
0.00269779
0.00268219
0.00266632
0.00265018
0.00263375
0.00261704
0.00260003
0.00258274
0.00256514
0.00254724
0.00252902
0.0025105
0.00249165
0.00247248
0.00245297
0.00243313
0.00241294
0.0023924
0.0023715
0.00235024
0.00232859
0.00230656
0.00228414
0.00226131
0.00223805
0.00221437
0.00219023
0.00216563
0.00214055
0.00211496
0.00208884
0.00206217
0.00203492
0.00200704
0.00197851
0.00194927
0.00191926
0.00188842
0.00185661
0.0018237
0.00178957
0.00175422
0.00171757
0.00167946
0.00163972
0.00159811
0.00155432
0.00150793
0.00145837
0.00140476
0.00134544
0.00127935
0.0012047
0.00111837
0.00101511
0.000885342
0.000709399
0.000442084
5.59419e-05
0.000102725
0.000940134
0.00167292
0.0022223
0.00265423
0.0030114
0.00331745
0.00358625
0.00382614
0.00404261
0.00423985
0.00442082
0.00458779
0.00474252
0.00488642
0.00502063
0.00514609
0.0052636
0.00537385
0.0054774
0.00557479
0.00566645
0.0057528
0.00583418
0.00591091
0.0059833
0.0060516
0.00611604
0.00617687
0.00623426
0.00628842
0.00633952
0.0063877
0.00643313
0.00647594
0.00651626
0.0065542
0.00658989
0.00662341
0.00665487
0.00668436
0.00671195
0.00673771
0.00676168
0.00678386
0.00680419
0.00682284
0.00683996
0.00685568
0.0068701
0.0068833
0.00689534
0.00690628
0.00691617
0.00692507
0.006933
0.00694002
0.00694616
0.00695146
0.00695595
0.00695967
0.00696265
0.00696491
0.00696649
0.00696742
0.00696771
0.00696739
0.00696649
0.00696502
0.00696302
0.00696049
0.00695746
0.00695394
0.00694995
0.00694552
0.00694064
0.00693534
0.00692963
0.00692352
0.00691702
0.00691015
0.00690291
0.00689531
0.00688736
0.00687906
0.00687044
0.00686148
0.00685219
0.00684259
0.00683267
0.00682244
0.0068119
0.00680105
0.00678989
0.00677843
0.00676666
0.00675459
0.00674221
0.00672952
0.00671653
0.00670322
0.0066896
0.00667567
0.00666141
0.00664684
0.00663193
0.0066167
0.00660113
0.00658522
0.00656896
0.00655235
0.00653538
0.00651805
0.00650035
0.00648227
0.0064638
0.00644495
0.0064257
0.00640604
0.00638597
0.00636548
0.00634456
0.0063232
0.0063014
0.00627914
0.00625642
0.00623324
0.00620957
0.00618541
0.00616076
0.0061356
0.00610992
0.00608372
0.00605699
0.00602971
0.00600188
0.00597349
0.00594453
0.00591498
0.00588484
0.0058541
0.00582274
0.00579076
0.00575815
0.00572488
0.00569096
0.00565637
0.0056211
0.00558514
0.00554846
0.00551107
0.00547294
0.00543406
0.00539442
0.00535399
0.00531276
0.00527072
0.00522784
0.00518411
0.00513949
0.00509397
0.00504753
0.00500012
0.00495173
0.00490233
0.00485186
0.00480031
0.00474761
0.00469373
0.00463862
0.0045822
0.00452443
0.00446521
0.00440447
0.00434211
0.00427802
0.00421206
0.00414408
0.00407388
0.00400123
0.00392587
0.00384752
0.00376595
0.0036808
0.0035916
0.0034978
0.0033987
0.00329338
0.00318066
0.00305894
0.00292604
0.00277887
0.00261353
0.00242537
0.00220674
0.00194594
0.00162437
0.00121179
0.000664158
7.25256e-05
0.000102725
0.000940139
0.00167293
0.00222231
0.00265424
0.00301141
0.00331747
0.00358627
0.00382615
0.00404263
0.00423986
0.00442083
0.0045878
0.00474253
0.00488643
0.00502064
0.0051461
0.00526361
0.00537386
0.00547741
0.0055748
0.00566646
0.00575281
0.00583419
0.00591092
0.00598331
0.0060516
0.00611605
0.00617687
0.00623427
0.00628843
0.00633952
0.00638771
0.00643314
0.00647595
0.00651627
0.00655421
0.00658989
0.00662342
0.00665488
0.00668436
0.00671196
0.00673772
0.00676168
0.00678387
0.0068042
0.00682284
0.00683996
0.00685568
0.0068701
0.0068833
0.00689534
0.00690628
0.00691618
0.00692507
0.006933
0.00694002
0.00694616
0.00695146
0.00695596
0.00695968
0.00696265
0.00696492
0.0069665
0.00696742
0.00696771
0.00696739
0.00696649
0.00696503
0.00696302
0.00696049
0.00695746
0.00695394
0.00694996
0.00694552
0.00694064
0.00693534
0.00692963
0.00692352
0.00691702
0.00691015
0.00690291
0.00689531
0.00688736
0.00687907
0.00687044
0.00686148
0.0068522
0.00684259
0.00683267
0.00682244
0.0068119
0.00680105
0.00678989
0.00677843
0.00676666
0.00675459
0.00674221
0.00672952
0.00671653
0.00670322
0.0066896
0.00667567
0.00666141
0.00664684
0.00663193
0.0066167
0.00660113
0.00658522
0.00656896
0.00655235
0.00653538
0.00651805
0.00650035
0.00648227
0.00646381
0.00644495
0.0064257
0.00640604
0.00638597
0.00636548
0.00634456
0.0063232
0.0063014
0.00627914
0.00625643
0.00623324
0.00620957
0.00618541
0.00616076
0.0061356
0.00610992
0.00608372
0.00605699
0.00602971
0.00600189
0.00597349
0.00594453
0.00591498
0.00588484
0.0058541
0.00582274
0.00579076
0.00575815
0.00572488
0.00569096
0.00565637
0.0056211
0.00558514
0.00554846
0.00551107
0.00547294
0.00543406
0.00539442
0.00535399
0.00531276
0.00527072
0.00522784
0.00518411
0.00513949
0.00509397
0.00504753
0.00500012
0.00495173
0.00490233
0.00485186
0.00480031
0.00474761
0.00469373
0.00463862
0.0045822
0.00452443
0.00446521
0.00440447
0.00434211
0.00427802
0.00421206
0.00414408
0.00407388
0.00400123
0.00392587
0.00384752
0.00376595
0.0036808
0.0035916
0.0034978
0.0033987
0.00329338
0.00318066
0.00305895
0.00292604
0.00277887
0.00261353
0.00242537
0.00220674
0.00194594
0.00162437
0.0012118
0.000664145
7.25253e-05
0.000116249
0.00113827
0.00214304
0.00294174
0.00359307
0.00414196
0.00461672
0.00503547
0.00541017
0.00574907
0.00605813
0.00634181
0.00660351
0.00684589
0.0070711
0.00728089
0.00747674
0.00765989
0.0078314
0.00799223
0.00814318
0.00828498
0.0084183
0.00854371
0.00866176
0.00877293
0.00887766
0.00897636
0.0090694
0.00915713
0.00923987
0.00931791
0.00939152
0.00946096
0.00952645
0.00958821
0.00964645
0.00970135
0.00975307
0.00980179
0.00984763
0.00989073
0.0099312
0.00996913
0.0100046
0.0100376
0.0100683
0.0100969
0.0101236
0.0101483
0.0101714
0.0101928
0.0102126
0.0102309
0.0102478
0.0102633
0.0102776
0.0102906
0.0103024
0.010313
0.0103226
0.0103311
0.0103385
0.010345
0.0103506
0.0103552
0.0103589
0.0103618
0.0103639
0.0103652
0.0103657
0.0103655
0.0103645
0.0103628
0.0103605
0.0103575
0.0103539
0.0103496
0.0103447
0.0103392
0.0103331
0.0103265
0.0103193
0.0103115
0.0103032
0.0102944
0.010285
0.0102752
0.0102648
0.0102538
0.0102424
0.0102305
0.0102181
0.0102052
0.0101917
0.0101778
0.0101634
0.0101484
0.010133
0.010117
0.0101006
0.0100836
0.0100661
0.0100481
0.0100295
0.0100104
0.00999079
0.0099706
0.00994985
0.00992854
0.00990664
0.00988416
0.00986109
0.00983741
0.00981312
0.0097882
0.00976265
0.00973644
0.00970959
0.00968206
0.00965385
0.00962494
0.00959533
0.009565
0.00953393
0.00950212
0.00946955
0.00943621
0.00940207
0.00936714
0.00933139
0.00929481
0.00925739
0.0092191
0.00917993
0.00913987
0.00909891
0.00905701
0.00901418
0.00897038
0.0089256
0.00887983
0.00883305
0.00878523
0.00873635
0.0086864
0.00863536
0.0085832
0.00852989
0.00847543
0.00841977
0.0083629
0.00830479
0.0082454
0.00818471
0.00812269
0.00805931
0.00799451
0.00792828
0.00786056
0.00779132
0.0077205
0.00764806
0.00757393
0.00749806
0.00742038
0.00734081
0.00725929
0.00717572
0.00708999
0.00700202
0.00691166
0.00681879
0.00672325
0.00662486
0.00652342
0.0064187
0.00631041
0.00619824
0.00608181
0.00596069
0.00583441
0.00570241
0.00556403
0.00541845
0.00526464
0.00510132
0.00492689
0.00473934
0.00453602
0.00431352
0.0040673
0.00379142
0.00347851
0.00311797
0.00269479
0.00218777
0.00156805
0.000809221
8.27365e-05
0.000116249
0.00113828
0.00214305
0.00294175
0.00359308
0.00414198
0.00461674
0.00503549
0.00541019
0.00574909
0.00605815
0.00634183
0.00660353
0.00684591
0.00707111
0.00728091
0.00747675
0.0076599
0.00783142
0.00799224
0.00814319
0.008285
0.00841831
0.00854373
0.00866177
0.00877294
0.00887767
0.00897637
0.00906941
0.00915714
0.00923988
0.00931792
0.00939153
0.00946096
0.00952646
0.00958822
0.00964646
0.00970135
0.00975308
0.00980179
0.00984764
0.00989074
0.00993121
0.00996914
0.0100046
0.0100376
0.0100683
0.0100969
0.0101236
0.0101484
0.0101714
0.0101928
0.0102126
0.0102309
0.0102478
0.0102633
0.0102776
0.0102906
0.0103024
0.010313
0.0103226
0.0103311
0.0103385
0.010345
0.0103506
0.0103552
0.0103589
0.0103618
0.0103639
0.0103652
0.0103657
0.0103655
0.0103645
0.0103628
0.0103605
0.0103575
0.0103539
0.0103496
0.0103447
0.0103392
0.0103331
0.0103265
0.0103193
0.0103115
0.0103032
0.0102944
0.010285
0.0102752
0.0102648
0.0102538
0.0102424
0.0102305
0.0102181
0.0102052
0.0101917
0.0101778
0.0101634
0.0101484
0.010133
0.010117
0.0101006
0.0100836
0.0100661
0.0100481
0.0100295
0.0100104
0.00999079
0.0099706
0.00994985
0.00992854
0.00990664
0.00988416
0.00986109
0.00983741
0.00981312
0.0097882
0.00976264
0.00973644
0.00970958
0.00968206
0.00965384
0.00962494
0.00959533
0.00956499
0.00953393
0.00950212
0.00946955
0.0094362
0.00940207
0.00936714
0.00933139
0.00929481
0.00925738
0.0092191
0.00917993
0.00913987
0.0090989
0.00905701
0.00901417
0.00897038
0.0089256
0.00887983
0.00883305
0.00878523
0.00873635
0.0086864
0.00863536
0.0085832
0.00852989
0.00847543
0.00841977
0.0083629
0.00830478
0.0082454
0.00818471
0.00812269
0.0080593
0.00799451
0.00792828
0.00786056
0.00779132
0.0077205
0.00764805
0.00757393
0.00749805
0.00742037
0.00734081
0.00725929
0.00717571
0.00708999
0.00700202
0.00691166
0.00681879
0.00672325
0.00662486
0.00652342
0.0064187
0.00631041
0.00619824
0.00608181
0.00596069
0.00583441
0.00570241
0.00556403
0.00541844
0.00526464
0.00510132
0.00492689
0.00473933
0.00453602
0.00431352
0.0040673
0.00379142
0.00347851
0.00311797
0.00269479
0.00218777
0.00156805
0.000809215
8.27364e-05
0.00012726
0.00127275
0.00247997
0.00348068
0.00431739
0.00503295
0.00565743
0.00621141
0.00670914
0.00716076
0.00757369
0.0079535
0.00830451
0.00863011
0.00893303
0.00921551
0.00947945
0.00972644
0.00995788
0.010175
0.0103788
0.0105703
0.0107503
0.0109197
0.0110792
0.0112293
0.0113707
0.0115041
0.0116297
0.0117483
0.0118601
0.0119656
0.0120652
0.0121592
0.012248
0.0123319
0.0124111
0.0124858
0.0125565
0.0126231
0.0126861
0.0127455
0.0128015
0.0128542
0.0129038
0.0129504
0.0129942
0.0130353
0.0130738
0.01311
0.013144
0.0131759
0.0132058
0.0132337
0.0132599
0.0132843
0.013307
0.0133282
0.0133478
0.013366
0.0133828
0.0133982
0.0134123
0.0134252
0.0134369
0.0134474
0.0134567
0.013465
0.0134722
0.0134784
0.0134836
0.0134878
0.0134911
0.0134934
0.0134949
0.0134955
0.0134953
0.0134942
0.0134923
0.0134896
0.0134861
0.0134819
0.0134769
0.0134712
0.0134647
0.0134575
0.0134496
0.0134409
0.0134316
0.0134215
0.0134108
0.0133994
0.0133872
0.0133744
0.0133609
0.0133467
0.0133317
0.0133161
0.0132998
0.0132827
0.013265
0.0132465
0.0132273
0.0132074
0.0131867
0.0131653
0.0131431
0.0131201
0.0130964
0.0130718
0.0130465
0.0130203
0.0129933
0.0129655
0.0129368
0.0129073
0.0128768
0.0128455
0.0128132
0.01278
0.0127459
0.0127108
0.0126747
0.0126376
0.0125995
0.0125603
0.0125201
0.0124789
0.0124365
0.012393
0.0123484
0.0123026
0.0122557
0.0122075
0.0121582
0.0121075
0.0120557
0.0120025
0.011948
0.0118922
0.011835
0.0117764
0.0117163
0.0116549
0.0115919
0.0115275
0.0114615
0.0113939
0.0113247
0.0112538
0.0111813
0.0111071
0.0110311
0.0109532
0.0108735
0.010792
0.0107084
0.0106229
0.0105352
0.0104455
0.0103535
0.0102593
0.0101627
0.0100637
0.00996214
0.00985796
0.00975105
0.00964127
0.00952849
0.00941258
0.00929335
0.00917064
0.00904423
0.0089139
0.00877937
0.00864034
0.00849647
0.00834735
0.00819253
0.00803147
0.00786354
0.00768804
0.00750412
0.0073108
0.00710685
0.00689081
0.00666086
0.00641475
0.00614969
0.00586214
0.00554764
0.00520055
0.00481359
0.00437746
0.00388031
0.00330622
0.00263476
0.00184223
0.000919285
9.07833e-05
0.00012726
0.00127276
0.00247998
0.00348069
0.00431741
0.00503297
0.00565746
0.00621144
0.00670917
0.00716078
0.00757371
0.00795353
0.00830454
0.00863013
0.00893305
0.00921553
0.00947947
0.00972646
0.0099579
0.010175
0.0103788
0.0105703
0.0107504
0.0109197
0.0110792
0.0112293
0.0113708
0.0115041
0.0116298
0.0117483
0.0118601
0.0119656
0.0120652
0.0121593
0.012248
0.0123319
0.0124111
0.0124858
0.0125565
0.0126231
0.0126861
0.0127455
0.0128015
0.0128542
0.0129038
0.0129504
0.0129942
0.0130353
0.0130738
0.0131101
0.013144
0.0131759
0.0132058
0.0132337
0.0132599
0.0132843
0.013307
0.0133282
0.0133478
0.013366
0.0133828
0.0133982
0.0134123
0.0134252
0.0134369
0.0134474
0.0134567
0.013465
0.0134722
0.0134784
0.0134836
0.0134878
0.0134911
0.0134934
0.0134949
0.0134955
0.0134953
0.0134942
0.0134923
0.0134896
0.0134861
0.0134819
0.0134769
0.0134712
0.0134647
0.0134575
0.0134496
0.0134409
0.0134316
0.0134215
0.0134108
0.0133994
0.0133872
0.0133744
0.0133609
0.0133466
0.0133317
0.0133161
0.0132998
0.0132827
0.013265
0.0132465
0.0132273
0.0132074
0.0131867
0.0131653
0.0131431
0.0131201
0.0130964
0.0130718
0.0130465
0.0130203
0.0129933
0.0129655
0.0129368
0.0129073
0.0128768
0.0128455
0.0128132
0.01278
0.0127459
0.0127108
0.0126747
0.0126376
0.0125995
0.0125603
0.0125201
0.0124789
0.0124365
0.012393
0.0123484
0.0123026
0.0122557
0.0122075
0.0121582
0.0121075
0.0120557
0.0120025
0.011948
0.0118922
0.011835
0.0117764
0.0117163
0.0116549
0.0115919
0.0115275
0.0114615
0.0113939
0.0113247
0.0112538
0.0111813
0.0111071
0.011031
0.0109532
0.0108735
0.010792
0.0107084
0.0106229
0.0105352
0.0104455
0.0103535
0.0102593
0.0101627
0.0100637
0.00996214
0.00985796
0.00975104
0.00964126
0.00952849
0.00941257
0.00929335
0.00917064
0.00904423
0.00891389
0.00877936
0.00864034
0.00849646
0.00834735
0.00819253
0.00803146
0.00786354
0.00768803
0.00750412
0.0073108
0.00710685
0.00689081
0.00666086
0.00641475
0.00614968
0.00586214
0.00554764
0.00520055
0.00481359
0.00437746
0.00388031
0.00330622
0.00263476
0.00184223
0.000919282
9.07833e-05
0.000136572
0.00137898
0.00274094
0.00390386
0.00489425
0.00575128
0.00650513
0.00717761
0.00778439
0.00833687
0.00884356
0.00931088
0.00974383
0.0101463
0.0105216
0.0108723
0.0112005
0.0115082
0.0117969
0.0120682
0.0123232
0.0125631
0.0127889
0.0130015
0.0132019
0.0133907
0.0135688
0.0137367
0.0138952
0.0140448
0.014186
0.0143194
0.0144455
0.0145646
0.0146772
0.0147837
0.0148844
0.0149797
0.0150698
0.0151551
0.0152358
0.0153121
0.0153843
0.0154525
0.015517
0.0155779
0.0156354
0.0156896
0.0157409
0.0157893
0.015835
0.0158781
0.0159188
0.0159572
0.0159934
0.0160275
0.0160596
0.0160897
0.0161181
0.0161447
0.0161696
0.0161928
0.0162145
0.0162347
0.0162535
0.0162708
0.0162867
0.0163014
0.0163147
0.0163268
0.0163377
0.0163475
0.0163561
0.0163635
0.0163699
0.0163752
0.0163795
0.0163828
0.016385
0.0163863
0.0163866
0.016386
0.0163844
0.0163819
0.0163784
0.0163741
0.0163688
0.0163627
0.0163557
0.0163478
0.016339
0.0163293
0.0163187
0.0163073
0.016295
0.0162818
0.0162677
0.0162527
0.0162368
0.01622
0.0162023
0.0161836
0.0161641
0.0161436
0.0161221
0.0160997
0.0160763
0.0160519
0.0160265
0.0160001
0.0159727
0.0159442
0.0159147
0.015884
0.0158523
0.0158195
0.0157855
0.0157504
0.0157141
0.0156766
0.0156379
0.015598
0.0155568
0.0155143
0.0154705
0.0154254
0.0153789
0.0153311
0.0152818
0.0152312
0.015179
0.0151254
0.0150703
0.0150136
0.0149554
0.0148956
0.0148341
0.014771
0.0147061
0.0146396
0.0145713
0.0145011
0.0144292
0.0143553
0.0142796
0.0142018
0.0141221
0.0140404
0.0139565
0.0138705
0.0137823
0.0136918
0.0135991
0.0135039
0.0134064
0.0133063
0.0132037
0.0130985
0.0129905
0.0128797
0.012766
0.0126493
0.0125295
0.0124065
0.0122802
0.0121503
0.0120168
0.0118796
0.0117383
0.0115929
0.011443
0.0112886
0.0111292
0.0109645
0.0107943
0.010618
0.0104353
0.0102456
0.0100484
0.00984278
0.00962808
0.00940333
0.0091674
0.00891899
0.00865651
0.00837809
0.0080814
0.00776367
0.00742144
0.00705051
0.00664562
0.00620028
0.00570634
0.00515365
0.00452994
0.00381964
0.00300445
0.00206627
0.00100956
9.75708e-05
0.000136572
0.00137898
0.00274095
0.00390388
0.00489427
0.0057513
0.00650516
0.00717764
0.00778441
0.0083369
0.00884359
0.00931091
0.00974385
0.0101464
0.0105216
0.0108723
0.0112005
0.0115082
0.011797
0.0120682
0.0123232
0.0125631
0.0127889
0.0130016
0.0132019
0.0133907
0.0135688
0.0137368
0.0138952
0.0140448
0.0141861
0.0143195
0.0144455
0.0145646
0.0146772
0.0147837
0.0148844
0.0149797
0.0150698
0.0151551
0.0152358
0.0153121
0.0153843
0.0154525
0.015517
0.0155779
0.0156354
0.0156896
0.0157409
0.0157893
0.015835
0.0158781
0.0159188
0.0159572
0.0159934
0.0160275
0.0160596
0.0160898
0.0161181
0.0161447
0.0161696
0.0161928
0.0162145
0.0162347
0.0162535
0.0162708
0.0162867
0.0163014
0.0163147
0.0163268
0.0163377
0.0163475
0.0163561
0.0163635
0.0163699
0.0163752
0.0163795
0.0163828
0.016385
0.0163863
0.0163866
0.016386
0.0163844
0.0163819
0.0163784
0.0163741
0.0163688
0.0163627
0.0163557
0.0163478
0.016339
0.0163293
0.0163187
0.0163073
0.016295
0.0162818
0.0162677
0.0162527
0.0162368
0.01622
0.0162023
0.0161836
0.0161641
0.0161436
0.0161221
0.0160997
0.0160763
0.0160519
0.0160265
0.0160001
0.0159727
0.0159442
0.0159147
0.015884
0.0158523
0.0158195
0.0157855
0.0157504
0.0157141
0.0156766
0.0156379
0.015598
0.0155568
0.0155143
0.0154705
0.0154254
0.0153789
0.0153311
0.0152818
0.0152312
0.015179
0.0151254
0.0150703
0.0150136
0.0149554
0.0148956
0.0148341
0.014771
0.0147061
0.0146396
0.0145713
0.0145011
0.0144292
0.0143553
0.0142796
0.0142018
0.0141221
0.0140404
0.0139565
0.0138705
0.0137823
0.0136918
0.0135991
0.0135039
0.0134064
0.0133063
0.0132037
0.0130985
0.0129905
0.0128797
0.012766
0.0126493
0.0125295
0.0124065
0.0122802
0.0121503
0.0120168
0.0118796
0.0117383
0.0115929
0.011443
0.0112886
0.0111292
0.0109645
0.0107943
0.010618
0.0104353
0.0102456
0.0100484
0.00984278
0.00962808
0.00940332
0.0091674
0.00891898
0.00865651
0.00837808
0.0080814
0.00776366
0.00742144
0.00705051
0.00664562
0.00620028
0.00570634
0.00515365
0.00452994
0.00381965
0.00300445
0.00206627
0.00100956
9.75708e-05
0.000144805
0.00146975
0.00295596
0.00425079
0.00536867
0.00634513
0.00720981
0.00798502
0.00868729
0.0093289
0.00991911
0.010465
0.010972
0.0114446
0.0118862
0.0122999
0.0126879
0.0130524
0.0133952
0.0137178
0.0140216
0.014308
0.0145779
0.0148326
0.0150728
0.0152996
0.0155138
0.015716
0.0159071
0.0160876
0.0162583
0.0164197
0.0165724
0.0167169
0.0168537
0.0169832
0.0171059
0.0172221
0.0173322
0.0174365
0.0175355
0.0176293
0.0177182
0.0178025
0.0178823
0.017958
0.0180298
0.0180978
0.0181622
0.0182233
0.0182813
0.0183362
0.0183883
0.0184377
0.0184845
0.0185289
0.0185709
0.0186107
0.0186483
0.0186839
0.0187175
0.0187492
0.0187791
0.0188072
0.0188336
0.0188584
0.0188816
0.0189032
0.0189234
0.0189421
0.0189594
0.0189753
0.0189899
0.0190032
0.0190152
0.019026
0.0190355
0.0190439
0.019051
0.019057
0.0190619
0.0190657
0.0190683
0.0190698
0.0190702
0.0190696
0.0190679
0.0190651
0.0190612
0.0190563
0.0190504
0.0190433
0.0190353
0.0190261
0.0190159
0.0190046
0.0189923
0.0189788
0.0189643
0.0189487
0.018932
0.0189141
0.0188952
0.0188751
0.0188538
0.0188314
0.0188078
0.0187829
0.0187569
0.0187296
0.0187011
0.0186713
0.0186403
0.0186079
0.0185741
0.018539
0.0185026
0.0184647
0.0184254
0.0183847
0.0183424
0.0182987
0.0182534
0.0182066
0.0181582
0.0181082
0.0180565
0.0180031
0.017948
0.0178912
0.0178326
0.0177722
0.01771
0.0176458
0.0175798
0.0175118
0.0174418
0.0173697
0.0172956
0.0172194
0.0171409
0.0170603
0.0169774
0.0168922
0.0168047
0.0167147
0.0166223
0.0165273
0.0164298
0.0163296
0.0162267
0.016121
0.0160125
0.015901
0.0157866
0.015669
0.0155482
0.0154242
0.0152968
0.0151659
0.0150314
0.0148931
0.014751
0.0146048
0.0144545
0.0142998
0.0141406
0.0139767
0.0138077
0.0136336
0.0134539
0.0132684
0.0130768
0.0128786
0.0126734
0.0124607
0.0122399
0.0120103
0.0117713
0.0115219
0.0112612
0.0109879
0.0107007
0.0103981
0.010078
0.00973835
0.00937628
0.00898857
0.0085713
0.00811968
0.00762793
0.007089
0.00649432
0.00583348
0.00509408
0.0042616
0.00332018
0.00225686
0.00108695
0.000103507
0.000144805
0.00146976
0.00295597
0.00425081
0.00536869
0.00634516
0.00720983
0.00798504
0.00868731
0.00932893
0.00991913
0.010465
0.010972
0.0114446
0.0118863
0.0122999
0.0126879
0.0130524
0.0133952
0.0137178
0.0140217
0.014308
0.014578
0.0148326
0.0150729
0.0152997
0.0155138
0.015716
0.0159071
0.0160876
0.0162583
0.0164198
0.0165725
0.016717
0.0168537
0.0169832
0.0171059
0.0172221
0.0173322
0.0174365
0.0175355
0.0176293
0.0177182
0.0178025
0.0178823
0.0179581
0.0180298
0.0180978
0.0181622
0.0182233
0.0182813
0.0183362
0.0183883
0.0184377
0.0184845
0.0185289
0.0185709
0.0186107
0.0186483
0.0186839
0.0187175
0.0187492
0.0187791
0.0188072
0.0188336
0.0188584
0.0188816
0.0189032
0.0189234
0.0189421
0.0189594
0.0189753
0.0189899
0.0190032
0.0190152
0.019026
0.0190355
0.0190439
0.019051
0.019057
0.0190619
0.0190657
0.0190683
0.0190698
0.0190702
0.0190696
0.0190679
0.0190651
0.0190612
0.0190563
0.0190504
0.0190433
0.0190353
0.0190261
0.0190159
0.0190046
0.0189923
0.0189788
0.0189643
0.0189487
0.018932
0.0189141
0.0188952
0.0188751
0.0188538
0.0188314
0.0188078
0.0187829
0.0187569
0.0187296
0.0187011
0.0186713
0.0186403
0.0186079
0.0185741
0.018539
0.0185026
0.0184647
0.0184254
0.0183847
0.0183424
0.0182987
0.0182534
0.0182066
0.0181582
0.0181082
0.0180565
0.0180031
0.017948
0.0178912
0.0178326
0.0177722
0.01771
0.0176458
0.0175798
0.0175118
0.0174418
0.0173697
0.0172956
0.0172194
0.0171409
0.0170603
0.0169774
0.0168922
0.0168047
0.0167147
0.0166223
0.0165273
0.0164298