/*--------------------------------*- C++ -*----------------------------------*\
  =========                 |
  \\      /  F ield         | OpenFOAM: The Open Source CFD Toolbox
   \\    /   O peration     | Website:  https://openfoam.org
    \\  /    A nd           | Version:  8
     \\/     M anipulation  |
\*---------------------------------------------------------------------------*/
FoamFile
{
    version     2.0;
    format      ascii;
    class       volScalarField;
    location    "4700";
    object      nut;
}
// * * * * * * * * * * * * * * * * * * * * * * * * * * * * * * * * * * * * * //

dimensions      [0 2 -1 0 0 0 0];

internalField   nonuniform List<scalar> 
48000
(
5.45696e-05
9.52529e-05
0.000117979
0.000134659
0.000148542
0.000160322
0.00017056
0.00017964
0.000187909
0.00019563
0.00020277
0.000209452
0.000215734
0.000221663
0.000227276
0.000232602
0.000237666
0.000242488
0.000247082
0.000251464
0.000255643
0.000259629
0.000263431
0.000267056
0.00027051
0.000273799
0.000276929
0.000279903
0.000282728
0.000285406
0.000287942
0.00029034
0.000292604
0.000294738
0.000296745
0.000298629
0.000300394
0.000302043
0.000303579
0.000305007
0.000306329
0.00030755
0.000308671
0.000309697
0.000310631
0.00031149
0.000312273
0.000312974
0.000313596
0.000314141
0.000314612
0.000315014
0.000315349
0.00031562
0.000315831
0.000315984
0.000316082
0.000316127
0.000316123
0.000316072
0.000315976
0.000315837
0.000315659
0.000315442
0.00031519
0.000314903
0.000314585
0.000314236
0.000313858
0.000313453
0.000313023
0.000312569
0.000312092
0.000311594
0.000311075
0.000310537
0.000309982
0.000309409
0.00030882
0.000308215
0.000307596
0.000306964
0.000306318
0.000305659
0.000304988
0.000304306
0.000303612
0.000302908
0.000302193
0.000301468
0.000300733
0.000299989
0.000299234
0.000298471
0.000297698
0.000296916
0.000296124
0.000295324
0.000294514
0.000293694
0.000292865
0.000292027
0.000291179
0.000290321
0.000289453
0.000288575
0.000287686
0.000286787
0.000285877
0.000284956
0.000284023
0.000283078
0.000282121
0.000281152
0.00028017
0.000279175
0.000278167
0.000277145
0.000276109
0.000275058
0.000273993
0.000272912
0.000271815
0.000270703
0.000269574
0.000268428
0.000267265
0.000266085
0.000264886
0.000263669
0.000262434
0.000261179
0.000259904
0.00025861
0.000257295
0.000255959
0.000254602
0.000253223
0.000251823
0.0002504
0.000248954
0.000247485
0.000245992
0.000244476
0.000242935
0.000241369
0.000239779
0.000238163
0.00023652
0.000234852
0.000233157
0.000231434
0.000229685
0.000227907
0.0002261
0.000224265
0.0002224
0.000220505
0.00021858
0.000216623
0.000214635
0.000212615
0.000210561
0.000208473
0.000206351
0.000204193
0.000201999
0.000199766
0.000197495
0.000195183
0.00019283
0.000190432
0.000187989
0.000185499
0.000182958
0.000180364
0.000177714
0.000175004
0.000172232
0.000169395
0.0001665
0.000163541
0.000160493
0.000157344
0.000154082
0.000150694
0.000147161
0.000143462
0.00013957
0.000135448
0.000131052
0.000126347
0.000121261
0.000115657
0.000109361
0.000102092
9.33404e-05
8.19008e-05
6.24606e-05
8.18658e-05
5.45699e-05
9.52531e-05
0.00011798
0.000134659
0.000148542
0.000160322
0.00017056
0.00017964
0.000187909
0.00019563
0.00020277
0.000209452
0.000215735
0.000221663
0.000227276
0.000232602
0.000237666
0.000242488
0.000247082
0.000251464
0.000255643
0.000259629
0.000263431
0.000267056
0.00027051
0.000273799
0.000276929
0.000279903
0.000282728
0.000285406
0.000287942
0.00029034
0.000292604
0.000294738
0.000296745
0.000298629
0.000300394
0.000302043
0.000303579
0.000305007
0.000306329
0.00030755
0.000308671
0.000309697
0.000310631
0.00031149
0.000312273
0.000312974
0.000313596
0.000314141
0.000314612
0.000315014
0.000315349
0.00031562
0.000315831
0.000315984
0.000316082
0.000316127
0.000316123
0.000316072
0.000315976
0.000315837
0.000315659
0.000315442
0.00031519
0.000314903
0.000314585
0.000314236
0.000313858
0.000313453
0.000313023
0.000312569
0.000312092
0.000311594
0.000311075
0.000310537
0.000309982
0.000309409
0.00030882
0.000308215
0.000307596
0.000306964
0.000306318
0.000305659
0.000304988
0.000304306
0.000303612
0.000302908
0.000302193
0.000301468
0.000300733
0.000299989
0.000299234
0.000298471
0.000297698
0.000296916
0.000296124
0.000295324
0.000294514
0.000293694
0.000292865
0.000292027
0.000291179
0.000290321
0.000289453
0.000288575
0.000287686
0.000286787
0.000285877
0.000284956
0.000284023
0.000283078
0.000282121
0.000281152
0.00028017
0.000279175
0.000278167
0.000277145
0.000276109
0.000275058
0.000273993
0.000272912
0.000271815
0.000270703
0.000269574
0.000268428
0.000267265
0.000266085
0.000264886
0.000263669
0.000262434
0.000261179
0.000259904
0.00025861
0.000257295
0.000255959
0.000254602
0.000253223
0.000251823
0.0002504
0.000248954
0.000247485
0.000245992
0.000244476
0.000242935
0.000241369
0.000239779
0.000238163
0.00023652
0.000234852
0.000233157
0.000231434
0.000229685
0.000227907
0.0002261
0.000224265
0.0002224
0.000220505
0.00021858
0.000216623
0.000214635
0.000212615
0.000210561
0.000208473
0.000206351
0.000204193
0.000201999
0.000199766
0.000197495
0.000195183
0.00019283
0.000190432
0.000187989
0.000185499
0.000182958
0.000180364
0.000177714
0.000175004
0.000172232
0.000169395
0.0001665
0.000163541
0.000160493
0.000157344
0.000154082
0.000150694
0.000147161
0.000143462
0.00013957
0.000135448
0.000131052
0.000126347
0.000121261
0.000115657
0.000109361
0.000102092
9.33403e-05
8.18999e-05
6.24591e-05
8.18565e-05
8.30065e-05
0.00061591
0.000974615
0.00122502
0.0014141
0.00156693
0.00169781
0.00181295
0.00191584
0.00200859
0.00209351
0.0021718
0.00224445
0.00231218
0.00237558
0.0024351
0.00249112
0.00254395
0.00259385
0.00264103
0.00268568
0.00272797
0.00276804
0.00280601
0.002842
0.00287611
0.00290843
0.00293904
0.00296802
0.00299544
0.00302137
0.00304586
0.00306898
0.00309078
0.0031113
0.00313061
0.00314874
0.00316574
0.00318165
0.00319651
0.00321037
0.00322324
0.00323517
0.00324618
0.00325622
0.00326514
0.0032731
0.00328026
0.0032867
0.00329247
0.00329761
0.00330214
0.0033061
0.00330951
0.0033124
0.00331479
0.00331671
0.00331816
0.00331918
0.00331978
0.00331999
0.00331981
0.00331927
0.00331838
0.00331716
0.00331562
0.00331378
0.00331165
0.00330924
0.00330657
0.00330365
0.00330049
0.00329709
0.00329348
0.00328965
0.00328562
0.0032814
0.00327699
0.0032724
0.00326763
0.0032627
0.00325761
0.00325237
0.00324697
0.00324142
0.00323573
0.00322991
0.00322394
0.00321785
0.00321162
0.00320526
0.00319878
0.00319217
0.00318544
0.00317858
0.0031716
0.00316449
0.00315726
0.00314991
0.00314243
0.00313482
0.00312709
0.00311923
0.00311125
0.00310313
0.00309487
0.00308648
0.00307796
0.00306929
0.00306048
0.00305153
0.00304242
0.00303317
0.00302376
0.00301419
0.00300447
0.00299458
0.00298452
0.00297429
0.00296388
0.0029533
0.00294253
0.00293158
0.00292044
0.00290911
0.00289757
0.00288584
0.0028739
0.00286175
0.00284939
0.00283681
0.00282401
0.00281098
0.00279772
0.00278423
0.0027705
0.00275653
0.00274231
0.00272784
0.00271312
0.00269814
0.0026829
0.00266739
0.00265161
0.00263555
0.00261922
0.00260259
0.00258569
0.00256848
0.00255098
0.00253318
0.00251507
0.00249664
0.0024779
0.00245883
0.00243943
0.0024197
0.00239962
0.0023792
0.00235841
0.00233726
0.00231574
0.00229383
0.00227153
0.00224882
0.0022257
0.00220214
0.00217814
0.00215368
0.00212873
0.00210329
0.00207731
0.00205079
0.00202368
0.00199596
0.00196759
0.00193851
0.00190867
0.00187799
0.00184636
0.00181363
0.00177969
0.00174454
0.00170809
0.00167019
0.00163067
0.00158929
0.00154574
0.0014996
0.00145032
0.00139701
0.00133801
0.00127229
0.00119805
0.0011122
0.00100951
0.000880446
0.000705465
0.000439649
5.56342e-05
8.30067e-05
0.000615915
0.000974622
0.00122502
0.00141411
0.00156694
0.00169782
0.00181296
0.00191585
0.0020086
0.00209351
0.00217181
0.00224445
0.00231218
0.00237558
0.00243511
0.00249113
0.00254396
0.00259385
0.00264103
0.00268568
0.00272797
0.00276804
0.00280601
0.00284201
0.00287611
0.00290843
0.00293904
0.00296803
0.00299545
0.00302137
0.00304587
0.00306899
0.00309078
0.00311131
0.00313061
0.00314874
0.00316574
0.00318166
0.00319652
0.00321037
0.00322325
0.00323518
0.00324618
0.00325623
0.00326514
0.0032731
0.00328027
0.0032867
0.00329247
0.00329761
0.00330214
0.00330611
0.00330952
0.00331241
0.0033148
0.00331671
0.00331817
0.00331918
0.00331979
0.00331999
0.00331981
0.00331927
0.00331838
0.00331716
0.00331562
0.00331378
0.00331165
0.00330925
0.00330658
0.00330366
0.00330049
0.0032971
0.00329348
0.00328966
0.00328563
0.0032814
0.00327699
0.0032724
0.00326764
0.00326271
0.00325762
0.00325237
0.00324697
0.00324143
0.00323574
0.00322991
0.00322395
0.00321785
0.00321162
0.00320527
0.00319878
0.00319217
0.00318544
0.00317858
0.0031716
0.00316449
0.00315726
0.00314991
0.00314243
0.00313483
0.0031271
0.00311924
0.00311125
0.00310313
0.00309488
0.00308649
0.00307796
0.00306929
0.00306048
0.00305153
0.00304243
0.00303317
0.00302376
0.0030142
0.00300447
0.00299458
0.00298452
0.00297429
0.00296389
0.0029533
0.00294254
0.00293159
0.00292044
0.00290911
0.00289758
0.00288584
0.0028739
0.00286175
0.00284939
0.00283681
0.00282401
0.00281098
0.00279772
0.00278423
0.0027705
0.00275653
0.00274231
0.00272785
0.00271313
0.00269815
0.0026829
0.00266739
0.00265161
0.00263555
0.00261922
0.0026026
0.00258569
0.00256848
0.00255098
0.00253318
0.00251507
0.00249664
0.0024779
0.00245883
0.00243944
0.0024197
0.00239963
0.0023792
0.00235842
0.00233727
0.00231574
0.00229384
0.00227153
0.00224883
0.0022257
0.00220215
0.00217815
0.00215368
0.00212874
0.00210329
0.00207732
0.00205079
0.00202369
0.00199597
0.00196759
0.00193851
0.00190867
0.00187799
0.00184637
0.00181363
0.00177969
0.00174454
0.00170809
0.0016702
0.00163067
0.00158929
0.00154574
0.00149961
0.00145033
0.00139701
0.00133801
0.00127229
0.00119805
0.0011122
0.00100951
0.000880456
0.000705484
0.000439644
5.56332e-05
0.000102161
0.00093497
0.00166373
0.00221009
0.00263965
0.00299486
0.00329923
0.00356656
0.00380512
0.00402041
0.00421656
0.00439654
0.00456259
0.00471647
0.00485958
0.00499305
0.00511782
0.00523469
0.00534433
0.00544731
0.00554417
0.00563533
0.00572119
0.00580213
0.00587844
0.00595043
0.00601835
0.00608244
0.00614293
0.00620001
0.00625387
0.00630468
0.0063526
0.00639778
0.00644035
0.00648045
0.00651818
0.00655367
0.006587
0.00661829
0.00664762
0.00667505
0.00670067
0.00672451
0.00674656
0.00676678
0.00678532
0.00680235
0.00681798
0.00683232
0.00684544
0.00685742
0.0068683
0.00687813
0.00688697
0.00689486
0.00690184
0.00690794
0.00691321
0.00691768
0.00692138
0.00692434
0.00692659
0.00692815
0.00692907
0.00692936
0.00692904
0.00692814
0.00692668
0.00692468
0.00692217
0.00691915
0.00691565
0.00691169
0.00690727
0.00690242
0.00689714
0.00689146
0.00688538
0.00687892
0.00687208
0.00686488
0.00685732
0.00684941
0.00684116
0.00683258
0.00682367
0.00681444
0.00680488
0.00679502
0.00678484
0.00677435
0.00676356
0.00675247
0.00674106
0.00672936
0.00671735
0.00670504
0.00669242
0.0066795
0.00666626
0.00665272
0.00663886
0.00662468
0.00661019
0.00659536
0.00658021
0.00656473
0.0065489
0.00653273
0.00651621
0.00649934
0.0064821
0.00646449
0.00644651
0.00642815
0.0064094
0.00639026
0.00637071
0.00635074
0.00633037
0.00630956
0.00628832
0.00626664
0.0062445
0.00622191
0.00619885
0.00617531
0.00615129
0.00612677
0.00610175
0.00607621
0.00605016
0.00602357
0.00599645
0.00596877
0.00594053
0.00591173
0.00588234
0.00585237
0.0058218
0.00579061
0.00575881
0.00572637
0.00569329
0.00565956
0.00562516
0.00559008
0.00555432
0.00551785
0.00548066
0.00544274
0.00540407
0.00536465
0.00532444
0.00528345
0.00524164
0.00519899
0.0051555
0.00511113
0.00506586
0.00501967
0.00497253
0.00492441
0.00487527
0.00482509
0.00477381
0.00472141
0.00466783
0.00461302
0.00455692
0.00449946
0.00444057
0.00438017
0.00431815
0.00425441
0.00418882
0.00412121
0.0040514
0.00397915
0.0039042
0.00382629
0.00374517
0.00366048
0.00357178
0.0034785
0.00337994
0.00327521
0.00316311
0.00304206
0.00290989
0.00276354
0.00259911
0.00241198
0.00219456
0.0019352
0.00161541
0.00120511
0.000660493
7.21253e-05
0.000102161
0.000934976
0.00166374
0.00221011
0.00263966
0.00299487
0.00329925
0.00356657
0.00380514
0.00402042
0.00421657
0.00439655
0.0045626
0.00471649
0.00485959
0.00499306
0.00511784
0.0052347
0.00534434
0.00544732
0.00554417
0.00563533
0.0057212
0.00580213
0.00587845
0.00595043
0.00601835
0.00608245
0.00614293
0.00620002
0.00625388
0.00630469
0.00635261
0.00639779
0.00644036
0.00648045
0.00651819
0.00655367
0.00658701
0.0066183
0.00664762
0.00667506
0.00670067
0.00672451
0.00674657
0.00676679
0.00678533
0.00680235
0.00681798
0.00683232
0.00684545
0.00685742
0.0068683
0.00687814
0.00688698
0.00689486
0.00690184
0.00690795
0.00691322
0.00691768
0.00692138
0.00692434
0.00692659
0.00692816
0.00692907
0.00692936
0.00692904
0.00692814
0.00692668
0.00692469
0.00692217
0.00691915
0.00691565
0.00691169
0.00690727
0.00690242
0.00689715
0.00689146
0.00688539
0.00687892
0.00687208
0.00686488
0.00685732
0.00684941
0.00684116
0.00683258
0.00682367
0.00681444
0.00680489
0.00679502
0.00678484
0.00677436
0.00676356
0.00675247
0.00674107
0.00672936
0.00671735
0.00670504
0.00669242
0.0066795
0.00666626
0.00665272
0.00663886
0.00662468
0.00661019
0.00659536
0.00658021
0.00656473
0.0065489
0.00653273
0.00651621
0.00649934
0.0064821
0.00646449
0.00644651
0.00642815
0.0064094
0.00639026
0.00637071
0.00635075
0.00633037
0.00630956
0.00628832
0.00626664
0.0062445
0.00622191
0.00619885
0.00617531
0.00615129
0.00612677
0.00610175
0.00607621
0.00605016
0.00602357
0.00599645
0.00596877
0.00594053
0.00591173
0.00588234
0.00585237
0.0058218
0.00579061
0.00575881
0.00572637
0.00569329
0.00565956
0.00562516
0.00559009
0.00555432
0.00551785
0.00548066
0.00544274
0.00540407
0.00536465
0.00532445
0.00528345
0.00524164
0.00519899
0.0051555
0.00511113
0.00506586
0.00501967
0.00497253
0.00492441
0.00487527
0.00482509
0.00477382
0.00472141
0.00466783
0.00461302
0.00455692
0.00449946
0.00444057
0.00438017
0.00431815
0.00425441
0.00418882
0.00412121
0.0040514
0.00397915
0.0039042
0.00382629
0.00374517
0.00366048
0.00357178
0.0034785
0.00337994
0.00327521
0.00316311
0.00304206
0.00290989
0.00276354
0.00259911
0.00241198
0.00219456
0.0019352
0.00161541
0.00120511
0.000660479
7.21251e-05
0.00011561
0.00113202
0.00213127
0.00292558
0.00357333
0.00411921
0.00459136
0.00500781
0.00538046
0.00571749
0.00602486
0.00630698
0.00656724
0.00680829
0.00703226
0.0072409
0.00743567
0.00761781
0.00778839
0.00794832
0.00809844
0.00823947
0.00837205
0.00849678
0.00861417
0.00872473
0.00882888
0.00892704
0.00901957
0.00910682
0.0091891
0.00926671
0.00933991
0.00940896
0.00947409
0.00953552
0.00959343
0.00964802
0.00969946
0.00974791
0.0097935
0.00983636
0.00987661
0.00991433
0.00994958
0.00998241
0.010013
0.0100414
0.0100679
0.0100925
0.0101154
0.0101367
0.0101564
0.0101746
0.0101914
0.0102069
0.010221
0.010234
0.0102457
0.0102563
0.0102658
0.0102742
0.0102816
0.0102881
0.0102936
0.0102982
0.0103019
0.0103048
0.0103069
0.0103081
0.0103086
0.0103084
0.0103074
0.0103058
0.0103035
0.0103005
0.0102968
0.0102926
0.0102877
0.0102823
0.0102762
0.0102696
0.0102624
0.0102547
0.0102465
0.0102377
0.0102284
0.0102185
0.0102082
0.0101973
0.010186
0.0101741
0.0101618
0.0101489
0.0101355
0.0101217
0.0101073
0.0100925
0.0100771
0.0100613
0.0100449
0.010028
0.0100106
0.00999268
0.00997422
0.00995523
0.0099357
0.00991562
0.00989498
0.00987378
0.00985201
0.00982965
0.0098067
0.00978315
0.00975899
0.00973421
0.0097088
0.00968274
0.00965603
0.00962865
0.00960059
0.00957184
0.0095424
0.00951223
0.00948134
0.0094497
0.00941731
0.00938415
0.0093502
0.00931546
0.00927991
0.00924353
0.00920631
0.00916823
0.00912928
0.00908944
0.0090487
0.00900704
0.00896444
0.00892088
0.00887635
0.00883084
0.00878431
0.00873675
0.00868815
0.00863847
0.00858771
0.00853583
0.00848283
0.00842866
0.00837331
0.00831675
0.00825896
0.0081999
0.00813955
0.00807787
0.00801483
0.0079504
0.00788453
0.00781719
0.00774832
0.0076779
0.00760585
0.00753213
0.00745668
0.00737943
0.0073003
0.00721923
0.00713612
0.00705087
0.00696338
0.00687352
0.00678116
0.00668615
0.0065883
0.00648742
0.00638328
0.00627559
0.00616403
0.00604825
0.0059278
0.00580221
0.00567094
0.00553332
0.00538854
0.00523558
0.00507317
0.0048997
0.00471318
0.00451099
0.00428971
0.00404486
0.00377049
0.00345932
0.00310076
0.00267992
0.00217569
0.0015594
0.000804755
8.22799e-05
0.000115611
0.00113203
0.00213128
0.0029256
0.00357335
0.00411923
0.00459138
0.00500783
0.00538048
0.00571751
0.00602488
0.006307
0.00656726
0.0068083
0.00703227
0.00724091
0.00743568
0.00761783
0.0077884
0.00794834
0.00809846
0.00823948
0.00837206
0.00849679
0.00861419
0.00872474
0.00882889
0.00892705
0.00901958
0.00910683
0.00918911
0.00926672
0.00933992
0.00940897
0.0094741
0.00953552
0.00959344
0.00964803
0.00969947
0.00974791
0.0097935
0.00983636
0.00987661
0.00991433
0.00994958
0.00998241
0.010013
0.0100414
0.0100679
0.0100925
0.0101154
0.0101367
0.0101564
0.0101746
0.0101914
0.0102069
0.010221
0.010234
0.0102457
0.0102563
0.0102658
0.0102742
0.0102816
0.0102881
0.0102936
0.0102982
0.0103019
0.0103048
0.0103069
0.0103081
0.0103086
0.0103084
0.0103074
0.0103058
0.0103035
0.0103005
0.0102968
0.0102926
0.0102877
0.0102823
0.0102762
0.0102696
0.0102624
0.0102547
0.0102465
0.0102377
0.0102284
0.0102185
0.0102082
0.0101973
0.010186
0.0101741
0.0101618
0.0101489
0.0101355
0.0101217
0.0101073
0.0100925
0.0100771
0.0100613
0.0100449
0.010028
0.0100106
0.00999268
0.00997422
0.00995523
0.0099357
0.00991562
0.00989498
0.00987378
0.00985201
0.00982965
0.0098067
0.00978315
0.00975899
0.00973421
0.0097088
0.00968274
0.00965603
0.00962865
0.00960059
0.00957184
0.00954239
0.00951223
0.00948133
0.0094497
0.00941731
0.00938415
0.0093502
0.00931546
0.00927991
0.00924353
0.00920631
0.00916823
0.00912928
0.00908944
0.0090487
0.00900704
0.00896444
0.00892088
0.00887635
0.00883083
0.00878431
0.00873675
0.00868814
0.00863847
0.00858771
0.00853583
0.00848282
0.00842866
0.00837331
0.00831675
0.00825895
0.0081999
0.00813955
0.00807787
0.00801483
0.0079504
0.00788453
0.00781718
0.00774832
0.00767789
0.00760585
0.00753213
0.00745668
0.00737942
0.0073003
0.00721923
0.00713611
0.00705087
0.00696337
0.00687352
0.00678116
0.00668615
0.0065883
0.00648742
0.00638327
0.00627558
0.00616403
0.00604825
0.0059278
0.00580221
0.00567094
0.00553332
0.00538854
0.00523558
0.00507317
0.0048997
0.00471318
0.00451099
0.00428971
0.00404486
0.00377049
0.00345932
0.00310076
0.00267992
0.00217569
0.0015594
0.000804749
8.22798e-05
0.000126561
0.00126576
0.00246635
0.00346156
0.00429367
0.00500531
0.00562636
0.0061773
0.00667229
0.00712143
0.00753209
0.00790982
0.0082589
0.00858271
0.00888396
0.00916489
0.00942738
0.00967302
0.00990318
0.0101191
0.0103218
0.0105122
0.0106913
0.0108597
0.0110183
0.0111676
0.0113083
0.0114408
0.0115658
0.0116837
0.0117949
0.0118999
0.0119989
0.0120924
0.0121807
0.0122641
0.0123428
0.0124172
0.0124874
0.0125537
0.0126163
0.0126754
0.0127311
0.0127835
0.0128329
0.0128792
0.0129227
0.0129636
0.0130019
0.0130379
0.0130717
0.0131034
0.0131331
0.0131609
0.0131869
0.0132112
0.0132338
0.0132549
0.0132744
0.0132925
0.0133091
0.0133245
0.0133385
0.0133513
0.0133629
0.0133733
0.0133827
0.0133909
0.013398
0.0134042
0.0134093
0.0134135
0.0134168
0.0134191
0.0134206
0.0134212
0.0134209
0.0134199
0.013418
0.0134153
0.0134119
0.0134076
0.0134027
0.0133969
0.0133905
0.0133833
0.0133755
0.0133669
0.0133576
0.0133476
0.0133369
0.0133255
0.0133134
0.0133007
0.0132872
0.0132731
0.0132582
0.0132427
0.0132265
0.0132095
0.0131919
0.0131735
0.0131544
0.0131346
0.013114
0.0130927
0.0130706
0.0130478
0.0130242
0.0129997
0.0129745
0.0129485
0.0129217
0.012894
0.0128655
0.0128361
0.0128058
0.0127746
0.0127425
0.0127095
0.0126756
0.0126407
0.0126048
0.0125679
0.01253
0.012491
0.0124511
0.01241
0.0123679
0.0123246
0.0122803
0.0122347
0.0121881
0.0121402
0.0120911
0.0120407
0.0119891
0.0119363
0.0118821
0.0118265
0.0117697
0.0117114
0.0116517
0.0115906
0.011528
0.0114639
0.0113982
0.011331
0.0112622
0.0111917
0.0111196
0.0110458
0.0109702
0.0108928
0.0108135
0.0107324
0.0106493
0.0105642
0.0104771
0.0103878
0.0102964
0.0102027
0.0101066
0.0100082
0.00990717
0.00980356
0.00969723
0.00958806
0.00947591
0.00936063
0.00924207
0.00912003
0.00899432
0.0088647
0.00873091
0.00859266
0.00844958
0.00830129
0.00814732
0.00798714
0.00782014
0.00764561
0.00746271
0.00727045
0.00706763
0.00685278
0.0066241
0.00637935
0.00611575
0.00582979
0.00551702
0.00517185
0.00478702
0.0043533
0.0038589
0.00328797
0.00262022
0.00183206
0.000914211
9.02823e-05
0.000126561
0.00126577
0.00246636
0.00346158
0.00429369
0.00500533
0.00562638
0.00617732
0.00667232
0.00712145
0.00753211
0.00790984
0.00825892
0.00858273
0.00888398
0.00916491
0.0094274
0.00967304
0.0099032
0.0101191
0.0103218
0.0105122
0.0106913
0.0108597
0.0110183
0.0111676
0.0113083
0.0114409
0.0115658
0.0116837
0.0117949
0.0118999
0.0119989
0.0120924
0.0121807
0.0122641
0.0123429
0.0124172
0.0124874
0.0125538
0.0126163
0.0126754
0.0127311
0.0127835
0.0128329
0.0128792
0.0129227
0.0129636
0.0130019
0.013038
0.0130717
0.0131034
0.0131331
0.0131609
0.0131869
0.0132112
0.0132338
0.0132549
0.0132744
0.0132925
0.0133091
0.0133245
0.0133385
0.0133513
0.0133629
0.0133733
0.0133827
0.0133909
0.013398
0.0134042
0.0134093
0.0134135
0.0134168
0.0134191
0.0134206
0.0134212
0.0134209
0.0134199
0.013418
0.0134153
0.0134119
0.0134076
0.0134027
0.0133969
0.0133905
0.0133833
0.0133755
0.0133669
0.0133576
0.0133476
0.0133369
0.0133255
0.0133134
0.0133007
0.0132872
0.0132731
0.0132582
0.0132427
0.0132265
0.0132095
0.0131919
0.0131735
0.0131544
0.0131346
0.013114
0.0130927
0.0130706
0.0130478
0.0130241
0.0129997
0.0129745
0.0129485
0.0129217
0.012894
0.0128655
0.0128361
0.0128058
0.0127746
0.0127425
0.0127095
0.0126756
0.0126407
0.0126048
0.0125679
0.01253
0.012491
0.0124511
0.01241
0.0123679
0.0123246
0.0122803
0.0122347
0.0121881
0.0121402
0.0120911
0.0120407
0.0119891
0.0119363
0.0118821
0.0118265
0.0117697
0.0117114
0.0116517
0.0115906
0.011528
0.0114638
0.0113982
0.011331
0.0112622
0.0111917
0.0111196
0.0110458
0.0109702
0.0108928
0.0108135
0.0107324
0.0106493
0.0105642
0.0104771
0.0103878
0.0102964
0.0102027
0.0101066
0.0100082
0.00990716
0.00980356
0.00969723
0.00958806
0.0094759
0.00936063
0.00924206
0.00912003
0.00899432
0.0088647
0.00873091
0.00859265
0.00844958
0.00830128
0.00814732
0.00798714
0.00782014
0.00764561
0.00746271
0.00727045
0.00706763
0.00685278
0.0066241
0.00637934
0.00611574
0.00582979
0.00551702
0.00517185
0.00478702
0.0043533
0.0038589
0.00328797
0.00262022
0.00183206
0.000914209
9.02823e-05
0.000135822
0.0013714
0.00272588
0.00388242
0.00486737
0.00571969
0.0064694
0.00713819
0.00774163
0.00829109
0.00879499
0.00925974
0.00969031
0.0100906
0.0104638
0.0108126
0.011139
0.011445
0.0117321
0.0120019
0.0122555
0.0124941
0.0127186
0.0129301
0.0131294
0.0133172
0.0134942
0.0136613
0.0138189
0.0139676
0.0141081
0.0142408
0.0143661
0.0144846
0.0145965
0.0147024
0.0148026
0.0148973
0.014987
0.0150718
0.015152
0.0152279
0.0152997
0.0153676
0.0154317
0.0154922
0.0155494
0.0156034
0.0156543
0.0157024
0.0157479
0.0157907
0.0158312
0.0158694
0.0159054
0.0159393
0.0159712
0.0160012
0.0160294
0.0160558
0.0160806
0.0161037
0.0161253
0.0161454
0.016164
0.0161812
0.0161971
0.0162116
0.0162249
0.0162369
0.0162478
0.0162575
0.016266
0.0162734
0.0162798
0.016285
0.0162893
0.0162925
0.0162948
0.016296
0.0162963
0.0162957
0.0162941
0.0162916
0.0162882
0.0162839
0.0162786
0.0162725
0.0162655
0.0162577
0.0162489
0.0162393
0.0162288
0.0162174
0.0162051
0.016192
0.016178
0.0161631
0.0161473
0.0161306
0.0161129
0.0160944
0.0160749
0.0160545
0.0160332
0.0160109
0.0159876
0.0159634
0.0159381
0.0159119
0.0158846
0.0158563
0.0158269
0.0157964
0.0157649
0.0157322
0.0156985
0.0156635
0.0156274
0.0155901
0.0155516
0.0155119
0.015471
0.0154287
0.0153852
0.0153403
0.0152941
0.0152465
0.0151975
0.0151471
0.0150953
0.015042
0.0149872
0.0149308
0.0148729
0.0148134
0.0147522
0.0146895
0.014625
0.0145588
0.0144909
0.0144211
0.0143495
0.0142761
0.0142008
0.0141235
0.0140442
0.0139629
0.0138795
0.0137939
0.0137062
0.0136163
0.013524
0.0134294
0.0133324
0.0132329
0.0131309
0.0130262
0.0129188
0.0128086
0.0126956
0.0125795
0.0124604
0.0123381
0.0122124
0.0120833
0.0119505
0.011814
0.0116735
0.0115289
0.0113799
0.0112263
0.0110677
0.010904
0.0107347
0.0105594
0.0103777
0.0101891
0.00999291
0.00978846
0.00957495
0.00935143
0.00911681
0.00886977
0.00860874
0.00833185
0.0080368
0.00772082
0.00738049
0.0070116
0.00660895
0.00616606
0.00567484
0.00512521
0.00450494
0.00379856
0.00298786
0.00205487
0.00100399
9.70323e-05
0.000135822
0.00137141
0.00272589
0.00388244
0.00486739
0.00571971
0.00646943
0.00713822
0.00774166
0.00829111
0.00879501
0.00925977
0.00969034
0.0100906
0.0104639
0.0108126
0.011139
0.011445
0.0117322
0.0120019
0.0122555
0.0124941
0.0127187
0.0129301
0.0131294
0.0133172
0.0134943
0.0136613
0.0138189
0.0139676
0.0141081
0.0142408
0.0143661
0.0144846
0.0145966
0.0147025
0.0148026
0.0148973
0.014987
0.0150718
0.015152
0.0152279
0.0152997
0.0153676
0.0154317
0.0154922
0.0155494
0.0156034
0.0156543
0.0157024
0.0157479
0.0157908
0.0158312
0.0158694
0.0159054
0.0159393
0.0159712
0.0160012
0.0160294
0.0160558
0.0160806
0.0161037
0.0161253
0.0161454
0.016164
0.0161812
0.0161971
0.0162116
0.0162249
0.0162369
0.0162478
0.0162575
0.016266
0.0162734
0.0162798
0.016285
0.0162893
0.0162925
0.0162948
0.016296
0.0162963
0.0162957
0.0162941
0.0162916
0.0162882
0.0162839
0.0162786
0.0162725
0.0162655
0.0162577
0.0162489
0.0162393
0.0162288
0.0162174
0.0162051
0.016192
0.016178
0.0161631
0.0161473
0.0161306
0.0161129
0.0160944
0.0160749
0.0160545
0.0160332
0.0160109
0.0159876
0.0159634
0.0159381
0.0159119
0.0158846
0.0158563
0.0158269
0.0157964
0.0157649
0.0157322
0.0156984
0.0156635
0.0156274
0.0155901
0.0155516
0.0155119
0.015471
0.0154287
0.0153852
0.0153403
0.0152941
0.0152465
0.0151975
0.0151471
0.0150953
0.015042
0.0149872
0.0149308
0.0148729
0.0148134
0.0147522
0.0146895
0.014625
0.0145588
0.0144909
0.0144211
0.0143495
0.0142761
0.0142008
0.0141235
0.0140442
0.0139629
0.0138795
0.0137939
0.0137062
0.0136163
0.013524
0.0134294
0.0133324
0.0132329
0.0131309
0.0130262
0.0129188
0.0128086
0.0126956
0.0125795
0.0124604
0.0123381
0.0122124
0.0120833
0.0119505
0.011814
0.0116735
0.0115289
0.0113799
0.0112263
0.0110677
0.010904
0.0107347
0.0105594
0.0103777
0.0101891
0.00999291
0.00978846
0.00957495
0.00935143
0.0091168
0.00886976
0.00860874
0.00833185
0.0080368
0.00772082
0.00738049
0.0070116
0.00660894
0.00616606
0.00567484
0.00512521
0.00450494
0.00379857
0.00298787
0.00205487
0.00100398
9.70324e-05
0.00014401
0.00146168
0.00293972
0.00422744
0.00533918
0.00631029
0.00717021
0.00794116
0.00863957
0.00927767
0.00986463
0.0104075
0.0109118
0.0113817
0.011821
0.0122323
0.0126182
0.0129807
0.0133216
0.0136424
0.0139446
0.0142294
0.0144979
0.0147511
0.01499
0.0152156
0.0154285
0.0156296
0.0158196
0.0159992
0.016169
0.0163295
0.0164814
0.0166251
0.0167611
0.0168899
0.0170118
0.0171274
0.0172369
0.0173407
0.0174391
0.0175323
0.0176208
0.0177046
0.017784
0.0178593
0.0179306
0.0179982
0.0180623
0.0181231
0.0181807
0.0182353
0.0182871
0.0183363
0.0183828
0.0184269
0.0184687
0.0185083
0.0185457
0.0185811
0.0186145
0.018646
0.0186757
0.0187037
0.0187299
0.0187546
0.0187776
0.0187992
0.0188192
0.0188378
0.018855
0.0188708
0.0188853
0.0188986
0.0189105
0.0189212
0.0189307
0.018939
0.0189461
0.0189521
0.0189569
0.0189606
0.0189632
0.0189647
0.0189652
0.0189645
0.0189628
0.01896
0.0189562
0.0189513
0.0189454
0.0189384
0.0189303
0.0189212
0.0189111
0.0188999
0.0188876
0.0188742
0.0188598
0.0188442
0.0188276
0.0188099
0.018791
0.018771
0.0187498
0.0187275
0.018704
0.0186794
0.0186535
0.0186264
0.018598
0.0185684
0.0185374
0.0185052
0.0184717
0.0184368
0.0184005
0.0183629
0.0183238
0.0182832
0.0182412
0.0181978
0.0181527
0.0181062
0.018058
0.0180083
0.0179569
0.0179038
0.017849
0.0177925
0.0177342
0.0176742
0.0176123
0.0175485
0.0174828
0.0174152
0.0173455
0.0172739
0.0172002
0.0171243
0.0170464
0.0169662
0.0168838
0.016799
0.016712
0.0166225
0.0165306
0.0164361
0.0163391
0.0162395
0.0161372
0.0160321
0.0159241
0.0158133
0.0156994
0.0155825
0.0154624
0.0153391
0.0152124
0.0150822
0.0149484
0.0148109
0.0146696
0.0145242
0.0143747
0.0142209
0.0140626
0.0138995
0.0137315
0.0135584
0.0133797
0.0131952
0.0130046
0.0128075
0.0126034
0.0123919
0.0121723
0.011944
0.0117063
0.0114583
0.011199
0.0109272
0.0106417
0.0103407
0.0100224
0.00968461
0.00932453
0.00893897
0.008524
0.00807487
0.00758584
0.00704988
0.00645848
0.00580129
0.00506596
0.00423808
0.00330185
0.0022444
0.00108095
0.000102936
0.00014401
0.00146169
0.00293973
0.00422746
0.0053392
0.00631031
0.00717024
0.00794119
0.0086396
0.00927769
0.00986466
0.0104075
0.0109118
0.0113818
0.011821
0.0122323
0.0126182
0.0129807
0.0133216
0.0136425
0.0139446
0.0142294
0.0144979
0.0147511
0.0149901
0.0152156
0.0154285
0.0156297
0.0158197
0.0159992
0.016169
0.0163295
0.0164814
0.0166251
0.0167611
0.0168899
0.0170119
0.0171274
0.0172369
0.0173407
0.0174391
0.0175323
0.0176208
0.0177046
0.017784
0.0178593
0.0179306
0.0179983
0.0180623
0.0181231
0.0181807
0.0182353
0.0182871
0.0183363
0.0183828
0.0184269
0.0184687
0.0185083
0.0185457
0.0185811
0.0186145
0.018646
0.0186757
0.0187037
0.0187299
0.0187546
0.0187776
0.0187992
0.0188192
0.0188378
0.018855
0.0188708
0.0188853
0.0188986
0.0189105
0.0189212
0.0189307
0.018939
0.0189461
0.0189521
0.0189569
0.0189606
0.0189632
0.0189647
0.0189652
0.0189645
0.0189628
0.01896
0.0189562
0.0189513
0.0189454
0.0189384
0.0189303
0.0189212
0.0189111
0.0188999
0.0188876
0.0188742
0.0188598
0.0188442
0.0188276
0.0188099
0.018791
0.018771
0.0187498
0.0187275
0.018704
0.0186794
0.0186535
0.0186264
0.018598
0.0185684
0.0185374
0.0185052
0.0184717
0.0184368
0.0184005
0.0183629
0.0183238
0.0182832
0.0182412
0.0181978
0.0181527
0.0181062
0.018058
0.0180083
0.0179569
0.0179038
0.017849
0.0177925
0.0177342
0.0176742
0.0176123
0.0175485
0.0174828
0.0174152
0.0173455
0.0172739
0.0172002
0.0171243
0.0170464
0.0169662
0.0168838
0.016799
0.016712
0.0166225