/*--------------------------------*- C++ -*----------------------------------*\
  =========                 |
  \\      /  F ield         | OpenFOAM: The Open Source CFD Toolbox
   \\    /   O peration     | Website:  https://openfoam.org
    \\  /    A nd           | Version:  8
     \\/     M anipulation  |
\*---------------------------------------------------------------------------*/
FoamFile
{
    version     2.0;
    format      ascii;
    class       volScalarField;
    location    "300";
    object      alphat;
}
// * * * * * * * * * * * * * * * * * * * * * * * * * * * * * * * * * * * * * //

dimensions      [1 -1 -1 0 0 0 0];

internalField   nonuniform List<scalar> 
48000
(
3.09948e-05
6.40571e-05
9.07195e-05
0.000115703
0.000139041
0.00016054
0.000179207
0.00019354
0.000202144
0.000200402
3.44955e-05
0.00022369
0.000248275
4.52516e-05
4.44379e-05
4.539e-05
4.52005e-05
5.21365e-05
5.01777e-05
5.06629e-05
5.16718e-05
5.27597e-05
5.38441e-05
5.49107e-05
5.59572e-05
5.69839e-05
5.79917e-05
5.89814e-05
5.99534e-05
6.09079e-05
6.1845e-05
6.27646e-05
6.3667e-05
6.45521e-05
6.54198e-05
6.627e-05
6.71025e-05
6.79171e-05
6.87138e-05
6.94926e-05
7.02532e-05
7.09958e-05
7.17202e-05
7.24264e-05
7.31143e-05
7.3784e-05
7.44356e-05
7.5069e-05
7.56845e-05
7.62819e-05
7.68614e-05
7.74231e-05
7.79671e-05
7.84936e-05
7.90026e-05
7.94943e-05
7.99689e-05
8.04264e-05
8.0867e-05
8.12909e-05
8.16981e-05
8.20888e-05
8.24632e-05
8.28214e-05
8.31636e-05
8.34899e-05
8.38005e-05
8.40957e-05
8.43755e-05
8.46401e-05
8.48897e-05
8.51243e-05
8.53441e-05
8.55493e-05
8.574e-05
8.59163e-05
8.60783e-05
8.62262e-05
8.636e-05
8.64798e-05
8.65857e-05
8.66779e-05
8.67566e-05
8.6822e-05
8.68764e-05
8.69176e-05
8.69455e-05
8.69602e-05
8.69617e-05
8.69504e-05
8.69264e-05
8.68899e-05
8.6841e-05
8.67798e-05
8.67066e-05
8.66214e-05
8.65245e-05
8.6416e-05
8.62959e-05
8.61643e-05
8.60216e-05
8.58677e-05
8.57028e-05
8.55271e-05
8.53408e-05
8.51441e-05
8.49372e-05
8.47203e-05
8.44933e-05
8.42564e-05
8.40098e-05
8.37536e-05
8.34881e-05
8.32129e-05
8.29277e-05
8.26325e-05
8.23276e-05
8.20134e-05
8.169e-05
8.13573e-05
8.10148e-05
8.06621e-05
8.02996e-05
7.99273e-05
7.95454e-05
7.91535e-05
7.8751e-05
7.83379e-05
7.79143e-05
7.74805e-05
7.70364e-05
7.65816e-05
7.61158e-05
7.56389e-05
7.51509e-05
7.46516e-05
7.41407e-05
7.3618e-05
7.30835e-05
7.25373e-05
7.19798e-05
7.14108e-05
7.08297e-05
7.02358e-05
6.96291e-05
6.90097e-05
6.83781e-05
6.77343e-05
6.70781e-05
6.64088e-05
6.57262e-05
6.50305e-05
6.4322e-05
6.36007e-05
6.28662e-05
6.21181e-05
6.13562e-05
6.05805e-05
5.97917e-05
5.899e-05
5.81752e-05
5.73468e-05
5.65043e-05
5.56475e-05
5.47767e-05
5.38925e-05
5.29947e-05
5.20823e-05
5.11528e-05
5.02064e-05
4.93368e-05
5.01464e-05
0.0003511
0.000375114
0.000355723
0.000332619
0.000288821
4.2292e-05
0.000233723
0.000236594
0.000210449
3.42008e-05
3.30496e-05
3.31786e-05
0.000197798
0.000197756
0.000192213
0.000182946
0.000171007
0.000157395
0.000142873
0.000127892
0.000112728
9.78791e-05
8.33267e-05
6.90739e-05
5.50271e-05
4.10785e-05
2.65655e-05
9.92915e-06
3.09806e-05
6.40275e-05
9.06881e-05
0.000115633
0.000138768
0.000159504
0.000175894
0.00018557
0.000193226
0.000204151
0.0002176
0.000244542
0.000249692
4.5359e-05
4.45079e-05
4.54369e-05
4.51647e-05
5.20411e-05
5.0183e-05
5.06659e-05
5.16706e-05
5.27576e-05
5.38417e-05
5.49079e-05
5.59542e-05
5.69809e-05
5.79889e-05
5.89787e-05
5.99507e-05
6.09052e-05
6.18422e-05
6.27619e-05
6.36643e-05
6.45493e-05
6.5417e-05
6.6267e-05
6.70993e-05
6.79137e-05
6.87104e-05
6.9489e-05
7.02497e-05
7.09922e-05
7.17166e-05
7.24227e-05
7.31106e-05
7.37804e-05
7.4432e-05
7.50655e-05
7.5681e-05
7.62784e-05
7.68579e-05
7.74196e-05
7.79636e-05
7.84901e-05
7.89991e-05
7.94908e-05
7.99653e-05
8.04227e-05
8.08633e-05
8.12871e-05
8.16943e-05
8.20851e-05
8.24595e-05
8.28177e-05
8.316e-05
8.34863e-05
8.3797e-05
8.40922e-05
8.4372e-05
8.46366e-05
8.48861e-05
8.51206e-05
8.53404e-05
8.55455e-05
8.57361e-05
8.59124e-05
8.60744e-05
8.62222e-05
8.6356e-05
8.64758e-05
8.65817e-05
8.6674e-05
8.67528e-05
8.68183e-05
8.68727e-05
8.6914e-05
8.69418e-05
8.69564e-05
8.69579e-05
8.69466e-05
8.69225e-05
8.68859e-05
8.68369e-05
8.67757e-05
8.67024e-05
8.66172e-05
8.65203e-05
8.64116e-05
8.62914e-05
8.61598e-05
8.60169e-05
8.5863e-05
8.56981e-05
8.55226e-05
8.53364e-05
8.514e-05
8.49333e-05
8.47165e-05
8.44895e-05
8.42525e-05
8.40058e-05
8.37495e-05
8.34838e-05
8.32084e-05
8.29231e-05
8.26279e-05
8.23231e-05
8.20092e-05
8.1686e-05
8.13533e-05
8.10107e-05
8.06581e-05
8.02955e-05
7.99233e-05
7.95414e-05
7.91493e-05
7.87468e-05
7.83337e-05
7.79102e-05
7.74765e-05
7.70325e-05
7.65778e-05
7.6112e-05
7.56351e-05
7.51469e-05
7.46475e-05
7.41366e-05
7.36142e-05
7.308e-05
7.2534e-05
7.19764e-05
7.14069e-05
7.08253e-05
7.02315e-05
6.96251e-05
6.90063e-05
6.83749e-05
6.77309e-05
6.70742e-05
6.64045e-05
6.57221e-05
6.5027e-05
6.43189e-05
6.35976e-05
6.28627e-05
6.21141e-05
6.1352e-05
6.05767e-05
5.97884e-05
5.89871e-05
5.81722e-05
5.73434e-05
5.65003e-05
5.56433e-05
5.47727e-05
5.38889e-05
5.29914e-05
5.2079e-05
5.11489e-05
5.02002e-05
4.93206e-05
5.00888e-05
0.000350618
0.000375635
0.000356733
0.000333613
0.00028975
4.23404e-05
0.00023332
0.000236607
0.000210904
3.42938e-05
3.3034e-05
3.30487e-05
0.00019699
0.000197663
0.000192195
0.000182918
0.000170976
0.000157368
0.000142849
0.000127871
0.000112708
9.78616e-05
8.33114e-05
6.90605e-05
5.50154e-05
4.10689e-05
2.65578e-05
9.92329e-06
4.13565e-05
0.000146909
0.000225375
0.000285213
0.000334898
0.000376349
0.000409022
0.00042876
0.000427118
0.000393642
0.000318391
0.000413765
0.000430069
0.000355676
0.000350295
0.00035913
0.000379111
0.000456029
0.0004849
0.000500657
0.000513334
0.000524999
0.000536116
0.000546833
0.000557224
0.00056733
0.000577181
0.000586797
0.000596193
0.000605377
0.000614358
0.00062314
0.000631729
0.000640128
0.000648339
0.000656364
0.000664204
0.000671861
0.000679336
0.00068663
0.000693744
0.000700679
0.000707437
0.000714017
0.000720422
0.000726652
0.000732709
0.000738593
0.000744307
0.00074985
0.000755225
0.000760432
0.000765474
0.000770351
0.000775065
0.000779617
0.000784009
0.000788241
0.000792316
0.000796235
0.000799999
0.00080361
0.000807069
0.000810377
0.000813537
0.000816548
0.000819413
0.000822133
0.000824709
0.000827142
0.000829433
0.000831583
0.000833593
0.000835464
0.000837198
0.000838795
0.000840257
0.000841584
0.000842777
0.000843837
0.000844765
0.000845562
0.000846226
0.000846758
0.000847138
0.000847379
0.000847488
0.000847468
0.000847324
0.000847056
0.000846667
0.000846158
0.00084553
0.000844785
0.000843924
0.00084295
0.000841863
0.000840665
0.000839358
0.000837943
0.000836421
0.000834794
0.000833064
0.000831231
0.000829297
0.000827264
0.000825132
0.000822904
0.00082058
0.000818161
0.000815647
0.000813039
0.000810337
0.00080754
0.000804648
0.000801661
0.000798577
0.000795398
0.000792124
0.000788753
0.000785284
0.000781715
0.000778047
0.000774279
0.000770409
0.000766437
0.000762361
0.00075818
0.000753893
0.0007495
0.000744999
0.000740391
0.000735673
0.000730844
0.000725903
0.000720849
0.000715681
0.000710398
0.000704999
0.000699484
0.000693852
0.000688103
0.000682234
0.000676245
0.000670134
0.000663901
0.000657546
0.000651068
0.000644467
0.000637742
0.000630892
0.000623916
0.000616816
0.00060959
0.00060224
0.000594762
0.000587158
0.000579427
0.000571571
0.000563591
0.000555488
0.00054726
0.000538906
0.000530425
0.000521818
0.000513082
0.000504211
0.00049519
0.000485986
0.000476639
0.000468027
0.00046706
0.000524203
0.000525974
0.000506051
0.000484282
0.000453176
0.00035851
0.000412842
0.000413428
0.000385898
0.000291304
0.000272441
0.00027471
0.000382651
0.000422172
0.000428172
0.000419458
0.000403471
0.000383714
0.000361949
0.000339024
0.000315288
0.000290637
0.000264518
0.000235865
0.000202175
0.000158586
9.73474e-05
1.95691e-05
4.13436e-05
0.000146906
0.00022538
0.000285152
0.000334458
0.000374382
0.000402049
0.000409182
0.000391061
0.000397399
0.000408399
0.000431355
0.000433773
0.00035723
0.000350721
0.000358968
0.000378048
0.000454612
0.000484437
0.000500546
0.000513302
0.000524978
0.000536093
0.000546808
0.000557196
0.000567301
0.000577151
0.000586766
0.000596161
0.000605344
0.000614324
0.000623106
0.000631694
0.000640092
0.000648302
0.000656326
0.000664165
0.000671821
0.000679295
0.000686588
0.000693702
0.000700637
0.000707394
0.000713974
0.000720378
0.000726608
0.000732665
0.000738549
0.000744262
0.000749805
0.00075518
0.000760387
0.000765428
0.000770305
0.000775019
0.00077957
0.000783961
0.000788194
0.000792268
0.000796187
0.000799951
0.000803562
0.000807021
0.000810329
0.000813488
0.0008165
0.000819365
0.000822085
0.000824661
0.000827093
0.000829384
0.000831533
0.000833543
0.000835414
0.000837148
0.000838745
0.000840207
0.000841534
0.000842727
0.000843787
0.000844715
0.000845512
0.000846177
0.000846708
0.000847087
0.000847328
0.000847436
0.000847417
0.000847272
0.000847005
0.000846615
0.000846106
0.000845478
0.000844734
0.000843873
0.000842899
0.000841812
0.000840614
0.000839306
0.000837891
0.000836368
0.000834741
0.00083301
0.000831177
0.000829244
0.000827211
0.000825081
0.000822854
0.00082053
0.000818111
0.000815596
0.000812988
0.000810285
0.000807488
0.000804596
0.000801608
0.000798525
0.000795347
0.000792073
0.000788702
0.000785234
0.000781665
0.000777997
0.000774229
0.00077036
0.000766388
0.000762312
0.000758131
0.000753844
0.000749451
0.000744951
0.000740343
0.000735625
0.000730796
0.000725855
0.000720801
0.000715634
0.000710352
0.000704953
0.000699438
0.000693805
0.000688056
0.000682187
0.000676199
0.000670089
0.000663857
0.000657502
0.000651024
0.000644422
0.000637697
0.000630847
0.000623873
0.000616774
0.000609549
0.000602197
0.000594719
0.000587115
0.000579385
0.00057153
0.000563552
0.000555448
0.00054722
0.000538865
0.000530384
0.000521777
0.000513042
0.000504173
0.000495149
0.000485934
0.000476537
0.000467746
0.00046631
0.0005235
0.000526358
0.000507075
0.000485759
0.000455262
0.000359001
0.000412084
0.000413908
0.000387817
0.000292311
0.000272111
0.000273153
0.000380161
0.000421472
0.000428052
0.000419417
0.000403437
0.000383688
0.000361931
0.000339009
0.000315276
0.000290626
0.000264508
0.000235859
0.000202173
0.000158588
9.73513e-05
1.95771e-05
5.81781e-05
0.000206655
0.000334371
0.000433096
0.000512743
0.000578127
0.000630827
0.000669597
0.000692988
0.000710831
0.00071302
0.000757677
0.000794325
0.000807051
0.000828477
0.000854788
0.000884663
0.000931792
0.000967297
0.000996396
0.00102234
0.00104637
0.00106902
0.0010906
0.0011113
0.00113126
0.00115056
0.00116929
0.00118747
0.00120516
0.00122237
0.00123914
0.00125547
0.00127138
0.00128689
0.001302
0.00131672
0.00133107
0.00134505
0.00135866
0.00137191
0.00138481
0.00139736
0.00140957
0.00142144
0.00143297
0.00144417
0.00145505
0.0014656
0.00147583
0.00148575
0.00149535
0.00150465
0.00151364
0.00152233
0.00153072
0.00153881
0.00154661
0.00155411
0.00156133
0.00156827
0.00157492
0.00158129
0.00158739
0.00159321
0.00159876
0.00160403
0.00160904
0.00161378
0.00161826
0.00162247
0.00162642
0.00163011
0.00163354
0.00163672
0.00163964
0.0016423
0.00164472
0.00164688
0.00164879
0.00165046
0.00165187
0.00165303
0.00165395
0.0016546
0.00165499
0.00165514
0.00165505
0.00165472
0.00165416
0.00165336
0.00165233
0.00165108
0.00164961
0.00164792
0.00164601
0.00164388
0.00164155
0.001639
0.00163625
0.00163329
0.00163013
0.00162677
0.00162322
0.00161947
0.00161554
0.00161141
0.00160709
0.00160259
0.0015979
0.00159303
0.00158798
0.00158274
0.00157731
0.0015717
0.0015659
0.00155992
0.00155375
0.00154739
0.00154084
0.0015341
0.00152716
0.00152003
0.0015127
0.00150517
0.00149744
0.0014895
0.00148136
0.00147302
0.00146446
0.0014557
0.00144672
0.00143753
0.00142812
0.00141849
0.00140864
0.00139857
0.00138828
0.00137776
0.00136701
0.00135604
0.00134484
0.0013334
0.00132174
0.00130983
0.0012977
0.00128532
0.00127271
0.00125986
0.00124677
0.00123345
0.00121988
0.00120607
0.00119203
0.00117774
0.00116321
0.00114845
0.00113344
0.0011182
0.00110273
0.00108702
0.00107107
0.00105488
0.00103845
0.00102178
0.00100486
0.000987645
0.000970094
0.000952069
0.000933306
0.000913525
0.000893871
0.00088396
0.000864658
0.000840366
0.000816641
0.000794332
0.000756547
0.000747506
0.000733408
0.000718069
0.000684628
0.000663568
0.000650997
0.000672156
0.000679715
0.000674492
0.000659555
0.000637831
0.00061163
0.000582398
0.0005508
0.000516862
0.000479946
0.000438625
0.000390258
0.000330294
0.000251449
0.000146287
3.14707e-05
5.81608e-05
0.00020666
0.000334409
0.000433144
0.000512626
0.000577087
0.000626434
0.000657158
0.000676642
0.000701149
0.000728685
0.000761982
0.0007958
0.000806901
0.000827244
0.000853057
0.000882611
0.000930675
0.000966951
0.000996336
0.00102235
0.00104637
0.00106901
0.00109058
0.00111127
0.00113123
0.00115053
0.00116925
0.00118743
0.00120512
0.00122233
0.00123909
0.00125542
0.00127133
0.00128683
0.00130194
0.00131667
0.00133101
0.00134499
0.0013586
0.00137185
0.00138474
0.00139729
0.0014095
0.00142137
0.0014329
0.0014441
0.00145497
0.00146552
0.00147576
0.00148567
0.00149528
0.00150457
0.00151356
0.00152225
0.00153064
0.00153873
0.00154652
0.00155403
0.00156125
0.00156819
0.00157484
0.00158121
0.0015873
0.00159312
0.00159867
0.00160394
0.00160895
0.00161369
0.00161817
0.00162238
0.00162633
0.00163002
0.00163345
0.00163663
0.00163955
0.00164221
0.00164463
0.00164679
0.0016487
0.00165036
0.00165178
0.00165294
0.00165385
0.0016545
0.0016549
0.00165505
0.00165496
0.00165462
0.00165406
0.00165326
0.00165224
0.00165099
0.00164952
0.00164782
0.00164591
0.00164379
0.00164145
0.0016389
0.00163615
0.00163319
0.00163003
0.00162668
0.00162312
0.00161938
0.00161544
0.00161131
0.001607
0.00160249
0.00159781
0.00159294
0.00158788
0.00158264
0.00157721
0.0015716
0.00156581
0.00155982
0.00155365
0.00154729
0.00154074
0.001534
0.00152706
0.00151993
0.0015126
0.00150507
0.00149734
0.00148941
0.00148127
0.00147292
0.00146437
0.0014556
0.00144663
0.00143743
0.00142802
0.0014184
0.00140855
0.00139848
0.00138819
0.00137767
0.00136692
0.00135595
0.00134475
0.00133331
0.00132165
0.00130975
0.00129761
0.00128523
0.00127262
0.00125977
0.00124669
0.00123336
0.00121979
0.00120599
0.00119194
0.00117766
0.00116313
0.00114836
0.00113336
0.00111812
0.00110265
0.00108693
0.00107099
0.0010548
0.00103837
0.0010217
0.00100478
0.000987567
0.000970015
0.000951988
0.000933214
0.0009134
0.000893758
0.000884581
0.000866004
0.000842081
0.000818465
0.000796147
0.000756905
0.000747877
0.000734213
0.000719084
0.000684124
0.000661558
0.000648029
0.000670366
0.000679081
0.000674274
0.00065944
0.000637752
0.000611574
0.000582356
0.000550766
0.000516833
0.000479922
0.000438606
0.000390247
0.000330292
0.000251456
0.000146291
3.14794e-05
7.53197e-05
0.000251508
0.000415131
0.000546662
0.000653749
0.000743042
0.000818381
0.000881687
0.000934384
0.000981953
0.00102367
0.0010704
0.0011169
0.00115896
0.00120057
0.00124221
0.00128378
0.00132771
0.00136927
0.00140808
0.00144447
0.00147879
0.00151133
0.00154236
0.00157207
0.00160065
0.00162821
0.00165485
0.00168065
0.00170566
0.00172993
0.00175349
0.00177639
0.00179865
0.00182029
0.00184133
0.00186179
0.00188169
0.00190105
0.00191987
0.00193816
0.00195595
0.00197324
0.00199003
0.00200635
0.00202219
0.00203756
0.00205248
0.00206694
0.00208096
0.00209455
0.0021077
0.00212042
0.00213273
0.00214461
0.00215609
0.00216716
0.00217783
0.0021881
0.00219798
0.00220747
0.00221657
0.00222529
0.00223363
0.00224159
0.00224919
0.00225641
0.00226327
0.00226976
0.00227588
0.00228165
0.00228706
0.00229212
0.00229682
0.00230116
0.00230516
0.00230881
0.00231211
0.00231507
0.00231768
0.00231994
0.00232187
0.00232345
0.00232468
0.00232557
0.00232611
0.00232631
0.00232619
0.00232573
0.00232495
0.00232385
0.00232243
0.0023207
0.00231867
0.00231632
0.00231367
0.00231073
0.00230748
0.00230395
0.00230013
0.00229602
0.00229163
0.00228697
0.00228203
0.00227682
0.00227134
0.00226559
0.00225958
0.00225331
0.00224678
0.00223999
0.00223293
0.00222562
0.00221805
0.00221021
0.00220212
0.00219376
0.00218513
0.00217624
0.00216708
0.00215765
0.00214794
0.00213796
0.0021277
0.00211716
0.00210634
0.00209523
0.00208383
0.00207214
0.00206015
0.00204787
0.00203529
0.00202241
0.00200922
0.00199573
0.00198192
0.00196781
0.00195338
0.00193864
0.00192358
0.0019082
0.00189249
0.00187647
0.00186011
0.00184343
0.00182642
0.00180908
0.00179141
0.00177341
0.00175507
0.0017364
0.0017174
0.00169807
0.0016784
0.0016584
0.00163807
0.00161741
0.00159642
0.00157511
0.00155347
0.0015315
0.00150921
0.00148659
0.00146365
0.00144036
0.00141671
0.00139268
0.00136819
0.00134314
0.0013173
0.00129037
0.00126237
0.00123521
0.00120651
0.00117692
0.00114791
0.00112033
0.00109064
0.00106542
0.00104108
0.00101842
0.000994041
0.000971392
0.00095026
0.000935746
0.000920166
0.000900519
0.000875809
0.0008463
0.000812684
0.000775482
0.000734776
0.000690079
0.000640176
0.00058288
0.000514626
0.00043002
0.000321792
0.000184424
4.32024e-05
7.52937e-05
0.000251503
0.000415159
0.00054674
0.000653872
0.000743043
0.000817528
0.000878274
0.000929602
0.000977756
0.00102424
0.00107066
0.00111715
0.00115894
0.00120027
0.00124175
0.00128321
0.00132743
0.00136922
0.00140812
0.00144452
0.00147883
0.00151135
0.00154236
0.00157207
0.00160064
0.0016282
0.00165484
0.00168063
0.00170563
0.0017299
0.00175346
0.00177636
0.00179861
0.00182024
0.00184128
0.00186174
0.00188164
0.00190099
0.00191981
0.00193811
0.00195589
0.00197317
0.00198997
0.00200628
0.00202212
0.00203749
0.00205241
0.00206687
0.00208089
0.00209447
0.00210762
0.00212034
0.00213264
0.00214453
0.00215601
0.00216708
0.00217774
0.00218801
0.00219789
0.00220738
0.00221648
0.0022252
0.00223354
0.0022415
0.00224909
0.00225632
0.00226317
0.00226966
0.00227579
0.00228156
0.00228697
0.00229202
0.00229672
0.00230107
0.00230506
0.00230871
0.00231201
0.00231497
0.00231758
0.00231984
0.00232176
0.00232334
0.00232457
0.00232546
0.002326
0.00232621
0.00232608
0.00232563
0.00232485
0.00232374
0.00232233
0.0023206
0.00231856
0.00231621
0.00231356
0.00231062
0.00230738
0.00230384
0.00230002
0.00229591
0.00229152
0.00228686
0.00228192
0.00227671
0.00227123
0.00226548
0.00225947
0.0022532
0.00224667
0.00223988
0.00223282
0.00222551
0.00221794
0.0022101
0.00220201
0.00219365
0.00218502
0.00217613
0.00216697
0.00215754
0.00214783
0.00213785
0.00212759
0.00211705
0.00210623
0.00209512
0.00208372
0.00207203
0.00206004
0.00204776
0.00203518
0.0020223
0.00200911
0.00199562
0.00198182
0.0019677
0.00195328
0.00193853
0.00192347
0.00190809
0.00189239
0.00187636
0.00186001
0.00184333
0.00182632
0.00180898
0.00179131
0.0017733
0.00175497
0.0017363
0.0017173
0.00169797
0.0016783
0.0016583
0.00163797
0.00161731
0.00159633
0.00157501
0.00155337
0.0015314
0.00150911
0.0014865
0.00146355
0.00144026
0.00141662
0.00139258
0.0013681
0.00134304
0.0013172
0.00129028
0.00126231
0.00123541
0.00120695
0.00117748
0.00114851
0.00112092
0.00109076
0.0010655
0.00104125
0.00101866
0.000993794
0.000970597
0.000949072
0.000934969
0.000919784
0.000900319
0.000875683
0.000846213
0.000812621
0.000775434
0.000734736
0.000690045
0.00064015
0.000582862
0.000514619
0.000430024
0.000321803
0.000184429
4.32137e-05
9.34084e-05
0.000289037
0.000478071
0.000635037
0.000765285
0.000875772
0.000971387
0.00105539
0.00113019
0.00119865
0.0012621
0.00132304
0.00138181
0.0014381
0.00149254
0.00154551
0.00159718
0.00164792
0.00169695
0.00174394
0.00178878
0.00183154
0.00187238
0.00191147
0.00194898
0.00198507
0.00201985
0.00205343
0.00208589
0.00211731
0.00214775
0.00217725
0.00220586
0.00223362
0.00226057
0.00228672
0.00231212
0.00233679
0.00236075
0.00238401
0.0024066
0.00242854
0.00244984
0.00247052
0.00249058
0.00251005
0.00252893
0.00254724
0.00256499
0.00258218
0.00259883
0.00261494
0.00263052
0.00264559
0.00266014
0.00267419
0.00268774
0.0027008
0.00271337
0.00272545
0.00273707
0.00274821
0.00275888
0.00276909
0.00277884
0.00278813
0.00279698
0.00280537
0.00281332
0.00282083
0.0028279
0.00283453
0.00284072
0.00284649
0.00285182
0.00285672
0.0028612
0.00286525
0.00286888
0.00287209
0.00287487
0.00287724
0.00287918
0.0028807
0.00288181
0.0028825
0.00288277
0.00288265
0.00288211
0.00288119
0.00287986
0.00287815
0.00287606
0.00287358
0.00287072
0.0028675
0.0028639
0.00285994
0.00285562
0.00285094
0.00284592
0.00284054
0.00283482
0.00282876
0.00282237
0.00281564
0.00280858
0.00280119
0.00279348
0.00278544
0.00277708
0.00276839
0.00275938
0.00275005
0.00274039
0.00273041
0.0027201
0.00270946
0.00269849
0.00268718
0.00267554
0.00266356
0.00265124
0.00263857
0.00262555
0.00261218
0.00259846
0.00258438
0.00256994
0.00255513
0.00253996
0.00252441
0.00250849
0.0024922
0.00247553
0.00245847
0.00244103
0.0024232
0.00240498
0.00238637
0.00236736
0.00234795
0.00232815
0.00230794
0.00228733
0.00226631
0.00224489
0.00222306
0.00220082
0.00217817
0.00215511
0.00213165
0.00210777
0.00208349
0.0020588
0.00203371
0.00200821
0.00198232
0.00195602
0.00192933
0.00190224
0.00187476
0.00184689
0.00181861
0.00178992
0.00176081
0.00173124
0.00170118
0.00167054
0.00163923
0.0016071
0.00157413
0.00154072
0.0015068
0.00147262
0.00143864
0.00140526
0.00137196
0.00133962
0.001308
0.00127737
0.00124719
0.00121765
0.00118845
0.00116015
0.0011313
0.00110041
0.0010664
0.00102882
0.000987508
0.000942265
0.000892608
0.000837546
0.000775354
0.000703281
0.0006172
0.00051136
0.00037891
0.000216452
5.49861e-05
9.33659e-05
0.000289014
0.000478057
0.000635052
0.000765355
0.000875888
0.000971395
0.00105486
0.00112925
0.00119764
0.00126178
0.00132292
0.00138183
0.00143815
0.00149256
0.00154551
0.00159715
0.00164794
0.00169702
0.00174401
0.00178885
0.0018316
0.00187243
0.00191151
0.00194901
0.00198509
0.00201986
0.00205344
0.0020859
0.00211731
0.00214774
0.00217724
0.00220585
0.0022336
0.00226054
0.0022867
0.0023121
0.00233676
0.00236071
0.00238397
0.00240656
0.0024285
0.0024498
0.00247047
0.00249053
0.00251
0.00252888
0.00254718
0.00256493
0.00258212
0.00259876
0.00261487
0.00263046
0.00264552
0.00266007
0.00267412
0.00268767
0.00270072
0.00271329
0.00272538
0.00273699
0.00274813
0.0027588
0.00276901
0.00277876
0.00278805
0.00279689
0.00280529
0.00281324
0.00282074
0.00282781
0.00283444
0.00284063
0.0028464
0.00285173
0.00285663
0.00286111
0.00286516
0.00286879
0.00287199
0.00287478
0.00287714
0.00287908
0.00288061
0.00288171
0.0028824
0.00288267
0.00288255
0.00288202
0.00288109
0.00287976
0.00287805
0.00287596
0.00287348
0.00287062
0.0028674
0.0028638
0.00285984
0.00285552
0.00285084
0.00284581
0.00284044
0.00283472
0.00282866
0.00282226
0.00281553
0.00280847
0.00280109
0.00279337
0.00278533
0.00277697
0.00276829
0.00275928
0.00274994
0.00274029
0.0027303
0.00271999
0.00270935
0.00269838
0.00268708
0.00267543
0.00266345
0.00265113
0.00263846
0.00262544
0.00261208
0.00259835
0.00258427
0.00256983
0.00255502
0.00253985
0.0025243
0.00250839
0.00249209
0.00247542
0.00245836
0.00244092
0.00242309
0.00240487
0.00238626
0.00236725
0.00234785
0.00232804
0.00230784
0.00228723
0.00226621
0.00224479
0.00222295
0.00220071
0.00217807
0.00215501
0.00213154
0.00210767
0.00208339
0.0020587
0.00203361
0.00200811
0.00198222
0.00195592
0.00192923
0.00190215
0.00187467
0.00184679
0.00181851
0.00178983
0.00176071
0.00173115
0.00170108
0.00167045
0.00163913
0.00160701
0.00157405
0.00154069
0.00150683
0.00147267
0.0014387
0.00140533
0.00137193
0.00133957
0.00130796
0.00127735
0.00124709
0.00121742
0.00118811
0.00115987
0.00113112
0.00110028
0.00106631
0.00102875
0.000987451
0.000942219
0.00089257
0.000837515
0.000775332
0.000703269
0.000617199
0.000511371
0.000378927
0.000216459
5.50002e-05
0.000112571
0.000322753
0.00053056
0.000707213
0.000856337
0.000984587
0.00109718
0.00119782
0.00128918
0.0013734
0.00145198
0.00152619
0.00159681
0.0016643
0.0017291
0.00179154
0.00185188
0.00191026
0.0019666
0.00202081
0.00207287
0.0021228
0.00217072
0.00221674
0.002261
0.00230362
0.00234471
0.00238438
0.0024227
0.00245976
0.00249563
0.00253035
0.00256398
0.00259658
0.00262818
0.00265882
0.00268854
0.00271737
0.00274533
0.00277247
0.00279879
0.00282432
0.0028491
0.00287312
0.00289642
0.00291901
0.00294091
0.00296213
0.00298269
0.0030026
0.00302186
0.00304051
0.00305853
0.00307596
0.00309278
0.00310902
0.00312468
0.00313977
0.00315429
0.00316826
0.00318168
0.00319455
0.00320688
0.00321868
0.00322994
0.00324069
0.00325091
0.00326061
0.0032698
0.00327849
0.00328666
0.00329433
0.0033015
0.00330818
0.00331435
0.00332004
0.00332523
0.00332993
0.00333414
0.00333786
0.0033411
0.00334386
0.00334613
0.00334791
0.00334922
0.00335005
0.00335042
0.00335031
0.00334974
0.00334871
0.00334722
0.00334529
0.00334291
0.00334009
0.00333683
0.00333314
0.00332902
0.00332449
0.00331953
0.00331416
0.00330838
0.0033022
0.00329562
0.00328864
0.00328127
0.00327351
0.00326537
0.00325684
0.00324794
0.00323865
0.00322899
0.00321895
0.00320854
0.00319774
0.00318657
0.00317502
0.00316308
0.00315077
0.00313807
0.00312498
0.00311149
0.00309762
0.00308334
0.00306867
0.00305359
0.0030381
0.0030222
0.00300589
0.00298915
0.002972
0.00295442
0.00293641
0.00291796
0.00289908
0.00287976
0.00286
0.00283979
0.00281913
0.00279802
0.00277646
0.00275443
0.00273195
0.002709
0.00268559
0.00266171
0.00263737
0.00261255
0.00258727
0.00256151
0.00253528
0.00250858
0.00248141
0.00245377
0.00242567
0.00239709
0.00236806
0.00233856
0.0023086
0.00227819
0.00224732
0.00221601
0.00218425
0.00215204
0.00211938
0.00208626
0.00205267
0.0020186
0.00198401
0.00194887
0.00191313
0.00187677
0.00183978
0.00180229
0.0017644
0.00172628
0.00168812
0.0016501
0.00161223
0.00157466
0.0015374
0.00150052
0.00146392
0.00142749
0.00139098
0.00135415
0.00131641
0.00127693
0.00123496
0.00118988
0.00114116
0.00108818
0.00103003
0.000965327
0.000891913
0.000806618
0.000704933
0.000580939
0.000428222
0.00024532
6.67888e-05
0.000112497
0.000322694
0.000530479
0.000707135
0.000856304
0.000984618
0.00109724
0.00119781
0.00128909
0.00137327
0.00145193
0.00152619
0.00159686
0.00166438
0.00172918
0.00179163
0.00185196
0.00191035
0.00196669
0.0020209
0.00207295
0.00212288
0.00217079
0.0022168
0.00226105
0.00230367
0.00234475
0.00238442
0.00242274
0.00245979
0.00249565
0.00253036
0.00256399
0.00259659
0.00262818
0.00265882
0.00268853
0.00271736
0.00274532
0.00277245
0.00279877
0.0028243
0.00284907
0.00287309
0.00289639
0.00291898
0.00294087
0.00296209
0.00298265
0.00300255
0.00302182
0.00304046
0.00305849
0.00307591
0.00309273
0.00310897
0.00312462
0.00313971
0.00315423
0.0031682
0.00318161
0.00319448
0.00320681
0.00321861
0.00322988
0.00324062
0.00325084
0.00326054
0.00326973
0.00327841
0.00328659
0.00329426
0.00330143
0.0033081
0.00331428
0.00331996
0.00332515
0.00332985
0.00333406
0.00333778
0.00334102
0.00334377
0.00334604
0.00334783
0.00334914
0.00334997
0.00335033
0.00335022
0.00334965
0.00334862
0.00334714
0.0033452
0.00334282
0.00334
0.00333674
0.00333305
0.00332893
0.00332439
0.00331944
0.00331407
0.00330829
0.0033021
0.00329552
0.00328854
0.00328117
0.00327342
0.00326527
0.00325675
0.00324784
0.00323856
0.00322889
0.00321885
0.00320844
0.00319764
0.00318647
0.00317492
0.00316299
0.00315067
0.00313797
0.00312488
0.00311139
0.00309752
0.00308324
0.00306857
0.00305349
0.003038
0.0030221
0.00300579
0.00298905
0.0029719
0.00295432
0.00293631
0.00291786
0.00289898
0.00287966
0.0028599
0.00283969
0.00281903
0.00279792
0.00277636
0.00275433
0.00273185
0.0027089
0.00268549
0.00266162
0.00263727
0.00261245
0.00258717
0.00256141
0.00253518
0.00250848
0.00248132
0.00245368
0.00242557
0.002397
0.00236796
0.00233846
0.00230851
0.00227809
0.00224723
0.00221592
0.00218416
0.00215195
0.00211929
0.00208617
0.00205258
0.00201851
0.00198392
0.00194878
0.00191305
0.00187669
0.0018397
0.00180222
0.00176434
0.00172623
0.00168806
0.00165005
0.00161216
0.00157458
0.00153733
0.00150046
0.00146385
0.0014274
0.00139086
0.00135404
0.00131631
0.00127685
0.00123489
0.00118982
0.00114111
0.00108814
0.00103
0.0009653
0.000891895
0.000806611
0.000704939
0.000580955
0.000428242
0.000245329
6.68058e-05
0.000132575
0.000354672
0.000576771
0.000768842
0.000933341
0.0010764
0.00120318
0.00131744
0.00142192
0.00151863
0.00160902
0.00169421
0.00177499
0.00185196
0.00192558
0.00199623
0.00206416
0.00212959
0.00219261
0.00225328
0.00231165
0.0023678
0.00242183
0.00247383
0.00252392
0.00257221
0.00261879
0.00266376
0.00270721
0.00274921
0.00278983
0.00282913
0.00286718
0.00290402
0.0029397
0.00297428
0.00300778
0.00304025
0.00307173
0.00310224
0.00313182
0.00316049
0.00318829
0.00321523
0.00324134
0.00326664
0.00329115
0.00331489
0.00333788
0.00336013
0.00338166
0.00340249
0.00342262
0.00344207
0.00346085
0.00347897
0.00349644
0.00351328
0.00352948
0.00354506
0.00356002
0.00357438
0.00358814
0.0036013
0.00361386
0.00362585
0.00363726
0.00364809
0.00365835
0.00366804
0.00367717
0.00368574
0.00369375
0.0037012
0.00370811
0.00371447
0.00372027
0.00372554
0.00373026
0.00373444
0.00373808
0.00374118
0.00374375
0.00374578
0.00374727
0.00374824
0.00374869
0.00374862
0.00374803
0.00374693
0.00374533
0.00374322
0.00374062
0.00373753
0.00373395
0.00372988
0.00372534
0.00372033
0.00371485
0.00370891
0.00370251
0.00369567
0.00368837
0.00368063
0.00367245
0.00366383
0.00365479
0.00364531
0.00363541
0.00362508
0.00361433
0.00360315
0.00359155
0.00357953
0.00356709
0.00355422
0.00354092
0.00352719
0.00351303
0.00349844
0.00348341
0.00346794
0.00345202
0.00343566
0.00341884
0.00340157
0.00338384
0.00336565
0.00334699
0.00332785
0.00330825
0.00328816
0.0032676
0.00324654
0.003225
0.00320296
0.00318043
0.00315739
0.00313385
0.00310981
0.00308525
0.00306019
0.0030346
0.00300851
0.00298189
0.00295475
0.0029271
0.00289892
0.00287021
0.00284099
0.00281124
0.00278098
0.00275019
0.00271889
0.00268707
0.00265475
0.00262191
0.00258857
0.00255473
0.0025204
0.00248557
0.00245026
0.00241446
0.00237818
0.0023414
0.00230414
0.00226637
0.00222808
0.00218927
0.00214991
0.00211002
0.00206961
0.00202874
0.0019875
0.00194598
0.00190428
0.00186249
0.00182067
0.00177885
0.00173705
0.00169523
0.00165332
0.00161119
0.00156862
0.00152528
0.00148073
0.0014344
0.00138565
0.00133385
0.00127828
0.00121807
0.00115203
0.00107844
0.000994844
0.000897732
0.00078232
0.000642588