/*--------------------------------*- C++ -*----------------------------------*\
  =========                 |
  \\      /  F ield         | OpenFOAM: The Open Source CFD Toolbox
   \\    /   O peration     | Website:  https://openfoam.org
    \\  /    A nd           | Version:  8
     \\/     M anipulation  |
\*---------------------------------------------------------------------------*/
FoamFile
{
    version     2.0;
    format      ascii;
    class       volScalarField;
    location    "300";
    object      epsilon;
}
// * * * * * * * * * * * * * * * * * * * * * * * * * * * * * * * * * * * * * //

dimensions      [0 2 -3 0 0 0 0];

internalField   nonuniform List<scalar> 
48000
(
0.0413473
0.0624697
0.08867
0.113217
0.136123
0.157132
0.175125
0.18824
0.192543
0.177068
0.856783
0.186315
0.190441
0.924375
1.06993
1.17182
1.23511
0.895283
0.923551
0.989363
1.05952
1.13093
1.20339
1.27704
1.35197
1.42821
1.50576
1.58459
1.66463
1.7458
1.82803
1.91122
1.99526
2.08003
2.16543
2.25133
2.33763
2.42418
2.51088
2.59759
2.68419
2.77055
2.85657
2.94212
3.02709
3.11136
3.19484
3.27741
3.35899
3.43946
3.51875
3.59676
3.67341
3.74862
3.8223
3.89439
3.96482
4.03352
4.10042
4.16547
4.22861
4.2898
4.34898
4.40612
4.46118
4.51412
4.56491
4.61353
4.65995
4.70414
4.74609
4.78577
4.82317
4.85826
4.89103
4.92147
4.94956
4.97531
4.99869
5.01972
5.03838
5.05469
5.06864
5.08028
5.0899
5.09725
5.10229
5.10502
5.10547
5.10365
5.09959
5.09332
5.08485
5.07423
5.06148
5.04664
5.02976
5.01088
4.99004
4.96728
4.94267
4.91623
4.88802
4.85809
4.82648
4.79325
4.75842
4.72207
4.68423
4.64496
4.6043
4.56227
4.51891
4.47428
4.42845
4.38144
4.33327
4.28394
4.23346
4.18189
4.12928
4.07565
4.02102
3.96541
3.90882
3.85131
3.79291
3.73364
3.67353
3.61259
3.55083
3.48831
3.42506
3.36112
3.29651
3.23128
3.16547
3.09912
3.03226
2.96493
2.89714
2.82896
2.76043
2.69164
2.62263
2.55343
2.48408
2.41463
2.34513
2.27566
2.20629
2.13705
2.06801
1.99922
1.93074
1.86266
1.79503
1.72792
1.66137
1.59543
1.53018
1.4657
1.40205
1.33929
1.27748
1.21666
1.15685
1.0981
1.04034
0.98319
0.925347
0.86235
0.190256
0.181868
0.178318
0.173308
0.169498
0.880088
0.187681
0.183586
0.185224
0.878161
0.8792
0.86922
0.185931
0.19201
0.188732
0.179877
0.16796
0.154441
0.140116
0.125412
0.110494
0.0958897
0.0816011
0.0676163
0.0538355
0.040165
0.0259343
0.0132199
0.0413425
0.0624582
0.0886662
0.113242
0.136219
0.157308
0.174952
0.184649
0.168861
0.171975
0.178937
0.183058
0.189953
0.923702
1.06958
1.17145
1.23468
0.894979
0.923514
0.989424
1.0596
1.13098
1.20343
1.27707
1.35199
1.42822
1.50577
1.5846
1.66463
1.74581
1.82804
1.91123
1.99526
2.08003
2.16543
2.25134
2.33763
2.42419
2.51089
2.5976
2.68419
2.77056
2.85657
2.94212
3.02708
3.11135
3.19482
3.27739
3.35896
3.43943
3.51872
3.59673
3.67338
3.74858
3.82227
3.89436
3.96479
4.03348
4.10038
4.16543
4.22857
4.28975
4.34893
4.40607
4.46112
4.51406
4.56484
4.61345
4.65987
4.70406
4.74601
4.78569
4.82308
4.85817
4.89094
4.92137
4.94946
4.9752
4.99857
5.01959
5.03824
5.05454
5.06848
5.08012
5.08973
5.09708
5.10212
5.10486
5.10531
5.1035
5.09945
5.09317
5.08471
5.0741
5.06135
5.04653
5.02965
5.01077
4.98994
4.96719
4.94257
4.91613
4.88791
4.85797
4.82635
4.7931
4.75827
4.72191
4.68408
4.64483
4.60417
4.56215
4.5188
4.47419
4.42836
4.38135
4.33316
4.28382
4.23333
4.18177
4.12916
4.07554
4.02091
3.9653
3.90872
3.85121
3.79281
3.73355
3.67344
3.61248
3.55072
3.4882
3.42495
3.36101
3.29642
3.23119
3.16538
3.09903
3.03216
2.96482
2.89704
2.82887
2.76037
2.69158
2.62256
2.55335
2.48399
2.41454
2.34506
2.27561
2.20623
2.13699
2.06793
1.99914
1.93068
1.86262
1.795
1.72788
1.66131
1.59537
1.53012
1.46565
1.40201
1.33927
1.27745
1.21662
1.15681
1.09806
1.04031
0.983187
0.925396
0.862456
0.19027
0.181889
0.178323
0.173295
0.169476
0.879673
0.187603
0.183563
0.185257
0.878487
0.879119
0.869084
0.185902
0.191968
0.18871
0.179865
0.167952
0.154436
0.140112
0.12541
0.110492
0.0958883
0.0816004
0.0676161
0.0538357
0.040165
0.0259337
0.0132197
0.07296
0.0586842
0.0679207
0.0808991
0.0950209
0.109701
0.124835
0.141448
0.163437
0.202798
0.2733
0.247999
0.271707
0.353934
0.399649
0.43439
0.455729
0.429401
0.445694
0.473764
0.505413
0.538715
0.573169
0.608619
0.644999
0.682263
0.720371
0.759282
0.798951
0.83933
0.880367
0.922006
0.96419
1.00686
1.04995
1.09339
1.13713
1.1811
1.22522
1.26943
1.31367
1.35786
1.40194
1.44586
1.48953
1.53291
1.57593
1.61855
1.66069
1.70231
1.74336
1.78378
1.82354
1.86258
1.90086
1.93834
1.97499
2.01077
2.04563
2.07956
2.11251
2.14447
2.17541
2.2053
2.23412
2.26185
2.28848
2.31399
2.33837
2.36161
2.38368
2.40459
2.42432
2.44287
2.46022
2.47637
2.49132
2.50506
2.51759
2.52891
2.53902
2.54793
2.55563
2.56217
2.56758
2.57185
2.57495
2.57688
2.57765
2.57726
2.57573
2.57306
2.56926
2.56437
2.55838
2.55132
2.54321
2.53407
2.52393
2.5128
2.50071
2.48769
2.47375
2.45892
2.44323
2.42669
2.40935
2.39121
2.37231
2.35267
2.33231
2.31126
2.28954
2.26718
2.24419
2.22059
2.1964
2.17163
2.1463
2.12042
2.09401
2.06709
2.03967
2.01176
1.98337
1.95451
1.92521
1.89547
1.86531
1.83473
1.80375
1.77239
1.74065
1.70857
1.67616
1.64342
1.61039
1.57708
1.5435
1.50967
1.47562
1.44136
1.40693
1.37234
1.33763
1.30281
1.26791
1.23294
1.19795
1.16295
1.12798
1.09307
1.05824
1.02352
0.988956
0.954567
0.920388
0.886448
0.852776
0.819404
0.786367
0.7537
0.721438
0.689612
0.65825
0.627382
0.597039
0.567257
0.538077
0.509485
0.480858
0.4473
0.377647
0.350412
0.33501
0.319677
0.308816
0.342748
0.282198
0.259566
0.252392
0.294091
0.28792
0.264207
0.180477
0.152373
0.137391
0.125686
0.114765
0.104015
0.0933606
0.0828773
0.0726717
0.0628994
0.0536382
0.0450787
0.0373661
0.0308753
0.0267495
0.0345404
0.0729534
0.0586645
0.0679048
0.0809037
0.0951058
0.11007
0.126175
0.145993
0.177346
0.201088
0.223286
0.241234
0.270202
0.352761
0.399173
0.434361
0.456415
0.430282
0.445932
0.473783
0.50538
0.538672
0.573124
0.608573
0.644952
0.682215
0.720323
0.759234
0.798902
0.839281
0.880317
0.921956
0.964139
1.00681
1.0499
1.09334
1.13708
1.18105
1.22517
1.26938
1.31361
1.35781
1.40189
1.4458
1.48947
1.53285
1.57588
1.61849
1.66063
1.70225
1.74329
1.78372
1.82347
1.86251
1.9008
1.93828
1.97493
2.0107
2.04557
2.07949
2.11245
2.14441
2.17534
2.20523
2.23405
2.26178
2.28841
2.31393
2.3383
2.36154
2.38361
2.40452
2.42425
2.4428
2.46015
2.4763
2.49125
2.50498
2.51751
2.52883
2.53894
2.54784
2.55555
2.56208
2.5675
2.57177
2.57487
2.5768
2.57757
2.57718
2.57565
2.57298
2.56919
2.56429
2.5583
2.55125
2.54314
2.534
2.52386
2.51273
2.50065
2.48762
2.47368
2.45885
2.44316
2.42662
2.40927
2.39113
2.37223
2.35259
2.33224
2.3112
2.28948
2.26712
2.24413
2.22053
2.19634
2.17157
2.14624
2.12036
2.09395
2.06703
2.03961
2.0117
1.98331
1.95446
1.92516
1.89542
1.86526
1.83468
1.8037
1.77234
1.74061
1.70853
1.67611
1.64338
1.61034
1.57703
1.54345
1.50963
1.47558
1.44133
1.4069
1.37231
1.33759
1.30277
1.26787
1.23291
1.19792
1.16292
1.12795
1.09304
1.05821
1.0235
0.988931
0.954544
0.920366
0.886424
0.852751
0.819379
0.786344
0.753679
0.72142
0.689595
0.658234
0.627366
0.597022
0.567243
0.538073
0.509521
0.481033
0.447828
0.378136
0.35036
0.334655
0.319098
0.307819
0.342288
0.282542
0.259335
0.251395
0.293071
0.287875
0.265102
0.181391
0.152532
0.137397
0.125678
0.114759
0.10401
0.0933558
0.0828729
0.0726677
0.062896
0.0536352
0.0450761
0.037364
0.0308738
0.0267492
0.0345387
0.102833
0.07049
0.0722636
0.0807871
0.0919967
0.10485
0.119192
0.135604
0.155288
0.177658
0.203677
0.221167
0.240819
0.266362
0.290876
0.314751
0.337747
0.355781
0.377569
0.401982
0.428126
0.455595
0.484187
0.513785
0.544311
0.575702
0.607909
0.640885
0.674585
0.708963
0.743973
0.779564
0.815685
0.852282
0.8893
0.926681
0.964366
1.0023
1.04041
1.07865
1.11696
1.15527
1.19352
1.23166
1.26964
1.30739
1.34486
1.382
1.41876
1.45509
1.49094
1.52627
1.56103
1.59519
1.6287
1.66153
1.69363
1.72499
1.75556
1.78532
1.81424
1.84229
1.86946
1.89571
1.92104
1.94542
1.96883
1.99127
2.01272
2.03317
2.05261
2.07103
2.08842
2.10477
2.12008
2.13435
2.14756
2.15972
2.17082
2.18087
2.18987
2.19782
2.20473
2.21061
2.21548
2.21933
2.22217
2.224
2.22481
2.22462
2.22343
2.22126
2.21811
2.214
2.20895
2.20297
2.19608
2.18829
2.17962
2.17011
2.15975
2.14859
2.13662
2.12389
2.1104
2.09619
2.08126
2.06565
2.04938
2.03247
2.01494
1.99681
1.9781
1.95883
1.93902
1.91868
1.89783
1.87649
1.85466
1.83237
1.80961
1.78642
1.7628
1.73876
1.71432
1.68947
1.66424
1.63864
1.61268
1.58636
1.5597
1.53271
1.50541
1.47781
1.44992
1.42176
1.39333
1.36467
1.33577
1.30667
1.27737
1.24789
1.21826
1.1885
1.15862
1.12864
1.09859
1.06849
1.03836
1.00822
0.978098
0.948022
0.918014
0.888101
0.858309
0.828665
0.799195
0.769926
0.740885
0.712101
0.683602
0.655419
0.627581
0.600117
0.573058
0.546435
0.520286
0.494665
0.469661
0.445437
0.4222
0.399679
0.374456
0.353469
0.334583
0.315577
0.296202
0.282091
0.261118
0.242334
0.224426
0.211659
0.197139
0.181635
0.159381
0.141678
0.12754
0.115517
0.104646
0.0944429
0.0847247
0.0754593
0.0666879
0.0584955
0.0509898
0.0443402
0.0388191
0.0350678
0.0353803
0.0556394
0.102826
0.0704672
0.0722415
0.0807703
0.0920124
0.105011
0.119905
0.137911
0.15938
0.180289
0.200838
0.220595
0.240627
0.266482
0.291244
0.315242
0.338312
0.356043
0.377614
0.401952
0.428081
0.455551
0.484148
0.513749
0.544276
0.575668
0.607876
0.640852
0.674553
0.708932
0.743942
0.779534
0.815655
0.852253
0.889271
0.926653
0.964339
1.00227
1.04039
1.07863
1.11693
1.15524
1.1935
1.23164
1.26962
1.30737
1.34484
1.38198
1.41874
1.45507
1.49092
1.52625
1.56102
1.59517
1.62868
1.66151
1.69362
1.72497
1.75555
1.78531
1.81422
1.84228
1.86944
1.8957
1.92103
1.94541
1.96882
1.99126
2.01272
2.03317
2.0526
2.07102
2.08841
2.10477
2.12008
2.13434
2.14755
2.15971
2.17082
2.18087
2.18987
2.19782
2.20472
2.2106
2.21547
2.21933
2.22217
2.22399
2.22481
2.22462
2.22343
2.22126
2.21811
2.214
2.20895
2.20297
2.19608
2.18829
2.17963
2.17011
2.15976
2.14859
2.13663
2.12389
2.11041
2.09619
2.08126
2.06565
2.04938
2.03247
2.01494
1.99681
1.97811
1.95884
1.93902
1.91869
1.89784
1.8765
1.85467
1.83237
1.80962
1.78643
1.76281
1.73877
1.71432
1.68948
1.66425
1.63865
1.61269
1.58637
1.55971
1.53272
1.50542
1.47782
1.44993
1.42176
1.39334
1.36468
1.33578
1.30668
1.27738
1.24791
1.21827
1.18851
1.15863
1.12865
1.0986
1.0685
1.03837
1.00823
0.978108
0.948032
0.918025
0.888112
0.85832
0.828675
0.799205
0.769936
0.740895
0.71211
0.683611
0.655428
0.62759
0.600127
0.573067
0.546444
0.520294
0.494673
0.469669
0.445449
0.422227
0.399702
0.374223
0.353004
0.334023
0.315014
0.295653
0.281959
0.260985
0.24212
0.224189
0.211815
0.197639
0.182328
0.159717
0.141767
0.127562
0.115525
0.10465
0.0944449
0.0847255
0.0754596
0.066688
0.0584955
0.0509896
0.0443398
0.0388185
0.0350674
0.0353816
0.0556383
0.133274
0.0870317
0.0838397
0.0899465
0.0998537
0.112029
0.125993
0.141704
0.159293
0.178263
0.198424
0.218377
0.238715
0.260017
0.281827
0.303994
0.326427
0.34867
0.371734
0.395868
0.4211
0.4474
0.474717
0.502994
0.532177
0.562218
0.593071
0.624694
0.657046
0.690083
0.72376
0.758031
0.792846
0.828154
0.8639
0.900029
0.936484
0.973208
1.01014
1.04722
1.0844
1.1216
1.15878
1.19588
1.23283
1.2696
1.30611
1.34232
1.37817
1.41363
1.44864
1.48315
1.51712
1.55052
1.5833
1.61542
1.64685
1.67755
1.7075
1.73666
1.765
1.79251
1.81915
1.84491
1.86976
1.8937
1.91669
1.93873
1.95981
1.97991
1.99901
2.01713
2.03423
2.05032
2.0654
2.07945
2.09247
2.10446
2.11543
2.12536
2.13426
2.14214
2.149
2.15485
2.1597
2.16355
2.16641
2.16827
2.16914
2.16904
2.16796
2.16592
2.16293
2.15901
2.15416
2.14841
2.14177
2.13425
2.12588
2.11668
2.10666
2.09584
2.08425
2.0719
2.05882
2.04503
2.03055
2.0154
1.9996
1.98317
1.96614
1.94853
1.93035
1.91162
1.89236
1.87259
1.85232
1.83157
1.81035
1.78867
1.76655
1.744
1.72103
1.69765
1.67388
1.64972
1.62519
1.6003
1.57505
1.54947
1.52355
1.49731
1.47077
1.44394
1.41682
1.38945
1.36181
1.33394
1.30585
1.27756
1.24907
1.22041
1.1916
1.16266
1.1336
1.10445
1.07523
1.04595
1.01664
0.98732
0.958018
0.928756
0.899558
0.870448
0.841453
0.812598
0.78391
0.755415
0.72714
0.699113
0.671362
0.643917
0.616806
0.590061
0.563712
0.537793
0.512344
0.487415
0.463076
0.439438
0.416645
0.394748
0.373227
0.352613
0.33267
0.313009
0.293464
0.274909
0.256325
0.238308
0.220679
0.20402
0.187971
0.172593
0.157024
0.142364
0.12905
0.11699
0.105919
0.0956216
0.0859801
0.0769603
0.0685866
0.0609302
0.0541109
0.0483306
0.0439683
0.0419363
0.0454862
0.0764727
0.133259
0.0870033
0.0838133
0.0899179
0.0998216
0.112009
0.126074
0.142163
0.160158
0.179038
0.198533
0.218448
0.238713
0.260022
0.281859
0.304044
0.326493
0.348679
0.371701
0.395821
0.421054
0.447358
0.47468
0.50296
0.532145
0.562186
0.59304
0.624664
0.657017
0.690054
0.723732
0.758004
0.79282
0.828128
0.863875
0.900005
0.936461
0.973185
1.01012
1.0472
1.08438
1.12158
1.15876
1.19586
1.23282
1.26958
1.30609
1.3423
1.37816
1.41362
1.44863
1.48314
1.51712
1.55051
1.58329
1.61541
1.64684
1.67755
1.70749
1.73665
1.765
1.79251
1.81915
1.84491
1.86977
1.8937
1.91669
1.93874
1.95981
1.97991
1.99902
2.01713
2.03424
2.05033
2.06541
2.07946
2.09248
2.10447
2.11544
2.12537
2.13428
2.14216
2.14902
2.15487
2.15972
2.16357
2.16643
2.16829
2.16916
2.16906
2.16798
2.16594
2.16295
2.15903
2.15418
2.14843
2.14179
2.13427
2.1259
2.1167
2.10668
2.09587
2.08428
2.07193
2.05885
2.04506
2.03057
2.01542
1.99962
1.98319
1.96617
1.94855
1.93038
1.91165
1.89239
1.87262
1.85235
1.8316
1.81038
1.7887
1.76657
1.74402
1.72105
1.69768
1.67391
1.64975
1.62522
1.60033
1.57508
1.54949
1.52357
1.49734
1.4708
1.44396
1.41685
1.38947
1.36184
1.33397
1.30588
1.27758
1.2491
1.22044
1.19163
1.16268
1.13363
1.10448
1.07525
1.04597
1.01666
0.987343
0.95804
0.928778
0.899579
0.870469
0.841474
0.812618
0.78393
0.755435
0.72716
0.699132
0.67138
0.643934
0.616824
0.590078
0.563729
0.537809
0.51236
0.48743
0.463091
0.439451
0.416658
0.394753
0.373164
0.352494
0.332534
0.31288
0.293341
0.274881
0.256309
0.238287
0.220652
0.204068
0.188094
0.17277
0.157125
0.142407
0.12907
0.117001
0.105925
0.0956253
0.0859825
0.0769621
0.0685881
0.0609313
0.0541116
0.0483309
0.0439685
0.0419369
0.0454893
0.0764733
0.165422
0.106819
0.0995447
0.104013
0.113305
0.125427
0.139595
0.155454
0.172802
0.191347
0.210861
0.231063
0.251866
0.273281
0.295256
0.317726
0.340653
0.364004
0.387969
0.412701
0.438293
0.464789
0.492193
0.52049
0.549654
0.579653
0.610457
0.642029
0.674336
0.707338
0.740993
0.775258
0.810085
0.845423
0.881221
0.917423
0.953973
0.990813
1.02789
1.06513
1.10249
1.1399
1.17731
1.21465
1.25187
1.28891
1.32573
1.36225
1.39844
1.43424
1.4696
1.50448
1.53883
1.57261
1.60577
1.63828
1.67011
1.70121
1.73156
1.76112
1.78987
1.81777
1.84481
1.87096
1.8962
1.92051
1.94388
1.96629
1.98772
2.00817
2.02761
2.04605
2.06347
2.07987
2.09523
2.10956
2.12285
2.1351
2.1463
2.15647
2.16559
2.17367
2.18072
2.18674
2.19174
2.19573
2.1987
2.20067
2.20163
2.2016
2.20059
2.19861
2.19566
2.19177
2.18694
2.1812
2.17456
2.16703
2.15863
2.14939
2.13932
2.12844
2.11678
2.10435
2.09117
2.07727
2.06268
2.0474
2.03146
2.01489
1.99771
1.97992
1.96157
1.94265
1.9232
1.90321
1.88273
1.86175
1.84029
1.81837
1.796
1.77319
1.74996
1.72631
1.70226
1.67782
1.653
1.62781
1.60226
1.57637
1.55014
1.52359
1.49673
1.46957
1.44213
1.41442
1.38645
1.35824
1.32981
1.30116
1.27232
1.24331
1.21414
1.18484
1.15542
1.1259
1.0963
1.06665
1.03696
1.00727
0.977585
0.947941
0.918359
0.888865
0.859484
0.830243
0.801169
0.772289
0.74363
0.71522
0.687089
0.659266
0.631781
0.604666
0.577953
0.551676
0.525874
0.500589
0.475874
0.451788
0.428399
0.405745
0.38373
0.362342
0.341519
0.321186
0.301294
0.281976
0.263183
0.244966
0.227302
0.210272
0.193904
0.178266
0.163274
0.14906
0.135777
0.123449
0.112004
0.101358
0.0914577
0.0822895
0.0738848
0.0663214
0.0597393
0.0543869
0.0507555
0.0500528
0.0564891
0.0973796
0.165382
0.106778
0.0995146
0.103986
0.113276
0.12539
0.139563
0.155486
0.172921
0.191481
0.210924
0.231089
0.251859
0.27326
0.295231
0.317699
0.340626
0.363968
0.387925
0.412655
0.43825
0.464749
0.492155
0.520454
0.549619
0.579619
0.610423
0.641997
0.674304
0.707307
0.740963
0.775228
0.810056
0.845395
0.881193
0.917396
0.953947
0.990789
1.02786
1.06511
1.10247
1.13988
1.17729
1.21463
1.25185
1.2889
1.32571
1.36224
1.39842
1.43422
1.46959
1.50447
1.53882
1.5726
1.60576
1.63828
1.6701
1.70121
1.73156
1.76112
1.78986
1.81777
1.84481
1.87096
1.8962
1.92052
1.94388
1.96629
1.98773
2.00817
2.02762
2.04606
2.06348
2.07987
2.09524
2.10957
2.12286
2.13511
2.14632
2.15648
2.1656
2.17369
2.18074
2.18676
2.19176
2.19575
2.19872
2.20069
2.20165
2.20162
2.20061
2.19863
2.19568
2.19179
2.18697
2.18122
2.17458
2.16705
2.15865
2.14941
2.13934
2.12847
2.1168
2.10437
2.0912
2.0773
2.0627
2.04743
2.03149
2.01492
1.99773
1.97995
1.96159
1.94268
1.92322
1.90324
1.88276
1.86178
1.84032
1.8184
1.79603
1.77322
1.74999
1.72634
1.70229
1.67785
1.65303
1.62784
1.60229
1.5764
1.55017
1.52362
1.49676
1.4696
1.44216
1.41445
1.38648
1.35827
1.32983
1.30119
1.27235
1.24334
1.21417
1.18487
1.15544
1.12592
1.09633
1.06667
1.03699
1.00729
0.97761
0.947965
0.918383
0.888889
0.859507
0.830266
0.801192
0.772311
0.743651
0.715241
0.687109
0.659285
0.631801
0.604685
0.577971
0.551694
0.525891
0.500606
0.47589
0.451803
0.428415
0.40576
0.383732
0.362334
0.34151
0.321178
0.301284
0.281979
0.26319
0.244973
0.227306
0.210285
0.19393
0.178306
0.163305
0.149079
0.13579
0.123457
0.112009
0.101362
0.0914606
0.0822919
0.0738868
0.0663229
0.0597404
0.0543876
0.0507561
0.050054
0.0564939
0.0973814
0.199502
0.129347
0.118451
0.121713
0.130862
0.14338
0.158215
0.17482
0.192859
0.212061
0.232215
0.253157
0.274775
0.297002
0.319796
0.343121
0.36696
0.391324
0.41628
0.441912
0.46829
0.495462
0.523453
0.552269
0.581906
0.612348
0.643576
0.675567
0.70829
0.741714
0.7758
0.810508
0.845793
0.881607
0.917899
0.954615
0.991699
1.02909
1.06674
1.10458
1.14256
1.1806
1.21866
1.25668
1.29459
1.33233
1.36986
1.40711
1.44404
1.48058
1.5167
1.55234
1.58745
1.622
1.65593
1.68921
1.7218
1.75366
1.78476
1.81507
1.84455
1.87319
1.90094
1.9278
1.95373
1.97872
2.00274
2.02579
2.04784
2.06889
2.08892
2.10792
2.12588
2.14279
2.15864
2.17344
2.18718
2.19984
2.21144
2.22197
2.23144
2.23984
2.24717
2.25345
2.25869
2.26287
2.26601
2.26812
2.26921
2.26927
2.26832
2.26638
2.26345
2.25955
2.25469
2.24889
2.24216
2.23452
2.226
2.2166
2.20635
2.19527
2.18338
2.1707
2.15726
2.14307
2.12815
2.11254
2.09625
2.0793
2.06171
2.04351
2.02471
2.00534
1.9854
1.96492
1.94392
1.9224
1.90039
1.8779
1.85495
1.83154
1.80769
1.78341
1.75871
1.73361
1.70812
1.68224
1.656
1.62939
1.60244
1.57516
1.54755
1.51964
1.49144
1.46295
1.4342
1.4052
1.37597
1.34652
1.31687
1.28704
1.25704
1.2269
1.19664
1.16628
1.13584
1.10533
1.0748
1.04424
1.0137
0.983202
0.952761
0.922408
0.89217
0.862074
0.832147
0.802418
0.772915
0.743667
0.714704
0.686057
0.657757
0.629835
0.602324
0.575259
0.548676
0.522613
0.497109
0.472202
0.447928
0.424309
0.401329
0.378968
0.357206
0.336025
0.315419
0.295411
0.276016
0.257255
0.239136
0.221682
0.204919
0.188888
0.17361
0.159125
0.145486
0.132708
0.120773
0.109655
0.0993372
0.0898303
0.0811803
0.0734814
0.0669011
0.0617417
0.0586136
0.0590278
0.0681937
0.118328
0.199393
0.12927
0.118408
0.121689
0.130841
0.143356
0.158185
0.174797
0.192851
0.21206
0.232209
0.253143
0.274752
0.296973
0.319763
0.343085
0.366922
0.391283
0.416238
0.441869
0.468247
0.495421
0.523413
0.55223
0.581867
0.61231
0.643539
0.67553
0.708254
0.741678
0.775765
0.810474
0.84576
0.881575
0.917868
0.954584
0.991669
1.02907
1.06671
1.10456
1.14253
1.18058
1.21864
1.25665
1.29456
1.33231
1.36984
1.40709
1.44402
1.48057
1.51668
1.55232
1.58744
1.62198
1.65592
1.6892
1.72179
1.75365
1.78475
1.81506
1.84455
1.87318
1.90094
1.92779
1.95373
1.97871
2.00274
2.02579
2.04785
2.06889
2.08892
2.10792
2.12588
2.14279
2.15865
2.17345
2.18718
2.19985
2.21145
2.22198
2.23145
2.23985
2.24719
2.25347
2.2587
2.26289
2.26603
2.26814
2.26922
2.26929
2.26834
2.2664
2.26347
2.25957
2.25471
2.24891
2.24218
2.23454
2.22602
2.21662
2.20637
2.19529
2.1834
2.17073
2.15728
2.14309
2.12818
2.11257
2.09627
2.07932
2.06174
2.04353
2.02474
2.00536
1.98543
1.96495
1.94394
1.92243
1.90042
1.87793
1.85497
1.83156
1.80771
1.78344
1.75874
1.73364
1.70815
1.68227
1.65602
1.62942
1.60247
1.57519
1.54758
1.51967
1.49147
1.46298
1.43423
1.40523
1.376
1.34655
1.31689
1.28706
1.25707
1.22693
1.19667
1.16631
1.13586
1.10536
1.07482
1.04427
1.01373
0.983226
0.952785
0.922432
0.892194
0.862097
0.832169
0.802439
0.772936
0.743687
0.714724
0.686077
0.657776
0.629854
0.602343
0.575277
0.548693
0.52263
0.497125
0.472217
0.447943
0.424323
0.401341
0.378979
0.357216
0.336036
0.315428
0.295421
0.276026
0.257264
0.239144
0.22169
0.204928
0.1889
0.173621
0.159135
0.145493
0.132713
0.120778
0.109659
0.0993404
0.089833
0.0811825
0.0734832
0.0669024
0.0617426
0.0586146
0.0590297
0.0682
0.11833
0.235102
0.154148
0.140093
0.142595
0.152025
0.165337
0.181229
0.199011
0.218255
0.238659
0.260003
0.282125
0.304909
0.328278
0.352187
0.376608
0.401535
0.426984
0.452993
0.479617
0.506909
0.534913
0.563662
0.593172
0.623454
0.654505
0.686318
0.718877
0.752161
0.786143
0.820791
0.856067
0.891932
0.928337
0.965236
1.00258
1.0403
1.07836
1.11668
1.15522
1.19391
1.23269
1.27151
1.31029
1.34898
1.38753
1.42587
1.46395
1.50171
1.5391
1.57607
1.61256
1.64854
1.68395
1.71874
1.75289
1.78633
1.81905
1.851
1.88215
1.91247
1.94193
1.97049
1.99814
2.02486
2.05061
2.07538
2.09916
2.12192
2.14365
2.16434
2.18398
2.20255
2.22005
2.23647
2.25181
2.26605
2.2792
2.29125
2.3022
2.31206
2.32082
2.32849
2.33507
2.34056
2.34498
2.34833
2.35061
2.35183
2.352
2.35113
2.34923
2.34632
2.3424
2.3375
2.33162
2.32479
2.31703
2.30834
2.29875
2.28829
2.27696
2.2648
2.25182
2.23804
2.2235
2.2082
2.19218
2.17545
2.15804
2.13996
2.12125
2.10191
2.08197
2.06145
2.04036
2.01873
1.99656
1.97387
1.95069
1.92701
1.90286
1.87825
1.8532
1.82771
1.80179
1.77547
1.74875
1.72164
1.69416
1.66632
1.63812
1.6096
1.58076
1.55161
1.52216
1.49244
1.46246
1.43224
1.40179
1.37113
1.34028
1.30926
1.27809
1.24679
1.21538
1.18389
1.15233
1.12073
1.08912
1.05752
1.02595
0.994451
0.963037
0.93174
0.900587
0.869607
0.838831
0.808287
0.778006
0.748019
0.718356
0.68905
0.660133
0.631638
0.603599
0.576051
0.549027
0.522561
0.496683
0.471419
0.446786
0.422789
0.399426
0.376696
0.354601
0.333145
0.312342
0.292206
0.272752
0.253996
0.235952
0.218638
0.202077
0.186293
0.171309
0.157148
0.143822
0.13133
0.119671
0.108852
0.0989029
0.0898876
0.0819211
0.0752033
0.0700962
0.0673357
0.0687445
0.0805337
0.139512
0.234811
0.153985
0.140025
0.142572
0.152016
0.165325
0.181209
0.198986
0.218229
0.238634
0.259976
0.282095
0.304876
0.328243
0.352149
0.376569
0.401494
0.426941
0.45295
0.479573
0.506865
0.53487
0.563618
0.59313
0.623412
0.654464
0.686277
0.718837
0.752121
0.786104
0.820752
0.85603
0.891895
0.928301
0.965201
1.00254
1.04027
1.07832
1.11665
1.15519
1.19388
1.23266
1.27148
1.31026
1.34896
1.3875
1.42584
1.46392
1.50169
1.53908
1.57605
1.61254
1.64852
1.68393
1.71873
1.75287
1.78632
1.81904
1.85099
1.88214
1.91246
1.94192
1.97048
1.99814
2.02485
2.0506
2.07538
2.09915
2.12192
2.14365
2.16434
2.18398
2.20255
2.22005
2.23647
2.25181
2.26605
2.2792
2.29125
2.30221
2.31207
2.32083
2.3285
2.33508
2.34057
2.34499
2.34834
2.35062
2.35184
2.35201
2.35114
2.34925
2.34633
2.34242
2.33752
2.33164
2.32481
2.31705
2.30836
2.29877
2.28831
2.27698
2.26482
2.25184
2.23807
2.22352
2.20822
2.1922
2.17547
2.15806
2.13999
2.12127
2.10194
2.082
2.06148
2.04039
2.01875
1.99658
1.9739
1.95071
1.92704
1.90289
1.87828
1.85322
1.82773
1.80182
1.7755
1.74877
1.72167
1.69418
1.66634
1.63815
1.60963
1.58078
1.55163
1.52219
1.49247
1.46249
1.43226
1.40181
1.37115
1.3403
1.30928
1.27811
1.24681
1.21541
1.18391
1.15236
1.12076
1.08915
1.05754
1.02598
0.994475
0.96306
0.931762
0.900609
0.869629
0.838852
0.808308
0.778026
0.748039
0.718376
0.689069
0.660151
0.631656
0.603617
0.576068
0.549043
0.522576
0.496698
0.471433
0.446799
0.422801
0.399438
0.376708
0.354612
0.333156
0.312352
0.292215
0.272761
0.254004
0.23596
0.218645
0.202085
0.1863
0.171316
0.157154
0.143827
0.131335
0.119675
0.108855
0.098906
0.0898901
0.0819231
0.0752049
0.0700976
0.0673371
0.068747
0.0805412
0.139513
0.271306
0.180852
0.164238
0.166557
0.176709
0.191174
0.208451
0.227734
0.24852
0.270464
0.293318
0.316906
0.341102
0.365824
0.391023
0.416675
0.44278
0.469355
0.496433
0.524058
0.552277
0.581134
0.610664
0.640894
0.671844
0.703521
0.735928
0.769058
0.802897
0.837425
0.872615
0.908435
0.944848
0.98181
1.01928
1.0572
1.09552
1.13419
1.17314
1.21233
1.25168
1.29114
1.33066
1.37016
1.40958
1.44888
1.48798
1.52683
1.56538
1.60357
1.64135
1.67866
1.71545
1.75169
1.78731
1.82228
1.85656
1.89011
1.92288
1.95485
1.98598
2.01624
2.0456
2.07403
2.10151
2.12802
2.15353
2.17803
2.2015
2.22391
2.24526
2.26554
2.28473
2.30283
2.31981
2.33569
2.35045
2.36409
2.3766
2.38798
2.39824
2.40738
2.41539
2.42228
2.42805
2.43272
2.43628
2.43874
2.44011
2.4404
2.43962
2.43778
2.43489
2.43097
2.42603
2.42009
2.41316
2.40527
2.39642
2.38665
2.37596
2.36439
2.35195
2.33866
2.32455
2.30963
2.29394
2.2775
2.26032
2.24243
2.22385
2.2046
2.1847
2.16417
2.14304
2.12131
2.09901
2.07615
2.05276
2.02883
2.0044
1.97947
1.95406
1.92818
1.90185
1.87507
1.84787
1.82025
1.79222
1.76381
1.73501
1.70586
1.67635
1.64651
1.61635
1.58588
1.55513
1.5241
1.49281
1.46129
1.42956
1.39762
1.3655
1.33322
1.30081
1.26829
1.23567
1.20298
1.17025
1.13751
1.10477
1.07207
1.03943
1.00688
0.974447
0.942164
0.91006
0.878165
0.846509
0.815124
0.784042
0.753294
0.722914
0.692933
0.663387
0.634307
0.605727
0.57768
0.550195
0.523302
0.497022
0.471375
0.446373
0.422026
0.398342
0.375329
0.353001
0.331368
0.310444
0.290245
0.270782
0.25207
0.23412
0.216947
0.200567
0.184994
0.17024
0.156316
0.143229
0.130991
0.119623
0.109173
0.0997208
0.0914056
0.0844629
0.0793188
0.0768402
0.0791695
0.0935249
0.161328
0.270614
0.180493
0.164139
0.166544
0.176722
0.19118
0.208441
0.227712
0.248491
0.270431
0.293284
0.316869
0.341063
0.365784
0.390981
0.416632
0.442736
0.469309
0.496387
0.524012
0.552231
0.581087
0.610617
0.640848
0.671798
0.703476
0.735883
0.769014
0.802853
0.837382
0.872573
0.908394
0.944807
0.98177
1.01924
1.05716
1.09548
1.13415
1.17311
1.21229
1.25165
1.29111
1.33062
1.37012
1.40955
1.44885
1.48795
1.52681
1.56536
1.60355
1.64132
1.67863
1.71543
1.75167
1.78729
1.82227
1.85655
1.89009
1.92287
1.95484
1.98597
2.01623
2.04559
2.07402
2.1015
2.12801
2.15353
2.17802
2.20149
2.22391
2.24526
2.26554
2.28473
2.30282
2.31981
2.33569
2.35045
2.36409
2.3766
2.38799
2.39825
2.40738
2.41539
2.42229
2.42806
2.43273
2.43629
2.43875
2.44012
2.44041
2.43963
2.43779
2.43491
2.43099
2.42605
2.42011
2.41318
2.40528
2.39644
2.38667
2.37598
2.36441
2.35197
2.33868
2.32457
2.30966
2.29397
2.27752
2.26034
2.24245
2.22387
2.20462
2.18472
2.1642
2.14306
2.12134
2.09903
2.07618
2.05278
2.02886
2.00443
1.9795
1.95409
1.92821
1.90188
1.8751
1.84789
1.82027
1.79225
1.76383
1.73504
1.70588
1.67638
1.64654
1.61637
1.58591
1.55515
1.52412
1.49284
1.46132
1.42958
1.39764
1.36552
1.33325
1.30084
1.26831
1.23569
1.20301
1.17028
1.13753
1.10479
1.07209
1.03945
1.0069
0.974469
0.942186
0.910081
0.878185
0.846529
0.815144
0.784061
0.753313
0.722932
0.692951
0.663404
0.634324
0.605743
0.577695
0.55021
0.523316
0.497035
0.471388
0.446385
0.422037
0.398352
0.37534
0.353011
0.331377
0.310454
0.290254
0.270791
0.252078
0.234127
0.216954
0.200574
0.185
0.170246
0.156322
0.143234
0.130995
0.119627
0.109176
0.0997237
0.091408
0.0844649
0.0793206
0.0768421
0.0791728
0.0935339
0.161329
0.306114
0.20908
0.191
0.193842
0.205122
0.221026
0.239937
0.260964
0.283533
0.307249
0.331831
0.357079
0.382854
0.409065
0.435661
0.46262
0.489944
0.517654
0.545784
0.57438
0.603487
0.633152
0.663417
0.694317
0.725878
0.75812
0.791052
0.824676
0.858987
0.893969
0.929604
0.965864
1.00272
1.04012
1.07804
1.11642
1.15521
1.19436
1.23381
1.27351
1.3134
1.35341
1.39349
1.43358
1.47361
1.51352
1.55326
1.59276
1.63197
1.67084
1.7093
1.74731
1.78482
1.82177
1.85811
1.89381
1.92882
1.9631
1.9966
2.0293
2.06116
2.09214
2.12222
2.15136
2.17954
2.20673
2.23292
2.25808
2.2822
2.30524
2.32721
2.34809
2.36785
2.3865
2.40403
2.42042
2.43566
2.44977
2.46272
2.47452
2.48516
2.49466
2.503
2.51019
2.51624
2.52115
2.52492
2.52757
2.52909
2.5295
2.52882
2.52704
2.52419
2.52028
2.51531
2.50931
2.5023
2.49429
2.48531
2.47536
2.46447
2.45266
2.43996
2.42638
2.41194
2.39668
2.38061
2.36376
2.34614
2.32778
2.30871
2.28894
2.2685
2.24739
2.22566
2.2033
2.18035
2.15681
2.13271
2.10806
2.08288
2.05718
2.03097
2.00428
1.97711
1.94947
1.92139
1.89287
1.86393
1.83459
1.80484
1.77472
1.74423
1.7134
1.68222
1.65073
1.61894
1.58686
1.55452
1.52193
1.4891
1.45607
1.42286
1.38947
1.35594
1.32229
1.28855
1.25473
1.22087
1.18698
1.1531
1.11926
1.08548
1.05179
1.01822
0.984809
0.951577
0.91856
0.88579
0.853299
0.821119
0.789285
0.757828
0.726783
0.696183
0.666062
0.636452
0.607384
0.578888
0.550993
0.523721
0.497093
0.471127
0.445836
0.421236
0.39734
0.374161
0.351713
0.330008
0.309061
0.288881
0.26948
0.250866
0.23305
0.21604
0.199844
0.184471
0.169929
0.15623
0.143393
0.131452
0.120466
0.110534
0.101819
0.0945949
0.0893547
0.0871007
0.0902973
0.107142
0.183277
0.304708
0.208241
0.190947
0.193868
0.205166
0.221054
0.239939
0.260946
0.283503
0.307213
0.331791
0.357037
0.38281
0.40902
0.435615
0.462573
0.489896
0.517605
0.545735
0.57433
0.603436
0.633102
0.663367
0.694267
0.725829
0.758071
0.791004
0.824629
0.85894
0.893923
0.929559
0.96582
1.00267
1.04008
1.07799
1.11637
1.15517
1.19432
1.23378
1.27348
1.31336
1.35338
1.39346
1.43355
1.47358
1.51349
1.55323
1.59273
1.63195
1.67081
1.70928
1.74729
1.78479
1.82174
1.85809
1.89379
1.9288
1.96308
1.99659
2.02929
2.06114
2.09213
2.1222
2.15134
2.17953
2.20672
2.23291
2.25807
2.28219
2.30524
2.32721
2.34808
2.36785
2.3865
2.40402
2.42041
2.43566
2.44976
2.46272
2.47452
2.48517
2.49466
2.503
2.5102
2.51624
2.52115
2.52493
2.52757
2.5291
2.52951
2.52883
2.52705
2.5242
2.52029
2.51532
2.50933
2.50232
2.49431
2.48532
2.47537
2.46448
2.45268
2.43997
2.4264
2.41196
2.3967
2.38063
2.36378
2.34616
2.32781
2.30873
2.28896
2.26852
2.24742
2.22568