/*--------------------------------*- C++ -*----------------------------------*\
  =========                 |
  \\      /  F ield         | OpenFOAM: The Open Source CFD Toolbox
   \\    /   O peration     | Website:  https://openfoam.org
    \\  /    A nd           | Version:  8
     \\/     M anipulation  |
\*---------------------------------------------------------------------------*/
FoamFile
{
    version     2.0;
    format      ascii;
    class       volScalarField;
    location    "300";
    object      nut;
}
// * * * * * * * * * * * * * * * * * * * * * * * * * * * * * * * * * * * * * //

dimensions      [0 2 -1 0 0 0 0];

internalField   nonuniform List<scalar> 
48000
(
3.08238e-05
6.37036e-05
9.02189e-05
0.000115065
0.000138273
0.000159654
0.000178218
0.000192472
0.000201028
0.000199296
3.43051e-05
0.000222456
0.000246905
4.50019e-05
4.41926e-05
4.51395e-05
4.49511e-05
5.18487e-05
4.99008e-05
5.03833e-05
5.13866e-05
5.24686e-05
5.3547e-05
5.46076e-05
5.56483e-05
5.66694e-05
5.76717e-05
5.86559e-05
5.96225e-05
6.05718e-05
6.15036e-05
6.24183e-05
6.33157e-05
6.41958e-05
6.50588e-05
6.59042e-05
6.67321e-05
6.75423e-05
6.83346e-05
6.9109e-05
6.98655e-05
7.0604e-05
7.13244e-05
7.20267e-05
7.27108e-05
7.33768e-05
7.40248e-05
7.46547e-05
7.52668e-05
7.58609e-05
7.64372e-05
7.69958e-05
7.75368e-05
7.80604e-05
7.85666e-05
7.90556e-05
7.95276e-05
7.99825e-05
8.04207e-05
8.08422e-05
8.12472e-05
8.16358e-05
8.20081e-05
8.23643e-05
8.27046e-05
8.30291e-05
8.3338e-05
8.36315e-05
8.39098e-05
8.4173e-05
8.44212e-05
8.46545e-05
8.48731e-05
8.50772e-05
8.52668e-05
8.54421e-05
8.56033e-05
8.57503e-05
8.58834e-05
8.60025e-05
8.61078e-05
8.61995e-05
8.62778e-05
8.63428e-05
8.63969e-05
8.64379e-05
8.64657e-05
8.64802e-05
8.64818e-05
8.64706e-05
8.64467e-05
8.64104e-05
8.63617e-05
8.63009e-05
8.62281e-05
8.61434e-05
8.6047e-05
8.5939e-05
8.58196e-05
8.56888e-05
8.55468e-05
8.53938e-05
8.52298e-05
8.50551e-05
8.48698e-05
8.46742e-05
8.44685e-05
8.42527e-05
8.4027e-05
8.37914e-05
8.35461e-05
8.32914e-05
8.30273e-05
8.27536e-05
8.247e-05
8.21765e-05
8.18732e-05
8.15607e-05
8.12392e-05
8.09083e-05
8.05676e-05
8.0217e-05
7.98564e-05
7.94862e-05
7.91064e-05
7.87166e-05
7.83164e-05
7.79056e-05
7.74843e-05
7.70529e-05
7.66112e-05
7.61589e-05
7.56957e-05
7.52215e-05
7.47361e-05
7.42396e-05
7.37316e-05
7.32118e-05
7.26801e-05
7.2137e-05
7.15825e-05
7.10167e-05
7.04388e-05
6.98482e-05
6.92448e-05
6.86289e-05
6.80007e-05
6.73605e-05
6.67079e-05
6.60423e-05
6.53635e-05
6.46716e-05
6.3967e-05
6.32497e-05
6.25193e-05
6.17753e-05
6.10176e-05
6.02462e-05
5.94617e-05
5.86645e-05
5.78542e-05
5.70303e-05
5.61924e-05
5.53404e-05
5.44744e-05
5.3595e-05
5.27022e-05
5.17949e-05
5.08705e-05
4.99293e-05
4.90646e-05
4.98696e-05
0.000349162
0.000373044
0.00035376
0.000330784
0.000287227
4.20586e-05
0.000232433
0.000235288
0.000209288
3.40121e-05
3.28672e-05
3.29955e-05
0.000196706
0.000196664
0.000191153
0.000181936
0.000170064
0.000156527
0.000142085
0.000127186
0.000112106
9.73389e-05
8.28669e-05
6.86927e-05
5.47234e-05
4.08518e-05
2.64189e-05
9.87435e-06
3.08096e-05
6.36742e-05
9.01876e-05
0.000114995
0.000138002
0.000158623
0.000174923
0.000184546
0.00019216
0.000203025
0.000216399
0.000243192
0.000248314
4.51087e-05
4.42623e-05
4.51862e-05
4.49154e-05
5.17539e-05
4.99061e-05
5.03863e-05
5.13855e-05
5.24664e-05
5.35445e-05
5.46049e-05
5.56454e-05
5.66664e-05
5.76688e-05
5.86532e-05
5.96198e-05
6.0569e-05
6.15009e-05
6.24155e-05
6.33129e-05
6.41931e-05
6.50559e-05
6.59013e-05
6.6729e-05
6.75389e-05
6.83312e-05
6.91055e-05
6.9862e-05
7.06004e-05
7.13208e-05
7.2023e-05
7.27071e-05
7.33732e-05
7.40212e-05
7.46513e-05
7.52633e-05
7.58575e-05
7.64338e-05
7.69924e-05
7.75334e-05
7.80569e-05
7.85631e-05
7.90521e-05
7.9524e-05
7.99789e-05
8.0417e-05
8.08385e-05
8.12435e-05
8.16321e-05
8.20044e-05
8.23607e-05
8.2701e-05
8.30256e-05
8.33346e-05
8.36281e-05
8.39064e-05
8.41695e-05
8.44176e-05
8.46508e-05
8.48694e-05
8.50734e-05
8.52629e-05
8.54382e-05
8.55993e-05
8.57463e-05
8.58794e-05
8.59985e-05
8.61039e-05
8.61957e-05
8.6274e-05
8.63392e-05
8.63933e-05
8.64343e-05
8.6462e-05
8.64765e-05
8.6478e-05
8.64667e-05
8.64428e-05
8.64064e-05
8.63577e-05
8.62968e-05
8.62239e-05
8.61392e-05
8.60428e-05
8.59347e-05
8.58152e-05
8.56843e-05
8.55422e-05
8.53891e-05
8.52252e-05
8.50506e-05
8.48655e-05
8.46701e-05
8.44646e-05
8.4249e-05
8.40232e-05
8.37875e-05
8.35421e-05
8.32873e-05
8.30231e-05
8.27492e-05
8.24654e-05
8.21719e-05
8.18688e-05
8.15566e-05
8.12352e-05
8.09044e-05
8.05636e-05
8.02129e-05
7.98524e-05
7.94823e-05
7.91024e-05
7.87125e-05
7.83122e-05
7.79014e-05
7.74802e-05
7.7049e-05
7.66074e-05
7.61552e-05
7.5692e-05
7.52177e-05
7.47322e-05
7.42355e-05
7.37275e-05
7.32079e-05
7.26766e-05
7.21337e-05
7.15791e-05
7.10128e-05
7.04345e-05
6.98439e-05
6.92409e-05
6.86255e-05
6.79976e-05
6.73572e-05
6.6704e-05
6.60381e-05
6.53594e-05
6.46681e-05
6.39639e-05
6.32466e-05
6.25158e-05
6.17713e-05
6.10134e-05
6.02424e-05
5.94585e-05
5.86616e-05
5.78512e-05
5.70269e-05
5.61885e-05
5.53362e-05
5.44705e-05
5.35915e-05
5.2699e-05
5.17916e-05
5.08666e-05
4.99231e-05
4.90484e-05
4.98124e-05
0.000348683
0.000373562
0.000354764
0.000331772
0.000288151
4.21068e-05
0.000232032
0.000235301
0.00020974
3.41046e-05
3.28517e-05
3.28663e-05
0.000195902
0.000196572
0.000191134
0.000181909
0.000170033
0.000156499
0.000142061
0.000127165
0.000112086
9.73215e-05
8.28516e-05
6.86794e-05
5.47118e-05
4.08422e-05
2.64112e-05
9.86852e-06
4.11282e-05
0.000146098
0.000224132
0.000283639
0.00033305
0.000374272
0.000406764
0.000426394
0.000424761
0.00039147
0.000316634
0.000411481
0.000427696
0.000353713
0.000348361
0.000357148
0.000377019
0.000453512
0.000482223
0.000497894
0.000510501
0.000522102
0.000533157
0.000543816
0.000554148
0.000564199
0.000573996
0.000583559
0.000592902
0.000602036
0.000610967
0.000619701
0.000628243
0.000636595
0.000644761
0.000652741
0.000660538
0.000668153
0.000675587
0.00068284
0.000689915
0.000696812
0.000703532
0.000710077
0.000716446
0.000722642
0.000728665
0.000734517
0.000740199
0.000745712
0.000751057
0.000756236
0.000761249
0.0007661
0.000770787
0.000775314
0.000779682
0.000783891
0.000787943
0.000791841
0.000795584
0.000799175
0.000802615
0.000805905
0.000809047
0.000812042
0.000814891
0.000817596
0.000820158
0.000822577
0.000824855
0.000826993
0.000828992
0.000830853
0.000832578
0.000834166
0.00083562
0.000836939
0.000838126
0.00083918
0.000840103
0.000840895
0.000841556
0.000842085
0.000842463
0.000842702
0.00084281
0.000842791
0.000842648
0.000842382
0.000841994
0.000841488
0.000840863
0.000840122
0.000839267
0.000838297
0.000837217
0.000836025
0.000834726
0.000833318
0.000831805
0.000830187
0.000828466
0.000826643
0.00082472
0.000822698
0.000820579
0.000818363
0.000816051
0.000813645
0.000811145
0.000808552
0.000805864
0.000803083
0.000800208
0.000797237
0.00079417
0.000791009
0.000787752
0.0007844
0.00078095
0.000777401
0.000773753
0.000770005
0.000766157
0.000762207
0.000758154
0.000753996
0.000749732
0.000745363
0.000740888
0.000736305
0.000731613
0.00072681
0.000721897
0.000716871
0.000711732
0.000706478
0.000701108
0.000695624
0.000690023
0.000684305
0.000678469
0.000672513
0.000666436
0.000660237
0.000653917
0.000647475
0.000640911
0.000634223
0.00062741
0.000620473
0.000613412
0.000606226
0.000598916
0.00059148
0.000583917
0.000576229
0.000568416
0.000560481
0.000552422
0.000544239
0.000535932
0.000527498
0.000518938
0.00051025
0.000501429
0.000492457
0.000483304
0.000474008
0.000465444
0.000464483
0.00052131
0.000523071
0.000503258
0.000481609
0.000450675
0.000356532
0.000410564
0.000411146
0.000383768
0.000289696
0.000270938
0.000273193
0.000380539
0.000419842
0.000425809
0.000417143
0.000401244
0.000381596
0.000359952
0.000337153
0.000313548
0.000289033
0.000263058
0.000234564
0.00020106
0.000157711
9.68101e-05
1.94611e-05
4.11155e-05
0.000146095
0.000224136
0.000283579
0.000332612
0.000372316
0.00039983
0.000406924
0.000388903
0.000395206
0.000406146
0.000428974
0.000431379
0.000355258
0.000348785
0.000356987
0.000375962
0.000452103
0.000481764
0.000497783
0.00051047
0.000522081
0.000533134
0.00054379
0.000554121
0.00056417
0.000573966
0.000583528
0.000592871
0.000602003
0.000610934
0.000619667
0.000628208
0.000636559
0.000644724
0.000652703
0.000660499
0.000668113
0.000675546
0.000682799
0.000689873
0.00069677
0.00070349
0.000710033
0.000716403
0.000722598
0.000728621
0.000734473
0.000740155
0.000745667
0.000751012
0.000756191
0.000761204
0.000766054
0.000770741
0.000775268
0.000779635
0.000783844
0.000787896
0.000791793
0.000795536
0.000799127
0.000802567
0.000805857
0.000808999
0.000811994
0.000814843
0.000817548
0.000820109
0.000822529
0.000824806
0.000826944
0.000828943
0.000830804
0.000832528
0.000834116
0.00083557
0.000836889
0.000838076
0.00083913
0.000840053
0.000840845
0.000841507
0.000842035
0.000842412
0.000842652
0.000842759
0.00084274
0.000842596
0.00084233
0.000841943
0.000841437
0.000840812
0.000840072
0.000839216
0.000838247
0.000837166
0.000835975
0.000834674
0.000833266
0.000831753
0.000830134
0.000828413
0.00082659
0.000824667
0.000822646
0.000820527
0.000818312
0.000816001
0.000813596
0.000811095
0.000808501
0.000805814
0.000803032
0.000800156
0.000797184
0.000794118
0.000790957
0.000787702
0.00078435
0.0007809
0.000777351
0.000773704
0.000769956
0.000766108
0.000762158
0.000758105
0.000753947
0.000749683
0.000745315
0.00074084
0.000736257
0.000731565
0.000726762
0.000721849
0.000716823
0.000711685
0.000706431
0.000701063
0.000695578
0.000689976
0.000684258
0.000678422
0.000672467
0.000666391
0.000660193
0.000653873
0.000647431
0.000640866
0.000634178
0.000627366
0.00062043
0.00061337
0.000606185
0.000598874
0.000591437
0.000583874
0.000576187
0.000568376
0.000560441
0.000552383
0.0005442
0.000535891
0.000527457
0.000518898
0.000510211
0.00050139
0.000492416
0.000483252
0.000473907
0.000465165
0.000463736
0.000520611
0.000523453
0.000504277
0.000483078
0.00045275
0.00035702
0.00040981
0.000411624
0.000385677
0.000290698
0.000270609
0.000271645
0.000378063
0.000419146
0.00042569
0.000417102
0.00040121
0.00038157
0.000359934
0.000337138
0.000313536
0.000289022
0.000263049
0.000234557
0.000201058
0.000157713
9.6814e-05
1.94691e-05
5.7857e-05
0.000205515
0.000332526
0.000430706
0.000509913
0.000574937
0.000627346
0.000665902
0.000689164
0.000706909
0.000709085
0.000753496
0.000789942
0.000802597
0.000823904
0.000850071
0.000879781
0.00092665
0.000961959
0.000990897
0.0010167
0.00104059
0.00106312
0.00108458
0.00110516
0.00112501
0.00114421
0.00116283
0.00118092
0.00119851
0.00121563
0.0012323
0.00124854
0.00126436
0.00127978
0.00129481
0.00130946
0.00132373
0.00133762
0.00135116
0.00136434
0.00137717
0.00138965
0.00140179
0.00141359
0.00142506
0.0014362
0.00144702
0.00145751
0.00146769
0.00147755
0.0014871
0.00149635
0.00150529
0.00151393
0.00152227
0.00153032
0.00153807
0.00154554
0.00155272
0.00155961
0.00156623
0.00157257
0.00157863
0.00158442
0.00158993
0.00159518
0.00160016
0.00160487
0.00160932
0.00161351
0.00161744
0.00162111
0.00162453
0.00162768
0.00163059
0.00163324
0.00163564
0.00163779
0.00163969
0.00164135
0.00164275
0.00164391
0.00164482
0.00164547
0.00164586
0.00164601
0.00164592
0.00164559
0.00164503
0.00164423
0.00164322
0.00164197
0.00164051
0.00163882
0.00163692
0.00163481
0.00163249
0.00162996
0.00162722
0.00162428
0.00162114
0.0016178
0.00161426
0.00161054
0.00160662
0.00160251
0.00159822
0.00159375
0.00158909
0.00158424
0.00157921
0.001574
0.00156861
0.00156303
0.00155726
0.00155131
0.00154518
0.00153885
0.00153234
0.00152563
0.00151873
0.00151164
0.00150435
0.00149686
0.00148917
0.00148128
0.00147319
0.00146489
0.00145638
0.00144766
0.00143873
0.00142959
0.00142024
0.00141066
0.00140087
0.00139085
0.00138062
0.00137015
0.00135947
0.00134856
0.00133742
0.00132604
0.00131444
0.00130261
0.00129053
0.00127823
0.00126569
0.00125291
0.00123989
0.00122664
0.00121315
0.00119942
0.00118545
0.00117124
0.00115679
0.00114211
0.00112719
0.00111203
0.00109664
0.00108102
0.00106516
0.00104906
0.00103272
0.00101614
0.00099931
0.000982195
0.00096474
0.000946814
0.000928155
0.000908483
0.000888937
0.000879082
0.000859886
0.000835728
0.000812134
0.000789948
0.000752372
0.000743381
0.000729361
0.000714106
0.000680849
0.000659905
0.000647404
0.000668447
0.000675964
0.00067077
0.000655915
0.000634311
0.000608255
0.000579184
0.00054776
0.000514009
0.000477298
0.000436204
0.000388104
0.000328471
0.000250062
0.000145479
3.1297e-05
5.78398e-05
0.000205519
0.000332563
0.000430754
0.000509797
0.000573902
0.000622977
0.000653532
0.000672908
0.00069728
0.000724664
0.000757777
0.000791409
0.000802448
0.000822678
0.000848349
0.00087774
0.000925539
0.000961614
0.000990838
0.0010167
0.0010406
0.00106311
0.00108456
0.00110514
0.00112498
0.00114418
0.0011628
0.00118088
0.00119847
0.00121558
0.00123225
0.00124849
0.00126431
0.00127973
0.00129476
0.0013094
0.00132367
0.00133756
0.0013511
0.00136428
0.0013771
0.00138958
0.00140172
0.00141352
0.00142499
0.00143613
0.00144694
0.00145744
0.00146761
0.00147747
0.00148702
0.00149627
0.00150521
0.00151385
0.00152219
0.00153023
0.00153799
0.00154545
0.00155263
0.00155953
0.00156615
0.00157248
0.00157854
0.00158433
0.00158985
0.00159509
0.00160007
0.00160479
0.00160924
0.00161342
0.00161735
0.00162102
0.00162444
0.00162759
0.0016305
0.00163315
0.00163555
0.0016377
0.0016396
0.00164126
0.00164266
0.00164382
0.00164473
0.00164537
0.00164577
0.00164591
0.00164582
0.00164549
0.00164493
0.00164414
0.00164312
0.00164188
0.00164041
0.00163873
0.00163683
0.00163472
0.00163239
0.00162986
0.00162712
0.00162418
0.00162104
0.0016177
0.00161416
0.00161044
0.00160652
0.00160242
0.00159813
0.00159365
0.00158899
0.00158414
0.00157912
0.0015739
0.00156851
0.00156293
0.00155717
0.00155121
0.00154508
0.00153875
0.00153224
0.00152554
0.00151864
0.00151154
0.00150426
0.00149677
0.00148908
0.00148119
0.00147309
0.00146479
0.00145629
0.00144757
0.00143864
0.0014295
0.00142014
0.00141057
0.00140077
0.00139076
0.00138052
0.00137006
0.00135938
0.00134846
0.00133732
0.00132595
0.00131435
0.00130252
0.00129045
0.00127814
0.0012656
0.00125282
0.00123981
0.00122655
0.00121306
0.00119933
0.00118536
0.00117116
0.00115671
0.00114203
0.00112711
0.00111195
0.00109656
0.00108094
0.00106508
0.00104898
0.00103264
0.00101607
0.000999232
0.000982117
0.000964662
0.000946734
0.000928063
0.000908359
0.000888825
0.000879699
0.000861225
0.000837434
0.000813948
0.000791753
0.000752728
0.00074375
0.000730161
0.000715116
0.000680349
0.000657907
0.000644453
0.000666666
0.000675333
0.000670553
0.000655801
0.000634232
0.000608198
0.000579142
0.000547726
0.00051398
0.000477274
0.000436186
0.000388093
0.00032847
0.000250068
0.000145484
3.13056e-05
7.4904e-05
0.00025012
0.00041284
0.000543645
0.000650141
0.000738942
0.000813865
0.000876822
0.000929228
0.000976534
0.00101802
0.0010645
0.00111073
0.00115257
0.00119395
0.00123536
0.0012767
0.00132039
0.00136171
0.00140031
0.0014365
0.00147063
0.00150299
0.00153384
0.0015634
0.00159182
0.00161923
0.00164572
0.00167138
0.00169625
0.00172038
0.00174382
0.00176659
0.00178872
0.00181024
0.00183117
0.00185152
0.00187131
0.00189056
0.00190927
0.00192747
0.00194516
0.00196235
0.00197905
0.00199527
0.00201103
0.00202632
0.00204115
0.00205554
0.00206948
0.00208299
0.00209607
0.00210872
0.00212096
0.00213278
0.00214419
0.0021552
0.00216581
0.00217602
0.00218585
0.00219528
0.00220434
0.00221301
0.0022213
0.00222922
0.00223677
0.00224396
0.00225077
0.00225723
0.00226332
0.00226906
0.00227444
0.00227947
0.00228414
0.00228846
0.00229244
0.00229607
0.00229935
0.00230229
0.00230489
0.00230714
0.00230905
0.00231062
0.00231185
0.00231273
0.00231327
0.00231348
0.00231335
0.0023129
0.00231212
0.00231103
0.00230962
0.0023079
0.00230587
0.00230354
0.0023009
0.00229797
0.00229475
0.00229124
0.00228743
0.00228335
0.00227899
0.00227435
0.00226944
0.00226425
0.0022588
0.00225309
0.00224711
0.00224088
0.00223438
0.00222763
0.00222061
0.00221334
0.00220581
0.00219802
0.00218996
0.00218165
0.00217307
0.00216423
0.00215512
0.00214574
0.00213609
0.00212616
0.00211596
0.00210548
0.00209471
0.00208366
0.00207233
0.0020607
0.00204878
0.00203657
0.00202406
0.00201124
0.00199813
0.00198471
0.00197099
0.00195695
0.0019426
0.00192794
0.00191296
0.00189766
0.00188205
0.00186611
0.00184985
0.00183326
0.00181634
0.0017991
0.00178152
0.00176362
0.00174539
0.00172682
0.00170792
0.0016887
0.00166914
0.00164925
0.00162903
0.00160849
0.00158761
0.00156641
0.00154489
0.00152305
0.00150088
0.00147839
0.00145557
0.00143241
0.00140889
0.00138499
0.00136064
0.00133572
0.00131003
0.00128324
0.00125541
0.00122839
0.00119985
0.00117042
0.00114158
0.00111415
0.00108462
0.00105954
0.00103534
0.0010128
0.000988555
0.000966031
0.000945016
0.000930582
0.000915088
0.000895549
0.000870976
0.000841629
0.000808199
0.000771203
0.000730721
0.00068627
0.000636643
0.000579663
0.000511786
0.000427646
0.000320016
0.000183406
4.2964e-05
7.48782e-05
0.000250115
0.000412868
0.000543723
0.000650264
0.000738942
0.000813017
0.000873427
0.000924472
0.00097236
0.00101859
0.00106476
0.00111099
0.00115254
0.00119364
0.0012349
0.00127613
0.0013201
0.00136166
0.00140035
0.00143655
0.00147067
0.00150301
0.00153385
0.0015634
0.00159181
0.00161921
0.0016457
0.00167135
0.00169622
0.00172035
0.00174378
0.00176655
0.00178868
0.0018102
0.00183112
0.00185147
0.00187126
0.0018905
0.00190922
0.00192741
0.0019451
0.00196229
0.00197899
0.00199521
0.00201096
0.00202625
0.00204108
0.00205546
0.0020694
0.00208291
0.00209599
0.00210864
0.00212087
0.0021327
0.00214411
0.00215512
0.00216572
0.00217594
0.00218576
0.00219519
0.00220425
0.00221292
0.00222121
0.00222913
0.00223668
0.00224386
0.00225068
0.00225713
0.00226323
0.00226896
0.00227434
0.00227937
0.00228404
0.00228837
0.00229234
0.00229597
0.00229925
0.00230219
0.00230479
0.00230704
0.00230895
0.00231052
0.00231175
0.00231263
0.00231317
0.00231337
0.00231324
0.00231279
0.00231201
0.00231092
0.00230951
0.00230779
0.00230576
0.00230343
0.0023008
0.00229787
0.00229464
0.00229113
0.00228733
0.00228324
0.00227888
0.00227424
0.00226933
0.00226414
0.00225869
0.00225298
0.002247
0.00224077
0.00223427
0.00222752
0.0022205
0.00221323
0.0022057
0.00219791
0.00218985
0.00218154
0.00217296
0.00216412
0.00215501
0.00214563
0.00213598
0.00212605
0.00211585
0.00210537
0.0020946
0.00208355
0.00207222
0.00206059
0.00204867
0.00203646
0.00202395
0.00201114
0.00199802
0.0019846
0.00197088
0.00195684
0.0019425
0.00192783
0.00191286
0.00189756
0.00188194
0.001866
0.00184974
0.00183315
0.00181624
0.00179899
0.00178142
0.00176352
0.00174528
0.00172672
0.00170782
0.0016886
0.00166904
0.00164915
0.00162893
0.00160839
0.00158752
0.00156632
0.0015448
0.00152295
0.00150079
0.00147829
0.00145547
0.00143231
0.0014088
0.0013849
0.00136055
0.00133563
0.00130994
0.00128315
0.00125535
0.00122859
0.00120029
0.00117099
0.00114217
0.00111473
0.00108474
0.00105962
0.0010355
0.00101304
0.000988309
0.00096524
0.000943835
0.000929809
0.000914708
0.000895351
0.000870851
0.000841543
0.000808136
0.000771154
0.000730682
0.000686237
0.000636617
0.000579645
0.000511779
0.000427651
0.000320027
0.000183411
4.29752e-05
9.2893e-05
0.000287442
0.000475433
0.000631533
0.000761062
0.00087094
0.000966026
0.00104957
0.00112396
0.00119204
0.00125514
0.00131574
0.00137418
0.00143017
0.0014843
0.00153698
0.00158837
0.00163882
0.00168759
0.00173431
0.0017789
0.00182143
0.00186205
0.00190092
0.00193823
0.00197411
0.0020087
0.0020421
0.00207438
0.00210563
0.0021359
0.00216523
0.00219369
0.00222129
0.00224809
0.0022741
0.00229936
0.00232389
0.00234772
0.00237085
0.00239332
0.00241514
0.00243632
0.00245688
0.00247684
0.0024962
0.00251498
0.00253318
0.00255083
0.00256793
0.00258448
0.00260051
0.00261601
0.00263099
0.00264546
0.00265943
0.00267291
0.00268589
0.00269839
0.00271041
0.00272196
0.00273304
0.00274365
0.00275381
0.0027635
0.00277275
0.00278154
0.00278989
0.0027978
0.00280526
0.00281229
0.00281888
0.00282505
0.00283078
0.00283608
0.00284096
0.00284541
0.00284944
0.00285305
0.00285624
0.00285901
0.00286136
0.00286329
0.0028648
0.0028659
0.00286659
0.00286686
0.00286674
0.00286621
0.00286529
0.00286397
0.00286227
0.00286018
0.00285772
0.00285488
0.00285167
0.0028481
0.00284416
0.00283986
0.00283521
0.00283021
0.00282486
0.00281918
0.00281315
0.00280679
0.0028001
0.00279308
0.00278573
0.00277806
0.00277007
0.00276175
0.00275311
0.00274416
0.00273487
0.00272527
0.00271534
0.00270509
0.00269451
0.0026836
0.00267235
0.00266078
0.00264886
0.00263661
0.00262401
0.00261106
0.00259777
0.00258412
0.00257012
0.00255575
0.00254103
0.00252594
0.00251048
0.00249465
0.00247845
0.00246186
0.0024449
0.00242756
0.00240983
0.00239171
0.0023732
0.00235429
0.002335
0.0023153
0.0022952
0.00227471
0.00225381
0.0022325
0.00221079
0.00218867
0.00216615
0.00214322
0.00211988
0.00209614
0.00207199
0.00204744
0.00202248
0.00199713
0.00197138
0.00194523
0.00191868
0.00189174
0.00186442
0.00183669
0.00180857
0.00178004
0.00175109
0.00172169
0.00169179
0.00166132
0.00163018
0.00159823
0.00156545
0.00153222
0.00149848
0.00146449
0.0014307
0.0013975
0.00136439
0.00133222
0.00130078
0.00127032
0.00124031
0.00121093
0.00118189
0.00115374
0.00112506
0.00109433
0.00106052
0.00102314
0.000982058
0.000937065
0.000887681
0.000832924
0.000771075
0.0006994
0.000613793
0.000508538
0.000376819
0.000215257
5.46827e-05
9.28507e-05
0.000287419
0.000475419
0.000631548
0.000761132
0.000871055
0.000966035
0.00104904
0.00112302
0.00119103
0.00125482
0.00131562
0.00137421
0.00143021
0.00148432
0.00153698
0.00158834
0.00163884
0.00168765
0.00173439
0.00177897
0.00182149
0.00186209
0.00190096
0.00193826
0.00197413
0.00200872
0.00204211
0.00207439
0.00210563
0.00213589
0.00216522
0.00219367
0.00222128
0.00224807
0.00227408
0.00229934
0.00232386
0.00234768
0.00237082
0.00239328
0.0024151
0.00243628
0.00245683
0.00247679
0.00249614
0.00251492
0.00253313
0.00255077
0.00256787
0.00258442
0.00260044
0.00261594
0.00263092
0.00264539
0.00265936
0.00267284
0.00268582
0.00269832
0.00271034
0.00272188
0.00273296
0.00274357
0.00275373
0.00276342
0.00277266
0.00278146
0.00278981
0.00279771
0.00280518
0.0028122
0.0028188
0.00282496
0.00283069
0.00283599
0.00284087
0.00284532
0.00284935
0.00285296
0.00285614
0.00285891
0.00286126
0.00286319
0.00286471
0.0028658
0.00286649
0.00286677
0.00286664
0.00286611
0.00286519
0.00286387
0.00286217
0.00286008
0.00285762
0.00285478
0.00285157
0.00284799
0.00284406
0.00283976
0.00283511
0.00283011
0.00282476
0.00281907
0.00281305
0.00280669
0.00279999
0.00279297
0.00278563
0.00277796
0.00276996
0.00276165
0.00275301
0.00274405
0.00273477
0.00272516
0.00271524
0.00270498
0.0026944
0.00268349
0.00267225
0.00266067
0.00264875
0.0026365
0.0026239
0.00261095
0.00259766
0.00258401
0.00257001
0.00255565
0.00254092
0.00252583
0.00251037
0.00249454
0.00247834
0.00246176
0.0024448
0.00242745
0.00240972
0.0023916
0.00237309
0.00235419
0.00233489
0.0023152
0.0022951
0.0022746
0.0022537
0.0022324
0.00221069
0.00218857
0.00216605
0.00214312
0.00211978
0.00209604
0.00207189
0.00204734
0.00202238
0.00199703
0.00197128
0.00194513
0.00191858
0.00189165
0.00186432
0.0018366
0.00180848
0.00177995
0.001751
0.00172159
0.00169169
0.00166123
0.00163009
0.00159814
0.00156536
0.00153219
0.00149851
0.00146455
0.00143076
0.00139757
0.00136436
0.00133217
0.00130074
0.0012703
0.00124021
0.0012107
0.00118155
0.00115347
0.00112487
0.0010942
0.00106042
0.00102307
0.000982002
0.000937019
0.000887644
0.000832893
0.000771053
0.000699388
0.000613793
0.000508549
0.000376836
0.000215265
5.46966e-05
0.000111949
0.000320972
0.000527633
0.00070331
0.000851611
0.000979154
0.00109113
0.00119121
0.00128207
0.00136582
0.00144397
0.00151776
0.00158799
0.00165512
0.00171955
0.00178166
0.00184166
0.00189972
0.00195575
0.00200966
0.00206143
0.00211109
0.00215874
0.00220451
0.00224852
0.00229091
0.00233177
0.00237122
0.00240933
0.00244619
0.00248185
0.00251638
0.00254983
0.00258225
0.00261367
0.00264415
0.0026737
0.00270237
0.00273018
0.00275716
0.00278334
0.00280874
0.00283337
0.00285726
0.00288044
0.0029029
0.00292468
0.00294578
0.00296623
0.00298602
0.00300519
0.00302373
0.00304165
0.00305898
0.00307571
0.00309186
0.00310743
0.00312244
0.00313688
0.00315077
0.00316412
0.00317692
0.00318918
0.00320091
0.00321212
0.0032228
0.00323297
0.00324262
0.00325176
0.00326039
0.00326852
0.00327615
0.00328328
0.00328992
0.00329606
0.00330171
0.00330687
0.00331155
0.00331574
0.00331944
0.00332266
0.0033254
0.00332766
0.00332944
0.00333074
0.00333157
0.00333192
0.00333182
0.00333125
0.00333023
0.00332875
0.00332683
0.00332446
0.00332165
0.00331842
0.00331475
0.00331065
0.00330614
0.00330121
0.00329587
0.00329012
0.00328397
0.00327743
0.00327049
0.00326316
0.00325544
0.00324735
0.00323887
0.00323001
0.00322078
0.00321117
0.00320119
0.00319083
0.00318009
0.00316898
0.0031575
0.00314563
0.00313338
0.00312075
0.00310773
0.00309432
0.00308052
0.00306633
0.00305173
0.00303674
0.00302133
0.00300552
0.0029893
0.00297266
0.0029556
0.00293811
0.0029202
0.00290186
0.00288308
0.00286387
0.00284422
0.00282412
0.00280358
0.00278258
0.00276113
0.00273923
0.00271687
0.00269405
0.00267077
0.00264702
0.00262281
0.00259813
0.00257299
0.00254737
0.00252129
0.00249474
0.00246772
0.00244023
0.00241228
0.00238386
0.00235499
0.00232565
0.00229586
0.00226562
0.00223492
0.00220378
0.00217219
0.00214016
0.00210768
0.00207475
0.00204135
0.00200746
0.00197306
0.00193811
0.00190258
0.00186642
0.00182963
0.00179235
0.00175467
0.00171676
0.0016788
0.00164099
0.00160333
0.00156597
0.00152892
0.00149224
0.00145584
0.00141961
0.00138331
0.00134668
0.00130914
0.00126988
0.00122814
0.00118331
0.00113486
0.00108217
0.00102435
0.000959999
0.000886991
0.000802166
0.000701043
0.000577732
0.000425858
0.000243966
6.64202e-05
0.000111876
0.000320913
0.000527552
0.000703233
0.000851578
0.000979185
0.00109119
0.0011912
0.00128197
0.00136569
0.00144392
0.00151777
0.00158805
0.00165519
0.00171964
0.00178174
0.00184174
0.00189981
0.00195584
0.00200975
0.00206151
0.00211116
0.00215881
0.00220457
0.00224857
0.00229095
0.00233181
0.00237126
0.00240936
0.00244621
0.00248187
0.0025164
0.00254984
0.00258226
0.00261368
0.00264415
0.0026737
0.00270236
0.00273017
0.00275715
0.00278332
0.00280871
0.00283335
0.00285724
0.00288041
0.00290287
0.00292464
0.00294575
0.00296619
0.00298598
0.00300514
0.00302368
0.00304161
0.00305893
0.00307566
0.00309181
0.00310738
0.00312238
0.00313683
0.00315071
0.00316406
0.00317685
0.00318912
0.00320085
0.00321205
0.00322273
0.0032329
0.00324255
0.00325169
0.00326032
0.00326845
0.00327608
0.00328321
0.00328984
0.00329599
0.00330164
0.0033068
0.00331147
0.00331566
0.00331936
0.00332258
0.00332532
0.00332758
0.00332935
0.00333065
0.00333148
0.00333184
0.00333173
0.00333116
0.00333014
0.00332866
0.00332674
0.00332437
0.00332157
0.00331833
0.00331466
0.00331056
0.00330605
0.00330112
0.00329578
0.00329003
0.00328388
0.00327733
0.00327039
0.00326306
0.00325535
0.00324725
0.00323877
0.00322992
0.00322068
0.00321107
0.00320109
0.00319073
0.00318
0.00316889
0.0031574
0.00314553
0.00313328
0.00312065
0.00310763
0.00309422
0.00308042
0.00306623
0.00305163
0.00303664
0.00302124
0.00300542
0.0029892
0.00297256
0.0029555
0.00293801
0.0029201
0.00290176
0.00288298
0.00286377
0.00284412
0.00282402
0.00280348
0.00278248
0.00276104
0.00273913
0.00271677
0.00269395
0.00267067
0.00264693
0.00262272
0.00259804
0.00257289
0.00254728
0.00252119
0.00249464
0.00246762
0.00244014
0.00241218
0.00238377
0.00235489
0.00232556
0.00229577
0.00226552
0.00223483
0.00220369
0.0021721
0.00214007
0.00210759
0.00207466
0.00204126
0.00200737
0.00197297
0.00193802
0.00190249
0.00186633
0.00182955
0.00179227
0.00175461
0.0017167
0.00167875
0.00164094
0.00160327
0.00156589
0.00152885
0.00149218
0.00145577
0.00141952
0.00138319
0.00134657
0.00130904
0.0012698
0.00122807
0.00118325
0.00113481
0.00108213
0.00102432
0.000959972
0.000886973
0.000802159
0.000701049
0.000577749
0.000425879
0.000243975
6.64371e-05
0.000131843
0.000352715
0.000573588
0.0007646
0.000928191
0.00107047
0.00119654
0.00131017
0.00141407
0.00151025
0.00160014
0.00168486
0.00176519
0.00184174
0.00191496
0.00198521
0.00205277
0.00211784
0.00218051
0.00224084
0.00229889
0.00235474
0.00240846
0.00246018
0.00250999
0.00255801
0.00260434
0.00264906
0.00269227
0.00273403
0.00277443
0.00281352
0.00285135
0.00288799
0.00292348
0.00295786
0.00299118
0.00302347
0.00305478
0.00308512
0.00311454
0.00314305
0.00317069
0.00319748
0.00322345
0.00324861
0.00327299
0.0032966
0.00331946
0.00334159
0.003363
0.00338371
0.00340373
0.00342307
0.00344175
0.00345977
0.00347715
0.00349389
0.00351
0.00352549
0.00354038
0.00355465
0.00356833
0.00358142
0.00359392
0.00360584
0.00361718
0.00362795
0.00363816
0.00364779
0.00365687
0.00366539
0.00367336
0.00368078
0.00368764
0.00369397
0.00369974
0.00370498
0.00370967
0.00371383
0.00371745
0.00372054
0.00372309
0.0037251
0.00372659
0.00372756
0.003728
0.00372793
0.00372735
0.00372626
0.00372466
0.00372257
0.00371998
0.0037169
0.00371334
0.0037093
0.00370478
0.0036998
0.00369435
0.00368844
0.00368208
0.00367527
0.00366801
0.00366031
0.00365218
0.00364361
0.00363462
0.00362519
0.00361534
0.00360507
0.00359438
0.00358327
0.00357173
0.00355978
0.0035474
0.0035346
0.00352138
0.00350773
0.00349365
0.00347913
0.00346418
0.0034488
0.00343297
0.0034167
0.00339997
0.0033828
0.00336516
0.00334707
0.00332851
0.00330949
0.00328999
0.00327002
0.00324956
0.00322862
0.0032072
0.00318528
0.00316287
0.00313997
0.00311656
0.00309264
0.00306823
0.0030433
0.00301786
0.0029919
0.00296543
0.00293845
0.00291094
0.00288292
0.00285437
0.00282531
0.00279573
0.00276563
0.00273501
0.00270388
0.00267224
0.00264009
0.00260744
0.00257429
0.00254063
0.00250649
0.00247186
0.00243674
0.00240114
0.00236505
0.00232848
0.00229142
0.00225386
0.00221578
0.00217718
0.00213805
0.00209838
0.00205819
0.00201755
0.00197653
0.00193524
0.00189377
0.00185221
0.00181062
0.00176904
0.00172746
0.00168587
0.0016442
0.0016023
0.00155996
0.00151686
0.00147256
0.00142648
0.001378
0.00132649
0.00127123
0.00121135
0.00114567
0.00107249