/*--------------------------------*- C++ -*----------------------------------*\
  =========                 |
  \\      /  F ield         | OpenFOAM: The Open Source CFD Toolbox
   \\    /   O peration     | Website:  https://openfoam.org
    \\  /    A nd           | Version:  8
     \\/     M anipulation  |
\*---------------------------------------------------------------------------*/
FoamFile
{
    version     2.0;
    format      ascii;
    class       surfaceScalarField;
    location    "300";
    object      phi;
}
// * * * * * * * * * * * * * * * * * * * * * * * * * * * * * * * * * * * * * //

dimensions      [1 0 -1 0 0 0 0];

internalField   nonuniform List<scalar> 
119360
(
-6.2833e-08
2.16279e-10
6.26168e-08
-1.22148e-07
9.83315e-11
5.85e-08
-1.62887e-07
6.94295e-11
4.04076e-08
-1.82389e-07
3.28801e-11
1.92709e-08
-1.83206e-07
-4.19079e-11
6.83624e-10
-1.69092e-07
-1.83645e-10
-1.40942e-08
-1.4381e-07
-3.64003e-10
-2.50743e-08
-1.10836e-07
-2.73658e-10
-3.28515e-08
-7.24175e-08
2.27889e-10
-3.88033e-08
-3.09563e-08
5.8497e-10
-4.22549e-08
1.68094e-08
1.33821e-09
-4.93675e-08
6.88247e-08
8.47284e-10
-5.31084e-08
1.218e-07
-7.15496e-11
-5.32419e-08
1.79684e-07
-8.35827e-11
-5.8047e-08
2.3608e-07
-6.19647e-11
-5.64592e-08
2.9039e-07
-3.96119e-11
-5.43891e-08
3.4912e-07
-2.50661e-11
-5.88333e-08
4.1214e-07
-2.22797e-11
-6.31675e-08
4.69482e-07
-1.77756e-11
-5.75883e-08
5.26876e-07
-9.297e-12
-5.76906e-08
5.82891e-07
-1.07525e-12
-5.62982e-08
6.37131e-07
2.85106e-12
-5.45187e-08
6.89422e-07
2.58582e-12
-5.25726e-08
7.3973e-07
8.09132e-13
-5.05885e-08
7.8809e-07
1.16575e-13
-4.86256e-08
8.34551e-07
1.2293e-12
-4.67061e-08
8.79168e-07
3.17746e-12
-4.4843e-08
9.21998e-07
4.7185e-12
-4.30446e-08
9.63102e-07
5.36954e-12
-4.13157e-08
1.00255e-06
5.42283e-12
-3.96586e-08
1.0404e-06
5.35966e-12
-3.80733e-08
1.07672e-06
5.31586e-12
-3.65581e-08
1.1116e-06
5.02104e-12
-3.51103e-08
1.1451e-06
4.12637e-12
-3.37266e-08
1.17727e-06
2.57055e-12
-3.2403e-08
1.20818e-06
6.84952e-13
-3.11353e-08
1.23789e-06
-1.00642e-12
-2.99188e-08
1.26643e-06
-2.13052e-12
-2.87494e-08
1.29386e-06
-2.68285e-12
-2.7623e-08
1.3202e-06
-2.94598e-12
-2.65363e-08
1.34551e-06
-3.19544e-12
-2.54861e-08
1.36981e-06
-3.46817e-12
-2.44699e-08
1.39313e-06
-3.58052e-12
-2.34852e-08
1.4155e-06
-3.34616e-12
-2.253e-08
1.43695e-06
-2.76545e-12
-2.16029e-08
1.4575e-06
-2.03965e-12
-2.07027e-08
1.47719e-06
-1.44035e-12
-1.98286e-08
1.49603e-06
-1.14053e-12
-1.89799e-08
1.51406e-06
-1.11999e-12
-1.81559e-08
1.53129e-06
-1.21858e-12
-1.73561e-08
1.54774e-06
-1.30468e-12
-1.65798e-08
1.56345e-06
-1.39233e-12
-1.58263e-08
1.57843e-06
-1.61571e-12
-1.50953e-08
1.59271e-06
-2.10348e-12
-1.4386e-08
1.6063e-06
-2.87481e-12
-1.36978e-08
1.61923e-06
-3.80951e-12
-1.30296e-08
1.63152e-06
-4.70385e-12
-1.23806e-08
1.64318e-06
-5.38358e-12
-1.17495e-08
1.65422e-06
-5.77949e-12
-1.11354e-08
1.66468e-06
-5.909e-12
-1.05373e-08
1.67455e-06
-5.80674e-12
-9.95451e-09
1.68386e-06
-5.49039e-12
-9.38627e-09
1.69261e-06
-4.96958e-12
-8.83207e-09
1.70082e-06
-4.27014e-12
-8.29158e-09
1.70852e-06
-3.46861e-12
-7.76472e-09
1.71569e-06
-2.72177e-12
-7.25163e-09
1.72238e-06
-2.2351e-12
-6.75265e-09
1.72858e-06
-2.15572e-12
-6.26811e-09
1.73431e-06
-2.46914e-12
-5.79819e-09
1.73959e-06
-3.00193e-12
-5.34277e-09
1.74443e-06
-3.51835e-12
-4.90135e-09
1.74885e-06
-3.82289e-12
-4.47311e-09
1.75285e-06
-3.81783e-12
-4.05701e-09
1.75645e-06
-3.51691e-12
-3.65195e-09
1.75965e-06
-3.01476e-12
-3.25679e-09
1.76248e-06
-2.40313e-12
-2.87041e-09
1.76492e-06
-1.67744e-12
-2.4917e-09
1.767e-06
-7.13207e-13
-2.11961e-09
1.76871e-06
6.50313e-13
-1.7532e-09
1.77006e-06
2.47485e-12
-1.39181e-09
1.77105e-06
4.6429e-12
-1.03513e-09
1.7717e-06
6.87511e-12
-6.83234e-10
1.77199e-06
8.82705e-12
-3.36476e-10
1.77195e-06
1.01777e-11
4.83842e-12
1.77157e-06
1.07343e-11
3.40861e-10
1.77086e-06
1.04848e-11
6.72136e-10
1.76983e-06
9.56102e-12
9.99031e-10
1.76848e-06
8.19689e-12
1.3218e-09
1.76682e-06
6.64907e-12
1.641e-09
1.76484e-06
5.10419e-12
1.95738e-09
1.76255e-06
3.62804e-12
2.27162e-09
1.75996e-06
2.18042e-12
2.58425e-09
1.75705e-06
6.93945e-13
2.8955e-09
1.75384e-06
-8.53262e-13
3.20523e-09
1.75033e-06
-2.43661e-12
3.51295e-09
1.74651e-06
-4.0471e-12
3.81771e-09
1.7424e-06
-5.71188e-12
4.1181e-09
1.73799e-06
-7.39436e-12
4.41252e-09
1.73331e-06
-8.84953e-12
4.6995e-09
1.72834e-06
-9.62125e-12
4.97808e-09
1.72311e-06
-9.24677e-12
5.24784e-09
1.71761e-06
-7.49728e-12
5.50881e-09
1.71186e-06
-4.42896e-12
5.76148e-09
1.70586e-06
-2.84661e-13
6.00686e-09
1.69962e-06
4.49163e-12
6.24627e-09
1.69314e-06
9.04338e-12
6.48059e-09
1.68643e-06
1.20449e-11
6.70958e-09
1.6795e-06
1.22161e-11
6.93204e-09
1.67236e-06
9.23217e-12
7.14689e-09
1.66501e-06
4.21452e-12
7.35401e-09
1.65747e-06
-8.53539e-13
7.554e-09
1.64974e-06
-4.42701e-12
7.74707e-09
1.64183e-06
-6.25666e-12
7.93264e-09
1.63374e-06
-7.01128e-12
8.11053e-09
1.62547e-06
-7.14517e-12
8.28259e-09
1.61704e-06
-6.27637e-12
8.45291e-09
1.60843e-06
-3.76471e-12
8.62568e-09
1.59964e-06
1.60205e-13
8.80281e-09
1.59066e-06
4.03333e-12
8.98348e-09
1.5815e-06
6.07719e-12
9.16628e-09
1.57215e-06
5.58914e-12
9.35165e-09
1.56261e-06
3.44697e-12
9.54195e-09
1.55288e-06
1.26654e-12
9.73922e-09
1.54294e-06
5.28467e-14
9.94315e-09
1.5328e-06
-3.67872e-13
1.01517e-08
1.52244e-06
-7.34357e-13
1.03637e-08
1.51187e-06
-1.3381e-12
1.05806e-08
1.50107e-06
-1.68976e-12
1.08058e-08
1.49003e-06
-1.12582e-12
1.1042e-08
1.47875e-06
3.48499e-13
1.12889e-08
1.4672e-06
1.84158e-12
1.15444e-08
1.4554e-06
2.18836e-12
1.18069e-08
1.44332e-06
9.05887e-13
1.20763e-08
1.43097e-06
-1.2389e-12
1.23533e-08
1.41834e-06
-2.53053e-12
1.26376e-08
1.40541e-06
-1.44135e-12
1.29272e-08
1.39219e-06
2.05702e-12
1.32207e-08
1.37867e-06
6.03095e-12
1.35189e-08
1.36484e-06
7.58665e-12
1.3825e-08
1.35069e-06
4.91907e-12
1.41416e-08
1.33623e-06
-1.0108e-12
1.4469e-08
1.32143e-06
-6.62587e-12
1.48038e-08
1.30629e-06
-8.02147e-12
1.51423e-08
1.29082e-06
-3.94262e-12
1.54824e-08
1.27499e-06
2.92133e-12
1.58255e-08
1.2588e-06
7.67936e-12
1.61747e-08
1.24226e-06
6.90908e-12
1.65323e-08
1.22536e-06
1.38073e-12
1.6899e-08
1.20809e-06
-4.45494e-12
1.7274e-08
1.19043e-06
-5.95718e-12
1.76571e-08
1.17238e-06
-2.01911e-12
1.80487e-08
1.15392e-06
4.04626e-12
1.84493e-08
1.13504e-06
7.19641e-12
1.88584e-08
1.11575e-06
4.72761e-12
1.92749e-08
1.09604e-06
-1.49813e-12
1.96982e-08
1.0759e-06
-6.46311e-12
2.01301e-08
1.05531e-06
-6.0742e-12
2.05741e-08
1.03425e-06
-5.56e-13
2.10336e-08
1.0127e-06
5.81918e-12
2.151e-08
9.90665e-07
8.24485e-12
2.20016e-08
9.68126e-07
4.94238e-12
2.25051e-08
9.45083e-07
-1.90692e-12
2.30189e-08
9.21528e-07
-8.03962e-12
2.35441e-08
8.97445e-07
-1.00374e-11
2.40837e-08
8.72813e-07
-7.36033e-12
2.46383e-08
8.47619e-07
-2.41662e-12
2.52022e-08
8.21865e-07
1.43352e-12
2.57613e-08
7.9556e-07
2.52143e-12
2.63069e-08
7.68693e-07
1.74571e-12
2.686e-08
7.40978e-07
8.68305e-13
2.77004e-08
7.11308e-07
4.54969e-13
2.96544e-08
6.77906e-07
1.22137e-15
3.33972e-08
6.46143e-07
-2.03415e-12
3.17773e-08
6.15097e-07
-7.02116e-12
3.10802e-08
5.89246e-07
-1.32641e-11
2.58869e-08
5.65148e-07
-1.50259e-11
2.41218e-08
5.3188e-07
-7.36444e-12
3.3289e-08
4.97485e-07
1.84769e-12
3.44219e-08
4.73757e-07
4.03244e-12
2.37422e-08
4.42656e-07
-3.04434e-12
3.11419e-08
4.08603e-07
-7.77123e-12
3.41002e-08
3.7748e-07
-3.77193e-12
3.11646e-08
3.43658e-07
-2.94603e-12
3.38604e-08
3.09226e-07
-3.93718e-12
3.44798e-08
2.74022e-07
-4.93083e-12
3.52624e-08
2.35535e-07
-4.58678e-12
3.85427e-08
1.97727e-07
-3.46134e-12
3.78593e-08
1.5883e-07
-2.93809e-12
3.89533e-08
1.18544e-07
-3.24274e-12
4.03542e-08
7.72124e-08
-3.70265e-12
4.1416e-08
3.55977e-08
-3.9122e-12
4.17157e-08
-5.13984e-09
-4.38283e-12
4.08546e-08
-4.32804e-08
-5.94269e-12
3.82726e-08
-7.64987e-08
-8.9424e-12
3.33652e-08
-1.01807e-07
-1.30788e-11
2.54748e-08
-1.15443e-07
-1.76928e-11
1.38318e-08
-1.13088e-07
-2.23157e-11
-2.11387e-09
-9.11789e-08
-2.59104e-11
-2.16002e-08
-5.02984e-08
-2.69822e-11
-4.04635e-08
-1.95124e-11
-4.96553e-08
-6.27311e-08
6.25709e-08
-1.21794e-07
5.85065e-08
-1.62421e-07
4.04096e-08
-1.81866e-07
1.92505e-08
-1.8274e-07
6.27684e-10
-1.6891e-07
-1.42031e-08
-1.44216e-07
-2.52396e-08
-1.12042e-07
-3.26385e-08
-7.50451e-08
-3.70365e-08
-3.20993e-08
-4.2807e-08
1.63647e-08
-4.7651e-08
6.93298e-08
-5.26502e-08
1.2247e-07
-5.36579e-08
1.80259e-07
-5.81008e-08
2.36472e-07
-5.64182e-08
2.90651e-07
-5.43626e-08
3.49303e-07
-5.88392e-08
4.12236e-07
-6.31973e-08
4.69537e-07
-5.76263e-08
5.26927e-07
-5.77226e-08
5.82931e-07
-5.63328e-08
6.37158e-07
-5.45569e-08
6.8944e-07
-5.26121e-08
7.3975e-07
-5.06264e-08
7.88115e-07
-4.86597e-08
8.34583e-07
-4.67362e-08
8.79203e-07
-4.48702e-08
9.22033e-07
-4.30707e-08
9.63132e-07
-4.13422e-08
1.00257e-06
-3.96862e-08
1.04042e-06
-3.81022e-08
1.07674e-06
-3.6588e-08
1.11162e-06
-3.51408e-08
1.14511e-06
-3.37574e-08
1.17729e-06
-3.24339e-08
1.2082e-06
-3.11662e-08
1.2379e-06
-2.99499e-08
1.26644e-06
-2.87804e-08
1.29386e-06
-2.76538e-08
1.32021e-06
-2.65666e-08
1.34551e-06
-2.55158e-08
1.36981e-06
-2.44988e-08
1.39312e-06
-2.35135e-08
1.41549e-06
-2.25577e-08
1.43694e-06
-2.16299e-08
1.4575e-06
-2.0729e-08
1.47719e-06
-1.98541e-08
1.49603e-06
-1.90046e-08
1.51406e-06
-1.818e-08
1.53129e-06
-1.73796e-08
1.54775e-06
-1.66028e-08
1.56346e-06
-1.5849e-08
1.57845e-06
-1.51177e-08
1.59272e-06
-1.44082e-08
1.60632e-06
-1.37198e-08
1.61925e-06
-1.30516e-08
1.63153e-06
-1.24025e-08
1.64319e-06
-1.17715e-08
1.65423e-06
-1.11574e-08
1.66468e-06
-1.05592e-08
1.67455e-06
-9.97606e-09
1.68385e-06
-9.40737e-09
1.6926e-06
-8.85259e-09
1.70082e-06
-8.31139e-09
1.70851e-06
-7.78372e-09
1.71569e-06
-7.26975e-09
1.72237e-06
-6.76985e-09
1.72857e-06
-6.2844e-09
1.73431e-06
-5.81363e-09
1.73959e-06
-5.35739e-09
1.74443e-06
-4.91512e-09
1.74884e-06
-4.48596e-09
1.75284e-06
-4.06881e-09
1.75643e-06
-3.66252e-09
1.75964e-06
-3.26593e-09
1.76246e-06
-2.87791e-09
1.7649e-06
-2.49737e-09
1.76697e-06
-2.12328e-09
1.76868e-06
-1.75472e-09
1.77003e-06
-1.39104e-09
1.77103e-06
-1.03196e-09
1.77167e-06
-6.77662e-10
1.77198e-06
-3.28604e-10
1.77194e-06
1.47259e-11
1.77157e-06
3.5233e-10
1.77087e-06
6.8464e-10
1.76984e-06
1.01187e-09
1.7685e-06
1.33423e-09
1.76683e-06
1.65229e-09
1.76486e-06
1.96682e-09
1.76257e-06
2.27857e-09
1.75997e-06
2.58817e-09
1.75707e-06
2.89603e-09
1.75386e-06
3.20233e-09
1.75035e-06
3.50686e-09
1.74653e-06
3.80893e-09
1.74242e-06
4.10743e-09
1.73801e-06
4.40111e-09
1.73332e-06
4.6889e-09
1.72834e-06
4.96993e-09
1.7231e-06
5.24351e-09
1.71759e-06
5.50908e-09
1.71183e-06
5.7665e-09
1.70582e-06
6.01613e-09
1.69958e-06
6.25851e-09
1.69311e-06
6.49367e-09
1.68642e-06
6.72091e-09
1.6795e-06
6.93956e-09
1.67238e-06
7.14991e-09
1.66504e-06
7.35322e-09
1.65751e-06
7.55068e-09
1.64977e-06
7.74236e-09
1.64185e-06
7.92766e-09
1.63375e-06
8.10687e-09
1.62548e-06
8.2822e-09
1.61703e-06
8.45687e-09
1.60841e-06
8.63304e-09
1.59961e-06
8.81083e-09
1.59063e-06
8.98953e-09
1.58148e-06
9.16969e-09
1.57214e-06
9.35363e-09
1.56261e-06
9.54386e-09
1.55288e-06
9.74095e-09
1.54295e-06
9.94347e-09
1.5328e-06
1.015e-08
1.52245e-06
1.0361e-08
1.51187e-06
1.05791e-08
1.50107e-06
1.08068e-08
1.49003e-06
1.10447e-08
1.47874e-06
1.12914e-08
1.4672e-06
1.1546e-08
1.4554e-06
1.18083e-08
1.44332e-06
1.20788e-08
1.43097e-06
1.23568e-08
1.41833e-06
1.26402e-08
1.4054e-06
1.29274e-08
1.39218e-06
1.32189e-08
1.37867e-06
1.35177e-08
1.36485e-06
1.38268e-08
1.35071e-06
1.41466e-08
1.33624e-06
1.44743e-08
1.32143e-06
1.48062e-08
1.30628e-06
1.51405e-08
1.2908e-06
1.54785e-08
1.27497e-06
1.58229e-08
1.25881e-06
1.61751e-08
1.24228e-06
1.65348e-08
1.22537e-06
1.69008e-08
1.20809e-06
1.72733e-08
1.19042e-06
1.76542e-08
1.17237e-06
1.80455e-08
1.15391e-06
1.84475e-08
1.13505e-06
1.88578e-08
1.11576e-06
1.92738e-08
1.09605e-06
1.96952e-08
1.07589e-06
2.01252e-08
1.05529e-06
2.05689e-08
1.03423e-06
2.10296e-08
1.01269e-06
2.15072e-08
9.90666e-07
2.1999e-08
9.68138e-07
2.25018e-08
9.45098e-07
2.30148e-08
9.21535e-07
2.354e-08
8.9744e-07
2.40804e-08
8.72801e-07
2.46361e-08
8.47606e-07
2.52004e-08
8.21855e-07
2.57585e-08
7.95553e-07
2.63019e-08
7.68689e-07
2.68535e-08
7.40977e-07
2.76943e-08
7.11314e-07
2.96505e-08
6.77919e-07
3.34002e-08
6.46158e-07
3.17871e-08
6.15097e-07
3.10956e-08
5.89223e-07
2.58947e-08
5.65116e-07
2.4116e-08
5.31852e-07
3.32775e-08
4.97453e-07
3.44255e-08
4.7372e-07
2.37699e-08
4.42626e-07
3.11608e-08
4.08591e-07
3.41053e-08
3.77476e-07
3.11598e-08
3.43654e-07
3.38624e-08
3.09209e-07
3.44911e-08
2.73997e-07
3.52643e-08
2.35509e-07
3.85424e-08
1.97705e-07
3.78626e-08
1.58815e-07
3.89591e-08
1.18538e-07
4.03613e-08
7.72144e-08
4.14254e-08
3.56047e-08
4.17291e-08
-5.13265e-09
4.08722e-08
-4.32773e-08
3.82925e-08
-7.65014e-08
3.33849e-08
-1.01814e-07
2.54936e-08
-1.15451e-07
1.38515e-08
-1.13093e-07
-2.08966e-09
-9.11723e-08
-2.15662e-08
-5.02454e-08
-4.04072e-08
-4.95093e-08
-5.72881e-08
1.1947e-10
1.19114e-07
-8.95166e-08
4.44722e-11
9.01234e-08
-1.04426e-07
3.08203e-11
5.50195e-08
-1.05628e-07
1.70197e-11
2.02327e-08
-9.47548e-08
-9.99176e-12
-1.0383e-08
-7.33937e-08
-6.14587e-11
-3.55831e-08
-4.29666e-08
-1.30056e-10
-5.55494e-08
-4.41128e-09
-1.57624e-10
-7.14265e-08
4.16722e-08
-2.66076e-10
-8.48307e-08
9.451e-08
-9.54171e-11
-9.52681e-08
1.48458e-07
-2.19874e-10
-1.03345e-07
2.05715e-07
-2.20381e-10
-1.10479e-07
2.66247e-07
-1.38082e-10
-1.13916e-07
3.24767e-07
-6.81477e-11
-1.16663e-07
3.8563e-07
-3.69224e-11
-1.17439e-07
4.48246e-07
-2.30366e-11
-1.17143e-07
5.07291e-07
-1.42715e-11
-1.18051e-07
5.63209e-07
-8.57999e-12
-1.19351e-07
6.22406e-07
-4.9167e-12
-1.17083e-07
6.79005e-07
-3.07862e-12
-1.14561e-07
7.33894e-07
-2.32941e-12
-1.11452e-07
7.87151e-07
-2.60766e-12
-1.0804e-07
8.38764e-07
-3.35791e-12
-1.04445e-07
8.8872e-07
-3.76958e-12
-1.0079e-07
9.37012e-07
-3.57815e-12
-9.71451e-08
9.8365e-07
-3.07142e-12
-9.35555e-08
1.02865e-06
-2.62905e-12
-9.0049e-08
1.07205e-06
-2.43056e-12
-8.66424e-08
1.11387e-06
-2.43792e-12
-8.33453e-08
1.15416e-06
-2.50135e-12
-8.01628e-08
1.19297e-06
-2.49908e-12
-7.70968e-08
1.23034e-06
-2.445e-12
-7.41467e-08
1.26632e-06
-2.47134e-12
-7.13094e-08
1.30096e-06
-2.66952e-12
-6.85806e-08
1.3343e-06
-2.96234e-12
-6.59546e-08
1.36638e-06
-3.17175e-12
-6.34258e-08
1.39726e-06
-3.18745e-12
-6.09884e-08
1.42695e-06
-3.03677e-12
-5.86369e-08
1.45552e-06
-2.829e-12
-5.63661e-08
1.48298e-06
-2.66202e-12
-5.41707e-08
1.50937e-06
-2.5584e-12
-5.20459e-08
1.53473e-06
-2.46478e-12
-4.99873e-08
1.55908e-06
-2.311e-12
-4.79915e-08
1.58246e-06
-2.07435e-12
-4.60555e-08
1.60489e-06
-1.79951e-12
-4.41766e-08
1.6264e-06
-1.57116e-12
-4.23524e-08
1.64702e-06
-1.45778e-12
-4.05806e-08
1.66678e-06
-1.46189e-12
-3.88592e-08
1.68568e-06
-1.52185e-12
-3.71864e-08
1.70377e-06
-1.57037e-12
-3.55608e-08
1.72106e-06
-1.59013e-12
-3.3981e-08
1.73757e-06
-1.61784e-12
-3.24457e-08
1.75332e-06
-1.70665e-12
-3.09536e-08
1.76834e-06
-1.88354e-12
-2.95032e-08
1.78263e-06
-2.12526e-12
-2.80928e-08
1.79623e-06
-2.3675e-12
-2.67211e-08
1.80914e-06
-2.5465e-12
-2.53866e-08
1.8214e-06
-2.63543e-12
-2.40883e-08
1.833e-06
-2.64648e-12
-2.28248e-08
1.84397e-06
-2.60597e-12
-2.15951e-08
1.85434e-06
-2.53636e-12
-2.0398e-08
1.86411e-06
-2.45e-12
-1.92326e-08
1.8733e-06
-2.35109e-12
-1.80981e-08
1.88193e-06
-2.24415e-12
-1.69938e-08
1.89001e-06
-2.15132e-12
-1.59194e-08
1.89756e-06
-2.11547e-12
-1.48741e-08
1.9046e-06
-2.17283e-12
-1.38574e-08
1.91114e-06
-2.31631e-12
-1.28687e-08
1.91719e-06
-2.48905e-12
-1.19071e-08
1.92276e-06
-2.61473e-12
-1.09717e-08
1.92786e-06
-2.63344e-12
-1.00613e-08
1.93251e-06
-2.52068e-12
-9.17488e-09
1.93671e-06
-2.29179e-12
-8.31103e-09
1.94048e-06
-1.99472e-12
-7.46839e-09
1.94382e-06
-1.684e-12
-6.6455e-09
1.94675e-06
-1.38217e-12
-5.84087e-09
1.94927e-06
-1.06114e-12
-5.05304e-09
1.95139e-06
-6.64385e-13
-4.28069e-09
1.95312e-06
-1.55043e-13
-3.52264e-09
1.95447e-06
4.49321e-13
-2.7779e-09
1.95545e-06
1.07542e-12
-2.04559e-09
1.95606e-06
1.61851e-12
-1.32492e-09
1.95631e-06
1.97735e-12
-6.15143e-10
1.9562e-06
2.09105e-12
8.4591e-11
1.95574e-06
1.95982e-12
7.75499e-10
1.95494e-06
1.64205e-12
1.45873e-09
1.95378e-06
1.22856e-12
2.13497e-09
1.95228e-06
8.07576e-13
2.80465e-09
1.95044e-06
4.42008e-13
3.46809e-09
1.94826e-06
1.60483e-13
4.1256e-09
1.94575e-06
-4.79061e-14
4.77736e-09
1.9429e-06
-2.32619e-13
5.42325e-09
1.93973e-06
-4.60951e-13
6.06277e-09
1.93624e-06
-7.78183e-13
6.69518e-09
1.93243e-06
-1.18103e-12
7.31965e-09
1.92831e-06
-1.6364e-12
7.93525e-09
1.92389e-06
-2.12232e-12
8.54078e-09
1.91918e-06
-2.62838e-12
9.13478e-09
1.91417e-06
-3.09448e-12
9.71589e-09
1.90887e-06
-3.36162e-12
1.02833e-08
1.90329e-06
-3.22453e-12
1.08367e-08
1.89743e-06
-2.56611e-12
1.13758e-08
1.89131e-06
-1.43799e-12
1.19e-08
1.88491e-06
-4.1628e-16
1.2409e-08
1.87827e-06
1.57828e-12
1.29031e-08
1.87137e-06
3.09518e-12
1.33834e-08
1.86424e-06
4.17817e-12
1.38505e-08
1.85687e-06
4.30128e-12
1.43034e-08
1.84929e-06
3.13109e-12
1.474e-08
1.8415e-06
9.7336e-13
1.51591e-08
1.8335e-06
-1.19867e-12
1.55619e-08
1.82531e-06
-2.36457e-12
1.5952e-08
1.81693e-06
-2.26903e-12
1.63336e-08
1.80834e-06
-1.62294e-12
1.67089e-08
1.79956e-06
-1.39186e-12
1.70789e-08
1.79058e-06
-1.80934e-12
1.74443e-08
1.78141e-06
-2.12892e-12
1.78075e-08
1.77205e-06
-1.43639e-12
1.81724e-08
1.7625e-06
2.77528e-13
1.85428e-08
1.75275e-06
1.92765e-12
1.89209e-08
1.7428e-06
2.29905e-12
1.93074e-08
1.73265e-06
1.21826e-12
1.97023e-08
1.72229e-06
-2.71533e-13
2.01063e-08
1.71172e-06
-9.1907e-13
2.05208e-08
1.70093e-06
-4.24785e-13
2.09478e-08
1.68991e-06
4.08118e-13
2.13887e-08
1.67865e-06
6.14217e-13
2.18444e-08
1.66714e-06
5.94525e-14
2.23149e-08
1.65539e-06
-5.42996e-13
2.28e-08
1.64338e-06
-5.46119e-13
2.32999e-08
1.63111e-06
-1.65978e-13
2.38146e-08
1.61858e-06
-2.48357e-13
2.43447e-08
1.60577e-06
-1.20663e-12
2.48903e-08
1.59267e-06
-2.29418e-12
2.54511e-08
1.57929e-06
-2.12755e-12
2.60263e-08
1.5656e-06
-1.04416e-13
2.6615e-08
1.5516e-06
2.67518e-12
2.72169e-08
1.53729e-06
4.03794e-12
2.78317e-08
1.52265e-06
2.53074e-12
2.84596e-08
1.50769e-06
-1.17309e-12
2.91008e-08
1.49241e-06
-4.56923e-12
2.97554e-08
1.4768e-06
-5.19758e-12
3.04231e-08
1.46084e-06
-2.5932e-12
3.11037e-08
1.44452e-06
1.31843e-12
3.17967e-08
1.42784e-06
3.73043e-12
3.25018e-08
1.41079e-06
3.11876e-12
3.32194e-08
1.39337e-06
3.08656e-13
3.395e-08
1.37557e-06
-2.33415e-12
3.46948e-08
1.35739e-06
-2.83719e-12
3.5455e-08
1.33881e-06
-1.08991e-12
3.62308e-08
1.31983e-06
1.27323e-12
3.70222e-08
1.30043e-06
2.33201e-12
3.78287e-08
1.28063e-06
1.38334e-12
3.86509e-08
1.2604e-06
-6.66509e-13
3.94904e-08
1.23973e-06
-2.16289e-12
4.03495e-08
1.21861e-06
-2.02138e-12
4.12307e-08
1.19702e-06
-4.5243e-13
4.21351e-08
1.17496e-06
1.34831e-12
4.30636e-08
1.15243e-06
2.12239e-12
4.40168e-08
1.1294e-06
1.41417e-12
4.49965e-08
1.10588e-06
-1.79676e-13
4.60056e-08
1.08184e-06
-1.59404e-12
4.70478e-08
1.05725e-06
-2.11045e-12
4.81263e-08
1.0321e-06
-1.66682e-12
4.92432e-08
1.00634e-06
-6.96387e-13
5.03996e-08
9.79949e-07
2.55046e-13
5.15981e-08
9.52864e-07
9.01113e-13
5.28462e-08
9.24991e-07
1.22355e-12
5.41718e-08
8.96202e-07
1.22782e-12
5.56356e-08
8.66544e-07
9.12243e-13
5.73423e-08
8.36733e-07
2.22711e-13
5.94539e-08
8.08546e-07
-7.30777e-13
6.15877e-08
7.7879e-07
-1.6962e-12
6.1549e-08
7.48553e-07
-2.65671e-12
6.13419e-08
7.14006e-07
-2.96352e-12
6.04638e-08
6.76681e-07
-1.88755e-12
6.1477e-08
6.45246e-07
8.29281e-13
6.474e-08
6.13958e-07
1.78968e-12
6.5734e-08
5.73047e-07
1.76345e-12
6.47045e-08
5.37078e-07
1.06801e-12
6.71885e-08
5.02262e-07
-2.01486e-12
6.89746e-08
4.63843e-07
-2.42864e-12
6.96249e-08
4.2604e-07
-1.08474e-12
7.17178e-08
3.87484e-07
-5.63993e-13
7.30974e-08
3.4782e-07
-8.5626e-13
7.49872e-08
3.09673e-07
-1.13493e-12
7.67516e-08
2.6989e-07
-6.6544e-13
7.77091e-08
2.29537e-07
2.28429e-14
7.93844e-08
1.88936e-07
8.01165e-13
8.10482e-08
1.48448e-07
1.35969e-12
8.20125e-08
1.08646e-07
1.36768e-12
8.16414e-08
7.03486e-08
7.36383e-13
7.92899e-08
3.45893e-08
-2.65982e-13
7.41842e-08
2.65305e-09
-1.19441e-12
6.54719e-08
-2.39076e-08
-1.71529e-12
5.22335e-08
-4.34219e-08
-1.81088e-12
3.35853e-08
-5.41833e-08
-1.65673e-12
8.94806e-09
-5.41272e-08
-8.8779e-13
-2.12574e-08
-3.90312e-08
3.40883e-12
-5.49503e-08
3.28557e-11
-8.81611e-08
-5.72045e-08
1.19206e-07
-8.93128e-08
9.0187e-08
-1.04159e-07
5.50469e-08
-1.05316e-07
2.02211e-08
-9.44541e-08
-1.04297e-08
-7.32345e-08
-3.56556e-08
-4.30846e-08
-5.56852e-08
-4.28824e-09
-7.17858e-08
4.308e-08
-8.49555e-08
9.51152e-08
-9.526e-08
1.5023e-07
-1.03287e-07
2.06854e-07
-1.09777e-07
2.66618e-07
-1.13764e-07
3.24941e-07
-1.16633e-07
3.85753e-07
-1.17412e-07
4.48341e-07
-1.17126e-07
5.07356e-07
-1.18045e-07
5.63251e-07
-1.19355e-07
6.22436e-07
-1.1709e-07
6.79034e-07
-1.14567e-07
7.33919e-07
-1.11458e-07
7.87171e-07
-1.08047e-07
8.38781e-07
-1.04451e-07
8.88736e-07
-1.00795e-07
9.37028e-07
-9.71498e-08
9.83666e-07
-9.35599e-08
1.02867e-06
-9.00532e-08
1.07206e-06
-8.66465e-08
1.11388e-06
-8.33497e-08
1.15417e-06
-8.01677e-08
1.19298e-06
-7.71026e-08
1.23035e-06
-7.41532e-08
1.26633e-06
-7.13166e-08
1.30096e-06
-6.85882e-08
1.3343e-06
-6.59627e-08
1.36639e-06
-6.34344e-08
1.39726e-06
-6.09978e-08
1.42696e-06
-5.86471e-08
1.45552e-06
-5.63768e-08
1.48298e-06
-5.41816e-08
1.50937e-06
-5.20568e-08
1.53473e-06
-4.99984e-08
1.55908e-06
-4.80028e-08
1.58246e-06
-4.6067e-08
1.60489e-06
-4.41883e-08
1.6264e-06
-4.23642e-08
1.64702e-06
-4.05923e-08
1.66678e-06
-3.88708e-08
1.68569e-06
-3.7198e-08
1.70377e-06
-3.55724e-08
1.72106e-06
-3.39929e-08
1.73757e-06
-3.24579e-08
1.75333e-06
-3.0966e-08
1.76834e-06
-2.95157e-08
1.78264e-06
-2.81056e-08
1.79623e-06
-2.67342e-08
1.80915e-06
-2.54002e-08
1.8214e-06
-2.41023e-08
1.833e-06
-2.28392e-08
1.84397e-06
-2.16097e-08
1.85434e-06
-2.04128e-08
1.8641e-06
-1.92474e-08
1.87329e-06
-1.81128e-08
1.88192e-06
-1.70085e-08
1.89001e-06
-1.59337e-08
1.89756e-06
-1.4888e-08
1.9046e-06
-1.38708e-08
1.91114e-06
-1.28813e-08
1.91719e-06
-1.19189e-08
1.92276e-06
-1.09825e-08
1.92786e-06
-1.00712e-08
1.93251e-06
-9.18358e-09
1.93671e-06
-8.31842e-09
1.94047e-06
-7.47427e-09
1.94381e-06
-6.64967e-09
1.94674e-06
-5.84314e-09
1.94926e-06
-5.0533e-09
1.95138e-06
-4.27886e-09
1.95311e-06
-3.51869e-09
1.95446e-06
-2.77176e-09
1.95544e-06
-2.03724e-09
1.95605e-06
-1.31436e-09
1.9563e-06
-6.02482e-10
1.9562e-06
9.91172e-11
1.95574e-06
7.91468e-10
1.95494e-06
1.47551e-09
1.95378e-06
2.15175e-09
1.95228e-06
2.82051e-09
1.95044e-06
3.48214e-09
1.94826e-06
4.13697e-09
1.94575e-06
4.78523e-09
1.94291e-06
5.42693e-09
1.93973e-06
6.06187e-09
1.93624e-06
6.68974e-09
1.93244e-06
7.31015e-09
1.92832e-06
7.9225e-09
1.9239e-06
8.52592e-09
1.91919e-06
9.11939e-09
1.91417e-06
9.70204e-09
1.90887e-06
1.02731e-08
1.90329e-06
1.08317e-08
1.89742e-06
1.13766e-08
1.89129e-06
1.19063e-08
1.88489e-06
1.24199e-08
1.87825e-06
1.29171e-08
1.87136e-06
1.33979e-08
1.86423e-06
1.3862e-08
1.85688e-06
1.43089e-08
1.8493e-06
1.47386e-08
1.84151e-06
1.51526e-08
1.83352e-06
1.55536e-08
1.82533e-06
1.59449e-08
1.81693e-06
1.63287e-08
1.80834e-06
1.67062e-08
1.79955e-06
1.70783e-08
1.79057e-06
1.74462e-08
1.7814e-06
1.78121e-08
1.77204e-06
1.81786e-08
1.76249e-06
1.85487e-08
1.75274e-06
1.89248e-08
1.7428e-06
1.93087e-08
1.73265e-06
1.97016e-08
1.72229e-06
2.01042e-08
1.71172e-06
2.05181e-08
1.70093e-06
2.09449e-08
1.68991e-06
2.13865e-08
1.67865e-06
2.18435e-08
1.66714e-06
2.23155e-08
1.65539e-06
2.28014e-08
1.64338e-06
2.33013e-08
1.63111e-06
2.38161e-08
1.61857e-06
2.43468e-08
1.60576e-06
2.48931e-08
1.59266e-06
2.54536e-08
1.57928e-06
2.60269e-08
1.56559e-06
2.66131e-08
1.5516e-06
2.72136e-08
1.53729e-06
2.78297e-08
1.52266e-06
2.84611e-08
1.5077e-06
2.91055e-08
1.49241e-06
2.97603e-08
1.47679e-06
3.04252e-08
1.46082e-06
3.11017e-08
1.44451e-06
3.17923e-08
1.42784e-06
3.24982e-08
1.4108e-06
3.32186e-08
1.39338e-06
3.39519e-08
1.37557e-06
3.46973e-08
1.35738e-06
3.54559e-08
1.3388e-06
3.62296e-08
1.31982e-06
3.70198e-08
1.30043e-06
3.78266e-08
1.28063e-06
3.865e-08
1.2604e-06
3.94905e-08
1.23972e-06
4.03497e-08
1.2186e-06
4.12303e-08
1.19701e-06
4.2134e-08
1.17495e-06
4.3062e-08
1.15242e-06
4.40149e-08
1.12941e-06
4.49947e-08
1.10589e-06
4.60043e-08
1.08184e-06
4.7047e-08
1.05725e-06
4.81259e-08
1.03209e-06
4.92424e-08
1.00633e-06
5.03977e-08
9.79943e-07
5.15947e-08
9.52859e-07
5.28414e-08
9.24987e-07
5.41664e-08
8.96198e-07
5.56313e-08
8.66542e-07
5.73403e-08
8.36736e-07
5.94545e-08
8.08551e-07
6.1591e-08
7.78792e-07
6.15522e-08
7.48545e-07
6.13434e-08
7.13986e-07
6.04611e-08
6.76656e-07
6.14738e-08
6.45219e-07
6.47377e-08
6.13939e-07
6.57357e-08
5.73044e-07
6.47024e-08
5.3707e-07
6.71831e-08
5.02258e-07
6.89702e-08
4.63836e-07
6.96282e-08
4.26031e-07
7.1723e-08
3.87479e-07
7.30967e-08
3.47812e-07
7.49819e-08
3.09657e-07
7.67489e-08
2.69873e-07
7.77082e-08
2.29523e-07
7.93835e-08
1.88927e-07
8.10471e-08
1.48445e-07
8.20125e-08
1.08646e-07
8.16438e-08
7.03497e-08
7.92945e-08
3.45893e-08
7.41895e-08
2.65107e-09
6.54759e-08
-2.39112e-08
5.22351e-08
-4.34261e-08
3.35852e-08
-5.41867e-08
8.94843e-09
-5.41239e-08
-2.12538e-08
-3.89853e-08
-5.49418e-08
-8.81506e-08
-3.50871e-08
9.47915e-11
1.53791e-07
-4.77919e-08
3.48281e-11
1.02453e-07
-4.56685e-08
2.38001e-11
5.27414e-08
-3.3059e-08
1.5541e-11
7.50209e-09
-1.16265e-08
5.89633e-12
-3.19154e-08
1.76861e-08
-4.24939e-12
-6.49784e-08
5.41604e-08
-4.83591e-12
-9.21014e-08
9.69952e-08
1.54325e-11
-1.14356e-07
1.44896e-07
-1.56414e-11
-1.328e-07
1.97011e-07
-3.10528e-11
-1.47437e-07
2.51987e-07
-5.55874e-11
-1.58349e-07
3.08308e-07
-1.14533e-10
-1.66771e-07
3.66448e-07
-7.76812e-11
-1.72057e-07
4.24925e-07
-4.06107e-11
-1.75173e-07
4.8387e-07
-2.18342e-11
-1.76439e-07
5.4307e-07
-1.31283e-11
-1.76406e-07
6.0077e-07
-7.93831e-12
-1.75814e-07
6.55994e-07
-3.58248e-12
-1.74637e-07
7.10702e-07
-1.07882e-12
-1.7185e-07
7.64239e-07
-2.9697e-13
-1.68157e-07
8.1661e-07
-4.85777e-13
-1.63884e-07
8.67744e-07
-1.12076e-12
-1.59236e-07
9.17581e-07
-1.71262e-12
-1.54344e-07
9.6606e-07
-1.94636e-12
-1.49326e-07
1.01313e-06
-1.85539e-12
-1.44271e-07
1.05877e-06
-1.65929e-12
-1.39244e-07
1.10297e-06
-1.51768e-12
-1.3429e-07
1.14572e-06
-1.4512e-12
-1.2944e-07
1.18704e-06
-1.3906e-12
-1.24715e-07
1.22695e-06
-1.27104e-12
-1.20126e-07
1.26548e-06
-1.08923e-12
-1.15682e-07
1.30267e-06
-9.08766e-13
-1.11385e-07
1.33854e-06
-8.24292e-13
-1.07234e-07
1.37313e-06
-8.68368e-13
-1.03225e-07
1.40647e-06
-9.59559e-13
-9.9353e-08
1.43861e-06
-9.80431e-13
-9.56124e-08
1.46956e-06
-8.84758e-13
-9.19969e-08
1.49938e-06
-7.16656e-13
-8.85e-08
1.52808e-06
-5.56555e-13
-8.51155e-08
1.5557e-06
-4.54803e-13
-8.18372e-08
1.58227e-06
-3.97529e-13
-7.86593e-08
1.60782e-06
-3.27974e-13
-7.55768e-08
1.63238e-06
-1.98758e-13
-7.25852e-08
1.65596e-06
-7.46628e-15
-6.96804e-08
1.67861e-06
2.02879e-13
-6.68589e-08
1.70034e-06
3.735e-13
-6.41173e-08
1.72117e-06
4.71484e-13
-6.14525e-08
1.74114e-06
5.13596e-13
-5.88616e-08
1.76026e-06
5.46313e-13
-5.63421e-08
1.77856e-06
6.02525e-13
-5.3892e-08
1.79606e-06
6.76681e-13
-5.15091e-08
1.81278e-06
7.34669e-13
-4.91915e-08
1.82873e-06
7.42476e-13
-4.69371e-08
1.84394e-06
6.9314e-13
-4.47438e-08
1.85843e-06
6.14821e-13
-4.26096e-08
1.87222e-06
5.52586e-13
-4.05328e-08
1.88532e-06
5.38111e-13
-3.85115e-08
1.89775e-06
5.72986e-13
-3.65443e-08
1.90953e-06
6.36151e-13
-3.46294e-08
1.92068e-06
7.0173e-13
-3.27654e-08
1.93121e-06
7.53092e-13
-3.09509e-08
1.94114e-06
7.87925e-13
-2.91846e-08
1.95049e-06
8.14258e-13
-2.74653e-08
1.95926e-06
8.37316e-13
-2.57919e-08
1.96749e-06
8.46538e-13
-2.41633e-08
1.97517e-06
8.18477e-13
-2.25783e-08
1.98233e-06
7.36827e-13
-2.10359e-08
1.98898e-06
6.10886e-13
-1.95346e-08
1.99513e-06
4.71637e-13
-1.80731e-08
2.00079e-06
3.52197e-13
-1.665e-08
2.00598e-06
2.7113e-13
-1.52636e-08
2.0107e-06
2.27242e-13
-1.39123e-08
2.01497e-06
2.00895e-13
-1.25943e-08
2.01879e-06
1.62724e-13
-1.13078e-08
2.02219e-06
9.29673e-14
-1.00509e-08
2.02515e-06
-6.03684e-16
-8.82163e-09
2.02771e-06
-8.53831e-14
-7.61829e-09
2.02986e-06
-1.2855e-13
-6.43909e-09
2.03161e-06
-1.23478e-13
-5.28239e-09
2.03297e-06
-9.8116e-14
-4.14661e-09
2.03394e-06
-1.0611e-13
-3.0302e-09
2.03454e-06
-2.06994e-13
-1.93166e-09
2.03477e-06
-4.40759e-13
-8.49506e-10
2.03463e-06
-8.03774e-13
2.1777e-10
2.03413e-06
-1.24377e-12
1.27167e-09
2.03327e-06
-1.67704e-12
2.31343e-09
2.03206e-06
-2.01605e-12
3.34395e-09
2.0305e-06
-2.19137e-12
4.36381e-09
2.02859e-06
-2.15734e-12
5.37336e-09
2.02634e-06
-1.89482e-12
6.37272e-09
2.02376e-06
-1.42141e-12
7.36179e-09
2.02084e-06
-7.9825e-13
8.34024e-09
2.01759e-06
-1.12868e-13
9.30748e-09
2.01402e-06
5.57457e-13
1.02627e-08
2.01014e-06
1.16197e-12
1.12049e-08
2.00594e-06
1.64338e-12
1.21329e-08
2.00143e-06
1.89469e-12
1.30454e-08
1.99663e-06
1.78199e-12
1.3941e-08
1.99152e-06
1.24603e-12
1.48185e-08
1.98613e-06
3.82881e-13
1.5677e-08
1.98045e-06
-5.98591e-13
1.65153e-08
1.9745e-06
-1.50122e-12
1.73324e-08
1.96828e-06
-2.19219e-12
1.81273e-08
1.96179e-06
-2.53138e-12
1.88998e-08
1.95505e-06
-2.32722e-12
1.965e-08
1.94806e-06
-1.48048e-12
2.03777e-08
1.94083e-06
-2.05412e-13
2.10821e-08
1.93338e-06
9.92075e-13
2.17623e-08
1.9257e-06
1.68935e-12
2.24188e-08
1.91781e-06
1.91494e-12
2.30546e-08
1.9097e-06
2.02819e-12
2.36733e-08
1.90137e-06
2.15029e-12
2.42774e-08
1.89284e-06
1.81374e-12
2.48672e-08
1.88411e-06
4.01595e-13
2.54428e-08
1.87519e-06
-1.94444e-12
2.6007e-08
1.86607e-06
-3.98875e-12
2.65661e-08
1.85676e-06
-4.26183e-12
2.71272e-08
1.84724e-06
-2.4492e-12
2.7695e-08
1.83752e-06
1.20404e-13
2.82701e-08
1.82759e-06
1.55839e-12
2.88518e-08
1.81746e-06
1.12062e-12
2.94412e-08
1.80712e-06
-1.68456e-13
3.00426e-08
1.79657e-06
-6.34645e-13
3.06608e-08
1.78579e-06
3.21722e-13
3.12984e-08
1.77479e-06
1.67244e-12
3.1955e-08
1.76354e-06
1.91709e-12
3.26297e-08
1.75207e-06
6.85389e-13
3.33229e-08
1.74035e-06
-9.13117e-13
3.4037e-08
1.72838e-06
-1.51769e-12
3.4774e-08
1.71614e-06
-9.59434e-13
3.55343e-08
1.70364e-06
-3.52211e-13
3.63167e-08
1.69087e-06
-7.44758e-13
3.71201e-08
1.67782e-06
-1.81857e-12
3.79449e-08
1.66448e-06
-2.10416e-12
3.8792e-08
1.65085e-06