/*--------------------------------*- C++ -*----------------------------------*\
  =========                 |
  \\      /  F ield         | OpenFOAM: The Open Source CFD Toolbox
   \\    /   O peration     | Website:  https://openfoam.org
    \\  /    A nd           | Version:  8
     \\/     M anipulation  |
\*---------------------------------------------------------------------------*/
FoamFile
{
    version     2.0;
    format      ascii;
    class       volVectorField;
    location    "300";
    object      U;
}
// * * * * * * * * * * * * * * * * * * * * * * * * * * * * * * * * * * * * * //

dimensions      [0 1 -1 0 0 0 0];

internalField   nonuniform List<vector> 
48000
(
(-0.00271071 2.81248e-05 0.00274832)
(-0.00660159 1.31902e-05 0.00309811)
(-0.0101259 1.041e-05 0.00222479)
(-0.0121815 7.66777e-06 0.00103771)
(-0.0128198 1.69018e-06 1.33135e-06)
(-0.0123108 -1.02568e-05 -0.000783716)
(-0.0109142 -2.46625e-05 -0.00130847)
(-0.0088239 -1.35899e-05 -0.00159585)
(-0.00655311 1.1506e-05 -0.0017478)
(-0.00373938 3.7648e-05 -0.00166025)
(-0.000278765 7.24954e-05 -0.00245765)
(0.00251211 2.57935e-05 -0.0025986)
(0.00702851 -2.74862e-05 -0.00196133)
(0.0106507 -1.23943e-05 -0.00273308)
(0.0144607 -7.57717e-06 -0.00267279)
(0.0181226 -4.44387e-06 -0.00265787)
(0.021898 -2.68036e-06 -0.0038236)
(0.0256725 -2.21236e-06 -0.00485642)
(0.0303345 -1.5732e-06 -0.00337204)
(0.0341617 -7.61577e-07 -0.00320473)
(0.0380563 -4.84599e-08 -0.00306656)
(0.0418526 2.20933e-07 -0.0029401)
(0.0455061 1.07656e-07 -0.00281738)
(0.0490268 -1.02295e-07 -0.00269626)
(0.0524118 -1.67841e-07 -0.00257859)
(0.0556629 -2.924e-08 -0.00246532)
(0.0587846 2.11564e-07 -0.00235677)
(0.0617813 4.20813e-07 -0.00225301)
(0.0646575 5.42333e-07 -0.0021541)
(0.0674176 6.00249e-07 -0.00206012)
(0.0700661 6.36204e-07 -0.00197105)
(0.0726082 6.58157e-07 -0.00188673)
(0.0750486 6.39813e-07 -0.00180686)
(0.0773925 5.55885e-07 -0.00173104)
(0.0796443 4.13713e-07 -0.00165885)
(0.081808 2.5112e-07 -0.00158994)
(0.0838873 1.11027e-07 -0.0015241)
(0.0858852 1.64321e-08 -0.0014612)
(0.0878049 -4.01285e-08 -0.00140105)
(0.089649 -8.50921e-08 -0.00134343)
(0.0914204 -1.37602e-07 -0.00128807)
(0.0931215 -1.9289e-07 -0.00123476)
(0.0947545 -2.28975e-07 -0.00118335)
(0.0963214 -2.28001e-07 -0.00113377)
(0.0978241 -1.91733e-07 -0.00108594)
(0.0992645 -1.39939e-07 -0.00103976)
(0.100644 -9.58892e-08 -0.000995108)
(0.101966 -7.11041e-08 -0.000951852)
(0.10323 -6.05885e-08 -0.000909904)
(0.104439 -5.09562e-08 -0.000869226)
(0.105594 -3.52475e-08 -0.000829809)
(0.106697 -2.16328e-08 -0.000791639)
(0.107749 -2.87371e-08 -0.000754681)
(0.108751 -7.1226e-08 -0.000718884)
(0.109707 -1.48818e-07 -0.00068418)
(0.110616 -2.45095e-07 -0.000650506)
(0.11148 -3.35806e-07 -0.000617814)
(0.112301 -4.0126e-07 -0.000586062)
(0.11308 -4.34002e-07 -0.000555209)
(0.113818 -4.37284e-07 -0.000525209)
(0.114515 -4.1757e-07 -0.000496032)
(0.115173 -3.7949e-07 -0.000467664)
(0.115792 -3.2548e-07 -0.0004401)
(0.116374 -2.58184e-07 -0.000413341)
(0.116919 -1.84133e-07 -0.000387385)
(0.117429 -1.16623e-07 -0.000362211)
(0.117903 -7.34949e-08 -0.000337767)
(0.118345 -6.81038e-08 -0.00031399)
(0.118753 -1.00138e-07 -0.000290825)
(0.119131 -1.54894e-07 -0.000268248)
(0.119478 -2.11454e-07 -0.000246253)
(0.119795 -2.52389e-07 -0.000224845)
(0.120084 -2.69445e-07 -0.00020402)
(0.120345 -2.64503e-07 -0.000183763)
(0.120578 -2.46472e-07 -0.000164035)
(0.120785 -2.23164e-07 -0.000144777)
(0.120966 -1.92759e-07 -0.000125931)
(0.12112 -1.41324e-07 -0.000107457)
(0.121249 -5.07425e-08 -8.93447e-05)
(0.121354 8.79086e-08 -7.15929e-05)
(0.121433 2.65774e-07 -5.41944e-05)
(0.121488 4.57186e-07 -3.71288e-05)
(0.121519 6.29021e-07 -2.03666e-05)
(0.121527 7.49864e-07 -3.81392e-06)
(0.121512 8.00188e-07 1.25626e-05)
(0.121474 7.78206e-07 2.88007e-05)
(0.121414 6.96442e-07 4.4987e-05)
(0.121332 5.77093e-07 6.11148e-05)
(0.121228 4.44578e-07 7.71641e-05)
(0.121103 3.16411e-07 9.31263e-05)
(0.120957 1.98007e-07 0.000109)
(0.120789 8.41322e-08 0.000124761)
(0.120601 -3.2963e-08 0.000140353)
(0.120391 -1.55731e-07 0.000155713)
(0.120161 -2.81187e-07 0.000170821)
(0.11991 -4.07891e-07 0.000185701)
(0.119638 -5.39355e-07 0.000200364)
(0.119347 -6.74777e-07 0.00021477)
(0.119036 -7.94103e-07 0.000228865)
(0.118706 -8.56449e-07 0.000242666)
(0.118358 -8.19343e-07 0.00025627)
(0.117991 -6.62211e-07 0.000269732)
(0.117607 -3.90665e-07 0.000282958)
(0.117205 -2.51656e-08 0.000295774)
(0.116787 3.98348e-07 0.000308137)
(0.116351 8.05066e-07 0.000320215)
(0.1159 1.07108e-06 0.000332134)
(0.115433 1.07121e-06 0.000343639)
(0.114951 7.71468e-07 0.000354135)
(0.114454 2.82794e-07 0.00036326)
(0.113945 -1.94931e-07 0.000371473)
(0.113421 -5.06857e-07 0.00037993)
(0.112885 -6.35336e-07 0.000389541)
(0.112337 -6.62496e-07 0.000400059)
(0.111776 -6.48423e-07 0.000410189)
(0.111204 -5.58359e-07 0.000418769)
(0.11062 -3.18694e-07 0.000425927)
(0.110022 6.0786e-08 0.000433041)
(0.109412 4.38858e-07 0.000441476)
(0.108789 6.33163e-07 0.000451348)
(0.108155 5.67436e-07 0.000461534)
(0.107507 3.31099e-07 0.000470894)
(0.106846 9.49674e-08 0.000479438)
(0.106171 -3.25746e-08 0.000488279)
(0.105483 -7.0388e-08 0.000498484)
(0.10478 -1.0195e-07 0.00051005)
(0.104063 -1.65363e-07 0.000522009)
(0.10333 -2.11842e-07 0.000533467)
(0.102581 -1.67388e-07 0.000544453)
(0.101814 -2.53104e-08 0.000555739)
(0.101031 1.24999e-07 0.000567937)
(0.100229 1.60718e-07 0.000580925)
(0.0994103 2.87598e-08 0.000594173)
(0.0985724 -1.92607e-07 0.000607519)
(0.0977155 -3.26453e-07 0.000621432)
(0.0968391 -2.16699e-07 0.00063646)
(0.0959428 1.38605e-07 0.000652468)
(0.095026 5.43458e-07 0.000668576)
(0.0940876 7.07414e-07 0.000683935)
(0.0931273 4.51043e-07 0.000698608)
(0.092145 -1.28715e-07 0.000713631)
(0.0911412 -6.76147e-07 0.00073013)
(0.0901157 -8.0546e-07 0.000748288)
(0.0890672 -3.93901e-07 0.000767169)
(0.0879944 2.91899e-07 0.000785569)
(0.0868962 7.67019e-07 0.000803084)
(0.0857731 6.89718e-07 0.000820403)
(0.0846256 1.33184e-07 0.000838613)
(0.0834538 -4.61412e-07 0.000858193)
(0.0822569 -6.28631e-07 0.000878641)
(0.0810332 -2.49205e-07 0.000899042)
(0.0797813 3.55853e-07 0.000918993)
(0.0785009 6.84669e-07 0.000938995)
(0.0771925 4.59593e-07 0.000960005)
(0.0758565 -1.44355e-07 0.000982585)
(0.0744919 -6.34738e-07 0.00100638)
(0.0730968 -6.0217e-07 0.00103044)
(0.0716693 -5.77172e-08 0.00105414)
(0.0702081 5.80851e-07 0.00107768)
(0.0687132 8.32755e-07 0.00110198)
(0.0671853 5.17251e-07 0.0011279)
(0.0656241 -1.52815e-07 0.00115569)
(0.0640282 -7.61916e-07 0.00118482)
(0.0623956 -9.80509e-07 0.00121435)
(0.0607245 -7.60436e-07 0.00124335)
(0.0590142 -3.26247e-07 0.001271)
(0.0572647 2.24625e-08 0.00129616)
(0.0554792 1.48816e-07 0.00131676)
(0.0536609 1.41141e-07 0.00133175)
(0.0517671 1.37121e-07 0.00136584)
(0.0498977 1.49774e-07 0.00147765)
(0.0477207 9.68194e-08 0.00190437)
(0.0454591 -2.01518e-07 0.00165065)
(0.0432019 -7.38254e-07 0.00178984)
(0.0412221 -1.3428e-06 0.00111584)
(0.0395056 -1.60188e-06 0.00105569)
(0.0374127 -8.45263e-07 0.00304051)
(0.0356191 1.47632e-07 0.00255031)
(0.0334239 5.74451e-07 -0.000122619)
(0.0308704 2.16858e-08 0.00155945)
(0.0284684 -5.33278e-07 0.00280411)
(0.0269478 -3.64616e-07 0.00194577)
(0.0248608 -3.83893e-07 0.00187227)
(0.0225912 -4.95919e-07 0.00158482)
(0.019943 -5.9756e-07 0.0015554)
(0.0174963 -5.57963e-07 0.00214687)
(0.0148927 -3.97508e-07 0.00189352)
(0.0122359 -3.25425e-07 0.00190799)
(0.009518 -3.32947e-07 0.00199881)
(0.00671086 -3.52193e-07 0.00209113)
(0.00385226 -3.52896e-07 0.00215095)
(0.00101204 -3.79944e-07 0.00215096)
(-0.00173331 -5.23597e-07 0.00204998)
(-0.00421188 -8.2889e-07 0.00180759)
(-0.00626908 -1.26006e-06 0.0013833)
(-0.00766318 -1.73852e-06 0.000725715)
(-0.00811946 -2.21109e-06 -0.000198303)
(-0.00728422 -2.5659e-06 -0.00131225)
(-0.00516028 -2.63591e-06 -0.00223642)
(-0.00194487 -1.80153e-06 -0.00214818)
(-0.00270664 2.81236e-05 0.00274465)
(-0.00658349 1.31918e-05 0.00309814)
(-0.0100946 1.04101e-05 0.00222463)
(-0.012141 7.66684e-06 0.00103576)
(-0.0127716 1.69037e-06 -3.70702e-06)
(-0.0122565 -1.02843e-05 -0.0007926)
(-0.0108664 -2.50755e-05 -0.00131316)
(-0.0089514 -1.60546e-05 -0.00151184)
(-0.00689988 2.05515e-05 -0.0014108)
(-0.00397481 6.58063e-05 -0.00183025)
(-0.000534713 0.000146092 -0.00208333)
(0.00285782 3.47594e-05 -0.00238709)
(0.00706812 -2.76412e-05 -0.00194697)
(0.0107044 -1.2414e-05 -0.00272832)
(0.0144925 -7.58131e-06 -0.00266737)
(0.0181439 -4.44466e-06 -0.00265453)
(0.0219109 -2.67982e-06 -0.00382305)
(0.0256821 -2.2111e-06 -0.00485717)
(0.0303387 -1.57263e-06 -0.00337546)
(0.0341643 -7.61465e-07 -0.00320767)
(0.0380587 -4.84558e-08 -0.00306918)
(0.0418546 2.20919e-07 -0.00294248)
(0.0455077 1.07651e-07 -0.00281957)
(0.0490281 -1.0229e-07 -0.00269833)
(0.0524132 -1.67834e-07 -0.00258047)
(0.0556647 -2.92388e-08 -0.00246686)
(0.0587868 2.11556e-07 -0.00235794)
(0.0617838 4.20798e-07 -0.00225395)
(0.0646599 5.42315e-07 -0.00215497)
(0.0674195 6.00231e-07 -0.00206102)
(0.0700677 6.36186e-07 -0.00197204)
(0.0726094 6.58139e-07 -0.00188783)
(0.0750498 6.39796e-07 -0.00180802)
(0.0773938 5.55871e-07 -0.00173221)
(0.0796457 4.13704e-07 -0.00166005)
(0.0818094 2.51114e-07 -0.00159129)
(0.0838885 1.11025e-07 -0.00152569)
(0.0858861 1.64318e-08 -0.00146303)
(0.0878055 -4.01279e-08 -0.00140306)
(0.0896494 -8.50909e-08 -0.00134553)
(0.0914206 -1.376e-07 -0.0012902)
(0.0931215 -1.92888e-07 -0.0012369)
(0.0947543 -2.28973e-07 -0.00118551)
(0.096321 -2.27999e-07 -0.00113593)
(0.0978236 -1.91731e-07 -0.00108807)
(0.0992641 -1.39938e-07 -0.00104179)
(0.100644 -9.58884e-08 -0.000996981)
(0.101966 -7.11035e-08 -0.000953541)
(0.10323 -6.05879e-08 -0.000911421)
(0.104439 -5.09557e-08 -0.000870604)
(0.105594 -3.52471e-08 -0.000831076)
(0.106697 -2.16325e-08 -0.000792808)
(0.107749 -2.87368e-08 -0.000755757)
(0.108752 -7.12252e-08 -0.000719868)
(0.109708 -1.48816e-07 -0.000685086)
(0.110617 -2.45093e-07 -0.000651364)
(0.111481 -3.35804e-07 -0.000618654)
(0.112302 -4.01257e-07 -0.000586902)
(0.113081 -4.34e-07 -0.000556046)
(0.113818 -4.37282e-07 -0.00052603)
(0.114515 -4.17568e-07 -0.000496816)
(0.115173 -3.79488e-07 -0.000468381)
(0.115792 -3.25479e-07 -0.000440717)
(0.116374 -2.58183e-07 -0.000413825)
(0.116919 -1.84132e-07 -0.000387701)
(0.117428 -1.16623e-07 -0.000362327)
(0.117903 -7.34945e-08 -0.000337668)
(0.118345 -6.81035e-08 -0.000313695)
(0.118753 -1.00137e-07 -0.000290393)
(0.119131 -1.54893e-07 -0.000267761)
(0.119478 -2.11453e-07 -0.000245791)
(0.119795 -2.52388e-07 -0.000224467)
(0.120084 -2.69445e-07 -0.000203761)
(0.120344 -2.64503e-07 -0.000183623)
(0.120577 -2.46472e-07 -0.000163988)
(0.120784 -2.23165e-07 -0.000144791)
(0.120964 -1.9276e-07 -0.000125984)
(0.121118 -1.41325e-07 -0.00010754)
(0.121247 -5.07429e-08 -8.94451e-05)
(0.121351 8.79092e-08 -7.16822e-05)
(0.121431 2.65776e-07 -5.42264e-05)
(0.121486 4.57188e-07 -3.70503e-05)
(0.121517 6.29024e-07 -2.01244e-05)
(0.121526 7.49864e-07 -3.37909e-06)
(0.121511 8.00187e-07 1.31904e-05)
(0.121474 7.78204e-07 2.95937e-05)
(0.121414 6.9644e-07 4.58827e-05)
(0.121333 5.77091e-07 6.20424e-05)
(0.121229 4.44577e-07 7.80682e-05)
(0.121104 3.16411e-07 9.39727e-05)
(0.120958 1.98006e-07 0.00010977)
(0.12079 8.4132e-08 0.000125451)
(0.120602 -3.29629e-08 0.000140988)
(0.120392 -1.55731e-07 0.000156353)
(0.120162 -2.81186e-07 0.000171535)
(0.119911 -4.07891e-07 0.00018652)
(0.11964 -5.39355e-07 0.000201262)
(0.119348 -6.74778e-07 0.000215693)
(0.119037 -7.94105e-07 0.000229774)
(0.118707 -8.56453e-07 0.000243534)
(0.118358 -8.19348e-07 0.000257031)
(0.11799 -6.62217e-07 0.00027027)
(0.117605 -3.90669e-07 0.000283188)
(0.117202 -2.51659e-08 0.000295742)
(0.116783 3.98352e-07 0.000307999)
(0.116348 8.05071e-07 0.000320073)
(0.115898 1.07108e-06 0.00033193)
(0.115432 1.07121e-06 0.000343285)
(0.114952 7.71464e-07 0.00035379)
(0.114457 2.82792e-07 0.000363395)
(0.113947 -1.94929e-07 0.000372512)
(0.113424 -5.06855e-07 0.000381727)
(0.112887 -6.35334e-07 0.000391288)
(0.112338 -6.62496e-07 0.000400857)
(0.111777 -6.48425e-07 0.000409846)
(0.111204 -5.58362e-07 0.000418017)
(0.110618 -3.18696e-07 0.000425784)
(0.11002 6.07865e-08 0.00043388)
(0.109409 4.38861e-07 0.00044273)
(0.108788 6.33166e-07 0.00045213)
(0.108154 5.67438e-07 0.000461528)
(0.107507 3.311e-07 0.000470608)
(0.106847 9.49675e-08 0.000479604)
(0.106172 -3.25746e-08 0.000489067)
(0.105483 -7.0388e-08 0.000499354)
(0.10478 -1.0195e-07 0.000510348)
(0.104063 -1.65363e-07 0.000521639)
(0.10333 -2.11842e-07 0.000532945)
(0.10258 -1.67389e-07 0.000544348)
(0.101814 -2.53105e-08 0.000556157)
(0.10103 1.24999e-07 0.000568591)
(0.100229 1.60718e-07 0.00058162)
(0.0994106 2.87598e-08 0.000595063)
(0.0985726 -1.92608e-07 0.000608777)
(0.0977149 -3.26456e-07 0.000622759)
(0.0968377 -2.16701e-07 0.000637108)
(0.0959413 1.38606e-07 0.000651933)
(0.0950253 5.4346e-07 0.000667297)
(0.0940884 7.07412e-07 0.000683199)
(0.0931293 4.51041e-07 0.000699554)
(0.0921472 -1.28715e-07 0.000716188)
(0.0911422 -6.7615e-07 0.000732894)
(0.0901148 -8.05469e-07 0.000749575)
(0.089065 -3.93906e-07 0.000766387)
(0.0879922 2.91901e-07 0.000783701)
(0.0868956 7.6702e-07 0.000801843)
(0.0857742 6.89716e-07 0.000820811)
(0.0846274 1.33184e-07 0.000840226)
(0.0834549 -4.61414e-07 0.00085959)
(0.0822564 -6.28637e-07 0.00087871)
(0.0810315 -2.49207e-07 0.000897903)
(0.0797798 3.55855e-07 0.000917775)
(0.0785009 6.84669e-07 0.000938772)
(0.077194 4.59593e-07 0.000960866)
(0.0758581 -1.44355e-07 0.00098361)
(0.0744923 -6.34744e-07 0.00100651)
(0.0730953 -6.02178e-07 0.00102941)
(0.0716666 -5.77179e-08 0.00105258)
(0.0702059 5.80855e-07 0.00107659)
(0.0687128 8.32755e-07 0.00110193)
(0.0671866 5.17249e-07 0.00112864)
(0.065626 -1.52814e-07 0.00115635)
(0.0640295 -7.61919e-07 0.00118467)
(0.0623955 -9.80518e-07 0.00121333)
(0.0607231 -7.60445e-07 0.001242)
(0.0590126 -3.26251e-07 0.00127)
(0.0572637 2.24628e-08 0.00129566)
(0.0554789 1.48817e-07 0.00131636)
(0.0536609 1.41142e-07 0.00133108)
(0.0517671 1.37121e-07 0.00136499)
(0.0498979 1.49779e-07 0.00147698)
(0.0477212 9.68314e-08 0.00190478)
(0.0454604 -2.0153e-07 0.00165244)
(0.0432034 -7.38097e-07 0.00179276)
(0.0412218 -1.34251e-06 0.00111784)
(0.039503 -1.60198e-06 0.0010548)
(0.0374096 -8.45663e-07 0.00303818)
(0.0356162 1.47672e-07 0.00255037)
(0.0334226 5.74388e-07 -0.000118086)
(0.0308692 2.16861e-08 0.0015615)
(0.0284664 -5.33507e-07 0.00280694)
(0.0269466 -3.64818e-07 0.00194696)
(0.0248609 -3.83872e-07 0.001872)
(0.0225907 -4.95864e-07 0.00158609)
(0.0199415 -5.97559e-07 0.00155582)
(0.0174942 -5.57965e-07 0.00214675)
(0.014891 -3.97563e-07 0.00189376)
(0.0122346 -3.25459e-07 0.00190846)
(0.00951738 -3.32968e-07 0.00199919)
(0.0067108 -3.52205e-07 0.00209141)
(0.00385262 -3.52903e-07 0.00215141)
(0.00101263 -3.79948e-07 0.00215179)
(-0.00173276 -5.23603e-07 0.00205111)
(-0.00421164 -8.28899e-07 0.00180874)
(-0.00626924 -1.26008e-06 0.00138425)
(-0.00766359 -1.73854e-06 0.000726409)
(-0.00811988 -2.21114e-06 -0.000197768)
(-0.00728452 -2.566e-06 -0.00131164)
(-0.00516 -2.63621e-06 -0.0022354)
(-0.0019444 -1.80187e-06 -0.00214508)
(-0.00280481 1.54041e-05 0.00757665)
(-0.00539431 5.83664e-06 0.00634235)
(-0.00688068 4.45444e-06 0.00423281)
(-0.00742964 3.47096e-06 0.00195952)
(-0.00706562 1.48538e-06 -6.15606e-05)
(-0.00593756 -2.54344e-06 -0.00170784)
(-0.00413963 -7.90913e-06 -0.0029853)
(-0.00176544 -1.01694e-05 -0.00397769)
(0.00109873 -2.00238e-05 -0.00483032)
(0.00464269 -7.10144e-06 -0.00547216)
(0.00826103 -1.72877e-05 -0.00590984)
(0.0121585 -2.04651e-05 -0.00644918)
(0.0163172 -1.43113e-05 -0.00666866)
(0.0202789 -7.49348e-06 -0.00683442)
(0.024337 -4.07702e-06 -0.00687277)
(0.0285791 -2.47448e-06 -0.00679348)
(0.0327415 -1.53977e-06 -0.00681869)
(0.0367941 -9.5583e-07 -0.00709927)
(0.0407201 -5.48989e-07 -0.00714022)
(0.0446549 -3.41952e-07 -0.00702612)
(0.0484769 -2.57223e-07 -0.0068291)
(0.0521848 -2.89263e-07 -0.00660927)
(0.0557808 -3.77767e-07 -0.00637665)
(0.0592649 -4.29741e-07 -0.00614146)
(0.0626344 -4.10353e-07 -0.00590874)
(0.0658894 -3.49372e-07 -0.00568116)
(0.0690314 -2.90987e-07 -0.00546022)
(0.072062 -2.57299e-07 -0.00524671)
(0.0749834 -2.44474e-07 -0.00504102)
(0.0777983 -2.38028e-07 -0.00484331)
(0.0805097 -2.2881e-07 -0.00465361)
(0.0831209 -2.20135e-07 -0.00447178)
(0.0856353 -2.23373e-07 -0.0042975)
(0.0880563 -2.43344e-07 -0.00413039)
(0.090387 -2.69355e-07 -0.00396999)
(0.0926303 -2.84555e-07 -0.00381586)
(0.094789 -2.81519e-07 -0.0036676)
(0.0968657 -2.66285e-07 -0.00352483)
(0.0988632 -2.50721e-07 -0.0033872)
(0.100784 -2.42623e-07 -0.00325434)
(0.10263 -2.41041e-07 -0.00312589)
(0.104405 -2.38595e-07 -0.00300157)
(0.106109 -2.2813e-07 -0.00288113)
(0.107745 -2.08283e-07 -0.00276439)
(0.109316 -1.84347e-07 -0.00265116)
(0.110822 -1.64519e-07 -0.00254131)
(0.112267 -1.54127e-07 -0.00243467)
(0.113651 -1.52025e-07 -0.0023311)
(0.114977 -1.5212e-07 -0.00223049)
(0.116245 -1.49135e-07 -0.00213276)
(0.117458 -1.43325e-07 -0.00203784)
(0.118616 -1.40213e-07 -0.00194566)
(0.119722 -1.46051e-07 -0.00185613)
(0.120777 -1.63047e-07 -0.00176916)
(0.121782 -1.87316e-07 -0.00168464)
(0.122738 -2.10858e-07 -0.00160246)
(0.123647 -2.26321e-07 -0.00152254)
(0.12451 -2.30753e-07 -0.00144478)
(0.125327 -2.2591e-07 -0.00136911)
(0.126102 -2.15558e-07 -0.00129545)
(0.126833 -2.03122e-07 -0.00122374)
(0.127523 -1.90504e-07 -0.00115393)
(0.128173 -1.78277e-07 -0.00108596)
(0.128784 -1.66641e-07 -0.00101982)
(0.129357 -1.5717e-07 -0.000955483)
(0.129893 -1.533e-07 -0.000892915)
(0.130393 -1.5805e-07 -0.000832085)
(0.130858 -1.7076e-07 -0.000772952)
(0.13129 -1.86301e-07 -0.000715465)
(0.131688 -1.97761e-07 -0.000659569)
(0.132054 -1.998e-07 -0.000605199)
(0.132388 -1.90529e-07 -0.000552277)
(0.132692 -1.71923e-07 -0.00050072)
(0.132965 -1.48874e-07 -0.000450434)
(0.133209 -1.26569e-07 -0.000401319)
(0.133423 -1.06806e-07 -0.000353275)
(0.13361 -8.62622e-08 -0.000306212)
(0.133769 -5.86426e-08 -0.000260055)
(0.133901 -1.94701e-08 -0.000214746)
(0.134006 3.02217e-08 -0.000170236)
(0.134086 8.34981e-08 -0.000126482)
(0.13414 1.29902e-07 -8.3445e-05)
(0.134169 1.59266e-07 -4.10807e-05)
(0.134173 1.65466e-07 6.5533e-07)
(0.134154 1.48756e-07 4.18648e-05)
(0.13411 1.15336e-07 8.26564e-05)
(0.134043 7.4555e-08 0.000123072)
(0.133952 3.55557e-08 0.000163136)
(0.133837 4.83327e-09 0.000202869)
(0.133699 -1.49357e-08 0.000242281)
(0.133538 -2.54303e-08 0.000281365)
(0.133354 -3.23062e-08 0.000320096)
(0.133147 -4.26923e-08 0.000358449)
(0.132919 -6.11211e-08 0.000396398)
(0.132668 -8.73586e-08 0.000433894)
(0.132397 -1.18917e-07 0.000470853)
(0.132104 -1.55251e-07 0.00050718)
(0.131791 -1.97124e-07 0.000542819)
(0.131458 -2.39651e-07 0.000577775)
(0.131104 -2.67379e-07 0.000612062)
(0.130732 -2.60143e-07 0.000645629)
(0.13034 -2.06383e-07 0.000678369)
(0.129929 -1.09903e-07 0.00071021)
(0.1295 1.70678e-08 0.000741166)
(0.129053 1.62216e-07 0.000771244)
(0.128589 3.06717e-07 0.000800287)
(0.128108 4.10163e-07 0.000828018)
(0.127611 4.15941e-07 0.00085435)
(0.127098 2.92273e-07 0.000879671)
(0.126571 7.80899e-08 0.000904696)
(0.126029 -1.22099e-07 0.000929841)
(0.125475 -2.10844e-07 0.000954719)
(0.124906 -1.79906e-07 0.000978356)
(0.124324 -1.17142e-07 0.00100012)
(0.123729 -1.18817e-07 0.00102048)
(0.12312 -1.88213e-07 0.00104084)
(0.122497 -2.27304e-07 0.00106243)
(0.121862 -1.39306e-07 0.0010853)
(0.121213 5.87967e-08 0.00110849)
(0.120551 2.34066e-07 0.00113105)
(0.119876 2.56951e-07 0.00115305)
(0.119186 1.24922e-07 0.00117552)
(0.118483 -3.56051e-08 0.00119945)
(0.117765 -9.16663e-08 0.00122493)
(0.117033 -2.57882e-08 0.00125118)
(0.116285 6.31008e-08 0.00127753)
(0.115521 7.26645e-08 0.00130405)
(0.114741 9.06119e-10 0.00133149)
(0.113943 -6.54688e-08 0.00136042)
(0.113128 -5.83912e-08 0.00139078)
(0.112295 -1.01481e-08 0.00142199)
(0.111445 -1.70734e-08 0.00145368)
(0.110576 -1.20285e-07 0.00148608)
(0.109687 -2.33845e-07 0.00151963)
(0.108779 -2.10244e-07 0.00155451)
(0.107851 7.10235e-09 0.00159033)
(0.106902 2.94872e-07 0.00162654)
(0.105931 4.2628e-07 0.00166302)
(0.104938 2.60433e-07 0.00170018)
(0.103923 -1.20506e-07 0.00173859)
(0.102886 -4.54765e-07 0.00177837)
(0.101827 -4.99406e-07 0.00181909)
(0.100745 -2.22546e-07 0.00186019)
(0.0996382 1.70667e-07 0.00190146)
(0.0985067 3.99647e-07 0.00194325)
(0.0973499 3.23236e-07 0.00198611)
(0.0961676 3.55232e-08 0.0020303)
(0.0949599 -2.24842e-07 0.00207559)
(0.0937263 -2.68318e-07 0.00212156)
(0.0924659 -9.25112e-08 0.002168)
(0.0911779 1.38009e-07 0.00221513)
(0.0898619 2.37311e-07 0.00226334)
(0.0885178 1.4184e-07 0.0023129)
(0.0871453 -5.61677e-08 0.00236377)
(0.0857435 -1.96452e-07 0.00241573)
(0.0843112 -1.77985e-07 0.00246872)
(0.082847 -2.42576e-08 0.00252292)
(0.0813503 1.49126e-07 0.00257866)
(0.079821 2.23022e-07 0.0026362)
(0.0782588 1.56139e-07 0.00269557)
(0.0766635 4.31166e-09 0.00275669)
(0.0750335 -1.35213e-07 0.00281957)
(0.0733668 -1.96065e-07 0.00288444)
(0.0716615 -1.70658e-07 0.00295154)
(0.0699156 -9.32192e-08 0.00302091)
(0.0681274 -6.49127e-09 0.00309227)
(0.0662942 6.23277e-08 0.00316518)
(0.0644112 1.0209e-07 0.00324075)
(0.0624728 1.12823e-07 0.0033231)
(0.0604601 1.0161e-07 0.00342466)
(0.0583688 4.93091e-08 0.00357321)
(0.0563976 -5.20247e-08 0.00368682)
(0.0544751 -1.4733e-07 0.00361787)
(0.0524472 -2.49004e-07 0.00351833)
(0.0502197 -2.91078e-07 0.00343539)
(0.0477326 -1.8498e-07 0.00351281)
(0.0453283 3.24059e-08 0.00367567)
(0.0430666 1.2719e-07 0.00369824)
(0.0407012 1.43416e-07 0.00370616)
(0.0380626 1.30802e-07 0.00380746)
(0.0356524 -1.971e-07 0.0038715)
(0.033063 -2.45864e-07 0.00392195)
(0.0304383 -1.27565e-07 0.00407036)
(0.0279474 -9.85993e-08 0.00417308)
(0.0252504 -1.37547e-07 0.00431331)
(0.0225339 -1.2329e-07 0.00441213)
(0.0198967 -3.75473e-08 0.00449758)
(0.0171328 4.95956e-08 0.00463948)
(0.0143485 1.22139e-07 0.00478051)
(0.0115591 1.70774e-07 0.00487426)
(0.00879426 1.71824e-07 0.00487943)
(0.00610177 1.09123e-07 0.00475437)
(0.00354292 4.65247e-09 0.00444315)
(0.00120017 -9.16141e-08 0.00388242)
(-0.000834484 -1.40526e-07 0.00300312)
(-0.00243945 -1.44844e-07 0.00173533)
(-0.0035084 -1.29805e-07 3.42972e-05)
(-0.00388435 -5.44668e-08 -0.00203381)
(-0.00352525 3.9056e-07 -0.00419809)
(-0.00186935 3.43028e-06 -0.00591921)
(-0.00280117 1.5403e-05 0.00757818)
(-0.00538353 5.83567e-06 0.00634441)
(-0.00686334 4.45336e-06 0.004233)
(-0.00740714 3.47012e-06 0.00195668)
(-0.00703845 1.48587e-06 -6.88339e-05)
(-0.0059088 -2.55372e-06 -0.00172289)
(-0.00412376 -8.08324e-06 -0.00301998)
(-0.00180415 -1.11138e-05 -0.00405492)
(0.00118332 -2.53752e-05 -0.00489556)
(0.00465457 -8.23074e-06 -0.0054816)
(0.00839155 -2.13427e-05 -0.00594225)
(0.0122701 -2.18539e-05 -0.00636476)
(0.0163485 -1.44902e-05 -0.0066482)
(0.0202905 -7.52488e-06 -0.0068308)
(0.0243461 -4.08215e-06 -0.00686925)
(0.0285865 -2.47366e-06 -0.0067917)
(0.0327465 -1.53774e-06 -0.0068186)
(0.0367971 -9.54484e-07 -0.00710074)
(0.0407222 -5.48581e-07 -0.00714177)
(0.0446568 -3.41848e-07 -0.00702742)
(0.0484788 -2.57186e-07 -0.00683026)
(0.0521864 -2.89238e-07 -0.0066103)
(0.0557822 -3.77743e-07 -0.00637755)
(0.0592661 -4.29718e-07 -0.00614226)
(0.0626354 -4.10333e-07 -0.00590944)
(0.0658905 -3.49357e-07 -0.00568175)
(0.0690324 -2.90975e-07 -0.00546072)
(0.072063 -2.57289e-07 -0.00524716)
(0.0749842 -2.44465e-07 -0.00504148)
(0.077799 -2.3802e-07 -0.00484384)
(0.0805102 -2.28803e-07 -0.00465425)
(0.0831214 -2.20129e-07 -0.00447252)
(0.0856358 -2.23367e-07 -0.00429834)
(0.0880568 -2.43338e-07 -0.00413128)
(0.0903875 -2.69349e-07 -0.00397092)
(0.0926307 -2.84549e-07 -0.00381685)
(0.0947893 -2.81513e-07 -0.00366867)
(0.0968659 -2.66281e-07 -0.00352599)
(0.0988633 -2.50717e-07 -0.00338842)
(0.100784 -2.4262e-07 -0.00325559)
(0.10263 -2.41038e-07 -0.00312715)
(0.104404 -2.38592e-07 -0.00300283)
(0.106109 -2.28128e-07 -0.0028824)
(0.107745 -2.08281e-07 -0.00276566)
(0.109316 -1.84345e-07 -0.00265245)
(0.110822 -1.64517e-07 -0.0025426)
(0.112267 -1.54125e-07 -0.00243594)
(0.113651 -1.52024e-07 -0.00233235)
(0.114977 -1.52119e-07 -0.00223173)
(0.116245 -1.49134e-07 -0.002134)
(0.117458 -1.43324e-07 -0.00203911)
(0.118617 -1.40212e-07 -0.00194695)
(0.119723 -1.4605e-07 -0.00185745)
(0.120777 -1.63046e-07 -0.0017705)
(0.121782 -1.87315e-07 -0.00168599)
(0.122738 -2.10857e-07 -0.00160384)
(0.123647 -2.2632e-07 -0.00152394)
(0.12451 -2.30752e-07 -0.00144622)
(0.125328 -2.25909e-07 -0.00137059)
(0.126102 -2.15557e-07 -0.00129696)
(0.126833 -2.03121e-07 -0.00122526)
(0.127523 -1.90504e-07 -0.00115544)
(0.128173 -1.78277e-07 -0.00108746)
(0.128784 -1.6664e-07 -0.00102129)
(0.129357 -1.5717e-07 -0.000956906)
(0.129893 -1.533e-07 -0.000894282)
(0.130393 -1.58049e-07 -0.000833386)
(0.130858 -1.7076e-07 -0.000774181)
(0.13129 -1.86301e-07 -0.000716624)
(0.131688 -1.97761e-07 -0.00066066)
(0.132054 -1.99799e-07 -0.000606218)
(0.132388 -1.90529e-07 -0.000553215)
(0.132691 -1.71923e-07 -0.000501558)
(0.132964 -1.48874e-07 -0.000451148)
(0.133208 -1.26569e-07 -0.00040188)
(0.133423 -1.06806e-07 -0.00035366)
(0.133609 -8.62623e-08 -0.000306406)
(0.133768 -5.86428e-08 -0.000260051)
(0.1339 -1.94702e-08 -0.000214537)
(0.134005 3.02218e-08 -0.000169813)
(0.134085 8.34983e-08 -0.000125836)
(0.134139 1.29903e-07 -8.25646e-05)
(0.134168 1.59266e-07 -3.99626e-05)
(0.134173 1.65466e-07 1.99954e-06)
(0.134154 1.48756e-07 4.34017e-05)
(0.13411 1.15336e-07 8.43278e-05)
(0.134043 7.45551e-08 0.000124797)
(0.133952 3.55557e-08 0.000164817)
(0.133837 4.83328e-09 0.000204403)
(0.133699 -1.49358e-08 0.000243562)
(0.133538 -2.54304e-08 0.000282299)
(0.133354 -3.23063e-08 0.000320614)
(0.133148 -4.26924e-08 0.000358512)
(0.132919 -6.11213e-08 0.000395999)
(0.132669 -8.73589e-08 0.000433059)
(0.132397 -1.18917e-07 0.00046965)
(0.132105 -1.55251e-07 0.000505737)
(0.131792 -1.97125e-07 0.000541324)
(0.131458 -2.39652e-07 0.000576443)
(0.131105 -2.6738e-07 0.000611087)
(0.130732 -2.60145e-07 0.000645151)
(0.130339 -2.06385e-07 0.000678467)
(0.129928 -1.09904e-07 0.000710885)
(0.129499 1.70679e-08 0.0007423)
(0.129052 1.62217e-07 0.000772577)
(0.128587 3.06718e-07 0.000801496)
(0.128107 4.10165e-07 0.000828893)
(0.12761 4.15942e-07 0.0008549)
(0.127098 2.92274e-07 0.000880032)
(0.126572 7.80902e-08 0.000904874)
(0.126031 -1.221e-07 0.000929603)
(0.125476 -2.10845e-07 0.000953816)
(0.124907 -1.79907e-07 0.00097694)
(0.124325 -1.17143e-07 0.000998871)
(0.123729 -1.18818e-07 0.00102022)
(0.123119 -1.88215e-07 0.00104183)
(0.122497 -2.27306e-07 0.00106407)
(0.121861 -1.39307e-07 0.00108661)
(0.121212 5.87971e-08 0.00110885)
(0.120551 2.34067e-07 0.00113071)
(0.119875 2.56952e-07 0.00115275)
(0.119186 1.24923e-07 0.00117575)
(0.118483 -3.56053e-08 0.00119997)
(0.117765 -9.16669e-08 0.0012251)
(0.117033 -2.57883e-08 0.0012507)
(0.116285 6.31012e-08 0.00127673)
(0.115522 7.2665e-08 0.0013036)
(0.114741 9.06126e-10 0.00133168)
(0.113943 -6.54693e-08 0.001361)
(0.113128 -5.83917e-08 0.00139121)
(0.112295 -1.01482e-08 0.00142211)
(0.111445 -1.70736e-08 0.00145379)
(0.110576 -1.20286e-07 0.00148652)
(0.109687 -2.33847e-07 0.00152033)
(0.108779 -2.10246e-07 0.00155493)
(0.10785 7.10242e-09 0.00159003)
(0.106902 2.94875e-07 0.00162571)
(0.105931 4.26283e-07 0.0016624)
(0.104939 2.60434e-07 0.00170047)
(0.103924 -1.20507e-07 0.00173976)
(0.102887 -4.5477e-07 0.00177965)
(0.101826 -4.99412e-07 0.0018196)
(0.100743 -2.22549e-07 0.00185965)
(0.0996368 1.70669e-07 0.00190043)
(0.0985062 3.9965e-07 0.00194259)
(0.0973503 3.23239e-07 0.00198629)
(0.0961686 3.55235e-08 0.00203105)
(0.0949605 -2.24845e-07 0.00207623)
(0.0937261 -2.68322e-07 0.0021216)
(0.092465 -9.25124e-08 0.00216752)
(0.0911771 1.38011e-07 0.00221461)
(0.0898617 2.37313e-07 0.00226322)
(0.0885183 1.41841e-07 0.00231319)
(0.087146 -5.61683e-08 0.0023641)
(0.0857437 -1.96454e-07 0.00241577)
(0.0843106 -1.77987e-07 0.00246841)
(0.082846 -2.42579e-08 0.00252252)
(0.0813494 1.49128e-07 0.00257846)
(0.0798206 2.23025e-07 0.00263624)
(0.0782592 1.56141e-07 0.00269567)
(0.0766641 4.31171e-09 0.00275664)
(0.0750339 -1.35215e-07 0.00281932)
(0.0733668 -1.96068e-07 0.00288412)
(0.0716611 -1.7066e-07 0.00295133)
(0.069915 -9.32207e-08 0.00302084)
(0.0681269 -6.49136e-09 0.00309221)
(0.0662938 6.23286e-08 0.00316491)
(0.0644109 1.02092e-07 0.00324017)
(0.0624725 1.12824e-07 0.00332239)
(0.06046 1.01612e-07 0.00342413)
(0.0583689 4.93133e-08 0.0035731)
(0.056398 -5.20344e-08 0.00368726)
(0.0544755 -1.47342e-07 0.00361852)
(0.0524472 -2.48951e-07 0.0035187)
(0.0502187 -2.91017e-07 0.00343474)
(0.0477307 -1.85007e-07 0.00351199)
(0.045326 3.2416e-08 0.00367497)
(0.043065 1.2714e-07 0.00369827)
(0.0407006 1.43314e-07 0.00370555)
(0.0380627 1.30838e-07 0.00380679)
(0.0356523 -1.97489e-07 0.00387003)
(0.0330623 -2.46418e-07 0.00392136)
(0.0304373 -1.27649e-07 0.00407099)
(0.0279469 -9.85846e-08 0.00417308)
(0.0252503 -1.37472e-07 0.00431255)
(0.0225331 -1.23205e-07 0.00441177)
(0.0198955 -3.75388e-08 0.00449761)
(0.0171316 4.95979e-08 0.00463959)
(0.0143476 1.22148e-07 0.00478049)
(0.0115587 1.7078e-07 0.00487425)
(0.00879425 1.71824e-07 0.00487967)
(0.00610195 1.09122e-07 0.00475496)
(0.00354308 4.6524e-09 0.00444395)
(0.00120015 -9.16125e-08 0.00388315)
(-0.000834691 -1.40523e-07 0.00300356)
(-0.00243977 -1.4484e-07 0.00173548)
(-0.0035087 -1.29802e-07 3.43738e-05)
(-0.00388456 -5.44656e-08 -0.00203351)
(-0.00352491 3.90562e-07 -0.00419731)
(-0.00186872 3.43015e-06 -0.00591647)
(-0.00175657 1.21933e-05 0.0113426)
(-0.0031878 4.45293e-06 0.00799418)
(-0.00338225 3.22267e-06 0.00453913)
(-0.00286659 2.48359e-06 0.00130073)
(-0.00167521 1.69117e-06 -0.00153445)
(7.56004e-05 8.35464e-07 -0.00389366)
(0.00234377 6.26179e-07 -0.00579996)
(0.00507356 1.68393e-06 -0.00734748)
(0.00819996 -1.92408e-06 -0.00864187)
(0.0116829 -2.55222e-06 -0.00968148)
(0.0153618 -4.50326e-06 -0.0104511)
(0.0192194 -9.7224e-06 -0.0110722)
(0.0231759 -6.95844e-06 -0.0114668)
(0.0271468 -3.86999e-06 -0.0116948)
(0.0311511 -2.16567e-06 -0.011774)
(0.0352093 -1.32236e-06 -0.0117746)
(0.0392378 -8.21636e-07 -0.0117699)