/*--------------------------------*- C++ -*----------------------------------*\
  =========                 |
  \\      /  F ield         | OpenFOAM: The Open Source CFD Toolbox
   \\    /   O peration     | Website:  https://openfoam.org
    \\  /    A nd           | Version:  8
     \\/     M anipulation  |
\*---------------------------------------------------------------------------*/
FoamFile
{
    version     2.0;
    format      ascii;
    class       volScalarField;
    location    "5000";
    object      alphat;
}
// * * * * * * * * * * * * * * * * * * * * * * * * * * * * * * * * * * * * * //

dimensions      [1 -1 -1 0 0 0 0];

internalField   nonuniform List<scalar> 
48000
(
5.54635e-05
9.6988e-05
0.000120143
0.000137119
0.000151227
0.00016322
0.000173642
0.000182889
0.000191293
0.000199156
0.000206424
0.000213229
0.000219628
0.000225669
0.00023139
0.00023682
0.000241985
0.000246903
0.000251593
0.000256066
0.000260335
0.000264408
0.000268296
0.000272004
0.000275539
0.000278908
0.000282114
0.000285164
0.000288062
0.000290811
0.000293417
0.000295882
0.000298211
0.000300408
0.000302476
0.000304419
0.00030624
0.000307943
0.000309531
0.000311008
0.000312378
0.000313643
0.000314807
0.000315873
0.000316844
0.000317727
0.000318541
0.000319273
0.000319923
0.000320493
0.000320988
0.00032141
0.000321763
0.00032205
0.000322274
0.000322438
0.000322544
0.000322596
0.000322596
0.000322547
0.000322451
0.00032231
0.000322128
0.000321906
0.000321646
0.00032135
0.000321021
0.00032066
0.000320269
0.000319849
0.000319403
0.000318931
0.000318436
0.000317918
0.000317379
0.00031682
0.000316242
0.000315646
0.000315033
0.000314404
0.000313761
0.000313102
0.000312431
0.000311746
0.000311048
0.000310339
0.000309619
0.000308887
0.000308145
0.000307392
0.00030663
0.000305857
0.000305075
0.000304284
0.000303483
0.000302673
0.000301854
0.000301026
0.000300188
0.000299341
0.000298485
0.000297619
0.000296744
0.000295859
0.000294964
0.000294059
0.000293144
0.000292218
0.000291282
0.000290334
0.000289375
0.000288404
0.000287422
0.000286427
0.000285419
0.000284399
0.000283365
0.000282317
0.000281256
0.00028018
0.000279089
0.000277983
0.000276861
0.000275723
0.000274569
0.000273399
0.000272211
0.000271005
0.000269781
0.000268539
0.000267278
0.000265998
0.000264698
0.000263378
0.000262037
0.000260675
0.000259293
0.000257888
0.000256462
0.000255012
0.00025354
0.000252045
0.000250526
0.000248982
0.000247414
0.000245822
0.000244203
0.000242559
0.000240889
0.000239193
0.000237469
0.000235718
0.000233939
0.000232131
0.000230295
0.00022843
0.000226534
0.000224609
0.000222652
0.000220664
0.000218644
0.000216591
0.000214504
0.000212383
0.000210226
0.000208034
0.000205804
0.000203535
0.000201227
0.000198878
0.000196486
0.000194049
0.000191566
0.000189035
0.000186452
0.000183815
0.00018112
0.000178365
0.000175547
0.000172663
0.000169723
0.000166713
0.000163611
0.000160405
0.000157085
0.000153634
0.000150036
0.000146269
0.000142303
0.000138103
0.000133622
0.000128831
0.000123646
0.000117932
0.000111511
0.000104097
9.5189e-05
8.38177e-05
6.78592e-05
5.47627e-05
5.54638e-05
9.69882e-05
0.000120143
0.000137119
0.000151227
0.00016322
0.000173642
0.00018289
0.000191293
0.000199156
0.000206424
0.000213229
0.000219629
0.000225669
0.00023139
0.00023682
0.000241985
0.000246903
0.000251593
0.000256066
0.000260335
0.000264408
0.000268296
0.000272004
0.000275539
0.000278908
0.000282114
0.000285164
0.000288062
0.000290811
0.000293417
0.000295882
0.000298211
0.000300408
0.000302476
0.000304419
0.00030624
0.000307943
0.000309531
0.000311008
0.000312378
0.000313643
0.000314807
0.000315873
0.000316844
0.000317727
0.000318541
0.000319273
0.000319923
0.000320493
0.000320988
0.00032141
0.000321763
0.00032205
0.000322274
0.000322438
0.000322544
0.000322596
0.000322596
0.000322547
0.000322451
0.00032231
0.000322128
0.000321906
0.000321646
0.00032135
0.000321021
0.00032066
0.000320269
0.000319849
0.000319403
0.000318931
0.000318436
0.000317918
0.000317379
0.00031682
0.000316242
0.000315646
0.000315033
0.000314404
0.000313761
0.000313102
0.00031243
0.000311746
0.000311048
0.000310339
0.000309619
0.000308887
0.000308145
0.000307392
0.00030663
0.000305857
0.000305075
0.000304284
0.000303483
0.000302673
0.000301854
0.000301026
0.000300188
0.000299341
0.000298485
0.000297619
0.000296744
0.000295859
0.000294964
0.000294059
0.000293144
0.000292218
0.000291282
0.000290334
0.000289375
0.000288404
0.000287422
0.000286427
0.000285419
0.000284399
0.000283365
0.000282317
0.000281256
0.00028018
0.000279089
0.000277983
0.000276861
0.000275723
0.000274569
0.000273399
0.000272211
0.000271005
0.000269781
0.000268539
0.000267278
0.000265998
0.000264698
0.000263378
0.000262037
0.000260675
0.000259293
0.000257888
0.000256462
0.000255012
0.00025354
0.000252045
0.000250526
0.000248982
0.000247414
0.000245822
0.000244203
0.000242559
0.000240889
0.000239193
0.000237469
0.000235718
0.000233939
0.000232131
0.000230295
0.00022843
0.000226534
0.000224609
0.000222652
0.000220664
0.000218644
0.000216591
0.000214504
0.000212383
0.000210226
0.000208034
0.000205804
0.000203535
0.000201227
0.000198878
0.000196486
0.000194049
0.000191566
0.000189035
0.000186452
0.000183815
0.00018112
0.000178365
0.000175547
0.000172663
0.000169723
0.000166713
0.000163611
0.000160405
0.000157085
0.000153634
0.000150036
0.000146269
0.000142303
0.000138103
0.000133622
0.000128831
0.000123646
0.000117932
0.000111511
0.000104098
9.51895e-05
8.38191e-05
6.78549e-05
5.47639e-05
8.45771e-05
0.000627766
0.0009931
0.00124789
0.00144091
0.0015966
0.00172984
0.00184711
0.00195196
0.00204645
0.00213298
0.00221277
0.00228682
0.00235587
0.00242053
0.00248125
0.00253842
0.00259234
0.00264329
0.00269148
0.0027371
0.00278032
0.00282129
0.00286012
0.00289695
0.00293185
0.00296494
0.00299629
0.00302598
0.00305409
0.00308067
0.00310579
0.0031295
0.00315187
0.00317295
0.00319277
0.0032114
0.00322887
0.00324523
0.00326052
0.00327477
0.00328802
0.00330032
0.00331166
0.00332207
0.00333144
0.00333972
0.00334711
0.00335375
0.00335968
0.00336496
0.00336961
0.00337367
0.00337716
0.00338011
0.00338255
0.00338449
0.00338596
0.00338697
0.00338755
0.00338772
0.0033875
0.0033869
0.00338594
0.00338464
0.00338301
0.00338106
0.00337882
0.00337629
0.00337348
0.00337042
0.0033671
0.00336355
0.00335977
0.00335577
0.00335157
0.00334716
0.00334256
0.00333777
0.00333281
0.00332768
0.00332238
0.00331692
0.0033113
0.00330554
0.00329963
0.00329358
0.00328739
0.00328107
0.00327461
0.00326803
0.00326131
0.00325447
0.0032475
0.00324041
0.00323319
0.00322585
0.00321839
0.0032108
0.00320308
0.00319524
0.00318727
0.00317918
0.00317095
0.0031626
0.00315411
0.00314548
0.00313672
0.00312782
0.00311877
0.00310958
0.00310024
0.00309075
0.00308111
0.00307131
0.00306135
0.00305122
0.00304092
0.00303046
0.00301982
0.003009
0.002998
0.00298681
0.00297543
0.00296385
0.00295208
0.00294011
0.00292793
0.00291553
0.00290293
0.0028901
0.00287705
0.00286378
0.00285027
0.00283653
0.00282255
0.00280832
0.00279385
0.00277912
0.00276414
0.00274889
0.00273338
0.0027176
0.00270155
0.00268522
0.0026686
0.0026517
0.00263451
0.00261702
0.00259923
0.00258113
0.00256271
0.00254399
0.00252493
0.00250555
0.00248584
0.00246578
0.00244538
0.00242462
0.00240349
0.002382
0.00236012
0.00233785
0.00231518
0.0022921
0.0022686
0.00224465
0.00222025
0.00219538
0.00217001
0.00214414
0.00211773
0.00209075
0.00206318
0.00203498
0.00200611
0.00197652
0.00194615
0.00191492
0.00188271
0.00184934
0.00181477
0.00177897
0.00174185
0.00170326
0.001663
0.00162084
0.00157646
0.00152943
0.00147918
0.00142479
0.00136454
0.0012975
0.00122179
0.00113424
0.00102955
0.000898155
0.000720834
0.000453553
5.94392e-05
8.45773e-05
0.00062777
0.000993106
0.00124789
0.00144092
0.00159661
0.00172985
0.00184711
0.00195197
0.00204646
0.00213298
0.00221277
0.00228682
0.00235588
0.00242053
0.00248126
0.00253842
0.00259235
0.00264329
0.00269148
0.0027371
0.00278033
0.00282129
0.00286013
0.00289695
0.00293186
0.00296495
0.0029963
0.00302599
0.00305409
0.00308067
0.00310579
0.00312951
0.00315188
0.00317295
0.00319278
0.0032114
0.00322888
0.00324523
0.00326052
0.00327477
0.00328803
0.00330032
0.00331167
0.00332207
0.00333145
0.00333972
0.00334712
0.00335375
0.00335968
0.00336496
0.00336961
0.00337367
0.00337717
0.00338012
0.00338255
0.00338449
0.00338596
0.00338697
0.00338756
0.00338773
0.0033875
0.0033869
0.00338594
0.00338464
0.00338301
0.00338106
0.00337882
0.00337629
0.00337349
0.00337042
0.00336711
0.00336356
0.00335978
0.00335578
0.00335157
0.00334716
0.00334256
0.00333778
0.00333281
0.00332768
0.00332238
0.00331692
0.00331131
0.00330554
0.00329964
0.00329359
0.0032874
0.00328107
0.00327462
0.00326803
0.00326132
0.00325447
0.00324751
0.00324041
0.00323319
0.00322585
0.00321839
0.0032108
0.00320308
0.00319524
0.00318728
0.00317918
0.00317095
0.0031626
0.00315411
0.00314548
0.00313672
0.00312782
0.00311877
0.00310958
0.00310024
0.00309076
0.00308111
0.00307131
0.00306135
0.00305122
0.00304093
0.00303046
0.00301982
0.003009
0.002998
0.00298681
0.00297543
0.00296386
0.00295208
0.00294011
0.00292793
0.00291554
0.00290293
0.0028901
0.00287706
0.00286378
0.00285027
0.00283653
0.00282255
0.00280832
0.00279385
0.00277912
0.00276414
0.00274889
0.00273338
0.00271761
0.00270155
0.00268522
0.00266861
0.00265171
0.00263451
0.00261702
0.00259923
0.00258113
0.00256272
0.00254399
0.00252494
0.00250556
0.00248584
0.00246578
0.00244538
0.00242462
0.00240349
0.002382
0.00236012
0.00233786
0.00231519
0.00229211
0.0022686
0.00224465
0.00222025
0.00219538
0.00217002
0.00214414
0.00211773
0.00209075
0.00206318
0.00203498
0.00200611
0.00197653
0.00194616
0.00191492
0.00188271
0.00184934
0.00181477
0.00177898
0.00174186
0.00170326
0.001663
0.00162084
0.00157646
0.00152943
0.00147918
0.00142479
0.00136454
0.0012975
0.00122179
0.00113424
0.00102955
0.000898147
0.000720809
0.000453562
5.94486e-05
0.000104119
0.000953168
0.00169636
0.00225347
0.00269164
0.00305381
0.00336407
0.00363654
0.00387972
0.0040992
0.00429919
0.00448272
0.00465208
0.00480907
0.00495509
0.00509132
0.00521869
0.00533802
0.00545
0.00555521
0.00565417
0.00574733
0.0058351
0.00591784
0.00599587
0.00606948
0.00613894
0.00620449
0.00626636
0.00632475
0.00637984
0.00643181
0.00648083
0.00652704
0.00657058
0.00661158
0.00665017
0.00668645
0.00672053
0.00675252
0.00678249
0.00681054
0.00683673
0.00686112
0.00688373
0.00690454
0.00692352
0.0069409
0.00695683
0.00697142
0.00698474
0.00699688
0.00700789
0.00701783
0.00702675
0.00703468
0.00704168
0.00704778
0.00705303
0.00705745
0.00706108
0.00706396
0.0070661
0.00706755
0.00706833
0.00706847
0.00706799
0.00706691
0.00706525
0.00706305
0.00706032
0.00705707
0.00705333
0.00704911
0.00704443
0.00703931
0.00703376
0.00702779
0.00702142
0.00701465
0.0070075
0.00699998
0.0069921
0.00698386
0.00697528
0.00696636
0.0069571
0.00694752
0.00693761
0.00692739
0.00691685
0.006906
0.00689485
0.00688338
0.00687161
0.00685953
0.00684714
0.00683445
0.00682145
0.00680815
0.00679453
0.0067806
0.00676635
0.00675178
0.0067369
0.00672168
0.00670614
0.00669025
0.00667403
0.00665746
0.00664054
0.00662327
0.00660563
0.00658762
0.00656923
0.00655046
0.0065313
0.00651173
0.00649177
0.00647139
0.00645059
0.00642936
0.00640769
0.00638558
0.00636301
0.00633998
0.00631647
0.00629249
0.00626801
0.00624304
0.00621756
0.00619156
0.00616504
0.00613797
0.00611037
0.0060822
0.00605347
0.00602417
0.00599427
0.00596378
0.00593269
0.00590097
0.00586863
0.00583565
0.00580201
0.00576771
0.00573274
0.00569707
0.00566071
0.00562363
0.00558582
0.00554727
0.00550796
0.00546788
0.00542701
0.00538533
0.00534282
0.00529946
0.00525523
0.00521012
0.00516409
0.00511711
0.00506917
0.00502023
0.00497025
0.00491921
0.00486705
0.00481374
0.00475922
0.00470345
0.00464636
0.00458788
0.00452795
0.00446646
0.00440333
0.00433843
0.00427163
0.00420277
0.00413165
0.00405804
0.00398165
0.00390225
0.00381958
0.00373327
0.00364286
0.00354776
0.00344728
0.00334047
0.00322614
0.00310266
0.00296779
0.00281839
0.00265066
0.00245978
0.00223801
0.00197349
0.0016474
0.00122922
0.000674517
7.36345e-05
0.000104119
0.000953173
0.00169637
0.00225348
0.00269165
0.00305382
0.00336408
0.00363655
0.00387973
0.00409921
0.0042992
0.00448273
0.00465209
0.00480908
0.0049551
0.00509132
0.0052187
0.00533803
0.00545001
0.00555522
0.00565418
0.00574734
0.00583511
0.00591785
0.00599587
0.00606949
0.00613895
0.0062045
0.00626637
0.00632475
0.00637985
0.00643182
0.00648084
0.00652704
0.00657059
0.00661159
0.00665017
0.00668645
0.00672054
0.00675252
0.00678249
0.00681054
0.00683673
0.00686112
0.00688373
0.00690454
0.00692352
0.00694091
0.00695684
0.00697142
0.00698475
0.00699689
0.0070079
0.00701783
0.00702675
0.00703468
0.00704168
0.00704779
0.00705303
0.00705745
0.00706108
0.00706396
0.00706611
0.00706756
0.00706834
0.00706847
0.00706799
0.00706691
0.00706526
0.00706305
0.00706032
0.00705707
0.00705333
0.00704911
0.00704444
0.00703931
0.00703376
0.00702779
0.00702142
0.00701465
0.0070075
0.00699998
0.0069921
0.00698386
0.00697528
0.00696636
0.0069571
0.00694752
0.00693762
0.00692739
0.00691686
0.00690601
0.00689485
0.00688338
0.00687161
0.00685953
0.00684714
0.00683445
0.00682145
0.00680815
0.00679453
0.0067806
0.00676635
0.00675179
0.0067369
0.00672168
0.00670614
0.00669025
0.00667403
0.00665746
0.00664055
0.00662327
0.00660563
0.00658762
0.00656923
0.00655046
0.0065313
0.00651174
0.00649177
0.00647139
0.00645059
0.00642936
0.00640769
0.00638558
0.00636301
0.00633998
0.00631647
0.00629249
0.00626801
0.00624304
0.00621756
0.00619156
0.00616504
0.00613797
0.00611037
0.0060822
0.00605347
0.00602417
0.00599427
0.00596378
0.00593269
0.00590097
0.00586863
0.00583565
0.00580201
0.00576771
0.00573274
0.00569707
0.00566071
0.00562363
0.00558582
0.00554727
0.00550796
0.00546788
0.00542701
0.00538533
0.00534282
0.00529946
0.00525523
0.00521012
0.00516409
0.00511711
0.00506917
0.00502023
0.00497025
0.00491921
0.00486705
0.00481374
0.00475922
0.00470345
0.00464636
0.00458788
0.00452795
0.00446646
0.00440333
0.00433843
0.00427163
0.00420277
0.00413165
0.00405804
0.00398165
0.00390225
0.00381958
0.00373327
0.00364286
0.00354776
0.00344728
0.00334047
0.00322614
0.00310266
0.00296779
0.00281839
0.00265066
0.00245978
0.00223801
0.00197349
0.0016474
0.00122922
0.000674532
7.36341e-05
0.000117803
0.00115459
0.00217419
0.00298489
0.00364596
0.00420298
0.0046847
0.00510954
0.00548969
0.00583351
0.00614708
0.00643492
0.00670048
0.00694646
0.00717505
0.00738802
0.00758687
0.00777284
0.00794702
0.00811037
0.00826369
0.00840774
0.00854317
0.00867058
0.00879051
0.00890343
0.00900982
0.00911006
0.00920455
0.00929363
0.00937763
0.00945683
0.00953153
0.00960196
0.00966838
0.00973099
0.00979001
0.00984562
0.009898
0.00994731
0.00999371
0.0100373
0.0100783
0.0101166
0.0101525
0.0101859
0.010217
0.0102458
0.0102727
0.0102976
0.0103207
0.0103421
0.010362
0.0103803
0.0103972
0.0104127
0.0104268
0.0104398
0.0104514
0.010462
0.0104714
0.0104797
0.010487
0.0104933
0.0104987
0.0105031
0.0105066
0.0105093
0.0105112
0.0105122
0.0105125
0.010512
0.0105108
0.0105089
0.0105062
0.010503
0.010499
0.0104945
0.0104893
0.0104835
0.0104771
0.0104702
0.0104627
0.0104546
0.010446
0.0104368
0.0104272
0.0104169
0.0104062
0.010395
0.0103832
0.010371
0.0103582
0.0103449
0.0103312
0.0103169
0.0103021
0.0102868
0.010271
0.0102547
0.0102379
0.0102206
0.0102028
0.0101844
0.0101655
0.010146
0.010126
0.0101055
0.0100844
0.0100627
0.0100404
0.0100176
0.00999417
0.00997012
0.00994547
0.00992018
0.00989426
0.00986769
0.00984045
0.00981255
0.00978396
0.00975467
0.00972468
0.00969396
0.0096625
0.0096303
0.00959733
0.00956358
0.00952904
0.0094937
0.00945753
0.00942052
0.00938267
0.00934394
0.00930434
0.00926383
0.0092224
0.00918004
0.00913673
0.00909245
0.00904718
0.00900091
0.00895361
0.00890527
0.00885586
0.00880536
0.00875376
0.00870102
0.00864713
0.00859207
0.00853579
0.00847829
0.00841953
0.00835948
0.00829811
0.00823539
0.00817128
0.00810574
0.00803875
0.00797025
0.0079002
0.00782854
0.00775524
0.00768023
0.00760345
0.00752483
0.00744429
0.00736177
0.00727716
0.00719037
0.00710128
0.00700978
0.00691572
0.00681895
0.00671928
0.00661651
0.00651039
0.00640065
0.00628695
0.00616892
0.00604613
0.00591808
0.00578424
0.00564392
0.00549627
0.00534026
0.00517459
0.00499762
0.00480733
0.00460102
0.00437521
0.00412534
0.00384539
0.00352792
0.00316217
0.00273292
0.0022187
0.00159027
0.000820844
8.38847e-05
0.000117803
0.0011546
0.0021742
0.0029849
0.00364598
0.004203
0.00468471
0.00510956
0.0054897
0.00583352
0.0061471
0.00643493
0.00670049
0.00694648
0.00717506
0.00738804
0.00758688
0.00777285
0.00794704
0.00811038
0.0082637
0.00840775
0.00854319
0.00867059
0.00879052
0.00890344
0.00900982
0.00911007
0.00920456
0.00929364
0.00937763
0.00945684
0.00953153
0.00960197
0.00966838
0.009731
0.00979001
0.00984563
0.00989801
0.00994732
0.00999371
0.0100373
0.0100783
0.0101166
0.0101525
0.0101859
0.010217
0.0102458
0.0102727
0.0102976
0.0103207
0.0103422
0.010362
0.0103803
0.0103972
0.0104127
0.0104269
0.0104398
0.0104514
0.010462
0.0104714
0.0104797
0.010487
0.0104933
0.0104987
0.0105031
0.0105067
0.0105093
0.0105112
0.0105122
0.0105125
0.010512
0.0105108
0.0105089
0.0105062
0.010503
0.010499
0.0104945
0.0104893
0.0104835
0.0104771
0.0104702
0.0104627
0.0104546
0.010446
0.0104368
0.0104272
0.0104169
0.0104062
0.010395
0.0103832
0.010371
0.0103582
0.0103449
0.0103312
0.0103169
0.0103021
0.0102868
0.010271
0.0102547
0.0102379
0.0102206
0.0102028
0.0101844
0.0101655
0.010146
0.010126
0.0101055
0.0100844
0.0100627
0.0100404
0.0100176
0.00999416
0.00997012
0.00994546
0.00992018
0.00989426
0.00986768
0.00984045
0.00981255
0.00978396
0.00975467
0.00972468
0.00969396
0.0096625
0.0096303
0.00959733
0.00956358
0.00952904
0.00949369
0.00945753
0.00942052
0.00938267
0.00934394
0.00930433
0.00926383
0.0092224
0.00918004
0.00913673
0.00909245
0.00904718
0.00900091
0.00895361
0.00890527
0.00885586
0.00880536
0.00875376
0.00870102
0.00864713
0.00859206
0.00853579
0.00847829
0.00841953
0.00835948
0.00829811
0.00823538
0.00817128
0.00810574
0.00803875
0.00797025
0.00790019
0.00782854
0.00775524
0.00768023
0.00760345
0.00752482
0.00744429
0.00736177
0.00727716
0.00719037
0.00710128
0.00700978
0.00691572
0.00681895
0.00671928
0.0066165
0.00651039
0.00640064
0.00628695
0.00616892
0.00604612
0.00591808
0.00578424
0.00564391
0.00549627
0.00534026
0.00517459
0.00499762
0.00480733
0.00460102
0.00437521
0.00412534
0.00384538
0.00352792
0.00316217
0.00273292
0.0022187
0.00159027
0.000820846
8.38845e-05
0.000128955
0.00129126
0.00251694
0.00353325
0.00438306
0.00510977
0.00574392
0.00630641
0.00681173
0.0072702
0.00768938
0.00807495
0.00843127
0.0087618
0.00906931
0.00935609
0.00962406
0.00987483
0.0101098
0.0103302
0.0105372
0.0107316
0.0109144
0.0110863
0.0112482
0.0114005
0.011544
0.0116793
0.0118067
0.0119269
0.0120403
0.0121472
0.0122481
0.0123433
0.0124331
0.0125179
0.012598
0.0126735
0.0127448
0.0128122
0.0128757
0.0129355
0.012992
0.0130451
0.0130951
0.0131421
0.0131861
0.0132274
0.0132661
0.0133024
0.0133364
0.0133683
0.0133982
0.0134261
0.0134521
0.0134764
0.013499
0.0135201
0.0135396
0.0135576
0.0135742
0.0135894
0.0136033
0.013616
0.0136274
0.0136377
0.0136468
0.0136548
0.0136618
0.0136677
0.0136727
0.0136766
0.0136796
0.0136817
0.0136829
0.0136833
0.0136828
0.0136814
0.0136792
0.0136762
0.0136725
0.013668
0.0136627
0.0136566
0.0136499
0.0136424
0.0136341
0.0136252
0.0136155
0.0136052
0.0135941
0.0135824
0.0135699
0.0135568
0.0135429
0.0135284
0.0135132
0.0134972
0.0134806
0.0134632
0.0134451
0.0134263
0.0134068
0.0133865
0.0133655
0.0133437
0.0133212
0.0132979
0.0132738
0.0132489
0.0132232
0.0131967
0.0131693
0.0131411
0.0131121
0.0130821
0.0130513
0.0130196
0.0129869
0.0129533
0.0129188
0.0128833
0.0128468
0.0128093
0.0127707
0.0127312
0.0126905
0.0126488
0.012606
0.012562
0.012517
0.0124707
0.0124232
0.0123746
0.0123247
0.0122736
0.0122211
0.0121674
0.0121123
0.0120559
0.0119981
0.0119389
0.0118782
0.0118161
0.0117525
0.0116873
0.0116206
0.0115523
0.0114824
0.0114107
0.0113374
0.0112623
0.0111855
0.0111068
0.0110262
0.0109437
0.0108592
0.0107726
0.0106839
0.0105931
0.0105001
0.0104047
0.0103069
0.0102067
0.0101039
0.0099984
0.00989013
0.00977895
0.00966473
0.00954732
0.00942654
0.00930221
0.00917413
0.00904204
0.0089057
0.00876478
0.00861893
0.00846775
0.00831076
0.00814742
0.00797711
0.0077991
0.00761254
0.00741642
0.00720951
0.0069903
0.00675696
0.00650721
0.00623821
0.00594637
0.00562717
0.00527491
0.00488218
0.00443967
0.0039353
0.00335295
0.00267192
0.00186821
0.000932289
9.20388e-05
0.000128956
0.00129126
0.00251695
0.00353327
0.00438307
0.00510979
0.00574394
0.00630642
0.00681175
0.00727022
0.0076894
0.00807496
0.00843129
0.00876181
0.00906933
0.00935611
0.00962407
0.00987484
0.0101098
0.0103302
0.0105372
0.0107316
0.0109144
0.0110863
0.0112482
0.0114005
0.0115441
0.0116793
0.0118068
0.0119269
0.0120403
0.0121472
0.0122481
0.0123433
0.0124331
0.0125179
0.012598
0.0126735
0.0127449
0.0128122
0.0128757
0.0129356
0.012992
0.0130452
0.0130952
0.0131421
0.0131861
0.0132274
0.0132661
0.0133024
0.0133364
0.0133683
0.0133982
0.0134261
0.0134521
0.0134764
0.013499
0.0135201
0.0135396
0.0135576
0.0135742
0.0135894
0.0136033
0.013616
0.0136274
0.0136377
0.0136468
0.0136548
0.0136618
0.0136677
0.0136727
0.0136766
0.0136796
0.0136817
0.0136829
0.0136833
0.0136828
0.0136814
0.0136792
0.0136762
0.0136725
0.013668
0.0136627
0.0136566
0.0136499
0.0136424
0.0136341
0.0136252
0.0136155
0.0136052
0.0135941
0.0135824
0.0135699
0.0135568
0.0135429
0.0135284
0.0135132
0.0134972
0.0134806
0.0134632
0.0134451
0.0134263
0.0134068
0.0133865
0.0133655
0.0133437
0.0133212
0.0132979
0.0132738
0.0132489
0.0132232
0.0131967
0.0131693
0.0131411
0.0131121
0.0130821
0.0130513
0.0130196
0.0129869
0.0129533
0.0129188
0.0128833
0.0128468
0.0128093
0.0127707
0.0127312
0.0126905
0.0126488
0.012606
0.012562
0.0125169
0.0124707
0.0124232
0.0123746
0.0123247
0.0122736
0.0122211
0.0121674
0.0121123
0.0120559
0.0119981
0.0119389
0.0118782
0.0118161
0.0117525
0.0116873
0.0116206
0.0115523
0.0114824
0.0114107
0.0113374
0.0112623
0.0111855
0.0111068
0.0110262
0.0109437
0.0108592
0.0107726
0.0106839
0.0105931
0.0105001
0.0104047
0.0103069
0.0102067
0.0101039
0.0099984
0.00989013
0.00977895
0.00966473
0.00954731
0.00942654
0.00930221
0.00917412
0.00904204
0.00890569
0.00876477
0.00861893
0.00846774
0.00831076
0.00814742
0.00797711
0.00779909
0.00761254
0.00741642
0.00720951
0.0069903
0.00675696
0.00650721
0.0062382
0.00594636
0.00562717
0.00527491
0.00488218
0.00443967
0.0039353
0.00335295
0.00267193
0.00186821
0.000932289
9.20387e-05
0.00013838
0.00139909
0.0027824
0.00396404
0.00497055
0.00584153
0.00660759
0.00729087
0.00790731
0.00846853
0.00898315
0.00945775
0.0098974
0.0103061
0.0106872
0.0110432
0.0113764
0.0116888
0.0119819
0.0122572
0.012516
0.0127595
0.0129886
0.0132043
0.0134075
0.013599
0.0137795
0.0139497
0.0141103
0.0142618
0.0144048
0.0145398
0.0146672
0.0147877
0.0149014
0.015009
0.0151106
0.0152067
0.0152976
0.0153835
0.0154647
0.0155415
0.0156142
0.0156828
0.0157476
0.0158087
0.0158664
0.0159208
0.0159722
0.0160206
0.0160662
0.0161093
0.0161499
0.0161882
0.0162243
0.0162582
0.0162902
0.0163201
0.0163483
0.0163747
0.0163993
0.0164224
0.0164438
0.0164638
0.0164823
0.0164994
0.0165151
0.0165295
0.0165426
0.0165544
0.0165651
0.0165746
0.0165829
0.0165901
0.0165963
0.0166013
0.0166054
0.0166084
0.0166104
0.0166114
0.0166115
0.0166106
0.0166087
0.016606
0.0166023
0.0165977
0.0165922
0.0165858
0.0165785
0.0165704
0.0165613
0.0165514
0.0165406
0.0165289
0.0165163
0.0165028
0.0164885
0.0164732
0.016457
0.01644
0.016422
0.0164031
0.0163832
0.0163624
0.0163407
0.016318
0.0162943
0.0162696
0.0162439
0.0162172
0.0161895
0.0161607
0.0161308
0.0160999
0.0160678
0.0160346
0.0160003
0.0159648
0.0159282
0.0158903
0.0158512
0.0158109
0.0157693
0.0157264
0.0156822
0.0156366
0.0155897
0.0155414
0.0154917
0.0154406
0.0153879
0.0153338
0.0152781
0.0152209
0.0151621
0.0151017
0.0150396
0.0149759
0.0149104
0.0148432
0.0147742
0.0147033
0.0146306
0.014556
0.0144795
0.014401
0.0143204
0.0142377
0.014153
0.014066
0.0139768
0.0138854
0.0137916
0.0136954
0.0135967
0.0134955
0.0133917
0.0132852
0.0131759
0.0130638
0.0129487
0.0128305
0.0127093
0.0125847
0.0124567
0.0123252
0.01219
0.0120509
0.0119078
0.0117604
0.0116086
0.011452
0.0112904
0.0111235
0.0109509
0.0107722
0.0105869
0.0103946
0.0101945
0.00998591
0.00976809
0.00954005
0.00930066
0.00904857
0.0087822
0.00849962
0.0081985
0.00787599
0.00752861
0.00715209
0.00674111
0.00628909
0.00578777
0.00522694
0.00459412
0.00387356
0.00304672
0.00209528
0.00102374
9.89176e-05
0.00013838
0.0013991
0.00278241
0.00396405
0.00497056
0.00584155
0.00660761
0.0072909
0.00790733
0.00846855
0.00898317
0.00945777
0.00989742
0.0103061
0.0106872
0.0110432
0.0113764
0.0116888
0.0119819
0.0122572
0.012516
0.0127595
0.0129886
0.0132043
0.0134075
0.013599
0.0137795
0.0139498
0.0141103
0.0142618
0.0144048
0.0145398
0.0146673
0.0147877
0.0149015
0.015009
0.0151106
0.0152067
0.0152976
0.0153835
0.0154647
0.0155415
0.0156142
0.0156828
0.0157476
0.0158087
0.0158664
0.0159208
0.0159722
0.0160206
0.0160663
0.0161093
0.0161499
0.0161882
0.0162243
0.0162582
0.0162902
0.0163201
0.0163483
0.0163747
0.0163993
0.0164224
0.0164438
0.0164638
0.0164823
0.0164994
0.0165151
0.0165295
0.0165426
0.0165544
0.0165651
0.0165746
0.0165829
0.0165901
0.0165963
0.0166013
0.0166054
0.0166084
0.0166104
0.0166114
0.0166115
0.0166106
0.0166087
0.016606
0.0166023
0.0165977
0.0165922
0.0165858
0.0165785
0.0165704
0.0165613
0.0165514
0.0165406
0.0165289
0.0165163
0.0165028
0.0164885
0.0164732
0.016457
0.01644
0.016422
0.0164031
0.0163832
0.0163624
0.0163407
0.016318
0.0162943
0.0162696
0.0162439
0.0162172
0.0161895
0.0161607
0.0161308
0.0160999
0.0160678
0.0160346
0.0160003
0.0159648
0.0159282
0.0158903
0.0158512
0.0158109
0.0157693
0.0157264
0.0156822
0.0156366
0.0155897
0.0155414
0.0154917
0.0154406
0.0153879
0.0153338
0.0152781
0.0152209
0.0151621
0.0151017
0.0150396
0.0149759
0.0149104
0.0148432
0.0147742
0.0147033
0.0146306
0.014556
0.0144795
0.014401
0.0143204
0.0142377
0.014153
0.014066
0.0139768
0.0138854
0.0137916
0.0136954
0.0135967
0.0134955
0.0133917
0.0132852
0.0131759
0.0130638
0.0129487
0.0128305
0.0127093
0.0125847
0.0124567
0.0123252
0.01219
0.0120509
0.0119078
0.0117604
0.0116086
0.011452
0.0112904
0.0111235
0.0109509
0.0107722
0.0105869
0.0103946
0.0101945
0.0099859
0.00976809
0.00954005
0.00930065
0.00904857
0.0087822
0.00849962
0.00819849
0.00787599
0.00752861
0.00715209
0.00674111
0.00628909
0.00578777
0.00522694
0.00459412
0.00387356
0.00304672
0.00209528
0.00102373
9.89175e-05
0.000146709
0.0014912
0.00300105
0.00431728
0.00545395
0.0064469
0.00732613
0.00811429
0.00882816
0.00948026
0.01008
0.0106346
0.0111497
0.0116297
0.0120782
0.0124982
0.0128921
0.0132622
0.0136101
0.0139375
0.0142458
0.0145362
0.01481
0.0150682
0.0153118
0.0155416
0.0157585
0.0159634
0.0161568
0.0163395
0.0165121
0.0166753
0.0168296
0.0169755
0.0171135
0.0172441
0.0173678
0.0174848
0.0175957
0.0177007
0.0178002
0.0178944
0.0179837
0.0180684
0.0181485
0.0182244
0.0182963
0.0183644
0.0184289
0.0184899
0.0185478
0.0186026
0.0186546
0.0187038
0.0187505
0.0187946
0.0188364
0.018876
0.0189134
0.0189487
0.0189821
0.0190135
0.0190432
0.019071
0.0190972
0.0191217
0.0191447
0.0191661
0.019186
0.0192045
0.0192216
0.0192373
0.0192516
0.0192647
0.0192765
0.0192871
0.0192964
0.0193045
0.0193115
0.0193173
0.019322
0.0193255
0.019328
0.0193293
0.0193296
0.0193287
0.0193268
0.0193239
0.0193198
0.0193148
0.0193086
0.0193014
0.0192931
0.0192838
0.0192734
0.019262
0.0192494
0.0192358
0.0192211
0.0192053
0.0191884
0.0191704
0.0191512
0.0191309
0.0191094
0.0190868
0.0190629
0.0190379
0.0190116
0.0189841
0.0189554
0.0189253
0.018894
0.0188613
0.0188273
0.018792
0.0187552
0.018717
0.0186774
0.0186363
0.0185938
0.0185497
0.0185041
0.0184569
0.018408
0.0183576
0.0183055
0.0182517
0.0181961
0.0181388
0.0180798
0.0180188
0.017956
0.0178913
0.0178247
0.0177561
0.0176854
0.0176127
0.0175379
0.0174609
0.0173817
0.0173003
0.0172166
0.0171306
0.0170421
0.0169512
0.0168578
0.0167619
0.0166633
0.016562
0.016458
0.0163511
0.0162414
0.0161286
0.0160128
0.0158939
0.0157717
0.0156462
0.0155172
0.0153847
0.0152485
0.0151085
0.0149645
0.0148165
0.0146642
0.0145075
0.0143462
0.0141801
0.0140089
0.0138324
0.0136502
0.0134622
0.0132679
0.0130669
0.0128587
0.012643
0.012419
0.0121861
0.0119436
0.0116905
0.0114259
0.0111486
0.0108571
0.0105499
0.0102251
0.00988023
0.00951266
0.00911906
0.00869544
0.00823696
0.00773776
0.0071907
0.00658711
0.00591646
0.00516622
0.00432165
0.00336679
0.00228843
0.00110213
0.000104933
0.000146709
0.0014912
0.00300106
0.00431729
0.00545397
0.00644692
0.00732615
0.00811431
0.00882818
0.00948029
0.01008
0.0106346
0.0111497
0.0116297
0.0120782
0.0124982
0.0128922
0.0132622
0.0136101
0.0139375
0.0142458
0.0145363
0.0148101
0.0150683
0.0153118
0.0155416
0.0157586
0.0159634
0.0161568
0.0163395
0.0165121
0.0166753
0.0168296
0.0169755
0.0171135
0.0172442
0.0173678
0.0174849
0.0175957
0.0177007
0.0178002
0.0178945
0.0179838
0.0180684
0.0181485
0.0182244
0.0182963
0.0183644
0.0184289
0.0184899
0.0185478
0.0186027
0.0186546
0.0187038
0.0187505
0.0187946
0.0188364
0.018876
0.0189134
0.0189487
0.0189821
0.0190136
0.0190432
0.0190711
0.0190972
0.0191218
0.0191447
0.0191661
0.019186
0.0192045
0.0192216
0.0192373
0.0192516
0.0192647
0.0192765
0.0192871
0.0192964
0.0193045
0.0193115
0.0193173
0.019322
0.0193255
0.019328
0.0193293
0.0193296
0.0193287
0.0193268
0.0193239
0.0193198
0.0193147
0.0193086
0.0193014
0.0192931
0.0192838
0.0192734
0.019262
0.0192494
0.0192358
0.0192211
0.0192053
0.0191884
0.0191704
0.0191512
0.0191309
0.0191094
0.0190868
0.0190629
0.0190379
0.0190116
0.0189841
0.0189554
0.0189253
0.018894
0.0188613
0.0188273
0.018792
0.0187552
0.018717
0.0186774
0.0186363
0.0185938
0.0185497
0.0185041
0.0184569
0.018408
0.0183576
0.0183055
0.0182517
0.0181961
0.0181388
0.0180798
0.0180188
0.017956
0.0178913
0.0178247
0.0177561
0.0176854
0.0176127
0.0175379
0.0174609
0.0173817
0.0173003
0.0172166
0.0171306
0.0170421
0.0169512