/*--------------------------------*- C++ -*----------------------------------*\
  =========                 |
  \\      /  F ield         | OpenFOAM: The Open Source CFD Toolbox
   \\    /   O peration     | Website:  https://openfoam.org
    \\  /    A nd           | Version:  8
     \\/     M anipulation  |
\*---------------------------------------------------------------------------*/
FoamFile
{
    version     2.0;
    format      ascii;
    class       volScalarField;
    location    "5000";
    object      epsilon;
}
// * * * * * * * * * * * * * * * * * * * * * * * * * * * * * * * * * * * * * //

dimensions      [0 2 -3 0 0 0 0];

internalField   nonuniform List<scalar> 
48000
(
1.82711
7.1808
13.6495
20.2914
27.2212
34.2247
41.2085
48.1489
55.096
62.1729
69.2309
76.3064
83.3848
90.4562
97.5108
104.538
111.528
118.467
125.346
132.151
138.871
145.492
152.004
158.393
164.65
170.762
176.719
182.512
188.131
193.569
198.818
203.872
208.724
213.37
217.806
222.029
226.036
229.827
233.401
236.758
239.898
242.824
245.536
248.038
250.332
252.431
254.376
256.133
257.699
259.079
260.28
261.308
262.169
262.87
263.418
263.819
264.08
264.207
264.206
264.085
263.849
263.504
263.057
262.512
261.877
261.155
260.353
259.475
258.526
257.512
256.435
255.301
254.113
252.875
251.591
250.264
248.897
247.492
246.054
244.584
243.085
241.558
240.007
238.432
236.836
235.22
233.585
231.934
230.266
228.583
226.886
225.176
223.454
221.719
219.974
218.218
216.451
214.674
212.887
211.091
209.285
207.469
205.644
203.81
201.967
200.114
198.251
196.379
194.497
192.605
190.703
188.79
186.867
184.933
182.989
181.033
179.066
177.088
175.097
173.096
171.082
169.056
167.018
164.967
162.905
160.83
158.742
156.642
154.53
152.405
150.268
148.119
145.958
143.785
141.601
139.405
137.198
134.981
132.753
130.515
128.268
126.012
123.747
121.474
119.193
116.906
114.613
112.313
110.009
107.701
105.389
103.075
100.759
98.4413
96.1236
93.8065
91.4908
89.1773
86.867
84.5606
82.2592
79.9635
77.6743
75.3927
73.1194
70.8552
68.6009
66.3574
64.1253
61.9054
59.6985
57.505
55.3257
53.1609
51.0114
48.8774
46.7593
44.6577
42.5737
40.5097
38.4758
36.4648
34.4666
32.4802
30.5046
28.5382
26.5798
24.6272
22.6779
20.7286
18.7757
16.8276
14.8765
12.9078
10.9122
8.87751
6.78716
4.61497
2.30631
0.749242
1.82713
7.18083
13.6495
20.2915
27.2213
34.2248
41.2086
48.149
55.0961
62.173
69.231
76.3065
83.3849
90.4563
97.5109
104.538
111.528
118.468
125.346
132.151
138.871
145.492
152.004
158.393
164.65
170.762
176.719
182.512
188.131
193.569
198.818
203.872
208.724
213.37
217.806
222.029
226.036
229.827
233.401
236.758
239.898
242.824
245.536
248.038
250.332
252.431
254.376
256.133
257.699
259.079
260.28
261.308
262.169
262.87
263.418
263.819
264.08
264.207
264.206
264.085
263.849
263.504
263.057
262.512
261.877
261.155
260.353
259.475
258.526
257.512
256.435
255.301
254.113
252.875
251.591
250.264
248.897
247.492
246.054
244.584
243.085
241.558
240.007
238.432
236.836
235.22
233.585
231.934
230.266
228.583
226.886
225.176
223.454
221.719
219.974
218.217
216.451
214.674
212.887
211.091
209.285
207.469
205.644
203.81
201.967
200.114
198.251
196.379
194.497
192.605
190.703
188.79
186.867
184.933
182.989
181.033
179.066
177.088
175.097
173.096
171.082
169.056
167.018
164.967
162.905
160.83
158.742
156.642
154.53
152.405
150.268
148.119
145.958
143.785
141.601
139.405
137.198
134.981
132.753
130.515
128.268
126.012
123.747
121.474
119.193
116.906
114.613
112.313
110.009
107.701
105.389
103.075
100.759
98.4413
96.1236
93.8065
91.4908
89.1773
86.867
84.5606
82.2592
79.9635
77.6743
75.3927
73.1194
70.8552
68.6009
66.3574
64.1253
61.9054
59.6985
57.505
55.3257
53.161
51.0114
48.8774
46.7593
44.6577
42.5737
40.5097
38.4758
36.4648
34.4666
32.4802
30.5046
28.5382
26.5798
24.6272
22.6779
20.7286
18.7757
16.8276
14.8765
12.9078
10.9122
8.87752
6.78717
4.61496
2.30634
0.749158
8.62179
7.3506
9.38297
11.8622
14.5485
17.3448
20.2073
23.0946
26.0099
28.9647
31.9463
34.9532
37.982
41.0287
44.0888
47.1577
50.2302
53.3006
56.363
59.4111
62.4384
65.4383
68.4042
71.3294
74.2073
77.0317
79.7961
82.4948
85.1222
87.6729
90.1422
92.5256
94.8193
97.0196
99.1237
101.129
103.033
104.835
106.534
108.128
109.619
111.005
112.288
113.468
114.549
115.536
116.437
117.246
117.963
118.59
119.128
119.581
119.951
120.241
120.456
120.597
120.669
120.675
120.619
120.502
120.33
120.104
119.829
119.506
119.14
118.732
118.286
117.805
117.289
116.743
116.169
115.568
114.942
114.294
113.626
112.938
112.234
111.513
110.778
110.03
109.27
108.499
107.718
106.929
106.131
105.327
104.515
103.698
102.876
102.049
101.217
100.381
99.5423
98.6998
97.8543
97.0059
96.1548
95.3012
94.4452
93.5868
92.7262
91.8633
90.9981
90.1307
89.261
88.3889
87.5144
86.6375
85.758
84.8758
83.9909
83.1032
82.2125
81.3187
80.4218
79.5217
78.6181
77.7111
76.8005
75.8863
74.9683
74.0465
73.1208
72.1912
71.2575
70.3199
69.3781
68.4323
67.4824
66.5284
65.5704
64.6084
63.6424
62.6725
61.6988
60.7214
59.7404
58.7559
57.7681
56.7771
55.7832
54.7865
53.7872
52.7855
51.7817
50.7761
49.7688
48.7602
47.7505
46.7401
45.7293
44.7184
43.7077
42.6976
41.6884
40.6805
39.6742
38.6699
37.668
36.6688
35.6727
34.68
33.6912
32.7065
31.7263
30.751
29.7809
28.8164
27.8576
26.9049
25.9587
25.019
24.0863
23.1606
22.2423
21.3314
20.4281
19.5327
18.6455
17.7672
16.8984
16.0383
15.1848
14.3384
13.4988
12.6652
11.8374
11.0147
10.1968
9.38309
8.57396
7.77185
6.97485
6.18089
5.38972
4.60334
3.82916
3.09098
2.47913
2.8485
8.62185
7.35059
9.38294
11.8622
14.5485
17.3447
20.2073
23.0946
26.0099
28.9646
31.9462
34.9531
37.9819
41.0286
44.0887
47.1576
50.2301
53.3005
56.3629
59.411
62.4383
65.4382
68.4041
71.3293
74.2072
77.0315
79.796
82.4947
85.122
87.6728
90.1421
92.5255
94.8191
97.0195
99.1235
101.129
103.033
104.835
106.534
108.128
109.619
111.005
112.288
113.468
114.549
115.536
116.436
117.246
117.963
118.59
119.128
119.58
119.95
120.241
120.455
120.597
120.669
120.675
120.618
120.502
120.33
120.104
119.829
119.506
119.14
118.732
118.286
117.804
117.289
116.743
116.169
115.568
114.942
114.294
113.626
112.938
112.233
111.513
110.778
110.03
109.27
108.499
107.718
106.929
106.131
105.327
104.515
103.698
102.876
102.048
101.217
100.381
99.5422
98.6997
97.8541
97.0057
96.1547
95.3011
94.445
93.5867
92.7261
91.8631
90.998
90.1306
89.2608
88.3888
87.5143
86.6374
85.7578
84.8757
83.9908
83.1031
82.2124
81.3186
80.4217
79.5215
78.618
77.711
76.8004
75.8862
74.9682
74.0464
73.1207
72.1911
71.2574
70.3198
69.378
68.4322
67.4823
66.5283
65.5703
64.6083
63.6423
62.6724
61.6987
60.7213
59.7403
58.7558
57.768
56.7771
55.7831
54.7864
53.7871
52.7854
51.7816
50.776
49.7687
48.7601
47.7505
46.7401
45.7293
44.7184
43.7077
42.6976
41.6884
40.6805
39.6742
38.6699
37.6679
36.6687
35.6726
34.68
33.6911
32.7064
31.7263
30.751
29.7809
28.8163
27.8575
26.9049
25.9586
25.019
24.0862
23.1606
22.2422
21.3313
20.4281
19.5327
18.6455
17.7671
16.8984
16.0383
15.1848
14.3383
13.4987
12.6652
11.8374
11.0147
10.1967
9.38307
8.57395
7.77184
6.97484
6.18088
5.38972
4.60334
3.8292
3.0911
2.4791
2.84823
16.0853
9.85546
10.3804
11.8276
13.5939
15.5224
17.5497
19.6417
21.7832
23.9668
26.1855
28.4341
30.7086
33.0048
35.319
37.6469
39.9843
42.3266
44.6691
47.0068
49.3343
51.6465
53.9378
56.2028
58.436
60.632
62.7856
64.8917
66.9453
68.942
70.8773
72.7473
74.5484
76.2774
77.9313
79.5077
81.0046
82.4203
83.7536
85.0038
86.1702
87.253
88.2525
89.1696
90.0059
90.7639
91.4468
92.0543
92.5871
93.0464
93.434
93.7521
94.003
94.1893
94.3137
94.3789
94.3875
94.3425
94.2465
94.1024
93.9128
93.6804
93.4078
93.0975
92.7521
92.374
91.9653
91.5284
91.0654
90.5782
90.0689
89.5391
88.9908
88.4254
87.8445
87.2495
86.6419
86.0228
85.3934
84.7548
84.108
83.4539
82.7934
82.1272
81.456
80.7805
80.1012
79.4187
78.7334
78.0458
77.3561
76.6648
75.9721
75.2782
74.5834
73.8877
73.1914
72.4945
71.7972
71.0994
70.4012
69.7027
69.0038
68.3045
67.6047
66.9045
66.2037
65.5023
64.8003
64.0975
63.3939
62.6893
61.9837
61.277
60.5691
59.8598
59.1492
58.4371
57.7235
57.0082
56.2912
55.5724
54.8517
54.1292
53.4047
52.6782
51.9497
51.2191
50.4865
49.7518
49.0151
48.2764
47.5357
46.793
46.0485
45.3021
44.554
43.8043
43.053
42.3003
41.5462
40.791
40.0349
39.2778
38.5201
37.7619
37.0033
36.2447
35.4862
34.7281
33.9705
33.2137
32.4579
31.7035
30.9505
30.1994
29.4504
28.7037
27.9595
27.2183
26.4801
25.7454
25.0143
24.2871
23.5641
22.8454
22.1314
21.4223
20.7183
20.0196
19.3264
18.6389
17.9572
17.2816
16.6122
15.9492
15.2926
14.6427
13.9997
13.3636
12.7348
12.113
11.4977
10.889
10.2867
9.6907
9.10141
8.51869
7.94274
7.37394
6.81311
6.26168
5.72107
5.19308
4.68213
4.19758
3.76059
3.42749
3.41349
5.68092
16.0854
9.85544
10.3804
11.8275
13.5939
15.5223
17.5496
19.6416
21.7831
23.9668
26.1854
28.4341
30.7085
33.0048
35.3189
37.6468
39.9842
42.3265
44.669
47.0067
49.3343
51.6464
53.9377
56.2027
58.4359
60.632
62.7855
64.8916
66.9452
68.9419
70.8772
72.7472
74.5483
76.2773
77.9312
79.5076
81.0045
82.4202
83.7535
85.0037
86.1701
87.2529
88.2524
89.1695
90.0058
90.7638
91.4467
92.0542
92.587
93.0463
93.4339
93.752
94.0029
94.1892
94.3136
94.3788
94.3874
94.3424
94.2464
94.1023
93.9127
93.6803
93.4077
93.0974
92.7521
92.3739
91.9653
91.5284
91.0653
90.5781
90.0688
89.5391
88.9907
88.4253
87.8444
87.2495
86.6418
86.0227
85.3933
84.7547
84.1079
83.4538
82.7933
82.1271
81.4559
80.7804
80.1011
79.4186
78.7333
78.0457
77.3561
76.6647
75.972
75.2781
74.5833
73.8877
73.1913
72.4945
71.7971
71.0993
70.4012
69.7026
69.0037
68.3044
67.6047
66.9044
66.2037
65.5023
64.8002
64.0974
63.3938
62.6892
61.9836
61.2769
60.569
59.8598
59.1492
58.4371
57.7234
57.0082
56.2911
55.5723
54.8517
54.1291
53.4046
52.6781
51.9496
51.2191
50.4865
49.7518
49.0151
48.2764
47.5357
46.793
46.0485
45.3021
44.554
43.8042
43.0529
42.3002
41.5462
40.791
40.0348
39.2778
38.5201
37.7618
37.0033
36.2447
35.4862
34.728
33.9704
33.2136
32.4579
31.7034
30.9505
30.1994
29.4504
28.7036
27.9595
27.2183
26.4801
25.7454
25.0143
24.2871
23.564
22.8454
22.1314
21.4223
20.7183
20.0196
19.3264
18.6389
17.9572
17.2816
16.6122
15.9492
15.2926
14.6427
13.9996
13.3636
12.7348
12.1129
11.4977
10.889
10.2867
9.69069
9.1014
8.51869
7.94274
7.37394
6.8131
6.26167
5.72107
5.19308
4.68213
4.19757
3.76058
3.42749
3.4134
5.68089
23.2976
12.7891
12.2344
13.0703
14.3742
15.9108
17.5867
19.3553
21.1907
23.0775
25.005
26.9655
28.9532
30.9631
32.9909
35.0322
37.0829
39.139
41.196
43.2496
45.2952
47.3282
49.3438
51.3372
53.3037
55.2385
57.1369
58.9943
60.8064
62.569
64.2781
65.93
67.5213
69.0491
70.5105
71.9032
73.2251
74.4746
75.6505
76.7518
77.778
78.7289
79.6047
80.4061
81.134
81.7902
82.3763
82.8931
83.3418
83.7238
84.0405
84.2941
84.4867
84.6204
84.6977
84.7211
84.6931
84.6161
84.4927
84.3255
84.117
83.8696
83.5857
83.2678
82.918
82.5387
82.132
81.6999
81.2443
80.7673
80.2706
79.7559
79.2248
78.6788
78.1193
77.5478
76.9654
76.3734
75.7728
75.1646
74.5498
73.9291
73.3035
72.6736
72.0401
71.4036
70.7645
70.1234
69.4808
68.8369
68.1922
67.5469
66.9012
66.2555
65.6098
64.9643
64.3192
63.6746
63.0304
62.3868
61.7438
61.1014
60.4595
59.8182
59.1775
58.5372
57.8974
57.258
56.6188
55.9799
55.341
54.7023
54.0635
53.4246
52.7854
52.146
51.5062
50.8659
50.225
49.5836
48.9414
48.2984
47.6547
47.01
46.3644
45.7179
45.0703
44.4217
43.7721
43.1214
42.4697
41.817
41.1632
40.5085
39.8528
39.1963
38.539
37.8809
37.2222
36.5629
35.9031
35.243
34.5828
33.9224
33.2621
32.602
31.9423
31.2832
30.6248
29.9673
29.3109
28.6558
28.0023
27.3504
26.7005
26.0527
25.4073
24.7645
24.1245
23.4875
22.8538
22.2235
21.5969
20.9742
20.3557
19.7414
19.1317
18.5267
17.9267
17.3317
16.742
16.1577
15.579
15.0061
14.439
13.8781
13.3233
12.7749
12.233
11.6977
11.1692
10.6476
10.1327
9.62468
9.12368
8.62989
8.14364
7.66526
7.19563
6.7356
6.28652
5.85044
5.43034
5.03081
4.66
4.33363
4.08559
4.00499
4.43634
8.41112
23.2977
12.789
12.2343
13.0702
14.3741
15.9107
17.5867
19.3553
21.1907
23.0774
25.0049
26.9654
28.9531
30.9631
32.9908
35.0321
37.0829
39.1389
41.1959
43.2495
45.2951
47.3281
49.3437
51.3372
53.3036
55.2384
57.1368
58.9942
60.8063
62.5689
64.278
65.9299
67.5213
69.049
70.5104
71.9031
73.225
74.4746
75.6504
76.7517
77.7779
78.7288
79.6046
80.406
81.134
81.7901
82.3762
82.8931
83.3418
83.7237
84.0405
84.2941
84.4866
84.6203
84.6977
84.7211
84.693
84.616
84.4927
84.3255
84.117
83.8695
83.5857
83.2677
82.918
82.5387
82.1319
81.6998
81.2443
80.7673
80.2706
79.7558
79.2247
78.6787
78.1193
77.5478
76.9654
76.3734
75.7727
75.1645
74.5497
73.9291
73.3035
72.6736
72.0401
71.4035
70.7645
70.1234
69.4807
68.8369
68.1921
67.5468
66.9012
66.2554
65.6098
64.9643
64.3192
63.6745
63.0304
62.3868
61.7437
61.1013
60.4595
59.8182
59.1775
58.5372
57.8974
57.2579
56.6188
55.9798
55.341
54.7023
54.0635
53.4245
52.7854
52.146
51.5061
50.8659
50.225
49.5835
48.9414
48.2984
47.6546
47.01
46.3644
45.7179
45.0703
44.4217
43.7721
43.1214
42.4697
41.817
41.1632
40.5085
39.8528
39.1963
38.539
37.8809
37.2221
36.5628
35.9031
35.243
34.5827
33.9224
33.2621
32.602
31.9423
31.2832
30.6248
29.9673
29.3109
28.6558
28.0023
27.3504
26.7005
26.0527
25.4073
24.7645
24.1245
23.4875
22.8538
22.2235
21.5969
20.9742
20.3557
19.7414
19.1317
18.5267
17.9267
17.3317
16.7419
16.1577
15.579
15.0061
14.439
13.8781
13.3233
12.7749
12.233
11.6977
11.1692
10.6475
10.1327
9.62468
9.12368
8.62989
8.14364
7.66525
7.19562
6.73559
6.28651
5.85044
5.43034
5.0308
4.66
4.33363
4.08559
4.005
4.43633
8.41111
30.5603
15.9674
14.4533
14.8114
15.7988
17.0929
18.5673
20.1593
21.8337
23.5685
25.349
27.1646
29.0077
30.872
32.7524
34.6443
36.5436
38.446
40.3478
42.2447
44.1328
46.008
47.866
49.7027
51.5138
53.2951
55.0424
56.7517
58.4191
60.0407
61.6129
63.1324
64.596
66.0008
67.3443
68.6242
69.8386
70.9858
72.0646
73.074
74.0133
74.8825
75.6814
76.4106
77.0708
77.6631
78.1888
78.6489
79.0446
79.3773
79.6485
79.8602
80.0142
80.1126
80.1578
80.1519
80.0973
79.9964
79.8516
79.6653
79.4398
79.1775
78.8807
78.5517
78.1925
77.8055
77.3926
76.9558
76.497
76.018
75.5206
75.0064
74.4769
73.9337
73.3781
72.8114
72.2349
71.6496
71.0566
70.457
69.8515
69.2411
68.6265
68.0084
67.3875
66.7642
66.1392
65.5129
64.8857
64.2579
63.63
63.0022
62.3747
61.7478
61.1215
60.4962
59.8718
59.2486
58.6264
58.0055
57.3858
56.7673
56.15
55.5339
54.919
54.3053
53.6926
53.0809
52.4701
51.8602
51.2511
50.6426
50.0348
49.4276
48.8207
48.2142
47.608
47.002
46.3961
45.7903
45.1844
44.5784
43.9722
43.3658
42.7592
42.1522
41.5449
40.9373
40.3293
39.7208
39.112
38.5028
37.8932
37.2832
36.673
36.0625
35.4517
34.8409
34.2299
33.619
33.0081
32.3975
31.7871
31.1772
30.5679
29.9592
29.3513
28.7445
28.1387
27.5343
26.9313
26.33
25.7305
25.133
24.5377
23.9448
23.3544
22.7668
22.1822
21.6007
21.0226
20.4481
19.8773
19.3104
18.7477
18.1892
17.6353
17.086
16.5416
16.0023
15.4681
14.9393
14.4159
13.8983
13.3865
12.8807
12.381
11.8876
11.4008
10.9205
10.4472
9.98081
9.52162
9.06985
8.62581
8.18991
7.7627
7.34493
6.93763
6.54218
6.16059
5.79579
5.45205
5.13617
4.85978
4.64461
4.53701
4.65892
5.48316
11.1099
30.5604
15.9673
14.4533
14.8113
15.7987
17.0928
18.5672
20.1593
21.8337
23.5685
25.3489
27.1645
29.0076
30.8719
32.7523
34.6443
36.5435
38.446
40.3477
42.2446
44.1327
46.0079
47.8659
49.7026
51.5137
53.295
55.0423
56.7517
58.419
60.0406
61.6129
63.1323
64.5959
66.0007
67.3442
68.6242
69.8385
70.9857
72.0645
73.0739
74.0133
74.8824
75.6814
76.4105
77.0707
77.663
78.1887
78.6488
79.0445
79.3772
79.6485
79.8601
80.0141
80.1126
80.1577
80.1518
80.0973
79.9964
79.8516
79.6653
79.4398
79.1775
78.8807
78.5516
78.1925
77.8055
77.3925
76.9557
76.4969
76.0179
75.5205
75.0063
74.4769
73.9336
73.378
72.8114
72.2348
71.6495
71.0566
70.457
69.8515
69.2411
68.6265
68.0084
67.3874
66.7642
66.1392
65.5128
64.8856
64.2579
63.63
63.0022
62.3747
61.7477
61.1215
60.4962
59.8718
59.2485
58.6264
58.0055
57.3857
56.7673
56.15
55.5339
54.919
54.3052
53.6925
53.0808
52.4701
51.8602
51.251
50.6426
50.0348
49.4275
48.8207
48.2142
47.608
47.002
46.3961
45.7903
45.1844
44.5784
43.9722
43.3658
42.7592
42.1522
41.5449
40.9373
40.3292
39.7208
39.112
38.5028
37.8932
37.2832
36.673
36.0625
35.4517
34.8409
34.2299
33.619
33.0081
32.3975
31.7871
31.1772
30.5678
29.9592
29.3513
28.7445
28.1387
27.5343
26.9313
26.33
25.7305
25.133
24.5377
23.9448
23.3544
22.7668
22.1822
21.6007
21.0226
20.4481
19.8773
19.3104
18.7476
18.1892
17.6353
17.086
16.5416
16.0023
15.4681
14.9393
14.4159
13.8983
13.3865
12.8807
12.381
11.8876
11.4008
10.9205
10.4472
9.98081
9.52162
9.06985
8.62581
8.18991
7.7627
7.34493
6.93763
6.54218
6.16059
5.79579
5.45205
5.13617
4.85978
4.64461
4.53701
4.65892
5.48316
11.1099
37.7627
19.2767
16.8819
16.8376
17.5796
18.7003
20.0402
21.5209
23.0978
24.743
26.4379
28.1693
29.9275
31.7051
33.4961
35.2955
37.0988
38.9022
40.7018
42.4939
44.2749
46.0411
47.7889
49.5146
51.2145
52.885
54.5224
56.123
57.6835
59.2005
60.6705
62.0908
63.4582
64.7704
66.0247
67.2192
68.3519
69.4213
70.4263
71.3657
72.239
73.0459
73.7862
74.4604
75.0689
75.6126
76.0924
76.5096
76.8651
77.1604
77.3969
77.5763
77.7006
77.7717
77.7916
77.7625
77.6866
77.5663
77.4036
77.201
76.9606
76.6848
76.3757
76.0355
75.6664
75.2703
74.8493
74.4053
73.9402
73.4557
72.9535
72.4352
71.9024
71.3564
70.7987
70.2304
69.6529
69.0672
68.4744
67.8754
67.2711
66.6624
66.0499
65.4345
64.8166
64.1969
63.576
62.9541
62.3319
61.7096
61.0875
60.466
59.8453
59.2256
58.607
57.9898
57.374
56.7598
56.1471
55.5361
54.9268
54.3191
53.7132
53.1089
52.5062
51.9051
51.3056
50.7075
50.1108
49.5155
48.9214
48.3286
47.7368
47.146
46.5561
45.9671
45.3789
44.7913
44.2043
43.6179
43.0319
42.4463
41.861
41.276
40.6913
40.1067
39.5222
38.9379
38.3537
37.7695
37.1854
36.6014
36.0175
35.4337
34.85
34.2665
33.6832
33.1002
32.5176
31.9353
31.3536
30.7724
30.1919
29.6122
29.0334
28.4556
27.879
27.3036
26.7297
26.1573
25.5867
25.0179
24.4511
23.8866
23.3244
22.7648
22.2079
21.6539
21.1029
20.5553
20.011
19.4703
18.9335
18.4006
17.8718
17.3474
16.8275
16.3122
15.8017
15.2962
14.7959
14.301
13.8115
13.3277
12.8497
12.3777
11.912
11.4526
10.9998
10.5538
10.115
9.68341
9.2595
8.84362
8.43624
8.03796
7.64958
7.27212
6.90694
6.5559
6.22158
5.90772
5.61981
5.36667
5.16322
5.03701
5.04675
5.34711
6.53857
13.7916
37.7628
19.2767
16.8819
16.8376
17.5796
18.7002
20.0401
21.5208
23.0977
24.7429
26.4378
28.1692
29.9274
31.705
33.496
35.2954
37.0988
38.9021
40.7017
42.4938
44.2748
46.041
47.7888
49.5145
51.2144
52.8849
54.5223
56.123
57.6835
59.2004
60.6705
62.0907
63.4582
64.7703
66.0246
67.2191
68.3518
69.4213
70.4262
71.3656
72.2389
73.0458
73.7862
74.4603
75.0688
75.6125
76.0924
76.5095
76.865
77.1603
77.3968
77.5763
77.7006
77.7716
77.7915
77.7625
77.6866
77.5662
77.4035
77.2009
76.9606
76.6847
76.3756
76.0355
75.6663
75.2703
74.8493
74.4053
73.9402
73.4557
72.9535
72.4352
71.9023
71.3564
70.7986
70.2304
69.6529
69.0672
68.4744
67.8754
67.2711
66.6624
66.0499
65.4345
64.8166
64.1969
63.5759
62.9541
62.3319
61.7096
61.0875
60.466
59.8453
59.2256
58.607
57.9898
57.374
56.7597
56.1471
55.5361
54.9268
54.3191
53.7131
53.1088
52.5062
51.9051
51.3056
50.7075
50.1108
49.5155
48.9214
48.3285
47.7368
47.146
46.5561
45.9671
45.3789
44.7913
44.2043
43.6179
43.0319
42.4463
41.861
41.276
40.6913
40.1067
39.5222
38.9379
38.3537
37.7695
37.1854
36.6014
36.0175
35.4337
34.85
34.2665
33.6832
33.1002
32.5176
31.9353
31.3536
30.7724
30.1919
29.6122
29.0334
28.4556
27.879
27.3036
26.7297
26.1573
25.5867
25.0179
24.4511
23.8866
23.3244
22.7648
22.2079
21.6539
21.1029
20.5552
20.011
19.4703
18.9335
18.4006
17.8718
17.3474
16.8275
16.3122
15.8017
15.2962
14.7959
14.301
13.8115
13.3277
12.8497
12.3777
11.912
11.4526
10.9998
10.5538
10.115
9.68341
9.2595
8.84362
8.43624
8.03796
7.64958
7.27212
6.90694
6.5559
6.22158
5.90772
5.61982
5.36667
5.16322
5.03701
5.04676
5.34711
6.53858
13.7916
44.9998
22.6932
19.4656
19.0642
19.6026
20.5888
21.831
23.2351
24.7476
26.3352
27.9754
29.6526
31.3551
33.0743
34.8036
36.5373
38.2711
40.0008
41.7228
43.4339
45.1308
46.8102
48.4692
50.1045
51.7129
53.2914
54.8369
56.3461
57.8162
59.2441
60.627
61.9621
63.247
64.4792
65.6566
66.7772
67.8392
68.8413
69.7822
70.661
71.4771
72.23
72.9196
73.5462
74.11
74.6119
75.0525
75.433
75.7543
76.0178
76.2248
76.377
76.476
76.5238
76.5223
76.4734
76.3794
76.2422
76.0641
75.8473
75.5939
75.3061
74.9859
74.6355
74.257
73.8523
73.4233
72.972
72.5001
72.0094
71.5014
70.9779
70.4402
69.8898
69.3281
68.7562
68.1754
67.5868
66.9914
66.3901
65.7839
65.1735
64.5598
63.9433
63.3247
62.7047
62.0836
61.462
60.8403
60.2188
59.5979
58.9779
58.359
57.7414
57.1253
56.5108
55.8981
55.2873
54.6784
54.0715
53.4666
52.8637
52.2629
51.6641
51.0673
50.4724
49.8794
49.2882
48.6988
48.1112
47.5251
46.9406
46.3576
45.7759
45.1956
44.6165
44.0385
43.4616
42.8857
42.3106
41.7365
41.163
40.5903
40.0183
39.4468
38.8759
38.3056
37.7357
37.1662
36.5973
36.0287
35.4606
34.893
34.3258
33.7591
33.1929
32.6272
32.0622
31.4978
30.9341
30.3712
29.8092
29.2481
28.6881
28.1293
27.5717
27.0155
26.4607
25.9076
25.3563
24.8069
24.2595
23.7143
23.1714
22.631
22.0933
21.5584
21.0264
20.4976
19.9721
19.4501
18.9317
18.4171
17.9065
17.4
16.8978
16.4002
15.9071
15.4188
14.9356
14.4574
13.9846
13.5173
13.0557
12.5999
12.1503
11.7069
11.27
10.8399
10.4168
10.0011
9.59311
9.19328
8.80211
8.42023
8.04842
7.68769
7.33932
7.00503
6.6871
6.3887
6.11434
5.87078
5.66863
5.52586
5.47592
5.58981
6.05491
7.59913
16.4638
44.9999
22.6931
19.4655
19.0642
19.6026
20.5888
21.8309
23.235
24.7476
26.3351
27.9754
29.6525
31.355
33.0743
34.8035
36.5373
38.271
40.0007
41.7228
43.4338
45.1307
46.8102
48.4691
50.1044
51.7128
53.2913
54.8368
56.346
57.8161
59.244
60.6269
61.9621
63.2469
64.4792
65.6565
66.7771
67.8392
68.8412
69.7822
70.661
71.477
72.2299
72.9195
73.5461
74.11
74.6118
75.0525
75.4329
75.7543
76.0177
76.2248
76.3769
76.476
76.5238
76.5222
76.4734
76.3793
76.2422
76.0641
75.8473
75.5939
75.306
74.9859
74.6355
74.257
73.8523
73.4233
72.972
72.5001
72.0093
71.5014
70.9778
70.4402
69.8898
69.328
68.7562
68.1754
67.5868
66.9914
66.3901
65.7839
65.1735
64.5597
63.9433
63.3247
62.7046
62.0836
61.462
60.8403
60.2188
59.5979
58.9779
58.359
57.7414
57.1253
56.5108
55.8981
55.2873
54.6784
54.0715
53.4666
52.8637
52.2629
51.6641
51.0673
50.4724
49.8794
49.2882
48.6988
48.1112
47.5251
46.9406
46.3576
45.7759
45.1956
44.6165
44.0385
43.4616
42.8857
42.3106
41.7364
41.163
40.5903
40.0183
39.4468
38.8759
38.3055
37.7357
37.1662
36.5973
36.0287
35.4606
34.893
34.3258
33.7591
33.1929
32.6272
32.0622
31.4978
30.9341
30.3712
29.8092
29.2481
28.6881
28.1293
27.5717
27.0155
26.4607
25.9076
25.3563
24.8069
24.2595
23.7143
23.1714
22.631
22.0933
21.5584
21.0264
20.4976
19.9721
19.4501
18.9317
18.4171
17.9065
17.4
16.8978
16.4001
15.9071
15.4188
14.9356
14.4574
13.9846
13.5173
13.0557
12.5999
12.1503
11.7069
11.27
10.8399
10.4168
10.0011
9.59311
9.19328
8.80211
8.42023
8.04842
7.68769
7.33932
7.00503
6.6871
6.3887
6.11434
5.87078
5.66863
5.52586
5.47592
5.58981
6.05491
7.59915
16.4638
52.4193
26.2057
22.1799
21.4513
21.8129
22.689
23.8558
25.2039
26.671
28.2187
29.8209
31.4595
33.1213
34.7965
36.4777
38.159
39.8357
41.5038
43.1599
44.8011
46.4244
48.0272
49.6069
51.1609
52.6865
54.1813
55.6426
57.0679
58.4545
59.8
61.1019
62.3579
63.5657
64.7233
65.8287
66.88
67.8759
68.8148
69.6957
70.5177
71.28
71.9824
72.6246
73.2067
73.729
74.192
74.5965
74.9432
75.2332
75.4677
75.6479
75.7753
75.8516
75.8784
75.8577
75.7911
75.6809
75.5289
75.3371
75.1078
74.8428
74.5444
74.2145
73.8551
73.4682
73.0558
72.6196
72.1617
71.6836
71.187
70.6737
70.145
69.6026
69.0478
68.4818
67.906
67.3215
66.7295
66.1308
65.5265
64.9174
64.3045
63.6883
63.0696
62.449
61.8271
61.2045
60.5815
59.9586
59.3362
58.7145
58.0939
57.4747
56.857
56.2411
55.627
55.0149
54.405
53.7972
53.1917
52.5885
51.9875
51.3889
50.7925
50.1984
49.6065
49.0168
48.4292
47.8437
47.2602
46.6786
46.0988
45.5208
44.9445
44.3698
43.7966
43.2249
42.6545
42.0855
41.5176
40.9509
40.3852
39.8206
39.2569
38.6942
38.1323
37.5712
37.0109
36.4514
35.8926
35.3345
34.7772
34.2205
33.6646
33.1095
32.5551
32.0016
31.4489
30.8971
30.3462
29.7964
29.2476
28.7001
28.1537
27.6087
27.0652
26.5232
25.9828
25.4442
24.9076
24.3729
23.8404
23.3101
22.7823
22.2571
21.7345
21.2149
20.6982
20.1847
19.6745
19.1678
18.6647
18.1655
17.6701
17.1789
16.692
16.2095
15.7316
15.2585
14.7904
14.3274
13.8697
13.4175
12.9709
12.5304
12.0959
11.6679
11.2465
10.832
10.4249
10.0255
9.63416
9.25151
8.87815
8.51486
8.1626
7.82258
7.49634
7.18591
6.89399
6.62433
6.38224
6.17562
6.01693
5.92714
5.9455
6.15531
6.77677
8.66534
19.1324
52.4194
26.2056
22.1799
21.4512
21.8128
22.689
23.8558
25.2038
26.671
28.2186
29.8208
31.4594
33.1212
34.7964
36.4776
38.1589
39.8356
41.5037
43.1598
44.801
46.4243
48.0271
49.6068
51.1608
52.6865
54.1812
55.6425
57.0678
58.4544
59.7999
61.1018
62.3578
63.5657
64.7232
65.8286
66.88
67.8758
68.8147
69.6956
70.5176
71.28
71.9824
72.6246
73.2067
73.729
74.192
74.5964
74.9432
75.2332
75.4676
75.6478
75.7753
75.8516
75.8784
75.8576
75.7911
75.6808
75.5288
75.3371
75.1077
74.8428
74.5444
74.2144
73.855
73.4682
73.0557
72.6196
72.1616
71.6835
71.187
70.6736
70.145
69.6026
69.0477
68.4818
67.906
67.3215
66.7294
66.1308
65.5265
64.9174
64.3044
63.6883
63.0696
62.449
61.8271
61.2045
60.5815
59.9586
59.3361
58.7145
58.0939
57.4747
56.857
56.2411
55.627
55.0149
54.405
53.7972
53.1917
52.5885
51.9875
51.3889
50.7925
50.1984
49.6065
49.0168
48.4292
47.8437
47.2602
46.6786
46.0988
45.5208
44.9445
44.3698
43.7966
43.2249
42.6545
42.0855
41.5176
40.9509
40.3852
39.8206
39.2569
38.6942
38.1323
37.5712
37.0109
36.4514
35.8926
35.3345
34.7771
34.2205
33.6646
33.1095
32.5551
32.0016
31.4489
30.8971
30.3462
29.7964
29.2476
28.7
28.1537
27.6087
27.0652
26.5232
25.9828
25.4442
24.9076
24.3729
23.8404
23.3101
22.7823
22.2571
21.7345
21.2149
20.6982
20.1847
19.6745
19.1678
18.6647
18.1655
17.6701
17.1789
16.692
16.2095
15.7316
15.2585
14.7904
14.3274
13.8697
13.4175
12.9709
12.5304
12.0959
11.6679
11.2465
10.832
10.4249
10.0255
9.63416
9.25151
8.87815
8.51486
8.1626
7.82258
7.49634
7.18591
6.89399
6.62433
6.38224
6.17562
6.01693
5.92714
5.9455
6.15531
6.77678
8.66536
19.1324
60.1695
29.8463
25.0211
23.9802
24.1817
24.9635
26.0691
27.3736
28.8067
30.3244
31.8975
33.5056
35.1341
36.772
38.4114
40.046
41.671
43.2825
44.8774
46.453
48.0069
49.5369
51.0409
52.5169
53.9629
55.3768
56.7567
58.1003
59.4058
60.671
61.894
63.0726
64.2051
65.2896
66.3244
67.308
68.2389
69.1159
69.938
70.7043
71.4141
72.067
72.6629
73.2016
73.6835
74.1088
74.4783
74.7925
75.0525
75.2593
75.414
75.5181
75.573
75.5802
75.5416
75.4587
75.3336
75.168
74.964
74.7234
74.4482
74.1404
73.802
73.4347
73.0407
72.6217
72.1794
71.7158
71.2325
70.7311
70.2132
69.6803
69.1338
68.5752
68.0057
67.4265
66.8388
66.2436
65.6421
65.035
64.4233
63.8078
63.1893
62.5684
61.9457
61.3218
60.6973
60.0726
59.4482
58.8243
58.2014
57.5797
56.9595
56.341
55.7245
55.1099
54.4976
53.8875
53.2799
52.6746
52.0719
51.4716
50.8738
50.2786
49.6858
49.0954
48.5074
47.9218
47.3385
46.7574
46.1785
45.6016
45.0268
44.4539
43.8828
43.3135
42.7459
42.1799
41.6155
41.0525
40.4909
39.9306
39.3716
38.8138
38.2571
37.7016
37.1471
36.5937
36.0412
35.4897
34.9392
34.3896
33.841
33.2933
32.7466
32.2009
31.6561
31.1125
30.5699
30.0284
29.4882
28.9491
28.4114
27.8751
27.3403
26.8071
26.2755
25.7456
25.2177
24.6917
24.1678
23.6461
23.1268
22.6099
22.0956
21.5841
21.0754
20.5697
20.0672
19.568
19.0722
18.58
18.0916
17.6071
17.1267
16.6505
16.1787
15.7114
15.2489
14.7913
14.3388
13.8916
13.4499
13.0139
12.5838
12.16
11.7427
11.3322
10.9288
10.5331
10.1453
9.76603
9.39596
9.03581
8.68649
8.34913
8.02513
7.71628
7.42494
7.1542
6.90838
6.69355
6.51879
6.39837
6.35635
6.43767
6.73826
7.51152
9.74127
21.8162
60.1696
29.8463
25.021
23.9802
24.1816
24.9634
26.069
27.3736
28.8066
30.3243
31.8974
33.5055
35.134
36.772
38.4114
40.046
41.6709
43.2825
44.8774
46.4529
48.0068
49.5368
51.0408
52.5168
53.9628
55.3767
56.7566
58.1003
59.4058
60.671
61.8939
63.0726
64.205
65.2895
66.3244
67.3079
68.2388
69.1159
69.9379
70.7042
71.414
72.067
72.6628
73.2016
73.6834
74.1088
74.4782
74.7925
75.0525
75.2592
75.414
75.5181
75.5729
75.5802
75.5415
75.4587
75.3336
75.168
74.964
74.7234
74.4482
74.1404
73.8019
73.4347
73.0407
72.6216
72.1794
71.7158
71.2325
70.7311
70.2131
69.6803
69.1338
68.5752
68.0057
67.4265
66.8388
66.2436
65.642
65.035
64.4233
63.8078
63.1893
62.5683
61.9457
61.3218
60.6973
60.0726
59.4482
58.8243
58.2014
57.5797
56.9595
56.341
55.7244
55.1099
54.4976
53.8875
53.2799
52.6746
52.0718
51.4716
50.8738
50.2785
49.6857
49.0954
48.5074
47.9218
47.3385
46.7574
46.1785
45.6016
45.0268
44.4539
43.8828
43.3135
42.7459
42.1799
41.6154
41.0525
40.4909
39.9306
39.3716
38.8138
38.2571
37.7016
37.1471
36.5936
36.0412
35.4897
34.9392
34.3896
33.841
33.2933
32.7466
32.2009
31.6561
31.1125
30.5699
30.0284
29.4882
28.9491
28.4114
27.8751
27.3403
26.8071
26.2755
25.7456
25.2177
24.6917
24.1678
23.6461
23.1268
22.6099
22.0956
21.5841
21.0754
20.5697
20.0672
19.568
19.0722
18.58
18.0916
17.6071
17.1267
16.6505
16.1787
15.7114
15.2489
14.7913
14.3388
13.8916
13.4499
13.0139
12.5838
12.16
11.7427
11.3322
10.9288
10.5331
10.1453
9.76603
9.39596
9.03581
8.68649
8.34913
8.02513
7.71628
7.42494
7.15421
6.90838
6.69355
6.51879
6.39837
6.35635
6.43767
6.73826
7.51153
9.74129
21.8162
68.123
33.6056
27.9836
26.6408
26.6931
27.3909
28.4443
29.7131
31.1183
32.6112
34.1595
35.7406
37.3385
38.9414
40.5407
42.13
43.7044
45.2602
46.7945
48.305
49.7898
51.2472
52.6757
54.0738
55.4401
56.7731
58.0713
59.3333
60.5574
61.7421
62.8858
63.9868
65.0437
66.0548
67.0188
67.9343
68.8
69.6148
70.3779
71.0883
71.7454
72.3488
72.8983
73.3937
73.8352
74.2231
74.5578
74.84
75.0705
75.2501
75.38
75.4614
75.4956
75.4841
75.4284
75.3302
75.1911
75.013
74.7976
74.5469
74.2625
73.9465
73.6006
73.2267
72.8266
72.4021
71.9549
71.4868
70.9993
70.4942
69.9728
69.4367
68.8873
68.3259
67.7537
67.1721
66.5821
65.9847
65.3811
64.772
64.1585
63.5412
62.9209
62.2983
61.6741
61.0488
60.4229
59.7969
59.1712
58.5462
57.9223
57.2996
56.6786
56.0594
55.4423
54.8272
54.2146
53.6043
52.9965
52.3914
51.7888
51.1889
50.5916
49.9971
49.4051
48.8158
48.229
47.6448
47.063
46.4836
45.9066
45.3319
44.7593