/*--------------------------------*- C++ -*----------------------------------*\
  =========                 |
  \\      /  F ield         | OpenFOAM: The Open Source CFD Toolbox
   \\    /   O peration     | Website:  https://openfoam.org
    \\  /    A nd           | Version:  8
     \\/     M anipulation  |
\*---------------------------------------------------------------------------*/
FoamFile
{
    version     2.0;
    format      ascii;
    class       volScalarField;
    location    "5000";
    object      k;
}
// * * * * * * * * * * * * * * * * * * * * * * * * * * * * * * * * * * * * * //

dimensions      [0 2 -2 0 0 0 0];

internalField   nonuniform List<scalar> 
48000
(
0.0334633
0.087726
0.134614
0.175343
0.21328
0.24845
0.281192
0.31194
0.341266
0.369896
0.397386
0.42402
0.449853
0.474939
0.499322
0.523033
0.546094
0.56852
0.590319
0.611497
0.632053
0.651989
0.6713
0.689983
0.708034
0.72545
0.742226
0.75836
0.773848
0.78869
0.802884
0.816432
0.829336
0.841598
0.853223
0.864216
0.874585
0.884337
0.893481
0.902028
0.909987
0.917371
0.924191
0.930459
0.936187
0.941412
0.946243
0.950595
0.954466
0.957871
0.960829
0.963357
0.965473
0.967194
0.968538
0.969521
0.97016
0.970471
0.97047
0.970173
0.969594
0.96875
0.967653
0.966317
0.964756
0.962984
0.961011
0.958849
0.956511
0.954006
0.951345
0.948538
0.945593
0.942519
0.939326
0.936019
0.932607
0.929096
0.925493
0.921803
0.918031
0.914184
0.910265
0.906279
0.90223
0.89812
0.893954
0.889735
0.885464
0.881145
0.876779
0.872367
0.867913
0.863416
0.858878
0.8543
0.849682
0.845025
0.84033
0.835595
0.830822
0.826011
0.82116
0.81627
0.81134
0.80637
0.801358
0.796305
0.791209
0.786069
0.780885
0.775655
0.770378
0.765054
0.759682
0.754259
0.748785
0.74326
0.737681
0.732047
0.726358
0.720612
0.714809
0.708947
0.703025
0.697042
0.690997
0.684889
0.678718
0.672482
0.666181
0.659814
0.653381
0.64688
0.640312
0.633675
0.62697
0.620196
0.613353
0.606441
0.59946
0.592409
0.585289
0.5781
0.570842
0.563515
0.556121
0.548658
0.541129
0.533533
0.525871
0.518144
0.510352
0.502496
0.494578
0.486598
0.478556
0.470454
0.462294
0.454074
0.445798
0.437464
0.429075
0.420631
0.412132
0.40358
0.394974
0.386315
0.377603
0.368837
0.360018
0.351145
0.342216
0.33323
0.324186
0.31508
0.305911
0.296675
0.287372
0.278007
0.268622
0.259179
0.249622
0.239936
0.230105
0.220107
0.209919
0.199508
0.188836
0.177854
0.1665
0.154774
0.142567
0.129694
0.115955
0.101051
0.0844918
0.0653776
0.0415854
0.0212927
0.0334636
0.0877263
0.134614
0.175343
0.213281
0.248451
0.281193
0.31194
0.341266
0.369896
0.397386
0.42402
0.449853
0.47494
0.499323
0.523034
0.546095
0.56852
0.59032
0.611497
0.632054
0.651989
0.6713
0.689983
0.708035
0.72545
0.742227
0.75836
0.773848
0.78869
0.802884
0.816432
0.829336
0.841598
0.853223
0.864216
0.874585
0.884337
0.893481
0.902028
0.909987
0.917371
0.924191
0.930459
0.936188
0.941412
0.946243
0.950595
0.954466
0.957871
0.960829
0.963357
0.965473
0.967194
0.968538
0.969521
0.97016
0.970471
0.97047
0.970173
0.969594
0.968749
0.967652
0.966317
0.964756
0.962983
0.96101
0.958849
0.956511
0.954006
0.951345
0.948538
0.945593
0.942519
0.939326
0.936019
0.932607
0.929096
0.925493
0.921803
0.918031
0.914184
0.910265
0.906279
0.902229
0.89812
0.893954
0.889735
0.885464
0.881145
0.876779
0.872367
0.867913
0.863416
0.858878
0.8543
0.849682
0.845025
0.84033
0.835595
0.830822
0.826011
0.82116
0.81627
0.81134
0.80637
0.801358
0.796305
0.791209
0.786069
0.780885
0.775655
0.770378
0.765054
0.759682
0.754259
0.748785
0.74326
0.737681
0.732047
0.726358
0.720612
0.714809
0.708947
0.703025
0.697042
0.690997
0.684889
0.678718
0.672482
0.666181
0.659814
0.653381
0.64688
0.640312
0.633675
0.62697
0.620196
0.613353
0.606441
0.59946
0.592409
0.585289
0.5781
0.570842
0.563515
0.556121
0.548658
0.541129
0.533533
0.525871
0.518144
0.510352
0.502496
0.494578
0.486598
0.478556
0.470454
0.462294
0.454074
0.445798
0.437464
0.429075
0.420631
0.412132
0.40358
0.394974
0.386315
0.377603
0.368837
0.360018
0.351145
0.342216
0.33323
0.324186
0.31508
0.305911
0.296675
0.287372
0.278007
0.268622
0.259179
0.249622
0.239936
0.230105
0.220107
0.209919
0.199508
0.188836
0.177854
0.1665
0.154774
0.142567
0.129694
0.115955
0.101052
0.0844921
0.0653781
0.0415843
0.0212917
0.0897652
0.22581
0.320885
0.404439
0.481294
0.553178
0.621499
0.68657
0.749011
0.809315
0.867732
0.924473
0.979687
1.03348
1.08593
1.13709
1.18699
1.23565
1.28307
1.32927
1.37421
1.4179
1.46032
1.50144
1.54126
1.57975
1.61689
1.65268
1.68709
1.72011
1.75174
1.78196
1.81079
1.83822
1.86424
1.88888
1.91213
1.93402
1.95456
1.97376
1.99166
2.00826
2.0236
2.03771
2.05061
2.06232
2.07291
2.08241
2.09084
2.09824
2.10464
2.11009
2.11463
2.11828
2.1211
2.12311
2.12435
2.12486
2.12468
2.12384
2.12237
2.12031
2.11769
2.11454
2.11089
2.10677
2.1022
2.09722
2.09184
2.0861
2.08002
2.07361
2.0669
2.05991
2.05265
2.04515
2.03741
2.02947
2.02132
2.01298
2.00447
1.9958
1.98697
1.978
1.96889
1.95966
1.95031
1.94084
1.93127
1.9216
1.91183
1.90196
1.89201
1.88197
1.87184
1.86163
1.85134
1.84097
1.83052
1.81999
1.80939
1.7987
1.78794
1.77709
1.76616
1.75515
1.74406
1.73288
1.72161
1.71026
1.69881
1.68727
1.67563
1.6639
1.65206
1.64012
1.62808
1.61593
1.60367
1.59129
1.5788
1.56619
1.55347
1.54062
1.52764
1.51454
1.50131
1.48795
1.47446
1.46083
1.44706
1.43316
1.41912
1.40494
1.39062
1.37616
1.36155
1.3468
1.33191
1.31687
1.30169
1.28637
1.2709
1.25528
1.23953
1.22363
1.20759
1.19141
1.17509
1.15863
1.14203
1.12531
1.10844
1.09145
1.07433
1.05708
1.0397
1.0222
1.00458
0.98684
0.968982
0.951007
0.932919
0.914717
0.896405
0.877982
0.85945
0.84081
0.82206
0.803201
0.784232
0.765151
0.745956
0.726643
0.707207
0.687644
0.667947
0.648107
0.628116
0.607963
0.587636
0.56711
0.546344
0.525331
0.504039
0.482425
0.460442
0.438031
0.41512
0.391616
0.367403
0.34232
0.316227
0.288869
0.259904
0.228843
0.194942
0.156907
0.111466
0.0432535
0.0897656
0.22581
0.320886
0.40444
0.481294
0.553178
0.621499
0.68657
0.749011
0.809315
0.867733
0.924473
0.979687
1.03348
1.08593
1.13709
1.18699
1.23565
1.28307
1.32926
1.37421
1.4179
1.46032
1.50144
1.54126
1.57975
1.61689
1.65268
1.68708
1.72011
1.75174
1.78196
1.81079
1.83822
1.86424
1.88888
1.91213
1.93402
1.95456
1.97376
1.99166
2.00826
2.0236
2.03771
2.05061
2.06232
2.07291
2.08241
2.09084
2.09824
2.10464
2.11009
2.11463
2.11828
2.1211
2.12311
2.12435
2.12486
2.12468
2.12384
2.12237
2.12031
2.11769
2.11454
2.11089
2.10677
2.1022
2.09722
2.09184
2.0861
2.08002
2.07361
2.0669
2.0599
2.05265
2.04515
2.03741
2.02947
2.02132
2.01298
2.00447
1.9958
1.98697
1.978
1.96889
1.95966
1.95031
1.94084
1.93127
1.9216
1.91183
1.90196
1.89201
1.88196
1.87184
1.86163
1.85134
1.84097
1.83052
1.81999
1.80939
1.7987
1.78794
1.77709
1.76616
1.75515
1.74406
1.73288
1.72161
1.71026
1.69881
1.68727
1.67563
1.6639
1.65206
1.64012
1.62808
1.61593
1.60367
1.59129
1.5788
1.56619
1.55347
1.54062
1.52764
1.51454
1.50131
1.48795
1.47446
1.46083
1.44706
1.43316
1.41912
1.40494
1.39062
1.37616
1.36155
1.3468
1.33191
1.31687
1.30169
1.28636
1.27089
1.25528
1.23952
1.22363
1.20759
1.19141
1.17509
1.15863
1.14203
1.12531
1.10844
1.09145
1.07433
1.05708
1.0397
1.0222
1.00458
0.98684
0.968981
0.951007
0.932918
0.914717
0.896405
0.877982
0.85945
0.840809
0.82206
0.803201
0.784232
0.765151
0.745955
0.726642
0.707207
0.687644
0.667947
0.648107
0.628116
0.607963
0.587636
0.56711
0.546344
0.525331
0.504039
0.482425
0.460442
0.438031
0.41512
0.391616
0.367403
0.34232
0.316227
0.288869
0.259904
0.228843
0.194942
0.156907
0.111466
0.0432549
0.136039
0.322186
0.441112
0.542696
0.635863
0.723741
0.8077
0.888416
0.966371
1.04193
1.11534
1.18679
1.25642
1.32435
1.39063
1.45533
1.51848
1.58008
1.64015
1.69869
1.75566
1.81107
1.86489
1.91709
1.96765
2.01655
2.06376
2.10926
2.15303
2.19506
2.23533
2.27383
2.31056
2.34551
2.3787
2.41012
2.43979
2.46773
2.49394
2.51845
2.54129
2.56249
2.58208
2.60008
2.61655
2.63151
2.64502
2.65712
2.66786
2.67727
2.6854
2.6923
2.69802
2.70261
2.70611
2.70857
2.71004
2.71057
2.7102
2.70897
2.70694
2.70414
2.70061
2.6964
2.69154
2.68607
2.68003
2.67346
2.66637
2.65882
2.65082
2.6424
2.6336
2.62443
2.61493
2.60511
2.595
2.58461
2.57397
2.56309
2.55199
2.54069
2.52919
2.51751
2.50566
2.49365
2.48149
2.46919
2.45676
2.44421
2.43153
2.41875
2.40585
2.39284
2.37974
2.36653
2.35322
2.33982
2.32633
2.31273
2.29905
2.28527
2.27139
2.25742
2.24335
2.22918
2.21491
2.20053
2.18605
2.17147
2.15677
2.14196
2.12703
2.11198
2.09682
2.08152
2.0661
2.05055
2.03486
2.01904
2.00308
1.98697
1.97071
1.95431
1.93775
1.92104
1.90417
1.88714
1.86995
1.85259
1.83507
1.81738
1.79951
1.78148
1.76327
1.74489
1.72633
1.70759
1.68868
1.66959
1.65032
1.63088
1.61126
1.59146
1.57148
1.55134
1.53101
1.51052
1.48985
1.46901
1.44801
1.42684
1.40551
1.38401
1.36236
1.34055
1.31858
1.29647
1.2742
1.25179
1.22923
1.20653
1.18369
1.16072
1.1376
1.11436
1.09097
1.06746
1.04381
1.02003
0.996113
0.97206
0.947867
0.923531
0.899045
0.874405
0.849601
0.824624
0.799462
0.774101
0.748523
0.722703
0.696611
0.670218
0.64348
0.616356
0.588803
0.560748
0.532113
0.502799
0.472679
0.441594
0.409348
0.375697
0.340275
0.302548
0.26164
0.215765
0.159504
0.0679872
0.136039
0.322186
0.441113
0.542696
0.635863
0.72374
0.8077
0.888416
0.966371
1.04193
1.11534
1.18679
1.25642
1.32435
1.39063
1.45533
1.51848
1.58008
1.64015
1.69869
1.75566
1.81107
1.86489
1.91709
1.96765
2.01655
2.06376
2.10926
2.15303
2.19506
2.23533
2.27383
2.31056
2.34551
2.3787
2.41012
2.43979
2.46772
2.49394
2.51845
2.54129
2.56249
2.58208
2.60008
2.61655
2.63151
2.64502
2.65712
2.66786
2.67727
2.6854
2.6923
2.69802
2.70261
2.70611
2.70857
2.71004
2.71057
2.7102
2.70897
2.70694
2.70414
2.70061
2.6964
2.69154
2.68607
2.68003
2.67345
2.66637
2.65881
2.65081
2.6424
2.6336
2.62443
2.61493
2.60511
2.595
2.58461
2.57397
2.56309
2.55199
2.54069
2.52919
2.5175
2.50566
2.49365
2.48149
2.46919
2.45676
2.44421
2.43153
2.41875
2.40585
2.39284
2.37974
2.36653
2.35322
2.33982
2.32633
2.31273
2.29905
2.28527
2.27139
2.25742
2.24335
2.22918
2.21491
2.20053
2.18605
2.17146
2.15677
2.14196
2.12703
2.11198
2.09682
2.08152
2.0661
2.05055
2.03486
2.01904
2.00308
1.98697
1.97071
1.95431
1.93775
1.92104
1.90417
1.88714
1.86995
1.85259
1.83507
1.81738
1.79951
1.78148
1.76327
1.74489
1.72633
1.70759
1.68868
1.66959
1.65032
1.63088
1.61126
1.59146
1.57148
1.55133
1.53101
1.51052
1.48985
1.46901
1.44801
1.42684
1.40551
1.38401
1.36236
1.34055
1.31858
1.29647
1.2742
1.25179
1.22923
1.20653
1.18369
1.16072
1.1376
1.11436
1.09097
1.06746
1.04381
1.02003
0.996113
0.97206
0.947867
0.92353
0.899045
0.874404
0.8496
0.824623
0.799461
0.7741
0.748522
0.722703
0.696611
0.670217
0.64348
0.616356
0.588802
0.560748
0.532113
0.502799
0.472679
0.441594
0.409348
0.375697
0.340275
0.302548
0.26164
0.215765
0.159504
0.0679868
0.174148
0.40394
0.542153
0.656583
0.760992
0.859622
0.954149
1.04538
1.13378
1.21967
1.30326
1.38471
1.46414
1.54165
1.61731
1.69114
1.7632
1.83348
1.90201
1.96876
2.03374
2.09692
2.15828
2.2178
2.27545
2.33121
2.38506
2.43696
2.4869
2.53486
2.58083
2.6248
2.66676
2.70671
2.74464
2.78057
2.81451
2.84648
2.87648
2.90455
2.93071
2.955
2.97744
2.99808
3.01696
3.03412
3.04961
3.06348
3.07577
3.08655
3.09585
3.10374
3.11026
3.11547
3.11943
3.12218
3.12379
3.1243
3.12377
3.12225
3.11978
3.11643
3.11224
3.10725
3.1015
3.09505
3.08794
3.0802
3.07187
3.06299
3.05359
3.04371
3.03339
3.02264
3.0115
2.99999
2.98815
2.97599
2.96353
2.9508
2.93781
2.92459
2.91114
2.89749
2.88364
2.86961
2.85542
2.84106
2.82656
2.81191
2.79713
2.78222
2.76718
2.75203
2.73676
2.72139
2.7059
2.69031
2.67461
2.65881
2.6429
2.62689
2.61077
2.59455
2.57822
2.56178
2.54523
2.52857
2.51179
2.49489
2.47787
2.46072
2.44345
2.42604
2.4085
2.39083
2.37301
2.35504
2.33693
2.31866
2.30024
2.28166
2.26291
2.244
2.22492
2.20567
2.18624
2.16663
2.14685
2.12687
2.10672
2.08637
2.06583
2.0451
2.02418
2.00307
1.98175
1.96024
1.93853
1.91663
1.89452
1.87222
1.84972
1.82702
1.80413
1.78104
1.75775
1.73427
1.71061
1.68675
1.6627
1.63847
1.61405
1.58946
1.56468
1.53973
1.51461
1.48932
1.46386
1.43824
1.41246
1.38651
1.36041
1.33416
1.30775
1.28119
1.25449
1.22763
1.20063
1.17347
1.14617
1.11871
1.0911
1.06333
1.0354
1.00729
0.979008
0.950533
0.921856
0.89296
0.863828
0.834435
0.804752
0.774748
0.744382
0.71361
0.682377
0.650612
0.618249
0.585183
0.551292
0.516418
0.480353
0.442848
0.403517
0.361757
0.316486
0.265285
0.200595
0.0882969
0.174148
0.403941
0.542153
0.656583
0.760992
0.859622
0.954149
1.04538
1.13378
1.21967
1.30326
1.38471
1.46414
1.54165
1.6173
1.69114
1.7632
1.83348
1.90201
1.96876
2.03374
2.09692
2.15828
2.2178
2.27545
2.33121
2.38506
2.43696
2.4869
2.53486
2.58083
2.6248
2.66676
2.70671
2.74464
2.78057
2.81451
2.84648
2.87648
2.90455
2.93071
2.955
2.97744
2.99808
3.01696
3.03412
3.04961
3.06348
3.07577
3.08655
3.09585
3.10374
3.11026
3.11547
3.11943
3.12218
3.12379
3.1243
3.12377
3.12225
3.11978
3.11643
3.11224
3.10725
3.1015
3.09505
3.08794
3.08019
3.07187
3.06299
3.05359
3.04371
3.03339
3.02264
3.0115
2.99999
2.98815
2.97599
2.96353
2.9508
2.93781
2.92459
2.91114
2.89749
2.88364
2.86961
2.85542
2.84106
2.82656
2.81191
2.79713
2.78221
2.76718
2.75203
2.73676
2.72139
2.7059
2.69031
2.67461
2.65881
2.6429
2.62689
2.61077
2.59455
2.57822
2.56178
2.54523
2.52857
2.51179
2.49489
2.47787
2.46072
2.44345
2.42604
2.4085
2.39083
2.37301
2.35504
2.33693
2.31866
2.30024
2.28166
2.26291
2.244
2.22492
2.20567
2.18624
2.16663
2.14685
2.12687
2.10672
2.08637
2.06583
2.0451
2.02418
2.00307
1.98175
1.96024
1.93853
1.91663
1.89452
1.87222
1.84972
1.82702
1.80413
1.78104
1.75775
1.73427
1.71061
1.68675
1.6627
1.63847
1.61405
1.58946
1.56468
1.53973
1.51461
1.48932
1.46386
1.43824
1.41246
1.38651
1.36041
1.33416
1.30775
1.28119
1.25449
1.22763
1.20063
1.17347
1.14617
1.11871
1.0911
1.06333
1.0354
1.00729
0.979008
0.950533
0.921856
0.89296
0.863828
0.834435
0.804752
0.774748
0.744382
0.71361
0.682377
0.650612
0.618248
0.585183
0.551292
0.516418
0.480353
0.442848
0.403517
0.361757
0.316486
0.265285
0.200595
0.0882967
0.20868
0.477316
0.634021
0.760445
0.874748
0.982407
1.08558
1.18526
1.28196
1.37601
1.4676
1.55688
1.64394
1.72887
1.81172
1.89254
1.97137
2.0482
2.12307
2.19596
2.26686
2.33577
2.40268
2.46755
2.53037
2.59112
2.64978
2.70632
2.76074
2.813
2.8631
2.91103
2.95678
3.00035
3.04174
3.08096
3.11803
3.15294
3.18574
3.21643
3.24505
3.27163
3.2962
3.31881
3.3395
3.35831
3.3753
3.39051
3.404
3.41582
3.42602
3.43467
3.44181
3.44751
3.45183
3.45482
3.45654
3.45705
3.45641
3.45467
3.45188
3.44811
3.44341
3.43781
3.43139
3.42417
3.41622
3.40756
3.39826
3.38834
3.37784
3.36681
3.35527
3.34327
3.33083
3.31799
3.30476
3.29118
3.27727
3.26306
3.24856
3.2338
3.21879
3.20356
3.18811
3.17246
3.15662
3.14061
3.12443
3.1081
3.09162
3.075
3.05824
3.04136
3.02435
3.00722
2.98998
2.97262
2.95515
2.93756
2.91986
2.90205
2.88413
2.8661
2.84795
2.82968
2.81129
2.79279
2.77416
2.7554
2.73651
2.71749
2.69833
2.67904
2.65959
2.64
2.62026
2.60037
2.58031
2.56009
2.5397
2.51914
2.49841
2.4775
2.45641
2.43513
2.41366
2.392
2.37015
2.3481
2.32585
2.3034
2.28074
2.25787
2.2348
2.21152
2.18802
2.16432
2.1404
2.11626
2.09192
2.06735
2.04258
2.01759
1.99239
1.96698
1.94136
1.91553
1.88949
1.86325
1.83681
1.81016
1.78332
1.75628
1.72905
1.70162
1.67402
1.64622
1.61825
1.5901
1.56177
1.53327
1.5046
1.47576
1.44675
1.41759
1.38826
1.35876
1.32911
1.2993
1.26932
1.23918
1.20887
1.1784
1.14774
1.11691
1.08588
1.05465
1.02321
0.991538
0.95962
0.927432
0.894947
0.862133
0.828953
0.795362
0.761306
0.726722
0.691532
0.655638
0.618918
0.581221
0.542331
0.501963
0.4597
0.414826
0.365994
0.310122
0.237666
0.106296
0.208681
0.477316
0.634021
0.760445
0.874748
0.982407
1.08558
1.18525
1.28196
1.37601
1.4676
1.55688
1.64394
1.72887
1.81172
1.89254
1.97137
2.0482
2.12307
2.19596
2.26686
2.33577
2.40268
2.46755
2.53037
2.59112
2.64978
2.70632
2.76074
2.813
2.8631
2.91103
2.95678
3.00035
3.04174
3.08096
3.11803
3.15294
3.18574
3.21643
3.24505
3.27163
3.2962
3.31881
3.3395
3.35831
3.3753
3.39051
3.404
3.41582
3.42602
3.43467
3.44181
3.44751
3.45183
3.45482
3.45654
3.45705
3.45641
3.45467
3.45188
3.44811
3.44341
3.43781
3.43139
3.42417
3.41622
3.40756
3.39826
3.38834
3.37784
3.36681
3.35527
3.34327
3.33083
3.31798
3.30476
3.29118
3.27727
3.26306
3.24856
3.2338
3.21879
3.20356
3.18811
3.17246
3.15662
3.14061
3.12443
3.1081
3.09162
3.075
3.05824
3.04136
3.02435
3.00722
2.98998
2.97262
2.95515
2.93756
2.91986
2.90205
2.88413
2.8661
2.84795
2.82968
2.81129
2.79279
2.77416
2.7554
2.73651
2.71749
2.69833
2.67903
2.65959
2.64
2.62026
2.60036
2.58031
2.56009
2.5397
2.51914
2.49841
2.4775
2.45641
2.43513
2.41366
2.392
2.37015
2.3481
2.32585
2.3034
2.28074
2.25787
2.2348
2.21152
2.18802
2.16432
2.1404
2.11626
2.09192
2.06735
2.04258
2.01759
1.99239
1.96698
1.94136
1.91553
1.88949
1.86325
1.83681
1.81016
1.78332
1.75628
1.72905
1.70162
1.67402
1.64622
1.61825
1.5901
1.56177
1.53327
1.5046
1.47576
1.44675
1.41759
1.38826
1.35876
1.32911
1.2993
1.26932
1.23918
1.20887
1.1784
1.14774
1.11691
1.08588
1.05465
1.02321
0.991538
0.95962
0.927432
0.894947
0.862133
0.828953
0.795361
0.761306
0.726722
0.691532
0.655638
0.618918
0.581221
0.542331
0.501963
0.4597
0.414826
0.365994
0.310122
0.237666
0.106296
0.240299
0.545912
0.720449
0.858801
0.982629
1.09868
1.20964
1.31675
1.42063
1.52164
1.61998
1.71579
1.80917
1.90018
1.98889
2.07534
2.15956
2.24158
2.32141
2.39906
2.47454
2.54784
2.61895
2.68786
2.75457
2.81905
2.88129
2.94128
2.999
3.05444
3.10759
3.15845
3.20701
3.25327
3.29723
3.3389
3.3783
3.41543
3.45033
3.483
3.51349
3.54182
3.56803
3.59216
3.61425
3.63435
3.65251
3.66878
3.68322
3.69588
3.70681
3.71608
3.72374
3.72985
3.73448
3.73768
3.73953
3.74007
3.73936
3.73747
3.73446
3.73038
3.72529
3.71924
3.71228
3.70447
3.69585
3.68648
3.67639
3.66564
3.65426
3.6423
3.62979
3.61677
3.60328
3.58933
3.57498
3.56024
3.54514
3.52971
3.51397
3.49794
3.48164
3.46509
3.44831
3.43131
3.41411
3.39672
3.37915
3.36141
3.34351
3.32546
3.30726
3.28893
3.27047
3.25187
3.23315
3.21431
3.19535
3.17626
3.15706
3.13774
3.1183
3.09874
3.07906
3.05926
3.03933
3.01927
2.99909
2.97877
2.95831
2.93771
2.91697
2.89608
2.87504
2.85385
2.83249
2.81097
2.78929
2.76743
2.74539
2.72318
2.70078
2.67819
2.65541
2.63244
2.60926
2.58589
2.5623
2.53851
2.51451
2.4903
2.46587
2.44122
2.41635
2.39125
2.36594
2.3404
2.31463
2.28864
2.26242
2.23597
2.2093
2.1824
2.15528
2.12793
2.10036
2.07256
2.04455
2.01632
1.98787
1.95921
1.93034
1.90126
1.87197
1.84248
1.81279
1.78291
1.75282
1.72255
1.69209
1.66145
1.63062
1.59961
1.56842
1.53706
1.50553
1.47382
1.44193
1.40988
1.37765
1.34524
1.31266
1.2799
1.24695
1.21381
1.18047
1.14692
1.11314
1.07914
1.04487
1.01034
0.975501
0.940334
0.904801
0.86886
0.832459
0.795536
0.758014
0.719796
0.680759
0.640738
0.599506
0.556741
0.511963
0.464322
0.412192
0.35185
0.271965
0.122778
0.240299
0.545912
0.720449
0.858801
0.982629
1.09868
1.20964
1.31675
1.42063
1.52164
1.61998
1.71579
1.80917
1.90018
1.98889
2.07534
2.15956
2.24158
2.32141
2.39906
2.47454
2.54784
2.61895
2.68786
2.75457
2.81905
2.88129
2.94128
2.999
3.05444
3.10759
3.15845
3.20701
3.25327
3.29723
3.3389
3.3783
3.41543
3.45033
3.483
3.51349
3.54182
3.56803
3.59216
3.61425
3.63435
3.65251
3.66878
3.68322
3.69588
3.70681
3.71607
3.72373
3.72985
3.73448
3.73768
3.73953
3.74006
3.73936
3.73747
3.73446
3.73038
3.72529
3.71923
3.71228
3.70447
3.69585
3.68648
3.67639
3.66564
3.65426
3.6423
3.62979
3.61677
3.60327
3.58933
3.57498
3.56024
3.54514
3.52971
3.51397
3.49794
3.48164
3.46509
3.44831
3.43131
3.41411
3.39672
3.37915
3.36141
3.34351
3.32546
3.30726
3.28893
3.27047
3.25187
3.23315
3.21431
3.19535
3.17626
3.15706
3.13774
3.1183
3.09874
3.07906
3.05926
3.03933
3.01927
2.99909
2.97877
2.95831
2.93771
2.91697
2.89608
2.87504
2.85385
2.83249
2.81097
2.78929
2.76743
2.74539
2.72318
2.70078
2.67819
2.65541
2.63244
2.60926
2.58589
2.5623
2.53851
2.51451
2.4903
2.46587
2.44122
2.41634
2.39125
2.36594
2.3404
2.31463
2.28864
2.26242
2.23597
2.2093
2.1824
2.15528
2.12793
2.10036
2.07256
2.04455
2.01632
1.98787
1.95921
1.93034
1.90126
1.87197
1.84248
1.81279
1.78291
1.75282
1.72255
1.69209
1.66145
1.63062
1.59961
1.56842
1.53706
1.50553
1.47382
1.44193
1.40988
1.37765
1.34524
1.31266
1.2799
1.24695
1.21381
1.18047
1.14692
1.11314
1.07914
1.04487
1.01034
0.975501
0.940334
0.904801
0.86886
0.832459
0.795536
0.758014
0.719796
0.680759
0.640738
0.599506
0.556741
0.511963
0.464322
0.412192
0.35185
0.271965
0.122778
0.270095
0.611503
0.803438
0.953668
1.08691
1.21108
1.3294
1.44338
1.55376
1.66097
1.76523
1.8667
1.96548
2.06164
2.15524
2.24633
2.33496
2.42116
2.50495
2.58636
2.6654
2.74207
2.81639
2.88836
2.95798
3.02524
3.09013
3.15265
3.2128
3.27057
3.32596
3.37895
3.42956
3.47779
3.52363
3.56711
3.60823
3.64701
3.68347
3.71764
3.74954
3.7792
3.80666
3.83196
3.85514
3.87625
3.89534
3.91246
3.92766
3.941
3.95253
3.96232
3.97042
3.9769
3.98181
3.98523
3.9872
3.9878
3.98708
3.98511
3.98195
3.97765
3.97228
3.96589
3.95853
3.95026
3.94114
3.9312
3.9205
3.90909
3.89701
3.8843
3.87101
3.85716
3.84281
3.82797
3.81269
3.797
3.78091
3.76447
3.7477
3.73062
3.71324
3.6956
3.6777
3.65957
3.64123
3.62267
3.60393
3.585
3.56591
3.54665
3.52723
3.50767
3.48797
3.46812
3.44815
3.42804
3.40781
3.38745
3.36697
3.34636
3.32562
3.30476
3.28377
3.26266
3.24141
3.22002
3.19851
3.17685
3.15505
3.1331
3.111
3.08875
3.06634
3.04377
3.02103
2.99812
2.97504
2.95177
2.92832
2.90469
2.88086
2.85684
2.83261
2.80819
2.78355
2.7587
2.73364
2.70836
2.68286
2.65714
2.63119
2.60501
2.5786
2.55196
2.52508
2.49797
2.47062
2.44303
2.41521
2.38715
2.35885
2.33031
2.30154
2.27253
2.24328
2.21381
2.1841
2.15415
2.12399
2.09359
2.06297
2.03213
2.00107
1.9698
1.93831
1.90662
1.87472
1.84261
1.8103
1.7778
1.7451
1.7122
1.67912
1.64585
1.61239
1.57874
1.54491
1.5109
1.4767
1.44232
1.40774
1.37298
1.33801
1.30285
1.26748
1.23189
1.19607
1.16001
1.12369
1.08709
1.0502
1.01297
0.975376
0.93738
0.89893
0.859964
0.820404
0.780152
0.739079
0.697008
0.653691
0.608761
0.561647
0.511364
0.456019
0.391291
0.304211
0.138165
0.270095
0.611503
0.803438
0.953668
1.08691
1.21108
1.3294
1.44338
1.55376
1.66097
1.76523
1.8667
1.96548
2.06164
2.15524
2.24633
2.33496
2.42116
2.50495
2.58636
2.6654
2.74207
2.81639
2.88836
2.95798
3.02524
3.09013
3.15265
3.2128
3.27057
3.32596
3.37895
3.42956
3.47779
3.52363
3.56711
3.60823
3.64701
3.68347
3.71764
3.74953
3.7792
3.80666
3.83196
3.85514
3.87625
3.89534
3.91246
3.92766
3.941
3.95253
3.96232
3.97042
3.9769
3.98181
3.98523
3.9872
3.9878
3.98708
3.98511
3.98195
3.97765
3.97228
3.96589
3.95853
3.95026
3.94114
3.9312
3.9205
3.90909
3.89701
3.8843
3.87101
3.85716
3.8428
3.82797
3.81269
3.79699
3.78091
3.76447
3.7477
3.73062
3.71324
3.6956
3.6777
3.65957
3.64123
3.62267
3.60393
3.585
3.56591
3.54665
3.52723
3.50767
3.48797
3.46812
3.44815
3.42804
3.40781
3.38745
3.36697
3.34636
3.32562
3.30476
3.28377
3.26266
3.24141
3.22002
3.19851
3.17685
3.15505
3.1331
3.111
3.08875
3.06634
3.04377
3.02103
2.99812
2.97504
2.95177
2.92832
2.90469
2.88086
2.85684
2.83261
2.80819
2.78355
2.7587
2.73364
2.70836
2.68286
2.65714
2.63119
2.60501
2.5786
2.55195
2.52508
2.49797
2.47062
2.44303
2.41521
2.38715
2.35885
2.33031
2.30154
2.27253
2.24328
2.21381
2.18409
2.15415
2.12398
2.09359
2.06297
2.03213
2.00107
1.9698
1.93831
1.90662
1.87472
1.84261
1.8103
1.7778
1.7451
1.7122
1.67912
1.64585
1.61239
1.57874
1.54491
1.5109
1.4767
1.44232
1.40774
1.37297
1.33801
1.30285
1.26748
1.23189
1.19607
1.16001
1.12369
1.08709
1.05019
1.01297
0.975376
0.93738
0.89893
0.859964
0.820404
0.780152
0.739079
0.697008
0.653691
0.608761
0.561647
0.511365
0.456019
0.391291
0.304211
0.138165
0.299022
0.674835
0.884049
1.04613
1.18875
1.3209
1.44632
1.56679
1.68321
1.79608
1.90566
2.01213
2.11562
2.2162
2.31395
2.40893
2.50119
2.59078
2.67773
2.76209
2.84389
2.92314
2.99988
3.07412
3.14587
3.21513
3.28193
3.34626
3.40812
3.46753
3.52448
3.57897
3.63102
3.68062
3.7278
3.77255
3.8149
3.85486
3.89245
3.9277
3.96063
3.99128
4.01968
4.04587
4.06988
4.09178
4.11159
4.12938
4.1452
4.15909
4.17112
4.18135
4.18983
4.19663
4.20181
4.20543
4.20755
4.20823
4.20755
4.20556
4.20231
4.19788
4.19232
4.18569
4.17805
4.16944
4.15993
4.14957
4.1384
4.12648
4.11385
4.10055
4.08663
4.07213
4.05708
4.04152
4.02549
4.00902
3.99213
3.97486
3.95724
3.93928
3.92102
3.90246
3.88364
3.86456
3.84525
3.82573
3.80599
3.78606
3.76595
3.74567
3.72522
3.70462
3.68386
3.66296
3.64191
3.62073
3.59941
3.57796
3.55638
3.53466
3.51282
3.49084
3.46873
3.44648
3.4241
3.40157
3.37891
3.3561
3.33314
3.31003
3.28676
3.26333
3.23974
3.21598
3.19205
3.16794
3.14365
3.11917
3.0945
3.06964
3.04458
3.01931
2.99384
2.96816
2.94226
2.91614
2.88979
2.86322
2.83643
2.8094
2.78213
2.75463
2.72688
2.6989
2.67067
2.6422
2.61348
2.58451
2.55529
2.52583
2.49612
2.46616
2.43595
2.40549
2.37479
2.34384
2.31265
2.28122
2.24954
2.21763
2.18548
2.1531
2.12049
2.08765
2.05459
2.0213
1.98779
1.95407
1.92013
1.88598
1.85162
1.81706
1.78229
1.74732
1.71215
1.67678
1.64121
1.60545
1.56948
1.53332
1.49696
1.4604
1.42363
1.38664
1.34944
1.31201
1.27435
1.23644
1.19827
1.15981
1.12105
1.08196
1.04251
1.00266
0.962351
0.921531
0.880117
0.838007
0.795061
0.751087
0.705808
0.658812
0.609436
0.556563
0.498031
0.428965
0.334878
0.152718
0.299022
0.674835
0.884049
1.04613
1.18875
1.3209
1.44632
1.56679
1.68321
1.79608
1.90566
2.01213
2.11562
2.2162
2.31395
2.40893
2.50119
2.59078
2.67773
2.76209
2.84389
2.92314
2.99988
3.07412
3.14586
3.21513
3.28193
3.34626
3.40812
3.46753
3.52447
3.57897
3.63102
3.68062
3.7278
3.77255
3.8149
3.85486
3.89245
3.9277
3.96063
3.99128
4.01968
4.04587
4.06988
4.09178
4.11159
4.12938
4.1452
4.15909
4.17112
4.18135
4.18983
4.19663
4.20181
4.20543
4.20755
4.20823
4.20755
4.20556
4.20231
4.19788
4.19232
4.18569
4.17805
4.16944
4.15993
4.14957
4.1384
4.12648
4.11385
4.10055
4.08663
4.07213
4.05708
4.04152
4.02549
4.00902
3.99213
3.97486
3.95724
3.93928
3.92101
3.90246
3.88364
3.86456
3.84525
3.82573
3.80599
3.78606
3.76595
3.74567
3.72522
3.70462
3.68386
3.66296
3.64191
3.62073
3.59941
3.57796
3.55638
3.53466
3.51282
3.49084
3.46873
3.44648
3.4241
3.40157
3.37891
3.3561
3.33314
3.31003
3.28676
3.26333
3.23974
3.21598
3.19205
3.16794
3.14365
3.11917
3.0945
3.06964
3.04458
3.01931
2.99384
2.96816
2.94226
2.91614
2.88979
2.86322
2.83643
2.8094
2.78213
2.75463
2.72688
2.6989
2.67067
2.6422
2.61348
2.58451
2.55529
2.52583
2.49612
2.46616
2.43595
2.40549
2.37479
2.34384
2.31265
2.28122
2.24954
2.21763
2.18548
2.1531
2.12049
2.08765
2.05459
2.0213
1.98779
1.95407
1.92013
1.88598
1.85162
1.81706
1.78229
1.74732
1.71215
1.67678
1.64121
1.60545
1.56948
1.53332
1.49696
1.4604
1.42363
1.38664
1.34944
1.31201
1.27435
1.23644
1.19827
1.15981
1.12105
1.08196
1.04251
1.00266
0.96235
0.921531
0.880117
0.838007
0.795061
0.751087
0.705808
0.658812
0.609436
0.556564
0.498031
0.428965
0.334878
0.152718
0.327813
0.736835
0.963028
1.13687
1.2888
1.42882
1.56115
1.68784
1.80995
1.92804
2.04246
2.15342
2.26105
2.36547
2.46676
2.56499
2.66024
2.75256
2.84202
2.92867
3.01255
3.09372
3.17222
3.24807
3.3213
3.39194
3.46002
3.52554
3.58853
3.64899
3.70694
3.7624
3.81537
3.86587
3.9139
3.95948
4.00264
4.04338
4.08174
4.11773
4.15138
4.18272
4.21179
4.23862
4.26326
4.28574
4.30611
4.32442
4.34072
4.35506
4.3675
4.3781
4.38691
4.394
4.39942
4.40324
4.40552
4.40632
4.40571
4.40374
4.40048
4.39598
4.39032
4.38354
4.3757
4.36687
4.35709
4.34642
4.33491
4.3226
4.30955
4.29581
4.2814
4.26639
4.2508
4.23467
4.21804
4.20095
4.18341
4.16548
4.14716
4.12849
4.10949
4.09019
4.0706
4.05074
4.03064
4.0103
3.98974
3.96897
3.94801
3.92687
3.90555
3.88407
3.86242
3.84062
3.81867
3.79657
3.77433
3.75195
3.72943
3.70677
3.68397
3.66104
3.63797
3.61475
3.59139
3.56789
3.54424
3.52044
3.49649
3.47237
3.4481
3.42366
3.39905
3.37426
3.3493
3.32415
3.29882
3.27329
3.24757
3.22165
3.19552
3.16918
3.14262
3.11585
3.08885
3.06163
3.03418
3.00649
2.97857
2.9504
2.92199
2.89334
2.86444
2.83528
2.80588
2.77622
2.7463
2.71613
2.6857
2.65501
2.62406
2.59285
2.56139
2.52966
2.49768
2.46544
2.43295
2.4002
2.3672
2.33395
2.30046
2.26671
2.23272
2.19849
2.16403
2.12932
2.09438
2.05922
2.02382
1.9882
1.95235
1.91628
1.88
1.8435
1.80678
1.76985
1.73271
1.69536
1.6578
1.62002
1.58203
1.54382
1.5054
1.46675
1.42787
1.38876
1.3494
1.30979
1.26991
1.22974
1.18926
1.14845
1.10728
1.0657
1.02367
0.981122
0.937972
0.894109
0.849384
0.803584
0.756404
0.707378
0.655763
0.600296
0.538574
0.465207
0.364294
0.166685
0.327813
0.736835
0.963028
1.13687
1.2888
1.42882
1.56115
1.68784
1.80995
1.92804
2.04246
2.15342
2.26105
2.36547
2.46676
2.56499
2.66024
2.75256
2.84202
2.92867
3.01255
3.09372
3.17222
3.24806
3.3213
3.39194
3.46001
3.52554
3.58852
3.64899
3.70694
3.7624
3.81537
3.86586
3.9139
3.95948
4.00264
4.04338
4.08174
4.11773
4.15138
4.18272
4.21179
4.23862
4.26326
4.28574
4.30611
4.32442
4.34072
4.35506
4.3675
4.3781
4.38691
4.394
4.39942
4.40324
4.40552
4.40632
4.40571
4.40374
4.40047
4.39598
4.39032
4.38354
4.3757
4.36687
4.35709
4.34642
4.33491
4.3226
4.30955
4.29581
4.2814
4.26639
4.2508
4.23467
4.21804
4.20095
4.18341
4.16548
4.14716
4.12849
4.10949
4.09019
4.0706
4.05074
4.03064
4.0103
3.98974
3.96897
3.94801
3.92687
3.90555
3.88406
3.86242
3.84062
3.81866
3.79657
3.77433
3.75195
3.72943
3.70677
3.68397
3.66104
3.63797
3.61475
3.59139
3.56789
3.54424
3.52044
3.49649
3.47237
3.4481
3.42366
3.39905
3.37426
3.3493
3.32415
3.29882
3.27329
3.24757
3.22165
3.19552
3.16918
3.14262
3.11585
3.08885
3.06163
3.03418
3.00649
2.97857
2.9504
2.92199
2.89334
2.86444
2.83528
2.80588
2.77622
2.7463
2.71613
2.6857
2.65501
2.62406
2.59285
2.56139
2.52966
2.49768
2.46544
2.43295
2.4002
2.3672
2.33395
2.30046
2.26671
2.23272
2.19849
2.16403
2.12932
2.09438
2.05922
2.02382
1.9882
1.95235
1.91628
1.88
1.8435
1.80678
1.76985
1.73271
1.69536
1.6578
1.62002
1.58203
1.54382
1.5054
1.46675
1.42787
1.38876
1.3494
1.30979
1.26991
1.22974
1.18926
1.14845
1.10728
1.0657
1.02367
0.981122
0.937972
0.894109
0.849384
0.803584
0.756404
0.707378
0.655763
0.600296
0.538574
0.465207
0.364294
0.166685
0.356099
0.797864
1.04082
1.22633
1.38749
1.53526
1.67434
1.80701
1.93449
2.05746
2.17631
2.2913
2.40261