/*--------------------------------*- C++ -*----------------------------------*\
  =========                 |
  \\      /  F ield         | OpenFOAM: The Open Source CFD Toolbox
   \\    /   O peration     | Website:  https://openfoam.org
    \\  /    A nd           | Version:  8
     \\/     M anipulation  |
\*---------------------------------------------------------------------------*/
FoamFile
{
    version     2.0;
    format      ascii;
    class       volScalarField;
    location    "5000";
    object      nut;
}
// * * * * * * * * * * * * * * * * * * * * * * * * * * * * * * * * * * * * * //

dimensions      [0 2 -1 0 0 0 0];

internalField   nonuniform List<scalar> 
48000
(
5.51588e-05
9.64553e-05
0.000119483
0.000136366
0.000150396
0.000162323
0.000172688
0.000181885
0.000190242
0.000198062
0.00020529
0.000212058
0.000218422
0.00022443
0.000230119
0.000235519
0.000240655
0.000245547
0.000250211
0.000254659
0.000258904
0.000262956
0.000266822
0.000270509
0.000274025
0.000277375
0.000280564
0.000283597
0.000286479
0.000289213
0.000291804
0.000294256
0.000296573
0.000298757
0.000300814
0.000302746
0.000304557
0.00030625
0.00030783
0.000309299
0.000310661
0.000311919
0.000313076
0.000314136
0.000315102
0.00031598
0.00031679
0.000317518
0.000318164
0.000318731
0.000319223
0.000319643
0.000319994
0.000320279
0.000320502
0.000320664
0.00032077
0.000320821
0.000320821
0.000320772
0.000320677
0.000320537
0.000320356
0.000320134
0.000319876
0.000319582
0.000319254
0.000318895
0.000318506
0.000318088
0.000317644
0.000317175
0.000316683
0.000316167
0.000315631
0.000315075
0.0003145
0.000313908
0.000313298
0.000312673
0.000312032
0.000311378
0.00031071
0.000310028
0.000309335
0.00030863
0.000307913
0.000307185
0.000306447
0.000305698
0.00030494
0.000304172
0.000303394
0.000302607
0.000301811
0.000301005
0.00030019
0.000299366
0.000298533
0.000297691
0.00029684
0.000295979
0.000295108
0.000294228
0.000293338
0.000292438
0.000291528
0.000290607
0.000289676
0.000288733
0.000287779
0.000286814
0.000285837
0.000284847
0.000283845
0.00028283
0.000281802
0.00028076
0.000279704
0.000278634
0.000277549
0.000276449
0.000275334
0.000274203
0.000273055
0.00027189
0.000270709
0.00026951
0.000268293
0.000267057
0.000265803
0.00026453
0.000263237
0.000261924
0.000260591
0.000259237
0.000257862
0.000256465
0.000255047
0.000253605
0.000252141
0.000250654
0.000249143
0.000247608
0.000246049
0.000244465
0.000242856
0.000241221
0.00023956
0.000237873
0.000236159
0.000234417
0.000232648
0.00023085
0.000229024
0.000227169
0.000225284
0.000223369
0.000221423
0.000219446
0.000217437
0.000215395
0.00021332
0.000211211
0.000209066
0.000206885
0.000204668
0.000202412
0.000200117
0.00019778
0.000195402
0.000192979
0.000190509
0.000187992
0.000185423
0.0001828
0.000180121
0.000177381
0.000174578
0.00017171
0.000168787
0.000165793
0.000162708
0.00015952
0.000156218
0.000152787
0.000149208
0.000145461
0.000141518
0.000137341
0.000132885
0.00012812
0.000122964
0.000117281
0.000110895
0.000103523
9.46637e-05
8.33552e-05
6.74847e-05
5.44604e-05
5.51591e-05
9.64555e-05
0.000119484
0.000136366
0.000150396
0.000162324
0.000172689
0.000181885
0.000190243
0.000198062
0.00020529
0.000212058
0.000218422
0.00022443
0.000230119
0.000235519
0.000240655
0.000245547
0.000250211
0.000254659
0.000258904
0.000262956
0.000266822
0.00027051
0.000274025
0.000277375
0.000280564
0.000283597
0.000286479
0.000289213
0.000291804
0.000294256
0.000296573
0.000298757
0.000300814
0.000302746
0.000304557
0.00030625
0.00030783
0.000309299
0.000310661
0.000311919
0.000313076
0.000314136
0.000315102
0.00031598
0.00031679
0.000317518
0.000318164
0.000318731
0.000319223
0.000319643
0.000319994
0.000320279
0.000320502
0.000320664
0.00032077
0.000320821
0.000320821
0.000320772
0.000320677
0.000320537
0.000320356
0.000320134
0.000319876
0.000319582
0.000319254
0.000318895
0.000318506
0.000318088
0.000317644
0.000317175
0.000316683
0.000316167
0.000315631
0.000315075
0.0003145
0.000313908
0.000313298
0.000312673
0.000312032
0.000311378
0.00031071
0.000310028
0.000309335
0.00030863
0.000307913
0.000307185
0.000306447
0.000305698
0.00030494
0.000304172
0.000303394
0.000302607
0.000301811
0.000301005
0.00030019
0.000299366
0.000298533
0.000297691
0.00029684
0.000295979
0.000295108
0.000294228
0.000293338
0.000292438
0.000291528
0.000290607
0.000289676
0.000288733
0.000287779
0.000286814
0.000285837
0.000284847
0.000283845
0.00028283
0.000281802
0.00028076
0.000279704
0.000278634
0.000277549
0.000276449
0.000275334
0.000274203
0.000273055
0.00027189
0.000270709
0.00026951
0.000268293
0.000267057
0.000265803
0.00026453
0.000263237
0.000261924
0.000260591
0.000259237
0.000257862
0.000256465
0.000255046
0.000253605
0.000252141
0.000250654
0.000249143
0.000247608
0.000246049
0.000244465
0.000242856
0.000241221
0.00023956
0.000237873
0.000236159
0.000234417
0.000232648
0.00023085
0.000229024
0.000227169
0.000225284
0.000223369
0.000221423
0.000219446
0.000217437
0.000215395
0.00021332
0.000211211
0.000209066
0.000206885
0.000204668
0.000202412
0.000200117
0.00019778
0.000195402
0.000192979
0.000190509
0.000187992
0.000185423
0.0001828
0.000180121
0.000177381
0.000174578
0.00017171
0.000168787
0.000165793
0.000162708
0.00015952
0.000156218
0.000152787
0.000149208
0.000145461
0.000141518
0.000137341
0.000132885
0.00012812
0.000122964
0.000117281
0.000110895
0.000103523
9.46641e-05
8.33565e-05
6.74805e-05
5.44616e-05
8.41126e-05
0.000624318
0.000987646
0.00124103
0.001433
0.00158783
0.00172034
0.00183696
0.00194124
0.00203521
0.00212126
0.00220062
0.00227426
0.00234293
0.00240723
0.00246762
0.00252447
0.0025781
0.00262877
0.00267669
0.00272206
0.00276505
0.00280579
0.00284441
0.00288103
0.00291575
0.00294865
0.00297983
0.00300936
0.00303731
0.00306374
0.00308872
0.00311231
0.00313455
0.00315551
0.00317523
0.00319375
0.00321113
0.00322739
0.0032426
0.00325677
0.00326995
0.00328217
0.00329346
0.00330381
0.00331313
0.00332135
0.00332871
0.00333531
0.00334121
0.00334645
0.00335108
0.00335512
0.00335859
0.00336152
0.00336394
0.00336587
0.00336733
0.00336834
0.00336892
0.00336909
0.00336886
0.00336826
0.00336731
0.00336601
0.00336439
0.00336245
0.00336022
0.0033577
0.00335491
0.00335186
0.00334857
0.00334503
0.00334127
0.0033373
0.00333311
0.00332873
0.00332415
0.00331939
0.00331445
0.00330935
0.00330408
0.00329865
0.00329306
0.00328733
0.00328145
0.00327544
0.00326928
0.00326299
0.00325657
0.00325002
0.00324334
0.00323654
0.0032296
0.00322255
0.00321537
0.00320807
0.00320065
0.0031931
0.00318542
0.00317763
0.0031697
0.00316165
0.00315347
0.00314516
0.00313672
0.00312814
0.00311942
0.00311057
0.00310157
0.00309243
0.00308315
0.00307371
0.00306412
0.00305437
0.00304446
0.00303439
0.00302415
0.00301374
0.00300316
0.0029924
0.00298146
0.00297033
0.00295901
0.0029475
0.0029358
0.00292389
0.00291177
0.00289945
0.00288691
0.00287416
0.00286118
0.00284798
0.00283455
0.00282088
0.00280697
0.00279283
0.00277843
0.00276379
0.00274889
0.00273372
0.0027183
0.00270261
0.00268664
0.0026704
0.00265388
0.00263707
0.00261997
0.00260258
0.00258488
0.00256688
0.00254857
0.00252995
0.002511
0.00249173
0.00247212
0.00245218
0.00243188
0.00241124
0.00239023
0.00236885
0.0023471
0.00232495
0.00230241
0.00227945
0.00225608
0.00223226
0.002208
0.00218326
0.00215804
0.00213231
0.00210604
0.00207921
0.00205179
0.00202375
0.00199504
0.00196562
0.00193541
0.00190435
0.00187232
0.00183914
0.00180476
0.00176916
0.00173224
0.00169386
0.00165382
0.00161189
0.00156776
0.00152099
0.00147102
0.00141693
0.00135701
0.00129034
0.00121505
0.00112798
0.00102387
0.000893198
0.000716855
0.00045105
5.91111e-05
8.41127e-05
0.000624322
0.000987651
0.00124104
0.001433
0.00158784
0.00172035
0.00183697
0.00194125
0.00203521
0.00212127
0.00220062
0.00227426
0.00234294
0.00240724
0.00246763
0.00252448
0.00257811
0.00262877
0.0026767
0.00272207
0.00276505
0.00280579
0.00284441
0.00288103
0.00291575
0.00294866
0.00297983
0.00300936
0.00303731
0.00306374
0.00308872
0.00311231
0.00313456
0.00315551
0.00317523
0.00319376
0.00321113
0.0032274
0.0032426
0.00325677
0.00326995
0.00328218
0.00329346
0.00330381
0.00331313
0.00332136
0.00332871
0.00333531
0.00334121
0.00334646
0.00335108
0.00335512
0.00335859
0.00336153
0.00336395
0.00336587
0.00336733
0.00336834
0.00336892
0.00336909
0.00336887
0.00336827
0.00336731
0.00336601
0.00336439
0.00336246
0.00336022
0.00335771
0.00335492
0.00335187
0.00334857
0.00334504
0.00334128
0.0033373
0.00333311
0.00332873
0.00332415
0.00331939
0.00331446
0.00330935
0.00330408
0.00329865
0.00329307
0.00328733
0.00328146
0.00327544
0.00326928
0.003263
0.00325657
0.00325002
0.00324334
0.00323654
0.00322961
0.00322255
0.00321538
0.00320807
0.00320065
0.0031931
0.00318543
0.00317763
0.0031697
0.00316165
0.00315347
0.00314516
0.00313672
0.00312814
0.00311943
0.00311057
0.00310158
0.00309244
0.00308315
0.00307371
0.00306412
0.00305437
0.00304446
0.00303439
0.00302416
0.00301375
0.00300316
0.0029924
0.00298146
0.00297033
0.00295902
0.00294751
0.0029358
0.00292389
0.00291178
0.00289945
0.00288692
0.00287416
0.00286118
0.00284798
0.00283455
0.00282088
0.00280698
0.00279283
0.00277843
0.00276379
0.00274889
0.00273373
0.0027183
0.00270261
0.00268665
0.0026704
0.00265388
0.00263707
0.00261997
0.00260258
0.00258488
0.00256689
0.00254858
0.00252995
0.002511
0.00249173
0.00247212
0.00245218
0.00243188
0.00241124
0.00239023
0.00236885
0.0023471
0.00232495
0.00230241
0.00227946
0.00225608
0.00223227
0.002208
0.00218326
0.00215804
0.00213231
0.00210604
0.00207921
0.0020518
0.00202375
0.00199504
0.00196562
0.00193542
0.00190435
0.00187232
0.00183914
0.00180476
0.00176916
0.00173224
0.00169386
0.00165382
0.00161189
0.00156776
0.00152099
0.00147102
0.00141693
0.00135701
0.00129034
0.00121505
0.00112798
0.00102387
0.00089319
0.000716831
0.000451058
5.91205e-05
0.000103547
0.000947933
0.00168704
0.00224109
0.00267686
0.00303703
0.00334559
0.00361656
0.00385841
0.00407668
0.00427557
0.0044581
0.00462653
0.00478265
0.00492788
0.00506335
0.00519002
0.0053087
0.00542006
0.00552469
0.00562311
0.00571576
0.00580305
0.00588533
0.00596293
0.00603613
0.00610521
0.0061704
0.00623193
0.00628999
0.00634478
0.00639647
0.00644522
0.00649117
0.00653447
0.00657525
0.00661362
0.0066497
0.00668359
0.0067154
0.00674521
0.0067731
0.00679914
0.0068234
0.00684588
0.00686658
0.00688545
0.00690274
0.00691858
0.00693308
0.00694633
0.0069584
0.00696935
0.00697923
0.0069881
0.00699599
0.00700295
0.00700901
0.00701423
0.00701862
0.00702223
0.00702509
0.00702722
0.00702866
0.00702944
0.00702957
0.00702908
0.00702801
0.00702636
0.00702417
0.00702145
0.00701822
0.0070145
0.0070103
0.00700565
0.00700055
0.00699503
0.00698909
0.00698275
0.00697601
0.0069689
0.00696142
0.00695358
0.00694539
0.00693685
0.00692798
0.00691877
0.00690924
0.00689939
0.00688922
0.00687874
0.00686795
0.00685685
0.00684544
0.00683373
0.00682172
0.0068094
0.00679678
0.00678385
0.00677062
0.00675707
0.00674322
0.00672905
0.00671456
0.00669975
0.00668462
0.00666916
0.00665336
0.00663723
0.00662075
0.00660393
0.00658674
0.0065692
0.00655129
0.006533
0.00651433
0.00649527
0.00647582
0.00645596
0.00643569
0.00641501
0.00639389
0.00637234
0.00635035
0.00632791
0.006305
0.00628163
0.00625777
0.00623344
0.0062086
0.00618326
0.0061574
0.00613102
0.00610411
0.00607665
0.00604864
0.00602007
0.00599093
0.0059612
0.00593088
0.00589995
0.00586841
0.00583625
0.00580345
0.00577
0.00573589
0.0057011
0.00566564
0.00562947
0.0055926
0.005555
0.00551666
0.00547757
0.00543771
0.00539706
0.00535561
0.00531333
0.00527022
0.00522623
0.00518137
0.00513559
0.00508888
0.0050412
0.00499253
0.00494282
0.00489206
0.00484019
0.00478717
0.00473296
0.00467749
0.00462072
0.00456257
0.00450296
0.00444181
0.00437903
0.00431449
0.00424806
0.00417958
0.00410885
0.00403564
0.00395968
0.00388072
0.0037985
0.00371267
0.00362275
0.00352818
0.00342826
0.00332204
0.00320834
0.00308554
0.00295141
0.00280284
0.00263603
0.00244621
0.00222566
0.0019626
0.00163831
0.00122244
0.000670795
7.32281e-05
0.000103548
0.000947937
0.00168705
0.00224111
0.00267687
0.00303704
0.0033456
0.00361658
0.00385843
0.00407669
0.00427558
0.00445811
0.00462654
0.00478266
0.00492788
0.00506336
0.00519003
0.00530871
0.00542007
0.0055247
0.00562311
0.00571576
0.00580305
0.00588533
0.00596293
0.00603614
0.00610522
0.00617041
0.00623194
0.00629
0.00634479
0.00639648
0.00644522
0.00649118
0.00653448
0.00657525
0.00661362
0.0066497
0.0066836
0.0067154
0.00674521
0.0067731
0.00679915
0.0068234
0.00684589
0.00686658
0.00688546
0.00690274
0.00691858
0.00693309
0.00694634
0.00695841
0.00696935
0.00697924
0.0069881
0.00699599
0.00700295
0.00700902
0.00701423
0.00701862
0.00702223
0.00702509
0.00702722
0.00702866
0.00702944
0.00702957
0.00702909
0.00702801
0.00702637
0.00702417
0.00702145
0.00701822
0.0070145
0.0070103
0.00700565
0.00700055
0.00699503
0.00698909
0.00698275
0.00697602
0.00696891
0.00696142
0.00695358
0.00694539
0.00693685
0.00692798
0.00691877
0.00690924
0.00689939
0.00688922
0.00687874
0.00686795
0.00685685
0.00684544
0.00683374
0.00682172
0.0068094
0.00679678
0.00678385
0.00677062
0.00675707
0.00674322
0.00672905
0.00671456
0.00669975
0.00668462
0.00666916
0.00665336
0.00663723
0.00662075
0.00660393
0.00658674
0.0065692
0.00655129
0.006533
0.00651433
0.00649527
0.00647582
0.00645596
0.0064357
0.00641501
0.00639389
0.00637235
0.00635035
0.00632791
0.006305
0.00628163
0.00625778
0.00623344
0.0062086
0.00618326
0.0061574
0.00613102
0.00610411
0.00607665
0.00604864
0.00602007
0.00599093
0.0059612
0.00593088
0.00589995
0.00586841
0.00583625
0.00580345
0.00577
0.00573589
0.0057011
0.00566564
0.00562947
0.0055926
0.005555
0.00551666
0.00547757
0.00543771
0.00539706
0.00535561
0.00531333
0.00527022
0.00522623
0.00518137
0.00513559
0.00508888
0.0050412
0.00499253
0.00494282
0.00489206
0.00484019
0.00478717
0.00473296
0.00467749
0.00462072
0.00456257
0.00450296
0.00444181
0.00437903
0.00431449
0.00424806
0.00417958
0.00410885
0.00403564
0.00395968
0.00388072
0.0037985
0.00371267
0.00362275
0.00352818
0.00342826
0.00332204
0.00320834
0.00308554
0.00295141
0.00280284
0.00263603
0.00244621
0.00222566
0.0019626
0.00163831
0.00122244
0.00067081
7.32278e-05
0.000117156
0.00114825
0.00216224
0.00296849
0.00362594
0.0041799
0.00465897
0.00508148
0.00545954
0.00580147
0.00611332
0.00639958
0.00666367
0.00690831
0.00713564
0.00734744
0.00754519
0.00773014
0.00790337
0.00806581
0.0082183
0.00836155
0.00849624
0.00862295
0.00874221
0.00885452
0.00896031
0.00906001
0.00915398
0.00924257
0.0093261
0.00940487
0.00947915
0.00954919
0.00961524
0.00967751
0.0097362
0.00979151
0.0098436
0.00989264
0.00993877
0.00998214
0.0100228
0.010061
0.0100967
0.0101299
0.0101608
0.0101895
0.0102162
0.010241
0.010264
0.0102853
0.010305
0.0103232
0.01034
0.0103554
0.0103695
0.0103823
0.0103939
0.0104044
0.0104138
0.0104221
0.0104293
0.0104356
0.0104409
0.0104453
0.0104488
0.0104515
0.0104533
0.0104543
0.0104546
0.0104541
0.0104529
0.010451
0.0104484
0.0104451
0.0104412
0.0104367
0.0104315
0.0104258
0.0104194
0.0104125
0.010405
0.010397
0.0103884
0.0103793
0.0103697
0.0103595
0.0103489
0.0103377
0.010326
0.0103138
0.0103011
0.0102879
0.0102742
0.01026
0.0102453
0.0102301
0.0102144
0.0101982
0.0101815
0.0101643
0.0101465
0.0101282
0.0101094
0.0100901
0.0100702
0.0100498
0.0100288
0.0100072
0.00998507
0.00996236
0.00993905
0.00991514
0.00989061
0.00986547
0.00983969
0.00981326
0.00978618
0.00975843
0.00972999
0.00970087
0.00967103
0.00964048
0.0096092
0.00957717
0.00954438
0.00951082
0.00947647
0.00944132
0.00940535
0.00936855
0.0093309
0.00929239
0.009253
0.00921272
0.00917152
0.00912939
0.00908632
0.00904228
0.00899727
0.00895125
0.00890421
0.00885613
0.00880699
0.00875678
0.00870546
0.00865301
0.00859942
0.00854465
0.00848869
0.00843151
0.00837307
0.00831335
0.00825232
0.00818994
0.00812619
0.00806101
0.00799439
0.00792626
0.0078566
0.00778534
0.00771244
0.00763785
0.00756149
0.0074833
0.00740321
0.00732114
0.007237
0.00715069
0.0070621
0.0069711
0.00687756
0.00678132
0.0066822
0.00657999
0.00647446
0.00636532
0.00625226
0.00613488
0.00601276
0.00588542
0.00575232
0.00561277
0.00546594
0.00531079
0.00514604
0.00497004
0.0047808
0.00457563
0.00435107
0.00410257
0.00382416
0.00350845
0.00314472
0.00271784
0.00220646
0.00158149
0.000816314
8.34217e-05
0.000117156
0.00114826
0.00216225
0.00296851
0.00362595
0.00417992
0.00465898
0.00508149
0.00545955
0.00580148
0.00611333
0.00639959
0.00666369
0.00690832
0.00713565
0.00734745
0.0075452
0.00773015
0.00790338
0.00806582
0.00821831
0.00836156
0.00849625
0.00862296
0.00874222
0.00885453
0.00896032
0.00906002
0.00915398
0.00924257
0.0093261
0.00940487
0.00947915
0.0095492
0.00961525
0.00967752
0.00973621
0.00979151
0.0098436
0.00989264
0.00993878
0.00998214
0.0100229
0.010061
0.0100967
0.0101299
0.0101608
0.0101895
0.0102162
0.010241
0.010264
0.0102853
0.010305
0.0103232
0.01034
0.0103554
0.0103695
0.0103823
0.0103939
0.0104044
0.0104138
0.0104221
0.0104293
0.0104356
0.0104409
0.0104453
0.0104488
0.0104515
0.0104533
0.0104543
0.0104546
0.0104541
0.0104529
0.010451
0.0104484
0.0104451
0.0104412
0.0104367
0.0104315
0.0104258
0.0104194
0.0104125
0.010405
0.010397
0.0103884
0.0103793
0.0103697
0.0103595
0.0103489
0.0103377
0.010326
0.0103138
0.0103011
0.0102879
0.0102742
0.01026
0.0102453
0.0102301
0.0102144
0.0101982
0.0101815
0.0101643
0.0101465
0.0101282
0.0101094
0.0100901
0.0100702
0.0100498
0.0100288
0.0100072
0.00998507
0.00996236
0.00993905
0.00991514
0.00989061
0.00986547
0.00983969
0.00981326
0.00978618
0.00975842
0.00972999
0.00970087
0.00967103
0.00964048
0.0096092
0.00957717
0.00954438
0.00951082
0.00947647
0.00944132
0.00940535
0.00936855
0.0093309
0.00929239
0.009253
0.00921271
0.00917152
0.00912939
0.00908632
0.00904228
0.00899726
0.00895124
0.00890421
0.00885613
0.00880699
0.00875677
0.00870545
0.00865301
0.00859942
0.00854465
0.00848869
0.0084315
0.00837307
0.00831335
0.00825232
0.00818994
0.00812618
0.00806101
0.00799439
0.00792626
0.0078566
0.00778534
0.00771244
0.00763784
0.00756149
0.0074833
0.00740321
0.00732114
0.007237
0.00715069
0.00706209
0.0069711
0.00687756
0.00678132
0.0066822
0.00657999
0.00647446
0.00636532
0.00625225
0.00613488
0.00601276
0.00588542
0.00575232
0.00561277
0.00546593
0.00531079
0.00514603
0.00497004
0.0047808
0.00457563
0.00435107
0.00410257
0.00382416
0.00350845
0.00314472
0.00271784
0.00220646
0.00158149
0.000816316
8.34216e-05
0.000128247
0.00128417
0.00250312
0.00351385
0.00435898
0.0050817
0.00571237
0.00627177
0.00677432
0.00723027
0.00764715
0.00803059
0.00838496
0.00871367
0.00901949
0.0093047
0.00957119
0.00982058
0.0100543
0.0102735
0.0104793
0.0106726
0.0108544
0.0110254
0.0111864
0.0113379
0.0114806
0.0116151
0.0117419
0.0118614
0.0119741
0.0120804
0.0121807
0.0122754
0.0123648
0.0124491
0.0125287
0.0126039
0.0126748
0.0127417
0.0128049
0.0128644
0.0129206
0.0129734
0.0130231
0.0130698
0.0131136
0.0131547
0.0131932
0.0132293
0.0132631
0.0132948
0.0133245
0.0133522
0.0133781
0.0134023
0.0134248
0.0134457
0.0134651
0.013483
0.0134995
0.0135146
0.0135285
0.013541
0.0135524
0.0135626
0.0135717
0.0135797
0.0135866
0.0135925
0.0135974
0.0136013
0.0136043
0.0136064
0.0136076
0.0136079
0.0136074
0.013606
0.0136039
0.0136009
0.0135972
0.0135927
0.0135874
0.0135814
0.0135747
0.0135672
0.013559
0.0135501
0.0135405
0.0135302
0.0135192
0.0135075
0.0134951
0.0134821
0.0134683
0.0134538
0.0134387
0.0134228
0.0134062
0.013389
0.013371
0.0133523
0.0133329
0.0133127
0.0132918
0.0132701
0.0132477
0.0132245
0.0132006
0.0131758
0.0131503
0.0131239
0.0130967
0.0130686
0.0130397
0.01301
0.0129793
0.0129478
0.0129153
0.0128819
0.0128475
0.0128122
0.0127759
0.0127386
0.0127003
0.0126609
0.0126205
0.012579
0.0125364
0.0124927
0.0124479
0.0124019
0.0123547
0.0123063
0.0122567
0.0122058
0.0121537
0.0121003
0.0120455
0.0119894
0.0119319
0.011873
0.0118127
0.0117509
0.0116877
0.0116229
0.0115565
0.0114886
0.011419
0.0113478
0.0112749
0.0112002
0.0111238
0.0110455
0.0109653
0.0108833
0.0107992
0.0107132
0.010625
0.0105347
0.0104421
0.0103473
0.0102501
0.0101504
0.0100481
0.00994322
0.00983555
0.00972499
0.0096114
0.00949463
0.00937452
0.00925088
0.0091235
0.00899214
0.00885655
0.00871641
0.00857136
0.00842102
0.00826489
0.00810246
0.00793309
0.00775606
0.00757053
0.00737549
0.00716972
0.00695173
0.00671967
0.0064713
0.00620378
0.00591355
0.00559612
0.0052458
0.00485524
0.00441517
0.00391359
0.00333445
0.00265718
0.0018579
0.000927144
9.15309e-05
0.000128247
0.00128417
0.00250313
0.00351386
0.004359
0.00508172
0.00571239
0.00627179
0.00677434
0.00723029
0.00764717
0.00803061
0.00838497
0.00871369
0.00901951
0.00930472
0.00957121
0.0098206
0.0100543
0.0102735
0.0104793
0.0106726
0.0108544
0.0110254
0.0111864
0.0113379
0.0114806
0.0116151
0.0117419
0.0118614
0.0119741
0.0120804
0.0121808
0.0122754
0.0123648
0.0124491
0.0125287
0.0126039
0.0126748
0.0127417
0.0128049
0.0128644
0.0129206
0.0129734
0.0130232
0.0130698
0.0131136
0.0131547
0.0131932
0.0132293
0.0132631
0.0132948
0.0133245
0.0133522
0.0133781
0.0134023
0.0134248
0.0134457
0.0134651
0.013483
0.0134995
0.0135146
0.0135285
0.013541
0.0135524
0.0135626
0.0135717
0.0135797
0.0135866
0.0135925
0.0135974
0.0136013
0.0136043
0.0136064
0.0136076
0.0136079
0.0136074
0.013606
0.0136039
0.0136009
0.0135972
0.0135927
0.0135874
0.0135814
0.0135747
0.0135672
0.013559
0.0135501
0.0135405
0.0135302
0.0135192
0.0135075
0.0134951
0.0134821
0.0134683
0.0134538
0.0134387
0.0134228
0.0134062
0.013389
0.013371
0.0133523
0.0133329
0.0133127
0.0132918
0.0132701
0.0132477
0.0132245
0.0132006
0.0131758
0.0131503
0.0131239
0.0130967
0.0130686
0.0130397
0.01301
0.0129793
0.0129478
0.0129153
0.0128819
0.0128475
0.0128122
0.0127759
0.0127386
0.0127003
0.0126609
0.0126205
0.012579
0.0125364
0.0124927
0.0124479
0.0124019
0.0123547
0.0123063
0.0122567
0.0122058
0.0121537
0.0121003
0.0120455
0.0119894
0.0119319
0.011873
0.0118127
0.0117509
0.0116877
0.0116229
0.0115565
0.0114886
0.011419
0.0113478
0.0112749
0.0112002
0.0111238
0.0110455
0.0109653
0.0108833
0.0107992
0.0107132
0.010625
0.0105347
0.0104421
0.0103473
0.01025
0.0101504
0.0100481
0.00994322
0.00983555
0.00972499
0.00961139
0.00949463
0.00937451
0.00925087
0.00912349
0.00899214
0.00885655
0.0087164
0.00857136
0.00842101
0.00826489
0.00810246
0.00793308
0.00775605
0.00757053
0.00737549
0.00716972
0.00695172
0.00671967
0.0064713
0.00620378
0.00591355
0.00559612
0.0052458
0.00485524
0.00441517
0.00391359
0.00333445
0.00265718
0.0018579
0.000927144
9.15308e-05
0.00013762
0.00139141
0.00276712
0.00394227
0.00494325
0.00580944
0.0065713
0.00725083
0.00786388
0.00842201
0.00893381
0.0094058
0.00984304
0.0102495
0.0106284
0.0109825
0.0113139
0.0116246
0.0119161
0.0121899
0.0124473
0.0126894
0.0129172
0.0131318
0.0133339
0.0135243
0.0137038
0.0138731
0.0140328
0.0141834
0.0143256
0.0144599
0.0145866
0.0147064
0.0148195
0.0149265
0.0150276
0.0151231
0.0152135
0.0152989
0.0153797
0.0154561
0.0155283
0.0155965
0.015661
0.0157218
0.0157792
0.0158333
0.0158843
0.0159325
0.0159779
0.0160207
0.0160611
0.0160992
0.016135
0.0161688
0.0162005
0.0162304
0.0162583
0.0162846
0.0163091
0.016332
0.0163534
0.0163732
0.0163916
0.0164086
0.0164242
0.0164385
0.0164515
0.0164633
0.0164739
0.0164833
0.0164916
0.0164988
0.0165049
0.0165099
0.0165139
0.0165169
0.0165189
0.0165199
0.01652
0.0165191
0.0165172
0.0165145
0.0165108
0.0165062
0.0165008
0.0164944
0.0164872
0.0164791
0.0164701
0.0164602
0.0164494
0.0164378
0.0164253
0.0164119
0.0163976
0.0163824
0.0163663
0.0163493
0.0163314
0.0163126
0.0162929
0.0162722
0.0162506
0.016228
0.0162044
0.0161799
0.0161543
0.0161278
0.0161002
0.0160715
0.0160418
0.0160111
0.0159792
0.0159462
0.0159121
0.0158768
0.0158403
0.0158027
0.0157638
0.0157237
0.0156823
0.0156396
0.0155957
0.0155504
0.0155037
0.0154557
0.0154063
0.0153554
0.015303
0.0152492
0.0151939
0.015137
0.0150785
0.0150184
0.0149567
0.0148933
0.0148281
0.0147613
0.0146927
0.0146222
0.0145499
0.0144757
0.0143996
0.0143215
0.0142414
0.0141592
0.0140749
0.0139884
0.0138997
0.0138088
0.0137155
0.0136198
0.0135217
0.013421
0.0133178
0.0132118
0.0131032
0.0129917
0.0128772
0.0127597
0.0126391
0.0125152
0.012388
0.0122572
0.0121227
0.0119844
0.0118421
0.0116955
0.0115445
0.0113888
0.0112281
0.0110621
0.0108905
0.0107128
0.0105285
0.0103372
0.0101382
0.0099308
0.00971418
0.0094874
0.00924933
0.00899864
0.00873374
0.00845272
0.00815325
0.00783252
0.00748707
0.00711262
0.00670391
0.00625438
0.00575583
0.00519809
0.00456876
0.00385218
0.00302991
0.00208372
0.00101809
9.83717e-05
0.00013762
0.00139141
0.00276713
0.00394228
0.00494327
0.00580946
0.00657132
0.00725085
0.0078639
0.00842203
0.00893383
0.00940582
0.00984306
0.0102495
0.0106285
0.0109825
0.0113139
0.0116246
0.0119161
0.0121899
0.0124473
0.0126894
0.0129172
0.0131318
0.0133339
0.0135243
0.0137038
0.0138731
0.0140328
0.0141834
0.0143256
0.0144599
0.0145867
0.0147064
0.0148196
0.0149265
0.0150276
0.0151231
0.0152135
0.0152989
0.0153797
0.0154561
0.0155283
0.0155966
0.015661
0.0157218
0.0157792
0.0158333
0.0158843
0.0159325
0.0159779
0.0160207
0.0160611
0.0160992
0.016135
0.0161688
0.0162005
0.0162304
0.0162583
0.0162846
0.0163091
0.016332
0.0163534
0.0163732
0.0163916
0.0164086
0.0164242
0.0164385
0.0164515
0.0164633
0.0164739
0.0164833
0.0164916
0.0164988
0.0165049
0.0165099
0.0165139
0.0165169
0.0165189
0.0165199
0.01652
0.0165191
0.0165172
0.0165145
0.0165108
0.0165062
0.0165008
0.0164944
0.0164872
0.0164791
0.0164701
0.0164602
0.0164494
0.0164378
0.0164253
0.0164119
0.0163976
0.0163824
0.0163663
0.0163493
0.0163314
0.0163126
0.0162929
0.0162722
0.0162506
0.016228
0.0162044
0.0161799
0.0161543
0.0161278
0.0161002
0.0160715
0.0160418
0.0160111
0.0159792
0.0159462
0.0159121
0.0158768
0.0158403
0.0158027
0.0157638
0.0157237
0.0156823
0.0156396
0.0155957
0.0155504
0.0155037
0.0154557
0.0154063
0.0153554
0.015303
0.0152492
0.0151939
0.015137
0.0150785
0.0150184
0.0149567
0.0148933
0.0148281
0.0147613
0.0146927
0.0146222
0.0145499
0.0144757
0.0143996
0.0143215
0.0142414
0.0141592
0.0140749
0.0139884
0.0138997
0.0138088
0.0137155
0.0136198
0.0135217
0.013421
0.0133178
0.0132118
0.0131032
0.0129917
0.0128772
0.0127597
0.0126391
0.0125152
0.012388
0.0122572
0.0121227
0.0119844
0.0118421
0.0116955
0.0115445
0.0113888
0.0112281
0.0110621
0.0108905
0.0107128
0.0105285
0.0103372
0.0101382
0.00993079
0.00971418
0.0094874
0.00924933
0.00899864
0.00873374
0.00845271
0.00815325
0.00783252
0.00748706
0.00711262
0.00670391
0.00625438
0.00575583
0.00519809
0.00456876
0.00385218
0.00302991
0.00208372
0.00101808
9.83716e-05
0.000145903
0.00148301
0.00298456
0.00429356
0.005424
0.0064115
0.00728589
0.00806972
0.00877967
0.0094282
0.0100246
0.0105762
0.0110884
0.0115658
0.0120118
0.0124295
0.0128213
0.0131893
0.0135353
0.0138609
0.0141675
0.0144564
0.0147287
0.0149855
0.0152277
0.0154562
0.015672
0.0158756
0.016068
0.0162497
0.0164214
0.0165837
0.0167371
0.0168822
0.0170195
0.0171494
0.0172723
0.0173887
0.017499
0.0176034
0.0177023
0.0177961
0.0178849
0.017969
0.0180487
0.0181242
0.0181957
0.0182634
0.0183275
0.0183883
0.0184458
0.0185003
0.018552
0.018601
0.0186473
0.0186912
0.0187328
0.0187721
0.0188093
0.0188445
0.0188776
0.0189089
0.0189384
0.0189661
0.0189921
0.0190165
0.0190393
0.0190606
0.0190804
0.0190988
0.0191157
0.0191314
0.0191456
0.0191586
0.0191704
0.0191808
0.0191901
0.0191982
0.0192051
0.0192109
0.0192155
0.0192191
0.0192215
0.0192228
0.0192231
0.0192222
0.0192203
0.0192174
0.0192134
0.0192083
0.0192022
0.019195
0.0191868
0.0191775
0.0191672
0.0191558
0.0191433
0.0191298
0.0191152
0.0190994
0.0190826
0.0190647
0.0190456
0.0190254
0.0190041
0.0189815
0.0189578
0.0189329
0.0189068
0.0188795
0.0188509
0.018821
0.0187898
0.0187573
0.0187235
0.0186883
0.0186518
0.0186138
0.0185744
0.0185336
0.0184912
0.0184474
0.018402
0.018355
0.0183065
0.0182563
0.0182045
0.018151
0.0180958
0.0180388
0.01798
0.0179194
0.017857
0.0177926
0.0177263
0.0176581
0.0175878
0.0175155
0.0174411
0.0173646
0.0172858
0.0172049
0.0171216
0.017036
0.0169481
0.0168577
0.0167648
0.0166694
0.0165713
0.0164706
0.0163672
0.0162609
0.0161517
0.0160396
0.0159245
0.0158062
0.0156846
0.0155598
0.0154316
0.0152998
0.0151643
0.0150251
0.014882
0.0147347
0.0145833
0.0144275
0.0142671
0.0141018
0.0139316
0.013756
0.0135749
0.0133879
0.0131946
0.0129947
0.0127878
0.0125732
0.0123504
0.0121189
0.0118777
0.011626
0.0113629
0.0110871
0.0107972
0.0104917
0.0101686
0.0098257
0.00946016
0.00906874
0.00864745
0.0081915
0.00769506
0.00715102
0.00655076
0.00588381
0.00513771
0.0042978
0.00334821
0.0022758
0.00109605
0.000104354
0.000145903
0.00148301
0.00298457
0.00429358
0.00542401
0.00641151
0.00728591
0.00806974
0.0087797
0.00942822
0.0100247
0.0105762
0.0110885
0.0115658
0.0120119
0.0124295
0.0128213
0.0131893
0.0135353
0.0138609
0.0141675
0.0144564
0.0147287
0.0149855
0.0152277
0.0154563
0.015672
0.0158757
0.016068
0.0162497
0.0164214
0.0165837
0.0167371
0.0168822
0.0170195
0.0171494
0.0172723
0.0173887
0.017499
0.0176034
0.0177023
0.0177961
0.0178849
0.017969
0.0180487
0.0181242
0.0181957
0.0182634
0.0183275
0.0183883
0.0184458
0.0185003
0.018552
0.018601
0.0186473
0.0186912
0.0187328
0.0187721
0.0188093
0.0188445
0.0188776
0.0189089
0.0189384
0.0189661
0.0189921
0.0190165
0.0190393
0.0190606
0.0190804
0.0190988
0.0191157
0.0191314
0.0191456
0.0191586
0.0191704
0.0191808
0.0191901
0.0191982
0.0192051
0.0192109
0.0192155
0.0192191
0.0192215
0.0192228
0.0192231
0.0192222
0.0192203
0.0192174
0.0192134
0.0192083
0.0192022
0.019195
0.0191868
0.0191775
0.0191672
0.0191558
0.0191433
0.0191298
0.0191152
0.0190994
0.0190826
0.0190647
0.0190456
0.0190254
0.0190041
0.0189815
0.0189578
0.0189329
0.0189068
0.0188795
0.0188509
0.018821
0.0187898
0.0187573
0.0187235
0.0186883
0.0186518
0.0186138
0.0185744
0.0185336
0.0184912
0.0184474
0.018402
0.018355
0.0183065
0.0182563
0.0182045
0.018151
0.0180958
0.0180388
0.01798
0.0179194
0.017857
0.0177926
0.0177263
0.0176581
0.0175878
0.0175155
0.0174411
0.0173646
0.0172858
0.0172049
0.0171216
0.017036
0.0169481
0.0168577
0.0167648
0.0166694
0.0165713
0.0164706
0.0163672
0.0162609