/*--------------------------------*- C++ -*----------------------------------*\
  =========                 |
  \\      /  F ield         | OpenFOAM: The Open Source CFD Toolbox
   \\    /   O peration     | Website:  https://openfoam.org
    \\  /    A nd           | Version:  8
     \\/     M anipulation  |
\*---------------------------------------------------------------------------*/
FoamFile
{
    version     2.0;
    format      ascii;
    class       volScalarField;
    location    "3000";
    object      alphat;
}
// * * * * * * * * * * * * * * * * * * * * * * * * * * * * * * * * * * * * * //

dimensions      [1 -1 -1 0 0 0 0];

internalField   nonuniform List<scalar> 
48000
(
4.40274e-05
8.03312e-05
0.000101284
0.000115841
0.000127938
0.000138099
0.000146897
0.000154741
0.000162014
0.000168658
0.000174837
0.000180617
0.00018605
0.000191177
0.000196032
0.00020064
0.000205021
0.000209192
0.000213169
0.000216961
0.000220579
0.000224032
0.000227326
0.000230468
0.000233465
0.000236321
0.000239041
0.00024163
0.000244092
0.000246431
0.00024865
0.000250755
0.000252747
0.000254631
0.000256411
0.000258089
0.000259669
0.000261154
0.000262547
0.000263852
0.000265071
0.000266207
0.000267264
0.000268243
0.000269157
0.000270007
0.000270789
0.000271504
0.000272155
0.000272745
0.000273277
0.000273752
0.000274173
0.000274543
0.000274864
0.000275139
0.000275368
0.000275554
0.000275699
0.000275805
0.000275873
0.000275906
0.000275904
0.000275869
0.000275803
0.000275708
0.000275583
0.000275431
0.000275253
0.000275049
0.000274822
0.000274571
0.000274298
0.000274004
0.000273689
0.000273354
0.000273
0.000272628
0.000272239
0.000271832
0.000271408
0.000270969
0.000270514
0.000270044
0.000269559
0.000269059
0.000268546
0.000268019
0.000267479
0.000266925
0.000266358
0.000265779
0.000265187
0.000264583
0.000263966
0.000263337
0.000262696
0.000262043
0.000261378
0.0002607
0.000260011
0.00025931
0.000258596
0.000257871
0.000257133
0.000256383
0.00025562
0.000254845
0.000254058
0.000253257
0.000252444
0.000251617
0.000250778
0.000249924
0.000249057
0.000248176
0.000247281
0.000246371
0.000245447
0.000244508
0.000243554
0.000242584
0.000241599
0.000240597
0.00023958
0.000238545
0.000237494
0.000236426
0.00023534
0.000234237
0.000233115
0.000231975
0.000230816
0.000229638
0.000228441
0.000227224
0.000225986
0.000224729
0.000223451
0.000222151
0.000220831
0.000219488
0.000218124
0.000216738
0.000215328
0.000213896
0.00021244
0.000210961
0.000209458
0.000207931
0.000206379
0.000204802
0.0002032
0.000201572
0.000199918
0.000198238
0.000196531
0.000194797
0.000193035
0.000191245
0.000189427
0.00018758
0.000185703
0.000183797
0.000181859
0.00017989
0.000177889
0.000175854
0.000173786
0.000171682
0.000169542
0.000167364
0.000165147
0.000162889
0.000160588
0.000158242
0.000155848
0.000153403
0.000150904
0.000148347
0.000145729
0.000143047
0.00014031
0.000137505
0.000134607
0.000131602
0.000128476
0.00012521
0.000121781
0.000118158
0.000114302
0.000110159
0.000105697
0.00010081
9.53282e-05
8.90087e-05
8.14274e-05
7.18283e-05
5.98093e-05
0.000159468
4.40246e-05
8.03348e-05
0.000101285
0.000115841
0.000127939
0.0001381
0.000146897
0.000154742
0.000162015
0.000168658
0.000174837
0.000180617
0.00018605
0.000191178
0.000196032
0.00020064
0.000205021
0.000209193
0.000213169
0.000216961
0.000220579
0.000224032
0.000227326
0.000230469
0.000233465
0.000236321
0.000239041
0.00024163
0.000244092
0.000246431
0.00024865
0.000250755
0.000252747
0.000254631
0.000256411
0.000258089
0.000259669
0.000261154
0.000262547
0.000263852
0.000265071
0.000266207
0.000267264
0.000268243
0.000269157
0.000270007
0.000270789
0.000271504
0.000272155
0.000272745
0.000273277
0.000273752
0.000274173
0.000274543
0.000274864
0.000275139
0.000275368
0.000275554
0.000275699
0.000275805
0.000275873
0.000275906
0.000275904
0.000275869
0.000275803
0.000275708
0.000275583
0.000275431
0.000275253
0.000275049
0.000274822
0.000274571
0.000274298
0.000274004
0.000273689
0.000273354
0.000273
0.000272628
0.000272239
0.000271832
0.000271408
0.000270969
0.000270514
0.000270044
0.000269559
0.000269059
0.000268546
0.000268019
0.000267479
0.000266925
0.000266358
0.000265779
0.000265187
0.000264583
0.000263966
0.000263337
0.000262696
0.000262043
0.000261377
0.0002607
0.000260011
0.00025931
0.000258596
0.000257871
0.000257133
0.000256383
0.00025562
0.000254845
0.000254058
0.000253257
0.000252444
0.000251617
0.000250777
0.000249924
0.000249057
0.000248176
0.000247281
0.000246371
0.000245447
0.000244508
0.000243554
0.000242584
0.000241599
0.000240597
0.00023958
0.000238545
0.000237494
0.000236426
0.00023534
0.000234237
0.000233115
0.000231975
0.000230816
0.000229638
0.000228441
0.000227224
0.000225986
0.000224729
0.000223451
0.000222151
0.000220831
0.000219488
0.000218124
0.000216737
0.000215328
0.000213896
0.00021244
0.000210961
0.000209458
0.000207931
0.000206379
0.000204802
0.0002032
0.000201572
0.000199918
0.000198238
0.000196531
0.000194797
0.000193035
0.000191245
0.000189427
0.00018758
0.000185703
0.000183797
0.000181859
0.00017989
0.000177889
0.000175854
0.000173786
0.000171682
0.000169542
0.000167364
0.000165147
0.000162889
0.000160588
0.000158242
0.000155848
0.000153403
0.000150904
0.000148347
0.000145729
0.000143047
0.00014031
0.000137505
0.000134607
0.000131602
0.000128476
0.00012521
0.000121781
0.000118158
0.000114302
0.000110159
0.000105697
0.00010081
9.53283e-05
8.90089e-05
8.14278e-05
7.18298e-05
5.98128e-05
0.000159483
7.00308e-05
0.000523766
0.000832647
0.00104812
0.00120849
0.0013399
0.00145254
0.00155153
0.00163953
0.00171939
0.00179248
0.0018599
0.00192248
0.00198086
0.00203554
0.00208691
0.0021353
0.00218099
0.0022242
0.00226512
0.00230391
0.00234072
0.00237567
0.00240887
0.00244042
0.00247041
0.0024989
0.00252598
0.00255171
0.00257615
0.00259934
0.00262135
0.00264223
0.002662
0.00268073
0.00269845
0.00271519
0.002731
0.00274591
0.00275995
0.00277314
0.00278553
0.00279711
0.00280789
0.00281775
0.0028268
0.00283517
0.00284291
0.00285006
0.00285664
0.00286269
0.00286823
0.00287328
0.00287784
0.00288196
0.00288563
0.00288889
0.00289174
0.00289419
0.00289628
0.002898
0.00289938
0.00290042
0.00290114
0.00290155
0.00290166
0.00290148
0.00290103
0.00290031
0.00289933
0.0028981
0.00289663
0.00289493
0.002893
0.00289085
0.0028885
0.00288594
0.00288317
0.00288022
0.00287708
0.00287375
0.00287024
0.00286656
0.00286271
0.00285869
0.00285451
0.00285016
0.00284566
0.002841
0.00283619
0.00283123
0.00282611
0.00282085
0.00281544
0.00280988
0.00280418
0.00279834
0.00279235
0.00278621
0.00277993
0.00277351
0.00276694
0.00276023
0.00275338
0.00274638
0.00273923
0.00273193
0.00272448
0.00271689
0.00270914
0.00270123
0.00269318
0.00268496
0.00267659
0.00266805
0.00265935
0.00265048
0.00264145
0.00263225
0.00262287
0.00261332
0.00260359
0.00259367
0.00258358
0.00257329
0.00256282
0.00255215
0.00254129
0.00253023
0.00251896
0.00250749
0.00249581
0.00248392
0.00247181
0.00245949
0.00244694
0.00243417
0.00242117
0.00240794
0.00239447
0.00238077
0.00236682
0.00235263
0.00233819
0.0023235
0.00230855
0.00229334
0.00227787
0.00226214
0.00224613
0.00222985
0.0022133
0.00219646
0.00217934
0.00216193
0.00214422
0.00212622
0.00210791
0.00208929
0.00207035
0.0020511
0.00203152
0.0020116
0.00199134
0.00197073
0.00194976
0.00192841
0.00190669
0.00188456
0.00186203
0.00183907
0.00181566
0.00179179
0.00176743
0.00174255
0.00171712
0.00169111
0.00166446
0.00163714
0.00160908
0.00158018
0.00155033
0.00151934
0.00148713
0.00145366
0.0014188
0.00138238
0.00134412
0.00130372
0.0012607
0.00121441
0.00116379
0.00110682
0.00104228
0.000967594
0.00087824
0.000765986
0.000614321
0.000385851
5.19183e-05
7.00347e-05
0.000523786
0.000832663
0.00104814
0.00120852
0.00133992
0.00145257
0.00155155
0.00163955
0.00171941
0.0017925
0.00185992
0.0019225
0.00198088
0.00203555
0.00208693
0.00213532
0.00218101
0.00222421
0.00226513
0.00230393
0.00234074
0.00237569
0.00240889
0.00244044
0.00247042
0.00249892
0.002526
0.00255172
0.00257616
0.00259935
0.00262136
0.00264224
0.00266202
0.00268074
0.00269846
0.0027152
0.00273101
0.00274592
0.00275996
0.00277315
0.00278554
0.00279712
0.0028079
0.00281775
0.00282681
0.00283518
0.00284292
0.00285006
0.00285665
0.0028627
0.00286824
0.00287328
0.00287785
0.00288197
0.00288564
0.0028889
0.00289174
0.0028942
0.00289629
0.00289801
0.00289938
0.00290042
0.00290114
0.00290155
0.00290166
0.00290149
0.00290103
0.00290031
0.00289933
0.00289811
0.00289664
0.00289493
0.00289301
0.00289086
0.0028885
0.00288594
0.00288318
0.00288023
0.00287708
0.00287376
0.00287025
0.00286657
0.00286272
0.0028587
0.00285452
0.00285017
0.00284567
0.00284101
0.0028362
0.00283123
0.00282612
0.00282086
0.00281545
0.00280989
0.00280419
0.00279834
0.00279235
0.00278622
0.00277994
0.00277352
0.00276695
0.00276024
0.00275338
0.00274638
0.00273923
0.00273194
0.00272449
0.00271689
0.00270914
0.00270124
0.00269318
0.00268497
0.00267659
0.00266806
0.00265936
0.00265049
0.00264146
0.00263225
0.00262288
0.00261332
0.00260359
0.00259368
0.00258358
0.0025733
0.00256282
0.00255216
0.00254129
0.00253023
0.00251897
0.0025075
0.00249582
0.00248393
0.00247182
0.0024595
0.00244695
0.00243418
0.00242118
0.00240795
0.00239448
0.00238077
0.00236683
0.00235264
0.0023382
0.0023235
0.00230856
0.00229335
0.00227788
0.00226214
0.00224614
0.00222986
0.0022133
0.00219647
0.00217934
0.00216193
0.00214423
0.00212622
0.00210791
0.00208929
0.00207036
0.00205111
0.00203152
0.00201161
0.00199135
0.00197073
0.00194976
0.00192842
0.00190669
0.00188457
0.00186203
0.00183907
0.00181567
0.0017918
0.00176743
0.00174255
0.00171713
0.00169111
0.00166447
0.00163715
0.00160908
0.00158018
0.00155033
0.00151935
0.00148714
0.00145366
0.00141881
0.00138238
0.00134413
0.00130372
0.0012607
0.00121442
0.0011638
0.00110683
0.00104228
0.000967597
0.00087824
0.000765981
0.000614305
0.000385849
5.19139e-05
8.71689e-05
0.000795517
0.00141493
0.0018777
0.00224239
0.00254497
0.0028049
0.00303334
0.00323718
0.00342137
0.00358931
0.00374353
0.00388593
0.00401803
0.00414104
0.00425593
0.00436352
0.00446452
0.00455949
0.00464896
0.00473336
0.00481308
0.00488845
0.00495979
0.00502735
0.00509139
0.00515212
0.00520973
0.0052644
0.0053163
0.00536557
0.00541234
0.00545675
0.0054989
0.0055389
0.00557685
0.00561283
0.00564694
0.00567924
0.00570981
0.00573872
0.00576602
0.00579174
0.0058159
0.00583846
0.00585954
0.00587926
0.00589772
0.00591498
0.00593112
0.00594617
0.00596019
0.00597322
0.0059853
0.00599646
0.00600673
0.00601616
0.00602476
0.00603258
0.00603963
0.00604594
0.00605154
0.00605646
0.00606071
0.00606432
0.00606731
0.0060697
0.00607151
0.00607276
0.00607346
0.00607363
0.00607329
0.00607245
0.00607113
0.00606933
0.00606708
0.00606438
0.00606124
0.00605768
0.0060537
0.00604932
0.00604453
0.00603936
0.00603381
0.00602787
0.00602157
0.0060149
0.00600788
0.0060005
0.00599276
0.00598468
0.00597626
0.0059675
0.0059584
0.00594896
0.00593918
0.00592908
0.00591864
0.00590786
0.00589676
0.00588532
0.00587355
0.00586144
0.005849
0.00583622
0.00582311
0.00580965
0.00579584
0.0057817
0.0057672
0.00575234
0.00573713
0.00572157
0.00570563
0.00568933
0.00567265
0.0056556
0.00563816
0.00562033
0.00560211
0.0055835
0.00556447
0.00554504
0.00552518
0.00550491
0.0054842
0.00546306
0.00544148
0.00541945
0.00539696
0.005374
0.00535058
0.00532668
0.00530229
0.00527741
0.00525204
0.00522615
0.00519975
0.00517282
0.00514537
0.00511737
0.00508883
0.00505973
0.00503007
0.00499983
0.00496901
0.0049376
0.00490559
0.00487297
0.00483973
0.00480585
0.00477134
0.00473617
0.00470033
0.00466382
0.00462662
0.00458871
0.00455007
0.00451071
0.00447058
0.00442969
0.004388
0.0043455
0.00430215
0.00425795
0.00421284
0.00416682
0.00411983
0.00407184
0.00402281
0.00397269
0.00392143
0.00386896
0.00381521
0.00376011
0.00370357
0.00364547
0.0035857
0.00352411
0.00346052
0.00339471
0.00332643
0.00325535
0.00318118
0.00310359
0.00302211
0.00293615
0.00284494
0.0027475
0.0026425
0.00252813
0.00240181
0.00225984
0.00209762
0.00190893
0.00168357
0.00140532
0.00104803
0.000574139
6.30939e-05
8.71704e-05
0.000795531
0.00141496
0.00187774
0.00224244
0.00254502
0.00280494
0.00303338
0.00323722
0.00342141
0.00358936
0.00374357
0.00388597
0.00401807
0.00414107
0.00425596
0.00436356
0.00446455
0.00455953
0.00464899
0.00473339
0.00481311
0.00488848
0.00495981
0.00502738
0.00509141
0.00515214
0.00520975
0.00526442
0.00531632
0.00536559
0.00541236
0.00545676
0.00549891
0.00553891
0.00557686
0.00561284
0.00564695
0.00567925
0.00570982
0.00573873
0.00576603
0.00579175
0.00581591
0.00583847
0.00585955
0.00587927
0.00589773
0.00591499
0.00593112
0.00594618
0.0059602
0.00597323
0.0059853
0.00599646
0.00600674
0.00601616
0.00602477
0.00603258
0.00603963
0.00604594
0.00605155
0.00605646
0.00606071
0.00606432
0.00606731
0.0060697
0.00607151
0.00607276
0.00607346
0.00607363
0.00607329
0.00607245
0.00607113
0.00606933
0.00606708
0.00606438
0.00606124
0.00605768
0.0060537
0.00604932
0.00604454
0.00603936
0.00603381
0.00602788
0.00602157
0.00601491
0.00600788
0.0060005
0.00599277
0.00598469
0.00597626
0.0059675
0.0059584
0.00594896
0.00593919
0.00592908
0.00591864
0.00590787
0.00589676
0.00588532
0.00587355
0.00586144
0.005849
0.00583623
0.00582311
0.00580965
0.00579585
0.0057817
0.0057672
0.00575234
0.00573714
0.00572157
0.00570563
0.00568933
0.00567265
0.0056556
0.00563816
0.00562033
0.00560212
0.0055835
0.00556447
0.00554504
0.00552518
0.00550491
0.0054842
0.00546306
0.00544148
0.00541945
0.00539696
0.005374
0.00535058
0.00532668
0.00530229
0.00527741
0.00525204
0.00522615
0.00519975
0.00517282
0.00514537
0.00511737
0.00508883
0.00505973
0.00503007
0.00499983
0.00496901
0.0049376
0.00490559
0.00487297
0.00483973
0.00480585
0.00477134
0.00473617
0.00470033
0.00466382
0.00462662
0.00458871
0.00455007
0.00451071
0.00447058
0.00442969
0.004388
0.0043455
0.00430215
0.00425795
0.00421284
0.00416682
0.00411983
0.00407184
0.00402281
0.00397269
0.00392143
0.00386896
0.00381521
0.00376011
0.00370357
0.00364547
0.0035857
0.00352411
0.00346052
0.00339471
0.00332643
0.00325535
0.00318118
0.00310359
0.00302211
0.00293615
0.00284494
0.0027475
0.0026425
0.00252813
0.00240181
0.00225984
0.00209762
0.00190893
0.00168357
0.00140532
0.00104803
0.000574146
6.30933e-05
9.88809e-05
0.000959252
0.00180355
0.0024733
0.00302017
0.00348185
0.0038819
0.0042353
0.00455194
0.00483875
0.0051007
0.00534151
0.00556403
0.00577051
0.00596276
0.00614227
0.0063103
0.0064679
0.00661598
0.00675534
0.00688669
0.00701062
0.00712769
0.00723839
0.00734317
0.00744241
0.00753648
0.00762569
0.00771036
0.00779074
0.00786709
0.00793962
0.00800854
0.00807405
0.00813631
0.00819549
0.00825174
0.00830518
0.00835595
0.00840415
0.00844989
0.00849327
0.00853435
0.00857318
0.00860982
0.00864437
0.00867695
0.00870768
0.00873666
0.00876395
0.00878966
0.00881383
0.00883654
0.00885783
0.00887778
0.00889641
0.00891378
0.00892994
0.00894493
0.00895879
0.00897155
0.00898325
0.00899393
0.00900362
0.00901235
0.00902016
0.00902706
0.00903309
0.00903826
0.00904262
0.00904617
0.00904895
0.00905096
0.00905224
0.00905279
0.00905265
0.00905181
0.0090503
0.00904814
0.00904533
0.00904189
0.00903783
0.00903317
0.0090279
0.00902204
0.00901561
0.0090086
0.00900102
0.00899289
0.0089842
0.00897497
0.00896518
0.00895486
0.008944
0.00893261
0.00892069
0.00890823
0.00889525
0.00888173
0.00886769
0.00885311
0.00883801
0.00882237
0.0088062
0.00878948
0.00877223
0.00875444
0.0087361
0.00871721
0.00869776
0.00867775
0.00865717
0.00863602
0.00861429
0.00859198
0.00856907
0.00854556
0.00852145
0.00849672
0.00847137
0.00844538
0.00841876
0.00839148
0.00836355
0.00833495
0.00830566
0.00827569
0.00824502
0.00821364
0.00818154
0.0081487
0.00811513
0.00808079
0.00804569
0.00800981
0.00797314
0.00793566
0.00789737
0.00785824
0.00781827
0.00777745
0.00773575
0.00769316
0.00764968
0.00760527
0.00755994
0.00751365
0.0074664
0.00741816
0.00736892
0.00731866
0.00726736
0.00721499
0.00716153
0.00710697
0.00705127
0.00699441
0.00693636
0.00687709
0.00681656
0.00675474
0.00669159
0.00662708
0.00656114
0.00649375
0.00642483
0.00635433
0.00628219
0.00620834
0.00613268
0.00605514
0.0059756
0.00589397
0.0058101
0.00572385
0.00563506
0.00554353
0.00544904
0.00535132
0.00525007
0.00514491
0.00503541
0.00492108
0.00480132
0.00467546
0.00454265
0.00440182
0.00425161
0.00409027
0.00391554
0.00372451
0.00351325
0.0032765
0.00300727
0.0026966
0.00233139
0.00189312
0.00135674
0.000699751
7.18559e-05
9.88815e-05
0.00095927
0.00180359
0.00247335
0.00302023
0.00348191
0.00388197
0.00423536
0.004552
0.00483881
0.00510076
0.00534157
0.00556409
0.00577057
0.00596282
0.00614233
0.00631035
0.00646795
0.00661603
0.00675539
0.00688673
0.00701066
0.00712773
0.00723843
0.0073432
0.00744244
0.00753651
0.00762572
0.00771039
0.00779077
0.00786711
0.00793964
0.00800856
0.00807407
0.00813633
0.00819551
0.00825175
0.00830519
0.00835596
0.00840416
0.00844991
0.00849328
0.00853436
0.00857319
0.00860982
0.00864437
0.00867696
0.00870769
0.00873666
0.00876396
0.00878966
0.00881384
0.00883654
0.00885784
0.00887778
0.00889641
0.00891379
0.00892995
0.00894493
0.00895879
0.00897155
0.00898325
0.00899393
0.00900362
0.00901236
0.00902016
0.00902706
0.00903308
0.00903826
0.00904262
0.00904617
0.00904895
0.00905096
0.00905224
0.00905279
0.00905264
0.00905181
0.0090503
0.00904814
0.00904533
0.00904189
0.00903783
0.00903316
0.0090279
0.00902204
0.00901561
0.0090086
0.00900102
0.00899289
0.0089842
0.00897496
0.00896518
0.00895486
0.008944
0.00893261
0.00892068
0.00890823
0.00889524
0.00888173
0.00886768
0.00885311
0.008838
0.00882237
0.00880619
0.00878948
0.00877223
0.00875444
0.0087361
0.0087172
0.00869775
0.00867774
0.00865717
0.00863602
0.00861429
0.00859197
0.00856907
0.00854556
0.00852145
0.00849672
0.00847136
0.00844538
0.00841875
0.00839148
0.00836355
0.00833494
0.00830566
0.00827569
0.00824502
0.00821364
0.00818153
0.0081487
0.00811512
0.00808079
0.00804568
0.0080098
0.00797313
0.00793565
0.00789736
0.00785824
0.00781827
0.00777744
0.00773574
0.00769316
0.00764967
0.00760527
0.00755993
0.00751364
0.00746639
0.00741815
0.00736892
0.00731865
0.00726735
0.00721498
0.00716153
0.00710697
0.00705127
0.0069944
0.00693635
0.00687708
0.00681655
0.00675473
0.00669159
0.00662707
0.00656114
0.00649374
0.00642482
0.00635433
0.00628219
0.00620833
0.00613267
0.00605513
0.0059756
0.00589396
0.00581009
0.00572385
0.00563506
0.00554353
0.00544903
0.00535131
0.00525006
0.0051449
0.00503541
0.00492107
0.00480131
0.00467546
0.00454265
0.00440181
0.0042516
0.00409026
0.00391554
0.00372451
0.00351325
0.0032765
0.00300726
0.0026966
0.00233139
0.00189312
0.00135674
0.000699751
7.18559e-05
0.000108301
0.00107103
0.00208075
0.00291607
0.00361446
0.00421235
0.004735
0.00519951
0.00561771
0.00599797
0.00634644
0.00666773
0.00696538
0.00724223
0.00750053
0.00774217
0.00796871
0.00818149
0.00838168
0.00857029
0.0087482
0.00891622
0.00907504
0.00922532
0.00936764
0.00950251
0.00963043
0.00975182
0.00986708
0.00997659
0.0100807
0.0101796
0.0102738
0.0103634
0.0104486
0.0105297
0.010607
0.0106805
0.0107504
0.010817
0.0108804
0.0109406
0.0109978
0.0110522
0.0111037
0.0111526
0.0111989
0.0112428
0.0112844
0.0113238
0.0113611
0.0113963
0.0114297
0.0114612
0.0114909
0.011519
0.0115453
0.0115701
0.0115933
0.011615
0.0116354
0.0116543
0.0116718
0.0116881
0.0117031
0.0117169
0.0117295
0.0117409
0.0117512
0.0117604
0.0117686
0.0117757
0.0117818
0.011787
0.0117911
0.0117944
0.0117967
0.0117981
0.0117986
0.0117983
0.0117971
0.0117951
0.0117923
0.0117886
0.0117842
0.011779
0.011773
0.0117662
0.0117587
0.0117504
0.0117414
0.0117316
0.0117211
0.0117098
0.0116979
0.0116852
0.0116718
0.0116576
0.0116428
0.0116272
0.0116109
0.0115938
0.0115761
0.0115576
0.0115383
0.0115184
0.0114976
0.0114762
0.011454
0.011431
0.0114072
0.0113827
0.0113574
0.0113313
0.0113044
0.0112767
0.0112482
0.0112188
0.0111886
0.0111576
0.0111257
0.0110929
0.0110592
0.0110247
0.0109892
0.0109528
0.0109154
0.0108771
0.0108378
0.0107975
0.0107563
0.010714
0.0106707
0.0106263
0.0105808
0.0105343
0.0104867
0.0104379
0.010388
0.010337
0.0102847
0.0102313
0.0101766
0.0101207
0.0100636
0.0100051
0.0099453
0.00988416
0.00982166
0.00975776
0.00969243
0.00962564
0.00955736
0.00948755
0.00941617
0.0093432
0.00926858
0.00919228
0.00911423
0.0090344
0.00895273
0.00886916
0.00878363
0.00869606
0.00860638
0.0085145
0.00842034
0.0083238
0.00822475
0.00812309
0.00801868
0.00791135
0.00780094
0.00768725
0.00757006
0.00744913
0.00732416
0.00719481
0.00706071
0.00692139
0.00677633
0.00662491
0.00646639
0.00629992
0.00612447
0.00593879
0.00574134
0.00553019
0.00530294
0.00505655
0.00478713
0.00448972
0.00415785
0.00378331
0.00335546
0.00286052
0.00228061
0.00159503
0.000795837
7.88661e-05
0.000108301
0.00107105
0.0020808
0.00291613
0.00361452
0.00421242
0.00473508
0.0051996
0.00561779
0.00599806
0.00634652
0.00666781
0.00696546
0.0072423
0.0075006
0.00774224
0.00796877
0.00818156
0.00838175
0.00857035
0.00874826
0.00891627
0.00907509
0.00922537
0.00936768
0.00950256
0.00963047
0.00975185
0.00986712
0.00997662
0.0100807
0.0101797
0.0102738
0.0103634
0.0104486
0.0105298
0.010607
0.0106805
0.0107505
0.010817
0.0108804
0.0109406
0.0109978
0.0110522
0.0111037
0.0111526
0.0111989
0.0112428
0.0112844
0.0113238
0.0113611
0.0113963
0.0114297
0.0114612
0.0114909
0.011519
0.0115453
0.0115701
0.0115933
0.011615
0.0116354
0.0116543
0.0116718
0.0116881
0.0117031
0.0117169
0.0117295
0.0117409
0.0117512
0.0117604
0.0117686
0.0117757
0.0117818
0.011787
0.0117911
0.0117944
0.0117967
0.0117981
0.0117986
0.0117983
0.0117971
0.0117951
0.0117923
0.0117886
0.0117842
0.011779
0.011773
0.0117662
0.0117587
0.0117504
0.0117414
0.0117316
0.0117211
0.0117098
0.0116979
0.0116852
0.0116718
0.0116576
0.0116428
0.0116272
0.0116109
0.0115938
0.0115761
0.0115576
0.0115383
0.0115184
0.0114976
0.0114762
0.011454
0.011431
0.0114072
0.0113827
0.0113574
0.0113313
0.0113044
0.0112767
0.0112482
0.0112188
0.0111886
0.0111576
0.0111257
0.0110929
0.0110592
0.0110246
0.0109892
0.0109527
0.0109154
0.0108771
0.0108378
0.0107975
0.0107563
0.010714
0.0106706
0.0106263
0.0105808
0.0105343
0.0104867
0.0104379
0.010388
0.010337
0.0102847
0.0102313
0.0101766
0.0101207
0.0100636
0.0100051
0.00994529
0.00988416
0.00982165
0.00975775
0.00969242
0.00962563
0.00955735
0.00948754
0.00941617
0.00934319
0.00926857
0.00919227
0.00911422
0.0090344
0.00895273
0.00886915
0.00878362
0.00869605
0.00860637
0.00851449
0.00842033
0.00832379
0.00822475
0.00812308
0.00801867
0.00791134
0.00780093
0.00768724
0.00757006
0.00744912
0.00732415
0.0071948
0.0070607
0.00692138
0.00677632
0.0066249
0.00646638
0.00629991
0.00612446
0.00593878
0.00574133
0.00553018
0.00530294
0.00505654
0.00478713
0.00448972
0.00415785
0.00378331
0.00335546
0.00286052
0.00228061
0.00159503
0.000795834
7.8866e-05
0.000116321
0.00116013
0.00229574
0.00326228
0.00408456
0.00479644
0.00542357
0.00598417
0.00649126
0.00695423
0.00738005
0.007774
0.00814014
0.0084817
0.00880128
0.00910105
0.00938279
0.00964804
0.00989812
0.0101342
0.0103573
0.0105684
0.0107682
0.0109575
0.0111371
0.0113075
0.0114692
0.0116229
0.011769
0.0119079
0.0120401
0.0121659
0.0122857
0.0123998
0.0125085
0.0126121
0.0127109
0.012805
0.0128947
0.0129802
0.0130617
0.0131393
0.0132133
0.0132837
0.0133507
0.0134144
0.0134751
0.0135327
0.0135875
0.0136396
0.0136891
0.0137361
0.0137808
0.0138231
0.0138633
0.0139013
0.0139373
0.0139713
0.0140035
0.0140338
0.0140623
0.0140891
0.0141143
0.0141378
0.0141598
0.0141803
0.0141993
0.0142169
0.0142331
0.014248
0.0142615
0.0142738
0.0142848
0.0142946
0.0143031
0.0143106
0.0143169
0.014322
0.0143261
0.0143291
0.0143311
0.014332
0.0143318
0.0143307
0.0143286
0.0143254
0.0143214
0.0143163
0.0143103
0.0143033
0.0142955
0.0142866
0.0142769
0.0142662
0.0142547
0.0142422
0.0142288
0.0142144
0.0141992
0.0141831
0.014166
0.0141481
0.0141292
0.0141094
0.0140886
0.0140669
0.0140443
0.0140208
0.0139963
0.0139708
0.0139444
0.013917
0.0138886
0.0138592
0.0138288
0.0137973
0.0137649
0.0137314
0.0136968
0.0136612
0.0136244
0.0135866
0.0135476
0.0135075
0.0134663
0.0134239
0.0133803
0.0133354
0.0132894
0.0132421
0.0131935
0.0131437
0.0130925
0.01304
0.0129862
0.012931
0.0128743
0.0128163
0.0127568
0.0126958
0.0126333
0.0125693
0.0125037
0.0124365
0.0123677
0.0122972
0.0122251
0.0121512
0.0120755
0.0119981
0.0119188
0.0118376
0.0117545
0.0116695
0.0115823
0.0114932
0.0114018
0.0113083
0.0112125
0.0111144
0.0110139
0.0109109
0.0108053
0.010697
0.0105859
0.010472
0.010355
0.0102349
0.0101115
0.0099846
0.00985406
0.00971964
0.00958113
0.00943827
0.00929074
0.00913821
0.00898031
0.00881657
0.0086465
0.00846948
0.00828483
0.00809174
0.00788924
0.00767621
0.00745131
0.0072129
0.00695903
0.00668728
0.00639467
0.00607753
0.00573129
0.00535022
0.00492715
0.00445314
0.00391697
0.00330509
0.00260148
0.00179013
0.000874865
8.479e-05
0.000116322
0.00116015
0.00229578
0.00326234
0.00408463
0.00479653
0.00542366
0.00598427
0.00649135
0.00695432
0.00738015
0.00777409
0.00814022
0.00848178
0.00880137
0.00910113
0.00938287
0.00964811
0.0098982
0.0101343
0.0103574
0.0105684
0.0107683
0.0109576
0.0111371
0.0113075
0.0114693
0.011623
0.011769
0.011908
0.0120401
0.0121659
0.0122857
0.0123999
0.0125086
0.0126122
0.0127109
0.012805
0.0128947
0.0129802
0.0130617
0.0131394
0.0132133
0.0132837
0.0133507
0.0134145
0.0134751
0.0135327
0.0135875
0.0136396
0.0136891
0.0137361
0.0137808
0.0138231
0.0138633
0.0139013
0.0139373
0.0139713
0.0140035
0.0140338
0.0140623
0.0140891
0.0141143
0.0141378
0.0141598
0.0141803
0.0141993
0.0142169
0.0142331
0.014248
0.0142615
0.0142738
0.0142848
0.0142946
0.0143031
0.0143106
0.0143169
0.014322
0.0143261
0.0143291
0.0143311
0.014332
0.0143318
0.0143307
0.0143286
0.0143254
0.0143213
0.0143163
0.0143103
0.0143033
0.0142955
0.0142866
0.0142769
0.0142662
0.0142547
0.0142422
0.0142288
0.0142144
0.0141992
0.0141831
0.014166
0.0141481
0.0141292
0.0141093
0.0140886
0.0140669
0.0140443
0.0140208
0.0139963
0.0139708
0.0139444
0.013917
0.0138886
0.0138592
0.0138288
0.0137973
0.0137649
0.0137314
0.0136968
0.0136612
0.0136244
0.0135866
0.0135476
0.0135075
0.0134663
0.0134239
0.0133803
0.0133354
0.0132894
0.0132421
0.0131935
0.0131437
0.0130925
0.01304
0.0129862
0.012931
0.0128743
0.0128163
0.0127568
0.0126958
0.0126333
0.0125692
0.0125037
0.0124365
0.0123677
0.0122972
0.012225
0.0121512
0.0120755
0.0119981
0.0119188
0.0118376
0.0117545
0.0116694
0.0115823
0.0114932
0.0114018
0.0113083
0.0112125
0.0111144
0.0110139
0.0109108
0.0108052
0.010697
0.0105859
0.010472
0.010355
0.0102349
0.0101115
0.00998459
0.00985405
0.00971963
0.00958113
0.00943826
0.00929073
0.0091382
0.0089803
0.00881656
0.00864649
0.00846947
0.00828482
0.00809173
0.00788923
0.0076762
0.0074513
0.0072129
0.00695902
0.00668727
0.00639467
0.00607753
0.00573128
0.00535021
0.00492715
0.00445314
0.00391697
0.0033051
0.00260148
0.00179013
0.000874861
8.479e-05
0.000123489
0.00123645
0.00247327
0.0035455
0.0044693
0.00527621
0.00599167
0.00663453
0.00721852
0.00775376
0.00824781
0.00870641
0.00913402
0.00953417
0.00990971
0.010263
0.0105959
0.0109102
0.0112073
0.0114884
0.0117547
0.0120071
0.0122465
0.0124738
0.0126898
0.012895
0.0130901
0.0132758
0.0134525
0.0136208
0.0137811
0.0139339
0.0140795
0.0142184
0.0143508
0.0144772
0.0145978
0.0147128
0.0148227
0.0149275
0.0150275
0.015123
0.0152141
0.0153009
0.0153838
0.0154628
0.0155381
0.0156099
0.0156783
0.0157435
0.0158057
0.0158648
0.0159212
0.0159748
0.0160258
0.0160743
0.0161204
0.0161641
0.0162056
0.0162449
0.0162821
0.0163173
0.0163505
0.0163818
0.0164112
0.0164389
0.0164648
0.016489
0.0165116
0.0165326
0.016552
0.0165699
0.0165864
0.0166013
0.0166149
0.0166271
0.0166379
0.0166474
0.0166555
0.0166624
0.0166681
0.0166725
0.0166756
0.0166776
0.0166784
0.016678
0.0166764
0.0166737
0.0166699
0.0166649
0.0166588
0.0166516
0.0166433
0.0166338
0.0166233
0.0166117
0.016599
0.0165852
0.0165703
0.0165543
0.0165372
0.016519
0.0164997
0.0164793
0.0164578
0.0164352
0.0164115
0.0163866
0.0163606
0.0163334
0.016305
0.0162755
0.0162448
0.0162129
0.0161798
0.0161455
0.0161099
0.0160731
0.0160349
0.0159955
0.0159548
0.0159128
0.0158694
0.0158246
0.0157785
0.0157309
0.0156819
0.0156315
0.0155795
0.0155261
0.0154711
0.0154146
0.0153565
0.0152968
0.0152354
0.0151724
0.0151077
0.0150412
0.014973
0.014903
0.0148312
0.0147575
0.0146819
0.0146043
0.0145248
0.0144433
0.0143597
0.014274
0.0141861
0.014096
0.0140037
0.0139091
0.0138121
0.0137126
0.0136107
0.0135062
0.0133991
0.0132892
0.0131766
0.0130611
0.0129425
0.0128209
0.0126961
0.012568
0.0124365
0.0123013
0.0121624
0.0120195
0.0118726
0.0117213
0.0115654
0.0114047
0.0112389
0.0110677
0.0108906
0.0107073
0.0105172
0.0103199
0.0101147
0.00990078
0.00967737
0.00944346
0.00919787
0.00893924
0.00866592
0.00837596
0.00806704
0.00773631
0.00738036
0.00699501
0.00657517
0.00611463
0.00560579
0.00503944
0.00440446
0.00368793
0.00287577
0.00195626
0.00094264
8.99778e-05
0.000123489
0.00123647
0.00247331
0.00354556
0.00446938
0.00527629
0.00599177
0.00663462
0.00721862
0.00775386
0.00824791
0.0087065
0.00913412
0.00953427
0.0099098
0.0102631
0.010596
0.0109103
0.0112074
0.0114885
0.0117547
0.0120071
0.0122466
0.0124739
0.0126898
0.0128951
0.0130902
0.0132759
0.0134526
0.0136209
0.0137812
0.0139339
0.0140796
0.0142184
0.0143509
0.0144772
0.0145978
0.0147129
0.0148227
0.0149275
0.0150275
0.015123
0.0152141
0.015301
0.0153838
0.0154628
0.0155381
0.0156099
0.0156783
0.0157436
0.0158057
0.0158648
0.0159212
0.0159748
0.0160258
0.0160743
0.0161204
0.0161641
0.0162056
0.0162449
0.0162821
0.0163173
0.0163505
0.0163818
0.0164112
0.0164389
0.0164648
0.016489
0.0165116
0.0165326
0.016552
0.0165699
0.0165864
0.0166013
0.0166149
0.0166271
0.0166379
0.0166474
0.0166555
0.0166624
0.0166681
0.0166725
0.0166756
0.0166776
0.0166784
0.016678
0.0166764
0.0166737
0.0166699
0.0166649
0.0166588
0.0166516
0.0166432
0.0166338
0.0166233
0.0166117
0.016599
0.0165852
0.0165703
0.0165543
0.0165372
0.016519
0.0164997
0.0164793
0.0164578
0.0164352
0.0164115
0.0163866
0.0163606
0.0163334
0.016305
0.0162755
0.0162448
0.0162129
0.0161798
0.0161455
0.0161099
0.016073
0.0160349
0.0159955
0.0159548
0.0159128
0.0158694