/*--------------------------------*- C++ -*----------------------------------*\
  =========                 |
  \\      /  F ield         | OpenFOAM: The Open Source CFD Toolbox
   \\    /   O peration     | Website:  https://openfoam.org
    \\  /    A nd           | Version:  8
     \\/     M anipulation  |
\*---------------------------------------------------------------------------*/
FoamFile
{
    version     2.0;
    format      ascii;
    class       volScalarField;
    location    "3000";
    object      nut;
}
// * * * * * * * * * * * * * * * * * * * * * * * * * * * * * * * * * * * * * //

dimensions      [0 2 -1 0 0 0 0];

internalField   nonuniform List<scalar> 
48000
(
4.37856e-05
7.98901e-05
0.000100728
0.000115204
0.000127236
0.000137341
0.00014609
0.000153891
0.000161124
0.000167731
0.000173877
0.000179625
0.000185028
0.000190127
0.000194955
0.000199537
0.000203894
0.000208043
0.000211998
0.000215769
0.000219367
0.000222801
0.000226077
0.000229202
0.000232182
0.000235022
0.000237727
0.000240302
0.00024275
0.000245076
0.000247283
0.000249376
0.000251358
0.000253231
0.000255001
0.00025667
0.000258241
0.000259718
0.000261103
0.000262401
0.000263613
0.000264743
0.000265794
0.000266767
0.000267676
0.000268521
0.000269299
0.00027001
0.000270658
0.000271244
0.000271773
0.000272245
0.000272664
0.000273032
0.000273351
0.000273624
0.000273851
0.000274037
0.000274181
0.000274286
0.000274354
0.000274386
0.000274384
0.00027435
0.000274284
0.000274189
0.000274065
0.000273913
0.000273736
0.000273534
0.000273307
0.000273058
0.000272786
0.000272493
0.00027218
0.000271847
0.000271496
0.000271125
0.000270738
0.000270333
0.000269912
0.000269475
0.000269022
0.000268555
0.000268072
0.000267576
0.000267065
0.000266541
0.000266003
0.000265453
0.000264889
0.000264313
0.000263724
0.000263123
0.00026251
0.000261884
0.000261247
0.000260597
0.000259936
0.000259262
0.000258577
0.000257879
0.00025717
0.000256448
0.000255714
0.000254968
0.00025421
0.000253439
0.000252656
0.00025186
0.000251051
0.000250229
0.000249394
0.000248545
0.000247683
0.000246807
0.000245916
0.000245012
0.000244093
0.000243159
0.00024221
0.000241246
0.000240266
0.00023927
0.000238258
0.000237229
0.000236184
0.000235121
0.000234042
0.000232944
0.000231829
0.000230695
0.000229542
0.000228371
0.00022718
0.00022597
0.000224739
0.000223489
0.000222217
0.000220925
0.000219612
0.000218277
0.00021692
0.000215541
0.00021414
0.000212716
0.000211268
0.000209797
0.000208302
0.000206783
0.00020524
0.000203672
0.000202078
0.000200459
0.000198815
0.000197144
0.000195446
0.000193722
0.00019197
0.00019019
0.000188382
0.000186545
0.000184678
0.000182782
0.000180855
0.000178897
0.000176907
0.000174884
0.000172826
0.000170734
0.000168606
0.00016644
0.000164236
0.00016199
0.000159702
0.000157369
0.000154988
0.000152556
0.000150071
0.000147528
0.000144925
0.000142258
0.000139536
0.000136746
0.000133864
0.000130875
0.000127767
0.000124519
0.000121109
0.000117506
0.000113671
0.000109551
0.000105113
0.000100253
9.48021e-05
8.85175e-05
8.0978e-05
7.14318e-05
5.94792e-05
0.000158588
4.37829e-05
7.98936e-05
0.000100729
0.000115205
0.000127236
0.000137342
0.00014609
0.000153892
0.000161125
0.000167732
0.000173877
0.000179625
0.000185028
0.000190128
0.000194955
0.000199538
0.000203895
0.000208043
0.000211998
0.000215769
0.000219367
0.000222801
0.000226077
0.000229202
0.000232182
0.000235022
0.000237728
0.000240302
0.00024275
0.000245076
0.000247284
0.000249376
0.000251358
0.000253231
0.000255001
0.00025667
0.000258241
0.000259718
0.000261103
0.000262401
0.000263613
0.000264743
0.000265794
0.000266767
0.000267676
0.000268521
0.000269299
0.00027001
0.000270658
0.000271244
0.000271773
0.000272245
0.000272664
0.000273032
0.000273351
0.000273624
0.000273851
0.000274036
0.000274181
0.000274286
0.000274354
0.000274386
0.000274384
0.00027435
0.000274284
0.000274189
0.000274065
0.000273913
0.000273736
0.000273534
0.000273307
0.000273058
0.000272786
0.000272493
0.00027218
0.000271847
0.000271495
0.000271125
0.000270738
0.000270333
0.000269912
0.000269475
0.000269022
0.000268555
0.000268072
0.000267576
0.000267065
0.000266541
0.000266003
0.000265453
0.000264889
0.000264313
0.000263724
0.000263123
0.00026251
0.000261884
0.000261247
0.000260597
0.000259936
0.000259262
0.000258577
0.000257879
0.00025717
0.000256448
0.000255714
0.000254968
0.00025421
0.000253439
0.000252656
0.00025186
0.000251051
0.000250229
0.000249394
0.000248545
0.000247683
0.000246807
0.000245916
0.000245012
0.000244093
0.000243159
0.00024221
0.000241246
0.000240266
0.00023927
0.000238258
0.000237229
0.000236184
0.000235121
0.000234042
0.000232944
0.000231829
0.000230695
0.000229542
0.000228371
0.00022718
0.00022597
0.000224739
0.000223489
0.000222217
0.000220925
0.000219612
0.000218277
0.00021692
0.000215541
0.00021414
0.000212716
0.000211268
0.000209797
0.000208302
0.000206783
0.00020524
0.000203672
0.000202078
0.000200459
0.000198815
0.000197144
0.000195446
0.000193722
0.00019197
0.00019019
0.000188382
0.000186545
0.000184678
0.000182782
0.000180855
0.000178897
0.000176907
0.000174884
0.000172826
0.000170734
0.000168606
0.00016644
0.000164236
0.00016199
0.000159702
0.000157369
0.000154988
0.000152556
0.000150071
0.000147528
0.000144925
0.000142258
0.000139536
0.000136746
0.000133864
0.000130875
0.000127767
0.000124519
0.000121109
0.000117506
0.000113671
0.000109551
0.000105113
0.000100253
9.48022e-05
8.85176e-05
8.09784e-05
7.14334e-05
5.94827e-05
0.000158602
6.96462e-05
0.00052089
0.000828075
0.00104236
0.00120186
0.00133254
0.00144456
0.00154301
0.00163053
0.00170995
0.00178264
0.00184969
0.00191192
0.00196998
0.00202435
0.00207544
0.00212357
0.00216901
0.00221198
0.00225267
0.00229125
0.00232786
0.00236262
0.00239564
0.00242701
0.00245683
0.00248517
0.0025121
0.00253769
0.00256199
0.00258505
0.00260694
0.0026277
0.00264737
0.00266599
0.00268361
0.00270026
0.00271598
0.00273081
0.00274477
0.00275789
0.0027702
0.00278173
0.00279244
0.00280224
0.00281125
0.00281957
0.00282726
0.00283437
0.00284092
0.00284694
0.00285244
0.00285746
0.002862
0.00286609
0.00286975
0.00287298
0.00287581
0.00287826
0.00288033
0.00288204
0.00288341
0.00288444
0.00288516
0.00288556
0.00288567
0.0028855
0.00288504
0.00288432
0.00288335
0.00288213
0.00288067
0.00287897
0.00287706
0.00287492
0.00287258
0.00287003
0.00286728
0.00286434
0.00286122
0.00285791
0.00285442
0.00285076
0.00284693
0.00284293
0.00283877
0.00283445
0.00282997
0.00282533
0.00282055
0.00281561
0.00281052
0.00280529
0.00279991
0.00279438
0.00278871
0.0027829
0.00277694
0.00277084
0.0027646
0.00275821
0.00275168
0.00274501
0.00273819
0.00273122
0.00272411
0.00271686
0.00270945
0.0027019
0.00269419
0.00268633
0.00267832
0.00267015
0.00266182
0.00265333
0.00264468
0.00263586
0.00262688
0.00261772
0.0026084
0.0025989
0.00258922
0.00257936
0.00256932
0.00255909
0.00254868
0.00253807
0.00252726
0.00251626
0.00250506
0.00249365
0.00248204
0.00247021
0.00245817
0.00244592
0.00243344
0.00242074
0.00240781
0.00239465
0.00238126
0.00236763
0.00235376
0.00233965
0.00232529
0.00231067
0.00229581
0.00228069
0.0022653
0.00224965
0.00223374
0.00221755
0.00220108
0.00218434
0.00216731
0.00215
0.00213239
0.00211448
0.00209627
0.00207776
0.00205893
0.00203978
0.00202031
0.0020005
0.00198035
0.00195985
0.001939
0.00191777
0.00189616
0.00187416
0.00185175
0.00182892
0.00180564
0.0017819
0.00175767
0.00173293
0.00170764
0.00168177
0.00165528
0.00162811
0.0016002
0.00157146
0.00154177
0.00151096
0.00147892
0.00144564
0.00141097
0.00137475
0.0013367
0.00129652
0.00125374
0.00120771
0.00115737
0.00110071
0.00103653
0.000962254
0.000873393
0.000761759
0.000610931
0.000383722
5.16317e-05
6.965e-05
0.00052091
0.00082809
0.00104238
0.00120188
0.00133257
0.00144459
0.00154303
0.00163055
0.00170997
0.00178266
0.00184971
0.00191194
0.00197
0.00202437
0.00207546
0.00212359
0.00216903
0.002212
0.00225269
0.00229127
0.00232787
0.00236263
0.00239565
0.00242703
0.00245685
0.00248518
0.00251211
0.0025377
0.002562
0.00258507
0.00260695
0.00262771
0.00264738
0.002666
0.00268362
0.00270027
0.00271599
0.00273082
0.00274478
0.0027579
0.00277021
0.00278173
0.00279245
0.00280225
0.00281126
0.00281958
0.00282727
0.00283438
0.00284093
0.00284695
0.00285245
0.00285747
0.00286201
0.0028661
0.00286975
0.00287299
0.00287582
0.00287826
0.00288034
0.00288205
0.00288341
0.00288445
0.00288516
0.00288557
0.00288568
0.0028855
0.00288505
0.00288433
0.00288336
0.00288213
0.00288067
0.00287898
0.00287706
0.00287493
0.00287258
0.00287003
0.00286729
0.00286435
0.00286122
0.00285791
0.00285443
0.00285076
0.00284693
0.00284294
0.00283877
0.00283445
0.00282998
0.00282534
0.00282055
0.00281562
0.00281053
0.0028053
0.00279992
0.00279439
0.00278872
0.00278291
0.00277695
0.00277085
0.0027646
0.00275822
0.00275169
0.00274501
0.00273819
0.00273123
0.00272412
0.00271686
0.00270946
0.0027019
0.00269419
0.00268634
0.00267832
0.00267015
0.00266182
0.00265333
0.00264468
0.00263587
0.00262688
0.00261773
0.0026084
0.0025989
0.00258922
0.00257937
0.00256933
0.0025591
0.00254868
0.00253807
0.00252727
0.00251627
0.00250507
0.00249366
0.00248204
0.00247022
0.00245818
0.00244592
0.00243345
0.00242074
0.00240782
0.00239466
0.00238127
0.00236764
0.00235377
0.00233965
0.00232529
0.00231068
0.00229581
0.00228069
0.00226531
0.00224966
0.00223374
0.00221755
0.00220109
0.00218435
0.00216732
0.00215
0.00213239
0.00211449
0.00209628
0.00207776
0.00205893
0.00203979
0.00202031
0.0020005
0.00198036
0.00195986
0.001939
0.00191777
0.00189617
0.00187417
0.00185176
0.00182892
0.00180565
0.00178191
0.00175768
0.00173294
0.00170765
0.00168178
0.00165528
0.00162811
0.0016002
0.00157146
0.00154178
0.00151096
0.00147893
0.00144564
0.00141098
0.00137475
0.00133671
0.00129653
0.00125375
0.00120771
0.00115737
0.00110072
0.00103653
0.000962257
0.000873393
0.000761754
0.000610914
0.00038372
5.16274e-05
8.66902e-05
0.000791148
0.00140716
0.00186739
0.00223008
0.00253099
0.00278949
0.00301668
0.0032194
0.00340258
0.0035696
0.00372296
0.00386459
0.00399596
0.00411829
0.00423255
0.00433955
0.00443999
0.00453444
0.00462342
0.00470735
0.00478663
0.00486159
0.00493253
0.00499973
0.00506341
0.0051238
0.00518109
0.00523547
0.00528708
0.00533607
0.00538259
0.00542675
0.00546866
0.00550844
0.00554618
0.00558196
0.00561588
0.005648
0.00567841
0.00570716
0.0057343
0.00575988
0.0057839
0.00580634
0.0058273
0.00584691
0.00586526
0.00588243
0.00589847
0.00591344
0.00592738
0.00594034
0.00595235
0.00596344
0.00597366
0.00598303
0.00599159
0.00599935
0.00600636
0.00601264
0.00601821
0.0060231
0.00602732
0.00603091
0.00603388
0.00603626
0.00603805
0.00603929
0.00603999
0.00604016
0.00603982
0.00603898
0.00603766
0.00603588
0.00603363
0.00603095
0.00602783
0.00602428
0.00602033
0.00601596
0.00601121
0.00600606
0.00600053
0.00599463
0.00598836
0.00598173
0.00597474
0.0059674
0.00595971
0.00595168
0.0059433
0.00593458
0.00592553
0.00591614
0.00590642
0.00589637
0.00588599
0.00587527
0.00586423
0.00585285
0.00584115
0.00582911
0.00581673
0.00580402
0.00579098
0.00577759
0.00576387
0.00574979
0.00573538
0.0057206
0.00570548
0.00569
0.00567415
0.00565794
0.00564135
0.00562439
0.00560705
0.00558932
0.0055712
0.00555268
0.00553377
0.00551444
0.00549469
0.00547453
0.00545394
0.00543292
0.00541145
0.00538954
0.00536717
0.00534435
0.00532105
0.00529728
0.00527303
0.00524829
0.00522305
0.00519731
0.00517105
0.00514428
0.00511697
0.00508913
0.00506075
0.00503181
0.00500231
0.00497224
0.00494159
0.00491035
0.00487852
0.00484608
0.00481302
0.00477933
0.00474501
0.00471003
0.00467439
0.00463808
0.00460108
0.00456338
0.00452496
0.00448581
0.00444591
0.00440524
0.00436378
0.00432151
0.00427841
0.00423445
0.00418959
0.00414382
0.00409709
0.00404937
0.00400061
0.00395077
0.00389979
0.00384761
0.00379416
0.00373936
0.00368313
0.00362535
0.00356591
0.00350466
0.00344142
0.00337598
0.00330807
0.00323739
0.00316362
0.00308646
0.00300543
0.00291994
0.00282923
0.00273234
0.00262792
0.00251418
0.00238855
0.00224736
0.00208604
0.0018984
0.00167427
0.00139757
0.00104225
0.00057097
6.27457e-05
8.66917e-05
0.000791162
0.00140719
0.00186743
0.00223012
0.00253104
0.00278954
0.00301672
0.00321944
0.00340262
0.00356964
0.00372301
0.00386463
0.003996
0.00411833
0.00423258
0.00433959
0.00444002
0.00453448
0.00462345
0.00470738
0.00478666
0.00486162
0.00493256
0.00499975
0.00506343
0.00512382
0.00518112
0.00523549
0.00528709
0.00533609
0.00538261
0.00542676
0.00546868
0.00550846
0.00554619
0.00558198
0.00561589
0.00564802
0.00567842
0.00570717
0.00573431
0.00575989
0.00578391
0.00580635
0.00582731
0.00584692
0.00586527
0.00588244
0.00589848
0.00591345
0.00592739
0.00594035
0.00595235
0.00596345
0.00597367
0.00598304
0.00599159
0.00599936
0.00600637
0.00601264
0.00601821
0.0060231
0.00602733
0.00603091
0.00603389
0.00603626
0.00603806
0.0060393
0.00603999
0.00604016
0.00603982
0.00603898
0.00603767
0.00603588
0.00603364
0.00603095
0.00602783
0.00602428
0.00602033
0.00601597
0.00601121
0.00600606
0.00600054
0.00599464
0.00598837
0.00598174
0.00597475
0.0059674
0.00595971
0.00595168
0.0059433
0.00593458
0.00592553
0.00591614
0.00590642
0.00589637
0.00588599
0.00587527
0.00586423
0.00585285
0.00584115
0.00582911
0.00581673
0.00580403
0.00579098
0.0057776
0.00576387
0.0057498
0.00573538
0.00572061
0.00570548
0.00569
0.00567415
0.00565794
0.00564135
0.00562439
0.00560705
0.00558932
0.0055712
0.00555269
0.00553377
0.00551444
0.00549469
0.00547453
0.00545394
0.00543292
0.00541145
0.00538954
0.00536717
0.00534435
0.00532105
0.00529728
0.00527303
0.00524829
0.00522305
0.00519731
0.00517105
0.00514428
0.00511697
0.00508913
0.00506075
0.00503181
0.00500231
0.00497224
0.00494159
0.00491035
0.00487852
0.00484608
0.00481302
0.00477933
0.00474501
0.00471003
0.00467439
0.00463808
0.00460108
0.00456338
0.00452496
0.00448581
0.00444591
0.00440524
0.00436378
0.00432151
0.00427841
0.00423445
0.00418959
0.00414382
0.00409709
0.00404937
0.00400061
0.00395077
0.00389979
0.00384761
0.00379416
0.00373936
0.00368313
0.00362535
0.00356591
0.00350466
0.00344142
0.00337598
0.00330807
0.00323739
0.00316362
0.00308646
0.00300543
0.00291994
0.00282924
0.00273234
0.00262792
0.00251418
0.00238855
0.00224736
0.00208604
0.0018984
0.00167427
0.00139757
0.00104224
0.000570977
6.27451e-05
9.83379e-05
0.000953984
0.00179365
0.00245971
0.00300358
0.00346273
0.00386058
0.00421204
0.00452694
0.00481217
0.00507268
0.00531217
0.00553347
0.00573881
0.00593001
0.00610853
0.00627563
0.00643236
0.00657963
0.00671823
0.00684885
0.0069721
0.00708853
0.00719862
0.00730281
0.00740151
0.00749506
0.00758378
0.00766798
0.00774792
0.00782384
0.00789597
0.00796451
0.00802966
0.00809157
0.00815043
0.00820636
0.0082595
0.00830999
0.00835792
0.00840341
0.00844655
0.00848739
0.00852601
0.00856244
0.0085968
0.0086292
0.00865976
0.00868857
0.00871572
0.00874128
0.00876531
0.00878789
0.00880907
0.00882889
0.00884742
0.0088647
0.00888077
0.00889567
0.00890945
0.00892213
0.00893377
0.00894439
0.00895402
0.0089627
0.00897046
0.00897732
0.00898331
0.00898846
0.00899279
0.00899632
0.00899907
0.00900108
0.00900234
0.00900289
0.00900274
0.00900191
0.00900041
0.00899826
0.00899546
0.00899204
0.008988
0.00898336
0.00897812
0.00897229
0.00896589
0.00895892
0.00895138
0.00894329
0.00893465
0.00892546
0.00891574
0.00890547
0.00889467
0.00888334
0.00887148
0.00885909
0.00884618
0.00883273
0.00881877
0.00880427
0.00878925
0.0087737
0.00875761
0.00874099
0.00872384
0.00870614
0.0086879
0.00866911
0.00864977
0.00862987
0.0086094
0.00858837
0.00856676
0.00854457
0.00852179
0.00849841
0.00847443
0.00844984
0.00842462
0.00839878
0.0083723
0.00834518
0.0083174
0.00828895
0.00825983
0.00823002
0.00819952
0.00816831
0.00813639
0.00810374
0.00807034
0.0080362
0.00800129
0.00796561
0.00792914
0.00789187
0.00785378
0.00781487
0.00777513
0.00773452
0.00769306
0.00765071
0.00760746
0.0075633
0.00751821
0.00747218
0.00742519
0.00737722
0.00732825
0.00727827
0.00722725
0.00717517
0.00712201
0.00706775
0.00701236
0.00695581
0.00689808
0.00683913
0.00677894
0.00671746
0.00665466
0.0065905
0.00652493
0.00645791
0.00638937
0.00631927
0.00624752
0.00617407
0.00609883
0.00602172
0.00594262
0.00586144
0.00577803
0.00569226
0.00560396
0.00551294
0.00541897
0.00532179
0.00522109
0.00511651
0.00500762
0.00489392
0.00477482
0.00464966
0.00451758
0.00437753
0.00422814
0.00406769
0.00389393
0.00370396
0.00349386
0.00325842
0.00299067
0.00268172
0.00231852
0.00188267
0.00134925
0.000695889
7.14594e-05
9.83385e-05
0.000954002
0.00179369
0.00245977
0.00300364
0.00346279
0.00386065
0.0042121
0.004527
0.00481223
0.00507275
0.00531224
0.00553353
0.00573887
0.00593006
0.00610859
0.00627568
0.00643241
0.00657968
0.00671827
0.00684889
0.00697214
0.00708856
0.00719865
0.00730285
0.00740154
0.00749509
0.00758381
0.00766801
0.00774794
0.00782386
0.00789599
0.00796453
0.00802968
0.00809159
0.00815044
0.00820637
0.00825952
0.00831
0.00835794
0.00840343
0.00844656
0.0084874
0.00852602
0.00856245
0.00859681
0.00862921
0.00865977
0.00868858
0.00871572
0.00874128
0.00876532
0.00878789
0.00880907
0.0088289
0.00884743
0.0088647
0.00888077
0.00889567
0.00890945
0.00892213
0.00893377
0.00894439
0.00895402
0.0089627
0.00897046
0.00897732
0.00898331
0.00898846
0.00899279
0.00899632
0.00899907
0.00900108
0.00900234
0.00900289
0.00900274
0.00900191
0.00900041
0.00899825
0.00899546
0.00899204
0.008988
0.00898336
0.00897812
0.00897229
0.00896589
0.00895892
0.00895138
0.00894329
0.00893465
0.00892546
0.00891573
0.00890547
0.00889467
0.00888334
0.00887148
0.00885909
0.00884617
0.00883273
0.00881876
0.00880427
0.00878925
0.00877369
0.00875761
0.00874099
0.00872383
0.00870614
0.0086879
0.00866911
0.00864976
0.00862986
0.0086094
0.00858836
0.00856675
0.00854456
0.00852178
0.0084984
0.00847442
0.00844983
0.00842462
0.00839878
0.0083723
0.00834517
0.00831739
0.00828895
0.00825983
0.00823002
0.00819952
0.00816831
0.00813638
0.00810373
0.00807034
0.00803619
0.00800128
0.0079656
0.00792913
0.00789186
0.00785378
0.00781487
0.00777512
0.00773452
0.00769305
0.0076507
0.00760745
0.00756329
0.00751821
0.00747218
0.00742519
0.00737722
0.00732825
0.00727826
0.00722724
0.00717516
0.00712201
0.00706774
0.00701235
0.0069558
0.00689807
0.00683913
0.00677893
0.00671746
0.00665466
0.0065905
0.00652493
0.0064579
0.00638937
0.00631926
0.00624752
0.00617407
0.00609883
0.00602171
0.00594262
0.00586143
0.00577803
0.00569226
0.00560396
0.00551293
0.00541896
0.00532178
0.00522109
0.00511651
0.00500762
0.00489391
0.00477482
0.00464965
0.00451758
0.00437752
0.00422814
0.00406769
0.00389393
0.00370395
0.00349386
0.00325842
0.00299067
0.00268172
0.00231852
0.00188267
0.00134925
0.00069589
7.14593e-05
0.000107706
0.00106515
0.00206933
0.00290005
0.00359461
0.00418921
0.00470899
0.00517096
0.00558686
0.00596503
0.00631159
0.0066311
0.00692713
0.00720245
0.00745933
0.00769964
0.00792493
0.00813655
0.00833564
0.0085232
0.00870014
0.00886722
0.00902518
0.00917463
0.00931616
0.00945029
0.0095775
0.00969822
0.00981284
0.00992175
0.0100253
0.0101237
0.0102173
0.0103064
0.0103911
0.0104718
0.0105486
0.0106217
0.0106913
0.0107575
0.0108205
0.0108804
0.0109373
0.0109914
0.0110426
0.0110912
0.0111372
0.0111809
0.0112222
0.0112614
0.0112985
0.0113336
0.0113668
0.0113981
0.0114277
0.0114555
0.0114817
0.0115064
0.0115295
0.0115511
0.0115713
0.0115901
0.0116075
0.0116237
0.0116386
0.0116523
0.0116648
0.0116762
0.0116865
0.0116956
0.0117037
0.0117108
0.0117169
0.011722
0.0117261
0.0117294
0.0117317
0.0117331
0.0117336
0.0117333
0.0117321
0.0117301
0.0117272
0.0117236
0.0117192
0.011714
0.011708
0.0117013
0.0116938
0.0116856
0.0116766
0.0116669
0.0116564
0.0116453
0.0116334
0.0116207
0.0116074
0.0115933
0.0115785
0.011563
0.0115468
0.0115299
0.0115122
0.0114938
0.0114747
0.0114548
0.0114342
0.0114129
0.0113908
0.0113679
0.0113443
0.0113199
0.0112947
0.0112688
0.011242
0.0112145
0.0111861
0.0111569
0.0111269
0.011096
0.0110643
0.0110317
0.0109982
0.0109638
0.0109285
0.0108923
0.0108552
0.0108171
0.010778
0.0107379
0.0106969
0.0106549
0.0106118
0.0105676
0.0105225
0.0104762
0.0104288
0.0103803
0.0103307
0.0102799
0.010228
0.0101748
0.0101205
0.0100649
0.010008
0.00994987
0.00989041
0.00982962
0.00976746
0.00970391
0.00963894
0.00957252
0.00950461
0.00943519
0.00936421
0.00929164
0.00921743
0.00914154
0.00906393
0.00898454
0.00890333
0.00882022
0.00873515
0.00864807
0.00855888
0.00846751
0.00837387
0.00827786
0.00817936
0.00807826
0.00797442
0.00786769
0.00775788
0.00764482
0.00752829
0.00740802
0.00728374
0.00715511
0.00702174
0.00688319
0.00673893
0.00658835
0.0064307
0.00626515
0.00609067
0.00590601
0.00570965
0.00549967
0.00527367
0.00502864
0.00476071
0.00446494
0.0041349
0.00376243
0.00333694
0.00284474
0.00226803
0.00158623
0.000791445
7.84308e-05
0.000107706
0.00106517
0.00206937
0.00290011
0.00359467
0.00418929
0.00470907
0.00517104
0.00558694
0.00596511
0.00631167
0.00663118
0.0069272
0.00720252
0.0074594
0.00769971
0.007925
0.00813661
0.0083357
0.00852326
0.00870019
0.00886728
0.00902523
0.00917468
0.0093162
0.00945033
0.00957754
0.00969825
0.00981288
0.00992178
0.0100253
0.0101237
0.0102173
0.0103064
0.0103912
0.0104719
0.0105487
0.0106218
0.0106913
0.0107575
0.0108205
0.0108804
0.0109373
0.0109914
0.0110426
0.0110912
0.0111372
0.0111809
0.0112223
0.0112614
0.0112985
0.0113336
0.0113668
0.0113981
0.0114277
0.0114555
0.0114817
0.0115064
0.0115295
0.0115511
0.0115713
0.0115901
0.0116075
0.0116237
0.0116386
0.0116523
0.0116648
0.0116762
0.0116865
0.0116956
0.0117037
0.0117108
0.0117169
0.011722
0.0117261
0.0117294
0.0117317
0.0117331
0.0117336
0.0117332
0.0117321
0.0117301
0.0117272
0.0117236
0.0117192
0.011714
0.011708
0.0117013
0.0116938
0.0116856
0.0116766
0.0116669
0.0116564
0.0116453
0.0116334
0.0116207
0.0116074
0.0115933
0.0115785
0.011563
0.0115468
0.0115299
0.0115122
0.0114938
0.0114747
0.0114548
0.0114342
0.0114129
0.0113908
0.0113679
0.0113443
0.0113199
0.0112947
0.0112688
0.011242
0.0112145
0.0111861
0.0111569
0.0111269
0.011096
0.0110643
0.0110317
0.0109982
0.0109638
0.0109285
0.0108923
0.0108552
0.0108171
0.010778
0.0107379
0.0106969
0.0106548
0.0106118
0.0105676
0.0105224
0.0104762
0.0104288
0.0103803
0.0103307
0.0102799
0.010228
0.0101748
0.0101205
0.0100649
0.010008
0.00994986
0.0098904
0.00982961
0.00976745
0.0097039
0.00963893
0.00957251
0.0095046
0.00943518
0.0093642
0.00929163
0.00921742
0.00914154
0.00906392
0.00898454
0.00890332
0.00882021
0.00873514
0.00864806
0.00855887
0.0084675
0.00837386
0.00827785
0.00817936
0.00807825
0.00797441
0.00786768
0.00775788
0.00764482
0.00752828
0.00740801
0.00728373
0.0071551
0.00702173
0.00688319
0.00673893
0.00658834
0.00643069
0.00626514
0.00609066
0.00590601
0.00570964
0.00549966
0.00527367
0.00502864
0.00476071
0.00446494
0.0041349
0.00376243
0.00333694
0.00284474
0.00226803
0.00158623
0.000791442
7.84308e-05
0.000115682
0.00115376
0.00228313
0.00324437
0.00406212
0.0047701
0.00539378
0.00595131
0.00645561
0.00691604
0.00733952
0.0077313
0.00809542
0.00843511
0.00875294
0.00905105
0.00933124
0.00959503
0.00984374
0.0100785
0.0103004
0.0105103
0.010709
0.0108973
0.0110759
0.0112453
0.0114062
0.011559
0.0117043
0.0118425
0.0119739
0.012099
0.0122182
0.0123316
0.0124397
0.0125428
0.012641
0.0127346
0.0128238
0.0129088
0.0129898
0.0130671
0.0131406
0.0132106
0.0132772
0.0133406
0.0134009
0.0134582
0.0135127
0.0135645
0.0136137
0.0136605
0.0137049
0.013747
0.0137869
0.0138248
0.0138605
0.0138944
0.0139263
0.0139565
0.0139848
0.0140115
0.0140365
0.0140599
0.0140818
0.0141022
0.0141211
0.0141386
0.0141547
0.0141694
0.0141829
0.0141951
0.014206
0.0142158
0.0142243
0.0142317
0.0142379
0.0142431
0.0142471
0.0142501
0.014252
0.0142529
0.0142528
0.0142517
0.0142495
0.0142464
0.0142424
0.0142373
0.0142314
0.0142245
0.0142166
0.0142078
0.0141982
0.0141876
0.014176
0.0141636
0.0141503
0.014136
0.0141209
0.0141048
0.0140879
0.01407
0.0140512
0.0140315
0.0140109
0.0139893
0.0139668
0.0139434
0.0139191
0.0138937
0.0138674
0.0138402
0.0138119
0.0137827
0.0137525
0.0137212
0.0136889
0.0136556
0.0136212
0.0135858
0.0135493
0.0135116
0.0134729
0.013433
0.013392
0.0133498
0.0133064
0.0132619
0.0132161
0.013169
0.0131207
0.0130712
0.0130203
0.0129681
0.0129145
0.0128596
0.0128033
0.0127455
0.0126864
0.0126257
0.0125636
0.0124999
0.0124347
0.0123678
0.0122994
0.0122293
0.0121576
0.0120841
0.0120089
0.0119319
0.011853
0.0117723
0.0116897
0.0116051
0.0115184
0.0114297
0.0113389
0.0112459
0.0111506
0.0110531
0.0109531
0.0108506
0.0107456
0.0106379
0.0105275
0.0104142
0.0102979
0.0101784
0.0100557
0.0099295
0.00979967
0.009666
0.00952826
0.00938618
0.00923946
0.00908778
0.00893075
0.00876791
0.00859878
0.00842274
0.00823911
0.00804708
0.0078457
0.00763385
0.00741018
0.0071731
0.00692063
0.00665037
0.00635938
0.00604399
0.00569966
0.00532069
0.00489996
0.00442857
0.00389535
0.00328685
0.00258712
0.00178025
0.000870036
8.43221e-05
0.000115683
0.00115378
0.00228317
0.00324443
0.0040622
0.00477018
0.00539387
0.0059514
0.0064557
0.00691613
0.00733961
0.00773139
0.00809551
0.00843519
0.00875302
0.00905114
0.00933132
0.00959511
0.00984382
0.0100786
0.0103005
0.0105104
0.0107091
0.0108974
0.0110759
0.0112454
0.0114062
0.0115591
0.0117043
0.0118425
0.0119739
0.0120991
0.0122182
0.0123317
0.0124398
0.0125428
0.012641
0.0127346
0.0128238
0.0129088
0.0129899
0.0130671
0.0131406
0.0132106
0.0132773
0.0133406
0.0134009
0.0134582
0.0135127
0.0135645
0.0136138
0.0136605
0.0137049
0.013747
0.0137869
0.0138248
0.0138606
0.0138944
0.0139263
0.0139565
0.0139848
0.0140115
0.0140365
0.0140599
0.0140818
0.0141022
0.0141211
0.0141386
0.0141547
0.0141694
0.0141829
0.0141951
0.014206
0.0142158
0.0142243
0.0142317
0.0142379
0.0142431
0.0142471
0.0142501
0.014252
0.0142529
0.0142528
0.0142517
0.0142495
0.0142464
0.0142424
0.0142373
0.0142314
0.0142245
0.0142166
0.0142078
0.0141982
0.0141876
0.014176
0.0141636
0.0141503
0.014136
0.0141209
0.0141048
0.0140879
0.01407
0.0140512
0.0140315
0.0140109
0.0139893
0.0139668
0.0139434
0.0139191
0.0138937
0.0138674
0.0138402
0.0138119
0.0137827
0.0137525
0.0137212
0.0136889
0.0136556
0.0136212
0.0135858
0.0135492
0.0135116
0.0134729
0.013433
0.013392
0.0133498
0.0133064
0.0132619
0.0132161
0.013169
0.0131207
0.0130712
0.0130203
0.0129681
0.0129145
0.0128596
0.0128033
0.0127455
0.0126864
0.0126257
0.0125636
0.0124999
0.0124347
0.0123678
0.0122994
0.0122293
0.0121576
0.0120841
0.0120089
0.0119319
0.011853
0.0117723
0.0116896
0.011605
0.0115184
0.0114297
0.0113389
0.0112459
0.0111506
0.0110531
0.0109531
0.0108506
0.0107456
0.0106379
0.0105275
0.0104142
0.0102979
0.0101784
0.0100557
0.00992949
0.00979966
0.00966599
0.00952825
0.00938617
0.00923945
0.00908777
0.00893074
0.00876791
0.00859877
0.00842273
0.0082391
0.00804707
0.00784569
0.00763384
0.00741017
0.00717309
0.00692062
0.00665037
0.00635937
0.00604399
0.00569965
0.00532069
0.00489996
0.00442857
0.00389535
0.00328686
0.00258712
0.00178025
0.000870033
8.43221e-05
0.000122811
0.00122966
0.00245969
0.00352603
0.00444476
0.00524723
0.00595877
0.00659809
0.00717887
0.00771117
0.00820251
0.00865859
0.00908385
0.0094818
0.00985527
0.0102066
0.0105377
0.0108503
0.0111457
0.0114253
0.0116901
0.0119411
0.0121792
0.0124053
0.01262
0.0128241
0.0130182
0.0132028
0.0133786
0.0135459
0.0137054
0.0138573
0.0140021
0.0141402
0.0142719
0.0143976
0.0145175
0.0146319
0.0147411
0.0148454
0.0149448
0.0150398
0.0151303
0.0152168
0.0152992
0.0153777
0.0154526
0.015524
0.015592
0.0156569
0.0157187
0.0157775
0.0158335
0.0158868
0.0159376
0.0159858
0.0160316
0.0160751
0.0161163
0.0161554
0.0161924
0.0162274
0.0162604
0.0162915
0.0163208
0.0163483
0.0163741
0.0163982
0.0164206
0.0164415
0.0164608
0.0164786
0.0164949
0.0165098
0.0165233
0.0165354
0.0165462
0.0165556
0.0165637
0.0165706
0.0165762
0.0165805
0.0165837
0.0165856
0.0165864
0.016586
0.0165844
0.0165817
0.0165779
0.016573
0.0165669
0.0165597
0.0165514
0.0165421
0.0165316
0.0165201
0.0165074
0.0164937
0.0164789
0.016463
0.016446
0.0164279
0.0164087
0.0163884
0.016367
0.0163445
0.0163209
0.0162962
0.0162703
0.0162433
0.0162151
0.0161857
0.0161552
0.0161235
0.0160905
0.0160564
0.016021
0.0159844
0.0159465
0.0159073
0.0158668
0.015825
0.0157818
0.0157373
0.0156914
0.0156441
0.0155954
0.0155452
0.0154935
0.0154404
0.0153857
0.0153295
0.0152717
0.0152124
0.0151513
0.0150887
0.0150243
0.0149582
0.0148904
0.0148208
0.0147493
0.014676
0.0146009
0.0145237
0.0144447
0.0143636
0.0142804
0.0141952
0.0141078
0.0140183
0.0139264
0.0138323
0.0137358
0.013637
0.0135356
0.0134317
0.0133251
0.0132159
0.0131039
0.012989
0.0128711
0.0127502
0.0126261
0.0124987
0.0123678
0.0122334
0.0120952
0.0119532
0.011807
0.0116566
0.0115016
0.0113418
0.0111769
0.0110066
0.0108305
0.0106482
0.0104592
0.010263
0.0100589
0.00984614
0.00962397
0.00939134
0.00914711
0.0088899
0.00861809
0.00832974
0.00802252
0.00769361
0.00733963
0.0069564
0.00653888
0.00608088
0.00557486
0.00501163
0.00438015
0.00366757
0.0028599
0.00194547
0.000937437
8.94813e-05
0.000122811
0.00122968
0.00245973
0.00352609
0.00444484
0.00524732
0.00595886
0.00659819
0.00717897
0.00771127
0.00820261
0.00865868
0.00908394
0.0094819
0.00985537
0.0102067
0.0105378
0.0108504
0.0111458
0.0114254
0.0116901
0.0119412
0.0121793
0.0124054
0.0126201
0.0128242
0.0130183
0.0132029
0.0133786
0.013546
0.0137054
0.0138573
0.0140022
0.0141402
0.014272
0.0143976
0.0145175
0.0146319
0.0147411
0.0148454
0.0149449
0.0150398
0.0151304
0.0152168
0.0152992
0.0153777
0.0154526
0.015524
0.0155921
0.0156569
0.0157187
0.0157775
0.0158335
0.0158868
0.0159376
0.0159858
0.0160316
0.0160751
0.0161163
0.0161554
0.0161924
0.0162274
0.0162604
0.0162915
0.0163208
0.0163483
0.0163741
0.0163982
0.0164206
0.0164415
0.0164608
0.0164786
0.0164949
0.0165098
0.0165233
0.0165354
0.0165462
0.0165556
0.0165637
0.0165706
0.0165762
0.0165805
0.0165837
0.0165856
0.0165864
0.016586
0.0165844
0.0165817
0.0165779
0.016573
0.0165669
0.0165597
0.0165514
0.0165421
0.0165316
0.0165201
0.0165074
0.0164937
0.0164789
0.016463
0.016446
0.0164279
0.0164087
0.0163884
0.016367
0.0163445
0.0163209
0.0162962
0.0162703
0.0162433
0.0162151
0.0161857
0.0161552
0.0161235
0.0160905
0.0160564
0.016021
0.0159844
0.0159465
0.0159073