/*--------------------------------*- C++ -*----------------------------------*\
  =========                 |
  \\      /  F ield         | OpenFOAM: The Open Source CFD Toolbox
   \\    /   O peration     | Website:  https://openfoam.org
    \\  /    A nd           | Version:  8
     \\/     M anipulation  |
\*---------------------------------------------------------------------------*/
FoamFile
{
    version     2.0;
    format      ascii;
    class       surfaceScalarField;
    location    "3000";
    object      phi;
}
// * * * * * * * * * * * * * * * * * * * * * * * * * * * * * * * * * * * * * //

dimensions      [1 0 -1 0 0 0 0];

internalField   nonuniform List<scalar> 
119360
(
-3.43479e-07
1.43376e-12
3.43475e-07
-5.94315e-07
-3.42385e-13
2.50827e-07
-7.04943e-07
-1.10311e-12
1.10608e-07
-6.90412e-07
-9.59672e-13
-1.45447e-08
-5.85094e-07
-7.6827e-13
-1.05329e-07
-4.18545e-07
-7.30135e-13
-1.6656e-07
-2.1224e-07
-6.4115e-13
-2.06314e-07
1.8719e-08
-4.45585e-13
-2.30968e-07
2.63194e-07
-2.26205e-13
-2.44484e-07
5.13235e-07
-8.34025e-14
-2.50051e-07
7.63816e-07
-5.64521e-14
-2.50591e-07
1.01134e-06
-1.10131e-13
-2.47538e-07
1.25329e-06
-1.92704e-13
-2.41956e-07
1.48785e-06
-2.65702e-13
-2.34572e-07
1.71374e-06
-3.09861e-13
-2.25905e-07
1.93007e-06
-3.21851e-13
-2.16337e-07
2.13621e-06
-3.07002e-13
-2.06158e-07
2.33179e-06
-2.74084e-13
-1.95586e-07
2.51657e-06
-2.31285e-13
-1.84795e-07
2.69049e-06
-1.85211e-13
-1.7392e-07
2.85355e-06
-1.40386e-13
-1.6307e-07
3.00587e-06
-9.94183e-14
-1.52331e-07
3.14764e-06
-6.36692e-14
-1.41775e-07
3.27909e-06
-3.37209e-14
-1.31458e-07
3.4005e-06
-9.3515e-15
-1.21424e-07
3.51221e-06
9.68883e-15
-1.11711e-07
3.61455e-06
2.40662e-14
-1.02347e-07
3.70789e-06
3.4655e-14
-9.33524e-08
3.79263e-06
4.20796e-14
-8.47429e-08
3.86915e-06
4.7034e-14
-7.65291e-08
3.93786e-06
5.01565e-14
-6.87166e-08
3.99916e-06
5.19745e-14
-6.13077e-08
4.05345e-06
5.29043e-14
-5.43008e-08
4.10114e-06
5.32929e-14
-4.76919e-08
4.1426e-06
5.32374e-14
-4.14741e-08
4.17823e-06
5.31264e-14
-3.56387e-08
4.2084e-06
5.27655e-14
-3.01752e-08
4.23347e-06
5.24602e-14
-2.50716e-08
4.25378e-06
5.21411e-14
-2.03146e-08
4.26966e-06
5.17941e-14
-1.58905e-08
4.28144e-06
5.15721e-14
-1.17845e-08
4.28941e-06
5.1239e-14
-7.98193e-09
4.29388e-06
5.10447e-14
-4.46753e-09
4.2951e-06
5.07533e-14
-1.22523e-09
4.29333e-06
5.05868e-14
1.7604e-09
4.28882e-06
5.05174e-14
4.50402e-09
4.28179e-06
5.04896e-14
7.02078e-09
4.27246e-06
5.05451e-14
9.32539e-09
4.26103e-06
5.06561e-14
1.14319e-08
4.24767e-06
5.08921e-14
1.33536e-08
4.23256e-06
5.1128e-14
1.51032e-08
4.21586e-06
5.15166e-14
1.66929e-08
4.19772e-06
5.20161e-14
1.81343e-08
4.17828e-06
5.25296e-14
1.94382e-08
4.15766e-06
5.31125e-14
2.0615e-08
4.13598e-06
5.38063e-14
2.16745e-08
4.11335e-06
5.46945e-14
2.26257e-08
4.08986e-06
5.54161e-14
2.34771e-08
4.06562e-06
5.62488e-14
2.42368e-08
4.0407e-06
5.70815e-14
2.49121e-08
4.01519e-06
5.80112e-14
2.55099e-08
3.98915e-06
5.90104e-14
2.60366e-08
3.96264e-06
5.98431e-14
2.6498e-08
3.93574e-06
6.07174e-14
2.68996e-08
3.90849e-06
6.16055e-14
2.72465e-08
3.88094e-06
6.25076e-14
2.75433e-08
3.85314e-06
6.32708e-14
2.77943e-08
3.82513e-06
6.40618e-14
2.80035e-08
3.79695e-06
6.48528e-14
2.81746e-08
3.76863e-06
6.55467e-14
2.8311e-08
3.74021e-06
6.61712e-14
2.84157e-08
3.71172e-06
6.67818e-14
2.84918e-08
3.68317e-06
6.7323e-14
2.85418e-08
3.6546e-06
6.78642e-14
2.85682e-08
3.62602e-06
6.83499e-14
2.85734e-08
3.59745e-06
6.87384e-14
2.85596e-08
3.56892e-06
6.91547e-14
2.85285e-08
3.54043e-06
6.95155e-14
2.84823e-08
3.512e-06
6.97792e-14
2.84224e-08
3.48365e-06
6.99873e-14
2.83507e-08
3.45537e-06
7.0251e-14
2.82685e-08
3.42719e-06
7.03758e-14
2.81773e-08
3.39911e-06
7.05146e-14
2.80784e-08
3.37113e-06
7.06256e-14
2.7973e-08
3.34326e-06
7.07366e-14
2.78624e-08
3.31551e-06
7.08614e-14
2.77476e-08
3.28787e-06
7.09169e-14
2.76296e-08
3.26036e-06
7.09863e-14
2.75094e-08
3.23296e-06
7.10834e-14
2.73879e-08
3.20569e-06
7.10417e-14
2.72661e-08
3.17854e-06
7.10972e-14
2.71448e-08
3.15151e-06
7.12221e-14
2.70246e-08
3.1246e-06
7.12359e-14
2.69065e-08
3.09781e-06
7.12914e-14
2.6791e-08
3.07112e-06
7.1333e-14
2.6679e-08
3.04454e-06
7.14301e-14
2.65709e-08
3.01807e-06
7.16244e-14
2.64675e-08
2.9917e-06
7.17631e-14
2.63693e-08
2.96541e-06
7.20406e-14
2.62769e-08
2.93922e-06
7.21933e-14
2.61908e-08
2.9131e-06
7.24292e-14
2.61117e-08
2.88706e-06
7.27622e-14
2.60399e-08
2.86107e-06
7.31369e-14
2.59759e-08
2.83515e-06
7.34977e-14
2.59203e-08
2.80927e-06
7.38307e-14
2.58735e-08
2.78343e-06
7.43303e-14
2.58359e-08
2.75762e-06
7.48021e-14
2.5808e-08
2.73182e-06
7.53572e-14
2.57902e-08
2.70603e-06
7.594e-14
2.57828e-08
2.68024e-06
7.65645e-14
2.57864e-08
2.65443e-06
7.72722e-14
2.58012e-08
2.6286e-06
7.79522e-14
2.58277e-08
2.60273e-06
7.87571e-14
2.58662e-08
2.57681e-06
7.96314e-14
2.59171e-08
2.55082e-06
8.0575e-14
2.59807e-08
2.52476e-06
8.15187e-14
2.60575e-08
2.4986e-06
8.24901e-14
2.61476e-08
2.47235e-06
8.34893e-14
2.62516e-08
2.44597e-06
8.46273e-14
2.63696e-08
2.41946e-06
8.58207e-14
2.6502e-08
2.39281e-06
8.70142e-14
2.66492e-08
2.36599e-06
8.82354e-14
2.68113e-08
2.339e-06
8.95677e-14
2.69888e-08
2.31181e-06
9.08722e-14
2.71818e-08
2.28441e-06
9.22322e-14
2.73907e-08
2.25679e-06
9.37865e-14
2.76156e-08
2.22893e-06
9.52297e-14
2.78568e-08
2.20081e-06
9.68396e-14
2.81146e-08
2.17241e-06
9.84771e-14
2.83891e-08
2.14373e-06
1.00059e-13
2.86806e-08
2.11473e-06
1.01836e-13
2.89891e-08
2.08541e-06
1.03473e-13
2.93148e-08
2.05575e-06
1.05249e-13
2.96578e-08
2.02572e-06
1.07026e-13
3.00183e-08
1.99532e-06
1.08913e-13
3.03962e-08
1.96452e-06
1.10689e-13
3.07916e-08
1.93331e-06
1.12632e-13
3.12045e-08
1.90167e-06
1.14714e-13
3.16347e-08
1.86958e-06
1.16629e-13
3.20823e-08
1.83703e-06
1.18766e-13
3.25471e-08
1.804e-06
1.20876e-13
3.30288e-08
1.77046e-06
1.23068e-13
3.35274e-08
1.73641e-06
1.25233e-13
3.40423e-08
1.70183e-06
1.27482e-13
3.45734e-08
1.66671e-06
1.29674e-13
3.51201e-08
1.63102e-06
1.32006e-13
3.5682e-08
1.59475e-06
1.34365e-13
3.62585e-08
1.55789e-06
1.36807e-13
3.6849e-08
1.52043e-06
1.39194e-13
3.74526e-08
1.48236e-06
1.41554e-13
3.80687e-08
1.44366e-06
1.44107e-13
3.86962e-08
1.40431e-06
1.46688e-13
3.93341e-08
1.36432e-06
1.49436e-13
3.99813e-08
1.32368e-06
1.52156e-13
4.06363e-08
1.28237e-06
1.54987e-13
4.12979e-08
1.2404e-06
1.58124e-13
4.19644e-08
1.19776e-06
1.61315e-13
4.2634e-08
1.15445e-06
1.64591e-13
4.33047e-08
1.11046e-06
1.6806e-13
4.39745e-08
1.06581e-06
1.71918e-13
4.4641e-08
1.0205e-06
1.7597e-13
4.53015e-08
9.74542e-07
1.80328e-13
4.5953e-08
9.27941e-07
1.85185e-13
4.65924e-08
8.80715e-07
1.90237e-13
4.72161e-08
8.32886e-07
1.95843e-13
4.78201e-08
7.84476e-07
2.01783e-13
4.84e-08
7.35515e-07
2.08333e-13
4.89507e-08
6.86038e-07
2.15328e-13
4.94668e-08
6.36086e-07
2.22739e-13
4.99421e-08
5.85706e-07
2.30677e-13
5.03696e-08
5.34953e-07
2.39087e-13
5.07414e-08
4.83894e-07
2.47441e-13
5.10485e-08
4.32601e-07
2.5599e-13
5.1281e-08
3.81162e-07
2.63956e-13
5.14272e-08
3.29676e-07
2.70922e-13
5.14741e-08
2.78257e-07
2.75974e-13
5.14065e-08
2.27037e-07
2.78139e-13
5.12071e-08
1.76168e-07
2.76224e-13
5.08557e-08
1.25825e-07
2.6909e-13
5.03286e-08
7.62143e-08
2.55296e-13
4.95971e-08
2.75727e-08
2.3459e-13
4.86273e-08
-1.98108e-08
2.06168e-13
4.73689e-08
-6.55846e-08
1.72695e-13
4.57592e-08
-1.09353e-07
1.43829e-13
4.37535e-08
-1.50677e-07
1.30007e-13
4.13098e-08
-1.89048e-07
1.42053e-13
3.8357e-08
-2.23855e-07
1.9329e-13
3.47931e-08
-2.54374e-07
2.93432e-13
3.0505e-08
-2.79748e-07
4.40259e-13
2.53598e-08
-2.98953e-07
6.10956e-13
1.91905e-08
-3.10774e-07
7.54508e-13
1.1804e-08
-3.13767e-07
8.00693e-13
2.97424e-09
-3.06295e-07
6.89615e-13
-7.49274e-09
-2.86576e-07
4.39926e-13
-1.97423e-08
-2.52801e-07
1.99174e-13
-3.37986e-08
-2.03608e-07
1.9007e-13
-4.92168e-08
-1.39308e-07
4.63296e-13
-6.43231e-08
-6.4725e-08
5.96301e-13
-7.46112e-08
-2.21002e-09
2.08719e-14
-6.25566e-08
-2.07967e-12
-2.26781e-09
-3.43493e-07
3.43469e-07
-5.94317e-07
2.50825e-07
-7.04938e-07
1.10606e-07
-6.90405e-07
-1.45473e-08
-5.85088e-07
-1.05332e-07
-4.18538e-07
-1.66563e-07
-2.12234e-07
-2.06317e-07
1.87254e-08
-2.3097e-07
2.63199e-07
-2.44486e-07
5.1324e-07
-2.50054e-07
7.6382e-07
-2.50593e-07
1.01135e-06
-2.4754e-07
1.25329e-06
-2.41959e-07
1.48785e-06
-2.34574e-07
1.71374e-06
-2.25907e-07
1.93007e-06
-2.16339e-07
2.13621e-06
-2.06159e-07
2.33179e-06
-1.95588e-07
2.51657e-06
-1.84797e-07
2.69049e-06
-1.73922e-07
2.85355e-06
-1.63071e-07
3.00587e-06
-1.52333e-07
3.14764e-06
-1.41776e-07
3.27909e-06
-1.31459e-07
3.4005e-06
-1.21426e-07
3.5122e-06
-1.11713e-07
3.61454e-06
-1.02348e-07
3.70789e-06
-9.33534e-08
3.79262e-06
-8.4744e-08
3.86915e-06
-7.65301e-08
3.93785e-06
-6.87177e-08
3.99915e-06
-6.13087e-08
4.05345e-06
-5.43018e-08
4.10113e-06
-4.76928e-08
4.1426e-06
-4.14751e-08
4.17823e-06
-3.56397e-08
4.2084e-06
-3.01762e-08
4.23347e-06
-2.50725e-08
4.25377e-06
-2.03156e-08
4.26966e-06
-1.58914e-08
4.28144e-06
-1.17854e-08
4.28941e-06
-7.98282e-09
4.29387e-06
-4.46841e-09
4.29509e-06
-1.2261e-09
4.29333e-06
1.75954e-09
4.28882e-06
4.50317e-09
4.28179e-06
7.01993e-09
4.27246e-06
9.32455e-09
4.26102e-06
1.14311e-08
4.24766e-06
1.33528e-08
4.23256e-06
1.51024e-08
4.21586e-06
1.66921e-08
4.19772e-06
1.81335e-08
4.17827e-06
1.94374e-08
4.15765e-06
2.06142e-08
4.13597e-06
2.16737e-08
4.11334e-06
2.26249e-08
4.08986e-06
2.34763e-08
4.06562e-06
2.4236e-08
4.0407e-06
2.49114e-08
4.01519e-06
2.55091e-08
3.98915e-06
2.60358e-08
3.96264e-06
2.64972e-08
3.93574e-06
2.68988e-08
3.90849e-06
2.72457e-08
3.88094e-06
2.75425e-08
3.85314e-06
2.77935e-08
3.82513e-06
2.80028e-08
3.79695e-06
2.81739e-08
3.76863e-06
2.83102e-08
3.74021e-06
2.8415e-08
3.71172e-06
2.8491e-08
3.68317e-06
2.8541e-08
3.65459e-06
2.85675e-08
3.62602e-06
2.85727e-08
3.59745e-06
2.85588e-08
3.56892e-06
2.85278e-08
3.54043e-06
2.84815e-08
3.512e-06
2.84217e-08
3.48365e-06
2.83499e-08
3.45537e-06
2.82677e-08
3.42719e-06
2.81765e-08
3.39911e-06
2.80776e-08
3.37113e-06
2.79723e-08
3.34326e-06
2.78616e-08
3.31551e-06
2.77468e-08
3.28787e-06
2.76288e-08
3.26036e-06
2.75086e-08
3.23296e-06
2.73872e-08
3.20569e-06
2.72654e-08
3.17854e-06
2.7144e-08
3.15151e-06
2.70239e-08
3.1246e-06
2.69057e-08
3.0978e-06
2.67903e-08
3.07112e-06
2.66782e-08
3.04454e-06
2.65701e-08
3.01807e-06
2.64667e-08
2.9917e-06
2.63685e-08
2.96541e-06
2.62761e-08
2.93922e-06
2.61901e-08
2.9131e-06
2.61109e-08
2.88706e-06
2.60391e-08
2.86107e-06
2.59752e-08
2.83515e-06
2.59196e-08
2.80927e-06
2.58727e-08
2.78343e-06
2.58352e-08
2.75762e-06
2.58072e-08
2.73182e-06
2.57894e-08
2.70603e-06
2.57821e-08
2.68024e-06
2.57856e-08
2.65443e-06
2.58004e-08
2.6286e-06
2.58269e-08
2.60273e-06
2.58654e-08
2.57681e-06
2.59163e-08
2.55082e-06
2.598e-08
2.52476e-06
2.60567e-08
2.4986e-06
2.61469e-08
2.47235e-06
2.62508e-08
2.44597e-06
2.63688e-08
2.41946e-06
2.65013e-08
2.39281e-06
2.66484e-08
2.36599e-06
2.68106e-08
2.339e-06
2.6988e-08
2.31181e-06
2.7181e-08
2.28441e-06
2.73899e-08
2.25679e-06
2.76148e-08
2.22893e-06
2.7856e-08
2.20081e-06
2.81138e-08
2.17241e-06
2.83883e-08
2.14373e-06
2.86798e-08
2.11473e-06
2.89883e-08
2.08541e-06
2.9314e-08
2.05575e-06
2.9657e-08
2.02572e-06
3.00175e-08
1.99532e-06
3.03954e-08
1.96452e-06
3.07907e-08
1.93331e-06
3.12036e-08
1.90167e-06
3.16339e-08
1.86958e-06
3.20814e-08
1.83703e-06
3.25462e-08
1.804e-06
3.30279e-08
1.77046e-06
3.35264e-08
1.73641e-06
3.40414e-08
1.70183e-06
3.45724e-08
1.66671e-06
3.51191e-08
1.63102e-06
3.5681e-08
1.59475e-06
3.62575e-08
1.55789e-06
3.6848e-08
1.52043e-06
3.74516e-08
1.48236e-06
3.80677e-08
1.44366e-06
3.86952e-08
1.40431e-06
3.93331e-08
1.36432e-06
3.99802e-08
1.32368e-06
4.06353e-08
1.28237e-06
4.12968e-08
1.2404e-06
4.19632e-08
1.19776e-06
4.26328e-08
1.15445e-06
4.33036e-08
1.11046e-06
4.39734e-08
1.06581e-06
4.46398e-08
1.0205e-06
4.53002e-08
9.74543e-07
4.59518e-08
9.27941e-07
4.65912e-08
8.80716e-07
4.72148e-08
8.32886e-07
4.78188e-08
7.84477e-07
4.83986e-08
7.35516e-07
4.89493e-08
6.86039e-07
4.94654e-08
6.36087e-07
4.99407e-08
5.85706e-07
5.03681e-08
5.34954e-07
5.07399e-08
4.83894e-07
5.1047e-08
4.32602e-07
5.12794e-08
3.81163e-07
5.14256e-08
3.29676e-07
5.14724e-08
2.78257e-07
5.14048e-08
2.27037e-07
5.12053e-08
1.76168e-07
5.08539e-08
1.25826e-07
5.03268e-08
7.62149e-08
4.95952e-08
2.75732e-08
4.86254e-08
-1.98103e-08
4.7367e-08
-6.55841e-08
4.57572e-08
-1.09352e-07
4.37516e-08
-1.50676e-07
4.13079e-08
-1.89047e-07
3.8355e-08
-2.23854e-07
3.47911e-08
-2.54373e-07
3.0503e-08
-2.79747e-07
2.53578e-08
-2.98953e-07
1.91884e-08
-3.10773e-07
1.18017e-08
-3.13767e-07
2.97167e-09
-3.06296e-07
-7.49568e-09
-2.86577e-07
-1.97456e-08
-2.52802e-07
-3.38019e-08
-2.03608e-07
-4.92195e-08
-1.3931e-07
-6.43249e-08
-6.4731e-08
-7.4614e-08
-2.21992e-09
-6.25629e-08
-2.28674e-09
-2.24187e-07
1.00505e-12
5.67592e-07
-2.70223e-07
1.888e-13
2.96835e-07
-2.37871e-07
6.7341e-15
7.82417e-08
-1.55118e-07
-1.15822e-13
-9.73087e-08
-3.18494e-08
-1.42953e-13
-2.28609e-07
1.23552e-07
-1.18542e-13
-3.21971e-07
3.02737e-07
-6.39404e-14
-3.85508e-07
4.98465e-07
-1.17323e-14
-4.26705e-07
7.04881e-07
1.53918e-14
-4.50909e-07
9.17307e-07
1.43579e-14
-4.62488e-07
1.13186e-06
-8.22132e-15
-4.65151e-07
1.34554e-06
-3.87247e-14
-4.61237e-07
1.55608e-06
-6.6057e-14
-4.52506e-07
1.76172e-06
-8.43688e-14
-4.40224e-07
1.96114e-06
-9.22999e-14
-4.25334e-07
2.15334e-06
-9.14118e-14
-4.0855e-07
2.3376e-06
-8.44104e-14
-3.90421e-07
2.51338e-06
-7.40749e-14
-3.71379e-07
2.68034e-06
-6.25147e-14
-3.51763e-07
2.83826e-06
-5.1239e-14
-3.31846e-07
2.98703e-06
-4.1136e-14
-3.11849e-07
3.12664e-06
-3.26358e-14
-2.91951e-07
3.25716e-06
-2.58322e-14
-2.72298e-07
3.3787e-06
-2.06558e-14
-2.5301e-07
3.49145e-06
-1.69122e-14
-2.34183e-07
3.59563e-06
-1.43761e-14
-2.15895e-07
3.69148e-06
-1.27801e-14
-1.98209e-07
3.77929e-06
-1.18746e-14
-1.81171e-07
3.85936e-06
-1.14374e-14
-1.64819e-07
3.932e-06
-1.13125e-14
-1.49177e-07
3.99754e-06
-1.13333e-14
-1.34263e-07
4.05632e-06
-1.14686e-14
-1.20086e-07
4.10866e-06
-1.15623e-14
-1.06647e-07
4.1549e-06
-1.1649e-14
-9.39431e-08
4.19538e-06
-1.16872e-14
-8.19643e-08
4.23044e-06
-1.16733e-14
-7.06976e-08
4.26038e-06
-1.16317e-14
-6.01258e-08
4.28553e-06
-1.15449e-14
-5.0229e-08
4.3062e-06
-1.142e-14
-4.09844e-08
4.32267e-06
-1.13263e-14
-3.23677e-08
4.33523e-06
-1.12431e-14
-2.4353e-08
4.34416e-06
-1.11425e-14
-1.69133e-08
4.3497e-06
-1.10522e-14
-1.00208e-08
4.35212e-06
-1.09586e-14
-3.64759e-09
4.35164e-06
-1.09031e-14
2.23431e-09
4.34849e-06
-1.08892e-14
7.65253e-09
4.34287e-06
-1.08684e-14
1.26348e-08
4.33498e-06
-1.08545e-14
1.7208e-08
4.32501e-06
-1.08094e-14
2.13981e-08
4.31313e-06
-1.07886e-14
2.52302e-08
4.2995e-06
-1.07504e-14
2.87283e-08
4.28427e-06
-1.07088e-14
3.19153e-08
4.26759e-06
-1.06741e-14
3.48131e-08
4.24958e-06
-1.0636e-14
3.74424e-08
4.23037e-06
-1.05944e-14
3.9823e-08
4.21006e-06
-1.05319e-14
4.19734e-08
4.18877e-06
-1.04903e-14
4.39109e-08
4.16659e-06
-1.04279e-14
4.56519e-08
4.14361e-06
-1.03828e-14
4.72116e-08
4.11992e-06
-1.03203e-14
4.86043e-08
4.09558e-06
-1.02683e-14
4.98433e-08
4.07067e-06
-1.02128e-14
5.09409e-08
4.04525e-06
-1.01573e-14
5.19086e-08
4.01939e-06
-1.014e-14
5.2757e-08
3.99314e-06
-1.01157e-14
5.34958e-08
3.96654e-06
-1.0081e-14
5.41344e-08
3.93965e-06
-1.00637e-14
5.4681e-08
3.9125e-06
-1.00429e-14
5.51436e-08
3.88514e-06
-1.00256e-14
5.55292e-08
3.85761e-06
-1.00048e-14
5.58447e-08
3.82992e-06
-1.00117e-14
5.60963e-08
3.80212e-06
-1.00152e-14
5.62896e-08
3.77422e-06
-1.00257e-14
5.643e-08
3.74627e-06
-1.00222e-14
5.65225e-08
3.71826e-06
-1.00222e-14
5.65715e-08
3.69024e-06
-1.00257e-14
5.65815e-08
3.6622e-06
-1.005e-14
5.65564e-08
3.63418e-06
-1.00605e-14
5.64998e-08
3.60618e-06
-1.00639e-14
5.64153e-08
3.57822e-06
-1.00882e-14
5.6306e-08
3.55031e-06
-1.01021e-14
5.6175e-08
3.52246e-06
-1.01126e-14
5.60251e-08
3.49467e-06
-1.01334e-14
5.5859e-08
3.46696e-06
-1.01577e-14
5.56791e-08
3.43933e-06
-1.01647e-14
5.54879e-08
3.41179e-06
-1.01924e-14
5.52875e-08
3.38433e-06
-1.01925e-14
5.508e-08
3.35697e-06
-1.01994e-14
5.48674e-08
3.3297e-06
-1.02133e-14
5.46516e-08
3.30253e-06
-1.02168e-14
5.44343e-08
3.27545e-06
-1.02029e-14
5.42171e-08
3.24847e-06
-1.02099e-14
5.40018e-08
3.22158e-06
-1.02238e-14
5.37897e-08
3.19478e-06
-1.02308e-14
5.35824e-08
3.16808e-06
-1.02342e-14
5.33811e-08
3.14146e-06
-1.02239e-14
5.31873e-08
3.11492e-06
-1.02239e-14
5.30021e-08
3.08845e-06
-1.02135e-14
5.28267e-08
3.06206e-06
-1.02066e-14
5.26623e-08
3.03574e-06
-1.01996e-14
5.25101e-08
3.00947e-06
-1.01927e-14
5.23709e-08
2.98326e-06
-1.0217e-14
5.22459e-08
2.9571e-06
-1.02136e-14
5.21361e-08
2.93097e-06
-1.02032e-14
5.20423e-08
2.90487e-06
-1.02205e-14
5.19656e-08
2.8788e-06
-1.02171e-14
5.19067e-08
2.85274e-06
-1.0231e-14
5.18666e-08
2.82667e-06
-1.02414e-14
5.18461e-08
2.80061e-06
-1.02518e-14
5.1846e-08
2.77452e-06
-1.02727e-14
5.1867e-08
2.74841e-06
-1.02935e-14
5.19101e-08
2.72225e-06
-1.03178e-14
5.19758e-08
2.69605e-06
-1.03525e-14
5.2065e-08
2.66978e-06
-1.03803e-14
5.21784e-08
2.64344e-06
-1.04184e-14
5.23166e-08
2.61702e-06
-1.04601e-14
5.24803e-08
2.59049e-06
-1.05052e-14
5.26702e-08
2.56385e-06
-1.05607e-14
5.2887e-08
2.53708e-06
-1.06093e-14
5.31312e-08
2.51017e-06
-1.06752e-14
5.34035e-08
2.48311e-06
-1.07377e-14
5.37044e-08
2.45589e-06
-1.08071e-14
5.40346e-08
2.42848e-06
-1.08939e-14
5.43945e-08
2.40087e-06
-1.09667e-14
5.47846e-08
2.37305e-06
-1.105e-14
5.52055e-08
2.345e-06
-1.11402e-14
5.56577e-08
2.31671e-06
-1.122e-14
5.61414e-08
2.28816e-06
-1.13241e-14
5.66572e-08
2.25934e-06
-1.14282e-14
5.72053e-08
2.23023e-06
-1.15358e-14
5.77861e-08
2.20081e-06
-1.1626e-14
5.83998e-08
2.17108e-06
-1.17578e-14
5.90467e-08
2.141e-06
-1.18723e-14
5.97269e-08
2.11057e-06
-1.19938e-14
6.04405e-08
2.07978e-06
-1.21291e-14
6.11876e-08
2.0486e-06
-1.22748e-14
6.1968e-08
2.01701e-06
-1.23997e-14
6.27818e-08
1.98501e-06
-1.25246e-14
6.36287e-08
1.95258e-06
-1.26599e-14
6.45085e-08
1.9197e-06
-1.27987e-14
6.54207e-08
1.88636e-06
-1.29548e-14
6.6365e-08
1.85254e-06
-1.30867e-14
6.73407e-08
1.81823e-06
-1.32393e-14
6.83472e-08
1.78341e-06
-1.34128e-14
6.93837e-08
1.74808e-06
-1.35863e-14
7.04491e-08
1.71221e-06
-1.37563e-14
7.15425e-08
1.6758e-06
-1.39194e-14
7.26625e-08
1.63883e-06
-1.41102e-14
7.38078e-08
1.6013e-06
-1.42767e-14
7.49768e-08
1.5632e-06
-1.44953e-14
7.61676e-08
1.52451e-06
-1.46827e-14
7.73784e-08
1.48523e-06
-1.48874e-14
7.8607e-08
1.44535e-06
-1.50712e-14
7.98507e-08
1.40488e-06
-1.52517e-14
8.11071e-08
1.36379e-06
-1.54668e-14
8.2373e-08
1.32211e-06
-1.56611e-14
8.36452e-08
1.27981e-06
-1.58415e-14
8.49201e-08
1.23692e-06
-1.60496e-14
8.61937e-08
1.19342e-06
-1.62578e-14
8.74615e-08
1.14933e-06
-1.64382e-14
8.87188e-08
1.10467e-06
-1.66117e-14
8.99601e-08
1.05943e-06
-1.6806e-14
9.11797e-08
1.01365e-06
-1.69795e-14
9.23711e-08
9.67327e-07
-1.71807e-14
9.35271e-08
9.20499e-07
-1.7375e-14
9.46398e-08
8.7319e-07
-1.75831e-14
9.57005e-08
8.25432e-07
-1.77913e-14
9.66993e-08
7.77264e-07
-1.80064e-14
9.76256e-08
7.2873e-07
-1.82909e-14
9.84672e-08
6.79879e-07
-1.85546e-14
9.92106e-08
6.3077e-07
-1.88877e-14
9.98407e-08
5.81468e-07
-1.92971e-14
1.0034e-07
5.32048e-07
-1.98175e-14
1.00691e-07
4.82594e-07
-2.05114e-14
1.0087e-07
4.33205e-07
-2.14065e-14
1.00853e-07
3.83988e-07
-2.2593e-14
1.00612e-07
3.35068e-07
-2.41612e-14
1.00115e-07
2.86587e-07
-2.62637e-14
9.9325e-08
2.38704e-07
-2.88797e-14
9.81987e-08
1.91604e-07
-3.21271e-14
9.66852e-08
1.45493e-07
-3.58671e-14
9.47253e-08
1.00607e-07
-3.97807e-14
9.22424e-08
5.72076e-08
-4.29656e-14
8.91463e-08
1.5592e-08
-4.4513e-14
8.53567e-08
-2.38885e-08
-4.31669e-14
8.07781e-08
-6.08312e-08
-3.69427e-14
7.52875e-08
-9.47958e-08
-2.37865e-14
6.87454e-08
-1.25291e-07
-2.63677e-15
6.09872e-08
-1.51764e-07
2.47788e-14
5.18198e-08
-1.73607e-07
5.18127e-14
4.10179e-08
-1.9016e-07
6.52811e-14
2.83404e-08
-2.00743e-07
4.87596e-14
1.3539e-08
-2.04671e-07
-6.28663e-15
-3.58445e-09
-2.0134e-07
-8.02691e-14
-2.30937e-08
-1.90371e-07
-1.09884e-13
-4.47883e-08
-1.71763e-07
-1.14353e-14
-6.7847e-08
-1.46015e-07
2.03129e-13
-9.00963e-08
-1.13886e-07
1.98189e-13
-1.06772e-07
-7.0625e-08
-1.98897e-13
-1.05869e-07
-3.20177e-12
-7.29462e-08
-2.24191e-07
5.67587e-07
-2.70223e-07
2.96831e-07
-2.37869e-07
7.82389e-08
-1.55116e-07
-9.73106e-08
-3.18466e-08
-2.2861e-07
1.23555e-07
-3.21973e-07
3.0274e-07
-3.85509e-07
4.98468e-07
-4.26706e-07
7.04883e-07
-4.5091e-07
9.17308e-07
-4.62489e-07
1.13186e-06
-4.65152e-07
1.34554e-06
-4.61238e-07
1.55608e-06
-4.52506e-07
1.76172e-06
-4.40224e-07
1.96114e-06
-4.25334e-07
2.15334e-06
-4.0855e-07
2.3376e-06
-3.90422e-07
2.51338e-06
-3.71379e-07
2.68034e-06
-3.51763e-07
2.83826e-06
-3.31846e-07
2.98703e-06
-3.11849e-07
3.12664e-06
-2.91951e-07
3.25715e-06
-2.72298e-07
3.3787e-06
-2.5301e-07
3.49145e-06
-2.34183e-07
3.59563e-06
-2.15895e-07
3.69148e-06
-1.98209e-07
3.77929e-06
-1.81171e-07
3.85936e-06
-1.64819e-07
3.932e-06
-1.49177e-07
3.99754e-06
-1.34263e-07
4.05631e-06
-1.20086e-07
4.10865e-06
-1.06647e-07
4.1549e-06
-9.39432e-08
4.19538e-06
-8.19645e-08
4.23043e-06
-7.06977e-08
4.26038e-06
-6.0126e-08
4.28553e-06
-5.02291e-08
4.30619e-06
-4.09846e-08
4.32267e-06
-3.23679e-08
4.33523e-06
-2.43532e-08
4.34415e-06
-1.69134e-08
4.3497e-06
-1.0021e-08
4.35212e-06
-3.64778e-09
4.35164e-06
2.23411e-09
4.34849e-06
7.65232e-09
4.34287e-06
1.26346e-08
4.33498e-06
1.72078e-08
4.32501e-06
2.13979e-08
4.31313e-06
2.523e-08
4.2995e-06
2.87281e-08
4.28427e-06
3.19151e-08
4.26759e-06
3.48129e-08
4.24958e-06
3.74422e-08
4.23036e-06
3.98228e-08
4.21006e-06
4.19732e-08
4.18877e-06
4.39107e-08
4.16659e-06
4.56517e-08
4.14361e-06
4.72114e-08
4.11991e-06
4.86041e-08
4.09558e-06
4.98431e-08
4.07067e-06
5.09408e-08
4.04525e-06
5.19084e-08
4.01939e-06
5.27568e-08
3.99314e-06
5.34957e-08
3.96654e-06
5.41342e-08
3.93965e-06
5.46808e-08
3.9125e-06
5.51434e-08
3.88514e-06
5.55291e-08
3.85761e-06
5.58446e-08
3.82992e-06
5.60961e-08
3.80212e-06
5.62894e-08
3.77422e-06
5.64298e-08
3.74626e-06
5.65223e-08
3.71826e-06
5.65714e-08
3.69024e-06
5.65814e-08
3.6622e-06
5.65562e-08
3.63418e-06
5.64996e-08
3.60618e-06
5.64151e-08
3.57822e-06
5.63058e-08
3.55031e-06
5.61748e-08
3.52246e-06
5.60249e-08
3.49467e-06
5.58588e-08
3.46696e-06
5.5679e-08
3.43933e-06
5.54878e-08
3.41179e-06
5.52874e-08
3.38433e-06
5.50799e-08
3.35697e-06
5.48673e-08
3.3297e-06
5.46515e-08
3.30253e-06
5.44342e-08
3.27545e-06
5.4217e-08
3.24847e-06
5.40017e-08
3.22158e-06
5.37896e-08
3.19478e-06
5.35823e-08
3.16808e-06
5.3381e-08
3.14145e-06
5.31872e-08
3.11492e-06
5.3002e-08
3.08845e-06
5.28266e-08
3.06206e-06
5.26622e-08
3.03574e-06
5.25099e-08
3.00947e-06
5.23708e-08
2.98326e-06
5.22458e-08
2.9571e-06
5.2136e-08
2.93097e-06
5.20422e-08
2.90487e-06
5.19655e-08
2.8788e-06
5.19066e-08
2.85274e-06
5.18665e-08
2.82667e-06
5.1846e-08
2.80061e-06
5.18459e-08
2.77452e-06
5.18669e-08
2.74841e-06
5.191e-08
2.72225e-06
5.19757e-08
2.69605e-06
5.20649e-08
2.66978e-06
5.21782e-08
2.64344e-06
5.23164e-08
2.61702e-06
5.24802e-08
2.59049e-06
5.26701e-08
2.56385e-06
5.28869e-08
2.53708e-06
5.31311e-08
2.51017e-06
5.34034e-08
2.48311e-06
5.37043e-08
2.45589e-06
5.40345e-08
2.42847e-06
5.43944e-08
2.40087e-06
5.47845e-08
2.37305e-06
5.52054e-08
2.345e-06
5.56575e-08
2.31671e-06
5.61413e-08
2.28816e-06
5.66571e-08
2.25934e-06
5.72052e-08
2.23023e-06
5.7786e-08
2.20081e-06
5.83997e-08
2.17108e-06
5.90466e-08
2.141e-06
5.97268e-08
2.11057e-06
6.04404e-08
2.07978e-06
6.11875e-08
2.0486e-06
6.19679e-08
2.01701e-06
6.27817e-08
1.98501e-06
6.36286e-08
1.95258e-06
6.45084e-08
1.9197e-06
6.54206e-08
1.88636e-06
6.63649e-08
1.85254e-06
6.73406e-08
1.81823e-06
6.83471e-08
1.78341e-06
6.93835e-08
1.74808e-06
7.0449e-08
1.71221e-06
7.15423e-08
1.6758e-06
7.26624e-08
1.63883e-06
7.38077e-08
1.6013e-06
7.49766e-08
1.5632e-06
7.61675e-08
1.52451e-06
7.73783e-08
1.48523e-06
7.86068e-08
1.44535e-06
7.98506e-08
1.40488e-06
8.1107e-08
1.36379e-06
8.23729e-08
1.32211e-06
8.36451e-08
1.27981e-06
8.492e-08
1.23692e-06
8.61935e-08
1.19342e-06
8.74614e-08
1.14934e-06
8.87186e-08
1.10467e-06
8.996e-08
1.05943e-06
9.11796e-08
1.01365e-06
9.2371e-08
9.67327e-07
9.3527e-08
9.20499e-07
9.46397e-08
8.7319e-07
9.57003e-08
8.25432e-07
9.66992e-08
7.77264e-07
9.76254e-08
7.2873e-07
9.8467e-08
6.79879e-07
9.92104e-08
6.3077e-07
9.98405e-08
5.81468e-07
1.0034e-07
5.32048e-07
1.00691e-07
4.82595e-07
1.0087e-07
4.33205e-07
1.00853e-07
3.83988e-07
1.00612e-07
3.35068e-07
1.00115e-07
2.86587e-07
9.93249e-08
2.38705e-07
9.81986e-08
1.91604e-07
9.66851e-08
1.45494e-07
9.47251e-08
1.00608e-07
9.22423e-08
5.72079e-08
8.91462e-08
1.55923e-08
8.53566e-08
-2.38882e-08
8.0778e-08
-6.08309e-08
7.52873e-08
-9.47955e-08
6.87453e-08
-1.2529e-07
6.0987e-08
-1.51764e-07
5.18197e-08
-1.73606e-07
4.10178e-08
-1.9016e-07
2.83403e-08
-2.00743e-07
1.35388e-08
-2.04671e-07
-3.58467e-09
-2.0134e-07
-2.30939e-08
-1.90371e-07
-4.47886e-08
-1.71762e-07
-6.78473e-08
-1.46016e-07
-9.00971e-08
-1.13889e-07
-1.06773e-07
-7.06346e-08
-1.0587e-07
-7.29448e-08
-6.84399e-08
1.14999e-12
6.36024e-07
-2.08826e-08
1.5126e-13
2.49264e-07
7.22993e-08
7.60459e-14
-1.49436e-08
1.87956e-07
1.45108e-14
-2.12968e-07
3.21506e-07
6.07274e-15
-3.6216e-07
4.70998e-07
2.34579e-14
-4.71466e-07
6.34086e-07
5.03981e-14
-5.48598e-07
8.07767e-07
7.12945e-14
-6.00388e-07
9.89171e-07
7.7928e-14
-6.32315e-07
1.17558e-06
7.0722e-14
-6.48896e-07
1.36428e-06
5.44676e-14
-6.53858e-07
1.55301e-06
3.5684e-14
-6.49963e-07
1.73984e-06
1.91937e-14
-6.3934e-07
1.92322e-06
7.41149e-15
-6.2361e-07
2.10191e-06
7.15464e-16
-6.04028e-07
2.27493e-06
-1.72702e-15
-5.81569e-07
2.44151e-06
-1.18578e-15
-5.57006e-07
2.60109e-06
1.04855e-15
-5.30955e-07
2.75324e-06
4.00105e-15
-5.03912e-07
2.89767e-06
6.9605e-15
-4.76278e-07
3.0342e-06
9.54698e-15
-4.48385e-07
3.16275e-06
1.15436e-14
-4.20502e-07
3.28331e-06
1.29158e-14
-3.92854e-07
3.39592e-06
1.36756e-14
-3.65622e-07
3.50069e-06
1.39376e-14
-3.38959e-07
3.59778e-06
1.37728e-14
-3.12985e-07
3.68737e-06
1.33131e-14
-2.878e-07
3.76968e-06
1.26713e-14
-2.63482e-07
3.84495e-06
1.19184e-14
-2.40089e-07
3.91344e-06
1.11412e-14
-2.17667e-07
3.97542e-06
1.03832e-14
-1.96246e-07
4.03117e-06
9.68754e-15
-1.75843e-07
4.08099e-06
9.06651e-15
-1.56468e-07
4.12517e-06
8.52007e-15
-1.3812e-07
4.16399e-06
8.07251e-15
-1.20789e-07
4.19775e-06
7.69261e-15
-1.04461e-07
4.22674e-06
7.38383e-15
-8.9114e-08
4.25123e-06
7.11841e-15
-7.4723e-08
4.2715e-06
6.91024e-15
-6.12581e-08
4.28782e-06
6.71075e-15
-4.86868e-08
4.30044e-06
6.54248e-15
-3.69742e-08
4.30961e-06
6.39329e-15
-2.60835e-08
4.31556e-06
6.26144e-15
-1.59766e-08
4.31853e-06
6.1348e-15
-6.61499e-09
4.31872e-06
6.00469e-15
2.04012e-09
4.31635e-06
5.8954e-15
1.00272e-08
4.3116e-06
5.7809e-15
1.73848e-08
4.30465e-06
5.67854e-15
2.41505e-08
4.29569e-06
5.5866e-15
3.03608e-08
4.28487e-06
5.50506e-15
3.60512e-08
4.27234e-06
5.42872e-15
4.12557e-08
4.25825e-06
5.3732e-15
4.6007e-08
4.24272e-06
5.31595e-15
5.03362e-08
4.22589e-06
5.2639e-15
5.42731e-08
4.20787e-06
5.23266e-15
5.78457e-08
4.18876e-06
5.18928e-15
6.10806e-08
4.16867e-06
5.16152e-15
6.40029e-08
4.14768e-06
5.14243e-15
6.6636e-08
4.12589e-06
5.12854e-15
6.9002e-08
4.10337e-06
5.11465e-15
7.11215e-08
4.0802e-06
5.10423e-15
7.30137e-08
4.05644e-06
5.09381e-15
7.46965e-08
4.03216e-06
5.07992e-15
7.61866e-08
4.00742e-06
5.0695e-15
7.74995e-08
3.98226e-06
5.06776e-15
7.86496e-08
3.95675e-06
5.05387e-15
7.96502e-08
3.93091e-06
5.04692e-15
8.05136e-08
3.90481e-06
5.04517e-15
8.12515e-08
3.87846e-06
5.04516e-15
8.18743e-08
3.85191e-06
5.04342e-15
8.23919e-08
3.82519e-06
5.02953e-15
8.28136e-08
3.79833e-06
5.02605e-15
8.31477e-08
3.77136e-06
5.02083e-15
8.34022e-08
3.7443e-06
5.01909e-15
8.35844e-08
3.71717e-06
5.0104e-15
8.37011e-08
3.68999e-06
5.01039e-15
8.37587e-08
3.66278e-06
5.0017e-15
8.3763e-08
3.63556e-06
5.00343e-15
8.37195e-08
3.60834e-06
4.99648e-15
8.36335e-08
3.58114e-06
4.993e-15
8.35097e-08
3.55396e-06
4.98778e-15
8.33526e-08
3.52681e-06
4.9843e-15
8.31665e-08
3.49972e-06
4.98603e-15
8.29553e-08
3.47267e-06
4.98428e-15
8.27228e-08
3.44569e-06
4.98253e-15
8.24725e-08
3.41877e-06
4.98079e-15
8.22076e-08
3.39191e-06
4.97731e-15
8.19314e-08
3.36513e-06
4.98077e-15
8.16468e-08
3.33843e-06
4.98596e-15
8.13565e-08
3.3118e-06
4.98768e-15
8.10632e-08
3.28524e-06
4.99808e-15
8.07694e-08
3.25877e-06
4.99634e-15
8.04775e-08
3.23237e-06
5.005e-15
8.01897e-08
3.20604e-06
5.00846e-15
7.99083e-08
3.17978e-06
5.01365e-15
7.96352e-08
3.1536e-06
5.01365e-15
7.93724e-08
3.12748e-06
5.02231e-15
7.91218e-08
3.10142e-06
5.03271e-15
7.88852e-08
3.07541e-06
5.0379e-15
7.86643e-08
3.04946e-06
5.0431e-15
7.84608e-08
3.02356e-06
5.0535e-15
7.82761e-08
2.99769e-06
5.05175e-15
7.81119e-08
2.97186e-06
5.05868e-15
7.79696e-08
2.94605e-06
5.06214e-15
7.78507e-08
2.92025e-06
5.0604e-15
7.77564e-08
2.89447e-06
5.06386e-15
7.76881e-08
2.86869e-06
5.06906e-15
7.76472e-08
2.8429e-06
5.06905e-15
7.76348e-08
2.81709e-06
5.07078e-15
7.76521e-08
2.79126e-06
5.06383e-15
7.77004e-08
2.76539e-06
5.06729e-15
7.77807e-08
2.73947e-06
5.06382e-15
7.78942e-08
2.71349e-06
5.06901e-15
7.80419e-08
2.68744e-06
5.0638e-15
7.82249e-08
2.66131e-06
5.05686e-15
7.84443e-08
2.63509e-06
5.06032e-15
7.87009e-08
2.60877e-06
5.05164e-15
7.89958e-08
2.58232e-06
5.04817e-15
7.933e-08
2.55575e-06
5.04122e-15
7.97042e-08
2.52903e-06
5.03254e-15
8.01194e-08
2.50216e-06
5.02213e-15
8.05764e-08
2.47512e-06
5.01865e-15
8.10761e-08
2.44789e-06
5.01345e-15
8.16191e-08
2.42047e-06
5.01691e-15
8.22062e-08
2.39283e-06
5.02211e-15
8.28381e-08
2.36497e-06
5.01864e-15
8.35154e-08
2.33688e-06
5.02384e-15
8.42387e-08
2.30852e-06
5.02383e-15
8.50085e-08
2.2799e-06
5.03077e-15
8.58252e-08
2.251e-06
5.0325e-15
8.66893e-08
2.2218e-06
5.05331e-15
8.76011e-08
2.19228e-06
5.06025e-15
8.85608e-08
2.16244e-06
5.07412e-15
8.95686e-08
2.13225e-06
5.09493e-15
9.06246e-08
2.10171e-06
5.11401e-15
9.17287e-08
2.0708e-06
5.13656e-15
9.28809e-08
2.0395e-06
5.16432e-15
9.40807e-08
2.0078e-06
5.20595e-15
9.5328e-08
1.97568e-06
5.24064e-15
9.66222e-08
1.94314e-06
5.28747e-15
9.79626e-08
1.91015e-06
5.33084e-15
9.93484e-08
1.87672e-06
5.38288e-15
1.00779e-07