/*--------------------------------*- C++ -*----------------------------------*\
  =========                 |
  \\      /  F ield         | OpenFOAM: The Open Source CFD Toolbox
   \\    /   O peration     | Website:  https://openfoam.org
    \\  /    A nd           | Version:  8
     \\/     M anipulation  |
\*---------------------------------------------------------------------------*/
FoamFile
{
    version     2.0;
    format      ascii;
    class       volVectorField;
    location    "3000";
    object      U;
}
// * * * * * * * * * * * * * * * * * * * * * * * * * * * * * * * * * * * * * //

dimensions      [0 1 -1 0 0 0 0];

internalField   nonuniform List<vector> 
48000
(
(-0.0169574 2.18608e-07 0.0185506)
(-0.0339941 -4.24795e-09 0.0161465)
(-0.0468548 -6.47775e-08 0.00744735)
(-0.0495006 -6.82043e-08 -0.000546032)
(-0.0447838 -6.56458e-08 -0.00625013)
(-0.0351105 -7.11208e-08 -0.0100353)
(-0.0220511 -7.03288e-08 -0.0124981)
(-0.00697446 -6.05364e-08 -0.0140381)
(0.00963196 -4.69479e-08 -0.0147917)
(0.0265763 -3.59371e-08 -0.0149515)
(0.0438235 -3.23392e-08 -0.0148234)
(0.0609478 -3.40753e-08 -0.0145033)
(0.0777667 -3.75667e-08 -0.0140548)
(0.0941321 -4.01823e-08 -0.0135202)
(0.10994 -4.0662e-08 -0.012929)
(0.125118 -3.88878e-08 -0.012302)
(0.139615 -3.53089e-08 -0.0116542)
(0.153397 -3.06259e-08 -0.0109968)
(0.166444 -2.54403e-08 -0.0103382)
(0.178746 -2.02471e-08 -0.00968469)
(0.190301 -1.53585e-08 -0.0090413)
(0.201115 -1.09572e-08 -0.00841175)
(0.211197 -7.11179e-09 -0.007799)
(0.220562 -3.87556e-09 -0.0072053)
(0.229229 -1.18378e-09 -0.00663239)
(0.237218 9.76871e-10 -0.00608156)
(0.244553 2.67303e-09 -0.00555373)
(0.251257 3.98846e-09 -0.00504953)
(0.257358 4.97075e-09 -0.00456932)
(0.262881 5.68843e-09 -0.00411325)
(0.267855 6.1967e-09 -0.00368124)
(0.272307 6.54317e-09 -0.00327309)
(0.276264 6.77541e-09 -0.00288843)
(0.279755 6.92199e-09 -0.00252678)
(0.282806 6.99242e-09 -0.00218755)
(0.285443 7.04001e-09 -0.00187007)
(0.287693 7.03811e-09 -0.0015736)
(0.289582 7.02478e-09 -0.00129734)
(0.291132 6.99813e-09 -0.00104046)
(0.292367 6.95434e-09 -0.000802092)
(0.293311 6.92579e-09 -0.000581353)
(0.293983 6.87629e-09 -0.000377367)
(0.294405 6.84202e-09 -0.000189248)
(0.294595 6.79824e-09 -1.58905e-05)
(0.294572 6.76777e-09 0.000143593)
(0.294353 6.76016e-09 0.000289764)
(0.293953 6.75444e-09 0.000423449)
(0.293389 6.76205e-09 0.000545598)
(0.292673 6.77918e-09 0.000657037)
(0.29182 6.81345e-09 0.000758515)
(0.290841 6.84961e-09 0.000850736)
(0.289747 6.91243e-09 0.000934369)
(0.28855 6.98667e-09 0.00101005)
(0.287259 7.06471e-09 0.00107837)
(0.285883 7.15799e-09 0.0011399)
(0.28443 7.25888e-09 0.00119517)
(0.282909 7.38261e-09 0.00124468)
(0.281326 7.49111e-09 0.00128889)
(0.279687 7.61484e-09 0.00132822)
(0.278 7.73667e-09 0.00136309)
(0.276269 7.86802e-09 0.00139385)
(0.2745 8.01078e-09 0.00142085)
(0.272697 8.13832e-09 0.00144441)
(0.270864 8.26586e-09 0.00146482)
(0.269006 8.3953e-09 0.00148234)
(0.267126 8.52665e-09 0.00149724)
(0.265227 8.64467e-09 0.00150973)
(0.263312 8.75888e-09 0.00152003)
(0.261385 8.87119e-09 0.00152833)
(0.259447 8.97588e-09 0.00153481)
(0.257501 9.07106e-09 0.00153964)
(0.255548 9.16052e-09 0.00154297)
(0.253591 9.24618e-09 0.00154495)
(0.251632 9.32612e-09 0.0015457)
(0.249672 9.40036e-09 0.00154534)
(0.247712 9.46317e-09 0.00154399)
(0.245754 9.52599e-09 0.00154175)
(0.243798 9.58119e-09 0.00153872)
(0.241846 9.62306e-09 0.00153498)
(0.239898 9.66113e-09 0.00153063)
(0.237956 9.69919e-09 0.00152575)
(0.23602 9.72584e-09 0.0015204)
(0.23409 9.74677e-09 0.00151466)
(0.232167 9.7677e-09 0.00150859)
(0.230252 9.78483e-09 0.00150226)
(0.228345 9.80196e-09 0.00149571)
(0.226445 9.80956e-09 0.00148901)
(0.224554 9.81717e-09 0.00148221)
(0.222671 9.8324e-09 0.00147536)
(0.220796 9.82668e-09 0.0014685)
(0.21893 9.83429e-09 0.00146168)
(0.217072 9.83999e-09 0.00145493)
(0.215222 9.83999e-09 0.00144831)
(0.21338 9.84569e-09 0.00144184)
(0.211546 9.84569e-09 0.00143556)
(0.20972 9.84758e-09 0.00142952)
(0.207901 9.86281e-09 0.00142373)
(0.206089 9.87042e-09 0.00141824)
(0.204283 9.89706e-09 0.00141307)
(0.202483 9.90657e-09 0.00140825)
(0.20069 9.9218e-09 0.00140382)
(0.198901 9.95035e-09 0.0013998)
(0.197117 9.9827e-09 0.00139621)
(0.195337 1.00189e-08 0.00139308)
(0.193561 1.00474e-08 0.00139045)
(0.191787 1.0095e-08 0.00138832)
(0.190016 1.01369e-08 0.00138673)
(0.188246 1.0194e-08 0.0013857)
(0.186478 1.0253e-08 0.00138525)
(0.184709 1.0312e-08 0.00138541)
(0.18294 1.03881e-08 0.00138619)
(0.181169 1.04605e-08 0.00138762)
(0.179396 1.0548e-08 0.00138972)
(0.17762 1.06413e-08 0.00139251)
(0.17584 1.07441e-08 0.00139602)
(0.174056 1.08469e-08 0.00140025)
(0.172265 1.09573e-08 0.00140523)
(0.170468 1.10753e-08 0.00141099)
(0.168663 1.12009e-08 0.00141754)
(0.16685 1.13456e-08 0.00142489)
(0.165027 1.14827e-08 0.00143308)
(0.163194 1.16273e-08 0.00144211)
(0.161349 1.17949e-08 0.00145201)
(0.159491 1.19548e-08 0.00146279)
(0.15762 1.21223e-08 0.00147446)
(0.155733 1.23088e-08 0.00148705)
(0.153831 1.24916e-08 0.00150058)
(0.151911 1.26895e-08 0.00151505)
(0.149973 1.28989e-08 0.00153048)
(0.148016 1.31007e-08 0.00154688)
(0.146039 1.33253e-08 0.00156427)
(0.144039 1.35424e-08 0.00158266)
(0.142017 1.37746e-08 0.00160205)
(0.13997 1.40183e-08 0.00162246)
(0.137898 1.42619e-08 0.0016439)
(0.1358 1.45056e-08 0.00166636)
(0.133674 1.47683e-08 0.00168986)
(0.131519 1.50462e-08 0.0017144)
(0.129333 1.53165e-08 0.00173997)
(0.127117 1.56021e-08 0.00176658)
(0.124868 1.58838e-08 0.00179421)
(0.122585 1.6196e-08 0.00182288)
(0.120268 1.64929e-08 0.00185255)
(0.117915 1.67975e-08 0.00188323)
(0.115525 1.71135e-08 0.00191489)
(0.113097 1.74371e-08 0.00194752)
(0.110629 1.77646e-08 0.0019811)
(0.108122 1.8111e-08 0.00201558)
(0.105574 1.84575e-08 0.00205096)
(0.102984 1.88001e-08 0.00208717)
(0.100351 1.91694e-08 0.00212419)
(0.0976747 1.95387e-08 0.00216197)
(0.0949544 1.99309e-08 0.00220045)
(0.0921895 2.03192e-08 0.00223956)
(0.0893793 2.07266e-08 0.00227924)
(0.0865235 2.11644e-08 0.00231942)
(0.0836219 2.1606e-08 0.00236)
(0.0806743 2.20591e-08 0.00240088)
(0.0776807 2.2535e-08 0.00244197)
(0.0746412 2.30528e-08 0.00248313)
(0.0715561 2.35858e-08 0.00252422)
(0.068426 2.41493e-08 0.00256511)
(0.0652515 2.47737e-08 0.0026056)
(0.0620337 2.54247e-08 0.00264553)
(0.0587736 2.61328e-08 0.00268466)
(0.0554729 2.68829e-08 0.00272276)
(0.0521333 2.77204e-08 0.00275955)
(0.048757 2.86075e-08 0.00279472)
(0.0453466 2.95555e-08 0.00282793)
(0.0419051 3.05835e-08 0.00285878)
(0.038436 3.16762e-08 0.00288682)
(0.0349435 3.27841e-08 0.00291152)
(0.0314322 3.39338e-08 0.00293229)
(0.0279078 3.50456e-08 0.00294846)
(0.0243765 3.60773e-08 0.00295923)
(0.0208456 3.69263e-08 0.0029637)
(0.0173235 3.75165e-08 0.00296081)
(0.0138199 3.77411e-08 0.00294933)
(0.0103461 3.7505e-08 0.00292779)
(0.00691453 3.66636e-08 0.00289442)
(0.00354248 3.52169e-08 0.00284695)
(0.000243675 3.30087e-08 0.00277958)
(-0.00295964 3.02446e-08 0.00268515)
(-0.00603436 2.79831e-08 0.00256383)
(-0.00896082 2.72141e-08 0.00241687)
(-0.0117028 2.88055e-08 0.00224026)
(-0.014223 3.3892e-08 0.00202722)
(-0.0164759 4.32578e-08 0.00177051)
(-0.0184075 5.66288e-08 0.00146166)
(-0.019954 7.19567e-08 0.00108964)
(-0.0210384 8.47718e-08 0.000641238)
(-0.0215718 8.90664e-08 0.000100251)
(-0.0214443 7.98148e-08 -0.000548079)
(-0.0205397 5.9073e-08 -0.00131718)
(-0.0187329 3.99988e-08 -0.0022156)
(-0.0159061 4.13618e-08 -0.00322387)
(-0.0119901 6.66344e-08 -0.00424118)
(-0.0072733 7.86272e-08 -0.00492158)
(-0.00159919 3.00464e-08 -0.00365944)
(0.000461684 -1.47875e-07 0.000795012)
(-0.0169586 2.18601e-07 0.01855)
(-0.0339943 -4.24792e-09 0.0161462)
(-0.0468547 -6.47767e-08 0.00744712)
(-0.0495002 -6.82035e-08 -0.000546306)
(-0.0447833 -6.56451e-08 -0.00625041)
(-0.03511 -7.11201e-08 -0.0100356)
(-0.0220507 -7.03282e-08 -0.0124983)
(-0.00697403 -6.05358e-08 -0.0140383)
(0.00963234 -4.69475e-08 -0.0147919)
(0.0265766 -3.59368e-08 -0.0149517)
(0.0438238 -3.23389e-08 -0.0148237)
(0.0609481 -3.40751e-08 -0.0145035)
(0.0777669 -3.75664e-08 -0.014055)
(0.0941323 -4.01821e-08 -0.0135204)
(0.109941 -4.06618e-08 -0.0129292)
(0.125118 -3.88876e-08 -0.0123022)
(0.139615 -3.53087e-08 -0.0116544)
(0.153397 -3.06257e-08 -0.0109969)
(0.166444 -2.54402e-08 -0.0103383)
(0.178746 -2.0247e-08 -0.00968486)
(0.190301 -1.53584e-08 -0.00904146)
(0.201115 -1.09572e-08 -0.00841191)
(0.211197 -7.11177e-09 -0.00779915)
(0.220562 -3.87555e-09 -0.00720544)
(0.229229 -1.18378e-09 -0.00663253)
(0.237218 9.76868e-10 -0.00608169)
(0.244553 2.67303e-09 -0.00555386)
(0.251257 3.98845e-09 -0.00504966)
(0.257358 4.97074e-09 -0.00456945)
(0.262881 5.68842e-09 -0.00411337)
(0.267855 6.19669e-09 -0.00368136)
(0.272307 6.54315e-09 -0.00327321)
(0.276264 6.7754e-09 -0.00288854)
(0.279755 6.92198e-09 -0.00252689)
(0.282805 6.99241e-09 -0.00218766)
(0.285443 7.04e-09 -0.00187017)
(0.287693 7.0381e-09 -0.0015737)
(0.289581 7.02477e-09 -0.00129744)
(0.291132 6.99812e-09 -0.00104056)
(0.292367 6.95433e-09 -0.000802192)
(0.293311 6.92578e-09 -0.000581452)
(0.293983 6.87628e-09 -0.000377464)
(0.294405 6.84201e-09 -0.000189344)
(0.294595 6.79823e-09 -1.59851e-05)
(0.294572 6.76777e-09 0.0001435)
(0.294353 6.76015e-09 0.000289672)
(0.293953 6.75444e-09 0.000423358)
(0.293389 6.76205e-09 0.000545508)
(0.292673 6.77918e-09 0.000656948)
(0.29182 6.81344e-09 0.000758427)
(0.29084 6.84961e-09 0.000850649)
(0.289747 6.91242e-09 0.000934282)
(0.28855 6.98666e-09 0.00100996)
(0.287259 7.06471e-09 0.00107828)
(0.285883 7.15798e-09 0.00113982)
(0.28443 7.25887e-09 0.00119509)
(0.282909 7.3826e-09 0.0012446)
(0.281325 7.4911e-09 0.00128881)
(0.279687 7.61484e-09 0.00132814)
(0.278 7.73666e-09 0.001363)
(0.276269 7.86801e-09 0.00139377)
(0.2745 8.01078e-09 0.00142077)
(0.272697 8.13832e-09 0.00144433)
(0.270864 8.26585e-09 0.00146473)
(0.269006 8.39529e-09 0.00148226)
(0.267126 8.52664e-09 0.00149715)
(0.265227 8.64466e-09 0.00150965)
(0.263312 8.75887e-09 0.00151994)
(0.261385 8.87118e-09 0.00152825)
(0.259447 8.97587e-09 0.00153473)
(0.257501 9.07105e-09 0.00153956)
(0.255548 9.16051e-09 0.00154289)
(0.253591 9.24617e-09 0.00154487)
(0.251632 9.32612e-09 0.00154561)
(0.249672 9.40035e-09 0.00154526)
(0.247712 9.46316e-09 0.0015439)
(0.245753 9.52598e-09 0.00154166)
(0.243798 9.58118e-09 0.00153863)
(0.241846 9.62305e-09 0.0015349)
(0.239898 9.66112e-09 0.00153055)
(0.237956 9.69918e-09 0.00152567)
(0.23602 9.72583e-09 0.00152032)
(0.23409 9.74676e-09 0.00151458)
(0.232167 9.76769e-09 0.00150851)
(0.230252 9.78482e-09 0.00150217)
(0.228345 9.80195e-09 0.00149563)
(0.226445 9.80955e-09 0.00148893)
(0.224554 9.81716e-09 0.00148213)
(0.222671 9.83239e-09 0.00147528)
(0.220796 9.82667e-09 0.00146842)
(0.21893 9.83428e-09 0.00146159)
(0.217072 9.83998e-09 0.00145485)
(0.215222 9.83998e-09 0.00144822)
(0.21338 9.84568e-09 0.00144176)
(0.211546 9.84568e-09 0.00143548)
(0.20972 9.84757e-09 0.00142943)
(0.207901 9.8628e-09 0.00142365)
(0.206089 9.87041e-09 0.00141816)
(0.204283 9.89705e-09 0.00141299)
(0.202483 9.90656e-09 0.00140817)
(0.20069 9.92179e-09 0.00140374)
(0.198901 9.95034e-09 0.00139972)
(0.197117 9.98269e-09 0.00139613)
(0.195337 1.00189e-08 0.001393)
(0.193561 1.00474e-08 0.00139037)
(0.191787 1.0095e-08 0.00138824)
(0.190016 1.01369e-08 0.00138665)
(0.188246 1.0194e-08 0.00138562)
(0.186477 1.0253e-08 0.00138517)
(0.184709 1.0312e-08 0.00138533)
(0.18294 1.03881e-08 0.00138611)
(0.181169 1.04605e-08 0.00138754)
(0.179396 1.0548e-08 0.00138964)
(0.17762 1.06413e-08 0.00139243)
(0.17584 1.07441e-08 0.00139593)
(0.174056 1.08469e-08 0.00140017)
(0.172265 1.09573e-08 0.00140515)
(0.170468 1.10753e-08 0.00141091)
(0.168663 1.12009e-08 0.00141746)
(0.16685 1.13456e-08 0.00142481)
(0.165027 1.14827e-08 0.001433)
(0.163194 1.16273e-08 0.00144203)
(0.161349 1.17949e-08 0.00145192)
(0.159491 1.19548e-08 0.0014627)
(0.15762 1.21223e-08 0.00147438)
(0.155733 1.23088e-08 0.00148697)
(0.153831 1.24916e-08 0.00150049)
(0.151911 1.26895e-08 0.00151496)
(0.149973 1.28989e-08 0.00153039)
(0.148016 1.31007e-08 0.0015468)
(0.146039 1.33253e-08 0.00156418)
(0.144039 1.35423e-08 0.00158257)
(0.142017 1.37746e-08 0.00160197)
(0.13997 1.40182e-08 0.00162238)
(0.137898 1.42619e-08 0.00164381)
(0.1358 1.45056e-08 0.00166627)
(0.133674 1.47683e-08 0.00168977)
(0.131519 1.50462e-08 0.00171431)
(0.129333 1.53165e-08 0.00173988)
(0.127117 1.5602e-08 0.00176648)
(0.124868 1.58838e-08 0.00179412)
(0.122586 1.6196e-08 0.00182278)
(0.120268 1.64929e-08 0.00185246)
(0.117915 1.67975e-08 0.00188313)
(0.115525 1.71135e-08 0.0019148)
(0.113097 1.74371e-08 0.00194743)
(0.110629 1.77645e-08 0.001981)
(0.108122 1.8111e-08 0.00201548)
(0.105574 1.84574e-08 0.00205085)
(0.102984 1.88001e-08 0.00208707)
(0.100351 1.91694e-08 0.00212409)
(0.0976748 1.95387e-08 0.00216186)
(0.0949545 1.99308e-08 0.00220034)
(0.0921895 2.03192e-08 0.00223945)
(0.0893793 2.07265e-08 0.00227913)
(0.0865236 2.11644e-08 0.00231931)
(0.083622 2.1606e-08 0.00235988)
(0.0806743 2.20591e-08 0.00240077)
(0.0776807 2.2535e-08 0.00244185)
(0.0746412 2.30528e-08 0.002483)
(0.0715561 2.35858e-08 0.0025241)
(0.068426 2.41492e-08 0.00256498)
(0.0652516 2.47736e-08 0.00260548)
(0.0620337 2.54247e-08 0.0026454)
(0.0587737 2.61328e-08 0.00268452)
(0.0554729 2.68828e-08 0.00272262)
(0.0521333 2.77204e-08 0.00275941)
(0.0487571 2.86075e-08 0.00279458)
(0.0453466 2.95555e-08 0.00282779)
(0.0419051 3.05834e-08 0.00285863)
(0.038436 3.16761e-08 0.00288666)
(0.0349435 3.2784e-08 0.00291136)
(0.0314323 3.39338e-08 0.00293213)
(0.0279078 3.50455e-08 0.00294829)
(0.0243765 3.60773e-08 0.00295906)
(0.0208456 3.69263e-08 0.00296352)
(0.0173235 3.75164e-08 0.00296063)
(0.01382 3.7741e-08 0.00294914)
(0.0103461 3.7505e-08 0.0029276)
(0.00691458 3.66636e-08 0.00289422)
(0.00354252 3.52168e-08 0.00284675)
(0.000243714 3.30086e-08 0.00277937)
(-0.0029596 3.02446e-08 0.00268494)
(-0.00603432 2.79831e-08 0.00256362)
(-0.00896078 2.7214e-08 0.00241665)
(-0.0117027 2.88055e-08 0.00224004)
(-0.0142229 3.38919e-08 0.002027)
(-0.0164758 4.32577e-08 0.00177028)
(-0.0184075 5.66286e-08 0.00146143)
(-0.0199539 7.19565e-08 0.0010894)
(-0.0210384 8.47716e-08 0.000640981)
(-0.0215718 8.90662e-08 9.99761e-05)
(-0.0214443 7.98146e-08 -0.000548375)
(-0.0205397 5.90729e-08 -0.0013175)
(-0.0187329 3.99987e-08 -0.00221593)
(-0.0159061 4.13616e-08 -0.0032242)
(-0.0119901 6.66338e-08 -0.00424153)
(-0.00727355 7.86265e-08 -0.00492202)
(-0.00159963 3.00468e-08 -0.00366009)
(0.000461249 -1.47871e-07 0.00079374)
(-0.0132021 9.37702e-08 0.0384268)
(-0.0187308 1.82686e-08 0.0241059)
(-0.0183158 4.88723e-09 0.00935615)
(-0.0142233 -7.12898e-09 -0.00339442)
(-0.00701174 -1.05614e-08 -0.0129754)
(0.00269459 -9.97125e-09 -0.0196875)
(0.0142991 -6.90539e-09 -0.024164)
(0.0272542 -3.83191e-09 -0.0270152)
(0.0411409 -2.36894e-09 -0.0286338)
(0.0555674 -2.65926e-09 -0.0293558)
(0.070268 -4.39922e-09 -0.0294845)
(0.084996 -6.59986e-09 -0.0291834)
(0.0995774 -8.46927e-09 -0.0285764)
(0.113875 -9.61813e-09 -0.0277486)
(0.127785 -9.9684e-09 -0.0267619)
(0.141229 -9.6581e-09 -0.0256624)
(0.15415 -8.90329e-09 -0.0244847)
(0.166504 -7.91147e-09 -0.0232558)
(0.178262 -6.84589e-09 -0.0219965)
(0.189406 -5.81648e-09 -0.0207235)
(0.199924 -4.89034e-09 -0.0194501)
(0.209814 -4.09937e-09 -0.0181872)
(0.219075 -3.44879e-09 -0.0169433)
(0.227717 -2.9348e-09 -0.0157255)
(0.235748 -2.53931e-09 -0.0145394)
(0.243183 -2.24614e-09 -0.0133896)
(0.250038 -2.03816e-09 -0.0122797)
(0.256332 -1.89206e-09 -0.0112123)
(0.262084 -1.79163e-09 -0.0101894)
(0.267315 -1.72548e-09 -0.00921242)
(0.272048 -1.67932e-09 -0.00828219)
(0.276305 -1.64981e-09 -0.00739906)
(0.28011 -1.62458e-09 -0.00656299)
(0.283485 -1.60507e-09 -0.00577358)
(0.286453 -1.58841e-09 -0.00503012)
(0.289038 -1.5708e-09 -0.00433167)
(0.291261 -1.55557e-09 -0.00367704)
(0.293145 -1.53939e-09 -0.00306488)
(0.294711 -1.52368e-09 -0.0024937)
(0.29598 -1.51321e-09 -0.00196189)
(0.296971 -1.50369e-09 -0.00146779)
(0.297703 -1.49465e-09 -0.00100964)
(0.298195 -1.48656e-09 -0.000585688)
(0.298464 -1.47656e-09 -0.000194144)
(0.298526 -1.47133e-09 0.000166772)
(0.298398 -1.4718e-09 0.000498876)
(0.298093 -1.47038e-09 0.000803946)
(0.297627 -1.4699e-09 0.00108366)
(0.297011 -1.46514e-09 0.00133966)
(0.296259 -1.46229e-09 0.00157351)
(0.295381 -1.45848e-09 0.00178671)
(0.294389 -1.4542e-09 0.00198071)
(0.293292 -1.44944e-09 0.00215688)
(0.2921 -1.44611e-09 0.00231651)
(0.290822 -1.44087e-09 0.00246084)
(0.289464 -1.43374e-09 0.00259101)
(0.288036 -1.4285e-09 0.00270811)
(0.286544 -1.42232e-09 0.00281316)
(0.284994 -1.41756e-09 0.0029071)
(0.283392 -1.4109e-09 0.00299082)
(0.281743 -1.40519e-09 0.00306514)
(0.280053 -1.39996e-09 0.00313082)
(0.278326 -1.39425e-09 0.00318858)
(0.276566 -1.39234e-09 0.00323906)
(0.274778 -1.38901e-09 0.00328287)
(0.272965 -1.38569e-09 0.00332057)
(0.27113 -1.38426e-09 0.00335269)
(0.269276 -1.38331e-09 0.0033797)
(0.267406 -1.38236e-09 0.00340205)
(0.265523 -1.38093e-09 0.00342014)
(0.263629 -1.38332e-09 0.00343435)
(0.261725 -1.38427e-09 0.00344504)
(0.259815 -1.38618e-09 0.00345253)
(0.257899 -1.38618e-09 0.00345713)
(0.255979 -1.38856e-09 0.0034591)
(0.254058 -1.38951e-09 0.00345872)
(0.252135 -1.39332e-09 0.00345622)
(0.250212 -1.3957e-09 0.00345183)
(0.248291 -1.39713e-09 0.00344577)
(0.246372 -1.40142e-09 0.00343821)
(0.244455 -1.4038e-09 0.00342936)
(0.242543 -1.40618e-09 0.00341938)
(0.240635 -1.40952e-09 0.00340844)
(0.238731 -1.41333e-09 0.00339668)
(0.236833 -1.41571e-09 0.00338425)
(0.234941 -1.41904e-09 0.00337128)
(0.233055 -1.42095e-09 0.00335789)
(0.231175 -1.42286e-09 0.00334422)
(0.229302 -1.42476e-09 0.00333037)
(0.227435 -1.42667e-09 0.00331645)
(0.225574 -1.42619e-09 0.00330255)
(0.22372 -1.4281e-09 0.00328879)
(0.221873 -1.42953e-09 0.00327524)
(0.220032 -1.43096e-09 0.003262)
(0.218197 -1.43239e-09 0.00324914)
(0.216368 -1.43239e-09 0.00323676)
(0.214546 -1.43287e-09 0.00322491)
(0.212728 -1.43192e-09 0.00321369)
(0.210916 -1.4324e-09 0.00320315)
(0.209108 -1.43193e-09 0.00319336)
(0.207305 -1.43145e-09 0.00318439)
(0.205505 -1.43383e-09 0.0031763)
(0.203709 -1.43431e-09 0.00316914)
(0.201916 -1.43431e-09 0.00316299)
(0.200125 -1.43622e-09 0.00315788)
(0.198336 -1.43575e-09 0.00315388)
(0.196549 -1.43765e-09 0.00315104)
(0.194761 -1.43718e-09 0.00314941)
(0.192974 -1.43956e-09 0.00314904)
(0.191185 -1.44194e-09 0.00314998)
(0.189396 -1.4448e-09 0.00315227)
(0.187603 -1.44718e-09 0.00315597)
(0.185808 -1.44956e-09 0.00316111)
(0.184009 -1.45289e-09 0.00316774)
(0.182205 -1.45623e-09 0.00317591)
(0.180396 -1.46099e-09 0.00318565)
(0.17858 -1.46575e-09 0.00319701)
(0.176757 -1.47098e-09 0.00321002)
(0.174926 -1.47622e-09 0.00322473)
(0.173085 -1.48241e-09 0.00324118)
(0.171235 -1.48907e-09 0.00325939)
(0.169374 -1.49621e-09 0.00327942)
(0.1675 -1.5043e-09 0.00330128)
(0.165614 -1.5124e-09 0.00332501)
(0.163713 -1.52049e-09 0.00335065)
(0.161798 -1.53048e-09 0.00337822)
(0.159866 -1.53905e-09 0.00340775)
(0.157917 -1.54952e-09 0.00343927)
(0.15595 -1.56047e-09 0.0034728)
(0.153964 -1.57189e-09 0.00350835)
(0.151957 -1.58189e-09 0.00354596)
(0.149929 -1.59616e-09 0.00358562)
(0.147878 -1.60806e-09 0.00362737)
(0.145803 -1.62091e-09 0.00367119)
(0.143704 -1.63519e-09 0.00371711)
(0.141579 -1.65137e-09 0.00376511)
(0.139427 -1.66517e-09 0.00381521)
(0.137247 -1.67945e-09 0.00386737)
(0.135037 -1.69516e-09 0.00392161)
(0.132798 -1.71134e-09 0.00397788)
(0.130527 -1.72895e-09 0.00403618)
(0.128224 -1.74465e-09 0.00409646)
(0.125888 -1.76417e-09 0.0041587)
(0.123518 -1.78368e-09 0.00422283)
(0.121112 -1.80367e-09 0.00428882)
(0.118671 -1.82461e-09 0.00435659)
(0.116193 -1.8446e-09 0.00442608)
(0.113677 -1.86744e-09 0.0044972)
(0.111122 -1.8879e-09 0.00456987)
(0.108528 -1.91408e-09 0.00464396)
(0.105895 -1.93692e-09 0.00471938)
(0.103222 -1.96215e-09 0.00479599)
(0.100507 -1.98547e-09 0.00487364)
(0.0977517 -2.01021e-09 0.00495217)
(0.0949548 -2.03782e-09 0.00503141)
(0.0921164 -2.06351e-09 0.00511116)
(0.0892365 -2.08921e-09 0.00519119)
(0.086315 -2.11872e-09 0.00527128)
(0.0833524 -2.14918e-09 0.00535115)
(0.0803489 -2.17583e-09 0.00543051)
(0.0773052 -2.20343e-09 0.00550905)
(0.074222 -2.23103e-09 0.00558639)
(0.0711003 -2.25959e-09 0.00566215)
(0.0679414 -2.28909e-09 0.0057359)
(0.0647467 -2.31765e-09 0.00580714)
(0.061518 -2.35001e-09 0.00587533)
(0.0582573 -2.37857e-09 0.00593988)
(0.0549671 -2.40902e-09 0.00600012)
(0.0516501 -2.44329e-09 0.00605529)
(0.0483096 -2.47851e-09 0.00610455)
(0.0449493 -2.51848e-09 0.00614696)
(0.0415733 -2.56798e-09 0.00618145)
(0.0381866 -2.62889e-09 0.0062068)
(0.0347944 -2.71075e-09 0.00622164)
(0.0314031 -2.81449e-09 0.00622441)
(0.0280196 -2.95155e-09 0.0062133)
(0.0246521 -3.12859e-09 0.00618627)
(0.0213094 -3.35798e-09 0.00614091)
(0.018002 -3.63971e-09 0.00607443)
(0.0147414 -3.97856e-09 0.00598345)
(0.0115413 -4.36213e-09 0.00586404)
(0.00841661 -4.75333e-09 0.00571049)
(0.00538416 -5.05315e-09 0.00551584)
(0.00246377 -5.18354e-09 0.0052753)
(-0.000324048 -5.04648e-09 0.00498327)
(-0.00295186 -4.47064e-09 0.00463135)
(-0.00539115 -3.28945e-09 0.00420969)
(-0.00761052 -1.42581e-09 0.00370643)
(-0.0095739 9.48953e-10 0.00310721)
(-0.0112415 3.24281e-09 0.00239491)
(-0.0125696 4.29361e-09 0.0015505)
(-0.0135117 2.69933e-09 0.000553292)
(-0.0140212 -2.20248e-09 -0.000613852)
(-0.0140506 -8.60625e-09 -0.00195887)
(-0.0135651 -1.10733e-08 -0.0034704)
(-0.012549 -2.74502e-09 -0.00508231)
(-0.0110212 1.48882e-08 -0.0065972)
(-0.00901592 1.38032e-08 -0.00755259)
(-0.00644379 -1.8648e-08 -0.00671353)
(-0.00381469 -3.17123e-07 -0.00222686)
(-0.0132025 9.37697e-08 0.0384262)
(-0.0187309 1.82683e-08 0.0241056)
(-0.0183156 4.88711e-09 0.0093559)
(-0.0142232 -7.12882e-09 -0.00339462)
(-0.00701155 -1.05612e-08 -0.0129756)
(0.00269478 -9.97109e-09 -0.0196876)
(0.0142993 -6.90528e-09 -0.0241641)
(0.0272543 -3.83186e-09 -0.0270153)
(0.041141 -2.36891e-09 -0.0286339)
(0.0555675 -2.65923e-09 -0.0293559)
(0.070268 -4.39917e-09 -0.0294845)
(0.0849961 -6.5998e-09 -0.0291834)
(0.0995774 -8.46919e-09 -0.0285764)
(0.113875 -9.61805e-09 -0.0277486)
(0.127785 -9.96832e-09 -0.026762)
(0.141229 -9.65803e-09 -0.0256625)
(0.15415 -8.90323e-09 -0.0244848)
(0.166504 -7.91142e-09 -0.0232558)
(0.178262 -6.84585e-09 -0.0219965)
(0.189406 -5.81645e-09 -0.0207235)
(0.199924 -4.89032e-09 -0.0194502)
(0.209813 -4.09935e-09 -0.0181872)
(0.219075 -3.44877e-09 -0.0169433)
(0.227717 -2.93478e-09 -0.0157255)
(0.235748 -2.53929e-09 -0.0145394)
(0.243183 -2.24613e-09 -0.0133897)
(0.250038 -2.03815e-09 -0.0122797)
(0.256332 -1.89205e-09 -0.0112123)
(0.262084 -1.79163e-09 -0.0101894)
(0.267315 -1.72547e-09 -0.00921245)
(0.272048 -1.67931e-09 -0.00828221)
(0.276305 -1.6498e-09 -0.00739908)
(0.28011 -1.62458e-09 -0.00656301)
(0.283485 -1.60506e-09 -0.0057736)
(0.286453 -1.5884e-09 -0.00503015)
(0.289038 -1.57079e-09 -0.00433169)
(0.291261 -1.55556e-09 -0.00367706)
(0.293145 -1.53938e-09 -0.0030649)
(0.294711 -1.52368e-09 -0.00249372)
(0.29598 -1.51321e-09 -0.00196192)
(0.29697 -1.50369e-09 -0.00146781)
(0.297703 -1.49464e-09 -0.00100967)
(0.298195 -1.48655e-09 -0.000585714)
(0.298464 -1.47656e-09 -0.00019417)
(0.298526 -1.47132e-09 0.000166745)
(0.298398 -1.4718e-09 0.000498849)
(0.298093 -1.47037e-09 0.000803919)
(0.297627 -1.4699e-09 0.00108364)
(0.297011 -1.46514e-09 0.00133963)
(0.296259 -1.46228e-09 0.00157348)
(0.295381 -1.45848e-09 0.00178669)
(0.294389 -1.45419e-09 0.00198069)
(0.293292 -1.44944e-09 0.00215685)
(0.2921 -1.44611e-09 0.00231649)
(0.290821 -1.44087e-09 0.00246081)
(0.289464 -1.43373e-09 0.00259098)
(0.288036 -1.4285e-09 0.00270808)
(0.286544 -1.42231e-09 0.00281313)
(0.284994 -1.41756e-09 0.00290707)
(0.283391 -1.4109e-09 0.00299079)
(0.281743 -1.40519e-09 0.00306512)
(0.280053 -1.39995e-09 0.0031308)
(0.278326 -1.39424e-09 0.00318855)
(0.276566 -1.39234e-09 0.00323903)
(0.274778 -1.38901e-09 0.00328285)
(0.272965 -1.38568e-09 0.00332055)
(0.27113 -1.38426e-09 0.00335267)
(0.269276 -1.38331e-09 0.00337968)
(0.267406 -1.38236e-09 0.00340202)
(0.265523 -1.38093e-09 0.00342011)
(0.263628 -1.38331e-09 0.00343433)
(0.261725 -1.38427e-09 0.00344502)
(0.259815 -1.38617e-09 0.00345251)
(0.257899 -1.38618e-09 0.0034571)
(0.255979 -1.38856e-09 0.00345908)
(0.254058 -1.38951e-09 0.0034587)
(0.252135 -1.39332e-09 0.0034562)
(0.250212 -1.3957e-09 0.00345181)
(0.248291 -1.39713e-09 0.00344574)
(0.246372 -1.40142e-09 0.00343819)
(0.244455 -1.4038e-09 0.00342934)
(0.242543 -1.40618e-09 0.00341936)
(0.240635 -1.40952e-09 0.00340842)
(0.238731 -1.41333e-09 0.00339666)
(0.236833 -1.41571e-09 0.00338422)
(0.234941 -1.41904e-09 0.00337125)
(0.233055 -1.42095e-09 0.00335787)
(0.231175 -1.42285e-09 0.0033442)
(0.229302 -1.42476e-09 0.00333035)
(0.227435 -1.42666e-09 0.00331643)
(0.225574 -1.42619e-09 0.00330253)
(0.22372 -1.4281e-09 0.00328877)
(0.221873 -1.42953e-09 0.00327522)
(0.220032 -1.43096e-09 0.00326198)
(0.218197 -1.43239e-09 0.00324912)
(0.216368 -1.43239e-09 0.00323674)
(0.214545 -1.43287e-09 0.00322489)
(0.212728 -1.43192e-09 0.00321367)
(0.210916 -1.4324e-09 0.00320313)
(0.209108 -1.43192e-09 0.00319334)
(0.207305 -1.43145e-09 0.00318437)
(0.205505 -1.43383e-09 0.00317628)
(0.203709 -1.43431e-09 0.00316912)
(0.201916 -1.43431e-09 0.00316297)
(0.200125 -1.43622e-09 0.00315786)
(0.198336 -1.43574e-09 0.00315386)
(0.196549 -1.43765e-09 0.00315102)
(0.194761 -1.43717e-09 0.00314939)
(0.192974 -1.43956e-09 0.00314902)
(0.191185 -1.44194e-09 0.00314996)
(0.189396 -1.44479e-09 0.00315225)
(0.187603 -1.44718e-09 0.00315595)
(0.185808 -1.44956e-09 0.00316109)
(0.184009 -1.45289e-09 0.00316772)
(0.182205 -1.45622e-09 0.00317589)
(0.180396 -1.46098e-09 0.00318563)
(0.17858 -1.46574e-09 0.00319699)
(0.176757 -1.47098e-09 0.00321)
(0.174926 -1.47622e-09 0.00322471)
(0.173085 -1.48241e-09 0.00324116)
(0.171235 -1.48907e-09 0.00325938)
(0.169374 -1.49621e-09 0.0032794)
(0.1675 -1.5043e-09 0.00330126)
(0.165614 -1.51239e-09 0.00332499)
(0.163713 -1.52048e-09 0.00335063)
(0.161797 -1.53048e-09 0.0033782)
(0.159866 -1.53905e-09 0.00340773)
(0.157917 -1.54952e-09 0.00343925)
(0.15595 -1.56047e-09 0.00347278)
(0.153964 -1.57189e-09 0.00350833)
(0.151957 -1.58188e-09 0.00354594)
(0.149929 -1.59616e-09 0.0035856)
(0.147878 -1.60806e-09 0.00362735)
(0.145803 -1.62091e-09 0.00367117)
(0.143704 -1.63519e-09 0.00371709)
(0.141579 -1.65137e-09 0.00376509)
(0.139427 -1.66517e-09 0.00381518)
(0.137247 -1.67945e-09 0.00386735)
(0.135037 -1.69515e-09 0.00392158)
(0.132798 -1.71134e-09 0.00397786)
(0.130527 -1.72894e-09 0.00403616)
(0.128224 -1.74465e-09 0.00409644)
(0.125888 -1.76416e-09 0.00415867)
(0.123518 -1.78368e-09 0.00422281)
(0.121112 -1.80366e-09 0.0042888)
(0.118671 -1.8246e-09 0.00435657)
(0.116193 -1.84459e-09 0.00442606)
(0.113677 -1.86744e-09 0.00449718)
(0.111122 -1.8879e-09 0.00456984)
(0.108528 -1.91408e-09 0.00464394)
(0.105895 -1.93692e-09 0.00471936)
(0.103222 -1.96214e-09 0.00479596)
(0.100507 -1.98546e-09 0.00487361)
(0.0977517 -2.01021e-09 0.00495215)
(0.0949548 -2.03781e-09 0.00503138)
(0.0921164 -2.06351e-09 0.00511113)
(0.0892365 -2.08921e-09 0.00519117)
(0.086315 -2.11872e-09 0.00527125)
(0.0833524 -2.14917e-09 0.00535112)
(0.0803489 -2.17583e-09 0.00543049)
(0.0773052 -2.20343e-09 0.00550902)
(0.074222 -2.23103e-09 0.00558636)
(0.0711003 -2.25958e-09 0.00566213)
(0.0679414 -2.28909e-09 0.00573587)
(0.0647467 -2.31765e-09 0.00580711)
(0.061518 -2.35001e-09 0.0058753)
(0.0582573 -2.37856e-09 0.00593985)
(0.0549671 -2.40902e-09 0.00600009)
(0.0516501 -2.44328e-09 0.00605526)
(0.0483096 -2.4785e-09 0.00610452)
(0.0449493 -2.51848e-09 0.00614693)
(0.0415734 -2.56797e-09 0.00618142)
(0.0381866 -2.62889e-09 0.00620677)
(0.0347944 -2.71074e-09 0.00622161)
(0.0314031 -2.81449e-09 0.00622437)
(0.0280197 -2.95155e-09 0.00621327)
(0.0246521 -3.12858e-09 0.00618623)
(0.0213094 -3.35797e-09 0.00614087)
(0.018002 -3.6397e-09 0.0060744)
(0.0147414 -3.97855e-09 0.00598342)
(0.0115413 -4.36212e-09 0.005864)
(0.00841663 -4.75332e-09 0.00571046)
(0.00538418 -5.05314e-09 0.0055158)
(0.00246379 -5.18353e-09 0.00527526)
(-0.000324029 -5.04647e-09 0.00498323)
(-0.00295185 -4.47063e-09 0.00463131)
(-0.00539113 -3.28944e-09 0.00420965)
(-0.0076105 -1.4258e-09 0.00370638)
(-0.00957388 9.48951e-10 0.00310717)
(-0.0112415 3.2428e-09 0.00239486)
(-0.0125696 4.2936e-09 0.00155045)
(-0.0135117 2.69932e-09 0.000553238)
(-0.0140212 -2.20248e-09 -0.000613909)
(-0.0140506 -8.60623e-09 -0.00195893)
(-0.0135651 -1.10733e-08 -0.00347046)
(-0.012549 -2.745e-09 -0.00508238)
(-0.0110212 1.48881e-08 -0.00659728)
(-0.00901601 1.3803e-08 -0.00755271)
(-0.00644402 -1.86476e-08 -0.00671373)
(-0.00381524 -3.171e-07 -0.00222738)
(-0.00471855 1.15998e-07 0.0505613)
(-0.00420599 1.40538e-08 0.0229976)
(0.00134262 9.13711e-09 0.00319664)
(0.00858265 3.98844e-09 -0.0119534)
(0.0171788 3.69997e-09 -0.0233161)
(0.0269262 5.07821e-09 -0.0315399)
(0.0376946 6.98377e-09 -0.0372572)
(0.0492938 8.31633e-09 -0.0410365)
(0.0615193 8.52287e-09 -0.0433231)
(0.0741781 7.70428e-09 -0.0444779)
(0.0870842 6.22607e-09 -0.0447963)
(0.100062 4.59748e-09 -0.0444886)
(0.112971 3.17686e-09 -0.0437132)
(0.12569 2.13793e-09 -0.0425883)
(0.138125 1.50353e-09 -0.0412031)
(0.150201 1.2056e-09 -0.0396265)
(0.161858 1.14611e-09 -0.0379119)
(0.173052 1.22559e-09 -0.0361015)
(0.183748 1.37027e-09 -0.034229)
(0.193922 1.52328e-09 -0.0323214)
(0.203559 1.65701e-09 -0.030401)
(0.212651 1.75339e-09 -0.0284856)
(0.221193 1.81026e-09 -0.02659)
(0.229187 1.82525e-09 -0.0247263)
(0.23664 1.80883e-09 -0.0229044)
(0.24356 1.76314e-09 -0.0211321)
(0.249958 1.69889e-09 -0.0194159)
(0.255849 1.6237e-09 -0.0177608)
(0.261248 1.5416e-09 -0.0161705)
(0.266174 1.45975e-09 -0.0146478)
(0.270643 1.38098e-09 -0.0131945)
(0.274676 1.30793e-09 -0.0118118)
(0.278291 1.2413e-09 -0.0104999)
(0.281509 1.18181e-09 -0.00925868)
(0.28435 1.13017e-09 -0.00808735)
(0.286835 1.0852e-09 -0.00698474)
(0.288981 1.04617e-09 -0.00594931)
(0.290811 1.01096e-09 -0.00497921)
(0.292341 9.80734e-10 -0.00407233)
(0.293591 9.52178e-10 -0.00322637)
(0.294579 9.26954e-10 -0.00243887)