/*--------------------------------*- C++ -*----------------------------------*\
  =========                 |
  \\      /  F ield         | OpenFOAM: The Open Source CFD Toolbox
   \\    /   O peration     | Website:  https://openfoam.org
    \\  /    A nd           | Version:  8
     \\/     M anipulation  |
\*---------------------------------------------------------------------------*/
FoamFile
{
    version     2.0;
    format      ascii;
    class       volScalarField;
    location    "3000";
    object      epsilon;
}
// * * * * * * * * * * * * * * * * * * * * * * * * * * * * * * * * * * * * * //

dimensions      [0 2 -3 0 0 0 0];

internalField   nonuniform List<scalar> 
48000
(
1.57167
4.34096
8.18997
12.2187
16.4579
20.6987
24.9115
29.1196
33.4215
37.7039
42.0019
46.3068
50.6126
54.9138
59.2045
63.4783
67.7285
71.9479
76.1294
80.2656
84.3491
88.3728
92.3294
96.2124
100.015
103.731
107.355
110.882
114.307
117.625
120.834
123.929
126.908
129.768
132.509
135.129
137.627
140.003
142.258
144.39
146.403
148.295
150.069
151.726
153.284
154.742
156.092
157.333
158.47
159.504
160.44
161.28
162.027
162.686
163.259
163.749
164.16
164.495
164.756
164.947
165.071
165.131
165.129
165.068
164.951
164.78
164.558
164.287
163.969
163.607
163.202
162.757
162.272
161.751
161.195
160.605
159.983
159.331
158.649
157.94
157.203
156.441
155.655
154.845
154.013
153.159
152.284
151.39
150.476
149.544
148.594
147.626
146.642
145.642
144.626
143.595
142.549
141.488
140.413
139.325
138.223
137.107
135.979
134.837
133.683
132.517
131.338
130.147
128.944
127.729
126.502
125.263
124.013
122.751
121.478
120.193
118.897
117.589
116.271
114.941
113.601
112.249
110.886
109.513
108.129
106.735
105.33
103.915
102.489
101.054
99.609
98.1544
96.6905
95.2174
93.7355
92.2451
90.7463
89.2396
87.7253
86.2037
84.6753
83.1404
81.5994
80.0529
78.5012
76.945
75.3846
73.8207
72.2538
70.6844
69.1132
67.5408
65.9678
64.3948
62.8225
61.2516
59.6827
58.1166
56.5538
54.9952
53.4413
51.893
50.3508
48.8154
47.2876
45.7679
44.2571
42.7558
41.2645
39.7838
38.3144
36.8566
35.4111
33.9782
32.5583
31.1519
29.7591
28.3803
27.0156
25.6654
24.3302
23.0113
21.7154
20.4389
19.1734
17.9177
16.6709
15.4315
14.198
12.9682
11.7394
10.5087
9.28255
8.05356
6.80994
5.54321
4.24196
2.8897
1.45963
0.216773
1.5718
4.34104
8.19011
12.2189
16.4581
20.6989
24.9118
29.1199
33.4217
37.7042
42.0022
46.3071
50.6129
54.9141
59.2048
63.4786
67.7288
71.9482
76.1297
80.2658
84.3494
88.373
92.3297
96.2126
100.015
103.732
107.356
110.883
114.307
117.626
120.834
123.929
126.908
129.768
132.509
135.129
137.627
140.003
142.258
144.39
146.403
148.295
150.069
151.727
153.284
154.742
156.092
157.333
158.47
159.504
160.44
161.28
162.027
162.686
163.259
163.749
164.16
164.495
164.756
164.947
165.071
165.131
165.129
165.068
164.951
164.78
164.558
164.287
163.969
163.607
163.202
162.757
162.272
161.751
161.195
160.605
159.983
159.331
158.649
157.939
157.203
156.441
155.655
154.845
154.013
153.159
152.284
151.39
150.476
149.544
148.594
147.626
146.642
145.642
144.626
143.595
142.549
141.488
140.413
139.325
138.223
137.107
135.979
134.837
133.683
132.517
131.338
130.147
128.944
127.728
126.502
125.263
124.013
122.751
121.478
120.193
118.897
117.589
116.271
114.941
113.601
112.249
110.886
109.513
108.129
106.735
105.33
103.915
102.489
101.054
99.609
98.1544
96.6904
95.2174
93.7355
92.245
90.7463
89.2396
87.7253
86.2037
84.6752
83.1403
81.5994
80.0529
78.5012
76.945
75.3846
73.8207
72.2538
70.6844
69.1132
67.5408
65.9678
64.3948
62.8225
61.2516
59.6827
58.1166
56.5538
54.9952
53.4413
51.8929
50.3508
48.8154
47.2876
45.7679
44.2571
42.7558
41.2645
39.7838
38.3144
36.8566
35.4111
33.9782
32.5583
31.1519
29.7591
28.3803
27.0156
25.6654
24.3302
23.0113
21.7154
20.4389
19.1734
17.9177
16.6709
15.4315
14.198
12.9682
11.7394
10.5087
9.28256
8.05357
6.80996
5.54323
4.24198
2.8897
1.45956
0.216766
5.13768
4.39355
5.63163
7.15067
8.80678
10.5292
12.2776
14.0472
15.8452
17.6621
19.4975
21.3494
23.2154
25.0928
26.9786
28.8695
30.7619
32.6519
34.5356
36.4088
38.2673
40.1068
41.9231
43.7122
45.4701
47.1929
48.8772
50.5196
52.117
53.6667
55.1662
56.6134
58.0063
59.3434
60.6236
61.8458
63.0094
64.114
65.1594
66.1459
67.0736
67.9433
68.7557
69.5126
70.2186
70.874
71.4774
72.029
72.53
72.9815
73.3851
73.7424
74.0551
74.3248
74.5532
74.7419
74.8926
75.007
75.0865
75.1327
75.1472
75.1315
75.0869
75.0148
74.9166
74.7935
74.6468
74.4777
74.2872
74.0766
73.8467
73.5986
73.3332
73.0515
72.7541
72.4421
72.116
71.7766
71.4246
71.0607
70.6853
70.2992
69.9028
69.4965
69.081
68.6565
68.2236
67.7826
67.3338
66.8776
66.4143
65.9441
65.4673
64.9843
64.495
63.9999
63.4991
62.9927
62.4809
61.9639
61.4417
60.9145
60.3824
59.8455
59.3039
58.7576
58.2068
57.6514
57.0916
56.5274
55.9587
55.3858
54.8085
54.227
53.6413
53.0513
52.4571
51.8588
51.2564
50.6499
50.0392
49.4246
48.8059
48.1833
47.5567
46.9263
46.292
45.654
45.0122
44.3668
43.7179
43.0654
42.4096
41.7504
41.0881
40.4227
39.7544
39.0833
38.4095
37.7332
37.0545
36.3737
35.6909
35.0063
34.3201
33.6326
32.9439
32.2542
31.5639
30.8732
30.1823
29.4915
28.8011
28.1113
27.4224
26.7347
26.0486
25.3642
24.6819
24.002
23.3248
22.6506
21.9797
21.3124
20.6489
19.9895
19.3346
18.6844
18.0391
17.3989
16.7642
16.1351
15.5118
14.8945
14.2834
13.6786
13.0802
12.4884
11.9032
11.3247
10.7533
10.189
9.63259
9.08334
8.53969
8.0018
7.4695
6.94211
6.41929
5.90058
5.38568
4.87481
4.36995
3.86963
3.3727
2.88001
2.39601
1.93569
1.55689
1.79791
5.13777
4.39351
5.63161
7.15058
8.80666
10.5291
12.2775
14.047
15.8451
17.6619
19.4974
21.3492
23.2152
25.0926
26.9784
28.8693
30.7616
32.6517
34.5354
36.4086
38.267
40.1065
41.9229
43.7119
45.4698
47.1927
48.8769
50.5193
52.1167
53.6664
55.1659
56.6131
58.006
59.3431
60.6233
61.8455
63.0091
64.1137
65.1591
66.1456
67.0733
67.9429
68.7554
69.5123
70.2183
70.8736
71.477
72.0287
72.5296
72.9811
73.3848
73.7421
74.0548
74.3245
74.5529
74.7416
74.8923
75.0066
75.0862
75.1324
75.1469
75.1312
75.0866
75.0145
74.9163
74.7932
74.6465
74.4774
74.287
74.0763
73.8464
73.5983
73.3329
73.0512
72.7539
72.4418
72.1157
71.7763
71.4244
71.0604
70.6851
70.2989
69.9025
69.4963
69.0807
68.6563
68.2234
67.7823
67.3336
66.8773
66.414
65.9438
65.4671
64.984
64.4948
63.9997
63.4988
62.9925
62.4807
61.9636
61.4415
60.9143
60.3822
59.8453
59.3037
58.7574
58.2066
57.6512
57.0914
56.5271
55.9585
55.3856
54.8083
54.2268
53.641
53.0511
52.4569
51.8586
51.2562
50.6497
50.039
49.4244
48.8057
48.1831
47.5566
46.9261
46.2919
45.6538
45.0121
44.3667
43.7177
43.0652
42.4094
41.7503
41.0879
40.4226
39.7542
39.0831
38.4093
37.733
37.0544
36.3735
35.6907
35.0061
34.32
33.6324
32.9437
32.2541
31.5638
30.8731
30.1822
29.4914
28.8009
28.1111
27.4223
26.7346
26.0484
25.3641
24.6818
24.0019
23.3247
22.6505
21.9796
21.3123
20.6488
19.9895
19.3345
18.6843
18.039
17.3988
16.7641
16.135
15.5117
14.8944
14.2833
13.6785
13.0801
12.4883
11.9031
11.3247
10.7532
10.189
9.63254
9.08329
8.53964
8.00175
7.46946
6.94208
6.41925
5.90055
5.38565
4.87478
4.36993
3.86961
3.37269
2.88
2.39602
1.93575
1.5569
1.79815
9.44719
5.88953
6.26687
7.18378
8.2912
9.49662
10.7601
12.0637
13.3994
14.7605
16.143
17.5438
18.96
20.389
21.8281
23.2745
24.7251
26.1769
27.6266
29.0707
30.5059
31.9286
33.3353
34.7226
36.0872
37.4258
38.7354
40.0131
41.2561
42.4622
43.629
44.7546
45.8374
46.8759
47.869
48.8158
49.7156
50.568
51.3728
52.1301
52.8401
53.5032
54.1203
54.6925
55.2216
55.7083
56.153
56.5562
56.9189
57.242
57.5269
57.7747
57.9869
58.1648
58.3098
58.4232
58.5064
58.5608
58.5877
58.5883
58.5639
58.5158
58.4451
58.353
58.2406
58.1089
57.959
57.7918
57.6082
57.4092
57.1956
56.9682
56.7278
56.4751
56.2108
55.9355
55.6498
55.3544
55.0498
54.7365
54.4149
54.0856
53.749
53.4054
53.0553
52.6989
52.3366
51.9687
51.5956
51.2173
50.8343
50.4467
50.0547
49.6584
49.2582
48.8541
48.4463
48.0349
47.62
47.2018
46.7803
46.3557
45.9279
45.4971
45.0634
44.6268
44.1873
43.7451
43.3
42.8523
42.4018
41.9487
41.4929
41.0344
40.5734
40.1098
39.6436
39.1748
38.7035
38.2297
37.7533
37.2745
36.7933
36.3096
35.8235
35.335
34.8442
34.3511
33.8557
33.3582
32.8585
32.3567
31.8529
31.3472
30.8396
30.3303
29.8192
29.3066
28.7925
28.277
27.7603
27.2425
26.7238
26.2042
25.6839
25.1632
24.6421
24.1208
23.5995
23.0785
22.5578
22.0377
21.5184
21.0001
20.483
19.9673
19.4533
18.9411
18.431
17.9232
17.4179
16.9154
16.4158
15.9194
15.4264
14.9369
14.4513
13.9697
13.4922
13.0191
12.5506
12.0867
11.6277
11.1737
10.7247
10.281
9.84264
9.40968
8.98225
8.56043
8.14433
7.73408
7.32975
6.9312
6.53814
6.15048
5.76814
5.39105
5.01958
4.65374
4.2939
3.94082
3.59584
3.2605
2.93724
2.6318
2.35738
2.14937
2.1433
3.56429
9.44736
5.88951
6.26677
7.18364
8.29103
9.49644
10.7599
12.0635
13.3992
14.7603
16.1428
17.5435
18.9598
20.3888
21.8279
23.2742
24.7249
26.1767
27.6263
29.0705
30.5056
31.9283
33.3351
34.7224
36.087
37.4256
38.7352
40.0128
41.2559
42.462
43.6288
44.7544
45.8372
46.8757
47.8688
48.8156
49.7154
50.5678
51.3726
52.1299
52.8399
53.503
54.1201
54.6924
55.2214
55.7081
56.1528
56.556
56.9187
57.2418
57.5267
57.7745
57.9867
58.1646
58.3096
58.423
58.5063
58.5607
58.5875
58.5881
58.5638
58.5157
58.445
58.3529
58.2405
58.1088
57.9589
57.7916
57.6081
57.4091
57.1955
56.9681
56.7277
56.475
56.2107
55.9354
55.6497
55.3543
55.0497
54.7364
54.4148
54.0855
53.7489
53.4053
53.0551
52.6988
52.3365
51.9686
51.5955
51.2172
50.8342
50.4466
50.0546
49.6583
49.2581
48.854
48.4462
48.0348
47.6199
47.2017
46.7802
46.3556
45.9278
45.4971
45.0633
44.6267
44.1873
43.745
43.3
42.8522
42.4017
41.9486
41.4928
41.0344
40.5733
40.1097
39.6435
39.1747
38.7034
38.2296
37.7533
37.2745
36.7932
36.3095
35.8234
35.3349
34.8441
34.351
33.8557
33.3581
32.8584
32.3567
31.8529
31.3472
30.8396
30.3302
29.8192
29.3065
28.7924
28.277
27.7603
27.2425
26.7237
26.2041
25.6839
25.1631
24.642
24.1207
23.5995
23.0784
22.5577
22.0376
21.5183
21
20.4829
19.9673
19.4532
18.941
18.4309
17.9231
17.4179
16.9153
16.4157
15.9193
15.4263
14.9369
14.4513
13.9697
13.4922
13.0191
12.5506
12.0867
11.6277
11.1736
10.7247
10.281
9.84262
9.40966
8.98223
8.56041
8.14431
7.73406
7.32974
6.93119
6.53812
6.15047
5.76813
5.39104
5.01957
4.65373
4.29389
3.94081
3.59583
3.26049
2.93724
2.63179
2.35738
2.14938
2.14327
3.56428
13.7579
7.69205
7.43884
7.99992
8.84131
9.82262
10.8873
12.0074
13.1673
14.3573
15.5707
16.8028
18.0499
19.3088
20.5767
21.8507
23.1282
24.4062
25.682
26.9526
28.2149
29.4661
30.703
31.9226
33.1221
34.2985
35.4492
36.5716
37.6632
38.7219
39.7457
40.7328
41.6815
42.5907
43.4592
44.2861
45.0708
45.8129
46.5122
47.1687
47.7826
48.3543
48.8844
49.3738
49.8235
50.2344
50.6072
50.9425
51.2413
51.5046
51.7335
51.9292
52.0929
52.2257
52.3291
52.4042
52.4523
52.4746
52.4723
52.4466
52.3986
52.3296
52.2405
52.1324
52.0064
51.8634
51.7044
51.5301
51.3416
51.1396
50.9249
50.6982
50.4602
50.2117
49.9532
49.6852
49.4085
49.1235
48.8307
48.5306
48.2236
47.9101
47.5906
47.2653
46.9346
46.5989
46.2584
45.9134
45.5642
45.2109
44.8539
44.4932
44.1291
43.7618
43.3913
43.018
42.6418
42.2628
41.8813
41.4973
41.1109
40.7221
40.331
39.9378
39.5424
39.1448
38.7453
38.3437
37.94
37.5345
37.127
36.7175
36.3062
35.893
35.4779
35.061
34.6423
34.2217
33.7993
33.3751
32.9491
32.5214
32.092
31.6608
31.2279
30.7933
30.3571
29.9193
29.48
29.0391
28.5967
28.1529
27.7078
27.2613
26.8136
26.3648
25.9148
25.4639
25.0121
24.5594
24.1061
23.6522
23.1978
22.7431
22.2882
21.8332
21.3783
20.9236
20.4693
20.0155
19.5624
19.1102
18.659
18.2091
17.7605
17.3136
16.8684
16.4251
15.984
15.5453
15.1091
14.6755
14.2449
13.8174
13.3931
12.9722
12.555
12.1415
11.732
11.3266
10.9254
10.5286
10.1363
9.74868
9.36583
8.98785
8.61487
8.24697
7.88428
7.52688
7.17489
6.8284
6.48751
6.15224
5.82262
5.49872
5.18069
4.86875
4.56331
4.26485
3.97433
3.69301
3.42284
3.16685
2.93018
2.72265
2.56551
2.51478
2.78715
5.28058
13.7581
7.69198
7.4387
7.99975
8.84113
9.82242
10.8871
12.0071
13.1671
14.3571
15.5705
16.8026
18.0497
19.3086
20.5765
21.8505
23.128
24.406
25.6818
26.9524
28.2147
29.4659
30.7028
31.9224
33.1219
34.2983
35.449
36.5714
37.663
38.7218
39.7455
40.7326
41.6814
42.5905
43.459
44.2859
45.0706
45.8127
46.5121
47.1686
47.7825
48.3542
48.8843
49.3737
49.8234
50.2343
50.607
50.9424
51.2412
51.5045
51.7334
51.9291
52.0928
52.2256
52.329
52.4041
52.4522
52.4745
52.4722
52.4465
52.3986
52.3295
52.2404
52.1324
52.0064
51.8633
51.7043
51.5301
51.3415
51.1395
50.9248
50.6981
50.4602
50.2116
49.9531
49.6852
49.4085
49.1235
48.8307
48.5305
48.2235
47.9101
47.5905
47.2652
46.9346
46.5989
46.2584
45.9134
45.5641
45.2109
44.8538
44.4931
44.1291
43.7617
43.3913
43.0179
42.6417
42.2628
41.8813
41.4973
41.1108
40.7221
40.331
39.9377
39.5423
39.1448
38.7452
38.3436
37.94
37.5344
37.1269
36.7175
36.3062
35.893
35.4779
35.061
34.6422
34.2217
33.7993
33.3751
32.9491
32.5214
32.0919
31.6607
31.2279
30.7933
30.3571
29.9193
29.4799
29.0391
28.5967
28.1529
27.7077
27.2613
26.8136
26.3647
25.9148
25.4639
25.012
24.5594
24.1061
23.6522
23.1978
22.7431
22.2882
21.8332
21.3783
20.9236
20.4693
20.0155
19.5624
19.1102
18.659
18.2091
17.7605
17.3136
16.8684
16.4251
15.984
15.5453
15.109
14.6755
14.2449
13.8173
13.3931
12.9722
12.555
12.1415
11.732
11.3265
10.9254
10.5286
10.1363
9.74867
9.36582
8.98785
8.61486
8.24697
7.88427
7.52687
7.17488
6.8284
6.4875
6.15224
5.82261
5.49872
5.18069
4.86875
4.56331
4.26485
3.97432
3.69301
3.42284
3.16685
2.93018
2.72265
2.56551
2.51478
2.78715
5.28057
18.0743
9.64939
8.84109
9.13288
9.79832
10.6466
11.6017
12.6259
13.6975
14.8031
15.9335
17.0825
18.2452
19.4178
20.5972
21.7804
22.965
24.1481
25.3274
26.5001
27.6638
28.8158
29.9534
31.0741
32.1753
33.2546
34.3095
35.3377
36.3371
37.3056
38.2416
39.1433
40.0094
40.8385
41.6297
42.3822
43.0954
43.7688
44.4023
44.9959
45.5496
46.0639
46.5393
46.9765
47.3762
47.7393
48.0665
48.3587
48.6167
48.8415
49.0342
49.1958
49.3275
49.4305
49.5059
49.5549
49.5787
49.5785
49.5554
49.5105
49.4449
49.3597
49.2559
49.1345
48.9965
48.8428
48.6742
48.4917
48.296
48.0879
47.8682
47.6375
47.3966
47.146
46.8863
46.6182
46.3421
46.0586
45.768
45.471
45.1678
44.8589
44.5446
44.2253
43.9012
43.5728
43.2403
42.9038
42.5637
42.2202
41.8735
41.5237
41.1711
40.8158
40.458
40.0977
39.7351
39.3703
39.0034
38.6345
38.2637
37.891
37.5166
37.1404
36.7625
36.383
36.0019
35.6192
35.235
34.8493
34.4621
34.0735
33.6834
33.2918
32.8989
32.5045
32.1088
31.7116
31.3131
30.9133
30.5121
30.1095
29.7057
29.3006
28.8942
28.4865
28.0777
27.6676
27.2564
26.8441
26.4308
26.0164
25.601
25.1848
24.7676
24.3497
23.9311
23.5119
23.0921
22.6719
22.2513
21.8305
21.4095
20.9885
20.5675
20.1468
19.7264
19.3065
18.8872
18.4686
18.051
17.6344
17.219
16.805
16.3926
15.9818
15.5729
15.1661
14.7615
14.3592
13.9595
13.5625
13.1683
12.7773
12.3894
12.0049
11.6239
11.2466
10.8732
10.5037
10.1383
9.77721
9.42046
9.06822
8.72061
8.37774
8.03974
7.70672
7.3788
7.05611
6.73878
6.42694
6.12075
5.82034
5.5259
5.23766
4.95594
4.68119
4.41403
4.15533
3.90635
3.66889
3.44568
3.24112
3.06252
2.92358
2.85342
2.92877
3.44718
6.98232
18.0745
9.64929
8.84094
9.13269
9.79812
10.6464
11.6015
12.6256
13.6973
14.8029
15.9333
17.0823
18.245
19.4176
20.5969
21.7802
22.9647
24.1479
25.3271
26.4999
27.6636
28.8155
29.9532
31.0739
32.1751
33.2544
34.3093
35.3375
36.3369
37.3055
38.2414
39.1432
40.0092
40.8384
41.6296
42.3821
43.0953
43.7687
44.4022
44.9957
45.5495
46.0638
46.5392
46.9764
47.3761
47.7392
48.0664
48.3586
48.6166
48.8414
49.0341
49.1957
49.3274
49.4304
49.5058
49.5548
49.5787
49.5785
49.5554
49.5105
49.4449
49.3597
49.2559
49.1345
48.9964
48.8427
48.6742
48.4916
48.2959
48.0879
47.8681
47.6375
47.3965
47.1459
46.8863
46.6182
46.3421
46.0585
45.768
45.4709
45.1677
44.8588
44.5445
44.2252
43.9012
43.5728
43.2402
42.9038
42.5637
42.2202
41.8735
41.5237
41.1711
40.8158
40.4579
40.0976
39.735
39.3703
39.0034
38.6345
38.2637
37.891
37.5165
37.1404
36.7625
36.383
36.0019
35.6192
35.235
34.8493
34.4621
34.0735
33.6833
33.2918
32.8989
32.5045
32.1087
31.7116
31.3131
30.9132
30.512
30.1095
29.7057
29.3006
28.8942
28.4865
28.0777
27.6676
27.2564
26.8441
26.4308
26.0164
25.601
25.1847
24.7676
24.3497
23.9311
23.5119
23.0921
22.6719
22.2513
21.8305
21.4095
20.9884
20.5675
20.1468
19.7264
19.3065
18.8872
18.4686
18.051
17.6344
17.219
16.805
16.3926
15.9818
15.5729
15.1661
14.7615
14.3592
13.9595
13.5625
13.1683
12.7773
12.3894
12.0049
11.6239
11.2466
10.8732
10.5037
10.1383
9.7772
9.42046
9.06822
8.72061
8.37774
8.03974
7.70672
7.3788
7.05611
6.73878
6.42694
6.12075
5.82034
5.5259
5.23766
4.95594
4.68119
4.41403
4.15533
3.90635
3.6689
3.44568
3.24112
3.06252
2.92358
2.85342
2.92878
3.4472
6.98232
22.3946
11.7107
10.3902
10.4568
10.9896
11.7466
12.6325
13.5996
14.6209
15.6792
16.7632
17.8648
18.9783
20.0993
21.2242
22.3501
23.4743
24.5945
25.7085
26.8138
27.9084
28.99
30.0564
31.1054
32.1347
33.1423
34.126
35.0839
36.0141
36.9148
37.7845
38.6215
39.4248
40.1931
40.9255
41.6212
42.2798
42.9008
43.484
44.0294
44.5372
45.0076
45.4411
45.8382
46.1997
46.5264
46.8189
47.0781
47.3048
47.5
47.6648
47.8001
47.907
47.9866
48.0402
48.0687
48.0732
48.055
48.0151
47.9545
47.8744
47.7756
47.6593
47.5263
47.3776
47.2141
47.0366
46.846
46.6429
46.4283
46.2026
45.9668
45.7213
45.4668
45.2039
44.933
44.6548
44.3697
44.0782
43.7806
43.4774
43.1689
42.8556
42.5377
42.2155
41.8893
41.5594
41.2261
40.8895
40.5499
40.2075
39.8624
39.5148
39.1649
38.8127
38.4585
38.1024
37.7443
37.3846
37.0231
36.6601
36.2955
35.9295
35.562
35.1932
34.823
34.4516
34.0789
33.705
33.3299
32.9536
32.5762
32.1976
31.8179
31.4371
31.0551
30.6721
30.288
29.9028
29.5166
29.1293
28.741
28.3517
27.9614
27.5701
27.1779
26.7847
26.3907
25.9958
25.6
25.2035
24.8062
24.4082
24.0096
23.6105
23.2108
22.8106
22.4101
22.0093
21.6082
21.2071
20.8059
20.4048
20.0039
19.6032
19.203
18.8033
18.4042
18.0059
17.6085
17.2122
16.8171
16.4233
16.0309
15.6402
15.2513
14.8644
14.4795
14.0969
13.7166
13.339
12.964
12.5919
12.2229
11.857
11.4944
11.1353
10.7799
10.4282
10.0804
9.7366
9.397
9.0617
8.73083
8.40452
8.0829
7.7661
7.45426
7.14752
6.84605
6.55
6.25956
5.97495
5.6964
5.42422
5.15876
4.90052
4.65013
4.40844
4.17663
3.95632
3.74988
3.5608
3.39463
3.26069
3.17646
3.17889
3.36536
4.11408
8.67692
22.3949
11.7106
10.39
10.4566
10.9894
11.7464
12.6323
13.5994
14.6207
15.679
16.7629
17.8646
18.9781
20.0991
21.224
22.3498
23.4741
24.5943
25.7082
26.8136
27.9082
28.9898
30.0562
31.1052
32.1345
33.1421
34.1258
35.0837
36.0139
36.9147
37.7843
38.6214
39.4246
40.1929
40.9253
41.6211
42.2797
42.9007
43.4839
44.0293
44.5371
45.0075
45.441
45.8381
46.1996
46.5263
46.8188
47.078
47.3047
47.5
47.6647
47.8
47.9069
47.9866
48.0401
48.0686
48.0732
48.055
48.015
47.9545
47.8743
47.7756
47.6592
47.5263
47.3776
47.2141
47.0366
46.8459
46.6429
46.4282
46.2026
45.9667
45.7213
45.4668
45.2038
44.933
44.6548
44.3697
44.0781
43.7805
43.4773
43.1689
42.8555
42.5376
42.2154
41.8893
41.5594
41.2261
40.8895
40.5499
40.2074
39.8623
39.5148
39.1648
38.8127
38.4585
38.1023
37.7443
37.3846
37.0231
36.6601
36.2955
35.9294
35.562
35.1932
34.823
34.4516
34.0789
33.705
33.3299
32.9536
32.5762
32.1976
31.8179
31.4371
31.0551
30.6721
30.288
29.9028
29.5166
29.1293
28.741
28.3517
27.9614
27.5701
27.1779
26.7847
26.3907
25.9958
25.6
25.2035
24.8062
24.4082
24.0096
23.6105
23.2108
22.8106
22.4101
22.0093
21.6082
21.2071
20.8059
20.4048
20.0039
19.6032
19.203
18.8033
18.4042
18.0059
17.6085
17.2122
16.8171
16.4233
16.0309
15.6402
15.2513
14.8644
14.4795
14.0969
13.7166
13.339
12.964
12.5919
12.2229
11.857
11.4944
11.1353
10.7799
10.4282
10.0804
9.7366
9.397
9.0617
8.73083
8.40452
8.0829
7.7661
7.45426
7.14753
6.84605
6.55
6.25957
5.97495
5.69641
5.42422
5.15876
4.90052
4.65013
4.40844
4.17663
3.95632
3.74988
3.5608
3.39464
3.26069
3.17646
3.17889
3.36536
4.1141
8.67692
26.7954
13.8432
12.0509
11.922
12.348
13.0377
13.8765
14.8074
15.798
16.8278
17.8833
18.9551
20.0363
21.1221
22.2084
23.2924
24.3714
25.4432
26.5059
27.5576
28.5963
29.6204
30.6279
31.617
32.5859
33.5329
34.4563
35.3542
36.2251
37.0675
37.88
38.6613
39.4103
40.1259
40.8073
41.4539
42.0652
42.6407
43.1804
43.6841
44.152
44.5844
44.9816
45.3442
45.6728
45.9681
46.2307
46.4616
46.6616
46.8314
46.9722
47.085
47.1706
47.2302
47.2649
47.2757
47.2637
47.2299
47.1754
47.1012
47.0083
46.8977
46.7703
46.627
46.4687
46.2963
46.1106
45.9124
45.7024
45.4813
45.2499
45.0087
44.7585
44.4997
44.2329
43.9587
43.6775
43.3898
43.0961
42.7967
42.4921
42.1826
41.8685
41.5502
41.2279
40.902
40.5727
40.2402
39.9047
39.5665
39.2257
38.8826
38.5372
38.1897
37.8403
37.4891
37.1361
36.7815
36.4255
36.0679
35.709
35.3488
34.9874
34.6248
34.261
33.8962
33.5303
33.1633
32.7954
32.4264
32.0565
31.6857
31.314
30.9413
30.5677
30.1933
29.818
29.4418
29.0648
28.6869
28.3082
27.9287
27.5484
27.1673
26.7854
26.4029
26.0196
25.6356
25.251
24.8657
24.4799
24.0935
23.7067
23.3194
22.9317
22.5437
22.1554
21.767
21.3784
20.9898
20.6012
20.2128
19.8246
19.4368
19.0493
18.6625
18.2762
17.8908
17.5062
17.1227
16.7403
16.3592
15.9795
15.6013
15.2248
14.8502
14.4776
14.107
13.7388
13.3729
13.0096
12.649
12.2913
11.9365
11.5849
11.2366
10.8917
10.5503
10.2127
9.8789
9.54908
9.22336
8.90189
8.5848
8.27224
7.96434
7.66126
7.36315
7.07019
6.78257
6.5005
6.22421
5.95398
5.69014
5.43309
5.18332
4.94145
4.70832
4.48498
4.2729
4.07408
3.89139
3.7291
3.59391
3.49711
3.45973
3.5266
3.81583
4.78633
10.3691
26.7957
13.843
12.0507
11.9218
12.3478
13.0375
13.8762
14.8072
15.7977
16.8276
17.8831
18.9549
20.0361
21.1218
22.2082
23.2921
24.3711
25.443
26.5057
27.5574
28.5961
29.6202
30.6277
31.6168
32.5857
33.5328
34.4561
35.354
36.2249
37.0674
37.8799
38.6612
39.4101
40.1258
40.8072
41.4538
42.0651
42.6406
43.1803
43.684
44.1519
44.5843
44.9815
45.3441
45.6727
45.968
46.2307
46.4616
46.6615
46.8314
46.9722
47.0849
47.1705
47.2302
47.2649
47.2757
47.2637
47.2299
47.1754
47.1012
47.0083
46.8976
46.7702
46.627
46.4687
46.2963
46.1106
45.9124
45.7024
45.4813
45.2499
45.0087
44.7584
44.4996
44.2329
43.9586
43.6774
43.3898
43.096
42.7967
42.492
42.1825
41.8685
41.5501
41.2279
40.902
40.5726
40.2401
39.9047
39.5665
39.2257
38.8826
38.5372
38.1897
37.8403
37.4891
37.1361
36.7815
36.4254
36.0679
35.709
35.3488
34.9874
34.6248
34.261
33.8962
33.5302
33.1633
32.7953
32.4264
32.0565
31.6857
31.3139
30.9413
30.5677
30.1933
29.818
29.4418
29.0647
28.6869
28.3082
27.9287
27.5484
27.1673
26.7854
26.4029
26.0196
25.6356
25.251
24.8657
24.4799
24.0935
23.7067
23.3194
22.9317
22.5437
22.1554
21.767
21.3784
20.9898
20.6012
20.2128
19.8246
19.4368
19.0493
18.6625
18.2762
17.8908
17.5062
17.1227
16.7403
16.3592
15.9795
15.6013
15.2248
14.8502
14.4776
14.107
13.7388
13.3729
13.0096
12.649
12.2913
11.9365
11.5849
11.2366
10.8917
10.5503
10.2127
9.8789
9.54908
9.22336
8.90189
8.58481
8.27224
7.96434
7.66126
7.36315
7.0702
6.78257
6.5005
6.22421
5.95398
5.69014
5.43309
5.18332
4.94146
4.70832
4.48499
4.27291
4.07409
3.89139
3.7291
3.59391
3.49711
3.45973
3.52661
3.81584
4.78636
10.3691
31.4512
16.0774
13.8172
13.5081
13.8433
14.4806
15.2858
16.1927
17.1638
18.1754
19.212
20.2628
21.3202
22.3785
23.4339
24.4831
25.5237
26.5538
27.5716
28.5755
29.5642
30.5362
31.4901
32.4245
33.3379
34.229
35.0964
35.9386
36.7544
37.5424
38.3016
39.0307
39.7289
40.3952
41.0289
41.6295
42.1964
42.7293
43.2282
43.6929
44.1235
44.5204
44.8838
45.2142
45.5122
45.7784
46.0135
46.2183
46.3935
46.5401
46.6589
46.7509
46.8171
46.8584
46.8759
46.8706
46.8435
46.7955
46.7278
46.6412
46.5367
46.4153
46.2778
46.1252
45.9582
45.7777
45.5845
45.3793
45.1629
44.9359
44.699
44.4529
44.198
43.9351
43.6645
43.3869
43.1027
42.8123
42.5162
42.2147
41.9083
41.5973
41.282
40.9627
40.6397
40.3133
39.9837
39.6511
39.3159
38.978
38.6379
38.2955
37.9511
37.6049
37.2568
36.9071
36.5559
36.2033
35.8493
35.494
35.1376
34.78
34.4213
34.0617
33.701
33.3394
32.977
32.6136
32.2495
31.8845
31.5187
31.1521
30.7848
30.4167
30.0479
29.6783
29.3081
28.9372
28.5655
28.1932
27.8203
27.4466
27.0724
26.6975
26.3221
25.946
25.5694
25.1923
24.8147
24.4366
24.0581
23.6792
23.3
22.9205
22.5408
22.1608
21.7808
21.4007
21.0206
20.6406
20.2608
19.8812
19.502
19.1232
18.745
18.3674
17.9906
17.6146
17.2396
16.8656
16.4929
16.1215
15.7516
15.3832
15.0166
14.6518
14.2891
13.9284
13.57
13.214
12.8605
12.5097
12.1618
11.8168
11.4748
11.1361
10.8008
10.469
10.1408
9.81641
9.49592
9.17948
8.86724
8.55935
8.25595
7.9572
7.66328
7.37437
7.09068
6.81241
6.53984
6.27324
6.01297
5.75942
5.5131
5.2746
5.04471
4.8244
4.61496
4.41811
4.23623
4.07268
3.9325
3.82353
3.75904
3.76365
3.89011
4.27751
5.46608
12.0709
31.4515
16.0773
13.817
13.5079
13.8431
14.4804
15.2855
16.1925
17.1635
18.1752
19.2118
20.2626
21.3199
22.3783
23.4336
24.4828
25.5235
26.5535
27.5713
28.5753
29.564
30.536
31.4899
32.4243
33.3377
34.2288
35.0962
35.9384
36.7542
37.5423
38.3014
39.0306
39.7287
40.3951
41.0288
41.6293
42.1962
42.7292
43.2281
43.6928
44.1234
44.5203
44.8837
45.2141
45.5121
45.7783
46.0134
46.2182
46.3935
46.54
46.6589
46.7509
46.8171
46.8584
46.8759
46.8706
46.8434
46.7955
46.7277
46.6412
46.5367
46.4152
46.2778
46.1251
45.9581
45.7777
45.5845
45.3793
45.1629
44.9359
44.699
44.4529
44.198
43.9351
43.6645
43.3869
43.1027
42.8123
42.5161
42.2147
41.9083
41.5972
41.2819
40.9626
40.6397
40.3132
39.9836
39.6511
39.3158
38.978
38.6379
38.2955
37.9511
37.6048
37.2568
36.9071
36.5559
36.2033
35.8493
35.494
35.1376
34.78
34.4213
34.0617
33.701
33.3394
32.977
32.6136
32.2494
31.8844
31.5186
31.1521
30.7848
30.4167
30.0479
29.6783
29.3081
28.9372
28.5655
28.1932
27.8203
27.4466
27.0724
26.6975
26.3221
25.946
25.5694
25.1923
24.8147
24.4366
24.0581
23.6792
23.3
22.9205
22.5408
22.1608
21.7808
21.4007
21.0206
20.6406
20.2608
19.8812
19.502
19.1232
18.745
18.3674
17.9906
17.6146
17.2396
16.8656
16.4929
16.1215
15.7516
15.3832
15.0166
14.6518
14.2891
13.9284
13.57
13.214
12.8605
12.5098
12.1618
11.8168
11.4748
11.1361
10.8008
10.469
10.1408
9.81641
9.49592
9.17948
8.86724
8.55935
8.25595
7.95721
7.66329
7.37438
7.09068
6.81241
6.53984
6.27324
6.01297
5.75942
5.5131
5.27461
5.04471
4.8244
4.61496
4.41811
4.23623
4.07269
3.9325
3.82353
3.75904
3.76365
3.89012
4.27752
5.46611
12.0709
36.2645
18.4085
15.6854
15.2064
15.4615
16.056
16.8363
17.7267
18.6847
19.6837
20.7062
21.7402
22.7774
23.8118
24.8391
25.8563
26.861
27.8515
28.8265
29.7848
30.7253
31.6469
32.5489
33.4301
34.2895
35.1261
35.9388
36.7266
37.4884
38.2232
38.9301
39.6082
40.2565
40.8745
41.4614
42.0168
42.5403
43.0315
43.4904
43.9169
44.3111
44.6733
45.0037
45.3028
45.571
45.8091
46.0175
46.1971
46.3486
46.4727
46.5705
46.6427
46.6902
46.7141
46.7153
46.6947
46.6533
46.592
46.5118
46.4136
46.2983
46.1669
46.02
45.8587
45.6837
45.4958
45.2957
45.0842
44.8619
44.6295
44.3877
44.137
43.878
43.6113
43.3373
43.0566
42.7696
42.4768
42.1784
41.875
41.5669
41.2545
40.9379
40.6176
40.2938
39.9668
39.6368
39.3041
38.9687
38.631
38.2912
37.9492
37.6054
37.2599
36.9128
36.5641
36.2141
35.8627
35.5102
35.1565
34.8017
34.446
34.0893
33.7317
33.3732
33.014
32.654
32.2932
31.9317
31.5696
31.2067
30.8432
30.4791
30.1143
29.749
29.383
29.0165
28.6493
28.2816
27.9134
27.5446
27.1753
26.8055
26.4352
26.0644
25.6932
25.3215
24.9495
24.577
24.2042
23.8311
23.4578
23.0842
22.7104
22.3365
21.9626
21.5886
21.2147
20.8408
20.4672
20.0939
19.7208
19.3482
18.9762
18.6047
18.2339
17.864
17.4949
17.1269
16.76
16.3943
16.03
15.6672
15.3059
14.9464
14.5888
14.2331
13.8795
13.5281
13.1792
12.8327
12.4888
12.1477
11.8095
11.4743
11.1423
10.8136
10.4884
10.1667
9.84866
9.53452
9.22437
8.91837
8.61667
8.31945
8.02687
7.73912
7.45643
7.17901
6.90713
6.64108
6.38122
6.12795
5.88175
5.64319
5.41301
5.1921
4.98161
4.78302
4.59833
4.43027
4.28271
4.16141
4.07539
4.03989
4.08324
4.26604
4.74881
6.15425
13.7831
36.2648
18.4084
15.6852
15.2062
15.4612
16.0558
16.836
17.7264
18.6844
19.6834
20.706
21.74
22.7772
23.8115
24.8389
25.856
26.8608
27.8513
28.8263
29.7846
30.725
31.6467
32.5487
33.4299
34.2893
35.1259
35.9386
36.7264
37.4882
38.2231
38.93
39.608
40.2564
40.8744
41.4613
42.0167
42.5402
43.0314
43.4903
43.9168
44.311
44.6732
45.0036
45.3027
45.5709
45.809
46.0174
46.197
46.3485
46.4727
46.5704
46.6426
46.6902
46.7141
46.7153
46.6947
46.6532
46.592
46.5118
46.4136
46.2983
46.1668
46.02
45.8587
45.6837
45.4958
45.2957
45.0841
44.8619
44.6295
44.3877
44.137
43.878
43.6113
43.3373
43.0566
42.7696
42.4767
42.1784
41.875
41.5669
41.2544
40.9379
40.6176
40.2938
39.9668
39.6368
39.304
38.9687
38.631
38.2911
37.9492
37.6054
37.2599
36.9127
36.5641
36.214
35.8627
35.5101
35.1565
34.8017
34.4459
34.0893
33.7317
33.3732
33.014
32.654
32.2932
31.9317
31.5696
31.2067
30.8432
30.4791
30.1143
29.749
29.383
29.0164
28.6493
28.2816
27.9134
27.5446
27.1753
26.8055
26.4352
26.0644
25.6932
25.3215
24.9494
24.577
24.2042
23.8311
23.4578
23.0842
22.7104
22.3365
21.9626
21.5886
21.2147
20.8408
20.4672
20.0939
19.7208
19.3482
18.9762
18.6047
18.2339
17.864
17.4949
17.1269
16.76
16.3943
16.03
15.6672
15.3059
14.9464
14.5888
14.2331
13.8795
13.5281
13.1792
12.8327
12.4888
12.1477
11.8095
11.4743
11.1423
10.8136
10.4884
10.1667
9.84866
9.53452
9.22437
8.91837
8.61668
8.31945
8.02687
7.73912
7.45643
7.17901
6.90713
6.64109
6.38123
6.12795
5.88175
5.64319
5.41301
5.1921
4.98161
4.78302
4.59834
4.43027
4.28271
4.16141
4.07539
4.03989
4.08324
4.26604
4.74882
6.15428
13.7831
41.2598
20.8424
17.6565
17.0143
17.1965
17.755
18.5158
19.3943
20.3427
21.3317
22.342
23.3606
24.3785
25.3893
26.3888
27.3738
28.3425
29.2932
30.225
31.1371
32.0289
32.8998
33.7493
34.5768
35.3817
36.1634
36.921
37.654
38.3615
39.0427
39.697
40.3236
40.9219
41.4912
42.0311
42.5411
43.0209
43.4702
43.889
44.2772
44.6349
44.9623
45.2597
45.5274
45.766
45.976
46.1579
46.3125
46.4405
46.5425
46.6195
46.6722
46.7015
46.7084
46.6936
46.6582
46.6029
46.5288
46.4366
46.3273
46.2018
46.0607
45.9051
45.7356
45.5531
45.3583
45.1519
44.9345
44.7069
44.4697
44.2234
43.9687
43.706
43.436
43.1591
42.8757
42.5864
42.2914
41.9913
41.6863
41.3768
41.0632
40.7458
40.4247
40.1004
39.773
39.4428
39.1099
38.7747
38.4372
38.0977
37.7563
37.4131
37.0683
36.722
36.3743
36.0253
35.6752
35.3239
34.9716
34.6183
34.2641
33.9091
33.5533
33.1968
32.8395
32.4815
32.1229
31.7637
31.4039
31.0435
30.6825
30.321
29.959
29.5965