/*--------------------------------*- C++ -*----------------------------------*\
  =========                 |
  \\      /  F ield         | OpenFOAM: The Open Source CFD Toolbox
   \\    /   O peration     | Website:  https://openfoam.org
    \\  /    A nd           | Version:  8
     \\/     M anipulation  |
\*---------------------------------------------------------------------------*/
FoamFile
{
    version     2.0;
    format      ascii;
    class       volScalarField;
    location    "3000";
    object      k;
}
// * * * * * * * * * * * * * * * * * * * * * * * * * * * * * * * * * * * * * //

dimensions      [0 2 -2 0 0 0 0];

internalField   nonuniform List<scalar> 
48000
(
0.0276519
0.0620752
0.0957401
0.125062
0.152535
0.177726
0.201089
0.223141
0.244609
0.265081
0.284862
0.304007
0.322572
0.340598
0.358116
0.375149
0.391712
0.407816
0.423468
0.43867
0.453424
0.467731
0.481589
0.494998
0.507956
0.520461
0.532513
0.544112
0.555258
0.565952
0.576196
0.585992
0.595345
0.604257
0.612735
0.620784
0.62841
0.635622
0.642425
0.648829
0.654842
0.660472
0.665728
0.670619
0.675199
0.679473
0.683417
0.687035
0.690338
0.693338
0.696045
0.698471
0.700627
0.702523
0.70417
0.705578
0.706757
0.707715
0.708464
0.709011
0.709365
0.709535
0.709528
0.709353
0.709017
0.708526
0.707889
0.70711
0.706197
0.705156
0.703991
0.702709
0.701314
0.699811
0.698205
0.6965
0.6947
0.69281
0.690831
0.688769
0.686626
0.684405
0.68211
0.679741
0.677303
0.674797
0.672225
0.66959
0.666893
0.664135
0.661319
0.658446
0.655517
0.652532
0.649494
0.646403
0.643259
0.640065
0.636819
0.633523
0.630178
0.626783
0.623338
0.619845
0.616304
0.612713
0.609074
0.605386
0.601649
0.597864
0.594029
0.590145
0.586212
0.582229
0.578196
0.574112
0.569977
0.565792
0.561554
0.557265
0.552923
0.548529
0.544081
0.53958
0.535024
0.530415
0.52575
0.52103
0.516255
0.511424
0.506537
0.501594
0.496594
0.491538
0.486425
0.481255
0.476028
0.470745
0.465404
0.460007
0.454554
0.449044
0.443478
0.437857
0.432181
0.42645
0.420666
0.414827
0.408937
0.402994
0.397
0.390955
0.384861
0.378719
0.372529
0.366293
0.360012
0.353686
0.347317
0.340906
0.334454
0.327963
0.321433
0.314865
0.308261
0.301621
0.294946
0.288238
0.281496
0.274721
0.267915
0.261075
0.254204
0.247299
0.240361
0.233389
0.22638
0.219332
0.212244
0.205112
0.197935
0.190716
0.183487
0.176224
0.168873
0.161417
0.153839
0.146117
0.138223
0.130121
0.121766
0.1131
0.104122
0.0947157
0.0846954
0.073837
0.0617797
0.0478907
0.0310587
0.0195441
0.0276521
0.0620771
0.0957417
0.125064
0.152537
0.177727
0.201091
0.223142
0.24461
0.265083
0.284863
0.304009
0.322573
0.340599
0.358117
0.37515
0.391713
0.407817
0.423469
0.438671
0.453425
0.467732
0.48159
0.494999
0.507956
0.520462
0.532514
0.544113
0.555259
0.565953
0.576197
0.585993
0.595345
0.604258
0.612735
0.620784
0.628411
0.635622
0.642425
0.648829
0.654842
0.660472
0.665728
0.670619
0.675199
0.679473
0.683417
0.687035
0.690338
0.693338
0.696045
0.698471
0.700627
0.702523
0.70417
0.705578
0.706757
0.707715
0.708464
0.709011
0.709365
0.709535
0.709528
0.709353
0.709017
0.708526
0.707889
0.70711
0.706197
0.705156
0.703991
0.702708
0.701314
0.699811
0.698205
0.6965
0.6947
0.69281
0.690831
0.688769
0.686626
0.684405
0.68211
0.679741
0.677303
0.674797
0.672225
0.66959
0.666893
0.664135
0.661319
0.658446
0.655516
0.652532
0.649494
0.646403
0.643259
0.640065
0.636819
0.633523
0.630178
0.626783
0.623338
0.619845
0.616303
0.612713
0.609074
0.605386
0.601649
0.597864
0.594029
0.590145
0.586212
0.582229
0.578195
0.574112
0.569977
0.565791
0.561554
0.557265
0.552923
0.548529
0.544081
0.53958
0.535024
0.530415
0.52575
0.52103
0.516255
0.511424
0.506537
0.501594
0.496594
0.491538
0.486425
0.481255
0.476028
0.470744
0.465404
0.460007
0.454554
0.449044
0.443478
0.437857
0.432181
0.42645
0.420666
0.414827
0.408937
0.402994
0.397
0.390955
0.384861
0.378719
0.372529
0.366293
0.360012
0.353686
0.347317
0.340906
0.334454
0.327963
0.321433
0.314865
0.308261
0.301621
0.294946
0.288238
0.281496
0.274721
0.267915
0.261075
0.254204
0.247299
0.240361
0.233389
0.22638
0.219332
0.212244
0.205112
0.197935
0.190716
0.183487
0.176224
0.168873
0.161417
0.153839
0.146117
0.138223
0.130121
0.121766
0.1131
0.104122
0.0947158
0.0846955
0.0738372
0.0617799
0.0478912
0.0310588
0.0195447
0.0630538
0.159463
0.227631
0.28778
0.342937
0.394837
0.44392
0.490746
0.535787
0.579284
0.621441
0.662401
0.702267
0.741113
0.77899
0.815932
0.851959
0.887082
0.921304
0.954621
0.987027
1.01851
1.04907
1.07868
1.10733
1.13502
1.16174
1.18748
1.21224
1.236
1.25878
1.28057
1.30138
1.32121
1.34007
1.35798
1.37494
1.39097
1.40609
1.42031
1.43365
1.44613
1.45777
1.4686
1.47862
1.48789
1.49642
1.50424
1.51135
1.5178
1.5236
1.52878
1.53337
1.53738
1.54084
1.54377
1.5462
1.54814
1.54962
1.55065
1.55126
1.55147
1.55128
1.55073
1.54983
1.54858
1.54702
1.54514
1.54297
1.54052
1.5378
1.53483
1.53161
1.52815
1.52448
1.52058
1.51648
1.51219
1.5077
1.50303
1.49819
1.49318
1.48801
1.48268
1.47721
1.47158
1.46582
1.45992
1.45389
1.44772
1.44144
1.43503
1.4285
1.42185
1.41509
1.40822
1.40124
1.39414
1.38694
1.37963
1.37222
1.3647
1.35708
1.34935
1.34153
1.33359
1.32556
1.31742
1.30918
1.30083
1.29239
1.28383
1.27518
1.26641
1.25755
1.24857
1.23949
1.2303
1.221
1.21159
1.20207
1.19243
1.18269
1.17283
1.16286
1.15277
1.14257
1.13225
1.12182
1.11126
1.10059
1.0898
1.07889
1.06786
1.05671
1.04545
1.03406
1.02255
1.01093
0.99918
0.987316
0.975334
0.963236
0.951021
0.938691
0.926247
0.91369
0.901022
0.888244
0.875358
0.862366
0.84927
0.836071
0.822772
0.809376
0.795884
0.782298
0.768623
0.754859
0.741009
0.727076
0.713062
0.698971
0.684803
0.670562
0.656249
0.641867
0.627416
0.612899
0.598317
0.58367
0.568958
0.554181
0.539338
0.524427
0.509446
0.49439
0.479256
0.464036
0.448724
0.433311
0.417787
0.402139
0.386344
0.370364
0.354186
0.337781
0.321101
0.304097
0.286702
0.268832
0.250377
0.231182
0.211108
0.189895
0.167178
0.142407
0.114629
0.0814734
0.032116
0.0630561
0.159465
0.227632
0.287781
0.342938
0.394838
0.443921
0.490747
0.535788
0.579285
0.621442
0.662402
0.702267
0.741113
0.77899
0.815932
0.851959
0.887082
0.921304
0.954621
0.987027
1.01851
1.04906
1.07868
1.10733
1.13502
1.16174
1.18748
1.21224
1.236
1.25878
1.28057
1.30138
1.32121
1.34007
1.35798
1.37494
1.39097
1.40609
1.42031
1.43365
1.44613
1.45777
1.4686
1.47862
1.48789
1.49642
1.50423
1.51135
1.5178
1.5236
1.52878
1.53337
1.53738
1.54084
1.54377
1.5462
1.54814
1.54962
1.55065
1.55126
1.55147
1.55128
1.55073
1.54982
1.54858
1.54701
1.54514
1.54297
1.54052
1.5378
1.53483
1.53161
1.52815
1.52447
1.52058
1.51648
1.51219
1.5077
1.50303
1.49819
1.49318
1.48801
1.48268
1.4772
1.47158
1.46582
1.45992
1.45388
1.44772
1.44144
1.43503
1.4285
1.42185
1.41509
1.40822
1.40123
1.39414
1.38694
1.37963
1.37222
1.3647
1.35708
1.34935
1.34152
1.33359
1.32556
1.31742
1.30918
1.30083
1.29239
1.28383
1.27518
1.26641
1.25754
1.24857
1.23949
1.2303
1.221
1.21159
1.20207
1.19243
1.18269
1.17283
1.16286
1.15277
1.14257
1.13225
1.12182
1.11126
1.10059
1.0898
1.07889
1.06786
1.05671
1.04545
1.03406
1.02255
1.01092
0.999179
0.987315
0.975334
0.963235
0.95102
0.93869
0.926246
0.913689
0.901021
0.888243
0.875357
0.862365
0.849269
0.83607
0.822772
0.809375
0.795883
0.782298
0.768622
0.754858
0.741008
0.727075
0.713062
0.69897
0.684802
0.670561
0.656248
0.641866
0.627416
0.612899
0.598316
0.583669
0.568957
0.55418
0.539337
0.524427
0.509445
0.49439
0.479255
0.464036
0.448724
0.433311
0.417786
0.402139
0.386344
0.370364
0.354186
0.337781
0.321101
0.304097
0.286701
0.268831
0.250376
0.231182
0.211108
0.189894
0.167178
0.142407
0.114629
0.0814736
0.0321168
0.0953927
0.227535
0.313023
0.386076
0.45326
0.516783
0.577495
0.635893
0.692323
0.747022
0.800167
0.851892
0.902296
0.951453
0.999413
1.04621
1.09187
1.13639
1.17979
1.22205
1.26316
1.30312
1.3419
1.37949
1.41589
1.45106
1.48501
1.51772
1.54918
1.57938
1.60834
1.63604
1.66249
1.6877
1.71167
1.73443
1.75598
1.77634
1.79553
1.81358
1.8305
1.84633
1.86108
1.87479
1.88749
1.89921
1.90998
1.91983
1.92879
1.93689
1.94417
1.95065
1.95636
1.96134
1.96561
1.96921
1.97216
1.97448
1.97621
1.97738
1.978
1.9781
1.97771
1.97685
1.97553
1.97378
1.97162
1.96907
1.96614
1.96285
1.95922
1.95527
1.95101
1.94644
1.9416
1.93647
1.93109
1.92546
1.91959
1.91349
1.90717
1.90064
1.89391
1.88698
1.87985
1.87255
1.86507
1.85742
1.8496
1.84162
1.83348
1.82519
1.81675
1.80817
1.79944
1.79057
1.78156
1.77242
1.76314
1.75373
1.74419
1.73452
1.72472
1.71479
1.70473
1.69454
1.68423
1.67379
1.66322
1.65252
1.64169
1.63074
1.61965
1.60843
1.59709
1.58561
1.57399
1.56225
1.55036
1.53834
1.52619
1.51389
1.50146
1.48888
1.47617
1.46331
1.45031
1.43716
1.42387
1.41043
1.39685
1.38312
1.36924
1.35522
1.34104
1.32672
1.31225
1.29763
1.28286
1.26795
1.25289
1.23768
1.22233
1.20684
1.1912
1.17542
1.15951
1.14345
1.12726
1.11094
1.09449
1.0779
1.0612
1.04436
1.02741
1.01034
0.993158
0.975862
0.958459
0.94095
0.92334
0.90563
0.887825
0.869927
0.85194
0.833865
0.815705
0.797462
0.779138
0.760735
0.742252
0.723692
0.705052
0.686332
0.66753
0.648642
0.629665
0.610593
0.591417
0.572131
0.552721
0.533176
0.513477
0.4936
0.473517
0.453197
0.432597
0.411671
0.390373
0.368626
0.34634
0.3234
0.299651
0.274905
0.24891
0.221268
0.191329
0.157768
0.116608
0.0498491
0.0953943
0.227537
0.313024
0.386076
0.45326
0.516784
0.577496
0.635893
0.692323
0.747022
0.800167
0.851892
0.902296
0.951452
0.999413
1.04621
1.09187
1.13639
1.17979
1.22205
1.26316
1.30312
1.3419
1.37949
1.41589
1.45106
1.48501
1.51771
1.54917
1.57938
1.60834
1.63604
1.66249
1.6877
1.71167
1.73443
1.75597
1.77634
1.79553
1.81358
1.8305
1.84633
1.86108
1.87479
1.88749
1.89921
1.90998
1.91983
1.92879
1.93689
1.94417
1.95065
1.95636
1.96134
1.96561
1.96921
1.97215
1.97448
1.97621
1.97738
1.978
1.9781
1.97771
1.97684
1.97553
1.97378
1.97162
1.96906
1.96614
1.96285
1.95922
1.95527
1.951
1.94644
1.94159
1.93647
1.93109
1.92546
1.91959
1.91349
1.90717
1.90064
1.89391
1.88697
1.87985
1.87255
1.86507
1.85742
1.8496
1.84162
1.83348
1.82519
1.81675
1.80817
1.79944
1.79057
1.78156
1.77242
1.76314
1.75373
1.74419
1.73452
1.72472
1.71479
1.70473
1.69454
1.68423
1.67379
1.66322
1.65252
1.64169
1.63074
1.61965
1.60843
1.59709
1.5856
1.57399
1.56224
1.55036
1.53834
1.52619
1.51389
1.50146
1.48888
1.47617
1.46331
1.45031
1.43716
1.42387
1.41043
1.39685
1.38312
1.36924
1.35521
1.34104
1.32672
1.31225
1.29763
1.28286
1.26795
1.25289
1.23768
1.22233
1.20684
1.1912
1.17542
1.15951
1.14345
1.12726
1.11094
1.09449
1.0779
1.06119
1.04436
1.02741
1.01034
0.993157
0.975862
0.958458
0.940949
0.923339
0.905629
0.887824
0.869926
0.851939
0.833864
0.815704
0.797461
0.779137
0.760734
0.742252
0.723691
0.705051
0.686331
0.667529
0.648642
0.629664
0.610592
0.591417
0.57213
0.552721
0.533175
0.513476
0.4936
0.473517
0.453196
0.432597
0.41167
0.390373
0.368626
0.34634
0.323399
0.299651
0.274905
0.24891
0.221268
0.191328
0.157768
0.116607
0.0498488
0.122607
0.285542
0.385035
0.467589
0.543196
0.614754
0.683384
0.749632
0.813822
0.876164
0.93681
0.995877
1.05345
1.1096
1.16438
1.21781
1.26993
1.32073
1.37023
1.41842
1.4653
1.51085
1.55506
1.59791
1.63939
1.67949
1.71818
1.75547
1.79134
1.82579
1.8588
1.8904
1.92057
1.94933
1.97668
2.00264
2.02722
2.05045
2.07235
2.09293
2.11223
2.13028
2.14709
2.16272
2.17718
2.19052
2.20277
2.21397
2.22414
2.23333
2.24157
2.24889
2.25533
2.26092
2.26571
2.26971
2.27297
2.27551
2.27737
2.27857
2.27915
2.27913
2.27855
2.27741
2.27576
2.27361
2.27099
2.26792
2.26442
2.2605
2.25619
2.25151
2.24647
2.24109
2.23538
2.22936
2.22304
2.21643
2.20955
2.20241
2.19502
2.18738
2.17951
2.17141
2.1631
2.15458
2.14586
2.13695
2.12784
2.11855
2.10908
2.09944
2.08963
2.07965
2.06951
2.05922
2.04876
2.03815
2.02739
2.01647
2.00541
1.9942
1.98285
1.97135
1.9597
1.94791
1.93598
1.9239
1.91168
1.89931
1.8868
1.87414
1.86134
1.84838
1.83528
1.82203
1.80863
1.79508
1.78138
1.76752
1.75351
1.73935
1.72502
1.71054
1.6959
1.6811
1.66613
1.65101
1.63572
1.62026
1.60465
1.58886
1.57291
1.5568
1.54051
1.52407
1.50745
1.49067
1.47372
1.4566
1.43933
1.42188
1.40428
1.38651
1.36859
1.3505
1.33226
1.31387
1.29532
1.27662
1.25778
1.23879
1.21966
1.20039
1.18099
1.16146
1.1418
1.12201
1.1021
1.08208
1.06194
1.04169
1.02133
1.00087
0.980313
0.959654
0.938901
0.918056
0.89712
0.876095
0.854982
0.833782
0.812495
0.791119
0.769652
0.748091
0.726431
0.704668
0.682792
0.660795
0.638665
0.616388
0.593945
0.571313
0.548464
0.525367
0.50198
0.478258
0.454143
0.429561
0.40443
0.378636
0.352026
0.324397
0.295483
0.264838
0.231661
0.194167
0.146801
0.0647514
0.122608
0.285544
0.385036
0.467589
0.543196
0.614754
0.683383
0.749632
0.813821
0.876163
0.93681
0.995877
1.05345
1.1096
1.16438
1.21781
1.26992
1.32073
1.37023
1.41842
1.4653
1.51085
1.55506
1.59791
1.63939
1.67949
1.71818
1.75547
1.79134
1.82578
1.8588
1.8904
1.92057
1.94932
1.97668
2.00264
2.02722
2.05045
2.07235
2.09293
2.11223
2.13027
2.14709
2.16272
2.17718
2.19052
2.20277
2.21397
2.22414
2.23333
2.24157
2.24889
2.25533
2.26092
2.2657
2.26971
2.27296
2.27551
2.27737
2.27857
2.27915
2.27913
2.27854
2.27741
2.27576
2.27361
2.27099
2.26792
2.26441
2.2605
2.25619
2.25151
2.24647
2.24109
2.23538
2.22936
2.22304
2.21643
2.20955
2.20241
2.19501
2.18738
2.17951
2.17141
2.1631
2.15458
2.14586
2.13695
2.12784
2.11855
2.10908
2.09944
2.08963
2.07965
2.06951
2.05921
2.04876
2.03815
2.02739
2.01647
2.00541
1.9942
1.98285
1.97135
1.9597
1.94791
1.93598
1.9239
1.91168
1.89931
1.8868
1.87414
1.86133
1.84838
1.83528
1.82203
1.80863
1.79508
1.78138
1.76752
1.75351
1.73934
1.72502
1.71054
1.6959
1.6811
1.66613
1.65101
1.63572
1.62026
1.60465
1.58886
1.57291
1.5568
1.54051
1.52406
1.50745
1.49067
1.47372
1.4566
1.43932
1.42188
1.40428
1.38651
1.36858
1.3505
1.33226
1.31386
1.29532
1.27662
1.25778
1.23879
1.21966
1.20039
1.18099
1.16146
1.1418
1.12201
1.1021
1.08208
1.06194
1.04169
1.02133
1.00087
0.980312
0.959654
0.9389
0.918055
0.897119
0.876094
0.854982
0.833782
0.812494
0.791118
0.769651
0.74809
0.726431
0.704667
0.682791
0.660795
0.638665
0.616387
0.593944
0.571312
0.548464
0.525366
0.50198
0.478258
0.454143
0.429561
0.40443
0.378636
0.352026
0.324397
0.295483
0.264838
0.231661
0.194167
0.146801
0.0647513
0.147072
0.337935
0.450865
0.542482
0.625576
0.703963
0.779118
0.851716
0.922111
0.990515
1.05707
1.12188
1.18503
1.24658
1.30657
1.36505
1.42203
1.47754
1.53159
1.58418
1.6353
1.68495
1.73312
1.7798
1.82498
1.86865
1.91078
1.95139
1.99045
2.02796
2.06393
2.09834
2.13122
2.16255
2.19236
2.22066
2.24746
2.27279
2.29666
2.31911
2.34016
2.35984
2.37818
2.39521
2.41098
2.42552
2.43887
2.45106
2.46213
2.47212
2.48107
2.48901
2.49598
2.50203
2.50718
2.51148
2.51496
2.51765
2.51958
2.5208
2.52133
2.5212
2.52045
2.51909
2.51717
2.51469
2.5117
2.50821
2.50424
2.49982
2.49497
2.4897
2.48404
2.478
2.47161
2.46487
2.4578
2.45041
2.44273
2.43475
2.4265
2.41798
2.40921
2.40019
2.39093
2.38144
2.37173
2.3618
2.35167
2.34134
2.33081
2.32009
2.30918
2.29809
2.28683
2.27539
2.26377
2.25199
2.24005
2.22793
2.21566
2.20323
2.19063
2.17788
2.16497
2.1519
2.13867
2.12529
2.11175
2.09805
2.0842
2.07018
2.05601
2.04167
2.02718
2.01252
1.9977
1.98271
1.96756
1.95225
1.93676
1.92111
1.90528
1.88929
1.87312
1.85677
1.84025
1.82356
1.80668
1.78963
1.7724
1.755
1.73741
1.71964
1.70169
1.68356
1.66524
1.64675
1.62808
1.60923
1.5902
1.57099
1.55161
1.53205
1.51232
1.49242
1.47235
1.45211
1.4317
1.41114
1.39041
1.36953
1.3485
1.32731
1.30598
1.28451
1.2629
1.24115
1.21928
1.19727
1.17514
1.15289
1.13052
1.10804
1.08546
1.06276
1.03996
1.01707
0.99407
0.970977
0.947789
0.924506
0.901128
0.877654
0.854083
0.830411
0.806634
0.782747
0.758742
0.734609
0.710338
0.685913
0.661318
0.63653
0.611523
0.586266
0.560721
0.534842
0.508573
0.481844
0.454569
0.426633
0.397877
0.368096
0.336971
0.303988
0.268155
0.227198
0.174109
0.078005
0.147073
0.337937
0.450865
0.542482
0.625576
0.703962
0.779117
0.851715
0.92211
0.990515
1.05707
1.12188
1.18503
1.24658
1.30657
1.36504
1.42203
1.47754
1.53159
1.58418
1.6353
1.68495
1.73312
1.7798
1.82498
1.86865
1.91078
1.95139
1.99045
2.02796
2.06393
2.09834
2.13122
2.16255
2.19236
2.22066
2.24746
2.27279
2.29666
2.31911
2.34016
2.35983
2.37818
2.39521
2.41098
2.42552
2.43887
2.45106
2.46213
2.47212
2.48107
2.48901
2.49598
2.50203
2.50718
2.51148
2.51495
2.51764
2.51958
2.5208
2.52133
2.5212
2.52045
2.51909
2.51717
2.51469
2.5117
2.5082
2.50424
2.49982
2.49496
2.4897
2.48404
2.478
2.47161
2.46487
2.4578
2.45041
2.44273
2.43475
2.4265
2.41798
2.40921
2.40018
2.39093
2.38144
2.37173
2.3618
2.35167
2.34134
2.33081
2.32009
2.30918
2.29809
2.28683
2.27538
2.26377
2.25199
2.24004
2.22793
2.21566
2.20323
2.19063
2.17788
2.16497
2.1519
2.13867
2.12529
2.11175
2.09805
2.08419
2.07018
2.05601
2.04167
2.02718
2.01252
1.9977
1.98271
1.96756
1.95225
1.93676
1.92111
1.90528
1.88928
1.87311
1.85677
1.84025
1.82356
1.80668
1.78963
1.7724
1.75499
1.73741
1.71964
1.70169
1.68355
1.66524
1.64675
1.62808
1.60923
1.5902
1.57099
1.55161
1.53205
1.51232
1.49242
1.47234
1.45211
1.4317
1.41114
1.39041
1.36953
1.3485
1.32731
1.30598
1.28451
1.2629
1.24115
1.21927
1.19727
1.17514
1.15289
1.13052
1.10804
1.08546
1.06276
1.03996
1.01707
0.994069
0.970976
0.947788
0.924505
0.901127
0.877654
0.854083
0.830411
0.806634
0.782747
0.758741
0.734609
0.710337
0.685913
0.661317
0.63653
0.611523
0.586266
0.560721
0.534841
0.508573
0.481844
0.454569
0.426633
0.397877
0.368096
0.336971
0.303988
0.268155
0.227198
0.174109
0.0780049
0.169662
0.387461
0.513399
0.613965
0.70428
0.78904
0.870101
0.948306
1.02408
1.09766
1.16921
1.23881
1.30655
1.37251
1.43672
1.49923
1.56007
1.61928
1.67686
1.73283
1.7872
1.83997
1.89113
1.94069
1.98864
2.03496
2.07966
2.12272
2.16415
2.20394
2.24209
2.2786
2.31348
2.34674
2.37838
2.40842
2.43689
2.46379
2.48915
2.513
2.53537
2.55629
2.57579
2.59391
2.61067
2.62613
2.64032
2.65327
2.66503
2.67564
2.68514
2.69356
2.70095
2.70734
2.71278
2.71731
2.72095
2.72375
2.72575
2.72698
2.72746
2.72725
2.72635
2.72482
2.72267
2.71993
2.71663
2.7128
2.70845
2.70362
2.69833
2.69259
2.68642
2.67985
2.6729
2.66557
2.65789
2.64987
2.64152
2.63287
2.62391
2.61467
2.60515
2.59536
2.58532
2.57504
2.56451
2.55376
2.54278
2.53158
2.52017
2.50856
2.49675
2.48474
2.47254
2.46015
2.44758
2.43483
2.4219
2.40879
2.39551
2.38206
2.36843
2.35464
2.34067
2.32654
2.31224
2.29777
2.28313
2.26833
2.25335
2.23821
2.22289
2.2074
2.19175
2.17591
2.15991
2.14373
2.12737
2.11084
2.09412
2.07723
2.06015
2.04289
2.02545
2.00782
1.99
1.972
1.9538
1.93542
1.91685
1.89809
1.87913
1.85998
1.84065
1.82111
1.80139
1.78147
1.76137
1.74107
1.72058
1.69991
1.67904
1.65799
1.63676
1.61534
1.59375
1.57197
1.55002
1.5279
1.50561
1.48315
1.46053
1.43774
1.41481
1.39172
1.36848
1.34509
1.32157
1.29791
1.27411
1.25019
1.22614
1.20197
1.17768
1.15328
1.12877
1.10414
1.07942
1.05458
1.02965
1.00461
0.979468
0.954225
0.928878
0.903423
0.877858
0.852176
0.826371
0.800434
0.774354
0.748118
0.721708
0.695106
0.668285
0.641217
0.613864
0.586184
0.558121
0.529607
0.500552
0.470838
0.4403
0.408702
0.37567
0.340597
0.302291
0.258009
0.199427
0.0901638
0.169663
0.387463
0.5134
0.613965
0.70428
0.78904
0.8701
0.948306
1.02408
1.09766
1.1692
1.23881
1.30655
1.37251
1.43672
1.49923
1.56007
1.61928
1.67686
1.73283
1.7872
1.83997
1.89113
1.94069
1.98863
2.03496
2.07966
2.12272
2.16415
2.20394
2.24209
2.2786
2.31348
2.34674
2.37838
2.40842
2.43689
2.46379
2.48915
2.513
2.53537
2.55629
2.57579
2.5939
2.61067
2.62613
2.64032
2.65327
2.66503
2.67564
2.68513
2.69356
2.70095
2.70734
2.71278
2.7173
2.72095
2.72375
2.72575
2.72697
2.72746
2.72724
2.72635
2.72482
2.72267
2.71993
2.71663
2.7128
2.70845
2.70362
2.69833
2.69259
2.68642
2.67985
2.6729
2.66557
2.65789
2.64987
2.64152
2.63286
2.62391
2.61467
2.60515
2.59536
2.58532
2.57504
2.56451
2.55375
2.54278
2.53158
2.52017
2.50856
2.49675
2.48474
2.47254
2.46015
2.44758
2.43483
2.4219
2.40879
2.39551
2.38206
2.36843
2.35464
2.34067
2.32654
2.31224
2.29777
2.28313
2.26832
2.25335
2.2382
2.22289
2.2074
2.19174
2.17591
2.15991
2.14373
2.12737
2.11083
2.09412
2.07723
2.06015
2.04289
2.02545
2.00782
1.99
1.972
1.9538
1.93542
1.91685
1.89809
1.87913
1.85998
1.84064
1.82111
1.80139
1.78147
1.76137
1.74107
1.72058
1.69991
1.67904
1.65799
1.63676
1.61534
1.59375
1.57197
1.55002
1.5279
1.50561
1.48315
1.46053
1.43774
1.41481
1.39172
1.36848
1.34509
1.32157
1.29791
1.27411
1.25019
1.22614
1.20197
1.17768
1.15328
1.12877
1.10414
1.07942
1.05458
1.02965
1.00461
0.979468
0.954225
0.928877
0.903423
0.877857
0.852175
0.82637
0.800433
0.774354
0.748117
0.721708
0.695105
0.668285
0.641216
0.613864
0.586184
0.558121
0.529607
0.500552
0.470838
0.4403
0.408702
0.37567
0.340597
0.302291
0.258009
0.199427
0.0901638
0.191217
0.434899
0.573889
0.683433
0.78091
0.871856
0.95851
1.0419
1.12255
1.20075
1.27666
1.35041
1.42208
1.49174
1.55945
1.62527
1.68924
1.7514
1.81177
1.87039
1.92727
1.98242
2.03586
2.08758
2.13759
2.18589
2.23248
2.27737
2.32054
2.362
2.40176
2.43981
2.47617
2.51084
2.54384
2.57517
2.60487
2.63294
2.65942
2.68433
2.70769
2.72955
2.74992
2.76886
2.78638
2.80255
2.81738
2.83092
2.84322
2.8543
2.86422
2.87302
2.88073
2.8874
2.89307
2.89778
2.90156
2.90445
2.90649
2.90773
2.90818
2.90789
2.90689
2.90521
2.90288
2.89994
2.89639
2.89229
2.88764
2.88248
2.87682
2.8707
2.86412
2.85712
2.8497
2.8419
2.83371
2.82517
2.81628
2.80707
2.79753
2.78769
2.77756
2.76714
2.75645
2.7455
2.7343
2.72285
2.71116
2.69925
2.68711
2.67475
2.66218
2.6494
2.63641
2.62323
2.60986
2.59629
2.58253
2.56858
2.55445
2.54014
2.52564
2.51097
2.49611
2.48108
2.46587
2.45048
2.43491
2.41916
2.40324
2.38713
2.37085
2.35438
2.33774
2.32091
2.30389
2.2867
2.26931
2.25174
2.23398
2.21603
2.19789
2.17955
2.16102
2.1423
2.12337
2.10426
2.08494
2.06542
2.0457
2.02578
2.00566
1.98534
1.96482
1.94409
1.92316
1.90203
1.8807
1.85917
1.83743
1.8155
1.79337
1.77105
1.74853
1.72582
1.70291
1.67983
1.65655
1.6331
1.60946
1.58565
1.56166
1.53751
1.51319
1.48871
1.46407
1.43928
1.41433
1.38924
1.36401
1.33864
1.31314
1.28751
1.26174
1.23586
1.20986
1.18373
1.1575
1.13115
1.10468
1.07811
1.05143
1.02464
0.997733
0.970715
0.943579
0.91632
0.888932
0.861408
0.833737
0.805906
0.777901
0.749702
0.721286
0.692625
0.663684
0.63442
0.604778
0.574689
0.544058
0.512761
0.480615
0.447354
0.412551
0.375482
0.334759
0.287201
0.223281
0.101535
0.191219
0.4349
0.57389
0.683433
0.780909
0.871855
0.958509
1.0419
1.12255
1.20075
1.27666
1.35041
1.42208
1.49174
1.55945
1.62527
1.68924
1.7514
1.81177
1.87039
1.92727
1.98242
2.03585
2.08758
2.13759
2.18589
2.23248
2.27737
2.32054
2.362
2.40176
2.43981
2.47617
2.51084
2.54384
2.57517
2.60487
2.63294
2.65942
2.68433
2.70769
2.72955
2.74992
2.76886
2.78638
2.80254
2.81738
2.83092
2.84321
2.8543
2.86422
2.87302
2.88073
2.8874
2.89307
2.89777
2.90155
2.90445
2.90649
2.90773
2.90818
2.90789
2.90689
2.90521
2.90288
2.89993
2.89639
2.89229
2.88764
2.88248
2.87682
2.8707
2.86412
2.85712
2.8497
2.8419
2.83371
2.82517
2.81628
2.80706
2.79753
2.78769
2.77755
2.76714
2.75645
2.7455
2.7343
2.72285
2.71116
2.69925
2.68711
2.67475
2.66218
2.6494
2.63641
2.62323
2.60985
2.59629
2.58253
2.56858
2.55445
2.54014
2.52564
2.51097
2.49611
2.48108
2.46587
2.45048
2.43491
2.41916
2.40324
2.38713
2.37085
2.35438
2.33774
2.32091
2.30389
2.2867
2.26931
2.25174
2.23398
2.21603
2.19788
2.17955
2.16102
2.1423
2.12337
2.10425
2.08494
2.06542
2.0457
2.02578
2.00566
1.98534
1.96482
1.94409
1.92316
1.90203
1.8807
1.85916
1.83743
1.8155
1.79337
1.77105
1.74853
1.72582
1.70291
1.67983
1.65655
1.63309
1.60946
1.58565
1.56166
1.53751
1.51319
1.48871
1.46407
1.43928
1.41433
1.38924
1.36401
1.33864
1.31314
1.28751
1.26174
1.23586
1.20985
1.18373
1.1575
1.13115
1.10468
1.07811
1.05143
1.02464
0.997733
0.970715
0.943578
0.916319
0.888932
0.861408
0.833737
0.805906
0.777901
0.749702
0.721286
0.692625
0.663684
0.63442
0.604778
0.574689
0.544058
0.512761
0.480615
0.447354
0.412551
0.375482
0.33476
0.287201
0.223281
0.101535
0.21277
0.48131
0.633172
0.751677
0.856291
0.953325
1.04539
1.13369
1.21888
1.30129
1.38112
1.45852
1.5336
1.60643
1.6771
1.74567
1.81219
1.87672
1.93931
1.99998
2.05879
2.11575
2.17088
2.2242
2.27572
2.32546
2.37341
2.4196
2.46401
2.50666
2.54756
2.58671
2.62411
2.65979
2.69375
2.72601
2.7566
2.78552
2.8128
2.83847
2.86256
2.8851
2.90612
2.92566
2.94376
2.96044
2.97576
2.98975
3.00245
3.0139
3.02415
3.03323
3.0412
3.04808
3.05392
3.05877
3.06266
3.06562
3.06771
3.06895
3.06938
3.06904
3.06796
3.06617
3.0637
3.06059
3.05685
3.05253
3.04764
3.04221
3.03627
3.02984
3.02293
3.01558
3.00779
2.9996
2.99101
2.98204
2.97271
2.96303
2.95302
2.94269
2.93205
2.92111
2.90989
2.89839
2.88662
2.8746
2.86233
2.84981
2.83706
2.82407
2.81087
2.79744
2.7838
2.76995
2.75589
2.74164
2.72718
2.71252
2.69768
2.68263
2.6674
2.65198
2.63637
2.62057
2.60458
2.58841
2.57205
2.5555
2.53876
2.52184
2.50473
2.48743
2.46994
2.45225
2.43438
2.41631
2.39804
2.37958
2.36092
2.34206
2.32301
2.30375
2.28428
2.26462
2.24474
2.22467
2.20438
2.18388
2.16318
2.14227
2.12114
2.09981
2.07826
2.0565
2.03453
2.01235
1.98996
1.96736
1.94455
1.92153
1.89831
1.87488
1.85124
1.82741
1.80337
1.77914
1.75472
1.7301
1.7053
1.68031
1.65514
1.62979
1.60426
1.57856
1.5527
1.52667
1.50048
1.47414
1.44764
1.421
1.39421
1.36729
1.34022
1.31302
1.2857
1.25824
1.23066
1.20296
1.17514
1.1472
1.11913
1.09095
1.06265
1.03422
1.00567
0.976993
0.948178
0.91922
0.89011
0.860836
0.831385
0.801739
0.771875
0.741767
0.71138
0.680671
0.649584
0.618045
0.585957
0.553179
0.519513
0.484656
0.448122
0.409077
0.365943
0.315139
0.246022
0.112361
0.212772
0.481311
0.633173
0.751677
0.85629
0.953325
1.04538
1.13369
1.21888
1.30128
1.38112
1.45852
1.5336
1.60643
1.6771
1.74567
1.81219
1.87672
1.9393
1.99998
2.05879
2.11574
2.17087
2.2242
2.27572
2.32546
2.37341
2.4196
2.46401
2.50666
2.54756
2.58671
2.62411
2.65979
2.69375
2.72601
2.75659
2.78551
2.8128
2.83847
2.86256
2.8851
2.90612
2.92566
2.94376
2.96044
2.97576
2.98975
3.00245
3.0139
3.02415
3.03323
3.04119
3.04808
3.05392
3.05877
3.06266
3.06562
3.06771
3.06895
3.06938
3.06904
3.06796
3.06617
3.0637
3.06058
3.05685
3.05253
3.04764
3.04221
3.03627
3.02984
3.02293
3.01558
3.00779
2.9996
2.99101
2.98204
2.97271
2.96303
2.95302
2.94269
2.93205
2.92111
2.90989
2.89839
2.88662
2.8746
2.86232
2.84981
2.83705
2.82407
2.81086
2.79744
2.7838
2.76995
2.75589
2.74164
2.72718
2.71252
2.69767
2.68263
2.6674
2.65198
2.63637
2.62057
2.60458
2.58841
2.57205
2.5555
2.53876
2.52184
2.50473
2.48743
2.46993
2.45225
2.43438
2.41631
2.39804
2.37958
2.36092
2.34206
2.32301
2.30375
2.28428
2.26462
2.24474
2.22467
2.20438
2.18388
2.16318
2.14227
2.12114
2.09981
2.07826
2.0565
2.03453
2.01235
1.98996
1.96736
1.94455
1.92153
1.8983
1.87488
1.85124
1.82741
1.80337
1.77914
1.75472
1.7301
1.7053
1.68031
1.65514
1.62979
1.60426
1.57856
1.5527
1.52667
1.50048
1.47414
1.44764
1.421
1.39421
1.36729
1.34022
1.31302
1.2857
1.25824
1.23066
1.20296
1.17514
1.14719
1.11913
1.09095
1.06265
1.03422
1.00567
0.976993
0.948177
0.919219
0.890109
0.860836
0.831385
0.801739
0.771875
0.741767
0.71138
0.68067
0.649584
0.618045
0.585957
0.553179
0.519513
0.484656
0.448122
0.409077
0.365943
0.315139
0.246022
0.112361
0.233958
0.527116
0.691738
0.819186
0.930918
1.03397
1.1313
1.22433
1.31378
1.40008
1.48348
1.56415
1.64222
1.7178
1.79096
1.86181
1.93041
1.99684
2.06116
2.12342
2.18367
2.24195
2.29831
2.35276
2.40534
2.45606
2.50494
2.552
2.59724
2.64068
2.68233
2.72219
2.76029
2.79663
2.83123
2.86411
2.89528
2.92477
2.9526
2.97879
3.00338
3.02639
3.04786
3.06783
3.08632
3.10338
3.11904
3.13335
3.14634
3.15806
3.16854
3.17784
3.18599
3.19303
3.19901
3.20396
3.20793
3.21096
3.21308
3.21433
3.21474
3.21436
3.21322
3.21134
3.20877
3.20553
3.20165
3.19716
3.19208
3.18645
3.18028
3.17361
3.16644
3.15881
3.15073
3.14223
3.13331
3.124
3.11431
3.10427
3.09387
3.08314
3.07209
3.06073
3.04907
3.03712
3.02489
3.0124
2.99964
2.98662
2.97336
2.95986
2.94613
2.93217
2.91798
2.90357
2.88895
2.87411
2.85907
2.84382
2.82837
2.81271
2.79686
2.7808
2.76455
2.7481
2.73146
2.71462
2.69759
2.68036
2.66293
2.64531
2.6275
2.60948
2.59127
2.57285
2.55424
2.53542
2.5164
2.49718
2.47775
2.45811
2.43827
2.41821
2.39795
2.37747
2.35678
2.33587
2.31475
2.29341
2.27185
2.25008
2.22809
2.20587
2.18344
2.16079
2.13792
2.11483
2.09152
2.06799
2.04424
2.02028
1.9961
1.97171
1.9471
1.92229
1.89727
1.87204
1.84661
1.82097
1.79514
1.76912
1.7429
1.7165
1.68991
1.66314
1.63619
1.60907
1.58178
1.55432
1.5267
1.49892
1.47099
1.4429
1.41467
1.3863
1.35778
1.32912
1.30033
1.27141
1.24235
1.21316
1.18385
1.1544
1.12482
1.09511
1.06526
1.03528
1.00515
0.974872
0.944436
0.91383
0.883042
0.852054
0.820845
0.789389
0.757651
0.725588
0.693139
0.660228
0.626747
0.592543
0.557395
0.520963
0.482704
0.441682
0.396124
0.34208
0.267849
0.122749
0.23396
0.527117
0.691738
0.819186
0.930917
1.03397
1.1313
1.22433
1.31378
1.40008
1.48348
1.56415
1.64222
1.71779
1.79096
1.86181
1.93041
1.99684
2.06116
2.12342
2.18367
2.24195
2.29831
2.35276
2.40534
2.45606
2.50494
2.552
2.59724
2.64068
2.68233
2.72219
2.76029
2.79663
2.83123
2.86411
2.89528
2.92477
2.9526
2.97879
3.00338
3.02639
3.04786
3.06783
3.08632
3.10338
3.11904
3.13335
3.14634
3.15805
3.16854
3.17784
3.18599
3.19303
3.19901
3.20396
3.20793
3.21096
3.21308
3.21432
3.21474
3.21436
3.21322
3.21134
3.20877
3.20553
3.20165
3.19716
3.19208
3.18645
3.18028
3.17361
3.16644
3.15881
3.15073
3.14223
3.13331
3.124
3.11431
3.10426
3.09387
3.08314
3.07209
3.06073
3.04907
3.03712
3.02489
3.0124
2.99964
2.98662
2.97336
2.95986
2.94613
2.93217
2.91798
2.90357
2.88895
2.87411
2.85907
2.84382
2.82836
2.81271
2.79685
2.7808
2.76455
2.7481
2.73146
2.71462
2.69759
2.68036
2.66293
2.64531
2.62749
2.60948
2.59126
2.57285
2.55424
2.53542
2.5164
2.49718
2.47775
2.45811
2.43827
2.41821
2.39795
2.37747
2.35678
2.33587
2.31475
2.29341
2.27185
2.25008
2.22809
2.20587
2.18344
2.16079
2.13792
2.11483
2.09152
2.06799
2.04424
2.02028
1.9961
1.97171
1.9471
1.92229
1.89727
1.87204
1.84661
1.82097
1.79514
1.76912
1.7429
1.7165
1.68991
1.66314
1.63619
1.60907
1.58178
1.55432
1.5267
1.49892
1.47099
1.4429
1.41467
1.3863
1.35778
1.32912
1.30033
1.27141
1.24235
1.21316
1.18385
1.1544