/*--------------------------------*- C++ -*----------------------------------*\
  =========                 |
  \\      /  F ield         | OpenFOAM: The Open Source CFD Toolbox
   \\    /   O peration     | Website:  https://openfoam.org
    \\  /    A nd           | Version:  8
     \\/     M anipulation  |
\*---------------------------------------------------------------------------*/
FoamFile
{
    version     2.0;
    format      ascii;
    class       volScalarField;
    location    "4300";
    object      alphat;
}
// * * * * * * * * * * * * * * * * * * * * * * * * * * * * * * * * * * * * * //

dimensions      [1 -1 -1 0 0 0 0];

internalField   nonuniform List<scalar> 
48000
(
5.38628e-05
9.37663e-05
0.000116117
0.000132547
0.000146256
0.000157855
0.000167932
0.00017687
0.000185036
0.000192636
0.000199668
0.000206246
0.000212427
0.000218259
0.000223779
0.000229015
0.000233991
0.000238726
0.000243237
0.000247536
0.000251634
0.000255541
0.000259266
0.000262815
0.000266194
0.00026941
0.000272467
0.000275372
0.000278127
0.000280738
0.000283209
0.000285544
0.000287747
0.000289821
0.000291771
0.0002936
0.000295312
0.00029691
0.000298399
0.000299781
0.000301061
0.000302241
0.000303325
0.000304315
0.000305223
0.00030606
0.000306817
0.000307493
0.000308093
0.000308618
0.000309074
0.000309462
0.000309786
0.000310049
0.000310255
0.000310405
0.000310503
0.00031055
0.000310551
0.000310506
0.000310419
0.000310292
0.000310127
0.000309925
0.000309689
0.000309421
0.000309122
0.000308795
0.00030844
0.000308059
0.000307654
0.000307226
0.000306777
0.000306306
0.000305817
0.000305309
0.000304783
0.000304241
0.000303683
0.00030311
0.000302522
0.000301921
0.000301307
0.000300681
0.000300042
0.000299392
0.00029873
0.000298058
0.000297375
0.000296681
0.000295978
0.000295264
0.000294541
0.000293807
0.000293065
0.000292312
0.00029155
0.000290778
0.000289997
0.000289206
0.000288405
0.000287594
0.000286773
0.000285941
0.000285099
0.000284247
0.000283384
0.000282509
0.000281624
0.000280726
0.000279817
0.000278896
0.000277962
0.000277016
0.000276056
0.000275083
0.000274097
0.000273096
0.000272081
0.000271051
0.000270006
0.000268946
0.000267869
0.000266777
0.000265667
0.000264541
0.000263398
0.000262236
0.000261057
0.000259859
0.000258641
0.000257405
0.000256149
0.000254873
0.000253576
0.000252258
0.000250919
0.000249559
0.000248176
0.000246771
0.000245344
0.000243893
0.000242418
0.00024092
0.000239397
0.000237849
0.000236277
0.000234679
0.000233055
0.000231405
0.000229728
0.000228025
0.000226294
0.000224535
0.000222747
0.000220931
0.000219086
0.000217211
0.000215306
0.00021337
0.000211402
0.000209403
0.000207371
0.000205305
0.000203205
0.00020107
0.000198898
0.00019669
0.000194443
0.000192156
0.000189828
0.000187457
0.000185041
0.000182579
0.000180067
0.000177503
0.000174884
0.000172207
0.000169467
0.000166664
0.000163797
0.000160875
0.000157868
0.000154762
0.000151547
0.000148207
0.000144727
0.000141083
0.000137251
0.000133194
0.000128867
0.000124232
0.00011923
0.00011372
0.000107531
0.000100391
9.18231e-05
8.09406e-05
6.72114e-05
0.000229511
5.38632e-05
9.37665e-05
0.000116117
0.000132547
0.000146257
0.000157856
0.000167932
0.000176871
0.000185036
0.000192636
0.000199668
0.000206246
0.000212427
0.00021826
0.000223779
0.000229015
0.000233991
0.000238726
0.000243237
0.000247536
0.000251634
0.000255542
0.000259266
0.000262815
0.000266194
0.00026941
0.000272467
0.000275372
0.000278127
0.000280738
0.000283209
0.000285544
0.000287747
0.000289821
0.000291771
0.0002936
0.000295312
0.00029691
0.000298399
0.000299781
0.000301061
0.000302241
0.000303325
0.000304315
0.000305223
0.00030606
0.000306817
0.000307493
0.000308093
0.000308618
0.000309074
0.000309462
0.000309786
0.000310049
0.000310255
0.000310405
0.000310503
0.00031055
0.000310551
0.000310506
0.000310419
0.000310292
0.000310127
0.000309925
0.000309689
0.000309421
0.000309122
0.000308795
0.00030844
0.000308059
0.000307654
0.000307226
0.000306777
0.000306306
0.000305817
0.000305309
0.000304783
0.000304241
0.000303683
0.00030311
0.000302522
0.000301921
0.000301307
0.000300681
0.000300042
0.000299392
0.00029873
0.000298058
0.000297375
0.000296681
0.000295978
0.000295264
0.000294541
0.000293807
0.000293065
0.000292312
0.00029155
0.000290778
0.000289997
0.000289206
0.000288405
0.000287594
0.000286773
0.000285941
0.000285099
0.000284247
0.000283384
0.000282509
0.000281624
0.000280726
0.000279817
0.000278896
0.000277962
0.000277016
0.000276056
0.000275083
0.000274097
0.000273096
0.000272081
0.000271051
0.000270006
0.000268946
0.000267869
0.000266777
0.000265667
0.000264541
0.000263398
0.000262236
0.000261057
0.000259858
0.000258641
0.000257405
0.000256149
0.000254873
0.000253576
0.000252258
0.000250919
0.000249559
0.000248176
0.000246771
0.000245344
0.000243893
0.000242418
0.00024092
0.000239397
0.000237849
0.000236277
0.000234679
0.000233055
0.000231405
0.000229728
0.000228025
0.000226294
0.000224535
0.000222747
0.000220931
0.000219086
0.000217211
0.000215306
0.00021337
0.000211402
0.000209403
0.000207371
0.000205305
0.000203205
0.00020107
0.000198898
0.00019669
0.000194443
0.000192156
0.000189828
0.000187457
0.000185041
0.000182579
0.000180067
0.000177503
0.000174884
0.000172207
0.000169467
0.000166664
0.000163797
0.000160875
0.000157868
0.000154762
0.000151547
0.000148207
0.000144727
0.000141083
0.000137251
0.000133194
0.000128867
0.000124232
0.00011923
0.00011372
0.000107531
0.00010039
9.18225e-05
8.09395e-05
6.7217e-05
0.000229519
8.16266e-05
0.000605378
0.000958359
0.00120508
0.00139048
0.00154083
0.00166968
0.00178299
0.00188414
0.00197539
0.0020589
0.0021359
0.00220732
0.00227389
0.00233618
0.00239465
0.00244966
0.00250151
0.00255047
0.00259675
0.00264054
0.002682
0.00272126
0.00275846
0.00279371
0.00282711
0.00285874
0.00288869
0.00291704
0.00294386
0.00296921
0.00299316
0.00301575
0.00303706
0.00305711
0.00307597
0.00309368
0.00311029
0.00312583
0.00314035
0.00315388
0.00316645
0.0031781
0.0031888
0.00319845
0.00320707
0.00321484
0.00322186
0.00322821
0.00323391
0.00323901
0.00324352
0.00324749
0.00325092
0.00325385
0.00325629
0.00325828
0.00325982
0.00326094
0.00326165
0.00326199
0.00326195
0.00326156
0.00326083
0.00325978
0.00325843
0.00325678
0.00325485
0.00325265
0.0032502
0.0032475
0.00324456
0.0032414
0.00323803
0.00323444
0.00323066
0.00322669
0.00322253
0.00321819
0.00321369
0.00320902
0.00320419
0.0031992
0.00319407
0.00318878
0.00318336
0.00317779
0.00317209
0.00316626
0.00316029
0.00315419
0.00314796
0.00314161
0.00313513
0.00312852
0.00312178
0.00311492
0.00310794
0.00310082
0.00309358
0.00308621
0.00307872
0.00307109
0.00306332
0.00305543
0.0030474
0.00303923
0.00303091
0.00302246
0.00301386
0.00300511
0.00299622
0.00298716
0.00297795
0.00296859
0.00295905
0.00294936
0.00293949
0.00292945
0.00291923
0.00290883
0.00289825
0.00288748
0.00287652
0.00286537
0.00285402
0.00284246
0.0028307
0.00281872
0.00280654
0.00279413
0.0027815
0.00276865
0.00275556
0.00274225
0.00272869
0.00271489
0.00270085
0.00268656
0.00267201
0.00265721
0.00264214
0.00262681
0.00261121
0.00259533
0.00257918
0.00256274
0.00254601
0.002529
0.00251169
0.00249408
0.00247616
0.00245793
0.00243939
0.00242053
0.00240134
0.00238181
0.00236195
0.00234175
0.00232119
0.00230027
0.00227898
0.00225731
0.00223526
0.0022128
0.00218994
0.00216665
0.00214293
0.00211875
0.00209409
0.00206895
0.00204329
0.00201709
0.00199033
0.00196296
0.00193495
0.00190625
0.00187681
0.00184656
0.00181539
0.00178318
0.00174976
0.00171512
0.0016792
0.00164187
0.00160294
0.00156219
0.00151933
0.00147394
0.00142548
0.0013731
0.00131527
0.00125066
0.00117769
0.0010933
0.000992387
0.000865696
0.00069457
0.000436471
5.84119e-05
8.16269e-05
0.000605384
0.000958368
0.00120509
0.00139049
0.00154084
0.00166969
0.001783
0.00188415
0.0019754
0.00205891
0.0021359
0.00220732
0.0022739
0.00233619
0.00239466
0.00244966
0.00250152
0.00255048
0.00259676
0.00264055
0.002682
0.00272127
0.00275847
0.00279372
0.00282711
0.00285875
0.0028887
0.00291705
0.00294387
0.00296922
0.00299316
0.00301576
0.00303706
0.00305712
0.00307598
0.00309369
0.0031103
0.00312584
0.00314035
0.00315388
0.00316646
0.0031781
0.0031888
0.00319845
0.00320707
0.00321484
0.00322187
0.00322822
0.00323392
0.00323901
0.00324353
0.00324749
0.00325092
0.00325385
0.0032563
0.00325828
0.00325982
0.00326094
0.00326166
0.00326199
0.00326195
0.00326156
0.00326084
0.00325979
0.00325843
0.00325679
0.00325486
0.00325266
0.0032502
0.0032475
0.00324457
0.00324141
0.00323803
0.00323445
0.00323066
0.00322669
0.00322253
0.0032182
0.00321369
0.00320902
0.00320419
0.00319921
0.00319407
0.00318879
0.00318336
0.0031778
0.0031721
0.00316626
0.00316029
0.00315419
0.00314797
0.00314161
0.00313513
0.00312852
0.00312179
0.00311493
0.00310794
0.00310083
0.00309359
0.00308622
0.00307872
0.00307109
0.00306333
0.00305543
0.0030474
0.00303923
0.00303092
0.00302246
0.00301386
0.00300512
0.00299622
0.00298717
0.00297796
0.00296859
0.00295906
0.00294936
0.00293949
0.00292945
0.00291924
0.00290884
0.00289826
0.00288749
0.00287653
0.00286537
0.00285402
0.00284246
0.0028307
0.00281873
0.00280654
0.00279413
0.00278151
0.00276865
0.00275557
0.00274225
0.00272869
0.0027149
0.00270085
0.00268656
0.00267201
0.00265721
0.00264214
0.00262681
0.00261121
0.00259533
0.00257918
0.00256274
0.00254602
0.002529
0.00251169
0.00249408
0.00247616
0.00245794
0.00243939
0.00242053
0.00240134
0.00238182
0.00236196
0.00234175
0.00232119
0.00230027
0.00227898
0.00225732
0.00223526
0.00221281
0.00218994
0.00216666
0.00214293
0.00211875
0.0020941
0.00206895
0.00204329
0.0020171
0.00199033
0.00196296
0.00193495
0.00190625
0.00187682
0.00184656
0.0018154
0.00178319
0.00174976
0.00171512
0.0016792
0.00164187
0.00160294
0.0015622
0.00151933
0.00147394
0.00142548
0.0013731
0.00131527
0.00125067
0.00117769
0.0010933
0.000992386
0.000865694
0.000694569
0.000436471
5.84056e-05
0.000100426
0.000918677
0.0016344
0.00217096
0.00259268
0.00294164
0.00324079
0.00350355
0.00373801
0.00394958
0.00414232
0.00431914
0.00448224
0.00463336
0.00477387
0.00490488
0.00502733
0.005142
0.00524955
0.00535057
0.00544556
0.00553495
0.00561915
0.00569851
0.00577335
0.00584394
0.00591055
0.00597342
0.00603277
0.00608878
0.00614165
0.00619154
0.0062386
0.00628299
0.00632484
0.00636427
0.0064014
0.00643633
0.00646917
0.0065
0.00652892
0.00655598
0.00658125
0.00660474
0.00662641
0.00664633
0.00666468
0.00668159
0.00669717
0.00671151
0.00672467
0.00673671
0.00674769
0.00675766
0.00676665
0.00677472
0.00678189
0.00678821
0.00679371
0.00679842
0.00680238
0.00680561
0.00680815
0.00681002
0.00681125
0.00681186
0.00681188
0.00681132
0.00681021
0.00680857
0.00680642
0.00680378
0.00680065
0.00679707
0.00679304
0.00678858
0.0067837
0.00677842
0.00677274
0.00676668
0.00676025
0.00675345
0.0067463
0.0067388
0.00673095
0.00672278
0.00671427
0.00670545
0.0066963
0.00668683
0.00667705
0.00666697
0.00665657
0.00664586
0.00663485
0.00662353
0.00661191
0.00659998
0.00658773
0.00657518
0.00656232
0.00654914
0.00653564
0.00652182
0.00650768
0.00649321
0.0064784
0.00646326
0.00644778
0.00643194
0.00641576
0.00639921
0.0063823
0.00636502
0.00634737
0.00632932
0.00631089
0.00629206
0.00627282
0.00625318
0.00623311
0.00621261
0.00619168
0.00617031
0.00614848
0.00612619
0.00610344
0.00608021
0.0060565
0.00603229
0.00600758
0.00598236
0.00595662
0.00593035
0.00590354
0.00587618
0.00584827
0.0058198
0.00579075
0.00576111
0.00573088
0.00570004
0.00566859
0.00563651
0.00560379
0.00557043
0.00553641
0.00550172
0.00546634
0.00543027
0.0053935
0.005356
0.00531776
0.00527878
0.00523903
0.00519849
0.00515716
0.00511501
0.00507202
0.00502817
0.00498343
0.00493779
0.00489122
0.00484368
0.00479515
0.00474559
0.00469496
0.00464323
0.00459034
0.00453624
0.00448088
0.00442419
0.00436611
0.00430654
0.00424539
0.00418256
0.00411791
0.0040513
0.00398254
0.00391142
0.00383766
0.00376098
0.00368114
0.00359781
0.00351054
0.00341878
0.00332187
0.00321889
0.00310871
0.00298978
0.00285998
0.00271631
0.00255479
0.00237093
0.00215727
0.00190235
0.00158803
0.00118482
0.000649805
7.10826e-05
0.000100426
0.000918685
0.00163442
0.00217098
0.0025927
0.00294166
0.00324081
0.00350357
0.00373802
0.0039496
0.00414233
0.00431915
0.00448226
0.00463338
0.00477389
0.0049049
0.00502735
0.00514201
0.00524957
0.00535058
0.00544557
0.00553496
0.00561916
0.00569852
0.00577336
0.00584395
0.00591056
0.00597343
0.00603277
0.00608879
0.00614165
0.00619154
0.00623861
0.006283
0.00632485
0.00636428
0.00640141
0.00643634
0.00646918
0.00650001
0.00652892
0.00655599
0.00658126
0.00660474
0.00662642
0.00664634
0.00666468
0.00668159
0.00669718
0.00671151
0.00672467
0.00673672
0.0067477
0.00675766
0.00676666
0.00677472
0.00678189
0.00678821
0.00679371
0.00679842
0.00680238
0.00680562
0.00680816
0.00681003
0.00681126
0.00681186
0.00681188
0.00681132
0.00681021
0.00680857
0.00680642
0.00680378
0.00680066
0.00679707
0.00679304
0.00678858
0.0067837
0.00677842
0.00677274
0.00676668
0.00676025
0.00675345
0.0067463
0.0067388
0.00673096
0.00672278
0.00671428
0.00670545
0.0066963
0.00668683
0.00667706
0.00666697
0.00665657
0.00664587
0.00663485
0.00662354
0.00661191
0.00659998
0.00658774
0.00657518
0.00656232
0.00654914
0.00653564
0.00652182
0.00650768
0.00649321
0.0064784
0.00646326
0.00644778
0.00643194
0.00641576
0.00639921
0.0063823
0.00636502
0.00634737
0.00632932
0.00631089
0.00629206
0.00627282
0.00625318
0.00623311
0.00621261
0.00619168
0.00617031
0.00614848
0.00612619
0.00610344
0.00608021
0.0060565
0.00603229
0.00600758
0.00598236
0.00595662
0.00593035
0.00590354
0.00587619
0.00584827
0.0058198
0.00579075
0.00576111
0.00573088
0.00570004
0.00566859
0.00563651
0.00560379
0.00557043
0.00553641
0.00550172
0.00546634
0.00543027
0.0053935
0.005356
0.00531776
0.00527878
0.00523903
0.00519849
0.00515716
0.00511501
0.00507202
0.00502817
0.00498343
0.00493779
0.00489122
0.00484368
0.00479515
0.00474559
0.00469496
0.00464323
0.00459034
0.00453624
0.00448088
0.00442419
0.00436611
0.00430654
0.00424539
0.00418256
0.00411791
0.0040513
0.00398254
0.00391142
0.00383766
0.00376098
0.00368114
0.00359781
0.00351054
0.00341879
0.00332187
0.00321889
0.00310871
0.00298978
0.00285998
0.00271631
0.00255479
0.00237093
0.00215727
0.00190235
0.00158802
0.00118482
0.000649807
7.1084e-05
0.000113682
0.00111148
0.00209199
0.00287107
0.00350648
0.0040421
0.00450549
0.00491428
0.0052801
0.00561098
0.00591273
0.0061897
0.00644518
0.00668179
0.00690162
0.00710639
0.00729753
0.00747627
0.00764366
0.00780062
0.00794795
0.00808636
0.00821651
0.00833897
0.00845426
0.00856287
0.00866522
0.00876172
0.00885273
0.00893859
0.0090196
0.00909606
0.00916823
0.00923635
0.00930065
0.00936134
0.00941861
0.00947263
0.00952358
0.0095716
0.00961683
0.00965938
0.00969936
0.00973684
0.00977186
0.00980453
0.00983501
0.00986346
0.00989001
0.00991477
0.00993784
0.00995931
0.00997925
0.00999773
0.0100148
0.0100306
0.0100451
0.0100583
0.0100704
0.0100814
0.0100913
0.0101001
0.0101079
0.0101148
0.0101207
0.0101257
0.0101298
0.0101331
0.0101356
0.0101373
0.0101383
0.0101385
0.010138
0.0101368
0.0101349
0.0101323
0.0101292
0.0101254
0.0101209
0.0101159
0.0101103
0.0101042
0.0100975
0.0100902
0.0100824
0.010074
0.0100652
0.0100558
0.0100459
0.0100354
0.0100245
0.0100131
0.0100012
0.00998871
0.00997578
0.00996234
0.0099484
0.00993395
0.009919
0.00990354
0.00988756
0.00987107
0.00985406
0.00983652
0.00981845
0.00979984
0.00978069
0.00976098
0.00974071
0.00971988
0.00969847
0.00967648
0.0096539
0.00963071
0.00960691
0.00958249
0.00955743
0.00953173
0.00950538
0.00947836
0.00945066
0.00942227
0.00939318
0.00936338
0.00933285
0.00930159
0.00926957
0.00923678
0.00920322
0.00916886
0.0091337
0.00909772
0.0090609
0.00902323
0.00898469
0.00894528
0.00890497
0.00886374
0.00882159
0.0087785
0.00873444
0.00868941
0.00864337
0.00859633
0.00854824
0.00849911
0.00844889
0.00839759
0.00834516
0.0082916
0.00823687
0.00818096
0.00812382
0.00806545
0.0080058
0.00794486
0.00788257
0.00781892
0.00775386
0.00768735
0.00761935
0.00754982
0.0074787
0.00740594
0.00733149
0.00725527
0.00717722
0.00709726
0.0070153
0.00693126
0.00684501
0.00675646
0.00666545
0.00657185
0.00647548
0.00637614
0.0062736
0.00616761
0.00605784
0.00594393
0.00582546
0.00570195
0.00557287
0.00543758
0.00529526
0.00514493
0.00498534
0.00481492
0.0046317
0.00443313
0.00421585
0.00397543
0.00370602
0.00340033
0.00304804
0.00263445
0.00213882
0.00153295
0.000791084
8.09323e-05
0.000113682
0.00111148
0.002092
0.00287109
0.00350651
0.00404213
0.00450551
0.00491431
0.00528013
0.005611
0.00591276
0.00618972
0.0064452
0.00668181
0.00690164
0.00710641
0.00729755
0.00747629
0.00764368
0.00780064
0.00794796
0.00808638
0.00821653
0.00833898
0.00845428
0.00856288
0.00866523
0.00876173
0.00885274
0.0089386
0.00901961
0.00909607
0.00916824
0.00923636
0.00930066
0.00936135
0.00941862
0.00947264
0.00952359
0.00957161
0.00961684
0.00965939
0.00969937
0.00973684
0.00977187
0.00980453
0.00983502
0.00986347
0.00989001
0.00991477
0.00993784
0.00995931
0.00997925
0.00999773
0.0100148
0.0100306
0.0100451
0.0100583
0.0100704
0.0100814
0.0100913
0.0101001
0.0101079
0.0101148
0.0101207
0.0101257
0.0101298
0.0101331
0.0101356
0.0101373
0.0101383
0.0101385
0.010138
0.0101368
0.0101349
0.0101323
0.0101292
0.0101254
0.0101209
0.0101159
0.0101103
0.0101042
0.0100975
0.0100902
0.0100824
0.010074
0.0100652
0.0100558
0.0100459
0.0100354
0.0100245
0.0100131
0.0100012
0.00998871
0.00997578
0.00996234
0.0099484
0.00993395
0.009919
0.00990354
0.00988756
0.00987107
0.00985406
0.00983652
0.00981845
0.00979984
0.00978068
0.00976098
0.00974071
0.00971988
0.00969847
0.00967648
0.0096539
0.00963071
0.00960691
0.00958248
0.00955743
0.00953173
0.00950538
0.00947836
0.00945066
0.00942227
0.00939318
0.00936338
0.00933285
0.00930159
0.00926957
0.00923678
0.00920322
0.00916886
0.0091337
0.00909771
0.00906089
0.00902322
0.00898469
0.00894528
0.00890496
0.00886374
0.00882159
0.0087785
0.00873444
0.0086894
0.00864337
0.00859632
0.00854824
0.0084991
0.00844889
0.00839759
0.00834516
0.0082916
0.00823687
0.00818095
0.00812382
0.00806545
0.0080058
0.00794485
0.00788257
0.00781892
0.00775385
0.00768735
0.00761935
0.00754982
0.0074787
0.00740594
0.00733149
0.00725527
0.00717722
0.00709726
0.0070153
0.00693125
0.00684501
0.00675645
0.00666545
0.00657185
0.00647547
0.00637613
0.0062736
0.0061676
0.00605783
0.00594393
0.00582546
0.00570195
0.00557287
0.00543758
0.00529526
0.00514492
0.00498534
0.00481492
0.0046317
0.00443313
0.00421585
0.00397543
0.00370602
0.00340033
0.00304803
0.00263445
0.00213882
0.00153295
0.000791085
8.09327e-05
0.000124459
0.00124243
0.00241954
0.00339486
0.00421027
0.0049077
0.00551648
0.00605664
0.00654204
0.00698255
0.00738537
0.00775594
0.00809843
0.00841616
0.00871177
0.00898747
0.00924508
0.00948619
0.00971214
0.00992412
0.0101232
0.0103103
0.0104862
0.0106518
0.0108077
0.0109546
0.0110931
0.0112236
0.0113468
0.0114631
0.0115728
0.0116764
0.0117743
0.0118669
0.0119543
0.0120369
0.012115
0.0121889
0.0122587
0.0123247
0.012387
0.0124459
0.0125014
0.0125538
0.0126031
0.0126494
0.012693
0.012734
0.0127726
0.0128089
0.012843
0.012875
0.0129051
0.0129333
0.0129597
0.0129845
0.0130075
0.013029
0.013049
0.0130676
0.0130847
0.0131006
0.0131151
0.0131284
0.0131404
0.0131514
0.0131611
0.0131698
0.0131775
0.0131841
0.0131897
0.0131944
0.0131981
0.0132009
0.0132028
0.0132039
0.0132041
0.0132034
0.013202
0.0131998
0.0131967
0.0131929
0.0131884
0.0131831
0.0131771
0.0131703
0.0131628
0.0131547
0.0131458
0.0131362
0.0131259
0.0131149
0.0131032
0.0130908
0.0130777
0.0130639
0.0130495
0.0130343
0.0130184
0.0130018
0.0129845
0.0129665
0.0129477
0.0129283
0.012908
0.012887
0.0128653
0.0128428
0.0128195
0.0127954
0.0127706
0.0127449
0.0127184
0.012691
0.0126628
0.0126338
0.0126038
0.012573
0.0125412
0.0125086
0.012475
0.0124404
0.0124049
0.0123683
0.0123308
0.0122923
0.0122527
0.012212
0.0121703
0.0121274
0.0120835
0.0120384
0.0119921
0.0119447
0.0118961
0.0118462
0.0117951
0.0117428
0.0116891
0.0116341
0.0115778
0.0115201
0.0114611
0.0114006
0.0113386
0.0112752
0.0112102
0.0111438
0.0110757
0.0110061
0.0109348
0.0108618
0.0107871
0.0107106
0.0106323
0.0105522
0.0104701
0.0103861
0.0103001
0.010212
0.0101217
0.0100293
0.00993451
0.00983739
0.00973781
0.00963567
0.00953086
0.00942328
0.00931277
0.00919921
0.00908244
0.00896227
0.00883851
0.00871092
0.00857926
0.00844322
0.00830247
0.00815663
0.00800523
0.00784776
0.00768361
0.00751208
0.00733236
0.00714346
0.00694422
0.00673319
0.00650861
0.00626827
0.00600946
0.00572872
0.00542167
0.00508279
0.00470495
0.00427895
0.00379326
0.00323226
0.00257595
0.00180115
0.000898751
8.87995e-05
0.000124459
0.00124244
0.00241956
0.00339488
0.0042103
0.00490773
0.00551651
0.00605667
0.00654208
0.00698258
0.0073854
0.00775597
0.00809846
0.00841618
0.0087118
0.00898749
0.00924511
0.00948622
0.00971216
0.00992414
0.0101232
0.0103103
0.0104862
0.0106518
0.0108077
0.0109546
0.0110931
0.0112236
0.0113468
0.0114631
0.0115728
0.0116765
0.0117744
0.0118669
0.0119543
0.0120369
0.0121151
0.0121889
0.0122587
0.0123247
0.012387
0.0124459
0.0125014
0.0125538
0.0126031
0.0126494
0.012693
0.012734
0.0127726
0.0128089
0.012843
0.012875
0.0129051
0.0129333
0.0129597
0.0129845
0.0130075
0.013029
0.013049
0.0130676
0.0130847
0.0131006
0.0131151
0.0131284
0.0131405
0.0131514
0.0131611
0.0131698
0.0131775
0.0131841
0.0131897
0.0131944
0.0131981
0.0132009
0.0132028
0.0132039
0.0132041
0.0132034
0.013202
0.0131998
0.0131967
0.0131929
0.0131884
0.0131831
0.0131771
0.0131703
0.0131628
0.0131547
0.0131458
0.0131362
0.0131259
0.0131149
0.0131032
0.0130908
0.0130777
0.0130639
0.0130495
0.0130343
0.0130184
0.0130018
0.0129845
0.0129665
0.0129477
0.0129283
0.012908
0.012887
0.0128653
0.0128428
0.0128195
0.0127954
0.0127706
0.0127449
0.0127184
0.012691
0.0126628
0.0126338
0.0126038
0.012573
0.0125412
0.0125086
0.012475
0.0124404
0.0124049
0.0123683
0.0123308
0.0122922
0.0122527
0.012212
0.0121703
0.0121274
0.0120835
0.0120384
0.0119921
0.0119447
0.0118961
0.0118462
0.0117951
0.0117428
0.0116891
0.0116341
0.0115778
0.0115201
0.0114611
0.0114006
0.0113386
0.0112752
0.0112102
0.0111438
0.0110757
0.0110061
0.0109348
0.0108618
0.0107871
0.0107106
0.0106323
0.0105522
0.0104701
0.0103861
0.0103001
0.010212
0.0101217
0.0100293
0.00993451
0.00983739
0.00973781
0.00963567
0.00953086
0.00942327
0.00931277
0.00919921
0.00908244
0.00896227
0.0088385
0.00871092
0.00857925
0.00844322
0.00830247
0.00815662
0.00800522
0.00784775
0.00768361
0.00751208
0.00733235
0.00714346
0.00694422
0.00673319
0.0065086
0.00626827
0.00600946
0.00572872
0.00542167
0.00508279
0.00470495
0.00427895
0.00379326
0.00323226
0.00257595
0.00180115
0.00089875
8.87996e-05
0.000133585
0.00134604
0.00267328
0.00380585
0.00477013
0.00560456
0.00633866
0.00699366
0.00758482
0.00812323
0.00861713
0.00907277
0.00949499
0.00988762
0.0102538
0.0105959
0.0109163
0.0112167
0.0114987
0.0117637
0.0120129
0.0122474
0.0124682
0.0126763
0.0128724
0.0130574
0.0132319
0.0133966
0.0135522
0.0136991
0.0138379
0.0139692
0.0140933
0.0142108
0.0143219
0.0144271
0.0145266
0.0146209
0.0147102
0.0147948
0.0148749
0.0149507
0.0150225
0.0150905
0.0151547
0.0152155
0.0152729
0.0153272
0.0153785
0.0154271
0.0154729
0.0155163
0.0155573
0.015596
0.0156326
0.015667
0.0156995
0.0157301
0.0157589
0.0157859
0.0158112
0.0158349
0.015857
0.0158776
0.0158968
0.0159145
0.0159309
0.015946
0.0159597
0.0159723
0.0159836
0.0159937
0.0160027
0.0160106
0.0160174
0.0160231
0.0160277
0.0160314
0.016034
0.0160356
0.0160363
0.016036
0.0160348
0.0160327
0.0160296
0.0160256
0.0160207
0.0160149
0.0160083
0.0160007
0.0159922
0.0159829
0.0159727
0.0159616
0.0159496
0.0159368
0.015923
0.0159084
0.0158928
0.0158764
0.015859
0.0158407
0.0158215
0.0158013
0.0157802
0.0157582
0.0157352
0.0157111
0.0156861
0.0156601
0.0156331
0.015605
0.0155759
0.0155457
0.0155144
0.015482
0.0154485
0.0154138
0.015378
0.015341
0.0153028
0.0152633
0.0152227
0.0151808
0.0151375
0.015093
0.0150472
0.015
0.0149514
0.0149014
0.0148499
0.014797
0.0147427
0.0146868
0.0146294
0.0145704
0.0145098
0.0144476
0.0143837
0.0143181
0.0142508
0.0141817
0.0141109
0.0140382
0.0139636
0.0138871
0.0138087
0.0137282
0.0136458
0.0135612
0.0134745
0.0133856
0.0132944
0.013201
0.0131052
0.0130069
0.0129062
0.0128029
0.0126969
0.0125882
0.0124767
0.0123622
0.0122448
0.0121242
0.0120004
0.0118731
0.0117424
0.0116079
0.0114696
0.0113272
0.0111806
0.0110294
0.0108734
0.0107124
0.0105459
0.0103735
0.0101949
0.0100095
0.00981672
0.00961584
0.00940609
0.00918655
0.00895612
0.00871354
0.00845725
0.00818542
0.00789579
0.00758563
0.00725159
0.00688953
0.00649431
0.00605957
0.00557734
0.0050376
0.00442832
0.0037343
0.00293755
0.00202038
0.000987149
9.54426e-05
0.000133586
0.00134605
0.0026733
0.00380587
0.00477016
0.00560459
0.00633869
0.0069937
0.00758486
0.00812327
0.00861717
0.00907281
0.00949503
0.00988765
0.0102538
0.010596
0.0109164
0.0112167
0.0114987
0.0117637
0.0120129
0.0122474
0.0124682
0.0126763
0.0128724
0.0130574
0.0132319
0.0133966
0.0135522
0.0136991
0.013838
0.0139692
0.0140934
0.0142108
0.0143219
0.0144271
0.0145266
0.0146209
0.0147102
0.0147948
0.0148749
0.0149508
0.0150226
0.0150905
0.0151548
0.0152155
0.0152729
0.0153272
0.0153785
0.0154271
0.015473
0.0155163
0.0155573
0.015596
0.0156326
0.0156671
0.0156995
0.0157301
0.0157589
0.0157859
0.0158112
0.0158349
0.015857
0.0158776
0.0158968
0.0159145
0.0159309
0.015946
0.0159597
0.0159723
0.0159836
0.0159937
0.0160027
0.0160106
0.0160174
0.0160231
0.0160277
0.0160314
0.016034
0.0160356
0.0160363
0.016036
0.0160348
0.0160327
0.0160296
0.0160256
0.0160207
0.0160149
0.0160083
0.0160007
0.0159922
0.0159829
0.0159727
0.0159616
0.0159496
0.0159368
0.015923
0.0159084
0.0158928
0.0158764
0.015859
0.0158407
0.0158215
0.0158013
0.0157802
0.0157582
0.0157352
0.0157111
0.0156861
0.0156601
0.0156331
0.015605
0.0155759
0.0155457
0.0155144
0.015482
0.0154485
0.0154138
0.015378
0.015341
0.0153028
0.0152633
0.0152227
0.0151808
0.0151375
0.015093
0.0150472
0.0149999
0.0149514
0.0149014
0.0148499
0.014797
0.0147427
0.0146868
0.0146294
0.0145704
0.0145098
0.0144476
0.0143837
0.0143181
0.0142508
0.0141817
0.0141109
0.0140382
0.0139636
0.0138871
0.0138087
0.0137282
0.0136458
0.0135612
0.0134745
0.0133856
0.0132944
0.013201
0.0131052
0.0130069
0.0129062
0.0128028
0.0126969
0.0125882
0.0124767
0.0123622
0.0122448
0.0121242
0.0120004
0.0118731
0.0117424
0.0116079
0.0114696
0.0113272
0.0111806
0.0110294
0.0108734
0.0107124
0.0105459
0.0103735
0.0101949
0.0100095
0.00981671
0.00961583
0.00940609
0.00918654
0.00895612
0.00871353
0.00845725
0.00818541
0.00789578
0.00758563
0.00725159
0.00688952
0.00649431
0.00605957
0.00557734
0.0050376
0.00442832
0.0037343
0.00293755
0.00202038
0.000987147
9.54427e-05
0.000141658
0.00143465
0.00288246
0.00414267
0.0052302
0.00618005
0.00702126
0.00777561
0.00845919
0.00908393
0.00965882
0.0101907
0.0106849
0.0111457
0.0115765
0.01198
0.0123588
0.0127147
0.0130495
0.0133647
0.0136618
0.0139418
0.014206
0.0144553
0.0146907
0.014913
0.0151231
0.0153217
0.0155094
0.015687
0.015855
0.016014
0.0161646
0.0163073
0.0164424
0.0165705
0.016692
0.0168072
0.0169165
0.0170201
0.0171185
0.0172118
0.0173004
0.0173845
0.0174642
0.0175399
0.0176116
0.0176797
0.0177443
0.0178057
0.0178639
0.0179191
0.0179716
0.0180213
0.0180686
0.0181133
0.0181558
0.018196
0.0182341
0.0182701
0.0183042
0.0183363
0.0183666
0.0183952
0.018422
0.0184472
0.0184708
0.0184929
0.0185134
0.0185325
0.0185502
0.0185664
0.0185814
0.018595
0.0186073
0.0186184
0.0186283
0.0186369
0.0186444
0.0186506
0.0186558
0.0186598
0.0186627
0.0186644
0.0186651
0.0186647
0.0186632
0.0186606
0.018657
0.0186523
0.0186466
0.0186397
0.0186319
0.0186229
0.0186129
0.0186018
0.0185897
0.0185765
0.0185621
0.0185467
0.0185302
0.0185126
0.0184938
0.0184739
0.0184529
0.0184307
0.0184073
0.0183828
0.018357
0.01833
0.0183017
0.0182722
0.0182415
0.0182094
0.018176
0.0181412
0.0181051
0.0180676
0.0180287
0.0179884
0.0179466
0.0179033
0.0178585
0.0178122
0.0177643
0.0177148
0.0176637
0.0176109
0.0175565
0.0175004
0.0174425
0.0173828
0.0173213
0.017258
0.0171928
0.0171257
0.0170566
0.0169856
0.0169125
0.0168373
0.01676
0.0166806
0.016599
0.0165151
0.0164289
0.0163403
0.0162493
0.0161559
0.01606
0.0159615
0.0158603
0.0157565
0.0156498
0.0155404
0.015428
0.0153125
0.015194
0.0150723
0.0149473
0.0148189
0.014687
0.0145515
0.0144122
0.014269
0.0141218
0.0139703
0.0138144
0.0136539
0.0134886
0.0133182
0.0131425
0.012961
0.0127736
0.0125799
0.0123793
0.0121714
0.0119556
0.0117314
0.0114979
0.0112543
0.0109997
0.0107329
0.0104526
0.0101572
0.00984483
0.00951331
0.00915998
0.00878165
0.00837446
0.00793375
0.00745385
0.00692783
0.00634729
0.00570203
0.00497983
0.00416652
0.00324641
0.00220691
0.00106295
0.000101254
0.000141658
0.00143466
0.00288248
0.0041427
0.00523023
0.00618008
0.00702129
0.00777564
0.00845922
0.00908397
0.00965886
0.0101907
0.010685
0.0111457
0.0115765
0.0119801
0.0123588
0.0127147
0.0130495
0.0133647
0.0136618
0.0139418
0.014206
0.0144553
0.0146907
0.0149131
0.0151231
0.0153217
0.0155094
0.015687
0.015855
0.0160141
0.0161647
0.0163073
0.0164425
0.0165706
0.016692
0.0168072
0.0169165
0.0170201
0.0171185
0.0172119
0.0173004
0.0173845
0.0174642
0.0175399
0.0176116
0.0176797
0.0177443
0.0178057
0.0178639
0.0179191
0.0179716
0.0180214
0.0180686
0.0181134
0.0181558
0.018196
0.0182341
0.0182701
0.0183042
0.0183363
0.0183666
0.0183952
0.018422
0.0184472
0.0184708
0.0184929
0.0185134
0.0185325
0.0185502
0.0185665
0.0185814
0.018595
0.0186073
0.0186184
0.0186283
0.0186369
0.0186444
0.0186506
0.0186558
0.0186598
0.0186627
0.0186644
0.0186651
0.0186647
0.0186632
0.0186606
0.018657
0.0186523
0.0186466
0.0186397
0.0186319
0.0186229
0.0186129
0.0186018
0.0185897
0.0185765
0.0185621
0.0185467
0.0185302
0.0185126
0.0184938
0.0184739
0.0184529
0.0184307
0.0184073
0.0183828
0.018357
0.01833
0.0183017
0.0182722
0.0182414
0.0182094
0.018176
0.0181412
0.0181051
0.0180676
0.0180287
0.0179884
0.0179466
0.0179033
0.0178585
0.0178122
0.0177643
0.0177148
0.0176637
0.0176109
0.0175565
0.0175004
0.0174425
0.0173828
0.0173213
0.017258
0.0171928
0.0171257
0.0170566
0.0169856
0.0169125
0.0168373