/*--------------------------------*- C++ -*----------------------------------*\
  =========                 |
  \\      /  F ield         | OpenFOAM: The Open Source CFD Toolbox
   \\    /   O peration     | Website:  https://openfoam.org
    \\  /    A nd           | Version:  8
     \\/     M anipulation  |
\*---------------------------------------------------------------------------*/
FoamFile
{
    version     2.0;
    format      ascii;
    class       volScalarField;
    location    "4300";
    object      epsilon;
}
// * * * * * * * * * * * * * * * * * * * * * * * * * * * * * * * * * * * * * //

dimensions      [0 2 -3 0 0 0 0];

internalField   nonuniform List<scalar> 
48000
(
1.67301
6.48693
12.3193
18.3233
24.6177
30.9514
37.2652
43.5379
49.851
56.2491
62.6364
69.0331
75.4283
81.8128
88.1776
94.5129
100.808
107.053
113.237
119.347
125.374
131.305
137.13
142.838
148.419
153.862
159.16
164.304
169.285
174.098
178.735
183.192
187.463
191.546
195.438
199.136
202.639
205.947
209.059
211.978
214.703
217.237
219.582
221.74
223.729
225.576
227.253
228.759
230.099
231.278
232.303
233.18
233.913
234.51
234.976
235.318
235.54
235.649
235.65
235.549
235.351
235.061
234.686
234.228
233.694
233.088
232.414
231.676
230.879
230.025
229.12
228.165
227.165
226.122
225.04
223.92
222.766
221.579
220.363
219.118
217.847
216.552
215.233
213.894
212.534
211.155
209.759
208.346
206.917
205.473
204.015
202.544
201.059
199.561
198.052
196.53
194.997
193.453
191.898
190.332
188.755
187.167
185.569
183.96
182.34
180.71
179.068
177.416
175.753
174.078
172.392
170.695
168.987
167.267
165.534
163.791
162.035
160.266
158.486
156.693
154.888
153.07
151.239
149.396
147.54
145.672
143.791
141.897
139.991
138.072
136.141
134.198
132.243
130.276
128.298
126.308
124.307
122.296
120.275
118.244
116.203
114.153
112.095
110.029
107.956
105.876
103.79
101.698
99.6015
97.5008
95.3967
93.2899
91.1811
89.0712
86.961
84.8512
82.7427
80.6363
78.5329
76.4332
74.3382
72.2486
70.1653
68.0892
66.021
63.9615
61.9115
59.8718
57.8431
55.8261
53.8215
51.8298
49.8517
47.8876
45.9381
44.0035
42.0842
40.1807
38.2934
36.4246
34.5765
32.7588
30.9562
29.1646
27.3844
25.6135
23.8509
22.0946
20.3424
18.5913
16.8378
15.0854
13.3355
11.5708
9.78248
7.95952
6.08691
4.14484
2.11056
0.216644
1.67305
6.48698
12.3194
18.3234
24.6178
30.9516
37.2653
43.538
49.8511
56.2492
62.6365
69.0332
75.4284
81.813
88.1778
94.5131
100.809
107.054
113.237
119.347
125.374
131.305
137.13
142.838
148.419
153.863
159.161
164.304
169.286
174.098
178.735
183.192
187.463
191.547
195.438
199.136
202.639
205.947
209.06
211.978
214.703
217.237
219.582
221.74
223.73
225.576
227.253
228.759
230.099
231.278
232.303
233.18
233.913
234.51
234.976
235.318
235.54
235.648
235.65
235.549
235.351
235.061
234.686
234.228
233.694
233.088
232.414
231.676
230.879
230.025
229.12
228.165
227.165
226.122
225.04
223.92
222.766
221.579
220.363
219.118
217.847
216.552
215.233
213.894
212.534
211.155
209.759
208.346
206.917
205.473
204.015
202.544
201.059
199.561
198.052
196.53
194.997
193.453
191.898
190.332
188.755
187.167
185.569
183.96
182.34
180.71
179.068
177.416
175.753
174.078
172.392
170.695
168.987
167.267
165.534
163.791
162.035
160.266
158.486
156.693
154.888
153.07
151.239
149.396
147.54
145.672
143.791
141.897
139.991
138.072
136.141
134.198
132.243
130.276
128.298
126.308
124.307
122.296
120.275
118.244
116.203
114.153
112.095
110.029
107.956
105.876
103.79
101.698
99.6015
97.5008
95.3967
93.2899
91.1811
89.0712
86.961
84.8512
82.7427
80.6363
78.5329
76.4332
74.3382
72.2486
70.1653
68.0892
66.021
63.9615
61.9115
59.8718
57.8431
55.8261
53.8215
51.8298
49.8517
47.8876
45.9381
44.0035
42.0842
40.1807
38.2934
36.4246
34.5765
32.7588
30.9562
29.1646
27.3844
25.6135
23.8509
22.0946
20.3424
18.5913
16.8378
15.0854
13.3355
11.5708
9.78249
7.95954
6.08695
4.14489
2.11049
0.216638
7.74841
6.62419
8.46766
10.7161
13.1586
15.698
18.2959
20.9131
23.56
26.2408
28.9457
31.6726
34.4182
37.1786
39.9497
42.7268
45.5049
48.2785
51.0421
53.7895
56.5149
59.2118
61.8742
64.496
67.071
69.5935
72.0579
74.459
76.7918
79.0517
81.2347
83.3369
85.3552
87.2867
89.1292
90.8807
92.5399
94.1057
95.5777
96.9557
98.2399
99.4312
100.531
101.541
102.468
103.316
104.083
104.766
105.369
105.893
106.34
106.714
107.017
107.253
107.424
107.533
107.584
107.579
107.522
107.415
107.261
107.063
106.823
106.545
106.23
105.881
105.5
105.089
104.651
104.187
103.7
103.19
102.66
102.111
101.545
100.963
100.366
99.756
99.1331
98.4988
97.8539
97.1994
96.536
95.8644
95.1853
94.4992
93.8068
93.1085
92.4048
91.6959
90.9823
90.2643
89.5421
88.8159
88.086
87.3525
86.6155
85.8752
85.1315
84.3847
83.6346
82.8814
82.125
81.3655
80.6027
79.8367
79.0675
78.2949
77.519
76.7396
75.9567
75.1701
74.38
73.586
72.7883
71.9866
71.181
70.3714
69.5577
68.7398
67.9176
67.0913
66.2606
65.4256
64.5862
63.7425
62.8944
62.0419
61.1851
60.324
59.4586
58.5891
57.7153
56.8375
55.9557
55.0701
54.1808
53.2878
52.3914
51.4918
50.589
49.6834
48.7751
47.8643
46.9512
46.0362
45.1195
44.2014
43.282
42.3619
41.4411
40.5201
39.5993
38.6788
37.7591
36.8405
35.9233
35.008
34.0948
33.1841
32.2763
31.3717
30.4707
29.5736
28.6808
27.7925
26.9092
26.0311
25.1586
24.2918
23.4311
22.5768
21.729
20.888
20.054
19.2271
18.4074
17.5953
16.7909
15.9945
15.2068
14.4283
13.6571
12.8918
12.1336
11.3815
10.6349
9.89349
9.1567
8.42416
7.69589
6.97359
6.25725
5.54425
4.83418
4.12871
3.43446
2.77335
2.23083
2.5952
7.7485
6.62417
8.46762
10.716
13.1585
15.6979
18.2959
20.913
23.5599
26.2406
28.9456
31.6725
34.4181
37.1785
39.9496
42.7267
45.5047
48.2784
51.0419
53.7894
56.5147
59.2117
61.8741
64.4958
67.0708
69.5933
72.0578
74.4588
76.7916
79.0515
81.2345
83.3367
85.355
87.2865
89.129
90.8805
92.5397
94.1055
95.5775
96.9555
98.2397
99.431
100.53
101.541
102.467
103.316
104.082
104.766
105.369
105.893
106.34
106.714
107.017
107.252
107.423
107.533
107.584
107.579
107.522
107.415
107.261
107.063
106.823
106.544
106.229
105.88
105.499
105.089
104.651
104.187
103.699
103.19
102.66
102.111
101.545
100.963
100.366
99.7558
99.1329
98.4986
97.8537
97.1992
96.5358
95.8642
95.1851
94.499
93.8066
93.1083
92.4046
91.6957
90.9821
90.2641
89.5419
88.8158
88.0858
87.3523
86.6153
85.875
85.1313
84.3845
83.6344
82.8812
82.1248
81.3653
80.6025
79.8366
79.0673
78.2948
77.5188
76.7394
75.9565
75.17
74.3798
73.5859
72.7881
71.9865
71.1809
70.3712
69.5575
68.7396
67.9175
67.0911
66.2605
65.4255
64.5861
63.7424
62.8943
62.0418
61.185
60.3239
59.4585
58.5889
57.7152
56.8374
55.9556
55.07
54.1807
53.2877
52.3913
51.4917
50.5889
49.6833
48.775
47.8642
46.9511
46.0361
45.1194
44.2013
43.2819
42.3618
41.441
40.5201
39.5992
38.6787
37.759
36.8404
35.9232
35.0079
34.0947
33.184
32.2762
31.3716
30.4706
29.5735
28.6807
27.7925
26.9092
26.0311
25.1585
24.2918
23.4311
22.5767
21.729
20.888
20.0539
19.227
18.4074
17.5952
16.7908
15.9945
15.2068
14.4283
13.657
12.8918
12.1336
11.3815
10.6349
9.89346
9.15668
8.42414
7.69587
6.97357
6.25724
5.54424
4.83417
4.1287
3.43447
2.77335
2.23084
2.59533
14.4296
8.88153
9.38003
10.7065
12.319
14.0779
15.9256
17.8312
19.7818
21.77
23.7892
25.8348
27.9026
29.9889
32.0898
34.2015
36.3198
38.4403
40.5585
42.6695
44.7684
46.8501
48.9097
50.9419
52.9418
54.9044
56.8249
58.6989
60.5218
62.2898
63.9991
65.6463
67.2283
68.7426
70.1869
71.5593
72.8584
74.083
75.2325
76.3064
77.3049
78.2285
79.0779
79.8549
80.562
81.2014
81.7732
82.2782
82.7175
83.0929
83.4065
83.6605
83.8571
83.999
84.0884
84.128
84.1203
84.0677
83.9726
83.8377
83.665
83.4571
83.2161
82.9443
82.6435
82.316
81.9635
81.5879
81.191
80.7743
80.3395
79.888
79.4211
78.9403
78.4466
77.9412
77.4251
76.8994
76.365
75.8226
75.273
74.717
74.1552
73.5882
73.0164
72.4404
71.8607
71.2776
70.6914
70.1025
69.5111
68.9175
68.3218
67.7244
67.1252
66.5244
65.9221
65.3184
64.7134
64.1071
63.4994
62.8905
62.2803
61.6689
61.056
60.4419
59.8263
59.2093
58.5907
57.9706
57.3489
56.7255
56.1003
55.4733
54.8444
54.2136
53.5807
52.9457
52.3086
51.6693
51.0278
50.3839
49.7378
49.0893
48.4384
47.7851
47.1294
46.4713
45.8108
45.148
44.4828
43.8152
43.1454
42.4734
41.7992
41.123
40.4448
39.7647
39.0829
38.3994
37.7144
37.028
36.3405
35.6518
34.9623
34.2721
33.5814
32.8904
32.1993
31.5084
30.8178
30.1278
29.4386
28.7505
28.0637
27.3785
26.6951
26.0138
25.3348
24.6585
23.985
23.3147
22.6477
21.9844
21.3249
20.6696
20.0186
19.3722
18.7306
18.094
17.4626
16.8366
16.2162
15.6015
14.9927
14.3899
13.7933
13.2029
12.619
12.0418
11.4713
10.9076
10.3504
9.79947
9.25474
8.71597
8.18353
7.65743
7.13771
6.62473
6.11916
5.62222
5.13556
4.66068
4.20147
3.76629
3.37406
3.07528
3.0642
5.10078
14.4297
8.88149
9.37996
10.7064
12.3189
14.0778
15.9255
17.8311
19.7817
21.7699
23.7891
25.8347
27.9025
29.9887
32.0897
34.2014
36.3197
38.4402
40.5583
42.6693
44.7682
46.85
48.9096
50.9418
52.9417
54.9043
56.8248
58.6987
60.5217
62.2897
63.9989
65.6461
67.2282
68.7425
70.1868
71.5592
72.8583
74.0829
75.2323
76.3063
77.3048
78.2283
79.0778
79.8548
80.5619
81.2013
81.7731
82.2781
82.7174
83.0928
83.4064
83.6603
83.857
83.9988
84.0883
84.1279
84.1202
84.0675
83.9725
83.8375
83.6649
83.457
83.216
82.9441
82.6434
82.3159
81.9634
81.5878
81.1909
80.7742
80.3394
79.8879
79.421
78.9402
78.4465
77.9411
77.425
76.8993
76.3649
75.8225
75.273
74.7169
74.1551
73.5881
73.0163
72.4404
71.8606
71.2775
70.6913
70.1024
69.511
68.9174
68.3218
67.7243
67.1251
66.5243
65.922
65.3184
64.7133
64.107
63.4994
62.8905
62.2803
61.6688
61.056
60.4418
59.8262
59.2092
58.5907
57.9706
57.3489
56.7254
56.1003
55.4733
54.8444
54.2135
53.5806
52.9457
52.3086
51.6693
51.0277
50.3839
49.7377
49.0892
48.4383
47.7851
47.1294
46.4713
45.8108
45.1479
44.4827
43.8152
43.1454
42.4734
41.7992
41.123
40.4448
39.7647
39.0828
38.3994
37.7144
37.028
36.3404
35.6518
34.9623
34.2721
33.5814
32.8904
32.1993
31.5083
30.8177
30.1277
29.4386
28.7504
28.0637
27.3784
26.6951
26.0138
25.3348
24.6585
23.985
23.3146
22.6477
21.9843
21.3249
20.6696
20.0186
19.3722
18.7306
18.094
17.4626
16.8366
16.2162
15.6015
14.9927
14.3899
13.7932
13.2029
12.619
12.0417
11.4713
10.9076
10.3504
9.79946
9.25473
8.71596
8.18353
7.65742
7.13771
6.62473
6.11915
5.62221
5.13556
4.66067
4.20147
3.76629
3.37406
3.07529
3.0642
5.10073
20.9311
11.5445
11.0763
11.8544
13.0543
14.464
15.9991
17.6172
19.2951
21.0184
22.7775
24.5652
26.3761
28.2054
30.0491
31.9031
33.7636
35.6264
37.4877
39.343
41.1883
43.0189
44.8307
46.619
48.3795
50.1078
51.7996
53.4509
55.0578
56.6165
58.1237
59.5762
60.9712
62.3062
63.5789
64.7877
65.9309
67.0075
68.0167
68.9581
69.8315
70.6374
71.3763
72.0494
72.6581
73.204
73.6879
74.111
74.4745
74.7801
75.0295
75.2249
75.3682
75.4617
75.5077
75.5084
75.4661
75.3831
75.2617
75.1041
74.9124
74.6889
74.4356
74.1545
73.8475
73.5165
73.1633
72.7896
72.3969
71.9869
71.5609
71.1203
70.6665
70.2005
69.7236
69.2368
68.7411
68.2373
67.7264
67.209
66.6859
66.1577
65.6251
65.0886
64.5486
64.0057
63.4602
62.9124
62.3627
61.8114
61.2587
60.7048
60.1499
59.5942
59.0378
58.4808
57.9232
57.3653
56.8069
56.2482
55.6891
55.1297
54.57
54.0098
53.4493
52.8884
52.327
51.7651
51.2026
50.6394
50.0756
49.511
48.9456
48.3793
47.8121
47.2439
46.6746
46.1042
45.5326
44.9597
44.3856
43.8102
43.2334
42.6552
42.0756
41.4945
40.912
40.3281
39.7426
39.1558
38.5675
37.9779
37.3868
36.7945
36.2009
35.6062
35.0103
34.4134
33.8155
33.2168
32.6174
32.0174
31.4169
30.816
30.215
29.6139
29.013
28.4124
27.8122
27.2127
26.614
26.0164
25.42
24.8251
24.2318
23.6405
23.0512
22.4642
21.8798
21.298
20.7193
20.1437
19.5716
19.003
18.4383
17.8776
17.3211
16.769
16.2215
15.6788
15.1411
14.6085
14.0811
13.5592
13.0428
12.5322
12.0274
11.5286
11.0359
10.5495
10.0696
9.59605
9.12903
8.66854
8.21468
7.7676
7.32762
6.89506
6.47052
6.05495
5.6495
5.25601
4.87722
4.51726
4.18346
3.88991
3.66701
3.59474
3.98265
7.5503
20.9312
11.5445
11.0762
11.8543
13.0542
14.4639
15.999
17.6171
19.295
21.0183
22.7774
24.5651
26.376
28.2053
30.049
31.903
33.7635
35.6263
37.4875
39.3429
41.1881
43.0188
44.8306
46.6189
48.3794
50.1076
51.7995
53.4508
55.0577
56.6164
58.1236
59.5761
60.9711
62.3061
63.5788
64.7876
65.9308
67.0074
68.0166
68.958
69.8314
70.6373
71.3762
72.0493
72.658
73.2039
73.6879
74.1109
74.4744
74.78
75.0295
75.2248
75.3681
75.4617
75.5076
75.5083
75.466
75.383
75.2616
75.104
74.9124
74.6889
74.4355
74.1544
73.8475
73.5165
73.1633
72.7895
72.3969
71.9868
71.5608
71.1203
70.6664
70.2005
69.7236
69.2368
68.741
68.2373
67.7263
67.2089
66.6858
66.1577
65.6251
65.0886
64.5486
64.0057
63.4601
62.9123
62.3627
61.8113
61.2586
60.7047
60.1499
59.5942
59.0377
58.4807
57.9232
57.3652
56.8069
56.2482
55.6891
55.1297
54.5699
54.0098
53.4493
52.8884
52.327
51.765
51.2025
50.6394
50.0756
49.511
48.9456
48.3793
47.8121
47.2439
46.6746
46.1042
45.5326
44.9597
44.3856
43.8102
43.2334
42.6552
42.0755
41.4945
40.912
40.328
39.7426
39.1558
38.5675
37.9778
37.3868
36.7945
36.2009
35.6062
35.0103
34.4134
33.8155
33.2168
32.6174
32.0174
31.4169
30.816
30.215
29.6139
29.013
28.4123
27.8122
27.2127
26.614
26.0164
25.42
24.8251
24.2318
23.6405
23.0512
22.4642
21.8797
21.298
20.7193
20.1437
19.5716
19.003
18.4383
17.8776
17.3211
16.769
16.2215
15.6788
15.1411
14.6085
14.0811
13.5592
13.0428
12.5322
12.0274
11.5286
11.0359
10.5495
10.0696
9.59605
9.12903
8.66854
8.21468
7.7676
7.32761
6.89506
6.47052
6.05495
5.6495
5.25601
4.87721
4.51726
4.18346
3.88991
3.66701
3.59474
3.98265
7.55028
27.4659
14.4305
13.1052
13.459
14.3786
15.5744
16.9319
18.3947
19.9306
21.5196
23.1481
24.8067
26.4882
28.1868
29.8978
31.617
33.3403
35.0641
36.7844
38.4976
40.1999
41.8874
43.5561
45.2023
46.822
48.4114
49.9667
51.4843
52.9606
54.3923
55.7763
57.1096
58.3898
59.6144
60.7813
61.8889
62.9356
63.9204
64.8425
65.7014
66.4968
67.2291
67.8987
68.5063
69.0531
69.5403
69.9688
70.3399
70.6549
70.9153
71.1229
71.2795
71.3871
71.4476
71.4633
71.4363
71.3686
71.2626
71.1203
70.9438
70.7352
70.4965
70.2298
69.937
69.6198
69.2801
68.9196
68.5399
68.1426
67.7291
67.3009
66.8592
66.4053
65.9404
65.4654
64.9816
64.4897
63.9907
63.4854
62.9745
62.4588
61.9387
61.415
60.8881
60.3585
59.8266
59.2929
58.7576
58.221
57.6835
57.1453
56.6066
56.0675
55.5282
54.9888
54.4494
53.9102
53.3711
52.8322
52.2936
51.7552
51.2171
50.6793
50.1417
49.6043
49.067
48.5299
47.9929
47.4559
46.9189
46.3818
45.8446
45.3071
44.7694
44.2313
43.6928
43.1539
42.6145
42.0745
41.5339
40.9926
40.4506
39.9079
39.3644
38.82
38.2749
37.7289
37.1821
36.6344
36.0858
35.5365
34.9863
34.4354
33.8837
33.3313
32.7784
32.2248
31.6707
31.1163
30.5615
30.0065
29.4513
28.8962
28.3412
27.7864
27.232
26.6782
26.125
25.5727
25.0213
24.4712
23.9223
23.3751
22.8295
22.2858
21.7442
21.2049
20.668
20.1338
19.6024
19.0741
18.5491
18.0275
17.5095
16.9953
16.4851
15.9791
15.4775
14.9804
14.4879
14.0004
13.5178
13.0404
12.5684
12.1018
11.6409
11.1857
10.7364
10.2933
9.85642
9.42597
9.00211
8.58502
8.17489
7.772
7.37672
6.98955
6.61113
6.24239
5.88459
5.53947
5.20972
4.89921
4.61402
4.36464
4.17057
4.07343
4.18272
4.92315
9.97512
27.466
14.4305
13.1051
13.4589
14.3785
15.5743
16.9318
18.3946
19.9305
21.5195
23.148
24.8066
26.4881
28.1867
29.8977
31.6169
33.3402
35.0639
36.7843
38.4975
40.1998
41.8872
43.556
45.2022
46.8219
48.4113
49.9666
51.4842
52.9605
54.3922
55.7762
57.1095
58.3897
59.6143
60.7812
61.8888
62.9355
63.9203
64.8424
65.7013
66.4968
67.229
67.8986
68.5062
69.053
69.5402
69.9688
70.3399
70.6548
70.9153
71.1229
71.2794
71.387
71.4476
71.4633
71.4362
71.3686
71.2625
71.1202
70.9437
70.7351
70.4965
70.2298
69.9369
69.6197
69.2801
68.9196
68.5399
68.1425
67.7291
67.3008
66.8592
66.4053
65.9403
65.4654
64.9816
64.4897
63.9907
63.4854
62.9745
62.4587
61.9387
61.4149
60.888
60.3584
59.8266
59.2928
58.7575
58.221
57.6835
57.1453
56.6065
56.0674
55.5281
54.9887
54.4494
53.9101
53.3711
52.8322
52.2936
51.7552
51.2171
50.6793
50.1416
49.6042
49.067
48.5299
47.9929
47.4559
46.9189
46.3818
45.8445
45.3071
44.7694
44.2313
43.6928
43.1539
42.6145
42.0745
41.5339
40.9926
40.4506
39.9079
39.3644
38.82
38.2749
37.7289
37.1821
36.6344
36.0858
35.5365
34.9863
34.4354
33.8837
33.3313
32.7783
32.2248
31.6707
31.1163
30.5615
30.0065
29.4513
28.8962
28.3412
27.7864
27.232
26.6782
26.125
25.5726
25.0213
24.4712
23.9223
23.3751
22.8295
22.2858
21.7442
21.2048
20.668
20.1338
19.6024
19.0741
18.5491
18.0275
17.5095
16.9953
16.4851
15.9791
15.4775
14.9804
14.4879
14.0004
13.5178
13.0404
12.5684
12.1018
11.6409
11.1857
10.7364
10.2933
9.85642
9.42597
9.00211
8.58502
8.17489
7.772
7.37672
6.98955
6.61113
6.24239
5.88459
5.53947
5.20972
4.89921
4.61402
4.36464
4.17057
4.07343
4.18272
4.92316
9.97512
33.9622
17.4457
15.3313
15.3282
16.0319
17.076
18.3165
19.6825
21.1335
22.6441
24.1973
25.7811
27.3866
29.0071
30.637
32.2719
33.9077
35.5407
37.1673
38.7843
40.3882
41.9757
43.5434
45.0879
46.6059
48.094
49.549
50.9675
52.3466
53.6832
54.9746
56.2181
57.4113
58.5521
59.6386
60.6691
61.6423
62.557
63.4125
64.2083
64.9441
65.6201
66.2365
66.794
67.2934
67.7358
68.1222
68.4537
68.7315
68.9573
69.1326
69.2591
69.3387
69.3733
69.365
69.3156
69.2273
69.1022
68.9422
68.7494
68.5258
68.2734
67.994
67.6895
67.3617
67.0124
66.6431
66.2554
65.851
65.4311
64.9972
64.5506
64.0924
63.6238
63.1458
62.6595
62.1658
61.6655
61.1594
60.6483
60.1328
59.6136
59.0912
58.5661
58.0387
57.5096
56.9791
56.4475
55.9151
55.3822
54.849
54.3157
53.7825
53.2496
52.717
52.1849
51.6533
51.1223
50.592
50.0623
49.5333
49.0051
48.4775
47.9506
47.4243
46.8986
46.3735
45.8489
45.3248
44.8011
44.2777
43.7546
43.2318
42.7091
42.1865
41.664
41.1415
40.6189
40.0961
39.5732
39.0501
38.5267
38.0031
37.479
36.9546
36.4299
35.9047
35.3791
34.8531
34.3266
33.7998
33.2726
32.745
32.2171
31.689
31.1606
30.632
30.1033
29.5746
29.0459
28.5173
27.989
27.461
26.9334
26.4064
25.8801
25.3546
24.83
24.3066
23.7844
23.2636
22.7443
22.2268
21.7111
21.1975
20.6861
20.1771
19.6707
19.1671
18.6663
18.1687
17.6744
17.1835
16.6963
16.2129
15.7335
15.2582
14.7872
14.3208
13.859
13.4019
12.9499
12.503
12.0614
11.6253
11.1948
10.7701
10.3513
9.93877
9.53259
9.13302
8.74031
8.35474
7.97666
7.60649
7.24476
6.8922
6.54971
6.21852
5.90031
5.59739
5.31311
5.05247
4.82329
4.63905
4.52453
4.53242
4.80166
5.87171
12.3857
33.9623
17.4457
15.3312
15.3281
16.0318
17.0759
18.3164
19.6824
21.1334
22.644
24.1972
25.781
27.3865
29.0069
30.6369
32.2718
33.9076
35.5406
37.1672
38.7842
40.3881
41.9756
43.5433
45.0878
46.6058
48.0939
49.5489
50.9674
52.3465
53.6831
54.9745
56.218
57.4112
58.552
59.6385
60.669
61.6422
62.5569
63.4124
64.2082
64.944
65.62
66.2364
66.7939
67.2934
67.7358
68.1221
68.4536
68.7315
68.9572
69.1325
69.259
69.3386
69.3733
69.3649
69.3156
69.2273
69.1021
68.9422
68.7494
68.5258
68.2734
67.994
67.6895
67.3617
67.0123
66.643
66.2554
65.8509
65.4311
64.9972
64.5505
64.0923
63.6237
63.1458
62.6595
62.1658
61.6655
61.1594
60.6483
60.1328
59.6136
59.0911
58.566
58.0387
57.5096
56.9791
56.4475
55.9151
55.3822
54.849
54.3157
53.7825
53.2496
52.717
52.1848
51.6533
51.1223
50.5919
50.0623
49.5333
49.0051
48.4775
47.9505
47.4243
46.8986
46.3735
45.8489
45.3248
44.801
44.2777
43.7546
43.2318
42.7091
42.1865
41.664
41.1415
40.6189
40.0961
39.5732
39.0501
38.5267
38.003
37.479
36.9546
36.4298
35.9047
35.3791
34.8531
34.3266
33.7998
33.2726
32.745
32.2171
31.689
31.1606
30.632
30.1033
29.5745
29.0459
28.5173
27.989
27.461
26.9334
26.4064
25.8801
25.3546
24.83
24.3066
23.7844
23.2636
22.7443
22.2268
21.7111
21.1975
20.6861
20.1771
19.6707
19.1671
18.6663
18.1687
17.6744
17.1835
16.6963
16.2129
15.7335
15.2582
14.7872
14.3208
13.8589
13.4019
12.9499
12.503
12.0614
11.6253
11.1948
10.7701
10.3513
9.93877
9.53259
9.13302
8.74031
8.35475
7.97666
7.60649
7.24477
6.8922
6.54971
6.21852
5.90031
5.59739
5.31311
5.05247
4.82329
4.63905
4.52453
4.53242
4.80167
5.87172
12.3857
40.4993
20.5572
17.7035
17.3855
17.9113
18.839
19.9956
21.296
22.6918
24.1525
25.6579
27.1935
28.7489
30.3164
31.8899
33.4643
35.0356
36.6002
38.1549
39.6966
41.2224
42.7294
44.2147
45.6756
47.1091
48.5124
49.8828
51.2175
52.5137
53.769
54.9809
56.147
57.2652
58.3335
59.3503
60.314
61.2233
62.0771
62.8748
63.6158
64.2999
64.9269
65.4973
66.0114
66.47
66.8739
67.2241
67.5216
67.7678
67.9639
68.1116
68.2124
68.2681
68.2804
68.2514
68.1828
68.0767
67.9349
67.7595
67.5523
67.3154
67.0505
66.7595
66.4443
66.1064
65.7477
65.3697
64.974
64.562
64.1352
63.6948
63.2422
62.7785
62.3048
61.8222
61.3317
60.8341
60.3304
59.8212
59.3074
58.7895
58.2682
57.7441
57.2177
56.6893
56.1596
55.6287
55.097
54.565
54.0327
53.5004
52.9684
52.4368
51.9058
51.3755
50.8459
50.3172
49.7894
49.2626
48.7368
48.212
47.6882
47.1655
46.6437
46.1229
45.6031
45.0841
44.566
44.0487
43.5321
43.0162
42.501
41.9863
41.4721
40.9583
40.445
39.932
39.4192
38.9067
38.3944
37.8821
37.37
36.8578
36.3457
35.8336
35.3214
34.8091
34.2967
33.7843
33.2718
32.7592
32.2465
31.7338
31.2211
30.7084
30.1958
29.6833
29.171
28.6589
28.1472
27.6358
27.1249
26.6146
26.105
25.5961
25.0882
24.5813
24.0755
23.571
23.0679
22.5664
22.0666
21.5686
21.0726
20.5788
20.0873
19.5983
19.1119
18.6283
18.1477
17.6702
17.1961
16.7254
16.2583
15.795
15.3357
14.8805
14.4297
13.9832
13.5414
13.1044
12.6723
12.2453
11.8237
11.4075
10.9969
10.5922
10.1936
9.80132
9.41558
9.03669
8.66498
8.30084
7.94473
7.59722
7.25901
6.931
6.61436
6.31062
6.02184
5.75087
5.50178
5.28064
5.09699
4.96693
4.92057
5.02168
5.43863
6.82543
14.7888
40.4994
20.5571
17.7034
17.3854
17.9112
18.8389
19.9955
21.2959
22.6917
24.1524
25.6578
27.1934
28.7488
30.3163
31.8897
33.4642
35.0355
36.6001
38.1548
39.6965
41.2223
42.7293
44.2146
45.6755
47.109
48.5123
49.8827
51.2174
52.5136
53.7689
54.9808
56.1469
57.2651
58.3334
59.3502
60.3139
61.2232
62.077
62.8747
63.6157
64.2998
64.9268
65.4972
66.0113
66.4699
66.8738
67.224
67.5216
67.7677
67.9639
68.1115
68.2123
68.268
68.2804
68.2513
68.1828
68.0766
67.9349
67.7594
67.5523
67.3153
67.0504
66.7595
66.4442
66.1064
65.7477
65.3697
64.974
64.562
64.1352
63.6948
63.2422
62.7785
62.3048
61.8222
61.3317
60.8341
60.3303
59.8212
59.3073
58.7895
58.2682
57.7441
57.2177
56.6893
56.1595
55.6287
55.097
54.5649
54.0327
53.5004
52.9684
52.4368
51.9058
51.3755
50.8459
50.3172
49.7894
49.2626
48.7368
48.212
47.6882
47.1655
46.6437
46.1229
45.6031
45.0841
44.566
44.0487
43.5321
43.0162
42.5009
41.9863
41.4721
40.9583
40.445
39.932
39.4192
38.9067
38.3943
37.8821
37.3699
36.8578
36.3457
35.8336
35.3214
34.8091
34.2967
33.7843
33.2718
32.7592
32.2465
31.7338
31.2211
30.7084
30.1958
29.6833
29.171
28.6589
28.1471
27.6358
27.1249
26.6146
26.105
25.5961
25.0882
24.5813
24.0755
23.571
23.0679
22.5664
22.0666
21.5686
21.0726
20.5788
20.0873
19.5983
19.1119
18.6283
18.1477
17.6702
17.1961
16.7254
16.2583
15.795
15.3357
14.8805
14.4297
13.9832
13.5414
13.1044
12.6723
12.2453
11.8237
11.4075
10.9969
10.5922
10.1936
9.80132
9.41558
9.03669
8.66498
8.30085
7.94473
7.59722
7.25901
6.931
6.61436
6.31062
6.02184
5.75087
5.50178
5.28064
5.09699
4.96693
4.92057
5.02169
5.43864
6.82545
14.7888
47.2755
23.774
20.2037
19.5962
19.968
20.8013
21.894
23.1472
24.5047
25.9312
27.4034
28.9047
30.4233
31.9503
33.4791
35.0045
36.5223
38.0291
39.5218
40.9978
42.4545
43.8897
45.301
46.6861
48.0426
49.3683
50.6609
51.9181
53.1376
54.3173
55.4551
56.549
57.597
58.5975
59.549
60.45
61.2993
62.0961
62.8396
63.5292
64.1647
64.746
65.2733
65.747
66.1675
66.5358
66.8526
67.119
67.336
67.5051
67.6275
67.7049
67.7389
67.7311
67.6833
67.5974
67.4751
67.3184
67.1291
66.909
66.66
66.3839
66.0825
65.7575
65.4105
65.0433
64.6573
64.2541
63.8351
63.4016
62.955
62.4966
62.0274
61.5485
61.0611
60.566
60.0642
59.5565
59.0437
58.5264
58.0054
57.4812
56.9544
56.4255
55.895
55.3633
54.8307
54.2977
53.7644
53.2311
52.6981
52.1656
51.6338
51.1027
50.5726
50.0435
49.5155
48.9887
48.4631
47.9388
47.4157
46.8939
46.3733
45.8541
45.336
44.8191
44.3034
43.7888
43.2752
42.7627
42.2511
41.7404
41.2306
40.7215
40.2131
39.7054
39.1983
38.6917
38.1857
37.68
37.1748
36.6699
36.1653
35.661
35.1569
34.6531
34.1494
33.6459
33.1426
32.6395
32.1366
31.6338
31.1312
30.6289
30.1268
29.6251
29.1237
28.6227
28.1221
27.6221
27.1226
26.6239
26.1259
25.6287
25.1325
24.6374
24.1434
23.6508
23.1595
22.6698
22.1817
21.6954
21.211
20.7288
20.2487
19.771
19.2958
18.8233
18.3536
17.8869
17.4234
16.9631
16.5062
16.053
15.6035
15.158
14.7165
14.2793
13.8466
13.4184
12.9949
12.5764
12.1629
11.7548
11.3522
10.9553
10.5643
10.1794
9.80109
9.4295
9.06504
8.7081
8.35917
8.01882
7.68775
7.36683
7.05713
6.76006
6.47745
6.21172
5.96625
5.74582
5.55754
5.4126
5.32985
5.34455
5.53159
6.08883
7.7849
17.1904
47.2757
23.7739
20.2036
19.5961
19.9679
20.8012
21.8939
23.1471
24.5046
25.9311
27.4033
28.9046
30.4231
31.9502
33.479
35.0044
36.5222
38.029
39.5217
40.9977
42.4544
43.8896
45.3009
46.686
48.0425
49.3682
50.6608
51.918
53.1375
54.3172
55.455
56.5489
57.5969
58.5974
59.5489
60.4499
61.2993
62.096
62.8395
63.5291
64.1646
64.7459
65.2732
65.7469
66.1675
66.5358
66.8526
67.1189
67.336
67.505
67.6275
67.7049
67.7388
67.7311
67.6833
67.5974
67.4751
67.3184
67.1291
66.909
66.66
66.3839
66.0825
65.7575
65.4105
65.0433
64.6573
64.254
63.835
63.4016
62.955
62.4965
62.0273
61.5485
61.0611
60.566
60.0642
59.5565
59.0436
58.5264
58.0054
57.4812
56.9544
56.4255
55.895
55.3633
54.8307
54.2976
53.7643
53.2311
52.6981
52.1656
51.6338
51.1027
50.5726
50.0435
49.5155
48.9887
48.4631
47.9388
47.4157
46.8939
46.3733
45.854
45.336
44.8191
44.3034
43.7888
43.2752
42.7627
42.2511
41.7404
41.2305
40.7215
40.2131
39.7054
39.1983
38.6917
38.1857
37.68
37.1748
36.6699
36.1653
35.661
35.1569
34.6531
34.1494
33.6459
33.1426
32.6395
32.1365
31.6338
31.1312
30.6289
30.1268
29.6251
29.1237
28.6226
28.1221
27.6221
27.1226
26.6239
26.1259
25.6287
25.1325
24.6374
24.1434
23.6508
23.1595
22.6698
22.1817
21.6954
21.211
20.7288
20.2487
19.771
19.2958
18.8233
18.3536
17.8869
17.4234
16.9631
16.5062
16.053
15.6035
15.158
14.7165
14.2793
13.8466
13.4184
12.9949
12.5764
12.1629
11.7548
11.3522
10.9553
10.5643
10.1794
9.80109
9.4295
9.06504
8.7081
8.35917
8.01882
7.68775
7.36683
7.05713
6.76006
6.47745
6.21172
5.96625
5.74582
5.55754
5.4126
5.32985
5.34455
5.5316
6.08884
7.78493
17.1904
54.3286
27.1128
22.8271
21.944
22.1769
22.9298
23.9713
25.1885
26.5175
27.9186
29.3653
30.8393
32.3272
33.8195
35.3089
36.7901
38.2588
39.7118
41.1464
42.5603
43.9514
45.318
46.6581
47.9701
49.2522
50.5027
51.7197
52.9014
54.0462
55.1521
56.2175
57.2407
58.22
59.1541
60.0415
60.8811
61.6717
62.4125
63.1028
63.7421
64.3301
64.8667
65.352
65.7862
66.1699
66.5037
66.7883
67.0247
67.2138
67.357
67.4555
67.5107
67.5241
67.4974
67.4321
67.33
67.1928
67.0223
66.8202
66.5883
66.3284
66.0422
65.7313
65.3976
65.0424
64.6676
64.2745
63.8646
63.4393
63
62.5479
62.0842
61.6101
61.1267
60.6349
60.1357
59.63
59.1187
58.6024
58.0819
57.5578
57.0308
56.5013
55.97
55.4372
54.9033
54.3688
53.834
53.2991
52.7644
52.2302
51.6967
51.164
50.6323
50.1016
49.5722
49.0441
48.5174
47.9921
47.4682
46.9458
46.4248
45.9053
45.3873
44.8707
44.3555
43.8416
43.3291
42.8178
42.3078
41.7989
41.2911
40.7844
40.2787
39.7739
39.27
38.7669
38.2646
37.7629
37.262
36.7616
36.2618
35.7626
35.2638
34.7655
34.2676
33.7701
33.273
32.7763
32.28
31.7841
31.2885
30.7934
30.2986
29.8044
29.3106
28.8173
28.3246
27.8325
27.3411
26.8504
26.3606
25.8717
25.3837
24.8968
24.4111
23.9267
23.4436
22.9621
22.4821
22.0039
21.5275
21.053
20.5807
20.1107
19.643
19.1778
18.7153
18.2556
17.7988
17.3452
16.8948
16.4478
16.0043
15.5646
15.1288
14.6969
14.2693
13.846
13.4273
13.0133
12.6041
12.2001
11.8013
11.4081
11.0206
10.6391
10.2639
9.89538
9.5338
9.17961
8.8333
8.49543
8.16669
7.8479
7.54007
7.24447
6.96272
6.69693
6.44991
6.22552
6.02925
5.86927
5.7584
5.71829
5.78925
6.05763
6.75128
8.75493
19.6095
54.3287
27.1127
22.827
21.9439
22.1768
22.9297
23.9712
25.1884
26.5174
27.9185
29.3652
30.8391
32.3271
33.8193
35.3088
36.79
38.2587
39.7117
41.1463
42.5602
43.9513
45.3178
46.658
47.97
49.2521
50.5026
51.7196
52.9013
54.0461
55.152
56.2174
57.2406
58.2199
59.154
60.0414
60.881
61.6716
62.4124
63.1028
63.7421
64.3301
64.8667
65.3519
65.7862
66.1698
66.5036
66.7882
67.0246
67.2138
67.357
67.4554
67.5106
67.5241
67.4973
67.4321
67.33
67.1928
67.0223
66.8202
66.5883
66.3284
66.0422
65.7313
65.3975
65.0424
64.6676
64.2744
63.8646
63.4393
63
62.5479
62.0842
61.6101
61.1267
60.6349
60.1357
59.63
59.1187
58.6024
58.0818
57.5578
57.0307
56.5013
55.9699
55.4371
54.9033
54.3688
53.8339
53.2991
52.7644
52.2302
51.6967
51.164
50.6322
50.1016
49.5722
49.0441
48.5174
47.9921
47.4682
46.9457
46.4248
45.9053
45.3873
44.8707
44.3554
43.8416
43.3291
42.8178
42.3078
41.7989
41.2911
40.7844
40.2787
39.7739
39.27
38.7669
38.2646
37.7629
37.262
36.7616
36.2618
35.7626
35.2638
34.7655
34.2676
33.7701
33.273
32.7763
32.28
31.7841
31.2885
30.7934
30.2986
29.8043
29.3105
28.8173
28.3246
27.8325
27.3411
26.8504
26.3606
25.8717
25.3837
24.8968
24.4111
23.9267
23.4436
22.9621
22.4821
22.0039
21.5275
21.053
20.5807
20.1107
19.643
19.1778
18.7153
18.2556
17.7988
17.3452
16.8948
16.4478
16.0043
15.5646
15.1288
14.6969
14.2693
13.846
13.4273
13.0133
12.6041
12.2001
11.8013
11.4081
11.0206
10.6391
10.2639
9.89538
9.5338
9.17961
8.8333
8.49544
8.16669
7.8479
7.54007
7.24447
6.96272
6.69693
6.44991
6.22552
6.02926
5.86927
5.7584
5.71829
5.78925
6.05763
6.75129
8.75495
19.6096
61.5872
30.5694
25.5699
24.4204
24.5244
25.2063
26.2046
27.3925
28.6985
30.0786
31.5033
32.9526
34.4119
35.871
37.3222
38.76
40.1803
41.58
42.9567
44.3086
45.6341
46.9319
48.2008
49.4396
50.647
51.822
52.9631
54.0692
55.1389
56.1707
57.1634
58.1156
59.026
59.8933
60.7165
61.4943
62.226
62.9107
63.5477
64.1365
64.6769
65.1688
65.612
66.0069
66.3539
66.6534
66.9061
67.1129
67.2747
67.3925
67.4676
67.5012
67.4948
67.4498
67.3677
67.2502
67.0989
66.9155
66.7015
66.4587
66.1887
65.8933
65.5739
65.2323
64.87
64.4884
64.0891
63.6735
63.2429
62.7986
62.3419
61.8739
61.3957
60.9085
60.4131
59.9106
59.4017
58.8874
58.3683
57.8452
57.3186
56.7893
56.2577
55.7243
55.1896
54.654
54.1179
53.5816
53.0454
52.5095
51.9743
51.4398
50.9063
50.374
49.8429
49.3131
48.7848
48.258
47.7328
47.2091
46.6871
46.1667
45.6479
45.1307
44.6151
44.1011
43.5886
43.0776
42.568
42.0598
41.553
41.0474
40.543
40.0399
39.5378
39.0368
38.5368
38.0377
37.5395
37.0422