/*--------------------------------*- C++ -*----------------------------------*\
  =========                 |
  \\      /  F ield         | OpenFOAM: The Open Source CFD Toolbox
   \\    /   O peration     | Website:  https://openfoam.org
    \\  /    A nd           | Version:  8
     \\/     M anipulation  |
\*---------------------------------------------------------------------------*/
FoamFile
{
    version     2.0;
    format      ascii;
    class       volScalarField;
    location    "4300";
    object      k;
}
// * * * * * * * * * * * * * * * * * * * * * * * * * * * * * * * * * * * * * //

dimensions      [0 2 -2 0 0 0 0];

internalField   nonuniform List<scalar> 
48000
(
0.0315556
0.0819834
0.125726
0.163821
0.199464
0.232355
0.262967
0.291705
0.319263
0.346026
0.371749
0.396647
0.42078
0.444202
0.466951
0.489057
0.510541
0.531414
0.551685
0.571358
0.590433
0.608911
0.626789
0.644064
0.660732
0.676792
0.692241
0.707076
0.721297
0.734903
0.747895
0.760277
0.772051
0.783221
0.793794
0.803776
0.813175
0.822001
0.830263
0.837971
0.845139
0.851776
0.857895
0.863507
0.868663
0.873437
0.87776
0.881634
0.885073
0.888095
0.890717
0.892956
0.894828
0.896349
0.897537
0.898405
0.898971
0.899247
0.89925
0.898992
0.898489
0.897752
0.896795
0.895629
0.894267
0.89272
0.890997
0.88911
0.887069
0.884881
0.882557
0.880104
0.87753
0.874842
0.872047
0.869151
0.866162
0.863083
0.85992
0.856679
0.853362
0.849976
0.846522
0.843006
0.839429
0.835795
0.832106
0.828365
0.824573
0.820732
0.816845
0.812911
0.808933
0.804911
0.800847
0.79674
0.792591
0.788401
0.78417
0.779897
0.775584
0.771228
0.766831
0.762391
0.757909
0.753384
0.748815
0.744202
0.739543
0.734838
0.730086
0.725287
0.720439
0.715541
0.710593
0.705593
0.700541
0.695435
0.690275
0.685059
0.679787
0.674458
0.66907
0.663623
0.658116
0.652547
0.646918
0.641225
0.635469
0.62965
0.623765
0.617816
0.6118
0.605719
0.599571
0.593356
0.587074
0.580725
0.574308
0.567823
0.561272
0.554652
0.547966
0.541212
0.534392
0.527506
0.520553
0.513536
0.506453
0.499307
0.492098
0.484825
0.477492
0.470097
0.462643
0.455129
0.447558
0.43993
0.432246
0.424507
0.416714
0.408868
0.40097
0.393021
0.385022
0.376972
0.368874
0.360728
0.352532
0.344289
0.335997
0.327656
0.319265
0.310823
0.302329
0.293781
0.285175
0.27651
0.267782
0.258998
0.250161
0.241315
0.23238
0.223325
0.214142
0.204808
0.1953
0.185591
0.175645
0.165414
0.154843
0.143904
0.132548
0.120581
0.107812
0.0939652
0.0785872
0.0608855
0.0395911
0.0234397
0.0315561
0.0819838
0.125726
0.163822
0.199465
0.232356
0.262968
0.291706
0.319263
0.346027
0.37175
0.396647
0.420781
0.444202
0.466952
0.489058
0.510541
0.531414
0.551685
0.571358
0.590434
0.608911
0.626789
0.644064
0.660733
0.676793
0.692241
0.707076
0.721297
0.734903
0.747896
0.760277
0.772051
0.783221
0.793794
0.803776
0.813175
0.822001
0.830263
0.837972
0.845139
0.851776
0.857895
0.863507
0.868663
0.873437
0.87776
0.881634
0.885073
0.888095
0.890717
0.892956
0.894828
0.896349
0.897537
0.898405
0.898971
0.899247
0.89925
0.898992
0.898489
0.897752
0.896795
0.895629
0.894267
0.89272
0.890997
0.88911
0.887069
0.884881
0.882557
0.880104
0.87753
0.874842
0.872047
0.869151
0.866162
0.863083
0.85992
0.856678
0.853362
0.849976
0.846522
0.843006
0.839429
0.835795
0.832106
0.828365
0.824573
0.820732
0.816844
0.812911
0.808933
0.804911
0.800847
0.79674
0.792591
0.788401
0.78417
0.779897
0.775583
0.771228
0.766831
0.762391
0.757909
0.753384
0.748815
0.744201
0.739543
0.734838
0.730086
0.725287
0.720439
0.715541
0.710593
0.705593
0.700541
0.695435
0.690275
0.685059
0.679787
0.674458
0.66907
0.663623
0.658116
0.652547
0.646917
0.641225
0.635469
0.62965
0.623765
0.617816
0.6118
0.605719
0.599571
0.593356
0.587074
0.580725
0.574308
0.567823
0.561272
0.554652
0.547966
0.541212
0.534392
0.527506
0.520553
0.513536
0.506453
0.499307
0.492098
0.484825
0.477492
0.470097
0.462643
0.455129
0.447558
0.43993
0.432246
0.424507
0.416714
0.408868
0.40097
0.393021
0.385022
0.376972
0.368874
0.360728
0.352532
0.344289
0.335997
0.327656
0.319265
0.310824
0.302329
0.293781
0.285175
0.27651
0.267782
0.258998
0.250162
0.241315
0.23238
0.223325
0.214142
0.204808
0.1953
0.185591
0.175645
0.165415
0.154843
0.143904
0.132549
0.120581
0.107812
0.0939652
0.0785871
0.0608855
0.039592
0.0234398
0.0835998
0.210505
0.299453
0.377753
0.449644
0.51699
0.581001
0.641899
0.70037
0.756828
0.811508
0.864599
0.91624
0.966527
1.01553
1.06329
1.10985
1.15521
1.19938
1.24236
1.28413
1.3247
1.36403
1.40211
1.43893
1.47448
1.50873
1.54167
1.5733
1.6036
1.63258
1.66022
1.68653
1.71152
1.73519
1.75756
1.77863
1.79842
1.81695
1.83425
1.85033
1.86522
1.87895
1.89154
1.90303
1.91346
1.92287
1.93128
1.93874
1.94526
1.9509
1.95569
1.95966
1.96286
1.9653
1.96704
1.96811
1.96853
1.96834
1.96758
1.96627
1.96444
1.96212
1.95934
1.95613
1.95251
1.9485
1.94413
1.93941
1.93438
1.92905
1.92343
1.91755
1.91142
1.90506
1.89848
1.8917
1.88472
1.87756
1.87024
1.86275
1.85511
1.84733
1.83941
1.83137
1.82321
1.81493
1.80653
1.79804
1.78944
1.78074
1.77195
1.76306
1.75409
1.74502
1.73587
1.72663
1.71731
1.7079
1.6984
1.68882
1.67916
1.66941
1.65957
1.64964
1.63962
1.62951
1.61932
1.60902
1.59863
1.58815
1.57756
1.56688
1.55609
1.54519
1.53419
1.52308
1.51186
1.50052
1.48907
1.4775
1.46581
1.454
1.44207
1.43001
1.41782
1.4055
1.39305
1.38047
1.36775
1.3549
1.34192
1.32879
1.31553
1.30213
1.28858
1.2749
1.26108
1.24711
1.23301
1.21876
1.20437
1.18984
1.17518
1.16037
1.14543
1.13035
1.11513
1.09978
1.08429
1.06868
1.05294
1.03706
1.02107
1.00495
0.988704
0.972343
0.955864
0.939271
0.922565
0.905749
0.888825
0.871794
0.854659
0.837421
0.820082
0.802643
0.785104
0.767467
0.74973
0.731895
0.713959
0.695921
0.677778
0.659527
0.641162
0.622678
0.604068
0.585323
0.566433
0.547387
0.52817
0.508748
0.489086
0.469183
0.448988
0.428461
0.407547
0.386177
0.364268
0.34171
0.318355
0.294062
0.268605
0.241662
0.212777
0.181255
0.145894
0.103726
0.0409273
0.0836004
0.210506
0.299454
0.377754
0.449645
0.516991
0.581001
0.641899
0.70037
0.756828
0.811508
0.864599
0.91624
0.966527
1.01553
1.06329
1.10985
1.15521
1.19938
1.24236
1.28413
1.32469
1.36403
1.40211
1.43893
1.47448
1.50873
1.54167
1.5733
1.6036
1.63258
1.66022
1.68653
1.71152
1.73519
1.75756
1.77862
1.79842
1.81695
1.83424
1.85033
1.86522
1.87895
1.89154
1.90302
1.91346
1.92287
1.93128
1.93874
1.94526
1.9509
1.95569
1.95966
1.96285
1.9653
1.96704
1.96811
1.96853
1.96834
1.96758
1.96627
1.96444
1.96212
1.95934
1.95613
1.95251
1.9485
1.94412
1.93941
1.93438
1.92905
1.92343
1.91755
1.91142
1.90506
1.89848
1.8917
1.88472
1.87756
1.87024
1.86275
1.85511
1.84733
1.83941
1.83137
1.82321
1.81492
1.80653
1.79804
1.78944
1.78074
1.77195
1.76306
1.75409
1.74502
1.73587
1.72663
1.71731
1.7079
1.6984
1.68882
1.67916
1.6694
1.65957
1.64964
1.63962
1.62951
1.61931
1.60902
1.59863
1.58815
1.57756
1.56688
1.55609
1.54519
1.53419
1.52308
1.51186
1.50052
1.48907
1.4775
1.46581
1.454
1.44207
1.43
1.41782
1.4055
1.39305
1.38047
1.36775
1.3549
1.34192
1.32879
1.31553
1.30212
1.28858
1.2749
1.26108
1.24711
1.23301
1.21876
1.20437
1.18984
1.17518
1.16037
1.14543
1.13035
1.11513
1.09978
1.08429
1.06868
1.05294
1.03706
1.02107
1.00495
0.988703
0.972342
0.955864
0.939271
0.922565
0.905749
0.888825
0.871794
0.854659
0.837421
0.820082
0.802642
0.785104
0.767466
0.74973
0.731895
0.713959
0.695921
0.677778
0.659527
0.641162
0.622678
0.604068
0.585322
0.566433
0.547387
0.52817
0.508748
0.489086
0.469182
0.448988
0.428461
0.407546
0.386177
0.364268
0.34171
0.318355
0.294062
0.268605
0.241662
0.212777
0.181255
0.145894
0.103726
0.0409261
0.126542
0.300267
0.41159
0.506796
0.59408
0.676466
0.755191
0.83086
0.903932
0.974737
1.04351
1.11041
1.17558
1.23911
1.30107
1.36151
1.42044
1.47789
1.53386
1.58833
1.6413
1.69276
1.74267
1.79102
1.83779
1.88295
1.92649
1.96838
2.00861
2.04718
2.08407
2.11927
2.15279
2.18463
2.2148
2.24331
2.27017
2.29541
2.31904
2.3411
2.3616
2.38058
2.39808
2.41413
2.42877
2.44205
2.45401
2.4647
2.47415
2.48241
2.48953
2.49554
2.50051
2.50447
2.50747
2.50955
2.51077
2.51115
2.51075
2.5096
2.50774
2.50522
2.50207
2.49832
2.49401
2.48917
2.48384
2.47804
2.4718
2.46516
2.45812
2.45073
2.443
2.43495
2.4266
2.41798
2.40909
2.39997
2.39061
2.38104
2.37127
2.3613
2.35116
2.34085
2.33038
2.31976
2.309
2.2981
2.28707
2.27591
2.26463
2.25324
2.24173
2.23011
2.21838
2.20655
2.19461
2.18257
2.17042
2.15817
2.14581
2.13335
2.12079
2.10812
2.09534
2.08246
2.06946
2.05636
2.04314
2.0298
2.01634
2.00277
1.98907
1.97524
1.96128
1.9472
1.93298
1.91862
1.90413
1.88949
1.87471
1.85978
1.8447
1.82946
1.81408
1.79854
1.78283
1.76697
1.75094
1.73475
1.71839
1.70187
1.68517
1.66831
1.65127
1.63406
1.61667
1.59912
1.58139
1.56348
1.5454
1.52715
1.50872
1.49013
1.47136
1.45242
1.43331
1.41404
1.3946
1.37499
1.35523
1.33531
1.31523
1.29499
1.2746
1.25407
1.23338
1.21256
1.19159
1.17048
1.14924
1.12787
1.10636
1.08473
1.06297
1.04109
1.01908
0.996957
0.97471
0.952341
0.929852
0.907239
0.884502
0.861638
0.83864
0.815506
0.792226
0.768793
0.745195
0.721421
0.697455
0.673275
0.648855
0.624162
0.599165
0.573813
0.548073
0.521881
0.495162
0.467823
0.439748
0.410791
0.380757
0.349431
0.316468
0.281371
0.243323
0.200654
0.148329
0.0632961
0.126542
0.300268
0.41159
0.506796
0.59408
0.676466
0.755191
0.83086
0.903932
0.974737
1.04351
1.11041
1.17558
1.23911
1.30107
1.36151
1.42044
1.47789
1.53386
1.58833
1.6413
1.69276
1.74267
1.79102
1.83779
1.88295
1.92649
1.96838
2.00861
2.04718
2.08407
2.11927
2.15279
2.18463
2.2148
2.24331
2.27017
2.29541
2.31904
2.34109
2.3616
2.38058
2.39808
2.41413
2.42877
2.44205
2.45401
2.4647
2.47415
2.48241
2.48952
2.49554
2.50051
2.50447
2.50747
2.50955
2.51077
2.51115
2.51075
2.5096
2.50774
2.50522
2.50206
2.49832
2.49401
2.48917
2.48384
2.47804
2.4718
2.46516
2.45812
2.45073
2.443
2.43495
2.4266
2.41798
2.40909
2.39996
2.39061
2.38104
2.37126
2.3613
2.35116
2.34085
2.33038
2.31976
2.309
2.2981
2.28707
2.27591
2.26463
2.25324
2.24173
2.23011
2.21838
2.20655
2.19461
2.18256
2.17042
2.15817
2.14581
2.13335
2.12079
2.10812
2.09534
2.08246
2.06946
2.05636
2.04314
2.0298
2.01634
2.00276
1.98906
1.97524
1.96128
1.9472
1.93298
1.91862
1.90413
1.88949
1.8747
1.85978
1.8447
1.82946
1.81408
1.79853
1.78283
1.76697
1.75094
1.73475
1.71839
1.70187
1.68517
1.66831
1.65127
1.63406
1.61667
1.59912
1.58138
1.56348
1.5454
1.52715
1.50872
1.49013
1.47136
1.45242
1.43331
1.41404
1.3946
1.37499
1.35523
1.33531
1.31522
1.29499
1.2746
1.25407
1.23338
1.21256
1.19159
1.17048
1.14924
1.12787
1.10636
1.08473
1.06297
1.04109
1.01908
0.996957
0.974709
0.952341
0.929851
0.907239
0.884502
0.861637
0.83864
0.815505
0.792225
0.768792
0.745195
0.721421
0.697454
0.673275
0.648854
0.624162
0.599164
0.573813
0.548073
0.521881
0.495161
0.467822
0.439748
0.41079
0.380757
0.349431
0.316468
0.281371
0.243322
0.200653
0.14833
0.0632964
0.162153
0.376549
0.50601
0.613261
0.711205
0.803768
0.892486
0.978097
1.06103
1.14157
1.21992
1.29622
1.37058
1.4431
1.51382
1.58279
1.65004
1.71558
1.77942
1.84154
1.90194
1.9606
2.0175
2.07262
2.12594
2.17743
2.22708
2.27486
2.32076
2.36477
2.40687
2.44706
2.48535
2.52173
2.5562
2.58879
2.61951
2.64837
2.67541
2.70064
2.7241
2.74583
2.76586
2.78423
2.80099
2.81619
2.82987
2.84209
2.85288
2.8623
2.87041
2.87724
2.88286
2.88732
2.89067
2.89295
2.89423
2.89455
2.89395
2.89249
2.89021
2.88716
2.88337
2.8789
2.87377
2.86804
2.86172
2.85487
2.84751
2.83967
2.83139
2.82269
2.8136
2.80414
2.79434
2.78422
2.77379
2.76309
2.75213
2.74092
2.72947
2.71781
2.70595
2.6939
2.68166
2.66925
2.65668
2.64396
2.63108
2.61807
2.60492
2.59164
2.57823
2.56469
2.55104
2.53726
2.52337
2.50936
2.49524
2.481
2.46665
2.45218
2.4376
2.4229
2.40808
2.39314
2.37807
2.36289
2.34757
2.33213
2.31655
2.30084
2.285
2.26901
2.25288
2.23661
2.22018
2.2036
2.18687
2.16998
2.15293
2.13571
2.11833
2.10078
2.08305
2.06515
2.04707
2.02881
2.01037
1.99174
1.97293
1.95393
1.93474
1.91536
1.89578
1.87602
1.85606
1.8359
1.81555
1.79501
1.77427
1.75334
1.73221
1.71089
1.68938
1.66768
1.64579
1.62371
1.60145
1.579
1.55637
1.53357
1.51059
1.48743
1.46411
1.44062
1.41696
1.39314
1.36917
1.34504
1.32076
1.29633
1.27175
1.24704
1.22218
1.19718
1.17204
1.14677
1.12136
1.09582
1.07015
1.04433
1.01838
0.992288
0.966049
0.939657
0.913107
0.886388
0.859489
0.832397
0.805095
0.777562
0.749772
0.721693
0.693292
0.664523
0.635339
0.605676
0.575462
0.544613
0.513009
0.480504
0.446907
0.411979
0.375366
0.336506
0.294388
0.24676
0.186584
0.0821713
0.162154
0.376549
0.50601
0.613261
0.711205
0.803767
0.892486
0.978096
1.06103
1.14157
1.21992
1.29622
1.37058
1.4431
1.51382
1.58279
1.65004
1.71558
1.77942
1.84154
1.90194
1.9606
2.0175
2.07262
2.12594
2.17743
2.22708
2.27486
2.32076
2.36477
2.40687
2.44706
2.48535
2.52173
2.5562
2.58879
2.61951
2.64837
2.67541
2.70064
2.7241
2.74583
2.76586
2.78423
2.80099
2.81619
2.82987
2.84209
2.85288
2.8623
2.8704
2.87724
2.88286
2.88732
2.89067
2.89295
2.89423
2.89455
2.89395
2.89249
2.89021
2.88716
2.88337
2.8789
2.87377
2.86804
2.86172
2.85487
2.84751
2.83967
2.83139
2.82269
2.81359
2.80414
2.79434
2.78421
2.77379
2.76309
2.75213
2.74091
2.72947
2.71781
2.70595
2.6939
2.68166
2.66925
2.65668
2.64396
2.63108
2.61807
2.60492
2.59163
2.57822
2.56469
2.55104
2.53726
2.52337
2.50936
2.49524
2.481
2.46665
2.45218
2.4376
2.4229
2.40808
2.39314
2.37807
2.36289
2.34757
2.33213
2.31655
2.30084
2.285
2.26901
2.25288
2.23661
2.22018
2.2036
2.18687
2.16998
2.15293
2.13571
2.11833
2.10078
2.08305
2.06515
2.04707
2.02881
2.01037
1.99174
1.97293
1.95393
1.93474
1.91536
1.89578
1.87602
1.85606
1.8359
1.81555
1.79501
1.77427
1.75334
1.73221
1.71089
1.68938
1.66768
1.64579
1.62371
1.60144
1.579
1.55637
1.53357
1.51058
1.48743
1.46411
1.44062
1.41696
1.39314
1.36917
1.34504
1.32076
1.29633
1.27175
1.24703
1.22218
1.19718
1.17204
1.14677
1.12136
1.09582
1.07014
1.04433
1.01838
0.992288
0.966048
0.939657
0.913106
0.886387
0.859489
0.832397
0.805095
0.777562
0.749771
0.721693
0.693291
0.664523
0.635339
0.605676
0.575462
0.544612
0.513008
0.480504
0.446906
0.411979
0.375366
0.336506
0.294388
0.24676
0.186584
0.0821714
0.194354
0.445102
0.591931
0.710558
0.817894
0.919025
1.01594
1.10955
1.20033
1.28857
1.37444
1.45809
1.53961
1.61906
1.69651
1.77199
1.84554
1.91717
1.98688
2.05469
2.12057
2.18453
2.24655
2.30661
2.36469
2.42078
2.47485
2.52689
2.57689
2.62483
2.67071
2.71451
2.75625
2.79592
2.83354
2.8691
2.90264
2.93416
2.9637
2.99128
3.01693
3.0407
3.06261
3.08272
3.10107
3.1177
3.13268
3.14605
3.15786
3.16816
3.17701
3.18447
3.19059
3.19543
3.19905
3.20149
3.20281
3.20308
3.20233
3.20063
3.19802
3.19455
3.19026
3.18522
3.17945
3.173
3.16591
3.15822
3.14996
3.14118
3.1319
3.12216
3.11198
3.1014
3.09043
3.07911
3.06746
3.05549
3.04324
3.03071
3.01793
3.00491
2.99166
2.9782
2.96454
2.95069
2.93667
2.92247
2.90811
2.8936
2.87894
2.86414
2.8492
2.83412
2.81891
2.80357
2.78811
2.77252
2.75681
2.74097
2.72501
2.70892
2.69271
2.67638
2.65991
2.64332
2.62659
2.60973
2.59274
2.57561
2.55833
2.54091
2.52334
2.50563
2.48776
2.46973
2.45154
2.43319
2.41467
2.39598
2.37711
2.35807
2.33885
2.31945
2.29986
2.28008
2.26011
2.23995
2.21958
2.19902
2.17826
2.1573
2.13613
2.11476
2.09318
2.07139
2.04939
2.02718
2.00476
1.98213
1.95929
1.93624
1.91298
1.88951
1.86584
1.84195
1.81787
1.79358
1.76909
1.74441
1.71953
1.69445
1.66919
1.64373
1.6181
1.59228
1.56628
1.54011
1.51377
1.48726
1.46059
1.43375
1.40675
1.3796
1.3523
1.32484
1.29724
1.26949
1.24159
1.21354
1.18535
1.15702
1.12853
1.09989
1.07109
1.04213
1.01301
0.9837
0.954204
0.924505
0.894587
0.864429
0.834007
0.80329
0.772245
0.740831
0.708999
0.676689
0.643828
0.610329
0.576073
0.540923
0.504682
0.467074
0.427718
0.385947
0.340506
0.288523
0.221115
0.098933
0.194354
0.445103
0.591931
0.710558
0.817894
0.919024
1.01594
1.10955
1.20033
1.28857
1.37444
1.45809
1.53961
1.61906
1.69651
1.77199
1.84554
1.91717
1.98688
2.05469
2.12057
2.18453
2.24655
2.30661
2.36469
2.42078
2.47485
2.52689
2.57689
2.62483
2.67071
2.71451
2.75625
2.79592
2.83354
2.8691
2.90264
2.93416
2.9637
2.99128
3.01693
3.04069
3.06261
3.08272
3.10107
3.1177
3.13268
3.14605
3.15785
3.16816
3.17701
3.18447
3.19059
3.19543
3.19905
3.20149
3.20281
3.20308
3.20233
3.20063
3.19802
3.19455
3.19026
3.18522
3.17945
3.173
3.16591
3.15822
3.14996
3.14118
3.1319
3.12216
3.11198
3.10139
3.09043
3.07911
3.06746
3.05549
3.04324
3.03071
3.01793
3.00491
2.99166
2.9782
2.96454
2.95069
2.93667
2.92247
2.90811
2.8936
2.87894
2.86414
2.8492
2.83412
2.81891
2.80357
2.78811
2.77252
2.75681
2.74097
2.72501
2.70892
2.69271
2.67638
2.65991
2.64332
2.62659
2.60973
2.59274
2.57561
2.55833
2.54091
2.52334
2.50563
2.48776
2.46973
2.45154
2.43319
2.41467
2.39598
2.37711
2.35807
2.33885
2.31945
2.29986
2.28008
2.26011
2.23994
2.21958
2.19902
2.17826
2.1573
2.13613
2.11476
2.09318
2.07138
2.04939
2.02718
2.00476
1.98213
1.95929
1.93624
1.91298
1.88951
1.86583
1.84195
1.81787
1.79358
1.76909
1.74441
1.71953
1.69445
1.66919
1.64373
1.6181
1.59228
1.56628
1.54011
1.51377
1.48726
1.46058
1.43375
1.40675
1.3796
1.3523
1.32484
1.29724
1.26949
1.24159
1.21354
1.18535
1.15702
1.12853
1.09989
1.07109
1.04213
1.01301
0.983699
0.954204
0.924505
0.894587
0.864429
0.834006
0.80329
0.772245
0.740831
0.708999
0.676688
0.643828
0.610329
0.576073
0.540923
0.504682
0.467074
0.427718
0.385947
0.340507
0.288523
0.221115
0.0989331
0.223903
0.509397
0.672969
0.802886
0.919266
1.02836
1.13267
1.23332
1.33089
1.42569
1.51792
1.60769
1.69511
1.78025
1.86315
1.94386
2.02241
2.09884
2.17314
2.24534
2.31544
2.38344
2.44932
2.51309
2.57474
2.63424
2.6916
2.7468
2.79982
2.85067
2.89934
2.94582
2.99011
3.03223
3.07217
3.10996
3.1456
3.17912
3.21054
3.2399
3.26722
3.29254
3.3159
3.33735
3.35693
3.37469
3.39068
3.40495
3.41756
3.42857
3.43802
3.44599
3.45252
3.45767
3.46151
3.46409
3.46547
3.46571
3.46486
3.46297
3.46011
3.45632
3.45165
3.44615
3.43986
3.43285
3.42513
3.41677
3.4078
3.39825
3.38816
3.37757
3.36651
3.355
3.34308
3.33078
3.31811
3.30511
3.29179
3.27817
3.26428
3.25013
3.23573
3.2211
3.20626
3.19122
3.17598
3.16056
3.14496
3.1292
3.11328
3.0972
3.08098
3.06461
3.0481
3.03145
3.01467
2.99775
2.98071
2.96353
2.94622
2.92877
2.9112
2.89349
2.87564
2.85766
2.83954
2.82128
2.80287
2.78432
2.76562
2.74677
2.72775
2.70858
2.68925
2.66975
2.65009
2.63025
2.61023
2.59003
2.56965
2.54908
2.52832
2.50737
2.48622
2.46487
2.44332
2.42156
2.3996
2.37742
2.35503
2.33243
2.30961
2.28657
2.26331
2.23983
2.21613
2.19221
2.16806
2.14369
2.1191
2.09428
2.06925
2.04399
2.01851
1.99281
1.9669
1.94077
1.91442
1.88787
1.86111
1.83414
1.80697
1.77959
1.75203
1.72426
1.69631
1.66817
1.63985
1.61134
1.58266
1.55381
1.52479
1.4956
1.46624
1.43672
1.40704
1.3772
1.34721
1.31706
1.28675
1.25628
1.22565
1.19487
1.16391
1.13279
1.10148
1.06999
1.03831
1.00641
0.974291
0.941926
0.909293
0.876365
0.843109
0.809486
0.77545
0.740941
0.70589
0.670207
0.633777
0.596448
0.558011
0.518156
0.476443
0.432084
0.383561
0.327408
0.253076
0.11429
0.223904
0.509398
0.672969
0.802886
0.919265
1.02836
1.13267
1.23332
1.33089
1.42569
1.51792
1.60769
1.69511
1.78025
1.86315
1.94386
2.02241
2.09883
2.17314
2.24534
2.31544
2.38343
2.44932
2.51309
2.57474
2.63424
2.6916
2.7468
2.79982
2.85067
2.89934
2.94582
2.99011
3.03223
3.07217
3.10996
3.1456
3.17912
3.21054
3.2399
3.26722
3.29254
3.3159
3.33735
3.35693
3.37469
3.39068
3.40495
3.41756
3.42857
3.43802
3.44599
3.45252
3.45767
3.46151
3.46409
3.46547
3.46571
3.46486
3.46297
3.46011
3.45632
3.45164
3.44614
3.43986
3.43285
3.42513
3.41677
3.4078
3.39825
3.38816
3.37757
3.3665
3.355
3.34308
3.33078
3.31811
3.30511
3.29179
3.27817
3.26428
3.25013
3.23573
3.2211
3.20626
3.19122
3.17598
3.16056
3.14496
3.1292
3.11327
3.0972
3.08097
3.06461
3.0481
3.03145
3.01467
2.99775
2.98071
2.96353
2.94622
2.92877
2.9112
2.89349
2.87564
2.85766
2.83954
2.82128
2.80287
2.78432
2.76562
2.74676
2.72775
2.70858
2.68925
2.66975
2.65009
2.63024
2.61023
2.59003
2.56965
2.54908
2.52832
2.50737
2.48622
2.46487
2.44332
2.42156
2.3996
2.37742
2.35503
2.33243
2.30961
2.28657
2.26331
2.23983
2.21613
2.19221
2.16806
2.14369
2.1191
2.09428
2.06925
2.04399
2.01851
1.99281
1.9669
1.94077
1.91442
1.88787
1.86111
1.83414
1.80697
1.77959
1.75203
1.72426
1.69631
1.66817
1.63985
1.61134
1.58266
1.55381
1.52479
1.49559
1.46624
1.43672
1.40704
1.3772
1.34721
1.31706
1.28675
1.25628
1.22565
1.19487
1.16391
1.13279
1.10148
1.06999
1.03831
1.00641
0.974291
0.941926
0.909292
0.876364
0.843109
0.809486
0.77545
0.740941
0.70589
0.670207
0.633777
0.596448
0.558011
0.518156
0.476443
0.432084
0.383561
0.327408
0.253076
0.11429
0.251784
0.570871
0.750922
0.892107
1.01743
1.13425
1.24554
1.35269
1.4564
1.55705
1.65484
1.74992
1.84238
1.9323
2.01975
2.10476
2.18738
2.26766
2.3456
2.42125
2.49461
2.5657
2.63452
2.70108
2.76539
2.82743
2.88721
2.94472
2.99997
3.05294
3.10364
3.15207
3.19824
3.24214
3.2838
3.32322
3.36042
3.39543
3.42827
3.45896
3.48754
3.51405
3.53852
3.561
3.58153
3.60017
3.61696
3.63195
3.64521
3.65678
3.66673
3.67512
3.68199
3.68742
3.69146
3.69417
3.69562
3.69586
3.69494
3.69293
3.68988
3.68585
3.68088
3.67503
3.66835
3.66088
3.65268
3.64378
3.63422
3.62406
3.61331
3.60203
3.59024
3.57798
3.56528
3.55217
3.53866
3.5248
3.51059
3.49607
3.48125
3.46616
3.4508
3.43519
3.41936
3.40331
3.38705
3.37059
3.35395
3.33713
3.32014
3.30299
3.28568
3.26821
3.2506
3.23284
3.21494
3.19689
3.17871
3.16039
3.14193
3.12333
3.10459
3.0857
3.06668
3.04752
3.0282
3.00874
2.98913
2.96936
2.94944
2.92936
2.90912
2.8887
2.86812
2.84737
2.82643
2.80532
2.78402
2.76253
2.74085
2.71897
2.6969
2.67462
2.65214
2.62945
2.60654
2.58342
2.56008
2.53652
2.51274
2.48874
2.4645
2.44004
2.41535
2.39042
2.36527
2.33988
2.31425
2.28839
2.2623
2.23598
2.20942
2.18262
2.1556
2.12834
2.10086
2.07315
2.04521
2.01706
1.98868
1.96008
1.93127
1.90225
1.87301
1.84358
1.81394
1.7841
1.75406
1.72384
1.69342
1.66282
1.63204
1.60108
1.56994
1.53862
1.50714
1.47548
1.44366
1.41167
1.37951
1.34718
1.31468
1.28201
1.24916
1.21614
1.18292
1.14952
1.11591
1.08208
1.04803
1.01372
0.979152
0.944286
0.909093
0.873537
0.837572
0.801141
0.764173
0.726576
0.688231
0.648974
0.608576
0.566694
0.522791
0.475961
0.424428
0.364178
0.283138
0.128632
0.251784
0.570871
0.750922
0.892107
1.01743
1.13425
1.24554
1.35269
1.4564
1.55704
1.65484
1.74992
1.84238
1.9323
2.01975
2.10476
2.18738
2.26765
2.3456
2.42125
2.49461
2.5657
2.63452
2.70108
2.76539
2.82743
2.88721
2.94472
2.99997
3.05294
3.10364
3.15207
3.19823
3.24214
3.2838
3.32322
3.36042
3.39543
3.42827
3.45896
3.48754
3.51405
3.53852
3.561
3.58153
3.60017
3.61696
3.63195
3.64521
3.65678
3.66673
3.67511
3.68199
3.68742
3.69146
3.69417
3.69562
3.69586
3.69494
3.69293
3.68988
3.68585
3.68088
3.67503
3.66835
3.66088
3.65268
3.64378
3.63422
3.62406
3.61331
3.60203
3.59024
3.57798
3.56528
3.55217
3.53866
3.5248
3.51059
3.49607
3.48125
3.46616
3.4508
3.43519
3.41936
3.40331
3.38705
3.37059
3.35395
3.33713
3.32014
3.30299
3.28568
3.26821
3.2506
3.23284
3.21494
3.19689
3.17871
3.16039
3.14193
3.12332
3.10458
3.0857
3.06668
3.04751
3.0282
3.00874
2.98913
2.96936
2.94944
2.92936
2.90911
2.8887
2.86812
2.84736
2.82643
2.80532
2.78402
2.76253
2.74085
2.71897
2.6969
2.67462
2.65214
2.62945
2.60654
2.58342
2.56008
2.53652
2.51274
2.48874
2.4645
2.44004
2.41535
2.39042
2.36527
2.33988
2.31425
2.28839
2.2623
2.23598
2.20942
2.18262
2.1556
2.12834
2.10086
2.07315
2.04521
2.01706
1.98868
1.96008
1.93127
1.90225
1.87301
1.84358
1.81394
1.7841
1.75406
1.72384
1.69342
1.66282
1.63204
1.60108
1.56994
1.53862
1.50714
1.47548
1.44366
1.41167
1.37951
1.34718
1.31468
1.28201
1.24916
1.21614
1.18292
1.14952
1.11591
1.08208
1.04803
1.01372
0.979152
0.944286
0.909093
0.873537
0.837572
0.801141
0.764173
0.726576
0.688231
0.648974
0.608576
0.566694
0.522791
0.475961
0.424428
0.364178
0.283139
0.128632
0.279138
0.630439
0.826812
0.979237
1.11347
1.23786
1.3559
1.4692
1.57861
1.68458
1.78736
1.88712
1.98398
2.07801
2.16929
2.25788
2.34384
2.42722
2.50805
2.58639
2.66226
2.7357
2.80672
2.87534
2.94158
3.00545
3.06696
3.12611
3.18292
3.23738
3.28951
3.33931
3.38678
3.43195
3.47482
3.5154
3.55372
3.5898
3.62366
3.65533
3.68484
3.71222
3.73753
3.76079
3.78205
3.80136
3.81878
3.83434
3.84811
3.86015
3.8705
3.87923
3.8864
3.89207
3.89629
3.89914
3.90066
3.90092
3.89998
3.8979
3.89472
3.89052
3.88533
3.87922
3.87224
3.86443
3.85584
3.84651
3.8365
3.82584
3.81458
3.80274
3.79037
3.7775
3.76415
3.75037
3.73618
3.72161
3.70667
3.6914
3.67581
3.65993
3.64377
3.62735
3.61068
3.59378
3.57667
3.55934
3.54182
3.5241
3.50621
3.48814
3.46991
3.45152
3.43296
3.41426
3.3954
3.37639
3.35724
3.33794
3.31849
3.2989
3.27917
3.25928
3.23925
3.21906
3.19873
3.17824
3.15759
3.13678
3.11581
3.09467
3.07336
3.05188
3.03022
3.00838
2.98636
2.96415
2.94174
2.91914
2.89634
2.87334
2.85013
2.8267
2.80307
2.77922
2.75514
2.73084
2.70632
2.68157
2.65658
2.63136
2.60591
2.58021
2.55428
2.52811
2.50169
2.47503
2.44812
2.42098
2.39358
2.36594
2.33806
2.30994
2.28157
2.25296
2.22411
2.19503
2.1657
2.13615
2.10636
2.07634
2.0461
2.01563
1.98494
1.95403
1.92291
1.89158
1.86004
1.82829
1.79635
1.7642
1.73186
1.69933
1.66661
1.63371
1.60061
1.56734
1.53388
1.50025
1.46643
1.43244
1.39826
1.3639
1.32935
1.29462
1.25969
1.22456
1.18921
1.15365
1.11784
1.08179
1.04547
1.00885
0.971905
0.934599
0.896886
0.858708
0.819994
0.780646
0.740537
0.699488
0.657244
0.613418
0.567394
0.518133
0.463619
0.399319
0.311747
0.142206
0.279139
0.630439
0.826812
0.979237
1.11347
1.23786
1.3559
1.4692
1.57861
1.68458
1.78736
1.88712
1.98398
2.07801
2.16929
2.25788
2.34384
2.42721
2.50805
2.58639
2.66226
2.7357
2.80672
2.87534
2.94158
3.00545
3.06696
3.12611
3.18292
3.23738
3.28951
3.33931
3.38678
3.43195
3.47482
3.5154
3.55372
3.5898
3.62366
3.65533
3.68484
3.71222
3.73753
3.76079
3.78205
3.80136
3.81878
3.83434
3.84811
3.86015
3.8705
3.87923
3.8864
3.89207
3.89629
3.89914
3.90066
3.90092
3.89998
3.8979
3.89472
3.89052
3.88533
3.87922
3.87224
3.86443
3.85584
3.84651
3.8365
3.82584
3.81458
3.80274
3.79037
3.77749
3.76415
3.75037
3.73618
3.72161
3.70667
3.6914
3.67581
3.65993
3.64377
3.62735
3.61068
3.59378
3.57666
3.55934
3.54181
3.5241
3.50621
3.48814
3.46991
3.45152
3.43296
3.41426
3.3954
3.37639
3.35724
3.33794
3.31849
3.2989
3.27917
3.25928
3.23925
3.21906
3.19873
3.17824
3.15759
3.13678
3.11581
3.09467
3.07336
3.05188
3.03022
3.00838
2.98636
2.96415
2.94174
2.91914
2.89634
2.87334
2.85013
2.8267
2.80307
2.77922
2.75514
2.73084
2.70632
2.68157
2.65658
2.63136
2.60591
2.58021
2.55428
2.52811
2.50169
2.47503
2.44812
2.42097
2.39358
2.36594
2.33806
2.30994
2.28157
2.25296
2.22411
2.19503
2.1657
2.13615
2.10636
2.07634
2.0461
2.01563
1.98494
1.95403
1.92291
1.89158
1.86004
1.82829
1.79635
1.7642
1.73186
1.69933
1.66661
1.63371
1.60061
1.56734
1.53388
1.50025
1.46643
1.43244
1.39826
1.3639
1.32935
1.29462
1.25969
1.22455
1.18921
1.15364
1.11784
1.08179
1.04547
1.00885
0.971905
0.934599
0.896886
0.858708
0.819994
0.780646
0.740537
0.699488
0.657244
0.613418
0.567394
0.518133
0.463619
0.39932
0.311747
0.142206
0.306253
0.688876
0.901319
1.06491
1.20799
1.33986
1.46445
1.58364
1.69842
1.80931
1.91662
2.02057
2.12128
2.21885
2.31339
2.40497
2.49365
2.57952
2.66263
2.74304
2.8208
2.89596
2.96856
3.03863
3.10621
3.17131
3.23398
3.29421
3.35204
3.40747
3.46051
3.51119
3.55951
3.60549
3.64915
3.6905
3.72956
3.76635
3.80091
3.83325
3.8634
3.89141
3.91731
3.94114
3.96294
3.98276
4.00065
4.01665
4.03083
4.04322
4.0539
4.06292
4.07034
4.07622
4.08061
4.08359
4.0852
4.08551
4.08457
4.08245
4.07921
4.07489
4.06956
4.06327
4.05606
4.048
4.03912
4.02948
4.01911
4.00807
3.9964
3.98412
3.97129
3.95793
3.94408
3.92976
3.91501
3.89986
3.88433
3.86845
3.85223
3.8357
3.81888
3.80178
3.78443
3.76682
3.74899
3.73094
3.71267
3.69421
3.67556
3.65673
3.63772
3.61854
3.59919
3.57968
3.56001
3.54019
3.52021
3.50008
3.4798
3.45936
3.43877
3.41803
3.39713
3.37608
3.35487
3.33349
3.31195
3.29025
3.26838
3.24633
3.22411
3.20171
3.17912
3.15635
3.13338
3.11023
3.08687
3.06331
3.03954
3.01556
2.99137
2.96696
2.94233
2.91747
2.89238
2.86707
2.84152
2.81573
2.7897
2.76343
2.73691
2.71015
2.68314
2.65588
2.62836
2.6006
2.57258
2.54431
2.51578
2.487
2.45796
2.42867
2.39913
2.36934
2.33929
2.309
2.27846
2.24767
2.21664
2.18537
2.15386
2.12212
2.09014
2.05793
2.0255
1.99284
1.95996
1.92686
1.89354
1.86002
1.82629
1.79235
1.75821
1.72386
1.68932
1.65459
1.61965
1.58453
1.54921
1.5137
1.47799
1.44209
1.40599
1.36969
1.33319
1.29647
1.25953
1.22237
1.18496
1.14729
1.10935
1.07111
1.03255
0.993616
0.954276
0.914468
0.874115
0.833115
0.791328
0.748558
0.704522
0.658787
0.610662
0.558964
0.501461
0.433136
0.339181
0.155253
0.306253
0.688876
0.901319
1.06491
1.20799
1.33986
1.46445
1.58364
1.69842
1.80931
1.91662
2.02057
2.12127
2.21885
2.31339
2.40497
2.49365
2.57952
2.66263
2.74304
2.8208
2.89596
2.96856
3.03863
3.10621
3.17131
3.23398
3.29421
3.35204
3.40747
3.46051
3.51119
3.55951
3.60549
3.64915
3.6905
3.72956
3.76635
3.80091
3.83325
3.8634
3.89141
3.91731
3.94114
3.96294
3.98276
4.00065
4.01665
4.03083
4.04322
4.0539
4.06292
4.07034
4.07622
4.08061
4.08359
4.0852
4.08551
4.08457
4.08245
4.07921
4.07489
4.06956
4.06327
4.05606
4.048
4.03912
4.02948
4.01911
4.00807
3.9964
3.98412
3.97129
3.95793
3.94407
3.92976
3.91501
3.89986
3.88433
3.86845
3.85223
3.8357
3.81888
3.80178
3.78443
3.76682
3.74899
3.73094
3.71267
3.69421
3.67556
3.65673
3.63772
3.61854
3.59919
3.57968
3.56001
3.54019
3.52021
3.50008
3.4798
3.45936
3.43877
3.41803
3.39713
3.37608
3.35486
3.33349
3.31195
3.29025
3.26838
3.24633
3.22411
3.20171
3.17912
3.15635
3.13338
3.11022
3.08687
3.06331
3.03954
3.01556
2.99137
2.96696
2.94233
2.91747
2.89238
2.86707
2.84152
2.81573
2.7897
2.76343
2.73691
2.71015
2.68314
2.65588
2.62836
2.6006
2.57258
2.54431
2.51578
2.487
2.45796
2.42867
2.39913
2.36934
2.33929
2.309
2.27846
2.24767
2.21664
2.18537
2.15386
2.12212
2.09014
2.05793
2.0255
1.99284
1.95996
1.92686
1.89354
1.86002
1.82629
1.79235
1.75821
1.72386
1.68932
1.65459
1.61965
1.58453
1.54921
1.5137
1.47799
1.44209
1.40599
1.36969
1.33319
1.29647
1.25953
1.22237
1.18496
1.14729
1.10935
1.07111
1.03255
0.993616
0.954276
0.914468
0.874115
0.833115
0.791328
0.748559
0.704522
0.658787