/*--------------------------------*- C++ -*----------------------------------*\
  =========                 |
  \\      /  F ield         | OpenFOAM: The Open Source CFD Toolbox
   \\    /   O peration     | Website:  https://openfoam.org
    \\  /    A nd           | Version:  8
     \\/     M anipulation  |
\*---------------------------------------------------------------------------*/
FoamFile
{
    version     2.0;
    format      ascii;
    class       volScalarField;
    location    "4300";
    object      nut;
}
// * * * * * * * * * * * * * * * * * * * * * * * * * * * * * * * * * * * * * //

dimensions      [0 2 -1 0 0 0 0];

internalField   nonuniform List<scalar> 
48000
(
5.3567e-05
9.32513e-05
0.000115479
0.000131819
0.000145453
0.000156988
0.00016701
0.000175899
0.00018402
0.000191578
0.000198571
0.000205113
0.000211261
0.000217061
0.00022255
0.000227757
0.000232705
0.000237415
0.000241901
0.000246176
0.000250252
0.000254138
0.000257842
0.000261371
0.000264732
0.00026793
0.00027097
0.000273859
0.000276599
0.000279196
0.000281653
0.000283975
0.000286166
0.000288229
0.000290168
0.000291986
0.000293689
0.000295278
0.000296759
0.000298133
0.000299406
0.000300579
0.000301657
0.000302642
0.000303544
0.000304377
0.00030513
0.000305802
0.000306398
0.000306921
0.000307374
0.00030776
0.000308082
0.000308344
0.000308548
0.000308697
0.000308794
0.000308842
0.000308842
0.000308798
0.000308711
0.000308584
0.00030842
0.000308219
0.000307985
0.000307718
0.000307421
0.000307095
0.000306742
0.000306363
0.00030596
0.000305535
0.000305087
0.00030462
0.000304132
0.000303627
0.000303104
0.000302565
0.00030201
0.00030144
0.000300856
0.000300258
0.000299647
0.000299024
0.000298389
0.000297742
0.000297084
0.000296415
0.000295736
0.000295046
0.000294346
0.000293637
0.000292917
0.000292188
0.000291449
0.000290701
0.000289943
0.000289175
0.000288398
0.000287611
0.000286815
0.000286008
0.000285191
0.000284364
0.000283527
0.00028268
0.000281821
0.000280951
0.00028007
0.000279178
0.000278274
0.000277358
0.000276429
0.000275488
0.000274534
0.000273566
0.000272585
0.00027159
0.00027058
0.000269556
0.000268517
0.000267462
0.000266392
0.000265305
0.000264202
0.000263082
0.000261944
0.000260789
0.000259616
0.000258425
0.000257214
0.000255985
0.000254736
0.000253466
0.000252177
0.000250866
0.000249535
0.000248182
0.000246807
0.00024541
0.00024399
0.000242547
0.00024108
0.00023959
0.000238076
0.000236537
0.000234973
0.000233384
0.000231769
0.000230128
0.000228461
0.000226766
0.000225045
0.000223296
0.000221518
0.000219712
0.000217877
0.000216012
0.000214118
0.000212192
0.000210236
0.000208247
0.000206226
0.000204172
0.000202083
0.00019996
0.000197801
0.000195604
0.00019337
0.000191096
0.00018878
0.000186423
0.00018402
0.000181571
0.000179073
0.000176523
0.000173919
0.000171256
0.000168532
0.000165745
0.000162893
0.000159987
0.000156997
0.000153908
0.000150711
0.000147389
0.000143928
0.000140305
0.000136493
0.000132459
0.000128156
0.000123546
0.000118572
0.000113092
0.000106938
9.98366e-05
9.13164e-05
8.04939e-05
6.68405e-05
0.000228244
5.35674e-05
9.32516e-05
0.00011548
0.000131819
0.000145454
0.000156989
0.00016701
0.000175899
0.00018402
0.000191578
0.000198571
0.000205113
0.000211261
0.000217061
0.00022255
0.000227757
0.000232706
0.000237415
0.000241901
0.000246176
0.000250252
0.000254138
0.000257842
0.000261371
0.000264732
0.00026793
0.00027097
0.000273859
0.000276599
0.000279196
0.000281653
0.000283975
0.000286166
0.000288229
0.000290168
0.000291987
0.000293689
0.000295279
0.000296759
0.000298133
0.000299406
0.000300579
0.000301657
0.000302642
0.000303544
0.000304377
0.00030513
0.000305802
0.000306398
0.000306921
0.000307374
0.00030776
0.000308082
0.000308344
0.000308548
0.000308697
0.000308794
0.000308842
0.000308842
0.000308798
0.000308711
0.000308584
0.00030842
0.000308219
0.000307985
0.000307718
0.000307421
0.000307095
0.000306742
0.000306363
0.00030596
0.000305535
0.000305087
0.00030462
0.000304132
0.000303627
0.000303104
0.000302565
0.00030201
0.00030144
0.000300856
0.000300258
0.000299647
0.000299024
0.000298389
0.000297742
0.000297084
0.000296415
0.000295736
0.000295046
0.000294346
0.000293637
0.000292917
0.000292188
0.000291449
0.000290701
0.000289943
0.000289175
0.000288398
0.000287611
0.000286814
0.000286008
0.000285191
0.000284364
0.000283527
0.000282679
0.000281821
0.000280951
0.00028007
0.000279178
0.000278274
0.000277358
0.000276429
0.000275488
0.000274534
0.000273566
0.000272585
0.00027159
0.00027058
0.000269556
0.000268517
0.000267462
0.000266392
0.000265305
0.000264202
0.000263082
0.000261944
0.000260789
0.000259616
0.000258425
0.000257214
0.000255985
0.000254736
0.000253466
0.000252177
0.000250866
0.000249535
0.000248182
0.000246807
0.00024541
0.00024399
0.000242547
0.00024108
0.00023959
0.000238076
0.000236537
0.000234973
0.000233384
0.000231769
0.000230128
0.000228461
0.000226766
0.000225045
0.000223296
0.000221518
0.000219712
0.000217877
0.000216012
0.000214118
0.000212192
0.000210236
0.000208247
0.000206226
0.000204172
0.000202083
0.00019996
0.000197801
0.000195604
0.00019337
0.000191096
0.00018878
0.000186423
0.00018402
0.000181571
0.000179073
0.000176523
0.000173919
0.000171256
0.000168532
0.000165745
0.000162893
0.000159987
0.000156997
0.000153908
0.000150711
0.000147389
0.000143928
0.000140305
0.000136493
0.000132459
0.000128156
0.000123546
0.000118572
0.000113092
0.000106938
9.98364e-05
9.13157e-05
8.04928e-05
6.68461e-05
0.000228252
8.11784e-05
0.000602053
0.000953095
0.00119846
0.00138284
0.00153237
0.00166051
0.0017732
0.00187379
0.00196454
0.00204759
0.00212416
0.00219519
0.0022614
0.00232335
0.0023815
0.0024362
0.00248777
0.00253646
0.00258249
0.00262604
0.00266726
0.00270631
0.00274331
0.00277836
0.00281157
0.00284303
0.00287282
0.00290102
0.00292769
0.0029529
0.00297671
0.00299918
0.00302037
0.00304031
0.00305907
0.00307668
0.00309319
0.00310865
0.00312309
0.00313654
0.00314905
0.00316062
0.00317127
0.00318086
0.00318943
0.00319716
0.00320415
0.00321046
0.00321613
0.00322119
0.00322568
0.00322962
0.00323304
0.00323595
0.00323838
0.00324035
0.00324188
0.00324299
0.00324371
0.00324403
0.003244
0.00324361
0.00324288
0.00324184
0.00324049
0.00323885
0.00323693
0.00323475
0.0032323
0.00322962
0.0032267
0.00322355
0.00322019
0.00321663
0.00321287
0.00320891
0.00320478
0.00320047
0.00319598
0.00319134
0.00318653
0.00318157
0.00317647
0.00317121
0.00316582
0.00316028
0.00315461
0.00314881
0.00314287
0.0031368
0.00313061
0.00312429
0.00311784
0.00311127
0.00310457
0.00309775
0.0030908
0.00308373
0.00307653
0.0030692
0.00306174
0.00305415
0.00304643
0.00303858
0.00303059
0.00302246
0.0030142
0.00300579
0.00299724
0.00298854
0.00297969
0.00297069
0.00296153
0.00295221
0.00294273
0.00293309
0.00292327
0.00291329
0.00290313
0.00289279
0.00288226
0.00287155
0.00286065
0.00284956
0.00283827
0.00282678
0.00281508
0.00280317
0.00279105
0.00277871
0.00276615
0.00275337
0.00274036
0.00272712
0.00271363
0.00269991
0.00268595
0.00267173
0.00265727
0.00264254
0.00262756
0.00261231
0.0025968
0.00258101
0.00256494
0.0025486
0.00253196
0.00251504
0.00249783
0.00248031
0.00246249
0.00244437
0.00242593
0.00240717
0.00238809
0.00236867
0.00234892
0.00232882
0.00230838
0.00228757
0.0022664
0.00224486
0.00222292
0.00220059
0.00217785
0.0021547
0.0021311
0.00210705
0.00208254
0.00205753
0.00203202
0.00200596
0.00197934
0.00195212
0.00192427
0.00189573
0.00186645
0.00183637
0.00180538
0.00177334
0.0017401
0.00170565
0.00166993
0.00163281
0.00159409
0.00155357
0.00151094
0.00146581
0.00141761
0.00136552
0.00130801
0.00124376
0.00117119
0.00108727
0.00098691
0.000860918
0.000690737
0.000434062
5.80895e-05
8.11787e-05
0.000602059
0.000953104
0.00119847
0.00138285
0.00153238
0.00166052
0.00177321
0.0018738
0.00196455
0.0020476
0.00212417
0.0021952
0.00226141
0.00232336
0.0023815
0.00243621
0.00248778
0.00253647
0.0025825
0.00262604
0.00266727
0.00270632
0.00274332
0.00277837
0.00281158
0.00284304
0.00287283
0.00290102
0.00292769
0.0029529
0.00297672
0.00299919
0.00302037
0.00304032
0.00305907
0.00307669
0.0030932
0.00310866
0.00312309
0.00313655
0.00314905
0.00316063
0.00317127
0.00318087
0.00318944
0.00319716
0.00320415
0.00321046
0.00321613
0.0032212
0.00322569
0.00322963
0.00323304
0.00323595
0.00323838
0.00324035
0.00324189
0.003243
0.00324371
0.00324404
0.003244
0.00324361
0.00324289
0.00324185
0.0032405
0.00323886
0.00323694
0.00323475
0.00323231
0.00322962
0.0032267
0.00322356
0.0032202
0.00321663
0.00321287
0.00320892
0.00320478
0.00320047
0.00319599
0.00319134
0.00318654
0.00318158
0.00317647
0.00317122
0.00316582
0.00316029
0.00315461
0.00314881
0.00314287
0.00313681
0.00313062
0.00312429
0.00311785
0.00311128
0.00310458
0.00309775
0.00309081
0.00308373
0.00307653
0.0030692
0.00306174
0.00305416
0.00304644
0.00303858
0.00303059
0.00302247
0.0030142
0.00300579
0.00299724
0.00298854
0.00297969
0.00297069
0.00296153
0.00295221
0.00294274
0.00293309
0.00292328
0.00291329
0.00290313
0.00289279
0.00288227
0.00287156
0.00286066
0.00284956
0.00283827
0.00282678
0.00281508
0.00280317
0.00279105
0.00277872
0.00276616
0.00275337
0.00274036
0.00272712
0.00271364
0.00269992
0.00268595
0.00267174
0.00265727
0.00264255
0.00262756
0.00261232
0.0025968
0.00258101
0.00256495
0.0025486
0.00253197
0.00251505
0.00249783
0.00248032
0.0024625
0.00244437
0.00242593
0.00240717
0.00238809
0.00236867
0.00234892
0.00232883
0.00230838
0.00228758
0.00226641
0.00224486
0.00222292
0.0022006
0.00217786
0.0021547
0.0021311
0.00210706
0.00208254
0.00205754
0.00203202
0.00200596
0.00197934
0.00195213
0.00192427
0.00189573
0.00186646
0.00183637
0.00180538
0.00177335
0.0017401
0.00170566
0.00166994
0.00163281
0.0015941
0.00155357
0.00151094
0.00146581
0.00141762
0.00136553
0.00130801
0.00124376
0.00117119
0.00108727
0.00098691
0.000860916
0.000690735
0.000434062
5.80833e-05
9.98747e-05
0.000913632
0.00162543
0.00215904
0.00257844
0.00292549
0.00322299
0.00348431
0.00371748
0.00392789
0.00411957
0.00429541
0.00445763
0.00460791
0.00474765
0.00487794
0.00499972
0.00511376
0.00522072
0.00532118
0.00541564
0.00550455
0.00558828
0.00566721
0.00574163
0.00581183
0.00587808
0.0059406
0.00599962
0.00605532
0.0061079
0.00615751
0.00620432
0.00624847
0.00629008
0.00632929
0.00636622
0.00640095
0.00643361
0.00646427
0.00649303
0.00651994
0.00654507
0.00656843
0.00658998
0.00660979
0.00662803
0.00664485
0.00666034
0.0066746
0.00668768
0.00669966
0.00671058
0.00672048
0.00672943
0.00673744
0.00674457
0.00675086
0.00675632
0.00676101
0.00676494
0.00676816
0.00677068
0.00677254
0.00677376
0.00677436
0.00677438
0.00677382
0.00677272
0.00677108
0.00676894
0.00676631
0.0067632
0.00675964
0.00675563
0.00675119
0.00674634
0.00674108
0.00673543
0.0067294
0.006723
0.00671624
0.00670912
0.00670166
0.00669386
0.00668573
0.00667727
0.00666849
0.00665939
0.00664998
0.00664025
0.00663022
0.00661987
0.00660923
0.00659828
0.00658702
0.00657546
0.00656359
0.00655141
0.00653893
0.00652613
0.00651303
0.0064996
0.00648586
0.00647179
0.0064574
0.00644267
0.00642761
0.00641221
0.00639647
0.00638037
0.00636392
0.0063471
0.00632991
0.00631235
0.00629441
0.00627608
0.00625735
0.00623822
0.00621868
0.00619872
0.00617834
0.00615752
0.00613626
0.00611456
0.00609239
0.00606977
0.00604666
0.00602308
0.005999
0.00597443
0.00594935
0.00592375
0.00589762
0.00587096
0.00584376
0.005816
0.00578768
0.00575879
0.00572932
0.00569925
0.00566859
0.00563731
0.0056054
0.00557287
0.00553969
0.00550586
0.00547136
0.00543618
0.00540031
0.00536373
0.00532644
0.00528842
0.00524965
0.00521012
0.00516981
0.0051287
0.00508678
0.00504403
0.00500042
0.00495593
0.00491054
0.00486422
0.00481695
0.00476869
0.0047194
0.00466905
0.0046176
0.004565
0.00451121
0.00445615
0.00439978
0.00434201
0.00428277
0.00422196
0.00415947
0.00409518
0.00402894
0.00396057
0.00388983
0.00381648
0.00374022
0.00366082
0.00357795
0.00349117
0.00339992
0.00330353
0.00320113
0.00309156
0.00297328
0.00284419
0.00270132
0.00254069
0.00235785
0.00214536
0.00189185
0.00157926
0.00117829
0.000646218
7.06903e-05
9.9875e-05
0.00091364
0.00162544
0.00215905
0.00257846
0.00292551
0.00322301
0.00348433
0.00371749
0.0039279
0.00411958
0.00429543
0.00445764
0.00460793
0.00474766
0.00487796
0.00499973
0.00511377
0.00522073
0.00532119
0.00541565
0.00550456
0.00558829
0.00566722
0.00574164
0.00581184
0.00587809
0.00594061
0.00599963
0.00605533
0.00610791
0.00615752
0.00620433
0.00624847
0.00629009
0.0063293
0.00636622
0.00640096
0.00643362
0.00646428
0.00649303
0.00651995
0.00654507
0.00656843
0.00658998
0.00660979
0.00662804
0.00664485
0.00666034
0.0066746
0.00668769
0.00669966
0.00671058
0.00672049
0.00672943
0.00673745
0.00674458
0.00675086
0.00675633
0.00676101
0.00676495
0.00676816
0.00677068
0.00677254
0.00677376
0.00677437
0.00677438
0.00677382
0.00677272
0.00677109
0.00676894
0.00676631
0.0067632
0.00675964
0.00675563
0.00675119
0.00674634
0.00674108
0.00673543
0.0067294
0.006723
0.00671624
0.00670913
0.00670167
0.00669387
0.00668573
0.00667727
0.00666849
0.00665939
0.00664998
0.00664025
0.00663022
0.00661988
0.00660923
0.00659828
0.00658702
0.00657546
0.00656359
0.00655141
0.00653893
0.00652613
0.00651303
0.0064996
0.00648586
0.00647179
0.0064574
0.00644268
0.00642762
0.00641222
0.00639647
0.00638037
0.00636392
0.0063471
0.00632991
0.00631235
0.00629441
0.00627608
0.00625735
0.00623822
0.00621868
0.00619872
0.00617834
0.00615752
0.00613626
0.00611456
0.00609239
0.00606977
0.00604666
0.00602308
0.005999
0.00597443
0.00594935
0.00592375
0.00589762
0.00587097
0.00584376
0.005816
0.00578768
0.00575879
0.00572932
0.00569925
0.00566859
0.00563731
0.00560541
0.00557287
0.00553969
0.00550586
0.00547136
0.00543618
0.00540031
0.00536373
0.00532644
0.00528842
0.00524965
0.00521012
0.00516981
0.0051287
0.00508678
0.00504403
0.00500042
0.00495593
0.00491054
0.00486422
0.00481695
0.00476869
0.0047194
0.00466905
0.0046176
0.004565
0.00451121
0.00445615
0.00439978
0.00434201
0.00428277
0.00422196
0.00415947
0.00409518
0.00402894
0.00396057
0.00388983
0.00381648
0.00374022
0.00366082
0.00357795
0.00349117
0.00339992
0.00330353
0.00320113
0.00309156
0.00297328
0.00284419
0.00270132
0.00254069
0.00235785
0.00214536
0.00189185
0.00157926
0.00117829
0.000646221
7.06917e-05
0.000113058
0.00110537
0.0020805
0.0028553
0.00348722
0.0040199
0.00448074
0.00488729
0.0052511
0.00558016
0.00588026
0.0061557
0.00640978
0.00664509
0.00686371
0.00706735
0.00725745
0.00743521
0.00760168
0.00775777
0.00790428
0.00804194
0.00817137
0.00829316
0.00840782
0.00851582
0.00861761
0.00871358
0.00880409
0.00888947
0.00897004
0.00904608
0.00911785
0.00918559
0.00924954
0.00930989
0.00936684
0.00942057
0.00947123
0.00951898
0.00956396
0.00960628
0.00964603
0.0096833
0.00971813
0.00975061
0.00978093
0.00980922
0.00983562
0.00986024
0.00988318
0.00990452
0.00992435
0.00994273
0.00995973
0.0099754
0.0099898
0.010003
0.010015
0.0100259
0.0100357
0.0100445
0.0100523
0.0100591
0.010065
0.0100699
0.0100741
0.0100774
0.0100798
0.0100815
0.0100824
0.0100826
0.0100821
0.0100809
0.0100791
0.0100765
0.0100734
0.0100696
0.0100652
0.0100602
0.0100546
0.0100485
0.0100418
0.0100346
0.0100268
0.0100185
0.0100097
0.0100003
0.00999049
0.00998013
0.00996926
0.00995789
0.00994602
0.00993365
0.00992078
0.00990741
0.00989355
0.00987918
0.00986431
0.00984893
0.00983304
0.00981664
0.00979972
0.00978227
0.0097643
0.00974579
0.00972674
0.00970715
0.00968699
0.00966627
0.00964498
0.00962311
0.00960065
0.00957759
0.00955392
0.00952963
0.00950471
0.00947915
0.00945294
0.00942607
0.00939852
0.00937029
0.00934136
0.00931172
0.00928136
0.00925027
0.00921842
0.00918582
0.00915244
0.00911827
0.0090833
0.00904752
0.0090109
0.00897344
0.00893512
0.00889592
0.00885583
0.00881484
0.00877292
0.00873006
0.00868624
0.00864146
0.00859568
0.00854889
0.00850107
0.00845221
0.00840227
0.00835125
0.00829911
0.00824584
0.00819142
0.00813581
0.00807899
0.00802094
0.00796162
0.00790101
0.00783907
0.00777577
0.00771107
0.00764493
0.0075773
0.00750816
0.00743743
0.00736507
0.00729103
0.00721523
0.00713761
0.00705809
0.00697659
0.006893
0.00680724
0.00671917
0.00662867
0.00653558
0.00643974
0.00634095
0.00623898
0.00613357
0.0060244
0.00591113
0.00579331
0.00567049
0.00554212
0.00540757
0.00526603
0.00511653
0.00495782
0.00478835
0.00460614
0.00440867
0.00419258
0.00395349
0.00368556
0.00338156
0.00303121
0.00261991
0.00212702
0.00152449
0.000786718
8.04856e-05
0.000113058
0.00110538
0.00208051
0.00285532
0.00348725
0.00401993
0.00448077
0.00488732
0.00525113
0.00558019
0.00588029
0.00615573
0.0064098
0.00664511
0.00686373
0.00706737
0.00725747
0.00743523
0.0076017
0.00775779
0.0079043
0.00804196
0.00817139
0.00829317
0.00840783
0.00851584
0.00861763
0.00871359
0.0088041
0.00888948
0.00897005
0.00904609
0.00911786
0.0091856
0.00924955
0.0093099
0.00936685
0.00942057
0.00947124
0.00951899
0.00956397
0.00960628
0.00964604
0.00968331
0.00971814
0.00975062
0.00978093
0.00980922
0.00983562
0.00986024
0.00988318
0.00990453
0.00992435
0.00994273
0.00995973
0.0099754
0.0099898
0.010003
0.010015
0.0100259
0.0100357
0.0100445
0.0100523
0.0100591
0.010065
0.0100699
0.0100741
0.0100774
0.0100798
0.0100815
0.0100825
0.0100826
0.0100821
0.0100809
0.0100791
0.0100765
0.0100734
0.0100696
0.0100652
0.0100602
0.0100546
0.0100485
0.0100418
0.0100346
0.0100268
0.0100185
0.0100097
0.0100003
0.00999049
0.00998013
0.00996926
0.00995789
0.00994602
0.00993365
0.00992078
0.00990741
0.00989355
0.00987918
0.00986431
0.00984893
0.00983304
0.00981664
0.00979972
0.00978227
0.0097643
0.00974579
0.00972674
0.00970714
0.00968699
0.00966627
0.00964498
0.00962311
0.00960065
0.00957758
0.00955391
0.00952963
0.00950471
0.00947915
0.00945294
0.00942607
0.00939852
0.00937029
0.00934136
0.00931172
0.00928136
0.00925027
0.00921842
0.00918582
0.00915244
0.00911827
0.0090833
0.00904752
0.0090109
0.00897344
0.00893511
0.00889592
0.00885583
0.00881483
0.00877291
0.00873006
0.00868624
0.00864145
0.00859568
0.00854889
0.00850107
0.0084522
0.00840227
0.00835124
0.00829911
0.00824584
0.00819142
0.00813581
0.00807899
0.00802094
0.00796162
0.00790101
0.00783907
0.00777577
0.00771106
0.00764492
0.0075773
0.00750815
0.00743743
0.00736507
0.00729103
0.00721523
0.00713761
0.00705809
0.00697658
0.006893
0.00680723
0.00671917
0.00662866
0.00653558
0.00643974
0.00634095
0.00623898
0.00613357
0.0060244
0.00591112
0.00579331
0.00567048
0.00554212
0.00540757
0.00526603
0.00511653
0.00495782
0.00478835
0.00460614
0.00440867
0.00419258
0.00395349
0.00368556
0.00338156
0.00303121
0.00261991
0.00212702
0.00152449
0.000786719
8.0486e-05
0.000123775
0.00123561
0.00240625
0.00337621
0.00418715
0.00488075
0.00548619
0.00602338
0.00650612
0.0069442
0.00734481
0.00771334
0.00805396
0.00836993
0.00866392
0.0089381
0.0091943
0.00943408
0.00965879
0.0098696
0.0100676
0.0102536
0.0104286
0.0105933
0.0107483
0.0108944
0.0110321
0.011162
0.0112845
0.0114001
0.0115092
0.0116123
0.0117096
0.0118016
0.0118886
0.0119708
0.0120485
0.0121219
0.0121913
0.0122569
0.0123189
0.0123774
0.0124327
0.0124848
0.0125338
0.0125799
0.0126232
0.012664
0.0127024
0.0127384
0.0127724
0.0128042
0.0128341
0.0128622
0.0128884
0.012913
0.012936
0.0129573
0.0129772
0.0129957
0.0130127
0.0130285
0.0130429
0.0130561
0.0130681
0.013079
0.0130887
0.0130973
0.0131049
0.0131115
0.0131171
0.0131217
0.0131254
0.0131282
0.0131301
0.0131312
0.0131313
0.0131307
0.0131293
0.013127
0.013124
0.0131203
0.0131157
0.0131105
0.0131045
0.0130977
0.0130903
0.0130822
0.0130733
0.0130638
0.0130535
0.0130426
0.013031
0.0130186
0.0130056
0.0129919
0.0129775
0.0129624
0.0129466
0.0129301
0.0129129
0.012895
0.0128763
0.012857
0.0128368
0.012816
0.0127944
0.012772
0.0127488
0.0127249
0.0127001
0.0126746
0.0126482
0.012621
0.012593
0.0125641
0.0125343
0.0125036
0.012472
0.0124396
0.0124061
0.0123718
0.0123364
0.0123001
0.0122628
0.0122244
0.0121851
0.0121446
0.0121031
0.0120605
0.0120168
0.011972
0.011926
0.0118788
0.0118304
0.0117809
0.01173
0.011678
0.0116246
0.0115699
0.0115139
0.0114566
0.0113978
0.0113376
0.011276
0.011213
0.0111484
0.0110823
0.0110146
0.0109453
0.0108744
0.0108018
0.0107275
0.0106515
0.0105736
0.0104939
0.0104123
0.0103288
0.0102432
0.0101556
0.0100659
0.00997391
0.00987969
0.0097831
0.00968407
0.00958249
0.00947827
0.00937127
0.00926138
0.00914845
0.00903232
0.00891281
0.00878973
0.00866285
0.00853191
0.00839662
0.00825665
0.00811161
0.00796105
0.00780445
0.00764121
0.00747062
0.00729189
0.00710404
0.0069059
0.00669603
0.00647269
0.00623368
0.0059763
0.00569711
0.00539175
0.00505474
0.00467898
0.00425534
0.00377232
0.00321442
0.00256173
0.00179121
0.000893791
8.83094e-05
0.000123775
0.00123561
0.00240627
0.00337624
0.00418718
0.00488078
0.00548622
0.00602341
0.00650615
0.00694423
0.00734484
0.00771337
0.00805398
0.00836996
0.00866395
0.00893813
0.00919433
0.00943411
0.00965881
0.00986963
0.0100676
0.0102536
0.0104286
0.0105933
0.0107483
0.0108944
0.0110321
0.011162
0.0112845
0.0114001
0.0115092
0.0116123
0.0117097
0.0118017
0.0118886
0.0119708
0.0120485
0.0121219
0.0121913
0.0122569
0.0123189
0.0123775
0.0124327
0.0124848
0.0125338
0.0125799
0.0126232
0.012664
0.0127024
0.0127384
0.0127724
0.0128042
0.0128341
0.0128622
0.0128884
0.012913
0.012936
0.0129573
0.0129772
0.0129957
0.0130127
0.0130285
0.0130429
0.0130561
0.0130681
0.013079
0.0130887
0.0130973
0.0131049
0.0131115
0.0131171
0.0131217
0.0131254
0.0131282
0.0131301
0.0131312
0.0131313
0.0131307
0.0131293
0.013127
0.013124
0.0131203
0.0131157
0.0131105
0.0131045
0.0130977
0.0130903
0.0130822
0.0130733
0.0130638
0.0130535
0.0130426
0.013031
0.0130186
0.0130056
0.0129919
0.0129775
0.0129624
0.0129466
0.0129301
0.0129129
0.012895
0.0128763
0.012857
0.0128368
0.012816
0.0127944
0.012772
0.0127488
0.0127249
0.0127001
0.0126746
0.0126482
0.012621
0.012593
0.0125641
0.0125343
0.0125036
0.012472
0.0124396
0.0124061
0.0123718
0.0123364
0.0123001
0.0122628
0.0122244
0.0121851
0.0121446
0.0121031
0.0120605
0.0120168
0.011972
0.011926
0.0118788
0.0118304
0.0117809
0.01173
0.011678
0.0116246
0.0115699
0.0115139
0.0114566
0.0113978
0.0113376
0.011276
0.011213
0.0111484
0.0110823
0.0110146
0.0109453
0.0108744
0.0108018
0.0107275
0.0106515
0.0105736
0.0104939
0.0104123
0.0103288
0.0102432
0.0101556
0.0100659
0.00997391
0.00987968
0.0097831
0.00968407
0.00958249
0.00947826
0.00937127
0.00926137
0.00914844
0.00903231
0.00891281
0.00878973
0.00866284
0.00853191
0.00839662
0.00825665
0.00811161
0.00796105
0.00780444
0.0076412
0.00747062
0.00729189
0.00710404
0.0069059
0.00669603
0.00647268
0.00623368
0.00597629
0.0056971
0.00539175
0.00505474
0.00467898
0.00425534
0.00377232
0.00321442
0.00256173
0.00179121
0.00089379
8.83095e-05
0.000132852
0.00133865
0.0026586
0.00378495
0.00474393
0.00557378
0.00630385
0.00695525
0.00754316
0.00807862
0.00856981
0.00902294
0.00944284
0.00983331
0.0101974
0.0105377
0.0108564
0.0111551
0.0114355
0.0116991
0.0119469
0.0121801
0.0123997
0.0126066
0.0128017
0.0129856
0.0131592
0.013323
0.0134777
0.0136238
0.0137619
0.0138924
0.0140159
0.0141327
0.0142432
0.0143478
0.0144468
0.0145406
0.0146294
0.0147135
0.0147931
0.0148685
0.0149399
0.0150075
0.0150714
0.0151318
0.0151889
0.0152429
0.0152939
0.0153422
0.0153878
0.015431
0.0154717
0.0155102
0.0155466
0.0155808
0.0156131
0.0156436
0.0156721
0.015699
0.0157242
0.0157477
0.0157697
0.0157902
0.0158093
0.0158269
0.0158432
0.0158582
0.0158719
0.0158843
0.0158956
0.0159056
0.0159146
0.0159224
0.0159291
0.0159348
0.0159394
0.015943
0.0159457
0.0159473
0.015948
0.0159477
0.0159465
0.0159443
0.0159413
0.0159373
0.0159324
0.0159267
0.01592
0.0159125
0.0159041
0.0158948
0.0158847
0.0158736
0.0158617
0.0158489
0.0158352
0.0158206
0.0158052
0.0157888
0.0157715
0.0157534
0.0157342
0.0157142
0.0156932
0.0156713
0.0156484
0.0156245
0.0155996
0.0155737
0.0155469
0.0155189
0.01549
0.0154599
0.0154288
0.0153966
0.0153632
0.0153288
0.0152931
0.0152563
0.0152183
0.0151791
0.0151387
0.015097
0.015054
0.0150097
0.0149641
0.0149172
0.0148689
0.0148191
0.014768
0.0147154
0.0146613
0.0146058
0.0145487
0.01449
0.0144297
0.0143678
0.0143043
0.0142391
0.0141722
0.0141035
0.014033
0.0139607
0.0138866
0.0138105
0.0137325
0.0136525
0.0135705
0.0134864
0.0134001
0.0133117
0.0132211
0.0131281
0.0130328
0.0129351
0.0128349
0.0127322
0.0126268
0.0125187
0.0124078
0.012294
0.0121772
0.0120573
0.0119341
0.0118076
0.0116776
0.0115439
0.0114063
0.0112647
0.0111189
0.0109685
0.0108134
0.0106533
0.0104877
0.0103163
0.0101387
0.00995428
0.00976254
0.00956277
0.00935418
0.00913585
0.0089067
0.00866545
0.00841058
0.00814024
0.00785221
0.00754377
0.00721157
0.0068515
0.00645847
0.00602613
0.00554656
0.0050098
0.00440388
0.00371369
0.00292134
0.00200923
0.000981701
9.49159e-05
0.000132852
0.00133866
0.00265862
0.00378497
0.00474396
0.00557381
0.00630388
0.00695529
0.0075432
0.00807865
0.00856984
0.00902298
0.00944288
0.00983335
0.0101975
0.0105378
0.0108564
0.0111551
0.0114356
0.0116991
0.0119469
0.0121801
0.0123997
0.0126067
0.0128017
0.0129857
0.0131592
0.013323
0.0134777
0.0136238
0.0137619
0.0138925
0.0140159
0.0141327
0.0142432
0.0143478
0.0144468
0.0145406
0.0146294
0.0147135
0.0147931
0.0148686
0.01494
0.0150075
0.0150714
0.0151318
0.0151889
0.0152429
0.0152939
0.0153422
0.0153878
0.015431
0.0154717
0.0155102
0.0155466
0.0155808
0.0156131
0.0156436
0.0156722
0.015699
0.0157242
0.0157477
0.0157697
0.0157902
0.0158093
0.0158269
0.0158432
0.0158582
0.0158719
0.0158843
0.0158956
0.0159056
0.0159146
0.0159224
0.0159291
0.0159348
0.0159394
0.015943
0.0159457
0.0159473
0.015948
0.0159477
0.0159465
0.0159443
0.0159413
0.0159373
0.0159324
0.0159267
0.01592
0.0159125
0.0159041
0.0158948
0.0158846
0.0158736
0.0158617
0.0158489
0.0158352
0.0158206
0.0158052
0.0157888
0.0157715
0.0157534
0.0157342
0.0157142
0.0156932
0.0156713
0.0156484
0.0156245
0.0155996
0.0155737
0.0155469
0.0155189
0.0154899
0.0154599
0.0154288
0.0153966
0.0153632
0.0153288
0.0152931
0.0152563
0.0152183
0.0151791
0.0151387
0.015097
0.015054
0.0150097
0.0149641
0.0149172
0.0148689
0.0148191
0.014768
0.0147154
0.0146613
0.0146058
0.0145486
0.01449
0.0144297
0.0143678
0.0143043
0.0142391
0.0141722
0.0141035
0.014033
0.0139607
0.0138865
0.0138105
0.0137325
0.0136525
0.0135705
0.0134864
0.0134001
0.0133117
0.0132211
0.0131281
0.0130328
0.0129351
0.0128349
0.0127322
0.0126268
0.0125187
0.0124078
0.012294
0.0121772
0.0120573
0.0119341
0.0118076
0.0116776
0.0115439
0.0114063
0.0112647
0.0111189
0.0109685
0.0108134
0.0106533
0.0104877
0.0103163
0.0101387
0.00995427
0.00976254
0.00956277
0.00935418
0.00913584
0.00890669
0.00866545
0.00841057
0.00814024
0.00785221
0.00754376
0.00721157
0.0068515
0.00645847
0.00602613
0.00554656
0.0050098
0.00440389
0.0037137
0.00292134
0.00200923
0.000981699
9.49159e-05
0.00014088
0.00142677
0.00286663
0.00411992
0.00520148
0.00614611
0.0069827
0.0077329
0.00841273
0.00903404
0.00960577
0.0101347
0.0106262
0.0110845
0.0115129
0.0119142
0.0122909
0.0126448
0.0129778
0.0132913
0.0135867
0.0138652
0.014128
0.0143759
0.01461
0.0148311
0.01504
0.0152375
0.0154242
0.0156008
0.0157679
0.015926
0.0160758
0.0162177
0.0163521
0.0164795
0.0166002
0.0167148
0.0168235
0.0169266
0.0170244
0.0171172
0.0172053
0.0172889
0.0173682
0.0174434
0.0175148
0.0175825
0.0176467
0.0177077
0.0177656
0.0178206
0.0178727
0.0179222
0.0179692
0.0180137
0.0180559
0.0180959
0.0181338
0.0181696
0.0182034
0.0182354
0.0182655
0.0182939
0.0183206
0.0183457
0.0183691
0.018391
0.0184115
0.0184304
0.018448
0.0184642
0.018479
0.0184926
0.0185049
0.0185159
0.0185257
0.0185342
0.0185416
0.0185479
0.018553
0.018557
0.0185598
0.0185616
0.0185622
0.0185618
0.0185603
0.0185578
0.0185542
0.0185495
0.0185438
0.018537
0.0185291
0.0185203
0.0185103
0.0184993
0.0184872
0.018474
0.0184598
0.0184445
0.018428
0.0184105
0.0183919
0.0183721
0.0183511
0.0183291
0.0183058
0.0182814
0.0182557
0.0182289
0.0182008
0.0181714
0.0181408
0.0181089
0.0180757
0.0180411
0.0180052
0.0179679
0.0179292
0.0178891
0.0178476
0.0178045
0.01776
0.0177139
0.0176663
0.0176171
0.0175662
0.0175138
0.0174596
0.0174038
0.0173462
0.0172869
0.0172258
0.0171628
0.017098
0.0170312
0.0169625
0.0168919
0.0168192
0.0167444
0.0166676
0.0165886
0.0165074
0.0164239
0.0163382
0.0162501
0.0161597
0.0160668
0.0159714
0.0158734
0.0157728
0.0156695
0.0155635
0.0154546
0.0153428
0.015228
0.0151102
0.0149891
0.0148648
0.0147371
0.014606
0.0144712
0.0143327
0.0141903
0.0140439
0.0138932
0.0137382
0.0135786
0.0134142
0.0132447
0.0130699
0.0128895
0.0127031
0.0125104
0.0123109
0.0121042
0.0118896
0.0116666
0.0114344
0.0111922
0.010939
0.0106737
0.0103949
0.0101011
0.00979049
0.0094608
0.00910942
0.00873318
0.00832825
0.00788997
0.00741271
0.00688959
0.00631226
0.00567056
0.00495235
0.00414352
0.0032285
0.00219473
0.00105709
0.000100695
0.00014088
0.00142678
0.00286665
0.00411995
0.0052015
0.00614614
0.00698273
0.00773294
0.00841276
0.00903408
0.00960581
0.0101348
0.0106263
0.0110845
0.0115129
0.0119143
0.0122909
0.0126449
0.0129778
0.0132913
0.0135867
0.0138653
0.014128
0.0143759
0.01461
0.0148311
0.01504
0.0152375
0.0154242
0.0156008
0.0157679
0.0159261
0.0160758
0.0162177
0.0163521
0.0164795
0.0166003
0.0167148
0.0168235
0.0169266
0.0170244
0.0171172
0.0172053
0.0172889
0.0173682
0.0174434
0.0175148
0.0175825
0.0176467
0.0177077
0.0177656
0.0178206
0.0178727
0.0179222
0.0179692
0.0180137
0.0180559
0.0180959
0.0181338
0.0181696
0.0182034
0.0182354
0.0182655
0.0182939
0.0183206
0.0183457
0.0183691
0.018391
0.0184115
0.0184304
0.018448
0.0184642
0.018479
0.0184926
0.0185049
0.0185159
0.0185257
0.0185342
0.0185416
0.0185479
0.018553
0.018557
0.0185598
0.0185616
0.0185622
0.0185618
0.0185603
0.0185578
0.0185542
0.0185495
0.0185438
0.018537
0.0185291
0.0185203
0.0185103
0.0184993
0.0184872
0.018474
0.0184598
0.0184445
0.018428
0.0184105
0.0183918
0.0183721
0.0183511
0.0183291
0.0183058
0.0182814
0.0182557
0.0182289
0.0182008
0.0181714
0.0181408
0.0181089
0.0180757
0.0180411
0.0180052
0.0179679
0.0179292
0.0178891
0.0178476
0.0178045
0.01776
0.0177139
0.0176663
0.0176171
0.0175662
0.0175138
0.0174596
0.0174038
0.0173462
0.0172869
0.0172258
0.0171628
0.017098
0.0170312
0.0169625
0.0168919
0.0168192
0.0167444
0.0166676