/*--------------------------------*- C++ -*----------------------------------*\
  =========                 |
  \\      /  F ield         | OpenFOAM: The Open Source CFD Toolbox
   \\    /   O peration     | Website:  https://openfoam.org
    \\  /    A nd           | Version:  8
     \\/     M anipulation  |
\*---------------------------------------------------------------------------*/
FoamFile
{
    version     2.0;
    format      ascii;
    class       surfaceScalarField;
    location    "4300";
    object      phi;
}
// * * * * * * * * * * * * * * * * * * * * * * * * * * * * * * * * * * * * * //

dimensions      [1 0 -1 0 0 0 0];

internalField   nonuniform List<scalar> 
119360
(
-3.52476e-07
2.1667e-12
3.52474e-07
-6.4041e-07
2.80661e-13
2.87889e-07
-7.89688e-07
2.57736e-13
1.49265e-07
-8.07646e-07
1.19181e-13
1.79482e-08
-7.25886e-07
3.08907e-14
-8.17697e-08
-5.74183e-07
-3.45012e-14
-1.51712e-07
-3.74939e-07
-7.79108e-14
-1.99252e-07
-1.44379e-07
-1.06693e-13
-2.30567e-07
1.05677e-07
-1.30341e-13
-2.50065e-07
3.66371e-07
-1.43275e-13
-2.60702e-07
6.31463e-07
-1.39139e-13
-2.651e-07
8.96742e-07
-1.28259e-13
-2.65286e-07
1.15912e-06
-1.14215e-13
-2.62385e-07
1.41634e-06
-9.85881e-14
-2.57225e-07
1.66672e-06
-8.23788e-14
-2.5039e-07
1.90902e-06
-6.63638e-14
-2.4231e-07
2.14232e-06
-5.11537e-14
-2.33307e-07
2.36595e-06
-3.70816e-14
-2.23628e-07
2.57941e-06
-2.40364e-14
-2.13469e-07
2.78239e-06
-1.23513e-14
-2.02983e-07
2.97467e-06
-1.90125e-15
-1.92294e-07
3.15617e-06
7.36914e-15
-1.81505e-07
3.32687e-06
1.56126e-14
-1.70699e-07
3.48681e-06
2.27597e-14
-1.59947e-07
3.63611e-06
2.89353e-14
-1.49308e-07
3.77493e-06
3.42783e-14
-1.3883e-07
3.90348e-06
3.87608e-14
-1.28555e-07
4.022e-06
4.2494e-14
-1.18519e-07
4.13074e-06
4.5561e-14
-1.08751e-07
4.23001e-06
4.78509e-14
-9.92751e-08
4.32012e-06
4.96411e-14
-9.0112e-08
4.40139e-06
5.0904e-14
-8.12778e-08
4.47417e-06
5.16257e-14
-7.27853e-08
4.53881e-06
5.19449e-14
-6.46444e-08
4.59567e-06
5.18478e-14
-5.68617e-08
4.6451e-06
5.15009e-14
-4.94418e-08
4.68748e-06
5.07238e-14
-4.23865e-08
4.72318e-06
4.97385e-14
-3.56958e-08
4.75254e-06
4.85311e-14
-2.93677e-08
4.77593e-06
4.7074e-14
-2.33986e-08
4.79371e-06
4.55613e-14
-1.77834e-08
4.80622e-06
4.38405e-14
-1.25159e-08
4.81381e-06
4.20919e-14
-7.58865e-09
4.81679e-06
4.02462e-14
-2.99248e-09
4.81551e-06
3.8345e-14
1.28317e-09
4.81025e-06
3.65131e-14
5.24845e-09
4.80134e-06
3.46396e-14
8.91406e-09
4.78904e-06
3.28078e-14
1.22921e-08
4.77364e-06
3.10037e-14
1.53949e-08
4.7554e-06
2.9269e-14
1.82344e-08
4.73458e-06
2.76315e-14
2.0823e-08
4.7114e-06
2.61466e-14
2.31732e-08
4.6861e-06
2.4731e-14
2.52972e-08
4.65889e-06
2.34543e-14
2.72077e-08
4.62997e-06
2.2247e-14
2.89169e-08
4.59953e-06
2.11645e-14
3.04372e-08
4.56774e-06
2.0207e-14
3.17804e-08
4.53478e-06
1.93882e-14
3.29582e-08
4.5008e-06
1.87499e-14
3.39822e-08
4.46593e-06
1.82503e-14
3.48633e-08
4.43031e-06
1.79172e-14
3.56121e-08
4.39407e-06
1.76397e-14
3.6239e-08
4.35731e-06
1.74732e-14
3.67537e-08
4.32015e-06
1.73899e-14
3.71656e-08
4.28266e-06
1.74316e-14
3.74836e-08
4.24494e-06
1.76536e-14
3.77163e-08
4.20707e-06
1.79034e-14
3.78715e-08
4.16911e-06
1.83059e-14
3.79569e-08
4.13112e-06
1.87639e-14
3.79795e-08
4.09317e-06
1.92635e-14
3.7946e-08
4.05531e-06
1.99019e-14
3.78626e-08
4.01757e-06
2.06097e-14
3.77351e-08
3.98e-06
2.13313e-14
3.75689e-08
3.94263e-06
2.21918e-14
3.73689e-08
3.90548e-06
2.30522e-14
3.71398e-08
3.8686e-06
2.39126e-14
3.68858e-08
3.83198e-06
2.48286e-14
3.66108e-08
3.79566e-06
2.57306e-14
3.63185e-08
3.75965e-06
2.66743e-14
3.60121e-08
3.72395e-06
2.76596e-14
3.56946e-08
3.68858e-06
2.86727e-14
3.53688e-08
3.65354e-06
2.96442e-14
3.50372e-08
3.61883e-06
3.06156e-14
3.4702e-08
3.58446e-06
3.15454e-14
3.43652e-08
3.55043e-06
3.2503e-14
3.40289e-08
3.51673e-06
3.34883e-14
3.36945e-08
3.48337e-06
3.44736e-14
3.33637e-08
3.45033e-06
3.54312e-14
3.30379e-08
3.41761e-06
3.62916e-14
3.27181e-08
3.3852e-06
3.71104e-14
3.24057e-08
3.35309e-06
3.79014e-14
3.21015e-08
3.32128e-06
3.87341e-14
3.18065e-08
3.28976e-06
3.9539e-14
3.15214e-08
3.25851e-06
4.03577e-14
3.12471e-08
3.22752e-06
4.10655e-14
3.09842e-08
3.19678e-06
4.17733e-14
3.07332e-08
3.16629e-06
4.2481e-14
3.04948e-08
3.13601e-06
4.31333e-14
3.02694e-08
3.10595e-06
4.37855e-14
3.00575e-08
3.07609e-06
4.43267e-14
2.98595e-08
3.04641e-06
4.48957e-14
2.96758e-08
3.0169e-06
4.55202e-14
2.95067e-08
2.98755e-06
4.60475e-14
2.93527e-08
2.95833e-06
4.65749e-14
2.92139e-08
2.92923e-06
4.70467e-14
2.90907e-08
2.90025e-06
4.75046e-14
2.89833e-08
2.87135e-06
4.79487e-14
2.8892e-08
2.84253e-06
4.84205e-14
2.88172e-08
2.81377e-06
4.87952e-14
2.87589e-08
2.78505e-06
4.92671e-14
2.87174e-08
2.75635e-06
4.96556e-14
2.86929e-08
2.72766e-06
5.00997e-14
2.86857e-08
2.69896e-06
5.0516e-14
2.86959e-08
2.67024e-06
5.08491e-14
2.87238e-08
2.64146e-06
5.12376e-14
2.87694e-08
2.61263e-06
5.16123e-14
2.8833e-08
2.58371e-06
5.19731e-14
2.89146e-08
2.55469e-06
5.23478e-14
2.90145e-08
2.52556e-06
5.27086e-14
2.91328e-08
2.49628e-06
5.30833e-14
2.92696e-08
2.46685e-06
5.3458e-14
2.9425e-08
2.43725e-06
5.38188e-14
2.9599e-08
2.40746e-06
5.4249e-14
2.97918e-08
2.37745e-06
5.46653e-14
3.00034e-08
2.34721e-06
5.50261e-14
3.02339e-08
2.31672e-06
5.53869e-14
3.04832e-08
2.28597e-06
5.57616e-14
3.07513e-08
2.25493e-06
5.61779e-14
3.10382e-08
2.22358e-06
5.66497e-14
3.13439e-08
2.19191e-06
5.70244e-14
3.16682e-08
2.15989e-06
5.74546e-14
3.2011e-08
2.12752e-06
5.78432e-14
3.23722e-08
2.09476e-06
5.82317e-14
3.27516e-08
2.06161e-06
5.87591e-14
3.31489e-08
2.02804e-06
5.91476e-14
3.35639e-08
1.99404e-06
5.97027e-14
3.39963e-08
1.95959e-06
6.01468e-14
3.44457e-08
1.92468e-06
6.07019e-14
3.49117e-08
1.88928e-06
6.11182e-14
3.53939e-08
1.85338e-06
6.16733e-14
3.58917e-08
1.81697e-06
6.22839e-14
3.64047e-08
1.78004e-06
6.2839e-14
3.69321e-08
1.74256e-06
6.33941e-14
3.74733e-08
1.70453e-06
6.40603e-14
3.80275e-08
1.66593e-06
6.46431e-14
3.85938e-08
1.62675e-06
6.52537e-14
3.91715e-08
1.58699e-06
6.58643e-14
3.97595e-08
1.54663e-06
6.64472e-14
4.03567e-08
1.50566e-06
6.71133e-14
4.0962e-08
1.46408e-06
6.77517e-14
4.1574e-08
1.42189e-06
6.86121e-14
4.21915e-08
1.37907e-06
6.95003e-14
4.28129e-08
1.33563e-06
7.04717e-14
4.34366e-08
1.29156e-06
7.16097e-14
4.40609e-08
1.24687e-06
7.27754e-14
4.46839e-08
1.20157e-06
7.42464e-14
4.53034e-08
1.15564e-06
7.59673e-14
4.59174e-08
1.10912e-06
7.80212e-14
4.65234e-08
1.06199e-06
8.02694e-14
4.71188e-08
1.01429e-06
8.28506e-14
4.77007e-08
9.66015e-07
8.55429e-14
4.8266e-08
9.17199e-07
8.86793e-14
4.88113e-08
8.6786e-07
9.18989e-14
4.93329e-08
8.18028e-07
9.51463e-14
4.98268e-08
7.67734e-07
9.83382e-14
5.02884e-08
7.17016e-07
1.01475e-13
5.07128e-08
6.65915e-07
1.04111e-13
5.10946e-08
6.14482e-07
1.0636e-13
5.14278e-08
5.6277e-07
1.07969e-13
5.17055e-08
5.10844e-07
1.0908e-13
5.19203e-08
4.58774e-07
1.09468e-13
5.20639e-08
4.0664e-07
1.0969e-13
5.21267e-08
3.54536e-07
1.09996e-13
5.20982e-08
3.02563e-07
1.10384e-13
5.19665e-08
2.50838e-07
1.11494e-13
5.17178e-08
1.99494e-07
1.13548e-13
5.13366e-08
1.48682e-07
1.16629e-13
5.08052e-08
9.85725e-08
1.20709e-13
5.01025e-08
4.93628e-08
1.25039e-13
4.92023e-08
1.27803e-09
1.28842e-13
4.80772e-08
-4.54002e-08
1.29036e-13
4.66705e-08
-9.03516e-08
1.26344e-13
4.49435e-08
-1.33231e-07
1.22569e-13
4.28719e-08
-1.73653e-07
1.17601e-13
4.04132e-08
-2.11166e-07
1.14214e-13
3.75051e-08
-2.45237e-07
1.1624e-13
3.40631e-08
-2.75249e-07
1.27953e-13
3.00039e-08
-3.00477e-07
1.53377e-13
2.52192e-08
-3.20068e-07
1.92069e-13
1.95831e-08
-3.33024e-07
2.39475e-13
1.29468e-08
-3.38169e-07
2.83551e-13
5.13546e-09
-3.34159e-07
3.05756e-13
-4.01986e-09
-3.1951e-07
2.89879e-13
-1.46609e-08
-2.92631e-07
2.36866e-13
-2.68911e-08
-2.52016e-07
1.77636e-13
-4.06291e-08
-1.96771e-07
1.74527e-13
-5.52582e-08
-1.27936e-07
2.63234e-13
-6.88493e-08
-5.14556e-08
3.32956e-13
-7.64971e-08
9.32002e-09
2.2049e-13
-6.08002e-08
-3.73035e-13
9.28279e-09
-3.52488e-07
3.52465e-07
-6.40411e-07
2.87886e-07
-7.89687e-07
1.49263e-07
-8.07644e-07
1.79461e-08
-7.25884e-07
-8.17715e-08
-5.7418e-07
-1.51714e-07
-3.74936e-07
-1.99254e-07
-1.44377e-07
-2.30569e-07
1.05679e-07
-2.50066e-07
3.66374e-07
-2.60704e-07
6.31466e-07
-2.65101e-07
8.96744e-07
-2.65287e-07
1.15912e-06
-2.62386e-07
1.41634e-06
-2.57226e-07
1.66672e-06
-2.50391e-07
1.90903e-06
-2.42311e-07
2.14233e-06
-2.33308e-07
2.36595e-06
-2.23629e-07
2.57941e-06
-2.1347e-07
2.78239e-06
-2.02983e-07
2.97467e-06
-1.92295e-07
3.15617e-06
-1.81506e-07
3.32687e-06
-1.707e-07
3.48681e-06
-1.59948e-07
3.63611e-06
-1.49309e-07
3.77493e-06
-1.38831e-07
3.90348e-06
-1.28556e-07
4.022e-06
-1.1852e-07
4.13074e-06
-1.08752e-07
4.23001e-06
-9.92758e-08
4.32012e-06
-9.01127e-08
4.40139e-06
-8.12785e-08
4.47417e-06
-7.2786e-08
4.53881e-06
-6.4645e-08
4.59566e-06
-5.68624e-08
4.6451e-06
-4.94424e-08
4.68748e-06
-4.23871e-08
4.72317e-06
-3.56964e-08
4.75254e-06
-2.93683e-08
4.77593e-06
-2.33992e-08
4.79371e-06
-1.7784e-08
4.80622e-06
-1.25165e-08
4.81381e-06
-7.58924e-09
4.81679e-06
-2.99306e-09
4.81551e-06
1.28259e-09
4.81025e-06
5.24788e-09
4.80134e-06
8.9135e-09
4.78904e-06
1.22916e-08
4.77364e-06
1.53943e-08
4.7554e-06
1.82339e-08
4.73458e-06
2.08225e-08
4.7114e-06
2.31726e-08
4.6861e-06
2.52967e-08
4.65889e-06
2.72072e-08
4.62997e-06
2.89164e-08
4.59952e-06
3.04366e-08
4.56774e-06
3.17799e-08
4.53478e-06
3.29577e-08
4.50079e-06
3.39817e-08
4.46593e-06
3.48628e-08
4.43031e-06
3.56116e-08
4.39407e-06
3.62385e-08
4.35731e-06
3.67532e-08
4.32014e-06
3.71651e-08
4.28266e-06
3.74831e-08
4.24494e-06
3.77158e-08
4.20706e-06
3.7871e-08
4.1691e-06
3.79564e-08
4.13112e-06
3.7979e-08
4.09317e-06
3.79456e-08
4.05531e-06
3.78622e-08
4.01757e-06
3.77346e-08
3.98e-06
3.75684e-08
3.94263e-06
3.73684e-08
3.90548e-06
3.71393e-08
3.86859e-06
3.68853e-08
3.83198e-06
3.66104e-08
3.79566e-06
3.6318e-08
3.75964e-06
3.60116e-08
3.72395e-06
3.56942e-08
3.68858e-06
3.53684e-08
3.65354e-06
3.50367e-08
3.61883e-06
3.47015e-08
3.58446e-06
3.43648e-08
3.55043e-06
3.40284e-08
3.51673e-06
3.36941e-08
3.48337e-06
3.33633e-08
3.45033e-06
3.30374e-08
3.4176e-06
3.27177e-08
3.3852e-06
3.24052e-08
3.35309e-06
3.2101e-08
3.32128e-06
3.1806e-08
3.28976e-06
3.1521e-08
3.25851e-06
3.12467e-08
3.22752e-06
3.09837e-08
3.19678e-06
3.07328e-08
3.16629e-06
3.04943e-08
3.13601e-06
3.0269e-08
3.10595e-06
3.00571e-08
3.07609e-06
2.98591e-08
3.04641e-06
2.96753e-08
3.0169e-06
2.95063e-08
2.98755e-06
2.93522e-08
2.95833e-06
2.92134e-08
2.92923e-06
2.90902e-08
2.90025e-06
2.89828e-08
2.87135e-06
2.88916e-08
2.84253e-06
2.88167e-08
2.81377e-06
2.87584e-08
2.78505e-06
2.87169e-08
2.75635e-06
2.86925e-08
2.72766e-06
2.86852e-08
2.69896e-06
2.86955e-08
2.67024e-06
2.87233e-08
2.64146e-06
2.87689e-08
2.61263e-06
2.88325e-08
2.58371e-06
2.89141e-08
2.55469e-06
2.9014e-08
2.52556e-06
2.91323e-08
2.49628e-06
2.92691e-08
2.46685e-06
2.94245e-08
2.43725e-06
2.95985e-08
2.40746e-06
2.97913e-08
2.37745e-06
3.00029e-08
2.34721e-06
3.02334e-08
2.31672e-06
3.04826e-08
2.28597e-06
3.07508e-08
2.25493e-06
3.10377e-08
2.22358e-06
3.13434e-08
2.19191e-06
3.16677e-08
2.15989e-06
3.20105e-08
2.12752e-06
3.23717e-08
2.09476e-06
3.27511e-08
2.06161e-06
3.31484e-08
2.02804e-06
3.35634e-08
1.99404e-06
3.39958e-08
1.95959e-06
3.44451e-08
1.92468e-06
3.49112e-08
1.88928e-06
3.53933e-08
1.85338e-06
3.58912e-08
1.81697e-06
3.64041e-08
1.78004e-06
3.69315e-08
1.74256e-06
3.74727e-08
1.70453e-06
3.80268e-08
1.66593e-06
3.85932e-08
1.62675e-06
3.91709e-08
1.58699e-06
3.97589e-08
1.54663e-06
4.03561e-08
1.50566e-06
4.09613e-08
1.46408e-06
4.15734e-08
1.42189e-06
4.21909e-08
1.37907e-06
4.28122e-08
1.33563e-06
4.3436e-08
1.29156e-06
4.40602e-08
1.24687e-06
4.46832e-08
1.20157e-06
4.53028e-08
1.15564e-06
4.59167e-08
1.10912e-06
4.65227e-08
1.06199e-06
4.71181e-08
1.01429e-06
4.76999e-08
9.66015e-07
4.82652e-08
9.17199e-07
4.88105e-08
8.67861e-07
4.93321e-08
8.18028e-07
4.9826e-08
7.67735e-07
5.02876e-08
7.17016e-07
5.0712e-08
6.65916e-07
5.10938e-08
6.14482e-07
5.14269e-08
5.62771e-07
5.17046e-08
5.10844e-07
5.19195e-08
4.58774e-07
5.2063e-08
4.06641e-07
5.21258e-08
3.54536e-07
5.20973e-08
3.02563e-07
5.19655e-08
2.50838e-07
5.17168e-08
1.99495e-07
5.13357e-08
1.48683e-07
5.08042e-08
9.85728e-08
5.01015e-08
4.93631e-08
4.92013e-08
1.27833e-09
4.80762e-08
-4.53999e-08
4.66694e-08
-9.03513e-08
4.49424e-08
-1.33231e-07
4.28708e-08
-1.73652e-07
4.04121e-08
-2.11165e-07
3.7504e-08
-2.45237e-07
3.4062e-08
-2.75249e-07
3.00027e-08
-3.00476e-07
2.5218e-08
-3.20068e-07
1.95819e-08
-3.33024e-07
1.29455e-08
-3.38169e-07
5.13407e-09
-3.3416e-07
-4.02139e-09
-3.19511e-07
-1.46626e-08
-2.92632e-07
-2.68929e-08
-2.52016e-07
-4.0631e-08
-1.96772e-07
-5.526e-08
-1.27938e-07
-6.88508e-08
-5.14595e-08
-7.64993e-08
9.31409e-09
-6.08046e-08
9.26963e-09
-2.62562e-07
2.14653e-13
6.14995e-07
-3.30913e-07
2.07034e-14
3.56218e-07
-3.16683e-07
3.11545e-14
1.35025e-07
-2.4788e-07
1.498e-15
-5.08636e-08
-1.34254e-07
-9.15301e-15
-1.95404e-07
1.59942e-08
-1.77502e-14
-3.01968e-07
1.94594e-07
-2.446e-14
-3.7786e-07
3.93907e-07
-2.92339e-14
-4.29888e-07
6.07653e-07
-3.26686e-14
-4.63818e-07
8.30743e-07
-3.41535e-14
-4.83799e-07
1.05902e-06
-3.38204e-14
-4.93381e-07
1.28908e-06
-3.28628e-14
-4.95353e-07
1.51827e-06
-3.14403e-14
-4.9158e-07
1.7445e-06
-2.97333e-14
-4.83466e-07
1.96615e-06
-2.78702e-14
-4.72046e-07
2.18194e-06
-2.59758e-14
-4.58105e-07
2.39088e-06
-2.41474e-14
-4.42248e-07
2.59219e-06
-2.23988e-14
-4.24949e-07
2.7853e-06
-2.07508e-14
-4.06585e-07
2.96977e-06
-1.92173e-14
-3.87459e-07
3.14529e-06
-1.78052e-14
-3.67821e-07
3.31166e-06
-1.65041e-14
-3.47876e-07
3.46875e-06
-1.5321e-14
-3.27794e-07
3.61651e-06
-1.42489e-14
-3.07719e-07
3.75498e-06
-1.32809e-14
-2.87773e-07
3.8842e-06
-1.24032e-14
-2.68059e-07
4.0043e-06
-1.16295e-14
-2.48663e-07
4.11544e-06
-1.0946e-14
-2.29661e-07
4.2178e-06
-1.03423e-14
-2.11115e-07
4.31159e-06
-9.83223e-15
-1.93077e-07
4.39707e-06
-9.38466e-15
-1.75593e-07
4.47448e-06
-9.00994e-15
-1.58697e-07
4.54411e-06
-8.68727e-15
-1.42419e-07
4.60625e-06
-8.43745e-15
-1.26783e-07
4.66118e-06
-8.24314e-15
-1.11804e-07
4.70923e-06
-8.08006e-15
-9.74955e-08
4.75071e-06
-7.9725e-15
-8.38638e-08
4.78592e-06
-7.89962e-15
-7.09119e-08
4.81519e-06
-7.84409e-15
-5.86388e-08
4.83882e-06
-7.84061e-15
-4.70402e-08
4.85714e-06
-7.85447e-15
-3.61085e-08
4.87046e-06
-7.88915e-15
-2.58334e-08
4.87907e-06
-7.91342e-15
-1.62021e-08
4.88327e-06
-7.94463e-15
-7.19947e-09
4.88336e-06
-8.00013e-15
1.19152e-09
4.87961e-06
-8.07644e-15
8.98924e-09
4.87231e-06
-8.14582e-15
1.62137e-08
4.86171e-06
-8.19091e-15
2.28862e-08
4.84807e-06
-8.23599e-15
2.90286e-08
4.83164e-06
-8.28455e-15
3.46634e-08
4.81265e-06
-8.31577e-15
3.98136e-08
4.79132e-06
-8.31922e-15
4.45022e-08
4.76786e-06
-8.34003e-15
4.87527e-08
4.74247e-06
-8.32961e-15
5.25884e-08
4.71535e-06
-8.30531e-15
5.60327e-08
4.68668e-06
-8.2706e-15
5.91087e-08
4.65662e-06
-8.23937e-15
6.18389e-08
4.62533e-06
-8.1769e-15
6.42456e-08
4.59296e-06
-8.09363e-15
6.63505e-08
4.55964e-06
-7.993e-15
6.81746e-08
4.52551e-06
-7.89585e-15
6.97383e-08
4.49069e-06
-7.79176e-15
7.10613e-08
4.45528e-06
-7.68073e-15
7.21623e-08
4.41938e-06
-7.56276e-15
7.30595e-08
4.38309e-06
-7.43438e-15
7.37701e-08
4.34649e-06
-7.29907e-15
7.43103e-08
4.30967e-06
-7.14988e-15
7.46958e-08
4.27268e-06
-7.01456e-15
7.49411e-08
4.2356e-06
-6.86884e-15
7.50601e-08
4.19847e-06
-6.72659e-15
7.50657e-08
4.16136e-06
-6.58087e-15
7.497e-08
4.12431e-06
-6.43515e-15
7.47845e-08
4.08736e-06
-6.28943e-15
7.45196e-08
4.05054e-06
-6.14718e-15
7.41852e-08
4.01389e-06
-6.01187e-15
7.37904e-08
3.97742e-06
-5.86616e-15
7.33436e-08
3.94118e-06
-5.75167e-15
7.28526e-08
3.90517e-06
-5.64064e-15
7.23245e-08
3.86942e-06
-5.52962e-15
7.17659e-08
3.83392e-06
-5.42207e-15
7.11828e-08
3.79871e-06
-5.33534e-15
7.05807e-08
3.76378e-06
-5.2486e-15
6.99646e-08
3.72914e-06
-5.16534e-15
6.93391e-08
3.69479e-06
-5.09942e-15
6.87084e-08
3.66074e-06
-5.03004e-15
6.80763e-08
3.62699e-06
-4.99535e-15
6.74462e-08
3.59353e-06
-4.92944e-15
6.68211e-08
3.56036e-06
-4.90515e-15
6.6204e-08
3.52748e-06
-4.8774e-15
6.55973e-08
3.49488e-06
-4.867e-15
6.50034e-08
3.46255e-06
-4.87048e-15
6.44244e-08
3.43049e-06
-4.87395e-15
6.38621e-08
3.39869e-06
-4.89131e-15
6.33182e-08
3.36714e-06
-4.89825e-15
6.27943e-08
3.33583e-06
-4.91908e-15
6.22918e-08
3.30475e-06
-4.94684e-15
6.1812e-08
3.27389e-06
-4.97114e-15
6.13559e-08
3.24323e-06
-5.00931e-15
6.09248e-08
3.21277e-06
-5.07524e-15
6.05194e-08
3.18248e-06
-5.11341e-15
6.01409e-08
3.15236e-06
-5.17587e-15
5.97898e-08
3.1224e-06
-5.23486e-15
5.94671e-08
3.09258e-06
-5.29038e-15
5.91733e-08
3.06288e-06
-5.3459e-15
5.89093e-08
3.03329e-06
-5.42917e-15
5.86755e-08
3.0038e-06
-5.49857e-15
5.84725e-08
2.97439e-06
-5.5645e-15
5.83009e-08
2.94504e-06
-5.62349e-15
5.81612e-08
2.91574e-06
-5.69636e-15
5.80539e-08
2.88648e-06
-5.77617e-15
5.79795e-08
2.85723e-06
-5.83169e-15
5.79382e-08
2.82798e-06
-5.90456e-15
5.79307e-08
2.79872e-06
-5.96702e-15
5.79572e-08
2.76942e-06
-6.03641e-15
5.80181e-08
2.74007e-06
-6.10581e-15
5.81138e-08
2.71066e-06
-6.17521e-15
5.82445e-08
2.68116e-06
-6.23073e-15
5.84106e-08
2.65156e-06
-6.3036e-15
5.86123e-08
2.62184e-06
-6.36259e-15
5.88499e-08
2.59198e-06
-6.41117e-15
5.91235e-08
2.56197e-06
-6.4771e-15
5.94333e-08
2.53178e-06
-6.51527e-15
5.97796e-08
2.50141e-06
-6.57426e-15
6.01623e-08
2.47083e-06
-6.62284e-15
6.05816e-08
2.44002e-06
-6.66102e-15
6.10375e-08
2.40897e-06
-6.70266e-15
6.15299e-08
2.37766e-06
-6.73736e-15
6.20588e-08
2.34607e-06
-6.79635e-15
6.26241e-08
2.31419e-06
-6.82065e-15
6.32256e-08
2.28199e-06
-6.86576e-15
6.3863e-08
2.24946e-06
-6.89005e-15
6.45361e-08
2.21658e-06
-6.93169e-15
6.52446e-08
2.18334e-06
-6.96292e-15
6.59879e-08
2.14972e-06
-6.97681e-15
6.67655e-08
2.11571e-06
-7.00457e-15
6.7577e-08
2.08128e-06
-7.02887e-15
6.84215e-08
2.04642e-06
-7.05663e-15
6.92983e-08
2.01112e-06
-7.07745e-15
7.02065e-08
1.97537e-06
-7.10869e-15
7.11453e-08
1.93914e-06
-7.12257e-15
7.21134e-08
1.90243e-06
-7.12952e-15
7.31098e-08
1.86523e-06
-7.13993e-15
7.4133e-08
1.82752e-06
-7.16422e-15
7.51817e-08
1.78929e-06
-7.18158e-15
7.62543e-08
1.75053e-06
-7.19893e-15
7.7349e-08
1.71123e-06
-7.21975e-15
7.84639e-08
1.67139e-06
-7.2371e-15
7.95971e-08
1.631e-06
-7.27874e-15
8.07464e-08
1.59005e-06
-7.30303e-15
8.19092e-08
1.54853e-06
-7.33773e-15
8.3083e-08
1.50645e-06
-7.34121e-15
8.42651e-08
1.46381e-06
-7.36897e-15
8.54524e-08
1.4206e-06
-7.35856e-15
8.66416e-08
1.37683e-06
-7.35163e-15
8.78291e-08
1.3325e-06
-7.36204e-15
8.90112e-08
1.28761e-06
-7.34123e-15
9.01837e-08
1.24218e-06
-7.30654e-15
9.13422e-08
1.19622e-06
-7.2545e-15
9.24819e-08
1.14974e-06
-7.2094e-15
9.35974e-08
1.10275e-06
-7.17471e-15
9.46832e-08
1.05528e-06
-7.15043e-15
9.5733e-08
1.00735e-06
-7.13309e-15
9.67401e-08
9.58977e-07
-7.14697e-15
9.76974e-08
9.10202e-07
-7.23371e-15
9.85966e-08
8.61056e-07
-7.36208e-15
9.94292e-08
8.11578e-07
-7.57719e-15
1.00185e-07
7.61813e-07
-7.87556e-15
1.00855e-07
7.1181e-07
-8.27108e-15
1.01426e-07
6.61624e-07
-8.76375e-15
1.01885e-07
6.1132e-07
-9.27723e-15
1.02219e-07
5.60967e-07
-9.87397e-15
1.02411e-07
5.10644e-07
-1.04499e-14
1.02444e-07
4.60439e-07
-1.09148e-14
1.02297e-07
4.10451e-07
-1.12826e-14
1.01949e-07
3.6079e-07
-1.15046e-14
1.01373e-07
3.11579e-07
-1.15185e-14
1.00542e-07
2.62957e-07
-1.13867e-14
9.94212e-08
2.15078e-07
-1.11993e-14
9.79743e-08
1.68119e-07
-1.1012e-14
9.61553e-08
1.22275e-07
-1.11299e-14
9.39144e-08
7.77621e-08
-1.14769e-14
9.11765e-08
3.48223e-08
-1.20875e-14
8.78765e-08
-6.27004e-09
-1.31145e-14
8.39573e-08
-4.51926e-08
-1.42039e-14
7.93287e-08
-8.1589e-08
-1.48839e-14
7.38945e-08
-1.15075e-07
-1.43773e-14
6.75423e-08
-1.45218e-07
-1.19695e-14
6.01395e-08
-1.71535e-07
-7.20946e-15
5.15282e-08
-1.93493e-07
-5.41179e-16
4.15331e-08
-2.10515e-07
6.48792e-15
2.99606e-08
-2.21995e-07
1.07415e-14
1.66064e-08
-2.27311e-07
8.14632e-15
1.28523e-09
-2.2587e-07
-4.10083e-15
-1.61131e-08
-2.17211e-07
-2.33701e-14
-3.55613e-08
-2.01136e-07
-3.58046e-14
-5.67164e-08
-1.77883e-07
-1.59455e-14
-7.8524e-08
-1.4826e-07
4.81421e-14
-9.84878e-08
-1.13449e-07
3.65541e-14
-1.11327e-07
-6.99314e-08
-1.16185e-13
-1.04349e-07
-1.63403e-12
-6.06833e-08
-2.62565e-07
6.14992e-07
-3.30913e-07
3.56216e-07
-3.16682e-07
1.35023e-07
-2.47879e-07
-5.08647e-08
-1.34253e-07
-1.95405e-07
1.59955e-08
-3.01969e-07
1.94596e-07
-3.77861e-07
3.93909e-07
-4.29889e-07
6.07654e-07
-4.63818e-07
8.30744e-07
-4.83799e-07
1.05902e-06
-4.93381e-07
1.28908e-06
-4.95353e-07
1.51827e-06
-4.9158e-07
1.7445e-06
-4.83466e-07
1.96615e-06
-4.72046e-07
2.18194e-06
-4.58106e-07
2.39088e-06
-4.42249e-07
2.59219e-06
-4.24949e-07
2.7853e-06
-4.06585e-07
2.96977e-06
-3.87459e-07
3.14529e-06
-3.67821e-07
3.31166e-06
-3.47876e-07
3.46875e-06
-3.27794e-07
3.61651e-06
-3.07719e-07
3.75497e-06
-2.87773e-07
3.8842e-06
-2.68059e-07
4.0043e-06
-2.48663e-07
4.11544e-06
-2.29661e-07
4.2178e-06
-2.11115e-07
4.31159e-06
-1.93077e-07
4.39707e-06
-1.75592e-07
4.47448e-06
-1.58697e-07
4.54411e-06
-1.42419e-07
4.60625e-06
-1.26783e-07
4.66118e-06
-1.11804e-07
4.70923e-06
-9.74955e-08
4.75071e-06
-8.38638e-08
4.78592e-06
-7.09119e-08
4.81518e-06
-5.86389e-08
4.83882e-06
-4.70403e-08
4.85714e-06
-3.61086e-08
4.87046e-06
-2.58335e-08
4.87907e-06
-1.62022e-08
4.88327e-06
-7.19952e-09
4.88336e-06
1.19147e-09
4.87961e-06
8.98918e-09
4.87231e-06
1.62137e-08
4.86171e-06
2.28862e-08
4.84807e-06
2.90286e-08
4.83164e-06
3.46634e-08
4.81265e-06
3.98135e-08
4.79131e-06
4.45021e-08
4.76786e-06
4.87526e-08
4.74247e-06
5.25883e-08
4.71535e-06
5.60326e-08
4.68668e-06
5.91086e-08
4.65662e-06
6.18388e-08
4.62533e-06
6.42455e-08
4.59295e-06
6.63503e-08
4.55964e-06
6.81745e-08
4.52551e-06
6.97382e-08
4.49069e-06
7.10611e-08
4.45527e-06
7.21622e-08
4.41938e-06
7.30594e-08
4.38309e-06
7.37699e-08
4.34649e-06
7.43102e-08
4.30966e-06
7.46957e-08
4.27268e-06
7.4941e-08
4.23559e-06
7.50599e-08
4.19847e-06
7.50655e-08
4.16136e-06
7.49699e-08
4.12431e-06
7.47843e-08
4.08736e-06
7.45194e-08
4.05054e-06
7.41851e-08
4.01388e-06
7.37903e-08
3.97742e-06
7.33435e-08
3.94118e-06
7.28524e-08
3.90517e-06
7.23243e-08
3.86941e-06
7.17657e-08
3.83392e-06
7.11826e-08
3.79871e-06
7.05805e-08
3.76378e-06
6.99645e-08
3.72914e-06
6.9339e-08
3.69479e-06
6.87083e-08
3.66074e-06
6.80762e-08
3.62699e-06
6.74461e-08
3.59353e-06
6.6821e-08
3.56036e-06
6.62039e-08
3.52748e-06
6.55972e-08
3.49488e-06
6.50033e-08
3.46255e-06
6.44243e-08
3.43049e-06
6.3862e-08
3.39869e-06
6.33181e-08
3.36714e-06
6.27942e-08
3.33583e-06
6.22917e-08
3.30475e-06
6.18119e-08
3.27389e-06
6.13558e-08
3.24323e-06
6.09247e-08
3.21277e-06
6.05194e-08
3.18248e-06
6.01408e-08
3.15236e-06
5.97897e-08
3.1224e-06
5.9467e-08
3.09258e-06
5.91732e-08
3.06288e-06
5.89092e-08
3.03329e-06
5.86754e-08
3.0038e-06
5.84724e-08
2.97439e-06
5.83008e-08
2.94504e-06
5.81612e-08
2.91574e-06
5.80538e-08
2.88648e-06
5.79794e-08
2.85723e-06
5.79382e-08
2.82798e-06
5.79306e-08
2.79872e-06
5.79571e-08
2.76942e-06
5.8018e-08
2.74007e-06
5.81137e-08
2.71066e-06
5.82444e-08
2.68116e-06
5.84105e-08
2.65156e-06
5.86122e-08
2.62184e-06
5.88498e-08
2.59198e-06
5.91234e-08
2.56197e-06
5.94333e-08
2.53178e-06
5.97795e-08
2.50141e-06
6.01622e-08
2.47083e-06
6.05815e-08
2.44002e-06
6.10374e-08
2.40897e-06
6.15298e-08
2.37766e-06
6.20587e-08
2.34607e-06
6.2624e-08
2.31419e-06
6.32255e-08
2.28199e-06
6.38629e-08
2.24946e-06
6.45361e-08
2.21658e-06
6.52445e-08
2.18334e-06
6.59878e-08
2.14972e-06
6.67654e-08
2.11571e-06
6.75769e-08
2.08128e-06
6.84214e-08
2.04642e-06
6.92982e-08
2.01112e-06
7.02065e-08
1.97537e-06
7.11452e-08
1.93914e-06
7.21133e-08
1.90243e-06
7.31097e-08
1.86523e-06
7.41329e-08
1.82752e-06
7.51816e-08
1.78929e-06
7.62542e-08
1.75053e-06
7.73489e-08
1.71123e-06
7.84638e-08
1.67139e-06
7.9597e-08
1.631e-06
8.07463e-08
1.59005e-06
8.19091e-08
1.54853e-06
8.3083e-08
1.50645e-06
8.4265e-08
1.46381e-06
8.54523e-08
1.4206e-06
8.66415e-08
1.37683e-06
8.7829e-08
1.3325e-06
8.90111e-08
1.28761e-06
9.01836e-08
1.24218e-06
9.13421e-08
1.19622e-06
9.24818e-08
1.14974e-06
9.35973e-08
1.10275e-06
9.46831e-08
1.05528e-06
9.57329e-08
1.00735e-06
9.674e-08
9.58977e-07
9.76973e-08
9.10202e-07
9.85965e-08
8.61056e-07
9.94291e-08
8.11579e-07
1.00185e-07
7.61813e-07
1.00855e-07
7.1181e-07
1.01426e-07
6.61625e-07
1.01885e-07
6.1132e-07
1.02219e-07
5.60967e-07
1.02411e-07
5.10644e-07
1.02444e-07
4.6044e-07
1.02297e-07
4.10451e-07
1.01949e-07
3.6079e-07
1.01373e-07
3.11579e-07
1.00541e-07
2.62957e-07
9.94211e-08
2.15079e-07
9.79742e-08
1.68119e-07
9.61552e-08
1.22275e-07
9.39143e-08
7.77623e-08
9.11764e-08
3.48224e-08
8.78764e-08
-6.26989e-09
8.39572e-08
-4.51924e-08
7.93286e-08
-8.15889e-08
7.38944e-08
-1.15075e-07
6.75422e-08
-1.45218e-07
6.01394e-08
-1.71535e-07
5.15281e-08
-1.93493e-07
4.1533e-08
-2.10515e-07
2.99605e-08
-2.21995e-07
1.66062e-08
-2.27311e-07
1.28507e-09
-2.2587e-07
-1.61132e-08
-2.17211e-07
-3.55615e-08
-2.01136e-07
-5.67166e-08
-1.77883e-07
-7.85242e-08
-1.48261e-07
-9.84882e-08
-1.13451e-07
-1.11327e-07
-6.99378e-08
-1.0435e-07
-6.06825e-08
-1.06081e-07
3.32613e-13
7.21065e-07
-7.72202e-08
2.28546e-14
3.27346e-07
5.6499e-09
3.8732e-14
5.21516e-08
1.1572e-07
2.52709e-14
-1.60936e-07
2.46806e-07
2.38971e-14
-3.26492e-07
3.96715e-07
2.25095e-14
-4.51879e-07
5.62949e-07
2.09795e-14
-5.44095e-07
7.42582e-07
1.94565e-14
-6.09523e-07
9.32466e-07
1.76836e-14
-6.53704e-07
1.12974e-06
1.58518e-14
-6.81074e-07
1.3317e-06
1.42316e-14
-6.9534e-07
1.53582e-06
1.27432e-14
-6.99478e-07
1.73998e-06
1.15046e-14
-6.95738e-07
1.94238e-06
1.04655e-14
-6.85866e-07
2.14154e-06
9.62073e-15
-6.7121e-07
2.33626e-06
8.91125e-15
-6.52825e-07
2.52555e-06
8.32492e-15
-6.31545e-07
2.70864e-06
7.83401e-15
-6.08038e-07
2.8849e-06
7.42463e-15
-5.82844e-07
3.05384e-06
7.06035e-15
-5.56405e-07
3.21511e-06
6.74638e-15
-5.29087e-07
3.36843e-06
6.4723e-15
-5.01195e-07
3.51362e-06
6.23466e-15
-4.72985e-07
3.65057e-06
6.01262e-15
-4.44675e-07
3.77925e-06
5.81141e-15
-4.1645e-07
3.89965e-06
5.62407e-15
-3.88466e-07
4.01185e-06
5.44367e-15
-3.6086e-07
4.11593e-06
5.28755e-15
-3.33745e-07
4.21204e-06
5.1297e-15
-3.0722e-07
4.30032e-06
4.98226e-15
-2.81368e-07
4.38099e-06
4.84696e-15
-2.56258e-07
4.45424e-06
4.70646e-15
-2.31949e-07
4.52031e-06
4.57116e-15
-2.08489e-07
4.57944e-06
4.44627e-15
-1.85914e-07
4.63189e-06
4.31965e-15
-1.64254e-07
4.67792e-06
4.19649e-15
-1.43531e-07
4.71782e-06
4.07333e-15
-1.23758e-07
4.75185e-06
3.95885e-15
-1.04943e-07
4.78029e-06
3.83396e-15
-8.70876e-08
4.80344e-06
3.71601e-15
-7.0189e-08
4.82157e-06
3.60846e-15
-5.42385e-08
4.83496e-06
3.50612e-15
-3.92239e-08
4.84389e-06
3.40378e-15
-2.51288e-08
4.84862e-06
3.31358e-15
-1.19336e-08
4.84942e-06
3.21818e-15
3.84373e-10
4.84656e-06
3.12625e-15
1.18497e-08
4.84029e-06
3.04646e-15
2.24895e-08
4.83084e-06
2.97708e-15
3.23329e-08
4.81846e-06
2.9129e-15
4.14101e-08
4.80337e-06
2.85913e-15
4.97526e-08
4.78579e-06
2.80189e-15
5.73924e-08
4.76593e-06
2.77241e-15
6.43622e-08
4.74398e-06
2.74292e-15
7.06951e-08
4.72015e-06
2.71344e-15
7.64242e-08
4.6946e-06
2.70304e-15
8.15825e-08
4.6675e-06
2.68743e-15
8.62028e-08
4.63902e-06
2.69437e-15
9.03176e-08
4.60931e-06
2.69611e-15
9.39585e-08
4.5785e-06
2.71346e-15
9.71567e-08
4.54673e-06
2.73428e-15
9.99424e-08
4.51413e-06
2.76204e-15
1.02345e-07
4.48079e-06
2.79848e-15
1.04392e-07
4.44684e-06
2.8297e-15
1.06112e-07
4.41237e-06
2.86613e-15
1.0753e-07
4.37747e-06
2.90777e-15
1.08671e-07
4.34222e-06
2.95461e-15
1.0956e-07
4.3067e-06
3.00145e-15
1.10217e-07
4.27097e-06
3.05176e-15
1.10666e-07
4.23511e-06
3.109e-15
1.10926e-07
4.19916e-06
3.15758e-15
1.11015e-07
4.16318e-06
3.19748e-15
1.10952e-07
4.12721e-06
3.25299e-15
1.10754e-07
4.09129e-06
3.30156e-15
1.10435e-07
4.05546e-06
3.35707e-15
1.1001e-07
4.01976e-06
3.40044e-15
1.09493e-07
3.98421e-06
3.45074e-15
1.08897e-07
3.94883e-06
3.49411e-15
1.08231e-07
3.91364e-06
3.53574e-15
1.07508e-07
3.87867e-06
3.57043e-15
1.06737e-07
3.84393e-06
3.6086e-15
1.05927e-07
3.80942e-06
3.64502e-15
1.05086e-07
3.77516e-06
3.66931e-15
1.04221e-07
3.74116e-06
3.70226e-15
1.0334e-07
3.70742e-06
3.72828e-15
1.02449e-07
3.67394e-06
3.75083e-15
1.01553e-07
3.64073e-06
3.76817e-15
1.00658e-07
3.60778e-06
3.78552e-15
9.97686e-08
3.5751e-06
3.79245e-15
9.88886e-08
3.54267e-06
3.80112e-15
9.8022e-08
3.5105e-06
3.80112e-15
9.71725e-08
3.47858e-06
3.79938e-15
9.63433e-08
3.44691e-06
3.79764e-15
9.55372e-08
3.41547e-06
3.7959e-15
9.47568e-08
3.38426e-06
3.78375e-15
9.40046e-08
3.35326e-06
3.77681e-15
9.32828e-08
3.32248e-06
3.76119e-15
9.25932e-08
3.2919e-06
3.75425e-15
9.19377e-08
3.26151e-06
3.74557e-15
9.13179e-08
3.23129e-06
3.72821e-15
9.07354e-08
3.20124e-06
3.70392e-15
9.01914e-08
3.17134e-06
3.68657e-15
8.96874e-08
3.14158e-06
3.66922e-15
8.92244e-08
3.11195e-06
3.64493e-15
8.88036e-08
3.08243e-06
3.62757e-15
8.84259e-08
3.05302e-06
3.59981e-15
8.80924e-08
3.02368e-06
3.58246e-15
8.78038e-08
2.99442e-06
3.56164e-15
8.75611e-08
2.96522e-06
3.54082e-15
8.7365e-08
2.93606e-06
3.51999e-15
8.72162e-08
2.90692e-06
3.50264e-15
8.71154e-08
2.87779e-06
3.48702e-15
8.70633e-08
2.84866e-06
3.46967e-15
8.70604e-08
2.81951e-06
3.45752e-15
8.71074e-08
2.79033e-06
3.44364e-15
8.72048e-08
2.76109e-06
3.42976e-15
8.7353e-08
2.73178e-06
3.42628e-15
8.75526e-08
2.70238e-06
3.41934e-15
8.78038e-08
2.67289e-06
3.40892e-15
8.81072e-08
2.64327e-06
3.41239e-15
8.8463e-08
2.61353e-06
3.41585e-15
8.88715e-08
2.58363e-06
3.41758e-15
8.93329e-08
2.55356e-06
3.42625e-15
8.98474e-08
2.5233e-06
3.43839e-15
9.04151e-08
2.49285e-06
3.45226e-15
9.10361e-08
2.46218e-06
3.47481e-15
9.17104e-08
2.43127e-06
3.49389e-15
9.24378e-08
2.40011e-06
3.51643e-15
9.32183e-08
2.36868e-06
3.54072e-15
9.40516e-08
2.33697e-06
3.57887e-15
9.49374e-08
2.30495e-06
3.60663e-15
9.58753e-08
2.27262e-06
3.64652e-15
9.68647e-08
2.23996e-06
3.68468e-15
9.79052e-08
2.20695e-06
3.72804e-15
9.89959e-08
2.17358e-06
3.78182e-15
1.00136e-07
2.13983e-06
3.83385e-15
1.01325e-07
2.10569e-06
3.88936e-15
1.02561e-07
2.07115e-06
3.95007e-15
1.03843e-07
2.03619e-06
4.01252e-15
1.0517e-07
2.00079e-06
4.08017e-15
1.0654e-07
1.96495e-06
4.14782e-15