/*--------------------------------*- C++ -*----------------------------------*\
  =========                 |
  \\      /  F ield         | OpenFOAM: The Open Source CFD Toolbox
   \\    /   O peration     | Website:  https://openfoam.org
    \\  /    A nd           | Version:  8
     \\/     M anipulation  |
\*---------------------------------------------------------------------------*/
FoamFile
{
    version     2.0;
    format      ascii;
    class       volScalarField;
    location    "200";
    object      alphat;
}
// * * * * * * * * * * * * * * * * * * * * * * * * * * * * * * * * * * * * * //

dimensions      [1 -1 -1 0 0 0 0];

internalField   nonuniform List<scalar> 
46000
(
3.39808e-06
1.0802e-05
1.94853e-05
2.64273e-05
3.24163e-05
3.76465e-05
4.22333e-05
4.6266e-05
4.98173e-05
5.29457e-05
5.56973e-05
5.81074e-05
6.0202e-05
6.20008e-05
6.35188e-05
6.4772e-05
6.58077e-05
6.66731e-05
6.73371e-05
6.77943e-05
6.80557e-05
6.81434e-05
6.80855e-05
6.79126e-05
6.76552e-05
6.73414e-05
6.69962e-05
6.66404e-05
6.62903e-05
6.59586e-05
6.56538e-05
6.53816e-05
6.51451e-05
6.49454e-05
6.47819e-05
6.46531e-05
6.45566e-05
6.44897e-05
6.44492e-05
6.44323e-05
6.44383e-05
6.44635e-05
6.45042e-05
6.45576e-05
6.46224e-05
6.46978e-05
6.47837e-05
6.48804e-05
6.49881e-05
6.51077e-05
6.52394e-05
6.53837e-05
6.55405e-05
6.57096e-05
6.58904e-05
6.60817e-05
6.62822e-05
6.64904e-05
6.67044e-05
6.69226e-05
6.71431e-05
6.73643e-05
6.75848e-05
6.78033e-05
6.80187e-05
6.82302e-05
6.84367e-05
6.86376e-05
6.88318e-05
6.90183e-05
6.91962e-05
6.93642e-05
6.95211e-05
6.96661e-05
6.97983e-05
6.99186e-05
7.00264e-05
7.01213e-05
7.02035e-05
7.02744e-05
7.03358e-05
7.03903e-05
7.0441e-05
7.04916e-05
7.05461e-05
7.06112e-05
7.06911e-05
7.07881e-05
7.09044e-05
7.10416e-05
7.12009e-05
7.13825e-05
7.15861e-05
7.18108e-05
7.20547e-05
7.23157e-05
7.25911e-05
7.2878e-05
7.31731e-05
7.34733e-05
7.37757e-05
7.40771e-05
7.43749e-05
7.46667e-05
7.49504e-05
7.52242e-05
7.54868e-05
7.5737e-05
7.59743e-05
7.61983e-05
7.64089e-05
7.66066e-05
7.67919e-05
7.6966e-05
7.71298e-05
7.72849e-05
7.74327e-05
7.7575e-05
7.77133e-05
7.78491e-05
7.7984e-05
7.81189e-05
7.82546e-05
7.83916e-05
7.85299e-05
7.86689e-05
7.88079e-05
7.89455e-05
7.90804e-05
7.92107e-05
7.93348e-05
7.9451e-05
7.95579e-05
7.96541e-05
7.97389e-05
7.9812e-05
7.98742e-05
7.99263e-05
7.99677e-05
7.99986e-05
8.00198e-05
8.00323e-05
8.00375e-05
8.00367e-05
8.00314e-05
8.00227e-05
8.00119e-05
7.99998e-05
7.99872e-05
7.99746e-05
7.99621e-05
7.99497e-05
7.99371e-05
7.99235e-05
7.99082e-05
7.98898e-05
7.98671e-05
7.98385e-05
7.98021e-05
7.97562e-05
7.9699e-05
7.96287e-05
7.95436e-05
7.94423e-05
7.93232e-05
7.91853e-05
7.90276e-05
7.88492e-05
7.86493e-05
7.84272e-05
7.81823e-05
7.79136e-05
7.76205e-05
7.73019e-05
7.69565e-05
7.65831e-05
7.61796e-05
7.57438e-05
7.52723e-05
7.47608e-05
7.42026e-05
7.35883e-05
7.29045e-05
7.21321e-05
7.12449e-05
7.02082e-05
6.89778e-05
6.74995e-05
6.57096e-05
6.35366e-05
6.09033e-05
5.77295e-05
5.39324e-05
4.9426e-05
4.41183e-05
3.79106e-05
3.07095e-05
2.24577e-05
1.30446e-05
4.91729e-06
3.39804e-06
1.07942e-05
1.94799e-05
2.64246e-05
3.24158e-05
3.76473e-05
4.22347e-05
4.62676e-05
4.98189e-05
5.29473e-05
5.5699e-05
5.81091e-05
6.0204e-05
6.20031e-05
6.35215e-05
6.47751e-05
6.58113e-05
6.66772e-05
6.73416e-05
6.7799e-05
6.80608e-05
6.81487e-05
6.8091e-05
6.79183e-05
6.76609e-05
6.73472e-05
6.70021e-05
6.66462e-05
6.62963e-05
6.59645e-05
6.56597e-05
6.53875e-05
6.5151e-05
6.49512e-05
6.47877e-05
6.46589e-05
6.45624e-05
6.44955e-05
6.4455e-05
6.44382e-05
6.44441e-05
6.44694e-05
6.45101e-05
6.45635e-05
6.46283e-05
6.47037e-05
6.47896e-05
6.48862e-05
6.4994e-05
6.51136e-05
6.52453e-05
6.53896e-05
6.55464e-05
6.57156e-05
6.58963e-05
6.60876e-05
6.62882e-05
6.64964e-05
6.67104e-05
6.69286e-05
6.71491e-05
6.73703e-05
6.75908e-05
6.78093e-05
6.80248e-05
6.82362e-05
6.84428e-05
6.86436e-05
6.88378e-05
6.90244e-05
6.92023e-05
6.93702e-05
6.95272e-05
6.96721e-05
6.98044e-05
6.99247e-05
7.00325e-05
7.01274e-05
7.02096e-05
7.02805e-05
7.03418e-05
7.03963e-05
7.0447e-05
7.04976e-05
7.05522e-05
7.06172e-05
7.06971e-05
7.07942e-05
7.09105e-05
7.10477e-05
7.12069e-05
7.13885e-05
7.15922e-05
7.18169e-05
7.20608e-05
7.23218e-05
7.25972e-05
7.2884e-05
7.31792e-05
7.34794e-05
7.37818e-05
7.40832e-05
7.4381e-05
7.46728e-05
7.49565e-05
7.52304e-05
7.5493e-05
7.57432e-05
7.59805e-05
7.62045e-05
7.64152e-05
7.66129e-05
7.67982e-05
7.69723e-05
7.71361e-05
7.72912e-05
7.74391e-05
7.75813e-05
7.77196e-05
7.78555e-05
7.79903e-05
7.81252e-05
7.8261e-05
7.8398e-05
7.85362e-05
7.86753e-05
7.88142e-05
7.89519e-05
7.90867e-05
7.9217e-05
7.93411e-05
7.94574e-05
7.95642e-05
7.96604e-05
7.97452e-05
7.98183e-05
7.98805e-05
7.99326e-05
7.9974e-05
8.00049e-05
8.00261e-05
8.00386e-05
8.00437e-05
8.0043e-05
8.00376e-05
8.0029e-05
8.00181e-05
8.00061e-05
7.99935e-05
7.99808e-05
7.99683e-05
7.99559e-05
7.99433e-05
7.99297e-05
7.99143e-05
7.9896e-05
7.98733e-05
7.98446e-05
7.98083e-05
7.97624e-05
7.97052e-05
7.96348e-05
7.95497e-05
7.94483e-05
7.93293e-05
7.91914e-05
7.90337e-05
7.88553e-05
7.86554e-05
7.84333e-05
7.81883e-05
7.79196e-05
7.76265e-05
7.73078e-05
7.69625e-05
7.6589e-05
7.61855e-05
7.57497e-05
7.52782e-05
7.47666e-05
7.42084e-05
7.35942e-05
7.29103e-05
7.21379e-05
7.12506e-05
7.0214e-05
6.89836e-05
6.75052e-05
6.57152e-05
6.3542e-05
6.09087e-05
5.77346e-05
5.39372e-05
4.94304e-05
4.41224e-05
3.79146e-05
3.07138e-05
2.24634e-05
1.30523e-05
4.92384e-06
8.11342e-06
5.38388e-05
8.89603e-05
0.000115353
0.000135888
0.00015202
0.000164691
0.000174593
0.000182265
0.000188138
0.000192559
0.000195809
0.000198115
0.000199657
0.000200577
0.00020097
0.000200846
0.000200401
0.000199741
0.000198951
0.000198098
0.000197234
0.000196399
0.000195622
0.000194923
0.000194312
0.000193795
0.000193371
0.000193036
0.000192782
0.000192601
0.000192484
0.000192423
0.000192409
0.000192434
0.00019249
0.00019257
0.000192669
0.000192782
0.000192904
0.00019303
0.000193159
0.000193291
0.000193429
0.000193574
0.000193728
0.000193893
0.000194073
0.000194268
0.00019448
0.000194711
0.000194961
0.000195229
0.000195514
0.000195814
0.000196127
0.000196451
0.000196781
0.000197115
0.000197451
0.000197785
0.000198116
0.000198443
0.000198763
0.000199077
0.000199383
0.000199679
0.000199966
0.000200241
0.000200503
0.000200749
0.000200979
0.000201191
0.000201382
0.000201552
0.000201701
0.000201827
0.000201933
0.000202023
0.000202103
0.000202177
0.000202252
0.000202335
0.000202431
0.000202547
0.000202686
0.000202849
0.00020304
0.000203261
0.000203513
0.000203795
0.000204106
0.000204444
0.000204805
0.000205185
0.000205579
0.000205984
0.000206393
0.000206804
0.000207211
0.000207611
0.000208001
0.000208379
0.000208742
0.000209089
0.00020942
0.000209733
0.000210029
0.000210307
0.00021057
0.000210817
0.00021105
0.000211271
0.000211481
0.000211683
0.000211879
0.000212072
0.000212262
0.000212452
0.000212644
0.000212839
0.000213037
0.000213238
0.000213441
0.000213646
0.000213849
0.000214049
0.000214244
0.000214429
0.000214604
0.000214764
0.000214909
0.000215037
0.000215147
0.000215239
0.000215313
0.00021537
0.000215409
0.000215435
0.000215448
0.000215453
0.000215453
0.000215449
0.000215443
0.000215437
0.000215432
0.000215429
0.000215427
0.000215427
0.000215427
0.000215428
0.000215428
0.000215424
0.000215415
0.000215399
0.000215373
0.000215334
0.000215279
0.000215206
0.000215112
0.000214994
0.000214851
0.000214681
0.000214482
0.000214254
0.000213996
0.000213708
0.000213388
0.000213037
0.000212653
0.000212235
0.000211783
0.000211294
0.000210766
0.000210198
0.000209585
0.000208925
0.000208212
0.000207438
0.000206592
0.000205658
0.000204611
0.000203413
0.000202015
0.000200345
0.000198311
0.000195799
0.000192669
0.000188764
0.000183908
0.00017792
0.000170615
0.000161816
0.000151356
0.000139076
0.000124824
0.000108397
8.90876e-05
6.25804e-05
1.37545e-05
8.11458e-06
5.38136e-05
8.89275e-05
0.00011532
0.00013586
0.000151998
0.000164676
0.000174585
0.000182263
0.000188142
0.000192568
0.000195823
0.000198133
0.000199678
0.000200601
0.000200997
0.000200875
0.000200431
0.000199772
0.000198983
0.000198131
0.000197267
0.000196432
0.000195655
0.000194956
0.000194345
0.000193828
0.000193404
0.000193068
0.000192814
0.000192633
0.000192517
0.000192456
0.000192441
0.000192466
0.000192522
0.000192602
0.000192702
0.000192814
0.000192936
0.000193063
0.000193192
0.000193324
0.000193462
0.000193606
0.00019376
0.000193926
0.000194105
0.0001943
0.000194513
0.000194744
0.000194994
0.000195262
0.000195547
0.000195847
0.00019616
0.000196484
0.000196814
0.000197148
0.000197484
0.000197818
0.00019815
0.000198476
0.000198797
0.00019911
0.000199416
0.000199713
0.000199999
0.000200274
0.000200536
0.000200783
0.000201013
0.000201224
0.000201416
0.000201586
0.000201735
0.00020186
0.000201966
0.000202057
0.000202136
0.00020221
0.000202285
0.000202368
0.000202465
0.00020258
0.000202719
0.000202882
0.000203073
0.000203294
0.000203546
0.000203828
0.000204139
0.000204477
0.000204838
0.000205218
0.000205613
0.000206017
0.000206427
0.000206837
0.000207244
0.000207645
0.000208035
0.000208413
0.000208776
0.000209124
0.000209454
0.000209768
0.000210063
0.000210342
0.000210605
0.000210852
0.000211085
0.000211306
0.000211516
0.000211718
0.000211915
0.000212107
0.000212297
0.000212488
0.00021268
0.000212874
0.000213072
0.000213273
0.000213476
0.000213681
0.000213884
0.000214084
0.000214279
0.000214464
0.000214639
0.000214799
0.000214944
0.000215072
0.000215182
0.000215274
0.000215348
0.000215405
0.000215444
0.00021547
0.000215483
0.000215488
0.000215488
0.000215484
0.000215478
0.000215472
0.000215467
0.000215463
0.000215462
0.000215461
0.000215462
0.000215463
0.000215462
0.000215458
0.00021545
0.000215433
0.000215407
0.000215368
0.000215313
0.00021524
0.000215146
0.000215028
0.000214885
0.000214715
0.000214516
0.000214288
0.00021403
0.000213742
0.000213422
0.000213071
0.000212687
0.000212269
0.000211816
0.000211327
0.0002108
0.000210231
0.000209618
0.000208958
0.000208245
0.000207471
0.000206625
0.000205691
0.000204644
0.000203446
0.000202047
0.000200377
0.000198343
0.000195831
0.000192702
0.000188796
0.00018394
0.000177951
0.000170646
0.000161846
0.000151384
0.000139103
0.00012485
0.000108421
8.91117e-05
6.26038e-05
1.37628e-05
1.49861e-05
7.58386e-05
0.000129165
0.000170367
0.000202495
0.000227601
0.00024707
0.000261945
0.000273071
0.000281161
0.000286825
0.000290585
0.000292872
0.00029404
0.000294362
0.000294038
0.000293193
0.000291919
0.000290467
0.000288952
0.000287462
0.000286061
0.00028479
0.000283678
0.000282735
0.000281963
0.000281356
0.0002809
0.00028058
0.000280378
0.000280277
0.000280259
0.000280308
0.00028041
0.000280552
0.000280723
0.000280912
0.000281113
0.00028132
0.000281526
0.000281727
0.000281923
0.000282117
0.000282311
0.000282509
0.000282715
0.000282933
0.000283166
0.000283417
0.000283688
0.00028398
0.000284295
0.000284631
0.000284986
0.000285359
0.000285746
0.000286144
0.000286549
0.000286959
0.00028737
0.000287779
0.000288184
0.000288584
0.000288978
0.000289363
0.00028974
0.000290107
0.000290462
0.000290803
0.000291129
0.000291436
0.000291723
0.000291988
0.000292228
0.000292442
0.000292629
0.00029279
0.000292929
0.000293051
0.000293162
0.000293268
0.000293378
0.000293498
0.000293636
0.000293796
0.000293981
0.000294193
0.000294433
0.000294705
0.000295008
0.000295342
0.000295703
0.00029609
0.000296496
0.000296919
0.000297353
0.000297793
0.000298235
0.000298674
0.000299107
0.00029953
0.000299942
0.00030034
0.000300722
0.000301088
0.000301438
0.000301772
0.000302089
0.000302392
0.000302679
0.000302954
0.000303217
0.000303471
0.000303716
0.000303956
0.000304192
0.000304426
0.00030466
0.000304896
0.000305135
0.000305377
0.000305623
0.000305872
0.000306121
0.00030637
0.000306616
0.000306856
0.000307087
0.000307306
0.00030751
0.000307696
0.000307863
0.00030801
0.000308136
0.000308242
0.000308326
0.000308392
0.000308439
0.000308471
0.000308492
0.000308506
0.000308514
0.000308521
0.000308528
0.000308535
0.000308545
0.000308557
0.000308571
0.000308586
0.000308602
0.000308617
0.000308628
0.000308634
0.000308631
0.000308617
0.000308589
0.000308543
0.000308476
0.000308384
0.000308266
0.000308118
0.000307939
0.000307728
0.000307482
0.000307202
0.000306886
0.000306535
0.000306148
0.000305725
0.000305264
0.000304766
0.000304229
0.000303652
0.000303033
0.00030237
0.000301661
0.000300904
0.000300095
0.000299225
0.000298284
0.000297254
0.000296105
0.000294794
0.000293257
0.000291407
0.000289131
0.000286284
0.000282693
0.000278157
0.00027245
0.000265325
0.000256516
0.000245734
0.000232662
0.00021693
0.000198047
0.000175096
0.000145405
9.95081e-05
2.32127e-05
1.49818e-05
7.58046e-05
0.000129119
0.000170319
0.000202455
0.000227573
0.000247056
0.000261944
0.000273082
0.000281182
0.000286857
0.000290624
0.000292918
0.000294092
0.000294419
0.0002941
0.000293257
0.000291986
0.000290536
0.000289022
0.000287533
0.000286131
0.000284861
0.000283748
0.000282805
0.000282033
0.000281425
0.000280969
0.000280649
0.000280447
0.000280346
0.000280328
0.000280377
0.000280479
0.000280621
0.000280792
0.000280982
0.000281183
0.00028139
0.000281596
0.000281798
0.000281994
0.000282187
0.000282382
0.00028258
0.000282786
0.000283004
0.000283237
0.000283488
0.000283759
0.000284052
0.000284366
0.000284702
0.000285058
0.000285431
0.000285818
0.000286216
0.000286622
0.000287031
0.000287442
0.000287851
0.000288257
0.000288657
0.00028905
0.000289436
0.000289813
0.00029018
0.000290535
0.000290876
0.000291202
0.000291509
0.000291797
0.000292061
0.000292301
0.000292515
0.000292702
0.000292863
0.000293002
0.000293124
0.000293235
0.000293341
0.000293451
0.000293571
0.000293709
0.000293869
0.000294054
0.000294265
0.000294506
0.000294778
0.000295081
0.000295414
0.000295776
0.000296162
0.000296569
0.000296992
0.000297426
0.000297866
0.000298308
0.000298748
0.000299181
0.000299604
0.000300016
0.000300414
0.000300797
0.000301163
0.000301514
0.000301847
0.000302165
0.000302467
0.000302755
0.00030303
0.000303294
0.000303547
0.000303792
0.000304032
0.000304268
0.000304502
0.000304737
0.000304973
0.000305211
0.000305454
0.000305699
0.000305948
0.000306197
0.000306447
0.000306693
0.000306933
0.000307163
0.000307382
0.000307586
0.000307772
0.00030794
0.000308087
0.000308213
0.000308318
0.000308403
0.000308468
0.000308515
0.000308547
0.000308568
0.000308582
0.00030859
0.000308597
0.000308603
0.000308611
0.00030862
0.000308632
0.000308646
0.000308662
0.000308677
0.000308692
0.000308703
0.000308709
0.000308706
0.000308692
0.000308664
0.000308617
0.00030855
0.000308459
0.000308341
0.000308193
0.000308014
0.000307802
0.000307556
0.000307276
0.00030696
0.000306609
0.000306222
0.000305798
0.000305338
0.00030484
0.000304302
0.000303725
0.000303105
0.000302443
0.000301734
0.000300977
0.000300167
0.000299297
0.000298356
0.000297326
0.000296177
0.000294865
0.000293328
0.000291479
0.000289202
0.000286356
0.000282765
0.000278229
0.000272522
0.000265397
0.000256587
0.000245805
0.00023273
0.000216996
0.00019811
0.000175155
0.000145458
9.9547e-05
2.32189e-05
2.1076e-05
9.20881e-05
0.000154983
0.000204331
0.000243196
0.000273813
0.000297709
0.000316031
0.000329717
0.000339582
0.000346352
0.000350679
0.00035313
0.000354183
0.000354219
0.000353526
0.000352299
0.000350646
0.000348817
0.000346952
0.000345154
0.00034349
0.000342004
0.000340719
0.000339643
0.000338774
0.000338098
0.0003376
0.000337258
0.000337052
0.00033696
0.000336962
0.000337038
0.000337171
0.000337347
0.000337552
0.000337777
0.000338011
0.000338248
0.000338483
0.00033871
0.000338932
0.00033915
0.000339369
0.000339593
0.000339827
0.000340073
0.000340336
0.000340619
0.000340924
0.000341253
0.000341606
0.000341981
0.000342379
0.000342795
0.000343227
0.000343671
0.000344125
0.000344584
0.000345046
0.000345508
0.000345967
0.000346423
0.000346873
0.000347316
0.00034775
0.000348174
0.000348587
0.000348984
0.000349365
0.000349727
0.000350066
0.00035038
0.000350667
0.000350925
0.000351153
0.000351354
0.000351531
0.00035169
0.000351836
0.000351976
0.000352118
0.00035227
0.000352436
0.000352621
0.000352827
0.000353056
0.000353311
0.000353594
0.000353904
0.000354242
0.000354604
0.000354988
0.00035539
0.000355807
0.000356234
0.000356667
0.000357102
0.000357535
0.000357965
0.000358387
0.0003588
0.000359203
0.000359594
0.000359973
0.000360339
0.000360693
0.000361034
0.000361363
0.00036168
0.000361987
0.000362285
0.000362574
0.000362857
0.000363135
0.00036341
0.000363683
0.000363956
0.00036423
0.000364506
0.000364784
0.000365063
0.000365344
0.000365624
0.000365902
0.000366174
0.000366439
0.000366694
0.000366935
0.00036716
0.000367367
0.000367554
0.000367721
0.000367867
0.000367992
0.000368096
0.000368179
0.000368245
0.000368296
0.000368336
0.000368368
0.000368396
0.000368421
0.000368445
0.00036847
0.000368497
0.000368525
0.000368553
0.000368582
0.00036861
0.000368635
0.000368655
0.000368668
0.000368671
0.000368659
0.000368632
0.000368584
0.000368512
0.000368414
0.000368287
0.000368129
0.000367937
0.00036771
0.000367448
0.000367149
0.000366814
0.000366441
0.000366031
0.000365583
0.000365098
0.000364574
0.000364012
0.00036341
0.00036277
0.000362091
0.000361373
0.000360616
0.000359821
0.000358982
0.000358094
0.000357141
0.000356097
0.00035492
0.000353548
0.000351894
0.000349841
0.00034724
0.000343909
0.000339632
0.000334159
0.000327197
0.000318406
0.000307376
0.000293601
0.000276416
0.000254831
0.000226998
0.000188406
0.000126914
3.09167e-05
2.10711e-05
9.20505e-05
0.000154931
0.000204278
0.000243154
0.000273786
0.0002977
0.00031604
0.000329742
0.00033962
0.000346402
0.000350739
0.000353197
0.000354257
0.000354299
0.000353611
0.000352388
0.000350738
0.000348911
0.000347048
0.00034525
0.000343586
0.0003421
0.000340815
0.000339738
0.000338868
0.000338192
0.000337694
0.000337352
0.000337146
0.000337054
0.000337056
0.000337132
0.000337265
0.000337441
0.000337647
0.000337871
0.000338106
0.000338343
0.000338578
0.000338806
0.000339028
0.000339247
0.000339466
0.00033969
0.000339924
0.00034017
0.000340433
0.000340716
0.000341022
0.000341351
0.000341703
0.000342079
0.000342477
0.000342893
0.000343325
0.00034377
0.000344223
0.000344683
0.000345145
0.000345607
0.000346066
0.000346522
0.000346972
0.000347415
0.00034785
0.000348274
0.000348686
0.000349084
0.000349465
0.000349827
0.000350166
0.00035048
0.000350767
0.000351025
0.000351253
0.000351454
0.000351631
0.00035179
0.000351936
0.000352076
0.000352218
0.000352369
0.000352535
0.000352721
0.000352926
0.000353155
0.000353411
0.000353693
0.000354004
0.000354341
0.000354703
0.000355087
0.00035549
0.000355907
0.000356334
0.000356767
0.000357202
0.000357636
0.000358066
0.000358488
0.000358902
0.000359305
0.000359696
0.000360075
0.000360442
0.000360796
0.000361137
0.000361466
0.000361784
0.000362091
0.000362388
0.000362678
0.000362961
0.000363239
0.000363514
0.000363787
0.00036406
0.000364334
0.00036461
0.000364887
0.000365167
0.000365448
0.000365728
0.000366005
0.000366278
0.000366543
0.000366797
0.000367038
0.000367263
0.00036747
0.000367658
0.000367825
0.000367971
0.000368095
0.000368199
0.000368283
0.000368348
0.000368399
0.000368439
0.000368472
0.000368499
0.000368524
0.000368548
0.000368573
0.000368599
0.000368627
0.000368656
0.000368685
0.000368712
0.000368737
0.000368758
0.00036877
0.000368772
0.000368761
0.000368733
0.000368685
0.000368614
0.000368516
0.000368389
0.00036823
0.000368038
0.000367812
0.000367549
0.00036725
0.000366914
0.000366542
0.000366131
0.000365684
0.000365198
0.000364674
0.000364111
0.00036351
0.000362869
0.00036219
0.000361472
0.000360715
0.000359919
0.000359081
0.000358192
0.000357239
0.000356194
0.000355017
0.000353646
0.000351992
0.000349939
0.000347338
0.000344007
0.000339731
0.000334258
0.000327296
0.000318504
0.000307474
0.000293697
0.000276509
0.000254921
0.000227082
0.000188479
0.000126964
3.09217e-05
2.64371e-05
0.000106131
0.000175136
0.000228903
0.000271131
0.000304391
0.000330391
0.00035037
0.000365306
0.000376035
0.000383309
0.000387823
0.000390212
0.000391034
0.000390748
0.000389711
0.00038817
0.000386274
0.000384216
0.000382161
0.000380211
0.00037843
0.000376855
0.000375502
0.000374376
0.000373466
0.000372759
0.000372234
0.000371872
0.000371647
0.000371539
0.000371527
0.00037159
0.000371712
0.000371877
0.000372072
0.000372286
0.000372511
0.000372739
0.000372965
0.000373185
0.000373402
0.000373618
0.000373837
0.000374065
0.000374304
0.000374558
0.000374831
0.000375127
0.000375446
0.00037579
0.00037616
0.000376554
0.00037697
0.000377407
0.000377861
0.00037833
0.00037881
0.000379298
0.000379791
0.000380286
0.000380783
0.000381277
0.000381768
0.000382254
0.000382733
0.000383202
0.00038366
0.000384103
0.00038453
0.000384937
0.00038532
0.000385679
0.000386009
0.000386308
0.000386577
0.000386817
0.000387032
0.000387226
0.000387406
0.000387578
0.000387747
0.000387921
0.000388105
0.0003883
0.000388509
0.000388734
0.000388977
0.000389242
0.000389527
0.000389834
0.000390162
0.000390507
0.000390869
0.000391244
0.000391629
0.000392023
0.000392421
0.000392823
0.000393224
0.000393625
0.000394023
0.000394417
0.000394806
0.00039519
0.000395567
0.000395937
0.000396299
0.000396654
0.000397002
0.000397341
0.000397674
0.000398
0.000398321
0.000398636
0.000398947
0.000399255
0.000399561
0.000399865
0.000400169
0.000400472
0.000400774
0.000401075
0.000401372
0.000401665
0.000401952
0.00040223
0.000402497
0.000402751
0.00040299
0.000403212
0.000403416
0.000403602
0.000403768
0.000403915
0.000404042
0.000404149
0.000404239
0.000404315
0.00040438
0.000404437
0.000404489
0.000404536
0.000404582
0.000404627
0.000404671
0.000404715
0.000404758
0.0004048
0.000404838
0.000404872
0.0004049
0.000404919
0.000404926
0.000404919
0.000404894
0.000404848
0.000404779
0.000404684
0.000404559
0.000404404
0.000404216
0.000403994
0.000403737
0.000403445
0.000403118
0.000402754
0.000402355
0.00040192
0.000401449
0.000400943
0.000400403
0.000399831
0.000399228
0.000398597
0.000397943
0.000397271
0.000396585
0.000395888
0.00039518
0.000394455
0.000393694
0.000392866
0.000391918
0.000390772
0.000389321
0.000387426
0.000384909
0.000381551
0.000377084
0.000371173
0.00036339
0.000353185
0.000339825
0.000322297
0.000299066
0.000267399
0.000221454
0.00014795
3.75541e-05
2.64322e-05
0.000106091
0.00017508
0.000228848
0.000271089
0.000304368
0.000330388
0.000350387
0.000365341
0.000376085
0.000383372
0.000387895
0.000390293
0.000391121
0.000390841
0.000389808
0.000388271
0.000386379
0.000384323
0.00038227
0.000380321
0.00037854
0.000376965
0.000375612
0.000374485
0.000373575
0.000372867
0.000372342
0.000371979
0.000371755
0.000371647
0.000371634
0.000371698
0.000371819
0.000371985
0.00037218
0.000372395
0.00037262
0.000372848
0.000373075
0.000373295
0.000373512
0.000373728
0.000373948
0.000374176
0.000374415
0.000374669
0.000374943
0.000375239
0.000375558
0.000375902
0.000376272
0.000376666
0.000377082
0.000377519
0.000377974
0.000378443
0.000378923
0.000379411
0.000379904
0.0003804
0.000380896
0.000381391
0.000381882
0.000382368
0.000382847
0.000383317
0.000383775
0.000384218
0.000384645
0.000385052
0.000385435
0.000385794
0.000386124
0.000386423
0.000386692
0.000386932
0.000387147
0.000387341
0.000387521
0.000387693
0.000387862
0.000388036
0.000388219
0.000388415
0.000388623
0.000388848
0.000389091
0.000389356
0.000389641
0.000389949
0.000390276
0.000390621
0.000390983
0.000391358
0.000391744
0.000392138
0.000392537
0.000392938
0.00039334
0.000393741
0.00039414
0.000394534
0.000394924
0.000395307
0.000395684
0.000396055
0.000396417
0.000396773
0.00039712
0.00039746
0.000397793
0.000398119
0.00039844
0.000398755
0.000399066
0.000399374
0.00039968
0.000399984
0.000400288
0.000400591
0.000400893
0.000401193
0.000401491
0.000401784
0.00040207
0.000402348
0.000402615
0.000402869
0.000403108
0.000403331
0.000403535
0.000403721
0.000403887
0.000404033
0.00040416
0.000404268
0.000404358
0.000404434
0.000404499
0.000404556
0.000404607
0.000404654
0.0004047
0.000404745
0.000404789
0.000404833
0.000404875
0.000404917
0.000404955
0.000404989
0.000405017
0.000405036
0.000405043
0.000405035
0.00040501
0.000404965
0.000404895
0.0004048
0.000404675
0.00040452
0.000404332
0.00040411
0.000403853
0.000403561
0.000403233
0.000402869
0.00040247
0.000402034
0.000401564
0.000401058
0.000400517
0.000399945
0.000399341
0.00039871
0.000398056
0.000397384
0.000396697
0.000396
0.000395292
0.000394567
0.000393806
0.000392978
0.00039203
0.000390884
0.000389433
0.000387538
0.000385022
0.000381665
0.000377198
0.000371286
0.000363503
0.000353296
0.000339934
0.000322404
0.00029917
0.000267497
0.000221539
0.000148008
3.75592e-05
3.10677e-05
0.000118393
0.000191811
0.000248047
0.000291655
0.000325663
0.000352052
0.000372222
0.00038723
0.000397926
0.000405046
0.000409271
0.000411247
0.000411569
0.000410752
0.000409209
0.000407239
0.000405034
0.000402712
0.000400461
0.000398375
0.000396506
0.000394876
0.000393492
0.000392345
0.000391422
0.000390702
0.000390162
0.000389781
0.000389534
0.0003894
0.000389357
0.000389387
0.000389474
0.000389602
0.00038976
0.000389938
0.000390126
0.000390319
0.000390512
0.000390702
0.000390892
0.000391086
0.000391287
0.000391499
0.000391727
0.000391973
0.00039224
0.000392531
0.000392848
0.000393191
0.000393559
0.000393954
0.000394371
0.000394811
0.000395269
0.000395745
0.000396234
0.000396733
0.000397241
0.000397755
0.000398273
0.000398792
0.00039931
0.000399826
0.000400336
0.000400839
0.000401331
0.00040181
0.000402273
0.000402716
0.000403137
0.000403533
0.000403902
0.00040424
0.000404546
0.000404823
0.000405073
0.0004053
0.000405511
0.000405709
0.0004059
0.000406089
0.000406279
0.000406473
0.00040667
0.000406874
0.000407088
0.000407313
0.000407552
0.000407805
0.000408073
0.000408355
0.000408651
0.00040896
0.000409281
0.000409612
0.000409953
0.000410303
0.000410661
0.000411025
0.000411395
0.000411769
0.000412147
0.000412527
0.000412909
0.000413291
0.000413671
0.00041405
0.000414425
0.000414796
0.000415162
0.000415523
0.000415878
0.000416228
0.000416572
0.00041691
0.000417244
0.000417572
0.000417897
0.000418217
0.000418533
0.000418843
0.000419149
0.000419447
0.000419739
0.000420021
0.000420293
0.000420553
0.0004208
0.000421033
0.000421251
0.000421453
0.000421639
0.000421808
0.00042196
0.000422094
0.000422211
0.000422316
0.000422409
0.000422494
0.000422571
0.000422644
0.000422713
0.000422778
0.000422841
0.000422901
0.000422958
0.000423011
0.00042306
0.000423103
0.000423137
0.000423162
0.000423175
0.000423173
0.000423154
0.000423115
0.000423054
0.000422968
0.000422855
0.000422715
0.000422544
0.000422343
0.00042211
0.000421845
0.000421547
0.000421218
0.000420857
0.000420465
0.000420043
0.000419593
0.000419118
0.000418621
0.000418108
0.000417586
0.000417064
0.000416555
0.000416068
0.000415618
0.000415214
0.000414862
0.000414556
0.00041428
0.000413997
0.000413647
0.000413139
0.00041235
0.000411111
0.000409202
0.000406331
0.000402105
0.000395994
0.000387279
0.000374978
0.000357718
0.000333446
0.000298708
0.000246827
0.000164254
4.33416e-05
3.1063e-05
0.000118349
0.000191752
0.000247989
0.000291612
0.000325642
0.000352054
0.000372245
0.000387272
0.000397983
0.000405115
0.000409349
0.000411332
0.00041166
0.000410848
0.00040931
0.000407343
0.000405142
0.000402822
0.000400574
0.000398489
0.00039662
0.000394991
0.000393606
0.000392459
0.000391535
0.000390815
0.000390275
0.000389893
0.000389646
0.000389511
0.000389468
0.000389499
0.000389585
0.000389714
0.000389872
0.00039005
0.000390239
0.000390432
0.000390626
0.000390816
0.000391006
0.0003912
0.000391402
0.000391614
0.000391842
0.000392088
0.000392356
0.000392647
0.000392964
0.000393307
0.000393676
0.00039407
0.000394488
0.000394928
0.000395387
0.000395862
0.000396351
0.000396851
0.000397359
0.000397874
0.000398391
0.000398911
0.000399429
0.000399945
0.000400455
0.000400958
0.00040145
0.000401929
0.000402392
0.000402836
0.000403257
0.000403653
0.000404021
0.00040436
0.000404666
0.000404942
0.000405192
0.00040542
0.00040563
0.000405828
0.000406019
0.000406208
0.000406399
0.000406592
0.000406789
0.000406993
0.000407206
0.000407432
0.000407671
0.000407924
0.000408192
0.000408474
0.00040877
0.000409079
0.0004094
0.000409732
0.000410073
0.000410423
0.000410781
0.000411145
0.000411516
0.00041189
0.000412268
0.000412649
0.000413031
0.000413413
0.000413794
0.000414173
0.000414548
0.000414919
0.000415286
0.000415646
0.000416002
0.000416351
0.000416695
0.000417034
0.000417367
0.000417696
0.00041802
0.00041834
0.000418656
0.000418966
0.000419272
0.00041957
0.000419862
0.000420144
0.000420415
0.000420675
0.000420923
0.000421156
0.000421374
0.000421576
0.000421762
0.000421931
0.000422083
0.000422217
0.000422334
0.000422438
0.000422532
0.000422616
0.000422694
0.000422766
0.000422835
0.0004229
0.000422963
0.000423023
0.00042308
0.000423133
0.000423181
0.000423224
0.000423258
0.000423283
0.000423296
0.000423294
0.000423274
0.000423235
0.000423174
0.000423088
0.000422976
0.000422835
0.000422664
0.000422462
0.000422229
0.000421964
0.000421667
0.000421337
0.000420976
0.000420584
0.000420162
0.000419712
0.000419236
0.000418739
0.000418225
0.000417703
0.000417181
0.000416671
0.000416185
0.000415735
0.000415331
0.000414978
0.000414672
0.000414396
0.000414113
0.000413763
0.000413255
0.000412466
0.000411228
0.000409319
0.000406447
0.00040222
0.000396109
0.000387392
0.00037509
0.000357828
0.000333554
0.000298811
0.000246917
0.000164316
4.33469e-05
3.50139e-05
0.00012895
0.000205694
0.000263296
0.000307155
0.000340765
0.000366422
0.000385752
0.000399948
0.00040991
0.000416354
0.000419908
0.000421177
0.000420749
0.000419169
0.000416898
0.000414284
0.000411557
0.000408841
0.000406282
0.000403971
0.000401946
0.000400213
0.000398763
0.000397574
0.00039662
0.000395875
0.000395311
0.000394901
0.000394621
0.000394448
0.000394362
0.000394345
0.000394381
0.000394457
0.00039456
0.000394684
0.000394819
0.000394961
0.000395104
0.000395249
0.000395397
0.000395554
0.000395723
0.000395907
0.000396109
0.000396333
0.000396581
0.000396855
0.000397155
0.000397482
0.000397836
0.000398217
0.000398622
0.00039905
0.000399499
0.000399967
0.000400451
0.000400949
0.000401459
0.000401978
0.000402504
0.000403035
0.000403568