/*--------------------------------*- C++ -*----------------------------------*\
  =========                 |
  \\      /  F ield         | OpenFOAM: The Open Source CFD Toolbox
   \\    /   O peration     | Website:  https://openfoam.org
    \\  /    A nd           | Version:  8
     \\/     M anipulation  |
\*---------------------------------------------------------------------------*/
FoamFile
{
    version     2.0;
    format      ascii;
    class       volScalarField;
    location    "200";
    object      epsilon;
}
// * * * * * * * * * * * * * * * * * * * * * * * * * * * * * * * * * * * * * //

dimensions      [0 2 -3 0 0 0 0];

internalField   nonuniform List<scalar> 
46000
(
62.2072
179.153
319.715
432.034
528.832
613.311
687.379
752.513
809.907
860.521
905.106
944.229
978.31
1007.66
1032.51
1053.13
1070.34
1084.75
1095.89
1103.66
1108.27
1110.07
1109.51
1107.09
1103.3
1098.59
1093.36
1087.94
1082.6
1077.54
1072.89
1068.74
1065.16
1062.14
1059.7
1057.8
1056.4
1055.47
1054.96
1054.82
1055.04
1055.57
1056.33
1057.29
1058.43
1059.75
1061.22
1062.88
1064.71
1066.73
1068.96
1071.38
1074.01
1076.84
1079.86
1083.05
1086.39
1089.85
1093.4
1097.01
1100.66
1104.32
1107.97
1111.58
1115.13
1118.62
1122.03
1125.34
1128.55
1131.62
1134.56
1137.33
1139.92
1142.3
1144.49
1146.47
1148.25
1149.81
1151.17
1152.33
1153.34
1154.24
1155.08
1155.92
1156.82
1157.91
1159.23
1160.84
1162.75
1165.01
1167.63
1170.62
1173.96
1177.65
1181.65
1185.92
1190.43
1195.12
1199.95
1204.85
1209.79
1214.72
1219.58
1224.34
1228.98
1233.45
1237.74
1241.83
1245.7
1249.36
1252.81
1256.04
1259.07
1261.92
1264.6
1267.14
1269.56
1271.89
1274.16
1276.38
1278.59
1280.8
1283.02
1285.26
1287.52
1289.79
1292.05
1294.3
1296.49
1298.62
1300.63
1302.52
1304.25
1305.81
1307.18
1308.36
1309.36
1310.2
1310.86
1311.35
1311.68
1311.87
1311.94
1311.91
1311.81
1311.65
1311.47
1311.26
1311.04
1310.82
1310.6
1310.38
1310.15
1309.92
1309.64
1309.32
1308.93
1308.44
1307.82
1307.04
1306.08
1304.9
1303.48
1301.8
1299.82
1297.54
1294.93
1291.99
1288.69
1285.04
1281.01
1276.61
1271.8
1266.58
1260.93
1254.83
1248.24
1241.12
1233.44
1225.11
1216.03
1206.06
1194.98
1182.49
1168.17
1151.45
1131.64
1107.84
1079.02
1044.02
1001.56
950.325
888.938
815.964
729.843
628.863
511.315
375.937
220.444
91.5085
62.2068
179.083
319.663
432.002
528.81
613.294
687.368
752.508
809.909
860.531
905.124
944.256
978.346
1007.7
1032.57
1053.2
1070.42
1084.83
1095.97
1103.75
1108.36
1110.16
1109.61
1107.19
1103.4
1098.69
1093.46
1088.05
1082.71
1077.64
1072.99
1068.85
1065.26
1062.24
1059.8
1057.9
1056.5
1055.57
1055.06
1054.92
1055.15
1055.67
1056.43
1057.4
1058.54
1059.85
1061.33
1062.98
1064.81
1066.84
1069.06
1071.49
1074.12
1076.95
1079.97
1083.15
1086.49
1089.95
1093.5
1097.12
1100.77
1104.43
1108.08
1111.68
1115.24
1118.73
1122.14
1125.45
1128.66
1131.73
1134.67
1137.44
1140.02
1142.41
1144.59
1146.58
1148.36
1149.92
1151.27
1152.44
1153.45
1154.35
1155.19
1156.03
1156.93
1158.01
1159.34
1160.94
1162.86
1165.12
1167.74
1170.73
1174.07
1177.76
1181.75
1186.03
1190.54
1195.23
1200.05
1204.96
1209.9
1214.82
1219.69
1224.45
1229.09
1233.56
1237.85
1241.94
1245.82
1249.48
1252.92
1256.15
1259.19
1262.03
1264.72
1267.25
1269.68
1272
1274.27
1276.49
1278.7
1280.91
1283.13
1285.37
1287.63
1289.9
1292.17
1294.41
1296.61
1298.73
1300.74
1302.63
1304.36
1305.92
1307.29
1308.47
1309.47
1310.31
1310.97
1311.46
1311.79
1311.98
1312.05
1312.02
1311.92
1311.77
1311.58
1311.37
1311.15
1310.93
1310.71
1310.49
1310.26
1310.02
1309.75
1309.43
1309.04
1308.55
1307.93
1307.15
1306.19
1305.01
1303.59
1301.9
1299.93
1297.64
1295.04
1292.09
1288.8
1285.15
1281.12
1276.71
1271.91
1266.69
1261.04
1254.93
1248.34
1241.23
1233.54
1225.21
1216.13
1206.16
1195.08
1182.59
1168.27
1151.55
1131.74
1107.94
1079.12
1044.11
1001.66
950.418
889.029
816.051
729.925
628.938
511.38
375.984
220.456
91.4982
154.994
179.282
244.483
311.157
374.86
434.935
491.729
545.764
597.419
646.815
693.798
737.993
778.882
815.905
848.552
876.458
899.57
917.962
931.676
940.977
946.305
948.223
947.348
944.311
939.706
934.07
927.858
921.447
915.129
909.123
903.58
898.599
894.234
890.506
887.409
884.918
882.993
881.589
880.654
880.136
879.994
880.176
880.631
881.321
882.218
883.301
884.561
885.992
887.595
889.373
891.33
893.47
895.795
898.299
900.977
903.813
906.79
909.885
913.073
916.324
919.612
922.909
926.19
929.434
932.621
935.735
938.762
941.688
944.5
947.184
949.726
952.11
954.32
956.342
958.163
959.782
961.193
962.396
963.403
964.233
964.919
965.501
966.029
966.561
967.159
967.899
968.846
970.05
971.558
973.407
975.624
978.224
981.209
984.568
988.279
992.31
996.618
1001.15
1005.87
1010.69
1015.58
1020.48
1025.33
1030.09
1034.7
1039.15
1043.39
1047.41
1051.19
1054.71
1057.99
1061.02
1063.81
1066.39
1068.77
1070.98
1073.04
1075
1076.87
1078.7
1080.5
1082.31
1084.14
1086
1087.9
1089.83
1091.79
1093.76
1095.71
1097.61
1099.45
1101.18
1102.78
1104.22
1105.49
1106.57
1107.46
1108.16
1108.68
1109.02
1109.2
1109.24
1109.17
1109
1108.76
1108.47
1108.15
1107.82
1107.49
1107.17
1106.87
1106.57
1106.29
1106
1105.7
1105.36
1104.97
1104.5
1103.92
1103.2
1102.31
1101.23
1099.92
1098.36
1096.54
1094.42
1092.01
1089.27
1086.2
1082.8
1079.04
1074.93
1070.44
1065.56
1060.27
1054.56
1048.38
1041.71
1034.49
1026.67
1018.13
1008.76
998.35
986.639
973.264
957.754
939.52
917.87
892.03
861.196
824.588
781.491
731.255
673.213
606.517
530.031
442.759
346.576
255.756
272.414
154.978
179.342
244.546
311.217
374.912
434.977
491.759
545.782
597.427
646.813
693.788
737.976
778.859
815.877
848.52
876.424
899.534
917.925
931.639
940.941
946.271
948.19
947.317
944.281
939.678
934.043
927.832
921.422
915.105
909.098
903.555
898.574
894.21
890.482
887.385
884.893
882.969
881.564
880.628
880.11
879.969
880.151
880.606
881.296
882.192
883.276
884.536
885.967
887.57
889.348
891.305
893.446
895.77
898.275
900.952
903.788
906.765
909.86
913.048
916.299
919.586
922.883
926.164
929.408
932.595
935.709
938.735
941.661
944.473
947.157
949.699
952.083
954.293
956.314
958.136
959.754
961.165
962.368
963.375
964.205
964.891
965.473
966.001
966.533
967.131
967.871
968.818
970.022
971.531
973.38
975.597
978.197
981.181
984.54
988.252
992.282
996.59
1001.13
1005.84
1010.66
1015.55
1020.45
1025.3
1030.06
1034.67
1039.12
1043.36
1047.38
1051.15
1054.68
1057.96
1060.99
1063.78
1066.36
1068.73
1070.94
1073.01
1074.96
1076.84
1078.66
1080.47
1082.27
1084.1
1085.96
1087.86
1089.8
1091.76
1093.72
1095.67
1097.58
1099.41
1101.14
1102.74
1104.19
1105.45
1106.53
1107.42
1108.13
1108.64
1108.98
1109.16
1109.21
1109.13
1108.96
1108.72
1108.43
1108.12
1107.79
1107.46
1107.14
1106.83
1106.54
1106.25
1105.97
1105.66
1105.33
1104.94
1104.46
1103.88
1103.16
1102.27
1101.19
1099.88
1098.33
1096.5
1094.39
1091.97
1089.23
1086.17
1082.76
1079.01
1074.89
1070.4
1065.52
1060.24
1054.52
1048.35
1041.68
1034.46
1026.63
1018.1
1008.73
998.318
986.607
973.233
957.723
939.49
917.84
892.001
861.168
824.561
781.466
731.234
673.196
606.504
530.018
442.741
346.545
255.71
272.423
277.628
252.634
297.198
350.439
403.252
453.34
500.541
545.468
588.847
631.186
672.638
712.995
751.754
788.235
821.701
851.477
877.05
898.072
914.45
926.387
934.256
938.557
939.862
938.767
935.851
931.646
926.616
921.153
915.569
910.108
904.95
900.218
895.993
892.319
889.209
886.656
884.637
883.117
882.054
881.402
881.116
881.154
881.48
882.059
882.867
883.883
885.093
886.489
888.067
889.827
891.769
893.893
896.198
898.678
901.326
904.129
907.068
910.122
913.267
916.478
919.726
922.988
926.237
929.452
932.614
935.704
938.707
941.609
944.394
947.049
949.559
951.907
954.079
956.059
957.834
959.396
960.744
961.882
962.825
963.597
964.229
964.763
965.248
965.738
966.289
966.958
967.807
968.89
970.255
971.943
973.984
976.397
979.189
982.354
985.876
989.727
993.869
998.258
1002.84
1007.57
1012.38
1017.23
1022.05
1026.8
1031.43
1035.9
1040.18
1044.25
1048.07
1051.65
1054.97
1058.04
1060.86
1063.46
1065.84
1068.04
1070.08
1071.99
1073.81
1075.57
1077.29
1079
1080.72
1082.47
1084.26
1086.07
1087.92
1089.77
1091.62
1093.43
1095.18
1096.85
1098.39
1099.79
1101.03
1102.1
1102.97
1103.65
1104.15
1104.47
1104.64
1104.67
1104.59
1104.41
1104.16
1103.85
1103.52
1103.17
1102.82
1102.47
1102.14
1101.81
1101.49
1101.17
1100.83
1100.46
1100.03
1099.52
1098.91
1098.15
1097.24
1096.14
1094.82
1093.25
1091.43
1089.33
1086.92
1084.21
1081.18
1077.81
1074.09
1070.02
1065.58
1060.75
1055.52
1049.87
1043.77
1037.19
1030.08
1022.39
1014.02
1004.85
994.69
983.294
970.314
955.31
937.742
916.992
892.397
863.298
829.088
789.232
743.227
690.488
630.212
561.469
484.262
403.391
341.363
451.742
277.585
252.702
297.28
350.519
403.319
453.387
500.567
545.473
588.831
631.152
672.588
712.93
751.677
788.147
821.602
851.37
876.936
897.952
914.327
926.263
934.132
938.433
939.739
938.645
935.731
931.527
926.499
921.037
915.454
909.993
904.835
900.104
895.879
892.204
889.094
886.541
884.522
883.002
881.939
881.286
880.999
881.038
881.363
881.943
882.75
883.766
884.976
886.372
887.95
889.709
891.651
893.775
896.079
898.56
901.207
904.009
906.948
910.002
913.147
916.357
919.605
922.866
926.114
929.329
932.49
935.58
938.583
941.484
944.269
946.924
949.433
951.781
953.952
955.932
957.707
959.269
960.616
961.754
962.697
963.469
964.101
964.635
965.12
965.61
966.161
966.831
967.68
968.763
970.128
971.815
973.856
976.269
979.061
982.226
985.747
989.598
993.739
998.127
1002.71
1007.44
1012.25
1017.09
1021.91
1026.66
1031.29
1035.76
1040.04
1044.11
1047.93
1051.51
1054.83
1057.9
1060.72
1063.31
1065.7
1067.9
1069.94
1071.85
1073.67
1075.42
1077.15
1078.86
1080.58
1082.33
1084.11
1085.93
1087.77
1089.62
1091.47
1093.28
1095.04
1096.7
1098.24
1099.65
1100.89
1101.95
1102.82
1103.5
1104
1104.32
1104.49
1104.52
1104.44
1104.26
1104.01
1103.71
1103.37
1103.03
1102.67
1102.33
1101.99
1101.67
1101.35
1101.02
1100.69
1100.31
1099.88
1099.38
1098.76
1098.01
1097.1
1095.99
1094.67
1093.11
1091.29
1089.18
1086.78
1084.07
1081.03
1077.67
1073.95
1069.88
1065.44
1060.61
1055.38
1049.73
1043.63
1037.05
1029.94
1022.25
1013.88
1004.71
994.559
983.164
970.186
955.182
937.615
916.866
892.272
863.174
828.966
789.113
743.113
690.381
630.112
561.38
484.182
403.319
341.294
451.796
386.87
329.275
363.073
407.842
451.523
491.206
526.861
559.596
590.775
621.536
652.571
684.063
715.748
747.031
777.127
805.207
830.513
852.438
870.485
884.642
895.078
902.111
906.166
907.721
907.273
905.297
902.229
898.449
894.277
889.971
885.735
881.718
878.03
874.74
871.889
869.494
867.552
866.047
864.952
864.232
863.853
863.787
864.006
864.485
865.201
866.136
867.274
868.608
870.128
871.833
873.718
875.781
878.018
880.423
882.987
885.697
888.537
891.489
894.53
897.639
900.791
903.963
907.131
910.276
913.377
916.416
919.377
922.244
925.001
927.633
930.124
932.46
934.624
936.601
938.378
939.944
941.299
942.451
943.413
944.207
944.865
945.423
945.925
946.418
946.95
947.566
948.322
949.27
950.456
951.921
953.696
955.804
958.256
961.054
964.186
967.635
971.371
975.359
979.555
983.914
988.386
992.92
997.467
1001.98
1006.41
1010.72
1014.88
1018.84
1022.61
1026.14
1029.44
1032.5
1035.33
1037.93
1040.33
1042.53
1044.57
1046.48
1048.27
1049.99
1051.65
1053.29
1054.92
1056.56
1058.22
1059.91
1061.62
1063.34
1065.05
1066.74
1068.38
1069.95
1071.42
1072.77
1073.98
1075.03
1075.91
1076.61
1077.15
1077.52
1077.74
1077.83
1077.81
1077.69
1077.5
1077.24
1076.95
1076.64
1076.31
1075.98
1075.65
1075.32
1075
1074.67
1074.31
1073.93
1073.49
1072.97
1072.36
1071.62
1070.74
1069.67
1068.41
1066.93
1065.2
1063.21
1060.95
1058.39
1055.53
1052.35
1048.84
1045
1040.8
1036.24
1031.31
1025.98
1020.25
1014.08
1007.45
1000.32
992.623
984.251
975.059
964.835
953.294
940.071
924.729
906.776
885.705
861.02
832.265
798.988
760.656
716.504
665.44
606.342
539.529
471.109
427.981
596.778
386.808
329.352
363.167
407.93
451.592
491.249
526.876
559.584
590.739
621.48
652.498
683.975
715.646
746.917
777.002
805.072
830.369
852.286
870.327
884.481
894.915
901.948
906.003
907.559
907.111
905.136
902.069
898.29
894.119
889.814
885.578
881.562
877.874
874.584
871.733
869.337
867.395
865.89
864.794
864.075
863.695
863.629
863.848
864.326
865.042
865.976
867.114
868.447
869.968
871.672
873.557
875.62
877.856
880.261
882.824
885.534
888.373
891.324
894.365
897.473
900.625
903.796
906.964
910.108
913.208
916.247
919.207
922.073
924.829
927.461
929.952
932.287
934.45
936.427
938.204
939.77
941.125
942.276
943.238
944.032
944.69
945.249
945.751
946.244
946.776
947.392
948.148
949.096
950.282
951.747
953.522
955.63
958.081
960.878
964.01
967.458
971.194
975.18
979.375
983.733
988.204
992.737
997.283
1001.79
1006.22
1010.53
1014.69
1018.66
1022.41
1025.95
1029.25
1032.31
1035.14
1037.74
1040.13
1042.34
1044.38
1046.28
1048.08
1049.79
1051.46
1053.09
1054.72
1056.37
1058.03
1059.72
1061.42
1063.14
1064.85
1066.54
1068.18
1069.75
1071.22
1072.57
1073.78
1074.83
1075.71
1076.42
1076.95
1077.32
1077.54
1077.64
1077.61
1077.49
1077.3
1077.05
1076.76
1076.44
1076.11
1075.78
1075.45
1075.13
1074.8
1074.47
1074.12
1073.73
1073.29
1072.78
1072.17
1071.43
1070.54
1069.48
1068.22
1066.73
1065.01
1063.02
1060.75
1058.2
1055.34
1052.16
1048.65
1044.81
1040.61
1036.06
1031.12
1025.8
1020.06
1013.9
1007.27
1000.14
992.444
984.073
974.882
964.66
953.12
939.898
924.557
906.605
885.535
860.852
832.099
798.826
760.499
716.352
665.295
606.207
539.405
471.002
427.892
596.858
483.581
398.605
425.161
462.931
497.281
525.208
547.265
565.361
581.677
598.076
615.827
635.533
657.2
680.368
704.271
728.002
750.661
771.487
789.664
804.848
816.957
826.083
832.461
836.415
838.321
838.57
837.537
835.57
832.973
830.005
826.878
823.76
820.78
818.03
815.574
813.45
811.678
810.261
809.188
808.44
807.997
807.843
807.959
808.326
808.927
809.744
810.764
811.976
813.373
814.946
816.69
818.602
820.674
822.9
825.272
827.779
830.407
833.141
835.963
838.855
841.796
844.766
847.745
850.714
853.653
856.546
859.374
862.123
864.775
867.316
869.73
872.002
874.117
876.062
877.825
879.391
880.761
881.94
882.94
883.778
884.48
885.077
885.602
886.095
886.591
887.131
887.761
888.527
889.471
890.633
892.043
893.727
895.701
897.973
900.543
903.4
906.526
909.898
913.484
917.247
921.148
925.145
929.193
933.249
937.273
941.225
945.069
948.775
952.317
955.674
958.833
961.784
964.526
967.062
969.402
971.56
973.554
975.406
977.14
978.782
980.355
981.883
983.388
984.884
986.385
987.897
989.422
990.955
992.488
994.005
995.492
996.927
998.291
999.564
1000.73
1001.76
1002.65
1003.38
1003.97
1004.42
1004.73
1004.91
1004.98
1004.96
1004.86
1004.69
1004.47
1004.22
1003.95
1003.67
1003.37
1003.07
1002.77
1002.45
1002.12
1001.75
1001.34
1000.86
1000.3
999.639
998.847
997.905
996.793
995.489
993.974
992.231
990.243
987.996
985.476
982.672
979.573
976.17
972.453
968.415
964.05
959.351
954.314
948.933
943.198
937.092
930.582
923.611
916.088
907.877
898.79
888.59
877.001
863.724
848.466
830.947
810.882
787.886
761.321
730.099
692.608
647.138
593.59
538.16
510.248
720.842
483.506
398.692
425.266
463.025
497.349
525.243
547.268
565.335
581.628
598.008
615.743
635.436
657.093
680.25
704.144
727.866
750.517
771.334
789.504
804.684
816.789
825.913
832.29
836.244
838.151
838.399
837.367
835.401
832.805
829.837
826.711
823.594
820.613
817.863
815.407
813.284
811.511
810.094
809.02
808.272
807.829
807.675
807.791
808.158
808.757
809.574
810.594
811.806
813.202
814.775
816.519
818.43
820.502
822.727
825.099
827.605
830.232
832.966
835.787
838.678
841.618
844.588
847.566
850.534
853.473
856.365
859.193
861.941
864.592
867.133
869.546
871.818
873.933
875.877
877.639
879.205
880.575
881.754
882.753
883.592
884.294
884.89
885.416
885.909
886.405
886.945
887.575
888.341
889.285
890.447
891.857
893.541
895.514
897.786
900.355
903.211
906.337
909.708
913.293
917.055
920.955
924.95
928.997
933.053
937.076
941.026
944.87
948.575
952.116
955.472
958.63
961.58
964.321
966.857
969.197
971.354
973.348
975.2
976.934
978.575
980.148
981.677
983.181
984.677
986.178
987.69
989.215
990.748
992.28
993.797
995.283
996.718
998.082
999.354
1000.52
1001.55
1002.44
1003.18
1003.76
1004.21
1004.52
1004.7
1004.77
1004.75
1004.65
1004.48
1004.27
1004.02
1003.74
1003.46
1003.17
1002.87
1002.56
1002.25
1001.91
1001.55
1001.14
1000.66
1000.1
999.434
998.642
997.701
996.588
995.285
993.77
992.028
990.04
987.793
985.274
982.471
979.373
975.971
972.255
968.218
963.853
959.155
954.119
948.739
943.006
936.901
930.392
923.423
915.901
907.691
898.605
888.407
876.818
863.542
848.285
830.769
810.705
787.713
761.152
729.934
692.447
646.982
593.443
538.028
510.141
720.941
567.197
458.988
479.864
511.143
535.928
551.395
558.928
561.411
561.919
563.042
566.577
573.486
583.985
597.719
613.944
631.709
650.015
667.945
684.746
699.559
712.086
722.212
729.982
735.562
739.2
741.184
741.818
741.396
740.192
738.446
736.366
734.123
731.854
729.665
727.636
725.822
724.258
722.964
721.945
721.195
720.711
720.483
720.502
720.752
721.219
721.891
722.754
723.798
725.012
726.389
727.921
729.603
731.428
733.389
735.48
737.692
740.014
742.436
744.943
747.521
750.154
752.826
755.519
758.215
760.897
763.55
766.155
768.697
771.161
773.533
775.797
777.94
779.949
781.812
783.518
785.056
786.418
787.608
788.633
789.504
790.239
790.86
791.392
791.864
792.303
792.742
793.221
793.777
794.448
795.268
796.268
797.477
798.914
800.594
802.524
804.704
807.129
809.784
812.649
815.7
818.907
822.237
825.654
829.122
832.603
836.061
839.464
842.779
845.979
849.042
851.95
854.689
857.252
859.637
861.847
863.888
865.774
867.52
869.143
870.665
872.106
873.487
874.827
876.143
877.449
878.755
880.066
881.384
882.705
884.023
885.326
886.6
887.83
888.999
890.09
891.087
891.973
892.739
893.38
893.896
894.291
894.57
894.744
894.823
894.819
894.746
894.618
894.447
894.243
894.017
893.775
893.521
893.257
892.981
892.688
892.37
892.017
891.616
891.151
890.605
889.962
889.201
888.305
887.255
886.033
884.623
883.01
881.178
879.116
876.813
874.26
871.45
868.377
865.041
861.442
857.585
853.478
849.135
844.569
839.792
834.813
829.63
824.223
818.554
812.566
806.184
799.338
791.974
784.065
775.592
766.473
756.406
744.632
729.676
709.262
680.793
643.2
601.953
587.704
828.345
567.113
459.087
479.979
511.241
535.995
551.425
558.923
561.376
561.862
562.969
566.493
573.393
583.885
597.613
613.831
631.588
649.887
667.81
684.604
699.411
711.934
722.057
729.826
735.405
739.042
741.027
741.661
741.24
740.036
738.291
736.212
733.969
731.7
729.511
727.482
725.668
724.104
722.81
721.79
721.041
720.556
720.329
720.346
720.596
721.063
721.735
722.598
723.641
724.855
726.231
727.763
729.444
731.269
733.23
735.32
737.531
739.853
742.274
744.78
747.358
749.99
752.661
755.353
758.049
760.731
763.382
765.987
768.528
770.992
773.363
775.627
777.769
779.778
781.641
783.346
784.884
786.246
787.435
788.46
789.331
790.066
790.687
791.219
791.691
792.13
792.57
793.049
793.605
794.275
795.095
796.096
797.304
798.741
800.42
802.35
804.53
806.954
809.608
812.473
815.524
818.73
822.059
825.475
828.941
832.421
835.879
839.28
842.594
845.794
848.856
851.763
854.502
857.064
859.449
861.658
863.699
865.584
867.33
868.953
870.475
871.915
873.296
874.636
875.952
877.258
878.564
879.875
881.193
882.514
883.832
885.134
886.408
887.638
888.807
889.898
890.894
891.78
892.546
893.187
893.703
894.098
894.378
894.551
894.63
894.627
894.555
894.427
894.255
894.052
893.826
893.584
893.331
893.067
892.791
892.498
892.181
891.828
891.427
890.962
890.417
889.773
889.013
888.117
887.068
885.846
884.437
882.823
880.992
878.931
876.629
874.076
871.266
868.195
864.859
861.261
857.405
853.3
848.957
844.392
839.616
834.638
829.456
824.05
818.383
812.395
806.014
799.17
791.806
783.898
775.426
766.31
756.245
744.473
729.52
709.106
680.635
643.044
601.806
587.58
828.456
638.368
511.13
527.306
552.416
567.752
570.848
564.036
551.23
536.399
522.804
512.679
507.236
506.81
511.083
519.302
530.478
543.55
557.524
571.608
584.777
596.5
606.475
614.585
620.855
625.41
628.442
630.173
630.839
630.667
629.869
628.633
627.12
625.466
623.779
622.146
620.63
619.278
618.12
617.174
616.445
615.941
615.659
615.59
615.728
616.06
616.575
617.262
618.111
619.111
620.254
621.532
622.939
624.469
626.117
627.877
629.743
631.708
633.764
635.902
638.111
640.379
642.691
645.035
647.394
649.753
652.097
654.411
656.679
658.889
661.026
663.079
665.035
666.884
668.614
670.217
671.685
673.003
674.171
675.189
676.064
676.804
677.423
677.938
678.367
678.732
679.062
679.385
679.732
680.136
680.627
681.236
681.99
682.913
684.024
685.338
686.863
688.601
690.549
692.697
695.031
697.529
700.168
702.92
705.755
708.642
711.548
714.443
717.297
720.083
722.777
725.358
727.811
730.122
732.286
734.3
736.164
737.886
739.475
740.943
742.307
743.583
744.789
745.942
747.06
748.157
749.245
750.334
751.43
752.533
753.642
754.752
755.853
756.935
757.983
758.983
759.922
760.785
761.555
762.225
762.79
763.25
763.606
763.863
764.029
764.113
764.125
764.078
763.982
763.847
763.683
763.498
763.297
763.083
762.859
762.623
762.37
762.095
761.789
761.442
761.04
760.57
760.018
759.366
758.6
757.703
756.66
755.457
754.082
752.523
750.771
748.82
746.666
744.308
741.751
739.003
736.08
733.002
729.8
726.51
723.175
719.846
716.58
713.437
710.487
707.817
705.539
703.813
702.857
702.944
704.349
707.229
711.395
715.993
719.163
717.903
708.547
688.694
662.533
660.927
922.008
638.276
511.238
527.429
552.519
567.819
570.874
564.025
551.19
536.341
522.733
512.601
507.153
506.725
510.995
519.21
530.381
543.447
557.416
571.494
584.658
596.377
606.348
614.456
620.724
625.279
628.311
630.042
630.708
630.537
629.739
628.504
626.992
625.338
623.652
622.018
620.503
619.151
617.993
617.047
616.318
615.814
615.531
615.462
615.6
615.931
616.446
617.133
617.981
618.981
620.124
621.401
622.808
624.338
625.985
627.744
629.61
631.574
633.63
635.767
637.976
640.243
642.555
644.898
647.256
649.615
651.958
654.271
656.539
658.748
660.885
662.937
664.893
666.741
668.471
670.073
671.541
672.859
674.026
675.045
675.919
676.66
677.279
677.793
678.222
678.587
678.917
679.24
679.588
679.992
680.483
681.092
681.846
682.769
683.88
685.194
686.719
688.456
690.404
692.552
694.884
697.382
700.021
702.772
705.606
708.492
711.398
714.292
717.145
719.93
722.623
725.204
727.656
729.967
732.13
734.143
736.008
737.729
739.318
740.786
742.149
743.425
744.631
745.785
746.902
747.999
749.088
750.176
751.272
752.375
753.484
754.593
755.695
756.776
757.824
758.824
759.762
760.625
761.395
762.065
762.631
763.09
763.446
763.704
763.87
763.954
763.967
763.919
763.823
763.689
763.525
763.34
763.139
762.926
762.702
762.466
762.214
761.939
761.633
761.286
760.884
760.415
759.862
759.211
758.445
757.548
756.506
755.303
753.929
752.37
750.619
748.668
746.514
744.157
741.6
738.853
735.931
732.854
729.653
726.363
723.029
719.701
716.436
713.293
710.345
707.675
705.398
703.673
702.718
702.806
704.212
707.094
711.262
715.86
719.029
717.764
708.399
688.538
662.377
660.79
922.128
698.173
555.875
568.242
587.693
594.163
585.673
565.538
538.683
509.92
483.096
460.787
444.347
434.135
429.796
430.525
435.28
442.952
452.491
462.992
473.71
483.717
492.609
500.155
506.271
510.981
514.387
516.638
517.905
518.367
518.197
517.556
516.586
515.409
514.129
512.831
511.579
510.425
509.405
508.544
507.856
507.353
507.036
506.9
506.94
507.147
507.512
508.025
508.677
509.457
510.358
511.373
512.496
513.722
515.047
516.466
517.978
519.577
521.258
523.016
524.841
526.727
528.66
530.631
532.625
534.63
536.631
538.617
540.573
542.489
544.353
546.154
547.883
549.53
551.086
552.544
553.9
555.135
556.241
557.216
558.059
558.772
559.36
559.833
560.204
560.488
560.711
560.893
561.059
561.235
561.45
561.73
562.103
562.594
563.226
564.016
564.98
566.126
567.457
568.972
570.663
572.519
574.522
576.653
578.886
581.196
583.556
585.938
588.316
590.663
592.956
595.173
597.297
599.313
601.211
602.984
604.629
606.148
607.545
608.829
610.011
611.104
612.124
613.086
614.006
614.899
615.778
616.656
617.541
618.437
619.348
620.271
621.201
622.13
623.048
623.943
624.802
625.616
626.361
627.029
627.611
628.102
628.502
628.813
629.038
629.185
629.262
629.278
629.243
629.168
629.06
628.928
628.779
628.618
628.449
628.273
628.091
627.898
627.692
627.464
627.206
626.908
626.557
626.142
625.648
625.062
624.37
623.561
622.624
621.549
620.33
618.963
617.448
615.789
613.995
612.082
610.073
608.001
605.91
603.855
601.911
600.167
598.737
597.764
597.426
597.957
599.661
602.932
608.268
616.252
627.472
642.352
660.859
682.096
703.862
722.429
732.974
731.542
720.653
730.479
1003.84
698.074
555.99
568.373
587.8
594.229
585.697
565.525
538.643
509.863
483.03
460.718
444.278
434.067
429.728
430.455
435.208
442.877
452.411
462.908
473.621
483.624
492.513
500.057
506.171
510.88
514.286
516.537
517.805
518.267
518.098
517.458
516.488
515.312
514.033
512.734
511.483
510.329
509.31
508.448
507.76
507.258
506.94
506.804
506.843
507.05
507.415
507.928
508.579
509.359
510.26
511.275
512.397
513.623
514.947
516.366
517.877
519.476
521.157
522.914
524.739
526.624
528.557
530.527
532.52
534.525
536.526
538.511
540.467
542.382
544.246
546.046
547.775
549.421
550.977
552.435
553.791
555.025
556.132
557.106
557.949
558.661
559.249
559.722
560.093
560.378
560.601
560.783
560.949
561.126
561.34
561.62
561.993
562.485
563.117
563.907
564.871
566.016
567.347
568.862
570.553
572.409
574.412
576.541
578.774
581.084
583.443
585.825
588.202
590.548
592.84
595.057
597.18
599.196
601.093
602.866
604.511
606.029
607.426
608.71
609.892
610.985
612.005
612.967
613.886
614.779
615.659
616.537
617.422
618.318
619.229
620.152
621.082
622.011
622.929
623.823
624.682
625.496
626.241
626.909
627.49
627.982
628.382
628.692
628.918
629.065
629.142
629.158
629.124
629.048
628.94
628.809
628.66
628.499
628.33
628.155
627.973
627.78
627.574
627.346
627.089
626.791
626.44
626.025
625.531
624.945
624.254
623.445
622.508
621.434
620.215
618.848
617.334
615.675
613.882
611.969
609.961
607.889
605.798
603.744
601.8
600.057
598.628
597.655
597.319
597.85
599.554
602.826
608.163
616.149
627.37
642.252
660.76
681.996
703.757
722.314
732.843
731.393
720.493
730.33
1003.97
747.802
593.912
603.328
617.836
616.399
597.593
565.683
526.54
485.735
447.616
415.013
389.344
370.915
359.275
353.522
352.549
355.204
360.408
367.226
374.929
382.672
389.88
396.241
401.591
405.877
409.128
411.426
412.885
413.633
413.805
413.527
412.917
412.081
411.109
410.077
409.048
408.072
407.185
406.416
405.783
405.301
404.97
404.788
404.752
404.854
405.088
405.445
405.917
406.495
407.172
407.942
408.8
409.742
410.766
411.871
413.053
414.31
415.641
417.041
418.504
420.025
421.593
423.2
424.835
426.488
428.145
429.798
431.434
433.045
434.621
436.154
437.636
439.059
440.416
441.701
442.906
444.025
445.037
445.934
446.711
447.366
447.898
448.312
448.616
448.822
448.951
449.019
449.045
449.05
449.058
449.094
449.185
449.354
449.626
450.02
450.553
451.239
452.084
453.093
454.263
455.588
457.057
458.654
460.363
462.16
464.025
465.933
467.86
469.783
471.68
473.53
475.316
477.022
478.635
480.147
481.553
482.849
484.039
485.126
486.119
487.028
487.865
488.645
489.382
490.091
490.784
491.476
492.175
492.889
493.623
494.376
495.147
495.93
496.716
497.496
498.26
498.999
499.692
500.325
500.89
501.379
501.789
502.119
502.374
502.556
502.672
502.731
502.74
502.708
502.645
502.558
502.454
502.341
502.223
502.104
501.987
501.87
501.753
501.631
501.499
501.35
501.173
500.959
500.698
500.377
499.986
499.515
498.956
498.302
497.549
496.696
495.746
494.708
493.595
492.427
491.235
490.059
488.956
487.999
487.287
486.948
487.149
488.108
490.11
493.524
498.837
506.668
517.783
533.067
553.424
579.569
611.667
648.834
688.593
726.521
756.609
773.227
776.961
796.572
1075.36
747.697
594.032
603.463
617.946
616.467
597.616
565.669
526.501
485.682
447.557
414.954
389.288
370.863
359.225
353.473
352.499
355.152
360.352
367.168
374.867
382.607
389.812
396.171
401.52
405.805
409.056
411.355
412.814
413.563
413.735
413.458
412.849
412.013
411.041
410.01
408.982
408.005
407.119
406.35
405.717
405.235
404.904
404.722
404.686
404.788
405.022
405.378
405.85
406.427
407.104
407.874
408.731
409.673
410.697
411.801
412.983
414.24
415.571
416.97
418.433
419.953
421.521
423.128
424.763
426.414
428.072
429.724
431.36
432.971
434.546
436.079
437.561
438.983
440.34
441.624
442.829
443.948
444.96
445.856
446.634
447.288
447.82
448.234
448.538
448.744
448.874
448.942
448.968
448.973
448.981
449.018
449.108
449.278
449.55
449.944
450.478
451.163
452.009
453.017
454.187
455.512
456.981
458.578
460.286
462.083
463.947
465.855
467.781
469.704
471.6
473.45
475.235
476.94
478.553
480.065
481.47
482.767
483.956
485.043
486.036
486.945
487.783
488.562
489.299
490.008
490.702
491.393
492.093
492.807
493.54
494.294
495.065
495.847
496.633
497.413
498.177
498.916
499.609
500.242
500.806
501.295
501.705
502.036
502.29
502.472
502.589
502.648
502.657
502.626
502.562
502.475
502.372
502.259
502.141
502.023
501.905
501.789
501.672
501.55
501.418
501.269
501.092
500.879
500.617
500.296
499.905
499.435
498.876
498.222
497.469
496.616
495.667
494.629
493.516
492.349
491.157
489.981
488.878
487.922
487.211
486.872
487.074
488.033
490.035
493.45
498.764
506.596
517.712
532.998
553.357
579.504
611.603
648.768
688.519
726.432
756.496
773.086
776.799
796.414
1075.49
788.497
625.863
633.091
643.471
635.284
607.665
565.756
516.275
465.452
418.049
377.088
343.998
318.99
301.479
290.443
284.691
283.028
284.354
287.727
292.375
297.691
302.961
307.825
312.067
315.578
318.334
320.36
321.721
322.501
322.795
322.697
322.3
321.688
320.936
320.11
319.263
318.441
317.679
317.004
316.437
315.99
315.664
315.458
315.368
315.391
315.521
315.749
316.07
316.476
316.962
317.522
318.154
318.853
319.62
320.453
321.352
322.315
323.341
324.428
325.572
326.768
328.009
329.287
330.593
331.92
333.257
334.597
335.93
337.248
338.546
339.815
341.051
342.247
343.396
344.492
345.53
346.505
347.395
348.188
348.874
349.449
349.908
350.253
350.488
350.624
350.68
350.665
350.594
350.486
350.36
350.239
350.147
350.106
350.138
350.264
350.501
350.863
351.36
351.997
352.777
353.696
354.748
355.921
357.201
358.573
360.017
361.514
363.042
364.583
366.116
367.622
369.085
370.49
371.824
373.077