/*--------------------------------*- C++ -*----------------------------------*\
  =========                 |
  \\      /  F ield         | OpenFOAM: The Open Source CFD Toolbox
   \\    /   O peration     | Website:  https://openfoam.org
    \\  /    A nd           | Version:  8
     \\/     M anipulation  |
\*---------------------------------------------------------------------------*/
FoamFile
{
    version     2.0;
    format      ascii;
    class       volScalarField;
    location    "200";
    object      k;
}
// * * * * * * * * * * * * * * * * * * * * * * * * * * * * * * * * * * * * * //

dimensions      [0 2 -2 0 0 0 0];

internalField   nonuniform List<scalar> 
46000
(
0.0489672
0.147612
0.264298
0.357493
0.437849
0.508013
0.569557
0.623693
0.671407
0.713489
0.750557
0.783081
0.81141
0.8358
0.85645
0.87357
0.887818
0.89976
0.908985
0.915425
0.919231
0.920698
0.920203
0.918155
0.914962
0.911002
0.906608
0.902058
0.897572
0.893317
0.88941
0.885928
0.882912
0.880378
0.87832
0.876719
0.875543
0.874756
0.874317
0.87419
0.874367
0.874796
0.875425
0.876223
0.87717
0.878257
0.879484
0.880854
0.882373
0.88405
0.88589
0.887899
0.890077
0.892419
0.894917
0.897557
0.90032
0.903184
0.906126
0.909122
0.912147
0.915181
0.918202
0.921196
0.924146
0.927041
0.929869
0.932618
0.935276
0.93783
0.940264
0.942564
0.944714
0.946699
0.948512
0.950162
0.951641
0.952942
0.954072
0.955046
0.955892
0.956643
0.957343
0.958041
0.958794
0.959689
0.960785
0.962112
0.963699
0.965568
0.967734
0.970201
0.972967
0.976015
0.979323
0.982861
0.986592
0.990477
0.994473
0.998539
1.00263
1.00671
1.01074
1.01469
1.01854
1.02225
1.0258
1.02919
1.03241
1.03545
1.03831
1.04099
1.04351
1.04587
1.04809
1.0502
1.05221
1.05415
1.05603
1.05787
1.0597
1.06154
1.06338
1.06524
1.06712
1.069
1.07089
1.07275
1.07458
1.07634
1.07802
1.07959
1.08103
1.08233
1.08348
1.08446
1.08531
1.08601
1.08657
1.08698
1.08726
1.08743
1.08749
1.08748
1.0874
1.08728
1.08713
1.08697
1.08679
1.08661
1.08644
1.08626
1.08609
1.08589
1.08568
1.08542
1.0851
1.0847
1.0842
1.08357
1.08278
1.08181
1.08065
1.07926
1.07764
1.07576
1.07361
1.07118
1.06846
1.06545
1.06212
1.05847
1.0545
1.05018
1.0455
1.04044
1.03498
1.02908
1.02271
1.01579
1.00825
0.999964
0.990745
0.98034
0.968401
0.954461
0.937926
0.918063
0.894014
0.86481
0.829407
0.786708
0.735585
0.674857
0.603248
0.519364
0.421834
0.309675
0.181018
0.0716983
0.0489667
0.147529
0.26424
0.357462
0.437837
0.508012
0.569562
0.623702
0.671419
0.713504
0.750575
0.783104
0.811438
0.835835
0.856491
0.873617
0.887872
0.89982
0.909051
0.915495
0.919304
0.920775
0.920282
0.918235
0.915044
0.911084
0.906691
0.902141
0.897655
0.8934
0.889493
0.886011
0.882995
0.88046
0.878403
0.876801
0.875625
0.874838
0.874399
0.874272
0.874449
0.874878
0.875508
0.876305
0.877252
0.87834
0.879567
0.880937
0.882457
0.884133
0.885974
0.887983
0.890161
0.892503
0.895002
0.897641
0.900404
0.903269
0.906211
0.909207
0.912232
0.915266
0.918288
0.921281
0.924232
0.927127
0.929955
0.932704
0.935362
0.937916
0.940351
0.942651
0.9448
0.946785
0.948598
0.950248
0.951727
0.953029
0.954158
0.955133
0.955978
0.956729
0.957429
0.958127
0.958879
0.959775
0.960871
0.962197
0.963784
0.965653
0.967819
0.970287
0.973052
0.976101
0.979409
0.982947
0.986678
0.990563
0.99456
0.998625
1.00272
1.0068
1.01083
1.01478
1.01862
1.02233
1.02589
1.02928
1.0325
1.03554
1.0384
1.04108
1.0436
1.04596
1.04818
1.05029
1.0523
1.05424
1.05612
1.05796
1.05979
1.06163
1.06347
1.06533
1.06721
1.06909
1.07098
1.07284
1.07467
1.07643
1.07811
1.07968
1.08112
1.08242
1.08357
1.08455
1.0854
1.0861
1.08665
1.08707
1.08735
1.08752
1.08758
1.08757
1.08749
1.08737
1.08722
1.08705
1.08688
1.0867
1.08653
1.08635
1.08617
1.08598
1.08577
1.08551
1.08519
1.08479
1.08429
1.08365
1.08287
1.0819
1.08074
1.07935
1.07772
1.07584
1.07369
1.07127
1.06855
1.06553
1.0622
1.05856
1.05458
1.05026
1.04558
1.04053
1.03506
1.02917
1.02279
1.01587
1.00834
1.00005
0.990827
0.980422
0.968482
0.954542
0.938006
0.918143
0.894093
0.864888
0.829483
0.786782
0.735656
0.674924
0.60331
0.519423
0.421891
0.309734
0.181077
0.071742
0.118551
0.327778
0.491643
0.631378
0.752059
0.856786
0.948235
1.02863
1.09969
1.16265
1.21835
1.26728
1.30974
1.34592
1.37595
1.39999
1.41813
1.4312
1.43971
1.44425
1.44545
1.44397
1.44046
1.4355
1.42962
1.42328
1.41682
1.41053
1.40461
1.39922
1.39442
1.39027
1.38679
1.38395
1.38173
1.38009
1.37897
1.37831
1.37806
1.37816
1.37858
1.37925
1.38014
1.38124
1.38252
1.38398
1.38561
1.38742
1.38943
1.39163
1.39403
1.39664
1.39946
1.40248
1.40569
1.40906
1.41258
1.41621
1.41993
1.4237
1.42749
1.43127
1.43503
1.43873
1.44236
1.4459
1.44934
1.45266
1.45585
1.4589
1.46178
1.46447
1.46696
1.46924
1.47128
1.47308
1.47464
1.47598
1.4771
1.47804
1.47885
1.47959
1.48031
1.48109
1.48198
1.48306
1.48439
1.48602
1.48799
1.49033
1.49306
1.49618
1.4997
1.50358
1.50781
1.51232
1.51708
1.52204
1.52712
1.53228
1.53746
1.5426
1.54766
1.5526
1.55737
1.56194
1.5663
1.57042
1.57429
1.57792
1.5813
1.58444
1.58736
1.59008
1.59262
1.59502
1.59728
1.59946
1.60158
1.60367
1.60575
1.60785
1.60997
1.61212
1.61431
1.61651
1.61873
1.62092
1.62307
1.62515
1.62711
1.62895
1.63062
1.6321
1.63339
1.63447
1.63535
1.63603
1.63651
1.63682
1.63697
1.63701
1.63694
1.63679
1.6366
1.63637
1.63612
1.63588
1.63563
1.6354
1.63518
1.63496
1.63473
1.63449
1.6342
1.63385
1.63341
1.63286
1.63215
1.63126
1.63015
1.62881
1.6272
1.6253
1.62309
1.62055
1.61767
1.61443
1.61084
1.60686
1.60251
1.59775
1.59257
1.58696
1.58089
1.57433
1.56725
1.5596
1.55131
1.54229
1.53241
1.52147
1.50919
1.49517
1.47888
1.45963
1.43654
1.40857
1.37454
1.33322
1.28331
1.22361
1.15295
1.0702
0.974104
0.863145
0.735659
0.590569
0.425584
0.20601
0.118554
0.327756
0.491615
0.63135
0.752033
0.856766
0.948221
1.02862
1.09969
1.16267
1.21837
1.26731
1.30978
1.34597
1.37601
1.40006
1.4182
1.43128
1.4398
1.44434
1.44554
1.44407
1.44055
1.4356
1.42972
1.42338
1.41692
1.41063
1.40471
1.39931
1.39452
1.39037
1.38689
1.38405
1.38183
1.38019
1.37906
1.3784
1.37816
1.37826
1.37867
1.37935
1.38024
1.38134
1.38262
1.38407
1.38571
1.38752
1.38953
1.39173
1.39413
1.39674
1.39956
1.40258
1.40579
1.40916
1.41268
1.41631
1.42003
1.4238
1.42759
1.43137
1.43513
1.43883
1.44246
1.446
1.44944
1.45276
1.45595
1.459
1.46188
1.46457
1.46707
1.46934
1.47138
1.47318
1.47475
1.47608
1.4772
1.47814
1.47896
1.47969
1.48041
1.48119
1.48208
1.48316
1.48449
1.48612
1.48809
1.49043
1.49316
1.49628
1.4998
1.50368
1.50791
1.51242
1.51719
1.52214
1.52722
1.53238
1.53756
1.54271
1.54777
1.5527
1.55747
1.56205
1.5664
1.57052
1.5744
1.57803
1.58141
1.58455
1.58747
1.59019
1.59273
1.59512
1.59739
1.59957
1.60169
1.60378
1.60586
1.60795
1.61007
1.61223
1.61441
1.61662
1.61883
1.62103
1.62318
1.62525
1.62722
1.62905
1.63072
1.63221
1.6335
1.63458
1.63546
1.63613
1.63661
1.63692
1.63708
1.63711
1.63704
1.6369
1.6367
1.63647
1.63623
1.63598
1.63574
1.63551
1.63528
1.63506
1.63484
1.63459
1.63431
1.63396
1.63352
1.63296
1.63225
1.63136
1.63026
1.62891
1.6273
1.6254
1.62319
1.62065
1.61777
1.61454
1.61094
1.60697
1.60261
1.59785
1.59267
1.58706
1.58099
1.57443
1.56735
1.5597
1.55141
1.54239
1.53251
1.52157
1.50928
1.49527
1.47898
1.45972
1.43663
1.40866
1.37464
1.33331
1.2834
1.2237
1.15304
1.07029
0.974188
0.863223
0.735727
0.590623
0.425626
0.206076
0.214725
0.460706
0.652055
0.813146
0.95097
1.06902
1.17042
1.25815
1.33482
1.40244
1.46244
1.51569
1.56267
1.60354
1.63837
1.66712
1.6898
1.70648
1.71795
1.72488
1.72798
1.72798
1.72558
1.72143
1.71612
1.71013
1.70386
1.69764
1.69169
1.6862
1.68126
1.67695
1.67329
1.67028
1.66791
1.66613
1.6649
1.66417
1.66387
1.66395
1.66436
1.66506
1.66602
1.66721
1.66864
1.67027
1.67213
1.6742
1.67649
1.67902
1.68177
1.68476
1.68798
1.69142
1.69507
1.6989
1.70289
1.707
1.71122
1.71549
1.71979
1.72409
1.72836
1.73257
1.73671
1.74075
1.74468
1.74847
1.75212
1.75559
1.75888
1.76195
1.76478
1.76737
1.76968
1.77172
1.77347
1.77497
1.77623
1.7773
1.77823
1.77907
1.7799
1.78079
1.78179
1.78298
1.78442
1.78615
1.78824
1.79071
1.7936
1.79692
1.80066
1.8048
1.80931
1.81416
1.81929
1.82465
1.83017
1.8358
1.84148
1.84714
1.85274
1.85822
1.86354
1.86866
1.87356
1.87821
1.8826
1.88672
1.89056
1.89414
1.89747
1.90057
1.90346
1.90617
1.90874
1.91119
1.91356
1.91589
1.91819
1.92049
1.92281
1.92516
1.92753
1.92993
1.93232
1.9347
1.93703
1.93929
1.94143
1.94344
1.94528
1.94692
1.94836
1.94957
1.95055
1.95131
1.95186
1.95222
1.95242
1.95248
1.95243
1.95229
1.9521
1.95187
1.95161
1.95135
1.95109
1.95083
1.95058
1.95032
1.95006
1.94976
1.94942
1.94899
1.94847
1.9478
1.94697
1.94593
1.94465
1.94311
1.94127
1.93911
1.93661
1.93375
1.93052
1.92689
1.92287
1.91843
1.91356
1.90825
1.90249
1.89624
1.8895
1.88224
1.87441
1.86599
1.8569
1.84706
1.83632
1.82448
1.81123
1.79616
1.77866
1.758
1.73323
1.70325
1.66684
1.62268
1.56947
1.5059
1.43063
1.34215
1.23859
1.11759
0.976527
0.812779
0.61896
0.344042
0.214677
0.460664
0.652027
0.813126
0.950956
1.06901
1.17042
1.25816
1.33483
1.40246
1.46246
1.51573
1.56271
1.6036
1.63843
1.66719
1.68988
1.70657
1.71804
1.72498
1.72808
1.72808
1.72568
1.72153
1.71622
1.71023
1.70396
1.69774
1.6918
1.6863
1.68136
1.67705
1.67339
1.67038
1.66801
1.66623
1.665
1.66427
1.66397
1.66405
1.66446
1.66516
1.66612
1.66731
1.66874
1.67038
1.67223
1.6743
1.6766
1.67912
1.68187
1.68486
1.68808
1.69152
1.69517
1.699
1.70299
1.70711
1.71132
1.71559
1.71989
1.72419
1.72846
1.73267
1.73681
1.74085
1.74478
1.74858
1.75222
1.7557
1.75898
1.76205
1.76489
1.76747
1.76979
1.77182
1.77358
1.77507
1.77634
1.77741
1.77833
1.77918
1.78001
1.78089
1.7819
1.78309
1.78452
1.78625
1.78834
1.79082
1.79371
1.79702
1.80076
1.8049
1.80942
1.81426
1.81939
1.82475
1.83027
1.83591
1.84158
1.84725
1.85285
1.85833
1.86365
1.86877
1.87367
1.87832
1.88271
1.88683
1.89067
1.89425
1.89758
1.90068
1.90357
1.90628
1.90885
1.9113
1.91367
1.916
1.9183
1.9206
1.92292
1.92527
1.92764
1.93004
1.93243
1.93481
1.93714
1.9394
1.94154
1.94355
1.94539
1.94703
1.94847
1.94968
1.95066
1.95142
1.95197
1.95233
1.95253
1.95259
1.95254
1.9524
1.95221
1.95198
1.95172
1.95146
1.9512
1.95094
1.95069
1.95043
1.95017
1.94987
1.94952
1.9491
1.94857
1.94791
1.94707
1.94604
1.94476
1.94322
1.94138
1.93922
1.93672
1.93386
1.93062
1.927
1.92297
1.91853
1.91367
1.90836
1.90259
1.89635
1.88961
1.88234
1.87452
1.86609
1.857
1.84716
1.83642
1.82458
1.81133
1.79626
1.77876
1.7581
1.73333
1.70335
1.66694
1.62278
1.56957
1.506
1.43072
1.34224
1.23868
1.11768
0.976611
0.812853
0.619019
0.344109
0.300263
0.57908
0.788892
0.960081
1.10213
1.21982
1.31737
1.39893
1.46829
1.52854
1.58193
1.62991
1.67324
1.71218
1.74664
1.77642
1.80123
1.82083
1.83546
1.84563
1.85193
1.85495
1.85533
1.85366
1.8505
1.84632
1.84155
1.83652
1.8315
1.82669
1.82225
1.81826
1.81479
1.81188
1.80951
1.80769
1.80638
1.80554
1.80513
1.80509
1.80539
1.806
1.80689
1.80806
1.80948
1.81115
1.81306
1.81523
1.81764
1.82029
1.8232
1.82635
1.82974
1.83336
1.8372
1.84123
1.84542
1.84975
1.85418
1.85869
1.86324
1.8678
1.87234
1.87684
1.88127
1.88561
1.88985
1.89395
1.89789
1.90166
1.90523
1.90858
1.91168
1.91451
1.91706
1.91931
1.92127
1.92296
1.9244
1.92563
1.92671
1.92769
1.92863
1.9296
1.93067
1.93187
1.93327
1.93494
1.93693
1.93927
1.942
1.94514
1.94868
1.95262
1.95694
1.9616
1.96657
1.9718
1.97723
1.98281
1.98848
1.99418
1.99986
2.00547
2.01097
2.0163
2.02144
2.02635
2.03102
2.03544
2.03959
2.04347
2.0471
2.05048
2.05365
2.05662
2.05942
2.06208
2.06463
2.06711
2.06955
2.07196
2.07437
2.07679
2.07922
2.08165
2.08409
2.0865
2.08887
2.09117
2.09338
2.09545
2.09737
2.09912
2.10066
2.102
2.1031
2.10398
2.10466
2.10514
2.10546
2.10563
2.10568
2.10564
2.10552
2.10536
2.10515
2.10493
2.10469
2.10445
2.10419
2.10393
2.10365
2.10333
2.10295
2.10249
2.10192
2.10121
2.10033
2.09924
2.09792
2.09633
2.09445
2.09225
2.0897
2.0868
2.08352
2.07985
2.07577
2.07127
2.06634
2.06096
2.05513
2.04882
2.04203
2.03474
2.02693
2.01857
2.00963
2.00004
1.98969
1.9784
1.96591
1.95182
1.93561
1.91658
1.89387
1.86648
1.8333
1.79313
1.74471
1.68665
1.61731
1.53455
1.43546
1.31627
1.17254
0.99884
0.781863
0.455912
0.300204
0.57903
0.788862
0.960062
1.10212
1.21981
1.31737
1.39894
1.4683
1.52855
1.58195
1.62994
1.67328
1.71222
1.7467
1.77648
1.8013
1.8209
1.83554
1.84572
1.85201
1.85504
1.85542
1.85376
1.85059
1.84642
1.84165
1.83662
1.8316
1.82679
1.82234
1.81835
1.81489
1.81197
1.80961
1.80778
1.80647
1.80563
1.80522
1.80519
1.80548
1.80609
1.80698
1.80815
1.80957
1.81124
1.81316
1.81532
1.81773
1.82039
1.82329
1.82644
1.82984
1.83346
1.83729
1.84132
1.84551
1.84984
1.85427
1.85878
1.86333
1.86789
1.87243
1.87693
1.88137
1.88571
1.88994
1.89404
1.89799
1.90176
1.90533
1.90867
1.91177
1.91461
1.91716
1.91941
1.92137
1.92306
1.92449
1.92573
1.9268
1.92778
1.92873
1.9297
1.93076
1.93196
1.93337
1.93504
1.93702
1.93937
1.9421
1.94523
1.94878
1.95272
1.95704
1.9617
1.96667
1.9719
1.97733
1.98291
1.98858
1.99428
1.99996
2.00557
2.01107
2.0164
2.02154
2.02645
2.03113
2.03554
2.03969
2.04357
2.0472
2.05059
2.05375
2.05672
2.05952
2.06218
2.06474
2.06722
2.06965
2.07207
2.07447
2.07689
2.07932
2.08176
2.08419
2.0866
2.08897
2.09128
2.09348
2.09555
2.09748
2.09922
2.10077
2.1021
2.1032
2.10408
2.10476
2.10524
2.10556
2.10573
2.10578
2.10574
2.10563
2.10546
2.10525
2.10503
2.10479
2.10455
2.1043
2.10403
2.10375
2.10343
2.10305
2.10259
2.10202
2.10131
2.10043
2.09934
2.09802
2.09643
2.09455
2.09235
2.0898
2.0869
2.08362
2.07995
2.07587
2.07137
2.06644
2.06106
2.05522
2.04892
2.04212
2.03483
2.02702
2.01866
2.00972
2.00013
1.98978
1.97849
1.966
1.95191
1.9357
1.91667
1.89396
1.86658
1.83339
1.79322
1.7448
1.68674
1.6174
1.53463
1.43555
1.31636
1.17262
0.998921
0.781938
0.455981
0.375889
0.683807
0.907243
1.08233
1.22091
1.32952
1.414
1.48009
1.53307
1.57731
1.61609
1.65153
1.68478
1.7162
1.74565
1.77267
1.7967
1.81723
1.83384
1.84667
1.85599
1.86218
1.86568
1.86696
1.86649
1.86469
1.86196
1.85863
1.855
1.85129
1.84767
1.84429
1.84124
1.83857
1.83633
1.83452
1.83315
1.8322
1.83164
1.83143
1.83155
1.83199
1.83273
1.83376
1.83507
1.83665
1.8385
1.84061
1.84298
1.8456
1.84848
1.85161
1.85497
1.85857
1.86237
1.86637
1.87053
1.87484
1.87927
1.88378
1.88835
1.89295
1.89756
1.90214
1.90667
1.91113
1.9155
1.91974
1.92383
1.92776
1.93149
1.93501
1.93829
1.9413
1.94404
1.94647
1.94862
1.95049
1.95211
1.95351
1.95474
1.95585
1.95689
1.95791
1.95896
1.96009
1.96136
1.96282
1.96454
1.96654
1.96887
1.97155
1.97459
1.978
1.98177
1.98588
1.99031
1.99501
1.99995
2.00509
2.01037
2.01575
2.02116
2.02657
2.03193
2.03719
2.04231
2.04726
2.052
2.05653
2.06082
2.06487
2.06868
2.07224
2.07559
2.07872
2.08167
2.08446
2.08712
2.08968
2.09216
2.09459
2.09698
2.09936
2.10174
2.1041
2.10646
2.10879
2.11109
2.11334
2.11551
2.11757
2.11951
2.12131
2.12293
2.12437
2.1256
2.12662
2.12745
2.1281
2.12859
2.12892
2.12913
2.12923
2.12924
2.12918
2.12907
2.12892
2.12874
2.12853
2.12831
2.12806
2.12779
2.12747
2.12709
2.12663
2.12607
2.12538
2.12453
2.1235
2.12225
2.12076
2.11899
2.11694
2.11456
2.11185
2.10879
2.10535
2.10153
2.09732
2.09269
2.08765
2.08219
2.0763
2.06999
2.06325
2.05609
2.04853
2.04054
2.03212
2.0232
2.01368
2.00338
1.992
1.97915
1.96429
1.94677
1.92581
1.90053
1.86997
1.83298
1.7881
1.73326
1.66544
1.58032
1.47217
1.33393
1.15656
0.921046
0.551849
0.375826
0.683751
0.90721
1.08231
1.2209
1.32952
1.414
1.4801
1.53308
1.57733
1.61611
1.65156
1.68482
1.71625
1.7457
1.77272
1.79676
1.8173
1.83391
1.84674
1.85606
1.86226
1.86576
1.86704
1.86657
1.86477
1.86204
1.85872
1.85508
1.85137
1.84775
1.84437
1.84132
1.83865
1.83641
1.8346
1.83323
1.83228
1.83171
1.83151
1.83163
1.83207
1.83281
1.83384
1.83515
1.83673
1.83858
1.84069
1.84306
1.84569
1.84856
1.85169
1.85506
1.85865
1.86245
1.86645
1.87062
1.87492
1.87935
1.88386
1.88844
1.89304
1.89764
1.90223
1.90676
1.91122
1.91558
1.91982
1.92392
1.92785
1.93158
1.9351
1.93837
1.94139
1.94412
1.94656
1.94871
1.95058
1.9522
1.9536
1.95483
1.95593
1.95697
1.95799
1.95904
1.96018
1.96144
1.96291
1.96462
1.96662
1.96895
1.97163
1.97467
1.97808
1.98185
1.98597
1.99039
1.9951
2.00004
2.00518
2.01046
2.01583
2.02125
2.02666
2.03202
2.03728
2.0424
2.04735
2.05209
2.05662
2.06091
2.06496
2.06877
2.07234
2.07568
2.07881
2.08176
2.08455
2.08721
2.08977
2.09225
2.09468
2.09707
2.09945
2.10183
2.10419
2.10655
2.10888
2.11118
2.11343
2.1156
2.11766
2.1196
2.1214
2.12302
2.12446
2.12569
2.12671
2.12754
2.12819
2.12868
2.12901
2.12922
2.12932
2.12933
2.12927
2.12916
2.12901
2.12882
2.12862
2.1284
2.12815
2.12787
2.12755
2.12718
2.12672
2.12616
2.12547
2.12462
2.12359
2.12234
2.12084
2.11908
2.11702
2.11465
2.11194
2.10887
2.10544
2.10162
2.0974
2.09278
2.08774
2.08228
2.07639
2.07007
2.06333
2.05618
2.04861
2.04062
2.0322
2.02328
2.01376
2.00346
1.99208
1.97923
1.96437
1.94685
1.92589
1.90061
1.87005
1.83307
1.78818
1.73334
1.66552
1.5804
1.47225
1.33401
1.15664
0.92113
0.551924
0.441282
0.774938
1.00858
1.18376
1.3144
1.40886
1.47487
1.51996
1.55108
1.57403
1.59313
1.61128
1.63001
1.64986
1.67061
1.69159
1.71197
1.73091
1.74771
1.76177
1.77303
1.7816
1.78766
1.79152
1.7935
1.79396
1.79323
1.79164
1.78945
1.78691
1.78421
1.78151
1.77893
1.77657
1.77449
1.77273
1.77131
1.77024
1.76951
1.7691
1.76901
1.76923
1.76976
1.77059
1.77171
1.77311
1.77478
1.77673
1.77893
1.78139
1.7841
1.78704
1.79022
1.79361
1.79721
1.801
1.80496
1.80907
1.8133
1.81764
1.82205
1.82651
1.83101
1.8355
1.83996
1.84437
1.84871
1.85294
1.85705
1.861
1.86478
1.86836
1.87172
1.87483
1.87769
1.88027
1.88257
1.8846
1.88637
1.88792
1.88928
1.89049
1.89158
1.8926
1.89358
1.89457
1.89562
1.89679
1.89811
1.89965
1.90143
1.90349
1.90585
1.90854
1.91155
1.91489
1.91854
1.92249
1.92671
1.93116
1.93581
1.94061
1.94553
1.95051
1.95551
1.96048
1.96539
1.97018
1.97484
1.97932
1.98361
1.98769
1.99155
1.99518
1.9986
2.00181
2.00482
2.00765
2.01033
2.01288
2.01533
2.01769
2.02
2.02226
2.02449
2.02671
2.0289
2.03108
2.03324
2.03536
2.03742
2.03942
2.04133
2.04313
2.0448
2.04632
2.04767
2.04884
2.04983
2.05066
2.05132
2.05183
2.05221
2.05247
2.05263
2.0527
2.0527
2.05264
2.05254
2.05239
2.05221
2.052
2.05176
2.05147
2.05112
2.05071
2.05021
2.04959
2.04885
2.04795
2.04687
2.04558
2.04406
2.04229
2.04025
2.03791
2.03526
2.03228
2.02896
2.02529
2.02126
2.01687
2.01212
2.00703
2.0016
1.99587
1.98988
1.98366
1.97725
1.9707
1.96403
1.95722
1.9502
1.94285
1.93496
1.92623
1.91629
1.9047
1.89093
1.8743
1.85383
1.82793
1.79403
1.74804
1.68393
1.59356
1.4668
1.29063
1.04092
0.635165
0.441216
0.77488
1.00855
1.18374
1.31438
1.40886
1.47486
1.51996
1.55109
1.57404
1.59315
1.6113
1.63004
1.6499
1.67065
1.69164
1.71202
1.73097
1.74777
1.76183
1.7731
1.78166
1.78773
1.79159
1.79357
1.79403
1.7933
1.79171
1.78952
1.78698
1.78427
1.78157
1.779
1.77664
1.77456
1.7728
1.77138
1.7703
1.76957
1.76917
1.76908
1.7693
1.76983
1.77066
1.77178
1.77318
1.77485
1.7768
1.779
1.78146
1.78417
1.78711
1.79029
1.79368
1.79728
1.80107
1.80503
1.80914
1.81337
1.81771
1.82212
1.82659
1.83108
1.83557
1.84003
1.84445
1.84878
1.85302
1.85712
1.86107
1.86485
1.86843
1.87179
1.87491
1.87776
1.88034
1.88264
1.88467
1.88645
1.888
1.88936
1.89056
1.89165
1.89267
1.89365
1.89464
1.89569
1.89686
1.89818
1.89972
1.9015
1.90356
1.90592
1.90861
1.91162
1.91496
1.91861
1.92256
1.92678
1.93123
1.93588
1.94069
1.9456
1.95059
1.95559
1.96056
1.96546
1.97026
1.97491
1.9794
1.98369
1.98777
1.99162
1.99526
1.99868
2.00188
2.0049
2.00773
2.01041
2.01296
2.01541
2.01777
2.02008
2.02234
2.02457
2.02678
2.02898
2.03116
2.03331
2.03543
2.0375
2.0395
2.04141
2.04321
2.04488
2.0464
2.04775
2.04892
2.04991
2.05073
2.0514
2.05191
2.05229
2.05255
2.05271
2.05278
2.05278
2.05272
2.05261
2.05247
2.05229
2.05208
2.05183
2.05154
2.0512
2.05078
2.05028
2.04967
2.04893
2.04802
2.04694
2.04566
2.04414
2.04237
2.04032
2.03798
2.03533
2.03235
2.02903
2.02536
2.02133
2.01694
2.01219
2.0071
2.00167
1.99595
1.98995
1.98373
1.97732
1.97077
1.9641
1.95729
1.95027
1.94292
1.93503
1.9263
1.91636
1.90477
1.891
1.87437
1.8539
1.828
1.79411
1.74812
1.684
1.59363
1.46688
1.29071
1.041
0.635247
0.496985
0.853431
1.09481
1.26783
1.38826
1.46626
1.51141
1.53311
1.53998
1.53923
1.53627
1.5347
1.53648
1.54228
1.55184
1.56433
1.57866
1.5937
1.60853
1.62202
1.63369
1.64332
1.65085
1.6564
1.66013
1.66229
1.66314
1.66296
1.66199
1.66046
1.65857
1.65649
1.65436
1.65229
1.65037
1.64865
1.64718
1.64599
1.64509
1.64448
1.64417
1.64416
1.64446
1.64504
1.64592
1.64708
1.64852
1.65021
1.65216
1.65436
1.65679
1.65944
1.66231
1.66539
1.66866
1.67211
1.67573
1.67951
1.68342
1.68744
1.69156
1.69575
1.69999
1.70425
1.70851
1.71274
1.71692
1.72101
1.725
1.72887
1.73258
1.73612
1.73946
1.74259
1.7455
1.74816
1.75055
1.75269
1.75458
1.75624
1.75768
1.75894
1.76004
1.76101
1.76188
1.76269
1.76348
1.76429
1.76519
1.7662
1.76738
1.76877
1.7704
1.77229
1.77448
1.77697
1.77976
1.78286
1.78625
1.78991
1.79381
1.79793
1.80222
1.80664
1.81115
1.8157
1.82025
1.82476
1.82918
1.83349
1.83765
1.84164
1.84544
1.84904
1.85243
1.85562
1.8586
1.8614
1.86402
1.86649
1.86884
1.87107
1.87322
1.87531
1.87735
1.87936
1.88135
1.88332
1.88529
1.88724
1.88917
1.89106
1.8929
1.89467
1.89635
1.89792
1.89936
1.90065
1.90179
1.90278
1.9036
1.90428
1.90483
1.90524
1.90554
1.90573
1.90584
1.90588
1.90585
1.90577
1.90565
1.90549
1.90529
1.90505
1.90477
1.90442
1.90401
1.90352
1.90293
1.90222
1.90138
1.90037
1.89918
1.89779
1.89618
1.89433
1.89222
1.88983
1.88717
1.88421
1.88097
1.87744
1.87364
1.8696
1.86536
1.86096
1.85648
1.85199
1.8476
1.84342
1.83954
1.83607
1.83309
1.83066
1.82881
1.82753
1.82681
1.82661
1.82678
1.82698
1.82641
1.82335
1.81461
1.7949
1.75629
1.68803
1.57668
1.40521
1.14496
0.7079
0.496913
0.853369
1.09477
1.2678
1.38825
1.46625
1.5114
1.5331
1.53998
1.53924
1.53629
1.53472
1.5365
1.54231
1.55187
1.56437
1.5787
1.59375
1.60858
1.62207
1.63374
1.64337
1.65091
1.65645
1.66019
1.66235
1.6632
1.66302
1.66205
1.66052
1.65863
1.65655
1.65442
1.65235
1.65042
1.6487
1.64724
1.64605
1.64515
1.64454
1.64423
1.64422
1.64451
1.6451
1.64598
1.64714
1.64857
1.65027
1.65222
1.65442
1.65684
1.6595
1.66237
1.66545
1.66872
1.67217
1.67579
1.67957
1.68348
1.6875
1.69162
1.69581
1.70005
1.70431
1.70857
1.7128
1.71698
1.72107
1.72506
1.72893
1.73264
1.73618
1.73952
1.74266
1.74556
1.74822
1.75061
1.75275
1.75464
1.7563
1.75774
1.759
1.7601
1.76107
1.76194
1.76275
1.76354
1.76435
1.76525
1.76626
1.76744
1.76883
1.77046
1.77235
1.77454
1.77703
1.77982
1.78292
1.78631
1.78997
1.79388
1.79799
1.80228
1.8067
1.81121
1.81576
1.82031
1.82482
1.82925
1.83356
1.83772
1.84171
1.84551
1.84911
1.8525
1.85568
1.85867
1.86146
1.86409
1.86656
1.8689
1.87114
1.87328
1.87537
1.87741
1.87942
1.88141
1.88339
1.88535
1.8873
1.88923
1.89112
1.89296
1.89473
1.89642
1.89799
1.89943
1.90072
1.90186
1.90284
1.90367
1.90435
1.90489
1.9053
1.9056
1.9058
1.90591
1.90594
1.90592
1.90584
1.90572
1.90555
1.90536
1.90512
1.90483
1.90449
1.90408
1.90359
1.903
1.90229
1.90144
1.90043
1.89925
1.89786
1.89624
1.89439
1.89228
1.88989
1.88723
1.88427
1.88103
1.8775
1.8737
1.86966
1.86542
1.86102
1.85654
1.85205
1.84766
1.84348
1.8396
1.83613
1.83315
1.83072
1.82886
1.82759
1.82687
1.82666
1.82683
1.82704
1.82647
1.82341
1.81468
1.79497
1.75636
1.6881
1.57675
1.40529
1.14505
0.707989
0.543833
0.920303
1.16773
1.33753
1.44715
1.50838
1.53256
1.53084
1.51346
1.48893
1.46367
1.44193
1.42604
1.41679
1.41389
1.41638
1.42296
1.43226
1.44304
1.45426
1.46472
1.47396
1.48169
1.48781
1.49236
1.49546
1.49727
1.49801
1.49788
1.49708
1.49579
1.49419
1.49241
1.49057
1.48877
1.48708
1.48557
1.48428
1.48323
1.48243
1.48192
1.48169
1.48174
1.48208
1.4827
1.4836
1.48475
1.48616
1.4878
1.48967
1.49176
1.49405
1.49655
1.49924
1.50211
1.50515
1.50836
1.51173
1.51523
1.51886
1.5226
1.52643
1.53032
1.53425
1.5382
1.54214
1.54605
1.5499
1.55367
1.55735
1.5609
1.5643
1.56755
1.57061
1.57348
1.57615
1.57857
1.58076
1.5827
1.58441
1.58589
1.58715
1.58821
1.58909
1.58982
1.59042
1.59093
1.5914
1.59187
1.59239
1.593
1.59375
1.59468
1.59582
1.59722
1.5989
1.60087
1.60314
1.60572
1.60859
1.61174
1.61515
1.61878
1.62259
1.62655
1.63061
1.63472
1.63886
1.64296
1.647
1.65093
1.65474
1.65838
1.66184
1.66511
1.66819
1.67106
1.67375
1.67625
1.67858
1.68076
1.68282
1.68478
1.68666
1.68848
1.69026
1.69202
1.69378
1.69554
1.6973
1.69907
1.70083
1.70257
1.70428
1.70594
1.70753
1.70902
1.71039
1.71164
1.71274
1.71369
1.71451
1.71518
1.71572
1.71613
1.71643
1.71664
1.71676
1.7168
1.71679
1.71673
1.71662
1.71647
1.7163
1.71608
1.71583
1.71554
1.71519
1.71478
1.7143
1.71372
1.71302
1.7122
1.71123
1.7101
1.70878
1.70727
1.70555
1.70361
1.70146
1.6991
1.69655
1.69383
1.691
1.6881
1.68522
1.68245
1.67994
1.67782
1.67628
1.67552
1.67576
1.67725
1.68025
1.68506
1.69199
1.70142
1.71371
1.72916
1.74776
1.76886
1.79058
1.80907
1.81777
1.80677
1.76265
1.66866
1.50395
1.23583
0.771563
0.543755
0.920236
1.16769
1.3375
1.44714
1.50837
1.53255
1.53084
1.51346
1.48894
1.46368
1.44194
1.42605
1.41681
1.41392
1.41641
1.42299
1.43229
1.44308
1.4543
1.46477
1.47401
1.48174
1.48786
1.49241
1.4955
1.49732
1.49806
1.49793
1.49713
1.49584
1.49424
1.49246
1.49062
1.48881
1.48713
1.48562
1.48433
1.48327
1.48248
1.48196
1.48173
1.48179
1.48213
1.48275
1.48365
1.4848
1.4862
1.48785
1.48972
1.49181
1.4941
1.4966
1.49929
1.50216
1.5052
1.50841
1.51178
1.51528
1.51891
1.52265
1.52648
1.53037
1.5343
1.53825
1.54219
1.5461
1.54995
1.55373
1.5574
1.56095
1.56435
1.5676
1.57066
1.57353
1.5762
1.57862
1.58081
1.58275
1.58446
1.58594
1.5872
1.58826
1.58914
1.58987
1.59047
1.59098
1.59145
1.59192
1.59244
1.59305
1.5938
1.59473
1.59587
1.59727
1.59895
1.60092
1.6032
1.60577
1.60865
1.6118
1.6152
1.61883
1.62264
1.6266
1.63066
1.63478
1.63891
1.64302
1.64705
1.65099
1.65479
1.65843
1.6619
1.66517
1.66824
1.67112
1.6738
1.6763
1.67863
1.68082
1.68288
1.68483
1.68671
1.68853
1.69031
1.69208
1.69383
1.69559
1.69736
1.69912
1.70088
1.70263
1.70434
1.70599
1.70758
1.70907
1.71045
1.71169
1.71279
1.71375
1.71456
1.71523
1.71577
1.71618
1.71649
1.71669
1.71681
1.71686
1.71684
1.71678
1.71667
1.71653
1.71635
1.71614
1.71589
1.71559
1.71525
1.71484
1.71435
1.71377
1.71308
1.71226
1.71129
1.71015
1.70883
1.70732
1.7056
1.70366
1.70151
1.69915
1.6966
1.69388
1.69105
1.68815
1.68527
1.6825
1.67999
1.67787
1.67633
1.67556
1.67581
1.6773
1.6803
1.68511
1.69204
1.70147
1.71376
1.7292
1.74781
1.76891
1.79063
1.80913
1.81783
1.80683
1.76271
1.66872
1.50403
1.23592
0.771656
0.582743
0.976534
1.22884
1.39521
1.49453
1.54004
1.54466
1.52114
1.48113
1.43435
1.3881
1.34719
1.31426
1.2902
1.27467
1.2666
1.26453
1.26692
1.27234
1.27963
1.28746
1.29496
1.30166
1.30728
1.31171
1.31494
1.31705
1.31818
1.31846
1.31806
1.31713
1.31582
1.31427
1.31258
1.31087
1.3092
1.30765
1.30627
1.3051
1.30415
1.30346
1.30304
1.30288
1.30299
1.30336
1.30398
1.30485
1.30595
1.30727
1.3088
1.31053
1.31244
1.31454
1.31682
1.31926
1.32187
1.32464
1.32757
1.33063
1.33383
1.33714
1.34055
1.34403
1.34757
1.35115
1.35473
1.3583
1.36184
1.36532
1.36872
1.37203
1.37523
1.3783
1.38122
1.38398
1.38657
1.38896
1.39112
1.39305
1.39474
1.39619
1.3974
1.39839
1.39915
1.39972
1.40012
1.40038
1.40054
1.40064
1.40072
1.40084
1.40105
1.40139
1.4019
1.40263
1.40361
1.40487
1.40642
1.40829
1.41045
1.41292
1.41566
1.41866
1.42188
1.42529
1.42884
1.4325
1.43621
1.43994
1.44364
1.44728
1.45081
1.45422
1.45747
1.46055
1.46344
1.46614
1.46865
1.47097
1.47312
1.47511
1.47697
1.47871
1.48037
1.48196
1.48352
1.48506
1.4866
1.48815
1.48972
1.49132
1.49294
1.49457
1.49619
1.49779
1.49935
1.50085
1.50225
1.50355
1.50472
1.50575
1.50665
1.50741
1.50803
1.50853
1.50891
1.50919
1.50937
1.50947
1.50952
1.5095
1.50945
1.50936
1.50925
1.50912
1.50896
1.50879
1.5086
1.50837
1.50811
1.5078
1.50742
1.50696
1.50641
1.50575
1.50496
1.50404
1.50298
1.50179
1.50045
1.499
1.49746
1.49587
1.49429
1.4928
1.49151
1.49055
1.4901
1.49036
1.49159
1.49409
1.49821
1.50435
1.51301
1.52473
1.54017
1.56008
1.58523
1.61633
1.6537
1.69682
1.74361
1.78954
1.82674
1.84339
1.82345
1.74701
1.58974
1.31538
0.827298
0.582661
0.976463
1.2288
1.39518
1.49451
1.54002
1.54465
1.52113
1.48113
1.43435
1.3881
1.3472
1.31428
1.29022
1.27469
1.26662
1.26456
1.26695
1.27238
1.27966
1.28749
1.295
1.3017
1.30732
1.31174
1.31498
1.31709
1.31822
1.3185
1.3181
1.31717
1.31586
1.31431
1.31262
1.3109
1.30924
1.30769
1.30631
1.30514
1.30419
1.3035
1.30307
1.30292
1.30303
1.3034
1.30402
1.30489
1.30599
1.30731
1.30884
1.31057
1.31248
1.31458
1.31686
1.3193
1.32191
1.32468
1.32761
1.33067
1.33387
1.33718
1.34059
1.34407
1.34762
1.35119
1.35477
1.35835
1.36188
1.36536
1.36877
1.37208
1.37527
1.37834
1.38126
1.38402
1.38661
1.389
1.39116
1.39309
1.39478
1.39623
1.39745
1.39843
1.39919
1.39976
1.40016
1.40042
1.40058
1.40068
1.40076
1.40088
1.40109
1.40143
1.40194
1.40267
1.40365
1.40491
1.40647
1.40833
1.4105
1.41296
1.4157
1.4187
1.42192
1.42533
1.42888
1.43254
1.43625
1.43998
1.44368
1.44732
1.45086
1.45426
1.45751
1.46059
1.46348
1.46618
1.46869
1.47101
1.47316
1.47515
1.47701
1.47876
1.48041
1.48201
1.48356
1.4851
1.48664
1.48819
1.48977
1.49137
1.49298
1.49461
1.49623
1.49783
1.49939
1.50089
1.5023
1.50359
1.50476
1.5058
1.50669
1.50745
1.50808
1.50857
1.50895
1.50923
1.50941
1.50952
1.50956
1.50955
1.50949
1.50941
1.50929
1.50916
1.50901
1.50884
1.50864
1.50842
1.50815
1.50784
1.50746
1.507
1.50645
1.50579
1.505
1.50409
1.50303
1.50183
1.50049
1.49904
1.4975
1.49591
1.49433
1.49284
1.49155
1.4906
1.49014
1.4904
1.49163
1.49413
1.49824
1.50439
1.51305
1.52477
1.54021
1.56012
1.58527
1.61636
1.65374
1.69686
1.74365
1.78958
1.82679
1.84344
1.8235
1.74707
1.58981
1.31547
0.827395
0.614675
1.02314
1.27947
1.44266
1.53281
1.56441
1.55176
1.50897
1.44892
1.38237
1.31736
1.25922
1.21079
1.17302
1.14554
1.12715
1.11628
1.11129
1.11059
1.11287
1.117
1.12173
1.12642
1.13064
1.13414
1.13681
1.13863
1.13964
1.13994
1.13962
1.13881
1.13762
1.13617
1.13457
1.13289
1.13123
1.12966
1.12821
1.12695
1.12589
1.12506
1.12448
1.12414
1.12405
1.1242
1.12458
1.12518
1.12599
1.127
1.1282
1.12958
1.13113
1.13284
1.13472
1.13675
1.13894
1.14128
1.14377
1.1464
1.14916
1.15204
1.15501
1.15808
1.1612
1.16437
1.16756
1.17075
1.17393
1.17707
1.18015
1.18317
1.18611
1.18894
1.19165
1.19424
1.19667
1.19894
1.20101
1.20286