/*--------------------------------*- C++ -*----------------------------------*\
  =========                 |
  \\      /  F ield         | OpenFOAM: The Open Source CFD Toolbox
   \\    /   O peration     | Website:  https://openfoam.org
    \\  /    A nd           | Version:  8
     \\/     M anipulation  |
\*---------------------------------------------------------------------------*/
FoamFile
{
    version     2.0;
    format      ascii;
    class       volScalarField;
    location    "200";
    object      nut;
}
// * * * * * * * * * * * * * * * * * * * * * * * * * * * * * * * * * * * * * //

dimensions      [0 2 -1 0 0 0 0];

internalField   nonuniform List<scalar> 
46000
(
3.46907e-06
1.09461e-05
1.96638e-05
2.66232e-05
3.26267e-05
3.78714e-05
4.24737e-05
4.65234e-05
5.00933e-05
5.32421e-05
5.60157e-05
5.84492e-05
6.05684e-05
6.23927e-05
6.39368e-05
6.52162e-05
6.62777e-05
6.71683e-05
6.78564e-05
6.83365e-05
6.86194e-05
6.87271e-05
6.86877e-05
6.85317e-05
6.82897e-05
6.79901e-05
6.76578e-05
6.73138e-05
6.69748e-05
6.66531e-05
6.63578e-05
6.60946e-05
6.58665e-05
6.56748e-05
6.5519e-05
6.53976e-05
6.53083e-05
6.52483e-05
6.52146e-05
6.52044e-05
6.52168e-05
6.52483e-05
6.52951e-05
6.53546e-05
6.54253e-05
6.55065e-05
6.55981e-05
6.57003e-05
6.58137e-05
6.59387e-05
6.60758e-05
6.62255e-05
6.63878e-05
6.65623e-05
6.67484e-05
6.6945e-05
6.71509e-05
6.73644e-05
6.75837e-05
6.7807e-05
6.80327e-05
6.8259e-05
6.84844e-05
6.87079e-05
6.89281e-05
6.91443e-05
6.93554e-05
6.95607e-05
6.97593e-05
6.995e-05
7.01319e-05
7.03038e-05
7.04645e-05
7.0613e-05
7.07485e-05
7.0872e-05
7.09827e-05
7.10803e-05
7.11651e-05
7.12383e-05
7.13019e-05
7.13584e-05
7.1411e-05
7.14633e-05
7.15196e-05
7.15864e-05
7.1668e-05
7.17667e-05
7.18848e-05
7.20239e-05
7.2185e-05
7.23687e-05
7.25745e-05
7.28014e-05
7.30477e-05
7.33112e-05
7.35892e-05
7.38787e-05
7.41766e-05
7.44798e-05
7.4785e-05
7.50894e-05
7.53902e-05
7.5685e-05
7.59718e-05
7.62486e-05
7.65141e-05
7.67673e-05
7.70075e-05
7.72343e-05
7.74477e-05
7.76481e-05
7.7836e-05
7.80126e-05
7.81789e-05
7.83363e-05
7.84864e-05
7.86309e-05
7.87714e-05
7.89094e-05
7.90463e-05
7.91832e-05
7.93209e-05
7.94599e-05
7.96001e-05
7.9741e-05
7.98818e-05
8.00213e-05
8.01579e-05
8.029e-05
8.04157e-05
8.05335e-05
8.06418e-05
8.07395e-05
8.08255e-05
8.08998e-05
8.09631e-05
8.10161e-05
8.10584e-05
8.109e-05
8.11118e-05
8.11248e-05
8.11304e-05
8.11299e-05
8.11248e-05
8.11163e-05
8.11056e-05
8.10936e-05
8.1081e-05
8.10683e-05
8.10558e-05
8.10432e-05
8.10304e-05
8.10167e-05
8.10011e-05
8.09825e-05
8.09594e-05
8.09303e-05
8.08934e-05
8.08469e-05
8.0789e-05
8.07179e-05
8.06318e-05
8.05293e-05
8.0409e-05
8.02697e-05
8.01103e-05
7.99301e-05
7.97282e-05
7.95039e-05
7.92565e-05
7.89852e-05
7.86892e-05
7.83674e-05
7.80187e-05
7.76416e-05
7.72342e-05
7.67941e-05
7.6318e-05
7.58015e-05
7.52379e-05
7.46177e-05
7.39273e-05
7.31474e-05
7.22518e-05
7.12054e-05
6.99636e-05
6.84717e-05
6.66654e-05
6.44728e-05
6.18159e-05
5.86135e-05
5.47819e-05
5.02337e-05
4.48751e-05
3.86039e-05
3.13211e-05
2.29583e-05
1.3378e-05
5.0559e-06
3.46902e-06
1.09381e-05
1.96583e-05
2.66205e-05
3.26263e-05
3.78723e-05
4.24751e-05
4.6525e-05
5.00949e-05
5.32437e-05
5.60174e-05
5.8451e-05
6.05705e-05
6.23951e-05
6.39395e-05
6.52193e-05
6.62813e-05
6.71724e-05
6.7861e-05
6.83413e-05
6.86245e-05
6.87325e-05
6.86933e-05
6.85374e-05
6.82955e-05
6.7996e-05
6.76638e-05
6.73198e-05
6.69807e-05
6.66591e-05
6.63638e-05
6.61005e-05
6.58724e-05
6.56807e-05
6.55249e-05
6.54035e-05
6.53143e-05
6.52543e-05
6.52206e-05
6.52103e-05
6.52227e-05
6.52543e-05
6.53011e-05
6.53606e-05
6.54313e-05
6.55125e-05
6.56041e-05
6.57063e-05
6.58197e-05
6.59447e-05
6.60819e-05
6.62316e-05
6.63938e-05
6.65683e-05
6.67544e-05
6.69511e-05
6.7157e-05
6.73704e-05
6.75898e-05
6.78131e-05
6.80388e-05
6.82651e-05
6.84906e-05
6.8714e-05
6.89343e-05
6.91504e-05
6.93616e-05
6.95669e-05
6.97655e-05
6.99562e-05
7.01381e-05
7.031e-05
7.04707e-05
7.06192e-05
7.07547e-05
7.08782e-05
7.09889e-05
7.10865e-05
7.11713e-05
7.12445e-05
7.1308e-05
7.13645e-05
7.14172e-05
7.14695e-05
7.15258e-05
7.15925e-05
7.16741e-05
7.17729e-05
7.1891e-05
7.20301e-05
7.21912e-05
7.23749e-05
7.25807e-05
7.28076e-05
7.30539e-05
7.33174e-05
7.35954e-05
7.38849e-05
7.41829e-05
7.4486e-05
7.47912e-05
7.50956e-05
7.53965e-05
7.56913e-05
7.5978e-05
7.62549e-05
7.65205e-05
7.67737e-05
7.70139e-05
7.72407e-05
7.74541e-05
7.76545e-05
7.78425e-05
7.8019e-05
7.81853e-05
7.83428e-05
7.84929e-05
7.86374e-05
7.87779e-05
7.89159e-05
7.90527e-05
7.91897e-05
7.93274e-05
7.94664e-05
7.96066e-05
7.97475e-05
7.98883e-05
8.00278e-05
8.01644e-05
8.02964e-05
8.04222e-05
8.054e-05
8.06483e-05
8.07459e-05
8.0832e-05
8.09062e-05
8.09695e-05
8.10226e-05
8.10648e-05
8.10964e-05
8.11182e-05
8.11312e-05
8.11368e-05
8.11363e-05
8.11312e-05
8.11227e-05
8.1112e-05
8.11e-05
8.10874e-05
8.10747e-05
8.10621e-05
8.10496e-05
8.10368e-05
8.1023e-05
8.10074e-05
8.09888e-05
8.09657e-05
8.09366e-05
8.08997e-05
8.08532e-05
8.07953e-05
8.07241e-05
8.06381e-05
8.05355e-05
8.04152e-05
8.02759e-05
8.01165e-05
7.99363e-05
7.97343e-05
7.951e-05
7.92626e-05
7.89913e-05
7.86953e-05
7.83735e-05
7.80248e-05
7.76476e-05
7.72402e-05
7.68001e-05
7.6324e-05
7.58075e-05
7.52438e-05
7.46236e-05
7.39332e-05
7.31534e-05
7.22577e-05
7.12113e-05
6.99694e-05
6.84774e-05
6.66711e-05
6.44784e-05
6.18213e-05
5.86187e-05
5.47868e-05
5.02383e-05
4.48793e-05
3.86079e-05
3.13255e-05
2.29641e-05
1.33859e-05
5.06264e-06
8.16096e-06
5.39343e-05
8.89801e-05
0.000115303
0.000135793
0.000151902
0.000164569
0.000174484
0.000182181
0.000188089
0.000192554
0.000195855
0.000198217
0.00019982
0.000200804
0.000201262
0.000201205
0.000200825
0.000200229
0.000199501
0.000198708
0.000197901
0.000197121
0.000196396
0.000195747
0.000195183
0.00019471
0.000194328
0.000194032
0.000193816
0.00019367
0.000193588
0.000193559
0.000193575
0.000193628
0.000193711
0.000193817
0.000193941
0.000194077
0.000194221
0.000194368
0.000194517
0.000194669
0.000194826
0.000194988
0.00019516
0.000195342
0.000195538
0.000195749
0.000195977
0.000196223
0.000196487
0.000196769
0.000197068
0.000197382
0.000197708
0.000198044
0.000198387
0.000198733
0.000199081
0.000199427
0.000199769
0.000200107
0.000200438
0.000200762
0.000201078
0.000201384
0.000201681
0.000201965
0.000202236
0.000202491
0.00020273
0.000202949
0.000203148
0.000203326
0.000203481
0.000203614
0.000203726
0.000203822
0.000203907
0.000203987
0.000204067
0.000204155
0.000204255
0.000204375
0.000204518
0.000204685
0.000204879
0.000205103
0.000205357
0.000205642
0.000205955
0.000206295
0.000206658
0.00020704
0.000207436
0.000207842
0.000208253
0.000208665
0.000209074
0.000209476
0.000209868
0.000210248
0.000210613
0.000210963
0.000211297
0.000211613
0.000211912
0.000212194
0.00021246
0.000212711
0.000212947
0.000213172
0.000213386
0.000213592
0.000213792
0.000213988
0.000214182
0.000214377
0.000214572
0.00021477
0.000214971
0.000215175
0.000215382
0.000215589
0.000215795
0.000215998
0.000216195
0.000216383
0.00021656
0.000216722
0.000216869
0.000216999
0.000217111
0.000217204
0.00021728
0.000217339
0.00021738
0.000217407
0.000217422
0.000217428
0.000217429
0.000217426
0.000217421
0.000217416
0.000217411
0.000217408
0.000217407
0.000217407
0.000217408
0.000217409
0.000217408
0.000217404
0.000217395
0.000217379
0.000217352
0.000217312
0.000217257
0.000217182
0.000217087
0.000216968
0.000216824
0.000216652
0.000216452
0.000216223
0.000215963
0.000215673
0.000215351
0.000214998
0.000214612
0.000214192
0.000213737
0.000213245
0.000212715
0.000212143
0.000211528
0.000210864
0.000210147
0.000209369
0.00020852
0.000207581
0.000206529
0.000205327
0.000203922
0.000202245
0.000200204
0.000197683
0.000194543
0.000190625
0.000185755
0.00017975
0.000172426
0.000163604
0.000153116
0.000140802
0.000126505
0.000110009
9.05702e-05
6.37364e-05
1.40213e-05
8.16212e-06
5.39091e-05
8.89473e-05
0.000115271
0.000135765
0.00015188
0.000164554
0.000174476
0.000182179
0.000188093
0.000192564
0.000195869
0.000198236
0.000199842
0.000200828
0.000201289
0.000201234
0.000200855
0.000200261
0.000199534
0.000198741
0.000197935
0.000197154
0.00019643
0.00019578
0.000195216
0.000194743
0.000194361
0.000194065
0.000193848
0.000193703
0.00019362
0.000193591
0.000193607
0.00019366
0.000193743
0.00019385
0.000193973
0.000194109
0.000194253
0.000194401
0.00019455
0.000194702
0.000194859
0.000195022
0.000195193
0.000195375
0.000195571
0.000195782
0.00019601
0.000196256
0.00019652
0.000196802
0.000197101
0.000197415
0.000197742
0.000198078
0.00019842
0.000198767
0.000199114
0.00019946
0.000199803
0.00020014
0.000200472
0.000200796
0.000201112
0.000201418
0.000201714
0.000201999
0.00020227
0.000202525
0.000202764
0.000202983
0.000203182
0.00020336
0.000203515
0.000203648
0.00020376
0.000203856
0.000203941
0.000204021
0.000204101
0.000204188
0.000204289
0.000204409
0.000204552
0.000204719
0.000204913
0.000205137
0.000205391
0.000205675
0.000205989
0.000206329
0.000206692
0.000207073
0.000207469
0.000207875
0.000208287
0.000208699
0.000209108
0.00020951
0.000209902
0.000210282
0.000210648
0.000210998
0.000211332
0.000211648
0.000211947
0.000212229
0.000212495
0.000212746
0.000212983
0.000213208
0.000213422
0.000213628
0.000213828
0.000214024
0.000214218
0.000214412
0.000214608
0.000214806
0.000215007
0.000215211
0.000215417
0.000215624
0.000215831
0.000216033
0.00021623
0.000216418
0.000216595
0.000216758
0.000216905
0.000217035
0.000217146
0.00021724
0.000217316
0.000217374
0.000217416
0.000217442
0.000217457
0.000217464
0.000217464
0.000217461
0.000217456
0.000217451
0.000217446
0.000217443
0.000217442
0.000217442
0.000217443
0.000217444
0.000217443
0.000217439
0.00021743
0.000217413
0.000217387
0.000217347
0.000217291
0.000217217
0.000217122
0.000217003
0.000216858
0.000216687
0.000216487
0.000216257
0.000215998
0.000215707
0.000215386
0.000215032
0.000214646
0.000214226
0.000213771
0.000213279
0.000212749
0.000212177
0.000211561
0.000210898
0.000210181
0.000209403
0.000208553
0.000207615
0.000206562
0.00020536
0.000203955
0.000202278
0.000200237
0.000197716
0.000194576
0.000190658
0.000185788
0.000179782
0.000172457
0.000163635
0.000153145
0.00014083
0.000126531
0.000110034
9.05949e-05
6.37604e-05
1.40298e-05
1.49467e-05
7.56133e-05
0.000128755
0.000169811
0.000201836
0.000226876
0.000246312
0.000261181
0.000272323
0.000280448
0.000286164
0.000289987
0.000292347
0.000293595
0.000294003
0.000293769
0.000293015
0.000291833
0.000290473
0.000289047
0.000287643
0.000286324
0.000285133
0.000284095
0.000283224
0.000282519
0.000281976
0.00028158
0.000281317
0.000281168
0.000281118
0.000281148
0.000281242
0.000281387
0.000281569
0.000281778
0.000282004
0.000282239
0.000282479
0.000282716
0.000282948
0.000283172
0.000283394
0.000283614
0.000283838
0.000284069
0.000284311
0.000284567
0.00028484
0.000285133
0.000285446
0.000285781
0.000286137
0.000286511
0.000286903
0.000287308
0.000287723
0.000288146
0.000288572
0.000288999
0.000289424
0.000289844
0.00029026
0.000290668
0.000291068
0.000291458
0.000291838
0.000292206
0.00029256
0.000292898
0.000293218
0.000293517
0.000293792
0.000294043
0.000294267
0.000294464
0.000294635
0.000294783
0.000294913
0.000295032
0.000295146
0.000295263
0.00029539
0.000295534
0.000295699
0.000295889
0.000296105
0.000296349
0.000296624
0.00029693
0.000297265
0.000297628
0.000298015
0.000298423
0.000298846
0.00029928
0.00029972
0.000300163
0.000300602
0.000301036
0.000301461
0.000301874
0.000302273
0.000302658
0.000303027
0.00030338
0.000303717
0.000304039
0.000304345
0.000304638
0.000304918
0.000305186
0.000305444
0.000305695
0.00030594
0.000306181
0.000306421
0.00030666
0.000306901
0.000307145
0.000307391
0.000307641
0.000307894
0.000308147
0.0003084
0.000308649
0.000308892
0.000309126
0.000309347
0.000309554
0.000309743
0.000309912
0.000310062
0.00031019
0.000310298
0.000310385
0.000310453
0.000310502
0.000310536
0.000310559
0.000310575
0.000310585
0.000310593
0.000310601
0.00031061
0.000310621
0.000310634
0.000310648
0.000310664
0.00031068
0.000310694
0.000310705
0.00031071
0.000310707
0.000310693
0.000310663
0.000310616
0.000310548
0.000310456
0.000310336
0.000310187
0.000310007
0.000309794
0.000309547
0.000309266
0.000308949
0.000308596
0.000308208
0.000307783
0.000307321
0.000306822
0.000306283
0.000305704
0.000305083
0.000304418
0.000303708
0.000302949
0.000302137
0.000301265
0.000300323
0.00029929
0.00029814
0.000296827
0.000295289
0.000293439
0.000291163
0.000288319
0.000284732
0.000280202
0.000274505
0.000267393
0.000258602
0.000247842
0.000234793
0.000219083
0.000200209
0.000177227
0.000147388
0.000101007
2.35817e-05
1.49424e-05
7.55795e-05
0.000128709
0.000169765
0.000201797
0.000226849
0.000246298
0.00026118
0.000272334
0.00028047
0.000286196
0.000290026
0.000292394
0.000293648
0.00029406
0.00029383
0.00029308
0.000291901
0.000290542
0.000289117
0.000287714
0.000286395
0.000285204
0.000284166
0.000283294
0.000282589
0.000282045
0.000281649
0.000281386
0.000281238
0.000281187
0.000281217
0.000281311
0.000281456
0.000281638
0.000281848
0.000282074
0.00028231
0.000282549
0.000282787
0.000283019
0.000283244
0.000283465
0.000283686
0.00028391
0.000284141
0.000284382
0.000284639
0.000284912
0.000285205
0.000285518
0.000285853
0.000286209
0.000286584
0.000286975
0.00028738
0.000287796
0.000288219
0.000288645
0.000289072
0.000289497
0.000289918
0.000290333
0.000290741
0.000291141
0.000291532
0.000291912
0.00029228
0.000292634
0.000292972
0.000293292
0.000293591
0.000293866
0.000294117
0.000294342
0.000294538
0.000294709
0.000294857
0.000294987
0.000295106
0.00029522
0.000295337
0.000295464
0.000295607
0.000295773
0.000295963
0.000296178
0.000296423
0.000296697
0.000297003
0.000297338
0.000297701
0.000298088
0.000298496
0.000298919
0.000299354
0.000299794
0.000300237
0.000300677
0.00030111
0.000301535
0.000301949
0.000302348
0.000302733
0.000303103
0.000303456
0.000303794
0.000304115
0.000304422
0.000304715
0.000304994
0.000305263
0.000305521
0.000305772
0.000306017
0.000306259
0.000306498
0.000306737
0.000306978
0.000307222
0.000307468
0.000307718
0.000307971
0.000308224
0.000308477
0.000308726
0.000308969
0.000309203
0.000309424
0.000309631
0.00030982
0.000309989
0.000310139
0.000310267
0.000310375
0.000310462
0.00031053
0.000310579
0.000310613
0.000310636
0.000310652
0.000310662
0.00031067
0.000310678
0.000310687
0.000310697
0.00031071
0.000310724
0.00031074
0.000310756
0.00031077
0.000310781
0.000310786
0.000310783
0.000310768
0.000310739
0.000310692
0.000310623
0.000310531
0.000310411
0.000310263
0.000310082
0.000309869
0.000309622
0.00030934
0.000309023
0.000308671
0.000308282
0.000307858
0.000307396
0.000306896
0.000306357
0.000305778
0.000305156
0.000304492
0.000303781
0.000303022
0.00030221
0.000301338
0.000300395
0.000299363
0.000298212
0.000296899
0.000295361
0.000293511
0.000291235
0.000288391
0.000284804
0.000280274
0.000274577
0.000267466
0.000258674
0.000247913
0.000234863
0.00021915
0.000200273
0.000177287
0.000147441
0.000101047
2.35881e-05
2.0974e-05
9.16562e-05
0.000154271
0.000203407
0.000242119
0.000272628
0.000296458
0.000314748
0.000328432
0.00033832
0.000345134
0.000349522
0.000352047
0.000353184
0.000353312
0.000352716
0.00035159
0.00035004
0.000348313
0.000346549
0.000344849
0.000343279
0.000341883
0.000340684
0.00033969
0.000338897
0.000338294
0.000337864
0.000337587
0.000337442
0.000337407
0.000337462
0.000337589
0.00033777
0.000337991
0.00033824
0.000338505
0.000338778
0.000339052
0.000339322
0.000339583
0.000339837
0.000340087
0.000340336
0.00034059
0.000340851
0.000341124
0.000341414
0.000341722
0.000342052
0.000342404
0.00034278
0.000343178
0.000343597
0.000344034
0.000344486
0.00034495
0.000345422
0.0003459
0.00034638
0.00034686
0.000347337
0.000347809
0.000348275
0.000348734
0.000349185
0.000349624
0.000350051
0.000350464
0.000350859
0.000351234
0.000351586
0.000351913
0.000352212
0.000352482
0.000352722
0.000352934
0.000353121
0.00035329
0.000353445
0.000353594
0.000353744
0.000353903
0.000354075
0.000354267
0.000354477
0.00035471
0.000354968
0.000355253
0.000355565
0.000355903
0.000356266
0.00035665
0.000357051
0.000357467
0.000357893
0.000358325
0.00035876
0.000359193
0.000359623
0.000360046
0.00036046
0.000360865
0.000361258
0.00036164
0.00036201
0.000362368
0.000362714
0.000363048
0.000363372
0.000363685
0.000363989
0.000364285
0.000364574
0.000364859
0.00036514
0.000365419
0.000365698
0.000365977
0.000366258
0.000366541
0.000366825
0.00036711
0.000367394
0.000367675
0.000367951
0.000368219
0.000368476
0.00036872
0.000368948
0.000369158
0.000369348
0.000369518
0.000369666
0.000369794
0.000369901
0.000369987
0.000370055
0.000370109
0.000370151
0.000370186
0.000370216
0.000370242
0.000370268
0.000370295
0.000370322
0.000370351
0.00037038
0.000370409
0.000370437
0.000370462
0.000370481
0.000370493
0.000370495
0.000370482
0.000370453
0.000370404
0.000370332
0.000370233
0.000370105
0.000369945
0.000369752
0.000369525
0.000369262
0.000368962
0.000368626
0.000368252
0.000367842
0.000367393
0.000366907
0.000366383
0.00036582
0.000365218
0.000364577
0.000363897
0.000363178
0.000362421
0.000361625
0.000360786
0.000359898
0.000358945
0.000357902
0.000356728
0.00035536
0.000353713
0.00035167
0.000349083
0.000345773
0.000341524
0.000336088
0.000329174
0.000320443
0.000309484
0.00029579
0.000278686
0.000257167
0.000229341
0.000190596
0.000128552
3.13468e-05
2.09691e-05
9.16187e-05
0.000154219
0.000203355
0.000242077
0.000272602
0.000296449
0.000314757
0.000328457
0.000338358
0.000345184
0.000349581
0.000352114
0.000353258
0.000353392
0.000352801
0.000351678
0.000350131
0.000348407
0.000346644
0.000344944
0.000343375
0.000341979
0.00034078
0.000339785
0.000338992
0.000338388
0.000337958
0.000337681
0.000337535
0.000337501
0.000337556
0.000337683
0.000337864
0.000338086
0.000338335
0.0003386
0.000338873
0.000339148
0.000339418
0.00033968
0.000339934
0.000340184
0.000340434
0.000340687
0.000340948
0.000341222
0.000341511
0.00034182
0.00034215
0.000342503
0.000342878
0.000343276
0.000343695
0.000344132
0.000344585
0.000345049
0.000345522
0.000346
0.00034648
0.000346959
0.000347436
0.000347909
0.000348376
0.000348835
0.000349285
0.000349725
0.000350152
0.000350564
0.000350959
0.000351334
0.000351687
0.000352014
0.000352313
0.000352583
0.000352823
0.000353035
0.000353222
0.00035339
0.000353546
0.000353695
0.000353845
0.000354003
0.000354176
0.000354367
0.000354577
0.00035481
0.000355068
0.000355353
0.000355665
0.000356003
0.000356366
0.00035675
0.000357152
0.000357568
0.000357994
0.000358426
0.000358861
0.000359295
0.000359724
0.000360148
0.000360562
0.000360967
0.000361361
0.000361744
0.000362114
0.000362472
0.000362818
0.000363153
0.000363476
0.000363789
0.000364093
0.000364389
0.000364679
0.000364963
0.000365245
0.000365524
0.000365803
0.000366082
0.000366363
0.000366646
0.00036693
0.000367215
0.000367498
0.00036778
0.000368056
0.000368324
0.000368581
0.000368825
0.000369053
0.000369262
0.000369453
0.000369622
0.000369771
0.000369898
0.000370005
0.000370091
0.00037016
0.000370213
0.000370256
0.00037029
0.00037032
0.000370346
0.000370372
0.000370398
0.000370426
0.000370454
0.000370483
0.000370512
0.00037054
0.000370564
0.000370584
0.000370596
0.000370597
0.000370585
0.000370556
0.000370507
0.000370434
0.000370335
0.000370207
0.000370047
0.000369854
0.000369627
0.000369363
0.000369064
0.000368727
0.000368354
0.000367943
0.000367494
0.000367008
0.000366484
0.00036592
0.000365318
0.000364677
0.000363996
0.000363278
0.00036252
0.000361724
0.000360885
0.000359997
0.000359044
0.000358001
0.000356826
0.000355459
0.000353811
0.000351768
0.000349182
0.000345872
0.000341624
0.000336187
0.000329274
0.000320542
0.000309583
0.000295887
0.000278781
0.000257258
0.000229426
0.00019067
0.000128603
3.1352e-05
2.62962e-05
0.000105576
0.000174235
0.000227744
0.000269781
0.000302903
0.00032881
0.000348734
0.00036365
0.000374387
0.000381693
0.000386258
0.000388715
0.000389616
0.000389419
0.000388477
0.000387036
0.000385242
0.000383288
0.000381335
0.000379484
0.000377799
0.000376316
0.000375052
0.000374008
0.000373177
0.000372544
0.000372089
0.000371792
0.000371629
0.000371579
0.000371621
0.000371736
0.000371906
0.000372116
0.000372355
0.00037261
0.000372874
0.000373139
0.000373401
0.000373656
0.000373905
0.000374153
0.000374404
0.00037466
0.000374928
0.00037521
0.00037551
0.000375831
0.000376176
0.000376544
0.000376937
0.000377353
0.000377791
0.000378249
0.000378723
0.000379212
0.000379711
0.000380218
0.000380729
0.000381243
0.000381757
0.000382268
0.000382776
0.000383278
0.000383773
0.000384258
0.000384731
0.000385189
0.00038563
0.000386051
0.000386448
0.00038682
0.000387163
0.000387475
0.000387755
0.000388007
0.000388233
0.000388437
0.000388627
0.000388807
0.000388985
0.000389166
0.000389356
0.000389557
0.000389769
0.000389997
0.000390243
0.000390508
0.000390795
0.000391101
0.000391427
0.000391771
0.000392131
0.000392504
0.000392888
0.00039328
0.000393677
0.000394077
0.000394479
0.00039488
0.00039528
0.000395676
0.000396068
0.000396455
0.000396836
0.000397211
0.000397579
0.00039794
0.000398294
0.000398641
0.00039898
0.000399314
0.000399641
0.000399963
0.000400281
0.000400596
0.000400908
0.000401218
0.000401528
0.000401835
0.000402142
0.000402446
0.000402748
0.000403044
0.000403334
0.000403614
0.000403884
0.000404141
0.000404382
0.000404607
0.000404814
0.000405002
0.000405171
0.000405321
0.000405451
0.000405561
0.000405654
0.000405733
0.000405801
0.00040586
0.000405914
0.000405964
0.000406011
0.000406057
0.000406102
0.000406146
0.00040619
0.000406231
0.000406269
0.000406303
0.000406329
0.000406347
0.000406353
0.000406345
0.000406318
0.000406272
0.000406201
0.000406105
0.000405979
0.000405823
0.000405634
0.000405412
0.000405155
0.000404863
0.000404535
0.000404172
0.000403773
0.000403338
0.000402867
0.000402362
0.000401822
0.00040125
0.000400647
0.000400017
0.000399363
0.000398692
0.000398006
0.00039731
0.000396604
0.000395882
0.000395125
0.000394303
0.000393363
0.000392231
0.000390799
0.00038893
0.000386449
0.000383141
0.000378739
0.000372909
0.000365227
0.000355141
0.000341914
0.000324524
0.000301411
0.000269788
0.000223701
0.000149632
3.80227e-05
2.62914e-05
0.000105536
0.00017418
0.000227689
0.000269738
0.000302879
0.000328807
0.000348751
0.000363685
0.000374436
0.000381755
0.00038633
0.000388795
0.000389703
0.000389512
0.000388574
0.000387137
0.000385347
0.000383395
0.000381444
0.000379594
0.000377909
0.000376426
0.000375161
0.000374117
0.000373286
0.000372652
0.000372198
0.0003719
0.000371737
0.000371687
0.000371729
0.000371844
0.000372014
0.000372225
0.000372463
0.000372719
0.000372983
0.000373249
0.000373511
0.000373766
0.000374016
0.000374264
0.000374515
0.000374772
0.000375039
0.000375322
0.000375622
0.000375944
0.000376288
0.000376656
0.000377049
0.000377466
0.000377904
0.000378362
0.000378837
0.000379325
0.000379825
0.000380332
0.000380843
0.000381357
0.000381871
0.000382383
0.000382891
0.000383393
0.000383888
0.000384373
0.000384846
0.000385305
0.000385746
0.000386167
0.000386564
0.000386935
0.000387278
0.00038759
0.000387871
0.000388123
0.000388348
0.000388553
0.000388742
0.000388923
0.0003891
0.000389281
0.000389471
0.000389672
0.000389884
0.000390112
0.000390358
0.000390623
0.000390909
0.000391216
0.000391542
0.000391886
0.000392246
0.00039262
0.000393004
0.000393395
0.000393793
0.000394194
0.000394596
0.000394997
0.000395397
0.000395793
0.000396186
0.000396573
0.000396954
0.000397329
0.000397698
0.000398059
0.000398413
0.00039876
0.0003991
0.000399433
0.000399761
0.000400083
0.000400401
0.000400716
0.000401028
0.000401338
0.000401647
0.000401955
0.000402262
0.000402566
0.000402867
0.000403163
0.000403453
0.000403734
0.000404003
0.00040426
0.000404502
0.000404726
0.000404933
0.000405122
0.000405291
0.00040544
0.000405571
0.000405681
0.000405773
0.000405852
0.00040592
0.000405979
0.000406033
0.000406082
0.000406129
0.000406175
0.00040622
0.000406264
0.000406308
0.000406349
0.000406387
0.00040642
0.000406447
0.000406465
0.00040647
0.000406462
0.000406436
0.000406389
0.000406318
0.000406222
0.000406096
0.00040594
0.000405751
0.000405529
0.000405272
0.000404979
0.000404651
0.000404288
0.000403888
0.000403453
0.000402982
0.000402477
0.000401937
0.000401364
0.000400761
0.000400131
0.000399477
0.000398805
0.000398119
0.000397424
0.000396717
0.000395994
0.000395238
0.000394415
0.000393476
0.000392343
0.000390912
0.000389043
0.000386563
0.000383255
0.000378853
0.000373023
0.00036534
0.000355253
0.000342025
0.000324632
0.000301516
0.000269887
0.000223787
0.000149691
3.80279e-05
3.08988e-05
0.000117754
0.000190786
0.000246734
0.000290128
0.00032398
0.00035026
0.000370362
0.000385336
0.000396027
0.000403168
0.000407436
0.000409471
0.000409865
0.000409131
0.000407677
0.000405801
0.000403693
0.000401468
0.000399315
0.000397324
0.000395546
0.000394004
0.000392704
0.000391637
0.000390789
0.000390139
0.000389666
0.000389347
0.000389159
0.000389079
0.000389088
0.000389167
0.000389299
0.000389471
0.00038967
0.000389886
0.000390111
0.00039034
0.000390566
0.000390789
0.00039101
0.000391234
0.000391464
0.000391705
0.000391959
0.000392231
0.000392524
0.00039284
0.00039318
0.000393545
0.000393936
0.000394352
0.00039479
0.000395249
0.000395727
0.000396221
0.000396728
0.000397245
0.000397771
0.000398302
0.000398836
0.000399371
0.000399905
0.000400436
0.000400962
0.000401479
0.000401986
0.000402479
0.000402956
0.000403413
0.000403847
0.000404256
0.000404637
0.000404987
0.000405305
0.000405592
0.000405853
0.000406091
0.00040631
0.000406517
0.000406715
0.000406911
0.000407106
0.000407305
0.000407505
0.000407711
0.000407926
0.000408151
0.000408389
0.000408641
0.000408907
0.000409186
0.000409479
0.000409786
0.000410104
0.000410433
0.000410773
0.000411121
0.000411479
0.000411843
0.000412214
0.000412591
0.000412972
0.000413356
0.000413743
0.00041413
0.000414516
0.000414902
0.000415284
0.000415662
0.000416036
0.000416404
0.000416766
0.000417123
0.000417474
0.000417819
0.000418158
0.000418492
0.000418822
0.000419147
0.000419466
0.000419781
0.000420089
0.000420391
0.000420684
0.000420969
0.000421243
0.000421505
0.000421754
0.00042199
0.00042221
0.000422415
0.000422604
0.000422776
0.000422931
0.000423068
0.000423188
0.000423295
0.000423391
0.000423478
0.000423558
0.000423632
0.000423702
0.000423769
0.000423832
0.000423892
0.000423949
0.000424002
0.00042405
0.000424092
0.000424125
0.000424149
0.00042416
0.000424157
0.000424136
0.000424096
0.000424034
0.000423947
0.000423834
0.000423693
0.000423522
0.00042332
0.000423088
0.000422823
0.000422527
0.000422198
0.000421838
0.000421447
0.000421026
0.000420577
0.000420102
0.000419606
0.000419094
0.000418574
0.000418053
0.000417545
0.00041706
0.000416612
0.000416211
0.000415862
0.000415563
0.000415295
0.000415025
0.000414694
0.000414213
0.000413461
0.000412274
0.000410434
0.000407651
0.000403537
0.000397564
0.000389011
0.000376891
0.000359818
0.000335709
0.00030105
0.000249048
0.000165926
4.38333e-05
3.08941e-05
0.000117711
0.000190727
0.000246677
0.000290086
0.000323959
0.000350262
0.000370385
0.000385378
0.000396084
0.000403237
0.000407513
0.000409556
0.000409956
0.000409227
0.000407778
0.000405905
0.0004038
0.000401579
0.000399427
0.000397437
0.00039566
0.000394119
0.000392818
0.000391751
0.000390902
0.000390252
0.000389779
0.00038946
0.000389271
0.000389191
0.0003892
0.000389279
0.000389411
0.000389583
0.000389782
0.000389998
0.000390224
0.000390453
0.00039068
0.000390903
0.000391124
0.000391349
0.000391579
0.00039182
0.000392075
0.000392347
0.00039264
0.000392956
0.000393296
0.000393662
0.000394053
0.000394468
0.000394907
0.000395366
0.000395844
0.000396338
0.000396846
0.000397363
0.000397889
0.00039842
0.000398955
0.00039949
0.000400024
0.000400556
0.000401081
0.000401599
0.000402106
0.000402599
0.000403076
0.000403533
0.000403967
0.000404376
0.000404757
0.000405107
0.000405425
0.000405713
0.000405973
0.000406211
0.00040643
0.000406637
0.000406835
0.00040703
0.000407226
0.000407424
0.000407625
0.00040783
0.000408045
0.00040827
0.000408509
0.00040876
0.000409026
0.000409306
0.000409599
0.000409905
0.000410223
0.000410553
0.000410893
0.000411242
0.000411599
0.000411964
0.000412336
0.000412713
0.000413094
0.000413479
0.000413865
0.000414253
0.00041464
0.000415025
0.000415407
0.000415786
0.000416159
0.000416528
0.00041689
0.000417247
0.000417598
0.000417943
0.000418282
0.000418616
0.000418946
0.00041927
0.00041959
0.000419904
0.000420213
0.000420514
0.000420808
0.000421092
0.000421366
0.000421628
0.000421878
0.000422113
0.000422334
0.000422539
0.000422727
0.0004229
0.000423055
0.000423191
0.000423311
0.000423418
0.000423514
0.000423601
0.000423681
0.000423755
0.000423825
0.000423891
0.000423954
0.000424015
0.000424071
0.000424124
0.000424172
0.000424213
0.000424247
0.00042427
0.000424281
0.000424278
0.000424257
0.000424217
0.000424155
0.000424068
0.000423955
0.000423813
0.000423642
0.000423441
0.000423208
0.000422943
0.000422646
0.000422318
0.000421957
0.000421566
0.000421145
0.000420696
0.000420221
0.000419725
0.000419212
0.000418691
0.000418171
0.000417662
0.000417178
0.000416729
0.000416328
0.000415979
0.000415679
0.000415412
0.000415142
0.00041481
0.00041433
0.000413578
0.000412391
0.000410551
0.000407768
0.000403654
0.000397679
0.000389125
0.000377004
0.000359929
0.000335818
0.000301155
0.000249139
0.00016599
4.38388e-05
3.48223e-05
0.000128247
0.000204578
0.000261876
0.000305511
0.000338957
0.0003645
0.000383755
0.000397911
0.000407861
0.000414319
0.000417908
0.00041923
0.000418867
0.000417363
0.000415174
0.000412647
0.000410009
0.000407383
0.000404914
0.00040269
0.000400749
0.000399097
0.000397723
0.000396607
0.000395722
0.000395041
0.000394537
0.000394184
0.000393957
0.000393834
0.000393795
0.000393822
0.000393899
0.000394013
0.000394153
0.000394312
0.00039448
0.000394653
0.000394828
0.000395001
0.000395178
0.000395362
0.000395557
0.000395766
0.000395993
0.000396241
0.000396512
0.000396807
0.000397129
0.000397476
0.00039785
0.00039825
0.000398673
0.000399119
0.000399585
0.00040007
0.00040057
0.000401084
0.000401609
0.000402144
0.000402685
0.00040323
0.000403778