/*--------------------------------*- C++ -*----------------------------------*\
  =========                 |
  \\      /  F ield         | OpenFOAM: The Open Source CFD Toolbox
   \\    /   O peration     | Website:  https://openfoam.org
    \\  /    A nd           | Version:  8
     \\/     M anipulation  |
\*---------------------------------------------------------------------------*/
FoamFile
{
    version     2.0;
    format      ascii;
    class       surfaceScalarField;
    location    "200";
    object      phi;
}
// * * * * * * * * * * * * * * * * * * * * * * * * * * * * * * * * * * * * * //

dimensions      [1 0 -1 0 0 0 0];

internalField   nonuniform List<scalar> 
114370
(
-5.50323e-09
-9.58796e-13
5.50417e-09
2.17181e-09
-3.25209e-12
-7.69604e-09
1.73185e-08
-2.32203e-12
-1.51545e-08
3.49479e-08
-8.37414e-13
-1.76347e-08
5.28821e-08
2.20489e-13
-1.7935e-08
6.99376e-08
7.06598e-13
-1.70553e-08
8.54598e-08
8.22285e-13
-1.55219e-08
9.91055e-08
7.29259e-13
-1.36456e-08
1.10729e-07
5.44572e-13
-1.16232e-08
1.20316e-07
3.26086e-13
-9.58721e-09
1.27945e-07
1.19277e-13
-7.62873e-09
1.33756e-07
-4.3782e-14
-5.81014e-09
1.37928e-07
-1.56826e-13
-4.17209e-09
1.40667e-07
-2.30503e-13
-2.73831e-09
1.42186e-07
-2.77028e-13
-1.51908e-09
1.42701e-07
-3.04359e-13
-5.13876e-10
1.42415e-07
-3.15949e-13
2.85595e-10
1.41521e-07
-3.12631e-13
8.94931e-10
1.40186e-07
-2.95033e-13
1.33473e-09
1.3856e-07
-2.64553e-13
1.62682e-09
1.36766e-07
-2.24997e-13
1.79372e-09
1.34908e-07
-1.82541e-13
1.8581e-09
1.33067e-07
-1.43154e-13
1.84182e-09
1.31302e-07
-1.09595e-13
1.7651e-09
1.29656e-07
-8.09193e-14
1.64593e-09
1.28156e-07
-5.50328e-14
1.49971e-09
1.26817e-07
-3.11795e-14
1.33906e-09
1.25643e-07
-1.04119e-14
1.17386e-09
1.24631e-07
5.67026e-15
1.01148e-09
1.23774e-07
1.65788e-14
8.57066e-10
1.2306e-07
2.34325e-14
7.13953e-10
1.22476e-07
2.80643e-14
5.84027e-10
1.22008e-07
3.17269e-14
4.68098e-10
1.21642e-07
3.45149e-14
3.6622e-10
1.21364e-07
3.58077e-14
2.77947e-10
1.21161e-07
3.51144e-14
2.02519e-10
1.21022e-07
3.26236e-14
1.38991e-10
1.20936e-07
2.91652e-14
8.63181e-11
1.20892e-07
2.57114e-14
4.34051e-11
1.20883e-07
2.28535e-14
9.20041e-12
1.209e-07
2.06097e-14
-1.72106e-11
1.20937e-07
1.85546e-14
-3.69272e-11
1.20988e-07
1.61423e-14
-5.13418e-11
1.2105e-07
1.30633e-14
-6.18475e-11
1.2112e-07
9.39568e-15
-6.97591e-11
1.21196e-07
5.55947e-15
-7.62702e-11
1.21278e-07
2.11102e-15
-8.24031e-11
1.21367e-07
-5.09085e-16
-8.89615e-11
1.21464e-07
-2.13611e-15
-9.64919e-11
1.21569e-07
-2.92824e-15
-1.0526e-10
1.21684e-07
-3.24494e-15
-1.15248e-10
1.2181e-07
-3.47491e-15
-1.26172e-10
1.21948e-07
-3.92583e-15
-1.37525e-10
1.22096e-07
-4.74602e-15
-1.48645e-10
1.22255e-07
-5.93262e-15
-1.58791e-10
1.22422e-07
-7.38772e-15
-1.67231e-10
1.22596e-07
-8.98404e-15
-1.73332e-10
1.22772e-07
-1.06309e-14
-1.76628e-10
1.22949e-07
-1.22997e-14
-1.76878e-10
1.23123e-07
-1.40082e-14
-1.7408e-10
1.23292e-07
-1.57884e-14
-1.68468e-10
1.23452e-07
-1.76517e-14
-1.60468e-10
1.23603e-07
-1.95618e-14
-1.50631e-10
1.23742e-07
-2.14253e-14
-1.39558e-10
1.2387e-07
-2.31102e-14
-1.27813e-10
1.23986e-07
-2.448e-14
-1.15848e-10
1.2409e-07
-2.54214e-14
-1.03959e-10
1.24182e-07
-2.5869e-14
-9.22578e-11
1.24263e-07
-2.58096e-14
-8.06847e-11
1.24332e-07
-2.5275e-14
-6.90539e-11
1.24389e-07
-2.43308e-14
-5.71208e-11
1.24434e-07
-2.30729e-14
-4.46667e-11
1.24465e-07
-2.16015e-14
-3.15807e-11
1.24483e-07
-2.00099e-14
-1.79177e-11
1.24487e-07
-1.83709e-14
-3.91837e-12
1.24477e-07
-1.67102e-14
1.01008e-11
1.24454e-07
-1.50139e-14
2.36455e-11
1.24418e-07
-1.32655e-14
3.59267e-11
1.24372e-07
-1.14758e-14
4.60069e-11
1.24319e-07
-9.69388e-15
5.28869e-11
1.24263e-07
-7.98578e-15
5.55797e-11
1.2421e-07
-6.41093e-15
5.31811e-11
1.24165e-07
-5.02364e-15
4.4938e-11
1.24135e-07
-3.8416e-15
3.0325e-11
1.24126e-07
-2.82131e-15
9.1497e-12
1.24144e-07
-1.94566e-15
-1.81929e-11
1.24195e-07
-1.13359e-15
-5.08581e-11
1.24282e-07
-2.55827e-16
-8.78453e-11
1.2441e-07
7.19133e-16
-1.27928e-10
1.2458e-07
1.73979e-15
-1.69661e-10
1.24791e-07
2.66921e-15
-2.11463e-10
1.25043e-07
3.32817e-15
-2.51711e-10
1.25332e-07
3.53854e-15
-2.88837e-10
1.25653e-07
3.16485e-15
-3.21428e-10
1.26002e-07
2.13776e-15
-3.483e-10
1.2637e-07
4.6128e-16
-3.68567e-10
1.26752e-07
-1.78489e-15
-3.81675e-10
1.2714e-07
-4.45997e-15
-3.87418e-10
1.27526e-07
-7.37965e-15
-3.85922e-10
1.27903e-07
-1.03506e-14
-3.77613e-10
1.28266e-07
-1.31985e-14
-3.63169e-10
1.2861e-07
-1.57955e-14
-3.43457e-10
1.2893e-07
-1.80758e-14
-3.19466e-10
1.29222e-07
-2.00301e-14
-2.92251e-10
1.29485e-07
-2.16928e-14
-2.62871e-10
1.29717e-07
-2.3109e-14
-2.32348e-10
1.29919e-07
-2.43105e-14
-2.01632e-10
1.30091e-07
-2.52989e-14
-1.71581e-10
1.30234e-07
-2.60371e-14
-1.42951e-10
1.3035e-07
-2.64524e-14
-1.16391e-10
1.30443e-07
-2.6457e-14
-9.24495e-11
1.30514e-07
-2.59815e-14
-7.15746e-11
1.30568e-07
-2.5012e-14
-5.41168e-11
1.30609e-07
-2.36038e-14
-4.03273e-11
1.30639e-07
-2.18688e-14
-3.03541e-11
1.30664e-07
-1.99539e-14
-2.4234e-11
1.30686e-07
-1.80291e-14
-2.18847e-11
1.30709e-07
-1.62647e-14
-2.30974e-11
1.30736e-07
-1.47847e-14
-2.7532e-11
1.30771e-07
-1.3619e-14
-3.47161e-11
1.30815e-07
-1.27033e-14
-4.40509e-11
1.3087e-07
-1.19477e-14
-5.48235e-11
1.30936e-07
-1.13141e-14
-6.62292e-11
1.31014e-07
-1.08265e-14
-7.74036e-11
1.31101e-07
-1.05112e-14
-8.74676e-11
1.31197e-07
-1.033e-14
-9.55812e-11
1.31298e-07
-1.01872e-14
-1.01002e-10
1.31401e-07
-9.99261e-15
-1.03145e-10
1.31503e-07
-9.6997e-15
-1.01631e-10
1.31599e-07
-9.27453e-15
-9.63279e-11
1.31687e-07
-8.64011e-15
-8.73696e-11
1.31762e-07
-7.69322e-15
-7.51566e-11
1.31822e-07
-6.40366e-15
-6.03322e-11
1.31866e-07
-4.90806e-15
-4.37315e-11
1.31893e-07
-3.48721e-15
-2.63009e-11
1.31902e-07
-2.44307e-15
-8.9864e-12
1.31894e-07
-1.98532e-15
7.44155e-12
1.31872e-07
-2.1461e-15
2.23387e-11
1.31837e-07
-2.82145e-15
3.50976e-11
1.31791e-07
-3.84076e-15
4.52692e-11
1.31739e-07
-4.94285e-15
5.2616e-11
1.31681e-07
-5.77215e-15
5.71033e-11
1.31622e-07
-5.9299e-15
5.88733e-11
1.31564e-07
-5.1077e-15
5.82079e-11
1.31509e-07
-3.21153e-15
5.54856e-11
1.31457e-07
-4.18192e-16
5.11391e-11
1.31412e-07
2.86445e-15
4.56205e-11
1.31372e-07
6.10925e-15
3.93746e-11
1.3134e-07
8.76001e-15
3.2825e-11
1.31313e-07
1.03185e-14
2.63709e-11
1.31293e-07
1.04741e-14
2.03909e-11
1.31277e-07
9.24491e-15
1.52509e-11
1.31266e-07
7.04132e-15
1.13083e-11
1.31257e-07
4.56808e-15
8.90996e-12
1.31248e-07
2.5816e-15
8.38277e-12
1.31238e-07
1.60662e-15
1.00158e-11
1.31224e-07
1.74762e-15
1.40389e-11
1.31203e-07
2.66609e-15
2.06001e-11
1.31173e-07
3.74014e-15
2.97483e-11
1.31132e-07
4.38192e-15
4.14246e-11
1.31076e-07
4.39226e-15
5.54642e-11
1.31004e-07
4.15145e-15
7.16105e-11
1.30915e-07
4.44965e-15
8.95381e-11
1.30806e-07
5.96324e-15
1.08884e-10
1.30676e-07
8.68241e-15
1.29282e-10
1.30526e-07
1.17481e-14
1.50402e-10
1.30353e-07
1.39334e-14
1.7199e-10
1.30159e-07
1.44946e-14
1.93892e-10
1.29943e-07
1.37553e-14
2.16088e-10
1.29704e-07
1.29023e-14
2.38704e-10
1.29442e-07
1.30857e-14
2.62019e-10
1.29155e-07
1.4531e-14
2.86464e-10
1.28842e-07
1.64097e-14
3.12625e-10
1.28501e-07
1.76663e-14
3.41243e-10
1.28127e-07
1.81423e-14
3.73237e-10
1.27717e-07
1.90201e-14
4.09748e-10
1.27265e-07
2.20234e-14
4.52216e-10
1.26762e-07
2.78904e-14
5.02509e-10
1.26198e-07
3.54976e-14
5.63132e-10
1.25561e-07
4.27397e-14
6.37539e-10
1.2483e-07
4.86404e-14
7.30586e-10
1.2398e-07
5.46133e-14
8.49128e-10
1.22977e-07
6.32335e-14
1.00273e-09
1.21772e-07
7.54714e-14
1.2045e-09
1.203e-07
8.94799e-14
1.47184e-09
1.18472e-07
1.02653e-13
1.82723e-09
1.16174e-07
1.14595e-13
2.29846e-09
1.13255e-07
1.27007e-13
2.91842e-09
1.09531e-07
1.40292e-13
3.72366e-09
1.04778e-07
1.51373e-13
4.75169e-09
9.87419e-08
1.55533e-13
6.03615e-09
9.11422e-08
1.48098e-13
7.59937e-09
8.17013e-08
1.21429e-13
9.44074e-09
7.01827e-08
6.73421e-14
1.15185e-08
5.64644e-08
9.3137e-15
1.37182e-08
4.06761e-08
7.47593e-14
1.57879e-08
2.34974e-08
5.91829e-13
1.7178e-08
6.87526e-09
2.20899e-12
1.66213e-08
-3.84141e-09
5.96719e-12
1.07161e-08
1.21739e-11
-3.84652e-09
-5.51685e-09
5.51672e-09
2.1706e-09
-7.68208e-09
1.73233e-08
-1.51492e-08
3.49524e-08
-1.76351e-08
5.28843e-08
-1.7938e-08
6.9938e-08
-1.70591e-08
8.5459e-08
-1.55256e-08
9.9104e-08
-1.36485e-08
1.10727e-07
-1.16254e-08
1.20314e-07
-9.58862e-09
1.27943e-07
-7.62947e-09
1.33754e-07
-5.81036e-09
1.37926e-07
-4.17193e-09
1.40665e-07
-2.73789e-09
1.42184e-07
-1.51848e-09
1.42698e-07
-5.13161e-10
1.42413e-07
2.86359e-10
1.41518e-07
8.95683e-10
1.40184e-07
1.33542e-09
1.38557e-07
1.62743e-09
1.36764e-07
1.79422e-09
1.34906e-07
1.85849e-09
1.33064e-07
1.84211e-09
1.31299e-07
1.76529e-09
1.29653e-07
1.64604e-09
1.28153e-07
1.49976e-09
1.26814e-07
1.33906e-09
1.25641e-07
1.17382e-09
1.24629e-07
1.0114e-09
1.23772e-07
8.56967e-10
1.23058e-07
7.13841e-10
1.22474e-07
5.83909e-10
1.22006e-07
4.6798e-10
1.21639e-07
3.66105e-10
1.21361e-07
2.77835e-10
1.21159e-07
2.02412e-10
1.2102e-07
1.38892e-10
1.20933e-07
8.62309e-11
1.2089e-07
4.33312e-11
1.20881e-07
9.13954e-12
1.20898e-07
-1.72603e-11
1.20935e-07
-3.69681e-11
1.20986e-07
-5.13754e-11
1.21048e-07
-6.18742e-11
1.21118e-07
-6.97781e-11
1.21194e-07
-7.62805e-11
1.21276e-07
-8.24043e-11
1.21365e-07
-8.89538e-11
1.21461e-07
-9.64765e-11
1.21567e-07
-1.05239e-10
1.21682e-07
-1.15222e-10
1.21808e-07
-1.26142e-10
1.21946e-07
-1.37493e-10
1.22094e-07
-1.4861e-10
1.22253e-07
-1.58752e-10
1.2242e-07
-1.67189e-10
1.22593e-07
-1.73286e-10
1.2277e-07
-1.7658e-10
1.22947e-07
-1.76827e-10
1.23121e-07
-1.74027e-10
1.23289e-07
-1.68414e-10
1.2345e-07
-1.60413e-10
1.236e-07
-1.50576e-10
1.2374e-07
-1.39504e-10
1.23867e-07
-1.27758e-10
1.23983e-07
-1.15794e-10
1.24087e-07
-1.03905e-10
1.2418e-07
-9.22027e-11
1.2426e-07
-8.06289e-11
1.24329e-07
-6.89974e-11
1.24387e-07
-5.7064e-11
1.24431e-07
-4.461e-11
1.24463e-07
-3.15248e-11
1.24481e-07
-1.78632e-11
1.24485e-07
-3.86607e-12
1.24475e-07
1.01498e-11
1.24451e-07
2.36901e-11
1.24415e-07
3.59659e-11
1.24369e-07
4.60397e-11
1.24316e-07
5.29126e-11
1.24261e-07
5.55973e-11
1.24207e-07
5.31898e-11
1.24162e-07
4.49369e-11
1.24132e-07
3.03134e-11
1.24123e-07
9.12697e-12
1.24141e-07
-1.8227e-11
1.24192e-07
-5.09036e-11
1.2428e-07
-8.7902e-11
1.24408e-07
-1.27995e-10
1.24578e-07
-1.69737e-10
1.24789e-07
-2.11544e-10
1.25041e-07
-2.51793e-10
1.2533e-07
-2.88917e-10
1.25651e-07
-3.21501e-10
1.25999e-07
-3.48363e-10
1.26368e-07
-3.68616e-10
1.2675e-07
-3.81709e-10
1.27137e-07
-3.87435e-10
1.27523e-07
-3.8592e-10
1.27901e-07
-3.77594e-10
1.28264e-07
-3.63133e-10
1.28607e-07
-3.43404e-10
1.28927e-07
-3.19399e-10
1.29219e-07
-2.92172e-10
1.29482e-07
-2.62782e-10
1.29715e-07
-2.32252e-10
1.29916e-07
-2.01531e-10
1.30088e-07
-1.71479e-10
1.30231e-07
-1.42849e-10
1.30347e-07
-1.16291e-10
1.3044e-07
-9.23545e-11
1.30512e-07
-7.1485e-11
1.30566e-07
-5.4033e-11
1.30606e-07
-4.02493e-11
1.30637e-07
-3.02813e-11
1.30661e-07
-2.4166e-11
1.30683e-07
-2.18213e-11
1.30706e-07
-2.30387e-11
1.30734e-07
-2.74783e-11
1.30768e-07
-3.46682e-11
1.30812e-07
-4.40099e-11
1.30867e-07
-5.47904e-11
1.30934e-07
-6.62042e-11
1.31011e-07
-7.73862e-11
1.31098e-07
-8.74565e-11
1.31194e-07
-9.55744e-11
1.31295e-07
-1.00998e-10
1.31398e-07
-1.0314e-10
1.315e-07
-1.01624e-10
1.31597e-07
-9.6316e-11
1.31684e-07
-8.7352e-11
1.31759e-07
-7.51332e-11
1.3182e-07
-6.03032e-11
1.31863e-07
-4.36975e-11
1.3189e-07
-2.62624e-11
1.31899e-07
-8.94457e-12
1.31891e-07
7.48471e-12
1.31869e-07
2.23807e-11
1.31834e-07
3.51362e-11
1.31788e-07
4.53033e-11
1.31736e-07
5.26456e-11
1.31679e-07
5.71293e-11
1.3162e-07
5.88968e-11
1.31561e-07
5.82298e-11
1.31506e-07
5.55067e-11
1.31455e-07
5.11598e-11
1.31409e-07
4.56403e-11
1.3137e-07
3.93924e-11
1.31337e-07
3.28392e-11
1.3131e-07
2.63803e-11
1.3129e-07
2.03954e-11
1.31274e-07
1.52514e-11
1.31263e-07
1.13063e-11
1.31254e-07
8.90707e-12
1.31245e-07
8.38021e-12
1.31235e-07
1.00146e-11
1.31221e-07
1.40398e-11
1.312e-07
2.06034e-11
1.3117e-07
2.97542e-11
1.31129e-07
4.14328e-11
1.31073e-07
5.54747e-11
1.31001e-07
7.16233e-11
1.30911e-07
8.9553e-11
1.30802e-07
1.089e-10
1.30673e-07
1.29297e-10
1.30522e-07
1.50415e-10
1.3035e-07
1.71995e-10
1.30156e-07
1.93888e-10
1.2994e-07
2.16073e-10
1.29701e-07
2.38677e-10
1.29438e-07
2.61982e-10
1.29152e-07
2.86417e-10
1.28839e-07
3.12567e-10
1.28497e-07
3.41171e-10
1.28124e-07
3.73152e-10
1.27714e-07
4.0965e-10
1.27261e-07
4.52109e-10
1.26759e-07
5.02394e-10
1.26195e-07
5.63006e-10
1.25557e-07
6.37397e-10
1.24827e-07
7.30422e-10
1.23977e-07
8.48936e-10
1.22974e-07
1.00251e-09
1.2177e-07
1.20424e-09
1.20298e-07
1.47155e-09
1.1847e-07
1.82692e-09
1.16172e-07
2.29817e-09
1.13253e-07
2.91817e-09
1.09529e-07
3.72351e-09
1.04778e-07
4.75169e-09
9.87416e-08
6.03641e-09
9.11422e-08
7.60001e-09
8.17014e-08
9.44189e-09
7.01828e-08
1.15202e-08
5.64645e-08
1.372e-08
4.06768e-08
1.57886e-08
2.34994e-08
1.71751e-08
6.87917e-09
1.66119e-08
-3.83815e-09
1.0701e-08
-3.85513e-09
8.65309e-09
2.39024e-12
-3.12689e-09
2.14057e-08
8.97944e-13
-2.04355e-08
3.55818e-08
-1.18289e-13
-2.93222e-08
5.07647e-08
-4.51742e-13
-3.28137e-08
6.60326e-08
-4.84643e-13
-3.32005e-08
8.06676e-08
-4.22637e-13
-3.16887e-08
9.4177e-08
-3.37143e-13
-2.90302e-08
1.06252e-07
-2.49281e-13
-2.57199e-08
1.16728e-07
-1.72978e-13
-2.2099e-08
1.25552e-07
-1.17652e-13
-1.84102e-08
1.3275e-07
-8.11487e-14
-1.4827e-08
1.38411e-07
-5.6265e-14
-1.14715e-08
1.42664e-07
-3.75211e-14
-8.42491e-09
1.45661e-07
-2.18642e-14
-5.7363e-09
1.47571e-07
-8.09679e-15
-3.42859e-09
1.48561e-07
2.78576e-15
-1.50458e-09
1.48799e-07
8.82102e-15
4.68801e-11
1.48449e-07
9.90405e-15
1.24462e-09
1.47663e-07
8.41969e-15
2.12067e-09
1.46573e-07
6.90905e-15
2.71656e-09
1.45292e-07
6.22196e-15
3.07418e-09
1.43915e-07
5.31519e-15
3.23582e-09
1.42514e-07
2.99289e-15
3.24242e-09
1.41147e-07
-5.04081e-16
3.13195e-09
1.39855e-07
-3.69207e-15
2.93826e-09
1.38664e-07
-5.35052e-15
2.6903e-09
1.37591e-07
-5.6716e-15
2.41183e-09
1.36644e-07
-5.70198e-15
2.12151e-09
1.35822e-07
-6.19199e-15
1.83333e-09
1.35122e-07
-7.03806e-15
1.55718e-09
1.34536e-07
-7.52208e-15
1.29958e-09
1.34056e-07
-7.04286e-15
1.06438e-09
1.3367e-07
-5.64467e-15
8.53457e-10
1.33369e-07
-3.95737e-15
6.67283e-10
1.33142e-07
-2.67823e-15
5.05381e-10
1.32978e-07
-2.09075e-15
3.66662e-10
1.32867e-07
-1.95925e-15
2.49646e-10
1.32801e-07
-1.7877e-15
1.52604e-10
1.32771e-07
-1.21061e-15
7.36389e-11
1.32769e-07
-2.27222e-16
1.0817e-11
1.3279e-07
8.31497e-16
-3.78545e-11
1.32827e-07
1.55312e-15
-7.46421e-11
1.32878e-07
1.69666e-15
-1.02021e-10
1.32938e-07
1.29928e-15
-1.22462e-10
1.33007e-07
6.17279e-16
-1.38321e-10
1.33082e-07
-3.22085e-17
-1.51741e-10
1.33164e-07
-4.11365e-16
-1.6455e-10
1.33254e-07
-4.37169e-16
-1.78161e-10
1.33351e-07
-1.72341e-16
-1.93502e-10
1.33456e-07
2.20865e-16
-2.10976e-10
1.33571e-07
5.60439e-16
-2.30457e-10
1.33697e-07
7.19011e-16
-2.51337e-10
1.33832e-07
6.57632e-16
-2.72614e-10
1.33976e-07
4.25713e-16
-2.93025e-10
1.34128e-07
1.28392e-16
-3.11196e-10
1.34287e-07
-1.19379e-16
-3.25812e-10
1.34449e-07
-2.35825e-16
-3.35769e-10
1.34613e-07
-1.93894e-16
-3.40304e-10
1.34775e-07
-2.29159e-17
-3.39075e-10
1.34933e-07
2.13657e-16
-3.32192e-10
1.35084e-07
4.42261e-16
-3.20181e-10
1.35228e-07
6.04594e-16
-3.03897e-10
1.35362e-07
6.74553e-16
-2.84398e-10
1.35485e-07
6.61327e-16
-2.62787e-10
1.35597e-07
5.98769e-16
-2.40067e-10
1.35698e-07
5.29326e-16
-2.17014e-10
1.35788e-07
4.92625e-16
-1.94091e-10
1.35867e-07
5.14225e-16
-1.71426e-10
1.35935e-07
6.02012e-16
-1.48847e-10
1.35992e-07
7.48641e-16
-1.25971e-10
1.36037e-07
9.40668e-16
-1.02338e-10
1.3607e-07
1.16386e-15
-7.75651e-11
1.3609e-07
1.40537e-15
-5.14971e-11
1.36097e-07
1.6464e-15
-2.43179e-11
1.36089e-07
1.86077e-15
3.40841e-12
1.36069e-07
2.01256e-15
3.08259e-11
1.36035e-07
2.07248e-15
5.67295e-11
1.35992e-07
2.03678e-15
7.95282e-11
1.3594e-07
1.90551e-15
9.74148e-11
1.35885e-07
1.6679e-15
1.08514e-10
1.35829e-07
1.30998e-15
1.11036e-10
1.35779e-07
8.25282e-16
1.03422e-10
1.35739e-07
2.23766e-16
8.44773e-11
1.35716e-07
-4.74352e-16
5.34975e-11
1.35715e-07
-1.24828e-15
1.04243e-11
1.35741e-07
-2.06691e-15
-4.39535e-11
1.35798e-07
-2.89877e-15
-1.0817e-10
1.3589e-07
-3.70217e-15
-1.80285e-10
1.3602e-07
-4.41271e-15
-2.57866e-10
1.36189e-07
-4.96765e-15
-3.381e-10
1.36395e-07
-5.33182e-15
-4.17951e-10
1.36638e-07
-5.5021e-15
-4.94342e-10
1.36914e-07
-5.49736e-15
-5.64336e-10
1.37218e-07
-5.33986e-15
-6.25315e-10
1.37544e-07
-5.04728e-15
-6.75122e-10
1.37888e-07
-4.63134e-15
-7.1217e-10
1.38242e-07
-4.09772e-15
-7.35503e-10
1.38599e-07
-3.44985e-15
-7.44814e-10
1.38954e-07
-2.69188e-15
-7.40411e-10
1.393e-07
-1.8337e-15
-7.23153e-10
1.39631e-07
-8.94713e-16
-6.94356e-10
1.39943e-07
9.47751e-17
-6.55673e-10
1.40233e-07
1.08993e-15
-6.08983e-10
1.40497e-07
2.03672e-15
-5.56275e-10
1.40733e-07
2.87997e-15
-4.99545e-10
1.40942e-07
3.57938e-15
-4.40718e-10
1.41122e-07
4.11468e-15
-3.81591e-10
1.41274e-07
4.48251e-15
-3.23791e-10
1.414e-07
4.69402e-15
-2.6876e-10
1.41501e-07
4.77582e-15
-2.17747e-10
1.4158e-07
4.76736e-15
-1.71811e-10
1.41641e-07
4.70643e-15
-1.31821e-10
1.41685e-07
4.61105e-15
-9.84616e-11
1.41717e-07
4.47307e-15
-7.22189e-11
1.4174e-07
4.27044e-15
-5.33756e-11
1.41758e-07
3.98227e-15
-4.19925e-11
1.41774e-07
3.59031e-15
-3.78923e-11
1.41791e-07
3.07525e-15
-4.06453e-11
1.41813e-07
2.43363e-15
-4.95609e-11
1.41842e-07
1.70459e-15
-6.36898e-11
1.4188e-07
9.74116e-16
-8.18363e-11
1.41928e-07
3.3661e-16
-1.02588e-10
1.41986e-07
-1.57538e-16
-1.24363e-10
1.42054e-07
-5.0928e-16
-1.4548e-10
1.42131e-07
-7.28779e-16
-1.6425e-10
1.42215e-07
-7.97847e-16
-1.7908e-10
1.42302e-07
-6.87077e-16
-1.88591e-10
1.42391e-07
-3.99937e-16
-1.91723e-10
1.42477e-07
2.63561e-17
-1.87829e-10
1.42558e-07
5.81422e-16
-1.76736e-10
1.42629e-07
1.32901e-15
-1.58779e-10
1.42689e-07
2.35662e-15
-1.34782e-10
1.42735e-07
3.64225e-15
-1.06002e-10
1.42765e-07
4.97251e-15
-7.40262e-11
1.42779e-07
6.01351e-15
-4.06306e-11
1.42778e-07
6.48785e-15
-7.59726e-12
1.42762e-07
6.31273e-15
2.35216e-11
1.42733e-07
5.59909e-15
5.14029e-11
1.42693e-07
4.52863e-15
7.49481e-11
1.42644e-07
3.25297e-15
9.34223e-11
1.4259e-07
1.91098e-15
1.06476e-10
1.42533e-07
7.08116e-16
1.14125e-10
1.42475e-07
-8.91452e-17
1.16698e-10
1.42419e-07
-2.76842e-16
1.14766e-10
1.42365e-07
1.5061e-16
1.09061e-10
1.42316e-07
9.68563e-16
1.00401e-10
1.42272e-07
1.83674e-15
8.96367e-11
1.42234e-07
2.45969e-15
7.76025e-11
1.42201e-07
2.66493e-15
6.51017e-11
1.42175e-07
2.37935e-15
5.29005e-11
1.42153e-07
1.58768e-15
4.17358e-11
1.42136e-07
3.58893e-16
3.23228e-11
1.42122e-07
-1.08921e-15
2.53581e-11
1.42109e-07
-2.38983e-15
2.15095e-11
1.42096e-07
-3.15591e-15
2.1394e-11
1.4208e-07
-3.18466e-15
2.55428e-11
1.42059e-07
-2.59563e-15
3.43604e-11
1.42032e-07
-1.79193e-15
4.80845e-11
1.41995e-07
-1.24386e-15
6.67573e-11
1.41946e-07
-1.21022e-15
9.02135e-11
1.41883e-07
-1.55505e-15
1.1809e-10
1.41804e-07
-1.79533e-15
1.49855e-10
1.41709e-07
-1.40547e-15
1.84862e-10
1.41595e-07
-2.2886e-16
2.22409e-10
1.41462e-07
1.28971e-15
2.61812e-10
1.4131e-07
2.28818e-15
3.02479e-10
1.41138e-07
2.0424e-15
3.43974e-10
1.40945e-07
5.16618e-16
3.86074e-10
1.40732e-07
-1.5455e-15
4.28803e-10
1.40498e-07
-3.13126e-15
4.72461e-10
1.40242e-07
-3.70636e-15
5.17624e-10
1.39963e-07
-3.5857e-15
5.6515e-10
1.39659e-07
-3.59476e-15
6.16175e-10
1.39328e-07
-4.27446e-15
6.72116e-10
1.38967e-07
-5.31105e-15
7.3471e-10
1.3857e-07
-5.70747e-15
8.06099e-10
1.38133e-07
-4.6194e-15
8.88994e-10
1.37648e-07
-2.16621e-15
9.86962e-10
1.37106e-07
5.3523e-16
1.10489e-09
1.36494e-07
2.26244e-15
1.24965e-09
1.35793e-07
2.8005e-15
1.4311e-09
1.34978e-07
3.23445e-15
1.66326e-09
1.34015e-07
5.0272e-15
1.96579e-09
1.32854e-07
8.79422e-15
2.36561e-09
1.31427e-07
1.42067e-14
2.89838e-09
1.29644e-07
2.11851e-14
3.60958e-09
1.27387e-07
3.08019e-14
4.55472e-09
1.24507e-07
4.45953e-14
5.79794e-09
1.20821e-07
6.33349e-14
7.40851e-09
1.16118e-07
8.72815e-14
9.45413e-09
1.10163e-07
1.17328e-13
1.19903e-08
1.02716e-07
1.53562e-13
1.50442e-08
9.35647e-08
1.88701e-13
1.85908e-08
8.25638e-08
1.95087e-13
2.25175e-08
6.97137e-08
1.06493e-13
2.65663e-08
5.52645e-08
-1.84281e-13
3.02353e-08
3.98614e-08
-7.47781e-13
3.25787e-08
2.46142e-08
-1.35821e-12
3.1864e-08
1.05726e-08
-8.8227e-13
2.47481e-08
5.21866e-12
6.73878e-09
8.6509e-09
-3.13999e-09
2.14019e-08
-2.04381e-08
3.55812e-08
-2.93222e-08
5.07655e-08
-3.28131e-08
6.60338e-08
-3.31998e-08
8.06686e-08
-3.1688e-08
9.41776e-08
-2.90297e-08
1.06252e-07
-2.57195e-08
1.16728e-07
-2.20988e-08
1.25551e-07
-1.841e-08
1.32748e-07
-1.48269e-08
1.38409e-07
-1.14714e-08
1.42661e-07
-8.42491e-09
1.45658e-07
-5.73634e-09
1.47567e-07
-3.42868e-09
1.48557e-07
-1.50472e-09
1.48795e-07
4.66956e-11
1.48445e-07
1.2444e-09
1.47659e-07
2.12043e-09
1.46569e-07
2.71632e-09
1.45288e-07
3.07394e-09
1.4391e-07
3.23559e-09
1.4251e-07
3.24221e-09
1.41143e-07
3.13178e-09
1.39851e-07
2.93812e-09
1.3866e-07
2.69019e-09
1.37587e-07
2.41174e-09
1.3664e-07
2.12144e-09
1.35818e-07
1.83328e-09
1.35118e-07
1.55715e-09
1.34532e-07
1.29955e-09
1.34052e-07
1.06436e-09
1.33667e-07
8.53442e-10
1.33366e-07
6.6727e-10
1.33138e-07
5.0537e-10
1.32974e-07
3.66654e-10
1.32863e-07
2.49641e-10
1.32797e-07
1.52602e-10
1.32767e-07
7.36406e-11
1.32765e-07
1.08214e-11
1.32786e-07
-3.78483e-11
1.32824e-07
-7.46349e-11
1.32874e-07
-1.02013e-10
1.32935e-07
-1.22453e-10
1.33003e-07
-1.38311e-10
1.33079e-07
-1.5173e-10
1.33161e-07
-1.64537e-10
1.3325e-07
-1.78144e-10
1.33347e-07
-1.93482e-10
1.33453e-07
-2.10952e-10
1.33568e-07
-2.30428e-10
1.33693e-07
-2.51303e-10
1.33828e-07
-2.72576e-10
1.33972e-07
-2.92983e-10
1.34124e-07
-3.11152e-10
1.34283e-07
-3.25767e-10
1.34445e-07
-3.35726e-10
1.34609e-07
-3.40264e-10
1.34771e-07
-3.39041e-10
1.34929e-07
-3.32165e-10
1.3508e-07
-3.20163e-10
1.35224e-07
-3.03889e-10
1.35357e-07
-2.84398e-10
1.35481e-07
-2.62796e-10
1.35593e-07
-2.40083e-10
1.35694e-07
-2.17035e-10
1.35784e-07
-1.94115e-10
1.35863e-07
-1.71452e-10
1.35931e-07
-1.48872e-10
1.35988e-07
-1.25994e-10
1.36033e-07
-1.02359e-10
1.36066e-07
-7.75844e-11
1.36086e-07
-5.15142e-11
1.36092e-07
-2.43333e-11
1.36085e-07
3.39409e-12
1.36064e-07
3.08118e-11
1.36031e-07
5.67151e-11
1.35988e-07
7.95126e-11
1.35936e-07
9.73974e-11
1.35881e-07
1.08494e-10
1.35825e-07
1.11014e-10
1.35775e-07
1.03395e-10
1.35735e-07
8.44467e-11
1.35712e-07
5.34623e-11
1.35711e-07
1.03844e-11
1.35737e-07
-4.39978e-11
1.35794e-07
-1.08218e-10
1.35886e-07
-1.80337e-10
1.36016e-07
-2.5792e-10
1.36185e-07
-3.38155e-10
1.36392e-07
-4.18005e-10
1.36634e-07
-4.94393e-10
1.3691e-07
-5.64383e-10
1.37214e-07
-6.25355e-10
1.37541e-07
-6.75154e-10
1.37884e-07
-7.12192e-10
1.38238e-07
-7.35515e-10
1.38596e-07
-7.44816e-10
1.3895e-07
-7.40403e-10
1.39296e-07
-7.23137e-10
1.39627e-07
-6.94332e-10
1.39939e-07
-6.55644e-10
1.40229e-07
-6.08952e-10
1.40493e-07
-5.56242e-10
1.40729e-07
-4.99514e-10
1.40938e-07
-4.4069e-10
1.41118e-07
-3.81568e-10
1.4127e-07
-3.23774e-10
1.41396e-07
-2.6875e-10
1.41497e-07
-2.17744e-10
1.41576e-07
-1.71814e-10
1.41637e-07
-1.3183e-10
1.41681e-07
-9.84731e-11
1.41713e-07
-7.22313e-11
1.41736e-07
-5.33871e-11
1.41754e-07
-4.20015e-11
1.4177e-07
-3.78979e-11
1.41787e-07
-4.0647e-11
1.41809e-07
-4.95596e-11
1.41838e-07
-6.3687e-11
1.41876e-07
-8.18341e-11
1.41924e-07
-1.02588e-10
1.41982e-07
-1.24368e-10
1.4205e-07
-1.4549e-10
1.42127e-07
-1.64266e-10
1.42211e-07
-1.79102e-10
1.42298e-07
-1.88617e-10
1.42387e-07
-1.91752e-10
1.42473e-07
-1.87858e-10
1.42554e-07
-1.76763e-10
1.42625e-07
-1.58801e-10
1.42685e-07
-1.34799e-10
1.42731e-07
-1.06014e-10
1.42761e-07
-7.40339e-11
1.42775e-07
-4.06339e-11
1.42774e-07
-7.5963e-12
1.42758e-07
2.35261e-11
1.42729e-07
5.14101e-11
1.42689e-07
7.4957e-11
1.4264e-07
9.34327e-11
1.42586e-07
1.06488e-10
1.42529e-07
1.1414e-10
1.42471e-07
1.16716e-10
1.42415e-07
1.14788e-10
1.42361e-07
1.09086e-10
1.42312e-07
1.0043e-10
1.42268e-07
8.96688e-11
1.42229e-07
7.76375e-11
1.42197e-07
6.51385e-11
1.4217e-07
5.29385e-11
1.42149e-07
4.17743e-11
1.42132e-07
3.23615e-11
1.42117e-07
2.53966e-11
1.42104e-07
2.15479e-11
1.42091e-07
2.14325e-11
1.42076e-07
2.55819e-11
1.42055e-07
3.44007e-11
1.42027e-07
4.81266e-11
1.4199e-07
6.68018e-11
1.41941e-07
9.02609e-11
1.41878e-07
1.18141e-10
1.418e-07
1.4991e-10
1.41704e-07
1.8492e-10
1.4159e-07
2.22468e-10
1.41458e-07
2.61871e-10
1.41305e-07
3.02536e-10
1.41133e-07
3.44027e-10
1.40941e-07
3.8612e-10
1.40727e-07
4.28843e-10
1.40493e-07
4.72491e-10
1.40238e-07
5.17646e-10
1.39959e-07
5.65163e-10
1.39655e-07
6.16178e-10
1.39324e-07
6.72108e-10
1.38962e-07
7.34692e-10
1.38565e-07
8.06072e-10
1.38128e-07
8.88959e-10
1.37644e-07
9.86918e-10
1.37102e-07
1.10483e-09
1.36489e-07
1.24958e-09
1.35788e-07
1.43101e-09
1.34974e-07
1.66313e-09
1.34011e-07
1.96561e-09
1.32849e-07
2.36538e-09
1.31423e-07
2.89809e-09
1.2964e-07
3.60924e-09
1.27384e-07
4.55434e-09
1.24504e-07
5.79754e-09
1.20818e-07
7.4081e-09
1.16115e-07
9.45375e-09
1.1016e-07
1.199e-08
1.02714e-07
1.50441e-08
9.35626e-08
1.8591e-08
8.25615e-08
2.25183e-08
6.97109e-08
2.65682e-08
5.52607e-08
3.02388e-08
3.98574e-08
3.25838e-08
2.46135e-08
3.18694e-08
1.05871e-08
2.47504e-08
6.73112e-09
1.49502e-08
-1.00578e-12
-1.80849e-08
2.9094e-08
3.84137e-13
-3.45826e-08
4.27256e-08
1.46544e-13
-4.29542e-08
5.62035e-08
-3.9468e-14
-4.62928e-08
6.93373e-08
-1.18656e-13
-4.63353e-08
8.18153e-08
-1.44474e-13
-4.41675e-08
9.33476e-08
-1.4946e-13
-4.05632e-08
1.0372e-07
-1.41805e-13
-3.60925e-08
1.12804e-07
-1.28124e-13
-3.11831e-08
1.2055e-07
-1.11914e-13
-2.61564e-08
1.26974e-07
-9.5943e-14
-2.12504e-08
1.32138e-07
-8.22373e-14
-1.66358e-08
1.36142e-07
-7.07158e-14
-1.24284e-08
1.39105e-07
-5.94707e-14
-8.69905e-09
1.41159e-07
-4.72723e-14
-5.48202e-09
1.42438e-07
-3.52111e-14
-2.7834e-09
1.43074e-07
-2.53298e-14
-5.88159e-10
1.43192e-07
-1.81791e-14
1.12641e-09
1.42916e-07
-1.28529e-14
2.39695e-09
1.42355e-07
-8.51778e-15
3.27823e-09
1.41601e-07
-5.1382e-15
3.82793e-09
1.40733e-07
-3.11607e-15
4.10435e-09
1.39812e-07
-2.50002e-15
4.16383e-09
1.38885e-07
-2.60915e-15
4.05849e-09
1.37989e-07
-2.51719e-15
3.83461e-09
1.37147e-07
-1.80771e-15
3.53174e-09
1.36377e-07
-9.52632e-16
3.18232e-09
1.35686e-07
-6.56172e-16
2.8119e-09
1.3508e-07
-1.07756e-15
2.43973e-09
1.34557e-07
-1.75384e-15
2.0796e-09
1.34116e-07
-2.03174e-15
1.74082e-09
1.33751e-07
-1.55665e-15
1.42917e-09
1.33457e-07
-5.07254e-16
1.14777e-09
1.33226e-07
5.92178e-16
8.97869e-10
1.33052e-07
1.27948e-15
6.79372e-10
1.32928e-07
1.4454e-15
4.91294e-10
1.32845e-07
1.33619e-15
3.32033e-10
1.32798e-07
1.31963e-15
1.9954e-10
1.3278e-07
1.61276e-15
9.14306e-11
1.32786e-07
2.1512e-15
5.13433e-12
1.3281e-07
2.64198e-15
-6.22375e-11
1.32849e-07
2.76727e-15
-1.13898e-10
1.329e-07
2.37774e-15
-1.53135e-10
1.32961e-07
1.55419e-15
-1.83231e-10
1.3303e-07
5.60175e-16
-2.07328e-10
1.33107e-07
-3.118e-16
-2.28279e-10
1.33191e-07
-8.69639e-16
-2.48495e-10
1.33282e-07
-1.05973e-15
-2.69812e-10
1.33382e-07
-9.68345e-16
-2.93382e-10
1.33491e-07
-7.59585e-16
-3.19627e-10
1.33609e-07
-5.9646e-16
-3.48246e-10
1.33735e-07
-5.9696e-16
-3.78292e-10
1.33871e-07
-8.02666e-16
-4.08309e-10
1.34015e-07
-1.1752e-15
-4.36519e-10
1.34164e-07
-1.62934e-15
-4.61043e-10
1.34319e-07
-2.07189e-15
-4.8013e-10
1.34475e-07
-2.43089e-15
-4.92366e-10
1.34632e-07
-2.66941e-15
-4.96834e-10
1.34786e-07
-2.78826e-15
-4.93214e-10
1.34936e-07
-2.81547e-15
-4.818e-10
1.35079e-07
-2.79264e-15
-4.63435e-10
1.35214e-07
-2.75499e-15
-4.39372e-10
1.35341e-07
-2.71967e-15
-4.11094e-10
1.35458e-07
-2.68906e-15
-3.80094e-10
1.35566e-07
-2.65694e-15
-3.4768e-10
1.35664e-07
-2.6134e-15
-3.14814e-10
1.35752e-07
-2.5474e-15
-2.82016e-10
1.3583e-07
-2.4492e-15
-2.4935e-10
1.35897e-07
-2.31482e-15
-2.16491e-10
1.35954e-07
-2.14588e-15
-1.82868e-10
1.36e-07
-1.94792e-15
-1.4785e-10
1.36033e-07
-1.72239e-15
-1.10961e-10
1.36054e-07
-1.46877e-15
-7.20806e-11
1.36061e-07
-1.1927e-15
-3.15976e-11
1.36055e-07
-9.05148e-16
9.48272e-12
1.36036e-07
-6.24398e-16
4.96488e-11
1.36006e-07
-3.74821e-16
8.69638e-11
1.35967e-07
-1.73355e-16
1.19067e-10
1.35921e-07
-2.40384e-17
1.43366e-10
1.35872e-07
7.16918e-17
1.57246e-10
1.35825e-07
1.17767e-16
1.58291e-10
1.35784e-07
1.26383e-16
1.44484e-10
1.35754e-07
1.2077e-16
1.14396e-10
1.3574e-07
1.22637e-16
6.733e-11
1.35747e-07
1.59388e-16
3.52405e-12
1.35779e-07
2.31615e-16
-7.58484e-11
1.35839e-07
3.00019e-16
-1.68781e-10
1.35931e-07
3.25077e-16
-2.72447e-10
1.36057e-07
2.72962e-16
-3.83323e-10
1.36216e-07
1.27842e-16
-4.97385e-10
1.36408e-07
-1.1367e-16
-6.10337e-10
1.36632e-07
-4.44175e-16
-7.17869e-10
1.36884e-07
-8.39035e-16
-8.15914e-10
1.37159e-07
-1.25559e-15
-9.00878e-10
1.37454e-07
-1.642e-15
-9.69839e-10
1.37762e-07
-1.94762e-15
-1.02068e-09
1.38079e-07
-2.13546e-15
-1.05215e-09
1.38398e-07
-2.19058e-15
-1.06392e-09
1.38714e-07
-2.11997e-15
-1.05648e-09
1.39022e-07
-1.95054e-15
-1.03107e-09
1.39317e-07
-1.72166e-15
-9.89552e-10
1.39596e-07
-1.47601e-15
-9.34243e-10
1.39855e-07
-1.2495e-15
-8.6776e-10
1.40092e-07
-1.06504e-15
-7.92865e-10
1.40304e-07
-9.24747e-16
-7.12336e-10
1.40493e-07
-8.0708e-16
-6.28853e-10
1.40656e-07
-6.76149e-16
-5.44927e-10
1.40795e-07
-5.0165e-16
-4.62847e-10
1.40911e-07
-2.76512e-16
-3.84653e-10
1.41006e-07
-1.31483e-17
-3.12128e-10
1.41081e-07
2.73694e-16
-2.46791e-10
1.41139e-07
5.67941e-16
-1.89906e-10
1.41183e-07
8.35927e-16
-1.42466e-10
1.41216e-07
1.02108e-15
-1.05187e-10
1.41241e-07
1.07429e-15
-7.84831e-11
1.41262e-07
1.00035e-15
-6.24441e-11
1.41281e-07
8.54229e-16
-5.68064e-11
1.41301e-07
6.85555e-16
-6.09337e-11
1.41325e-07
4.9205e-16
-7.38062e-11
1.41356e-07
2.47396e-16
-9.40243e-11
1.41394e-07
-2.48272e-17
-1.19832e-10
1.4144e-07
-2.36122e-16
-1.49165e-10
1.41496e-07
-3.16692e-16
-1.79729e-10
1.41559e-07
-3.07414e-16
-2.09105e-10
1.4163e-07
-3.3953e-16
-2.34889e-10
1.41706e-07
-4.95602e-16
-2.54845e-10
1.41784e-07
-6.99953e-16
-2.67066e-10
1.41863e-07
-7.66697e-16
-2.70125e-10
1.41938e-07
-5.61907e-16
-2.63197e-10
1.42008e-07
-1.16564e-16
-2.46143e-10
1.42068e-07
4.24484e-16
-2.19528e-10
1.42118e-07
9.49483e-16
-1.84594e-10
1.42156e-07
1.46042e-15
-1.4316e-10
1.42179e-07
2.00355e-15
-9.74735e-11