/*--------------------------------*- C++ -*----------------------------------*\
  =========                 |
  \\      /  F ield         | OpenFOAM: The Open Source CFD Toolbox
   \\    /   O peration     | Website:  https://openfoam.org
    \\  /    A nd           | Version:  8
     \\/     M anipulation  |
\*---------------------------------------------------------------------------*/
FoamFile
{
    version     2.0;
    format      ascii;
    class       volScalarField;
    location    "200";
    object      T;
}
// * * * * * * * * * * * * * * * * * * * * * * * * * * * * * * * * * * * * * //

dimensions      [0 0 0 1 0 0 0];

internalField   nonuniform List<scalar> 
46000
(
306.821
304.387
303.025
302.453
302.15
301.98
301.886
301.844
301.837
301.856
301.895
301.949
302.017
302.094
302.179
302.27
302.364
302.457
302.551
302.645
302.738
302.831
302.922
303.011
303.097
303.18
303.26
303.335
303.406
303.473
303.536
303.595
303.651
303.702
303.75
303.795
303.837
303.876
303.913
303.947
303.979
304.009
304.038
304.065
304.09
304.115
304.138
304.16
304.181
304.201
304.22
304.237
304.254
304.27
304.285
304.299
304.312
304.325
304.336
304.348
304.359
304.369
304.379
304.388
304.398
304.407
304.415
304.424
304.432
304.44
304.448
304.455
304.463
304.47
304.477
304.484
304.491
304.497
304.504
304.51
304.516
304.522
304.528
304.533
304.537
304.541
304.544
304.545
304.546
304.546
304.545
304.542
304.539
304.536
304.531
304.526
304.521
304.515
304.51
304.504
304.499
304.494
304.489
304.485
304.481
304.478
304.476
304.474
304.472
304.471
304.471
304.471
304.471
304.472
304.473
304.474
304.475
304.476
304.478
304.479
304.48
304.48
304.481
304.481
304.482
304.482
304.481
304.481
304.481
304.481
304.48
304.48
304.481
304.481
304.481
304.482
304.483
304.484
304.485
304.486
304.488
304.489
304.49
304.492
304.493
304.494
304.495
304.496
304.497
304.497
304.497
304.498
304.498
304.498
304.498
304.497
304.497
304.497
304.497
304.497
304.497
304.498
304.499
304.5
304.501
304.503
304.505
304.508
304.511
304.514
304.518
304.522
304.527
304.532
304.538
304.544
304.551
304.559
304.567
304.577
304.587
304.598
304.612
304.627
304.646
304.668
304.696
304.733
304.779
304.84
304.921
305.027
305.169
305.36
305.621
305.986
306.509
307.268
308.307
309.138
306.82
304.387
303.025
302.453
302.15
301.98
301.887
301.844
301.837
301.856
301.895
301.95
302.017
302.094
302.179
302.27
302.364
302.457
302.551
302.645
302.739
302.831
302.922
303.011
303.098
303.18
303.26
303.335
303.406
303.474
303.537
303.596
303.651
303.702
303.75
303.795
303.837
303.876
303.913
303.947
303.979
304.009
304.038
304.065
304.091
304.115
304.138
304.16
304.181
304.201
304.22
304.238
304.254
304.27
304.285
304.299
304.312
304.325
304.337
304.348
304.359
304.369
304.379
304.389
304.398
304.407
304.416
304.424
304.432
304.44
304.448
304.455
304.463
304.47
304.477
304.484
304.491
304.498
304.504
304.51
304.517
304.522
304.528
304.533
304.537
304.541
304.544
304.546
304.546
304.546
304.545
304.543
304.54
304.536
304.531
304.526
304.521
304.516
304.51
304.504
304.499
304.494
304.489
304.485
304.482
304.479
304.476
304.474
304.473
304.472
304.471
304.471
304.472
304.472
304.473
304.474
304.475
304.477
304.478
304.479
304.48
304.481
304.481
304.482
304.482
304.482
304.482
304.481
304.481
304.481
304.481
304.481
304.481
304.481
304.482
304.482
304.483
304.484
304.485
304.487
304.488
304.489
304.491
304.492
304.493
304.494
304.495
304.496
304.497
304.497
304.498
304.498
304.498
304.498
304.498
304.498
304.497
304.497
304.497
304.497
304.497
304.498
304.499
304.5
304.501
304.503
304.505
304.508
304.511
304.514
304.518
304.522
304.527
304.532
304.538
304.545
304.552
304.559
304.568
304.577
304.587
304.599
304.612
304.627
304.646
304.668
304.697
304.733
304.779
304.841
304.921
305.027
305.169
305.36
305.621
305.986
306.509
307.268
308.307
309.139
301.942
300.59
300.074
299.856
299.766
299.741
299.754
299.791
299.845
299.913
299.992
300.079
300.173
300.273
300.377
300.484
300.594
300.704
300.813
300.92
301.024
301.124
301.221
301.314
301.403
301.487
301.566
301.641
301.712
301.779
301.841
301.9
301.955
302.007
302.055
302.101
302.144
302.185
302.223
302.26
302.295
302.328
302.359
302.39
302.418
302.446
302.473
302.498
302.522
302.546
302.568
302.589
302.609
302.629
302.647
302.665
302.682
302.699
302.714
302.729
302.744
302.758
302.772
302.785
302.798
302.81
302.822
302.834
302.846
302.857
302.867
302.878
302.888
302.898
302.907
302.916
302.925
302.934
302.942
302.95
302.958
302.965
302.971
302.977
302.982
302.986
302.99
302.992
302.994
302.994
302.994
302.993
302.991
302.989
302.986
302.983
302.98
302.976
302.973
302.97
302.967
302.965
302.963
302.962
302.961
302.961
302.961
302.962
302.964
302.966
302.968
302.97
302.973
302.976
302.979
302.983
302.986
302.989
302.992
302.995
302.997
302.999
303.001
303.003
303.005
303.006
303.007
303.008
303.009
303.01
303.011
303.013
303.014
303.015
303.017
303.018
303.02
303.022
303.024
303.026
303.027
303.029
303.031
303.032
303.033
303.034
303.035
303.036
303.036
303.037
303.037
303.036
303.036
303.036
303.035
303.035
303.034
303.034
303.033
303.033
303.033
303.033
303.033
303.034
303.035
303.036
303.037
303.039
303.04
303.042
303.045
303.048
303.05
303.054
303.057
303.061
303.065
303.07
303.076
303.081
303.088
303.096
303.106
303.118
303.132
303.152
303.177
303.21
303.255
303.315
303.394
303.501
303.643
303.833
304.087
304.429
304.884
305.456
306.046
306.343
301.942
300.59
300.074
299.856
299.766
299.742
299.754
299.791
299.846
299.914
299.992
300.079
300.173
300.273
300.377
300.484
300.594
300.704
300.813
300.92
301.024
301.125
301.222
301.314
301.403
301.487
301.567
301.642
301.712
301.779
301.841
301.9
301.955
302.007
302.055
302.101
302.144
302.185
302.224
302.26
302.295
302.328
302.36
302.39
302.419
302.446
302.473
302.498
302.522
302.546
302.568
302.589
302.61
302.629
302.648
302.665
302.682
302.699
302.714
302.73
302.744
302.758
302.772
302.785
302.798
302.811
302.823
302.834
302.846
302.857
302.868
302.878
302.888
302.898
302.907
302.917
302.926
302.934
302.943
302.951
302.958
302.965
302.972
302.977
302.982
302.987
302.99
302.993
302.994
302.995
302.994
302.993
302.992
302.989
302.986
302.983
302.98
302.977
302.973
302.97
302.968
302.965
302.964
302.962
302.962
302.961
302.962
302.963
302.964
302.966
302.968
302.971
302.973
302.976
302.98
302.983
302.986
302.989
302.992
302.995
302.997
303
303.002
303.003
303.005
303.006
303.008
303.009
303.01
303.011
303.012
303.013
303.014
303.015
303.017
303.019
303.02
303.022
303.024
303.026
303.028
303.029
303.031
303.032
303.034
303.035
303.035
303.036
303.037
303.037
303.037
303.037
303.036
303.036
303.036
303.035
303.035
303.034
303.034
303.033
303.033
303.033
303.034
303.034
303.035
303.036
303.037
303.039
303.041
303.043
303.045
303.048
303.051
303.054
303.058
303.061
303.066
303.07
303.076
303.082
303.089
303.097
303.106
303.118
303.133
303.152
303.177
303.21
303.255
303.315
303.395
303.501
303.643
303.833
304.088
304.43
304.885
305.457
306.047
306.344
299.121
299.007
298.938
298.91
298.912
298.935
298.974
299.024
299.084
299.153
299.23
299.313
299.402
299.496
299.593
299.694
299.798
299.902
300.007
300.109
300.21
300.307
300.4
300.49
300.575
300.656
300.733
300.805
300.873
300.937
300.997
301.053
301.106
301.156
301.204
301.248
301.29
301.33
301.368
301.404
301.438
301.471
301.502
301.532
301.561
301.589
301.615
301.641
301.666
301.689
301.712
301.734
301.755
301.775
301.794
301.812
301.83
301.847
301.863
301.879
301.894
301.909
301.924
301.938
301.952
301.965
301.978
301.99
302.002
302.014
302.026
302.037
302.047
302.058
302.068
302.078
302.087
302.096
302.105
302.113
302.121
302.128
302.135
302.141
302.145
302.15
302.153
302.155
302.156
302.157
302.156
302.155
302.154
302.151
302.149
302.146
302.143
302.141
302.138
302.136
302.134
302.133
302.132
302.132
302.133
302.134
302.135
302.137
302.14
302.143
302.146
302.15
302.154
302.158
302.162
302.166
302.17
302.174
302.178
302.181
302.184
302.187
302.189
302.191
302.193
302.195
302.197
302.198
302.199
302.201
302.202
302.204
302.205
302.207
302.209
302.211
302.213
302.215
302.217
302.219
302.221
302.223
302.224
302.226
302.227
302.228
302.228
302.229
302.229
302.229
302.229
302.228
302.228
302.227
302.227
302.226
302.225
302.225
302.224
302.224
302.223
302.223
302.224
302.224
302.225
302.225
302.226
302.228
302.229
302.231
302.233
302.235
302.237
302.24
302.243
302.246
302.249
302.253
302.257
302.262
302.268
302.275
302.283
302.294
302.308
302.327
302.352
302.386
302.432
302.495
302.578
302.688
302.834
303.026
303.276
303.6
304.008
304.484
304.946
305.217
299.121
299.007
298.938
298.91
298.912
298.935
298.974
299.024
299.085
299.154
299.23
299.313
299.402
299.496
299.594
299.694
299.798
299.902
300.007
300.109
300.21
300.307
300.401
300.49
300.575
300.656
300.733
300.805
300.873
300.937
300.997
301.054
301.107
301.157
301.204
301.248
301.29
301.33
301.368
301.404
301.438
301.471
301.502
301.532
301.561
301.589
301.616
301.641
301.666
301.69
301.712
301.734
301.755
301.775
301.794
301.812
301.83
301.847
301.863
301.879
301.895
301.91
301.924
301.938
301.952
301.965
301.978
301.991
302.003
302.014
302.026
302.037
302.048
302.058
302.068
302.078
302.088
302.097
302.105
302.114
302.121
302.129
302.135
302.141
302.146
302.15
302.153
302.155
302.157
302.157
302.157
302.156
302.154
302.152
302.149
302.146
302.144
302.141
302.138
302.136
302.134
302.133
302.133
302.132
302.133
302.134
302.135
302.138
302.14
302.143
302.147
302.15
302.154
302.158
302.162
302.166
302.17
302.174
302.178
302.181
302.184
302.187
302.19
302.192
302.194
302.195
302.197
302.198
302.2
302.201
302.203
302.204
302.206
302.207
302.209
302.211
302.213
302.215
302.217
302.219
302.221
302.223
302.224
302.226
302.227
302.228
302.229
302.229
302.229
302.229
302.229
302.229
302.228
302.228
302.227
302.226
302.226
302.225
302.224
302.224
302.224
302.224
302.224
302.224
302.225
302.226
302.227
302.228
302.23
302.231
302.233
302.235
302.238
302.24
302.243
302.246
302.25
302.253
302.258
302.263
302.268
302.275
302.283
302.294
302.308
302.327
302.352
302.386
302.433
302.495
302.578
302.689
302.835
303.026
303.277
303.601
304.009
304.484
304.947
305.218
298.379
298.429
298.46
298.487
298.517
298.552
298.593
298.641
298.696
298.756
298.823
298.896
298.974
299.057
299.144
299.234
299.327
299.422
299.518
299.612
299.705
299.795
299.882
299.966
300.046
300.121
300.193
300.261
300.325
300.385
300.441
300.494
300.544
300.591
300.635
300.677
300.717
300.754
300.79
300.824
300.857
300.888
300.918
300.947
300.975
301.002
301.027
301.052
301.076
301.099
301.121
301.142
301.162
301.182
301.2
301.218
301.236
301.252
301.268
301.284
301.299
301.314
301.329
301.343
301.356
301.369
301.382
301.395
301.407
301.419
301.43
301.441
301.452
301.462
301.473
301.482
301.492
301.501
301.51
301.518
301.525
301.532
301.538
301.544
301.548
301.552
301.554
301.556
301.557
301.557
301.556
301.555
301.553
301.551
301.548
301.546
301.543
301.541
301.538
301.537
301.536
301.535
301.535
301.536
301.537
301.539
301.541
301.544
301.548
301.552
301.556
301.56
301.565
301.57
301.574
301.579
301.583
301.587
301.591
301.595
301.598
301.601
301.604
301.606
301.608
301.61
301.611
301.613
301.614
301.616
301.617
301.619
301.621
301.623
301.624
301.627
301.629
301.631
301.633
301.635
301.637
301.638
301.64
301.641
301.642
301.643
301.644
301.644
301.644
301.644
301.643
301.643
301.642
301.641
301.64
301.639
301.639
301.638
301.637
301.637
301.636
301.636
301.637
301.637
301.638
301.638
301.639
301.641
301.642
301.644
301.646
301.647
301.65
301.652
301.654
301.657
301.66
301.663
301.667
301.671
301.676
301.682
301.69
301.7
301.714
301.733
301.76
301.797
301.846
301.913
302.002
302.119
302.271
302.466
302.716
303.028
303.406
303.83
304.248
304.574
298.379
298.429
298.46
298.487
298.517
298.552
298.593
298.641
298.696
298.757
298.824
298.896
298.974
299.057
299.144
299.234
299.327
299.422
299.518
299.612
299.705
299.795
299.882
299.966
300.046
300.122
300.193
300.261
300.325
300.385
300.441
300.494
300.544
300.591
300.635
300.677
300.717
300.755
300.79
300.825
300.857
300.889
300.919
300.947
300.975
301.002
301.028
301.052
301.076
301.099
301.121
301.142
301.162
301.182
301.201
301.219
301.236
301.253
301.269
301.284
301.3
301.314
301.329
301.343
301.356
301.37
301.383
301.395
301.407
301.419
301.43
301.441
301.452
301.463
301.473
301.483
301.492
301.501
301.51
301.518
301.525
301.532
301.538
301.544
301.548
301.552
301.555
301.556
301.557
301.557
301.557
301.555
301.553
301.551
301.549
301.546
301.543
301.541
301.539
301.537
301.536
301.535
301.535
301.536
301.537
301.539
301.542
301.545
301.548
301.552
301.556
301.561
301.565
301.57
301.575
301.579
301.584
301.588
301.592
301.595
301.598
301.601
301.604
301.606
301.608
301.61
301.612
301.613
301.615
301.616
301.618
301.619
301.621
301.623
301.625
301.627
301.629
301.631
301.633
301.635
301.637
301.639
301.64
301.642
301.643
301.643
301.644
301.644
301.644
301.644
301.643
301.643
301.642
301.641
301.64
301.64
301.639
301.638
301.637
301.637
301.637
301.637
301.637
301.637
301.638
301.639
301.64
301.641
301.642
301.644
301.646
301.648
301.65
301.652
301.655
301.657
301.66
301.663
301.667
301.671
301.676
301.682
301.69
301.7
301.714
301.734
301.76
301.797
301.847
301.913
302.002
302.119
302.271
302.467
302.716
303.029
303.406
303.831
304.249
304.575
298.215
298.248
298.276
298.303
298.331
298.362
298.397
298.437
298.482
298.532
298.588
298.649
298.716
298.787
298.862
298.941
299.023
299.107
299.193
299.278
299.362
299.444
299.523
299.599
299.673
299.742
299.808
299.87
299.929
299.984
300.036
300.085
300.131
300.174
300.215
300.253
300.29
300.325
300.358
300.39
300.42
300.449
300.477
300.504
300.53
300.555
300.579
300.602
300.625
300.646
300.667
300.687
300.706
300.724
300.742
300.759
300.775
300.791
300.807
300.822
300.836
300.85
300.864
300.878
300.891
300.904
300.916
300.928
300.94
300.951
300.962
300.973
300.983
300.994
301.003
301.013
301.022
301.031
301.039
301.047
301.054
301.06
301.066
301.071
301.075
301.078
301.08
301.081
301.081
301.081
301.08
301.078
301.076
301.073
301.071
301.068
301.065
301.063
301.061
301.06
301.06
301.06
301.06
301.062
301.063
301.066
301.069
301.073
301.077
301.082
301.086
301.091
301.096
301.101
301.106
301.111
301.116
301.12
301.124
301.128
301.131
301.134
301.136
301.138
301.14
301.142
301.143
301.145
301.146
301.148
301.149
301.151
301.153
301.155
301.157
301.159
301.161
301.163
301.165
301.167
301.169
301.17
301.172
301.173
301.174
301.174
301.175
301.175
301.174
301.174
301.173
301.172
301.172
301.171
301.17
301.169
301.168
301.167
301.166
301.166
301.166
301.166
301.166
301.166
301.167
301.168
301.169
301.17
301.172
301.173
301.175
301.177
301.179
301.181
301.183
301.185
301.188
301.19
301.193
301.197
301.201
301.207
301.215
301.225
301.24
301.26
301.289
301.329
301.383
301.456
301.552
301.676
301.835
302.037
302.288
302.593
302.952
303.348
303.746
304.108
298.215
298.248
298.276
298.303
298.331
298.362
298.397
298.437
298.482
298.532
298.588
298.649
298.716
298.787
298.863
298.941
299.023
299.107
299.193
299.278
299.362
299.444
299.523
299.6
299.673
299.742
299.808
299.87
299.929
299.984
300.036
300.085
300.131
300.174
300.215
300.254
300.29
300.325
300.358
300.39
300.42
300.449
300.477
300.504
300.53
300.555
300.579
300.603
300.625
300.647
300.667
300.687
300.706
300.725
300.742
300.759
300.776
300.792
300.807
300.822
300.837
300.851
300.864
300.878
300.891
300.904
300.916
300.928
300.94
300.951
300.962
300.973
300.984
300.994
301.004
301.013
301.022
301.031
301.039
301.047
301.054
301.061
301.066
301.071
301.075
301.078
301.08
301.081
301.082
301.081
301.08
301.078
301.076
301.073
301.071
301.068
301.066
301.064
301.062
301.061
301.06
301.06
301.06
301.062
301.064
301.066
301.07
301.073
301.077
301.082
301.087
301.092
301.097
301.102
301.107
301.111
301.116
301.12
301.124
301.128
301.131
301.134
301.136
301.139
301.141
301.142
301.144
301.145
301.147
301.148
301.15
301.151
301.153
301.155
301.157
301.159
301.161
301.163
301.165
301.167
301.169
301.171
301.172
301.173
301.174
301.175
301.175
301.175
301.175
301.174
301.174
301.173
301.172
301.171
301.17
301.169
301.168
301.167
301.167
301.166
301.166
301.166
301.166
301.167
301.167
301.168
301.169
301.171
301.172
301.174
301.175
301.177
301.179
301.181
301.183
301.186
301.188
301.191
301.194
301.197
301.202
301.207
301.215
301.225
301.24
301.261
301.289
301.329
301.384
301.456
301.552
301.676
301.836
302.037
302.288
302.594
302.952
303.349
303.747
304.109
298.177
298.192
298.208
298.226
298.246
298.269
298.295
298.326
298.361
298.402
298.448
298.498
298.554
298.615
298.679
298.747
298.819
298.892
298.967
299.043
299.118
299.191
299.262
299.331
299.397
299.46
299.519
299.576
299.629
299.679
299.726
299.77
299.811
299.851
299.888
299.923
299.956
299.987
300.017
300.046
300.074
300.1
300.126
300.151
300.175
300.198
300.22
300.241
300.262
300.282
300.301
300.319
300.336
300.353
300.37
300.385
300.401
300.415
300.43
300.444
300.457
300.47
300.483
300.496
300.508
300.52
300.532
300.543
300.554
300.565
300.576
300.586
300.596
300.606
300.615
300.624
300.633
300.641
300.649
300.656
300.662
300.668
300.673
300.677
300.68
300.683
300.684
300.685
300.684
300.683
300.682
300.68
300.677
300.674
300.672
300.669
300.667
300.665
300.663
300.662
300.662
300.663
300.664
300.666
300.668
300.672
300.675
300.68
300.684
300.689
300.694
300.7
300.705
300.71
300.715
300.72
300.725
300.729
300.733
300.736
300.739
300.742
300.744
300.746
300.748
300.749
300.751
300.752
300.753
300.754
300.756
300.757
300.759
300.761
300.763
300.765
300.767
300.769
300.771
300.773
300.775
300.776
300.778
300.778
300.779
300.779
300.78
300.779
300.779
300.778
300.777
300.776
300.775
300.774
300.773
300.772
300.771
300.771
300.77
300.77
300.77
300.77
300.77
300.771
300.771
300.772
300.774
300.775
300.776
300.778
300.779
300.781
300.783
300.785
300.787
300.789
300.791
300.793
300.795
300.798
300.802
300.807
300.815
300.826
300.842
300.864
300.896
300.94
301
301.08
301.183
301.316
301.484
301.692
301.945
302.247
302.594
302.972
303.36
303.739
298.177
298.192
298.208
298.226
298.246
298.269
298.295
298.326
298.361
298.402
298.448
298.499
298.554
298.615
298.679
298.748
298.819
298.892
298.967
299.043
299.118
299.191
299.262
299.331
299.397
299.46
299.52
299.576
299.629
299.679
299.726
299.77
299.812
299.851
299.888
299.923
299.956
299.987
300.018
300.046
300.074
300.101
300.126
300.151
300.175
300.198
300.22
300.241
300.262
300.282
300.301
300.319
300.337
300.354
300.37
300.386
300.401
300.415
300.43
300.444
300.457
300.471
300.484
300.496
300.508
300.52
300.532
300.544
300.555
300.565
300.576
300.586
300.596
300.606
300.615
300.624
300.633
300.641
300.649
300.656
300.663
300.668
300.673
300.678
300.681
300.683
300.684
300.685
300.685
300.684
300.682
300.68
300.677
300.675
300.672
300.669
300.667
300.665
300.664
300.663
300.663
300.663
300.664
300.666
300.669
300.672
300.676
300.68
300.685
300.689
300.695
300.7
300.705
300.71
300.716
300.72
300.725
300.729
300.733
300.737
300.74
300.742
300.744
300.746
300.748
300.749
300.751
300.752
300.753
300.755
300.756
300.758
300.759
300.761
300.763
300.765
300.767
300.77
300.772
300.773
300.775
300.777
300.778
300.779
300.779
300.78
300.78
300.78
300.779
300.778
300.778
300.777
300.776
300.775
300.773
300.772
300.772
300.771
300.77
300.77
300.77
300.77
300.77
300.771
300.772
300.773
300.774
300.775
300.777
300.778
300.78
300.781
300.783
300.785
300.787
300.789
300.791
300.793
300.796
300.799
300.802
300.808
300.815
300.826
300.842
300.864
300.896
300.94
301
301.08
301.184
301.317
301.484
301.692
301.946
302.247
302.594
302.973
303.361
303.74
298.167
298.174
298.182
298.193
298.206
298.223
298.242
298.265
298.293
298.326
298.363
298.405
298.451
298.502
298.558
298.616
298.678
298.742
298.807
298.873
298.939
299.004
299.068
299.129
299.187
299.243
299.296
299.347
299.394
299.439
299.48
299.52
299.557
299.592
299.625
299.656
299.685
299.714
299.74
299.766
299.791
299.815
299.838
299.86
299.882
299.902
299.922
299.942
299.96
299.978
299.995
300.012
300.028
300.043
300.058
300.072
300.086
300.099
300.112
300.125
300.137
300.149
300.161
300.173
300.184
300.195
300.206
300.217
300.227
300.237
300.247
300.257
300.266
300.275
300.284
300.292
300.3
300.308
300.315
300.322
300.327
300.332
300.337
300.34
300.343
300.344
300.345
300.345
300.344
300.342
300.34
300.338
300.335
300.332
300.329
300.327
300.325
300.323
300.322
300.321
300.322
300.323
300.324
300.327
300.33
300.334
300.338
300.342
300.347
300.353
300.358
300.363
300.369
300.374
300.379
300.384
300.388
300.392
300.396
300.399
300.402
300.404
300.406
300.407
300.409
300.41
300.411
300.412
300.413
300.415
300.416
300.417
300.419
300.421
300.423
300.425
300.427
300.429
300.431
300.433
300.434
300.435
300.436
300.437
300.437
300.438
300.437
300.437
300.436
300.435
300.435
300.433
300.432
300.431
300.43
300.429
300.428
300.428
300.427
300.427
300.427
300.427
300.428
300.428
300.429
300.43
300.432
300.433
300.434
300.436
300.437
300.439
300.441
300.442
300.444
300.445
300.447
300.449
300.451
300.453
300.457
300.462
300.469
300.481
300.499
300.524
300.56
300.609
300.676
300.763
300.876
301.018
301.194
301.409
301.666
301.965
302.304
302.67
303.049
303.434
298.167
298.174
298.182
298.193
298.206
298.223
298.242
298.265
298.293
298.326
298.363
298.405
298.451
298.503
298.558
298.616
298.678
298.742
298.807
298.873
298.939
299.004
299.068
299.129
299.187
299.243
299.297
299.347
299.394
299.439
299.481
299.52
299.557
299.592
299.625
299.656
299.686
299.714
299.741
299.766
299.791
299.815
299.838
299.86
299.882
299.903
299.923
299.942
299.96
299.978
299.995
300.012
300.028
300.043
300.058
300.072
300.086
300.099
300.112
300.125
300.137
300.15
300.162
300.173
300.185
300.196
300.206
300.217
300.227
300.237
300.247
300.257
300.266
300.275
300.284
300.292
300.3
300.308
300.315
300.322
300.328
300.333
300.337
300.34
300.343
300.344
300.345
300.345
300.344
300.342
300.34
300.338
300.335
300.332
300.33
300.327
300.325
300.323
300.322
300.322
300.322
300.323
300.325
300.327
300.33
300.334
300.338
300.343
300.348
300.353
300.358
300.364
300.369
300.374
300.379
300.384
300.389
300.392
300.396
300.399
300.402
300.404
300.406
300.408
300.409
300.41
300.411
300.412
300.414
300.415
300.416
300.418
300.419
300.421
300.423
300.425
300.427
300.429
300.431
300.433
300.434
300.436
300.437
300.437
300.438
300.438
300.438
300.437
300.437
300.436
300.435
300.434
300.432
300.431
300.43
300.429
300.428
300.428
300.427
300.427
300.427
300.427
300.428
300.429
300.429
300.431
300.432
300.433
300.435
300.436
300.438
300.439
300.441
300.442
300.444
300.445
300.447
300.449
300.451
300.453
300.457
300.462
300.47
300.481
300.499
300.524
300.56
300.609
300.676
300.763
300.876
301.018
301.195
301.41
301.666
301.966
302.304
302.671
303.05
303.435
298.163
298.167
298.172
298.179
298.188
298.199
298.214
298.232
298.254
298.28
298.31
298.345
298.384
298.428
298.475
298.525
298.578
298.633
298.69
298.748
298.806
298.862
298.918
298.972
299.023
299.073
299.12
299.164
299.205
299.245
299.281
299.316
299.349
299.379
299.408
299.436
299.462
299.486
299.51
299.533
299.555
299.576
299.596
299.616
299.635
299.653
299.671
299.688
299.704
299.72
299.735
299.75
299.764
299.778
299.791
299.803
299.816
299.828
299.839
299.851
299.862
299.873
299.884
299.894
299.905
299.915
299.925
299.934
299.944
299.953
299.962
299.971
299.98
299.988
299.996
300.004
300.011
300.018
300.025
300.03
300.035
300.04
300.043
300.046
300.048
300.048
300.048
300.048
300.046
300.044
300.042
300.039
300.036
300.033
300.031
300.028
300.026
300.025
300.024
300.024
300.025
300.026
300.029
300.031
300.035
300.039
300.043
300.048
300.053
300.059
300.064
300.07
300.075
300.08
300.085
300.089
300.093
300.097
300.1
300.103
300.105
300.107
300.109
300.11
300.111
300.112
300.113
300.114
300.115
300.116
300.117
300.118
300.12
300.122
300.124
300.126
300.128
300.129
300.131
300.133
300.134
300.135
300.136
300.136
300.137
300.137
300.136
300.136
300.135
300.134
300.133
300.131
300.13
300.129
300.128
300.127
300.126
300.126
300.125
300.125
300.126
300.126
300.127
300.127
300.129
300.13
300.131
300.132
300.134
300.135
300.137
300.138
300.139
300.141
300.142
300.143
300.144
300.145
300.147
300.149
300.152
300.157
300.166
300.179
300.199
300.228
300.268
300.324
300.399
300.495
300.617
300.769
300.954
301.175
301.435
301.733
302.065
302.421
302.791
303.174
298.163
298.167
298.172
298.179
298.188
298.199
298.214
298.232
298.254
298.28
298.31
298.345
298.384
298.428
298.475
298.525
298.578
298.633
298.69
298.748
298.806
298.863
298.918
298.972
299.024
299.073
299.12
299.164
299.206
299.245
299.282
299.316
299.349
299.379
299.408
299.436
299.462
299.486
299.51
299.533
299.555
299.576
299.596
299.616
299.635
299.653
299.671
299.688
299.705
299.72
299.736
299.75
299.764
299.778
299.791
299.804
299.816
299.828
299.84
299.851
299.862
299.873
299.884
299.895
299.905
299.915
299.925
299.935
299.944
299.953
299.962
299.971
299.98
299.988
299.996
300.004
300.011
300.018
300.025
300.031
300.036
300.04
300.043
300.046
300.048
300.049
300.049
300.048
300.046
300.044
300.042
300.039
300.036
300.034
300.031
300.029
300.027
300.025
300.024
300.024
300.025
300.027
300.029
300.032
300.035
300.039
300.044
300.048
300.054
300.059
300.064
300.07
300.075
300.08
300.085
300.09
300.094
300.097
300.1
300.103
300.105
300.107
300.109
300.11
300.111
300.112
300.113
300.114
300.115
300.116
300.117
300.119
300.12
300.122
300.124
300.126
300.128
300.13
300.131
300.133
300.134
300.135
300.136
300.137
300.137
300.137
300.136
300.136
300.135
300.134
300.133
300.132
300.13
300.129
300.128
300.127
300.127
300.126
300.126
300.126
300.126
300.126
300.127
300.128
300.129
300.13
300.131
300.133
300.134
300.135
300.137
300.138
300.14
300.141
300.142
300.143
300.144
300.145
300.147
300.149
300.152
300.158
300.166
300.179
300.199
300.228
300.269
300.325
300.399
300.495
300.617
300.769
300.954
301.175
301.435
301.733
302.065
302.422
302.792
303.175
298.161
298.164
298.167
298.172
298.178
298.187
298.198
298.212
298.23
298.251
298.277
298.306
298.339
298.376
298.417
298.46
298.505
298.553
298.602
298.652
298.702
298.752
298.8
298.847
298.892
298.935
298.976
299.014
299.05
299.084
299.116
299.146
299.175
299.201
299.226
299.25
299.272
299.294
299.315
299.334
299.353
299.372
299.39
299.407
299.423
299.439
299.455
299.47
299.484
299.498
299.511
299.524
299.536
299.548
299.559
299.57
299.581
299.592
299.602
299.612
299.622
299.632
299.642
299.651
299.66
299.669
299.678
299.687
299.696
299.704
299.712
299.72
299.728
299.736
299.743
299.75
299.757
299.763
299.769
299.774
299.778
299.781
299.784
299.786
299.787
299.787
299.787
299.785
299.784
299.781
299.779
299.776
299.773
299.77
299.767
299.765
299.764
299.763
299.762
299.763
299.764
299.766
299.768
299.771
299.775
299.779
299.784
299.789
299.794
299.799
299.805
299.81
299.815
299.82
299.824
299.828
299.832
299.835
299.838
299.84
299.842
299.844
299.845
299.846
299.846
299.847
299.848
299.848
299.849
299.85
299.851
299.853
299.854
299.856
299.858
299.86
299.861
299.863
299.865
299.866
299.867
299.868
299.869
299.869
299.869
299.869
299.868
299.867
299.866
299.865
299.864
299.863
299.862
299.861
299.86
299.859
299.858
299.858
299.858
299.858
299.858
299.859
299.859
299.86
299.861
299.863
299.864
299.865
299.867
299.868
299.869
299.87
299.871
299.872
299.873
299.874
299.874
299.875
299.876
299.878
299.882
299.887
299.897
299.913
299.936
299.969
300.016
300.079
300.162
300.268
300.4
300.561
300.754
300.981
301.243
301.539
301.865
302.213
302.573
302.948
298.161
298.164
298.167
298.172
298.178
298.187
298.198
298.212
298.23
298.251
298.277
298.306
298.339
298.376
298.417
298.46
298.505
298.553
298.602
298.652
298.702
298.752
298.8
298.847
298.892
298.935
298.976
299.014
299.05
299.085
299.116
299.147
299.175
299.201
299.226
299.25
299.273
299.294
299.315
299.334
299.354
299.372
299.39
299.407
299.423
299.439
299.455
299.47
299.484
299.498
299.511
299.524
299.536
299.548
299.559
299.57
299.581
299.592
299.602
299.612
299.622
299.632
299.642
299.651
299.66
299.67
299.679
299.687
299.696
299.704
299.712
299.72
299.728
299.736
299.743
299.75
299.757
299.763
299.769
299.774
299.778
299.782
299.784
299.786
299.787
299.787
299.787
299.786
299.784
299.781
299.779
299.776
299.773
299.77
299.768
299.765
299.764
299.763
299.762
299.763
299.764
299.766
299.768
299.771
299.775
299.779
299.784
299.789
299.794
299.8
299.805
299.81
299.815
299.82
299.825
299.829
299.832
299.835
299.838
299.84
299.842
299.844
299.845
299.846
299.847
299.847
299.848
299.849
299.85
299.85
299.852
299.853
299.855
299.856
299.858
299.86
299.862
299.863
299.865
299.866
299.867
299.868
299.869
299.869
299.869
299.869
299.868
299.868
299.867
299.866
299.864
299.863
299.862
299.861
299.86
299.859
299.858
299.858
299.858
299.858
299.858
299.859
299.86
299.861
299.862
299.863
299.864
299.866
299.867
299.868
299.869
299.871
299.872
299.873
299.873
299.874
299.875
299.875
299.876
299.878
299.882
299.888
299.897
299.913
299.936
299.969
300.016
300.079
300.162
300.268
300.4
300.561
300.754
300.981
301.243
301.54
301.866
302.213
302.574
302.949
298.16
298.162
298.164
298.168
298.173
298.18
298.189
298.2
298.215
298.233
298.254
298.279
298.308
298.339
298.374
298.411
298.45
298.491
298.533
298.576
298.62
298.662
298.704
298.744
298.783
298.82
298.856
298.889
298.92
298.949
298.977
299.002
299.027
299.049
299.071
299.091
299.11
299.129
299.146
299.163
299.18
299.195
299.211
299.225
299.24
299.253
299.266
299.279
299.291
299.303
299.314
299.325
299.336
299.346
299.356
299.365
299.375
299.384
299.393
299.402
299.411
299.42
299.428
299.436
299.445
299.453
299.461
299.469
299.476
299.484
299.491
299.498
299.505
299.512
299.519
299.525
299.531
299.536
299.541
299.545
299.549
299.552
299.554
299.555
299.555
299.555
299.554
299.552
299.55
299.548
299.545
299.542
299.539
299.536
299.534
299.532
299.531
299.53
299.53
299.531
299.532
299.535
299.537
299.541
299.545
299.549
299.554
299.559
299.564
299.569
299.574
299.579
299.584