/*--------------------------------*- C++ -*----------------------------------*\
  =========                 |
  \\      /  F ield         | OpenFOAM: The Open Source CFD Toolbox
   \\    /   O peration     | Website:  https://openfoam.org
    \\  /    A nd           | Version:  8
     \\/     M anipulation  |
\*---------------------------------------------------------------------------*/
FoamFile
{
    version     2.0;
    format      ascii;
    class       volVectorField;
    location    "200";
    object      U;
}
// * * * * * * * * * * * * * * * * * * * * * * * * * * * * * * * * * * * * * //

dimensions      [0 1 -1 0 0 0 0];

internalField   nonuniform List<vector> 
46000
(
(-0.044807 -1.26823e-05 0.0404249)
(-0.0330816 -5.12057e-05 -0.0309747)
(0.071751 -3.61229e-05 -0.0807385)
(0.197888 -1.36861e-05 -0.0942408)
(0.335861 7.21992e-07 -0.094612)
(0.470724 7.01414e-06 -0.088655)
(0.595782 8.47868e-06 -0.0795005)
(0.707465 7.4032e-06 -0.0688662)
(0.804039 5.27303e-06 -0.0577695)
(0.884984 2.80841e-06 -0.0468529)
(0.950602 5.17479e-07 -0.0365382)
(1.00176 -1.2641e-06 -0.027102)
(1.03972 -2.46945e-06 -0.0187168)
(1.06596 -3.20808e-06 -0.0114758)
(1.0821 -3.61885e-06 -0.0054075)
(1.08976 -3.80912e-06 -0.000473322)
(1.09056 -3.83768e-06 0.00339939)
(1.08603 -3.72494e-06 0.00628743)
(1.07751 -3.47717e-06 0.00828783)
(1.06623 -3.10081e-06 0.00952529)
(1.05323 -2.63045e-06 0.0101293)
(1.03938 -2.13135e-06 0.0102277)
(1.02537 -1.66958e-06 0.0099399)
(1.01174 -1.27655e-06 0.00937332)
(0.998878 -9.43105e-07 0.00862104)
(0.987043 -6.46522e-07 0.00776067)
(0.976389 -3.76886e-07 0.00685427)
(0.966983 -1.43014e-07 0.00594915)
(0.958828 4.00927e-08 0.00507937)
(0.95188 1.68058e-07 0.00426767)
(0.946063 2.52583e-07 0.00352757)
(0.941282 3.12611e-07 0.00286552)
(0.937432 3.61372e-07 0.00228279)
(0.934405 4.00433e-07 0.00177715)
(0.932095 4.23501e-07 0.0013442)
(0.930402 4.24766e-07 0.000978311)
(0.929232 4.05016e-07 0.000673303)
(0.928497 3.71735e-07 0.000422848)
(0.928121 3.33958e-07 0.000220861)
(0.92803 2.97653e-07 6.27165e-05)
(0.928166 2.64171e-07 -5.62773e-05)
(0.928471 2.30756e-07 -0.000142695)
(0.928899 1.93374e-07 -0.000203387)
(0.929416 1.50224e-07 -0.000244747)
(0.929998 1.03038e-07 -0.000272857)
(0.930629 5.64537e-08 -0.000293386)
(0.931304 1.60679e-08 -0.000311338)
(0.932023 -1.40187e-08 -0.000330791)
(0.932793 -3.27524e-08 -0.000354686)
(0.933622 -4.24925e-08 -0.000384672)
(0.934521 -4.76242e-08 -0.000421058)
(0.935498 -5.25938e-08 -0.000462859)
(0.936559 -6.06522e-08 -0.000507973)
(0.937705 -7.31746e-08 -0.000553447)
(0.938932 -8.99323e-08 -0.000595844)
(0.940229 -1.09659e-07 -0.000631652)
(0.941581 -1.30709e-07 -0.000657702)
(0.942968 -1.51917e-07 -0.000671539)
(0.944367 -1.72972e-07 -0.000671706)
(0.945754 -1.9418e-07 -0.000657896)
(0.947107 -2.16002e-07 -0.000630953)
(0.948405 -2.38679e-07 -0.000592719)
(0.949633 -2.6185e-07 -0.000545755)
(0.950778 -2.84437e-07 -0.000492968)
(0.951834 -3.04823e-07 -0.000437209)
(0.952797 -3.21218e-07 -0.000380898)
(0.953667 -3.32048e-07 -0.000325734)
(0.954446 -3.36361e-07 -0.000272547)
(0.955134 -3.33916e-07 -0.000221296)
(0.955734 -3.25089e-07 -0.00017124)
(0.956242 -3.10748e-07 -0.000121238)
(0.956657 -2.92243e-07 -7.01477e-05)
(0.956973 -2.70986e-07 -1.72042e-05)
(0.957186 -2.4842e-07 3.77726e-05)
(0.957291 -2.25645e-07 9.45461e-05)
(0.957288 -2.02939e-07 0.000152115)
(0.957177 -1.80114e-07 0.00020812)
(0.956964 -1.56912e-07 0.000259188)
(0.956663 -1.33306e-07 0.000301378)
(0.956294 -1.09728e-07 0.000330347)
(0.955885 -8.69715e-08 0.000341609)
(0.955473 -6.59681e-08 0.000330847)
(0.9551 -4.7754e-08 0.000294233)
(0.954812 -3.30506e-08 0.000228983)
(0.95466 -2.17789e-08 0.000134644)
(0.954694 -1.41275e-08 1.30851e-05)
(0.954958 -9.11106e-09 -0.00013296)
(0.955488 -4.66241e-09 -0.00029966)
(0.956315 2.34047e-10 -0.00048154)
(0.957457 5.84095e-09 -0.000671947)
(0.958919 1.14911e-08 -0.000863508)
(0.960698 1.58687e-08 -0.00104859)
(0.962774 1.73008e-08 -0.00121974)
(0.965119 1.41249e-08 -0.00137018)
(0.967693 5.04617e-09 -0.00149414)
(0.970447 -1.0628e-08 -0.00158726)
(0.97333 -3.27897e-08 -0.00164673)
(0.976284 -6.04947e-08 -0.00167143)
(0.979254 -9.19966e-08 -0.00166186)
(0.982185 -1.25035e-07 -0.00162001)
(0.985028 -1.57191e-07 -0.00154913)
(0.987739 -1.86354e-07 -0.00145339)
(0.99028 -2.11093e-07 -0.00133764)
(0.992624 -2.30774e-07 -0.00120702)
(0.99475 -2.4562e-07 -0.0010667)
(0.996646 -2.56423e-07 -0.000921669)
(0.998306 -2.64266e-07 -0.000776511)
(0.999732 -2.70099e-07 -0.00063534)
(1.00093 -2.74384e-07 -0.000501722)
(1.00192 -2.76897e-07 -0.000378675)
(1.00272 -2.76829e-07 -0.000268686)
(1.00334 -2.7309e-07 -0.000173736)
(1.00382 -2.64769e-07 -9.53295e-05)
(1.00418 -2.51485e-07 -3.44961e-05)
(1.00444 -2.33603e-07 8.21129e-06)
(1.00465 -2.12274e-07 3.27378e-05)
(1.00482 -1.8942e-07 3.9555e-05)
(1.00499 -1.67441e-07 2.96925e-05)
(1.00518 -1.48618e-07 4.76057e-06)
(1.00542 -1.34412e-07 -3.305e-05)
(1.00572 -1.25019e-07 -8.09956e-05)
(1.0061 -1.19653e-07 -0.000135833)
(1.00657 -1.17233e-07 -0.000193899)
(1.00712 -1.16905e-07 -0.000251235)
(1.00776 -1.17933e-07 -0.000303768)
(1.00847 -1.19201e-07 -0.00034756)
(1.00923 -1.19144e-07 -0.000379089)
(1.01002 -1.1642e-07 -0.000395528)
(1.01081 -1.10696e-07 -0.000394971)
(1.01158 -1.02629e-07 -0.000376614)
(1.01229 -9.2884e-08 -0.000340878)
(1.01292 -8.12552e-08 -0.000289471)
(1.01344 -6.69394e-08 -0.000225335)
(1.01385 -4.98464e-08 -0.000152414)
(1.01412 -3.15904e-08 -7.51659e-05)
(1.01425 -1.51761e-08 2.32949e-06)
(1.01426 -3.92658e-09 7.65677e-05)
(1.01414 3.68816e-10 0.000143853)
(1.01392 -2.17404e-09 0.00020085)
(1.01361 -1.02437e-08 0.000245421)
(1.01323 -2.13433e-08 0.000276471)
(1.01281 -3.18635e-08 0.000293867)
(1.01236 -3.72496e-08 0.000298319)
(1.01191 -3.30952e-08 0.00029121)
(1.01147 -1.6762e-08 0.000274382)
(1.01106 1.10795e-08 0.000249937)
(1.01069 4.60574e-08 0.000220057)
(1.01036 8.1369e-08 0.000186876)
(1.01009 1.09677e-07 0.000152396)
(1.00986 1.24992e-07 0.000118455)
(1.00968 1.2415e-07 8.67442e-05)
(1.00955 1.07732e-07 5.88452e-05)
(1.00945 8.02294e-08 3.62753e-05)
(1.00937 4.90606e-08 2.05041e-05)
(1.00931 2.24342e-08 1.29335e-05)
(1.00924 6.60257e-09 1.48352e-05)
(1.00915 3.79847e-09 2.72525e-05)
(1.00902 1.16282e-08 5.08876e-05)
(1.00883 2.42303e-08 8.60027e-05)
(1.00856 3.51341e-08 0.00013237)
(1.00819 4.08569e-08 0.000189278)
(1.0077 4.32647e-08 0.000255597)
(1.00709 4.86616e-08 0.000329861)
(1.00633 6.32859e-08 0.000410392)
(1.00542 8.78522e-08 0.000495449)
(1.00435 1.15337e-07 0.000583417)
(1.00311 1.34717e-07 0.000673005)
(1.00172 1.38944e-07 0.000763429)
(1.00015 1.31428e-07 0.000854529)
(0.998409 1.24883e-07 0.000946841)
(0.996496 1.32065e-07 0.00104163)
(0.994401 1.55519e-07 0.0011409)
(0.992115 1.85284e-07 0.00124744)
(0.989621 2.07795e-07 0.0013648)
(0.986897 2.19233e-07 0.00149744)
(0.983913 2.31862e-07 0.00165084)
(0.98063 2.65713e-07 0.00183188)
(0.976995 3.30713e-07 0.00204933)
(0.972942 4.16055e-07 0.00231471)
(0.968379 5.00217e-07 0.00264351)
(0.963185 5.74757e-07 0.00305705)
(0.957196 6.57956e-07 0.00358504)
(0.950185 7.80648e-07 0.00426886)
(0.94184 9.54701e-07 0.00516539)
(0.931736 1.15853e-06 0.00635144)
(0.919293 1.36109e-06 0.00792808)
(0.903741 1.55938e-06 0.0100241)
(0.884075 1.78121e-06 0.0127975)
(0.859021 2.04446e-06 0.0164326)
(0.827014 2.32272e-06 0.0211314)
(0.7862 2.55945e-06 0.0270966)
(0.734496 2.69058e-06 0.0345018)
(0.6697 2.61573e-06 0.0434432)
(0.58973 2.2148e-06 0.0538607)
(0.493002 1.68291e-06 0.065388)
(0.379231 2.32063e-06 0.0769964)
(0.250406 7.6457e-06 0.0859332)
(0.116793 2.47455e-05 0.0840348)
(-0.0113646 6.52683e-05 0.0437953)
(-0.0366654 0.000132533 -0.0446734)
(-0.0448818 -1.26773e-05 0.0404859)
(-0.0331376 -5.12306e-05 -0.030899)
(0.071771 -3.61304e-05 -0.0807055)
(0.197922 -1.36869e-05 -0.0942373)
(0.335882 7.22011e-07 -0.0946204)
(0.47073 7.01427e-06 -0.0886666)
(0.595779 8.47878e-06 -0.0795118)
(0.707457 7.40325e-06 -0.0688756)
(0.804028 5.27304e-06 -0.0577766)
(0.884971 2.8084e-06 -0.0468578)
(0.950588 5.17475e-07 -0.0365411)
(1.00175 -1.26409e-06 -0.0271033)
(1.03971 -2.46941e-06 -0.0187169)
(1.06594 -3.20802e-06 -0.0114751)
(1.08208 -3.61877e-06 -0.00540609)
(1.08974 -3.80903e-06 -0.000471387)
(1.09054 -3.83757e-06 0.00340164)
(1.08601 -3.72482e-06 0.00628976)
(1.07749 -3.47705e-06 0.00829003)
(1.06621 -3.1007e-06 0.0095272)
(1.05321 -2.63035e-06 0.0101309)
(1.03936 -2.13127e-06 0.0102289)
(1.02535 -1.66951e-06 0.00994068)
(1.01172 -1.2765e-06 0.0093738)
(0.998859 -9.43066e-07 0.00862128)
(0.987024 -6.46495e-07 0.00776073)
(0.97637 -3.7687e-07 0.00685419)
(0.966965 -1.43008e-07 0.00594895)
(0.95881 4.0091e-08 0.00507908)
(0.951862 1.68051e-07 0.00426732)
(0.946045 2.52572e-07 0.00352721)
(0.941264 3.12597e-07 0.00286517)
(0.937414 3.61357e-07 0.00228245)
(0.934387 4.00415e-07 0.00177683)
(0.932078 4.23482e-07 0.00134389)
(0.930385 4.24747e-07 0.00097803)
(0.929215 4.04998e-07 0.000673053)
(0.928481 3.71719e-07 0.000422637)
(0.928104 3.33943e-07 0.000220692)
(0.928014 2.9764e-07 6.25842e-05)
(0.92815 2.64159e-07 -5.63849e-05)
(0.928455 2.30745e-07 -0.000142787)
(0.928883 1.93365e-07 -0.000203467)
(0.9294 1.50218e-07 -0.000244812)
(0.929981 1.03033e-07 -0.000272902)
(0.930613 5.64512e-08 -0.000293404)
(0.931288 1.60671e-08 -0.000311327)
(0.932007 -1.40181e-08 -0.000330754)
(0.932777 -3.27509e-08 -0.000354628)
(0.933606 -4.24906e-08 -0.000384601)
(0.934505 -4.76221e-08 -0.00042098)
(0.935481 -5.25915e-08 -0.000462778)
(0.936542 -6.06495e-08 -0.000507888)
(0.937688 -7.31713e-08 -0.000553357)
(0.938915 -8.99283e-08 -0.000595747)
(0.940211 -1.09655e-07 -0.000631547)
(0.941563 -1.30704e-07 -0.000657589)
(0.942949 -1.5191e-07 -0.00067142)
(0.944348 -1.72964e-07 -0.000671585)
(0.945735 -1.94171e-07 -0.000657777)
(0.947088 -2.15992e-07 -0.00063084)
(0.948386 -2.38668e-07 -0.000592615)
(0.949614 -2.61839e-07 -0.000545662)
(0.950759 -2.84425e-07 -0.000492886)
(0.951814 -3.0481e-07 -0.000437136)
(0.952777 -3.21204e-07 -0.000380831)
(0.953647 -3.32033e-07 -0.00032567)
(0.954426 -3.36347e-07 -0.000272482)
(0.955115 -3.33902e-07 -0.000221227)
(0.955714 -3.25074e-07 -0.000171164)
(0.956223 -3.10735e-07 -0.000121155)
(0.956637 -2.92231e-07 -7.00593e-05)
(0.956954 -2.70974e-07 -1.71114e-05)
(0.957166 -2.4841e-07 3.78679e-05)
(0.957271 -2.25636e-07 9.46403e-05)
(0.957268 -2.0293e-07 0.000152203)
(0.957156 -1.80106e-07 0.000208198)
(0.956944 -1.56906e-07 0.000259254)
(0.956642 -1.33301e-07 0.000301429)
(0.956274 -1.09724e-07 0.000330379)
(0.955865 -8.69678e-08 0.00034162)
(0.955453 -6.59653e-08 0.000330832)
(0.95508 -4.7752e-08 0.000294186)
(0.954793 -3.30492e-08 0.0002289)
(0.95464 -2.1778e-08 0.00013452)
(0.954674 -1.41269e-08 1.2917e-05)
(0.954938 -9.11067e-09 -0.000133177)
(0.955469 -4.66221e-09 -0.000299926)
(0.956296 2.34037e-10 -0.000481852)
(0.957438 5.84069e-09 -0.000672297)
(0.958901 1.14906e-08 -0.000863883)
(0.96068 1.5868e-08 -0.00104897)
(0.962756 1.73001e-08 -0.00122012)
(0.965101 1.41243e-08 -0.00137053)
(0.967675 5.04595e-09 -0.00149446)
(0.97043 -1.06275e-08 -0.00158752)
(0.973312 -3.27883e-08 -0.00164694)
(0.976266 -6.04921e-08 -0.00167157)
(0.979236 -9.19927e-08 -0.00166194)
(0.982167 -1.2503e-07 -0.00162003)
(0.98501 -1.57184e-07 -0.00154908)
(0.98772 -1.86346e-07 -0.00145328)
(0.990262 -2.11084e-07 -0.00133748)
(0.992605 -2.30764e-07 -0.00120681)
(0.994731 -2.4561e-07 -0.00106645)
(0.996626 -2.56412e-07 -0.000921391)
(0.998286 -2.64254e-07 -0.000776216)
(0.999712 -2.70088e-07 -0.00063504)
(1.00091 -2.74372e-07 -0.000501429)
(1.0019 -2.76885e-07 -0.000378399)
(1.0027 -2.76817e-07 -0.000268432)
(1.00332 -2.73078e-07 -0.000173509)
(1.0038 -2.64758e-07 -9.51271e-05)
(1.00416 -2.51474e-07 -3.43142e-05)
(1.00442 -2.33593e-07 8.37796e-06)
(1.00463 -2.12265e-07 3.28937e-05)
(1.0048 -1.89412e-07 3.97034e-05)
(1.00497 -1.67434e-07 2.98353e-05)
(1.00516 -1.48611e-07 4.89647e-06)
(1.0054 -1.34406e-07 -3.29276e-05)
(1.0057 -1.25013e-07 -8.08972e-05)
(1.00608 -1.19648e-07 -0.000135768)
(1.00655 -1.17228e-07 -0.00019387)
(1.0071 -1.169e-07 -0.000251238)
(1.00774 -1.17928e-07 -0.000303799)
(1.00845 -1.19196e-07 -0.000347616)
(1.00921 -1.19139e-07 -0.000379167)
(1.01 -1.16416e-07 -0.000395613)
(1.01079 -1.10691e-07 -0.000395037)
(1.01156 -1.02624e-07 -0.000376636)
(1.01227 -9.28801e-08 -0.00034085)
(1.0129 -8.12518e-08 -0.000289411)
(1.01342 -6.69366e-08 -0.000225269)
(1.01383 -4.98443e-08 -0.000152354)
(1.0141 -3.15891e-08 -7.51024e-05)
(1.01423 -1.51754e-08 2.41721e-06)
(1.01424 -3.92642e-09 7.66878e-05)
(1.01412 3.68801e-10 0.00014399)
(1.0139 -2.17395e-09 0.000200977)
(1.01359 -1.02433e-08 0.000245518)
(1.01321 -2.13424e-08 0.00027654)
(1.01279 -3.18622e-08 0.000293921)
(1.01234 -3.72481e-08 0.000298372)
(1.01189 -3.30938e-08 0.000291267)
(1.01145 -1.67613e-08 0.000274443)
(1.01104 1.10791e-08 0.000250002)
(1.01067 4.60555e-08 0.000220131)
(1.01034 8.13657e-08 0.00018696)
(1.01007 1.09673e-07 0.000152483)
(1.00984 1.24987e-07 0.000118533)
(1.00966 1.24145e-07 8.68008e-05)
(1.00952 1.07728e-07 5.88756e-05)
(1.00942 8.02262e-08 3.6284e-05)
(1.00935 4.90587e-08 2.05005e-05)
(1.00928 2.24333e-08 1.29266e-05)
(1.00922 6.60231e-09 1.483e-05)
(1.00913 3.79832e-09 2.72505e-05)
(1.009 1.16277e-08 5.08893e-05)
(1.0088 2.42294e-08 8.60126e-05)
(1.00853 3.51327e-08 0.000132398)
(1.00817 4.08553e-08 0.000189337)
(1.00768 4.3263e-08 0.000255688)
(1.00706 4.86597e-08 0.000329972)
(1.00631 6.32834e-08 0.000410499)
(1.00539 8.78489e-08 0.000495532)
(1.00432 1.15333e-07 0.000583471)
(1.00309 1.34712e-07 0.000673041)
(1.00169 1.38939e-07 0.000763457)
(1.00012 1.31423e-07 0.00085455)
(0.998383 1.24879e-07 0.000946842)
(0.99647 1.3206e-07 0.00104159)
(0.994376 1.55514e-07 0.00114082)
(0.992089 1.85277e-07 0.00124729)
(0.989595 2.07787e-07 0.00136459)
(0.986871 2.19224e-07 0.00149715)
(0.983887 2.31853e-07 0.00165048)
(0.980604 2.65703e-07 0.00183147)
(0.97697 3.30701e-07 0.00204889)
(0.972917 4.16039e-07 0.00231424)
(0.968354 5.00198e-07 0.00264299)
(0.963161 5.74735e-07 0.00305646)
(0.957173 6.57931e-07 0.00358434)
(0.950162 7.80618e-07 0.004268)
(0.941819 9.54662e-07 0.00516435)
(0.931716 1.15848e-06 0.00635025)
(0.919275 1.36103e-06 0.00792683)
(0.903726 1.55931e-06 0.010023)
(0.884063 1.78113e-06 0.0127965)
(0.859012 2.04436e-06 0.016432)
(0.827007 2.32261e-06 0.0211314)
(0.786197 2.55932e-06 0.0270976)
(0.734495 2.69043e-06 0.0345044)
(0.669702 2.61557e-06 0.0434482)
(0.589732 2.21466e-06 0.0538686)
(0.493004 1.6828e-06 0.0653983)
(0.379232 2.32048e-06 0.0770066)
(0.250407 7.64521e-06 0.0859375)
(0.116796 2.47441e-05 0.0840247)
(-0.0113695 6.52619e-05 0.0437661)
(-0.0366745 0.000132525 -0.0446896)
(0.0291584 3.81549e-05 0.0367285)
(0.111252 1.02481e-05 -0.104945)
(0.213923 -2.52133e-06 -0.177049)
(0.32651 -5.97596e-06 -0.20475)
(0.443316 -6.01263e-06 -0.208852)
(0.557695 -5.16247e-06 -0.199418)
(0.66512 -4.17332e-06 -0.182263)
(0.762617 -3.21341e-06 -0.160939)
(0.848452 -2.38443e-06 -0.137747)
(0.921843 -1.76653e-06 -0.114255)
(0.982729 -1.34307e-06 -0.0915484)
(1.03158 -1.04678e-06 -0.0703746)
(1.06923 -8.19697e-07 -0.0512225)
(1.09677 -6.23592e-07 -0.03438)
(1.11543 -4.40494e-07 -0.019977)
(1.12649 -2.79808e-07 -0.00802535)
(1.13122 -1.66611e-07 0.00155124)
(1.13086 -1.08213e-07 0.0089084)
(1.12664 -8.39698e-08 0.0142787)
(1.11963 -6.68761e-08 0.0179186)
(1.11076 -4.53416e-08 0.0200833)
(1.10082 -2.90778e-08 0.021031)
(1.09044 -3.12196e-08 0.0210127)
(1.08011 -5.03313e-08 0.0202628)
(1.07021 -7.13672e-08 0.0189914)
(1.06098 -8.05545e-08 0.0173794)
(1.05258 -7.8089e-08 0.0155765)
(1.04511 -7.36872e-08 0.0137009)
(1.0386 -7.47285e-08 0.0118413)
(1.03301 -7.99469e-08 0.0100609)
(1.02832 -8.17896e-08 0.00840142)
(1.02445 -7.383e-08 0.00688728)
(1.02134 -5.60785e-08 0.00553023)
(1.0189 -3.47516e-08 0.0043329)
(1.01706 -1.73231e-08 0.00329179)
(1.01572 -7.38897e-09 0.00239947)
(1.01482 -3.22721e-09 0.00164605)
(1.01429 -3.28147e-10 0.00102015)
(1.01405 4.75827e-09 0.000509435)
(1.01406 1.22857e-08 0.000101442)
(1.01425 1.94484e-08 -0.000215239)
(1.01458 2.26606e-08 -0.000453701)
(1.01502 2.00842e-08 -0.000629975)
(1.01554 1.27159e-08 -0.000760382)
(1.01613 3.60487e-09 -0.000860452)
(1.01676 -3.95928e-09 -0.000944267)
(1.01745 -7.76014e-09 -0.00102384)
(1.01818 -7.261e-09 -0.00110855)
(1.01897 -3.4944e-09 -0.00120467)
(1.01981 1.43622e-09 -0.00131513)
(1.02072 5.34888e-09 -0.00143946)
(1.02171 6.83696e-09 -0.00157406)
(1.02276 5.5642e-09 -0.00171273)
(1.02389 2.16847e-09 -0.00184748)
(1.02509 -2.10689e-09 -0.00196949)
(1.02634 -5.8827e-09 -0.00207013)
(1.02762 -8.12523e-09 -0.00214204)
(1.02893 -8.47808e-09 -0.00217992)
(1.03023 -7.30213e-09 -0.00218113)
(1.0315 -5.3668e-09 -0.00214592)
(1.03274 -3.52086e-09 -0.00207727)
(1.03391 -2.45231e-09 -0.00198038)
(1.03502 -2.47645e-09 -0.00186189)
(1.03604 -3.46692e-09 -0.00172888)
(1.03698 -4.94688e-09 -0.00158793)
(1.03784 -6.29009e-09 -0.00144425)
(1.03861 -6.91956e-09 -0.00130112)
(1.03929 -6.48266e-09 -0.00115967)
(1.03989 -4.88677e-09 -0.00101903)
(1.04041 -2.2579e-09 -0.000876883)
(1.04083 1.15057e-09 -0.000730314)
(1.04116 5.01595e-09 -0.000576779)
(1.0414 9.03127e-09 -0.00041509)
(1.04153 1.2885e-08 -0.000246164)
(1.04156 1.62613e-08 -7.32791e-05)
(1.04148 1.87931e-08 9.91333e-05)
(1.0413 2.02507e-08 0.000264607)
(1.04103 2.07076e-08 0.000413484)
(1.04068 2.02661e-08 0.000534359)
(1.04029 1.8879e-08 0.000615166)
(1.03988 1.63374e-08 0.000644144)
(1.03949 1.23528e-08 0.000610743)
(1.03915 6.73062e-09 0.000506453)
(1.03892 -6.2599e-10 0.000325597)
(1.03883 -9.73075e-09 6.62323e-05)
(1.03893 -2.02874e-08 -0.000267004)
(1.03925 -3.18626e-08 -0.000664024)
(1.03982 -4.3758e-08 -0.00111247)
(1.04068 -5.48675e-08 -0.00159732)
(1.04182 -6.40496e-08 -0.00210108)
(1.04326 -7.04952e-08 -0.00260475)
(1.04498 -7.38602e-08 -0.00308887)
(1.04696 -7.4255e-08 -0.00353476)
(1.04918 -7.20813e-08 -0.00392556)
(1.0516 -6.78808e-08 -0.00424731)
(1.05417 -6.22171e-08 -0.00448955)
(1.05684 -5.55573e-08 -0.00464586)
(1.05956 -4.82286e-08 -0.00471389)
(1.06229 -4.03643e-08 -0.0046953)
(1.06497 -3.19262e-08 -0.00459526)
(1.06756 -2.27791e-08 -0.00442188)
(1.07002 -1.28026e-08 -0.00418551)
(1.07233 -2.06256e-09 -0.00389795)
(1.07444 9.14639e-09 -0.00357172)
(1.07636 2.0284e-08 -0.0032194)
(1.07806 3.06861e-08 -0.00285315)
(1.07955 3.96538e-08 -0.00248427)
(1.08082 4.65631e-08 -0.00212302)
(1.08189 5.1038e-08 -0.00177843)
(1.08276 5.30761e-08 -0.00145836)
(1.08345 5.30412e-08 -0.00116943)
(1.08399 5.15083e-08 -0.000917096)
(1.08439 4.91036e-08 -0.000705662)
(1.08468 4.63907e-08 -0.00053823)
(1.0849 4.37449e-08 -0.000416644)
(1.08506 4.11655e-08 -0.000341393)
(1.08519 3.81695e-08 -0.000311505)
(1.08532 3.39927e-08 -0.000324459)
(1.08548 2.81404e-08 -0.000376131)
(1.08568 2.07654e-08 -0.000460792)
(1.08594 1.25374e-08 -0.000571174)
(1.08627 4.19269e-09 -0.000698628)
(1.08668 -3.70318e-09 -0.000833401)
(1.08717 -1.04923e-08 -0.000965059)
(1.08773 -1.51962e-08 -0.00108303)
(1.08836 -1.68858e-08 -0.00117727)
(1.08902 -1.54563e-08 -0.00123893)
(1.08971 -1.18243e-08 -0.0012611)
(1.09038 -6.99871e-09 -0.00123936)
(1.09103 -8.35563e-10 -0.0011723)
(1.09162 8.09244e-09 -0.00106168)
(1.09213 2.10051e-08 -0.000912427)
(1.09254 3.70488e-08 -0.000732288)
(1.09284 5.30113e-08 -0.0005312)
(1.09302 6.50656e-08 -0.000320415)
(1.09307 7.09851e-08 -0.000111321)
(1.093 7.09312e-08 8.66371e-05)
(1.09283 6.62721e-08 0.000265704)
(1.09257 5.78859e-08 0.000418864)
(1.09223 4.59291e-08 0.000540984)
(1.09184 3.11299e-08 0.000629352)
(1.09142 1.61223e-08 0.000683628)
(1.09098 4.91874e-09 0.000705554)
(1.09054 6.89536e-10 0.0006985)
(1.09012 3.78877e-09 0.000666962)
(1.08973 1.15561e-08 0.000616078)
(1.08937 2.00563e-08 0.000551215)
(1.08906 2.60256e-08 0.000477677)
(1.08879 2.75854e-08 0.000400553)
(1.08856 2.37731e-08 0.000324676)
(1.08838 1.41102e-08 0.000254669)
(1.08823 -8.82056e-10 0.000195008)
(1.08811 -1.88344e-08 0.00015006)
(1.08801 -3.55852e-08 0.000124041)
(1.08791 -4.66859e-08 0.000120893)
(1.08781 -4.95943e-08 0.000144073)
(1.08767 -4.51182e-08 0.000196295)
(1.08749 -3.71624e-08 0.000279275)
(1.08724 -3.06635e-08 0.00039353)
(1.08692 -2.86404e-08 0.000538281)
(1.08649 -2.99805e-08 0.000711475)
(1.08595 -2.98389e-08 0.000909949)
(1.08529 -2.30819e-08 0.00112972)
(1.08449 -8.8212e-09 0.00136638)
(1.08355 7.42514e-09 0.00161558)
(1.08247 1.63015e-08 0.00187344)
(1.08123 1.08567e-08 0.00213705)
(1.07984 -7.85082e-09 0.00240475)
(1.07829 -3.05214e-08 0.00267644)
(1.07659 -4.58279e-08 0.00295372)
(1.07473 -4.85546e-08 0.00323998)
(1.07269 -4.3097e-08 0.00354045)
(1.07047 -3.93545e-08 0.00386216)
(1.06806 -4.40266e-08 0.00421403)
(1.06542 -5.4224e-08 0.00460707)
(1.06254 -5.89132e-08 0.00505489)
(1.05938 -4.80094e-08 0.00557467)
(1.05588 -2.16464e-08 0.00618888)
(1.05199 9.57407e-09 0.00692789)
(1.04761 3.47961e-08 0.00783399)
(1.04265 5.42425e-08 0.00896699)
(1.03693 7.95794e-08 0.0104115)
(1.03023 1.21702e-07 0.0122857)
(1.02223 1.80104e-07 0.0147512)
(1.01251 2.48851e-07 0.0180223)
(1.00048 3.33681e-07 0.0223739)
(0.985333 4.57752e-07 0.028144)
(0.966072 6.45742e-07 0.0357272)
(0.94143 9.0565e-07 0.0455571)
(0.909894 1.23435e-06 0.0580689)
(0.869736 1.6365e-06 0.0736388)
(0.819107 2.11214e-06 0.0924905)
(0.7562 2.58251e-06 0.114551)
(0.679528 2.7425e-06 0.139229)
(0.588348 1.85983e-06 0.16503)
(0.483366 -1.24838e-06 0.188822)
(0.367481 -7.33632e-06 0.204147)
(0.247636 -1.38279e-05 0.197747)
(0.12942 -8.23204e-06 0.140614)
(0.0468416 5.68772e-05 -0.00606183)
(0.0291217 3.81369e-05 0.0367254)
(0.111224 1.02508e-05 -0.104924)
(0.213914 -2.52188e-06 -0.177037)
(0.326515 -5.97693e-06 -0.204746)
(0.443325 -6.01333e-06 -0.208853)
(0.557704 -5.16288e-06 -0.199422)
(0.665126 -4.17352e-06 -0.182268)
(0.76262 -3.21348e-06 -0.160943)
(0.848451 -2.38443e-06 -0.137751)
(0.921837 -1.7665e-06 -0.114258)
(0.982718 -1.34303e-06 -0.0915503)
(1.03156 -1.04673e-06 -0.0703756)
(1.06921 -8.19649e-07 -0.0512228)
(1.09675 -6.2355e-07 -0.0343799)
(1.11541 -4.4046e-07 -0.0199768)
(1.12646 -2.79784e-07 -0.00802518)
(1.13119 -1.66596e-07 0.00155128)
(1.13083 -1.08202e-07 0.00890827)
(1.1266 -8.39615e-08 0.0142785)
(1.1196 -6.68693e-08 0.0179182)
(1.11073 -4.53369e-08 0.0200828)
(1.10079 -2.90748e-08 0.0210304)
(1.09041 -3.12163e-08 0.0210121)
(1.08008 -5.03259e-08 0.0202622)
(1.07018 -7.13596e-08 0.0189908)
(1.06095 -8.05459e-08 0.0173789)
(1.05255 -7.80807e-08 0.0155761)
(1.04509 -7.36793e-08 0.0137004)
(1.03857 -7.47205e-08 0.0118409)
(1.03298 -7.99384e-08 0.0100606)
(1.02829 -8.17809e-08 0.00840108)
(1.02442 -7.38222e-08 0.00688695)
(1.02131 -5.60725e-08 0.00552991)
(1.01887 -3.47479e-08 0.00433259)
(1.01703 -1.73213e-08 0.00329148)
(1.01569 -7.38818e-09 0.00239917)
(1.01479 -3.22687e-09 0.00164576)
(1.01426 -3.28112e-10 0.0010199)
(1.01403 4.75776e-09 0.00050922)
(1.01403 1.22844e-08 0.000101263)
(1.01422 1.94463e-08 -0.000215386)
(1.01455 2.26581e-08 -0.000453822)
(1.01499 2.0082e-08 -0.00063007)
(1.01552 1.27146e-08 -0.000760448)
(1.0161 3.60448e-09 -0.000860485)
(1.01674 -3.95885e-09 -0.000944262)
(1.01742 -7.7593e-09 -0.00102379)
(1.01815 -7.2602e-09 -0.00110845)
(1.01894 -3.49402e-09 -0.00120453)
(1.01978 1.43606e-09 -0.00131495)
(1.02069 5.3483e-09 -0.00143924)
(1.02168 6.83622e-09 -0.0015738)
(1.02274 5.5636e-09 -0.00171244)
(1.02387 2.16824e-09 -0.00184716)
(1.02506 -2.10666e-09 -0.00196914)
(1.02631 -5.88206e-09 -0.00206977)
(1.02759 -8.12435e-09 -0.00214167)
(1.0289 -8.47716e-09 -0.00217955)
(1.0302 -7.30134e-09 -0.00218078)
(1.03147 -5.36622e-09 -0.00214559)
(1.03271 -3.52048e-09 -0.00207698)
(1.03388 -2.45204e-09 -0.00198014)
(1.03499 -2.47618e-09 -0.0018617)
(1.03601 -3.46655e-09 -0.00172873)
(1.03695 -4.94635e-09 -0.00158782)
(1.03781 -6.28941e-09 -0.00144417)
(1.03858 -6.91881e-09 -0.00130106)
(1.03926 -6.48196e-09 -0.00115961)
(1.03986 -4.88624e-09 -0.00101897)
(1.04037 -2.25766e-09 -0.000876811)
(1.0408 1.15044e-09 -0.000730229)
(1.04113 5.01541e-09 -0.000576682)
(1.04137 9.0303e-09 -0.000414984)
(1.0415 1.28836e-08 -0.000246054)
(1.04153 1.62596e-08 -7.31715e-05)
(1.04145 1.8791e-08 9.92306e-05)
(1.04127 2.02485e-08 0.000264688)
(1.041 2.07054e-08 0.000413542)
(1.04065 2.0264e-08 0.00053439)
(1.04026 1.8877e-08 0.000615165)
(1.03985 1.63356e-08 0.000644106)
(1.03946 1.23515e-08 0.000610662)
(1.03912 6.7299e-09 0.000506323)
(1.03889 -6.25923e-10 0.000325411)
(1.0388 -9.72971e-09 6.59868e-05)
(1.0389 -2.02852e-08 -0.000267309)
(1.03922 -3.18593e-08 -0.000664388)
(1.03979 -4.37534e-08 -0.00111289)
(1.04065 -5.48617e-08 -0.00159778)
(1.04179 -6.40429e-08 -0.00210158)
(1.04323 -7.04878e-08 -0.00260526)
(1.04495 -7.38524e-08 -0.00308937)
(1.04693 -7.42471e-08 -0.00353522)
(1.04915 -7.20737e-08 -0.00392598)
(1.05157 -6.78737e-08 -0.00424765)
(1.05414 -6.22106e-08 -0.00448981)
(1.05681 -5.55514e-08 -0.00464602)
(1.05953 -4.82235e-08 -0.00471397)
(1.06226 -4.036e-08 -0.00469528)
(1.06494 -3.19229e-08 -0.00459516)
(1.06753 -2.27767e-08 -0.00442171)
(1.06999 -1.28012e-08 -0.00418528)
(1.0723 -2.06234e-09 -0.00389767)
(1.07441 9.14542e-09 -0.0035714)
(1.07633 2.02819e-08 -0.00321906)
(1.07803 3.06828e-08 -0.0028528)
(1.07952 3.96496e-08 -0.00248393)
(1.08079 4.65581e-08 -0.0021227)
(1.08185 5.10326e-08 -0.00177815)
(1.08273 5.30704e-08 -0.00145812)
(1.08342 5.30355e-08 -0.00116923)
(1.08396 5.15027e-08 -0.000916938)
(1.08436 4.90983e-08 -0.000705536)
(1.08465 4.63857e-08 -0.000538123)
(1.08487 4.37402e-08 -0.000416543)
(1.08502 4.11611e-08 -0.000341286)
(1.08516 3.81654e-08 -0.000311386)
(1.08529 3.3989e-08 -0.000324328)
(1.08545 2.81374e-08 -0.000375993)
(1.08564 2.07632e-08 -0.000460659)
(1.08591 1.25361e-08 -0.000571059)
(1.08624 4.19224e-09 -0.000698546)
(1.08665 -3.70278e-09 -0.000833366)
(1.08714 -1.04912e-08 -0.000965077)
(1.0877 -1.51945e-08 -0.0010831)
(1.08833 -1.6884e-08 -0.00117737)
(1.08899 -1.54546e-08 -0.00123905)
(1.08967 -1.1823e-08 -0.00126122)
(1.09035 -6.99797e-09 -0.00123948)
(1.091 -8.35475e-10 -0.00117241)
(1.09159 8.09158e-09 -0.00106177)
(1.0921 2.10029e-08 -0.000912485)
(1.09251 3.70449e-08 -0.0007323)
(1.09281 5.30056e-08 -0.000531159)
(1.09298 6.50587e-08 -0.000320326)
(1.09304 7.09776e-08 -0.000111201)
(1.09297 7.09237e-08 8.67702e-05)
(1.0928 6.62651e-08 0.000265838)
(1.09254 5.78798e-08 0.000418994)
(1.0922 4.59242e-08 0.000541111)
(1.09181 3.11267e-08 0.000629477)
(1.09139 1.61206e-08 0.000683754)
(1.09095 4.91822e-09 0.000705683)
(1.09051 6.89463e-10 0.000698636)
(1.09009 3.78838e-09 0.000667115)
(1.08969 1.15549e-08 0.000616254)
(1.08934 2.00542e-08 0.000551413)
(1.08902 2.60229e-08 0.000477889)
(1.08875 2.75825e-08 0.000400768)
(1.08853 2.37706e-08 0.000324884)
(1.08835 1.41087e-08 0.000254866)
(1.0882 -8.81964e-10 0.000195198)
(1.08808 -1.88325e-08 0.000150245)
(1.08798 -3.55815e-08 0.000124224)
(1.08788 -4.66811e-08 0.000121073)
(1.08777 -4.95892e-08 0.000144253)
(1.08764 -4.51136e-08 0.000196482)
(1.08746 -3.71586e-08 0.00027948)
(1.08721 -3.06603e-08 0.000393763)
(1.08688 -2.86375e-08 0.000538544)
(1.08646 -2.99774e-08 0.000711761)
(1.08592 -2.98359e-08 0.000910247)
(1.08526 -2.30795e-08 0.00113003)
(1.08446 -8.8203e-09 0.0013667)
(1.08352 7.42438e-09 0.0016159)
(1.08243 1.62999e-08 0.00187377)
(1.08119 1.08556e-08 0.00213736)
(1.0798 -7.85001e-09 0.00240502)
(1.07826 -3.05183e-08 0.00267663)
(1.07656 -4.58233e-08 0.00295382)
(1.07469 -4.85496e-08 0.00324)
(1.07265 -4.30926e-08 0.00354039)
(1.07044 -3.93505e-08 0.00386203)
(1.06802 -4.40222e-08 0.00421382)
(1.06539 -5.42185e-08 0.00460677)
(1.06251 -5.89072e-08 0.00505451)
(1.05934 -4.80045e-08 0.00557423)
(1.05584 -2.16442e-08 0.00618837)
(1.05195 9.5731e-09 0.00692731)
(1.04758 3.47925e-08 0.0078333)
(1.04261 5.42369e-08 0.00896617)
(1.03689 7.95713e-08 0.0104105)
(1.03019 1.21689e-07 0.0122845)
(1.0222 1.80085e-07 0.0147496)
(1.01248 2.48825e-07 0.0180204)
(1.00045 3.33646e-07 0.0223717)
(0.985306 4.57703e-07 0.0281416)
(0.966047 6.45672e-07 0.0357248)
(0.941407 9.0555e-07 0.045555)
(0.909873 1.23421e-06 0.0580674)
(0.869718 1.63631e-06 0.0736385)
(0.819091 2.11189e-06 0.0924921)
(0.756185 2.58219e-06 0.114556)
(0.679512 2.74215e-06 0.139238)
(0.588331 1.85958e-06 0.165043)
(0.483346 -1.24821e-06 0.18884)
(0.367457 -7.33527e-06 0.204168)
(0.247617 -1.38258e-05 0.197764)
(0.129419 -8.23077e-06 0.140614)
(0.0468648 5.68747e-05 -0.0060994)
(0.0693431 -5.60027e-06 -0.0837161)
(0.167654 5.30939e-06 -0.218635)
(0.271384 1.59652e-06 -0.288783)
(0.374347 -8.09493e-07 -0.317355)
(0.475548 -1.75594e-06 -0.319884)
(0.573017 -2.04612e-06 -0.305564)
(0.664361 -2.07906e-06 -0.280601)
(0.74763 -1.963e-06 -0.249359)
(0.82153 -1.77762e-06 -0.214987)
(0.88541 -1.56737e-06 -0.179795)
(0.939164 -1.36607e-06 -0.145467)
(0.98311 -1.19349e-06 -0.113201)
(1.01788 -1.04276e-06 -0.0838081)
(1.04432 -8.88531e-07 -0.0577824)
(1.06338 -7.17409e-07 -0.0353643)
(1.07607 -5.45443e-07 -0.0165961)
(1.08343 -4.01543e-07 -0.00138009)
(1.08639 -2.9687e-07 0.0104352)
(1.08591 -2.22808e-07 0.0191241)
(1.08287 -1.66699e-07 0.0250829)
(1.07804 -1.22457e-07 0.0287172)
(1.07207 -9.12713e-08 0.0304375)
(1.06547 -7.40039e-08 0.0306412)
(1.05866 -6.53608e-08 0.0296969)
(1.05195 -5.68716e-08 0.0279328)
(1.04556 -4.38854e-08 0.0256296)
(1.03965 -3.05036e-08 0.0230177)
(1.03431 -2.3477e-08 0.0202783)
(1.02959 -2.41851e-08 0.0175472)
(1.02549 -2.76729e-08 0.0149211)
(1.02202 -2.70104e-08 0.0124641)
(1.01914 -1.82347e-08 0.0102148)
(1.0168 -2.93452e-09 0.00819295)
(1.01497 1.33879e-08 0.00640459)
(1.01359 2.54832e-08 0.00484664)
(1.0126 3.15632e-08 0.0035099)
(1.01195 3.35183e-08 0.00238119)
(1.01159 3.46993e-08 0.00144466)
(1.01147 3.73052e-08 0.000682527)
(1.01155 4.10558e-08 7.63605e-05)
(1.01177 4.33805e-08 -0.000394055)
(1.01212 4.13673e-08 -0.000751484)
(1.01257 3.38821e-08 -0.00101952)
(1.01309 2.21832e-08 -0.00122166)
(1.01367 9.28702e-09 -0.00138036)
(1.01431 -1.66806e-09 -0.00151606)
(1.01501 -8.70589e-09 -0.00164616)
(1.01575 -1.14068e-08 -0.00178403)
(1.01656 -1.08796e-08 -0.00193834)
(1.01743 -9.04834e-09 -0.0021126)
(1.01836 -7.76481e-09 -0.00230523)
(1.01936 -8.33853e-09 -0.00251)
(1.02043 -1.12301e-08 -0.00271699)
(1.02155 -1.60375e-08 -0.00291381)