/*--------------------------------*- C++ -*----------------------------------*\
  =========                 |
  \\      /  F ield         | OpenFOAM: The Open Source CFD Toolbox
   \\    /   O peration     | Website:  https://openfoam.org
    \\  /    A nd           | Version:  8
     \\/     M anipulation  |
\*---------------------------------------------------------------------------*/
FoamFile
{
    version     2.0;
    format      ascii;
    class       volScalarField;
    location    "3100";
    object      alphat;
}
// * * * * * * * * * * * * * * * * * * * * * * * * * * * * * * * * * * * * * //

dimensions      [1 -1 -1 0 0 0 0];

internalField   nonuniform List<scalar> 
48000
(
4.71115e-05
8.09662e-05
0.000102882
0.00011768
0.000129971
0.000140293
0.00014923
0.000157189
0.000164575
0.000171318
0.00017759
0.000183456
0.000188969
0.000194171
0.000199095
0.000203767
0.000208208
0.000212436
0.000216464
0.000220304
0.000223967
0.00022746
0.000230792
0.000233969
0.000236997
0.000239882
0.000242627
0.000245239
0.00024772
0.000250076
0.000252311
0.000254427
0.000256429
0.000258321
0.000260106
0.000261788
0.000263369
0.000264853
0.000266244
0.000267545
0.000268758
0.000269888
0.000270935
0.000271905
0.000272811
0.000273649
0.000274418
0.000275119
0.000275756
0.00027633
0.000276845
0.000277304
0.000277708
0.00027806
0.000278362
0.000278618
0.000278828
0.000278995
0.000279121
0.000279207
0.000279256
0.000279269
0.000279248
0.000279194
0.000279109
0.000278994
0.00027885
0.00027868
0.000278483
0.000278262
0.000278016
0.000277748
0.000277458
0.000277147
0.000276815
0.000276464
0.000276095
0.000275708
0.000275303
0.000274882
0.000274444
0.000273991
0.000273522
0.000273039
0.000272541
0.000272029
0.000271504
0.000270965
0.000270414
0.000269849
0.000269272
0.000268682
0.00026808
0.000267465
0.000266839
0.000266201
0.000265551
0.000264888
0.000264214
0.000263529
0.000262831
0.000262121
0.0002614
0.000260667
0.000259921
0.000259163
0.000258393
0.000257611
0.000256815
0.000256008
0.000255187
0.000254353
0.000253506
0.000252645
0.000251771
0.000250882
0.00024998
0.000249063
0.000248131
0.000247184
0.000246222
0.000245245
0.000244252
0.000243243
0.000242217
0.000241175
0.000240115
0.000239039
0.000237944
0.000236832
0.000235702
0.000234553
0.000233385
0.000232197
0.000230991
0.000229764
0.000228517
0.000227249
0.000225961
0.000224652
0.00022332
0.000221967
0.000220592
0.000219194
0.000217774
0.00021633
0.000214863
0.000213372
0.000211857
0.000210317
0.000208752
0.000207162
0.000205547
0.000203906
0.000202238
0.000200544
0.000198823
0.000197075
0.000195298
0.000193494
0.00019166
0.000189797
0.000187905
0.000185982
0.000184028
0.000182041
0.000180023
0.000177971
0.000175884
0.000173761
0.000171602
0.000169405
0.000167167
0.000164888
0.000162566
0.000160197
0.000157781
0.000155312
0.000152788
0.000150206
0.000147562
0.000144854
0.000142092
0.000139258
0.000136327
0.000133288
0.000130126
0.000126822
0.000123352
0.000119685
0.000115781
0.000111587
0.000107072
0.000102121
9.65683e-05
9.01659e-05
8.24781e-05
7.25956e-05
5.84039e-05
0.000212193
4.71049e-05
8.09696e-05
0.000102883
0.00011768
0.000129972
0.000140293
0.000149231
0.000157189
0.000164575
0.000171318
0.000177591
0.000183457
0.00018897
0.000194172
0.000199095
0.000203767
0.000208209
0.000212436
0.000216464
0.000220304
0.000223967
0.000227461
0.000230793
0.00023397
0.000236997
0.000239882
0.000242627
0.000245239
0.00024772
0.000250076
0.000252311
0.000254427
0.00025643
0.000258321
0.000260106
0.000261788
0.000263369
0.000264853
0.000266244
0.000267545
0.000268758
0.000269888
0.000270935
0.000271905
0.000272811
0.000273649
0.000274418
0.000275119
0.000275756
0.00027633
0.000276845
0.000277304
0.000277708
0.00027806
0.000278362
0.000278618
0.000278828
0.000278995
0.000279121
0.000279207
0.000279256
0.000279269
0.000279248
0.000279194
0.000279109
0.000278994
0.00027885
0.00027868
0.000278483
0.000278261
0.000278016
0.000277748
0.000277458
0.000277147
0.000276815
0.000276464
0.000276095
0.000275708
0.000275303
0.000274882
0.000274444
0.000273991
0.000273522
0.000273039
0.000272541
0.000272029
0.000271504
0.000270965
0.000270414
0.000269849
0.000269272
0.000268682
0.00026808
0.000267465
0.000266839
0.000266201
0.00026555
0.000264888
0.000264214
0.000263529
0.000262831
0.000262121
0.0002614
0.000260667
0.000259921
0.000259163
0.000258393
0.000257611
0.000256815
0.000256008
0.000255187
0.000254353
0.000253506
0.000252645
0.000251771
0.000250882
0.00024998
0.000249063
0.000248131
0.000247184
0.000246222
0.000245245
0.000244252
0.000243242
0.000242217
0.000241174
0.000240115
0.000239039
0.000237944
0.000236832
0.000235702
0.000234552
0.000233385
0.000232197
0.000230991
0.000229764
0.000228517
0.000227249
0.000225961
0.000224652
0.00022332
0.000221967
0.000220592
0.000219194
0.000217774
0.00021633
0.000214863
0.000213372
0.000211856
0.000210317
0.000208752
0.000207162
0.000205547
0.000203906
0.000202238
0.000200544
0.000198823
0.000197075
0.000195298
0.000193494
0.00019166
0.000189797
0.000187905
0.000185982
0.000184028
0.000182042
0.000180023
0.000177971
0.000175884
0.000173761
0.000171602
0.000169405
0.000167167
0.000164888
0.000162566
0.000160198
0.000157781
0.000155312
0.000152788
0.000150206
0.000147562
0.000144854
0.000142092
0.000139258
0.000136327
0.000133288
0.000130126
0.000126822
0.000123352
0.000119685
0.000115781
0.000111587
0.000107072
0.000102121
9.65683e-05
9.01658e-05
8.24774e-05
7.25936e-05
5.84072e-05
0.000212176
7.08394e-05
0.000531919
0.000846297
0.0010655
0.00122848
0.00136196
0.00147639
0.00157697
0.00166636
0.00174747
0.00182169
0.00189013
0.00195365
0.00201288
0.00206834
0.00212044
0.00216949
0.00221578
0.00225954
0.00230096
0.00234021
0.00237743
0.00241275
0.00244629
0.00247813
0.00250838
0.00253711
0.00256438
0.00259028
0.00261486
0.00263817
0.00266028
0.00268122
0.00270105
0.0027198
0.00273753
0.00275427
0.00277006
0.00278492
0.00279891
0.00281204
0.00282434
0.00283583
0.00284649
0.00285618
0.00286508
0.0028733
0.00288089
0.00288789
0.00289432
0.00290022
0.00290559
0.00291047
0.00291488
0.00291883
0.00292234
0.00292543
0.00292811
0.0029304
0.00293232
0.00293387
0.00293509
0.00293596
0.00293652
0.00293677
0.00293673
0.00293639
0.00293579
0.00293492
0.00293379
0.00293241
0.0029308
0.00292896
0.0029269
0.00292462
0.00292213
0.00291944
0.00291656
0.00291348
0.00291022
0.00290678
0.00290316
0.00289937
0.00289542
0.0028913
0.00288701
0.00288257
0.00287798
0.00287323
0.00286833
0.00286328
0.00285808
0.00285273
0.00284724
0.00284161
0.00283583
0.00282991
0.00282385
0.00281765
0.0028113
0.00280481
0.00279817
0.0027914
0.00278447
0.00277741
0.00277019
0.00276283
0.00275532
0.00274766
0.00273985
0.00273188
0.00272376
0.00271548
0.00270704
0.00269843
0.00268967
0.00268073
0.00267163
0.00266236
0.00265291
0.00264328
0.00263348
0.00262349
0.00261332
0.00260296
0.0025924
0.00258166
0.00257071
0.00255956
0.00254821
0.00253665
0.00252488
0.0025129
0.0025007
0.00248828
0.00247563
0.00246276
0.00244966
0.00243632
0.00242275
0.00240893
0.00239487
0.00238056
0.00236601
0.00235119
0.00233612
0.00232079
0.00230519
0.00228933
0.00227319
0.00225677
0.00224008
0.00222309
0.00220583
0.00218826
0.0021704
0.00215224
0.00213377
0.00211499
0.00209589
0.00207646
0.0020567
0.00203661
0.00201616
0.00199536
0.00197419
0.00195265
0.00193072
0.00190838
0.00188563
0.00186244
0.00183881
0.0018147
0.00179009
0.00176495
0.00173926
0.00171298
0.00168605
0.00165843
0.00163005
0.00160082
0.00157062
0.00153925
0.00150665
0.00147279
0.00143752
0.00140065
0.00136193
0.00132102
0.00127745
0.00123056
0.00117925
0.00112146
0.00105605
0.000980373
0.000889827
0.000776001
0.000621776
0.000388325
5.12386e-05
7.08433e-05
0.000531941
0.000846308
0.00106552
0.0012285
0.00136198
0.00147641
0.00157699
0.00166638
0.00174749
0.00182171
0.00189015
0.00195367
0.0020129
0.00206836
0.00212045
0.00216951
0.0022158
0.00225956
0.00230097
0.00234022
0.00237745
0.00241277
0.0024463
0.00247815
0.00250839
0.00253712
0.0025644
0.00259029
0.00261487
0.00263818
0.00266029
0.00268123
0.00270106
0.00271981
0.00273754
0.00275428
0.00277006
0.00278493
0.00279892
0.00281205
0.00282435
0.00283584
0.0028465
0.00285619
0.00286509
0.00287331
0.0028809
0.0028879
0.00289433
0.00290022
0.0029056
0.00291048
0.00291489
0.00291884
0.00292235
0.00292543
0.00292812
0.00293041
0.00293232
0.00293388
0.00293509
0.00293597
0.00293653
0.00293678
0.00293673
0.0029364
0.00293579
0.00293492
0.0029338
0.00293242
0.00293081
0.00292897
0.0029269
0.00292463
0.00292214
0.00291945
0.00291656
0.00291349
0.00291023
0.00290679
0.00290317
0.00289938
0.00289542
0.0028913
0.00288702
0.00288258
0.00287798
0.00287323
0.00286833
0.00286328
0.00285808
0.00285274
0.00284725
0.00284162
0.00283584
0.00282992
0.00282386
0.00281765
0.0028113
0.00280481
0.00279818
0.0027914
0.00278448
0.00277741
0.0027702
0.00276284
0.00275533
0.00274767
0.00273985
0.00273188
0.00272376
0.00271548
0.00270704
0.00269844
0.00268967
0.00268074
0.00267164
0.00266236
0.00265292
0.00264329
0.00263349
0.0026235
0.00261333
0.00260296
0.00259241
0.00258166
0.00257072
0.00255957
0.00254822
0.00253666
0.00252489
0.00251291
0.00250071
0.00248828
0.00247564
0.00246277
0.00244966
0.00243633
0.00242275
0.00240894
0.00239488
0.00238057
0.00236601
0.0023512
0.00233613
0.0023208
0.0023052
0.00228933
0.00227319
0.00225678
0.00224008
0.0022231
0.00220583
0.00218827
0.00217041
0.00215225
0.00213378
0.002115
0.00209589
0.00207647
0.00205671
0.00203661
0.00201617
0.00199536
0.0019742
0.00195265
0.00193072
0.00190839
0.00188563
0.00186245
0.00183881
0.0018147
0.00179009
0.00176496
0.00173927
0.00171298
0.00168605
0.00165844
0.00163006
0.00160083
0.00157062
0.00153925
0.00150666
0.00147279
0.00143752
0.00140065
0.00136193
0.00132102
0.00127746
0.00123056
0.00117926
0.00112146
0.00105605
0.000980375
0.000889829
0.000776005
0.000621785
0.000388316
5.12227e-05
8.85885e-05
0.000808821
0.00143877
0.00190962
0.00228047
0.00258806
0.00285225
0.0030844
0.00329153
0.00347866
0.00364925
0.00380586
0.00395043
0.00408451
0.0042093
0.00432581
0.00443488
0.0045372
0.00463337
0.00472391
0.00480927
0.00488984
0.00496597
0.00503796
0.0051061
0.00517063
0.00523178
0.00528974
0.0053447
0.00539682
0.00544627
0.00549317
0.00553766
0.00557984
0.00561985
0.00565776
0.00569368
0.0057277
0.00575988
0.00579031
0.00581906
0.00584617
0.00587168
0.0058956
0.00591788
0.00593868
0.00595813
0.0059763
0.00599329
0.00600914
0.00602391
0.00603765
0.00605039
0.00606218
0.00607306
0.00608305
0.00609219
0.00610052
0.00610806
0.00611483
0.00612087
0.00612621
0.00613086
0.00613486
0.00613821
0.00614096
0.0061431
0.00614467
0.00614568
0.00614616
0.00614611
0.00614555
0.0061445
0.00614297
0.00614098
0.00613853
0.00613564
0.00613233
0.00612859
0.00612444
0.00611989
0.00611495
0.00610963
0.00610392
0.00609785
0.00609141
0.00608461
0.00607745
0.00606995
0.0060621
0.0060539
0.00604537
0.00603649
0.00602729
0.00601774
0.00600787
0.00599766
0.00598713
0.00597626
0.00596506
0.00595353
0.00594167
0.00592947
0.00591694
0.00590407
0.00589086
0.00587731
0.00586341
0.00584917
0.00583458
0.00581963
0.00580432
0.00578865
0.00577261
0.00575621
0.00573942
0.00572226
0.00570471
0.00568676
0.00566842
0.00564968
0.00563053
0.00561096
0.00559097
0.00557055
0.0055497
0.00552841
0.00550667
0.00548448
0.00546182
0.0054387
0.0054151
0.00539102
0.00536645
0.00534138
0.0053158
0.00528971
0.0052631
0.00523596
0.00520828
0.00518005
0.00515128
0.00512193
0.00509202
0.00506153
0.00503045
0.00499876
0.00496648
0.00493357
0.00490003
0.00486585
0.00483103
0.00479554
0.00475938
0.00472253
0.00468497
0.00464671
0.00460771
0.00456797
0.00452746
0.00448616
0.00444406
0.00440114
0.00435736
0.0043127
0.00426714
0.00422064
0.00417316
0.00412467
0.00407512
0.00402446
0.00397264
0.00391959
0.00386525
0.00380952
0.00375233
0.00369357
0.0036331
0.00357078
0.00350642
0.00343981
0.00337067
0.00329869
0.00322358
0.003145
0.00306248
0.0029754
0.00288299
0.00278426
0.00267785
0.00256191
0.00243383
0.00228985
0.00212543
0.0019342
0.00170583
0.0014239
0.00106185
0.00058142
6.38633e-05
8.85894e-05
0.000808832
0.0014388
0.00190966
0.00228051
0.00258811
0.00285229
0.00308445
0.00329158
0.00347871
0.0036493
0.0038059
0.00395047
0.00408454
0.00420933
0.00432585
0.00443491
0.00453723
0.0046334
0.00472394
0.0048093
0.00488986
0.00496599
0.00503799
0.00510612
0.00517065
0.0052318
0.00528976
0.00534472
0.00539684
0.00544628
0.00549318
0.00553767
0.00557986
0.00561986
0.00565777
0.00569369
0.00572771
0.00575989
0.00579032
0.00581907
0.00584618
0.00587169
0.00589561
0.00591789
0.00593869
0.00595813
0.00597631
0.00599329
0.00600914
0.00602392
0.00603765
0.0060504
0.00606219
0.00607306
0.00608306
0.0060922
0.00610052
0.00610806
0.00611484
0.00612088
0.00612621
0.00613087
0.00613486
0.00613822
0.00614096
0.0061431
0.00614467
0.00614569
0.00614616
0.00614611
0.00614555
0.0061445
0.00614297
0.00614098
0.00613853
0.00613565
0.00613233
0.00612859
0.00612445
0.0061199
0.00611496
0.00610963
0.00610393
0.00609785
0.00609141
0.00608461
0.00607746
0.00606995
0.0060621
0.0060539
0.00604537
0.0060365
0.00602729
0.00601774
0.00600787
0.00599766
0.00598713
0.00597626
0.00596506
0.00595353
0.00594167
0.00592947
0.00591694
0.00590407
0.00589086
0.00587731
0.00586342
0.00584917
0.00583458
0.00581963
0.00580432
0.00578865
0.00577262
0.00575621
0.00573942
0.00572226
0.00570471
0.00568676
0.00566842
0.00564968
0.00563053
0.00561096
0.00559097
0.00557055
0.0055497
0.00552841
0.00550667
0.00548448
0.00546183
0.0054387
0.0054151
0.00539102
0.00536645
0.00534138
0.0053158
0.00528971
0.0052631
0.00523596
0.00520828
0.00518005
0.00515128
0.00512193
0.00509202
0.00506153
0.00503045
0.00499876
0.00496648
0.00493357
0.00490003
0.00486585
0.00483103
0.00479554
0.00475938
0.00472253
0.00468497
0.00464671
0.00460771
0.00456797
0.00452746
0.00448616
0.00444406
0.00440114
0.00435736
0.0043127
0.00426714
0.00422064
0.00417316
0.00412467
0.00407512
0.00402446
0.00397264
0.00391959
0.00386525
0.00380953
0.00375234
0.00369357
0.0036331
0.00357078
0.00350642
0.00343981
0.00337067
0.00329869
0.00322358
0.003145
0.00306248
0.0029754
0.00288299
0.00278426
0.00267785
0.00256191
0.00243383
0.00228985
0.00212543
0.0019342
0.00170583
0.0014239
0.00106185
0.000581415
6.38645e-05
0.000100505
0.000975819
0.00183486
0.00251629
0.00307262
0.00354221
0.00394903
0.00430834
0.00463022
0.0049217
0.00518786
0.00543246
0.00565841
0.00586799
0.00606305
0.00624509
0.0064154
0.00657505
0.00672498
0.00686598
0.00699878
0.007124
0.00724219
0.00735387
0.00745948
0.00755944
0.0076541
0.00774381
0.00782886
0.00790955
0.00798611
0.00805879
0.0081278
0.00819333
0.00825556
0.00831466
0.00837079
0.00842407
0.00847464
0.00852262
0.00856812
0.00861121
0.00865198
0.00869049
0.00872676
0.00876095
0.00879316
0.00882352
0.00885212
0.00887905
0.00890439
0.00892819
0.00895054
0.00897147
0.00899106
0.00900934
0.00902637
0.0090422
0.00905685
0.00907038
0.00908282
0.00909422
0.00910459
0.00911399
0.00912243
0.00912996
0.00913659
0.00914235
0.00914728
0.00915139
0.0091547
0.00915725
0.00915905
0.00916012
0.00916047
0.00916013
0.00915911
0.00915743
0.0091551
0.00915213
0.00914854
0.00914434
0.00913953
0.00913414
0.00912816
0.0091216
0.00911448
0.0091068
0.00909857
0.00908979
0.00908046
0.00907059
0.00906019
0.00904925
0.00903778
0.00902578
0.00901325
0.00900019
0.00898661
0.0089725
0.00895785
0.00894268
0.00892697
0.00891072
0.00889394
0.00887662
0.00885875
0.00884033
0.00882135
0.00880181
0.00878171
0.00876104
0.00873979
0.00871796
0.00869554
0.00867252
0.00864889
0.00862465
0.00859979
0.00857429
0.00854816
0.00852138
0.00849395
0.00846584
0.00843706
0.00840759
0.00837743
0.00834655
0.00831496
0.00828264
0.00824957
0.00821575
0.00818117
0.00814581
0.00810965
0.0080727
0.00803493
0.00799633
0.0079569
0.0079166
0.00787544
0.00783339
0.00779044
0.00774658
0.00770179
0.00765606
0.00760936
0.00756168
0.007513
0.00746331
0.00741258
0.00736079
0.00730792
0.00725395
0.00719885
0.00714261
0.00708518
0.00702654
0.00696666
0.00690551
0.00684305
0.00677924
0.00671403
0.00664739
0.00657926
0.00650959
0.00643831
0.00636536
0.00629066
0.00621414
0.0061357
0.00605524
0.00597264
0.00588777
0.00580048
0.00571061
0.00561795
0.00552228
0.00542333
0.00532078
0.00521426
0.00510334
0.00498749
0.00486614
0.0047386
0.00460401
0.00446126
0.00430899
0.00414542
0.00396826
0.00377456
0.00356034
0.00332027
0.0030473
0.00273238
0.00236224
0.00191812
0.00137466
0.000708994
7.27795e-05
0.000100505
0.000975834
0.00183489
0.00251634
0.00307268
0.00354227
0.00394909
0.00430841
0.00463028
0.00492176
0.00518792
0.00543252
0.00565847
0.00586804
0.0060631
0.00624514
0.00641545
0.0065751
0.00672502
0.00686603
0.00699882
0.00712403
0.00724223
0.00735391
0.00745952
0.00755947
0.00765413
0.00774383
0.00782889
0.00790957
0.00798614
0.00805881
0.00812782
0.00819335
0.00825558
0.00831468
0.0083708
0.00842408
0.00847466
0.00852264
0.00856813
0.00861122
0.00865199
0.0086905
0.00872677
0.00876095
0.00879317
0.00882353
0.00885213
0.00887906
0.00890439
0.0089282
0.00895054
0.00897148
0.00899106
0.00900935
0.00902638
0.0090422
0.00905685
0.00907038
0.00908283
0.00909422
0.00910459
0.00911399
0.00912243
0.00912996
0.00913659
0.00914235
0.00914728
0.00915139
0.0091547
0.00915725
0.00915905
0.00916011
0.00916047
0.00916013
0.00915911
0.00915743
0.0091551
0.00915213
0.00914854
0.00914433
0.00913953
0.00913413
0.00912815
0.0091216
0.00911448
0.0091068
0.00909857
0.00908978
0.00908046
0.00907059
0.00906018
0.00904925
0.00903778
0.00902578
0.00901325
0.00900019
0.00898661
0.00897249
0.00895785
0.00894267
0.00892697
0.00891072
0.00889394
0.00887661
0.00885874
0.00884032
0.00882135
0.00880181
0.00878171
0.00876104
0.00873979
0.00871796
0.00869553
0.00867251
0.00864889
0.00862464
0.00859978
0.00857429
0.00854816
0.00852138
0.00849394
0.00846584
0.00843706
0.00840759
0.00837742
0.00834655
0.00831496
0.00828263
0.00824957
0.00821575
0.00818116
0.0081458
0.00810965
0.0080727
0.00803493
0.00799633
0.00795689
0.0079166
0.00787543
0.00783339
0.00779044
0.00774658
0.00770179
0.00765605
0.00760935
0.00756167
0.007513
0.0074633
0.00741257
0.00736078
0.00730792
0.00725395
0.00719885
0.0071426
0.00708517
0.00702653
0.00696666
0.0069055
0.00684304
0.00677923
0.00671403
0.00664738
0.00657925
0.00650958
0.0064383
0.00636535
0.00629066
0.00621414
0.00613569
0.00605523
0.00597263
0.00588776
0.00580047
0.0057106
0.00561794
0.00552227
0.00542332
0.00532077
0.00521426
0.00510333
0.00498749
0.00486614
0.0047386
0.004604
0.00446126
0.00430899
0.00414542
0.00396826
0.00377456
0.00356034
0.00332027
0.0030473
0.00273238
0.00236224
0.00191812
0.00137466
0.000708991
7.27798e-05
0.000110076
0.00108965
0.00211734
0.00296755
0.00367835
0.00428677
0.00481853
0.00529104
0.00571631
0.00610291
0.00645706
0.00678347
0.00708576
0.00736679
0.00762887
0.00787392
0.00810353
0.00831908
0.00852173
0.00871253
0.00889238
0.0090621
0.00922242
0.00937399
0.00951741
0.00965322
0.00978191
0.00990393
0.0100197
0.0101296
0.010234
0.0103331
0.0104274
0.0105169
0.0106021
0.0106832
0.0107602
0.0108335
0.0109032
0.0109695
0.0110326
0.0110924
0.0111493
0.0112032
0.0112544
0.0113028
0.0113487
0.0113921
0.0114333
0.0114723
0.0115091
0.011544
0.011577
0.0116081
0.0116374
0.011665
0.011691
0.0117154
0.0117383
0.0117597
0.0117797
0.0117983
0.0118155
0.0118315
0.0118462
0.0118597
0.0118721
0.0118833
0.0118933
0.0119023
0.0119103
0.0119172
0.0119232
0.0119281
0.0119321
0.0119352
0.0119374
0.0119387
0.0119391
0.0119387
0.0119374
0.0119353
0.0119324
0.0119287
0.0119242
0.0119189
0.0119128
0.011906
0.0118985
0.0118901
0.0118811
0.0118713
0.0118608
0.0118495
0.0118376
0.0118249
0.0118114
0.0117973
0.0117824
0.0117668
0.0117505
0.0117334
0.0117157
0.0116971
0.0116779
0.0116579
0.0116372
0.0116157
0.0115934
0.0115704
0.0115466
0.011522
0.0114966
0.0114704
0.0114435
0.0114157
0.011387
0.0113576
0.0113272
0.0112961
0.011264
0.0112311
0.0111972
0.0111625
0.0111268
0.0110902
0.0110526
0.0110141
0.0109745
0.010934
0.0108925
0.0108499
0.0108063
0.0107616
0.0107158
0.0106689
0.010621
0.0105718
0.0105215
0.0104701
0.0104174
0.0103635
0.0103084
0.010252
0.0101943
0.0101353
0.0100749
0.0100132
0.00995015
0.00988564
0.00981968
0.00975223
0.00968327
0.00961276
0.00954065
0.00946693
0.00939153
0.00931441
0.00923553
0.00915484
0.00907227
0.00898777
0.00890127
0.00881271
0.008722
0.00862906
0.00853379
0.0084361
0.00833587
0.00823298
0.00812729
0.00801864
0.00790685
0.00779173
0.00767306
0.00755057
0.00742398
0.00729294
0.00715706
0.00701589
0.00686887
0.00671539
0.0065547
0.00638594
0.00620806
0.00601979
0.00581956
0.00560544
0.00537497
0.00512507
0.00485182
0.00455017
0.00421361
0.0038338
0.00340005
0.00289837
0.00231067
0.001616
0.000806295
7.98758e-05
0.000110076
0.00108967
0.00211738
0.0029676
0.00367841
0.00428684
0.00481861
0.00529111
0.00571639
0.00610298
0.00645714
0.00678355
0.00708583
0.00736686
0.00762894
0.00787399
0.0081036
0.00831914
0.00852179
0.00871258
0.00889243
0.00906215
0.00922247
0.00937403
0.00951745
0.00965326
0.00978195
0.00990397
0.0100197
0.0101296
0.010234
0.0103331
0.0104274
0.010517
0.0106022
0.0106832
0.0107602
0.0108335
0.0109033
0.0109696
0.0110326
0.0110925
0.0111493
0.0112033
0.0112544
0.0113028
0.0113487
0.0113921
0.0114333
0.0114723
0.0115091
0.011544
0.011577
0.0116081
0.0116374
0.011665
0.011691
0.0117154
0.0117383
0.0117597
0.0117797
0.0117983
0.0118155
0.0118315
0.0118462
0.0118597
0.0118721
0.0118833
0.0118933
0.0119023
0.0119103
0.0119172
0.0119232
0.0119281
0.0119321
0.0119352
0.0119374
0.0119387
0.0119391
0.0119387
0.0119374
0.0119353
0.0119324
0.0119287
0.0119242
0.0119189
0.0119128
0.011906
0.0118985
0.0118901
0.0118811
0.0118713
0.0118608
0.0118495
0.0118376
0.0118249
0.0118114
0.0117973
0.0117824
0.0117668
0.0117505
0.0117334
0.0117157
0.0116971
0.0116779
0.0116579
0.0116371
0.0116156
0.0115934
0.0115704
0.0115466
0.011522
0.0114966
0.0114704
0.0114435
0.0114157
0.011387
0.0113576
0.0113272
0.0112961
0.011264
0.0112311
0.0111972
0.0111625
0.0111268
0.0110902
0.0110526
0.0110141
0.0109745
0.010934
0.0108925
0.0108499
0.0108063
0.0107616
0.0107158
0.0106689
0.0106209
0.0105718
0.0105215
0.01047
0.0104174
0.0103635
0.0103084
0.010252
0.0101943
0.0101353
0.0100749
0.0100132
0.00995014
0.00988563
0.00981967
0.00975222
0.00968326
0.00961275
0.00954065
0.00946692
0.00939152
0.0093144
0.00923552
0.00915483
0.00907226
0.00898776
0.00890127
0.0088127
0.00872199
0.00862905
0.00853378
0.00843609
0.00833587
0.00823297
0.00812728
0.00801863
0.00790684
0.00779172
0.00767305
0.00755056
0.00742397
0.00729293
0.00715705
0.00701588
0.00686887
0.00671538
0.00655469
0.00638593
0.00620805
0.00601978
0.00581956
0.00560543
0.00537496
0.00512506
0.00485181
0.00455016
0.0042136
0.0038338
0.00340005
0.00289837
0.00231067
0.001616
0.000806292
7.98759e-05
0.000118222
0.00118032
0.00233638
0.00332051
0.00415775
0.00488251
0.00552085
0.00609133
0.0066072
0.00707803
0.00751092
0.00791123
0.00828312
0.00862989
0.00895417
0.00925818
0.00954373
0.00981241
0.0100656
0.0103044
0.0105299
0.0107431
0.0109447
0.0111357
0.0113166
0.0114881
0.0116509
0.0118053
0.011952
0.0120915
0.012224
0.01235
0.01247
0.0125841
0.0126928
0.0127962
0.0128948
0.0129887
0.0130781
0.0131633
0.0132444
0.0133217
0.0133952
0.0134652
0.0135317
0.013595
0.0136551
0.0137123
0.0137666
0.0138182
0.0138673
0.0139139
0.0139581
0.014
0.0140397
0.0140774
0.014113
0.0141467
0.0141784
0.0142084
0.0142366
0.0142631
0.014288
0.0143113
0.014333
0.0143533
0.0143721
0.0143895
0.0144055
0.0144202
0.0144336
0.0144457
0.0144566
0.0144663
0.0144748
0.0144822
0.0144884
0.0144935
0.0144976
0.0145005
0.0145025
0.0145034
0.0145033
0.0145021
0.0145
0.014497
0.0144929
0.0144879
0.014482
0.0144751
0.0144673
0.0144585
0.0144489
0.0144383
0.0144268
0.0144144
0.0144011
0.0143868
0.0143717
0.0143556
0.0143386
0.0143207
0.0143019
0.0142822
0.0142615
0.0142399
0.0142173
0.0141938
0.0141693
0.0141439
0.0141174
0.01409
0.0140616
0.0140322
0.0140018
0.0139703
0.0139377
0.0139042
0.0138695
0.0138338
0.0137969
0.0137589
0.0137198
0.0136795
0.0136381
0.0135955
0.0135517
0.0135066
0.0134603
0.0134127
0.0133639
0.0133137
0.0132622
0.0132093
0.0131551
0.0130995
0.0130424
0.0129839
0.0129239
0.0128625
0.0127994
0.0127349
0.0126687
0.0126009
0.0125315
0.0124604
0.0123876
0.012313
0.0122366
0.0121584
0.0120783
0.0119963
0.0119124
0.0118264
0.0117384
0.0116482
0.0115559
0.0114614
0.0113645
0.0112653
0.0111636
0.0110594
0.0109525
0.010843
0.0107306
0.0106153
0.0104969
0.0103753
0.0102503
0.0101218
0.00998961
0.00985347
0.00971316
0.00956841
0.00941893
0.00926437
0.00910433
0.00893837
0.00876596
0.0085865
0.00839928
0.00820348
0.00799812
0.00778206
0.00755395
0.00731213
0.0070546
0.00677892
0.00648208
0.00616036
0.00580911
0.00542255
0.00499345
0.00451274
0.00396907
0.00334881
0.00263569
0.00181355
0.000886278
8.58724e-05
0.000118223
0.00118034
0.00233642
0.00332057
0.00415782
0.00488258
0.00552093
0.00609142
0.00660728
0.00707811
0.007511
0.00791131
0.00828321
0.00862997
0.00895425
0.00925825
0.00954381
0.00981248
0.0100656
0.0103044
0.0105299
0.0107431
0.0109448
0.0111357
0.0113167
0.0114882
0.0116509
0.0118054
0.0119521
0.0120915
0.012224
0.0123501
0.01247
0.0125841
0.0126928
0.0127963
0.0128948
0.0129887
0.0130781
0.0131633
0.0132444
0.0133217
0.0133952
0.0134652
0.0135317
0.013595
0.0136551
0.0137123
0.0137666
0.0138182
0.0138673
0.0139139
0.0139581
0.014
0.0140397
0.0140774
0.014113
0.0141467
0.0141784
0.0142084
0.0142366
0.0142631
0.014288
0.0143113
0.0143331
0.0143533
0.0143721
0.0143895
0.0144055
0.0144202
0.0144336
0.0144457
0.0144566
0.0144663
0.0144748
0.0144822
0.0144884
0.0144935
0.0144976
0.0145005
0.0145025
0.0145034
0.0145033
0.0145021
0.0145
0.014497
0.0144929
0.0144879
0.014482
0.0144751
0.0144673
0.0144585
0.0144489
0.0144383
0.0144268
0.0144144
0.0144011
0.0143868
0.0143717
0.0143556
0.0143386
0.0143207
0.0143019
0.0142822
0.0142615
0.0142399
0.0142173
0.0141938
0.0141693
0.0141439
0.0141174
0.01409
0.0140616
0.0140322
0.0140017
0.0139703
0.0139377
0.0139042
0.0138695
0.0138337
0.0137969
0.0137589
0.0137198
0.0136795
0.0136381
0.0135955
0.0135516
0.0135066
0.0134603
0.0134127
0.0133638
0.0133137
0.0132622
0.0132093
0.0131551
0.0130995
0.0130424
0.0129839
0.0129239
0.0128624
0.0127994
0.0127349
0.0126687
0.0126009
0.0125315
0.0124604
0.0123876
0.012313
0.0122366
0.0121584
0.0120783
0.0119963
0.0119124
0.0118264
0.0117384
0.0116482
0.0115559
0.0114614
0.0113645
0.0112653
0.0111636
0.0110594
0.0109525
0.010843
0.0107306
0.0106153
0.0104969
0.0103753
0.0102503
0.0101218
0.0099896
0.00985346
0.00971315
0.0095684
0.00941892
0.00926436
0.00910432
0.00893836
0.00876596
0.00858649
0.00839927
0.00820347
0.00799811
0.00778206
0.00755394
0.00731212
0.00705459
0.00677892
0.00648208
0.00616035
0.00580911
0.00542255
0.00499345
0.00451274
0.00396907
0.00334881
0.0026357
0.00181355
0.000886275
8.58724e-05
0.000125487
0.00125799
0.00251728
0.00360932
0.00455028
0.00537211
0.00610066
0.0067551
0.00734941
0.00789391
0.00839629
0.0088624
0.00929681
0.00970311
0.0100842
0.0104425
0.0107799
0.0110983
0.011399
0.0116833
0.0119524
0.0122074
0.012449
0.0126782
0.0128958
0.0131024
0.0132987
0.0134854
0.0136629
0.0138317
0.0139925
0.0141455
0.0142913
0.0144303
0.0145627
0.0146889
0.0148093
0.0149241
0.0150336
0.0151381
0.0152377
0.0153328
0.0154234
0.0155098
0.0155922
0.0156707
0.0157455
0.0158168
0.0158847
0.0159494
0.0160111
0.0160698
0.0161257
0.0161789
0.0162295
0.0162776
0.0163233
0.0163667
0.0164078
0.0164468
0.0164838
0.0165187
0.0165516
0.0165827
0.016612
0.0166395
0.0166652
0.0166893
0.0167118
0.0167327
0.016752
0.0167699
0.0167863
0.0168013
0.0168148
0.016827
0.0168379
0.0168474
0.0168556
0.0168626
0.0168683
0.0168729
0.0168761
0.0168782
0.0168792
0.0168789
0.0168775
0.016875
0.0168713
0.0168665
0.0168606
0.0168536
0.0168455
0.0168362
0.0168259
0.0168145
0.016802
0.0167884
0.0167737
0.0167579
0.0167409
0.0167229
0.0167038
0.0166836
0.0166622
0.0166398
0.0166161
0.0165914
0.0165655
0.0165384
0.0165101
0.0164807
0.01645
0.0164182
0.0163851
0.0163508
0.0163152
0.0162783
0.0162402
0.0162007
0.0161599
0.0161177
0.0160742
0.0160293
0.015983
0.0159352
0.015886
0.0158353
0.0157831
0.0157294
0.0156741
0.0156173
0.0155588
0.0154987
0.0154369
0.0153734
0.0153082
0.0152413
0.0151725
0.015102
0.0150296
0.0149552
0.014879
0.0148007
0.0147205
0.0146382
0.0145538
0.0144673
0.0143785
0.0142876
0.0141943
0.0140987
0.0140006
0.0139001
0.0137971
0.0136914
0.0135831
0.013472
0.013358
0.0132411
0.0131212
0.0129982
0.0128719
0.0127422
0.012609
0.0124721
0.0123314
0.0121867
0.0120379
0.0118846
0.0117267
0.0115638
0.0113958
0.0112222
0.0110427
0.0108569
0.0106642
0.0104641
0.010256
0.010039
0.00981243
0.00957515
0.009326
0.0090636
0.00878628
0.00849207
0.0081786
0.00784301
0.00748181
0.0070908
0.00666482
0.00619759
0.00568142
0.005107
0.0044631
0.00373669
0.00291353
0.00198175
0.00095487
9.11234e-05
0.000125487
0.00125801
0.00251731
0.00360938
0.00455035
0.00537219
0.00610075
0.00675519
0.0073495
0.007894
0.00839638
0.00886249
0.0092969
0.0097032
0.0100843
0.0104426
0.01078
0.0110984
0.0113991
0.0116834
0.0119525
0.0122074
0.0124491
0.0126783
0.0128959
0.0131025
0.0132988
0.0134854
0.0136629
0.0138318
0.0139925
0.0141456
0.0142914
0.0144303
0.0145627
0.014689
0.0148093
0.0149241
0.0150337
0.0151381
0.0152378
0.0153328
0.0154234
0.0155098
0.0155922
0.0156707
0.0157455
0.0158168
0.0158847
0.0159495
0.0160111
0.0160698
0.0161257
0.0161789
0.0162295
0.0162776
0.0163233
0.0163667
0.0164078
0.0164468
0.0164838
0.0165187
0.0165516
0.0165827
0.016612
0.0166395
0.0166652
0.0166893
0.0167118
0.0167327
0.016752
0.0167699
0.0167863
0.0168013
0.0168148
0.016827
0.0168379
0.0168474
0.0168556
0.0168626
0.0168683
0.0168729
0.0168761
0.0168782
0.0168792
0.0168789
0.0168775
0.016875
0.0168713
0.0168665
0.0168606
0.0168536
0.0168455
0.0168362
0.0168259
0.0168145
0.016802
0.0167884
0.0167737
0.0167578
0.0167409
0.0167229
0.0167038
0.0166836
0.0166622
0.0166398
0.0166161
0.0165914
0.0165655
0.0165384
0.0165101
0.0164807
0.01645
0.0164182
0.0163851
0.0163508
0.0163152
0.0162783
0.0162401
0.0162007
0.0161599
0.0161177
0.0160742
0.0160293
0.015983