/*--------------------------------*- C++ -*----------------------------------*\
  =========                 |
  \\      /  F ield         | OpenFOAM: The Open Source CFD Toolbox
   \\    /   O peration     | Website:  https://openfoam.org
    \\  /    A nd           | Version:  8
     \\/     M anipulation  |
\*---------------------------------------------------------------------------*/
FoamFile
{
    version     2.0;
    format      ascii;
    class       volScalarField;
    location    "3100";
    object      nut;
}
// * * * * * * * * * * * * * * * * * * * * * * * * * * * * * * * * * * * * * //

dimensions      [0 2 -1 0 0 0 0];

internalField   nonuniform List<scalar> 
48000
(
4.68527e-05
8.05215e-05
0.000102317
0.000117034
0.000129257
0.000139522
0.000148411
0.000156325
0.000163671
0.000170377
0.000176615
0.000182449
0.000187931
0.000193105
0.000198002
0.000202648
0.000207065
0.000211269
0.000215275
0.000219094
0.000222736
0.000226211
0.000229524
0.000232684
0.000235695
0.000238563
0.000241294
0.000243891
0.000246359
0.000248702
0.000250924
0.000253029
0.00025502
0.000256901
0.000258676
0.000260348
0.000261921
0.000263397
0.00026478
0.000266074
0.00026728
0.000268403
0.000269445
0.000270409
0.00027131
0.000272144
0.000272908
0.000273606
0.000274239
0.00027481
0.000275322
0.000275777
0.000276179
0.000276529
0.00027683
0.000277084
0.000277293
0.000277459
0.000277584
0.00027767
0.000277718
0.000277731
0.00027771
0.000277656
0.000277571
0.000277457
0.000277314
0.000277144
0.000276949
0.000276728
0.000276484
0.000276217
0.000275929
0.000275619
0.00027529
0.000274941
0.000274573
0.000274188
0.000273785
0.000273366
0.000272931
0.00027248
0.000272014
0.000271533
0.000271038
0.00027053
0.000270007
0.000269471
0.000268922
0.000268361
0.000267787
0.0002672
0.000266601
0.00026599
0.000265367
0.000264732
0.000264086
0.000263427
0.000262757
0.000262075
0.000261381
0.000260675
0.000259958
0.000259228
0.000258487
0.000257733
0.000256967
0.000256189
0.000255398
0.000254595
0.000253779
0.000252949
0.000252107
0.000251251
0.000250381
0.000249498
0.0002486
0.000247688
0.000246762
0.00024582
0.000244864
0.000243892
0.000242904
0.0002419
0.00024088
0.000239844
0.00023879
0.000237719
0.000236631
0.000235525
0.000234401
0.000233258
0.000232097
0.000230916
0.000229716
0.000228496
0.000227256
0.000225995
0.000224714
0.000223412
0.000222088
0.000220742
0.000219375
0.000217985
0.000216572
0.000215136
0.000213677
0.000212194
0.000210687
0.000209156
0.0002076
0.000206019
0.000204413
0.00020278
0.000201122
0.000199438
0.000197726
0.000195987
0.000194221
0.000192426
0.000190602
0.00018875
0.000186868
0.000184955
0.000183012
0.000181037
0.000179029
0.000176988
0.000174913
0.000172802
0.000170655
0.00016847
0.000166245
0.000163978
0.000161669
0.000159313
0.00015691
0.000154455
0.000151945
0.000149377
0.000146748
0.000144055
0.000141308
0.000138489
0.000135574
0.000132552
0.000129408
0.000126122
0.000122671
0.000119025
0.000115142
0.000110971
0.000106481
0.000101558
9.60353e-05
8.96682e-05
8.20229e-05
7.2195e-05
5.80816e-05
0.000211022
4.68462e-05
8.05249e-05
0.000102318
0.000117034
0.000129258
0.000139523
0.000148411
0.000156326
0.000163672
0.000170378
0.000176615
0.000182449
0.000187932
0.000193105
0.000198002
0.000202648
0.000207065
0.000211269
0.000215275
0.000219094
0.000222737
0.000226211
0.000229525
0.000232684
0.000235695
0.000238564
0.000241294
0.000243891
0.000246359
0.000248702
0.000250924
0.000253029
0.00025502
0.000256901
0.000258676
0.000260348
0.000261921
0.000263397
0.00026478
0.000266074
0.00026728
0.000268403
0.000269445
0.000270409
0.00027131
0.000272144
0.000272908
0.000273606
0.000274239
0.00027481
0.000275322
0.000275777
0.000276179
0.000276529
0.00027683
0.000277084
0.000277293
0.000277459
0.000277584
0.00027767
0.000277718
0.000277731
0.00027771
0.000277656
0.000277571
0.000277457
0.000277314
0.000277144
0.000276949
0.000276728
0.000276484
0.000276217
0.000275929
0.000275619
0.00027529
0.000274941
0.000274573
0.000274188
0.000273785
0.000273366
0.000272931
0.00027248
0.000272014
0.000271533
0.000271038
0.00027053
0.000270007
0.000269471
0.000268922
0.000268361
0.000267787
0.0002672
0.000266601
0.00026599
0.000265367
0.000264732
0.000264086
0.000263427
0.000262757
0.000262075
0.000261381
0.000260675
0.000259958
0.000259228
0.000258487
0.000257733
0.000256967
0.000256189
0.000255398
0.000254595
0.000253779
0.000252949
0.000252107
0.000251251
0.000250381
0.000249498
0.0002486
0.000247688
0.000246762
0.00024582
0.000244864
0.000243892
0.000242904
0.0002419
0.00024088
0.000239844
0.00023879
0.000237719
0.000236631
0.000235525
0.000234401
0.000233258
0.000232097
0.000230916
0.000229716
0.000228496
0.000227256
0.000225995
0.000224714
0.000223412
0.000222088
0.000220742
0.000219375
0.000217985
0.000216572
0.000215136
0.000213677
0.000212194
0.000210687
0.000209156
0.0002076
0.000206019
0.000204413
0.00020278
0.000201122
0.000199438
0.000197726
0.000195987
0.000194221
0.000192426
0.000190602
0.00018875
0.000186868
0.000184955
0.000183012
0.000181037
0.000179029
0.000176988
0.000174913
0.000172802
0.000170655
0.00016847
0.000166245
0.000163978
0.000161669
0.000159313
0.00015691
0.000154455
0.000151945
0.000149377
0.000146748
0.000144055
0.000141308
0.000138489
0.000135574
0.000132552
0.000129408
0.000126122
0.000122671
0.000119025
0.000115142
0.000110971
0.000106481
0.000101558
9.60353e-05
8.96682e-05
8.20222e-05
7.21929e-05
5.80849e-05
0.000211006
7.04503e-05
0.000528998
0.000841649
0.00105965
0.00122174
0.00135448
0.00146828
0.00156831
0.00165721
0.00173787
0.00181168
0.00187975
0.00194292
0.00200183
0.00205698
0.00210879
0.00215757
0.00220361
0.00224713
0.00228832
0.00232735
0.00236437
0.0023995
0.00243285
0.00246452
0.0024946
0.00252316
0.00255029
0.00257604
0.00260049
0.00262367
0.00264565
0.00266648
0.0026862
0.00270485
0.00272248
0.00273913
0.00275482
0.00276961
0.00278351
0.00279657
0.0028088
0.00282023
0.00283083
0.00284047
0.00284932
0.00285749
0.00286504
0.002872
0.00287839
0.00288425
0.0028896
0.00289445
0.00289883
0.00290276
0.00290625
0.00290932
0.00291199
0.00291426
0.00291617
0.00291772
0.00291892
0.00291979
0.00292035
0.0029206
0.00292055
0.00292022
0.00291961
0.00291874
0.00291762
0.00291626
0.00291465
0.00291282
0.00291077
0.0029085
0.00290603
0.00290335
0.00290048
0.00289742
0.00289418
0.00289076
0.00288716
0.00288339
0.00287945
0.00287535
0.0028711
0.00286668
0.00286211
0.00285738
0.00285251
0.00284749
0.00284232
0.002837
0.00283154
0.00282594
0.00282019
0.0028143
0.00280828
0.0028021
0.00279579
0.00278934
0.00278274
0.002776
0.00276911
0.00276208
0.00275491
0.00274759
0.00274012
0.0027325
0.00272473
0.00271681
0.00270873
0.00270049
0.0026921
0.00268354
0.00267483
0.00266594
0.00265689
0.00264767
0.00263827
0.0026287
0.00261895
0.00260902
0.0025989
0.00258859
0.0025781
0.00256741
0.00255652
0.00254544
0.00253415
0.00252265
0.00251095
0.00249903
0.0024869
0.00247455
0.00246197
0.00244917
0.00243614
0.00242288
0.00240938
0.00239564
0.00238166
0.00236743
0.00235295
0.00233822
0.00232323
0.00230798
0.00229247
0.00227669
0.00226064
0.00224432
0.00222771
0.00221083
0.00219365
0.00217619
0.00215843
0.00214036
0.002122
0.00210332
0.00208432
0.002065
0.00204535
0.00202537
0.00200503
0.00198435
0.0019633
0.00194187
0.00192006
0.00189785
0.00187522
0.00185217
0.00182866
0.00180468
0.00178021
0.00175521
0.00172966
0.00170352
0.00167674
0.00164928
0.00162106
0.00159199
0.00156195
0.00153075
0.00149834
0.00146466
0.00142958
0.00139292
0.00135441
0.00131373
0.0012704
0.00122377
0.00117274
0.00111527
0.00105022
0.000974962
0.000884916
0.000771719
0.000618345
0.000386182
5.09558e-05
7.04542e-05
0.00052902
0.00084166
0.00105966
0.00122176
0.0013545
0.00146831
0.00156833
0.00165723
0.00173789
0.0018117
0.00187977
0.00194294
0.00200185
0.002057
0.00210881
0.00215759
0.00220363
0.00224714
0.00228833
0.00232737
0.00236438
0.00239951
0.00243286
0.00246453
0.00249461
0.00252318
0.0025503
0.00257606
0.0026005
0.00262368
0.00264566
0.00266649
0.00268621
0.00270486
0.00272249
0.00273914
0.00275483
0.00276962
0.00278352
0.00279658
0.00280881
0.00282024
0.00283084
0.00284047
0.00284933
0.0028575
0.00286505
0.00287201
0.0028784
0.00288426
0.00288961
0.00289446
0.00289884
0.00290277
0.00290626
0.00290933
0.00291199
0.00291427
0.00291618
0.00291772
0.00291893
0.0029198
0.00292035
0.0029206
0.00292056
0.00292022
0.00291962
0.00291875
0.00291763
0.00291626
0.00291466
0.00291283
0.00291077
0.00290851
0.00290603
0.00290336
0.00290049
0.00289743
0.00289419
0.00289076
0.00288716
0.0028834
0.00287946
0.00287536
0.0028711
0.00286668
0.00286211
0.00285739
0.00285251
0.00284749
0.00284232
0.00283701
0.00283155
0.00282594
0.0028202
0.00281431
0.00280828
0.00280211
0.0027958
0.00278934
0.00278274
0.002776
0.00276912
0.00276209
0.00275492
0.00274759
0.00274013
0.00273251
0.00272474
0.00271681
0.00270873
0.0027005
0.0026921
0.00268355
0.00267483
0.00266595
0.0026569
0.00264767
0.00263828
0.0026287
0.00261895
0.00260902
0.0025989
0.0025886
0.0025781
0.00256742
0.00255653
0.00254544
0.00253416
0.00252266
0.00251096
0.00249904
0.00248691
0.00247455
0.00246198
0.00244918
0.00243615
0.00242288
0.00240938
0.00239564
0.00238166
0.00236743
0.00235295
0.00233822
0.00232324
0.00230799
0.00229248
0.0022767
0.00226065
0.00224432
0.00222772
0.00221083
0.00219366
0.00217619
0.00215843
0.00214037
0.002122
0.00210332
0.00208433
0.00206501
0.00204536
0.00202537
0.00200504
0.00198435
0.0019633
0.00194188
0.00192007
0.00189785
0.00187523
0.00185217
0.00182866
0.00180469
0.00178021
0.00175522
0.00172967
0.00170353
0.00167675
0.00164928
0.00162106
0.00159199
0.00156195
0.00153076
0.00149834
0.00146466
0.00142959
0.00139292
0.00135442
0.00131373
0.00127041
0.00122377
0.00117275
0.00111527
0.00105022
0.000974965
0.000884918
0.000771722
0.000618354
0.000386173
5.09401e-05
8.8102e-05
0.00080438
0.00143087
0.00189913
0.00226795
0.00257385
0.00283658
0.00306747
0.00327345
0.00345956
0.00362921
0.00378496
0.00392874
0.00406207
0.00418618
0.00430205
0.00441052
0.00451227
0.00460792
0.00469796
0.00478285
0.00486297
0.00493868
0.00501028
0.00507804
0.00514222
0.00520303
0.00526067
0.00531532
0.00536716
0.00541633
0.00546297
0.00550721
0.00554917
0.00558895
0.00562665
0.00566237
0.0056962
0.00572821
0.00575847
0.00578705
0.00581401
0.00583938
0.00586316
0.00588532
0.00590601
0.00592534
0.00594342
0.00596031
0.00597607
0.00599076
0.00600441
0.00601709
0.00602881
0.00603962
0.00604956
0.00605865
0.00606693
0.00607442
0.00608116
0.00608716
0.00609247
0.00609709
0.00610106
0.0061044
0.00610712
0.00610926
0.00611082
0.00611182
0.00611229
0.00611224
0.00611168
0.00611064
0.00610912
0.00610713
0.0061047
0.00610182
0.00609852
0.00609481
0.00609068
0.00608616
0.00608124
0.00607594
0.00607027
0.00606423
0.00605782
0.00605106
0.00604394
0.00603647
0.00602866
0.00602051
0.00601202
0.0060032
0.00599404
0.00598455
0.00597473
0.00596458
0.0059541
0.00594329
0.00593215
0.00592069
0.00590889
0.00589676
0.00588429
0.0058715
0.00585836
0.00584488
0.00583106
0.0058169
0.00580239
0.00578752
0.0057723
0.00575671
0.00574076
0.00572445
0.00570775
0.00569068
0.00567323
0.00565538
0.00563714
0.0056185
0.00559946
0.00558
0.00556012
0.00553981
0.00551908
0.0054979
0.00547628
0.00545421
0.00543168
0.00540869
0.00538522
0.00536127
0.00533683
0.0053119
0.00528646
0.00526052
0.00523405
0.00520706
0.00517954
0.00515147
0.00512285
0.00509367
0.00506392
0.0050336
0.00500268
0.00497118
0.00493907
0.00490634
0.00487299
0.004839
0.00480437
0.00476907
0.00473311
0.00469646
0.00465912
0.00462106
0.00458228
0.00454276
0.00450247
0.0044614
0.00441954
0.00437685
0.00433331
0.0042889
0.00424359
0.00419735
0.00415013
0.00410191
0.00405263
0.00400225
0.00395071
0.00389796
0.00384391
0.0037885
0.00373163
0.00367318
0.00361305
0.00355107
0.00348707
0.00342082
0.00335207
0.00328049
0.00320579
0.00312765
0.00304558
0.00295898
0.00286708
0.0027689
0.00266307
0.00254777
0.0024204
0.00227721
0.0021137
0.00192353
0.00169641
0.00141604
0.00105599
0.000578211
6.35109e-05
8.81029e-05
0.00080439
0.0014309
0.00189917
0.00226799
0.00257389
0.00283663
0.00306751
0.0032735
0.0034596
0.00362925
0.003785
0.00392877
0.00406211
0.00418621
0.00430208
0.00441055
0.00451231
0.00460795
0.00469799
0.00478287
0.004863
0.00493871
0.0050103
0.00507806
0.00514224
0.00520305
0.00526069
0.00531534
0.00536718
0.00541635
0.00546299
0.00550723
0.00554918
0.00558896
0.00562667
0.00566239
0.00569621
0.00572822
0.00575848
0.00578706
0.00581402
0.00583939
0.00586317
0.00588533
0.00590602
0.00592535
0.00594342
0.00596031
0.00597607
0.00599076
0.00600442
0.00601709
0.00602882
0.00603963
0.00604956
0.00605865
0.00606693
0.00607442
0.00608116
0.00608717
0.00609247
0.0060971
0.00610107
0.0061044
0.00610713
0.00610926
0.00611082
0.00611183
0.00611229
0.00611224
0.00611169
0.00611064
0.00610912
0.00610713
0.0061047
0.00610183
0.00609853
0.00609481
0.00609068
0.00608616
0.00608124
0.00607594
0.00607027
0.00606423
0.00605782
0.00605106
0.00604394
0.00603648
0.00602867
0.00602052
0.00601203
0.0060032
0.00599404
0.00598455
0.00597473
0.00596458
0.0059541
0.00594329
0.00593216
0.00592069
0.00590889
0.00589676
0.0058843
0.0058715
0.00585836
0.00584488
0.00583107
0.0058169
0.00580239
0.00578752
0.0057723
0.00575671
0.00574076
0.00572445
0.00570775
0.00569068
0.00567323
0.00565538
0.00563714
0.0056185
0.00559946
0.00558
0.00556012
0.00553981
0.00551908
0.0054979
0.00547629
0.00545421
0.00543168
0.00540869
0.00538522
0.00536127
0.00533683
0.0053119
0.00528647
0.00526052
0.00523405
0.00520706
0.00517954
0.00515147
0.00512285
0.00509367
0.00506392
0.0050336
0.00500268
0.00497118
0.00493907
0.00490634
0.00487299
0.004839
0.00480437
0.00476907
0.00473311
0.00469646
0.00465912
0.00462106
0.00458228
0.00454276
0.00450247
0.0044614
0.00441954
0.00437685
0.00433331
0.0042889
0.00424359
0.00419735
0.00415013
0.00410191
0.00405263
0.00400225
0.00395071
0.00389796
0.00384391
0.0037885
0.00373163
0.00367318
0.00361305
0.00355107
0.00348707
0.00342082
0.00335207
0.00328049
0.00320579
0.00312765
0.00304558
0.00295898
0.00286708
0.0027689
0.00266307
0.00254777
0.0024204
0.00227721
0.0021137
0.00192353
0.00169641
0.00141604
0.00105599
0.000578206
6.3512e-05
9.99528e-05
0.00097046
0.00182478
0.00250247
0.00305575
0.00352275
0.00392734
0.00428468
0.00460479
0.00489467
0.00515937
0.00540263
0.00562733
0.00583576
0.00602974
0.00621079
0.00638016
0.00653894
0.00668803
0.00682826
0.00696033
0.00708485
0.0072024
0.00731346
0.00741849
0.00751789
0.00761203
0.00770125
0.00778583
0.00786607
0.00794221
0.00801449
0.00808312
0.00814828
0.00821017
0.00826895
0.00832476
0.00837774
0.00842804
0.00847575
0.00852099
0.00856384
0.00860439
0.00864268
0.00867875
0.00871274
0.00874478
0.00877497
0.00880341
0.00883019
0.00885538
0.00887905
0.00890127
0.00892209
0.00894156
0.00895974
0.00897667
0.0089924
0.00900698
0.00902043
0.0090328
0.00904413
0.00905444
0.00906378
0.00907218
0.00907966
0.00908625
0.00909198
0.00909687
0.00910096
0.00910426
0.00910679
0.00910857
0.00910963
0.00910998
0.00910964
0.00910862
0.00910695
0.00910463
0.00910167
0.0090981
0.00909392
0.00908914
0.00908377
0.00907782
0.0090713
0.00906422
0.00905658
0.00904839
0.00903966
0.00903038
0.00902056
0.00901022
0.00899934
0.00898793
0.00897599
0.00896353
0.00895055
0.00893704
0.008923
0.00890844
0.00889334
0.00887772
0.00886157
0.00884487
0.00882764
0.00880987
0.00879155
0.00877268
0.00875325
0.00873326
0.0087127
0.00869157
0.00866986
0.00864756
0.00862466
0.00860117
0.00857706
0.00855233
0.00852698
0.00850099
0.00847436
0.00844708
0.00841913
0.0083905
0.0083612
0.0083312
0.00830049
0.00826908
0.00823693
0.00820405
0.00817041
0.00813602
0.00810085
0.0080649
0.00802815
0.00799059
0.00795221
0.00791298
0.00787291
0.00783198
0.00779016
0.00774745
0.00770383
0.00765929
0.00761381
0.00756737
0.00751995
0.00747154
0.00742212
0.00737167
0.00732017
0.00726759
0.00721392
0.00715913
0.00710319
0.00704608
0.00698776
0.00692821
0.0068674
0.00680528
0.00674182
0.00667698
0.0066107
0.00654295
0.00647366
0.00640278
0.00633023
0.00625595
0.00617985
0.00610184
0.00602182
0.00593967
0.00585527
0.00576847
0.00567909
0.00558694
0.0054918
0.0053934
0.00529141
0.00518549
0.00507517
0.00495996
0.00483929
0.00471245
0.0045786
0.00443664
0.00428521
0.00412255
0.00394636
0.00375373
0.00354069
0.00330194
0.00303048
0.0027173
0.0023492
0.00190754
0.00136707
0.000705081
7.23778e-05
9.99532e-05
0.000970475
0.00182481
0.00250252
0.00305581
0.00352282
0.00392741
0.00428474
0.00460485
0.00489473
0.00515943
0.00540268
0.00562739
0.00583581
0.00602979
0.00621084
0.00638021
0.00653898
0.00668808
0.0068283
0.00696037
0.00708489
0.00720244
0.0073135
0.00741852
0.00751792
0.00761206
0.00770127
0.00778586
0.0078661
0.00794224
0.00801451
0.00808314
0.0081483
0.00821019
0.00826896
0.00832477
0.00837776
0.00842805
0.00847576
0.008521
0.00856385
0.0086044
0.00864269
0.00867876
0.00871275
0.00874478
0.00877497
0.00880341
0.00883019
0.00885538
0.00887905
0.00890127
0.00892209
0.00894156
0.00895974
0.00897668
0.00899241
0.00900698
0.00902043
0.0090328
0.00904413
0.00905445
0.00906378
0.00907218
0.00907966
0.00908625
0.00909198
0.00909687
0.00910096
0.00910426
0.00910679
0.00910857
0.00910963
0.00910998
0.00910964
0.00910862
0.00910695
0.00910463
0.00910167
0.0090981
0.00909392
0.00908914
0.00908377
0.00907782
0.0090713
0.00906422
0.00905658
0.00904839
0.00903965
0.00903038
0.00902056
0.00901021
0.00899933
0.00898793
0.00897599
0.00896353
0.00895055
0.00893703
0.008923
0.00890843
0.00889334
0.00887772
0.00886156
0.00884487
0.00882764
0.00880987
0.00879155
0.00877268
0.00875325
0.00873326
0.0087127
0.00869157
0.00866985
0.00864755
0.00862466
0.00860116
0.00857705
0.00855233
0.00852698
0.00850099
0.00847436
0.00844707
0.00841912
0.0083905
0.00836119
0.00833119
0.00830049
0.00826907
0.00823692
0.00820404
0.00817041
0.00813601
0.00810085
0.0080649
0.00802815
0.00799059
0.0079522
0.00791298
0.00787291
0.00783197
0.00779016
0.00774745
0.00770383
0.00765928
0.0076138
0.00756736
0.00751994
0.00747154
0.00742212
0.00737166
0.00732016
0.00726759
0.00721391
0.00715912
0.00710318
0.00704607
0.00698776
0.00692821
0.00686739
0.00680528
0.00674182
0.00667697
0.0066107
0.00654294
0.00647366
0.00640277
0.00633022
0.00625594
0.00617984
0.00610183
0.00602181
0.00593967
0.00585527
0.00576846
0.00567908
0.00558694
0.0054918
0.00539339
0.00529141
0.00518548
0.00507517
0.00495996
0.00483928
0.00471245
0.00457859
0.00443664
0.00428521
0.00412254
0.00394636
0.00375373
0.00354069
0.00330194
0.00303048
0.0027173
0.0023492
0.00190754
0.00136707
0.000705078
7.23782e-05
0.000109471
0.00108367
0.00210572
0.00295125
0.00365814
0.00426323
0.00479207
0.00526198
0.00568492
0.00606939
0.0064216
0.00674622
0.00704684
0.00732633
0.00758697
0.00783067
0.00805902
0.00827338
0.00847491
0.00866466
0.00884352
0.00901231
0.00917174
0.00932248
0.00946511
0.00960017
0.00972815
0.0098495
0.00996463
0.0100739
0.0101777
0.0102763
0.01037
0.0104591
0.0105438
0.0106244
0.0107011
0.010774
0.0108433
0.0109092
0.0109719
0.0110314
0.011088
0.0111416
0.0111924
0.0112406
0.0112862
0.0113294
0.0113704
0.0114091
0.0114458
0.0114805
0.0115132
0.0115442
0.0115733
0.0116008
0.0116266
0.0116509
0.0116737
0.0116949
0.0117148
0.0117333
0.0117504
0.0117663
0.011781
0.0117944
0.0118067
0.0118178
0.0118278
0.0118368
0.0118447
0.0118515
0.0118574
0.0118624
0.0118664
0.0118694
0.0118716
0.0118729
0.0118733
0.0118728
0.0118716
0.0118695
0.0118666
0.0118629
0.0118584
0.0118532
0.0118471
0.0118404
0.0118328
0.0118246
0.0118156
0.0118058
0.0117954
0.0117842
0.0117723
0.0117596
0.0117463
0.0117322
0.0117174
0.0117019
0.0116857
0.0116687
0.011651
0.0116326
0.0116135
0.0115936
0.0115729
0.0115516
0.0115294
0.0115065
0.0114829
0.0114584
0.0114332
0.0114071
0.0113803
0.0113527
0.0113242
0.0112949
0.0112647
0.0112337
0.0112019
0.0111691
0.0111354
0.0111009
0.0110654
0.011029
0.0109916
0.0109533
0.010914
0.0108737
0.0108324
0.01079
0.0107466
0.0107022
0.0106567
0.0106101
0.0105623
0.0105135
0.0104635
0.0104123
0.0103599
0.0103063
0.0102515
0.0101954
0.010138
0.0100793
0.0100193
0.00995798
0.00989524
0.00983108
0.00976548
0.00969841
0.00962983
0.00955971
0.009488
0.00941468
0.0093397
0.00926301
0.00918456
0.00910431
0.0090222
0.00893817
0.00885215
0.00876407
0.00867386
0.00858143
0.0084867
0.00838955
0.00828987
0.00818755
0.00808244
0.00797438
0.00786321
0.00774873
0.00763071
0.0075089
0.007383
0.00725269
0.00711756
0.00697717
0.00683096
0.00667833
0.00651853
0.00635069
0.00617379
0.00598656
0.00578744
0.0055745
0.0053453
0.00509678
0.00482504
0.00452506
0.00419035
0.00381264
0.00338128
0.00288238
0.00229792
0.00160708
0.000801845
7.9435e-05
0.000109471
0.00108369
0.00210575
0.00295131
0.00365821
0.0042633
0.00479214
0.00526205
0.005685
0.00606947
0.00642167
0.00674629
0.00704691
0.0073264
0.00758704
0.00783073
0.00805908
0.00827343
0.00847497
0.00866472
0.00884358
0.00901236
0.00917179
0.00932252
0.00946515
0.00960021
0.00972819
0.00984954
0.00996466
0.0100739
0.0101777
0.0102763
0.0103701
0.0104591
0.0105439
0.0106244
0.0107011
0.010774
0.0108433
0.0109092
0.0109719
0.0110314
0.011088
0.0111416
0.0111924
0.0112406
0.0112862
0.0113294
0.0113704
0.0114091
0.0114458
0.0114805
0.0115132
0.0115442
0.0115733
0.0116008
0.0116266
0.0116509
0.0116737
0.0116949
0.0117148
0.0117333
0.0117504
0.0117663
0.011781
0.0117944
0.0118067
0.0118178
0.0118278
0.0118367
0.0118447
0.0118515
0.0118574
0.0118624
0.0118664
0.0118694
0.0118716
0.0118729
0.0118733
0.0118728
0.0118716
0.0118695
0.0118666
0.0118629
0.0118584
0.0118531
0.0118471
0.0118404
0.0118328
0.0118246
0.0118156
0.0118058
0.0117954
0.0117842
0.0117723
0.0117596
0.0117463
0.0117322
0.0117174
0.0117019
0.0116857
0.0116687
0.011651
0.0116326
0.0116135
0.0115936
0.0115729
0.0115516
0.0115294
0.0115065
0.0114829
0.0114584
0.0114332
0.0114071
0.0113803
0.0113527
0.0113242
0.0112949
0.0112647
0.0112337
0.0112019
0.0111691
0.0111354
0.0111009
0.0110654
0.011029
0.0109916
0.0109533
0.010914
0.0108737
0.0108324
0.01079
0.0107466
0.0107022
0.0106567
0.0106101
0.0105623
0.0105135
0.0104635
0.0104123
0.0103599
0.0103063
0.0102515
0.0101954
0.010138
0.0100793
0.0100193
0.00995798
0.00989523
0.00983108
0.00976548
0.0096984
0.00962982
0.0095597
0.00948799
0.00941467
0.00933969
0.009263
0.00918455
0.0091043
0.00902219
0.00893816
0.00885214
0.00876406
0.00867385
0.00858143
0.00848669
0.00838954
0.00828986
0.00818754
0.00808243
0.00797437
0.0078632
0.00774872
0.0076307
0.00750889
0.007383
0.00725268
0.00711756
0.00697716
0.00683096
0.00667832
0.00651852
0.00635069
0.00617379
0.00598656
0.00578744
0.00557449
0.0053453
0.00509678
0.00482504
0.00452505
0.00419035
0.00381264
0.00338128
0.00288238
0.00229792
0.00160708
0.000801842
7.9435e-05
0.000117573
0.00117384
0.00232355
0.00330228
0.00413491
0.0048557
0.00549053
0.00605788
0.00657091
0.00703916
0.00746967
0.00786778
0.00823763
0.00858248
0.00890499
0.00920732
0.00949131
0.0097585
0.0100103
0.0102477
0.010472
0.010684
0.0108846
0.0110745
0.0112544
0.011425
0.0115868
0.0117404
0.0118863
0.012025
0.0121568
0.0122821
0.0124014
0.0125149
0.012623
0.0127259
0.0128239
0.0129172
0.0130062
0.0130909
0.0131716
0.0132484
0.0133215
0.0133911
0.0134572
0.0135201
0.01358
0.0136368
0.0136908
0.0137422
0.0137909
0.0138373
0.0138812
0.0139229
0.0139624
0.0139999
0.0140353
0.0140688
0.0141004
0.0141302
0.0141582
0.0141846
0.0142093
0.0142325
0.0142541
0.0142742
0.0142929
0.0143102
0.0143261
0.0143407
0.0143541
0.0143661
0.0143769
0.0143866
0.014395
0.0144023
0.0144085
0.0144136
0.0144176
0.0144206
0.0144225
0.0144234
0.0144233
0.0144222
0.0144201
0.014417
0.014413
0.014408
0.0144021
0.0143953
0.0143875
0.0143788
0.0143692
0.0143587
0.0143472
0.0143349
0.0143216
0.0143075
0.0142924
0.0142764
0.0142595
0.0142417
0.014223
0.0142034
0.0141828
0.0141613
0.0141389
0.0141155
0.0140911
0.0140658
0.0140395
0.0140123
0.013984
0.0139548
0.0139245
0.0138932
0.0138608
0.0138274
0.013793
0.0137574
0.0137208
0.013683
0.0136441
0.0136041
0.0135629
0.0135205
0.0134769
0.0134321
0.013386
0.0133387
0.0132901
0.0132402
0.013189
0.0131364
0.0130825
0.0130272
0.0129704
0.0129123
0.0128526
0.0127915
0.0127288
0.0126646
0.0125988
0.0125314
0.0124623
0.0123916
0.0123192
0.012245
0.0121691
0.0120913
0.0120117
0.0119301
0.0118466
0.0117611
0.0116736
0.011584
0.0114921
0.0113981
0.0113018
0.0112031
0.011102
0.0109983
0.0108921
0.0107831
0.0106714
0.0105567
0.0104389
0.010318
0.0101937
0.010066
0.00993448
0.00979909
0.00965955
0.00951561
0.00936695
0.00921324
0.00905409
0.00888904
0.00871759
0.00853911
0.00835293
0.0081582
0.00795398
0.00773912
0.00751226
0.00727177
0.00701567
0.00674151
0.00644631
0.00612636
0.00577705
0.00539263
0.00496589
0.00448783
0.00394716
0.00333033
0.00262115
0.00180354
0.000881387
8.53985e-05
0.000117574
0.00117386
0.00232359
0.00330233
0.00413498
0.00485577
0.00549061
0.00605796
0.006571
0.00703924
0.00746975
0.00786786
0.00823771
0.00858256
0.00890507
0.0092074
0.00949138
0.00975857
0.0100103
0.0102478
0.0104721
0.0106841
0.0108847
0.0110745
0.0112545
0.011425
0.0115869
0.0117405
0.0118864
0.012025
0.0121568
0.0122822
0.0124014
0.0125149
0.012623
0.0127259
0.0128239
0.0129173
0.0130062
0.0130909
0.0131716
0.0132484
0.0133215
0.0133911
0.0134573
0.0135202
0.01358
0.0136368
0.0136908
0.0137422
0.013791
0.0138373
0.0138812
0.0139229
0.0139624
0.0139999
0.0140353
0.0140688
0.0141004
0.0141302
0.0141582
0.0141846
0.0142093
0.0142325
0.0142541
0.0142742
0.0142929
0.0143102
0.0143261
0.0143407
0.0143541
0.0143661
0.0143769
0.0143866
0.014395
0.0144023
0.0144085
0.0144136
0.0144176
0.0144206
0.0144225
0.0144234
0.0144233
0.0144222
0.0144201
0.014417
0.014413
0.014408
0.0144021
0.0143953
0.0143875
0.0143788
0.0143692
0.0143587
0.0143472
0.0143349
0.0143216
0.0143075
0.0142924
0.0142764
0.0142595
0.0142417
0.014223
0.0142034
0.0141828
0.0141613
0.0141389
0.0141155
0.0140911
0.0140658
0.0140395
0.0140123
0.013984
0.0139548
0.0139245
0.0138932
0.0138608
0.0138274
0.013793
0.0137574
0.0137208
0.013683
0.0136441
0.0136041
0.0135628
0.0135205
0.0134769
0.0134321
0.013386
0.0133387
0.0132901
0.0132402
0.013189
0.0131364
0.0130825
0.0130272
0.0129704
0.0129123
0.0128526
0.0127915
0.0127288
0.0126646
0.0125988
0.0125314
0.0124623
0.0123916
0.0123192
0.012245
0.0121691
0.0120913
0.0120117
0.0119301
0.0118466
0.0117611
0.0116736
0.0115839
0.0114921
0.0113981
0.0113018
0.0112031
0.011102
0.0109983
0.0108921
0.0107831
0.0106714
0.0105567
0.0104389
0.010318
0.0101937
0.010066
0.00993447
0.00979908
0.00965954
0.0095156
0.00936694
0.00921323
0.00905408
0.00888903
0.00871758
0.00853911
0.00835292
0.00815819
0.00795397
0.00773911
0.00751225
0.00727177
0.00701566
0.0067415
0.0064463
0.00612635
0.00577705
0.00539262
0.00496589
0.00448783
0.00394716
0.00333033
0.00262115
0.00180354
0.000881384
8.53985e-05
0.000124797
0.00125108
0.00250345
0.0035895
0.00452529
0.00534261
0.00606716
0.006718
0.00730905
0.00785056
0.00835017
0.00881373
0.00924575
0.00964981
0.0100288
0.0103851
0.0107207
0.0110373
0.0113364
0.0116191
0.0118868
0.0121403
0.0123806
0.0126086
0.0128249
0.0130304
0.0132257
0.0134112
0.0135878
0.0137557
0.0139155
0.0140678
0.0142128
0.0143509
0.0144826
0.0146082
0.0147279
0.014842
0.0149509
0.0150548
0.0151539
0.0152484
0.0153385
0.0154245
0.0155064
0.0155845
0.0156589
0.0157297
0.0157973
0.0158617
0.015923
0.0159814
0.0160369
0.0160898
0.0161401
0.016188
0.0162334
0.0162766
0.0163175
0.0163563
0.016393
0.0164277
0.0164605
0.0164914
0.0165205
0.0165478
0.0165734
0.0165974
0.0166197
0.0166405
0.0166597
0.0166775
0.0166938
0.0167086
0.0167221
0.0167343
0.016745
0.0167545
0.0167627
0.0167697
0.0167753
0.0167798
0.0167831
0.0167852
0.0167861
0.0167858
0.0167845
0.0167819
0.0167783
0.0167735
0.0167676
0.0167606
0.0167525
0.0167434
0.0167331
0.0167217
0.0167093
0.0166958
0.0166811
0.0166654
0.0166486
0.0166307
0.0166117
0.0165915
0.0165703
0.016548
0.0165245
0.0164998
0.0164741
0.0164471
0.016419
0.0163898
0.0163593
0.0163276
0.0162947
0.0162605
0.0162252
0.0161885
0.0161505
0.0161113
0.0160707
0.0160288
0.0159855
0.0159408
0.0158948
0.0158473
0.0157983
0.0157479
0.015696
0.0156426
0.0155876
0.0155311
0.0154729
0.0154131
0.0153517
0.0152886
0.0152238
0.0151572
0.0150888
0.0150186
0.0149466
0.0148727
0.0147969
0.0147191
0.0146393
0.0145574
0.0144735
0.0143874
0.0142992
0.0142087
0.014116
0.0140209
0.0139234
0.0138234
0.0137209
0.0136159
0.0135081
0.0133976
0.0132843
0.0131681
0.0130488
0.0129264
0.0128008
0.0126718
0.0125394
0.0124033
0.0122634
0.0121195
0.0119714
0.011819
0.011662
0.0115
0.0113329
0.0111603
0.0109818
0.010797
0.0106054
0.0104064
0.0101994
0.00998363
0.00975828
0.0095223
0.00927453
0.00901357
0.00873779
0.0084452
0.00813346
0.00779972
0.00744052
0.00705167
0.00662804
0.00616338
0.00565007
0.00507882
0.00443847
0.00371607
0.00289745
0.00197081
0.0009496
9.06205e-05
0.000124798
0.0012511
0.00250349
0.00358956
0.00452536
0.00534268
0.00606724
0.00671809
0.00730914
0.00785065
0.00835026
0.00881382
0.00924584
0.0096499
0.0100289
0.0103852
0.0107208
0.0110374
0.0113364
0.0116192
0.0118868
0.0121404
0.0123807
0.0126086
0.012825
0.0130305
0.0132257
0.0134113
0.0135878
0.0137557
0.0139156
0.0140678
0.0142128
0.014351
0.0144826
0.0146082
0.0147279
0.0148421
0.014951
0.0150548
0.0151539
0.0152484
0.0153386
0.0154245
0.0155064
0.0155845
0.0156589
0.0157298
0.0157973
0.0158617
0.015923
0.0159814
0.0160369
0.0160898
0.0161401
0.016188
0.0162334
0.0162766
0.0163175
0.0163563
0.016393
0.0164277
0.0164605
0.0164914
0.0165205
0.0165478
0.0165734
0.0165974
0.0166197
0.0166405
0.0166597
0.0166775
0.0166938
0.0167086
0.0167221
0.0167343
0.016745
0.0167545
0.0167627
0.0167697
0.0167753
0.0167798
0.0167831
0.0167852
0.0167861
0.0167858
0.0167844
0.0167819
0.0167783
0.0167735
0.0167676
0.0167606
0.0167525
0.0167434
0.0167331
0.0167217
0.0167093
0.0166957
0.0166811
0.0166654
0.0166486
0.0166307
0.0166117
0.0165915
0.0165703
0.016548
0.0165245
0.0164998
0.0164741
0.0164471
0.016419
0.0163898
0.0163593
0.0163276
0.0162947
0.0162605
0.0162251
0.0161885
0.0161505
0.0161113
0.0160707
0.0160288
0.0159855
0.0159408
0.0158948
0.0158473
0.0157983
0.0157479
0.015696