/*--------------------------------*- C++ -*----------------------------------*\
  =========                 |
  \\      /  F ield         | OpenFOAM: The Open Source CFD Toolbox
   \\    /   O peration     | Website:  https://openfoam.org
    \\  /    A nd           | Version:  8
     \\/     M anipulation  |
\*---------------------------------------------------------------------------*/
FoamFile
{
    version     2.0;
    format      ascii;
    class       volVectorField;
    location    "3100";
    object      U;
}
// * * * * * * * * * * * * * * * * * * * * * * * * * * * * * * * * * * * * * //

dimensions      [0 1 -1 0 0 0 0];

internalField   nonuniform List<vector> 
48000
(
(-0.017035 2.80148e-07 0.0186154)
(-0.0343412 -3.4943e-08 0.0164314)
(-0.0474525 -1.22893e-07 0.00770585)
(-0.0504133 -1.10527e-07 -0.000356762)
(-0.0458408 -8.47665e-08 -0.00613785)
(-0.0362563 -8.07992e-08 -0.00998683)
(-0.0232043 -7.03213e-08 -0.0125024)
(-0.00810903 -4.41002e-08 -0.0140955)
(0.00860521 -1.45475e-08 -0.014897)
(0.0256664 4.10843e-09 -0.015084)
(0.0430687 6.79259e-09 -0.0149766)
(0.0603689 -2.25747e-09 -0.0146718)
(0.0773813 -1.56365e-08 -0.0142344)
(0.0939532 -2.76981e-08 -0.0137077)
(0.109978 -3.5507e-08 -0.0131214)
(0.125378 -3.84196e-08 -0.0124968)
(0.140101 -3.71974e-08 -0.0118495)
(0.154111 -3.30893e-08 -0.0111907)
(0.167384 -2.73364e-08 -0.0105291)
(0.17991 -2.09667e-08 -0.0098712)
(0.191684 -1.46504e-08 -0.00922214)
(0.20271 -8.86321e-09 -0.00858585)
(0.212997 -3.81089e-09 -0.00796538)
(0.222558 3.92401e-10 -0.00736315)
(0.231411 3.77711e-09 -0.006781)
(0.239574 6.38894e-09 -0.00622035)
(0.247072 8.32496e-09 -0.00568225)
(0.253927 9.70892e-09 -0.00516744)
(0.260165 1.06455e-08 -0.00467637)
(0.265812 1.12299e-08 -0.0042093)
(0.270897 1.15593e-08 -0.00376628)
(0.275446 1.16944e-08 -0.00334716)
(0.279488 1.17078e-08 -0.00295168)
(0.283049 1.16411e-08 -0.00257944)
(0.286158 1.15136e-08 -0.00222991)
(0.288841 1.13594e-08 -0.0019025)
(0.291124 1.11785e-08 -0.00159652)
(0.293034 1.09882e-08 -0.00131122)
(0.294595 1.08016e-08 -0.0010458)
(0.295831 1.06055e-08 -0.00079943)
(0.296765 1.04266e-08 -0.000571257)
(0.29742 1.02343e-08 -0.000360421)
(0.297815 1.00611e-08 -0.000166042)
(0.297971 9.87451e-09 1.30628e-05)
(0.297908 9.7127e-09 0.000177679)
(0.297642 9.58134e-09 0.00032833)
(0.29719 9.44809e-09 0.000465972)
(0.296569 9.32434e-09 0.000591554)
(0.295793 9.22345e-09 0.000705913)
(0.294875 9.13017e-09 0.000809821)
(0.293829 9.04831e-09 0.000904008)
(0.292666 8.995e-09 0.000989173)
(0.291398 8.95312e-09 0.00106598)
(0.290035 8.91885e-09 0.00113507)
(0.288587 8.90742e-09 0.00119702)
(0.287061 8.90551e-09 0.00125242)
(0.285467 8.92455e-09 0.00130177)
(0.283811 8.94739e-09 0.00134558)
(0.282101 8.98165e-09 0.00138431)
(0.280342 9.03304e-09 0.00141838)
(0.278541 9.09015e-09 0.00144819)
(0.276703 9.16438e-09 0.0014741)
(0.274833 9.25004e-09 0.00149646)
(0.272935 9.33951e-09 0.00151558)
(0.271013 9.43468e-09 0.00153175)
(0.26907 9.53938e-09 0.00154524)
(0.267111 9.64788e-09 0.00155628)
(0.265138 9.76209e-09 0.00156511)
(0.263153 9.8725e-09 0.00157193)
(0.26116 9.99242e-09 0.00157694)
(0.259161 1.01142e-08 0.0015803)
(0.257158 1.02399e-08 0.00158218)
(0.255152 1.0356e-08 0.00158272)
(0.253145 1.04835e-08 0.00158207)
(0.251139 1.06016e-08 0.00158035)
(0.249135 1.07158e-08 0.00157767)
(0.247135 1.08433e-08 0.00157415)
(0.245138 1.0967e-08 0.00156987)
(0.243147 1.10889e-08 0.00156494)
(0.241162 1.1205e-08 0.00155944)
(0.239184 1.13268e-08 0.00155345)
(0.237213 1.14315e-08 0.00154704)
(0.23525 1.15457e-08 0.00154028)
(0.233295 1.16599e-08 0.00153324)
(0.231349 1.17684e-08 0.00152597)
(0.229412 1.18769e-08 0.00151855)
(0.227484 1.19816e-08 0.00151101)
(0.225565 1.20844e-08 0.00150341)
(0.223655 1.21929e-08 0.00149579)
(0.221755 1.22824e-08 0.00148821)
(0.219864 1.23832e-08 0.00148071)
(0.217982 1.24746e-08 0.00147332)
(0.21611 1.25698e-08 0.00146608)
(0.214246 1.26688e-08 0.00145904)
(0.21239 1.27563e-08 0.00145223)
(0.210543 1.28344e-08 0.00144567)
(0.208704 1.292e-08 0.00143941)
(0.206872 1.30152e-08 0.00143347)
(0.205048 1.31028e-08 0.00142789)
(0.20323 1.31846e-08 0.00142269)
(0.201418 1.32665e-08 0.0014179)
(0.199612 1.33521e-08 0.00141355)
(0.197811 1.3434e-08 0.00140966)
(0.196014 1.35158e-08 0.00140626)
(0.194222 1.36072e-08 0.00140338)
(0.192432 1.36928e-08 0.00140103)
(0.190645 1.37709e-08 0.00139925)
(0.18886 1.38565e-08 0.00139805)
(0.187076 1.39403e-08 0.00139746)
(0.185292 1.40298e-08 0.00139749)
(0.183508 1.41173e-08 0.00139818)
(0.181723 1.42106e-08 0.00139954)
(0.179935 1.42982e-08 0.00140159)
(0.178145 1.43819e-08 0.00140436)
(0.17635 1.44904e-08 0.00140786)
(0.174551 1.45818e-08 0.00141211)
(0.172746 1.46846e-08 0.00141714)
(0.170934 1.47798e-08 0.00142296)
(0.169115 1.48902e-08 0.00142959)
(0.167287 1.50006e-08 0.00143705)
(0.165449 1.5111e-08 0.00144536)
(0.163601 1.52214e-08 0.00145453)
(0.161741 1.53432e-08 0.00146459)
(0.159868 1.5465e-08 0.00147554)
(0.157981 1.55945e-08 0.00148741)
(0.156078 1.57353e-08 0.00150021)
(0.15416 1.588e-08 0.00151396)
(0.152224 1.60247e-08 0.00152867)
(0.15027 1.61808e-08 0.00154435)
(0.148296 1.63369e-08 0.00156102)
(0.146301 1.65158e-08 0.00157868)
(0.144284 1.66833e-08 0.00159735)
(0.142244 1.68661e-08 0.00161703)
(0.14018 1.70564e-08 0.00163774)
(0.138089 1.72544e-08 0.00165948)
(0.135972 1.746e-08 0.00168225)
(0.133827 1.76808e-08 0.00170605)
(0.131653 1.79131e-08 0.00173089)
(0.129448 1.81415e-08 0.00175677)
(0.127212 1.84042e-08 0.00178367)
(0.124942 1.86631e-08 0.00181161)
(0.122639 1.89448e-08 0.00184055)
(0.120301 1.92342e-08 0.0018705)
(0.117927 1.95235e-08 0.00190144)
(0.115515 1.98357e-08 0.00193336)
(0.113066 2.01669e-08 0.00196622)
(0.110576 2.05096e-08 0.002)
(0.108047 2.08751e-08 0.00203468)
(0.105477 2.12482e-08 0.00207021)
(0.102865 2.16555e-08 0.00210656)
(0.100209 2.20743e-08 0.00214369)
(0.097511 2.25312e-08 0.00218154)
(0.0947684 2.29919e-08 0.00222005)
(0.0919812 2.3483e-08 0.00225916)
(0.0891489 2.40122e-08 0.00229879)
(0.0862712 2.45681e-08 0.00233888)
(0.0833479 2.51506e-08 0.00237932)
(0.0803788 2.57788e-08 0.00242001)
(0.0773641 2.64374e-08 0.00246084)
(0.0743039 2.71303e-08 0.0025017)
(0.0711986 2.78499e-08 0.00254242)
(0.0680489 2.85961e-08 0.00258287)
(0.0648554 2.93918e-08 0.00262287)
(0.0616193 3.01837e-08 0.00266221)
(0.0583418 3.09985e-08 0.00270069)
(0.0550245 3.18056e-08 0.00273805)
(0.0516693 3.26051e-08 0.00277401)
(0.0482786 3.33856e-08 0.00280827)
(0.0448549 3.41128e-08 0.00284047)
(0.0414014 3.484e-08 0.00287021)
(0.0379218 3.55405e-08 0.00289702)
(0.0344202 3.6241e-08 0.00292039)
(0.0309017 3.70253e-08 0.00293972)
(0.0273716 3.78972e-08 0.00295431)
(0.0238366 3.89556e-08 0.00296339)
(0.0203041 4.02843e-08 0.00296603)
(0.0167826 4.19481e-08 0.00296117)
(0.0132819 4.40573e-08 0.00294758)
(0.00981345 4.6631e-08 0.00292378)
(0.00638967 4.96691e-08 0.00288797)
(0.0030292 5.30576e-08 0.00283787)
(-0.000257861 5.61795e-08 0.00276658)
(-0.00344191 5.87151e-08 0.00266833)
(-0.00649711 6.09309e-08 0.00254418)
(-0.0093997 6.24614e-08 0.00239453)
(-0.0121145 6.24843e-08 0.00221509)
(-0.0146043 6.03751e-08 0.00199892)
(-0.016823 5.57835e-08 0.00173907)
(-0.0187169 4.89686e-08 0.001427)
(-0.0202219 4.14379e-08 0.00105182)
(-0.0212614 3.61002e-08 0.000600449)
(-0.0217469 3.67779e-08 5.684e-05)
(-0.0215688 4.56259e-08 -0.000593217)
(-0.0206129 6.12127e-08 -0.00136281)
(-0.0187554 7.62208e-08 -0.00226006)
(-0.015881 8.08047e-08 -0.00326428)
(-0.0119251 7.57867e-08 -0.00427304)
(-0.00717624 8.13376e-08 -0.0049377)
(-0.00148296 1.03041e-07 -0.00359415)
(0.00038225 1.43659e-07 0.000691123)
(-0.0170369 2.80142e-07 0.0186144)
(-0.0343418 -3.4943e-08 0.0164309)
(-0.0474524 -1.22892e-07 0.00770556)
(-0.050413 -1.10526e-07 -0.000357092)
(-0.0458405 -8.47656e-08 -0.00613819)
(-0.0362558 -8.07984e-08 -0.00998717)
(-0.0232039 -7.03207e-08 -0.0125027)
(-0.00810862 -4.40998e-08 -0.0140958)
(0.00860557 -1.45474e-08 -0.0148973)
(0.0256667 4.1084e-09 -0.0150843)
(0.043069 6.79254e-09 -0.0149769)
(0.0603692 -2.25746e-09 -0.0146721)
(0.0773815 -1.56364e-08 -0.0142347)
(0.0939534 -2.7698e-08 -0.0137079)
(0.109978 -3.55068e-08 -0.0131216)
(0.125378 -3.84194e-08 -0.0124971)
(0.140101 -3.71972e-08 -0.0118497)
(0.154111 -3.30892e-08 -0.0111909)
(0.167384 -2.73363e-08 -0.0105293)
(0.17991 -2.09667e-08 -0.0098714)
(0.191684 -1.46503e-08 -0.00922234)
(0.20271 -8.86319e-09 -0.00858604)
(0.212997 -3.81088e-09 -0.00796557)
(0.222558 3.924e-10 -0.00736333)
(0.231411 3.7771e-09 -0.00678118)
(0.239574 6.38892e-09 -0.00622053)
(0.247072 8.32494e-09 -0.00568242)
(0.253926 9.7089e-09 -0.0051676)
(0.260164 1.06455e-08 -0.00467654)
(0.265812 1.12299e-08 -0.00420947)
(0.270897 1.15593e-08 -0.00376643)
(0.275446 1.16944e-08 -0.00334731)
(0.279488 1.17077e-08 -0.00295183)
(0.283049 1.16411e-08 -0.00257959)
(0.286158 1.15136e-08 -0.00223006)
(0.288841 1.13594e-08 -0.00190265)
(0.291124 1.11785e-08 -0.00159666)
(0.293034 1.09881e-08 -0.00131136)
(0.294595 1.08016e-08 -0.00104594)
(0.295831 1.06055e-08 -0.000799567)
(0.296765 1.04266e-08 -0.000571393)
(0.297419 1.02343e-08 -0.000360555)
(0.297815 1.00611e-08 -0.000166174)
(0.297971 9.8745e-09 1.29312e-05)
(0.297907 9.71269e-09 0.000177549)
(0.297641 9.58133e-09 0.000328201)
(0.29719 9.44807e-09 0.000465844)
(0.296569 9.32433e-09 0.000591428)
(0.295792 9.22344e-09 0.000705788)
(0.294875 9.13016e-09 0.000809697)
(0.293829 9.0483e-09 0.000903885)
(0.292666 8.99499e-09 0.00098905)
(0.291398 8.95311e-09 0.00106586)
(0.290035 8.91884e-09 0.00113494)
(0.288586 8.90741e-09 0.0011969)
(0.287061 8.90551e-09 0.0012523)
(0.285466 8.92454e-09 0.00130165)
(0.283811 8.94738e-09 0.00134546)
(0.282101 8.98164e-09 0.00138419)
(0.280342 9.03303e-09 0.00141826)
(0.278541 9.09014e-09 0.00144807)
(0.276703 9.16437e-09 0.00147398)
(0.274833 9.25003e-09 0.00149635)
(0.272935 9.3395e-09 0.00151547)
(0.271012 9.43467e-09 0.00153164)
(0.26907 9.53937e-09 0.00154512)
(0.267111 9.64787e-09 0.00155617)
(0.265138 9.76208e-09 0.001565)
(0.263153 9.87249e-09 0.00157182)
(0.26116 9.99241e-09 0.00157682)
(0.259161 1.01142e-08 0.00158018)
(0.257158 1.02399e-08 0.00158206)
(0.255152 1.0356e-08 0.00158261)
(0.253145 1.04835e-08 0.00158196)
(0.251139 1.06015e-08 0.00158023)
(0.249135 1.07158e-08 0.00157755)
(0.247134 1.08433e-08 0.00157403)
(0.245138 1.0967e-08 0.00156975)
(0.243147 1.10888e-08 0.00156482)
(0.241162 1.1205e-08 0.00155932)
(0.239184 1.13268e-08 0.00155333)
(0.237213 1.14315e-08 0.00154692)
(0.23525 1.15457e-08 0.00154016)
(0.233295 1.16599e-08 0.00153312)
(0.231349 1.17684e-08 0.00152586)
(0.229412 1.18769e-08 0.00151843)
(0.227484 1.19816e-08 0.00151089)
(0.225565 1.20844e-08 0.00150329)
(0.223655 1.21929e-08 0.00149568)
(0.221755 1.22823e-08 0.0014881)
(0.219864 1.23832e-08 0.00148059)
(0.217982 1.24746e-08 0.0014732)
(0.21611 1.25698e-08 0.00146597)
(0.214246 1.26688e-08 0.00145892)
(0.21239 1.27563e-08 0.00145211)
(0.210543 1.28344e-08 0.00144555)
(0.208704 1.292e-08 0.00143929)
(0.206872 1.30152e-08 0.00143335)
(0.205048 1.31027e-08 0.00142777)
(0.20323 1.31846e-08 0.00142257)
(0.201418 1.32664e-08 0.00141778)
(0.199612 1.33521e-08 0.00141343)
(0.197811 1.3434e-08 0.00140954)
(0.196014 1.35158e-08 0.00140614)
(0.194222 1.36072e-08 0.00140326)
(0.192432 1.36928e-08 0.00140091)
(0.190645 1.37709e-08 0.00139913)
(0.18886 1.38565e-08 0.00139793)
(0.187076 1.39403e-08 0.00139734)
(0.185292 1.40298e-08 0.00139737)
(0.183508 1.41173e-08 0.00139806)
(0.181723 1.42106e-08 0.00139942)
(0.179935 1.42981e-08 0.00140147)
(0.178145 1.43819e-08 0.00140424)
(0.17635 1.44904e-08 0.00140774)
(0.174551 1.45818e-08 0.00141199)
(0.172746 1.46846e-08 0.00141702)
(0.170934 1.47797e-08 0.00142283)
(0.169115 1.48901e-08 0.00142946)
(0.167287 1.50006e-08 0.00143692)
(0.165449 1.5111e-08 0.00144523)
(0.163601 1.52214e-08 0.0014544)
(0.161741 1.53432e-08 0.00146446)
(0.159868 1.5465e-08 0.00147541)
(0.157981 1.55945e-08 0.00148729)
(0.156078 1.57353e-08 0.00150009)
(0.15416 1.588e-08 0.00151383)
(0.152224 1.60247e-08 0.00152854)
(0.15027 1.61808e-08 0.00154422)
(0.148296 1.63369e-08 0.00156089)
(0.146301 1.65158e-08 0.00157855)
(0.144284 1.66833e-08 0.00159722)
(0.142244 1.68661e-08 0.0016169)
(0.14018 1.70564e-08 0.00163761)
(0.138089 1.72544e-08 0.00165934)
(0.135972 1.746e-08 0.00168211)
(0.133827 1.76808e-08 0.00170591)
(0.131653 1.7913e-08 0.00173075)
(0.129448 1.81415e-08 0.00175663)
(0.127212 1.84042e-08 0.00178354)
(0.124942 1.8663e-08 0.00181147)
(0.122639 1.89448e-08 0.00184041)
(0.120301 1.92341e-08 0.00187036)
(0.117927 1.95235e-08 0.0019013)
(0.115515 1.98357e-08 0.00193321)
(0.113066 2.01669e-08 0.00196607)
(0.110576 2.05095e-08 0.00199985)
(0.108047 2.0875e-08 0.00203453)
(0.105477 2.12481e-08 0.00207006)
(0.102865 2.16555e-08 0.00210641)
(0.10021 2.20743e-08 0.00214353)
(0.097511 2.25312e-08 0.00218138)
(0.0947684 2.29918e-08 0.00221989)
(0.0919812 2.3483e-08 0.002259)
(0.0891489 2.40122e-08 0.00229863)
(0.0862712 2.4568e-08 0.00233871)
(0.0833479 2.51505e-08 0.00237915)
(0.0803788 2.57787e-08 0.00241984)
(0.0773641 2.64374e-08 0.00246067)
(0.0743039 2.71303e-08 0.00250152)
(0.0711986 2.78499e-08 0.00254225)
(0.0680489 2.85961e-08 0.00258269)
(0.0648554 2.93918e-08 0.00262268)
(0.0616193 3.01837e-08 0.00266202)
(0.0583418 3.09984e-08 0.0027005)
(0.0550245 3.18056e-08 0.00273785)
(0.0516694 3.26051e-08 0.00277381)
(0.0482786 3.33856e-08 0.00280807)
(0.0448549 3.41127e-08 0.00284026)
(0.0414015 3.48399e-08 0.00287)
(0.0379218 3.55404e-08 0.0028968)
(0.0344203 3.6241e-08 0.00292017)
(0.0309017 3.70253e-08 0.00293949)
(0.0273717 3.78971e-08 0.00295408)
(0.0238367 3.89555e-08 0.00296315)
(0.0203042 4.02842e-08 0.00296578)
(0.0167827 4.1948e-08 0.00296092)
(0.013282 4.40572e-08 0.00294732)
(0.00981349 4.66309e-08 0.00292352)
(0.00638971 4.9669e-08 0.0028877)
(0.00302924 5.30575e-08 0.00283759)
(-0.00025782 5.61794e-08 0.0027663)
(-0.00344187 5.8715e-08 0.00266804)
(-0.00649706 6.09308e-08 0.00254389)
(-0.00939966 6.24613e-08 0.00239423)
(-0.0121145 6.24842e-08 0.00221479)
(-0.0146042 6.0375e-08 0.0019986)
(-0.0168229 5.57834e-08 0.00173875)
(-0.0187168 4.89685e-08 0.00142667)
(-0.0202218 4.14378e-08 0.00105148)
(-0.0212614 3.61001e-08 0.000600091)
(-0.0217469 3.67778e-08 5.64661e-05)
(-0.0215688 4.56257e-08 -0.000593609)
(-0.020613 6.12125e-08 -0.00136323)
(-0.0187554 7.62206e-08 -0.0022605)
(-0.0158811 8.08045e-08 -0.00326476)
(-0.0119252 7.57866e-08 -0.00427357)
(-0.00717649 8.13376e-08 -0.00493832)
(-0.00148344 1.03037e-07 -0.00359507)
(0.000381678 1.4365e-07 0.000689629)
(-0.0134606 1.64791e-07 0.03884)
(-0.0191538 3.21956e-08 0.0245852)
(-0.0188528 6.6556e-09 0.00976528)
(-0.014866 -1.41346e-08 -0.00308823)
(-0.00770288 -1.85674e-08 -0.0127941)
(0.00198763 -1.58651e-08 -0.0196189)
(0.0136216 -8.72821e-09 -0.0241948)
(0.0266364 -1.58086e-09 -0.0271328)
(0.0406154 2.29121e-09 -0.0288233)
(0.0551581 2.22839e-09 -0.0295996)
(0.0699982 -1.00881e-09 -0.0297719)
(0.0848837 -5.47959e-09 -0.0295047)
(0.0996372 -9.55344e-09 -0.0289239)
(0.114118 -1.23328e-08 -0.0281157)
(0.128221 -1.35806e-08 -0.0271429)
(0.141864 -1.35035e-08 -0.0260521)
(0.154986 -1.24965e-08 -0.0248787)
(0.167544 -1.09678e-08 -0.02365)
(0.179506 -9.24645e-09 -0.0223873)
(0.190851 -7.56313e-09 -0.0211077)
(0.201567 -6.05589e-09 -0.0198248)
(0.211649 -4.79519e-09 -0.0185497)
(0.221096 -3.79814e-09 -0.0172913)
(0.229915 -3.05475e-09 -0.016057)
(0.238116 -2.52982e-09 -0.0148527)
(0.24571 -2.18335e-09 -0.0136832)
(0.252715 -1.97822e-09 -0.0125523)
(0.259146 -1.87447e-09 -0.011463)
(0.265024 -1.83782e-09 -0.0104175)
(0.27037 -1.84448e-09 -0.00941752)
(0.275206 -1.87208e-09 -0.00846402)
(0.279554 -1.91063e-09 -0.00755761)
(0.283437 -1.94442e-09 -0.00669846)
(0.286878 -1.9744e-09 -0.00588636)
(0.289901 -1.99581e-09 -0.00512076)
(0.292528 -2.00771e-09 -0.00440088)
(0.294784 -2.01199e-09 -0.00372566)
(0.296689 -2.01246e-09 -0.00309386)
(0.298265 -2.0058e-09 -0.0025041)
(0.299535 -1.99866e-09 -0.00195485)
(0.300518 -1.98486e-09 -0.00144447)
(0.301234 -1.97391e-09 -0.000971294)
(0.301702 -1.95915e-09 -0.000533561)
(0.30194 -1.94012e-09 -0.000129501)
(0.301964 -1.92298e-09 0.000242685)
(0.301792 -1.91537e-09 0.000584834)
(0.301439 -1.90347e-09 0.000898738)
(0.300919 -1.88919e-09 0.00118612)
(0.300246 -1.87301e-09 0.00144865)
(0.299433 -1.85683e-09 0.00168797)
(0.298492 -1.83732e-09 0.00190563)
(0.297433 -1.8178e-09 0.00210314)
(0.296269 -1.79877e-09 0.00228194)
(0.295007 -1.77688e-09 0.00244339)
(0.293659 -1.75641e-09 0.00258878)
(0.292231 -1.73167e-09 0.00271935)
(0.290731 -1.70882e-09 0.00283624)
(0.289168 -1.6817e-09 0.00294054)
(0.287547 -1.65457e-09 0.00303326)
(0.285875 -1.62744e-09 0.00311534)
(0.284157 -1.59937e-09 0.00318765)
(0.282399 -1.57034e-09 0.00325103)
(0.280605 -1.54226e-09 0.00330622)
(0.27878 -1.51371e-09 0.00335393)
(0.276927 -1.48658e-09 0.0033948)
(0.275051 -1.45898e-09 0.00342944)
(0.273155 -1.43233e-09 0.0034584)
(0.271242 -1.40806e-09 0.00348219)
(0.269314 -1.38379e-09 0.00350128)
(0.267375 -1.36285e-09 0.0035161)
(0.265426 -1.34144e-09 0.00352706)
(0.26347 -1.31955e-09 0.00353453)
(0.261508 -1.30099e-09 0.00353884)
(0.259543 -1.28386e-09 0.00354031)
(0.257576 -1.26911e-09 0.00353924)
(0.255609 -1.25531e-09 0.00353588)
(0.253641 -1.24341e-09 0.00353049)
(0.251676 -1.23247e-09 0.00352329)
(0.249713 -1.22533e-09 0.00351452)
(0.247754 -1.21772e-09 0.00350435)
(0.2458 -1.21296e-09 0.00349298)
(0.24385 -1.21059e-09 0.00348058)
(0.241906 -1.20869e-09 0.00346731)
(0.239968 -1.20964e-09 0.00345333)
(0.238037 -1.21012e-09 0.00343877)
(0.236113 -1.21345e-09 0.00342376)
(0.234196 -1.21679e-09 0.00340844)
(0.232286 -1.22297e-09 0.00339292)
(0.230383 -1.22964e-09 0.00337731)
(0.228489 -1.23868e-09 0.00336171)
(0.226601 -1.24725e-09 0.00334623)
(0.224721 -1.25677e-09 0.00333096)
(0.222849 -1.26962e-09 0.00331599)
(0.220983 -1.282e-09 0.0033014)
(0.219125 -1.29628e-09 0.00328727)
(0.217273 -1.31056e-09 0.00327369)
(0.215428 -1.32484e-09 0.00326072)
(0.213589 -1.34055e-09 0.00324844)
(0.211755 -1.3572e-09 0.00323692)
(0.209927 -1.37386e-09 0.00322621)
(0.208104 -1.39147e-09 0.00321638)
(0.206285 -1.40861e-09 0.0032075)
(0.20447 -1.42717e-09 0.00319962)
(0.202659 -1.44478e-09 0.00319279)
(0.20085 -1.46239e-09 0.00318708)
(0.199043 -1.48143e-09 0.00318254)
(0.197237 -1.50047e-09 0.00317921)
(0.195433 -1.51998e-09 0.00317714)
(0.193628 -1.53759e-09 0.00317639)
(0.191823 -1.55663e-09 0.00317701)
(0.190017 -1.57567e-09 0.00317903)
(0.188208 -1.59518e-09 0.00318251)
(0.186397 -1.61279e-09 0.00318748)
(0.184582 -1.63278e-09 0.003194)
(0.182762 -1.64992e-09 0.0032021)
(0.180936 -1.66753e-09 0.00321182)
(0.179105 -1.68656e-09 0.00322321)
(0.177266 -1.7037e-09 0.0032363)
(0.175419 -1.72131e-09 0.00325113)
(0.173562 -1.73844e-09 0.00326774)
(0.171696 -1.75558e-09 0.00328616)
(0.169818 -1.77319e-09 0.00330642)
(0.167928 -1.78937e-09 0.00332856)
(0.166025 -1.8046e-09 0.00335261)
(0.164108 -1.82078e-09 0.0033786)
(0.162176 -1.83601e-09 0.00340656)
(0.160227 -1.84981e-09 0.0034365)
(0.158261 -1.86647e-09 0.00346846)
(0.156277 -1.87837e-09 0.00350245)
(0.154273 -1.89503e-09 0.0035385)
(0.152248 -1.90835e-09 0.00357661)
(0.150202 -1.92358e-09 0.0036168)
(0.148133 -1.93739e-09 0.00365908)
(0.14604 -1.95024e-09 0.00370345)
(0.143922 -1.96451e-09 0.00374992)
(0.141778 -1.97784e-09 0.00379849)
(0.139606 -1.99164e-09 0.00384913)
(0.137406 -2.00544e-09 0.00390185)
(0.135177 -2.0202e-09 0.00395663)
(0.132918 -2.03352e-09 0.00401343)
(0.130627 -2.0459e-09 0.00407224)
(0.128303 -2.0578e-09 0.00413302)
(0.125946 -2.07207e-09 0.00419572)
(0.123555 -2.08778e-09 0.00426029)
(0.121129 -2.10253e-09 0.00432667)
(0.118666 -2.11586e-09 0.0043948)
(0.116166 -2.13204e-09 0.00446459)
(0.113628 -2.14632e-09 0.00453597)
(0.111052 -2.16107e-09 0.00460883)
(0.108437 -2.17678e-09 0.00468307)
(0.105782 -2.19248e-09 0.00475855)
(0.103087 -2.20771e-09 0.00483515)
(0.100351 -2.2258e-09 0.00491271)
(0.0975737 -2.24055e-09 0.00499107)
(0.0947556 -2.26054e-09 0.00507005)
(0.0918961 -2.27767e-09 0.00514943)
(0.0889953 -2.29671e-09 0.005229)
(0.0860534 -2.3186e-09 0.00530851)
(0.0830706 -2.33764e-09 0.00538769)
(0.0800475 -2.36048e-09 0.00546624)
(0.0769846 -2.38808e-09 0.00554383)
(0.0738828 -2.41664e-09 0.0056201)
(0.0707432 -2.44995e-09 0.00569465)
(0.0675671 -2.48897e-09 0.00576703)
(0.064356 -2.53656e-09 0.00583675)
(0.0611117 -2.58891e-09 0.00590327)
(0.0578365 -2.64983e-09 0.00596597)
(0.0545327 -2.72026e-09 0.00602419)
(0.0512033 -2.80212e-09 0.00607716)
(0.0478516 -2.88969e-09 0.00612404)
(0.0444814 -2.98392e-09 0.00616386)
(0.041097 -3.07434e-09 0.00619556)
(0.0377032 -3.16095e-09 0.00621792)
(0.0343057 -3.23234e-09 0.00622955)
(0.0309107 -3.28659e-09 0.00622888)
(0.0275253 -3.31324e-09 0.00621412)
(0.0241578 -3.30563e-09 0.00618318)
(0.0208172 -3.27041e-09 0.00613367)
(0.0175139 -3.20854e-09 0.0060628)
(0.0142598 -3.12859e-09 0.00596712)
(0.0110685 -3.06672e-09 0.00584277)
(0.0079548 -3.02104e-09 0.0056836)
(0.00493609 -2.9763e-09 0.00548313)
(0.00203188 -3.01152e-09 0.00523706)
(-0.000737257 -3.23805e-09 0.00493923)
(-0.0033431 -3.74441e-09 0.00458147)
(-0.00575806 -4.62103e-09 0.00415388)
(-0.00795037 -5.90406e-09 0.00364465)
(-0.00988418 -7.47931e-09 0.00303945)
(-0.0115198 -8.94033e-09 0.00232144)
(-0.0128137 -9.56757e-09 0.00147187)
(-0.0137199 -8.58435e-09 0.000470399)
(-0.014192 -5.75273e-09 -0.000699305)
(-0.0141837 -2.39284e-09 -0.00204454)
(-0.013661 -1.77036e-09 -0.00355297)
(-0.0126096 -7.11761e-09 -0.00515644)
(-0.0110502 -1.63082e-08 -0.00665451)
(-0.00901888 -2.08539e-08 -0.00757973)
(-0.0064286 -9.84927e-09 -0.00668859)
(-0.0037716 -6.67636e-08 -0.00209363)
(-0.0134614 1.64791e-07 0.0388393)
(-0.019154 3.21952e-08 0.0245849)
(-0.0188527 6.65548e-09 0.00976501)
(-0.0148659 -1.41343e-08 -0.00308844)
(-0.00770273 -1.85671e-08 -0.0127943)
(0.00198779 -1.58649e-08 -0.019619)
(0.0136218 -8.72809e-09 -0.0241949)
(0.0266365 -1.58084e-09 -0.0271329)
(0.0406155 2.29119e-09 -0.0288234)
(0.0551582 2.22836e-09 -0.0295997)
(0.0699982 -1.0088e-09 -0.029772)
(0.0848837 -5.47954e-09 -0.0295048)
(0.0996373 -9.55336e-09 -0.028924)
(0.114119 -1.23327e-08 -0.0281158)
(0.128221 -1.35805e-08 -0.0271429)
(0.141864 -1.35035e-08 -0.0260522)
(0.154986 -1.24964e-08 -0.0248788)
(0.167544 -1.09678e-08 -0.02365)
(0.179506 -9.24639e-09 -0.0223874)
(0.190851 -7.56308e-09 -0.0211078)
(0.201567 -6.05586e-09 -0.0198249)
(0.211648 -4.79516e-09 -0.0185498)
(0.221096 -3.79812e-09 -0.0172914)
(0.229915 -3.05474e-09 -0.0160571)
(0.238116 -2.5298e-09 -0.0148528)
(0.24571 -2.18334e-09 -0.0136833)
(0.252714 -1.97822e-09 -0.0125524)
(0.259146 -1.87446e-09 -0.0114631)
(0.265024 -1.83782e-09 -0.0104176)
(0.27037 -1.84448e-09 -0.00941755)
(0.275206 -1.87208e-09 -0.00846405)
(0.279554 -1.91063e-09 -0.00755764)
(0.283436 -1.94441e-09 -0.00669849)
(0.286878 -1.97439e-09 -0.00588639)
(0.289901 -1.99581e-09 -0.0051208)
(0.292528 -2.0077e-09 -0.00440091)
(0.294783 -2.01198e-09 -0.00372569)
(0.296688 -2.01246e-09 -0.0030939)
(0.298265 -2.00579e-09 -0.00250414)
(0.299535 -1.99865e-09 -0.00195488)
(0.300518 -1.98485e-09 -0.00144451)
(0.301234 -1.9739e-09 -0.000971328)
(0.301702 -1.95915e-09 -0.000533595)
(0.30194 -1.94011e-09 -0.000129536)
(0.301964 -1.92298e-09 0.00024265)
(0.301792 -1.91536e-09 0.000584799)
(0.301439 -1.90347e-09 0.000898703)
(0.300919 -1.88919e-09 0.00118608)
(0.300246 -1.87301e-09 0.00144862)
(0.299433 -1.85683e-09 0.00168794)
(0.298491 -1.83731e-09 0.0019056)
(0.297433 -1.8178e-09 0.00210311)
(0.296269 -1.79876e-09 0.00228191)
(0.295007 -1.77687e-09 0.00244335)
(0.293659 -1.75641e-09 0.00258875)
(0.292231 -1.73166e-09 0.00271932)
(0.290731 -1.70882e-09 0.00283621)
(0.289168 -1.68169e-09 0.00294051)
(0.287547 -1.65457e-09 0.00303322)
(0.285875 -1.62744e-09 0.0031153)
(0.284157 -1.59936e-09 0.00318762)
(0.282399 -1.57033e-09 0.00325099)
(0.280605 -1.54226e-09 0.00330619)
(0.27878 -1.5137e-09 0.00335389)
(0.276927 -1.48658e-09 0.00339477)
(0.275051 -1.45898e-09 0.00342941)
(0.273155 -1.43233e-09 0.00345837)
(0.271242 -1.40806e-09 0.00348216)
(0.269314 -1.38379e-09 0.00350125)
(0.267375 -1.36285e-09 0.00351607)
(0.265426 -1.34144e-09 0.00352703)
(0.26347 -1.31955e-09 0.0035345)
(0.261508 -1.30099e-09 0.00353881)
(0.259543 -1.28386e-09 0.00354028)
(0.257576 -1.26911e-09 0.0035392)
(0.255608 -1.25531e-09 0.00353585)
(0.253641 -1.24341e-09 0.00353046)
(0.251676 -1.23247e-09 0.00352326)
(0.249713 -1.22533e-09 0.00351449)
(0.247754 -1.21772e-09 0.00350432)
(0.245799 -1.21296e-09 0.00349295)
(0.24385 -1.21059e-09 0.00348055)
(0.241906 -1.20868e-09 0.00346728)
(0.239968 -1.20964e-09 0.0034533)
(0.238037 -1.21012e-09 0.00343874)
(0.236113 -1.21345e-09 0.00342373)
(0.234196 -1.21678e-09 0.00340841)
(0.232286 -1.22297e-09 0.00339289)
(0.230383 -1.22964e-09 0.00337728)
(0.228488 -1.23868e-09 0.00336168)
(0.226601 -1.24725e-09 0.0033462)
(0.224721 -1.25677e-09 0.00333093)
(0.222849 -1.26962e-09 0.00331596)
(0.220983 -1.282e-09 0.00330137)
(0.219125 -1.29628e-09 0.00328725)
(0.217273 -1.31056e-09 0.00327366)
(0.215428 -1.32484e-09 0.00326069)
(0.213589 -1.34054e-09 0.00324841)
(0.211755 -1.3572e-09 0.00323689)
(0.209927 -1.37386e-09 0.00322618)
(0.208104 -1.39147e-09 0.00321635)
(0.206285 -1.40861e-09 0.00320747)
(0.20447 -1.42717e-09 0.00319959)
(0.202659 -1.44478e-09 0.00319277)
(0.20085 -1.46239e-09 0.00318705)
(0.199043 -1.48143e-09 0.00318251)
(0.197237 -1.50047e-09 0.00317918)
(0.195433 -1.51998e-09 0.00317711)
(0.193628 -1.53759e-09 0.00317636)
(0.191823 -1.55663e-09 0.00317698)
(0.190017 -1.57567e-09 0.003179)
(0.188208 -1.59518e-09 0.00318248)
(0.186397 -1.61279e-09 0.00318745)
(0.184582 -1.63278e-09 0.00319397)
(0.182762 -1.64991e-09 0.00320207)
(0.180936 -1.66752e-09 0.00321179)
(0.179105 -1.68656e-09 0.00322318)
(0.177266 -1.7037e-09 0.00323627)
(0.175418 -1.72131e-09 0.0032511)
(0.173562 -1.73844e-09 0.00326771)
(0.171696 -1.75557e-09 0.00328613)
(0.169818 -1.77318e-09 0.00330639)
(0.167928 -1.78937e-09 0.00332853)
(0.166025 -1.8046e-09 0.00335259)
(0.164108 -1.82078e-09 0.00337857)
(0.162176 -1.83601e-09 0.00340653)
(0.160227 -1.84981e-09 0.00343647)
(0.158261 -1.86647e-09 0.00346843)
(0.156277 -1.87837e-09 0.00350242)
(0.154273 -1.89502e-09 0.00353847)
(0.152248 -1.90835e-09 0.00357658)
(0.150202 -1.92358e-09 0.00361677)
(0.148133 -1.93738e-09 0.00365905)
(0.14604 -1.95023e-09 0.00370342)
(0.143922 -1.96451e-09 0.00374989)
(0.141778 -1.97784e-09 0.00379845)
(0.139606 -1.99164e-09 0.0038491)
(0.137406 -2.00544e-09 0.00390182)
(0.135177 -2.02019e-09 0.0039566)
(0.132918 -2.03352e-09 0.0040134)
(0.130627 -2.0459e-09 0.00407221)
(0.128303 -2.05779e-09 0.00413299)
(0.125946 -2.07207e-09 0.00419568)
(0.123555 -2.08778e-09 0.00426025)
(0.121129 -2.10253e-09 0.00432664)
(0.118666 -2.11586e-09 0.00439476)
(0.116166 -2.13204e-09 0.00446456)
(0.113628 -2.14631e-09 0.00453594)
(0.111052 -2.16107e-09 0.0046088)
(0.108437 -2.17677e-09 0.00468303)
(0.105782 -2.19248e-09 0.00475852)
(0.103087 -2.20771e-09 0.00483512)
(0.100351 -2.22579e-09 0.00491268)
(0.0975737 -2.24055e-09 0.00499104)
(0.0947556 -2.26053e-09 0.00507001)
(0.0918961 -2.27767e-09 0.00514939)
(0.0889953 -2.2967e-09 0.00522896)
(0.0860534 -2.3186e-09 0.00530847)
(0.0830706 -2.33763e-09 0.00538765)
(0.0800475 -2.36047e-09 0.0054662)
(0.0769846 -2.38808e-09 0.00554379)
(0.0738828 -2.41663e-09 0.00562006)
(0.0707432 -2.44995e-09 0.00569461)
(0.0675671 -2.48897e-09 0.00576699)
(0.064356 -2.53656e-09 0.00583671)
(0.0611117 -2.58891e-09 0.00590323)
(0.0578365 -2.64983e-09 0.00596593)
(0.0545327 -2.72026e-09 0.00602415)
(0.0512033 -2.80211e-09 0.00607712)
(0.0478517 -2.88968e-09 0.00612399)
(0.0444814 -2.98391e-09 0.00616382)
(0.041097 -3.07433e-09 0.00619552)
(0.0377032 -3.16095e-09 0.00621787)
(0.0343057 -3.23233e-09 0.0062295)
(0.0309107 -3.28658e-09 0.00622883)
(0.0275254 -3.31323e-09 0.00621406)
(0.0241578 -3.30562e-09 0.00618313)
(0.0208172 -3.2704e-09 0.00613362)
(0.0175139 -3.20854e-09 0.00606275)
(0.0142598 -3.12858e-09 0.00596707)
(0.0110685 -3.06672e-09 0.00584272)
(0.00795482 -3.02103e-09 0.00568354)
(0.00493611 -2.9763e-09 0.00548308)
(0.0020319 -3.01151e-09 0.005237)
(-0.000737239 -3.23804e-09 0.00493917)
(-0.00334308 -3.7444e-09 0.00458141)
(-0.00575805 -4.62102e-09 0.00415382)
(-0.00795035 -5.90405e-09 0.00364458)
(-0.00988416 -7.47929e-09 0.00303939)
(-0.0115198 -8.94031e-09 0.00232137)
(-0.0128137 -9.56755e-09 0.0014718)
(-0.0137199 -8.58433e-09 0.000470322)
(-0.014192 -5.75271e-09 -0.000699388)
(-0.0141837 -2.39284e-09 -0.00204463)
(-0.013661 -1.77036e-09 -0.00355308)
(-0.0126096 -7.11761e-09 -0.00515656)
(-0.0110503 -1.63083e-08 -0.00665465)
(-0.00901901 -2.08542e-08 -0.00757992)
(-0.00642886 -9.84934e-09 -0.00668892)
(-0.00377224 -6.67639e-08 -0.0020943)
(-0.00493094 1.78415e-07 0.0512576)
(-0.00454491 2.40479e-08 0.0236214)
(0.000932322 1.54344e-08 0.00369137)
(0.00814301 4.40147e-09 -0.0116164)
(0.0167433 2.38258e-09 -0.0231381)
(0.026519 4.27719e-09 -0.0315081)
(0.0373403 7.80898e-09 -0.037355)
(0.0490137 1.07035e-08 -0.0412463)
(0.0613331 1.16511e-08 -0.0436275)
(0.0741044 1.05864e-08 -0.0448598)
(0.0871403 8.18112e-09 -0.0452413)
(0.100263 5.38224e-09 -0.0449842)
(0.113328 2.91222e-09 -0.0442487)
(0.126214 1.14038e-09 -0.043154)
(0.138824 1.39527e-10 -0.0417908)
(0.15108 -2.11699e-10 -0.0402285)
(0.16292 -1.07947e-10 -0.0385214)
(0.174299 2.58986e-10 -0.0367123)
(0.18518 7.36094e-10 -0.0348354)
(0.195539 1.21225e-09 -0.0329185)
(0.205357 1.62701e-09 -0.0309841)
(0.214624 1.94778e-09 -0.0290505)
(0.223337 2.1667e-09 -0.0271331)
(0.231495 2.28616e-09 -0.0252443)
(0.239103 2.32756e-09 -0.0233945)
(0.24617 2.30281e-09 -0.0215919)
(0.252706 2.23167e-09 -0.0198435)
(0.258725 2.13339e-09 -0.0181545)
(0.264242 2.02012e-09 -0.0165292)
(0.269274 1.90328e-09 -0.0149706)
(0.273839 1.78978e-09 -0.0134812)
(0.277956 1.6846e-09 -0.0120621)
(0.281644 1.59156e-09 -0.0107141)
(0.284925 1.50994e-09 -0.00943735)
(0.287817 1.44189e-09 -0.00823128)
(0.290342 1.38597e-09 -0.00709499)
(0.292519 1.33885e-09 -0.00602714)
(0.294368 1.30054e-09 -0.00502606)
(0.295909 1.26818e-09 -0.00408981)
(0.297161 1.24105e-09 -0.0032162)