/*--------------------------------*- C++ -*----------------------------------*\
  =========                 |
  \\      /  F ield         | OpenFOAM: The Open Source CFD Toolbox
   \\    /   O peration     | Website:  https://openfoam.org
    \\  /    A nd           | Version:  8
     \\/     M anipulation  |
\*---------------------------------------------------------------------------*/
FoamFile
{
    version     2.0;
    format      ascii;
    class       surfaceScalarField;
    location    "600";
    object      phi;
}
// * * * * * * * * * * * * * * * * * * * * * * * * * * * * * * * * * * * * * //

dimensions      [1 0 -1 0 0 0 0];

internalField   nonuniform List<scalar> 
119360
(
-5.05825e-08
1.46102e-12
5.05809e-08
-1.00149e-07
-3.98275e-13
4.95351e-08
-1.40898e-07
-2.35262e-13
4.07378e-08
-1.70848e-07
5.00033e-14
2.99409e-08
-1.84555e-07
3.85965e-13
1.36973e-08
-1.82797e-07
3.62299e-13
-1.77491e-09
-1.68607e-07
8.40024e-13
-1.42032e-08
-1.43339e-07
1.07008e-12
-2.52823e-08
-1.04255e-07
9.17761e-14
-3.91115e-08
-5.74028e-08
-2.37852e-13
-4.68888e-08
-4.79629e-09
2.61078e-13
-5.26396e-08
5.20505e-08
3.53222e-13
-5.68801e-08
1.1193e-07
1.4727e-13
-5.99134e-08
1.73943e-07
-1.92686e-13
-6.20454e-08
2.37347e-07
-5.41523e-13
-6.3434e-08
3.01525e-07
-7.21716e-13
-6.42055e-08
3.6596e-07
-7.28159e-13
-6.44599e-08
4.30218e-07
-7.02073e-13
-6.42814e-08
4.93937e-07
-7.47595e-13
-6.37423e-08
5.5682e-07
-8.34584e-13
-6.2905e-08
6.18625e-07
-8.80549e-13
-6.18241e-08
6.79154e-07
-8.8094e-13
-6.0547e-08
7.38253e-07
-9.20244e-13
-5.91152e-08
7.95803e-07
-1.06668e-12
-5.75645e-08
8.51717e-07
-1.27302e-12
-5.59258e-08
9.05934e-07
-1.40453e-12
-5.42255e-08
9.58414e-07
-1.35335e-12
-5.24854e-08
1.00914e-06
-1.12292e-12
-5.07242e-08
1.05809e-06
-8.11563e-13
-4.89573e-08
1.1053e-06
-5.29179e-13
-4.71975e-08
1.15075e-06
-3.28784e-13
-4.54555e-08
1.1945e-06
-2.07049e-13
-4.37397e-08
1.23656e-06
-1.42879e-13
-4.2057e-08
1.27697e-06
-1.31556e-13
-4.04125e-08
1.31578e-06
-1.77686e-13
-3.88098e-08
1.35303e-06
-2.72833e-13
-3.72513e-08
1.38877e-06
-3.7886e-13
-3.57386e-08
1.42304e-06
-4.3798e-13
-3.42722e-08
1.4559e-06
-4.01121e-13
-3.28523e-08
1.48738e-06
-2.55349e-13
-3.14785e-08
1.51753e-06
-2.97518e-14
-3.015e-08
1.5464e-06
2.20825e-13
-2.8866e-08
1.57403e-06
4.40261e-13
-2.76256e-08
1.60046e-06
5.92083e-13
-2.64275e-08
1.62573e-06
6.67911e-13
-2.52706e-08
1.64988e-06
6.79069e-13
-2.41536e-08
1.67295e-06
6.45984e-13
-2.3075e-08
1.69498e-06
5.85976e-13
-2.20334e-08
1.716e-06
5.09482e-13
-2.10275e-08
1.73604e-06
4.21053e-13
-2.00558e-08
1.75515e-06
3.2363e-13
-1.91168e-08
1.77335e-06
2.22211e-13
-1.82091e-08
1.79068e-06
1.24789e-13
-1.73315e-08
1.80716e-06
3.96907e-14
-1.64826e-08
1.82281e-06
-2.78664e-14
-1.56612e-08
1.83767e-06
-7.86037e-14
-1.48662e-08
1.85177e-06
-1.18794e-13
-1.40963e-08
1.86512e-06
-1.58651e-13
-1.33507e-08
1.87775e-06
-2.08444e-13
-1.26283e-08
1.88967e-06
-2.74558e-13
-1.19281e-08
1.90093e-06
-3.5702e-13
-1.12493e-08
1.91152e-06
-4.50778e-13
-1.05911e-08
1.92148e-06
-5.45342e-13
-9.95248e-09
1.93082e-06
-6.28914e-13
-9.33268e-09
1.93956e-06
-6.91364e-13
-8.73087e-09
1.94772e-06
-7.26474e-13
-8.14623e-09
1.9553e-06
-7.32608e-13
-7.57795e-09
1.96234e-06
-7.14234e-13
-7.02528e-09
1.96884e-06
-6.78152e-13
-6.48748e-09
1.97482e-06
-6.34187e-13
-5.96384e-09
1.98028e-06
-5.9136e-13
-5.45371e-09
1.98525e-06
-5.57138e-13
-4.95646e-09
1.98974e-06
-5.36321e-13
-4.47148e-09
1.99375e-06
-5.30131e-13
-3.99821e-09
1.9973e-06
-5.3732e-13
-3.53606e-09
2.0004e-06
-5.5414e-13
-3.08447e-09
2.00306e-06
-5.75984e-13
-2.6429e-09
2.00529e-06
-5.97661e-13
-2.21079e-09
2.00709e-06
-6.15091e-13
-1.7876e-09
2.00848e-06
-6.24473e-13
-1.37283e-09
2.00946e-06
-6.23751e-13
-9.6602e-10
2.01005e-06
-6.12371e-13
-5.66798e-10
2.01024e-06
-5.89834e-13
-1.74764e-10
2.01004e-06
-5.58525e-13
2.10578e-10
2.00947e-06
-5.20806e-13
5.90007e-10
2.00852e-06
-4.78451e-13
9.64082e-10
2.00721e-06
-4.34902e-13
1.33298e-09
2.00553e-06
-3.93574e-13
1.69693e-09
2.00349e-06
-3.57492e-13
2.05615e-09
2.00109e-06
-3.29015e-13
2.41078e-09
1.99835e-06
-3.09447e-13
2.76094e-09
1.99526e-06
-3.00315e-13
3.10666e-09
1.99183e-06
-3.01009e-13
3.44796e-09
1.98806e-06
-3.11196e-13
3.78481e-09
1.98396e-06
-3.29819e-13
4.11714e-09
1.97953e-06
-3.54966e-13
4.44485e-09
1.97478e-06
-3.85275e-13
4.76783e-09
1.96971e-06
-4.18859e-13
5.08597e-09
1.96433e-06
-4.53942e-13
5.39914e-09
1.95864e-06
-4.89692e-13
5.70724e-09
1.95264e-06
-5.24636e-13
6.01017e-09
1.94635e-06
-5.57443e-13
6.30784e-09
1.93977e-06
-5.87697e-13
6.60019e-09
1.9329e-06
-6.1437e-13
6.88722e-09
1.92575e-06
-6.36075e-13
7.16892e-09
1.91832e-06
-6.51479e-13
7.44534e-09
1.91062e-06
-6.59667e-13
7.71658e-09
1.90266e-06
-6.59917e-13
7.98277e-09
1.89443e-06
-6.52201e-13
8.24412e-09
1.88595e-06
-6.37268e-13
8.50093e-09
1.87721e-06
-6.15535e-13
8.75359e-09
1.86823e-06
-5.87891e-13
9.00254e-09
1.859e-06
-5.55195e-13
9.24828e-09
1.84953e-06
-5.19834e-13
9.4913e-09
1.83982e-06
-4.8625e-13
9.73211e-09
1.82986e-06
-4.62241e-13
9.97128e-09
1.81967e-06
-4.54636e-13
1.02094e-08
1.80925e-06
-4.6993e-13
1.04473e-08
1.79858e-06
-5.10592e-13
1.06856e-08
1.78768e-06
-5.72986e-13
1.09251e-08
1.77653e-06
-6.50702e-13
1.11663e-08
1.76514e-06
-7.34024e-13
1.14099e-08
1.75351e-06
-8.11295e-13
1.16564e-08
1.74162e-06
-8.71414e-13
1.19067e-08
1.72948e-06
-9.02056e-13
1.21615e-08
1.71708e-06
-8.95117e-13
1.24214e-08
1.70441e-06
-8.49043e-13
1.26871e-08
1.69148e-06
-7.70606e-13
1.2959e-08
1.67826e-06
-6.75238e-13
1.32375e-08
1.66476e-06
-5.8259e-13
1.35231e-08
1.65097e-06
-5.11924e-13
1.38161e-08
1.63687e-06
-4.77229e-13
1.41168e-08
1.62247e-06
-4.85334e-13
1.44254e-08
1.60775e-06
-5.33684e-13
1.4742e-08
1.59271e-06
-6.14453e-13
1.50667e-08
1.57733e-06
-7.11875e-13
1.53996e-08
1.56161e-06
-8.06299e-13
1.57409e-08
1.54554e-06
-8.76021e-13
1.60907e-08
1.52912e-06
-9.03611e-13
1.6449e-08
1.51232e-06
-8.81462e-13
1.68161e-08
1.49515e-06
-8.16069e-13
1.71919e-08
1.4776e-06
-7.27363e-13
1.75765e-08
1.45965e-06
-6.42264e-13
1.79702e-08
1.4413e-06
-5.85365e-13
1.83729e-08
1.42254e-06
-5.67713e-13
1.87848e-08
1.40336e-06
-5.84865e-13
1.92059e-08
1.38374e-06
-6.18616e-13
1.96363e-08
1.36369e-06
-6.46538e-13
2.00763e-08
1.34319e-06
-6.47538e-13
2.05263e-08
1.32222e-06
-6.10623e-13
2.09867e-08
1.30079e-06
-5.32463e-13
2.1458e-08
1.27887e-06
-4.16389e-13
2.19408e-08
1.25646e-06
-2.67508e-13
2.24355e-08
1.23353e-06
-9.67004e-14
2.29429e-08
1.21009e-06
7.57172e-14
2.34636e-08
1.18611e-06
2.14606e-13
2.39982e-08
1.16157e-06
2.69451e-13
2.45475e-08
1.13647e-06
1.8896e-13
2.51123e-08
1.11079e-06
-5.81757e-14
2.56932e-08
1.0845e-06
-4.60521e-13
2.62913e-08
1.0576e-06
-9.54181e-13
2.6908e-08
1.03006e-06
-1.43097e-12
2.75449e-08
1.00187e-06
-1.77075e-12
2.82042e-08
9.73e-07
-1.87877e-12
2.88881e-08
9.43422e-07
-1.71646e-12
2.95993e-08
9.13108e-07
-1.31106e-12
3.034e-08
8.82025e-07
-7.44127e-13
3.11124e-08
8.50136e-07
-1.31617e-13
3.19185e-08
8.17404e-07
4.01956e-13
3.276e-08
7.8379e-07
7.6017e-13
3.36384e-08
7.49256e-07
9.08384e-13
3.45552e-08
7.13762e-07
8.99281e-13
3.55119e-08
6.77267e-07
8.36831e-13
3.65095e-08
6.3973e-07
7.85705e-13
3.7548e-08
6.01112e-07
6.84286e-13
3.86263e-08
5.61375e-07
3.90632e-13
3.97415e-08
5.20491e-07
-1.27121e-13
4.08895e-08
4.78435e-07
-6.38378e-13
4.20644e-08
4.35192e-07
-7.79599e-13
4.32579e-08
3.90757e-07
-4.54081e-13
4.44569e-08
3.45144e-07
-6.17284e-14
4.56418e-08
2.98392e-07
-1.99951e-13
4.67832e-08
2.50588e-07
-1.20004e-12
4.78373e-08
2.01885e-07
-3.18345e-12
4.87362e-08
1.52554e-07
-6.37568e-12
4.93651e-08
1.03052e-07
-1.07309e-11
4.95407e-08
5.39712e-08
-1.57184e-11
4.91276e-08
7.11003e-09
-2.07677e-11
4.69149e-08
-3.46869e-08
-2.5636e-11
4.18538e-08
-7.23707e-08
7.19768e-12
3.77105e-08
-1.06357e-07
4.06482e-10
3.36118e-08
-1.32746e-07
4.23484e-10
2.59918e-08
-1.50974e-07
-3.54119e-10
1.86005e-08
-1.62328e-07
-2.5792e-10
1.16226e-08
-1.63583e-07
-1.93688e-11
1.28529e-09
-1.54094e-07
-1.01403e-11
-9.46671e-09
-1.32262e-07
-3.13255e-12
-2.18155e-08
-9.63708e-08
7.66052e-14
-3.58759e-08
-4.93108e-08
2.98872e-13
-4.70388e-08
3.89222e-12
-4.92813e-08
-5.05899e-08
5.05724e-08
-1.00148e-07
4.95367e-08
-1.40897e-07
4.07381e-08
-1.7085e-07
2.99382e-08
-1.84558e-07
1.36904e-08
-1.82796e-07
-1.77346e-09
-1.68604e-07
-1.42028e-08
-1.43335e-07
-2.5293e-08
-1.0425e-07
-3.91194e-08
-5.73964e-08
-4.68949e-08
-4.79015e-09
-5.26458e-08
5.20564e-08
-5.68861e-08
1.11935e-07
-5.99189e-08
1.73948e-07
-6.20509e-08
2.37352e-07
-6.34394e-08
3.01531e-07
-6.42104e-08
3.65965e-07
-6.44643e-08
4.30221e-07
-6.42853e-08
4.9394e-07
-6.37459e-08
5.56822e-07
-6.29084e-08
6.18626e-07
-6.18273e-08
6.79154e-07
-6.05499e-08
7.38252e-07
-5.91177e-08
7.95802e-07
-5.75666e-08
8.51716e-07
-5.59276e-08
9.05932e-07
-5.42269e-08
9.58413e-07
-5.24864e-08
1.00914e-06
-5.07247e-08
1.05809e-06
-4.89574e-08
1.1053e-06
-4.71974e-08
1.15075e-06
-4.54553e-08
1.1945e-06
-4.37397e-08
1.23655e-06
-4.20572e-08
1.27697e-06
-4.04128e-08
1.31578e-06
-3.88101e-08
1.35303e-06
-3.72516e-08
1.38877e-06
-3.57388e-08
1.42304e-06
-3.42724e-08
1.45589e-06
-3.28523e-08
1.48738e-06
-3.14784e-08
1.51753e-06
-3.01499e-08
1.5464e-06
-2.88659e-08
1.57403e-06
-2.76255e-08
1.60045e-06
-2.64276e-08
1.62572e-06
-2.52708e-08
1.64988e-06
-2.41539e-08
1.67295e-06
-2.30754e-08
1.69497e-06
-2.2034e-08
1.71599e-06
-2.10281e-08
1.73604e-06
-2.00564e-08
1.75515e-06
-1.91173e-08
1.77335e-06
-1.82096e-08
1.79068e-06
-1.73319e-08
1.80715e-06
-1.64829e-08
1.82281e-06
-1.56613e-08
1.83767e-06
-1.48661e-08
1.85177e-06
-1.40961e-08
1.86512e-06
-1.33503e-08
1.87774e-06
-1.26277e-08
1.88967e-06
-1.19274e-08
1.90093e-06
-1.12485e-08
1.91152e-06
-1.05902e-08
1.92148e-06
-9.95151e-09
1.93082e-06
-9.33166e-09
1.93956e-06
-8.7298e-09
1.94771e-06
-8.14511e-09
1.9553e-06
-7.57678e-09
1.96234e-06
-7.02405e-09
1.96884e-06
-6.48619e-09
1.97481e-06
-5.96249e-09
1.98028e-06
-5.45229e-09
1.98525e-06
-4.95498e-09
1.98974e-06
-4.46995e-09
1.99375e-06
-3.99663e-09
1.9973e-06
-3.53445e-09
2.0004e-06
-3.08285e-09
2.00306e-06
-2.64127e-09
2.00529e-06
-2.20915e-09
2.00709e-06
-1.78596e-09
2.00848e-06
-1.37119e-09
2.00946e-06
-9.64384e-10
2.01004e-06
-5.65158e-10
2.01024e-06
-1.7311e-10
2.01004e-06
2.1225e-10
2.00947e-06
5.91701e-10
2.00852e-06
9.6581e-10
2.00721e-06
1.33475e-09
2.00553e-06
1.69875e-09
2.00349e-06
2.05802e-09
2.00109e-06
2.4127e-09
1.99835e-06
2.76289e-09
1.99526e-06
3.10864e-09
1.99183e-06
3.44995e-09
1.98806e-06
3.7868e-09
1.98396e-06
4.11911e-09
1.97953e-06
4.4468e-09
1.97478e-06
4.76976e-09
1.96971e-06
5.08787e-09
1.96433e-06
5.40102e-09
1.95864e-06
5.7091e-09
1.95264e-06
6.01201e-09
1.94635e-06
6.30967e-09
1.93977e-06
6.60203e-09
1.9329e-06
6.88906e-09
1.92575e-06
7.17077e-09
1.91832e-06
7.4472e-09
1.91062e-06
7.71846e-09
1.90266e-06
7.98468e-09
1.89443e-06
8.24607e-09
1.88595e-06
8.50294e-09
1.87721e-06
8.75566e-09
1.86823e-06
9.00469e-09
1.859e-06
9.25047e-09
1.84953e-06
9.4935e-09
1.83982e-06
9.73429e-09
1.82986e-06
9.97342e-09
1.81967e-06
1.02116e-08
1.80925e-06
1.04495e-08
1.79858e-06
1.06879e-08
1.78768e-06
1.09274e-08
1.77653e-06
1.11686e-08
1.76514e-06
1.14121e-08
1.75351e-06
1.16586e-08
1.74162e-06
1.19089e-08
1.72948e-06
1.21636e-08
1.71708e-06
1.24236e-08
1.70441e-06
1.26892e-08
1.69148e-06
1.29611e-08
1.67826e-06
1.32397e-08
1.66476e-06
1.35254e-08
1.65097e-06
1.38185e-08
1.63687e-06
1.41193e-08
1.62247e-06
1.44279e-08
1.60775e-06
1.47444e-08
1.59271e-06
1.50689e-08
1.57733e-06
1.54018e-08
1.56161e-06
1.57431e-08
1.54554e-06
1.6093e-08
1.52912e-06
1.64515e-08
1.51232e-06
1.68185e-08
1.49515e-06
1.71942e-08
1.4776e-06
1.75788e-08
1.45965e-06
1.79723e-08
1.4413e-06
1.83751e-08
1.42254e-06
1.87871e-08
1.40336e-06
1.92083e-08
1.38374e-06
1.96387e-08
1.36369e-06
2.00786e-08
1.34319e-06
2.05285e-08
1.32222e-06
2.09888e-08
1.30079e-06
2.14601e-08
1.27887e-06
2.19429e-08
1.25646e-06
2.24376e-08
1.23354e-06
2.29448e-08
1.21009e-06
2.34652e-08
1.18611e-06
2.39995e-08
1.16158e-06
2.45485e-08
1.13647e-06
2.51129e-08
1.11079e-06
2.56936e-08
1.0845e-06
2.62917e-08
1.0576e-06
2.69084e-08
1.03006e-06
2.75456e-08
1.00187e-06
2.82053e-08
9.73002e-07
2.88898e-08
9.43425e-07
2.96015e-08
9.13113e-07
3.03426e-08
8.8203e-07
3.11153e-08
8.50141e-07
3.19214e-08
8.17409e-07
3.27626e-08
7.83796e-07
3.36405e-08
7.49262e-07
3.4557e-08
7.13769e-07
3.55134e-08
6.77274e-07
3.65108e-08
6.39737e-07
3.75491e-08
6.01119e-07
3.86271e-08
5.61384e-07
3.97422e-08
5.20501e-07
4.08905e-08
4.78449e-07
4.20665e-08
4.3521e-07
4.32613e-08
3.90778e-07
4.44616e-08
3.45165e-07
4.56473e-08
2.98412e-07
4.67892e-08
2.50603e-07
4.78434e-08
2.01892e-07
4.87416e-08
1.52548e-07
4.93676e-08
1.03027e-07
4.95388e-08
5.39188e-08
4.91211e-08
7.02573e-09
4.69021e-08
-3.47809e-08
4.18163e-08
-7.23614e-08
3.76306e-08
-1.04573e-07
3.26558e-08
-1.3166e-07
2.75295e-08
-1.5164e-07
1.96419e-08
-1.6265e-07
1.07664e-08
-1.63708e-07
1.05196e-09
-1.54235e-07
-9.46915e-09
-1.32413e-07
-2.18072e-08
-9.64959e-08
-3.58956e-08
-4.93746e-08
-4.70916e-08
-4.93301e-08
-4.91649e-08
-1.69982e-12
9.97121e-08
-8.11247e-08
-7.57522e-13
8.14776e-08
-9.8229e-08
-4.27628e-13
5.78274e-08
-1.00576e-07
-2.47117e-13
3.2269e-08
-9.28689e-08
4.70504e-13
5.96702e-09
-7.577e-08
6.92649e-13
-1.88863e-08
-4.89913e-08
3.32017e-13
-4.09976e-08
-1.35582e-08
2.87361e-13
-6.07422e-08
2.50886e-08
3.85572e-14
-7.77903e-08
6.91564e-08
-1.26924e-13
-9.0988e-08
1.17747e-07
-1.40527e-13
-1.01262e-07
1.6995e-07
-1.00589e-13
-1.09115e-07
2.24963e-07
-1.31622e-13
-1.14955e-07
2.8206e-07
-2.44769e-13
-1.19169e-07
3.40615e-07
-3.40375e-13
-1.22014e-07
4.00092e-07
-3.55809e-13
-1.23706e-07
4.60031e-07
-3.26778e-13
-1.24421e-07
5.20038e-07
-3.13442e-13
-1.2431e-07
5.7978e-07
-3.26822e-13
-1.23504e-07
6.38974e-07
-3.36982e-13
-1.22118e-07
6.97387e-07
-3.24409e-13
-1.20253e-07
7.54822e-07
-3.04773e-13
-1.17998e-07
8.11124e-07
-3.05635e-13
-1.15429e-07
8.66165e-07
-3.29672e-13
-1.12616e-07
9.19848e-07
-3.4727e-13
-1.09616e-07
9.72099e-07
-3.24219e-13
-1.06481e-07
1.02286e-06
-2.53235e-13
-1.03253e-07
1.07211e-06
-1.57937e-13
-9.99694e-08
1.11982e-06
-7.14513e-14
-9.66606e-08
1.16597e-06
-1.25268e-14
-9.3352e-08
1.21059e-06
2.03075e-14
-9.00645e-08
1.25366e-06
3.746e-14
-8.6815e-08
1.29522e-06
4.46205e-14
-8.3617e-08
1.33529e-06
4.01931e-14
-8.04809e-08
1.3739e-06
2.14993e-14
-7.74147e-08
1.41107e-06
-6.46472e-15
-7.44241e-08
1.44684e-06
-3.07373e-14
-7.1513e-08
1.48126e-06
-3.68576e-14
-6.86837e-08
1.51434e-06
-1.77204e-14
-6.59377e-08
1.54614e-06
2.1956e-14
-6.3275e-08
1.57669e-06
6.85019e-14
-6.06953e-08
1.60602e-06
1.05777e-13
-5.81975e-08
1.63418e-06
1.22722e-13
-5.57799e-08
1.66119e-06
1.16644e-13
-5.34408e-08
1.6871e-06
9.19271e-14
-5.1178e-08
1.71193e-06
5.65525e-14
-4.89892e-08
1.73572e-06
1.77223e-14
-4.68718e-08
1.7585e-06
-2.00808e-14
-4.48236e-08
1.78031e-06
-5.49627e-14
-4.28419e-08
1.80117e-06
-8.66249e-14
-4.09243e-08
1.82112e-06
-1.147e-13
-3.90683e-08
1.84017e-06
-1.37869e-13
-3.72715e-08
1.85837e-06
-1.54564e-13
-3.55316e-08
1.87573e-06
-1.63411e-13
-3.38464e-08
1.89228e-06
-1.64535e-13
-3.22136e-08
1.90804e-06
-1.59685e-13
-3.06312e-08
1.92304e-06
-1.51823e-13
-2.90971e-08
1.9373e-06
-1.44176e-13
-2.76095e-08
1.95084e-06
-1.39277e-13
-2.61666e-08
1.96368e-06
-1.37938e-13
-2.47664e-08
1.97584e-06
-1.39236e-13
-2.34074e-08
1.98735e-06
-1.40894e-13
-2.20878e-08
1.99821e-06
-1.40048e-13
-2.0806e-08
2.00844e-06
-1.34122e-13
-1.95605e-08
2.01807e-06
-1.21694e-13
-1.83498e-08
2.02711e-06
-1.02786e-13
-1.71724e-08
2.03557e-06
-7.87981e-14
-1.60269e-08
2.04346e-06
-5.20486e-14
-1.49118e-08
2.05081e-06
-2.54935e-14
-1.38259e-08
2.05763e-06
-1.69308e-15
-1.27677e-08
2.06392e-06
1.73472e-14
-1.17361e-08
2.06971e-06
3.05867e-14
-1.07298e-08
2.075e-06
3.79141e-14
-9.7476e-09
2.07981e-06
4.01276e-14
-8.78835e-09
2.08413e-06
3.86635e-14
-7.85089e-09
2.088e-06
3.50761e-14
-6.9341e-09
2.09141e-06
3.1003e-14
-6.03688e-09
2.09437e-06
2.77625e-14
-5.15815e-09
2.09689e-06
2.63609e-14
-4.29689e-09
2.09899e-06
2.72976e-14
-3.45211e-09
2.10066e-06
3.06005e-14
-2.6229e-09
2.10192e-06
3.57631e-14
-1.80841e-09
2.10277e-06
4.21191e-14
-1.00784e-09
2.10321e-06
4.962e-14
-2.20393e-10
2.10326e-06
5.76414e-14
5.54856e-10
2.10292e-06
6.48023e-14
1.31878e-09
2.1022e-06
7.06449e-14
2.07198e-09
2.1011e-06
7.4718e-14
2.81493e-09
2.09962e-06
7.68066e-14
3.54805e-09
2.09778e-06
7.68621e-14
4.27165e-09
2.09557e-06
7.50094e-14
4.98596e-09
2.093e-06
7.13249e-14
5.69114e-09
2.09007e-06
6.60791e-14
6.38724e-09
2.0868e-06
5.97092e-14
7.07427e-09
2.08318e-06
5.26176e-14
7.75218e-09
2.07922e-06
4.53596e-14
8.42084e-09
2.07492e-06
3.849e-14
9.08011e-09
2.07029e-06
3.2481e-14
9.7298e-09
2.06534e-06
2.77348e-14
1.03697e-08
2.06006e-06
2.47094e-14
1.09996e-08
2.05447e-06
2.35367e-14
1.16194e-08
2.04856e-06
2.40571e-14
1.22288e-08
2.04235e-06
2.61388e-14
1.28277e-08
2.03584e-06
2.94417e-14
1.34162e-08
2.02903e-06
3.37091e-14
1.39942e-08
2.02193e-06
3.89341e-14
1.4562e-08
2.01454e-06
4.51861e-14
1.51196e-08
2.00688e-06
5.27217e-14
1.56675e-08
1.99893e-06
6.17006e-14
1.62061e-08
1.99071e-06
7.22408e-14
1.67359e-08
1.98223e-06
8.40369e-14
1.72577e-08
1.97348e-06
9.65408e-14
1.77723e-08
1.96446e-06
1.09052e-13
1.82807e-08
1.95519e-06
1.20036e-13
1.87838e-08
1.94565e-06
1.27703e-13
1.92827e-08
1.93587e-06
1.30271e-13
1.97785e-08
1.92582e-06
1.26961e-13
2.02726e-08
1.91552e-06
1.18232e-13
2.07664e-08
1.90496e-06
1.05763e-13
2.12612e-08
1.89415e-06
9.15865e-14
2.17585e-08
1.88307e-06
7.73895e-14
2.22595e-08
1.87174e-06
6.43999e-14
2.27655e-08
1.86013e-06
5.4623e-14
2.32777e-08
1.84826e-06
5.07858e-14
2.37974e-08
1.83612e-06
5.58858e-14
2.4326e-08
1.8237e-06
7.10751e-14
2.48647e-08
1.81099e-06
9.41677e-14
2.54144e-08
1.79799e-06
1.19918e-13
2.59761e-08
1.7847e-06
1.42573e-13
2.65505e-08
1.7711e-06
1.58019e-13
2.71384e-08
1.7572e-06
1.65229e-13
2.77407e-08
1.74298e-06
1.64917e-13
2.83578e-08
1.72844e-06
1.57901e-13
2.89903e-08
1.71356e-06
1.44287e-13
2.96384e-08
1.69834e-06
1.24678e-13
3.03026e-08
1.68278e-06
1.0221e-13
3.0983e-08
1.66686e-06
8.33361e-14
3.168e-08
1.65058e-06
7.57866e-14
3.23937e-08
1.63393e-06
8.44186e-14
3.31243e-08
1.61689e-06
1.08233e-13
3.38718e-08
1.59947e-06
1.39888e-13
3.46365e-08
1.58165e-06
1.69045e-13
3.54186e-08
1.56342e-06
1.86934e-13
3.62183e-08
1.54478e-06
1.89779e-13
3.70358e-08
1.52571e-06
1.79884e-13
3.78713e-08
1.50621e-06
1.63286e-13
3.8725e-08
1.48627e-06
1.46744e-13
3.95973e-08
1.46588e-06
1.3535e-13
4.04886e-08
1.44503e-06
1.31548e-13
4.13997e-08
1.42371e-06
1.35628e-13
4.23312e-08
1.4019e-06
1.47327e-13
4.32838e-08
1.3796e-06
1.65992e-13
4.42585e-08
1.3568e-06
1.90903e-13
4.52561e-08
1.33348e-06
2.19713e-13
4.62777e-08
1.30964e-06
2.47025e-13
4.73247e-08
1.28525e-06
2.63706e-13
4.83986e-08
1.2603e-06
2.58404e-13
4.95009e-08
1.23479e-06
2.22058e-13
5.06334e-08
1.20869e-06
1.53433e-13
5.17981e-08
1.18199e-06
6.33105e-14
5.2997e-08
1.15467e-06
-2.60209e-14
5.42325e-08
1.12672e-06
-8.71803e-14
5.55074e-08
1.09812e-06
-9.76719e-14
5.68244e-08
1.06884e-06
-4.81421e-14
5.81865e-08
1.03887e-06
5.46785e-14
5.95971e-08
1.00817e-06
1.90889e-13
6.10591e-08
9.76736e-07
3.33913e-13
6.25759e-08
9.44528e-07
4.55636e-13
6.41506e-08
9.11523e-07
5.31519e-13
6.5786e-08
8.77696e-07
5.50393e-13
6.74847e-08
8.43017e-07
5.23415e-13
6.92486e-08
8.07463e-07
4.84057e-13
7.10789e-08
7.71007e-07
4.6653e-13
7.29753e-08
7.33626e-07
4.71706e-13
7.49356e-08
6.95303e-07
4.58508e-13
7.69553e-08
6.56024e-07
3.88981e-13
7.90268e-08
6.15786e-07
2.93668e-13
8.11381e-08
5.74593e-07
2.72074e-13
8.32723e-08
5.32468e-07
3.89133e-13
8.54052e-08
4.89447e-07
5.71446e-13
8.75034e-08
4.45596e-07
6.61013e-13
8.95209e-08
4.01012e-07
5.7683e-13
9.13946e-08
3.5584e-07
3.27974e-13
9.30353e-08
3.10284e-07
-1.76317e-13
9.43181e-08
2.64613e-07
-1.1314e-12
9.50585e-08
2.19201e-07
-2.55673e-12
9.49709e-08
1.74594e-07
-4.5666e-12
9.37521e-08
1.30903e-07
-7.95683e-12
9.06289e-08
8.78183e-08
-1.27978e-11
8.49667e-08
4.65701e-08
-9.52263e-12
7.8987e-08
8.54785e-09
3.31065e-11
7.16188e-08
-2.69503e-08
-1.00948e-10
6.16057e-08
-5.7249e-08
-1.14548e-10
4.90267e-08
-7.95807e-08
-2.56444e-11
3.39934e-08
-9.44189e-08
3.18948e-12
1.61346e-08
-9.95831e-08
1.28064e-13
-4.28736e-09
-9.40324e-08
1.00203e-12
-2.73485e-08
-7.74312e-08
2.02005e-12
-5.24546e-08
-4.76671e-08
2.85122e-12
-7.67701e-08
8.55815e-12
-9.69237e-08
-4.91642e-08
9.9709e-08
-8.1122e-08
8.1483e-08
-9.82279e-08
5.7833e-08
-1.00575e-07
3.227e-08
-9.28694e-08
5.96492e-09
-7.57667e-08
-1.88873e-08
-4.89842e-08
-4.09995e-08
-1.35565e-08
-6.07454e-08
2.509e-08
-7.77934e-08
6.9159e-08
-9.09907e-08
1.1775e-07
-1.01265e-07
1.69953e-07
-1.09117e-07
2.24965e-07
-1.14958e-07
2.82061e-07
-1.19171e-07
3.40616e-07
-1.22016e-07
4.00093e-07
-1.23708e-07
4.60031e-07
-1.24422e-07
5.20038e-07
-1.24311e-07
5.79779e-07
-1.23505e-07
6.38974e-07
-1.22119e-07
6.97386e-07
-1.20254e-07
7.54821e-07
-1.17998e-07
8.11122e-07
-1.1543e-07
8.66163e-07
-1.12616e-07
9.19846e-07
-1.09617e-07
9.72096e-07
-1.06481e-07
1.02286e-06
-1.03253e-07
1.07211e-06
-9.99697e-08
1.11981e-06
-9.66608e-08
1.16597e-06
-9.33522e-08
1.21058e-06
-9.00646e-08
1.25366e-06
-8.68151e-08
1.29522e-06
-8.36171e-08
1.33529e-06
-8.04811e-08
1.37389e-06
-7.74149e-08
1.41106e-06
-7.44243e-08
1.44684e-06
-7.15131e-08
1.48125e-06
-6.86839e-08
1.51434e-06
-6.59378e-08
1.54614e-06
-6.32751e-08
1.57669e-06
-6.06954e-08
1.60602e-06
-5.81976e-08
1.63418e-06
-5.578e-08
1.66119e-06
-5.34409e-08
1.68709e-06
-5.1178e-08
1.71192e-06
-4.89891e-08
1.73572e-06
-4.68718e-08
1.7585e-06
-4.48235e-08
1.78031e-06
-4.28419e-08
1.80117e-06
-4.09242e-08
1.82111e-06
-3.90682e-08
1.84017e-06
-3.72714e-08
1.85836e-06
-3.55315e-08
1.87572e-06
-3.38462e-08
1.89227e-06
-3.22134e-08
1.90804e-06
-3.0631e-08
1.92304e-06
-2.9097e-08
1.9373e-06
-2.76094e-08
1.95084e-06
-2.61664e-08
1.96368e-06
-2.47663e-08
1.97584e-06
-2.34073e-08
1.98734e-06
-2.20877e-08
1.9982e-06
-2.0806e-08
2.00844e-06
-1.95605e-08
2.01807e-06
-1.83499e-08
2.0271e-06
-1.71725e-08
2.03556e-06
-1.6027e-08
2.04346e-06
-1.4912e-08
2.05081e-06
-1.3826e-08
2.05763e-06
-1.27679e-08
2.06392e-06
-1.17363e-08
2.06971e-06
-1.073e-08
2.075e-06
-9.74781e-09
2.0798e-06
-8.78856e-09
2.08413e-06
-7.8511e-09
2.088e-06
-6.93431e-09
2.09141e-06
-6.03708e-09
2.09437e-06
-5.15836e-09
2.09689e-06
-4.2971e-09
2.09899e-06
-3.45234e-09
2.10066e-06
-2.62314e-09
2.10191e-06
-1.80866e-09
2.10276e-06
-1.0081e-09
2.10321e-06
-2.20668e-10
2.10326e-06
5.54583e-10
2.10292e-06
1.31853e-09
2.1022e-06
2.07175e-09
2.1011e-06
2.81474e-09
2.09962e-06
3.54789e-09
2.09777e-06
4.27153e-09
2.09556e-06
4.98587e-09
2.093e-06
5.69106e-09
2.09007e-06
6.38718e-09
2.0868e-06
7.07422e-09
2.08318e-06
7.75213e-09
2.07922e-06
8.4208e-09
2.07492e-06
9.08006e-09
2.07029e-06
9.72974e-09
2.06534e-06
1.03696e-08
2.06006e-06
1.09995e-08
2.05447e-06
1.16192e-08
2.04856e-06
1.22286e-08
2.04235e-06
1.28275e-08
2.03584e-06
1.3416e-08
2.02903e-06
1.3994e-08
2.02193e-06
1.45618e-08
2.01454e-06
1.51194e-08
2.00687e-06
1.56674e-08
1.99893e-06
1.6206e-08
1.99071e-06
1.67358e-08
1.98223e-06
1.72577e-08
1.97347e-06
1.77723e-08
1.96446e-06
1.82807e-08
1.95519e-06
1.87837e-08
1.94565e-06
1.92825e-08
1.93586e-06
1.97783e-08
1.92582e-06
2.02724e-08
1.91552e-06
2.07663e-08
1.90496e-06
2.12612e-08
1.89415e-06
2.17586e-08
1.88307e-06
2.22595e-08
1.87174e-06
2.27654e-08
1.86013e-06
2.32775e-08
1.84826e-06
2.37972e-08
1.83612e-06
2.43258e-08
1.82369e-06
2.48644e-08
1.81099e-06
2.5414e-08
1.79799e-06
2.59757e-08
1.7847e-06
2.65501e-08
1.7711e-06
2.71383e-08
1.7572e-06
2.77407e-08
1.74298e-06
2.83579e-08
1.72843e-06
2.89903e-08
1.71356e-06
2.96382e-08
1.69834e-06
3.03022e-08
1.68278e-06
3.09827e-08
1.66686e-06
3.16798e-08
1.65058e-06
3.23937e-08
1.63392e-06
3.31243e-08
1.61689e-06
3.38718e-08
1.59947e-06
3.46364e-08
1.58164e-06
3.54183e-08
1.56342e-06
3.62178e-08
1.54478e-06
3.70354e-08
1.52571e-06
3.7871e-08
1.50621e-06
3.87248e-08
1.48627e-06
3.95971e-08
1.46588e-06
4.04884e-08
1.44503e-06
4.13993e-08
1.42371e-06
4.23308e-08
1.4019e-06
4.32835e-08
1.3796e-06
4.42582e-08
1.3568e-06
4.52558e-08
1.33348e-06
4.62774e-08
1.30964e-06
4.73244e-08
1.28525e-06
4.83982e-08
1.2603e-06
4.95005e-08
1.23479e-06
5.0633e-08
1.20869e-06
5.17977e-08
1.18199e-06
5.29966e-08
1.15467e-06
5.42322e-08
1.12672e-06
5.5507e-08
1.09812e-06
5.6824e-08
1.06884e-06
5.81862e-08
1.03887e-06
5.95967e-08
1.00817e-06
6.10588e-08
9.76737e-07
6.25756e-08
9.44529e-07
6.41503e-08
9.11525e-07
6.57856e-08
8.77697e-07
6.74843e-08
8.4302e-07
6.92482e-08
8.07465e-07
7.10786e-08
7.7101e-07
7.29749e-08
7.3363e-07
7.49353e-08
6.95307e-07
7.69551e-08
6.56029e-07
7.90266e-08
6.15792e-07
8.11382e-08
5.74602e-07
8.32727e-08
5.32478e-07
8.54058e-08
4.89459e-07
8.75042e-08
4.45609e-07
8.95219e-08
4.01026e-07
9.13958e-08
3.55856e-07
9.30365e-08
3.10298e-07
9.43192e-08
2.64626e-07
9.50595e-08
2.19208e-07
9.49713e-08
1.74587e-07
9.37514e-08
1.30874e-07
9.06231e-08
8.77365e-08
8.49528e-08
4.6384e-08
7.89848e-08
7.37767e-09
7.17085e-08
-2.66315e-08
6.14516e-08
-5.62777e-08
4.91899e-08
-7.95681e-08
3.40446e-08
-9.45595e-08
1.60595e-08
-9.97096e-08
-4.30394e-09
-9.41373e-08
-2.73595e-08
-7.7514e-08
-5.24925e-08
-4.77129e-08
-7.68541e-08
-9.70165e-08
-3.20721e-08
-2.19755e-12
1.31774e-07
-4.8265e-08
1.41461e-13
9.76727e-08
-4.93727e-08
3.86973e-13
5.89341e-08
-3.90476e-08
1.09844e-13
2.19392e-08
-2.03109e-08
3.07539e-13
-1.27753e-08
4.94781e-09
-1.37251e-13
-4.415e-08
3.5813e-08
-3.91148e-13
-7.18676e-08
7.10631e-08
1.23215e-13
-9.59967e-08
1.09829e-07
2.73398e-13
-1.16561e-07
1.52279e-07
4.64384e-14
-1.33444e-07
1.98085e-07
-3.66218e-14
-1.47074e-07
2.46791e-07
-1.44882e-14
-1.57824e-07
2.97899e-07
-6.19375e-14
-1.66068e-07
3.50887e-07
-1.52498e-13
-1.72162e-07
4.0527e-07
-1.80005e-13
-1.76402e-07
4.60605e-07
-1.38712e-13
-1.79045e-07
5.16496e-07
-1.00376e-13
-1.80316e-07
5.72596e-07
-1.07531e-13
-1.80414e-07
6.28604e-07
-1.41525e-13
-1.79515e-07
6.84258e-07
-1.65389e-13
-1.77776e-07
7.39337e-07
-1.6507e-13
-1.75335e-07
7.93653e-07
-1.53628e-13
-1.72317e-07
8.47051e-07
-1.48931e-13
-1.6883e-07
8.99404e-07
-1.53768e-13
-1.64971e-07
9.5061e-07
-1.55219e-13
-1.60823e-07
1.00059e-06
-1.39503e-13
-1.5646e-07
1.04928e-06
-1.05176e-13
-1.51944e-07
1.09664e-06
-6.34463e-14
-1.47328e-07
1.14263e-06
-2.76697e-14
-1.42656e-07
1.18725e-06
-3.61288e-15
-1.37968e-07
1.23048e-06
1.09863e-14
-1.33293e-07
1.27232e-06
2.06102e-14
-1.28658e-07
1.31279e-06
2.61334e-14
-1.24082e-07
1.35189e-06
2.50368e-14
-1.19583e-07
1.38965e-06
1.57315e-14
-1.15173e-07
1.42609e-06
1.42337e-15
-1.10861e-07
1.46123e-06
-1.04215e-14
-1.06653e-07
1.4951e-06
-1.22812e-14
-1.02555e-07
1.52773e-06
-1.22075e-15
-9.85694e-08
1.55916e-06
1.92836e-14
-9.46972e-08
1.5894e-06
4.12728e-14
-9.09387e-08
1.6185e-06
5.65106e-14
-8.7293e-08
1.64648e-06
5.99106e-14
-8.37587e-08
1.67337e-06
5.12439e-14
-8.03337e-08
1.69921e-06
3.37439e-14
-7.70153e-08
1.72402e-06
1.20945e-14
-7.38009e-08
1.74783e-06
-1.00822e-14
-7.06873e-08
1.77068e-06
-3.07671e-14
-6.76713e-08
1.79258e-06
-4.95645e-14
-6.47498e-08
1.81358e-06
-6.66412e-14
-6.19194e-08
1.83368e-06
-8.17333e-14
-5.91768e-08
1.85293e-06
-9.41053e-14
-5.65188e-08
1.87134e-06
-1.02751e-13
-5.39423e-08
1.88894e-06
-1.07026e-13
-5.14442e-08
1.90574e-06
-1.07123e-13
-4.90216e-08
1.92178e-06
-1.04257e-13
-4.66715e-08
1.93708e-06
-1.00149e-13
-4.43911e-08
1.95164e-06
-9.67248e-14
-4.21779e-08
1.96551e-06
-9.51462e-14
-4.00291e-08
1.97868e-06
-9.55764e-14
-3.79422e-08
1.99119e-06
-9.71099e-14
-3.59148e-08
2.00305e-06
-9.81646e-14
-3.39445e-08
2.01428e-06
-9.70821e-14
-3.2029e-08
2.02488e-06
-9.23983e-14
-3.01663e-08
2.03489e-06
-8.36172e-14
-2.8354e-08
2.04431e-06
-7.10404e-14
-2.65901e-08
2.05316e-06
-5.57853e-14
-2.48726e-08
2.06145e-06
-3.95066e-14
-2.31995e-08
2.06919e-06
-2.39565e-14
-2.15689e-08
2.07641e-06
-1.06026e-14
-1.99789e-08
2.0831e-06
-5.16951e-16
-1.84276e-08
2.08929e-06
5.97439e-15
-1.69134e-08
2.09498e-06
9.00668e-15
-1.54345e-08
2.10018e-06
9.27383e-15
-1.39892e-08
2.10491e-06
7.71258e-15
-1.25758e-08
2.10917e-06
5.34642e-15
-1.11926e-08
2.11298e-06
3.09128e-15
-9.83816e-09
2.11633e-06
1.7035e-15
-8.51084e-09
2.11925e-06
1.58901e-15
-7.20918e-09
2.12173e-06
2.90046e-15
-5.93178e-09
2.12379e-06
5.46785e-15
-4.67731e-09
2.12543e-06
8.9026e-15
-3.44452e-09
2.12666e-06
1.26947e-14
-2.23222e-09
2.12748e-06
1.6525e-14
-1.03928e-09
2.1279e-06
1.99632e-14
1.35415e-10
2.12793e-06
2.24577e-14
1.2929e-09
2.12757e-06
2.37588e-14
2.43407e-09
2.12683e-06
2.37206e-14
3.55966e-09
2.12571e-06
2.23988e-14
4.67025e-09
2.12422e-06
1.98661e-14
5.76632e-09
2.12236e-06
1.63446e-14
6.84823e-09
2.12014e-06
1.20008e-14
7.9162e-09
2.11756e-06
7.17135e-15
8.97037e-09
2.11463e-06
2.15453e-15
1.00108e-08
2.11135e-06
-2.61943e-15
1.10374e-08
2.10772e-06
-6.79317e-15
1.20501e-08
2.10376e-06
-9.97813e-15
1.30488e-08
2.09946e-06
-1.19696e-14
1.40331e-08
2.09483e-06
-1.26114e-14
1.50028e-08
2.08987e-06
-1.19314e-14
1.59576e-08
2.0846e-06
-1.01343e-14
1.68974e-08
2.07901e-06
-7.58074e-15
1.78218e-08
2.07311e-06
-4.66294e-15
1.87309e-08
2.06691e-06
-1.62717e-15
1.96245e-08
2.0604e-06
1.55084e-15
2.05028e-08
2.0536e-06
5.2007e-15
2.1366e-08
2.04651e-06
9.73874e-15
2.22145e-08
2.03913e-06
1.53697e-14
2.30489e-08
2.03147e-06
2.19859e-14
2.38697e-08
2.02353e-06
2.89144e-14
2.4678e-08
2.01532e-06
3.5482e-14
2.54746e-08
2.00684e-06
4.12656e-14
2.62609e-08
1.99808e-06
4.61992e-14
2.70382e-08
1.98906e-06
5.03729e-14
2.7808e-08
1.97978e-06
5.33913e-14
2.85719e-08
1.97023e-06
5.43142e-14
2.93315e-08
1.96042e-06
5.22429e-14
3.0089e-08
1.95034e-06
4.70318e-14
3.08461e-08
1.94e-06
3.97182e-14
3.16049e-08
1.9294e-06
3.18981e-14
3.23675e-08
1.91853e-06
2.51223e-14
3.31357e-08
1.90739e-06
2.02512e-14
3.39114e-08
1.89597e-06
1.79926e-14
3.46964e-08
1.88428e-06
1.91201e-14
3.54927e-08
1.87231e-06
2.45498e-14
3.6302e-08
1.86005e-06
3.44343e-14
3.71259e-08
1.84751e-06
4.73857e-14
3.7966e-08
1.83466e-06
6.06945e-14
3.88235e-08
1.82152e-06
7.15261e-14
3.96996e-08
1.80807e-06
7.84303e-14
4.05954e-08
1.7943e-06
8.14557e-14
4.15121e-08
1.78021e-06
8.11504e-14
4.24504e-08
1.7658e-06
7.7445e-14
4.34111e-08
1.75104e-06
6.95763e-14
4.43946e-08
1.73595e-06