/*--------------------------------*- C++ -*----------------------------------*\
  =========                 |
  \\      /  F ield         | OpenFOAM: The Open Source CFD Toolbox
   \\    /   O peration     | Website:  https://openfoam.org
    \\  /    A nd           | Version:  8
     \\/     M anipulation  |
\*---------------------------------------------------------------------------*/
FoamFile
{
    version     2.0;
    format      ascii;
    class       volScalarField;
    location    "2200";
    object      nut;
}
// * * * * * * * * * * * * * * * * * * * * * * * * * * * * * * * * * * * * * //

dimensions      [0 2 -1 0 0 0 0];

internalField   nonuniform List<scalar> 
48000
(
7.68228e-05
6.82942e-05
8.45239e-05
9.67772e-05
0.00010686
0.000115305
0.000122632
0.000129286
0.000135351
0.000140936
0.00014614
0.000151023
0.000155631
0.000159998
0.000164151
0.000168113
0.000171901
0.000175527
0.000179004
0.00018234
0.000185543
0.00018862
0.000191575
0.000194413
0.000197139
0.000199757
0.000202268
0.000204677
0.000206985
0.000209197
0.000211313
0.000213337
0.00021527
0.000217116
0.000218875
0.00022055
0.000222144
0.000223658
0.000225095
0.000226456
0.000227743
0.000228959
0.000230106
0.000231185
0.000232199
0.000233148
0.000234036
0.000234863
0.000235642
0.000236366
0.000237035
0.000237652
0.000238218
0.000238734
0.000239203
0.000239626
0.000240004
0.00024034
0.000240635
0.00024089
0.000241107
0.000241287
0.000241432
0.000241542
0.00024162
0.000241666
0.000241681
0.000241667
0.000241625
0.000241555
0.000241459
0.000241337
0.000241191
0.000241021
0.000240829
0.000240614
0.000240379
0.000240122
0.000239846
0.00023955
0.000239236
0.000238904
0.000238554
0.000238187
0.000237803
0.000237404
0.000236989
0.000236558
0.000236113
0.000235653
0.000235178
0.00023469
0.000234188
0.000233672
0.000233143
0.000232601
0.000232046
0.000231479
0.000230898
0.000230306
0.0002297
0.000229083
0.000228453
0.00022781
0.000227156
0.000226489
0.00022581
0.000225118
0.000224414
0.000223698
0.000222969
0.000222227
0.000221473
0.000220705
0.000219925
0.000219132
0.000218325
0.000217505
0.000216671
0.000215823
0.000214961
0.000214085
0.000213195
0.000212289
0.000211369
0.000210433
0.000209482
0.000208516
0.000207533
0.000206534
0.000205518
0.000204486
0.000203436
0.00020237
0.000201285
0.000200183
0.000199062
0.000197923
0.000196764
0.000195587
0.000194391
0.000193174
0.000191938
0.000190681
0.000189404
0.000188105
0.000186786
0.000185445
0.000184083
0.000182698
0.000181291
0.000179861
0.000178408
0.000176933
0.000175433
0.00017391
0.000172363
0.000170791
0.000169194
0.000167572
0.000165925
0.000164252
0.000162552
0.000160826
0.000159072
0.000157291
0.000155481
0.000153642
0.000151773
0.000149874
0.000147943
0.000145979
0.000143982
0.00014195
0.000139881
0.000137773
0.000135625
0.000133434
0.000131197
0.000128912
0.000126573
0.000124179
0.000121725
0.00011921
0.000116644
0.000113997
0.000111247
0.000108382
0.00010538
0.000102217
9.88582e-05
9.52572e-05
9.13543e-05
8.71224e-05
8.23917e-05
7.69597e-05
7.05206e-05
6.27673e-05
5.55328e-05
0.000224304
7.68203e-05
6.82953e-05
8.45248e-05
9.67779e-05
0.000106861
0.000115305
0.000122632
0.000129287
0.000135351
0.000140937
0.000146141
0.000151024
0.000155631
0.000159998
0.000164152
0.000168114
0.000171901
0.000175528
0.000179004
0.000182341
0.000185544
0.00018862
0.000191575
0.000194414
0.00019714
0.000199757
0.000202268
0.000204677
0.000206986
0.000209197
0.000211313
0.000213337
0.000215271
0.000217116
0.000218875
0.000220551
0.000222144
0.000223658
0.000225095
0.000226456
0.000227743
0.000228959
0.000230106
0.000231185
0.000232199
0.000233148
0.000234036
0.000234863
0.000235642
0.000236366
0.000237035
0.000237652
0.000238218
0.000238734
0.000239203
0.000239625
0.000240004
0.00024034
0.000240635
0.00024089
0.000241107
0.000241287
0.000241432
0.000241542
0.00024162
0.000241666
0.000241681
0.000241667
0.000241624
0.000241555
0.000241459
0.000241337
0.000241191
0.000241021
0.000240829
0.000240614
0.000240378
0.000240122
0.000239846
0.00023955
0.000239236
0.000238904
0.000238554
0.000238187
0.000237803
0.000237404
0.000236989
0.000236558
0.000236113
0.000235652
0.000235178
0.00023469
0.000234188
0.000233672
0.000233143
0.000232601
0.000232046
0.000231479
0.000230898
0.000230305
0.0002297
0.000229082
0.000228452
0.00022781
0.000227156
0.000226489
0.000225809
0.000225118
0.000224414
0.000223697
0.000222969
0.000222227
0.000221473
0.000220705
0.000219925
0.000219132
0.000218325
0.000217505
0.000216671
0.000215823
0.000214961
0.000214085
0.000213195
0.000212289
0.000211369
0.000210433
0.000209482
0.000208516
0.000207533
0.000206534
0.000205518
0.000204486
0.000203436
0.00020237
0.000201285
0.000200183
0.000199062
0.000197923
0.000196764
0.000195587
0.00019439
0.000193174
0.000191938
0.000190681
0.000189404
0.000188105
0.000186786
0.000185445
0.000184083
0.000182698
0.000181291
0.000179861
0.000178408
0.000176933
0.000175433
0.00017391
0.000172363
0.000170791
0.000169194
0.000167572
0.000165925
0.000164252
0.000162552
0.000160826
0.000159072
0.000157291
0.000155481
0.000153642
0.000151773
0.000149874
0.000147943
0.000145979
0.000143982
0.00014195
0.000139881
0.000137773
0.000135625
0.000133434
0.000131197
0.000128911
0.000126573
0.000124179
0.000121725
0.00011921
0.000116644
0.000113997
0.000111247
0.000108382
0.00010538
0.000102217
9.88582e-05
9.52572e-05
9.13542e-05
8.71222e-05
8.2391e-05
7.69562e-05
7.05076e-05
6.27328e-05
5.55282e-05
0.000223994
5.91618e-05
0.000435616
0.000692759
0.000871191
0.00100516
0.00111503
0.00120914
0.00129153
0.00136529
0.00143229
0.0014938
0.00155073
0.00160379
0.00165351
0.00170031
0.00174453
0.00178643
0.00182623
0.00186412
0.00190025
0.00193474
0.0019677
0.00199922
0.00202939
0.00205827
0.00208592
0.0021124
0.00213775
0.00216202
0.00218525
0.00220747
0.00222871
0.00224902
0.00226841
0.00228692
0.00230457
0.00232139
0.0023374
0.00235262
0.00236709
0.00238082
0.00239383
0.00240614
0.00241778
0.00242876
0.0024391
0.00244881
0.00245786
0.00246615
0.00247385
0.00248101
0.00248765
0.0024938
0.00249949
0.00250471
0.0025095
0.00251387
0.00251782
0.00252138
0.00252456
0.00252737
0.00252982
0.00253193
0.0025337
0.00253515
0.00253629
0.00253713
0.00253767
0.00253794
0.00253793
0.00253765
0.00253712
0.00253634
0.00253532
0.00253407
0.00253259
0.00253089
0.00252898
0.00252686
0.00252453
0.00252201
0.00251931
0.00251641
0.00251333
0.00251008
0.00250665
0.00250305
0.00249928
0.00249536
0.00249127
0.00248702
0.00248262
0.00247807
0.00247337
0.00246852
0.00246352
0.00245838
0.0024531
0.00244767
0.0024421
0.00243639
0.00243054
0.00242455
0.00241841
0.00241214
0.00240573
0.00239918
0.00239248
0.00238565
0.00237867
0.00237155
0.00236428
0.00235687
0.00234931
0.00234161
0.00233375
0.00232574
0.00231758
0.00230926
0.00230078
0.00229215
0.00228335
0.00227439
0.00226526
0.00225596
0.00224649
0.00223685
0.00222703
0.00221702
0.00220684
0.00219647
0.00218592
0.00217517
0.00216423
0.00215309
0.00214176
0.00213022
0.00211847
0.00210652
0.00209435
0.00208197
0.00206937
0.00205655
0.00204351
0.00203024
0.00201675
0.00200301
0.00198905
0.00197484
0.0019604
0.0019457
0.00193076
0.00191557
0.00190013
0.00188442
0.00186846
0.00185223
0.00183572
0.00181895
0.0018019
0.00178457
0.00176695
0.00174903
0.00173082
0.0017123
0.00169347
0.00167432
0.00165485
0.00163503
0.00161486
0.00159433
0.00157342
0.00155212
0.00153041
0.00150826
0.00148565
0.00146256
0.00143895
0.00141477
0.00138999
0.00136454
0.00133835
0.0013113
0.00128326
0.00125402
0.00122355
0.00119174
0.00115841
0.00112328
0.00108599
0.00104601
0.00100256
0.000954277
0.00089857
0.000834094
0.000756654
0.000657648
0.000514733
0.000273285
4.28614e-05
5.91621e-05
0.000435636
0.00069279
0.000871226
0.00100519
0.00111506
0.00120917
0.00129157
0.00136532
0.00143232
0.00149383
0.00155076
0.00160382
0.00165354
0.00170034
0.00174456
0.00178646
0.00182626
0.00186415
0.00190027
0.00193476
0.00196772
0.00199925
0.00202941
0.00205829
0.00208594
0.00211242
0.00213777
0.00216204
0.00218527
0.00220749
0.00222873
0.00224904
0.00226843
0.00228694
0.00230458
0.0023214
0.00233741
0.00235264
0.0023671
0.00238083
0.00239384
0.00240615
0.00241779
0.00242877
0.00243911
0.00244882
0.00245787
0.00246616
0.00247386
0.00248102
0.00248766
0.00249382
0.0024995
0.00250472
0.00250951
0.00251388
0.00251783
0.00252139
0.00252457
0.00252738
0.00252983
0.00253194
0.00253371
0.00253516
0.0025363
0.00253714
0.00253768
0.00253795
0.00253794
0.00253766
0.00253713
0.00253635
0.00253533
0.00253408
0.0025326
0.0025309
0.00252899
0.00252686
0.00252454
0.00252202
0.00251931
0.00251642
0.00251334
0.00251009
0.00250666
0.00250306
0.00249929
0.00249537
0.00249128
0.00248703
0.00248263
0.00247808
0.00247338
0.00246853
0.00246353
0.00245839
0.00245311
0.00244768
0.00244211
0.0024364
0.00243055
0.00242455
0.00241842
0.00241215
0.00240574
0.00239919
0.00239249
0.00238566
0.00237868
0.00237156
0.00236429
0.00235688
0.00234932
0.00234161
0.00233376
0.00232575
0.00231759
0.00230927
0.00230079
0.00229215
0.00228336
0.00227439
0.00226527
0.00225597
0.0022465
0.00223685
0.00222703
0.00221703
0.00220685
0.00219648
0.00218593
0.00217518
0.00216424
0.0021531
0.00214176
0.00213022
0.00211848
0.00210652
0.00209436
0.00208198
0.00206938
0.00205656
0.00204352
0.00203025
0.00201675
0.00200302
0.00198906
0.00197485
0.0019604
0.00194571
0.00193077
0.00191558
0.00190013
0.00188443
0.00186846
0.00185223
0.00183573
0.00181896
0.00180191
0.00178457
0.00176695
0.00174904
0.00173083
0.00171231
0.00169348
0.00167433
0.00165485
0.00163504
0.00161487
0.00159434
0.00157343
0.00155213
0.00153041
0.00150827
0.00148566
0.00146257
0.00143895
0.00141478
0.00139
0.00136455
0.00133835
0.0013113
0.00128327
0.00125402
0.00122355
0.00119174
0.00115841
0.00112328
0.00108599
0.00104602
0.00100256
0.000954282
0.000898576
0.000834102
0.000756686
0.000657805
0.000515275
0.000273257
4.28485e-05
7.24169e-05
0.000659895
0.00117353
0.0015571
0.00186093
0.00211367
0.00233103
0.00252214
0.00269301
0.00284771
0.00298915
0.00311945
0.00324024
0.00335281
0.00345818
0.00355715
0.00365043
0.00373856
0.00382203
0.00390124
0.00397652
0.00404818
0.00411647
0.00418161
0.00424379
0.00430318
0.00435994
0.0044142
0.00446607
0.00451567
0.0045631
0.00460844
0.00465177
0.00469318
0.00473273
0.00477049
0.00480652
0.00484088
0.00487363
0.00490481
0.00493449
0.00496269
0.00498949
0.0050149
0.00503898
0.00506175
0.00508323
0.00510343
0.0051223
0.00513998
0.00515654
0.00517205
0.00518654
0.00520006
0.00521265
0.00522434
0.00523516
0.00524515
0.00525432
0.0052627
0.00527033
0.00527722
0.00528341
0.0052889
0.00529374
0.00529792
0.00530148
0.00530444
0.00530681
0.00530861
0.00530986
0.00531058
0.00531077
0.00531046
0.00530966
0.00530838
0.00530664
0.00530444
0.00530181
0.00529874
0.00529526
0.00529137
0.00528707
0.00528239
0.00527732
0.00527189
0.00526608
0.00525991
0.00525339
0.00524652
0.00523931
0.00523176
0.00522388
0.00521567
0.00520713
0.00519828
0.0051891
0.0051796
0.0051698
0.00515967
0.00514924
0.00513849
0.00512744
0.00511607
0.0051044
0.00509241
0.00508011
0.0050675
0.00505457
0.00504133
0.00502777
0.00501389
0.00499969
0.00498515
0.00497029
0.0049551
0.00493957
0.0049237
0.00490748
0.00489091
0.00487399
0.00485672
0.00483907
0.00482106
0.00480268
0.00478391
0.00476476
0.00474522
0.00472528
0.00470494
0.00468419
0.00466302
0.00464144
0.00461942
0.00459697
0.00457407
0.00455073
0.00452694
0.00450268
0.00447795
0.00445275
0.00442706
0.00440088
0.00437421
0.00434703
0.00431933
0.00429112
0.00426238
0.0042331
0.00420328
0.0041729
0.00414196
0.00411045
0.00407836
0.00404568
0.0040124
0.0039785
0.00394398
0.00390883
0.00387302
0.00383655
0.00379939
0.00376154
0.00372297
0.00368366
0.0036436
0.00360274
0.00356107
0.00351856
0.00347517
0.00343086
0.00338559
0.00333931
0.00329196
0.00324347
0.00319378
0.0031428
0.00309043
0.00303655
0.00298102
0.00292367
0.0028643
0.00280266
0.00273842
0.00267122
0.00260073
0.00252647
0.00244781
0.00236389
0.00227363
0.00217551
0.00206736
0.00194607
0.001807
0.00164481
0.00145068
0.00121031
0.00089987
0.000483245
5.33228e-05
7.24174e-05
0.000659923
0.00117358
0.00155716
0.001861
0.00211374
0.0023311
0.00252222
0.00269308
0.00284779
0.00298922
0.00311952
0.00324031
0.00335288
0.00345824
0.00355721
0.00365049
0.00373862
0.00382208
0.00390129
0.00397657
0.00404823
0.00411651
0.00418165
0.00424383
0.00430322
0.00435998
0.00441423
0.0044661
0.0045157
0.00456313
0.00460847
0.0046518
0.00469321
0.00473276
0.00477051
0.00480654
0.0048409
0.00487365
0.00490483
0.0049345
0.00496271
0.0049895
0.00501492
0.00503899
0.00506176
0.00508325
0.00510344
0.00512231
0.00513999
0.00515655
0.00517206
0.00518655
0.00520007
0.00521266
0.00522435
0.00523517
0.00524515
0.00525432
0.00526271
0.00527034
0.00527723
0.00528341
0.00528891
0.00529374
0.00529793
0.00530149
0.00530445
0.00530682
0.00530862
0.00530987
0.00531058
0.00531078
0.00531047
0.00530966
0.00530839
0.00530664
0.00530445
0.00530181
0.00529874
0.00529526
0.00529137
0.00528708
0.00528239
0.00527733
0.00527189
0.00526608
0.00525991
0.00525339
0.00524652
0.00523931
0.00523176
0.00522388
0.00521567
0.00520713
0.00519828
0.0051891
0.0051796
0.0051698
0.00515967
0.00514924
0.0051385
0.00512744
0.00511607
0.0051044
0.00509241
0.00508011
0.0050675
0.00505457
0.00504133
0.00502777
0.00501389
0.00499968
0.00498515
0.00497029
0.0049551
0.00493957
0.0049237
0.00490748
0.00489091
0.00487399
0.00485672
0.00483907
0.00482106
0.00480268
0.00478391
0.00476476
0.00474522
0.00472528
0.00470494
0.00468419
0.00466302
0.00464143
0.00461942
0.00459697
0.00457407
0.00455073
0.00452693
0.00450267
0.00447795
0.00445274
0.00442706
0.00440088
0.0043742
0.00434702
0.00431933
0.00429112
0.00426238
0.0042331
0.00420327
0.0041729
0.00414196
0.00411045
0.00407836
0.00404568
0.0040124
0.0039785
0.00394398
0.00390883
0.00387302
0.00383655
0.00379939
0.00376154
0.00372297
0.00368366
0.00364359
0.00360274
0.00356107
0.00351856
0.00347517
0.00343086
0.00338559
0.00333931
0.00329195
0.00324347
0.00319378
0.0031428
0.00309043
0.00303655
0.00298102
0.00292367
0.0028643
0.00280266
0.00273842
0.00267122
0.00260073
0.00252647
0.00244781
0.00236389
0.00227363
0.00217551
0.00206736
0.00194607
0.001807
0.00164482
0.00145068
0.00121032
0.000899921
0.000482942
5.33522e-05
8.22001e-05
0.000791488
0.00149023
0.00204611
0.00250119
0.0028862
0.0032204
0.00351611
0.00378162
0.0040227
0.00424355
0.00444728
0.00463632
0.00481256
0.00497752
0.00513244
0.00527837
0.00541615
0.00554653
0.00567014
0.00578751
0.00589912
0.00600538
0.00610663
0.00620321
0.00629539
0.00638342
0.00646752
0.0065479
0.00662473
0.00669819
0.00676842
0.00683556
0.00689973
0.00696106
0.00701966
0.00707563
0.00712906
0.00718004
0.00722866
0.00727501
0.00731916
0.00736117
0.00740112
0.00743907
0.00747507
0.00750917
0.00754139
0.00757177
0.0076004
0.00762738
0.00765278
0.00767666
0.00769909
0.00772012
0.0077398
0.00775818
0.0077753
0.0077912
0.00780594
0.00781954
0.00783204
0.00784348
0.00785389
0.0078633
0.00787175
0.00787926
0.00788587
0.0078916
0.00789647
0.00790051
0.00790375
0.00790621
0.00790791
0.00790886
0.0079091
0.00790863
0.00790749
0.00790567
0.0079032
0.0079001
0.00789638
0.00789205
0.00788713
0.00788163
0.00787555
0.00786891
0.00786173
0.007854
0.00784574
0.00783696
0.00782765
0.00781784
0.00780752
0.0077967
0.00778539
0.00777358
0.00776129
0.00774851
0.00773524
0.0077215
0.00770727
0.00769257
0.00767739
0.00766172
0.00764558
0.00762895
0.00761184
0.00759424
0.00757615
0.00755757
0.00753849
0.00751891
0.00749882
0.00747823
0.00745712
0.00743548
0.00741332
0.00739062
0.00736738
0.0073436
0.00731925
0.00729435
0.00726887
0.00724281
0.00721616
0.00718891
0.00716106
0.00713259
0.00710349
0.00707376
0.00704338
0.00701235
0.00698065
0.00694827
0.00691521
0.00688145
0.00684697
0.00681178
0.00677585
0.00673918
0.00670175
0.00666355
0.00662457
0.0065848
0.00654422
0.00650281
0.00646058
0.00641749
0.00637353
0.0063287
0.00628297
0.00623632
0.00618875
0.00614022
0.00609072
0.00604023
0.00598872
0.00593617
0.00588256
0.00582785
0.00577202
0.00571503
0.00565684
0.00559742
0.00553672
0.0054747
0.00541129
0.00534644
0.00528009
0.00521216
0.00514256
0.00507121
0.004998
0.00492281
0.0048455
0.0047659
0.00468385
0.00459911
0.00451144
0.00442054
0.00432604
0.00422752
0.00412446
0.00401624
0.00390215
0.00378131
0.00365257
0.00351446
0.00336507
0.00320185
0.00302141
0.00281922
0.00258907
0.00232259
0.00200877
0.00163146
0.00116895
0.000601558
6.22013e-05
8.22008e-05
0.000791516
0.0014903
0.00204619
0.00250129
0.00288631
0.00322051
0.00351622
0.00378173
0.00402281
0.00424366
0.00444739
0.00463643
0.00481266
0.00497762
0.00513254
0.00527846
0.00541624
0.00554662
0.00567022
0.00578759
0.00589919
0.00600544
0.0061067
0.00620327
0.00629545
0.00638347
0.00646757
0.00654795
0.00662478
0.00669823
0.00676846
0.0068356
0.00689977
0.0069611
0.00701969
0.00707566
0.00712908
0.00718007
0.00722869
0.00727504
0.00731918
0.00736119
0.00740114
0.00743909
0.00747509
0.00750919
0.00754141
0.00757178
0.00760042
0.0076274
0.00765279
0.00767667
0.0076991
0.00772013
0.00773981
0.00775818
0.0077753
0.00779121
0.00780594
0.00781954
0.00783204
0.00784348
0.00785389
0.0078633
0.00787175
0.00787926
0.00788587
0.0078916
0.00789647
0.00790051
0.00790375
0.00790621
0.00790791
0.00790886
0.0079091
0.00790863
0.00790748
0.00790567
0.0079032
0.0079001
0.00789638
0.00789205
0.00788713
0.00788162
0.00787555
0.00786891
0.00786172
0.007854
0.00784574
0.00783695
0.00782765
0.00781783
0.00780751
0.0077967
0.00778538
0.00777357
0.00776128
0.0077485
0.00773524
0.00772149
0.00770727
0.00769256
0.00767738
0.00766171
0.00764557
0.00762894
0.00761183
0.00759423
0.00757614
0.00755756
0.00753848
0.0075189
0.00749882
0.00747822
0.00745711
0.00743547
0.00741331
0.00739061
0.00736738
0.00734359
0.00731924
0.00729434
0.00726886
0.0072428
0.00721615
0.0071889
0.00716105
0.00713258
0.00710348
0.00707375
0.00704337
0.00701234
0.00698064
0.00694826
0.0069152
0.00688143
0.00684696
0.00681177
0.00677584
0.00673917
0.00670174
0.00666354
0.00662456
0.00658479
0.00654421
0.0065028
0.00646056
0.00641748
0.00637352
0.00632869
0.00628296
0.00623631
0.00618874
0.00614021
0.00609071
0.00604022
0.00598871
0.00593616
0.00588255
0.00582784
0.00577201
0.00571502
0.00565683
0.00559741
0.00553671
0.00547468
0.00541128
0.00534643
0.00528008
0.00521215
0.00514255
0.0050712
0.00499799
0.0049228
0.00484549
0.00476589
0.00468384
0.0045991
0.00451143
0.00442053
0.00432604
0.00422751
0.00412445
0.00401623
0.00390215
0.00378131
0.00365257
0.00351446
0.00336506
0.00320184
0.0030214
0.00281922
0.00258907
0.00232259
0.00200877
0.00163146
0.00116896
0.000601481
6.2206e-05
9.00536e-05
0.000883081
0.00171663
0.00240846
0.00298835
0.00348594
0.0039219
0.00431029
0.00466086
0.00498059
0.00527459
0.00554671
0.00579994
0.00603661
0.00625862
0.00646753
0.00666461
0.00685096
0.0070275
0.00719502
0.00735421
0.00750566
0.00764992
0.00778745
0.00791865
0.00804391
0.00816356
0.00827789
0.00838718
0.00849167
0.00859159
0.00868715
0.00877853
0.00886592
0.00894948
0.00902935
0.00910569
0.00917862
0.00924828
0.00931478
0.00937824
0.00943875
0.00949643
0.00955137
0.00960364
0.00965334
0.00970053
0.00974528
0.00978765
0.00982774
0.00986566
0.00990149
0.00993532
0.00996721
0.00999725
0.0100255
0.010052
0.0100769
0.0101002
0.0101219
0.0101421
0.0101608
0.0101782
0.0101942
0.0102088
0.0102222
0.0102344
0.0102454
0.0102552
0.0102639
0.0102714
0.010278
0.0102834
0.0102879
0.0102914
0.010294
0.0102956
0.0102963
0.0102962
0.0102951
0.0102933
0.0102906
0.0102871
0.0102828
0.0102778
0.010272
0.0102654
0.0102581
0.0102501
0.0102414
0.010232
0.0102219
0.0102111
0.0101997
0.0101876
0.0101748
0.0101614
0.0101473
0.0101326
0.0101172
0.0101012
0.0100845
0.0100672
0.0100493
0.0100307
0.0100115
0.00999158
0.00997106
0.00994989
0.00992807
0.00990558
0.00988243
0.0098586
0.0098341
0.00980892
0.00978304
0.00975646
0.00972918
0.00970118
0.00967245
0.00964298
0.00961277
0.0095818
0.00955006
0.00951755
0.00948424
0.00945012
0.00941519
0.00937943
0.00934283
0.00930537
0.00926704
0.00922783
0.00918771
0.00914669
0.00910473
0.00906183
0.00901796
0.00897312
0.00892728
0.00888044
0.00883256
0.00878364
0.00873365
0.00868258
0.0086304
0.0085771
0.00852265
0.00846704
0.00841023
0.00835221
0.00829296
0.00823243
0.00817061
0.00810747
0.00804298
0.0079771
0.00790979
0.00784103
0.00777076
0.00769895
0.00762554
0.00755049
0.00747374
0.00739522
0.00731487
0.00723262
0.00714837
0.00706205
0.00697354
0.00688274
0.00678952
0.00669373
0.00659522
0.00649381
0.00638927
0.00628138
0.00616986
0.00605438
0.00593457
0.00580999
0.00568011
0.00554431
0.00540185
0.00525184
0.00509322
0.00492469
0.0047446
0.00455091
0.004341
0.00411151
0.00385812
0.00357521
0.00325544
0.00288927
0.00246479
0.00196631
0.00137586
0.000686492
6.83164e-05
9.00543e-05
0.00088311
0.0017167
0.00240856
0.00298846
0.00348607
0.00392204
0.00431042
0.004661
0.00498073
0.00527473
0.00554685
0.00580007
0.00603674
0.00625875
0.00646765
0.00666473
0.00685108
0.00702761
0.00719512
0.00735431
0.00750576
0.00765002
0.00778754
0.00791874
0.00804399
0.00816364
0.00827796
0.00838725
0.00849173
0.00859165
0.00868721
0.00877859
0.00886597
0.00894952
0.0090294
0.00910573
0.00917866
0.00924832
0.00931482
0.00937827
0.00943879
0.00949646
0.00955139
0.00960367
0.00965336
0.00970055
0.0097453
0.00978766
0.00982776
0.00986568
0.00990151
0.00993533
0.00996723
0.00999727
0.0100255
0.010052
0.0100769
0.0101002
0.0101219
0.0101421
0.0101608
0.0101782
0.0101942
0.0102088
0.0102222
0.0102344
0.0102454
0.0102552
0.0102639
0.0102714
0.010278
0.0102834
0.0102879
0.0102914
0.010294
0.0102956
0.0102963
0.0102962
0.0102951
0.0102933
0.0102906
0.0102871
0.0102828
0.0102778
0.010272
0.0102654
0.0102581
0.0102501
0.0102414
0.010232
0.0102219
0.0102111
0.0101997
0.0101876
0.0101748
0.0101614
0.0101473
0.0101325
0.0101172
0.0101012
0.0100845
0.0100672
0.0100493
0.0100307
0.0100114
0.00999157
0.00997105
0.00994988
0.00992805
0.00990557
0.00988242
0.00985859
0.00983409
0.00980891
0.00978303
0.00975645
0.00972917
0.00970116
0.00967243
0.00964297
0.00961276
0.00958179
0.00955005
0.00951753
0.00948422
0.00945011
0.00941518
0.00937942
0.00934282
0.00930536
0.00926703
0.00922781
0.0091877
0.00914667
0.00910471
0.00906181
0.00901795
0.00897311
0.00892727
0.00888042
0.00883255
0.00878362
0.00873364
0.00868256
0.00863039
0.00857708
0.00852264
0.00846702
0.00841022
0.0083522
0.00829294
0.00823242
0.0081706
0.00810746
0.00804296
0.00797708
0.00790978
0.00784101
0.00777075
0.00769894
0.00762553
0.00755048
0.00747372
0.00739521
0.00731486
0.0072326
0.00714836
0.00706203
0.00697353
0.00688273
0.0067895
0.00669372
0.00659521
0.00649379
0.00638926
0.00628137
0.00616985
0.00605437
0.00593456
0.00580998
0.00568009
0.00554429
0.00540183
0.00525183
0.00509321
0.00492468
0.00474459
0.0045509
0.00434099
0.0041115
0.00385811
0.00357521
0.00325544
0.00288927
0.00246479
0.00196632
0.00137586
0.000686476
6.83171e-05
9.67337e-05
0.000956463
0.00189261
0.00269129
0.00337241
0.0039636
0.0044858
0.00495397
0.00537878
0.005768
0.00612739
0.00646131
0.00677313
0.00706552
0.00734062
0.0076002
0.0078457
0.00807836
0.00829922
0.00850919
0.00870903
0.00889945
0.00908105
0.00925436
0.00941988
0.00957803
0.00972921
0.00987378
0.0100121
0.0101443
0.0102709
0.010392
0.0105079
0.0106188
0.0107248
0.0108263
0.0109233
0.011016
0.0111047
0.0111894
0.0112702
0.0113474
0.0114211
0.0114913
0.0115583
0.011622
0.0116826
0.0117402
0.0117949
0.0118468
0.011896
0.0119425
0.0119867
0.0120284
0.0120678
0.012105
0.01214
0.012173
0.012204
0.012233
0.0122602
0.0122856
0.0123092
0.0123312
0.0123516
0.0123703
0.0123876
0.0124033
0.0124176
0.0124305
0.0124421
0.0124524
0.0124614
0.0124691
0.0124756
0.012481
0.0124852
0.0124883
0.0124903
0.0124913
0.0124912
0.0124901
0.012488
0.0124849
0.0124809
0.012476
0.0124701
0.0124633
0.0124557
0.0124471
0.0124377
0.0124275
0.0124164
0.0124045
0.0123917
0.0123782
0.0123638
0.0123486
0.0123327
0.0123159
0.0122983
0.01228
0.0122608
0.0122409
0.0122201
0.0121986
0.0121763
0.0121531
0.0121292
0.0121044
0.0120789
0.0120525
0.0120252
0.0119971
0.0119682
0.0119384
0.0119078
0.0118763
0.0118438
0.0118105
0.0117763
0.0117411
0.011705
0.0116679
0.0116299
0.0115909
0.0115508
0.0115098
0.0114677
0.0114246
0.0113804
0.0113351
0.0112887
0.0112412
0.0111925
0.0111427
0.0110916
0.0110394
0.010986
0.0109313
0.0108753
0.010818
0.0107594
0.0106995
0.0106381
0.0105754
0.0105113
0.0104457
0.0103786
0.01031
0.0102399
0.0101681
0.0100948
0.0100198
0.00994308
0.00986464
0.0097844
0.00970233
0.00961837
0.00953246
0.00944455
0.00935456
0.00926243
0.00916808
0.00907141
0.00897235
0.00887079
0.00876661
0.00865969
0.00854989
0.00843707
0.00832103
0.0082016
0.00807856
0.00795165
0.0078206
0.00768509
0.00754474
0.00739912
0.00724774
0.00709001
0.00692524
0.00675262
0.0065712
0.00637981
0.00617708
0.00596131
0.00573045
0.00548193
0.00521258
0.0049184
0.00459441
0.00423432
0.00383021
0.0033722
0.00284813
0.00224383
0.00154531
0.000755679
7.34759e-05
9.67344e-05
0.000956492
0.00189268
0.00269139
0.00337253
0.00396374
0.00448595
0.00495412
0.00537894
0.00576817
0.00612755
0.00646147
0.00677329
0.00706567
0.00734077
0.00760035
0.00784585
0.0080785
0.00829936
0.00850931
0.00870916
0.00889957
0.00908116
0.00925447
0.00941998
0.00957813
0.00972931
0.00987387
0.0100121
0.0101444
0.010271
0.0103921
0.010508
0.0106188
0.0107249
0.0108263
0.0109233
0.0110161
0.0111047
0.0111894
0.0112703
0.0113475
0.0114211
0.0114914
0.0115583
0.011622
0.0116826
0.0117402
0.0117949
0.0118468
0.011896
0.0119426
0.0119867
0.0120284
0.0120678
0.012105
0.01214
0.012173
0.012204
0.012233
0.0122602
0.0122856
0.0123092
0.0123312
0.0123516
0.0123703
0.0123876
0.0124033
0.0124176
0.0124305
0.0124421
0.0124524
0.0124614
0.0124691
0.0124756
0.012481
0.0124852
0.0124883
0.0124903
0.0124913
0.0124912
0.0124901
0.012488
0.0124849
0.0124809
0.012476
0.0124701
0.0124633
0.0124556
0.0124471
0.0124377
0.0124275
0.0124164
0.0124045
0.0123917
0.0123782
0.0123638
0.0123486
0.0123326
0.0123159
0.0122983
0.01228
0.0122608
0.0122409
0.0122201
0.0121986
0.0121763
0.0121531
0.0121292
0.0121044
0.0120788
0.0120524
0.0120252
0.0119971
0.0119682
0.0119384
0.0119078
0.0118762
0.0118438
0.0118105
0.0117763
0.0117411
0.011705
0.0116679
0.0116299
0.0115909
0.0115508
0.0115098
0.0114677
0.0114246
0.0113804
0.0113351
0.0112887
0.0112412
0.0111925
0.0111427
0.0110916
0.0110394
0.0109859
0.0109312
0.0108753
0.010818
0.0107594
0.0106994
0.0106381
0.0105754
0.0105113
0.0104457
0.0103786
0.01031
0.0102399
0.0101681
0.0100948
0.0100198
0.00994307
0.00986462
0.00978439
0.00970231
0.00961835
0.00953245
0.00944453
0.00935454
0.00926241
0.00916806
0.0090714
0.00897234
0.00887077
0.00876659
0.00865967
0.00854988
0.00843705
0.00832102
0.00820159
0.00807854
0.00795164
0.00782059
0.00768507
0.00754472
0.0073991
0.00724772
0.00708999
0.00692522
0.00675261
0.00657118
0.0063798
0.00617706
0.0059613
0.00573044
0.00548192
0.00521257
0.0049184
0.00459441
0.00423431
0.00383021
0.0033722
0.00284813
0.00224384
0.00154531
0.000755673
7.3476e-05
0.000102858
0.00101899
0.00203765
0.00292202
0.00368556
0.00435421
0.00494887
0.00548496
0.00597374
0.00642352
0.0068405
0.00722939
0.00759385
0.00793677
0.00826046
0.00856681
0.00885737
0.00913346
0.0093962
0.00964654
0.00988531
0.0101133
0.010331
0.0105392
0.0107382
0.0109287
0.011111
0.0112854
0.0114525
0.0116124
0.0117656
0.0119122
0.0120527
0.0121871
0.0123158
0.012439
0.0125568
0.0126696
0.0127774
0.0128805
0.012979
0.0130732
0.013163
0.0132488
0.0133306
0.0134086
0.0134829
0.0135536
0.0136208
0.0136847
0.0137454
0.013803
0.0138576
0.0139094
0.0139584
0.0140047
0.0140485
0.0140898
0.0141288
0.0141654
0.0141998
0.0142321
0.0142623
0.0142905
0.0143168
0.0143412
0.0143637
0.0143845
0.0144036
0.0144211
0.0144369
0.0144512
0.014464
0.0144753
0.0144852
0.0144937
0.0145008
0.0145066
0.0145111
0.0145144
0.0145164
0.0145173
0.0145169
0.0145155
0.0145129
0.0145091
0.0145043
0.0144985
0.0144916
0.0144836
0.0144747
0.0144647
0.0144538
0.0144418
0.0144289
0.0144151
0.0144002
0.0143845
0.0143677
0.0143501
0.0143315
0.014312
0.0142915
0.0142701
0.0142477
0.0142245
0.0142002
0.014175
0.0141489
0.0141218
0.0140937
0.0140647
0.0140347
0.0140037
0.0139716
0.0139386
0.0139045
0.0138694
0.0138332
0.013796
0.0137577
0.0137183
0.0136777
0.013636
0.0135932
0.0135492
0.013504
0.0134575
0.0134099
0.013361
0.0133108
0.0132593
0.0132065
0.0131524
0.0130969
0.0130399
0.0129816
0.0129218
0.0128606
0.0127978
0.0127336
0.0126677
0.0126003
0.0125312
0.0124605
0.0123881
0.012314
0.0122381
0.0121604
0.0120809
0.0119995
0.0119161
0.0118308
0.0117435
0.0116541
0.0115626
0.0114689
0.0113729
0.0112746
0.0111739
0.0110708
0.0109651
0.0108567
0.0107456
0.0106317
0.0105148
0.0103947
0.0102715
0.0101448
0.0100146
0.00988057
0.00974257
0.00960034
0.00945361
0.00930207
0.00914535
0.00898307
0.00881475
0.00863987
0.0084578
0.00826783
0.00806912
0.00786067
0.00764131
0.00740964
0.00716401
0.00690239
0.00662236
0.00632094
0.00599452
0.00563863
0.00524782
0.00481539
0.00433315
0.00379123
0.00317801
0.00248095
0.0016896
0.000815029
7.80075e-05
0.000102859
0.00101902
0.00203773
0.00292212
0.00368569
0.00435436
0.00494903
0.00548513
0.00597392
0.0064237
0.00684068
0.00722957
0.00759403
0.00793695
0.00826063
0.00856697
0.00885753
0.00913362
0.00939635
0.00964668
0.00988545
0.0101134
0.0103311
0.0105393
0.0107384
0.0109288
0.0111111
0.0112855
0.0114526
0.0116125
0.0117657
0.0119123
0.0120527
0.0121872
0.0123159
0.012439
0.0125569
0.0126696
0.0127775
0.0128806
0.0129791
0.0130732
0.0131631
0.0132488
0.0133307
0.0134086
0.0134829
0.0135536
0.0136208
0.0136847
0.0137454
0.013803
0.0138576
0.0139094
0.0139584
0.0140047
0.0140485
0.0140898
0.0141288
0.0141654
0.0141998
0.0142321
0.0142623
0.0142905
0.0143168
0.0143412
0.0143637
0.0143846
0.0144037
0.0144211
0.0144369
0.0144512
0.014464
0.0144753
0.0144852
0.0144937
0.0145008
0.0145066
0.0145111
0.0145144
0.0145164
0.0145173
0.0145169
0.0145155
0.0145128
0.0145091
0.0145043
0.0144985
0.0144916
0.0144836
0.0144747
0.0144647
0.0144538
0.0144418
0.0144289
0.0144151
0.0144002
0.0143845
0.0143677
0.0143501
0.0143315