/*--------------------------------*- C++ -*----------------------------------*\
  =========                 |
  \\      /  F ield         | OpenFOAM: The Open Source CFD Toolbox
   \\    /   O peration     | Website:  https://openfoam.org
    \\  /    A nd           | Version:  8
     \\/     M anipulation  |
\*---------------------------------------------------------------------------*/
FoamFile
{
    version     2.0;
    format      ascii;
    class       volVectorField;
    location    "2200";
    object      U;
}
// * * * * * * * * * * * * * * * * * * * * * * * * * * * * * * * * * * * * * //

dimensions      [0 1 -1 0 0 0 0];

internalField   nonuniform List<vector> 
48000
(
(-0.0157391 -1.15765e-06 0.0171959)
(-0.029614 -1.9627e-07 0.012954)
(-0.0392343 -1.20756e-07 0.00462889)
(-0.0392114 -1.40403e-07 -0.00233873)
(-0.0332253 -1.77762e-07 -0.00706679)
(-0.0231434 -2.09561e-07 -0.0100725)
(-0.0105839 -2.29138e-07 -0.0119228)
(0.00368086 -2.31111e-07 -0.0128935)
(0.0185568 -2.17542e-07 -0.0131828)
(0.033711 -1.99114e-07 -0.0131043)
(0.0488164 -1.80885e-07 -0.0128166)
(0.0636423 -1.63021e-07 -0.0123974)
(0.0780476 -1.4679e-07 -0.0118967)
(0.0919365 -1.32764e-07 -0.0113477)
(0.105247 -1.21197e-07 -0.0107725)
(0.11794 -1.12075e-07 -0.0101867)
(0.129995 -1.04738e-07 -0.00960092)
(0.141404 -9.84295e-08 -0.00902264)
(0.152167 -9.23454e-08 -0.00845711)
(0.162291 -8.5953e-08 -0.00790798)
(0.171789 -7.91036e-08 -0.00737772)
(0.180679 -7.1805e-08 -0.00686794)
(0.188978 -6.41485e-08 -0.00637962)
(0.196707 -5.62027e-08 -0.00591325)
(0.20389 -4.83672e-08 -0.00546897)
(0.210549 -4.13085e-08 -0.00504662)
(0.216707 -3.55138e-08 -0.00464586)
(0.222387 -3.10593e-08 -0.00426618)
(0.227613 -2.79487e-08 -0.00390694)
(0.232407 -2.62316e-08 -0.00356745)
(0.236791 -2.59842e-08 -0.00324694)
(0.240787 -2.69246e-08 -0.00294461)
(0.244417 -2.84399e-08 -0.00265964)
(0.247699 -2.9978e-08 -0.0023912)
(0.250652 -3.12801e-08 -0.00213849)
(0.253297 -3.24909e-08 -0.00190071)
(0.255649 -3.37777e-08 -0.00167706)
(0.257725 -3.50189e-08 -0.00146681)
(0.259543 -3.58565e-08 -0.00126923)
(0.261115 -3.60602e-08 -0.00108361)
(0.262458 -3.56395e-08 -0.000909313)
(0.263585 -3.50912e-08 -0.000745702)
(0.264508 -3.49599e-08 -0.000592185)
(0.26524 -3.55767e-08 -0.000448205)
(0.265792 -3.68807e-08 -0.00031324)
(0.266175 -3.85045e-08 -0.000186805)
(0.266401 -4.01492e-08 -6.84368e-05)
(0.266478 -4.16435e-08 4.25373e-05)
(0.266417 -4.30694e-08 0.000146391)
(0.266225 -4.45618e-08 0.000243255)
(0.265912 -4.62046e-08 0.000333644)
(0.265485 -4.77656e-08 0.000417971)
(0.264952 -4.88507e-08 0.000496585)
(0.26432 -4.90087e-08 0.000569795)
(0.263595 -4.79293e-08 0.000637893)
(0.262785 -4.55002e-08 0.000701153)
(0.261895 -4.19214e-08 0.000759839)
(0.260931 -3.75735e-08 0.000814198)
(0.259899 -3.29172e-08 0.000864469)
(0.258803 -2.83447e-08 0.000910879)
(0.257648 -2.41358e-08 0.000953642)
(0.256439 -2.04199e-08 0.000992967)
(0.25518 -1.72161e-08 0.00102905)
(0.253875 -1.44425e-08 0.00106208)
(0.252529 -1.19983e-08 0.00109225)
(0.251144 -9.83764e-09 0.00111971)
(0.249724 -7.9264e-09 0.00114465)
(0.248273 -6.28358e-09 0.00116721)
(0.246793 -4.96627e-09 0.00118756)
(0.245287 -4.06777e-09 0.00120583)
(0.243757 -3.63184e-09 0.00122216)
(0.242207 -3.7099e-09 0.00123669)
(0.240638 -4.31716e-09 0.00124953)
(0.239053 -5.37748e-09 0.00126082)
(0.237453 -6.8566e-09 0.00127066)
(0.23584 -8.55654e-09 0.00127916)
(0.234216 -1.03821e-08 0.00128644)
(0.232583 -1.21887e-08 0.00129258)
(0.230941 -1.38505e-08 0.00129768)
(0.229293 -1.52878e-08 0.00130184)
(0.22764 -1.64242e-08 0.00130513)
(0.225981 -1.72923e-08 0.00130765)
(0.22432 -1.789e-08 0.00130946)
(0.222655 -1.82974e-08 0.00131064)
(0.220989 -1.8602e-08 0.00131127)
(0.219321 -1.89047e-08 0.00131139)
(0.217653 -1.93044e-08 0.00131108)
(0.215985 -1.9866e-08 0.00131039)
(0.214317 -2.07112e-08 0.00130939)
(0.21265 -2.18838e-08 0.00130811)
(0.210984 -2.34296e-08 0.00130662)
(0.20932 -2.53561e-08 0.00130495)
(0.207657 -2.7648e-08 0.00130316)
(0.205996 -3.02788e-08 0.00130127)
(0.204337 -3.31799e-08 0.00129935)
(0.20268 -3.62448e-08 0.00129741)
(0.201025 -3.93591e-08 0.00129551)
(0.199372 -4.23744e-08 0.00129366)
(0.197721 -4.52108e-08 0.00129191)
(0.196071 -4.77236e-08 0.00129029)
(0.194423 -4.98366e-08 0.00128882)
(0.192777 -5.14432e-08 0.00128753)
(0.191131 -5.25245e-08 0.00128646)
(0.189487 -5.30309e-08 0.00128563)
(0.187843 -5.29738e-08 0.00128507)
(0.186199 -5.23798e-08 0.00128479)
(0.184555 -5.12948e-08 0.00128483)
(0.18291 -4.98061e-08 0.00128521)
(0.181265 -4.79825e-08 0.00128596)
(0.179618 -4.58695e-08 0.00128709)
(0.177969 -4.35623e-08 0.00128864)
(0.176318 -4.11447e-08 0.00129061)
(0.174663 -3.86738e-08 0.00129305)
(0.173005 -3.62067e-08 0.00129597)
(0.171343 -3.37853e-08 0.00129938)
(0.169676 -3.1501e-08 0.00130332)
(0.168004 -2.93613e-08 0.00130781)
(0.166325 -2.73663e-08 0.00131287)
(0.16464 -2.55313e-08 0.00131852)
(0.162947 -2.37875e-08 0.00132478)
(0.161245 -2.20553e-08 0.00133168)
(0.159535 -2.02697e-08 0.00133924)
(0.157814 -1.82823e-08 0.00134748)
(0.156083 -1.59903e-08 0.00135642)
(0.154339 -1.32948e-08 0.0013661)
(0.152584 -1.01044e-08 0.00137652)
(0.150814 -6.41517e-09 0.00138772)
(0.149031 -2.27671e-09 0.00139971)
(0.147231 2.19679e-09 0.00141252)
(0.145416 6.74643e-09 0.00142616)
(0.143583 1.11171e-08 0.00144067)
(0.141731 1.50119e-08 0.00145606)
(0.13986 1.81605e-08 0.00147235)
(0.137968 2.04525e-08 0.00148956)
(0.136054 2.18154e-08 0.00150771)
(0.134118 2.24779e-08 0.00152682)
(0.132157 2.27901e-08 0.00154691)
(0.130171 2.32089e-08 0.00156799)
(0.128159 2.41264e-08 0.00159009)
(0.126119 2.59539e-08 0.00161322)
(0.124051 2.86989e-08 0.00163739)
(0.121952 3.20988e-08 0.00166262)
(0.119823 3.55138e-08 0.00168892)
(0.117661 3.81599e-08 0.0017163)
(0.115465 3.92297e-08 0.00174476)
(0.113235 3.82094e-08 0.00177431)
(0.110968 3.51445e-08 0.00180495)
(0.108664 3.06444e-08 0.00183667)
(0.106322 2.5813e-08 0.00186947)
(0.10394 2.18269e-08 0.00190334)
(0.101517 1.9611e-08 0.00193827)
(0.0990529 1.9356e-08 0.00197424)
(0.0965456 2.04372e-08 0.00201124)
(0.0939943 2.16136e-08 0.00204923)
(0.0913981 2.16213e-08 0.00208817)
(0.0887561 1.97024e-08 0.00212803)
(0.0860675 1.61541e-08 0.00216874)
(0.0833316 1.21184e-08 0.00221025)
(0.0805476 9.14116e-09 0.00225248)
(0.0777151 8.04849e-09 0.00229535)
(0.0748337 8.44063e-09 0.00233876)
(0.0719032 8.70333e-09 0.00238261)
(0.0689235 6.94058e-09 0.00242676)
(0.0658947 2.28815e-09 0.00247106)
(0.0628172 -4.14988e-09 0.00251534)
(0.0596914 -9.65894e-09 0.0025594)
(0.0565184 -1.17187e-08 0.00260301)
(0.0532992 -9.70844e-09 0.00264592)
(0.0500355 -6.12203e-09 0.00268783)
(0.0467291 -4.75904e-09 0.0027284)
(0.0433824 -8.25027e-09 0.00276723)
(0.0399983 -1.54878e-08 0.00280384)
(0.0365804 -2.19639e-08 0.00283771)
(0.033133 -2.35325e-08 0.00286822)
(0.0296609 -2.00337e-08 0.00289465)
(0.0261701 -1.60284e-08 0.00291618)
(0.0226676 -1.66833e-08 0.0029318)
(0.0191615 -2.24322e-08 0.00294036)
(0.0156614 -2.75415e-08 0.00294046)
(0.0121787 -2.55541e-08 0.00293048)
(0.00872681 -1.64929e-08 0.00290846)
(0.00532014 -7.62208e-09 0.00287188)
(0.00198433 -5.35297e-09 0.00281751)
(-0.00127685 -7.43933e-09 0.0027339)
(-0.00440886 -6.06111e-09 0.00261663)
(-0.00739611 -4.7971e-10 0.00246847)
(-0.0101971 1.59905e-10 0.00228638)
(-0.0127678 -9.8988e-09 0.00206284)
(-0.0150561 -2.02316e-08 0.00178715)
(-0.0169969 -1.64625e-08 0.00144849)
(-0.0185132 -4.50776e-09 0.00103243)
(-0.0195105 -3.86815e-09 0.000521134)
(-0.0198797 -1.03328e-08 -0.000106257)
(-0.0194814 2.28434e-09 -0.000865631)
(-0.0181829 2.76861e-08 -0.00176712)
(-0.0158449 4.36911e-08 -0.00279915)
(-0.0123491 1.01022e-07 -0.00386556)
(-0.00802127 1.60496e-07 -0.00462945)
(-0.00244703 9.32556e-08 -0.00379785)
(-8.39772e-05 8.75165e-08 -0.000518819)
(-0.0157388 -1.15758e-06 0.0171961)
(-0.0296136 -1.96264e-07 0.012954)
(-0.0392339 -1.20754e-07 0.00462881)
(-0.0392109 -1.404e-07 -0.00233884)
(-0.0332248 -1.77758e-07 -0.00706688)
(-0.0231428 -2.09557e-07 -0.0100726)
(-0.0105833 -2.29134e-07 -0.0119229)
(0.00368145 -2.31107e-07 -0.0128936)
(0.0185573 -2.17538e-07 -0.0131828)
(0.0337115 -1.99111e-07 -0.0131044)
(0.0488168 -1.80882e-07 -0.0128166)
(0.0636426 -1.63019e-07 -0.0123974)
(0.0780479 -1.46788e-07 -0.0118968)
(0.0919367 -1.32763e-07 -0.0113477)
(0.105247 -1.21196e-07 -0.0107726)
(0.11794 -1.12074e-07 -0.0101868)
(0.129995 -1.04737e-07 -0.00960097)
(0.141404 -9.84288e-08 -0.00902267)
(0.152167 -9.23448e-08 -0.00845713)
(0.162291 -8.59524e-08 -0.00790799)
(0.171789 -7.91031e-08 -0.00737772)
(0.180678 -7.18046e-08 -0.00686794)
(0.188977 -6.41482e-08 -0.00637961)
(0.196707 -5.62024e-08 -0.00591324)
(0.20389 -4.8367e-08 -0.00546896)
(0.210549 -4.13083e-08 -0.00504661)
(0.216706 -3.55136e-08 -0.00464585)
(0.222387 -3.10591e-08 -0.00426617)
(0.227612 -2.79486e-08 -0.00390694)
(0.232406 -2.62315e-08 -0.00356745)
(0.236791 -2.59841e-08 -0.00324694)
(0.240787 -2.69245e-08 -0.0029446)
(0.244416 -2.84398e-08 -0.00265962)
(0.247698 -2.9978e-08 -0.00239119)
(0.250652 -3.12801e-08 -0.00213847)
(0.253296 -3.24908e-08 -0.00190068)
(0.255648 -3.37776e-08 -0.00167704)
(0.257725 -3.50188e-08 -0.00146678)
(0.259542 -3.58564e-08 -0.00126919)
(0.261115 -3.60601e-08 -0.00108358)
(0.262458 -3.56394e-08 -0.000909283)
(0.263585 -3.50912e-08 -0.000745672)
(0.264508 -3.49598e-08 -0.000592156)
(0.265239 -3.55766e-08 -0.000448178)
(0.265792 -3.68806e-08 -0.000313213)
(0.266175 -3.85044e-08 -0.000186779)
(0.266401 -4.01491e-08 -6.84099e-05)
(0.266478 -4.16435e-08 4.2565e-05)
(0.266416 -4.30693e-08 0.00014642)
(0.266225 -4.45617e-08 0.000243285)
(0.265911 -4.62045e-08 0.000333674)
(0.265485 -4.77655e-08 0.000418002)
(0.264952 -4.88506e-08 0.000496615)
(0.26432 -4.90086e-08 0.000569824)
(0.263595 -4.79292e-08 0.000637921)
(0.262785 -4.55002e-08 0.000701179)
(0.261895 -4.19213e-08 0.000759862)
(0.260931 -3.75734e-08 0.000814218)
(0.259899 -3.29172e-08 0.000864486)
(0.258803 -2.83447e-08 0.000910892)
(0.257648 -2.41357e-08 0.000953652)
(0.256439 -2.04199e-08 0.000992975)
(0.25518 -1.72161e-08 0.00102906)
(0.253875 -1.44425e-08 0.00106209)
(0.252529 -1.19982e-08 0.00109226)
(0.251144 -9.83762e-09 0.00111972)
(0.249724 -7.92639e-09 0.00114466)
(0.248273 -6.28357e-09 0.00116723)
(0.246793 -4.96627e-09 0.00118758)
(0.245287 -4.06776e-09 0.00120585)
(0.243757 -3.63184e-09 0.00122218)
(0.242207 -3.70989e-09 0.00123671)
(0.240638 -4.31715e-09 0.00124956)
(0.239053 -5.37748e-09 0.00126084)
(0.237453 -6.85659e-09 0.00127068)
(0.23584 -8.55653e-09 0.00127919)
(0.234216 -1.03821e-08 0.00128646)
(0.232583 -1.21886e-08 0.0012926)
(0.230941 -1.38505e-08 0.00129771)
(0.229293 -1.52877e-08 0.00130186)
(0.22764 -1.64242e-08 0.00130516)
(0.225981 -1.72923e-08 0.00130767)
(0.224319 -1.789e-08 0.00130948)
(0.222655 -1.82974e-08 0.00131066)
(0.220989 -1.8602e-08 0.00131127)
(0.219321 -1.89046e-08 0.00131139)
(0.217653 -1.93044e-08 0.00131108)
(0.215985 -1.9866e-08 0.00131039)
(0.214317 -2.07112e-08 0.00130938)
(0.21265 -2.18838e-08 0.0013081)
(0.210984 -2.34296e-08 0.0013066)
(0.20932 -2.5356e-08 0.00130493)
(0.207657 -2.7648e-08 0.00130314)
(0.205996 -3.02788e-08 0.00130126)
(0.204337 -3.31799e-08 0.00129933)
(0.20268 -3.62447e-08 0.0012974)
(0.201025 -3.9359e-08 0.0012955)
(0.199372 -4.23743e-08 0.00129366)
(0.197721 -4.52107e-08 0.00129191)
(0.196071 -4.77235e-08 0.00129029)
(0.194423 -4.98365e-08 0.00128882)
(0.192777 -5.14432e-08 0.00128754)
(0.191131 -5.25244e-08 0.00128647)
(0.189487 -5.30308e-08 0.00128565)
(0.187843 -5.29737e-08 0.00128508)
(0.186199 -5.23798e-08 0.00128481)
(0.184555 -5.12947e-08 0.00128485)
(0.18291 -4.98061e-08 0.00128523)
(0.181265 -4.79824e-08 0.00128597)
(0.179618 -4.58694e-08 0.00128711)
(0.177969 -4.35622e-08 0.00128865)
(0.176318 -4.11446e-08 0.00129063)
(0.174663 -3.86738e-08 0.00129306)
(0.173005 -3.62067e-08 0.00129598)
(0.171343 -3.37853e-08 0.0012994)
(0.169676 -3.15009e-08 0.00130334)
(0.168004 -2.93613e-08 0.00130783)
(0.166325 -2.73663e-08 0.00131289)
(0.16464 -2.55312e-08 0.00131854)
(0.162947 -2.37875e-08 0.0013248)
(0.161245 -2.20552e-08 0.0013317)
(0.159535 -2.02696e-08 0.00133927)
(0.157814 -1.82823e-08 0.00134751)
(0.156083 -1.59903e-08 0.00135646)
(0.154339 -1.32948e-08 0.00136613)
(0.152584 -1.01044e-08 0.00137656)
(0.150814 -6.41516e-09 0.00138775)
(0.149031 -2.2767e-09 0.00139974)
(0.147231 2.19678e-09 0.00141255)
(0.145416 6.74642e-09 0.0014262)
(0.143583 1.11171e-08 0.0014407)
(0.141731 1.50119e-08 0.00145609)
(0.13986 1.81605e-08 0.00147237)
(0.137968 2.04524e-08 0.00148958)
(0.136054 2.18154e-08 0.00150773)
(0.134118 2.24779e-08 0.00152684)
(0.132157 2.27901e-08 0.00154693)
(0.130171 2.32088e-08 0.00156801)
(0.128159 2.41264e-08 0.00159011)
(0.126119 2.59539e-08 0.00161324)
(0.124051 2.86989e-08 0.00163741)
(0.121952 3.20987e-08 0.00166265)
(0.119823 3.55138e-08 0.00168895)
(0.117661 3.81598e-08 0.00171633)
(0.115465 3.92296e-08 0.00174479)
(0.113235 3.82093e-08 0.00177434)
(0.110968 3.51445e-08 0.00180497)
(0.108664 3.06444e-08 0.00183669)
(0.106322 2.5813e-08 0.00186949)
(0.10394 2.18268e-08 0.00190336)
(0.101517 1.9611e-08 0.00193829)
(0.099053 1.93559e-08 0.00197426)
(0.0965456 2.04372e-08 0.00201126)
(0.0939943 2.16136e-08 0.00204924)
(0.0913982 2.16212e-08 0.00208819)
(0.0887562 1.97024e-08 0.00212804)
(0.0860676 1.61541e-08 0.00216875)
(0.0833316 1.21184e-08 0.00221025)
(0.0805476 9.14115e-09 0.00225248)
(0.0777151 8.04847e-09 0.00229534)
(0.0748338 8.44062e-09 0.00233876)
(0.0719033 8.70331e-09 0.00238261)
(0.0689236 6.94057e-09 0.00242676)
(0.0658948 2.28814e-09 0.00247106)
(0.0628172 -4.14987e-09 0.00251533)
(0.0596914 -9.65892e-09 0.00255938)
(0.0565184 -1.17186e-08 0.00260299)
(0.0532993 -9.70842e-09 0.00264591)
(0.0500355 -6.12201e-09 0.00268782)
(0.0467291 -4.75903e-09 0.00272839)
(0.0433824 -8.25025e-09 0.00276722)
(0.0399984 -1.54878e-08 0.00280382)
(0.0365805 -2.19639e-08 0.00283769)
(0.033133 -2.35324e-08 0.0028682)
(0.0296609 -2.00336e-08 0.00289464)
(0.0261701 -1.60284e-08 0.00291616)
(0.0226676 -1.66832e-08 0.00293178)
(0.0191615 -2.24322e-08 0.00294033)
(0.0156615 -2.75414e-08 0.00294042)
(0.0121787 -2.55541e-08 0.00293045)
(0.00872688 -1.64929e-08 0.00290844)
(0.00532021 -7.62206e-09 0.00287186)
(0.00198439 -5.35295e-09 0.00281749)
(-0.0012768 -7.43931e-09 0.00273387)
(-0.0044088 -6.0611e-09 0.00261661)
(-0.00739605 -4.79709e-10 0.00246846)
(-0.0101971 1.59904e-10 0.00228635)
(-0.0127678 -9.89877e-09 0.00206279)
(-0.0150561 -2.02316e-08 0.0017871)
(-0.0169969 -1.64624e-08 0.00144847)
(-0.0185131 -4.50775e-09 0.00103243)
(-0.0195104 -3.86814e-09 0.000521102)
(-0.0198797 -1.03328e-08 -0.000106313)
(-0.0194814 2.28434e-09 -0.000865712)
(-0.0181828 2.76862e-08 -0.00176727)
(-0.0158449 4.36923e-08 -0.00279934)
(-0.0123491 1.01036e-07 -0.00386563)
(-0.00802113 1.6056e-07 -0.00462937)
(-0.00244699 9.32072e-08 -0.00379818)
(-8.39127e-05 8.74637e-08 -0.000518928)
(-0.0104659 -2.49558e-07 0.0334405)
(-0.0141292 2.30412e-08 0.0187297)
(-0.0125 2.85056e-08 0.00500924)
(-0.00768184 2.2584e-08 -0.00617677)
(-0.000296223 1.57187e-08 -0.0141631)
(0.00910245 1.04014e-08 -0.0194828)
(0.0199409 7.51423e-09 -0.0228389)
(0.0317802 6.03587e-09 -0.0247652)
(0.0442194 5.20004e-09 -0.0256652)
(0.0569686 4.86966e-09 -0.0258883)
(0.0697844 4.71919e-09 -0.025654)
(0.0824868 4.60395e-09 -0.0251075)
(0.0949435 4.31454e-09 -0.0243486)
(0.107058 3.79194e-09 -0.0234471)
(0.118761 3.0447e-09 -0.0224523)
(0.130004 2.12329e-09 -0.0214002)
(0.140756 1.23329e-09 -0.0203171)
(0.150995 5.72691e-10 -0.0192226)
(0.160712 2.20486e-10 -0.0181313)
(0.169904 1.43363e-10 -0.0170539)
(0.178573 3.48936e-10 -0.0159986)
(0.186728 8.353e-10 -0.0149713)
(0.194377 1.55391e-09 -0.0139763)
(0.201536 2.34772e-09 -0.0130166)
(0.208217 3.06538e-09 -0.0120941)
(0.214439 3.606e-09 -0.0112101)
(0.220218 3.94102e-09 -0.0103651)
(0.225571 4.0676e-09 -0.00955908)
(0.230517 3.95051e-09 -0.00879171)
(0.235075 3.57548e-09 -0.00806232)
(0.239261 3.01388e-09 -0.00737001)
(0.243094 2.43564e-09 -0.0067137)
(0.246591 2.00635e-09 -0.00609219)
(0.249768 1.79265e-09 -0.0055042)
(0.252643 1.75029e-09 -0.00494839)
(0.255231 1.81738e-09 -0.00442339)
(0.257547 1.98013e-09 -0.00392783)
(0.259606 2.30374e-09 -0.00346034)
(0.261421 2.85531e-09 -0.0030196)
(0.263006 3.62009e-09 -0.0026043)
(0.264374 4.47863e-09 -0.00221317)
(0.265537 5.27387e-09 -0.001845)
(0.266507 5.89064e-09 -0.00149862)
(0.267294 6.32847e-09 -0.00117292)
(0.267909 6.65921e-09 -0.000866841)
(0.268363 6.98473e-09 -0.000579367)
(0.268664 7.35355e-09 -0.000309543)
(0.268822 7.75759e-09 -5.64576e-05)
(0.268845 8.11832e-09 0.000180721)
(0.268742 8.39291e-09 0.000402822)
(0.26852 8.61325e-09 0.00061067)
(0.268187 8.8393e-09 0.000805012)
(0.26775 9.17052e-09 0.000986556)
(0.267215 9.66831e-09 0.00115597)
(0.266589 1.03408e-08 0.00131388)
(0.265878 1.11303e-08 0.0014609)
(0.265087 1.19241e-08 0.00159759)
(0.264222 1.26046e-08 0.00172452)
(0.263288 1.30624e-08 0.0018422)
(0.262291 1.32442e-08 0.00195114)
(0.261233 1.31348e-08 0.00205182)
(0.260121 1.27507e-08 0.00214469)
(0.258957 1.21501e-08 0.0022302)
(0.257746 1.13863e-08 0.00230877)
(0.256492 1.05196e-08 0.0023808)
(0.255198 9.59113e-09 0.00244668)
(0.253867 8.63407e-09 0.00250678)
(0.252503 7.67512e-09 0.00256146)
(0.251108 6.73329e-09 0.00261105)
(0.249684 5.8205e-09 0.00265588)
(0.248236 4.95006e-09 0.00269627)
(0.246764 4.13721e-09 0.0027325)
(0.245271 3.40621e-09 0.00276487)
(0.243759 2.77325e-09 0.00279364)
(0.24223 2.2626e-09 0.00281907)
(0.240686 1.89757e-09 0.00284141)
(0.239129 1.68722e-09 0.00286091)
(0.23756 1.64295e-09 0.00287777)
(0.23598 1.75384e-09 0.00289221)
(0.23439 2.01558e-09 0.00290445)
(0.232793 2.38821e-09 0.00291467)
(0.231189 2.8465e-09 0.00292305)
(0.229579 3.34429e-09 0.00292977)
(0.227964 3.85018e-09 0.002935)
(0.226344 4.31513e-09 0.00293888)
(0.224721 4.71346e-09 0.00294158)
(0.223095 5.0147e-09 0.00294324)
(0.221467 5.20554e-09 0.00294397)
(0.219837 5.27787e-09 0.00294392)
(0.218205 5.23884e-09 0.00294321)
(0.216573 5.09464e-09 0.00294193)
(0.21494 4.87715e-09 0.00294022)
(0.213306 4.61301e-09 0.00293815)
(0.211672 4.33699e-09 0.00293584)
(0.210038 4.09142e-09 0.00293337)
(0.208404 3.90771e-09 0.00293083)
(0.20677 3.82395e-09 0.00292831)
(0.205136 3.86345e-09 0.00292587)
(0.203502 4.05143e-09 0.00292359)
(0.201869 4.38694e-09 0.00292155)
(0.200234 4.86998e-09 0.00291981)
(0.1986 5.48913e-09 0.00291844)
(0.196965 6.22202e-09 0.0029175)
(0.195329 7.03581e-09 0.00291705)
(0.193692 7.90005e-09 0.00291715)
(0.192054 8.78285e-09 0.00291785)
(0.190414 9.63805e-09 0.00291922)
(0.188772 1.04395e-08 0.00292131)
(0.187127 1.11581e-08 0.00292417)
(0.18548 1.17744e-08 0.00292785)
(0.18383 1.22703e-08 0.00293241)
(0.182175 1.26419e-08 0.0029379)
(0.180517 1.28775e-08 0.00294436)
(0.178853 1.29851e-08 0.00295186)
(0.177184 1.29684e-08 0.00296043)
(0.175509 1.28366e-08 0.00297012)
(0.173828 1.26058e-08 0.00298099)
(0.172139 1.2296e-08 0.00299308)
(0.170442 1.19233e-08 0.00300645)
(0.168737 1.15197e-08 0.00302112)
(0.167022 1.11048e-08 0.00303716)
(0.165298 1.0704e-08 0.00305461)
(0.163562 1.03414e-08 0.00307352)
(0.161815 1.00254e-08 0.00309393)
(0.160055 9.76556e-09 0.00311588)
(0.158283 9.54664e-09 0.00313942)
(0.156495 9.3658e-09 0.0031646)
(0.154693 9.18448e-09 0.00319146)
(0.152875 8.96794e-09 0.00322004)
(0.15104 8.66194e-09 0.00325038)
(0.149187 8.22696e-09 0.00328253)
(0.147316 7.61399e-09 0.00331651)
(0.145424 6.80876e-09 0.00335238)
(0.143512 5.82888e-09 0.00339016)
(0.141578 4.71336e-09 0.00342989)
(0.139621 3.53216e-09 0.00347161)
(0.13764 2.38523e-09 0.00351533)
(0.135634 1.36775e-09 0.00356109)
(0.133602 5.45389e-10 0.00360891)
(0.131543 -5.5202e-11 0.00365881)
(0.129455 -4.6448e-10 0.00371081)
(0.127339 -7.91902e-10 0.00376492)
(0.125192 -1.185e-09 0.00382113)
(0.123013 -1.79606e-09 0.00387947)
(0.120802 -2.71931e-09 0.00393991)
(0.118558 -3.96618e-09 0.00400245)
(0.116278 -5.41007e-09 0.00406707)
(0.113963 -6.82541e-09 0.00413374)
(0.111612 -7.95521e-09 0.00420243)
(0.109223 -8.58055e-09 0.00427309)
(0.106795 -8.6329e-09 0.00434567)
(0.104327 -8.24075e-09 0.00442009)
(0.10182 -7.67728e-09 0.00449628)
(0.0992711 -7.2661e-09 0.00457414)
(0.0966806 -7.24802e-09 0.00465355)
(0.0940477 -7.61827e-09 0.0047344)
(0.0913718 -8.14748e-09 0.00481652)
(0.0886525 -8.46919e-09 0.00489975)
(0.0858895 -8.2931e-09 0.00498389)
(0.0830825 -7.61256e-09 0.00506872)
(0.0802315 -6.75308e-09 0.00515398)
(0.0773366 -6.19913e-09 0.00523939)
(0.074398 -6.29431e-09 0.00532463)
(0.0714163 -6.9463e-09 0.00540932)
(0.0683921 -7.58401e-09 0.00549306)
(0.0653265 -7.51262e-09 0.00557537)
(0.0622206 -6.38854e-09 0.00565574)
(0.059076 -4.60294e-09 0.00573356)
(0.0558946 -3.09528e-09 0.00580816)
(0.0526787 -2.70314e-09 0.00587877)
(0.0494311 -3.44174e-09 0.00594453)
(0.0461549 -4.35738e-09 0.00600444)
(0.0428539 -4.22317e-09 0.00605738)
(0.0395327 -2.65935e-09 0.00610205)
(0.0361963 -6.12012e-10 0.00613697)
(0.0328506 4.04519e-10 0.00616043)
(0.0295026 -1.81795e-10 0.00617046)
(0.0261602 -1.20784e-09 0.00616476)
(0.0228325 -7.70964e-10 0.00614065)
(0.01953 1.67423e-09 0.00609498)
(0.016265 4.49539e-09 0.00602399)
(0.0130512 5.66612e-09 0.00592294)
(0.00990545 5.25874e-09 0.00578665)
(0.006845 5.34726e-09 0.00560568)
(0.00389223 6.83208e-09 0.00537226)
(0.00107035 7.37366e-09 0.00508075)
(-0.00159355 4.51728e-09 0.00472055)
(-0.00406322 4.69242e-10 0.00427972)
(-0.00630457 1.71326e-10 0.00374291)
(-0.00827592 3.72538e-09 0.00309188)
(-0.00993167 5.5776e-09 0.00230464)
(-0.0112217 3.95762e-09 0.00135658)
(-0.0120937 2.75073e-09 0.000222739)
(-0.0124964 -5.90117e-11 -0.00111255)
(-0.01238 -9.1906e-09 -0.00264603)
(-0.0117142 -1.72253e-08 -0.0043293)
(-0.0104808 -1.85772e-08 -0.00598932)
(-0.00872195 -4.50376e-08 -0.0072089)
(-0.00598546 -3.26858e-08 -0.00678958)
(-0.00380883 1.66158e-08 -0.00327265)
(-0.0104657 -2.49551e-07 0.0334404)
(-0.0141289 2.30403e-08 0.0187295)
(-0.0124997 2.85044e-08 0.005009)
(-0.00768154 2.25831e-08 -0.00617698)
(-0.000295924 1.57182e-08 -0.0141633)
(0.00910272 1.04011e-08 -0.019483)
(0.0199411 7.51402e-09 -0.022839)
(0.0317804 6.03572e-09 -0.0247653)
(0.0442195 5.19992e-09 -0.0256653)
(0.0569687 4.86955e-09 -0.0258884)
(0.0697844 4.7191e-09 -0.0256541)
(0.0824868 4.60387e-09 -0.0251075)
(0.0949435 4.31447e-09 -0.0243487)
(0.107058 3.79187e-09 -0.0234471)
(0.118761 3.04466e-09 -0.0224524)
(0.130004 2.12326e-09 -0.0214002)
(0.140755 1.23328e-09 -0.0203172)
(0.150995 5.72684e-10 -0.0192227)
(0.160712 2.20484e-10 -0.0181313)
(0.169904 1.43362e-10 -0.0170539)
(0.178573 3.48932e-10 -0.0159986)
(0.186727 8.35291e-10 -0.0149713)
(0.194377 1.5539e-09 -0.0139763)
(0.201535 2.3477e-09 -0.0130166)
(0.208217 3.06535e-09 -0.0120941)
(0.214439 3.60597e-09 -0.0112101)
(0.220217 3.94099e-09 -0.0103651)
(0.225571 4.06757e-09 -0.00955908)
(0.230517 3.95048e-09 -0.00879171)
(0.235075 3.57545e-09 -0.00806232)
(0.239261 3.01386e-09 -0.00737001)
(0.243094 2.43562e-09 -0.0067137)
(0.246591 2.00634e-09 -0.00609219)
(0.249768 1.79264e-09 -0.0055042)
(0.252643 1.75028e-09 -0.00494839)
(0.255231 1.81737e-09 -0.00442339)
(0.257547 1.98012e-09 -0.00392782)
(0.259605 2.30373e-09 -0.00346034)
(0.261421 2.8553e-09 -0.00301959)
(0.263006 3.62008e-09 -0.00260429)
(0.264374 4.47861e-09 -0.00221316)
(0.265537 5.27384e-09 -0.00184499)
(0.266506 5.89061e-09 -0.00149862)
(0.267294 6.32844e-09 -0.00117292)
(0.267909 6.65918e-09 -0.000866839)
(0.268363 6.9847e-09 -0.000579366)
(0.268664 7.35352e-09 -0.000309542)
(0.268822 7.75756e-09 -5.64573e-05)
(0.268845 8.11829e-09 0.00018072)
(0.268742 8.39288e-09 0.000402821)
(0.26852 8.61321e-09 0.000610669)
(0.268187 8.83926e-09 0.000805011)
(0.26775 9.17049e-09 0.000986553)
(0.267215 9.66828e-09 0.00115596)
(0.266589 1.03407e-08 0.00131388)
(0.265878 1.11302e-08 0.00146089)
(0.265087 1.19241e-08 0.00159759)
(0.264222 1.26046e-08 0.00172451)
(0.263288 1.30624e-08 0.00184219)
(0.26229 1.32442e-08 0.00195113)
(0.261233 1.31347e-08 0.00205181)
(0.260121 1.27507e-08 0.00214468)
(0.258957 1.21501e-08 0.00223019)
(0.257746 1.13862e-08 0.00230876)
(0.256492 1.05196e-08 0.00238079)
(0.255198 9.5911e-09 0.00244667)
(0.253867 8.63405e-09 0.00250678)
(0.252503 7.67509e-09 0.00256145)
(0.251108 6.73327e-09 0.00261105)
(0.249684 5.82048e-09 0.00265588)
(0.248236 4.95004e-09 0.00269627)
(0.246764 4.13719e-09 0.0027325)
(0.245271 3.4062e-09 0.00276487)
(0.243759 2.77324e-09 0.00279364)
(0.24223 2.26259e-09 0.00281907)
(0.240686 1.89757e-09 0.00284142)
(0.239129 1.68721e-09 0.00286091)
(0.237559 1.64295e-09 0.00287777)
(0.23598 1.75383e-09 0.00289222)
(0.23439 2.01557e-09 0.00290445)
(0.232793 2.3882e-09 0.00291467)
(0.231189 2.84649e-09 0.00292305)
(0.229579 3.34428e-09 0.00292977)
(0.227964 3.85017e-09 0.00293499)
(0.226344 4.31512e-09 0.00293888)
(0.224721 4.71345e-09 0.00294158)
(0.223095 5.01469e-09 0.00294323)
(0.221467 5.20552e-09 0.00294397)
(0.219837 5.27786e-09 0.00294391)
(0.218205 5.23883e-09 0.0029432)
(0.216573 5.09462e-09 0.00294192)
(0.21494 4.87713e-09 0.00294021)
(0.213306 4.613e-09 0.00293814)
(0.211672 4.33698e-09 0.00293583)
(0.210038 4.09141e-09 0.00293337)
(0.208404 3.9077e-09 0.00293083)
(0.20677 3.82394e-09 0.0029283)
(0.205136 3.86344e-09 0.00292586)
(0.203502 4.05142e-09 0.00292359)
(0.201868 4.38693e-09 0.00292155)
(0.200234 4.86996e-09 0.00291981)
(0.1986 5.48911e-09 0.00291844)
(0.196965 6.222e-09 0.0029175)
(0.195329 7.03579e-09 0.00291705)
(0.193692 7.90003e-09 0.00291715)
(0.192054 8.78283e-09 0.00291785)
(0.190414 9.63802e-09 0.00291922)
(0.188772 1.04394e-08 0.00292131)
(0.187127 1.11581e-08 0.00292417)
(0.18548 1.17743e-08 0.00292785)
(0.18383 1.22702e-08 0.00293241)
(0.182175 1.26419e-08 0.00293789)
(0.180516 1.28775e-08 0.00294436)
(0.178853 1.2985e-08 0.00295185)
(0.177184 1.29684e-08 0.00296042)
(0.175509 1.28365e-08 0.00297012)
(0.173828 1.26057e-08 0.00298099)
(0.172139 1.22959e-08 0.00299308)
(0.170442 1.19233e-08 0.00300644)
(0.168737 1.15197e-08 0.00302112)
(0.167022 1.11047e-08 0.00303717)
(0.165298 1.0704e-08 0.00305462)
(0.163562 1.03414e-08 0.00307352)
(0.161815 1.00254e-08 0.00309393)
(0.160055 9.76554e-09 0.00311588)
(0.158282 9.54662e-09 0.00313943)
(0.156495 9.36578e-09 0.00316461)
(0.154693 9.18446e-09 0.00319147)
(0.152875 8.96792e-09 0.00322004)
(0.15104 8.66191e-09 0.00325038)
(0.149187 8.22694e-09 0.00328253)
(0.147316 7.61398e-09 0.00331651)
(0.145424 6.80875e-09 0.00335238)
(0.143512 5.82886e-09 0.00339016)
(0.141578 4.71335e-09 0.00342989)
(0.139621 3.53216e-09 0.00347161)
(0.13764 2.38523e-09 0.00351533)
(0.135634 1.36775e-09 0.00356109)
(0.133602 5.45388e-10 0.00360891)
(0.131543 -5.52019e-11 0.00365881)
(0.129455 -4.64479e-10 0.00371081)
(0.127339 -7.919e-10 0.00376492)
(0.125192 -1.185e-09 0.00382114)
(0.123013 -1.79606e-09 0.00387947)
(0.120802 -2.71931e-09 0.00393991)
(0.118558 -3.96617e-09 0.00400246)
(0.116278 -5.41006e-09 0.00406708)
(0.113963 -6.8254e-09 0.00413375)
(0.111612 -7.95519e-09 0.00420243)
(0.109223 -8.58053e-09 0.00427309)
(0.106795 -8.63288e-09 0.00434567)
(0.104327 -8.24073e-09 0.00442009)
(0.10182 -7.67726e-09 0.00449628)
(0.0992711 -7.26608e-09 0.00457413)
(0.0966806 -7.248e-09 0.00465355)
(0.0940477 -7.61825e-09 0.0047344)
(0.0913718 -8.14746e-09 0.00481652)
(0.0886525 -8.46917e-09 0.00489975)
(0.0858895 -8.29308e-09 0.00498389)
(0.0830825 -7.61254e-09 0.00506871)
(0.0802315 -6.75306e-09 0.00515397)
(0.0773366 -6.19911e-09 0.00523939)
(0.074398 -6.29429e-09 0.00532462)
(0.0714163 -6.94628e-09 0.00540931)
(0.0683922 -7.58399e-09 0.00549305)
(0.0653265 -7.5126e-09 0.00557536)
(0.0622206 -6.38852e-09 0.00565573)
(0.059076 -4.60293e-09 0.00573355)
(0.0558946 -3.09527e-09 0.00580815)
(0.0526787 -2.70313e-09 0.00587876)
(0.0494311 -3.44173e-09 0.00594452)
(0.0461549 -4.35736e-09 0.00600443)
(0.0428539 -4.22316e-09 0.00605737)
(0.0395327 -2.65934e-09 0.00610204)
(0.0361963 -6.12011e-10 0.00613696)
(0.0328506 4.04517e-10 0.00616042)
(0.0295027 -1.81795e-10 0.00617045)
(0.0261602 -1.20784e-09 0.00616475)
(0.0228325 -7.70962e-10 0.00614064)
(0.01953 1.67423e-09 0.00609497)
(0.016265 4.49538e-09 0.00602398)
(0.0130512 5.6661e-09 0.00592293)
(0.00990547 5.25872e-09 0.00578664)
(0.00684502 5.34724e-09 0.00560568)
(0.00389225 6.83206e-09 0.00537225)
(0.00107036 7.37363e-09 0.00508075)
(-0.00159354 4.51727e-09 0.00472054)
(-0.00406322 4.6924e-10 0.00427971)
(-0.00630455 1.71325e-10 0.0037429)
(-0.0082759 3.72537e-09 0.00309188)
(-0.00993165 5.57758e-09 0.00230463)
(-0.0112217 3.95761e-09 0.00135658)
(-0.0120937 2.75072e-09 0.000222741)
(-0.0124964 -5.90116e-11 -0.00111255)
(-0.01238 -9.19069e-09 -0.00264605)
(-0.0117143 -1.72263e-08 -0.00432931)
(-0.0104809 -1.85814e-08 -0.00598933)
(-0.0087219 -4.50567e-08 -0.00720899)
(-0.00598528 -3.26843e-08 -0.00679001)
(-0.00380882 1.66135e-08 -0.00327281)
(-0.00240005 -1.36704e-07 0.0419658)
(-0.000684065 2.4537e-08 0.0161378)
(0.00524272 1.6561e-08 -0.00162622)
(0.0123892 1.49095e-08 -0.0146259)
(0.0205488 1.42637e-08 -0.0239889)
(0.029587 1.34458e-08 -0.0304711)
(0.0393876 1.27379e-08 -0.0347366)
(0.0497883 1.20786e-08 -0.0373274)
(0.060617 1.13818e-08 -0.0386712)
(0.0717044 1.07925e-08 -0.0391127)
(0.0828871 1.02085e-08 -0.0389036)
(0.0940287 9.52792e-09 -0.0382272)
(0.105018 8.74072e-09 -0.0372173)
(0.115769 7.85738e-09 -0.0359724)
(0.126213 6.83936e-09 -0.0345657)
(0.136301 5.78898e-09 -0.0330521)
(0.145996 4.83475e-09 -0.0314733)
(0.155273 3.96951e-09 -0.0298608)
(0.164115 3.19708e-09 -0.0282387)
(0.172514 2.63453e-09 -0.0266256)
(0.180466 2.36895e-09 -0.0250356)
(0.187973 2.30993e-09 -0.0234792)
(0.19504 2.3042e-09 -0.0219644)
(0.201675 2.31704e-09 -0.0204971)
(0.207888 2.3965e-09 -0.0190813)
(0.21369 2.53356e-09 -0.0177198)
(0.219096 2.63253e-09 -0.0164141)
(0.224119 2.60302e-09 -0.0151651)
(0.228774 2.43073e-09 -0.0139728)
(0.233074 2.1811e-09 -0.0128366)
(0.237036 1.92172e-09 -0.0117556)
(0.240675 1.68423e-09 -0.0107287)
(0.244004 1.49005e-09 -0.00975415)
(0.24704 1.35917e-09 -0.00883039)
(0.249795 1.31157e-09 -0.00795559)
(0.252283 1.36915e-09 -0.00712783)
(0.254519 1.53714e-09 -0.00634519)
(0.256514 1.81554e-09 -0.00560571)
(0.258282 2.19603e-09 -0.00490746)