/*--------------------------------*- C++ -*----------------------------------*\
  =========                 |
  \\      /  F ield         | OpenFOAM: The Open Source CFD Toolbox
   \\    /   O peration     | Website:  https://openfoam.org
    \\  /    A nd           | Version:  8
     \\/     M anipulation  |
\*---------------------------------------------------------------------------*/
FoamFile
{
    version     2.0;
    format      ascii;
    class       volScalarField;
    location    "4800";
    object      epsilon;
}
// * * * * * * * * * * * * * * * * * * * * * * * * * * * * * * * * * * * * * //

dimensions      [0 2 -3 0 0 0 0];

internalField   nonuniform List<scalar> 
48000
(
1.78957
7.0083
13.3183
19.8018
26.5746
33.4116
40.2298
47.0038
53.7935
60.7017
67.5932
74.4995
81.4074
88.3071
95.1887
102.042
108.857
115.622
122.324
128.953
135.496
141.942
148.277
154.492
160.574
166.513
172.299
177.922
183.375
188.648
193.735
198.63
203.327
207.822
212.111
216.191
220.061
223.72
227.166
230.4
233.424
236.239
238.847
241.25
243.452
245.481
247.348
249.029
250.526
251.844
252.989
253.968
254.786
255.451
255.968
256.344
256.586
256.699
256.691
256.567
256.333
255.996
255.56
255.032
254.417
253.72
252.946
252.1
251.186
250.21
249.174
248.084
246.942
245.753
244.52
243.245
241.932
240.584
239.203
237.792
236.352
234.887
233.397
231.884
230.351
228.798
227.228
225.64
224.036
222.418
220.786
219.141
217.483
215.813
214.132
212.44
210.737
209.024
207.3
205.567
203.824
202.071
200.309
198.537
196.755
194.963
193.162
191.35
189.528
187.696
185.854
184
182.136
180.261
178.375
176.478
174.569
172.648
170.715
168.771
166.814
164.845
162.863
160.87
158.863
156.844
154.813
152.769
150.713
148.644
146.562
144.469
142.364
140.246
138.117
135.977
133.825
131.663
129.491
127.308
125.116
122.915
120.705
118.487
116.262
114.03
111.791
109.547
107.298
105.044
102.787
100.528
98.2662
96.0034
93.7403
91.4777
89.2163
86.9572
84.7011
82.4489
80.2015
77.9597
75.7244
73.4964
71.2767
69.0659
66.8649
64.6745
62.4954
60.3284
58.1741
56.0331
53.9061
51.7935
49.696
47.6138
45.5473
43.4971
41.4641
39.4505
37.4649
35.5043
33.5568
31.6209
29.696
27.7803
25.8726
23.9709
22.0727
20.1748
18.2736
16.3761
14.4773
12.5615
10.6196
8.6398
6.60601
4.49332
2.25822
0.721109
1.7896
7.00834
13.3184
19.8019
26.5747
33.4117
40.2299
47.0039
53.7936
60.7019
67.5933
74.4996
81.4075
88.3072
95.1889
102.042
108.857
115.622
122.324
128.953
135.497
141.942
148.277
154.492
160.574
166.513
172.299
177.922
183.375
188.648
193.735
198.63
203.327
207.822
212.111
216.191
220.061
223.72
227.166
230.4
233.424
236.239
238.847
241.25
243.452
245.481
247.348
249.029
250.526
251.844
252.989
253.968
254.786
255.451
255.968
256.344
256.586
256.699
256.691
256.567
256.333
255.996
255.56
255.032
254.417
253.72
252.946
252.1
251.186
250.21
249.174
248.084
246.942
245.753
244.52
243.245
241.932
240.584
239.203
237.792
236.352
234.887
233.397
231.884
230.351
228.798
227.228
225.64
224.036
222.418
220.786
219.141
217.483
215.813
214.132
212.44
210.737
209.024
207.3
205.567
203.824
202.071
200.309
198.537
196.755
194.963
193.162
191.35
189.528
187.696
185.854
184
182.136
180.261
178.375
176.478
174.569
172.648
170.715
168.771
166.814
164.845
162.863
160.87
158.863
156.844
154.813
152.769
150.713
148.644
146.562
144.469
142.363
140.246
138.117
135.977
133.825
131.663
129.491
127.308
125.116
122.915
120.705
118.487
116.262
114.03
111.791
109.547
107.298
105.044
102.787
100.528
98.2662
96.0034
93.7403
91.4776
89.2163
86.9572
84.7011
82.4489
80.2015
77.9597
75.7244
73.4964
71.2767
69.0659
66.8649
64.6745
62.4954
60.3284
58.1741
56.0331
53.9061
51.7936
49.696
47.6138
45.5473
43.4971
41.4641
39.4505
37.4649
35.5043
33.5568
31.6209
29.696
27.7803
25.8726
23.9709
22.0728
20.1748
18.2736
16.3761
14.4773
12.5615
10.6196
8.6398
6.606
4.49328
2.25824
0.721058
8.40321
7.16936
9.155
11.5771
14.2031
16.9356
19.7335
22.5536
25.4023
28.2891
31.202
34.1395
37.0978
40.0732
43.0612
46.0572
49.0559
52.0519
55.0391
58.0113
60.9622
63.8853
66.7739
69.6216
72.4219
75.1686
77.8556
80.4771
83.0277
85.5023
87.8963
90.2055
92.426
94.5546
96.5885
98.5252
100.363
102.1
103.737
105.271
106.704
108.035
109.266
110.397
111.433
112.38
113.242
114.014
114.696
115.291
115.801
116.228
116.575
116.846
117.044
117.173
117.235
117.233
117.172
117.054
116.882
116.66
116.39
116.076
115.72
115.324
114.892
114.427
113.929
113.403
112.849
112.27
111.668
111.045
110.402
109.741
109.064
108.372
107.665
106.947
106.217
105.477
104.727
103.969
103.203
102.43
101.65
100.865
100.075
99.2793
98.4797
97.6761
96.8687
96.058
95.244
94.427
93.6072
92.7847
91.9596
91.1319
90.3017
89.469
88.6339
87.7962
86.956
86.1132
85.2678
84.4197
83.5688
82.715
81.8583
80.9985
80.1355
79.2693
78.3998
77.5267
76.6502
75.7699
74.886
73.9982
73.1065
72.2109
71.3112
70.4075
69.4996
68.5876
67.6714
66.751
65.8264
64.8976
63.9647
63.0277
62.0867
61.1417
60.1928
59.2401
58.2838
57.3239
56.3607
55.3942
54.4247
53.4523
52.4773
51.4999
50.5202
49.5387
48.5555
47.5709
46.5852
45.5987
44.6118
43.6246
42.6376
41.6512
40.6656
39.6812
38.6983
37.7174
36.7388
35.7628
34.7898
33.8203
32.8544
31.8927
30.9353
29.9828
29.0353
28.0933
27.157
26.2268
25.3028
24.3854
23.4748
22.5711
21.6747
20.7856
19.9041
19.0304
18.1647
17.3075
16.4599
15.6209
14.7888
13.9635
13.145
12.3325
11.5258
10.7242
9.92726
9.13462
8.34644
7.56502
6.78892
6.01595
5.2458
4.48038
3.72696
3.00891
2.41573
2.78707
8.40327
7.16934
9.15496
11.5771
14.2031
16.9356
19.7334
22.5535
25.4022
28.289
31.202
34.1394
37.0977
40.0731
43.0611
46.0571
49.0558
52.0518
55.0389
58.0112
60.9621
63.8851
66.7738
69.6215
72.4218
75.1685
77.8554
80.4769
83.0275
85.5022
87.8962
90.2053
92.4259
94.5545
96.5883
98.525
100.363
102.1
103.737
105.271
106.704
108.035
109.266
110.397
111.433
112.38
113.242
114.014
114.696
115.291
115.8
116.227
116.575
116.846
117.044
117.173
117.235
117.233
117.172
117.054
116.882
116.66
116.39
116.076
115.719
115.324
114.892
114.426
113.929
113.402
112.849
112.27
111.668
111.045
110.402
109.741
109.064
108.371
107.665
106.947
106.217
105.476
104.727
103.969
103.203
102.429
101.65
100.865
100.074
99.2792
98.4795
97.6759
96.8686
96.0578
95.2438
94.4269
93.6071
92.7846
91.9594
91.1317
90.3016
89.4689
88.6337
87.7961
86.9559
86.1131
85.2677
84.4196
83.5687
82.7149
81.8582
80.9984
80.1354
79.2692
78.3996
77.5266
76.65
75.7698
74.8859
73.9981
73.1064
72.2108
71.3111
70.4074
69.4995
68.5875
67.6713
66.7509
65.8263
64.8975
63.9646
63.0276
62.0866
61.1416
60.1927
59.24
58.2837
57.3238
56.3606
55.3941
54.4246
53.4522
52.4772
51.4998
50.5202
49.5386
48.5554
47.5708
46.5851
45.5986
44.6117
43.6245
42.6376
41.6511
40.6655
39.6811
38.6983
37.7174
36.7387
35.7627
34.7898
33.8202
32.8544
31.8926
30.9353
29.9827
29.0353
28.0933
27.157
26.2267
25.3028
24.3854
23.4747
22.5711
21.6747
20.7856
19.9041
19.0303
18.1646
17.3075
16.4598
15.6209
14.7888
13.9634
13.1449
12.3325
11.5258
10.7242
9.92724
9.1346
8.34643
7.565
6.78891
6.01593
5.24579
4.48038
3.72698
3.009
2.41572
2.78695
15.67
9.61232
10.1315
11.5493
13.2778
15.1646
17.1478
19.1939
21.2882
23.4236
25.593
27.7914
30.0147
32.2588
34.5199
36.794
39.0767
41.3636
43.6498
45.9304
48.2004
50.4543
52.6868
54.8925
57.066
59.2022
61.2957
63.3417
65.3354
67.2724
69.1484
70.9597
72.7027
74.3745
75.9722
77.4936
78.9368
80.3004
81.5831
82.7845
83.904
84.942
85.8989
86.7757
87.5745
88.2981
88.9482
89.525
90.0293
90.4625
90.8266
91.1237
91.3562
91.5267
91.6378
91.6921
91.6925
91.6416
91.5421
91.3967
91.2081
90.9787
90.7113
90.4081
90.0715
89.704
89.3076
88.8845
88.4367
87.9661
87.4745
86.9638
86.4354
85.891
85.3319
84.7596
84.1753
83.5802
82.9753
82.3617
81.7403
81.112
80.4775
79.8375
79.1928
78.5438
77.8912
77.2354
76.5769
75.9159
75.2529
74.5882
73.9219
73.2543
72.5856
71.9159
71.2454
70.5741
69.9022
69.2296
68.5564
67.8825
67.2081
66.5331
65.8573
65.1809
64.5037
63.8257
63.1467
62.4668
61.7858
61.1037
60.4203
59.7356
59.0495
58.3619
57.6728
56.9819
56.2894
55.595
54.8987
54.2005
53.5003
52.7981
52.0937
51.3873
50.6787
49.9679
49.2549
48.5398
47.8225
47.1031
46.3817
45.6581
44.9326
44.2052
43.476
42.745
42.0124
41.2783
40.5428
39.806
39.0682
38.3294
37.5899
36.8499
36.1094
35.3688
34.6282
33.8879
33.148
32.4089
31.6708
30.9339
30.1984
29.4647
28.7329
28.0035
27.2765
26.5523
25.8311
25.1133
24.399
23.6885
22.9821
22.2801
21.5826
20.8898
20.2021
19.5196
18.8425
18.1711
17.5054
16.8456
16.192
15.5446
14.9037
14.2692
13.6416
13.0208
12.4071
11.8004
11.2003
10.6065
10.0192
9.43801
8.86349
8.29546
7.7341
7.17977
6.63326
6.09595
5.56934
5.05512
4.55758
4.08582
3.66042
3.33627
3.32322
5.53136
15.67
9.61229
10.1314
11.5492
13.2778
15.1645
17.1477
19.1938
21.2882
23.4236
25.5929
27.7913
30.0146
32.2587
34.5199
36.7939
39.0766
41.3635
43.6497
45.9304
48.2003
50.4542
52.6867
54.8924
57.0659
59.2021
61.2956
63.3416
65.3353
67.2723
69.1483
70.9596
72.7026
74.3744
75.9721
77.4935
78.9367
80.3003
81.583
82.7843
83.9039
84.9419
85.8988
86.7756
87.5744
88.298
88.9481
89.5249
90.0292
90.4624
90.8265
91.1235
91.3561
91.5266
91.6377
91.692
91.6924
91.6415
91.542
91.3966
91.208
90.9786
90.7112
90.408
90.0714
89.7039
89.3075
88.8844
88.4366
87.966
87.4744
86.9637
86.4353
85.8909
85.3318
84.7595
84.1752
83.5801
82.9752
82.3616
81.7402
81.1119
80.4774
79.8374
79.1927
78.5438
77.8912
77.2354
76.5768
75.9159
75.2529
74.5881
73.9218
73.2542
72.5855
71.9159
71.2453
70.5741
69.9021
69.2295
68.5563
67.8825
67.2081
66.533
65.8573
65.1808
64.5036
63.8256
63.1466
62.4667
61.7857
61.1036
60.4202
59.7356
59.0495
58.3619
57.6727
56.9819
56.2893
55.595
54.8987
54.2005
53.5003
52.798
52.0937
51.3872
50.6786
49.9678
49.2549
48.5398
47.8225
47.1031
46.3816
45.6581
44.9326
44.2052
43.4759
42.745
42.0123
41.2782
40.5427
39.806
39.0682
38.3294
37.5899
36.8498
36.1094
35.3688
34.6282
33.8878
33.148
32.4089
31.6708
30.9338
30.1984
29.4647
28.7329
28.0034
27.2765
26.5523
25.8311
25.1133
24.399
23.6885
22.9821
22.2801
21.5825
20.8898
20.2021
19.5196
18.8425
18.171
17.5054
16.8456
16.192
15.5446
14.9037
14.2692
13.6415
13.0208
12.4071
11.8004
11.2002
10.6065
10.0192
9.438
8.86348
8.29545
7.73409
7.17977
6.63325
6.09594
5.56934
5.05512
4.55758
4.08581
3.66042
3.33627
3.32317
5.53137
22.7048
12.4789
11.9468
12.7691
14.0477
15.5534
17.195
18.9267
20.7234
22.57
24.456
26.3739
28.3179
30.2832
32.2652
34.2599
36.2633
38.2711
40.279
42.2828
44.2779
46.2598
48.2237
50.1649
52.0787
53.9605
55.8057
57.6098
59.3686
61.078
62.7341
64.3334
65.8728
67.3491
68.76
70.1031
71.3765
72.5788
73.7089
74.7658
75.7494
76.6594
77.4963
78.2608
78.9542
79.5781
80.134
80.6226
81.0453
81.4033
81.6986
81.933
82.1087
82.2279
82.2932
82.3068
82.2712
82.189
82.0626
81.8945
81.687
81.4427
81.1638
80.8527
80.5114
80.1422
79.7472
79.3282
78.8871
78.4258
77.946
77.4492
76.937
76.4109
75.8721
75.322
74.7617
74.1922
73.6148
73.0301
72.4392
71.8429
71.2418
70.6366
70.0279
69.4164
68.8024
68.1864
67.5688
66.9499
66.3301
65.7096
65.0887
64.4675
63.8462
63.225
62.6039
61.983
61.3625
60.7422
60.1224
59.5028
58.8837
58.2648
57.6463
57.028
56.4098
55.7918
55.1739
54.5559
53.9379
53.3196
52.7012
52.0823
51.4631
50.8433
50.223
49.602
48.9802
48.3577
47.7342
47.1099
46.4845
45.8581
45.2306
44.602
43.9723
43.3413
42.7092
42.076
41.4415
40.806
40.1693
39.5315
38.8926
38.2528
37.6121
36.9705
36.3282
35.6852
35.0417
34.3978
33.7535
33.1091
32.4647
31.8203
31.1763
30.5328
29.8899
29.2478
28.6068
27.9669
27.3285
26.6918
26.0568
25.424
24.7934
24.1653
23.5399
22.9175
22.2982
21.6823
21.07
20.4615
19.8571
19.2569
18.6611
18.07
17.4836
16.9023
16.3262
15.7554
15.1901
14.6304
14.0766
13.5288
12.987
12.4515
11.9224
11.3999
10.884
10.3748
9.87239
9.37673
8.88798
8.40631
7.93207
7.46558
7.00766
6.55916
6.1214
5.69637
5.28698
4.89771
4.53651
4.21865
3.97712
3.89869
4.31885
8.18838
22.7049
12.4789
11.9467
12.769
14.0476
15.5533
17.1949
18.9266
20.7233
22.5699
24.4559
26.3738
28.3179
30.2831
32.2651
34.2599
36.2632
38.271
40.2789
42.2827
44.2778
46.2597
48.2236
50.1648
52.0786
53.9605
55.8056
57.6098
59.3685
61.0779
62.734
64.3334
65.8727
67.3491
68.7599
70.103
71.3764
72.5787
73.7088
74.7658
75.7493
76.6593
77.4962
78.2608
78.9542
79.5781
80.1339
80.6226
81.0452
81.4033
81.6985
81.9329
82.1086
82.2279
82.2931
82.3067
82.2712
82.1889
82.0625
81.8944
81.687
81.4426
81.1638
80.8526
80.5114
80.1422
79.7471
79.3281
78.887
78.4258
77.9459
77.4492
76.937
76.4108
75.8721
75.3219
74.7616
74.1922
73.6147
73.0301
72.4392
71.8428
71.2417
70.6366
70.0279
69.4163
68.8023
68.1863
67.5687
66.9499
66.3301
65.7096
65.0886
64.4675
63.8462
63.2249
62.6039
61.983
61.3624
60.7422
60.1223
59.5028
58.8836
58.2648
57.6462
57.0279
56.4098
55.7918
55.1739
54.5559
53.9378
53.3196
52.7011
52.0823
51.4631
50.8433
50.223
49.602
48.9802
48.3577
47.7342
47.1098
46.4845
45.8581
45.2306
44.602
43.9722
43.3413
42.7092
42.076
41.4415
40.8059
40.1692
39.5315
38.8926
38.2528
37.6121
36.9705
36.3282
35.6852
35.0417
34.3977
33.7535
33.1091
32.4646
31.8203
31.1763
30.5328
29.8899
29.2478
28.6068
27.9669
27.3285
26.6918
26.0568
25.424
24.7934
24.1653
23.5399
22.9175
22.2982
21.6823
21.07
20.4615
19.8571
19.2569
18.6611
18.07
17.4836
16.9023
16.3262
15.7554
15.1901
14.6304
14.0766
13.5288
12.987
12.4515
11.9224
11.3998
10.884
10.3748
9.87238
9.37673
8.88798
8.40631
7.93207
7.46558
7.00766
6.55916
6.1214
5.69637
5.28698
4.89771
4.5365
4.21865
3.97712
3.8987
4.31885
8.18838
29.7854
15.5848
14.1191
14.477
15.4484
16.7188
18.1648
19.7254
21.366
23.0651
24.8082
26.5852
28.3884
30.2118
32.0502
33.8992
35.7545
37.6123
39.4686
41.3193
43.1606
44.9882
46.7982
48.5863
50.3485
52.0805
53.7783
55.438
57.0556
58.6276
60.1504
61.6208
63.0357
64.3925
65.6886
66.922
68.0908
69.1936
70.2293
71.1969
72.0961
72.9266
73.6888
74.3831
75.0103
75.5718
76.0686
76.5019
76.8728
77.1828
77.4336
77.627
77.7651
77.8498
77.8835
77.8683
77.8067
77.7008
77.5532
77.3661
77.1418
76.8826
76.5907
76.2683
75.9175
75.5404
75.1388
74.7148
74.2702
73.8065
73.3256
72.8289
72.318
71.7941
71.2587
70.7129
70.1578
69.5946
69.0243
68.4476
67.8655
67.2788
66.6881
66.0941
65.4974
64.8985
64.2979
63.696
63.0932
62.4899
61.8862
61.2826
60.6791
60.0761
59.4736
58.8718
58.2707
57.6706
57.0713
56.4731
55.8758
55.2795
54.6841
54.0897
53.4963
52.9037
52.3119
51.7208
51.1305
50.5408
49.9516
49.3629
48.7746
48.1865
47.5987
47.0111
46.4235
45.8358
45.2481
44.6603
44.0722
43.4838
42.8951
42.306
41.7165
41.1265
40.536
39.945
39.3535
38.7614
38.1688
37.5756
36.982
36.3879
35.7934
35.1985
34.6032
34.0077
33.412
32.8162
32.2204
31.6247
31.0292
30.434
29.8393
29.2451
28.6517
28.0592
27.4677
26.8774
26.2885
25.7011
25.1155
24.5317
23.9501
23.3708
22.7939
22.2197
21.6484
21.0801
20.5152
19.9536
19.3958
18.8417
18.2917
17.746
17.2046
16.6678
16.1358
15.6087
15.0867
14.57
14.0586
13.5529
13.0529
12.5588
12.0707
11.5888
11.1133
10.6444
10.1822
9.7269
9.27866
8.83771
8.40437
7.97902
7.56221
7.15466
6.75737
6.3717
5.99956
5.64387
5.30875
5.00083
4.73146
4.52177
4.41689
4.53554
5.33811
10.816
29.7855
15.5848
14.119
14.4769
15.4483
16.7187
18.1648
19.7254
21.3659
23.065
24.8081
26.5851
28.3883
30.2117
32.0501
33.8991
35.7544
37.6122
39.4685
41.3192
43.1605
44.9881
46.7981
48.5862
50.3484
52.0804
53.7782
55.4379
57.0555
58.6275
60.1503
61.6207
63.0356
64.3924
65.6885
66.9219
68.0908
69.1936
70.2292
71.1968
72.096
72.9266
73.6887
74.383
75.0103
75.5717
76.0686
76.5018
76.8727
77.1828
77.4336
77.627
77.765
77.8497
77.8834
77.8683
77.8066
77.7008
77.5532
77.366
77.1417
76.8825
76.5906
76.2682
75.9175
75.5403
75.1388
74.7148
74.2701
73.8065
73.3256
72.8289
72.3179
71.7941
71.2586
70.7128
70.1578
69.5946
69.0242
68.4476
67.8655
67.2788
66.6881
66.0941
65.4974
64.8985
64.2979
63.696
63.0932
62.4898
61.8862
61.2826
60.6791
60.0761
59.4736
58.8717
58.2707
57.6706
57.0713
56.473
55.8757
55.2794
54.6841
54.0897
53.4962
52.9036
52.3118
51.7208
51.1305
50.5408
49.9516
49.3629
48.7745
48.1865
47.5987
47.011
46.4234
45.8358
45.2481
44.6603
44.0722
43.4838
42.8951
42.306
41.7165
41.1265
40.536
39.945
39.3534
38.7614
38.1688
37.5756
36.982
36.3879
35.7934
35.1984
34.6032
34.0077
33.412
32.8162
32.2204
31.6247
31.0292
30.434
29.8393
29.2451
28.6517
28.0592
27.4677
26.8774
26.2885
25.7011
25.1155
24.5317
23.9501
23.3708
22.7939
22.2197
21.6484
21.0801
20.5152
19.9536
19.3958
18.8417
18.2917
17.746
17.2046
16.6678
16.1358
15.6087
15.0867
14.57
14.0586
13.5529
13.0529
12.5588
12.0707
11.5888
11.1133
10.6444
10.1822
9.7269
9.27866
8.83771
8.40437
7.97902
7.56221
7.15466
6.75737
6.3717
5.99956
5.64387
5.30875
5.00083
4.73146
4.52177
4.41689
4.53555
5.33812
10.816
36.8114
18.8216
16.4981
16.4652
17.1986
18.3011
19.6171
21.0701
22.6163
24.2287
25.8889
27.584
29.3046
31.0433
32.7943
34.5528
36.3143
38.0751
39.8312
41.5792
43.3154
45.0363
46.7383
48.4177
50.071
51.6945
53.2848
54.8382
56.3514
57.8211
59.2442
60.6177
61.9389
63.2052
64.4145
65.5647
66.654
67.6811
68.6449
69.5444
70.3793
71.1492
71.8542
72.4949
73.0717
73.5856
74.0376
74.4289
74.7605
75.0339
75.2507
75.4126
75.5215
75.5792
75.5881
75.55
75.4673
75.3421
75.1767
74.9734
74.7342
74.4614
74.1571
73.8235
73.4625
73.0762
72.6665
72.2351
71.7838
71.3144
70.8284
70.3274
69.8128
69.2859
68.7481
68.2005
67.6442
67.0803
66.5098
65.9336
65.3524
64.767
64.1782
63.5866
62.9928
62.3972
61.8004
61.2027
60.6046
60.0064
59.4084
58.8108
58.2139
57.6178
57.0227
56.4287
55.836
55.2446
54.6546
54.0659
53.4787
52.893
52.3086
51.7257
51.1442
50.5639
49.985
49.4073
48.8307
48.2552
47.6807
47.1071
46.5344
45.9625
45.3913
44.8207
44.2506
43.681
43.1118
42.5429
41.9742
41.4058
40.8375
40.2692
39.7011
39.1329
38.5647
37.9965
37.4282
36.8598
36.2914
35.7229
35.1543
34.5857
34.0171
33.4486
32.8801
32.3118
31.7438
31.176
30.6086
30.0417
29.4753
28.9096
28.3447
27.7807
27.2178
26.656
26.0955
25.5365
24.9792
24.4236
23.8699
23.3184
22.7691
22.2222
21.678
21.1366
20.5982
20.0629
19.5309
19.0025
18.4777
17.9568
17.44
16.9274
16.4192
15.9155
15.4166
14.9225
14.4336
13.9498
13.4715
12.9987
12.5316
12.0705
11.6154
11.1667
10.7244
10.2888
9.86011
9.43867
9.02474
8.61869
8.22098
7.83221
7.45314
7.08476
6.72842
6.3859
6.05974
5.75356
5.47274
5.22582
5.02736
4.9042
4.91348
5.20579
6.36584
13.4275
36.8115
18.8216
16.4981
16.4651
17.1985
18.301
19.6171
21.07
22.6163
24.2286
25.8888
27.5839
29.3045
31.0432
32.7943
34.5527
36.3143
38.075
39.8311
41.5791
43.3153
45.0362
46.7382
48.4176
50.0709
51.6945
53.2847
54.8381
56.3513
57.821
59.2441
60.6176
61.9388
63.2052
64.4144
65.5646
66.6539
67.681
68.6448
69.5443
70.3792
71.1491
71.8542
72.4948
73.0716
73.5855
74.0376
74.4288
74.7604
75.0339
75.2507
75.4126
75.5214
75.5792
75.588
75.55
75.4672
75.3421
75.1767
74.9733
74.7341
74.4614
74.1571
73.8235
73.4625
73.0762
72.6664
72.235
71.7838
71.3144
70.8284
70.3274
69.8128
69.2859
68.7481
68.2005
67.6442
67.0803
66.5098
65.9335
65.3524
64.767
64.1782
63.5866
62.9927
62.3972
61.8003
61.2027
60.6046
60.0064
59.4084
58.8108
58.2139
57.6178
57.0227
56.4287
55.836
55.2446
54.6545
54.0659
53.4787
52.893
52.3086
51.7257
51.1441
50.5639
49.985
49.4072
48.8307
48.2552
47.6807
47.1071
46.5344
45.9625
45.3913
44.8207
44.2506
43.681
43.1118
42.5429
41.9742
41.4058
40.8375
40.2692
39.7011
39.1329
38.5647
37.9965
37.4282
36.8598
36.2914
35.7228
35.1543
34.5857
34.0171
33.4486
32.8801
32.3118
31.7438
31.176
30.6086
30.0417
29.4753
28.9096
28.3447
27.7807
27.2178
26.656
26.0955
25.5365
24.9792
24.4236
23.8699
23.3184
22.7691
22.2222
21.678
21.1366
20.5982
20.0629
19.5309
19.0025
18.4777
17.9568
17.44
16.9274
16.4192
15.9155
15.4166
14.9225
14.4336
13.9498
13.4715
12.9987
12.5316
12.0705
11.6154
11.1667
10.7244
10.2888
9.86011
9.43867
9.02474
8.61869
8.22099
7.83221
7.45314
7.08476
6.72842
6.3859
6.05974
5.75356
5.47274
5.22582
5.02736
4.9042
4.91348
5.2058
6.36585
13.4275
43.8737
22.1627
19.03
18.6508
19.1871
20.1598
21.3816
22.7608
24.245
25.8017
27.4089
29.0513
30.7175
32.3992
34.0897
35.7838
37.4769
39.1652
40.8451
42.5134
44.1669
45.8025
47.4172
49.0077
50.5712
52.1045
53.6046
55.0685
56.4931
57.8757
59.2135
60.5039
61.7444
62.9328
64.0669
65.145
66.1655
67.1269
68.0283
68.8688
69.6479
70.3653
71.0209
71.6151
72.1483
72.6214
73.0351
73.3904
73.6886
73.9309
74.1187
74.2538
74.3379
74.3727
74.3603
74.3027
74.2019
74.0601
73.8793
73.6617
73.4094
73.1245
72.8091
72.4651
72.0946
71.6994
71.2815
70.8425
70.3843
69.9084
69.4165
68.91
68.3903
67.8588
67.3167
66.7653
66.2055
65.6385
65.0652
64.4865
63.9032
63.3161
62.7259
62.1331
61.5384
60.9423
60.3453
59.7478
59.1501
58.5527
57.9557
57.3595
56.7643
56.1702
55.5775
54.9862
54.3965
53.8084
53.2221
52.6375
52.0546
51.4736
50.8943
50.3167
49.7409
49.1667
48.5942
48.0233
47.4538
46.8858
46.3192
45.7539
45.1898
44.6268
44.0649
43.504
42.944
42.3848
41.8264
41.2687
40.7116
40.1551
39.5991
39.0435
38.4884
37.9336
37.3792
36.8251
36.2713
35.7178
35.1645
34.6116
34.0589
33.5066
32.9546
32.4029
31.8517
31.301
30.7507
30.2011
29.6521
29.1039
28.5565
28.0101
27.4647
26.9204
26.3774
25.8358
25.2957
24.7572
24.2206
23.6859
23.1532
22.6229
22.0948
21.5694
21.0466
20.5268
20.0099
19.4963
18.986
18.4793
17.9763
17.4771
16.982
16.4911
16.0046
15.5226
15.0453
14.5729
14.1056
13.6434
13.1867
12.7355
12.2901
11.8506
11.4173
10.9904
10.5702
10.1568
9.75073
9.35221
8.96167
8.57962
8.20668
7.84362
7.4914
7.15128
6.82493
6.51458
6.2233
5.95552
5.71779
5.52044
5.38098
5.33199
5.44259
5.89523
7.39872
16.03
43.8738
22.1626
19.03
18.6507
19.1871
20.1597
21.3816
22.7607
24.245
25.8016
27.4088
29.0512
30.7174
32.3991
34.0897
35.7837
37.4768
39.1651
40.845
42.5133
44.1668
45.8024
47.4171
49.0077
50.5711
52.1044
53.6045
55.0684
56.493
57.8756
59.2134
60.5038
61.7443
62.9327
64.0668
65.1449
66.1654
67.1269
68.0283
68.8688
69.6478
70.3652
71.0208
71.615
72.1483
72.6213
73.035
73.3904
73.6885
73.9308
74.1187
74.2538
74.3378
74.3727
74.3603
74.3027
74.2019
74.0601
73.8793
73.6617
73.4094
73.1245
72.8091
72.4651
72.0946
71.6994
71.2814
70.8425
70.3842
69.9084
69.4164
68.9099
68.3903
67.8588
67.3167
66.7652
66.2055
65.6385
65.0652
64.4865
63.9032
63.3161
62.7258
62.1331
61.5384
60.9423
60.3453
59.7478
59.1501
58.5527
57.9557
57.3595
56.7643
56.1702
55.5775
54.9862
54.3965
53.8084
53.2221
52.6375
52.0546
51.4735
50.8942
50.3167
49.7409
49.1667
48.5942
48.0233
47.4538
46.8858
46.3192
45.7539
45.1898
44.6268
44.0649
43.504
42.944
42.3848
41.8264
41.2687
40.7116
40.1551
39.5991
39.0435
38.4884
37.9336
37.3792
36.8251
36.2713
35.7178
35.1645
34.6116
34.0589
33.5066
32.9546
32.4029
31.8517
31.301
30.7507
30.2011
29.6521
29.1039
28.5565
28.0101
27.4647
26.9204
26.3774
25.8358
25.2957
24.7572
24.2206
23.6859
23.1532
22.6228
22.0948
21.5694
21.0466
20.5268
20.0099
19.4963
18.986
18.4793
17.9763
17.4771
16.982
16.4911
16.0046
15.5226
15.0453
14.5729
14.1056
13.6434
13.1867
12.7355
12.2901
11.8506
11.4173
10.9904
10.5702
10.1568
9.75074
9.35221
8.96167
8.57962
8.20669
7.84362
7.4914
7.15128
6.82493
6.51458
6.2233
5.95552
5.71779
5.52044
5.38098
5.33199
5.44259
5.89524
7.39874
16.03
51.1338
25.6024
21.6922
20.9952
21.3606
22.2272
23.3766
24.7019
26.1426
27.6608
29.2312
30.836
32.4624
34.1009
35.7442
37.3866
39.0234
40.6509
42.2657
43.865
45.446
47.006
48.5426
50.0531
51.5352
52.9862
54.4036
55.785
57.1279
58.4297
59.6883
60.9012
62.0664
63.1818
64.2457
65.2563
66.2122
67.1121
67.955
68.7402
69.467
70.1351
70.7446
71.2954
71.7881
72.2232
72.6015
72.9239
73.1914
73.4053
73.5668
73.6776
73.7392
73.7534
73.722
73.6468
73.5299
73.3732
73.1788
72.9486
72.6846
72.389
72.0636
71.7104
71.3313
70.9282
70.5028
70.0569
69.5922
69.1103
68.6127
68.1009
67.5762
67.04
66.4935
65.9379
65.3743
64.8036
64.2269
63.645
63.0588
62.4689
61.8761
61.281
60.6842
60.0863
59.4876
58.8886
58.2897
57.6912
57.0935
56.4967
55.9012
55.307
54.7144
54.1235
53.5344
52.9472
52.362
51.7788
51.1976
50.6184
50.0413
49.4662
48.893
48.3219
47.7526
47.1852
46.6196
46.0557
45.4935
44.9329
44.3737
43.816
43.2597
42.7046
42.1508
41.5981
41.0464
40.4957
39.946
39.3971
38.849
38.3017
37.7551
37.2092
36.6639
36.1192
35.5751
35.0315
34.4885
33.9461
33.4043
32.863
32.3223
31.7822
31.2429
30.7042
30.1663
29.6292
29.093
28.5577
28.0235
27.4905
26.9586
26.4281
25.899
25.3714
24.8455
24.3214
23.7991
23.279
22.761
22.2453
21.7321
21.2214
20.7136
20.2086
19.7067
19.2081
18.7128
18.221
17.7329
17.2487
16.7685
16.2924
15.8207
15.3536
14.891
14.4334
13.9807
13.5333
13.0913
12.6548
12.2241
11.7995
11.3811
10.9693
10.5643
10.1664
9.77609
9.39374
9.01988
8.65512
8.30022
7.95612
7.62399
7.30534
7.00214
6.71704
6.45367
6.21721
6.01537
5.86026
5.77231
5.78974
5.99368
6.5985
8.43728
18.6293
51.1339
25.6023
21.6921
20.9951
21.3605
22.2271
23.3765
24.7018
26.1425
27.6607
29.2311
30.8359
32.4624
34.1009
35.7441
37.3865
39.0233
40.6508
42.2657
43.8649
45.4459
47.0059
48.5425
50.0531
51.5351
52.9861
54.4035
55.7849
57.1278
58.4296
59.6882
60.9011
62.0663
63.1818
64.2456
65.2562
66.2121
67.112
67.955
68.7401
69.4669
70.1351
70.7445
71.2954
71.7881
72.2232
72.6015
72.9239
73.1914
73.4052
73.5668
73.6775
73.7392
73.7533
73.7219
73.6468
73.5299
73.3732
73.1787
72.9485
72.6846
72.3889
72.0635
71.7103
71.3313
70.9281
70.5028
70.0569
69.5922
69.1103
68.6127
68.1009
67.5762
67.04
66.4935
65.9379
65.3743
64.8036
64.2269
63.645
63.0587
62.4689
61.8761
61.281
60.6842
60.0862
59.4876
58.8886
58.2897
57.6912
57.0935
56.4967
55.9011
55.307
54.7144
54.1235
53.5344
52.9472
52.362
51.7787
51.1975
50.6184
50.0413
49.4661
48.893
48.3219
47.7526
47.1852
46.6196
46.0557
45.4935
44.9329
44.3737
43.816
43.2597
42.7046
42.1508
41.5981
41.0464
40.4957
39.946
39.3971
38.849
38.3017
37.7551
37.2092
36.6639
36.1192
35.5751
35.0315
34.4885
33.9461
33.4043
32.863
32.3223
31.7822
31.2429
30.7042
30.1663
29.6292
29.093
28.5577
28.0235
27.4905
26.9586
26.4281
25.899
25.3714
24.8455
24.3214
23.7991
23.279
22.761
22.2453
21.7321
21.2214
20.7136
20.2086
19.7067
19.2081
18.7128
18.221
17.7329
17.2487
16.7685
16.2924
15.8207
15.3536
14.891
14.4334
13.9807
13.5333
13.0913
12.6548
12.2241
11.7995
11.3811
10.9693
10.5643
10.1664
9.77609
9.39374
9.01988
8.65512
8.30022
7.95612
7.62399
7.30534
7.00214
6.71704
6.45367
6.21721
6.01537
5.86026
5.77231
5.78974
5.99368
6.59851
8.4373
18.6293
58.7121
29.1691
24.4804
23.4804
23.691
24.4669
25.5576
26.8414
28.2494
29.7387
31.2809
32.856
34.4497
36.0515
37.6534
39.2496
40.8352
42.4067
43.961
45.4954
47.0078
48.4959
49.9577
51.3914
52.795
54.1664
55.5038
56.8051
58.0683
59.2914
60.4726
61.6099
62.7014
63.7454
64.7404
65.6849
66.5775
67.417
68.2027
68.9336
69.6092
70.2292
70.7935
71.3021
71.7554
72.1537
72.4978
72.7885
73.0266
73.2134
73.3499
73.4377
73.4782
73.4731
73.4239
73.3326
73.2008
73.0306
72.8237
72.5822
72.3078
72.0026
71.6685
71.3072
70.9206
70.5106
70.0789
69.6271
69.1568
68.6697
68.1673
67.6509
67.1219
66.5817
66.0313
65.4721
64.905
64.3311
63.7512
63.1664
62.5773
61.9848
61.3895
60.7921
60.1931
59.593
58.9924
58.3917
57.7911
57.1912
56.5922
55.9943
55.3977
54.8028
54.2095
53.6182
53.0288
52.4416
51.8564
51.2735
50.6928
50.1143
49.5381
48.9641
48.3924
47.8227
47.2553
46.6898
46.1264
45.565
45.0055
44.4477
43.8917
43.3374
42.7847
42.2335
41.6837
41.1353
40.5883
40.0424
39.4977
38.9541
38.4116
37.8701
37.3295
36.7898
36.251
35.713
35.1759
34.6395
34.104
33.5692
33.0352
32.5019
31.9695
31.4379
30.9072
30.3774
29.8485
29.3206
28.7938
28.2681
27.7435
27.2203
26.6984
26.1779
25.659
25.1417
24.6262
24.1126
23.6009
23.0913
22.5839
22.0789
21.5764
21.0766
20.5794
20.0852
19.5941
19.1061
18.6215
18.1404
17.6629
17.1892
16.7195
16.254
15.7927
15.3359
14.8837
14.4363
13.9938
13.5566
13.1248
12.6986
12.2782
11.8638
11.4559
11.0546
10.6604
10.2735
9.89449
9.52384
9.16217
8.8102
8.46884
8.13917
7.82256
7.52077
7.23608
6.97152
6.73128
6.52128
6.35038
6.23245
6.19096
6.26961
6.56188
7.31455
9.48579
21.2448
58.7122
29.169
24.4803
23.4803
23.691
24.4668
25.5576
26.8413
28.2493
29.7386
31.2808
32.8559
34.4496
36.0514
37.6533
39.2495
40.8352
42.4066
43.9609
45.4953
47.0077
48.4958
49.9576
51.3913
52.7949
54.1663
55.5037
56.805
58.0682
59.2914
60.4725
61.6098
62.7013
63.7454
64.7404
65.6848
66.5774
67.417
68.2026
68.9335
69.6091
70.2292
70.7934
71.3021
71.7553
72.1537
72.4978
72.7885
73.0266
73.2133
73.3499
73.4377
73.4782
73.473
73.4239
73.3326
73.2008
73.0306
72.8237
72.5821
72.3078
72.0026
71.6684
71.3072
70.9206
70.5106
70.0789
69.627
69.1568
68.6697
68.1673
67.6509
67.1219
66.5816
66.0313
65.4721
64.905
64.331
63.7512
63.1664
62.5773
61.9848
61.3895
60.7921
60.1931
59.593
58.9924
58.3916
57.7911
57.1912
56.5922
55.9943
55.3977
54.8028
54.2095
53.6182
53.0288
52.4416
51.8564
51.2735
50.6928
50.1143
49.5381
48.9641
48.3923
47.8227
47.2552
46.6898
46.1264
45.565
45.0055
44.4477
43.8917
43.3374
42.7847
42.2335
41.6837
41.1353
40.5883
40.0424
39.4977
38.9541
38.4116
37.8701
37.3295
36.7898
36.251
35.713
35.1759
34.6395
34.104
33.5692
33.0351
32.5019
31.9695
31.4379
30.9072
30.3774
29.8485
29.3206
28.7938
28.2681
27.7435
27.2203
26.6984
26.1779
25.659
25.1417
24.6262
24.1126
23.6009
23.0913
22.5839
22.0789
21.5764
21.0766
20.5794
20.0852
19.5941
19.1061
18.6215
18.1404
17.6629
17.1892
16.7195
16.254
15.7927
15.3359
14.8837
14.4363
13.9938
13.5566
13.1248
12.6986
12.2782
11.8638
11.4559
11.0546
10.6604
10.2735
9.89449
9.52384
9.16217
8.8102
8.46884
8.13917
7.82256
7.52078
7.23608
6.97152
6.73128
6.52128
6.35038
6.23245
6.19096
6.26961
6.56188
7.31455
9.48581
21.2448
66.4941
32.8543
27.3896
26.0966
26.1633
26.8584
27.8993
29.1488
30.5302
31.9957
33.5137
35.0623
36.6258
38.1929
39.7552
41.3064
42.8418
44.358
45.8522
47.3222
48.7661
50.1824
51.5697
52.9265
54.2515
55.5432
56.8003
58.0213
59.2047
60.3489
61.4524
62.5137
63.5313
64.5036
65.4295
66.3075
67.1365
67.9155
68.6437
69.3202
69.9445
70.5163
71.0355
71.5019
71.9159
72.2777
72.5879
72.8473
73.0565
73.2167
73.3289
73.3944
73.4145
73.3908
73.3248
73.2181
73.0724
72.8896
72.6713
72.4194
72.1356
71.8219
71.4801
71.1118
70.7189
70.3031
69.866
69.4094
68.9347
68.4434
67.9372
67.4172
66.8849
66.3416
65.7883
65.2263
64.6566
64.0802
63.4981
62.911
62.3198
61.7253
61.1281
60.5289
59.9282
59.3265
58.7244
58.1222
57.5204
56.9193
56.3192
55.7203
55.1229
54.5272
53.9334
53.3415
52.7518
52.1643
51.5792
50.9963
50.4158
49.8378
49.2621
48.6888
48.1179
47.5493
46.9831
46.419
45.8572
45.2975
44.7399