/*--------------------------------*- C++ -*----------------------------------*\
  =========                 |
  \\      /  F ield         | OpenFOAM: The Open Source CFD Toolbox
   \\    /   O peration     | Website:  https://openfoam.org
    \\  /    A nd           | Version:  8
     \\/     M anipulation  |
\*---------------------------------------------------------------------------*/
FoamFile
{
    version     2.0;
    format      ascii;
    class       volScalarField;
    location    "4800";
    object      nut;
}
// * * * * * * * * * * * * * * * * * * * * * * * * * * * * * * * * * * * * * //

dimensions      [0 2 -1 0 0 0 0];

internalField   nonuniform List<scalar> 
48000
(
5.47795e-05
9.56787e-05
0.000118512
0.000135263
0.000149199
0.000161031
0.000171314
0.000180435
0.000188735
0.000196491
0.000203662
0.000210375
0.000216686
0.000222643
0.000228282
0.000233635
0.000238724
0.00024357
0.000248189
0.000252594
0.000256796
0.000260805
0.000264629
0.000268276
0.000271751
0.000275061
0.000278211
0.000281206
0.00028405
0.000286747
0.000289302
0.000291719
0.000294
0.000296151
0.000298175
0.000300075
0.000301856
0.000303519
0.00030507
0.000306512
0.000307847
0.00030908
0.000310213
0.00031125
0.000312194
0.00031306
0.000313851
0.000314561
0.00031519
0.000315742
0.00031622
0.000316628
0.000316967
0.000317243
0.000317457
0.000317612
0.000317712
0.000317759
0.000317756
0.000317705
0.000317608
0.000317469
0.000317289
0.00031707
0.000316815
0.000316525
0.000316203
0.00031585
0.000315468
0.000315058
0.000314623
0.000314163
0.000313681
0.000313176
0.000312651
0.000312107
0.000311544
0.000310964
0.000310368
0.000309756
0.00030913
0.000308489
0.000307835
0.000307169
0.00030649
0.0003058
0.000305098
0.000304386
0.000303663
0.00030293
0.000302187
0.000301434
0.000300672
0.0002999
0.000299119
0.000298329
0.00029753
0.000296721
0.000295903
0.000295076
0.000294239
0.000293393
0.000292538
0.000291672
0.000290797
0.000289911
0.000289016
0.000288109
0.000287192
0.000286263
0.000285323
0.000284372
0.000283408
0.000282432
0.000281443
0.000280442
0.000279427
0.000278398
0.000277355
0.000276298
0.000275226
0.000274139
0.000273036
0.000271917
0.000270782
0.00026963
0.000268461
0.000267274
0.000266069
0.000264846
0.000263604
0.000262343
0.000261062
0.000259762
0.000258441
0.000257099
0.000255735
0.000254351
0.000252944
0.000251515
0.000250063
0.000248588
0.000247089
0.000245566
0.000244019
0.000242447
0.00024085
0.000239228
0.000237579
0.000235904
0.000234203
0.000232474
0.000230717
0.000228933
0.000227119
0.000225277
0.000223405
0.000221504
0.000219571
0.000217608
0.000215612
0.000213585
0.000211523
0.000209428
0.000207298
0.000205133
0.00020293
0.00020069
0.00019841
0.00019609
0.000193727
0.000191321
0.000188869
0.000186369
0.000183818
0.000181215
0.000178554
0.000175834
0.000173051
0.000170203
0.000167298
0.000164328
0.000161266
0.000158104
0.000154828
0.000151425
0.000147876
0.00014416
0.00014025
0.000136109
0.000131692
0.000126966
0.000121856
0.000116225
0.000109897
0.000102592
9.38127e-05
8.25937e-05
6.67057e-05
5.37183e-05
5.47798e-05
9.56789e-05
0.000118512
0.000135263
0.000149199
0.000161031
0.000171314
0.000180435
0.000188735
0.000196492
0.000203663
0.000210375
0.000216686
0.000222643
0.000228282
0.000233635
0.000238724
0.00024357
0.000248189
0.000252594
0.000256796
0.000260805
0.000264629
0.000268276
0.000271751
0.000275061
0.000278211
0.000281206
0.00028405
0.000286747
0.000289302
0.000291719
0.000294
0.000296151
0.000298175
0.000300075
0.000301856
0.000303519
0.00030507
0.000306512
0.000307847
0.00030908
0.000310213
0.00031125
0.000312194
0.00031306
0.000313851
0.000314561
0.00031519
0.000315742
0.00031622
0.000316628
0.000316967
0.000317243
0.000317457
0.000317612
0.000317712
0.000317759
0.000317756
0.000317705
0.000317608
0.000317469
0.000317289
0.00031707
0.000316815
0.000316525
0.000316203
0.00031585
0.000315468
0.000315058
0.000314623
0.000314163
0.000313681
0.000313176
0.000312651
0.000312107
0.000311544
0.000310964
0.000310368
0.000309756
0.00030913
0.000308489
0.000307835
0.000307169
0.00030649
0.0003058
0.000305098
0.000304386
0.000303663
0.00030293
0.000302187
0.000301434
0.000300672
0.0002999
0.000299119
0.000298329
0.000297529
0.000296721
0.000295903
0.000295076
0.000294239
0.000293393
0.000292538
0.000291672
0.000290797
0.000289911
0.000289016
0.000288109
0.000287192
0.000286263
0.000285323
0.000284372
0.000283408
0.000282432
0.000281443
0.000280442
0.000279427
0.000278398
0.000277355
0.000276298
0.000275226
0.000274139
0.000273036
0.000271917
0.000270782
0.00026963
0.000268461
0.000267274
0.000266069
0.000264846
0.000263604
0.000262343
0.000261062
0.000259762
0.000258441
0.000257099
0.000255735
0.000254351
0.000252944
0.000251515
0.000250063
0.000248588
0.000247089
0.000245566
0.000244019
0.000242447
0.00024085
0.000239228
0.000237579
0.000235904
0.000234203
0.000232474
0.000230717
0.000228933
0.000227119
0.000225277
0.000223405
0.000221504
0.000219571
0.000217608
0.000215612
0.000213585
0.000211523
0.000209428
0.000207298
0.000205133
0.00020293
0.00020069
0.00019841
0.00019609
0.000193727
0.000191321
0.000188869
0.000186369
0.000183818
0.000181215
0.000178554
0.000175834
0.000173051
0.000170203
0.000167298
0.000164328
0.000161266
0.000158104
0.000154828
0.000151425
0.000147876
0.00014416
0.00014025
0.000136109
0.000131692
0.000126967
0.000121856
0.000116225
0.000109897
0.000102592
9.38135e-05
8.25959e-05
6.67018e-05
5.37191e-05
8.33974e-05
0.00061888
0.00097922
0.00123068
0.00142078
0.00157432
0.00170578
0.00182144
0.00192482
0.002018
0.00210332
0.00218199
0.00225498
0.00232305
0.00238676
0.00244659
0.0025029
0.00255601
0.00260617
0.00265361
0.00269851
0.00274104
0.00278134
0.00281954
0.00285575
0.00289006
0.00292258
0.00295339
0.00298256
0.00301016
0.00303626
0.00306092
0.00308419
0.00310614
0.00312681
0.00314626
0.00316452
0.00318164
0.00319767
0.00321265
0.0032266
0.00323958
0.00325161
0.0032627
0.00327284
0.00328188
0.00328993
0.00329716
0.00330364
0.00330945
0.00331462
0.00331918
0.00332316
0.00332659
0.00332949
0.00333189
0.0033338
0.00333525
0.00333626
0.00333685
0.00333704
0.00333684
0.00333628
0.00333536
0.00333411
0.00333254
0.00333066
0.00332849
0.00332604
0.00332333
0.00332036
0.00331715
0.00331371
0.00331004
0.00330616
0.00330207
0.00329779
0.00329332
0.00328867
0.00328385
0.00327885
0.0032737
0.00326839
0.00326293
0.00325732
0.00325156
0.00324567
0.00323964
0.00323348
0.00322718
0.00322076
0.00321421
0.00320753
0.00320073
0.0031938
0.00318676
0.00317958
0.00317229
0.00316487
0.00315732
0.00314965
0.00314186
0.00313393
0.00312588
0.00311769
0.00310938
0.00310092
0.00309233
0.0030836
0.00307473
0.00306571
0.00305655
0.00304723
0.00303776
0.00302814
0.00301835
0.0030084
0.00299828
0.00298799
0.00297752
0.00296688
0.00295605
0.00294504
0.00293384
0.00292245
0.00291086
0.00289907
0.00288707
0.00287486
0.00286244
0.0028498
0.00283694
0.00282385
0.00281053
0.00279698
0.0027832
0.00276916
0.00275489
0.00274036
0.00272558
0.00271053
0.00269523
0.00267966
0.00266381
0.00264769
0.00263129
0.00261461
0.00259764
0.00258037
0.0025628
0.00254493
0.00252675
0.00250826
0.00248944
0.00247031
0.00245084
0.00243103
0.00241088
0.00239038
0.00236952
0.00234829
0.00232668
0.00230469
0.00228231
0.00225952
0.0022363
0.00221266
0.00218857
0.00216401
0.00213897
0.00211342
0.00208734
0.00206072
0.0020335
0.00200567
0.00197718
0.00194798
0.00191801
0.0018872
0.00185543
0.00182254
0.00178845
0.00175314
0.00171653
0.00167846
0.00163876
0.00159719
0.00155343
0.00150708
0.00145756
0.00140397
0.00134465
0.0012786
0.00120399
0.00111772
0.00101455
0.000885036
0.000710168
0.000446366
5.84399e-05
8.33977e-05
0.000618885
0.000979226
0.00123069
0.00142079
0.00157433
0.00170579
0.00182145
0.00192483
0.00201801
0.00210332
0.00218199
0.00225499
0.00232305
0.00238677
0.00244659
0.00250291
0.00255601
0.00260618
0.00265361
0.00269852
0.00274105
0.00278135
0.00281954
0.00285575
0.00289007
0.00292259
0.00295339
0.00298256
0.00301016
0.00303626
0.00306092
0.0030842
0.00310614
0.00312682
0.00314626
0.00316452
0.00318165
0.00319768
0.00321265
0.00322661
0.00323958
0.00325161
0.0032627
0.00327285
0.00328189
0.00328994
0.00329716
0.00330365
0.00330946
0.00331463
0.00331919
0.00332317
0.0033266
0.0033295
0.00333189
0.0033338
0.00333526
0.00333627
0.00333685
0.00333704
0.00333684
0.00333628
0.00333536
0.00333411
0.00333254
0.00333066
0.0033285
0.00332605
0.00332333
0.00332037
0.00331715
0.00331371
0.00331004
0.00330616
0.00330208
0.00329779
0.00329333
0.00328867
0.00328385
0.00327886
0.0032737
0.00326839
0.00326293
0.00325732
0.00325157
0.00324567
0.00323964
0.00323348
0.00322719
0.00322076
0.00321421
0.00320753
0.00320073
0.00319381
0.00318676
0.00317959
0.00317229
0.00316487
0.00315733
0.00314966
0.00314186
0.00313393
0.00312588
0.0031177
0.00310938
0.00310093
0.00309234
0.00308361
0.00307473
0.00306572
0.00305655
0.00304724
0.00303777
0.00302814
0.00301835
0.0030084
0.00299828
0.00298799
0.00297753
0.00296688
0.00295606
0.00294505
0.00293385
0.00292245
0.00291086
0.00289907
0.00288707
0.00287486
0.00286244
0.0028498
0.00283694
0.00282385
0.00281054
0.00279699
0.0027832
0.00276917
0.00275489
0.00274036
0.00272558
0.00271054
0.00269523
0.00267966
0.00266382
0.0026477
0.0026313
0.00261461
0.00259764
0.00258037
0.0025628
0.00254493
0.00252675
0.00250826
0.00248945
0.00247031
0.00245084
0.00243103
0.00241088
0.00239038
0.00236952
0.00234829
0.00232669
0.0023047
0.00228231
0.00225952
0.00223631
0.00221266
0.00218857
0.00216401
0.00213897
0.00211342
0.00208735
0.00206072
0.0020335
0.00200567
0.00197718
0.00194798
0.00191802
0.0018872
0.00185543
0.00182254
0.00178845
0.00175314
0.00171653
0.00167846
0.00163876
0.00159719
0.00155343
0.00150708
0.00145756
0.00140397
0.00134465
0.0012786
0.00120399
0.00111772
0.00101455
0.000885031
0.000710151
0.000446371
5.84464e-05
0.000102651
0.000939548
0.00167196
0.00222104
0.00265278
0.00300974
0.0033156
0.00358421
0.00382393
0.00404027
0.00423739
0.00441826
0.00458515
0.00473982
0.00488367
0.00501784
0.00514327
0.00526077
0.00537101
0.00547456
0.00557196
0.00566363
0.00574999
0.00583138
0.00590814
0.00598054
0.00604886
0.00611333
0.00617417
0.00623158
0.00628576
0.00633686
0.00638506
0.0064305
0.00647332
0.00651364
0.00655158
0.00658726
0.00662078
0.00665224
0.00668172
0.00670931
0.00673506
0.00675903
0.00678122
0.00680158
0.00682023
0.00683734
0.00685303
0.00686742
0.00688058
0.00689258
0.00690347
0.00691332
0.00692216
0.00693004
0.006937
0.00694309
0.00694833
0.00695277
0.00695643
0.00695934
0.00696155
0.00696307
0.00696393
0.00696416
0.00696378
0.00696281
0.00696128
0.00695922
0.00695662
0.00695353
0.00694995
0.0069459
0.0069414
0.00693646
0.0069311
0.00692533
0.00691916
0.0069126
0.00690567
0.00689836
0.00689071
0.0068827
0.00687435
0.00686567
0.00685665
0.00684732
0.00683766
0.00682769
0.00681741
0.00680682
0.00679592
0.00678472
0.00677321
0.0067614
0.00674929
0.00673687
0.00672415
0.00671112
0.00669778
0.00668413
0.00667017
0.00665588
0.00664128
0.00662635
0.0066111
0.00659551
0.00657958
0.00656331
0.00654668
0.0065297
0.00651236
0.00649466
0.00647657
0.00645811
0.00643925
0.00642
0.00640035
0.00638029
0.00635981
0.0063389
0.00631755
0.00629576
0.00627353
0.00625083
0.00622766
0.00620402
0.00617989
0.00615526
0.00613013
0.00610449
0.00607832
0.00605163
0.00602439
0.0059966
0.00596825
0.00593933
0.00590983
0.00587974
0.00584904
0.00581774
0.00578581
0.00575325
0.00572004
0.00568618
0.00565165
0.00561644
0.00558054
0.00554393
0.0055066
0.00546854
0.00542972
0.00539015
0.00534979
0.00530864
0.00526667
0.00522386
0.0051802
0.00513565
0.00509021
0.00504384
0.00499651
0.0049482
0.00489887
0.00484848
0.004797
0.00474438
0.00469058
0.00463554
0.00457921
0.00452151
0.00446237
0.00440171
0.00433942
0.0042754
0.00420952
0.00414161
0.00407148
0.0039989
0.00392359
0.00384531
0.00376381
0.00367872
0.0035896
0.00349586
0.00339683
0.00329158
0.00317892
0.00305726
0.00292441
0.00277727
0.00261201
0.00242395
0.00220543
0.00194478
0.00162343
0.00121128
0.000664524
7.25656e-05
0.000102651
0.000939553
0.00167197
0.00222105
0.0026528
0.00300976
0.00331561
0.00358422
0.00382395
0.00404028
0.0042374
0.00441827
0.00458516
0.00473983
0.00488368
0.00501785
0.00514328
0.00526078
0.00537101
0.00547457
0.00557196
0.00566364
0.00575
0.00583139
0.00590815
0.00598055
0.00604887
0.00611333
0.00617417
0.00623159
0.00628576
0.00633687
0.00638507
0.00643051
0.00647332
0.00651364
0.00655159
0.00658727
0.00662079
0.00665225
0.00668173
0.00670931
0.00673506
0.00675903
0.00678122
0.00680158
0.00682023
0.00683734
0.00685304
0.00686743
0.00688058
0.00689258
0.00690348
0.00691332
0.00692216
0.00693004
0.00693701
0.00694309
0.00694833
0.00695277
0.00695643
0.00695935
0.00696155
0.00696307
0.00696393
0.00696416
0.00696378
0.00696281
0.00696129
0.00695922
0.00695663
0.00695353
0.00694995
0.0069459
0.0069414
0.00693646
0.0069311
0.00692533
0.00691916
0.0069126
0.00690567
0.00689837
0.00689071
0.0068827
0.00687435
0.00686567
0.00685666
0.00684732
0.00683766
0.00682769
0.00681741
0.00680682
0.00679592
0.00678472
0.00677321
0.0067614
0.00674929
0.00673687
0.00672415
0.00671112
0.00669778
0.00668413
0.00667017
0.00665589
0.00664128
0.00662636
0.0066111
0.00659551
0.00657958
0.00656331
0.00654668
0.00652971
0.00651237
0.00649466
0.00647657
0.00645811
0.00643925
0.00642001
0.00640035
0.00638029
0.00635981
0.0063389
0.00631755
0.00629577
0.00627353
0.00625083
0.00622766
0.00620402
0.00617989
0.00615526
0.00613013
0.00610449
0.00607833
0.00605163
0.00602439
0.0059966
0.00596825
0.00593933
0.00590983
0.00587974
0.00584904
0.00581774
0.00578581
0.00575325
0.00572004
0.00568618
0.00565165
0.00561644
0.00558054
0.00554393
0.0055066
0.00546854
0.00542972
0.00539015
0.00534979
0.00530864
0.00526667
0.00522386
0.0051802
0.00513565
0.00509021
0.00504384
0.00499651
0.0049482
0.00489887
0.00484848
0.004797
0.00474438
0.00469058
0.00463554
0.00457921
0.00452151
0.00446237
0.00440171
0.00433942
0.0042754
0.00420952
0.00414161
0.00407148
0.0039989
0.00392359
0.00384531
0.00376381
0.00367872
0.0035896
0.00349586
0.00339683
0.00329158
0.00317892
0.00305726
0.00292441
0.00277727
0.00261201
0.00242395
0.00220543
0.00194478
0.00162343
0.00121128
0.000664533
7.25643e-05
0.000116157
0.00113775
0.00214219
0.00294071
0.00359188
0.0041406
0.00461519
0.00503378
0.00540833
0.00574709
0.00605603
0.00633961
0.00660121
0.00684352
0.00706866
0.00727841
0.00747422
0.00765734
0.00782883
0.00798964
0.00814058
0.00828237
0.00841568
0.00854109
0.00865912
0.00877028
0.00887499
0.00897367
0.00906669
0.00915439
0.00923709
0.00931509
0.00938866
0.00945804
0.00952348
0.00958518
0.00964335
0.00969818
0.00974983
0.00979846
0.00984423
0.00988725
0.00992765
0.0099655
0.0100009
0.0100338
0.0100645
0.010093
0.0101196
0.0101442
0.0101672
0.0101884
0.0102081
0.0102263
0.0102431
0.0102586
0.0102727
0.0102856
0.0102973
0.0103078
0.0103172
0.0103256
0.010333
0.0103394
0.0103448
0.0103493
0.010353
0.0103558
0.0103577
0.0103589
0.0103593
0.010359
0.010358
0.0103562
0.0103538
0.0103507
0.010347
0.0103426
0.0103377
0.0103321
0.010326
0.0103192
0.010312
0.0103041
0.0102958
0.0102869
0.0102775
0.0102675
0.0102571
0.0102461
0.0102346
0.0102226
0.0102102
0.0101972
0.0101837
0.0101698
0.0101553
0.0101403
0.0101248
0.0101089
0.0100924
0.0100754
0.0100578
0.0100398
0.0100212
0.0100021
0.00998247
0.00996227
0.00994151
0.00992019
0.0098983
0.00987582
0.00985275
0.00982908
0.0098048
0.00977989
0.00975436
0.00972817
0.00970134
0.00967383
0.00964565
0.00961678
0.0095872
0.0095569
0.00952588
0.00949411
0.00946159
0.00942829
0.00939421
0.00935933
0.00932364
0.00928711
0.00924975
0.00921152
0.00917242
0.00913243
0.00909154
0.00904972
0.00900696
0.00896324
0.00891854
0.00887285
0.00882615
0.00877841
0.00872963
0.00867977
0.00862881
0.00857674
0.00852353
0.00846916
0.0084136
0.00835682
0.00829881
0.00823952
0.00817893
0.00811701
0.00805373
0.00798904
0.00792291
0.00785529
0.00778615
0.00771544
0.0076431
0.00756907
0.0074933
0.00741573
0.00733627
0.00725485
0.00717138
0.00708576
0.00699788
0.00690763
0.00681486
0.00671942
0.00662113
0.00651978
0.00641515
0.00630696
0.00619488
0.00607853
0.0059575
0.0058313
0.00569939
0.0055611
0.0054156
0.00526188
0.00509865
0.0049243
0.00473682
0.00453359
0.00431116
0.00406504
0.00378926
0.00347649
0.00311613
0.00269318
0.00218645
0.00156713
0.000808842
8.26787e-05
0.000116157
0.00113775
0.0021422
0.00294072
0.00359189
0.00414062
0.00461521
0.0050338
0.00540835
0.0057471
0.00605605
0.00633962
0.00660123
0.00684353
0.00706868
0.00727842
0.00747423
0.00765735
0.00782885
0.00798965
0.00814059
0.00828239
0.00841569
0.0085411
0.00865914
0.00877029
0.008875
0.00897368
0.0090667
0.0091544
0.0092371
0.0093151
0.00938867
0.00945805
0.00952348
0.00958519
0.00964336
0.00969818
0.00974983
0.00979847
0.00984423
0.00988726
0.00992765
0.00996551
0.0100009
0.0100338
0.0100645
0.010093
0.0101196
0.0101442
0.0101672
0.0101884
0.0102081
0.0102263
0.0102431
0.0102586
0.0102727
0.0102856
0.0102973
0.0103078
0.0103172
0.0103256
0.010333
0.0103394
0.0103448
0.0103493
0.010353
0.0103558
0.0103577
0.0103589
0.0103593
0.010359
0.010358
0.0103562
0.0103538
0.0103507
0.010347
0.0103426
0.0103377
0.0103321
0.010326
0.0103192
0.010312
0.0103041
0.0102958
0.0102869
0.0102775
0.0102675
0.0102571
0.0102461
0.0102346
0.0102226
0.0102102
0.0101972
0.0101837
0.0101698
0.0101553
0.0101403
0.0101248
0.0101089
0.0100924
0.0100754
0.0100578
0.0100398
0.0100212
0.0100021
0.00998247
0.00996227
0.00994151
0.00992019
0.00989829
0.00987582
0.00985275
0.00982908
0.0098048
0.00977989
0.00975435
0.00972817
0.00970134
0.00967383
0.00964565
0.00961678
0.0095872
0.0095569
0.00952588
0.00949411
0.00946158
0.00942829
0.00939421
0.00935933
0.00932363
0.00928711
0.00924975
0.00921152
0.00917242
0.00913243
0.00909154
0.00904972
0.00900695
0.00896323
0.00891854
0.00887285
0.00882615
0.00877841
0.00872962
0.00867976
0.00862881
0.00857674
0.00852353
0.00846916
0.0084136
0.00835682
0.0082988
0.00823952
0.00817893
0.00811701
0.00805373
0.00798904
0.00792291
0.00785529
0.00778615
0.00771544
0.00764309
0.00756907
0.0074933
0.00741572
0.00733626
0.00725484
0.00717137
0.00708575
0.00699788
0.00690763
0.00681486
0.00671941
0.00662112
0.00651978
0.00641515
0.00630696
0.00619487
0.00607853
0.0059575
0.0058313
0.00569939
0.0055611
0.0054156
0.00526188
0.00509864
0.00492429
0.00473682
0.00453359
0.00431116
0.00406503
0.00378926
0.00347649
0.00311613
0.00269318
0.00218645
0.00156713
0.000808843
8.26783e-05
0.000127157
0.00127225
0.00247931
0.00347998
0.00431667
0.00503221
0.00565665
0.00621056
0.00670821
0.00715974
0.00757259
0.00795232
0.00830326
0.00862878
0.00893163
0.00921406
0.00947794
0.00972488
0.00995627
0.0101733
0.0103771
0.0105685
0.0107485
0.0109179
0.0110772
0.0112273
0.0113687
0.0115019
0.0116275
0.0117459
0.0118576
0.0119631
0.0120625
0.0121564
0.0122451
0.0123288
0.0124078
0.0124824
0.0125529
0.0126194
0.0126821
0.0127414
0.0127972
0.0128498
0.0128992
0.0129457
0.0129893
0.0130302
0.0130686
0.0131046
0.0131384
0.0131701
0.0131997
0.0132275
0.0132535
0.0132777
0.0133003
0.0133213
0.0133407
0.0133587
0.0133754
0.0133906
0.0134046
0.0134173
0.0134288
0.0134392
0.0134484
0.0134565
0.0134636
0.0134697
0.0134747
0.0134788
0.013482
0.0134843
0.0134856
0.0134861
0.0134858
0.0134846
0.0134826
0.0134798
0.0134763
0.013472
0.0134669
0.0134611
0.0134545
0.0134473
0.0134393
0.0134306
0.0134212
0.0134111
0.0134003
0.0133888
0.0133766
0.0133638
0.0133502
0.013336
0.013321
0.0133054
0.013289
0.013272
0.0132542
0.0132357
0.0132165
0.0131966
0.0131759
0.0131544
0.0131323
0.0131093
0.0130856
0.0130611
0.0130357
0.0130096
0.0129826
0.0129548
0.0129262
0.0128967
0.0128663
0.012835
0.0128027
0.0127696
0.0127355
0.0127005
0.0126644
0.0126274
0.0125894
0.0125503
0.0125102
0.012469
0.0124267
0.0123833
0.0123387
0.0122931
0.0122462
0.0121981
0.0121489
0.0120984
0.0120466
0.0119935
0.0119391
0.0118834
0.0118263
0.0117678
0.0117079
0.0116466
0.0115837
0.0115194
0.0114535
0.011386
0.011317
0.0112463
0.0111739
0.0110997
0.0110238
0.0109461
0.0108666
0.0107851
0.0107017
0.0106163
0.0105288
0.0104392
0.0103473
0.0102532
0.0101568
0.0100579
0.00995644
0.00985239
0.00974559
0.00963593
0.00952328
0.00940748
0.00928838
0.00916578
0.00903949
0.00890927
0.00877485
0.00863593
0.00849217
0.00834316
0.00818844
0.00802747
0.00785964
0.00768423
0.00750042
0.00730719
0.00710333
0.00688738
0.00665752
0.0064115
0.00614653
0.00585908
0.00554468
0.00519771
0.00481088
0.00437493
0.00387802
0.00330422
0.00263314
0.00184109
0.000918735
9.07181e-05
0.000127157
0.00127226
0.00247932
0.00347999
0.00431669
0.00503223
0.00565667
0.00621058
0.00670823
0.00715977
0.00757261
0.00795234
0.00830328
0.0086288
0.00893165
0.00921408
0.00947796
0.0097249
0.00995629
0.0101733
0.0103771
0.0105686
0.0107486
0.0109179
0.0110773
0.0112273
0.0113687
0.0115019
0.0116275
0.0117459
0.0118577
0.0119631
0.0120625
0.0121564
0.0122451
0.0123288
0.0124078
0.0124824
0.0125529
0.0126194
0.0126822
0.0127414
0.0127972
0.0128498
0.0128992
0.0129457
0.0129893
0.0130302
0.0130686
0.0131046
0.0131384
0.0131701
0.0131997
0.0132275
0.0132535
0.0132777
0.0133003
0.0133213
0.0133407
0.0133587
0.0133754
0.0133906
0.0134046
0.0134173
0.0134288
0.0134392
0.0134484
0.0134565
0.0134636
0.0134697
0.0134747
0.0134788
0.013482
0.0134843
0.0134856
0.0134861
0.0134858
0.0134846
0.0134826
0.0134798
0.0134763
0.013472
0.0134669
0.0134611
0.0134545
0.0134473
0.0134393
0.0134306
0.0134212
0.0134111
0.0134003
0.0133888
0.0133766
0.0133638
0.0133502
0.013336
0.013321
0.0133054
0.013289
0.013272
0.0132542
0.0132357
0.0132165
0.0131966
0.0131759
0.0131544
0.0131323
0.0131093
0.0130856
0.0130611
0.0130357
0.0130096
0.0129826
0.0129548
0.0129262
0.0128967
0.0128663
0.012835
0.0128027
0.0127696
0.0127355
0.0127005
0.0126644
0.0126274
0.0125894
0.0125503
0.0125102
0.012469
0.0124267
0.0123833
0.0123387
0.0122931
0.0122462
0.0121981
0.0121489
0.0120984
0.0120466
0.0119935
0.0119391
0.0118834
0.0118263
0.0117678
0.0117079
0.0116466
0.0115837
0.0115194
0.0114535
0.011386
0.011317
0.0112463
0.0111738
0.0110997
0.0110238
0.0109461
0.0108666
0.0107851
0.0107017
0.0106163
0.0105288
0.0104392
0.0103473
0.0102532
0.0101568
0.0100579
0.00995644
0.00985239
0.00974559
0.00963593
0.00952328
0.00940748
0.00928837
0.00916578
0.00903949
0.00890926
0.00877484
0.00863593
0.00849216
0.00834315
0.00818843
0.00802747
0.00785964
0.00768423
0.00750041
0.00730718
0.00710333
0.00688738
0.00665752
0.0064115
0.00614653
0.00585908
0.00554468
0.00519771
0.00481088
0.00437493
0.00387802
0.00330422
0.00263314
0.00184109
0.000918734
9.07181e-05
0.000136458
0.00137846
0.00274041
0.00390349
0.00489408
0.00575127
0.00650525
0.00717781
0.00778463
0.00833713
0.00884381
0.0093111
0.009744
0.0101465
0.0105217
0.0108723
0.0112004
0.011508
0.0117967
0.0120679
0.0123228
0.0125626
0.0127883
0.0130008
0.013201
0.0133897
0.0135676
0.0137354
0.0138937
0.0140431
0.0141842
0.0143174
0.0144432
0.0145621
0.0146745
0.0147807
0.0148812
0.0149762
0.015066
0.0151511
0.0152315
0.0153075
0.0153794
0.0154474
0.0155116
0.0155723
0.0156295
0.0156835
0.0157345
0.0157826
0.015828
0.0158708
0.0159113
0.0159494
0.0159853
0.0160192
0.016051
0.016081
0.0161091
0.0161355
0.0161601
0.0161832
0.0162047
0.0162247
0.0162432
0.0162603
0.0162761
0.0162906
0.0163038
0.0163157
0.0163265
0.016336
0.0163445
0.0163518
0.0163581
0.0163633
0.0163675
0.0163706
0.0163728
0.0163739
0.0163741
0.0163734
0.0163718
0.0163692
0.0163657
0.0163613
0.016356
0.0163498
0.0163427
0.0163347
0.0163259
0.0163162
0.0163056
0.0162941
0.0162818
0.0162686
0.0162544
0.0162394
0.0162235
0.0162067
0.016189
0.0161704
0.0161509
0.0161304
0.0161089
0.0160865
0.0160632
0.0160388
0.0160135
0.0159871
0.0159597
0.0159313
0.0159018
0.0158713
0.0158396
0.0158068
0.0157729
0.0157379
0.0157017
0.0156643
0.0156256
0.0155858
0.0155447
0.0155023
0.0154586
0.0154136
0.0153673
0.0153195
0.0152704
0.0152198
0.0151678
0.0151143
0.0150593
0.0150028
0.0149447
0.014885
0.0148236
0.0147606
0.014696
0.0146295
0.0145614
0.0144914
0.0144196
0.0143459
0.0142702
0.0141927
0.0141131
0.0140315
0.0139478
0.0138619
0.0137739
0.0136836
0.013591
0.013496
0.0133986
0.0132987
0.0131962
0.0130911
0.0129833
0.0128726
0.0127591
0.0126425
0.0125229
0.0124
0.0122738
0.0121441
0.0120107
0.0118736
0.0117325
0.0115872
0.0114375
0.0112831
0.0111238
0.0109593
0.0107892
0.0106131
0.0104305
0.0102409
0.0100437
0.00983825
0.00962365
0.00939899
0.00916316
0.00891484
0.00865246
0.00837412
0.00807753
0.00775989
0.00741776
0.00704693
0.00664216
0.00619695
0.00570316
0.0051507
0.00452725
0.00381731
0.00300256
0.00206495
0.00100891
9.75001e-05
0.000136458
0.00137846
0.00274042
0.0039035
0.00489409
0.00575129
0.00650527
0.00717784
0.00778465
0.00833716
0.00884383
0.00931112
0.00974403
0.0101465
0.0105217
0.0108723
0.0112005
0.0115081
0.0117967
0.0120679
0.0123228
0.0125626
0.0127883
0.0130008
0.0132011
0.0133898
0.0135677
0.0137355
0.0138938
0.0140432
0.0141842
0.0143174
0.0144432
0.0145621
0.0146745
0.0147807
0.0148812
0.0149762
0.0150661
0.0151511
0.0152315
0.0153075
0.0153794
0.0154474
0.0155116
0.0155723
0.0156295
0.0156835
0.0157345
0.0157826
0.015828
0.0158708
0.0159113
0.0159494
0.0159853
0.0160192
0.016051
0.016081
0.0161091
0.0161355
0.0161601
0.0161832
0.0162047
0.0162247
0.0162432
0.0162603
0.0162761
0.0162906
0.0163038
0.0163157
0.0163265
0.016336
0.0163445
0.0163518
0.0163581
0.0163633
0.0163675
0.0163706
0.0163728
0.0163739
0.0163741
0.0163734
0.0163718
0.0163692
0.0163657
0.0163613
0.016356
0.0163498
0.0163427
0.0163347
0.0163259
0.0163162
0.0163056
0.0162941
0.0162818
0.0162686
0.0162544
0.0162394
0.0162235
0.0162067
0.016189
0.0161704
0.0161509
0.0161304
0.0161089
0.0160865
0.0160632
0.0160388
0.0160135
0.0159871
0.0159597
0.0159313
0.0159018
0.0158713
0.0158396
0.0158068
0.0157729
0.0157379
0.0157017
0.0156643
0.0156256
0.0155858
0.0155447
0.0155023
0.0154586
0.0154136
0.0153673
0.0153195
0.0152704
0.0152198
0.0151678
0.0151143
0.0150593
0.0150028
0.0149447
0.014885
0.0148236
0.0147606
0.014696
0.0146295
0.0145614
0.0144914
0.0144196
0.0143459
0.0142702
0.0141927
0.0141131
0.0140315
0.0139478
0.0138619
0.0137739
0.0136836
0.0135909
0.013496
0.0133986
0.0132987
0.0131962
0.0130911
0.0129833
0.0128726
0.0127591
0.0126425
0.0125229
0.0124
0.0122738
0.0121441
0.0120107
0.0118736
0.0117325
0.0115872
0.0114375
0.0112831
0.0111238
0.0109593
0.0107892
0.0106131
0.0104305
0.0102409
0.0100437
0.00983824
0.00962365
0.00939899
0.00916316
0.00891484
0.00865246
0.00837412
0.00807753
0.00775988
0.00741776
0.00704693
0.00664215
0.00619694
0.00570316
0.0051507
0.00452725
0.00381731
0.00300256
0.00206495
0.00100891
9.75001e-05
0.000144679
0.0014692
0.00295551
0.00425071
0.00536902
0.00634588
0.00721088
0.00798635
0.00868882
0.00933057
0.00992086
0.0104668
0.0109738
0.0114464
0.011888
0.0123016
0.0126895
0.0130539
0.0133966
0.0137191
0.0140228
0.014309
0.0145788
0.0148332
0.0150733
0.0152999
0.0155138
0.0157157
0.0159065
0.0160868
0.0162573
0.0164184
0.0165708
0.0167149
0.0168513
0.0169805
0.0171028
0.0172186
0.0173284
0.0174324
0.0175309
0.0176243
0.0177129
0.0177968
0.0178763
0.0179516
0.018023
0.0180906
0.0181547
0.0182155
0.0182731
0.0183276
0.0183794
0.0184284
0.0184749
0.018519
0.0185607
0.0186001
0.0186375
0.0186728
0.0187061
0.0187375
0.0187672
0.018795
0.0188212
0.0188458
0.0188687
0.0188902
0.0189101
0.0189287
0.0189458
0.0189615
0.018976
0.0189891
0.019001
0.0190116
0.019021
0.0190292
0.0190363
0.0190422
0.019047
0.0190506
0.0190532
0.0190546
0.019055
0.0190543
0.0190525
0.0190497
0.0190458
0.0190408
0.0190348
0.0190278
0.0190197
0.0190105
0.0190003
0.018989
0.0189767
0.0189633
0.0189488
0.0189332
0.0189165
0.0188987
0.0188798
0.0188597
0.0188385
0.0188161
0.0187925
0.0187678
0.0187418
0.0187146
0.0186862
0.0186565
0.0186255
0.0185932
0.0185595
0.0185246
0.0184882
0.0184504
0.0184113
0.0183706
0.0183285
0.0182849
0.0182398
0.0181931
0.0181448
0.0180949
0.0180433
0.0179901
0.0179352
0.0178785
0.0178201
0.0177598
0.0176978
0.0176338
0.0175679
0.0175
0.0174302
0.0173583
0.0172844
0.0172083
0.0171301
0.0170496
0.0169669
0.0168819
0.0167945
0.0167047
0.0166125
0.0165177
0.0164203
0.0163203
0.0162176
0.0161121
0.0160037
0.0158924
0.0157781
0.0156607
0.0155402
0.0154163
0.015289
0.0151583
0.0150239
0.0148858
0.0147439
0.0145979
0.0144477
0.0142932
0.0141341
0.0139703
0.0138015
0.0136275
0.013448
0.0132626
0.0130711
0.012873
0.0126679
0.0124553
0.0122346
0.0120052
0.0117663
0.011517
0.0112563
0.0109832
0.0106961
0.0103935
0.0100736
0.00973396
0.00937198
0.00898436
0.00856718
0.00811567
0.00762404
0.00708525
0.00649075
0.00583015
0.00509105
0.00425896
0.00331806
0.00225538
0.00108623
0.000103431
0.000144679
0.00146921
0.00295552
0.00425073
0.00536903
0.0063459
0.00721091
0.00798638
0.00868884
0.00933059
0.00992088
0.0104668
0.0109738
0.0114464
0.011888
0.0123016
0.0126895
0.0130539
0.0133966
0.0137191
0.0140228
0.014309
0.0145788
0.0148332
0.0150733
0.0152999
0.0155138
0.0157158
0.0159066
0.0160869
0.0162573
0.0164184
0.0165708
0.0167149
0.0168514
0.0169805
0.0171028
0.0172186
0.0173284
0.0174324
0.0175309
0.0176243
0.0177129
0.0177968
0.0178763
0.0179517
0.018023
0.0180907
0.0181547
0.0182155
0.0182731
0.0183277
0.0183794
0.0184284
0.0184749
0.018519
0.0185607
0.0186001
0.0186375
0.0186728
0.0187061
0.0187375
0.0187672
0.018795
0.0188212
0.0188458
0.0188687
0.0188902
0.0189101
0.0189287
0.0189458
0.0189615
0.018976
0.0189891
0.019001
0.0190116
0.019021
0.0190292
0.0190363
0.0190422
0.019047
0.0190506
0.0190532
0.0190546
0.019055
0.0190543
0.0190525
0.0190497
0.0190458
0.0190408
0.0190348
0.0190278
0.0190197
0.0190105
0.0190003
0.018989
0.0189767
0.0189633
0.0189488
0.0189332
0.0189165
0.0188987
0.0188798
0.0188597
0.0188385
0.0188161
0.0187925
0.0187678
0.0187418
0.0187146
0.0186862
0.0186565
0.0186255
0.0185932
0.0185595
0.0185246
0.0184882
0.0184504
0.0184112
0.0183706
0.0183285
0.0182849
0.0182398
0.0181931
0.0181448
0.0180949
0.0180433
0.0179901
0.0179352
0.0178785
0.0178201
0.0177598
0.0176978
0.0176338
0.0175679
0.0175
0.0174302
0.0173583
0.0172844
0.0172083
0.0171301
0.0170496
0.0169669
0.0168819
0.0167945
0.0167047