/*--------------------------------*- C++ -*----------------------------------*\
  =========                 |
  \\      /  F ield         | OpenFOAM: The Open Source CFD Toolbox
   \\    /   O peration     | Website:  https://openfoam.org
    \\  /    A nd           | Version:  8
     \\/     M anipulation  |
\*---------------------------------------------------------------------------*/
FoamFile
{
    version     2.0;
    format      ascii;
    class       volScalarField;
    location    "2300";
    object      alphat;
}
// * * * * * * * * * * * * * * * * * * * * * * * * * * * * * * * * * * * * * //

dimensions      [1 -1 -1 0 0 0 0];

internalField   nonuniform List<scalar> 
46000
(
1.73327e-07
8.72426e-07
1.78602e-06
2.67762e-06
3.53493e-06
4.37124e-06
5.18864e-06
5.99218e-06
6.7852e-06
7.57225e-06
8.35108e-06
9.12395e-06
9.89184e-06
1.06551e-05
1.14138e-05
1.21679e-05
1.29172e-05
1.36613e-05
1.43999e-05
1.51325e-05
1.58586e-05
1.65775e-05
1.72886e-05
1.79913e-05
1.86848e-05
1.93683e-05
2.0041e-05
2.07022e-05
2.13509e-05
2.19864e-05
2.26076e-05
2.32137e-05
2.38039e-05
2.4377e-05
2.49324e-05
2.54689e-05
2.59858e-05
2.64822e-05
2.69571e-05
2.74098e-05
2.78394e-05
2.82452e-05
2.86265e-05
2.89826e-05
2.93129e-05
2.96169e-05
2.98939e-05
3.01438e-05
3.0366e-05
3.05604e-05
3.07267e-05
3.08648e-05
3.09747e-05
3.10564e-05
3.11102e-05
3.1136e-05
3.11344e-05
3.11056e-05
3.105e-05
3.09683e-05
3.08611e-05
3.07293e-05
3.05748e-05
3.03992e-05
3.02012e-05
2.99814e-05
2.97407e-05
2.94801e-05
2.92005e-05
2.89031e-05
2.85889e-05
2.8259e-05
2.79146e-05
2.75567e-05
2.71865e-05
2.68051e-05
2.64138e-05
2.60135e-05
2.56054e-05
2.51907e-05
2.47703e-05
2.43454e-05
2.3917e-05
2.3486e-05
2.30534e-05
2.26203e-05
2.21874e-05
2.17556e-05
2.13257e-05
2.08985e-05
2.04748e-05
2.00552e-05
1.96403e-05
1.92308e-05
1.88272e-05
1.84301e-05
1.80398e-05
1.76569e-05
1.72816e-05
1.69144e-05
1.65555e-05
1.62052e-05
1.58638e-05
1.55313e-05
1.5208e-05
1.48939e-05
1.45892e-05
1.42939e-05
1.4008e-05
1.37316e-05
1.34645e-05
1.32067e-05
1.29582e-05
1.27188e-05
1.24884e-05
1.22669e-05
1.20541e-05
1.18499e-05
1.16539e-05
1.14662e-05
1.12863e-05
1.11141e-05
1.09494e-05
1.07919e-05
1.06413e-05
1.04974e-05
1.03599e-05
1.02286e-05
1.01029e-05
9.9828e-06
9.86806e-06
9.75822e-06
9.65294e-06
9.55188e-06
9.45473e-06
9.36113e-06
9.27075e-06
9.18326e-06
9.09829e-06
9.01551e-06
8.93455e-06
8.85507e-06
8.77671e-06
8.69912e-06
8.62192e-06
8.54477e-06
8.46731e-06
8.38917e-06
8.31002e-06
8.22948e-06
8.14723e-06
8.06291e-06
7.9762e-06
7.88677e-06
7.79431e-06
7.69853e-06
7.59913e-06
7.49585e-06
7.38844e-06
7.27667e-06
7.16032e-06
7.03922e-06
6.91319e-06
6.78209e-06
6.64618e-06
6.50672e-06
6.36244e-06
6.2131e-06
6.05868e-06
5.89925e-06
5.73493e-06
5.56587e-06
5.39224e-06
5.21428e-06
5.03224e-06
4.84641e-06
4.6571e-06
4.46464e-06
4.26941e-06
4.07179e-06
3.87218e-06
3.67097e-06
3.46858e-06
3.26542e-06
3.06187e-06
2.85831e-06
2.65507e-06
2.45234e-06
2.24943e-06
2.0483e-06
1.84799e-06
1.64798e-06
1.44816e-06
1.24726e-06
1.04549e-06
8.4272e-07
6.33308e-07
4.14319e-07
1.95014e-07
3.72801e-08
1.73331e-07
8.72458e-07
1.78608e-06
2.6777e-06
3.53504e-06
4.37136e-06
5.18877e-06
5.99231e-06
6.78532e-06
7.57238e-06
8.35121e-06
9.12408e-06
9.89197e-06
1.06552e-05
1.14139e-05
1.2168e-05
1.29173e-05
1.36615e-05
1.44001e-05
1.51327e-05
1.58587e-05
1.65776e-05
1.72887e-05
1.79914e-05
1.86849e-05
1.93684e-05
2.00411e-05
2.07023e-05
2.1351e-05
2.19865e-05
2.26077e-05
2.32138e-05
2.3804e-05
2.43771e-05
2.49325e-05
2.5469e-05
2.59859e-05
2.64823e-05
2.69572e-05
2.74099e-05
2.78395e-05
2.82453e-05
2.86266e-05
2.89827e-05
2.9313e-05
2.96169e-05
2.9894e-05
3.01439e-05
3.03661e-05
3.05605e-05
3.07268e-05
3.08649e-05
3.09748e-05
3.10565e-05
3.11102e-05
3.11361e-05
3.11345e-05
3.11056e-05
3.10501e-05
3.09684e-05
3.08611e-05
3.07293e-05
3.05749e-05
3.03993e-05
3.02013e-05
2.99815e-05
2.97408e-05
2.94801e-05
2.92006e-05
2.89031e-05
2.85889e-05
2.8259e-05
2.79146e-05
2.75567e-05
2.71865e-05
2.68052e-05
2.64138e-05
2.60135e-05
2.56054e-05
2.51907e-05
2.47703e-05
2.43454e-05
2.3917e-05
2.3486e-05
2.30534e-05
2.26203e-05
2.21874e-05
2.17556e-05
2.13257e-05
2.08985e-05
2.04748e-05
2.00552e-05
1.96403e-05
1.92308e-05
1.88272e-05
1.84301e-05
1.80398e-05
1.76569e-05
1.72816e-05
1.69144e-05
1.65555e-05
1.62052e-05
1.58637e-05
1.55313e-05
1.52079e-05
1.48939e-05
1.45892e-05
1.42939e-05
1.4008e-05
1.37315e-05
1.34644e-05
1.32067e-05
1.29581e-05
1.27188e-05
1.24884e-05
1.22669e-05
1.20541e-05
1.18498e-05
1.16539e-05
1.14661e-05
1.12863e-05
1.11141e-05
1.09494e-05
1.07918e-05
1.06413e-05
1.04974e-05
1.03598e-05
1.02285e-05
1.01028e-05
9.98277e-06
9.86803e-06
9.75819e-06
9.65291e-06
9.55185e-06
9.4547e-06
9.3611e-06
9.27072e-06
9.18322e-06
9.09826e-06
9.01547e-06
8.93452e-06
8.85504e-06
8.77668e-06
8.69908e-06
8.62189e-06
8.54474e-06
8.46728e-06
8.38915e-06
8.30999e-06
8.22945e-06
8.1472e-06
8.06288e-06
7.97617e-06
7.88674e-06
7.79429e-06
7.6985e-06
7.59911e-06
7.49583e-06
7.38842e-06
7.27665e-06
7.1603e-06
7.0392e-06
6.91317e-06
6.78208e-06
6.64615e-06
6.50669e-06
6.36242e-06
6.21308e-06
6.05866e-06
5.89924e-06
5.73492e-06
5.56585e-06
5.39223e-06
5.21427e-06
5.03223e-06
4.8464e-06
4.65709e-06
4.46463e-06
4.26941e-06
4.07179e-06
3.87217e-06
3.67097e-06
3.46858e-06
3.26542e-06
3.06187e-06
2.85831e-06
2.65507e-06
2.45234e-06
2.24943e-06
2.0483e-06
1.84799e-06
1.64799e-06
1.44817e-06
1.24727e-06
1.0455e-06
8.42731e-07
6.33319e-07
4.14327e-07
1.95019e-07
3.72813e-08
7.97768e-07
2.0449e-05
3.88945e-05
5.14666e-05
6.10804e-05
6.89159e-05
7.56586e-05
8.16551e-05
8.71021e-05
9.21246e-05
9.6814e-05
0.000101227
0.000105404
0.000109377
0.000113171
0.000116805
0.000120293
0.000123648
0.000126881
0.000129999
0.000133009
0.000135917
0.000138728
0.000141445
0.000144073
0.000146613
0.000149068
0.00015144
0.00015373
0.000155939
0.000158069
0.00016012
0.000162093
0.000163987
0.000165804
0.000167542
0.000169203
0.000170785
0.000172289
0.000173714
0.00017506
0.000176327
0.000177514
0.000178621
0.000179648
0.000180595
0.00018146
0.000182245
0.000182948
0.000183571
0.000184113
0.000184573
0.000184954
0.000185254
0.000185475
0.000185616
0.00018568
0.000185665
0.000185574
0.000185407
0.000185164
0.000184845
0.000184447
0.000183972
0.000183427
0.000182815
0.000182139
0.000181401
0.000180602
0.000179747
0.000178835
0.000177871
0.000176857
0.000175794
0.000174686
0.000173536
0.000172344
0.000171115
0.000169851
0.000168555
0.000167228
0.000165875
0.000164497
0.000163097
0.000161678
0.000160242
0.000158792
0.000157331
0.00015586
0.000154384
0.000152902
0.000151419
0.000149937
0.000148457
0.000146982
0.000145513
0.000144054
0.000142605
0.00014117
0.000139748
0.000138343
0.000136955
0.000135587
0.000134239
0.000132913
0.000131611
0.000130333
0.000129079
0.000127853
0.000126653
0.000125481
0.000124337
0.000123222
0.000122136
0.00012108
0.000120054
0.000119057
0.00011809
0.000117153
0.000116246
0.000115368
0.000114519
0.000113698
0.000112905
0.00011214
0.000111401
0.000110688
0.00011
0.000109337
0.000108696
0.000108076
0.000107476
0.000106895
0.000106331
0.000105784
0.000105251
0.000104731
0.000104222
0.000103724
0.000103233
0.000102749
0.000102269
0.000101792
0.000101315
0.000100838
0.000100357
9.98719e-05
9.93796e-05
9.88784e-05
9.83664e-05
9.78415e-05
9.73018e-05
9.67453e-05
9.61701e-05
9.55741e-05
9.49556e-05
9.43125e-05
9.36432e-05
9.29456e-05
9.22182e-05
9.1459e-05
9.06663e-05
8.9838e-05
8.89711e-05
8.80585e-05
8.7095e-05
8.60874e-05
8.50356e-05
8.39391e-05
8.27972e-05
8.16091e-05
8.03743e-05
7.90919e-05
7.77613e-05
7.63819e-05
7.49532e-05
7.34743e-05
7.19446e-05
7.03634e-05
6.87297e-05
6.70424e-05
6.53e-05
6.35008e-05
6.16425e-05
5.9722e-05
5.77353e-05
5.56773e-05
5.35416e-05
5.13213e-05
4.89941e-05
4.65383e-05
4.39205e-05
4.10922e-05
3.79597e-05
3.43445e-05
3.00316e-05
2.47646e-05
1.78499e-05
8.10518e-06
1.72634e-07
7.97827e-07
2.04508e-05
3.88976e-05
5.14702e-05
6.10843e-05
6.89198e-05
7.56626e-05
8.16591e-05
8.71062e-05
9.21287e-05
9.68181e-05
0.000101231
0.000105408
0.000109382
0.000113176
0.000116809
0.000120297
0.000123653
0.000126885
0.000130003
0.000133014
0.000135922
0.000138733
0.000141451
0.000144078
0.000146618
0.000149073
0.000151445
0.000153735
0.000155945
0.000158075
0.000160126
0.000162099
0.000163993
0.00016581
0.000167548
0.000169209
0.000170791
0.000172295
0.00017372
0.000175066
0.000176333
0.000177521
0.000178628
0.000179655
0.000180601
0.000181466
0.000182251
0.000182955
0.000183577
0.000184119
0.00018458
0.00018496
0.000185261
0.000185481
0.000185623
0.000185686
0.000185672
0.000185581
0.000185413
0.00018517
0.000184851
0.000184453
0.000183979
0.000183434
0.000182822
0.000182145
0.000181407
0.000180608
0.000179752
0.000178841
0.000177877
0.000176863
0.0001758
0.000174692
0.000173541
0.00017235
0.000171121
0.000169856
0.00016856
0.000167233
0.00016588
0.000164502
0.000163102
0.000161682
0.000160247
0.000158797
0.000157335
0.000155865
0.000154388
0.000152907
0.000151423
0.000149941
0.000148461
0.000146986
0.000145517
0.000144058
0.000142609
0.000141173
0.000139752
0.000138346
0.000136959
0.00013559
0.000134242
0.000132916
0.000131614
0.000130335
0.000129082
0.000127855
0.000126655
0.000125483
0.000124339
0.000123224
0.000122139
0.000121082
0.000120056
0.000119059
0.000118092
0.000117155
0.000116248
0.00011537
0.00011452
0.0001137
0.000112907
0.000112141
0.000111402
0.000110689
0.000110001
0.000109338
0.000108697
0.000108077
0.000107477
0.000106896
0.000106332
0.000105784
0.000105251
0.000104732
0.000104223
0.000103724
0.000103234
0.000102749
0.000102269
0.000101792
0.000101316
0.000100838
0.000100358
9.98721e-05
9.93798e-05
9.88786e-05
9.83665e-05
9.78416e-05
9.73019e-05
9.67453e-05
9.61701e-05
9.55741e-05
9.49555e-05
9.43124e-05
9.3643e-05
9.29455e-05
9.2218e-05
9.14588e-05
9.06661e-05
8.98378e-05
8.89709e-05
8.80584e-05
8.70949e-05
8.60873e-05
8.50355e-05
8.3939e-05
8.2797e-05
8.1609e-05
8.03741e-05
7.90917e-05
7.77612e-05
7.63818e-05
7.4953e-05
7.34742e-05
7.19445e-05
7.03633e-05
6.87296e-05
6.70423e-05
6.53e-05
6.35008e-05
6.16425e-05
5.9722e-05
5.77353e-05
5.56773e-05
5.35417e-05
5.13214e-05
4.89942e-05
4.65384e-05
4.39206e-05
4.10924e-05
3.79598e-05
3.43445e-05
3.00316e-05
2.47646e-05
1.78499e-05
8.10511e-06
1.72633e-07
1.66673e-06
3.78704e-05
7.89037e-05
0.000109411
0.000132894
0.000151864
0.000167828
0.000181681
0.000193981
0.000205088
0.000215252
0.000224647
0.0002334
0.000241606
0.000249336
0.00025665
0.000263591
0.000270197
0.000276498
0.000282518
0.000288278
0.000293795
0.000299083
0.000304156
0.000309024
0.000313695
0.000318177
0.000322478
0.000326603
0.000330557
0.000334344
0.000337969
0.000341435
0.000344744
0.0003479
0.000350903
0.000353758
0.000356464
0.000359025
0.00036144
0.000363712
0.000365841
0.000367828
0.000369675
0.000371382
0.000372951
0.000374381
0.000375675
0.000376832
0.000377855
0.000378743
0.000379498
0.000380121
0.000380614
0.000380977
0.000381211
0.000381318
0.0003813
0.000381157
0.000380891
0.000380502
0.000379989
0.000379351
0.000378589
0.000377712
0.000376725
0.000375633
0.000374439
0.000373146
0.000371759
0.000370281
0.000368714
0.000367064
0.000365333
0.000363524
0.000361643
0.000359692
0.000357675
0.000355597
0.000353461
0.000351271
0.000349031
0.000346746
0.000344419
0.000342053
0.000339655
0.000337226
0.000334771
0.000332295
0.000329801
0.000327293
0.000324774
0.000322249
0.000319721
0.000317193
0.00031467
0.000312154
0.000309649
0.000307157
0.000304683
0.000302229
0.000299798
0.000297393
0.000295015
0.000292668
0.000290354
0.000288074
0.000285831
0.000283627
0.000281463
0.00027934
0.00027726
0.000275224
0.000273233
0.000271287
0.000269387
0.000267533
0.000265726
0.000263966
0.000262252
0.000260584
0.000258962
0.000257384
0.000255851
0.000254362
0.000252915
0.000251509
0.000250142
0.000248811
0.000247515
0.000246252
0.000245019
0.000243815
0.000242637
0.000241482
0.000240348
0.000239232
0.000238131
0.000237042
0.000235962
0.000234889
0.000233818
0.000232746
0.000231671
0.000230588
0.000229495
0.000228387
0.000227262
0.000226116
0.000224945
0.000223745
0.000222514
0.000221248
0.000219943
0.000218597
0.000217205
0.000215765
0.000214273
0.000212727
0.000211122
0.000209457
0.000207727
0.000205929
0.000204057
0.000202104
0.000200061
0.000197932
0.000195719
0.00019342
0.000191035
0.000188561
0.000185997
0.00018334
0.000180589
0.00017774
0.000174791
0.000171739
0.000168579
0.000165308
0.00016192
0.00015841
0.000154769
0.000150989
0.000147061
0.000142969
0.000138698
0.000134227
0.000129528
0.000124566
0.000119284
0.000113609
0.000107433
0.000100586
9.28089e-05
8.37122e-05
7.26638e-05
5.8845e-05
4.07712e-05
1.71207e-05
3.74078e-07
1.6668e-06
3.78734e-05
7.89105e-05
0.00010942
0.000132904
0.000151874
0.000167838
0.000181692
0.000193991
0.000205098
0.000215262
0.000224657
0.00023341
0.000241615
0.000249346
0.000256659
0.000263601
0.000270207
0.000276507
0.000282528
0.000288287
0.000293805
0.000299093
0.000304166
0.000309033
0.000313704
0.000318187
0.000322488
0.000326613
0.000330567
0.000334354
0.000337979
0.000341445
0.000344754
0.00034791
0.000350914
0.000353768
0.000356475
0.000359035
0.00036145
0.000363722
0.000365851
0.000367838
0.000369685
0.000371392
0.000372961
0.000374391
0.000375685
0.000376843
0.000377865
0.000378753
0.000379508
0.000380132
0.000380624
0.000380987
0.000381221
0.000381328
0.00038131
0.000381167
0.000380901
0.000380512
0.000379999
0.00037936
0.000378599
0.000377722
0.000376735
0.000375642
0.000374448
0.000373155
0.000371768
0.000370289
0.000368723
0.000367072
0.000365341
0.000363533
0.000361651
0.0003597
0.000357683
0.000355605
0.000353468
0.000351278
0.000349039
0.000346753
0.000344425
0.00034206
0.000339661
0.000337232
0.000334778
0.000332301
0.000329807
0.000327298
0.00032478
0.000322254
0.000319726
0.000317198
0.000314675
0.000312159
0.000309653
0.000307162
0.000304688
0.000302234
0.000299802
0.000297397
0.000295019
0.000292672
0.000290357
0.000288077
0.000285834
0.00028363
0.000281466
0.000279343
0.000277263
0.000275226
0.000273235
0.000271289
0.000269389
0.000267535
0.000265728
0.000263968
0.000262253
0.000260585
0.000258963
0.000257386
0.000255852
0.000254363
0.000252916
0.00025151
0.000250142
0.000248812
0.000247516
0.000246253
0.00024502
0.000243815
0.000242637
0.000241482
0.000240348
0.000239231
0.00023813
0.000237042
0.000235962
0.000234888
0.000233817
0.000232746
0.00023167
0.000230588
0.000229494
0.000228387
0.000227261
0.000226115
0.000224944
0.000223744
0.000222513
0.000221247
0.000219942
0.000218596
0.000217204
0.000215764
0.000214272
0.000212725
0.000211121
0.000209455
0.000207725
0.000205927
0.000204055
0.000202102
0.000200059
0.000197931
0.000195718
0.000193419
0.000191033
0.000188559
0.000185995
0.000183339
0.000180587
0.000177739
0.00017479
0.000171738
0.000168578
0.000165307
0.000161919
0.000158409
0.000154768
0.000150988
0.00014706
0.000142968
0.000138697
0.000134226
0.000129528
0.000124565
0.000119283
0.000113609
0.000107433
0.000100586
9.28088e-05
8.37121e-05
7.26638e-05
5.8845e-05
4.07712e-05
1.71206e-05
3.74076e-07
2.54151e-06
4.99579e-05
0.000108286
0.000155221
0.000192816
0.000223783
0.000250007
0.000272741
0.00029283
0.000310854
0.000327229
0.000342254
0.000356151
0.000369089
0.0003812
0.000392587
0.000403331
0.0004135
0.000423147
0.000432319
0.000441051
0.000449376
0.000457321
0.000464908
0.000472156
0.000479083
0.000485702
0.000492027
0.000498069
0.000503838
0.000509341
0.000514587
0.000519583
0.000524335
0.000528848
0.000533128
0.000537179
0.000541004
0.000544609
0.000547997
0.00055117
0.000554132
0.000556887
0.000559436
0.000561783
0.00056393
0.000565879
0.000567634
0.000569195
0.000570567
0.000571751
0.000572749
0.000573565
0.000574199
0.000574655
0.000574935
0.000575041
0.000574976
0.000574741
0.000574338
0.000573769
0.000573035
0.000572135
0.000571074
0.000569857
0.000568492
0.000566984
0.000565338
0.00056356
0.000561653
0.000559623
0.000557474
0.00055521
0.000552837
0.00055036
0.000547782
0.000545109
0.000542346
0.000539499
0.000536571
0.000533569
0.000530498
0.000527362
0.000524167
0.000520918
0.000517621
0.000514281
0.000510903
0.000507492
0.000504053
0.000500592
0.000497113
0.000493621
0.000490122
0.00048662
0.00048312
0.000479625
0.000476142
0.000472673
0.000469224
0.000465798
0.000462398
0.000459029
0.000455694
0.000452396
0.000449138
0.000445923
0.000442754
0.000439633
0.000436562
0.000433544
0.000430579
0.000427669
0.000424816
0.00042202
0.000419283
0.000416603
0.000413983
0.000411421
0.000408918
0.000406473
0.000404085
0.000401754
0.000399479
0.000397258
0.00039509
0.000392971
0.000390899
0.000388872
0.000386887
0.00038494
0.00038303
0.000381152
0.000379304
0.000377481
0.000375682
0.0003739
0.000372134
0.000370377
0.000368627
0.000366879
0.000365128
0.00036337
0.0003616
0.000359815
0.000358008
0.000356175
0.000354312
0.000352414
0.000350477
0.000348495
0.000346463
0.000344379
0.000342236
0.000340031
0.000337759
0.000335416
0.000332999
0.000330502
0.000327921
0.000325253
0.000322493
0.000319637
0.000316677
0.000313607
0.000310419
0.000307113
0.000303689
0.000300145
0.000296477
0.000292684
0.000288763
0.000284708
0.000280516
0.00027618
0.000271696
0.000267056
0.000262252
0.000257275
0.000252113
0.000246754
0.000241181
0.000235377
0.000229318
0.000222978
0.000216323
0.000209309
0.000201881
0.000193965
0.000185462
0.000176235
0.000166091
0.000154752
0.00014182
0.000126708
0.000108554
8.61633e-05
5.7992e-05
2.3693e-05
5.87029e-07
2.54161e-06
4.99613e-05
0.000108294
0.000155233
0.00019283
0.000223798
0.000250023
0.000272757
0.000292845
0.00031087
0.000327244
0.000342269
0.000356166
0.000369104
0.000381215
0.000392601
0.000403346
0.000413514
0.000423162
0.000432333
0.000441066
0.000449391
0.000457335
0.000464922
0.00047217
0.000479097
0.000485716
0.000492042
0.000498083
0.000503852
0.000509355
0.000514601
0.000519597
0.000524349
0.000528862
0.000533142
0.000537193
0.000541018
0.000544623
0.00054801
0.000551184
0.000554146
0.0005569
0.00055945
0.000561796
0.000563943
0.000565892
0.000567647
0.000569209
0.00057058
0.000571764
0.000572762
0.000573577
0.000574212
0.000574668
0.000574947
0.000575053
0.000574988
0.000574753
0.00057435
0.000573781
0.000573046
0.000572147
0.000571085
0.000569868
0.000568503
0.000566995
0.000565349
0.00056357
0.000561664
0.000559633
0.000557484
0.00055522
0.000552847
0.000550369
0.000547791
0.000545118
0.000542355
0.000539507
0.00053658
0.000533577
0.000530506
0.00052737
0.000524175
0.000520926
0.000517629
0.000514288
0.00051091
0.000507499
0.00050406
0.000500598
0.000497119
0.000493627
0.000490128
0.000486626
0.000483125
0.000479631
0.000476147
0.000472678
0.000469228
0.000465802
0.000462402
0.000459033
0.000455698
0.000452399
0.000449141
0.000445927
0.000442757
0.000439636
0.000436565
0.000433546
0.000430581
0.000427671
0.000424818
0.000422022
0.000419284
0.000416605
0.000413984
0.000411423
0.000408919
0.000406474
0.000404086
0.000401755
0.000399479
0.000397258
0.00039509
0.000392971
0.000390899
0.000388872
0.000386886
0.00038494
0.000383029
0.000381151
0.000379303
0.000377481
0.000375681
0.000373899
0.000372132
0.000370376
0.000368626
0.000366877
0.000365126
0.000363368
0.000361599
0.000359813
0.000358006
0.000356173
0.00035431
0.000352412
0.000350474
0.000348492
0.000346461
0.000344376
0.000342233
0.000340028
0.000337757
0.000335414
0.000332996
0.000330499
0.000327918
0.00032525
0.000322491
0.000319634
0.000316674
0.000313604
0.000310416
0.000307111
0.000303686
0.000300142
0.000296475
0.000292682
0.00028876
0.000284705
0.000280513
0.000276178
0.000271694
0.000267054
0.00026225
0.000257273
0.000252111
0.000246752
0.000241179
0.000235375
0.000229317
0.000222977
0.000216321
0.000209307
0.000201879
0.000193964
0.000185461
0.000176234
0.00016609
0.000154752
0.00014182
0.000126708
0.000108554
8.61634e-05
5.7992e-05
2.36929e-05
5.87027e-07
3.4082e-06
5.94568e-05
0.000131101
0.000191855
0.000242201
0.000284528
0.000320784
0.000352389
0.000380367
0.000405459
0.000428212
0.000449032
0.000468232
0.000486049
0.000502671
0.000518248
0.000532899
0.000546722
0.000559797
0.00057219
0.000583956
0.000595143
0.000605789
0.000615929
0.000625591
0.0006348
0.000643578
0.000651945
0.000659916
0.000667507
0.00067473
0.000681598
0.000688121
0.000694308
0.000700169
0.000705711
0.000710941
0.000715867
0.000720495
0.00072483
0.000728879
0.000732646
0.000736137
0.000739356
0.000742309
0.000744999
0.000747432
0.00074961
0.000751539
0.000753223
0.000754664
0.000755869
0.000756839
0.000757579
0.000758093
0.000758385
0.000758457
0.000758313
0.000757958
0.000757393
0.000756621
0.000755645
0.000754469
0.000753095
0.00075153
0.000749782
0.000747857
0.000745762
0.000743502
0.000741084
0.000738513
0.000735795
0.000732936
0.000729942
0.000726819
0.000723572
0.000720208
0.000716732
0.000713152
0.000709472
0.000705701
0.000701843
0.000697905
0.000693894
0.000689815
0.000685676
0.000681483
0.000677242
0.000672959
0.000668641
0.000664294
0.000659923
0.000655536
0.000651138
0.000646734
0.000642331
0.000637934
0.000633548
0.000629178
0.00062483
0.000620509
0.000616218
0.000611963
0.000607748
0.000603576
0.00059945
0.000595376
0.000591355
0.00058739
0.000583485
0.00057964
0.000575859
0.000572142
0.000568492
0.000564909
0.000561393
0.000557946
0.000554568
0.000551258
0.000548015
0.00054484
0.00054173
0.000538686
0.000535706
0.000532786
0.000529926
0.000527121
0.000524368
0.000521664
0.000519006
0.000516389
0.000513811
0.000511267
0.000508753
0.000506265
0.000503797
0.000501346
0.000498906
0.000496472
0.00049404
0.000491602
0.000489155
0.000486693
0.000484209
0.0004817
0.000479157
0.000476577
0.000473954
0.000471281
0.000468553
0.000465765
0.000462912
0.000459987
0.000456986
0.000453903
0.000450733
0.000447472
0.000444115
0.000440656
0.000437091
0.000433416
0.000429624
0.00042571
0.000421668
0.000417491
0.000413172
0.000408709
0.000404098
0.000399336
0.000394419
0.000389343
0.000384103
0.000378691
0.000373102
0.000367325
0.000361352
0.000355172
0.00034877
0.000342133
0.000335241
0.000328074
0.000320607
0.00031281
0.000304649
0.00029608
0.00028705
0.000277493
0.000267324
0.000256433
0.000244676
0.000231858
0.000217713
0.000201876
0.000183842
0.000162907
0.000138103
0.000108134
7.15625e-05
2.89948e-05
8.03272e-07
3.4083e-06
5.94604e-05
0.00013111
0.000191868
0.000242217
0.000284546
0.000320803
0.000352409
0.000380387
0.000405479
0.000428232
0.000449053
0.000468252
0.000486068
0.000502691
0.000518267
0.000532919
0.000546741
0.000559816
0.000572209
0.000583975
0.000595162
0.000605808
0.000615948
0.000625609
0.000634818
0.000643597
0.000651963
0.000659934
0.000667525
0.000674748
0.000681616
0.000688139
0.000694326
0.000700187
0.000705728
0.000710959
0.000715884
0.000720512
0.000724847
0.000728896
0.000732663
0.000736153
0.000739373
0.000742325
0.000745015
0.000747448
0.000749626
0.000751555
0.000753238
0.00075468
0.000755884
0.000756854
0.000757594
0.000758108
0.000758399
0.000758471
0.000758328
0.000757972
0.000757406
0.000756635
0.000755659
0.000754482
0.000753108
0.000751543
0.000749794
0.000747869
0.000745774
0.000743514
0.000741096
0.000738524
0.000735806
0.000732947
0.000729953
0.000726829
0.000723582
0.000720218
0.000716742
0.000713161
0.000709482
0.00070571
0.000701852
0.000697914
0.000693902
0.000689824
0.000685685
0.000681491
0.00067725
0.000672967
0.000668648
0.000664301
0.00065993
0.000655543
0.000651144
0.00064674
0.000642337
0.000637939
0.000633553
0.000629183
0.000624835
0.000620514
0.000616223
0.000611968
0.000607752
0.000603579
0.000599454
0.000595379
0.000591358
0.000587393
0.000583488
0.000579643
0.000575861
0.000572145
0.000568494
0.000564911
0.000561395
0.000557948
0.000554569
0.000551259
0.000548016
0.000544841
0.000541731
0.000538687
0.000535706
0.000532787
0.000529926
0.000527121
0.000524368
0.000521664
0.000519005
0.000516389
0.00051381
0.000511266
0.000508752
0.000506264
0.000503796
0.000501345
0.000498905
0.000496471
0.000494038
0.0004916
0.000489153
0.000486691
0.000484207
0.000481697
0.000479155
0.000476575
0.000473951
0.000471278
0.00046855
0.000465762
0.000462909
0.000459984
0.000456982
0.000453899
0.00045073
0.000447469
0.000444111
0.000440653
0.000437088
0.000433412
0.00042962
0.000425706
0.000421664
0.000417488
0.000413169
0.000408706
0.000404095
0.000399333
0.000394416
0.00038934
0.0003841
0.000378688
0.000373099
0.000367322
0.00036135
0.000355169
0.000348768
0.00034213
0.000335239
0.000328072
0.000320605
0.000312808
0.000304647
0.000296078
0.000287048
0.000277491
0.000267322
0.000256432
0.000244675
0.000231857
0.000217712
0.000201875
0.000183841
0.000162907
0.000138104
0.000108134
7.15626e-05
2.89947e-05
8.03271e-07
4.27477e-06
6.7418e-05
0.00014985
0.000222247
0.000283785
0.000336415
0.000382001
0.000422014
0.00045757
0.000489518
0.000518499
0.000545008
0.000569426
0.000592055
0.000613133
0.000632851
0.000651365
0.000668801
0.000685265
0.000700842
0.000715607
0.00072962
0.000742934
0.000755594
0.000767638
0.000779099
0.000790007
0.000800385
0.000810258
0.000819643
0.00082856
0.000837023
0.000845047
0.000852644
0.000859827
0.000866606
0.000872992
0.000878993
0.000884618
0.000889877
0.000894775
0.000899322
0.000903525
0.000907389
0.000910922
0.00091413
0.00091702
0.000919598
0.000921868
0.000923839
0.000925514
0.000926899
0.000928001
0.000928824
0.000929373
0.000929654
0.000929672
0.000929432
0.000928937
0.000928194
0.000927206
0.000925978
0.000924514
0.000922819
0.0009209
0.000918765
0.000916423
0.000913879
0.000911142
0.000908219
0.000905116
0.000901841
0.0008984
0.0008948
0.000891049
0.000887154
0.000883121
0.000878958
0.000874673
0.000870272
0.000865764
0.000861154
0.000856452
0.000851664
0.000846798
0.000841861
0.000836861
0.000831805
0.0008267
0.000821554
0.000816375
0.000811168
0.000805942
0.000800703
0.000795458
0.000790213
0.000784975
0.000779751
0.000774545
0.000769365
0.000764214
0.0007591
0.000754027
0.000748999
0.000744021
0.000739097
0.000734232
0.000729428
0.000724689
0.000720017
0.000715416
0.000710886
0.00070643
0.00070205
0.000697746
0.000693518
0.000689368
0.000685295
0.000681298
0.000677378
0.000673532
0.000669759
0.000666059
0.000662428
0.000658864
0.000655362
0.000651921
0.000648535
0.000645201
0.000641915
0.000638672
0.000635468
0.000632298
0.000629156
0.000626038
0.000622938
0.00061985
0.000616769
0.000613689
0.000610602
0.000607505
0.000604389
0.000601248
0.000598077
0.000594868
0.000591615
0.000588312
0.000584952
0.000581529
0.000578037
0.000574469
0.000570818
0.00056708
0.000563248
0.000559317
0.00055528
0.000551133
0.000546869
0.000542484
0.000537972
0.000533328
0.000528545
0.000523619
0.000518541
0.000513307
0.000507908
0.00050234
0.000496598
0.000490677
0.000484572
0.000478275
0.00047178
0.000465078
0.000458158
0.000451009
0.000443616
0.000435964
0.000428034
0.000419805
0.000411251
0.000402345
0.00039305
0.000383328
0.000373129
0.000362395
0.000351055
0.00033902
0.000326179
0.000312388
0.000297464
0.000281161
0.000263159
0.000243024
0.000220179
0.000193851
0.000163024
0.000126432
8.28342e-05
3.35504e-05
1.02222e-06
4.27488e-06
6.74217e-05
0.000149859
0.000222261
0.000283802
0.000336435
0.000382023
0.000422036
0.000457594
0.000489542
0.000518523
0.000545032
0.00056945
0.000592079
0.000613157
0.000632875
0.000651389
0.000668825
0.000685288
0.000700866
0.00071563
0.000729643
0.000742957
0.000755617
0.000767661
0.000779122
0.000790029
0.000800408
0.00081028
0.000819665
0.000828582
0.000837045
0.000845068
0.000852665
0.000859848
0.000866627
0.000873012
0.000879013
0.000884639
0.000889897
0.000894795
0.000899342
0.000903544
0.000907408
0.000910941
0.000914149
0.000917039
0.000919616
0.000921887
0.000923857
0.000925531
0.000926917
0.000928018
0.000928841
0.00092939
0.000929671
0.000929689
0.000929448
0.000928953
0.00092821
0.000927221
0.000925993
0.000924529
0.000922833
0.000920914
0.00091878
0.000916437
0.000913893
0.000911156
0.000908232
0.000905129
0.000901853
0.000898412
0.000894812
0.000891061
0.000887165
0.000883132
0.000878969
0.000874684
0.000870283
0.000865774
0.000861164
0.000856462
0.000851673
0.000846807
0.00084187
0.000836869
0.000831813
0.000826708
0.000821562
0.000816383
0.000811176
0.00080595
0.00080071
0.000795465
0.00079022
0.000784982
0.000779757
0.000774551
0.00076937
0.00076422
0.000759106
0.000754032
0.000749004
0.000744026
0.000739102
0.000734236
0.000729432
0.000724693
0.000720021
0.000715419
0.000710889
0.000706434
0.000702053
0.000697749
0.000693521
0.000689371
0.000685297
0.000681301
0.00067738
0.000673534
0.000669761
0.000666061
0.000662429
0.000658865
0.000655363
0.000651922
0.000648536
0.000645202
0.000641915
0.000638672
0.000635468
0.000632297
0.000629156
0.000626037
0.000622937
0.000619849
0.000616768
0.000613687
0.000610601
0.000607503
0.000604387
0.000601246
0.000598075
0.000594866
0.000591613
0.00058831
0.00058495
0.000581527
0.000578034
0.000574466
0.000570815
0.000567077
0.000563245
0.000559313
0.000555277
0.000551129
0.000546866
0.000542481
0.000537969
0.000533324
0.000528542
0.000523615
0.000518538
0.000513303
0.000507904
0.000502336
0.000496594
0.000490673
0.000484568
0.000478272
0.000471777
0.000465075
0.000458155
0.000451006
0.000443613
0.000435961
0.000428031
0.000419802
0.000411249
0.000402342
0.000393048
0.000383326
0.000373127
0.000362394
0.000351054
0.000339019
0.000326178
0.000312387
0.000297463
0.000281161
0.000263158
0.000243024
0.000220179
0.000193851
0.000163024
0.000126432
8.28344e-05
3.35503e-05
1.02222e-06
5.14568e-06
7.4454e-05
0.000165952
0.000248306
0.000319642
0.000381492
0.000435578
0.000483362
0.000526005
0.000564418
0.000599313
0.000631249
0.000660666
0.000687916
0.000713281
0.000736991
0.000759231
0.000780157
0.000799895
0.000818551
0.000836216
0.000852966
0.000868863
0.000883965
0.000898317
0.000911961
0.000924933
0.000937264
0.000948982
0.00096011
0.000970671
0.000980683
0.000990165
0.000999133
0.0010076
0.00101558
0.00102309
0.00103013
0.00103673
0.00104288
0.0010486
0.00105391
0.0010588
0.00106328
0.00106737
0.00107108
0.00107441
0.00107736
0.00107996
0.0010822
0.00108409
0.00108564
0.00108685
0.00108774
0.00108831
0.00108857
0.00108852
0.00108817
0.00108753
0.0010866
0.00108539
0.0010839
0.00108214
0.00108012
0.00107785
0.00107533