/*--------------------------------*- C++ -*----------------------------------*\
  =========                 |
  \\      /  F ield         | OpenFOAM: The Open Source CFD Toolbox
   \\    /   O peration     | Website:  https://openfoam.org
    \\  /    A nd           | Version:  8
     \\/     M anipulation  |
\*---------------------------------------------------------------------------*/
FoamFile
{
    version     2.0;
    format      ascii;
    class       volScalarField;
    location    "2300";
    object      epsilon;
}
// * * * * * * * * * * * * * * * * * * * * * * * * * * * * * * * * * * * * * //

dimensions      [0 2 -3 0 0 0 0];

internalField   nonuniform List<scalar> 
46000
(
3.15366
14.3052
29.2289
43.7581
57.707
71.2973
84.5681
97.6034
110.46
123.212
135.824
148.335
160.76
173.106
185.375
197.565
209.675
221.699
233.632
245.465
257.191
268.8
280.283
291.627
302.822
313.855
324.713
335.384
345.854
356.108
366.132
375.912
385.433
394.68
403.638
412.293
420.63
428.635
436.294
443.593
450.52
457.062
463.208
468.947
474.269
479.165
483.628
487.651
491.228
494.356
497.03
499.249
501.013
502.323
503.18
503.589
503.553
503.079
502.174
500.847
499.108
496.973
494.473
491.632
488.43
484.876
480.986
476.774
472.257
467.453
462.378
457.051
451.488
445.71
439.734
433.577
427.26
420.798
414.212
407.518
400.734
393.876
386.961
380.006
373.026
366.036
359.05
352.082
345.146
338.253
331.415
324.644
317.95
311.343
304.83
298.422
292.125
285.946
279.891
273.965
268.175
262.523
257.013
251.649
246.432
241.365
236.449
231.685
227.073
222.613
218.304
214.146
210.138
206.277
202.561
198.989
195.558
192.265
189.106
186.079
183.18
180.405
177.751
175.213
172.788
170.471
168.256
166.143
164.12
162.188
160.342
158.576
156.883
155.259
153.698
152.195
150.743
149.338
147.975
146.646
145.347
144.072
142.815
141.57
140.332
139.094
137.852
136.598
135.327
134.034
132.713
131.359
129.965
128.527
127.04
125.498
123.897
122.233
120.502
118.699
116.822
114.867
112.831
110.713
108.515
106.259
103.924
101.506
99.0044
96.4203
93.7556
91.0126
88.1943
85.3042
82.3464
79.3254
76.2464
73.1147
69.9363
66.7173
63.4642
60.1834
56.8817
53.5656
50.2415
46.9153
43.5924
40.2762
36.9552
33.6616
30.3797
27.1009
23.8235
20.5265
17.213
13.8813
10.4382
6.83423
3.22012
0.684131
3.15396
14.3066
29.2306
43.7602
57.7092
71.2996
84.5704
97.6057
110.462
123.215
135.827
148.337
160.762
173.108
185.377
197.568
209.677
221.702
233.634
245.468
257.193
268.803
280.285
291.629
302.824
313.857
324.715
335.386
345.856
356.11
366.134
375.914
385.435
394.682
403.64
412.295
420.632
428.637
436.296
443.595
450.522
457.064
463.21
468.949
474.271
479.167
483.63
487.653
491.23
494.357
497.031
499.251
501.015
502.324
503.182
503.59
503.554
503.08
502.175
500.848
499.109
496.974
494.474
491.633
488.431
484.877
480.986
476.775
472.258
467.454
462.379
457.051
451.489
445.711
439.734
433.578
427.26
420.799
414.212
407.518
400.734
393.876
386.962
380.007
373.027
366.036
359.05
352.082
345.146
338.253
331.415
324.644
317.95
311.342
304.83
298.422
292.125
285.945
279.89
273.965
268.174
262.522
257.013
251.648
246.432
241.365
236.449
231.684
227.072
222.612
218.304
214.146
210.137
206.276
202.561
198.989
195.557
192.264
189.106
186.079
183.18
180.405
177.751
175.213
172.787
170.47
168.256
166.142
164.119
162.187
160.342
158.575
156.883
155.259
153.697
152.194
150.743
149.338
147.974
146.645
145.346
144.071
142.814
141.57
140.331
139.094
137.851
136.597
135.327
134.034
132.713
131.358
129.964
128.526
127.039
125.498
123.897
122.233
120.502
118.699
116.822
114.867
112.831
110.712
108.515
106.259
103.924
101.506
99.004
96.4199
93.7552
91.0122
88.1939
85.3038
82.346
79.3251
76.2461
73.1144
69.936
66.7171
63.464
60.1832
56.8815
53.5654
50.2413
46.9151
43.5923
40.2761
36.9551
33.6616
30.3797
27.1009
23.8234
20.5265
17.2131
13.8814
10.4383
6.8343
3.22016
0.684143
15.5214
13.2963
17.9458
23.323
28.8517
34.4379
40.0401
45.6488
51.2588
56.8794
62.5071
68.1448
73.7938
79.4535
85.1221
90.7967
96.4741
102.15
107.82
113.478
119.119
124.737
130.325
135.876
141.382
146.837
152.232
157.558
162.807
167.971
173.039
178.003
182.853
187.581
192.176
196.628
200.93
205.07
209.041
212.834
216.439
219.849
223.057
226.054
228.835
231.393
233.724
235.821
237.682
239.303
240.682
241.818
242.708
243.355
243.757
243.918
243.84
243.526
242.981
242.21
241.22
240.021
238.626
237.045
235.275
233.322
231.191
228.893
226.436
223.831
221.087
218.214
215.223
212.124
208.928
205.645
202.285
198.859
195.376
191.847
188.28
184.686
181.073
177.449
173.824
170.205
166.599
163.014
159.457
155.933
152.448
149.009
145.619
142.285
139.009
135.796
132.649
129.571
126.565
123.633
120.777
117.998
115.298
112.678
110.138
107.679
105.302
103.005
100.788
98.6516
96.5944
94.6156
92.714
90.8884
89.1374
87.4596
85.8533
84.3168
82.8482
81.4457
80.1072
78.8308
77.6142
76.4554
75.3519
74.3017
73.3015
72.3518
71.4488
70.5901
69.7733
68.9957
68.2545
67.5471
66.8711
66.2238
65.6025
65.0047
64.4276
63.8688
63.3253
62.7947
62.2741
61.7608
61.2522
60.7455
60.238
59.7269
59.2096
58.6834
58.1455
57.5935
57.0246
56.4364
55.8264
55.1922
54.5316
53.8423
53.1225
52.3702
51.5836
50.7614
49.9023
49.006
48.0744
47.1111
46.1112
45.0729
43.9955
42.8791
41.7244
40.5323
39.304
38.0412
36.7457
35.4195
34.0653
32.6855
31.283
29.8608
28.4221
26.97
25.5078
24.0388
22.5661
21.0927
19.6214
18.1542
16.6919
15.239
13.7937
12.3556
10.9329
9.52239
8.1305
6.7594
5.39815
4.06659
2.92097
3.42691
15.5218
13.2959
17.9449
23.3219
28.8503
34.4363
40.0383
45.6468
51.2565
56.8769
62.5044
68.1419
73.7907
79.4502
85.1185
90.7929
96.47
102.146
107.815
113.473
119.114
124.731
130.319
135.87
141.376
146.831
152.225
157.551
162.8
167.963
173.031
177.995
182.845
187.573
192.167
196.62
200.921
205.061
209.032
212.824
216.429
219.839
223.047
226.044
228.825
231.383
233.713
235.811
237.671
239.293
240.671
241.807
242.697
243.344
243.746
243.907
243.829
243.515
242.97
242.199
241.209
240.01
238.615
237.035
235.265
233.311
231.181
228.883
226.426
223.821
221.077
218.204
215.213
212.115
208.919
205.636
202.276
198.85
195.367
191.838
188.272
184.678
181.065
177.442
173.817
170.198
166.592
163.007
159.45
155.926
152.442
149.003
145.613
142.279
139.003
135.79
132.644
129.566
126.56
123.628
120.772
117.993
115.294
112.674
110.134
107.675
105.298
103.001
100.784
98.648
96.591
94.6122
92.7107
90.8852
89.1344
87.4567
85.8505
84.314
82.8456
81.4431
80.1048
78.8284
77.6119
76.4531
75.3498
74.2996
73.2995
72.3499
71.4469
70.5883
69.7716
68.994
68.2529
67.5456
66.8696
66.2224
65.6011
65.0034
64.4264
63.8676
63.3242
62.7936
62.273
61.7598
61.2513
60.7446
60.2371
59.7261
59.2089
58.6827
58.1449
57.5928
57.024
56.4358
55.8258
55.1917
54.5311
53.8419
53.1221
52.3698
51.5833
50.761
49.902
49.0057
48.0741
47.1108
46.1109
45.0726
43.9952
42.8789
41.7242
40.5321
39.3039
38.041
36.7455
35.4194
34.0651
32.6853
31.2829
29.8607
28.4219
26.9698
25.5077
24.0386
22.566
21.0926
19.6213
18.1541
16.6918
15.2389
13.7936
12.3555
10.9329
9.52233
8.13046
6.75937
5.39813
4.06658
2.92097
3.4269
31.8613
18.7887
19.6231
22.37
25.6995
29.2915
33.0273
36.855
40.748
44.6927
48.6796
52.703
56.7583
60.8415
64.9489
69.0763
73.2199
77.3754
81.5382
85.7037
89.867
94.0227
98.1655
102.29
106.389
110.457
114.488
118.475
122.41
126.288
130.099
133.838
137.496
141.066
144.54
147.911
151.171
154.312
157.327
160.209
162.952
165.548
167.99
170.274
172.394
174.344
176.121
177.72
179.138
180.372
181.42
182.28
182.953
183.437
183.733
183.843
183.768
183.511
183.076
182.467
181.688
180.748
179.652
178.408
177.018
175.487
173.82
172.024
170.107
168.075
165.938
163.702
161.376
158.968
156.486
153.938
151.333
148.679
145.983
143.253
140.496
137.72
134.931
132.137
129.344
126.558
123.784
121.029
118.297
115.593
112.923
110.289
107.696
105.147
102.645
100.194
97.7961
95.4528
93.1666
90.939
88.7714
86.665
84.6206
82.6389
80.7202
78.8649
77.0729
75.344
73.6779
72.0741
70.532
69.0507
67.6294
66.267
64.9625
63.7145
62.5219
61.3832
60.297
59.2618
58.276
57.338
56.4462
55.5988
54.7941
54.0307
53.3072
52.6219
51.9728
51.358
50.7756
50.2235
49.6998
49.2025
48.7298
48.2795
47.8498
47.4387
47.0442
46.6642
46.2968
45.9399
45.5915
45.2495
44.9119
44.5765
44.2414
43.9044
43.5634
43.2165
42.8614
42.4962
42.1189
41.7275
41.32
40.8946
40.4495
39.9829
39.4932
38.9788
38.4385
37.871
37.2754
36.6513
35.9988
35.3187
34.6095
33.8702
33.1003
32.2997
31.4688
30.6081
29.7186
28.8014
27.858
26.8899
25.8991
24.8875
23.8575
22.8113
21.7516
20.6808
19.6017
18.5171
17.4294
16.3415
15.2559
14.175
13.1011
12.0371
10.9851
9.94806
8.93066
7.93678
6.97845
6.06741
5.22786
4.5333
4.31197
7.32118
31.8626
18.7878
19.6217
22.3682
25.6975
29.2894
33.0251
36.8527
40.7455
44.6901
48.6769
52.7001
56.7553
60.8384
64.9456
69.0729
73.2164
77.3717
81.5343
85.6997
89.8628
94.0184
98.1611
102.285
106.384
110.452
114.483
118.47
122.405
126.282
130.094
133.832
137.49
141.06
144.534
147.905
151.164
154.305
157.32
160.203
162.945
165.54
167.983
170.267
172.387
174.337
176.114
177.713
179.13
180.364
181.412
182.273
182.945
183.429
183.725
183.835
183.76
183.504
183.069
182.459
181.681
180.74
179.645
178.401
177.011
175.48
173.813
172.017
170.1
168.069
165.931
163.695
161.369
158.961
156.48
153.933
151.328
148.673
145.977
143.247
140.491
137.715
134.926
132.132
129.339
126.553
123.78
121.025
118.293
115.589
112.919
110.285
107.692
105.143
102.642
100.191
97.7929
95.4497
93.1636
90.9361
88.7686
86.6623
84.618
82.6364
80.7179
78.8626
77.0707
75.3419
73.6759
72.0722
70.5301
69.0489
67.6277
66.2654
64.9609
63.713
62.5204
61.3818
60.2957
59.2605
58.2748
57.3369
56.4451
55.5978
54.7931
54.0297
53.3062
52.621
51.972
51.3572
50.7748
50.2228
49.6991
49.2019
48.7292
48.279
47.8493
47.4382
47.0437
46.6638
46.2964
45.9396
45.5912
45.2492
44.9116
44.5763
44.2412
43.9042
43.5633
43.2163
42.8613
42.4961
42.1188
41.7274
41.32
40.8946
40.4495
39.9829
39.4932
38.9788
38.4385
37.871
37.2755
36.6513
35.9988
35.3188
34.6096
33.8703
33.1004
32.2998
31.4689
30.6082
29.7187
28.8015
27.8581
26.89
25.8991
24.8876
23.8575
22.8114
21.7516
20.6809
19.6018
18.5171
17.4295
16.3416
15.2559
14.175
13.1011
12.0371
10.9851
9.94806
8.93065
7.93677
6.97844
6.0674
5.22785
4.5333
4.31199
7.32118
48.0808
24.951
23.0387
24.2287
26.3837
28.9827
31.8319
34.8414
37.9636
41.1706
44.445
47.7745
51.1505
54.566
58.015
61.4923
64.9928
68.5117
72.0442
75.5855
79.1305
82.6743
86.2115
89.7369
93.2448
96.7295
100.185
103.605
106.984
110.315
113.591
116.806
119.954
123.026
126.017
128.921
131.729
134.435
137.033
139.517
141.88
144.117
146.222
148.189
150.014
151.693
153.221
154.595
155.812
156.869
157.765
158.498
159.068
159.474
159.716
159.797
159.717
159.478
159.085
158.539
157.847
157.012
156.04
154.937
153.706
152.352
150.88
149.295
147.606
145.816
143.935
141.968
139.923
137.807
135.626
133.389
131.102
128.772
126.406
124.011
121.593
119.159
116.715
114.266
111.819
109.379
106.95
104.538
102.147
99.781
97.4447
95.1414
92.8743
90.6467
88.4611
86.3202
84.226
82.1807
80.1858
78.2427
76.3528
74.5169
72.7358
71.0101
69.3401
67.7259
66.1676
64.6651
63.2179
61.8256
60.4877
59.2035
57.9721
56.7927
55.6643
54.5858
53.556
52.5738
51.6379
50.7469
49.8996
49.0944
48.33
47.6047
46.9177
46.2675
45.6526
45.0713
44.5221
44.0033
43.5132
43.0501
42.6123
42.1981
41.8059
41.4339
41.0804
40.7437
40.4221
40.1137
39.8169
39.5298
39.2507
38.9778
38.7093
38.4433
38.1781
37.9117
37.6424
37.3683
37.0877
36.7986
36.4993
36.1881
35.8632
35.5229
35.1657
34.7898
34.394
33.9767
33.5369
33.0733
32.5851
32.0717
31.5329
30.9686
30.3779
29.7604
29.1157
28.4436
27.7446
27.0189
26.2675
25.4912
24.6913
23.8691
23.0263
22.1646
21.2861
20.3927
19.4868
18.5706
17.6466
16.7173
15.7853
14.8531
13.9234
12.9992
12.0832
11.1789
10.2901
9.42142
8.57923
7.77203
7.01356
6.32568
5.75565
5.43086
5.88457
11.3854
48.0827
24.9498
23.0369
24.2267
26.3815
28.9805
31.8296
34.8391
37.9611
41.1681
44.4424
47.7718
51.1477
54.5631
58.012
61.4892
64.9896
68.5085
72.0409
75.582
79.1269
82.6706
86.2078
89.733
93.2408
96.7254
100.181
103.601
106.98
110.31
113.586
116.802
119.949
123.021
126.013
128.915
131.723
134.43
137.028
139.512
141.875
144.112
146.216
148.184
150.009
151.688
153.216
154.59
155.806
156.864
157.76
158.493
159.062
159.468
159.711
159.791
159.711
159.473
159.079
158.534
157.841
157.006
156.035
154.932
153.701
152.347
150.875
149.291
147.601
145.812
143.93
141.964
139.919
137.802
135.622
133.385
131.098
128.768
126.402
124.007
121.59
119.156
116.712
114.263
111.816
109.375
106.947
104.535
102.144
99.7783
97.4421
95.1389
92.8719
90.6443
88.4589
86.318
84.224
82.1787
80.1839
78.2409
76.351
74.5152
72.7342
71.0086
69.3386
67.7245
66.1663
64.6637
63.2166
61.8244
60.4866
59.2024
57.9711
56.7917
55.6633
54.5848
53.5551
52.573
51.6371
50.7462
49.8989
49.0938
48.3293
47.6041
46.9171
46.267
45.6521
45.0709
44.5217
44.0029
43.5128
43.0497
42.612
42.1978
41.8056
41.4337
41.0802
40.7435
40.4219
40.1135
39.8167
39.5297
39.2506
38.9778
38.7093
38.4433
38.1781
37.9117
37.6424
37.3684
37.0877
36.7987
36.4994
36.1882
35.8633
35.523
35.1658
34.7899
34.3941
33.9769
33.537
33.0734
32.5853
32.0719
31.5331
30.9687
30.3781
29.7606
29.1158
28.4438
27.7447
27.0191
26.2676
25.4913
24.6914
23.8692
23.0264
22.1647
21.2862
20.3928
19.4869
18.5707
17.6467
16.7174
15.7853
14.8531
13.9235
12.9992
12.0832
11.1789
10.2901
9.42144
8.57924
7.77203
7.01356
6.32567
5.75565
5.43086
5.88461
11.3854
64.0387
31.3215
27.0378
27.0159
28.3346
30.272
32.5593
35.0705
37.7382
40.522
43.3963
46.3435
49.3508
52.4082
55.5079
58.6429
61.807
64.9946
68.2002
71.4185
74.6442
77.8721
81.0968
84.3129
87.5148
90.6969
93.8533
96.9783
100.066
103.11
106.104
109.041
111.917
114.723
117.455
120.104
122.667
125.135
127.503
129.766
131.917
133.952
135.865
137.652
139.307
140.828
142.21
143.45
144.546
145.496
146.297
146.948
147.45
147.801
148.002
148.055
147.961
147.721
147.339
146.818
146.162
145.374
144.46
143.424
142.271
141.004
139.629
138.152
136.577
134.912
133.162
131.333
129.433
127.467
125.442
123.365
121.242
119.08
116.885
114.663
112.42
110.163
107.896
105.625
103.355
101.092
98.8391
96.6021
94.3847
92.1908
90.0242
87.888
85.7855
83.7195
81.6925
79.7069
77.7648
75.8678
74.0176
72.2156
70.4629
68.7603
67.1086
65.5083
63.9597
62.463
61.0182
59.6253
58.2838
56.9934
55.7535
54.5637
53.423
52.3307
51.2859
50.2875
49.3346
48.4261
47.5607
46.7374
45.9547
45.2114
44.5061
43.838
43.2057
42.608
42.0432
41.51
41.0068
40.5321
40.0844
39.6622
39.2638
38.8878
38.5326
38.1965
37.878
37.5756
37.2875
37.0122
36.7481
36.4934
36.2466
36.006
35.7699
35.5365
35.3043
35.0714
34.8362
34.5971
34.3522
34.0999
33.8385
33.5665
33.2821
32.9838
32.6701
32.3396
31.9908
31.6225
31.2336
30.823
30.3898
29.9335
29.4534
28.9495
28.421
27.8676
27.2891
26.6854
26.0567
25.4035
24.7263
24.0262
23.304
22.5611
21.7989
21.0189
20.223
19.413
18.5909
17.7589
16.9193
16.0744
15.2267
14.3789
13.5339
12.6948
11.865
11.0488
10.2509
9.47776
8.73753
8.04199
7.40932
6.87084
6.49172
6.45159
7.49362
15.4859
64.0407
31.32
27.0358
27.0138
28.3323
30.2697
32.5569
35.0682
37.7357
40.5195
43.3938
46.3409
49.3481
52.4055
55.5051
58.64
61.8041
64.9916
68.1971
71.4153
74.641
77.8688
81.0934
84.3094
87.5112
90.6932
93.8496
96.9745
100.062
103.106
106.1
109.037
111.913
114.719
117.45
120.1
122.662
125.13
127.499
129.762
131.913
133.948
135.861
137.647
139.303
140.823
142.205
143.446
144.542
145.491
146.292
146.944
147.445
147.796
147.998
148.051
147.956
147.717
147.335
146.814
146.157
145.37
144.456
143.42
142.267
141
139.626
138.148
136.574
134.908
133.158
131.33
129.429
127.463
125.439
123.362
121.239
119.077
116.882
114.66
112.418
110.16
107.893
105.622
103.353
101.089
98.8369
96.5999
94.3826
92.1888
90.0222
87.8861
85.7837
83.7178
81.6909
79.7053
77.7632
75.8663
74.0162
72.2143
70.4616
68.759
67.1074
65.5071
63.9586
62.4619
61.0172
59.6243
58.2829
56.9925
55.7527
54.5629
53.4222
52.33
51.2852
50.2869
49.334
48.4255
47.5602
46.7368
45.9542
45.2109
44.5057
43.8376
43.2053
42.6076
42.0429
41.5097
41.0065
40.5319
40.0842
39.662
39.2636
38.8876
38.5324
38.1963
37.8779
37.5755
37.2874
37.0121
36.748
36.4934
36.2466
36.006
35.7698
35.5365
35.3043
35.0714
34.8363
34.5971
34.3523
34.1
33.8386
33.5666
33.2822
32.9839
32.6702
32.3397
31.9909
31.6227
31.2337
30.8231
30.39
29.9336
29.4536
28.9496
28.4212
27.8678
27.2893
26.6856
26.0569
25.4036
24.7265
24.0263
23.3041
22.5612
21.799
21.0191
20.2231
19.4131
18.591
17.759
16.9194
16.0744
15.2268
14.379
13.5339
12.6948
11.8651
11.0488
10.251
9.47778
8.73754
8.042
7.40932
6.87084
6.49172
6.4516
7.49367
15.4859
79.9236
37.8638
31.3726
30.2994
30.9406
32.3726
34.2511
36.4151
38.7776
41.2866
43.9088
46.6212
49.4071
52.2538
55.1512
58.0907
61.0649
64.0671
67.0909
70.1305
73.1802
76.2341
79.2866
82.332
85.3647
88.3789
91.3686
94.3279
97.251
100.132
102.964
105.741
108.458
111.108
113.685
116.183
118.596
120.918
123.144
125.268
127.285
129.19
130.979
132.646
134.188
135.602
136.884
138.03
139.04
139.911
140.641
141.229
141.675
141.98
142.143
142.165
142.049
141.795
141.408
140.889
140.242
139.472
138.581
137.576
136.459
135.235
133.91
132.487
130.974
129.374
127.695
125.941
124.12
122.237
120.298
118.31
116.278
114.21
112.11
109.984
107.839
105.679
103.511
101.338
99.1667
97.001
94.8457
92.7048
90.5823
88.4821
86.4075
84.3617
82.3478
80.3685
78.4261
76.523
74.6611
72.8421
71.0676
69.3388
67.657
66.0228
64.4372
62.9005
61.4131
59.9752
58.5869
57.2481
55.9584
54.7176
53.5251
52.3804
51.2829
50.2317
49.226
48.2648
47.3473
46.4724
45.6389
44.8457
44.0917
43.3756
42.6965
42.0533
41.4447
40.8693
40.3257
39.8126
39.3285
38.8721
38.4417
38.036
37.6536
37.2929
36.9524
36.6306
36.326
36.0371
35.7624
35.5003
35.2492
35.0076
34.7738
34.5464
34.3236
34.1038
33.8855
33.667
33.4467
33.2229
32.9941
32.7586
32.5148
32.2613
31.9964
31.7186
31.4267
31.1191
30.7946
30.4519
30.0902
29.7082
29.3053
28.8807
28.4339
27.9646
27.4723
26.9568
26.4177
25.8552
25.2694
24.6606
24.0296
23.377
22.7039
22.0111
21.3002
20.5724
19.8293
19.0727
18.3043
17.5262
16.7405
15.9494
15.1555
14.3613
13.5701
12.7851
12.0104
11.2507
10.5121
9.80205
9.1309
8.51335
7.97235
7.54825
7.32542
7.53213
9.12222
19.6219
79.9257
37.862
31.3704
30.2972
30.9383
32.3703
34.2488
36.4127
38.7752
41.2842
43.9063
46.6186
49.4045
52.2512
55.1485
58.0879
61.062
64.0641
67.0879
70.1275
73.177
76.2309
79.2833
82.3287
85.3614
88.3754
91.3651
94.3244
97.2474
100.128
102.96
105.738
108.454
111.104
113.681
116.179
118.592
120.914
123.14
125.264
127.281
129.186
130.975
132.642
134.184
135.598
136.88
138.026
139.036
139.907
140.637
141.225
141.671
141.976
142.139
142.161
142.045
141.792
141.404
140.885
140.239
139.468
138.578
137.572
136.456
135.232
133.907
132.484
130.97
129.371
127.692
125.938
124.117
122.234
120.295
118.307
116.276
114.207
112.107
109.982
107.837
105.677
103.508
101.336
99.1647
96.9991
94.8438
92.703
90.5806
88.4804
86.4059
84.3602
82.3463
80.367
78.4248
76.5217
74.6598
72.8409
71.0664
69.3377
67.6559
66.0218
64.4362
62.8995
61.4122
59.9744
58.5861
57.2473
55.9576
54.7168
53.5244
52.3798
51.2822
50.2311
49.2254
48.2643
47.3468
46.4719
45.6384
44.8453
44.0913
43.3752
42.6961
42.0529
41.4443
40.869
40.3254
39.8123
39.3283
38.8718
38.4415
38.0358
37.6534
37.2927
36.9522
36.6304
36.3259
36.037
35.7623
35.5002
35.2491
35.0075
34.7738
34.5463
34.3236
34.1038
33.8855
33.6671
33.4467
33.223
32.9942
32.7587
32.5149
32.2614
31.9965
31.7187
31.4268
31.1192
30.7947
30.4521
30.0903
29.7083
29.3054
28.8808
28.4341
27.9648
27.4725
26.9569
26.4178
25.8553
25.2695
24.6608
24.0298
23.3772
22.704
22.0113
21.3003
20.5725
19.8294
19.0728
18.3044
17.5263
16.7406
15.9495
15.1555
14.3614
13.5701
12.7851
12.0104
11.2508
10.5121
9.80206
9.13091
8.51335
7.97234
7.54824
7.32541
7.53214
9.12228
19.622
95.8328
44.5892
35.975
33.9393
33.9928
35.0086
36.5667
38.4706
40.6144
42.9346
45.3904
47.9535
50.6036
53.325
56.1056
58.9349
61.8044
64.706
67.6326
70.5775
73.5344
76.4969
79.4589
82.4144
85.3572
88.2815
91.181
94.0497
96.8814
99.6702
102.41
105.094
107.717
110.273
112.755
115.158
117.477
119.705
121.837
123.868
125.794
127.609
129.309
130.891
132.35
133.684
134.889
135.963
136.904
137.71
138.38
138.913
139.309
139.568
139.692
139.68
139.535
139.258
138.853
138.321
137.667
136.894
136.006
135.008
133.903
132.695
131.39
129.992
128.506
126.938
125.294
123.579
121.799
119.959
118.066
116.126
114.144
112.126
110.077
108.004
105.912
103.805
101.69
99.5709
97.4525
95.3394
93.2359
91.146
89.0737
87.0225
84.9958
82.9966
81.028
79.0924
77.1924
75.3301
73.5073
71.726
69.9874
68.293
66.6439
65.0408
63.4846
61.9758
60.5147
59.1016
57.7366
56.4195
55.1501
53.9283
52.7534
51.6251
50.5426
49.5052
48.5122
47.5627
46.6558
45.7905
44.9656
44.1803
43.4332
42.7235
42.0502
41.4121
40.808
40.2365
39.6962
39.1859
38.7042
38.2496
37.8209
37.4165
37.035
36.675
36.3351
36.0138
35.7095
35.4209
35.1465
34.8846
34.6339
34.3927
34.1595
33.9329
33.7111
33.4926
33.276
33.0595
32.8417
32.6209
32.3956
32.1642
31.9253
31.6774
31.4189
31.1485
30.8649
30.5668
30.2528
29.922
29.5733
29.2058
28.8187
28.4114
27.9834
27.5342
27.0636
26.5712
26.0569
25.5208
24.963
24.3839
23.784
23.1639
22.5246
21.8669
21.192
20.5011
19.7957
19.0771
18.3471
17.6074
16.8601
16.1073
15.3514
14.5952
13.8418
13.095
12.3591
11.6396
10.9434
10.2792
9.65937
9.10141
8.6331
8.30379
8.21728
8.65448
10.7844
23.8356
95.8348
44.5872
35.9727
33.9369
33.9904
35.0063
36.5643
38.4682
40.6119
42.9322
45.3879
47.9509
50.6009
53.3224
56.1029
58.9322
61.8015
64.7031
67.6297
70.5746
73.5313
76.4938
79.4557
82.4112
85.354
88.2782
91.1776
94.0463
96.878
99.6667
102.406
105.091
107.714
110.269
112.751
115.155
117.473
119.701
121.833
123.864
125.79
127.605
129.306
130.887
132.347
133.68
134.885
135.959
136.9
137.706
138.376
138.909
139.305
139.565
139.688
139.676
139.531
139.255
138.849
138.318
137.664
136.891
136.003
135.005
133.9
132.692
131.387
129.989
128.503
126.936
125.291
123.576
121.796
119.957
118.064
116.123
114.141
112.123
110.075
108.002
105.91
103.803
101.688
99.5691
97.4508
95.3377
93.2343
91.1445
89.0722
87.021
84.9944
82.9953
81.0267
79.0912
77.1912
75.3289
73.5062
71.7249
69.9864
68.292
66.6429
65.0399
63.4837
61.9749
60.5139
59.1008
57.7358
56.4187
55.1494
53.9276
52.7528
51.6244
50.542
49.5047
48.5117
47.5622
46.6553
45.79
44.9652
44.1798
43.4328
42.7231
42.0498
41.4118
40.8077
40.2362
39.6959
39.1857
38.7039
38.2494
37.8206
37.4162
37.0348
36.6748
36.3349
36.0136
35.7094
35.4208
35.1464
34.8845
34.6338
34.3926
34.1595
33.9328
33.7111
33.4926
33.276
33.0595
32.8417
32.6209
32.3956
32.1643
31.9254
31.6774
31.419
31.1486
30.865
30.5668
30.2529
29.9221
29.5734
29.2059
28.8189
28.4115
27.9835
27.5343
27.0637
26.5713
26.057
25.5209
24.9631
24.384
23.7841
23.164
22.5247
21.867
21.1921
20.5012
19.7957
19.0772
18.3471
17.6075
16.8601
16.1073
15.3514
14.5952
13.8419
13.095
12.3592
11.6397
10.9434
10.2792
9.65937
9.1014
8.63309
8.30378
8.21726
8.65448
10.7844
23.8356
111.927
51.5389
40.8385
37.8896
37.4104
38.0669
39.3619
41.0632
43.0456
45.2341
47.5805
50.0514
52.6227
55.276
57.9967
60.773
63.5946
66.4524
69.3382
72.2446
75.1643
78.0904
81.0163
83.9353
86.8411
89.7272
92.5871
95.4146
98.2034
100.947
103.639
106.274
108.846
111.347
113.774
116.119
118.378
120.544
122.614
124.581
126.442
128.192
129.827
131.343
132.737
134.007
135.149
136.162
137.043
137.792
138.407
138.888
139.235
139.449
139.529
139.479
139.299
138.991
138.558
138.003
137.328
136.539
135.638
134.63
133.519
132.308
131.003
129.608
128.129
126.57
124.937
123.235
121.47
119.648
117.774
115.854
113.893
111.897
109.872
107.822
105.754
103.671
101.58
99.4846
97.3895
95.2993
93.218
91.1498
89.0982
87.0669
85.0591
83.0778
81.126
79.2061
77.3206
75.4716
73.661
71.8906
70.1618
68.476
66.8343
65.2375
63.6864
62.1816
60.7234
59.3123
57.9481
56.631
55.3607
54.137
52.9596
51.8278
50.7412
49.699
48.7006
47.7451
46.8315
45.9591
45.1267
44.3333
43.578
42.8599
42.178
41.531
40.9176
40.3367
39.7869
39.2668
38.7752
38.3107
37.872
37.4575
37.066
36.696
36.3462
36.0149
35.7009
35.4026
35.1186
34.8473
34.5873
34.3371
34.0952
33.86
33.63
33.4036
33.1794
32.9558
32.7312
32.5042
32.2732
32.0368
31.7936
31.5419
31.2806
31.0083
30.7236
30.4255
30.1127
29.7842
29.439
29.0765
28.6957
28.2962
27.8774
27.439
26.9806
26.5022
26.0035
25.4847
24.9458
24.3873
23.8095
23.2131
22.5987
21.9673
21.3196
20.6569
19.9802
19.2909
18.5905
17.8806
17.163
16.4397
15.7131
14.9859
14.2615
13.5438
12.8374
12.1485
11.4847
10.8562
10.2769
9.76732
9.35998
9.11334
9.1511
9.80897
12.4666
28.0548
111.929
51.5366
40.836
37.8871
37.4079
38.0645
39.3595
41.0607
43.0431
45.2316
47.578
50.0488
52.62
55.2733
57.994
60.7702
63.5917
66.4495
69.3353
72.2416
75.1612
78.0873
81.0132
83.9322
86.8379
89.7239
92.5839
95.4113
98.2
100.944
103.636
106.271
108.842
111.344
113.77
116.116
118.374
120.541
122.61
124.578
126.438
128.188
129.823
131.34
132.734
134.003
135.146
136.158
137.039
137.788
138.403
138.884
139.232
139.445
139.526
139.476
139.295
138.988
138.555
138
137.326
136.536
135.635
134.627
133.516
132.305
131
129.606
128.126
126.567
124.934
123.233
121.468
119.646
117.772
115.852
113.891
111.895
109.87
107.82
105.752
103.67
101.578
99.4829
97.3879
95.2977
93.2166
91.1483
89.0968
87.0655
85.0578
83.0766
81.1247
79.2049
77.3195
75.4705
73.66
71.8896
70.1609
68.4751
66.8333
65.2366
63.6855
62.1808
60.7227
59.3115
57.9474
56.6303
55.3601
54.1364
52.959
51.8272
50.7406
49.6985
48.7001
47.7446
46.8311
45.9586
45.1263
44.3329
43.5775
42.8595
42.1776
41.5306
40.9173
40.3364
39.7866
39.2665
38.775
38.3105
37.8717
37.4573
37.0658
36.6958
36.346
36.0147
35.7007
35.4024
35.1184
34.8472
34.5872
34.337
34.0951
33.8599
33.6299
33.4036
33.1794
32.9557
32.7312
32.5042
32.2733
32.0369
31.7936
31.542
31.2807
31.0083
30.7237
30.4255
30.1127
29.7842
29.4391
29.0765
28.6958
28.2962
27.8774
27.439
26.9807
26.5023
26.0036
25.4848
24.9459
24.3874
23.8096
23.2132
22.5988
21.9673
21.3197
20.6569
19.9803
19.291
18.5906
17.8806
17.163
16.4397
15.7131
14.986
14.2615
13.5438
12.8374
12.1485
11.4847
10.8562
10.2769
9.7673
9.35996
9.11332
9.15108
9.80897
12.4666
28.0548
128.355
58.7599
45.9796
42.1432
41.1655
41.5013
42.5735
44.1134
45.976
48.0748
50.3538
52.7747
55.3094
57.9369
60.6403
63.4058
66.2218
69.0779
71.9649
74.8743
77.798
80.7285
83.6585
86.5807
89.4882
92.3741
95.2316
98.0541
100.835
103.567
106.245
108.862
111.412
113.889
116.287
118.601
120.824
122.952
124.98
126.904
128.718
130.419
132.003
133.467
134.809
136.024
137.112
138.07
138.897
139.592
140.155
140.584
140.882
141.048
141.083
140.988
140.767
140.42
139.951
139.363
138.658
137.841
136.915
135.884
134.752
133.524
132.203
130.795
129.305
127.737
126.097
124.39
122.622
120.798
118.923
117.002
115.042
113.048
111.024
108.977
106.911
104.831
102.742
100.649
98.5553
96.4663
94.3858
92.3176
90.2654
88.2326
86.2225
84.2382
82.2823
80.3575
78.4662
76.6104
74.7921
73.013
71.2746
69.5783
67.9252
66.3162
64.7522
63.2336
61.7609
60.3346
58.9546
57.621
56.3337
55.0925
53.897
52.7468
51.6413
50.58
49.5621
48.5869
47.6534
46.7608
45.9082
45.0944
44.3189
43.5807
42.8785
42.2114
41.5779
40.9769
40.4071
39.8671
39.3558
38.8717
38.4134
37.9797
37.5691
37.1802
36.8116
36.4619
36.1296
35.8133
35.5115
35.2228
34.9456
34.6785
34.4199
34.1684
33.9225
33.6806
33.4413
33.2029
32.9642
32.7235
32.4794
32.2305
31.9754
31.7127
31.4412
31.1596
30.8666
30.5612
30.2422
29.9089
29.5602
29.1955
28.814
28.4153
27.999
27.5647
27.1122
26.6412
26.1518
25.6441
25.118
24.5741
24.0125
23.4339
22.8388
22.2279
21.6019
20.9618
20.3086
19.6433
18.9672
18.2817
17.5884
16.8894
16.1868
15.4834
14.7825
14.0883
13.4058
12.7416
12.1042
11.5047
10.9591
10.4905
10.1364
9.96427
10.1177
10.9864
14.1639
32.2651
128.357
58.7573
45.977
42.1406
41.163
41.4988
42.571
44.1109
45.9734
48.0722
50.3512
52.772
55.3067
57.9342
60.6375
63.403
66.219
69.075
71.962
74.8713
77.795
80.7255
83.6553
86.5775
89.485
92.3708
95.2283
98.0508
100.832
103.564
106.242
108.859
111.409
113.886
116.284
118.597
120.821
122.949
124.977
126.9
128.714
130.415
132
133.464
134.805
136.021
137.108
138.066
138.894
139.589
140.151
140.581
140.879
141.044
141.08
140.985
140.764
140.418
139.949
139.36
138.655
137.838
136.912
135.881
134.749
133.521
132.201
130.793
129.303
127.735
126.095
124.388
122.62
120.796
118.921
117
115.04
113.046
111.023
108.975
106.909
104.829
102.74
100.647
98.5538
96.4648
94.3843
92.3162
90.264
88.2313
86.2213
84.237
82.2811
80.3564
78.4651
76.6093
74.7911
73.012
71.2737
69.5774
67.9243
66.3154
64.7513
63.2328
61.7602
60.3338
58.9538
57.6203
56.333
55.0918
53.8963
52.7462
51.6407
50.5794
49.5616
48.5863
47.6529
46.7603
45.9077
45.094
44.3185
43.5802
42.8781
42.211
41.5775
40.9765
40.4067
39.8668
39.3555
38.8714
38.4131
37.9794
37.5688
37.1799
36.8114
36.4617
36.1294
35.8131
35.5114
35.2226
34.9455
34.6784
34.4198
34.1683
33.9224
33.6805
33.4412
33.2029
32.9641
32.7234
32.4794
32.2305
31.9754
31.7127
31.4412
31.1596
30.8666
30.5612
30.2423
29.9089
29.5602
29.1955
28.8141
28.4154
27.999
27.5647
27.1122
26.6413
26.1519
25.6441
25.1181
24.5741
24.0126
23.4339
22.8388
22.2279
21.602
20.9619
20.3086
19.6433
18.9672
18.2817
17.5885
16.8894
16.1868
15.4834
14.7826
14.0883
13.4058
12.7416
12.1041
11.5047
10.9591
10.4905
10.1364
9.96424
10.1177
10.9864
14.164
32.2651
145.31
66.3187
51.429
46.712
45.2564
45.2979
46.1771
47.587
49.3623
51.4043
53.6496
56.0542
58.5864
61.2222
63.9424
66.7314
69.576
72.4644
75.3864
78.3323
81.2933
84.2609
87.2271
90.1841
93.1244
96.0404
98.925
101.771
104.572
107.32
110.009
112.633
115.185
117.66
120.05
122.351
124.558
126.665
128.668
130.562
132.343
134.007
135.552
136.973
138.269
139.437
140.476
141.383
142.159
142.802
143.313
143.69
143.936
144.051
144.036
143.893
143.625
143.233
142.72
142.089
141.344
140.489
139.527
138.462
137.297
136.039
134.69
133.255
131.74
130.149
128.487
126.76
124.972
123.13
121.237
119.3
117.325
115.315
113.276
111.214
109.133
107.039
104.935
102.826
100.717
98.6122
96.5152
94.4299
92.36
90.3088
88.2796
86.2754
84.2989
82.3527
80.4392
78.5605
76.7185
74.9149
73.1514
71.4293
69.7497
68.1136
66.5217
64.9749
63.4735
62.0179
60.6083
59.2447
57.9271
56.6554
55.4291
54.2479
53.1114
52.0189
50.9697
49.9632
48.9986
48.0748