/*--------------------------------*- C++ -*----------------------------------*\
  =========                 |
  \\      /  F ield         | OpenFOAM: The Open Source CFD Toolbox
   \\    /   O peration     | Website:  https://openfoam.org
    \\  /    A nd           | Version:  8
     \\/     M anipulation  |
\*---------------------------------------------------------------------------*/
FoamFile
{
    version     2.0;
    format      ascii;
    class       volScalarField;
    location    "2300";
    object      k;
}
// * * * * * * * * * * * * * * * * * * * * * * * * * * * * * * * * * * * * * //

dimensions      [0 2 -2 0 0 0 0];

internalField   nonuniform List<scalar> 
46000
(
0.0025062
0.0119627
0.0244406
0.0365878
0.0482492
0.0596109
0.0707054
0.0816031
0.0923509
0.103012
0.113556
0.124015
0.134403
0.144724
0.154982
0.165173
0.175298
0.185351
0.195327
0.205221
0.215024
0.22473
0.23433
0.243815
0.253175
0.262399
0.271478
0.2804
0.289153
0.297727
0.306108
0.314285
0.322245
0.329976
0.337466
0.344702
0.351673
0.358366
0.364769
0.370872
0.376663
0.382133
0.387271
0.392069
0.396519
0.400613
0.404345
0.407708
0.410699
0.413314
0.41555
0.417406
0.418882
0.419977
0.420694
0.421036
0.421007
0.420612
0.419856
0.418747
0.417294
0.41551
0.413421
0.411047
0.40837
0.4054
0.402148
0.398628
0.394853
0.390837
0.386595
0.382142
0.377493
0.372663
0.367667
0.362521
0.35724
0.351839
0.346333
0.340737
0.335065
0.329332
0.323552
0.317737
0.311902
0.306058
0.300217
0.294391
0.288592
0.282829
0.277112
0.27145
0.265853
0.260328
0.254883
0.249524
0.244258
0.239091
0.234028
0.229073
0.22423
0.219503
0.214895
0.210409
0.206046
0.201808
0.197696
0.19371
0.189852
0.186122
0.182517
0.179039
0.175685
0.172455
0.169346
0.166357
0.163486
0.16073
0.158087
0.155553
0.153127
0.150805
0.148583
0.146458
0.144428
0.142487
0.140633
0.138863
0.137169
0.135551
0.134005
0.132526
0.131108
0.129747
0.128439
0.127179
0.125963
0.124786
0.123643
0.122529
0.12144
0.120372
0.119318
0.118275
0.117237
0.1162
0.115159
0.114108
0.113044
0.11196
0.110854
0.10972
0.108553
0.107349
0.106104
0.104813
0.103474
0.102082
0.100633
0.0991257
0.0975558
0.0959209
0.0942189
0.0924478
0.0906109
0.0887254
0.086774
0.0847533
0.082663
0.0805041
0.078278
0.0759867
0.0736327
0.0712188
0.0687486
0.0662257
0.0636546
0.0610396
0.0583857
0.055698
0.0529819
0.0502429
0.0474864
0.044718
0.0419429
0.0391662
0.0363922
0.0336239
0.0308516
0.0281021
0.0253624
0.0226253
0.0198892
0.0171368
0.0143707
0.0115892
0.00871472
0.00570585
0.00268844
0.000542034
0.00250635
0.0119634
0.0244418
0.0365893
0.0482509
0.0596127
0.0707072
0.0816049
0.0923528
0.103014
0.113558
0.124017
0.134405
0.144726
0.154983
0.165175
0.1753
0.185353
0.195329
0.205222
0.215026
0.224732
0.234332
0.243817
0.253177
0.262401
0.27148
0.280401
0.289155
0.297728
0.306109
0.314286
0.322246
0.329978
0.337468
0.344704
0.351674
0.358367
0.36477
0.370873
0.376665
0.382134
0.387273
0.392071
0.39652
0.400614
0.404346
0.407709
0.4107
0.413315
0.415551
0.417407
0.418883
0.419978
0.420695
0.421037
0.421008
0.420613
0.419857
0.418748
0.417295
0.415511
0.413422
0.411047
0.408371
0.405401
0.402149
0.398629
0.394854
0.390838
0.386596
0.382143
0.377494
0.372663
0.367667
0.362521
0.35724
0.351839
0.346333
0.340737
0.335065
0.329332
0.323552
0.317737
0.311902
0.306058
0.300217
0.294391
0.288592
0.282829
0.277112
0.27145
0.265853
0.260328
0.254883
0.249524
0.244258
0.239091
0.234027
0.229072
0.22423
0.219503
0.214895
0.210408
0.206045
0.201807
0.197695
0.19371
0.189852
0.186121
0.182517
0.179038
0.175685
0.172454
0.169346
0.166357
0.163485
0.16073
0.158086
0.155553
0.153127
0.150804
0.148582
0.146458
0.144427
0.142487
0.140633
0.138863
0.137169
0.135551
0.134005
0.132525
0.131107
0.129747
0.128439
0.127179
0.125962
0.124785
0.123642
0.122529
0.12144
0.120371
0.119318
0.118274
0.117237
0.1162
0.115158
0.114108
0.113043
0.11196
0.110854
0.109719
0.108552
0.107348
0.106103
0.104813
0.103474
0.102082
0.100633
0.0991254
0.0975554
0.0959206
0.0942186
0.0924475
0.0906106
0.0887251
0.0867737
0.084753
0.0826627
0.0805038
0.0782777
0.0759864
0.0736324
0.0712186
0.0687484
0.0662255
0.0636544
0.0610394
0.0583855
0.0556979
0.0529818
0.0502428
0.0474863
0.0447179
0.0419428
0.0391661
0.0363922
0.0336239
0.0308516
0.0281021
0.0253624
0.0226253
0.0198892
0.0171368
0.0143708
0.0115894
0.00871483
0.00570593
0.00268849
0.000542048
0.0118683
0.0555658
0.0889649
0.116604
0.141225
0.163834
0.185046
0.205212
0.224545
0.243215
0.261329
0.278967
0.29619
0.313041
0.329551
0.345745
0.361641
0.377251
0.392583
0.407644
0.422436
0.436958
0.45121
0.465189
0.478888
0.492303
0.505427
0.51825
0.530765
0.542961
0.554828
0.566356
0.577532
0.588346
0.598786
0.608839
0.618494
0.627738
0.636561
0.64495
0.652895
0.660386
0.667412
0.673964
0.680034
0.685615
0.690699
0.695281
0.699357
0.702923
0.705977
0.708517
0.710544
0.71206
0.713066
0.713567
0.713568
0.713075
0.712096
0.71064
0.708717
0.706339
0.703521
0.700281
0.696624
0.692565
0.688117
0.683297
0.678122
0.672609
0.666776
0.660642
0.654226
0.647546
0.640622
0.633474
0.62612
0.61858
0.610874
0.60302
0.595037
0.586945
0.578761
0.570503
0.562189
0.553835
0.545459
0.537076
0.528702
0.52035
0.512036
0.503774
0.495574
0.487451
0.479415
0.471477
0.463647
0.455934
0.448348
0.440895
0.433584
0.426421
0.419411
0.412561
0.405874
0.399354
0.393006
0.38683
0.380831
0.375009
0.369365
0.3639
0.358614
0.353506
0.348576
0.343821
0.33924
0.334831
0.33059
0.326516
0.322604
0.318851
0.315253
0.311806
0.308504
0.305343
0.302317
0.299425
0.29666
0.294014
0.291481
0.289054
0.286727
0.284492
0.282343
0.280273
0.278273
0.276338
0.274458
0.272626
0.270835
0.269076
0.267342
0.265624
0.263913
0.262202
0.260482
0.258745
0.256983
0.255186
0.253346
0.251456
0.249507
0.24749
0.245398
0.243222
0.240956
0.238591
0.236121
0.233539
0.230838
0.228012
0.225056
0.221964
0.218731
0.215359
0.211843
0.20818
0.204365
0.200398
0.196278
0.192004
0.187578
0.183002
0.178277
0.173407
0.168394
0.163244
0.157959
0.152545
0.147007
0.14135
0.135578
0.129695
0.123705
0.117611
0.111412
0.105107
0.0986889
0.0921483
0.0854586
0.0785869
0.0715172
0.0641622
0.0564059
0.0481047
0.0390493
0.0287857
0.016448
0.00260148
0.0118689
0.0555675
0.0889665
0.116605
0.141226
0.163835
0.185046
0.205213
0.224546
0.243215
0.261329
0.278967
0.29619
0.31304
0.32955
0.345744
0.36164
0.37725
0.392582
0.407643
0.422434
0.436957
0.451209
0.465187
0.478887
0.492301
0.505425
0.518248
0.530763
0.542959
0.554826
0.566353
0.57753
0.588344
0.598783
0.608836
0.618491
0.627735
0.636558
0.644947
0.652892
0.660382
0.667408
0.673961
0.680031
0.685611
0.690695
0.695278
0.699353
0.702919
0.705973
0.708513
0.710541
0.712056
0.713062
0.713563
0.713564
0.713071
0.712092
0.710636
0.708713
0.706335
0.703517
0.700276
0.69662
0.69256
0.688113
0.683293
0.678118
0.672605
0.666772
0.660638
0.654222
0.647542
0.640618
0.63347
0.626116
0.618576
0.61087
0.603016
0.595033
0.586941
0.578757
0.570499
0.562185
0.553831
0.545455
0.537072
0.528698
0.520346
0.512033
0.50377
0.495571
0.487447
0.479411
0.471473
0.463643
0.455931
0.448344
0.440892
0.433581
0.426417
0.419408
0.412557
0.40587
0.399351
0.393002
0.386827
0.380828
0.375006
0.369362
0.363898
0.358611
0.353504
0.348573
0.343818
0.339237
0.334828
0.330588
0.326513
0.322602
0.318849
0.315251
0.311803
0.308502
0.305341
0.302315
0.299423
0.296657
0.294011
0.291479
0.289052
0.286725
0.28449
0.282341
0.280271
0.278272
0.276336
0.274456
0.272625
0.270833
0.269075
0.26734
0.265622
0.263912
0.262201
0.260481
0.258744
0.256981
0.255184
0.253345
0.251455
0.249505
0.247489
0.245396
0.243221
0.240955
0.23859
0.23612
0.233538
0.230837
0.228011
0.225055
0.221963
0.21873
0.215358
0.211842
0.208179
0.204364
0.200397
0.196277
0.192004
0.187578
0.183002
0.178277
0.173406
0.168394
0.163243
0.157959
0.152545
0.147007
0.141349
0.135577
0.129694
0.123705
0.11761
0.111412
0.105107
0.0986887
0.0921481
0.0854584
0.0785867
0.0715171
0.0641621
0.0564058
0.0481046
0.0390492
0.0287856
0.016448
0.00260147
0.0245054
0.0896679
0.132223
0.166186
0.196255
0.22392
0.249901
0.274612
0.298315
0.321192
0.343372
0.36495
0.385996
0.406564
0.426693
0.446413
0.465747
0.484712
0.503319
0.521574
0.539484
0.557048
0.574265
0.591134
0.607648
0.623801
0.639586
0.654993
0.670013
0.684635
0.698848
0.712639
0.725995
0.738904
0.751353
0.763329
0.774817
0.785806
0.796282
0.806232
0.815646
0.824511
0.832816
0.840553
0.847711
0.854283
0.860261
0.86564
0.870416
0.874584
0.878143
0.881092
0.883432
0.885164
0.886292
0.886822
0.886758
0.88611
0.884886
0.883096
0.880753
0.877871
0.874465
0.870551
0.866143
0.861255
0.855907
0.850115
0.8439
0.837282
0.830281
0.82292
0.81522
0.807203
0.798891
0.790308
0.781477
0.772418
0.763157
0.753714
0.744112
0.734373
0.724519
0.714571
0.70455
0.694476
0.684368
0.674245
0.664127
0.654031
0.643973
0.633971
0.624039
0.614192
0.604445
0.594811
0.585302
0.575929
0.566703
0.557635
0.548733
0.540006
0.531461
0.523105
0.514944
0.506982
0.499226
0.491677
0.48434
0.477216
0.470308
0.463615
0.457139
0.45088
0.444835
0.439005
0.433386
0.427977
0.422774
0.417775
0.412975
0.408369
0.403953
0.399723
0.395671
0.391795
0.388089
0.384546
0.381158
0.377918
0.374818
0.37185
0.369005
0.366276
0.363653
0.361128
0.358692
0.356335
0.354049
0.351823
0.349648
0.347514
0.345411
0.343329
0.341258
0.339187
0.337106
0.335005
0.332873
0.330699
0.328473
0.326185
0.323824
0.32138
0.318844
0.316204
0.313452
0.310578
0.307573
0.304429
0.301137
0.29769
0.29408
0.290301
0.286348
0.282216
0.277903
0.273401
0.268709
0.263823
0.258742
0.253464
0.247991
0.242322
0.236461
0.230408
0.224168
0.217743
0.211138
0.204358
0.197406
0.190288
0.183007
0.175568
0.167972
0.160221
0.152315
0.144249
0.136016
0.127601
0.118981
0.110122
0.100975
0.0914521
0.0814565
0.0707776
0.0591348
0.0458474
0.0289834
0.00558402
0.0245065
0.0896693
0.132224
0.166186
0.196254
0.22392
0.2499
0.274611
0.298314
0.321191
0.343371
0.364948
0.385994
0.406561
0.42669
0.44641
0.465745
0.484709
0.503315
0.521571
0.53948
0.557044
0.574262
0.59113
0.607644
0.623797
0.639582
0.654989
0.670009
0.684631
0.698843
0.712634
0.72599
0.738899
0.751348
0.763323
0.774812
0.7858
0.796276
0.806227
0.81564
0.824505
0.83281
0.840547
0.847705
0.854276
0.860255
0.865634
0.87041
0.874578
0.878137
0.881086
0.883425
0.885158
0.886286
0.886815
0.886752
0.886103
0.884879
0.883089
0.880747
0.877865
0.874459
0.870545
0.866136
0.861249
0.8559
0.850109
0.843894
0.837275
0.830275
0.822914
0.815213
0.807196
0.798885
0.790302
0.78147
0.772412
0.763151
0.753708
0.744106
0.734367
0.724514
0.714566
0.704544
0.69447
0.684362
0.67424
0.664122
0.654025
0.643968
0.633965
0.624034
0.614187
0.60444
0.594806
0.585297
0.575924
0.566699
0.55763
0.548729
0.540001
0.531456
0.5231
0.514939
0.506978
0.499222
0.491673
0.484336
0.477212
0.470304
0.463612
0.457136
0.450876
0.444832
0.439001
0.433383
0.427974
0.422771
0.417772
0.412971
0.408366
0.40395
0.39972
0.395668
0.391792
0.388086
0.384543
0.381155
0.377915
0.374815
0.371847
0.369003
0.366273
0.363651
0.361126
0.35869
0.356333
0.354047
0.351821
0.349646
0.347512
0.34541
0.343328
0.341257
0.339186
0.337105
0.335004
0.332871
0.330697
0.328472
0.326184
0.323823
0.321379
0.318842
0.316203
0.313451
0.310577
0.307572
0.304428
0.301136
0.297689
0.294079
0.2903
0.286347
0.282216
0.277902
0.273401
0.268709
0.263823
0.258741
0.253464
0.24799
0.242322
0.23646
0.230408
0.224167
0.217743
0.211138
0.204357
0.197406
0.190288
0.183007
0.175567
0.167972
0.160221
0.152315
0.144249
0.136015
0.1276
0.118981
0.110122
0.100975
0.091452
0.0814564
0.0707775
0.0591347
0.0458474
0.0289834
0.005584
0.0371084
0.118502
0.167614
0.205754
0.239254
0.270099
0.299139
0.32683
0.353451
0.379188
0.404176
0.428509
0.452261
0.475485
0.498223
0.520506
0.542355
0.563789
0.584817
0.605447
0.625682
0.645523
0.664968
0.684012
0.702649
0.720872
0.73867
0.756035
0.772953
0.789414
0.805403
0.820907
0.835912
0.850404
0.864368
0.87779
0.890654
0.902948
0.914657
0.925767
0.936267
0.946143
0.955385
0.963982
0.971925
0.979206
0.985817
0.991753
0.997009
1.00158
1.00547
1.00867
1.0112
1.01304
1.0142
1.01469
1.01452
1.0137
1.01223
1.01013
1.00742
1.0041
1.00019
0.995717
0.990689
0.985127
0.979048
0.972475
0.965428
0.957929
0.950003
0.941672
0.932961
0.923895
0.914497
0.904795
0.894812
0.884573
0.874105
0.863432
0.852579
0.84157
0.83043
0.819182
0.807849
0.796454
0.785019
0.773566
0.762114
0.750685
0.739297
0.727969
0.716718
0.705562
0.694515
0.683592
0.672809
0.662178
0.651711
0.641419
0.631314
0.621405
0.6117
0.602208
0.592934
0.583886
0.575068
0.566485
0.55814
0.550037
0.542177
0.534561
0.527191
0.520065
0.513184
0.506546
0.500148
0.493988
0.488063
0.482369
0.476902
0.471656
0.466627
0.461809
0.457198
0.452787
0.44857
0.444539
0.440685
0.437
0.433475
0.430101
0.426869
0.423769
0.420792
0.417927
0.415164
0.412493
0.409902
0.407382
0.404921
0.402508
0.400131
0.397779
0.39544
0.393103
0.390756
0.388386
0.385982
0.383532
0.381024
0.378446
0.375786
0.373033
0.370176
0.367203
0.364103
0.360866
0.357481
0.353939
0.350231
0.346347
0.342281
0.338023
0.333569
0.328914
0.324051
0.318975
0.313684
0.308172
0.302438
0.296481
0.290301
0.283897
0.277271
0.270425
0.263362
0.256085
0.248597
0.240903
0.233006
0.22491
0.216619
0.208136
0.199464
0.190602
0.181551
0.172305
0.162858
0.153196
0.143297
0.133129
0.122644
0.111764
0.100369
0.0882406
0.0750004
0.0597771
0.0397778
0.00871005
0.0371097
0.118503
0.167614
0.205753
0.239253
0.270098
0.299137
0.326828
0.353448
0.379186
0.404173
0.428507
0.452258
0.475483
0.49822
0.520503
0.542352
0.563785
0.584813
0.605443
0.625678
0.645519
0.664963
0.684007
0.702645
0.720867
0.738666
0.75603
0.772948
0.789409
0.805397
0.820902
0.835907
0.850398
0.864362
0.877784
0.890649
0.902942
0.914651
0.925761
0.936261
0.946137
0.955379
0.963976
0.971919
0.979199
0.98581
0.991746
0.997002
1.00158
1.00546
1.00867
1.01119
1.01303
1.01419
1.01469
1.01452
1.01369
1.01222
1.01013
1.00741
1.00409
1.00018
0.99571
0.990683
0.98512
0.979042
0.972468
0.965421
0.957923
0.949997
0.941666
0.932955
0.923888
0.914491
0.904789
0.894806
0.884567
0.874099
0.863426
0.852573
0.841564
0.830424
0.819176
0.807843
0.796448
0.785013
0.77356
0.762109
0.75068
0.739292
0.727964
0.716713
0.705557
0.69451
0.683588
0.672804
0.662173
0.651706
0.641415
0.63131
0.621401
0.611696
0.602203
0.59293
0.583882
0.575064
0.566481
0.558136
0.550033
0.542173
0.534558
0.527187
0.520062
0.513181
0.506543
0.500145
0.493985
0.48806
0.482366
0.476899
0.471654
0.466625
0.461806
0.457195
0.452785
0.448568
0.444537
0.440683
0.436998
0.433473
0.430099
0.426867
0.423767
0.42079
0.417925
0.415162
0.412491
0.409901
0.407381
0.404919
0.402506
0.400129
0.397778
0.395439
0.393102
0.390754
0.388385
0.385981
0.383531
0.381023
0.378445
0.375785
0.373032
0.370175
0.367202
0.364102
0.360865
0.35748
0.353939
0.35023
0.346347
0.34228
0.338023
0.333569
0.328913
0.32405
0.318975
0.313683
0.308171
0.302438
0.296481
0.2903
0.283896
0.277271
0.270425
0.263362
0.256085
0.248597
0.240902
0.233005
0.22491
0.216619
0.208136
0.199464
0.190602
0.181551
0.172305
0.162858
0.153195
0.143297
0.133129
0.122644
0.111764
0.100369
0.0882406
0.0750004
0.0597771
0.0397778
0.00871004
0.0495366
0.144691
0.199601
0.241331
0.277654
0.311015
0.34244
0.372451
0.401355
0.429348
0.456567
0.483107
0.50904
0.53442
0.559285
0.583666
0.607584
0.631052
0.654083
0.676679
0.698845
0.720577
0.741873
0.762725
0.783127
0.803069
0.822539
0.841525
0.860014
0.877992
0.895445
0.912356
0.928711
0.944494
0.95969
0.974281
0.988254
1.00159
1.01428
1.02631
1.03766
1.04833
1.05829
1.06755
1.07608
1.08389
1.09097
1.0973
1.10289
1.10774
1.11184
1.11519
1.1178
1.11967
1.1208
1.12121
1.12089
1.11987
1.11815
1.11575
1.11267
1.10895
1.10458
1.09961
1.09403
1.08787
1.08116
1.07391
1.06614
1.05789
1.04918
1.04002
1.03046
1.02051
1.0102
0.999557
0.988611
0.977387
0.965913
0.954216
0.942322
0.930258
0.91805
0.905723
0.893303
0.880815
0.868281
0.855726
0.843172
0.83064
0.818152
0.805727
0.793385
0.781144
0.76902
0.757032
0.745193
0.733519
0.722023
0.710718
0.699614
0.688723
0.678054
0.667617
0.657417
0.647463
0.637761
0.628314
0.619128
0.610205
0.601548
0.593158
0.585037
0.577183
0.569597
0.562277
0.555221
0.548426
0.541888
0.535604
0.529569
0.523777
0.518224
0.512904
0.507813
0.502942
0.498284
0.49383
0.489571
0.485498
0.481602
0.477873
0.4743
0.470873
0.467581
0.464414
0.46136
0.458407
0.455545
0.45276
0.450041
0.447376
0.444751
0.442155
0.439574
0.436997
0.434408
0.431797
0.429149
0.426452
0.423693
0.420858
0.417936
0.414913
0.411777
0.408516
0.405118
0.401572
0.397867
0.393992
0.389938
0.385695
0.381254
0.376609
0.371751
0.366676
0.361377
0.355848
0.350086
0.344087
0.337848
0.331368
0.324645
0.317679
0.310472
0.303025
0.295339
0.287417
0.279262
0.270877
0.262265
0.253429
0.244372
0.235097
0.225604
0.215894
0.205967
0.195817
0.185439
0.17482
0.163941
0.152773
0.141268
0.129349
0.116889
0.10365
0.0891593
0.0723136
0.0496106
0.0118707
0.0495381
0.144692
0.1996
0.24133
0.277652
0.311013
0.342438
0.372449
0.401353
0.429346
0.456564
0.483104
0.509037
0.534417
0.559282
0.583663
0.60758
0.631049
0.654079
0.676676
0.698841
0.720573
0.741869
0.762721
0.783123
0.803064
0.822534
0.84152
0.860009
0.877987
0.89544
0.912351
0.928706
0.944489
0.959684
0.974276
0.988249
1.00159
1.01428
1.02631
1.03766
1.04832
1.05829
1.06754
1.07608
1.08389
1.09096
1.09729
1.10289
1.10773
1.11183
1.11518
1.11779
1.11966
1.1208
1.1212
1.12089
1.11986
1.11814
1.11574
1.11267
1.10894
1.10458
1.0996
1.09402
1.08787
1.08115
1.0739
1.06614
1.05789
1.04917
1.04002
1.03045
1.0205
1.01019
0.999551
0.988605
0.977381
0.965908
0.95421
0.942316
0.930252
0.918044
0.905718
0.893298
0.88081
0.868276
0.855721
0.843167
0.830636
0.818147
0.805723
0.79338
0.781139
0.769016
0.757028
0.745189
0.733515
0.722019
0.710714
0.69961
0.688719
0.678051
0.667613
0.657414
0.64746
0.637757
0.628311
0.619124
0.610202
0.601545
0.593155
0.585034
0.57718
0.569595
0.562275
0.555218
0.548423
0.541886
0.535602
0.529567
0.523775
0.518221
0.512902
0.507811
0.50294
0.498282
0.493828
0.489569
0.485497
0.481601
0.477871
0.474298
0.470871
0.46758
0.464413
0.461359
0.458406
0.455543
0.452759
0.45004
0.447374
0.44475
0.442154
0.439573
0.436995
0.434407
0.431796
0.429148
0.426451
0.423692
0.420857
0.417935
0.414912
0.411776
0.408515
0.405117
0.401571
0.397866
0.393992
0.389937
0.385694
0.381254
0.376608
0.371751
0.366675
0.361376
0.355848
0.350086
0.344087
0.337848
0.331367
0.324644
0.317679
0.310472
0.303025
0.295339
0.287417
0.279262
0.270877
0.262265
0.253429
0.244372
0.235097
0.225604
0.215894
0.205966
0.195817
0.185438
0.17482
0.163941
0.152773
0.141268
0.129349
0.116889
0.10365
0.0891594
0.0723137
0.0496106
0.0118707
0.0619263
0.169266
0.229692
0.274879
0.313851
0.3495
0.383041
0.415084
0.445975
0.475929
0.505088
0.533553
0.561394
0.588663
0.615398
0.641627
0.667369
0.692637
0.717438
0.741775
0.765648
0.789054
0.811986
0.834436
0.856395
0.877849
0.898788
0.919195
0.939057
0.958357
0.97708
0.995207
1.01272
1.02961
1.04586
1.06144
1.07634
1.09055
1.10406
1.11684
1.12888
1.14018
1.15072
1.16049
1.16948
1.17768
1.1851
1.19171
1.19753
1.20255
1.20677
1.21018
1.21281
1.21464
1.21568
1.21595
1.21546
1.21421
1.21221
1.20949
1.20606
1.20194
1.19714
1.19168
1.18559
1.17889
1.17159
1.16372
1.15531
1.14639
1.13697
1.12708
1.11676
1.10603
1.09491
1.08345
1.07166
1.05957
1.04722
1.03463
1.02183
1.00885
0.995716
0.982453
0.96909
0.955653
0.942166
0.928655
0.915144
0.901656
0.888212
0.874835
0.861545
0.848361
0.835301
0.822384
0.809626
0.797042
0.784647
0.772455
0.760477
0.748725
0.73721
0.725941
0.714926
0.704173
0.693689
0.683477
0.673544
0.663892
0.654525
0.645444
0.63665
0.628143
0.619923
0.611988
0.604336
0.596964
0.589869
0.583045
0.576489
0.570195
0.564159
0.558376
0.552837
0.547536
0.542464
0.537611
0.532969
0.528527
0.524276
0.520204
0.516302
0.512557
0.508958
0.505494
0.502153
0.498921
0.495787
0.492737
0.489759
0.48684
0.483965
0.481122
0.478296
0.475475
0.472643
0.469788
0.466895
0.463951
0.460941
0.457853
0.454672
0.451385
0.447979
0.444442
0.440762
0.436925
0.432921
0.42874
0.42437
0.419802
0.415027
0.410038
0.404827
0.399388
0.393714
0.387801
0.381643
0.375237
0.36858
0.361669
0.354504
0.347084
0.339408
0.331478
0.323294
0.314858
0.306171
0.297236
0.288053
0.278626
0.268955
0.259041
0.248886
0.238489
0.227847
0.216959
0.205816
0.194409
0.18272
0.170719
0.15836
0.145563
0.132185
0.117962
0.102346
0.0840074
0.0588389
0.0150628
0.0619279
0.169267
0.229691
0.274878
0.313849
0.349498
0.383039
0.415082
0.445973
0.475926
0.505085
0.53355
0.561391
0.58866
0.615395
0.641624
0.667366
0.692633
0.717434
0.741771
0.765644
0.78905
0.811982
0.834432
0.85639
0.877845
0.898783
0.919191
0.939053
0.958353
0.977075
0.995203
1.01272
1.02961
1.04585
1.06143
1.07634
1.09055
1.10405
1.11683
1.12888
1.14017
1.15071
1.16048
1.16947
1.17768
1.18509
1.19171
1.19753
1.20254
1.20676
1.21018
1.2128
1.21463
1.21568
1.21595
1.21545
1.2142
1.21221
1.20949
1.20605
1.20193
1.19713
1.19168
1.18559
1.17888
1.17158
1.16372
1.15531
1.14638
1.13696
1.12708
1.11675
1.10602
1.09491
1.08344
1.07165
1.05957
1.04722
1.03463
1.02183
1.00885
0.995711
0.982449
0.969086
0.955648
0.942162
0.928651
0.91514
0.901652
0.888208
0.874831
0.861541
0.848357
0.835298
0.822381
0.809623
0.797039
0.784644
0.772451
0.760474
0.748722
0.737207
0.725938
0.714923
0.70417
0.693686
0.683474
0.673541
0.66389
0.654522
0.645441
0.636647
0.628141
0.619921
0.611986
0.604334
0.596962
0.589866
0.583043
0.576487
0.570193
0.564157
0.558374
0.552836
0.547535
0.542462
0.53761
0.532967
0.528526
0.524274
0.520203
0.5163
0.512555
0.508957
0.505493
0.502151
0.49892
0.495786
0.492736
0.489758
0.486839
0.483964
0.481121
0.478295
0.475474
0.472642
0.469787
0.466894
0.46395
0.46094
0.457852
0.454671
0.451384
0.447979
0.444442
0.440761
0.436924
0.432921
0.428739
0.424369
0.419801
0.415027
0.410038
0.404827
0.399388
0.393714
0.387801
0.381643
0.375237
0.36858
0.361669
0.354504
0.347084
0.339408
0.331478
0.323294
0.314858
0.306171
0.297235
0.288053
0.278626
0.268955
0.259041
0.248886
0.238489
0.227847
0.216959
0.205816
0.194409
0.18272
0.170719
0.15836
0.145563
0.132185
0.117963
0.102347
0.0840075
0.058839
0.0150628
0.074349
0.192908
0.258681
0.307322
0.348934
0.386825
0.422401
0.456368
0.489121
0.520899
0.551859
0.582106
0.611712
0.64073
0.669196
0.697136
0.724567
0.7515
0.77794
0.803887
0.829339
0.85429
0.878731
0.902651
0.926039
0.948881
0.971161
0.992863
1.01397
1.03447
1.05433
1.07355
1.0921
1.10997
1.12713
1.14358
1.15929
1.17425
1.18844
1.20186
1.21448
1.22629
1.23729
1.24746
1.2568
1.2653
1.27296
1.27977
1.28572
1.29083
1.29509
1.2985
1.30107
1.3028
1.30371
1.3038
1.30308
1.30157
1.29928
1.29622
1.29242
1.2879
1.28266
1.27674
1.27015
1.26292
1.25507
1.24663
1.23762
1.22806
1.21799
1.20743
1.19641
1.18497
1.17313
1.16091
1.14836
1.1355
1.12235
1.10896
1.09535
1.08154
1.06757
1.05347
1.03926
1.02498
1.01064
0.99627
0.981902
0.967556
0.953256
0.939024
0.924882
0.91085
0.896948
0.883195
0.869607
0.856201
0.842993
0.829997
0.817225
0.804691
0.792405
0.780377
0.768616
0.75713
0.745926
0.735011
0.724387
0.714061
0.704034
0.694309
0.684886
0.675767
0.666951
0.658435
0.650219
0.642298
0.63467
0.627331
0.620273
0.613495
0.606992
0.600756
0.594779
0.589054
0.583572
0.578322
0.573296
0.568483
0.563872
0.559453
0.555213
0.551141
0.547225
0.543452
0.539809
0.536284
0.532863
0.529532
0.526278
0.523087
0.519945
0.516836
0.513748
0.510665
0.507572
0.504456
0.501302
0.498095
0.494821
0.491465
0.488014
0.484454
0.480771
0.476953
0.472987
0.46886
0.464561
0.460079
0.455404
0.450526
0.445436
0.440126
0.434588
0.428817
0.422806
0.41655
0.410044
0.403284
0.396266
0.388989
0.38145
0.373648
0.365583
0.357253
0.348659
0.3398
0.330678
0.321291
0.311641
0.301727
0.29155
0.281108
0.2704
0.259427
0.248184
0.236667
0.224872
0.212786
0.200392
0.187661
0.174544
0.160953
0.14673
0.131576
0.114866
0.0950814
0.0675661
0.0183177
0.0743506
0.192908
0.25868
0.30732
0.348931
0.386822
0.422399
0.456366
0.489118
0.520897
0.551856
0.582103
0.611709
0.640726
0.669193
0.697133
0.724564
0.751497
0.777936
0.803884
0.829335
0.854286
0.878727
0.902647
0.926035
0.948877
0.971157
0.992859
1.01397
1.03446
1.05433
1.07354
1.09209
1.10996
1.12713
1.14357
1.15928
1.17424
1.18844
1.20185
1.21447
1.22629
1.23728
1.24746
1.2568
1.2653
1.27295
1.27976
1.28572
1.29082
1.29508
1.29849
1.30106
1.3028
1.3037
1.30379
1.30307
1.30156
1.29927
1.29622
1.29242
1.28789
1.28266
1.27674
1.27015
1.26292
1.25507
1.24662
1.23761
1.22805
1.21798
1.20743
1.19641
1.18497
1.17312
1.16091
1.14836
1.13549
1.12235
1.10896
1.09534
1.08154
1.06757
1.05347
1.03926
1.02497
1.01063
0.996267
0.981898
0.967552
0.953252
0.939021
0.924879
0.910847
0.896945
0.883191
0.869604
0.856198
0.84299
0.829994
0.817222
0.804688
0.792402
0.780374
0.768613
0.757128
0.745924
0.735008
0.724385
0.714058
0.704032
0.694306
0.684884
0.675765
0.666949
0.658433
0.650217
0.642297
0.634669
0.627329
0.620272
0.613494
0.60699
0.600754
0.594778
0.589053
0.58357
0.578321
0.573295
0.568482
0.563871
0.559452
0.555212
0.55114
0.547224
0.543451
0.539808
0.536283
0.532862
0.529531
0.526278
0.523086
0.519944
0.516835
0.513747
0.510664
0.507572
0.504456
0.501301
0.498094
0.49482
0.491464
0.488014
0.484454
0.480771
0.476953
0.472986
0.46886
0.464561
0.460079
0.455404
0.450526
0.445435
0.440125
0.434588
0.428817
0.422806
0.41655
0.410044
0.403284
0.396266
0.388989
0.38145
0.373648
0.365583
0.357253
0.348659
0.3398
0.330678
0.321291
0.311641
0.301727
0.29155
0.281108
0.2704
0.259427
0.248184
0.236667
0.224872
0.212786
0.200392
0.187661
0.174544
0.160953
0.14673
0.131576
0.114866
0.0950816
0.0675663
0.0183177
0.0869278
0.21605
0.287089
0.339226
0.383535
0.423707
0.461331
0.497212
0.531797
0.565357
0.598065
0.630035
0.661344
0.692045
0.722175
0.751758
0.78081
0.809338
0.837347
0.864833
0.891791
0.918214
0.944089
0.969405
0.994146
1.0183
1.04184
1.06475
1.08702
1.10863
1.12955
1.14977
1.16927
1.18803
1.20602
1.22324
1.23967
1.25529
1.27008
1.28404
1.29714
1.30938
1.32075
1.33124
1.34085
1.34956
1.35738
1.3643
1.37032
1.37545
1.37968
1.38302
1.38548
1.38706
1.38778
1.38765
1.38667
1.38486
1.38225
1.37884
1.37465
1.36971
1.36403
1.35764
1.35056
1.34282
1.33443
1.32542
1.31583
1.30567
1.29498
1.28379
1.27212
1.26001
1.24748
1.23457
1.22131
1.20773
1.19385
1.17972
1.16535
1.15079
1.13606
1.12118
1.1062
1.09113
1.07601
1.06086
1.0457
1.03056
1.01548
1.00046
0.985531
0.970718
0.956038
0.94151
0.927154
0.912986
0.899022
0.885278
0.871766
0.8585
0.845492
0.832751
0.820288
0.808111
0.796227
0.784642
0.773363
0.762392
0.751734
0.74139
0.731362
0.72165
0.712255
0.703174
0.694405
0.685946
0.677793
0.669941
0.662386
0.655125
0.648152
0.641459
0.635039
0.628881
0.622979
0.617321
0.611898
0.606698
0.601711
0.596925
0.592329
0.587909
0.583653
0.579548
0.57558
0.571737
0.568003
0.564366
0.560809
0.55732
0.553882
0.550481
0.547103
0.543731
0.540351
0.536949
0.533508
0.530013
0.526451
0.522806
0.519065
0.515213
0.511236
0.507122
0.502857
0.49843
0.493829
0.489043
0.484062
0.478876
0.473477
0.467856
0.462006
0.455922
0.449597
0.443025
0.436202
0.429124
0.421787
0.414188
0.406326
0.398197
0.3898
0.381133
0.372195
0.362984
0.353498
0.343736
0.333696
0.323375
0.312772
0.301884
0.290707
0.27924
0.267478
0.255415
0.243046
0.230357
0.217332
0.203937
0.19012
0.175783
0.160752
0.14469
0.126902
0.105709
0.0759208
0.0215798
0.0869294
0.216051
0.287087
0.339224
0.383533
0.423704
0.461329
0.497209
0.531794
0.565354
0.598062
0.630032
0.66134
0.692041
0.722171
0.751755
0.780806
0.809335
0.837343
0.864829
0.891788
0.91821
0.944086
0.969401
0.994142
1.01829
1.04183
1.06475
1.08702
1.10863
1.12955
1.14977
1.16927
1.18802
1.20602
1.22324
1.23967
1.25528
1.27008
1.28403
1.29714
1.30938
1.32075
1.33124
1.34084
1.34956
1.35737
1.36429
1.37032
1.37544
1.37967
1.38301
1.38547
1.38706
1.38778
1.38764
1.38666
1.38486
1.38224
1.37883
1.37464
1.3697
1.36403
1.35764
1.35056
1.34281
1.33442
1.32542
1.31582
1.30567
1.29498
1.28378
1.27212
1.26
1.24748
1.23457
1.22131
1.20772
1.19385
1.17971
1.16535
1.15079
1.13605
1.12118
1.1062
1.09113
1.076
1.06085
1.0457
1.03056
1.01547
1.00045
0.985528
0.970715
0.956035
0.941508
0.927151
0.912983
0.89902
0.885275
0.871763
0.858498
0.845489
0.832749
0.820286
0.808109
0.796225
0.78464
0.773361
0.76239
0.751731
0.741388
0.73136
0.721648
0.712253
0.703172
0.694403
0.685944
0.677791
0.66994
0.662385
0.655124
0.648151
0.641458
0.635037
0.62888
0.622978
0.61732
0.611896
0.606697
0.60171
0.596924
0.592327
0.587908
0.583652
0.579547
0.575579
0.571736
0.568003
0.564365
0.560808
0.557319
0.553881
0.550481
0.547102
0.543731
0.540351
0.536948
0.533507
0.530013
0.526451
0.522806
0.519065
0.515212
0.511236
0.507122
0.502857
0.49843
0.493829
0.489043
0.484062
0.478876
0.473476
0.467855
0.462006
0.455922
0.449596
0.443025
0.436202
0.429124
0.421787
0.414188
0.406326
0.398197
0.3898
0.381133
0.372195
0.362984
0.353498
0.343736
0.333696
0.323375
0.312772
0.301884
0.290707
0.27924
0.267478
0.255415
0.243046
0.230357
0.217332
0.203937
0.19012
0.175783
0.160752
0.144691
0.126902
0.105709
0.075921
0.0215798
0.0997778
0.239003
0.315293
0.371
0.418095
0.460626
0.500362
0.5382
0.574645
0.610003
0.644463
0.678152
0.711154
0.743523
0.775298
0.806503
0.837151
0.867248
0.896796
0.92579
0.954222
0.982081
1.00935
1.03602
1.06208
1.08749
1.11225
1.13632
1.15971
1.18237
1.20429
1.22545
1.24584
1.26542
1.28418
1.30211
1.31919
1.33539
1.35071
1.36514
1.37866
1.39126
1.40293
1.41367
1.42347
1.43232
1.44023
1.4472
1.45322
1.45831
1.46245
1.46567
1.46797
1.46935
1.46983
1.46943
1.46815
1.46602
1.46305
1.45925
1.45466
1.44928
1.44315
1.43629
1.42871
1.42045
1.41152
1.40196
1.3918
1.38106
1.36977
1.35796
1.34566
1.33291
1.31973
1.30616
1.29223
1.27796
1.26339
1.24856
1.23349
1.21821
1.20276
1.18717
1.17145
1.15565
1.13979
1.1239
1.10801
1.09213
1.0763
1.06054
1.04488
1.02933
1.01391
0.998656
0.983573
0.968682
0.954001
0.939544
0.925326
0.911361
0.897661
0.884236
0.871097
0.858252
0.845709
0.833476
0.821557
0.809956
0.798679
0.787727
0.777101
0.766803
0.756832
0.747186
0.737865
0.728864
0.72018
0.71181
0.703749
0.695994
0.688538
0.681374
0.674492
0.667884
0.661542
0.655454
0.649611
0.644001