/*--------------------------------*- C++ -*----------------------------------*\
  =========                 |
  \\      /  F ield         | OpenFOAM: The Open Source CFD Toolbox
   \\    /   O peration     | Website:  https://openfoam.org
    \\  /    A nd           | Version:  8
     \\/     M anipulation  |
\*---------------------------------------------------------------------------*/
FoamFile
{
    version     2.0;
    format      ascii;
    class       volScalarField;
    location    "2300";
    object      nut;
}
// * * * * * * * * * * * * * * * * * * * * * * * * * * * * * * * * * * * * * //

dimensions      [0 2 -1 0 0 0 0];

internalField   nonuniform List<scalar> 
46000
(
1.7925e-07
9.00331e-07
1.83931e-06
2.75332e-06
3.63074e-06
4.48561e-06
5.32036e-06
6.14032e-06
6.94899e-06
7.75113e-06
8.5445e-06
9.33145e-06
1.0113e-05
1.08897e-05
1.16614e-05
1.24283e-05
1.31901e-05
1.39466e-05
1.46972e-05
1.54417e-05
1.61794e-05
1.69097e-05
1.76321e-05
1.83458e-05
1.90501e-05
1.97442e-05
2.04274e-05
2.10987e-05
2.17574e-05
2.24025e-05
2.30331e-05
2.36484e-05
2.42474e-05
2.48292e-05
2.53928e-05
2.59373e-05
2.64618e-05
2.69654e-05
2.74473e-05
2.79065e-05
2.83423e-05
2.87538e-05
2.91405e-05
2.95016e-05
2.98364e-05
3.01444e-05
3.04252e-05
3.06784e-05
3.09034e-05
3.11002e-05
3.12685e-05
3.14082e-05
3.15192e-05
3.16017e-05
3.16557e-05
3.16815e-05
3.16794e-05
3.16497e-05
3.15928e-05
3.15095e-05
3.14002e-05
3.1266e-05
3.11089e-05
3.09303e-05
3.0729e-05
3.05056e-05
3.0261e-05
2.99962e-05
2.97122e-05
2.94101e-05
2.9091e-05
2.8756e-05
2.84062e-05
2.80429e-05
2.7667e-05
2.72799e-05
2.68825e-05
2.64762e-05
2.60619e-05
2.56409e-05
2.52142e-05
2.47829e-05
2.43479e-05
2.39104e-05
2.34714e-05
2.30316e-05
2.25922e-05
2.21538e-05
2.17174e-05
2.12837e-05
2.08536e-05
2.04275e-05
2.00063e-05
1.95905e-05
1.91807e-05
1.87775e-05
1.83812e-05
1.79923e-05
1.76112e-05
1.72382e-05
1.68738e-05
1.6518e-05
1.61711e-05
1.58334e-05
1.5505e-05
1.5186e-05
1.48764e-05
1.45764e-05
1.4286e-05
1.40051e-05
1.37337e-05
1.34718e-05
1.32193e-05
1.2976e-05
1.2742e-05
1.25169e-05
1.23006e-05
1.20931e-05
1.1894e-05
1.17032e-05
1.15204e-05
1.13455e-05
1.11781e-05
1.1018e-05
1.0865e-05
1.07188e-05
1.05791e-05
1.04457e-05
1.0318e-05
1.0196e-05
1.00795e-05
9.96795e-06
9.86104e-06
9.75843e-06
9.65979e-06
9.56478e-06
9.47306e-06
9.38426e-06
9.29804e-06
9.21405e-06
9.13193e-06
9.05131e-06
8.97184e-06
8.89315e-06
8.81487e-06
8.73665e-06
8.65811e-06
8.57888e-06
8.49863e-06
8.41697e-06
8.33356e-06
8.24806e-06
8.16011e-06
8.06941e-06
7.97561e-06
7.87842e-06
7.77755e-06
7.67272e-06
7.56368e-06
7.45018e-06
7.33201e-06
7.20898e-06
7.08091e-06
6.94766e-06
6.80946e-06
6.66763e-06
6.52086e-06
6.36889e-06
6.2117e-06
6.04937e-06
5.882e-06
5.70974e-06
5.53277e-06
5.35133e-06
5.16566e-06
4.97604e-06
4.7828e-06
4.58628e-06
4.38685e-06
4.18488e-06
3.98079e-06
3.77498e-06
3.56786e-06
3.35986e-06
3.15135e-06
2.94273e-06
2.73432e-06
2.52633e-06
2.31805e-06
2.11148e-06
1.90563e-06
1.69999e-06
1.49442e-06
1.28762e-06
1.07979e-06
8.70809e-07
6.54823e-07
4.28739e-07
2.02009e-07
3.86507e-08
1.79254e-07
9.00363e-07
1.83937e-06
2.75341e-06
3.63085e-06
4.48573e-06
5.32049e-06
6.14045e-06
6.94912e-06
7.75126e-06
8.54463e-06
9.33158e-06
1.01132e-05
1.08898e-05
1.16616e-05
1.24284e-05
1.31902e-05
1.39467e-05
1.46973e-05
1.54418e-05
1.61795e-05
1.69098e-05
1.76322e-05
1.83459e-05
1.90502e-05
1.97443e-05
2.04275e-05
2.10988e-05
2.17575e-05
2.24026e-05
2.30333e-05
2.36485e-05
2.42475e-05
2.48293e-05
2.53929e-05
2.59374e-05
2.64619e-05
2.69655e-05
2.74474e-05
2.79066e-05
2.83424e-05
2.87539e-05
2.91406e-05
2.95016e-05
2.98365e-05
3.01445e-05
3.04253e-05
3.06784e-05
3.09035e-05
3.11003e-05
3.12686e-05
3.14083e-05
3.15193e-05
3.16018e-05
3.16558e-05
3.16816e-05
3.16794e-05
3.16497e-05
3.15929e-05
3.15095e-05
3.14003e-05
3.12661e-05
3.1109e-05
3.09304e-05
3.07291e-05
3.05056e-05
3.0261e-05
2.99962e-05
2.97122e-05
2.94101e-05
2.9091e-05
2.8756e-05
2.84063e-05
2.80429e-05
2.7667e-05
2.72799e-05
2.68826e-05
2.64762e-05
2.6062e-05
2.56409e-05
2.52142e-05
2.47829e-05
2.43479e-05
2.39105e-05
2.34714e-05
2.30316e-05
2.25922e-05
2.21538e-05
2.17174e-05
2.12837e-05
2.08535e-05
2.04275e-05
2.00063e-05
1.95905e-05
1.91807e-05
1.87774e-05
1.83811e-05
1.79923e-05
1.76112e-05
1.72382e-05
1.68737e-05
1.6518e-05
1.61711e-05
1.58334e-05
1.5505e-05
1.51859e-05
1.48764e-05
1.45764e-05
1.42859e-05
1.40051e-05
1.37337e-05
1.34718e-05
1.32193e-05
1.2976e-05
1.27419e-05
1.25168e-05
1.23006e-05
1.20931e-05
1.1894e-05
1.17031e-05
1.15204e-05
1.13454e-05
1.1178e-05
1.1018e-05
1.0865e-05
1.07188e-05
1.0579e-05
1.04456e-05
1.03179e-05
1.0196e-05
1.00795e-05
9.96792e-06
9.86101e-06
9.7584e-06
9.65976e-06
9.56475e-06
9.47302e-06
9.38423e-06
9.29801e-06
9.21402e-06
9.1319e-06
9.05128e-06
8.97181e-06
8.89312e-06
8.81484e-06
8.73662e-06
8.65808e-06
8.57886e-06
8.4986e-06
8.41694e-06
8.33353e-06
8.24803e-06
8.16009e-06
8.06938e-06
7.97559e-06
7.8784e-06
7.77753e-06
7.6727e-06
7.56366e-06
7.45016e-06
7.33199e-06
7.20896e-06
7.08089e-06
6.94764e-06
6.80944e-06
6.66761e-06
6.52084e-06
6.36887e-06
6.21168e-06
6.04935e-06
5.88198e-06
5.70972e-06
5.53276e-06
5.35132e-06
5.16564e-06
4.97603e-06
4.78279e-06
4.58627e-06
4.38684e-06
4.18488e-06
3.98078e-06
3.77497e-06
3.56786e-06
3.35985e-06
3.15135e-06
2.94273e-06
2.73432e-06
2.52633e-06
2.31805e-06
2.11148e-06
1.90564e-06
1.69999e-06
1.49442e-06
1.28762e-06
1.07981e-06
8.70822e-07
6.54834e-07
4.28748e-07
2.02014e-07
3.8652e-08
8.16756e-07
2.08991e-05
3.96934e-05
5.24669e-05
6.22148e-05
7.01478e-05
7.69672e-05
8.30271e-05
8.85283e-05
9.35983e-05
9.83303e-05
0.000102782
0.000106995
0.000111002
0.000114827
0.000118491
0.000122008
0.000125391
0.00012865
0.000131794
0.000134829
0.000137762
0.000140597
0.000143337
0.000145988
0.00014855
0.000151027
0.00015342
0.00015573
0.00015796
0.000160109
0.000162179
0.000164169
0.000166081
0.000167914
0.000169668
0.000171344
0.00017294
0.000174458
0.000175895
0.000177253
0.000178531
0.000179728
0.000180844
0.000181879
0.000182832
0.000183704
0.000184493
0.000185201
0.000185827
0.000186371
0.000186834
0.000187215
0.000187515
0.000187735
0.000187875
0.000187935
0.000187918
0.000187823
0.000187651
0.000187402
0.000187077
0.000186672
0.00018619
0.000185636
0.000185015
0.00018433
0.000183581
0.000182773
0.000181906
0.000180984
0.000180008
0.000178982
0.000177907
0.000176787
0.000175623
0.000174419
0.000173177
0.000171899
0.000170589
0.000169249
0.000167882
0.00016649
0.000165076
0.000163643
0.000162193
0.000160729
0.000159253
0.000157769
0.000156278
0.000154783
0.000153286
0.000151789
0.000150295
0.000148807
0.000147325
0.000145852
0.00014439
0.000142942
0.000141508
0.00014009
0.00013869
0.000137309
0.00013595
0.000134613
0.000133299
0.000132009
0.000130746
0.000129508
0.000128299
0.000127117
0.000125964
0.00012484
0.000123745
0.000122681
0.000121646
0.000120642
0.000119668
0.000118724
0.00011781
0.000116926
0.000116071
0.000115244
0.000114446
0.000113676
0.000112933
0.000112216
0.000111524
0.000110857
0.000110213
0.00010959
0.000108988
0.000108405
0.000107839
0.00010729
0.000106756
0.000106235
0.000105725
0.000105226
0.000104734
0.00010425
0.00010377
0.000103293
0.000102816
0.000102339
0.000101859
0.000101375
0.000100883
0.000100382
9.98712e-05
9.93472e-05
9.88083e-05
9.82527e-05
9.76783e-05
9.70831e-05
9.64653e-05
9.58229e-05
9.51541e-05
9.4457e-05
9.37297e-05
9.29706e-05
9.21777e-05
9.1349e-05
9.04813e-05
8.95674e-05
8.8602e-05
8.75921e-05
8.65373e-05
8.54373e-05
8.42913e-05
8.30986e-05
8.18582e-05
8.05696e-05
7.9232e-05
7.78446e-05
7.64068e-05
7.49179e-05
7.3377e-05
7.17833e-05
7.01356e-05
6.84328e-05
6.66734e-05
6.48553e-05
6.29761e-05
6.10325e-05
5.90204e-05
5.69345e-05
5.4768e-05
5.25137e-05
5.01488e-05
4.7651e-05
4.49861e-05
4.21043e-05
3.89095e-05
3.52188e-05
3.08113e-05
2.54228e-05
1.83386e-05
8.33573e-06
1.77739e-07
8.16816e-07
2.0901e-05
3.96967e-05
5.24705e-05
6.22188e-05
7.01519e-05
7.69713e-05
8.30312e-05
8.85324e-05
9.36024e-05
9.83345e-05
0.000102786
0.000106999
0.000111006
0.000114832
0.000118495
0.000122012
0.000125395
0.000128655
0.000131798
0.000134834
0.000137767
0.000140602
0.000143343
0.000145993
0.000148555
0.000151032
0.000153425
0.000155736
0.000157965
0.000160115
0.000162184
0.000164175
0.000166087
0.00016792
0.000169674
0.00017135
0.000172946
0.000174464
0.000175902
0.000177259
0.000178537
0.000179734
0.00018085
0.000181885
0.000182838
0.00018371
0.0001845
0.000185208
0.000185834
0.000186378
0.00018684
0.000187221
0.000187522
0.000187741
0.000187881
0.000187942
0.000187924
0.000187829
0.000187657
0.000187408
0.000187083
0.000186678
0.000186196
0.000185642
0.000185022
0.000184336
0.000183587
0.000182779
0.000181912
0.00018099
0.000180014
0.000178988
0.000177913
0.000176793
0.000175629
0.000174424
0.000173182
0.000171905
0.000170594
0.000169254
0.000167887
0.000166495
0.000165081
0.000163647
0.000162197
0.000160733
0.000159258
0.000157773
0.000156282
0.000154787
0.00015329
0.000151793
0.000150299
0.000148811
0.000147329
0.000145856
0.000144394
0.000142945
0.000141511
0.000140093
0.000138693
0.000137313
0.000135953
0.000134616
0.000133302
0.000132012
0.000130748
0.000129511
0.000128301
0.000127119
0.000125966
0.000124842
0.000123748
0.000122683
0.000121649
0.000120644
0.00011967
0.000118726
0.000117812
0.000116928
0.000116073
0.000115246
0.000114448
0.000113678
0.000112934
0.000112217
0.000111526
0.000110859
0.000110214
0.000109592
0.000108989
0.000108406
0.00010784
0.000107291
0.000106756
0.000106235
0.000105726
0.000105226
0.000104735
0.00010425
0.00010377
0.000103293
0.000102817
0.00010234
0.00010186
0.000101375
0.000100883
0.000100383
9.98713e-05
9.93473e-05
9.88084e-05
9.82527e-05
9.76783e-05
9.70831e-05
9.64653e-05
9.58228e-05
9.5154e-05
9.44568e-05
9.37296e-05
9.29704e-05
9.21775e-05
9.13488e-05
9.04811e-05
8.95673e-05
8.86019e-05
8.75919e-05
8.65372e-05
8.54372e-05
8.42912e-05
8.30984e-05
8.18581e-05
8.05695e-05
7.92319e-05
7.78445e-05
7.64067e-05
7.49178e-05
7.33769e-05
7.17832e-05
7.01356e-05
6.84328e-05
6.66733e-05
6.48553e-05
6.29761e-05
6.10325e-05
5.90205e-05
5.69345e-05
5.4768e-05
5.25138e-05
5.01489e-05
4.76511e-05
4.49863e-05
4.21045e-05
3.89096e-05
3.52188e-05
3.08113e-05
2.54228e-05
1.83385e-05
8.33565e-06
1.77737e-07
1.6963e-06
3.8514e-05
8.01846e-05
0.000111113
0.000134883
0.00015406
0.000170179
0.000184156
0.000196556
0.000207748
0.000217985
0.000227444
0.000236254
0.000244512
0.000252291
0.000259649
0.000266633
0.00027328
0.000279619
0.000285677
0.000291473
0.000297026
0.000302349
0.000307456
0.000312356
0.000317059
0.000321573
0.000325904
0.000330059
0.000334042
0.000337857
0.000341509
0.000345
0.000348334
0.000351514
0.00035454
0.000357415
0.000360142
0.00036272
0.000365153
0.00036744
0.000369583
0.000371584
0.000373442
0.000375159
0.000376736
0.000378174
0.000379473
0.000380635
0.00038166
0.00038255
0.000383306
0.000383928
0.000384418
0.000384777
0.000385007
0.000385109
0.000385084
0.000384933
0.000384658
0.000384259
0.000383735
0.000383085
0.000382311
0.00038142
0.000380419
0.000379311
0.000378102
0.000376793
0.000375389
0.000373894
0.00037231
0.000370641
0.000368892
0.000367065
0.000365165
0.000363195
0.000361159
0.000359061
0.000356905
0.000354696
0.000352436
0.000350131
0.000347783
0.000345398
0.00034298
0.000340531
0.000338057
0.000335561
0.000333047
0.000330519
0.000327982
0.000325437
0.00032289
0.000320344
0.000317803
0.000315269
0.000312746
0.000310237
0.000307746
0.000305275
0.000302828
0.000300406
0.000298013
0.000295651
0.000293322
0.000291028
0.000288771
0.000286554
0.000284376
0.000282241
0.00028015
0.000278102
0.0002761
0.000274144
0.000272234
0.000270371
0.000268555
0.000266787
0.000265065
0.00026339
0.000261761
0.000260178
0.000258639
0.000257145
0.000255693
0.000254284
0.000252913
0.00025158
0.000250282
0.000249017
0.000247782
0.000246577
0.000245398
0.000244243
0.000243109
0.000241994
0.000240895
0.000239807
0.00023873
0.000237659
0.00023659
0.000235522
0.00023445
0.000233371
0.000232282
0.000231179
0.000230058
0.000228916
0.00022775
0.000226556
0.000225331
0.00022407
0.000222771
0.00022143
0.000220045
0.000218611
0.000217125
0.000215584
0.000213986
0.000212327
0.000210603
0.00020881
0.000206943
0.000204995
0.000202956
0.000200832
0.000198621
0.000196325
0.000193941
0.000191468
0.000188903
0.000186245
0.000183491
0.000180639
0.000177684
0.000174624
0.000171455
0.000168171
0.000164769
0.00016124
0.000157579
0.000153774
0.000149816
0.000145691
0.000141381
0.000136864
0.000132113
0.00012709
0.000121738
0.000115982
0.000109712
0.000102752
9.48386e-05
8.55727e-05
7.43071e-05
6.02011e-05
4.17308e-05
1.75334e-05
3.83315e-07
1.69638e-06
3.8517e-05
8.01915e-05
0.000111122
0.000134893
0.00015407
0.00017019
0.000184166
0.000196566
0.000207758
0.000217995
0.000227454
0.000236264
0.000244521
0.0002523
0.000259659
0.000266643
0.000273289
0.000279629
0.000285687
0.000291483
0.000297036
0.000302359
0.000307465
0.000312366
0.000317069
0.000321583
0.000325914
0.000330069
0.000334052
0.000337867
0.000341519
0.000345011
0.000348345
0.000351524
0.00035455
0.000357426
0.000360152
0.000362731
0.000365163
0.000367451
0.000369594
0.000371594
0.000373453
0.00037517
0.000376747
0.000378184
0.000379484
0.000380645
0.000381671
0.000382561
0.000383316
0.000383938
0.000384428
0.000384788
0.000385017
0.000385119
0.000385094
0.000384943
0.000384668
0.000384269
0.000383745
0.000383095
0.00038232
0.00038143
0.000380428
0.000379321
0.000378111
0.000376802
0.000375398
0.000373903
0.000372319
0.00037065
0.0003689
0.000367073
0.000365173
0.000363203
0.000361167
0.000359069
0.000356913
0.000354703
0.000352443
0.000350138
0.00034779
0.000345405
0.000342986
0.000340538
0.000338063
0.000335567
0.000333053
0.000330525
0.000327987
0.000325443
0.000322896
0.00032035
0.000317808
0.000315274
0.000312751
0.000310242
0.000307751
0.00030528
0.000302832
0.00030041
0.000298017
0.000295655
0.000293325
0.000291031
0.000288775
0.000286557
0.00028438
0.000282244
0.000280152
0.000278105
0.000276102
0.000274146
0.000272236
0.000270373
0.000268557
0.000266789
0.000265067
0.000263392
0.000261763
0.000260179
0.00025864
0.000257146
0.000255694
0.000254285
0.000252914
0.000251581
0.000250282
0.000249017
0.000247783
0.000246577
0.000245398
0.000244243
0.000243109
0.000241994
0.000240894
0.000239807
0.000238729
0.000237658
0.00023659
0.000235521
0.000234449
0.00023337
0.000232281
0.000231178
0.000230057
0.000228915
0.000227749
0.000226555
0.000225329
0.000224069
0.00022277
0.000221429
0.000220043
0.000218609
0.000217123
0.000215583
0.000213985
0.000212325
0.000210601
0.000208808
0.000206942
0.000204994
0.000202955
0.00020083
0.00019862
0.000196324
0.00019394
0.000191466
0.000188902
0.000186244
0.00018349
0.000180637
0.000177683
0.000174623
0.000171453
0.00016817
0.000164768
0.000161239
0.000157578
0.000153773
0.000149815
0.00014569
0.00014138
0.000136863
0.000132112
0.000127089
0.000121738
0.000115982
0.000109711
0.000102752
9.48385e-05
8.55726e-05
7.4307e-05
6.02011e-05
4.17308e-05
1.75333e-05
3.83312e-07
2.57759e-06
5.0653e-05
0.00010975
0.000157256
0.000195266
0.000226543
0.000253004
0.000275925
0.000296164
0.000314315
0.000330796
0.000345913
0.000359891
0.000372902
0.00038508
0.000396527
0.000407329
0.000417552
0.000427251
0.000436472
0.000445252
0.000453623
0.000461613
0.000469244
0.000476535
0.000483503
0.000490164
0.000496529
0.000502609
0.000508415
0.000513954
0.000519235
0.000524265
0.000529048
0.000533592
0.0005379
0.000541977
0.000545828
0.000549456
0.000552865
0.000556057
0.000559037
0.000561807
0.00056437
0.000566728
0.000568885
0.000570842
0.000572602
0.000574168
0.000575542
0.000576726
0.000577723
0.000578535
0.000579165
0.000579615
0.000579887
0.000579984
0.000579908
0.000579661
0.000579245
0.000578662
0.000577912
0.000576996
0.000575917
0.000574682
0.000573297
0.000571769
0.000570102
0.000568302
0.000566373
0.000564321
0.000562148
0.000559861
0.000557465
0.000554963
0.000552361
0.000549663
0.000546876
0.000544004
0.000541051
0.000538024
0.000534928
0.000531767
0.000528548
0.000525275
0.000521953
0.000518588
0.000515186
0.000511751
0.000508289
0.000504804
0.000501302
0.000497788
0.000494266
0.000490742
0.00048722
0.000483704
0.0004802
0.000476711
0.000473241
0.000469796
0.000466377
0.00046299
0.000459637
0.000456321
0.000453047
0.000449816
0.000446632
0.000443496
0.000440411
0.000437378
0.0004344
0.000431478
0.000428613
0.000425807
0.000423059
0.00042037
0.00041774
0.00041517
0.00041266
0.000410208
0.000407814
0.000405477
0.000403197
0.000400972
0.0003988
0.000396678
0.000394604
0.000392575
0.000390589
0.000388642
0.000386732
0.000384855
0.000383008
0.000381188
0.000379391
0.000377613
0.000375849
0.000374097
0.000372352
0.000370609
0.000368864
0.000367112
0.000365349
0.000363571
0.000361772
0.000359947
0.000358093
0.000356204
0.000354276
0.000352303
0.000350283
0.000348208
0.000346077
0.000343883
0.000341622
0.000339291
0.000336885
0.0003344
0.000331832
0.000329177
0.000326429
0.000323584
0.000320637
0.000317578
0.000314402
0.000311107
0.000307693
0.000304158
0.000300499
0.000296714
0.000292799
0.000288749
0.00028456
0.000280226
0.000275741
0.000271098
0.000266287
0.0002613
0.000256125
0.000250747
0.000245151
0.000239317
0.000233223
0.00022684
0.000220132
0.000213055
0.000205554
0.000197551
0.000188945
0.000179596
0.000169306
0.000157793
0.000144648
0.000129272
0.000110783
8.79579e-05
5.92166e-05
2.41996e-05
5.99701e-07
2.57768e-06
5.06564e-05
0.000109759
0.000157268
0.00019528
0.000226557
0.000253019
0.00027594
0.00029618
0.00031433
0.000330811
0.000345928
0.000359906
0.000372917
0.000385095
0.000396542
0.000407344
0.000417566
0.000427265
0.000436486
0.000445266
0.000453638
0.000461628
0.000469258
0.000476549
0.000483518
0.000490178
0.000496543
0.000502623
0.000508429
0.000513968
0.000519249
0.000524279
0.000529062
0.000533606
0.000537914
0.000541991
0.000545842
0.00054947
0.000552879
0.000556071
0.000559051
0.000561821
0.000564384
0.000566742
0.000568898
0.000570855
0.000572616
0.000574181
0.000575555
0.000576739
0.000577736
0.000578548
0.000579178
0.000579628
0.0005799
0.000579997
0.00057992
0.000579673
0.000579258
0.000578674
0.000577924
0.000577008
0.000575928
0.000574693
0.000573308
0.00057178
0.000570113
0.000568313
0.000566384
0.000564331
0.000562158
0.000559871
0.000557474
0.000554972
0.00055237
0.000549673
0.000546885
0.000544012
0.00054106
0.000538033
0.000534936
0.000531775
0.000528556
0.000525282
0.00052196
0.000518596
0.000515193
0.000511758
0.000508295
0.00050481
0.000501308
0.000497793
0.000494272
0.000490747
0.000487225
0.000483709
0.000480205
0.000476716
0.000473246
0.0004698
0.000466381
0.000462994
0.00045964
0.000456325
0.00045305
0.000449819
0.000446635
0.000443499
0.000440413
0.000437381
0.000434403
0.000431481
0.000428615
0.000425809
0.00042306
0.000420371
0.000417742
0.000415172
0.000412661
0.000410208
0.000407814
0.000405478
0.000403197
0.000400972
0.0003988
0.000396678
0.000394604
0.000392575
0.000390589
0.000388642
0.000386731
0.000384854
0.000383007
0.000381187
0.00037939
0.000377611
0.000375848
0.000374096
0.000372351
0.000370607
0.000368862
0.00036711
0.000365348
0.000363569
0.00036177
0.000359945
0.000358091
0.000356202
0.000354273
0.000352301
0.00035028
0.000348206
0.000346074
0.00034388
0.00034162
0.000339288
0.000336882
0.000334398
0.000331829
0.000329174
0.000326426
0.000323582
0.000320634
0.000317576
0.000314399
0.000311104
0.00030769
0.000304155
0.000300497
0.000296712
0.000292796
0.000288746
0.000284557
0.000280224
0.000275739
0.000271096
0.000266285
0.000261298
0.000256123
0.000250745
0.000245149
0.000239316
0.000233221
0.000226838
0.00022013
0.000213054
0.000205552
0.00019755
0.000188944
0.000179595
0.000169306
0.000157793
0.000144648
0.000129271
0.000110783
8.7958e-05
5.92167e-05
2.41995e-05
5.99699e-07
3.44867e-06
6.01562e-05
0.000132616
0.000194021
0.000244868
0.000287583
0.000324143
0.000355991
0.000384166
0.000409422
0.000432313
0.000453252
0.000472556
0.000490465
0.000507171
0.000522825
0.000537547
0.000551437
0.000564575
0.000577029
0.000588854
0.000600097
0.000610798
0.000620991
0.000630705
0.000639965
0.000648792
0.000657207
0.000665224
0.00067286
0.000680127
0.000687037
0.0006936
0.000699826
0.000705723
0.000711299
0.000716562
0.000721517
0.000726172
0.000730533
0.000734604
0.000738392
0.000741901
0.000745136
0.000748102
0.000750802
0.000753243
0.000755428
0.00075736
0.000759045
0.000760486
0.000761687
0.000762653
0.000763386
0.000763891
0.000764172
0.000764232
0.000764074
0.000763703
0.000763121
0.000762331
0.000761335
0.000760138
0.000758742
0.000757153
0.000755381
0.000753431
0.00075131
0.000749024
0.000746579
0.00074398
0.000741235
0.000738347
0.000735325
0.000732172
0.000728896
0.000725503
0.000721998
0.000718389
0.00071468
0.000710879
0.000706992
0.000703026
0.000698986
0.000694879
0.000690712
0.000686491
0.000682222
0.000677912
0.000673567
0.000669193
0.000664797
0.000660384
0.00065596
0.000651532
0.000647105
0.000642684
0.000638275
0.000633884
0.000629514
0.000625172
0.000620861
0.000616586
0.000612351
0.000608161
0.000604018
0.000599927
0.00059589
0.00059191
0.000587989
0.000584131
0.000580337
0.000576608
0.000572946
0.000569352
0.000565827
0.00056237
0.000558983
0.000555666
0.000552416
0.000549235
0.00054612
0.000543072
0.000540088
0.000537166
0.000534303
0.000531497
0.000528743
0.000526039
0.000523382
0.000520767
0.000518192
0.000515651
0.000513141
0.000510657
0.000508194
0.000505749
0.000503315
0.000500889
0.000498464
0.000496035
0.000493597
0.000491144
0.000488671
0.000486172
0.000483642
0.000481074
0.000478463
0.000475803
0.00047309
0.000470316
0.000467478
0.000464569
0.000461583
0.000458517
0.000455365
0.000452122
0.000448782
0.000445342
0.000441796
0.000438139
0.000434366
0.000430471
0.000426448
0.00042229
0.00041799
0.000413545
0.000408952
0.000404207
0.000399306
0.000394245
0.000389018
0.000383618
0.000378038
0.000372269
0.000366301
0.000360122
0.000353718
0.000347073
0.000340169
0.000332984
0.000325491
0.000317662
0.000309458
0.000300837
0.000291742
0.000282107
0.000271843
0.00026084
0.000248948
0.000235968
0.00022163
0.000205561
0.000187244
0.000165962
0.000140724
0.000110209
7.29483e-05
2.95596e-05
8.18953e-07
3.44877e-06
6.01599e-05
0.000132625
0.000194035
0.000244885
0.000287601
0.000324162
0.000356011
0.000384186
0.000409442
0.000432333
0.000453273
0.000472576
0.000490485
0.000507191
0.000522845
0.000537567
0.000551457
0.000564595
0.000577048
0.000588873
0.000600116
0.000610817
0.00062101
0.000630723
0.000639983
0.000648811
0.000657225
0.000665243
0.000672879
0.000680146
0.000687055
0.000693618
0.000699844
0.000705741
0.000711317
0.000716579
0.000721535
0.00072619
0.00073055
0.000734621
0.000738409
0.000741918
0.000745152
0.000748118
0.000750819
0.000753259
0.000755444
0.000757376
0.000759061
0.000760502
0.000761703
0.000762668
0.000763401
0.000763906
0.000764187
0.000764246
0.000764089
0.000763717
0.000763135
0.000762344
0.000761349
0.000760151
0.000758755
0.000757166
0.000755394
0.000753444
0.000751322
0.000749036
0.000746591
0.000743992
0.000741246
0.000738359
0.000735336
0.000732183
0.000728907
0.000725513
0.000722008
0.000718398
0.00071469
0.000710889
0.000707001
0.000703034
0.000698994
0.000694887
0.00069072
0.000686498
0.000682229
0.000677919
0.000673574
0.0006692
0.000664803
0.00066039
0.000655967
0.000651538
0.000647111
0.00064269
0.000638281
0.000633889
0.000629519
0.000625177
0.000620865
0.00061659
0.000612356
0.000608165
0.000604022
0.00059993
0.000595893
0.000591913
0.000587992
0.000584134
0.000580339
0.00057661
0.000572948
0.000569354
0.000565829
0.000562372
0.000558985
0.000555667
0.000552417
0.000549236
0.000546121
0.000543073
0.000540088
0.000537166
0.000534303
0.000531497
0.000528743
0.000526039
0.000523382
0.000520767
0.000518191
0.00051565
0.00051314
0.000510655
0.000508193
0.000505748
0.000503314
0.000500887
0.000498462
0.000496033
0.000493595
0.000491142
0.000488669
0.00048617
0.000483639
0.000481071
0.00047846
0.000475801
0.000473087
0.000470313
0.000467475
0.000464565
0.00046158
0.000458514
0.000455362
0.000452118
0.000448779
0.000445338
0.000441792
0.000438135
0.000434362
0.000430468
0.000426445
0.000422287
0.000417987
0.000413542
0.000408948
0.000404204
0.000399303
0.000394242
0.000389015
0.000383615
0.000378035
0.000372267
0.000366298
0.000360119
0.000353715
0.000347071
0.000340167
0.000332981
0.000325489
0.00031766
0.000309457
0.000300835
0.00029174
0.000282105
0.000271842
0.000260839
0.000248947
0.000235968
0.00022163
0.000205561
0.000187244
0.000165962
0.000140725
0.000110209
7.29484e-05
2.95595e-05
8.18952e-07
4.31835e-06
6.81018e-05
0.000151351
0.000224436
0.000286523
0.000339593
0.00038553
0.000425827
0.000461619
0.000493761
0.000522908
0.000549558
0.000574101
0.00059684
0.000618017
0.000637825
0.000656422
0.000673937
0.000690474
0.000706122
0.000720954
0.000735033
0.00074841
0.000761132
0.000773236
0.000784755
0.000795719
0.000806153
0.00081608
0.000825517
0.000834484
0.000842995
0.000851065
0.000858707
0.000865931
0.00087275
0.000879172
0.000885207
0.000890865
0.000896152
0.000901076
0.000905647
0.000909869
0.000913751
0.000917298
0.000920518
0.000923417
0.000926
0.000928275
0.000930246
0.000931919
0.0009333
0.000934395
0.000935209
0.000935747
0.000936015
0.000936018
0.00093576
0.000935247
0.000934483
0.000933473
0.000932221
0.000930732
0.000929011
0.000927065
0.000924902
0.00092253
0.000919957
0.000917189
0.000914234
0.000911099
0.000907792
0.000904318
0.000900686
0.000896902
0.000892974
0.000888908
0.000884712
0.000880394
0.00087596
0.000871419
0.000866777
0.000862042
0.000857222
0.000852325
0.000847357
0.000842326
0.000837239
0.000832105
0.00082693
0.000821722
0.000816488
0.000811234
0.000805968
0.000800697
0.000795427
0.000790164
0.000784915
0.000779686
0.000774483
0.000769311
0.000764176
0.000759082
0.000754035
0.000749039
0.000744097
0.000739215
0.000734395
0.000729641
0.000724955
0.00072034
0.000715798
0.000711331
0.00070694
0.000702626
0.000698389
0.000694231
0.000690151
0.000686148
0.000682222
0.000678372
0.000674596
0.000670893
0.00066726
0.000663695
0.000660194
0.000656753
0.000653369
0.000650038
0.000646755
0.000643516
0.000640317
0.000637152
0.000634017
0.000630906
0.000627814
0.000624736
0.000621664
0.000618594
0.000615519
0.000612433
0.00060933
0.000606203
0.000603046
0.000599852
0.000596615
0.000593329
0.000589986
0.000586581
0.000583107
0.000579558
0.000575928
0.000572211
0.000568401
0.000564492
0.000560478
0.000556355
0.000552115
0.000547755
0.000543269
0.00053865
0.000533894
0.000528993
0.000523943
0.000518734
0.000513362
0.000507819
0.000502103
0.000496207
0.000490125
0.000483851
0.000477377
0.000470694
0.00046379
0.000456654
0.000449271
0.000441625
0.000433697
0.000425464
0.0004169
0.000407975
0.000398654
0.000388895
0.000378648
0.000367854
0.000356438
0.000344309
0.000331355
0.000317428
0.000302339
0.000285841
0.000267603
0.000247185
0.000223998
0.000197253
0.000165914
0.000128693
8.43256e-05
3.41563e-05
1.04067e-06
4.31846e-06
6.81056e-05
0.00015136
0.00022445
0.000286541
0.000339613
0.000385552
0.00042585
0.000461642
0.000493785
0.000522932
0.000549583
0.000574125
0.000596864
0.000618041
0.000637849
0.000656447
0.000673961
0.000690498
0.000706145
0.000720977
0.000735056
0.000748433
0.000761155
0.000773258
0.000784778
0.000795742
0.000806176
0.000816102
0.000825539
0.000834506
0.000843017
0.000851087
0.000858728
0.000865953
0.000872771
0.000879193
0.000885228
0.000890885
0.000896172
0.000901096
0.000905666
0.000909889
0.00091377
0.000917318
0.000920537
0.000923436
0.000926019
0.000928293
0.000930264
0.000931937
0.000933318
0.000934413
0.000935226
0.000935764
0.000936032
0.000936034
0.000935776
0.000935263
0.000934499
0.000933489
0.000932236
0.000930747
0.000929026
0.000927079
0.000924916
0.000922544
0.00091997
0.000917202
0.000914247
0.000911112
0.000907804
0.000904331
0.000900698
0.000896914
0.000892985
0.000888919
0.000884723
0.000880405
0.000875971
0.000871429
0.000866787
0.000862052
0.000857232
0.000852334
0.000847366
0.000842334
0.000837248
0.000832113
0.000826938
0.00082173
0.000816495
0.000811241
0.000805975
0.000800704
0.000795433
0.00079017
0.000784921
0.000779692
0.000774489
0.000769317
0.000764181
0.000759087
0.00075404
0.000749043
0.000744102
0.000739219
0.000734399
0.000729645
0.000724959
0.000720344
0.000715801
0.000711334
0.000706943
0.000702628
0.000698392
0.000694234
0.000690153
0.00068615
0.000682224
0.000678374
0.000674598
0.000670894
0.000667262
0.000663696
0.000660195
0.000656754
0.00065337
0.000650038
0.000646755
0.000643516
0.000640317
0.000637152
0.000634017
0.000630906
0.000627814
0.000624735
0.000621663
0.000618593
0.000615518
0.000612431
0.000609328
0.000606201
0.000603044
0.00059985
0.000596613
0.000593326
0.000589983
0.000586578
0.000583104
0.000579555
0.000575925
0.000572208
0.000568398
0.000564489
0.000560475
0.000556351
0.000552112
0.000547752
0.000543265
0.000538646
0.00053389
0.00052899
0.000523939
0.000518731
0.000513358
0.000507816
0.000502099
0.000496203
0.000490122
0.000483848
0.000477374
0.000470691
0.000463787
0.000456651
0.000449269
0.000441623
0.000433694
0.000425461
0.000416897
0.000407973
0.000398652
0.000388893
0.000378647
0.000367852
0.000356436
0.000344308
0.000331354
0.000317427
0.000302338
0.00028584
0.000267602
0.000247185
0.000223998
0.000197253
0.000165915
0.000128694
8.43258e-05
3.41562e-05
1.04067e-06
5.19133e-06
7.51126e-05
0.000167406
0.000250453
0.00032236
0.000384676
0.000439145
0.000487242
0.000530146
0.000568777
0.000603858
0.000635954
0.000665511
0.000692884
0.000718361
0.000742172
0.000764506
0.000785519
0.000805339
0.000824074
0.000841814
0.000858636
0.000874604
0.000889774
0.000904193
0.000917902
0.000930938
0.00094333
0.000955107
0.000966293
0.00097691
0.000986976
0.00099651
0.00100553
0.00101404
0.00102207
0.00102961
0.0010367
0.00104333
0.00104951
0.00105526
0.00106059
0.0010655
0.00107001
0.00107412
0.00107783
0.00108117
0.00108413
0.00108673
0.00108897
0.00109086
0.0010924
0.00109361
0.00109449
0.00109505
0.00109529
0.00109522
0.00109485
0.00109419
0.00109324
0.001092
0.00109048
0.0010887
0.00108665
0.00108434
0.00108179
0.001079
0.00107597
0.00107273