/*--------------------------------*- C++ -*----------------------------------*\
  =========                 |
  \\      /  F ield         | OpenFOAM: The Open Source CFD Toolbox
   \\    /   O peration     | Website:  https://openfoam.org
    \\  /    A nd           | Version:  8
     \\/     M anipulation  |
\*---------------------------------------------------------------------------*/
FoamFile
{
    version     2.0;
    format      ascii;
    class       surfaceScalarField;
    location    "2300";
    object      phi;
}
// * * * * * * * * * * * * * * * * * * * * * * * * * * * * * * * * * * * * * //

dimensions      [1 0 -1 0 0 0 0];

internalField   nonuniform List<scalar> 
114370
(
1.94832e-10
-7.65911e-14
-1.94755e-10
4.55103e-10
-1.70908e-13
-2.59311e-10
6.54984e-10
-1.73265e-13
-1.99299e-10
7.48992e-10
-1.39612e-13
-9.35997e-11
7.41228e-10
-1.0075e-13
8.14381e-12
6.48751e-10
-6.96901e-14
9.28342e-11
4.89538e-10
-4.36824e-14
1.5954e-10
2.78599e-10
-2.33297e-14
2.1123e-10
2.75398e-11
-9.53907e-15
2.51322e-10
-2.54874e-10
-1.95894e-15
2.82653e-10
-5.62201e-10
9.40553e-16
3.07546e-10
-8.8994e-10
1.02945e-15
3.27942e-10
-1.23491e-09
-2.22121e-16
3.45159e-10
-1.59489e-09
-1.94876e-15
3.60156e-10
-1.96834e-09
-3.72308e-15
3.73611e-10
-2.35418e-09
-5.39633e-15
3.85998e-10
-2.75167e-09
-6.85814e-15
3.97635e-10
-3.16026e-09
-7.9886e-15
4.08727e-10
-3.57952e-09
-8.72201e-15
4.19387e-10
-4.00906e-09
-9.06531e-15
4.29668e-10
-4.44851e-09
-9.06078e-15
4.39569e-10
-4.89745e-09
-8.76177e-15
4.49055e-10
-5.3554e-09
-8.242e-15
4.58063e-10
-5.82181e-09
-7.58279e-15
4.66513e-10
-6.29602e-09
-6.86242e-15
4.74312e-10
-6.77728e-09
-6.13119e-15
4.8136e-10
-7.26474e-09
-5.43335e-15
4.87555e-10
-7.75744e-09
-4.79925e-15
4.92798e-10
-8.25434e-09
-4.25665e-15
4.96992e-10
-8.7543e-09
-3.81227e-15
5.00048e-10
-9.2561e-09
-3.4661e-15
5.01885e-10
-9.75845e-09
-3.19734e-15
5.02434e-10
-1.026e-08
-2.9856e-15
5.01635e-10
-1.07594e-08
-2.81787e-15
4.99444e-10
-1.12551e-08
-2.68115e-15
4.95827e-10
-1.17458e-08
-2.57065e-15
4.90765e-10
-1.223e-08
-2.47966e-15
4.84251e-10
-1.27062e-08
-2.40428e-15
4.76292e-10
-1.31731e-08
-2.34103e-15
4.66908e-10
-1.36291e-08
-2.28949e-15
4.56128e-10
-1.40731e-08
-2.25573e-15
4.43995e-10
-1.45036e-08
-2.24537e-15
4.30561e-10
-1.49194e-08
-2.26429e-15
4.15886e-10
-1.53194e-08
-2.31508e-15
4.0004e-10
-1.57024e-08
-2.39817e-15
3.83098e-10
-1.60675e-08
-2.50533e-15
3.65143e-10
-1.64137e-08
-2.63091e-15
3.46261e-10
-1.67402e-08
-2.76387e-15
3.26542e-10
-1.70462e-08
-2.89574e-15
3.0608e-10
-1.73311e-08
-3.01849e-15
2.84968e-10
-1.75944e-08
-3.12303e-15
2.63303e-10
-1.78355e-08
-3.2061e-15
2.41178e-10
-1.80541e-08
-3.26402e-15
2.18688e-10
-1.825e-08
-3.29667e-15
1.95925e-10
-1.84229e-08
-3.30959e-15
1.72977e-10
-1.85728e-08
-3.30938e-15
1.49933e-10
-1.86996e-08
-3.30354e-15
1.26876e-10
-1.88034e-08
-3.30355e-15
1.03886e-10
-1.88844e-08
-3.31397e-15
8.10406e-11
-1.89427e-08
-3.34282e-15
5.84138e-11
-1.89787e-08
-3.38977e-15
3.60741e-11
-1.89928e-08
-3.4545e-15
1.40856e-11
-1.89852e-08
-3.52899e-15
-7.49889e-12
-1.89565e-08
-3.60749e-15
-2.865e-11
-1.89071e-08
-3.68653e-15
-4.93368e-11
-1.88375e-08
-3.75723e-15
-6.95147e-11
-1.87483e-08
-3.81339e-15
-8.91409e-11
-1.864e-08
-3.84636e-15
-1.08177e-10
-1.85134e-08
-3.85113e-15
-1.26591e-10
-1.8369e-08
-3.82555e-15
-1.44357e-10
-1.82074e-08
-3.76917e-15
-1.61453e-10
-1.80295e-08
-3.68721e-15
-1.77862e-10
-1.78359e-08
-3.58378e-15
-1.93571e-10
-1.76272e-08
-3.46539e-15
-2.0857e-10
-1.74043e-08
-3.34006e-15
-2.22852e-10
-1.71678e-08
-3.21104e-15
-2.36413e-10
-1.69185e-08
-3.08463e-15
-2.49252e-10
-1.6657e-08
-2.95929e-15
-2.6137e-10
-1.63842e-08
-2.8383e-15
-2.72771e-10
-1.61007e-08
-2.71861e-15
-2.83459e-10
-1.58072e-08
-2.60108e-15
-2.93442e-10
-1.55044e-08
-2.48443e-15
-3.02728e-10
-1.5193e-08
-2.36994e-15
-3.11329e-10
-1.48736e-08
-2.2561e-15
-3.19256e-10
-1.4547e-08
-2.14075e-15
-3.26521e-10
-1.42138e-08
-2.02474e-15
-3.3314e-10
-1.38746e-08
-1.9031e-15
-3.39126e-10
-1.35301e-08
-1.77365e-15
-3.44496e-10
-1.31808e-08
-1.63098e-15
-3.49267e-10
-1.28272e-08
-1.4703e-15
-3.53455e-10
-1.24701e-08
-1.2873e-15
-3.57079e-10
-1.21099e-08
-1.07935e-15
-3.60158e-10
-1.17471e-08
-8.46472e-16
-3.62709e-10
-1.13823e-08
-5.91908e-16
-3.64752e-10
-1.1016e-08
-3.18914e-16
-3.66308e-10
-1.06485e-08
-3.59456e-17
-3.67395e-10
-1.02804e-08
2.52443e-16
-3.68034e-10
-9.91215e-09
5.41482e-16
-3.68245e-10
-9.54407e-09
8.24233e-16
-3.68049e-10
-9.17657e-09
1.10048e-15
-3.67467e-10
-8.81003e-09
1.36935e-15
-3.66518e-10
-8.44479e-09
1.63215e-15
-3.65223e-10
-8.08117e-09
1.89148e-15
-3.63603e-10
-7.71948e-09
2.15297e-15
-3.61678e-10
-7.36001e-09
2.41881e-15
-3.59468e-10
-7.00302e-09
2.69505e-15
-3.56993e-10
-6.64876e-09
2.98408e-15
-3.54272e-10
-6.29745e-09
3.28895e-15
-3.51326e-10
-5.9493e-09
3.61311e-15
-3.48174e-10
-5.6045e-09
3.9557e-15
-3.44834e-10
-5.26322e-09
4.31825e-15
-3.41325e-10
-4.9256e-09
4.699e-15
-3.37666e-10
-4.59178e-09
5.10101e-15
-3.33874e-10
-4.26189e-09
5.52101e-15
-3.29965e-10
-3.93601e-09
5.95944e-15
-3.25959e-10
-3.61423e-09
6.41783e-15
-3.2187e-10
-3.29661e-09
6.89225e-15
-3.17714e-10
-2.98321e-09
7.38273e-15
-3.13509e-10
-2.67407e-09
7.88231e-15
-3.09269e-10
-2.3692e-09
8.3962e-15
-3.05008e-10
-2.06861e-09
8.92267e-15
-3.00741e-10
-1.77229e-09
9.46085e-15
-2.96483e-10
-1.48022e-09
1.00077e-14
-2.92247e-10
-1.19236e-09
1.05628e-14
-2.8805e-10
-9.08638e-10
1.11224e-14
-2.83922e-10
-6.29016e-10
1.16773e-14
-2.79841e-10
-3.5337e-10
1.22161e-14
-2.7588e-10
-8.15952e-11
1.27263e-14
-2.72024e-10
1.86234e-10
1.31205e-14
-2.68094e-10
4.50058e-10
1.33833e-14
-2.64103e-10
7.09906e-10
1.35659e-14
-2.60141e-10
9.65844e-10
1.36778e-14
-2.56245e-10
1.21793e-09
1.37355e-14
-2.52406e-10
1.46621e-09
1.37553e-14
-2.48615e-10
1.71072e-09
1.37536e-14
-2.44862e-10
1.95149e-09
1.37434e-14
-2.41132e-10
2.18853e-09
1.37388e-14
-2.37411e-10
2.42182e-09
1.37484e-14
-2.33682e-10
2.65134e-09
1.37744e-14
-2.29923e-10
2.87703e-09
1.38258e-14
-2.26112e-10
3.09882e-09
1.39015e-14
-2.22224e-10
3.3166e-09
1.39985e-14
-2.1823e-10
3.53024e-09
1.41201e-14
-2.14098e-10
3.73956e-09
1.42691e-14
-2.09794e-10
3.94435e-09
1.44435e-14
-2.0528e-10
4.14436e-09
1.46382e-14
-2.00516e-10
4.3393e-09
1.48555e-14
-1.95457e-10
4.52883e-09
1.50908e-14
-1.90057e-10
4.71255e-09
1.53432e-14
-1.84268e-10
4.89004e-09
1.56095e-14
-1.78038e-10
5.06078e-09
1.58903e-14
-1.71315e-10
5.22424e-09
1.61811e-14
-1.64043e-10
5.37982e-09
1.64803e-14
-1.56169e-10
5.52684e-09
1.67887e-14
-1.47635e-10
5.66461e-09
1.71096e-14
-1.38387e-10
5.79235e-09
1.74431e-14
-1.28371e-10
5.90923e-09
1.77875e-14
-1.17532e-10
6.01439e-09
1.81461e-14
-1.05823e-10
6.10692e-09
1.85152e-14
-9.31965e-11
6.18584e-09
1.88877e-14
-7.96129e-11
6.25018e-09
1.92555e-14
-6.50393e-11
6.29892e-09
1.96129e-14
-4.94535e-11
6.33104e-09
1.99459e-14
-3.28482e-11
6.34553e-09
2.02404e-14
-1.52366e-11
6.34141e-09
2.05634e-14
3.36952e-12
6.3176e-09
2.09181e-14
2.30376e-11
6.27301e-09
2.12676e-14
4.38032e-11
6.2066e-09
2.16289e-14
6.56077e-11
6.1174e-09
2.20239e-14
8.83919e-11
6.00449e-09
2.24719e-14
1.1208e-10
5.86706e-09
2.29806e-14
1.36578e-10
5.70443e-09
2.35604e-14
1.61772e-10
5.51602e-09
2.42013e-14
1.87525e-10
5.30146e-09
2.48925e-14
2.13674e-10
5.06052e-09
2.56093e-14
2.40026e-10
4.79323e-09
2.63253e-14
2.66358e-10
4.49987e-09
2.70256e-14
2.92411e-10
4.18101e-09
2.77133e-14
3.17886e-10
3.83758e-09
2.84166e-14
3.4244e-10
3.47088e-09
2.91768e-14
3.65681e-10
3.08269e-09
3.00445e-14
3.8716e-10
2.67526e-09
3.10344e-14
4.0636e-10
2.25148e-09
3.21298e-14
4.22688e-10
1.81491e-09
3.32889e-14
4.35455e-10
1.3699e-09
3.44618e-14
4.43859e-10
9.21761e-10
3.56339e-14
4.46956e-10
4.76931e-10
3.68255e-14
4.43612e-10
4.31618e-11
3.80467e-14
4.32515e-10
-3.6963e-10
3.88866e-14
4.11504e-10
-7.49487e-10
3.96321e-14
3.78545e-10
-1.08257e-09
4.09154e-14
3.31753e-10
-1.35255e-09
4.2622e-14
2.68627e-10
-1.54015e-09
4.47394e-14
1.86219e-10
-1.62326e-09
4.71608e-14
8.16936e-11
-1.57972e-09
4.95198e-14
-4.49995e-11
-1.39251e-09
5.13086e-14
-1.88729e-10
-1.06103e-09
5.21866e-14
-3.33072e-10
-6.27135e-10
5.20988e-14
-4.35592e-10
-2.13257e-10
4.92517e-14
-4.15755e-10
1.96559e-14
-2.15294e-10
1.94735e-10
-1.94537e-10
4.55154e-10
-2.59344e-10
6.55128e-10
-1.9933e-10
7.49126e-10
-9.3629e-11
7.41303e-10
8.12273e-12
6.48759e-10
9.28294e-11
4.89493e-10
1.59551e-10
2.78528e-10
2.11253e-10
2.74645e-11
2.5135e-10
-2.5494e-10
2.82683e-10
-5.62249e-10
3.07575e-10
-8.89969e-10
3.27969e-10
-1.23492e-09
3.45184e-10
-1.59489e-09
3.60179e-10
-1.96832e-09
3.73632e-10
-2.35416e-09
3.86018e-10
-2.75164e-09
3.97654e-10
-3.16023e-09
4.08744e-10
-3.57948e-09
4.19404e-10
-4.00902e-09
4.29684e-10
-4.44847e-09
4.39585e-10
-4.89741e-09
4.4907e-10
-5.35536e-09
4.58078e-10
-5.82177e-09
4.66527e-10
-6.29597e-09
4.74326e-10
-6.77723e-09
4.81374e-10
-7.26469e-09
4.87569e-10
-7.75739e-09
4.92812e-10
-8.25429e-09
4.97005e-10
-8.75425e-09
5.00061e-10
-9.25604e-09
5.01898e-10
-9.75839e-09
5.02446e-10
-1.02599e-08
5.01647e-10
-1.07593e-08
4.99455e-10
-1.12551e-08
4.95837e-10
-1.17458e-08
4.90775e-10
-1.22299e-08
4.84261e-10
-1.27062e-08
4.76302e-10
-1.3173e-08
4.66917e-10
-1.36291e-08
4.56137e-10
-1.4073e-08
4.44004e-10
-1.45035e-08
4.30569e-10
-1.49193e-08
4.15894e-10
-1.53193e-08
4.00048e-10
-1.57024e-08
3.83106e-10
-1.60674e-08
3.65151e-10
-1.64136e-08
3.46268e-10
-1.67401e-08
3.2655e-10
-1.70461e-08
3.06087e-10
-1.7331e-08
2.84975e-10
-1.75943e-08
2.63309e-10
-1.78354e-08
2.41185e-10
-1.8054e-08
2.18694e-10
-1.82499e-08
1.9593e-10
-1.84228e-08
1.72983e-10
-1.85727e-08
1.49939e-10
-1.86995e-08
1.26881e-10
-1.88033e-08
1.03891e-10
-1.88843e-08
8.10458e-11
-1.89427e-08
5.84189e-11
-1.89787e-08
3.60792e-11
-1.89927e-08
1.40906e-11
-1.89851e-08
-7.49383e-12
-1.89564e-08
-2.8645e-11
-1.8907e-08
-4.9332e-11
-1.88374e-08
-6.951e-11
-1.87482e-08
-8.91364e-11
-1.864e-08
-1.08173e-10
-1.85133e-08
-1.26587e-10
-1.83689e-08
-1.44352e-10
-1.82074e-08
-1.61449e-10
-1.80294e-08
-1.77858e-10
-1.78358e-08
-1.93567e-10
-1.76271e-08
-2.08566e-10
-1.74042e-08
-2.22848e-10
-1.71677e-08
-2.36409e-10
-1.69184e-08
-2.49248e-10
-1.6657e-08
-2.61366e-10
-1.63841e-08
-2.72767e-10
-1.61006e-08
-2.83454e-10
-1.58071e-08
-2.93437e-10
-1.55043e-08
-3.02724e-10
-1.51929e-08
-3.11325e-10
-1.48736e-08
-3.19252e-10
-1.4547e-08
-3.26517e-10
-1.42138e-08
-3.33136e-10
-1.38746e-08
-3.39122e-10
-1.353e-08
-3.44493e-10
-1.31807e-08
-3.49264e-10
-1.28272e-08
-3.53452e-10
-1.247e-08
-3.57077e-10
-1.21098e-08
-3.60156e-10
-1.1747e-08
-3.62707e-10
-1.13822e-08
-3.64751e-10
-1.10159e-08
-3.66307e-10
-1.06484e-08
-3.67394e-10
-1.02804e-08
-3.68034e-10
-9.91208e-09
-3.68246e-10
-9.544e-09
-3.6805e-10
-9.17651e-09
-3.67468e-10
-8.80996e-09
-3.6652e-10
-8.44472e-09
-3.65226e-10
-8.0811e-09
-3.63607e-10
-7.71942e-09
-3.61683e-10
-7.35995e-09
-3.59473e-10
-7.00296e-09
-3.56999e-10
-6.6487e-09
-3.5428e-10
-6.29739e-09
-3.51335e-10
-5.94924e-09
-3.48184e-10
-5.60444e-09
-3.44845e-10
-5.26315e-09
-3.41337e-10
-4.92554e-09
-3.37679e-10
-4.59172e-09
-3.33888e-10
-4.26182e-09
-3.29981e-10
-3.93594e-09
-3.25976e-10
-3.61416e-09
-3.21888e-10
-3.29655e-09
-3.17734e-10
-2.98315e-09
-3.1353e-10
-2.67401e-09
-3.09291e-10
-2.36914e-09
-3.05032e-10
-2.06855e-09
-3.00767e-10
-1.77223e-09
-2.9651e-10
-1.48016e-09
-2.92276e-10
-1.1923e-09
-2.88081e-10
-9.08578e-10
-2.83954e-10
-6.28957e-10
-2.79875e-10
-3.53311e-10
-2.75916e-10
-8.1537e-11
-2.72062e-10
1.86292e-10
-2.68133e-10
4.50115e-10
-2.64143e-10
7.09963e-10
-2.60184e-10
9.65901e-10
-2.5629e-10
1.21799e-09
-2.52452e-10
1.46627e-09
-2.48664e-10
1.71078e-09
-2.44913e-10
1.95155e-09
-2.41186e-10
2.18858e-09
-2.37467e-10
2.42187e-09
-2.33739e-10
2.65139e-09
-2.29982e-10
2.87708e-09
-2.26174e-10
3.09887e-09
-2.22288e-10
3.31665e-09
-2.18296e-10
3.53029e-09
-2.14166e-10
3.73961e-09
-2.09864e-10
3.9444e-09
-2.05352e-10
4.14441e-09
-2.00589e-10
4.33935e-09
-1.95531e-10
4.52887e-09
-1.90133e-10
4.7126e-09
-1.84346e-10
4.89008e-09
-1.78117e-10
5.06082e-09
-1.71396e-10
5.22428e-09
-1.64126e-10
5.37986e-09
-1.56253e-10
5.52688e-09
-1.47721e-10
5.66465e-09
-1.38475e-10
5.79239e-09
-1.2846e-10
5.90927e-09
-1.17623e-10
6.01443e-09
-1.05915e-10
6.10696e-09
-9.32902e-11
6.18588e-09
-7.97082e-11
6.25022e-09
-6.51362e-11
6.29896e-09
-4.9552e-11
6.33108e-09
-3.29484e-11
6.34557e-09
-1.53385e-11
6.34144e-09
3.2659e-12
6.31763e-09
2.29323e-11
6.27304e-09
4.36961e-11
6.20663e-09
6.54989e-11
6.11743e-09
8.82813e-11
6.00451e-09
1.11968e-10
5.86709e-09
1.36464e-10
5.70446e-09
1.61656e-10
5.51605e-09
1.87407e-10
5.30148e-09
2.13554e-10
5.06054e-09
2.39904e-10
4.79325e-09
2.66234e-10
4.49989e-09
2.92284e-10
4.18104e-09
3.17756e-10
3.8376e-09
3.42308e-10
3.47091e-09
3.65546e-10
3.08271e-09
3.87022e-10
2.67528e-09
4.06219e-10
2.2515e-09
4.22543e-10
1.81493e-09
4.35306e-10
1.36992e-09
4.43706e-10
9.21777e-10
4.46799e-10
4.76946e-10
4.4345e-10
4.3176e-11
4.3235e-10
-3.69615e-10
4.11335e-10
-7.49468e-10
3.78376e-10
-1.08255e-09
3.31583e-10
-1.35253e-09
2.68455e-10
-1.54013e-09
1.86046e-10
-1.62324e-09
8.15186e-11
-1.5797e-09
-4.5177e-11
-1.3925e-09
-1.88909e-10
-1.06105e-09
-3.33257e-10
-6.27224e-10
-4.35788e-10
-2.13431e-10
-4.15991e-10
-2.15562e-10
2.55618e-10
1.14566e-13
-4.49971e-10
4.15214e-10
6.04114e-14
-4.1825e-10
4.58105e-10
1.33525e-14
-2.41762e-10
4.14763e-10
-6.40505e-15
-4.98881e-11
3.01773e-10
-9.19449e-15
1.21474e-10
1.31527e-10
-7.53489e-15
2.6339e-10
-8.56934e-11
-3.71192e-15
3.77045e-10
-3.41213e-10
5.27102e-16
4.67012e-10
-6.27991e-10
3.82873e-15
5.38341e-10
-9.40557e-10
5.69948e-15
5.95442e-10
-1.27473e-09
6.36044e-15
6.4192e-10
-1.62729e-09
6.25698e-15
6.80697e-10
-1.99587e-09
5.74945e-15
7.13917e-10
-2.37873e-09
5.06474e-15
7.43176e-10
-2.77459e-09
4.33243e-15
7.69626e-10
-3.18254e-09
3.61885e-15
7.94083e-10
-3.60187e-09
2.97173e-15
8.17104e-10
-4.03206e-09
2.43012e-15
8.39045e-10
-4.47266e-09
2.01255e-15
8.60107e-10
-4.92325e-09
1.71371e-15
8.80375e-10
-5.38341e-09
1.5168e-15
8.99843e-10
-5.85268e-09
1.40126e-15
9.1844e-10
-6.33056e-09
1.34573e-15
9.36043e-10
-6.81644e-09
1.32936e-15
9.52496e-10
-7.30964e-09
1.33212e-15
9.6762e-10
-7.80941e-09
1.34032e-15
9.81223e-10
-8.31487e-09
1.34174e-15
9.93109e-10
-8.82506e-09
1.32902e-15
1.00308e-09
-9.33895e-09
1.29895e-15
1.01096e-09
-9.85539e-09
1.25464e-15
1.01658e-09
-1.03732e-08
1.20209e-15
1.01976e-09
-1.08911e-08
1.14895e-15
1.02039e-09
-1.14077e-08
1.10221e-15
1.01835e-09
-1.19217e-08
1.06496e-15
1.01354e-09
-1.24317e-08
1.03845e-15
1.00591e-09
-1.29363e-08
1.02175e-15
9.95413e-10
-1.3434e-08
1.01384e-15
9.82038e-10
-1.39235e-08
1.01244e-15
9.65796e-10
-1.44032e-08
1.01489e-15
9.46725e-10
-1.48719e-08
1.0161e-15
9.24882e-10
-1.53282e-08
1.01107e-15
9.00349e-10
-1.57708e-08
9.95373e-16
8.73225e-10
-1.61985e-08
9.65635e-16
8.4363e-10
-1.66101e-08
9.20396e-16
8.11697e-10
-1.70045e-08
8.62258e-16
7.77574e-10
-1.73807e-08
7.95231e-16
7.41421e-10
-1.77378e-08
7.24574e-16
7.03407e-10
-1.80749e-08
6.56467e-16
6.63709e-10
-1.83913e-08
5.96114e-16
6.22508e-10
-1.86862e-08
5.47472e-16
5.7999e-10
-1.89592e-08
5.13414e-16
5.36342e-10
-1.92097e-08
4.93777e-16
4.9175e-10
-1.94374e-08
4.88616e-16
4.464e-10
-1.96419e-08
4.94785e-16
4.00472e-10
-1.9823e-08
5.08491e-16
3.54143e-10
-1.99806e-08
5.24366e-16
3.07585e-10
-2.01146e-08
5.37856e-16
2.60963e-10
-2.02251e-08
5.44788e-16
2.14434e-10
-2.03121e-08
5.42559e-16
1.68149e-10
-2.03759e-08
5.30572e-16
1.22249e-10
-2.04166e-08
5.10942e-16
7.68663e-11
-2.04346e-08
4.86976e-16
3.21221e-11
-2.04301e-08
4.62467e-16
-1.18754e-11
-2.04037e-08
4.41158e-16
-5.50369e-11
-2.03557e-08
4.27818e-16
-9.72779e-11
-2.02866e-08
4.23639e-16
-1.38514e-10
-2.0197e-08
4.2808e-16
-1.78667e-10
-2.00874e-08
4.41195e-16
-2.17668e-10
-1.99585e-08
4.60978e-16
-2.55458e-10
-1.98108e-08
4.85151e-16
-2.91984e-10
-1.9645e-08
5.11385e-16
-3.27205e-10
-1.94617e-08
5.36805e-16
-3.61086e-10
-1.92616e-08
5.58972e-16
-3.93599e-10
-1.90454e-08
5.75556e-16
-4.24724e-10
-1.88137e-08
5.86013e-16
-4.54445e-10
-1.85673e-08
5.90508e-16
-4.82753e-10
-1.83068e-08
5.90069e-16
-5.09644e-10
-1.8033e-08
5.85727e-16
-5.35119e-10
-1.77465e-08
5.78565e-16
-5.59184e-10
-1.74481e-08
5.69127e-16
-5.81846e-10
-1.71383e-08
5.57575e-16
-6.0312e-10
-1.6818e-08
5.43853e-16
-6.2302e-10
-1.64877e-08
5.29102e-16
-6.41567e-10
-1.61481e-08
5.13754e-16
-6.58782e-10
-1.57998e-08
4.99382e-16
-6.74687e-10
-1.54436e-08
4.86907e-16
-6.8931e-10
-1.508e-08
4.76708e-16
-7.02679e-10
-1.47096e-08
4.69979e-16
-7.14822e-10
-1.4333e-08
4.67153e-16
-7.2577e-10
-1.39509e-08
4.68555e-16
-7.35557e-10
-1.35637e-08
4.73752e-16
-7.44215e-10
-1.3172e-08
4.82038e-16
-7.51777e-10
-1.27764e-08
4.91843e-16
-7.5828e-10
-1.23773e-08
5.01484e-16
-7.63759e-10
-1.19753e-08
5.08795e-16
-7.6825e-10
-1.15709e-08
5.12039e-16
-7.7179e-10
-1.11645e-08
5.10188e-16
-7.74416e-10
-1.07565e-08
5.01831e-16
-7.76166e-10
-1.03475e-08
4.87078e-16
-7.77078e-10
-9.93772e-09
4.66036e-16
-7.77189e-10
-9.52768e-09
4.39465e-16
-7.76538e-10
-9.11773e-09
4.08828e-16
-7.75162e-10
-8.70823e-09
3.74776e-16
-7.73098e-10
-8.29953e-09
3.39477e-16
-7.70385e-10
-7.89194e-09
3.04178e-16
-7.6706e-10
-7.48579e-09
2.70289e-16
-7.6316e-10
-7.08136e-09
2.38622e-16
-7.58723e-10
-6.67893e-09
2.09287e-16
-7.53784e-10
-6.27875e-09
1.82987e-16
-7.48381e-10
-5.88108e-09
1.59561e-16
-7.42549e-10
-5.48614e-09
1.38466e-16
-7.36324e-10
-5.09413e-09
1.18672e-16
-7.2974e-10
-4.70524e-09
1.00504e-16
-7.22831e-10
-4.31965e-09
8.40714e-17
-7.15633e-10
-3.93753e-09
6.8506e-17
-7.08177e-10
-3.55901e-09
5.36455e-17
-7.00496e-10
-3.18421e-09
3.85141e-17
-6.92624e-10
-2.81326e-09
2.2895e-17
-6.84591e-10
-2.44623e-09
6.19194e-18
-6.7643e-10
-2.08322e-09
-1.13782e-17
-6.6817e-10
-1.72429e-09
-2.98697e-17
-6.59843e-10
-1.36947e-09
-4.93366e-17
-6.51478e-10
-1.0188e-09
-7.03754e-17
-6.43108e-10
-6.72291e-10
-9.10886e-17
-6.34768e-10
-3.29935e-10
-1.12668e-16
-6.26498e-10
8.29311e-12
-1.38205e-16
-6.18305e-10
3.42269e-10
-1.66937e-16
-6.10107e-10
6.71872e-10
-1.95718e-16
-6.01893e-10
9.9716e-10
-2.27263e-16
-5.93662e-10
1.31816e-09
-2.60756e-16
-5.85398e-10
1.63488e-09
-3.03734e-16
-5.77167e-10
1.94731e-09
-3.62052e-16
-5.68996e-10
2.25544e-09
-4.3262e-16
-5.6088e-10
2.55929e-09
-5.13052e-16
-5.52809e-10
2.85882e-09
-6.00315e-16
-5.44766e-10
3.15404e-09
-6.89637e-16
-5.36726e-10
3.44489e-09
-7.7755e-16
-5.28661e-10
3.73134e-09
-8.60475e-16
-5.20538e-10
4.01331e-09
-9.37003e-16
-5.12317e-10
4.29071e-09
-1.00627e-15
-5.03953e-10
4.56342e-09
-1.06827e-15
-4.95394e-10
4.83131e-09
-1.12279e-15
-4.86583e-10
5.09418e-09
-1.17015e-15
-4.77456e-10
5.35183e-09
-1.21079e-15
-4.6794e-10
5.604e-09
-1.24547e-15
-4.57961e-10
5.85039e-09
-1.2757e-15
-4.47433e-10
6.09067e-09
-1.30225e-15
-4.36267e-10
6.32442e-09
-1.32576e-15
-4.24367e-10
6.55122e-09
-1.34754e-15
-4.11632e-10
6.77056e-09
-1.36812e-15
-3.97957e-10
6.98189e-09
-1.38914e-15
-3.83231e-10
7.18458e-09
-1.41037e-15
-3.67341e-10
7.37796e-09
-1.43258e-15
-3.50171e-10
7.56129e-09
-1.45556e-15
-3.31604e-10
7.73378e-09
-1.4782e-15
-3.11525e-10
7.89457e-09
-1.50128e-15
-2.89817e-10
8.04273e-09
-1.52447e-15
-2.66369e-10
8.1773e-09
-1.54734e-15
-2.41074e-10
8.29723e-09
-1.57205e-15
-2.13834e-10
8.40146e-09
-1.60023e-15
-1.84557e-10
8.48886e-09
-1.63362e-15
-1.53168e-10
8.55827e-09
-1.67352e-15
-1.19604e-10
8.60849e-09
-1.72101e-15
-8.38249e-11
8.63828e-09
-1.76936e-15
-4.58076e-11
8.64641e-09
-1.82605e-15
-5.54715e-12
8.63165e-09
-1.8871e-15
3.69955e-11
8.5928e-09
-1.9423e-15
8.18342e-11
8.52867e-09
-1.99295e-15
1.28901e-10
8.43812e-09
-2.03699e-15
1.78098e-10
8.32005e-09
-2.07388e-15
2.29288e-10
8.17345e-09
-2.10211e-15
2.82293e-10
7.99744e-09
-2.1234e-15
3.36892e-10
7.79123e-09
-2.14232e-15
3.92814e-10
7.55424e-09
-2.1658e-15
4.49736e-10
7.28604e-09
-2.20121e-15
5.07272e-10
6.98646e-09
-2.2555e-15
5.64973e-10
6.65556e-09
-2.33008e-15
6.22316e-10
6.29374e-09
-2.41898e-15
6.78697e-10
5.90172e-09
-2.50756e-15
7.33419e-10
5.48066e-09
-2.58087e-15
7.85686e-10
5.03215e-09
-2.62763e-15
8.34584e-10
4.55833e-09
-2.64805e-15
8.79063e-10
4.06195e-09
-2.65537e-15
9.17919e-10
3.54647e-09
-2.66693e-15
9.49761e-10
3.01615e-09
-2.6927e-15
9.72974e-10
2.47618e-09
-2.72921e-15
9.85676e-10
1.93288e-09
-2.75466e-15
9.85628e-10
1.39386e-09
-2.74357e-15
9.70219e-10
8.6798e-10
-2.61213e-15
9.36027e-10
3.65764e-10
-2.29289e-15
8.79377e-10
-1.00177e-10
-1.82259e-15
7.96276e-10
-5.14733e-10
-1.2114e-15
6.81725e-10
-8.60816e-10
-4.46833e-16
5.30796e-10
-1.11967e-09
4.39876e-16
3.38983e-10
-1.27061e-09
1.32626e-15
1.04288e-10
-1.29193e-09
2.02483e-15
-1.69159e-10
-1.16372e-09
2.34827e-15
-4.63209e-10
-8.69242e-10
2.67822e-15
-7.32275e-10
-4.15586e-10
1.10794e-15
-8.72123e-10
-2.78097e-14
-6.32739e-10
2.55907e-10
-4.50103e-10
4.1536e-10
-4.18454e-10
4.58212e-10
-2.41922e-10
4.14811e-10
-4.99826e-11
3.01768e-10
1.21413e-10
1.31489e-10
2.63351e-10
-8.57457e-11
3.77018e-10
-3.41264e-10
4.66992e-10
-6.28031e-10
5.38325e-10
-9.40582e-10
5.95426e-10
-1.27474e-09
6.41904e-10
-1.62729e-09
6.80681e-10
-1.99586e-09
7.13902e-10
-2.3787e-09
7.43161e-10
-2.77456e-09
7.69611e-10
-3.18249e-09
7.94069e-10
-3.60182e-09
8.17091e-10
-4.03201e-09
8.39032e-10
-4.4726e-09
8.60095e-10
-4.92319e-09
8.80363e-10
-5.38335e-09
8.99832e-10
-5.85262e-09
9.18429e-10
-6.33049e-09
9.36033e-10
-6.81637e-09
9.52486e-10
-7.30958e-09
9.67611e-10
-7.80934e-09
9.81215e-10
-8.3148e-09
9.93102e-10
-8.82499e-09
1.00308e-09
-9.33887e-09
1.01096e-09
-9.85531e-09
1.01657e-09
-1.03731e-08
1.01976e-09
-1.0891e-08
1.02039e-09
-1.14076e-08
1.01834e-09
-1.19216e-08
1.01354e-09
-1.24316e-08
1.00591e-09
-1.29362e-08
9.9541e-10
-1.34339e-08
9.82035e-10
-1.39234e-08
9.65794e-10
-1.44031e-08
9.46723e-10
-1.48718e-08
9.2488e-10
-1.53281e-08
9.00347e-10
-1.57707e-08
8.73224e-10
-1.61984e-08
8.43629e-10
-1.661e-08
8.11696e-10
-1.70044e-08
7.77573e-10
-1.73806e-08
7.4142e-10
-1.77377e-08
7.03406e-10
-1.80748e-08
6.63707e-10
-1.83912e-08
6.22506e-10
-1.86861e-08
5.79988e-10
-1.89591e-08
5.3634e-10
-1.92096e-08
4.91749e-10
-1.94373e-08
4.46398e-10
-1.96418e-08
4.0047e-10
-1.98229e-08
3.54141e-10
-1.99804e-08
3.07583e-10
-2.01145e-08
2.60961e-10
-2.0225e-08
2.14432e-10
-2.0312e-08
1.68147e-10
-2.03758e-08
1.22247e-10
-2.04165e-08
7.68646e-11
-2.04345e-08
3.21205e-11
-2.043e-08
-1.1877e-11
-2.04036e-08
-5.50385e-11
-2.03556e-08
-9.72797e-11
-2.02865e-08
-1.38516e-10
-2.01969e-08
-1.78669e-10
-2.00873e-08
-2.1767e-10
-1.99584e-08
-2.5546e-10
-1.98107e-08
-2.91986e-10
-1.96449e-08
-3.27207e-10
-1.94616e-08
-3.61088e-10
-1.92615e-08
-3.93601e-10
-1.90453e-08
-4.24726e-10
-1.88136e-08
-4.54447e-10
-1.85672e-08
-4.82754e-10
-1.83067e-08
-5.09645e-10
-1.80329e-08
-5.3512e-10
-1.77464e-08
-5.59184e-10
-1.7448e-08
-5.81847e-10
-1.71382e-08
-6.0312e-10
-1.68179e-08
-6.23021e-10
-1.64876e-08
-6.41567e-10
-1.6148e-08
-6.58782e-10
-1.57997e-08
-6.74687e-10
-1.54435e-08
-6.8931e-10
-1.50799e-08
-7.02678e-10
-1.47095e-08
-7.14821e-10
-1.43329e-08
-7.2577e-10
-1.39508e-08
-7.35557e-10
-1.35636e-08
-7.44214e-10
-1.31719e-08
-7.51777e-10
-1.27763e-08
-7.5828e-10
-1.23772e-08
-7.63759e-10
-1.19752e-08
-7.6825e-10
-1.15708e-08
-7.71789e-10
-1.11644e-08
-7.74415e-10
-1.07564e-08
-7.76166e-10
-1.03474e-08
-7.77077e-10
-9.93764e-09
-7.77188e-10
-9.52761e-09
-7.76537e-10
-9.11766e-09
-7.75161e-10
-8.70816e-09
-7.73097e-10
-8.29945e-09
-7.70384e-10
-7.89187e-09
-7.67059e-10
-7.48571e-09
-7.63159e-10
-7.08128e-09
-7.58722e-10
-6.67885e-09
-7.53783e-10
-6.27868e-09
-7.4838e-10
-5.88101e-09
-7.42548e-10
-5.48607e-09
-7.36323e-10
-5.09406e-09
-7.29739e-10
-4.70517e-09
-7.22831e-10
-4.31959e-09
-7.15632e-10
-3.93747e-09
-7.08176e-10
-3.55894e-09
-7.00496e-10
-3.18415e-09
-6.92624e-10
-2.8132e-09
-6.84591e-10
-2.44617e-09
-6.76429e-10
-2.08317e-09
-6.6817e-10
-1.72423e-09
-6.59842e-10
-1.36941e-09
-6.51477e-10
-1.01875e-09
-6.43106e-10
-6.72235e-10
-6.34767e-10
-3.29881e-10
-6.26497e-10
8.34721e-12
-6.18303e-10
3.42323e-10
-6.10105e-10
6.71925e-10
-6.01891e-10
9.97212e-10
-5.9366e-10
1.31821e-09
-5.85396e-10
1.63493e-09
-5.77165e-10
1.94736e-09
-5.68995e-10
2.25549e-09
-5.6088e-10
2.55934e-09
-5.5281e-10
2.85887e-09
-5.44767e-10
3.15409e-09
-5.36728e-10
3.44494e-09
-5.28664e-10
3.73139e-09
-5.20541e-10
4.01335e-09
-5.12321e-10
4.29075e-09
-5.03957e-10
4.56347e-09
-4.95399e-10
4.83135e-09
-4.86588e-10
5.09423e-09
-4.77461e-10
5.35188e-09
-4.67946e-10
5.60405e-09
-4.57967e-10
5.85044e-09
-4.47439e-10
6.09071e-09
-4.36273e-10
6.32447e-09
-4.24374e-10
6.55126e-09
-4.11639e-10
6.7706e-09
-3.97964e-10
6.98193e-09
-3.83238e-10
7.18462e-09
-3.67348e-10
7.378e-09
-3.50178e-10
7.56133e-09
-3.31612e-10
7.73382e-09
-3.11532e-10
7.89461e-09
-2.89825e-10
8.04277e-09
-2.66377e-10
8.17734e-09
-2.41082e-10
8.29727e-09
-2.13842e-10
8.4015e-09
-1.84565e-10
8.4889e-09
-1.53176e-10
8.55831e-09
-1.19613e-10
8.60852e-09
-8.3833e-11
8.63832e-09
-4.58158e-11
8.64645e-09
-5.55527e-12
8.63169e-09
3.69874e-11
8.59284e-09
8.18262e-11
8.52871e-09
1.28893e-10
8.43816e-09
1.7809e-10
8.32008e-09
2.2928e-10
8.17349e-09
2.82285e-10
7.99747e-09
3.36884e-10
7.79127e-09
3.92807e-10
7.55427e-09
4.49728e-10
7.28607e-09
5.07265e-10
6.98649e-09
5.64966e-10
6.65559e-09
6.2231e-10
6.29377e-09
6.7869e-10
5.90175e-09
7.33413e-10
5.48068e-09
7.8568e-10
5.03217e-09
8.34578e-10
4.55835e-09
8.79057e-10
4.06198e-09
9.17913e-10
3.54649e-09
9.49755e-10
3.01617e-09
9.72968e-10
2.4762e-09
9.85669e-10
1.9329e-09
9.85621e-10
1.39387e-09
9.70212e-10
8.67993e-10
9.3602e-10
3.65777e-10
8.79369e-10
-1.00164e-10
7.96267e-10
-5.14718e-10
6.81715e-10
-8.60798e-10
5.30785e-10
-1.11965e-09
3.38972e-10
-1.27058e-09
1.04277e-10
-1.29191e-09
-1.6917e-10
-1.16371e-09
-4.6322e-10
-8.69282e-10
-7.32293e-10
-4.15748e-10
-8.72172e-10
-6.32829e-10
1.88359e-10
3.5096e-14
-6.37759e-10
2.27529e-10
2.49722e-14
-4.57003e-10
1.7079e-10
7.98815e-16
-1.84857e-10
5.57482e-11
-5.03295e-15
6.52714e-11
-1.03577e-10
-2.72533e-15
2.80893e-10
-3.0037e-10
-7.3394e-16
4.60264e-10
-5.2991e-10
5.64944e-16
6.06656e-10
-7.88144e-10
1.55333e-15
7.2531e-10
-1.07145e-09
2.19457e-15
8.21702e-10
-1.37669e-09
2.41484e-15
9.00739e-10
-1.70126e-09
2.30777e-15
9.6654e-10
-2.04297e-09
1.99586e-15
1.02245e-09
-2.40007e-09
1.56747e-15
1.07106e-09
-2.77119e-09
1.10819e-15
1.11434e-09
-3.15526e-09
6.76837e-16
1.15372e-09
-3.55142e-09
2.90027e-16
1.19028e-09
-3.959e-09
-4.20505e-17
1.22472e-09
-4.37744e-09
-3.0102e-16
1.25752e-09
-4.80624e-09
-4.79563e-16
1.28894e-09
-5.24493e-09
-5.88875e-16
1.31909e-09
-5.69303e-09
-6.424e-16
1.34797e-09
-6.15002e-09
-6.48894e-16
1.37546e-09
-6.61536e-09
-6.176e-16
1.4014e-09
-7.08841e-09
-5.62423e-16
1.42557e-09
-7.56848e-09
-4.98921e-16
1.44772e-09
-8.0548e-09
-4.3829e-16
1.46757e-09
-8.54651e-09
-3.87006e-16
1.48484e-09
-9.04266e-09
-3.47022e-16
1.49926e-09
-9.54225e-09
-3.17905e-16
1.51057e-09
-1.00442e-08
-2.96862e-16
1.51853e-09
-1.05473e-08
-2.79639e-16
1.5229e-09
-1.10504e-08
-2.61085e-16
1.52349e-09
-1.15521e-08
-2.37188e-16
1.52015e-09
-1.20513e-08
-2.05239e-16
1.51274e-09
-1.25466e-08
-1.64506e-16
1.50116e-09
-1.30365e-08
-1.15856e-16
1.48537e-09
-1.35198e-08
-6.06988e-17
1.46534e-09
-1.39951e-08
-1.60918e-18
1.44109e-09
-1.4461e-08
5.80245e-17
1.41267e-09
-1.49162e-08
1.14028e-16
1.38016e-09
-1.53596e-08
1.61468e-16
1.34368e-09
-1.57897e-08
1.96929e-16
1.30336e-09
-1.62054e-08
2.1743e-16
1.25939e-09
-1.66057e-08
2.2251e-16
1.21195e-09
-1.69893e-08
2.14038e-16
1.16126e-09
-1.73554e-08
1.96434e-16
1.10755e-09
-1.77031e-08
1.75361e-16
1.05106e-09
-1.80314e-08
1.56702e-16
9.92056e-10
-1.83397e-08
1.45389e-16
9.30795e-10
-1.86272e-08
1.44648e-16
8.6755e-10
-1.88935e-08
1.55536e-16
8.02594e-10
-1.91379e-08
1.77294e-16
7.36199e-10
-1.93601e-08
2.07537e-16
6.68637e-10
-1.95598e-08
2.4293e-16
6.00173e-10
-1.97367e-08
2.79192e-16
5.31068e-10
-1.98907e-08
3.12472e-16
4.61572e-10
-2.00216e-08
3.39329e-16
3.9193e-10
-2.01295e-08
3.58163e-16
3.22373e-10
-2.02145e-08
3.68839e-16
2.53122e-10
-2.02766e-08
3.73118e-16
1.84385e-10
-2.03161e-08
3.73793e-16
1.16355e-10
-2.03332e-08
3.74739e-16
4.92125e-11
-2.03281e-08
3.79535e-16
-1.6881e-11
-2.03014e-08
3.90429e-16
-8.17762e-11
-2.02533e-08
4.08913e-16
-1.45336e-10
-2.01843e-08
4.34959e-16
-2.07436e-10
-2.0095e-08
4.67131e-16
-2.67963e-10
-1.99859e-08
5.03721e-16
-3.26815e-10
-1.98574e-08
5.42209e-16
-3.83904e-10
-1.97102e-08
5.80398e-16
-4.39152e-10
-1.95449e-08
6.16446e-16
-4.92496e-10
-1.93621e-08
6.48564e-16
-5.43882e-10
-1.91624e-08
6.76101e-16
-5.93266e-10
-1.89465e-08
6.98624e-16
-6.40617e-10
-1.8715e-08
7.16295e-16
-6.85908e-10
-1.84686e-08
7.30036e-16
-7.29124e-10
-1.8208e-08
7.40686e-16
-7.70257e-10
-1.79338e-08
7.48735e-16
-8.09306e-10
-1.76467e-08
7.54832e-16
-8.46276e-10
-1.73473e-08
7.59384e-16
-8.81178e-10
-1.70364e-08
7.6258e-16
-9.14029e-10
-1.67145e-08
7.64991e-16
-9.4485e-10
-1.63824e-08
7.67482e-16
-9.73668e-10
-1.60407e-08
7.71357e-16
-1.00051e-09
-1.56899e-08
7.77182e-16
-1.02541e-09
-1.53308e-08
7.86152e-16
-1.04841e-09
-1.49639e-08
7.98076e-16
-1.06955e-09
-1.45899e-08
8.13009e-16
-1.08886e-09
-1.42092e-08
8.3068e-16
-1.10638e-09
-1.38226e-08
8.49976e-16
-1.12218e-09
-1.34305e-08
8.70249e-16
-1.13629e-09
-1.30335e-08
8.90603e-16
-1.14875e-09
-1.26322e-08
9.09412e-16
-1.15963e-09
-1.2227e-08
9.26106e-16
-1.16897e-09
-1.18184e-08
9.39874e-16
-1.17682e-09
-1.14069e-08
9.50118e-16
-1.18324e-09
-1.0993e-08
9.57027e-16
-1.18827e-09
-1.05772e-08
9.60414e-16
-1.19198e-09
-1.01599e-08
9.60466e-16
-1.19441e-09
-9.74145e-09
9.57618e-16
-1.19562e-09
-9.32232e-09
9.52196e-16
-1.19566e-09
-8.90289e-09
9.44686e-16
-1.1946e-09
-8.48351e-09
9.35252e-16
-1.19247e-09
-8.06456e-09
9.2468e-16
-1.18933e-09
-7.64638e-09
9.13376e-16
-1.18525e-09
-7.22927e-09
9.01774e-16
-1.18027e-09
-6.81355e-09
8.9028e-16
-1.17444e-09
-6.39952e-09
8.79247e-16
-1.16783e-09
-5.98744e-09
8.6919e-16
-1.16047e-09
-5.57757e-09
8.59757e-16
-1.15243e-09
-5.17016e-09
8.51218e-16
-1.14375e-09
-4.76542e-09
8.43113e-16
-1.13449e-09
-4.36358e-09
8.35171e-16
-1.12469e-09
-3.96481e-09
8.275e-16
-1.11441e-09
-3.56931e-09
8.19585e-16
-1.1037e-09
-3.17723e-09
8.11128e-16
-1.0926e-09
-2.78871e-09
8.01668e-16
-1.08117e-09
-2.40389e-09
7.91232e-16
-1.06944e-09
-2.02288e-09
7.79631e-16