/*--------------------------------*- C++ -*----------------------------------*\
  =========                 |
  \\      /  F ield         | OpenFOAM: The Open Source CFD Toolbox
   \\    /   O peration     | Website:  https://openfoam.org
    \\  /    A nd           | Version:  8
     \\/     M anipulation  |
\*---------------------------------------------------------------------------*/
FoamFile
{
    version     2.0;
    format      ascii;
    class       volScalarField;
    location    "2300";
    object      T;
}
// * * * * * * * * * * * * * * * * * * * * * * * * * * * * * * * * * * * * * //

dimensions      [0 0 0 1 0 0 0];

internalField   nonuniform List<scalar> 
46000
(
311.015
310.331
309.658
309.166
308.796
308.499
308.253
308.042
307.857
307.693
307.545
307.412
307.291
307.18
307.078
306.984
306.897
306.817
306.742
306.673
306.609
306.549
306.493
306.441
306.392
306.347
306.304
306.264
306.227
306.192
306.159
306.127
306.098
306.07
306.044
306.019
305.996
305.974
305.953
305.933
305.914
305.896
305.879
305.863
305.848
305.834
305.821
305.808
305.797
305.786
305.776
305.767
305.759
305.751
305.745
305.739
305.734
305.73
305.727
305.725
305.723
305.723
305.723
305.723
305.725
305.728
305.731
305.735
305.74
305.746
305.753
305.761
305.77
305.779
305.789
305.801
305.812
305.825
305.839
305.853
305.868
305.884
305.9
305.917
305.935
305.954
305.973
305.992
306.012
306.033
306.054
306.076
306.098
306.121
306.143
306.167
306.19
306.214
306.238
306.262
306.287
306.311
306.336
306.361
306.386
306.411
306.436
306.46
306.485
306.51
306.535
306.56
306.584
306.608
306.633
306.657
306.68
306.704
306.727
306.751
306.774
306.796
306.819
306.841
306.863
306.885
306.907
306.928
306.95
306.971
306.992
307.013
307.034
307.055
307.076
307.097
307.118
307.14
307.161
307.183
307.205
307.227
307.25
307.273
307.296
307.321
307.346
307.371
307.398
307.425
307.453
307.482
307.513
307.544
307.577
307.611
307.647
307.684
307.723
307.763
307.805
307.849
307.895
307.943
307.993
308.045
308.098
308.154
308.212
308.272
308.334
308.399
308.467
308.536
308.609
308.684
308.761
308.841
308.923
309.008
309.095
309.184
309.275
309.369
309.465
309.562
309.662
309.763
309.868
309.974
310.083
310.197
310.317
310.447
310.59
310.752
310.952
311.212
311.542
311.82
311.014
310.331
309.657
309.165
308.795
308.499
308.252
308.041
307.857
307.692
307.545
307.412
307.291
307.18
307.078
306.984
306.897
306.817
306.742
306.673
306.609
306.549
306.493
306.441
306.392
306.347
306.304
306.264
306.227
306.192
306.158
306.127
306.098
306.07
306.044
306.019
305.996
305.974
305.953
305.933
305.914
305.896
305.879
305.863
305.848
305.834
305.821
305.808
305.797
305.786
305.776
305.767
305.759
305.751
305.745
305.739
305.734
305.73
305.727
305.725
305.723
305.723
305.723
305.723
305.725
305.728
305.731
305.735
305.74
305.746
305.753
305.761
305.77
305.779
305.789
305.801
305.812
305.825
305.839
305.853
305.868
305.884
305.9
305.917
305.935
305.954
305.973
305.992
306.013
306.033
306.054
306.076
306.098
306.121
306.143
306.167
306.19
306.214
306.238
306.262
306.287
306.311
306.336
306.361
306.386
306.411
306.436
306.46
306.485
306.51
306.535
306.56
306.584
306.608
306.633
306.657
306.68
306.704
306.727
306.751
306.774
306.796
306.819
306.841
306.863
306.885
306.907
306.928
306.95
306.971
306.992
307.013
307.034
307.055
307.076
307.097
307.118
307.14
307.161
307.183
307.205
307.227
307.25
307.273
307.296
307.321
307.346
307.371
307.398
307.425
307.453
307.482
307.513
307.544
307.577
307.611
307.647
307.684
307.723
307.763
307.805
307.849
307.895
307.943
307.993
308.045
308.098
308.154
308.212
308.272
308.334
308.399
308.467
308.536
308.609
308.684
308.761
308.841
308.923
309.008
309.095
309.184
309.275
309.369
309.465
309.562
309.662
309.763
309.868
309.974
310.083
310.197
310.317
310.447
310.59
310.752
310.952
311.212
311.542
311.82
307.749
307.18
306.709
306.355
306.078
305.854
305.668
305.508
305.37
305.248
305.14
305.044
304.957
304.878
304.808
304.743
304.685
304.632
304.584
304.54
304.5
304.463
304.43
304.4
304.372
304.346
304.323
304.302
304.282
304.264
304.247
304.231
304.216
304.202
304.189
304.177
304.166
304.154
304.144
304.134
304.124
304.114
304.105
304.096
304.087
304.079
304.071
304.063
304.055
304.047
304.04
304.033
304.026
304.019
304.013
304.007
304.001
303.995
303.99
303.985
303.981
303.977
303.973
303.969
303.966
303.964
303.961
303.96
303.958
303.957
303.957
303.957
303.958
303.959
303.96
303.962
303.965
303.968
303.972
303.975
303.98
303.985
303.99
303.996
304.002
304.009
304.016
304.024
304.032
304.04
304.049
304.058
304.068
304.078
304.088
304.099
304.11
304.121
304.132
304.144
304.156
304.169
304.181
304.194
304.207
304.221
304.234
304.248
304.262
304.276
304.29
304.305
304.319
304.334
304.349
304.364
304.379
304.395
304.41
304.426
304.441
304.457
304.473
304.489
304.506
304.522
304.539
304.556
304.573
304.59
304.608
304.625
304.643
304.661
304.68
304.699
304.718
304.738
304.758
304.779
304.8
304.822
304.844
304.867
304.891
304.916
304.941
304.967
304.994
305.023
305.052
305.082
305.114
305.147
305.181
305.217
305.254
305.293
305.333
305.376
305.42
305.466
305.514
305.563
305.616
305.67
305.726
305.785
305.845
305.909
305.975
306.043
306.114
306.187
306.263
306.342
306.423
306.507
306.593
306.682
306.773
306.866
306.961
307.059
307.158
307.258
307.36
307.464
307.569
307.675
307.784
307.896
308.012
308.137
308.275
308.436
308.63
308.882
309.219
309.573
307.749
307.18
306.709
306.355
306.078
305.854
305.667
305.508
305.37
305.248
305.14
305.044
304.957
304.878
304.808
304.743
304.685
304.632
304.584
304.54
304.5
304.463
304.43
304.4
304.372
304.346
304.323
304.302
304.282
304.264
304.247
304.231
304.216
304.202
304.189
304.177
304.166
304.154
304.144
304.134
304.124
304.114
304.105
304.096
304.087
304.079
304.071
304.063
304.055
304.047
304.04
304.033
304.026
304.019
304.013
304.007
304.001
303.995
303.99
303.985
303.981
303.977
303.973
303.969
303.966
303.964
303.961
303.96
303.958
303.957
303.957
303.957
303.958
303.959
303.96
303.962
303.965
303.968
303.972
303.976
303.98
303.985
303.99
303.996
304.002
304.009
304.016
304.024
304.032
304.04
304.049
304.058
304.068
304.078
304.088
304.099
304.11
304.121
304.132
304.144
304.156
304.169
304.181
304.194
304.207
304.221
304.234
304.248
304.262
304.276
304.29
304.305
304.319
304.334
304.349
304.364
304.379
304.395
304.41
304.426
304.441
304.457
304.473
304.489
304.506
304.522
304.539
304.556
304.573
304.59
304.608
304.625
304.643
304.662
304.68
304.699
304.718
304.738
304.758
304.779
304.8
304.822
304.844
304.867
304.891
304.916
304.941
304.967
304.994
305.023
305.052
305.082
305.114
305.147
305.181
305.217
305.254
305.293
305.333
305.376
305.42
305.466
305.514
305.563
305.616
305.67
305.726
305.785
305.845
305.909
305.975
306.043
306.114
306.187
306.263
306.342
306.423
306.507
306.593
306.682
306.773
306.866
306.961
307.059
307.158
307.258
307.36
307.464
307.569
307.675
307.784
307.896
308.012
308.137
308.275
308.436
308.63
308.882
309.219
309.573
305.811
305.571
305.325
305.106
304.915
304.75
304.606
304.479
304.367
304.267
304.178
304.099
304.027
303.962
303.903
303.851
303.803
303.76
303.721
303.686
303.655
303.626
303.6
303.577
303.556
303.537
303.52
303.505
303.491
303.478
303.466
303.455
303.445
303.436
303.427
303.419
303.411
303.404
303.396
303.389
303.383
303.376
303.369
303.363
303.356
303.35
303.343
303.337
303.33
303.324
303.317
303.311
303.305
303.299
303.293
303.287
303.281
303.275
303.27
303.264
303.259
303.254
303.249
303.245
303.24
303.236
303.233
303.229
303.226
303.223
303.221
303.219
303.217
303.216
303.215
303.215
303.215
303.215
303.216
303.217
303.218
303.22
303.222
303.225
303.228
303.231
303.235
303.24
303.244
303.249
303.254
303.26
303.266
303.272
303.279
303.286
303.293
303.301
303.309
303.317
303.326
303.335
303.344
303.353
303.363
303.373
303.383
303.394
303.405
303.415
303.427
303.438
303.45
303.462
303.474
303.486
303.499
303.512
303.525
303.538
303.551
303.565
303.579
303.593
303.608
303.622
303.637
303.653
303.668
303.684
303.7
303.717
303.734
303.751
303.769
303.787
303.805
303.824
303.844
303.864
303.885
303.906
303.928
303.951
303.975
303.999
304.025
304.051
304.078
304.106
304.136
304.166
304.198
304.231
304.265
304.301
304.339
304.378
304.419
304.461
304.505
304.551
304.599
304.649
304.702
304.756
304.812
304.871
304.932
304.995
305.061
305.129
305.2
305.273
305.349
305.427
305.507
305.59
305.675
305.763
305.852
305.944
306.037
306.131
306.228
306.325
306.423
306.521
306.621
306.72
306.821
306.923
307.026
307.134
307.247
307.371
307.509
307.666
307.847
308.032
305.811
305.57
305.325
305.106
304.915
304.75
304.606
304.479
304.367
304.267
304.178
304.098
304.027
303.962
303.903
303.851
303.803
303.76
303.721
303.686
303.655
303.626
303.6
303.577
303.556
303.537
303.52
303.505
303.491
303.478
303.466
303.455
303.445
303.436
303.427
303.419
303.411
303.404
303.396
303.389
303.383
303.376
303.369
303.363
303.356
303.35
303.343
303.337
303.33
303.324
303.317
303.311
303.305
303.299
303.293
303.287
303.281
303.275
303.27
303.264
303.259
303.254
303.249
303.245
303.24
303.236
303.233
303.229
303.226
303.223
303.221
303.219
303.217
303.216
303.215
303.215
303.215
303.215
303.216
303.217
303.218
303.22
303.222
303.225
303.228
303.232
303.235
303.24
303.244
303.249
303.254
303.26
303.266
303.272
303.279
303.286
303.293
303.301
303.309
303.317
303.326
303.335
303.344
303.353
303.363
303.373
303.383
303.394
303.405
303.415
303.427
303.438
303.45
303.462
303.474
303.486
303.499
303.512
303.525
303.538
303.551
303.565
303.579
303.593
303.608
303.622
303.637
303.653
303.668
303.684
303.7
303.717
303.734
303.751
303.769
303.787
303.805
303.824
303.844
303.864
303.885
303.906
303.928
303.951
303.975
303.999
304.025
304.051
304.078
304.106
304.136
304.166
304.198
304.231
304.265
304.301
304.339
304.378
304.419
304.461
304.505
304.551
304.599
304.649
304.702
304.756
304.812
304.871
304.932
304.995
305.061
305.129
305.2
305.273
305.349
305.427
305.507
305.59
305.675
305.763
305.852
305.944
306.037
306.132
306.228
306.325
306.423
306.521
306.621
306.72
306.821
306.923
307.026
307.134
307.247
307.371
307.509
307.666
307.847
308.032
304.665
304.574
304.448
304.313
304.182
304.06
303.948
303.846
303.753
303.67
303.594
303.526
303.464
303.408
303.358
303.313
303.272
303.235
303.201
303.172
303.145
303.121
303.099
303.08
303.063
303.048
303.034
303.022
303.011
303.001
302.992
302.984
302.976
302.969
302.963
302.957
302.951
302.946
302.94
302.935
302.93
302.925
302.919
302.914
302.909
302.903
302.898
302.893
302.887
302.881
302.876
302.87
302.864
302.858
302.852
302.847
302.841
302.835
302.83
302.824
302.819
302.813
302.808
302.803
302.798
302.794
302.79
302.785
302.782
302.778
302.775
302.772
302.769
302.767
302.765
302.763
302.762
302.761
302.76
302.76
302.76
302.761
302.762
302.763
302.764
302.766
302.769
302.771
302.774
302.778
302.781
302.785
302.79
302.794
302.8
302.805
302.811
302.817
302.823
302.83
302.837
302.844
302.852
302.859
302.868
302.876
302.885
302.894
302.903
302.913
302.922
302.932
302.943
302.953
302.964
302.975
302.987
302.998
303.01
303.022
303.035
303.047
303.06
303.074
303.087
303.101
303.115
303.13
303.144
303.16
303.175
303.191
303.207
303.224
303.241
303.259
303.277
303.296
303.315
303.335
303.355
303.376
303.398
303.421
303.444
303.468
303.493
303.519
303.546
303.575
303.604
303.634
303.666
303.699
303.733
303.769
303.807
303.846
303.886
303.929
303.973
304.019
304.067
304.117
304.169
304.223
304.279
304.338
304.398
304.462
304.527
304.595
304.665
304.737
304.812
304.89
304.969
305.051
305.135
305.221
305.308
305.398
305.489
305.581
305.674
305.768
305.862
305.956
306.051
306.145
306.238
306.331
306.424
306.517
306.611
306.705
306.801
306.894
306.978
307.043
304.665
304.574
304.447
304.313
304.182
304.06
303.948
303.846
303.753
303.67
303.594
303.526
303.464
303.408
303.358
303.313
303.272
303.235
303.201
303.172
303.145
303.121
303.099
303.08
303.063
303.048
303.034
303.022
303.011
303.001
302.992
302.984
302.976
302.969
302.963
302.957
302.951
302.946
302.94
302.935
302.93
302.925
302.919
302.914
302.909
302.903
302.898
302.893
302.887
302.881
302.876
302.87
302.864
302.858
302.852
302.847
302.841
302.835
302.83
302.824
302.819
302.813
302.808
302.803
302.798
302.794
302.79
302.785
302.782
302.778
302.775
302.772
302.769
302.767
302.765
302.763
302.762
302.761
302.76
302.76
302.76
302.761
302.762
302.763
302.764
302.766
302.769
302.771
302.774
302.778
302.781
302.785
302.79
302.794
302.8
302.805
302.811
302.817
302.823
302.83
302.837
302.844
302.852
302.859
302.868
302.876
302.885
302.894
302.903
302.913
302.922
302.932
302.943
302.953
302.964
302.975
302.987
302.998
303.01
303.022
303.035
303.047
303.06
303.074
303.087
303.101
303.115
303.13
303.144
303.16
303.175
303.191
303.207
303.224
303.241
303.259
303.277
303.296
303.315
303.335
303.355
303.376
303.398
303.421
303.444
303.468
303.493
303.519
303.546
303.575
303.604
303.634
303.666
303.699
303.733
303.769
303.807
303.846
303.886
303.929
303.973
304.019
304.067
304.117
304.169
304.223
304.279
304.338
304.398
304.462
304.527
304.595
304.665
304.737
304.812
304.89
304.969
305.051
305.135
305.221
305.308
305.398
305.489
305.581
305.674
305.768
305.862
305.956
306.051
306.145
306.238
306.331
306.424
306.517
306.611
306.705
306.801
306.894
306.978
307.043
303.912
303.876
303.807
303.722
303.631
303.541
303.454
303.372
303.296
303.226
303.162
303.103
303.05
303.002
302.958
302.918
302.882
302.85
302.821
302.795
302.772
302.752
302.733
302.717
302.703
302.69
302.679
302.669
302.66
302.652
302.645
302.639
302.633
302.628
302.623
302.619
302.614
302.61
302.606
302.602
302.598
302.594
302.59
302.585
302.581
302.576
302.572
302.567
302.562
302.557
302.552
302.546
302.541
302.536
302.53
302.524
302.519
302.513
302.508
302.502
302.497
302.491
302.486
302.481
302.476
302.471
302.466
302.462
302.457
302.453
302.45
302.446
302.443
302.44
302.437
302.435
302.433
302.431
302.43
302.429
302.428
302.428
302.428
302.428
302.429
302.43
302.431
302.433
302.435
302.438
302.44
302.443
302.447
302.451
302.455
302.459
302.464
302.469
302.474
302.48
302.486
302.492
302.499
302.506
302.513
302.521
302.529
302.537
302.545
302.554
302.563
302.572
302.581
302.591
302.601
302.612
302.622
302.633
302.644
302.656
302.667
302.68
302.692
302.705
302.717
302.731
302.744
302.758
302.773
302.787
302.802
302.818
302.834
302.85
302.867
302.884
302.902
302.92
302.939
302.959
302.979
303
303.021
303.043
303.067
303.091
303.116
303.142
303.168
303.196
303.226
303.256
303.287
303.32
303.355
303.39
303.428
303.467
303.507
303.549
303.593
303.639
303.687
303.737
303.788
303.842
303.898
303.956
304.017
304.079
304.144
304.212
304.281
304.353
304.427
304.503
304.582
304.662
304.745
304.829
304.915
305.002
305.091
305.18
305.271
305.361
305.452
305.542
305.631
305.72
305.807
305.892
305.976
306.057
306.135
306.209
306.276
306.332
306.37
306.383
303.912
303.876
303.807
303.722
303.631
303.541
303.454
303.372
303.296
303.226
303.162
303.103
303.05
303.002
302.958
302.918
302.882
302.85
302.821
302.795
302.772
302.752
302.733
302.717
302.703
302.69
302.679
302.669
302.66
302.652
302.645
302.639
302.633
302.628
302.623
302.619
302.614
302.61
302.606
302.602
302.598
302.594
302.59
302.585
302.581
302.576
302.572
302.567
302.562
302.557
302.552
302.546
302.541
302.536
302.53
302.524
302.519
302.513
302.508
302.502
302.497
302.491
302.486
302.481
302.476
302.471
302.466
302.462
302.457
302.453
302.45
302.446
302.443
302.44
302.437
302.435
302.433
302.431
302.43
302.429
302.428
302.428
302.428
302.428
302.429
302.43
302.431
302.433
302.435
302.438
302.44
302.443
302.447
302.451
302.455
302.459
302.464
302.469
302.474
302.48
302.486
302.492
302.499
302.506
302.513
302.521
302.529
302.537
302.545
302.554
302.563
302.572
302.581
302.591
302.601
302.612
302.622
302.633
302.644
302.656
302.667
302.68
302.692
302.705
302.717
302.731
302.744
302.758
302.773
302.787
302.802
302.818
302.834
302.85
302.867
302.884
302.902
302.92
302.939
302.959
302.979
303
303.021
303.043
303.067
303.091
303.116
303.142
303.168
303.196
303.226
303.256
303.287
303.32
303.355
303.39
303.428
303.467
303.507
303.549
303.593
303.639
303.687
303.737
303.788
303.842
303.898
303.956
304.017
304.079
304.144
304.212
304.281
304.353
304.427
304.503
304.582
304.662
304.745
304.829
304.915
305.002
305.091
305.18
305.271
305.361
305.452
305.542
305.631
305.72
305.807
305.892
305.976
306.057
306.135
306.209
306.276
306.332
306.37
306.383
303.363
303.347
303.306
303.25
303.186
303.119
303.051
302.985
302.923
302.865
302.81
302.76
302.714
302.672
302.634
302.599
302.568
302.54
302.515
302.492
302.472
302.455
302.439
302.425
302.413
302.402
302.393
302.385
302.378
302.372
302.366
302.362
302.357
302.353
302.35
302.346
302.343
302.34
302.337
302.334
302.331
302.328
302.324
302.321
302.317
302.313
302.309
302.305
302.3
302.296
302.291
302.286
302.281
302.276
302.271
302.265
302.26
302.254
302.249
302.243
302.238
302.232
302.227
302.222
302.217
302.212
302.207
302.202
302.197
302.193
302.189
302.185
302.182
302.178
302.175
302.172
302.17
302.168
302.166
302.164
302.163
302.162
302.162
302.161
302.162
302.162
302.163
302.164
302.165
302.167
302.169
302.172
302.174
302.177
302.181
302.185
302.189
302.193
302.198
302.203
302.208
302.214
302.22
302.226
302.233
302.24
302.247
302.254
302.262
302.27
302.279
302.287
302.296
302.306
302.315
302.325
302.335
302.345
302.356
302.367
302.378
302.39
302.402
302.414
302.426
302.439
302.453
302.466
302.48
302.494
302.509
302.524
302.54
302.556
302.572
302.589
302.607
302.625
302.643
302.663
302.682
302.703
302.724
302.747
302.77
302.793
302.818
302.844
302.871
302.898
302.927
302.958
302.989
303.022
303.056
303.092
303.129
303.167
303.208
303.25
303.294
303.339
303.387
303.436
303.488
303.541
303.597
303.655
303.715
303.777
303.841
303.908
303.977
304.048
304.121
304.196
304.273
304.353
304.434
304.516
304.6
304.686
304.772
304.859
304.946
305.034
305.121
305.207
305.292
305.375
305.457
305.536
305.611
305.682
305.748
305.808
305.858
305.895
305.913
305.907
303.363
303.347
303.306
303.25
303.186
303.119
303.051
302.985
302.923
302.865
302.81
302.76
302.714
302.672
302.634
302.599
302.568
302.54
302.515
302.492
302.472
302.455
302.439
302.425
302.413
302.402
302.393
302.385
302.378
302.372
302.366
302.362
302.357
302.353
302.35
302.346
302.343
302.34
302.337
302.334
302.331
302.328
302.324
302.321
302.317
302.313
302.309
302.305
302.3
302.296
302.291
302.286
302.281
302.276
302.271
302.265
302.26
302.254
302.249
302.243
302.238
302.232
302.227
302.222
302.217
302.212
302.207
302.202
302.197
302.193
302.189
302.185
302.182
302.178
302.175
302.172
302.17
302.168
302.166
302.164
302.163
302.162
302.162
302.161
302.162
302.162
302.163
302.164
302.165
302.167
302.169
302.172
302.174
302.177
302.181
302.185
302.189
302.193
302.198
302.203
302.208
302.214
302.22
302.226
302.233
302.24
302.247
302.254
302.262
302.27
302.279
302.287
302.296
302.306
302.315
302.325
302.335
302.345
302.356
302.367
302.378
302.39
302.402
302.414
302.426
302.439
302.453
302.466
302.48
302.494
302.509
302.524
302.54
302.556
302.572
302.589
302.607
302.625
302.643
302.663
302.682
302.703
302.724
302.747
302.77
302.793
302.818
302.844
302.871
302.898
302.927
302.958
302.989
303.022
303.056
303.092
303.129
303.167
303.208
303.25
303.294
303.339
303.387
303.436
303.488
303.541
303.597
303.655
303.715
303.777
303.841
303.908
303.977
304.048
304.121
304.196
304.273
304.353
304.434
304.516
304.6
304.686
304.772
304.859
304.946
305.034
305.121
305.207
305.292
305.375
305.457
305.536
305.611
305.682
305.748
305.808
305.858
305.895
305.913
305.907
302.932
302.923
302.896
302.858
302.811
302.76
302.707
302.654
302.603
302.555
302.509
302.466
302.427
302.39
302.357
302.327
302.3
302.275
302.253
302.234
302.217
302.201
302.188
302.176
302.166
302.157
302.15
302.143
302.138
302.133
302.129
302.125
302.122
302.119
302.117
302.115
302.112
302.11
302.108
302.106
302.103
302.101
302.098
302.095
302.092
302.089
302.085
302.082
302.078
302.074
302.069
302.065
302.06
302.055
302.05
302.045
302.039
302.034
302.029
302.023
302.018
302.013
302.007
302.002
301.997
301.991
301.986
301.982
301.977
301.972
301.968
301.964
301.96
301.957
301.953
301.95
301.947
301.945
301.942
301.941
301.939
301.938
301.937
301.936
301.936
301.936
301.936
301.936
301.937
301.939
301.94
301.942
301.945
301.947
301.95
301.953
301.957
301.961
301.965
301.97
301.975
301.98
301.985
301.991
301.997
302.004
302.011
302.018
302.025
302.033
302.04
302.049
302.057
302.066
302.075
302.085
302.094
302.104
302.115
302.125
302.136
302.147
302.159
302.171
302.183
302.195
302.208
302.222
302.235
302.249
302.264
302.278
302.294
302.309
302.326
302.342
302.36
302.377
302.396
302.415
302.435
302.455
302.476
302.498
302.521
302.545
302.569
302.595
302.622
302.649
302.678
302.708
302.739
302.772
302.806
302.841
302.878
302.917
302.957
302.999
303.043
303.088
303.135
303.185
303.236
303.289
303.344
303.402
303.461
303.523
303.587
303.653
303.721
303.791
303.863
303.937
304.014
304.091
304.171
304.252
304.334
304.417
304.501
304.586
304.67
304.755
304.838
304.921
305.002
305.081
305.157
305.23
305.299
305.363
305.421
305.471
305.511
305.538
305.549
305.539
302.932
302.923
302.896
302.858
302.811
302.76
302.707
302.654
302.603
302.555
302.509
302.466
302.427
302.39
302.357
302.327
302.3
302.275
302.253
302.234
302.217
302.201
302.188
302.176
302.166
302.157
302.15
302.143
302.138
302.133
302.129
302.125
302.122
302.119
302.117
302.115
302.112
302.11
302.108
302.106
302.103
302.101
302.098
302.095
302.092
302.089
302.085
302.082
302.078
302.074
302.069
302.065
302.06
302.055
302.05
302.045
302.039
302.034
302.029
302.023
302.018
302.013
302.007
302.002
301.997
301.991
301.986
301.982
301.977
301.972
301.968
301.964
301.96
301.957
301.953
301.95
301.947
301.945
301.942
301.941
301.939
301.938
301.937
301.936
301.936
301.936
301.936
301.936
301.937
301.939
301.94
301.942
301.945
301.947
301.95
301.953
301.957
301.961
301.965
301.97
301.975
301.98
301.985
301.991
301.997
302.004
302.011
302.018
302.025
302.033
302.04
302.049
302.057
302.066
302.075
302.085
302.094
302.104
302.115
302.125
302.136
302.147
302.159
302.171
302.183
302.195
302.208
302.222
302.235
302.249
302.264
302.278
302.294
302.309
302.326
302.342
302.36
302.377
302.396
302.415
302.435
302.455
302.476
302.498
302.521
302.545
302.569
302.595
302.622
302.649
302.678
302.708
302.739
302.772
302.806
302.841
302.878
302.917
302.957
302.999
303.043
303.088
303.135
303.185
303.236
303.289
303.344
303.402
303.461
303.523
303.587
303.653
303.721
303.791
303.863
303.937
304.014
304.091
304.171
304.252
304.334
304.417
304.501
304.586
304.67
304.755
304.838
304.921
305.002
305.081
305.157
305.23
305.299
305.363
305.421
305.471
305.511
305.538
305.549
305.539
302.574
302.568
302.549
302.521
302.486
302.447
302.405
302.363
302.321
302.281
302.242
302.206
302.172
302.141
302.112
302.086
302.063
302.041
302.022
302.006
301.991
301.978
301.967
301.957
301.948
301.941
301.935
301.93
301.926
301.922
301.919
301.917
301.915
301.913
301.911
301.91
301.909
301.907
301.906
301.904
301.902
301.901
301.899
301.896
301.894
301.891
301.888
301.885
301.881
301.877
301.873
301.869
301.865
301.86
301.855
301.85
301.845
301.84
301.835
301.829
301.824
301.819
301.813
301.808
301.803
301.797
301.792
301.787
301.783
301.778
301.774
301.769
301.765
301.761
301.758
301.754
301.751
301.749
301.746
301.744
301.742
301.74
301.739
301.738
301.737
301.737
301.737
301.737
301.738
301.739
301.74
301.741
301.743
301.746
301.748
301.751
301.754
301.758
301.762
301.766
301.77
301.775
301.78
301.786
301.791
301.798
301.804
301.811
301.818
301.825
301.832
301.84
301.849
301.857
301.866
301.875
301.884
301.894
301.904
301.914
301.925
301.936
301.947
301.959
301.971
301.983
301.996
302.009
302.022
302.036
302.05
302.065
302.08
302.095
302.111
302.128
302.145
302.162
302.181
302.2
302.219
302.239
302.26
302.282
302.305
302.328
302.353
302.378
302.405
302.432
302.461
302.491
302.522
302.555
302.589
302.624
302.661
302.699
302.739
302.781
302.824
302.87
302.917
302.966
303.017
303.069
303.124
303.181
303.24
303.302
303.365
303.43
303.498
303.567
303.638
303.711
303.786
303.863
303.941
304.02
304.101
304.182
304.264
304.346
304.428
304.509
304.59
304.669
304.747
304.821
304.893
304.962
305.025
305.084
305.135
305.179
305.213
305.236
305.245
305.237
302.574
302.568
302.549
302.521
302.486
302.447
302.405
302.363
302.321
302.28
302.242
302.206
302.172
302.141
302.112
302.086
302.063
302.041
302.022
302.006
301.991
301.978
301.966
301.957
301.948
301.941
301.935
301.93
301.926
301.922
301.919
301.917
301.915
301.913
301.911
301.91
301.909
301.907
301.906
301.904
301.902
301.901
301.899
301.896
301.894
301.891
301.888
301.885
301.881
301.877
301.873
301.869
301.865
301.86
301.855
301.85
301.845
301.84
301.835
301.829
301.824
301.819
301.813
301.808
301.803
301.797
301.792
301.787
301.783
301.778
301.774
301.769
301.765
301.761
301.758
301.754
301.751
301.749
301.746
301.744
301.742
301.74
301.739
301.738
301.737
301.737
301.737
301.737
301.738
301.739
301.74
301.741
301.743
301.746
301.748
301.751
301.754
301.758
301.762
301.766
301.77
301.775
301.78
301.786
301.791
301.798
301.804
301.811
301.818
301.825
301.832
301.84
301.849
301.857
301.866
301.875
301.884
301.894
301.904
301.914
301.925
301.936
301.947
301.959
301.971
301.983
301.996
302.009
302.022
302.036
302.05
302.065
302.08
302.095
302.111
302.128
302.145
302.162
302.181
302.2
302.219
302.239
302.26
302.282
302.305
302.328
302.353
302.378
302.405
302.432
302.461
302.491
302.522
302.555
302.589
302.624
302.661
302.699
302.739
302.781
302.824
302.87
302.917
302.966
303.017
303.069
303.124
303.181
303.24
303.302
303.365
303.43
303.498
303.567
303.638
303.711
303.786
303.863
303.941
304.02
304.101
304.182
304.264
304.346
304.428
304.509
304.59
304.669
304.747
304.821
304.893
304.962
305.025
305.084
305.135
305.179
305.213
305.236
305.245
305.237
302.268
302.262
302.248
302.227
302.2
302.169
302.135
302.101
302.067
302.033
302.001
301.97
301.942
301.915
301.89
301.868
301.848
301.83
301.813
301.799
301.786
301.776
301.766
301.758
301.751
301.746
301.741
301.737
301.734
301.732
301.73
301.728
301.727
301.726
301.725
301.725
301.724
301.723
301.723
301.722
301.721
301.719
301.718
301.716
301.714
301.712
301.709
301.706
301.703
301.699
301.696
301.692
301.688
301.683
301.679
301.674
301.669
301.664
301.659
301.654
301.648
301.643
301.638
301.633
301.627
301.622
301.617
301.612
301.607
301.602
301.598
301.593
301.589
301.585
301.582
301.578
301.575
301.572
301.569
301.566
301.564
301.562
301.561
301.559
301.559
301.558
301.557
301.557
301.558
301.558
301.559
301.561
301.562
301.564
301.566
301.569
301.572
301.575
301.579
301.582
301.587
301.591
301.596
301.601
301.607
301.612
301.618
301.625
301.632
301.639
301.646
301.654
301.661
301.67
301.678
301.687
301.696
301.706
301.715
301.726
301.736
301.747
301.758
301.769
301.781
301.793
301.805
301.818
301.831
301.845
301.859
301.873
301.888
301.904
301.919
301.936
301.953
301.97
301.988
302.007
302.027
302.047
302.068
302.089
302.112
302.135
302.16
302.185
302.211
302.239
302.267
302.297
302.328
302.361
302.394
302.43
302.466
302.505
302.544
302.586
302.629
302.674
302.721
302.77
302.821
302.873
302.928
302.985
303.043
303.104
303.166
303.231
303.298
303.366
303.437
303.509
303.582
303.658
303.734
303.812
303.891
303.97
304.05
304.13
304.209
304.288
304.366
304.442
304.516
304.588
304.656
304.72
304.78
304.834
304.881
304.921
304.952
304.973
304.983
304.978
302.268
302.262
302.248
302.227
302.2
302.169
302.135
302.101
302.067
302.033
302.001
301.97
301.942
301.915
301.89
301.868
301.848
301.83
301.813
301.799
301.786
301.775
301.766
301.758
301.751
301.746
301.741
301.737
301.734
301.732
301.73
301.728
301.727
301.726
301.725
301.725
301.724
301.723
301.723
301.722
301.721
301.719
301.718
301.716
301.714
301.712
301.709
301.706
301.703
301.699
301.696
301.692
301.688
301.683
301.679
301.674
301.669
301.664
301.659
301.654
301.648
301.643
301.638
301.633
301.627
301.622
301.617
301.612
301.607
301.602
301.598
301.593
301.589
301.585
301.582
301.578
301.575
301.572
301.569
301.566
301.564
301.562
301.561
301.559
301.559
301.558
301.557
301.557
301.558
301.558
301.559
301.561
301.562
301.564
301.566
301.569
301.572
301.575
301.579
301.582
301.587
301.591
301.596
301.601
301.607
301.612
301.618
301.625
301.632
301.639
301.646
301.654
301.661
301.67
301.678
301.687
301.696
301.706
301.715
301.726
301.736
301.747
301.758
301.769
301.781
301.793
301.805
301.818
301.831
301.845
301.859
301.873
301.888
301.904
301.919
301.936
301.953
301.97
301.988
302.007
302.026
302.047
302.068
302.089
302.112
302.135
302.16
302.185
302.211
302.239
302.267
302.297
302.328
302.361
302.394
302.43
302.466
302.505
302.544
302.586
302.629
302.674
302.721
302.77
302.821
302.873
302.928
302.985
303.043
303.104
303.166
303.231
303.298
303.366
303.437
303.509
303.582
303.658
303.734
303.812
303.891
303.97
304.05
304.13
304.209
304.288
304.366
304.442
304.516
304.588
304.656
304.72
304.78
304.834
304.881
304.921
304.952
304.973
304.983
304.978
301.998
301.993
301.981
301.964
301.943
301.918
301.891
301.863
301.835
301.807
301.78
301.754
301.73
301.707
301.686
301.667
301.65
301.635
301.621
301.609
301.598
301.589
301.582
301.575
301.57
301.565
301.562
301.559
301.557
301.556
301.555
301.554
301.554
301.554
301.554
301.554
301.554
301.554
301.554
301.553
301.553
301.552
301.551
301.55
301.548
301.546
301.544
301.541
301.539
301.535
301.532
301.528
301.525
301.52
301.516
301.512
301.507
301.502
301.497
301.492
301.487
301.482
301.476
301.471
301.466
301.461
301.456
301.451
301.446
301.441
301.436
301.432
301.427
301.423
301.419
301.416
301.412
301.409
301.406
301.403
301.401
301.399
301.397
301.396
301.394
301.394
301.393
301.393
301.393
301.393
301.394
301.395
301.396
301.398
301.4
301.402
301.405
301.408
301.411
301.415
301.419
301.423
301.427
301.432
301.437
301.443
301.449
301.455
301.461
301.468