/*--------------------------------*- C++ -*----------------------------------*\
  =========                 |
  \\      /  F ield         | OpenFOAM: The Open Source CFD Toolbox
   \\    /   O peration     | Website:  https://openfoam.org
    \\  /    A nd           | Version:  8
     \\/     M anipulation  |
\*---------------------------------------------------------------------------*/
FoamFile
{
    version     2.0;
    format      ascii;
    class       volVectorField;
    location    "2300";
    object      U;
}
// * * * * * * * * * * * * * * * * * * * * * * * * * * * * * * * * * * * * * //

dimensions      [0 1 -1 0 0 0 0];

internalField   nonuniform List<vector> 
46000
(
(0.00059746 -5.84232e-07 -0.000633212)
(0.00259943 -3.22189e-06 -0.0012164)
(0.00452281 -3.80547e-06 -0.00114353)
(0.00567769 -3.04867e-06 -0.000652297)
(0.00597798 -1.94055e-06 -0.000122992)
(0.00554769 -1.08852e-06 0.000331156)
(0.00453524 -5.29976e-07 0.000692197)
(0.00306987 -1.97546e-07 0.000973077)
(0.00125779 -2.32262e-08 0.0011913)
(-0.000830049 4.48718e-08 0.00136061)
(-0.00312663 4.91386e-08 0.0014927)
(-0.00559591 2.25226e-08 0.00159974)
(-0.00820727 -1.45117e-08 0.00168929)
(-0.0109407 -5.16306e-08 0.00176662)
(-0.013782 -8.44069e-08 0.0018355)
(-0.0167214 -1.12031e-07 0.00189853)
(-0.0197523 -1.34131e-07 0.00195748)
(-0.0228698 -1.49966e-07 0.00201349)
(-0.0260703 -1.5914e-07 0.00206722)
(-0.0293509 -1.61977e-07 0.00211896)
(-0.0327088 -1.59183e-07 0.00216875)
(-0.036141 -1.51707e-07 0.00221644)
(-0.0396441 -1.40881e-07 0.00226171)
(-0.0432142 -1.28173e-07 0.00230417)
(-0.0468468 -1.14887e-07 0.00234335)
(-0.0505364 -1.01787e-07 0.00237874)
(-0.0542769 -8.94493e-08 0.00240984)
(-0.0580613 -7.82317e-08 0.00243614)
(-0.061882 -6.84822e-08 0.00245715)
(-0.0657304 -6.02773e-08 0.00247243)
(-0.0695976 -5.35694e-08 0.00248159)
(-0.0734737 -4.80091e-08 0.00248428)
(-0.0773487 -4.32913e-08 0.00248023)
(-0.0812119 -3.92211e-08 0.00246921)
(-0.0850525 -3.56844e-08 0.00245108)
(-0.0888594 -3.26743e-08 0.00242576)
(-0.0926214 -3.01405e-08 0.00239324)
(-0.0963273 -2.80459e-08 0.00235356)
(-0.0999661 -2.63167e-08 0.00230686)
(-0.103527 -2.49494e-08 0.0022533)
(-0.106999 -2.40011e-08 0.0021931)
(-0.110372 -2.3515e-08 0.00212655)
(-0.113637 -2.35414e-08 0.00205397)
(-0.116783 -2.40701e-08 0.00197571)
(-0.119803 -2.50374e-08 0.00189217)
(-0.122688 -2.63161e-08 0.00180377)
(-0.125431 -2.77956e-08 0.00171093)
(-0.128025 -2.93353e-08 0.00161413)
(-0.130463 -3.0828e-08 0.00151383)
(-0.132741 -3.21834e-08 0.00141049)
(-0.134854 -3.33077e-08 0.00130459)
(-0.136798 -3.41575e-08 0.00119659)
(-0.13857 -3.46942e-08 0.00108696)
(-0.140167 -3.4923e-08 0.000976135)
(-0.141588 -3.49025e-08 0.000864559)
(-0.142831 -3.47112e-08 0.000752648)
(-0.143897 -3.44414e-08 0.000640806)
(-0.144785 -3.4247e-08 0.000529421)
(-0.145497 -3.41999e-08 0.000418863)
(-0.146033 -3.44157e-08 0.000309478)
(-0.146396 -3.49044e-08 0.000201558)
(-0.146588 -3.56827e-08 9.52969e-05)
(-0.146612 -3.66351e-08 -9.07549e-06)
(-0.146472 -3.76747e-08 -0.00011116)
(-0.14617 -3.87512e-08 -0.00021077)
(-0.145711 -3.9719e-08 -0.000307889)
(-0.145099 -4.04693e-08 -0.000402342)
(-0.144337 -4.0895e-08 -0.000493942)
(-0.143432 -4.09359e-08 -0.000582536)
(-0.142387 -4.05718e-08 -0.000667999)
(-0.141208 -3.9806e-08 -0.000750234)
(-0.1399 -3.87156e-08 -0.000829164)
(-0.138468 -3.73574e-08 -0.00090473)
(-0.136917 -3.58151e-08 -0.000976886)
(-0.135254 -3.4169e-08 -0.0010456)
(-0.133484 -3.24827e-08 -0.00111086)
(-0.131612 -3.07996e-08 -0.00117266)
(-0.129644 -2.91099e-08 -0.001231)
(-0.127585 -2.74301e-08 -0.00128589)
(-0.125442 -2.57134e-08 -0.00133737)
(-0.123218 -2.39631e-08 -0.00138546)
(-0.12092 -2.21592e-08 -0.00143021)
(-0.118553 -2.03316e-08 -0.00147166)
(-0.116122 -1.84872e-08 -0.00150986)
(-0.113633 -1.66326e-08 -0.00154488)
(-0.11109 -1.47811e-08 -0.00157678)
(-0.108498 -1.29228e-08 -0.00160562)
(-0.105862 -1.09972e-08 -0.00163147)
(-0.103187 -8.93412e-09 -0.00165442)
(-0.100477 -6.64292e-09 -0.00167455)
(-0.0977366 -4.04652e-09 -0.00169193)
(-0.0949703 -1.07782e-09 -0.00170666)
(-0.092182 2.26327e-09 -0.00171882)
(-0.0893758 5.93996e-09 -0.0017285)
(-0.0865554 9.89536e-09 -0.0017358)
(-0.0837246 1.40122e-08 -0.0017408)
(-0.0808868 1.81933e-08 -0.00174362)
(-0.0780454 2.2355e-08 -0.00174433)
(-0.0752037 2.64099e-08 -0.00174306)
(-0.0723647 3.03213e-08 -0.00173988)
(-0.0695313 3.40958e-08 -0.00173491)
(-0.0667063 3.77368e-08 -0.00172825)
(-0.0638922 4.12844e-08 -0.00172)
(-0.0610915 4.48291e-08 -0.00171025)
(-0.0583064 4.84281e-08 -0.00169911)
(-0.0555391 5.21551e-08 -0.00168668)
(-0.0527916 5.60672e-08 -0.00167306)
(-0.0500657 6.02114e-08 -0.00165835)
(-0.047363 6.46413e-08 -0.00164265)
(-0.0446851 6.93538e-08 -0.00162606)
(-0.0420334 7.43556e-08 -0.00160866)
(-0.0394091 7.96468e-08 -0.00159055)
(-0.0368134 8.52239e-08 -0.00157182)
(-0.0342471 9.10637e-08 -0.00155256)
(-0.0317112 9.7156e-08 -0.00153286)
(-0.0292063 1.03528e-07 -0.00151279)
(-0.0267331 1.10115e-07 -0.00149245)
(-0.024292 1.16935e-07 -0.00147191)
(-0.0218833 1.23881e-07 -0.00145124)
(-0.0195073 1.31038e-07 -0.00143052)
(-0.0171641 1.38398e-07 -0.00140983)
(-0.0148538 1.45944e-07 -0.00138922)
(-0.0125761 1.53662e-07 -0.00136876)
(-0.0103309 1.61576e-07 -0.00134853)
(-0.00811777 1.69652e-07 -0.0013287)
(-0.00593649 1.77789e-07 -0.00130912)
(-0.00378559 1.85807e-07 -0.00129072)
(-0.00166624 1.93459e-07 -0.00127324)
(0.000425707 1.99338e-07 -0.00125417)
(0.00248535 2.02997e-07 -0.00123328)
(0.00451422 2.05043e-07 -0.00121217)
(0.00651318 2.05658e-07 -0.00119157)
(0.00848221 2.05309e-07 -0.00117142)
(0.0104218 2.04435e-07 -0.00115168)
(0.0123324 2.03379e-07 -0.00113226)
(0.0142141 2.02411e-07 -0.00111311)
(0.0160671 2.01732e-07 -0.00109414)
(0.0178913 2.01443e-07 -0.00107526)
(0.0196867 2.01564e-07 -0.00105638)
(0.021453 2.02179e-07 -0.00103738)
(0.0231895 2.03239e-07 -0.00101813)
(0.0248957 2.04692e-07 -0.00099851)
(0.0265706 2.06553e-07 -0.000978354)
(0.028213 2.08845e-07 -0.0009575)
(0.0298214 2.11517e-07 -0.000935767)
(0.0313941 2.14504e-07 -0.000912964)
(0.032929 2.1782e-07 -0.000888885)
(0.0344235 2.21404e-07 -0.000863312)
(0.0358749 2.25244e-07 -0.000836016)
(0.03728 2.29304e-07 -0.000806761)
(0.0386352 2.33598e-07 -0.000775299)
(0.0399364 2.38075e-07 -0.000741382)
(0.0411792 2.42719e-07 -0.000704755)
(0.0423587 2.47546e-07 -0.000665164)
(0.0434695 2.52594e-07 -0.00062236)
(0.0445059 2.57863e-07 -0.000576097)
(0.0454617 2.63313e-07 -0.000526146)
(0.0463304 2.6898e-07 -0.000472287)
(0.047105 2.74839e-07 -0.000414329)
(0.0477782 2.80781e-07 -0.000352107)
(0.0483423 2.86713e-07 -0.000285499)
(0.0487896 2.92554e-07 -0.000214446)
(0.0491122 2.98122e-07 -0.000138981)
(0.0493021 3.03315e-07 -5.9242e-05)
(0.0493509 3.08888e-07 2.47594e-05)
(0.0492523 3.14877e-07 0.00011335)
(0.0489959 3.20883e-07 0.000206643)
(0.0485741 3.27042e-07 0.000304362)
(0.0479789 3.33549e-07 0.00040617)
(0.0472028 3.40621e-07 0.000511649)
(0.0462389 3.48299e-07 0.000620299)
(0.0450812 3.56744e-07 0.00073153)
(0.0437247 3.65885e-07 0.00084464)
(0.0421655 3.75694e-07 0.000958812)
(0.040401 3.85996e-07 0.00107309)
(0.0384301 3.96603e-07 0.00118639)
(0.036254 4.07414e-07 0.00129743)
(0.0338755 4.1851e-07 0.00140478)
(0.0313002 4.30176e-07 0.0015068)
(0.0285366 4.4275e-07 0.00160162)
(0.0255962 4.56633e-07 0.00168712)
(0.0224944 4.71785e-07 0.00176089)
(0.0192511 4.87876e-07 0.00182016)
(0.0158909 5.04446e-07 0.00186177)
(0.0124443 5.21151e-07 0.00188206)
(0.00894891 5.38092e-07 0.00187675)
(0.0054486 5.55698e-07 0.00184087)
(0.00200596 5.73861e-07 0.00176821)
(-0.00133198 5.8621e-07 0.00164412)
(-0.00445067 5.97058e-07 0.00146053)
(-0.00726935 6.1611e-07 0.001215)
(-0.00966504 6.42182e-07 0.00090046)
(-0.0114973 6.75742e-07 0.000504114)
(-0.012604 7.15714e-07 1.57783e-05)
(-0.012803 7.56824e-07 -0.000554433)
(-0.0119268 7.91071e-07 -0.00116617)
(-0.00987794 8.12167e-07 -0.00171115)
(-0.00675592 8.14822e-07 -0.00192704)
(-0.00313285 7.56489e-07 -0.00142139)
(-0.000473636 2.9121e-07 -0.000504182)
(0.000597555 -5.84227e-07 -0.000636791)
(0.00259723 -3.22176e-06 -0.00122139)
(0.00452312 -3.80532e-06 -0.00114629)
(0.00567922 -3.04859e-06 -0.000653773)
(0.00597966 -1.94052e-06 -0.000123794)
(0.0055485 -1.08851e-06 0.000330778)
(0.0045352 -5.29966e-07 0.000692066)
(0.00306935 -1.97542e-07 0.000973069)
(0.00125711 -2.32258e-08 0.00119133)
(-0.000830687 4.48709e-08 0.00136064)
(-0.00312713 4.91376e-08 0.00149271)
(-0.00559624 2.25222e-08 0.00159973)
(-0.00820744 -1.45115e-08 0.00168927)
(-0.0109407 -5.16297e-08 0.00176659)
(-0.0137819 -8.44055e-08 0.00183547)
(-0.0167212 -1.12029e-07 0.0018985)
(-0.019752 -1.34129e-07 0.00195745)
(-0.0228695 -1.49964e-07 0.00201346)
(-0.02607 -1.59138e-07 0.00206719)
(-0.0293506 -1.61975e-07 0.00211893)
(-0.0327085 -1.59181e-07 0.00216873)
(-0.0361407 -1.51705e-07 0.00221642)
(-0.0396438 -1.40878e-07 0.0022617)
(-0.0432139 -1.28171e-07 0.00230416)
(-0.0468464 -1.14886e-07 0.00234334)
(-0.050536 -1.01786e-07 0.00237874)
(-0.0542765 -8.94481e-08 0.00240985)
(-0.0580609 -7.82306e-08 0.00243615)
(-0.0618816 -6.84813e-08 0.00245716)
(-0.06573 -6.02765e-08 0.00247245)
(-0.0695971 -5.35686e-08 0.00248161)
(-0.0734733 -4.80085e-08 0.0024843)
(-0.0773482 -4.32907e-08 0.00248024)
(-0.0812114 -3.92205e-08 0.00246922)
(-0.085052 -3.56839e-08 0.00245109)
(-0.0888589 -3.26739e-08 0.00242576)
(-0.0926209 -3.01401e-08 0.00239324)
(-0.0963268 -2.80455e-08 0.00235356)
(-0.0999655 -2.63163e-08 0.00230685)
(-0.103526 -2.49491e-08 0.00225329)
(-0.106998 -2.40008e-08 0.00219309)
(-0.110372 -2.35147e-08 0.00212654)
(-0.113636 -2.35411e-08 0.00205395)
(-0.116783 -2.40698e-08 0.0019757)
(-0.119802 -2.50371e-08 0.00189216)
(-0.122687 -2.63158e-08 0.00180375)
(-0.12543 -2.77953e-08 0.00171092)
(-0.128024 -2.93349e-08 0.00161412)
(-0.130462 -3.08276e-08 0.00151381)
(-0.13274 -3.2183e-08 0.00141047)
(-0.134853 -3.33073e-08 0.00130457)
(-0.136797 -3.41571e-08 0.00119657)
(-0.138569 -3.46938e-08 0.00108693)
(-0.140166 -3.49226e-08 0.000976108)
(-0.141587 -3.4902e-08 0.00086453)
(-0.14283 -3.47108e-08 0.000752618)
(-0.143896 -3.4441e-08 0.000640774)
(-0.144784 -3.42466e-08 0.000529388)
(-0.145496 -3.41995e-08 0.000418829)
(-0.146032 -3.44153e-08 0.000309444)
(-0.146395 -3.4904e-08 0.000201525)
(-0.146587 -3.56823e-08 9.52642e-05)
(-0.146612 -3.66347e-08 -9.10785e-06)
(-0.146471 -3.76743e-08 -0.000111193)
(-0.146169 -3.87508e-08 -0.000210803)
(-0.14571 -3.97185e-08 -0.000307924)
(-0.145098 -4.04689e-08 -0.000402378)
(-0.144337 -4.08946e-08 -0.000493979)
(-0.143431 -4.09354e-08 -0.000582574)
(-0.142386 -4.05714e-08 -0.000668039)
(-0.141207 -3.98056e-08 -0.000750275)
(-0.139899 -3.87152e-08 -0.000829206)
(-0.138467 -3.7357e-08 -0.000904772)
(-0.136917 -3.58147e-08 -0.000976928)
(-0.135254 -3.41686e-08 -0.00104564)
(-0.133484 -3.24823e-08 -0.0011109)
(-0.131612 -3.07993e-08 -0.00117269)
(-0.129644 -2.91096e-08 -0.00123103)
(-0.127585 -2.74298e-08 -0.00128592)
(-0.125441 -2.57132e-08 -0.0013374)
(-0.123217 -2.39629e-08 -0.00138549)
(-0.120919 -2.2159e-08 -0.00143023)
(-0.118552 -2.03314e-08 -0.00147168)
(-0.116122 -1.8487e-08 -0.00150988)
(-0.113632 -1.66324e-08 -0.0015449)
(-0.111089 -1.4781e-08 -0.00157679)
(-0.108497 -1.29227e-08 -0.00160563)
(-0.105861 -1.09971e-08 -0.00163149)
(-0.103186 -8.93404e-09 -0.00165444)
(-0.100476 -6.64286e-09 -0.00167457)
(-0.097736 -4.04648e-09 -0.00169195)
(-0.0949697 -1.07781e-09 -0.00170668)
(-0.0921815 2.26325e-09 -0.00171884)
(-0.0893753 5.93991e-09 -0.00172852)
(-0.0865549 9.89527e-09 -0.00173582)
(-0.083724 1.40121e-08 -0.00174083)
(-0.0808863 1.81932e-08 -0.00174364)
(-0.0780449 2.23548e-08 -0.00174436)
(-0.0752032 2.64097e-08 -0.00174309)
(-0.0723642 3.03211e-08 -0.00173992)
(-0.0695308 3.40956e-08 -0.00173495)
(-0.0667058 3.77365e-08 -0.00172829)
(-0.0638917 4.12841e-08 -0.00172004)
(-0.061091 4.48288e-08 -0.0017103)
(-0.0583059 4.84278e-08 -0.00169916)
(-0.0555386 5.21548e-08 -0.00168674)
(-0.0527911 5.60668e-08 -0.00167313)
(-0.0500652 6.0211e-08 -0.00165843)
(-0.0473625 6.46409e-08 -0.00164273)
(-0.0446847 6.93534e-08 -0.00162614)
(-0.0420329 7.43552e-08 -0.00160875)
(-0.0394087 7.96463e-08 -0.00159065)
(-0.0368129 8.52234e-08 -0.00157193)
(-0.0342466 9.10631e-08 -0.00155268)
(-0.0317107 9.71554e-08 -0.00153299)
(-0.0292058 1.03527e-07 -0.00151294)
(-0.0267326 1.10115e-07 -0.0014926)
(-0.0242915 1.16935e-07 -0.00147207)
(-0.0218828 1.2388e-07 -0.00145141)
(-0.0195069 1.31038e-07 -0.00143071)
(-0.0171637 1.38398e-07 -0.00141002)
(-0.0148533 1.45943e-07 -0.00138942)
(-0.0125756 1.53661e-07 -0.00136898)
(-0.0103305 1.61575e-07 -0.00134876)
(-0.00811731 1.69651e-07 -0.00132894)
(-0.00593604 1.77788e-07 -0.00130938)
(-0.00378513 1.85806e-07 -0.00129099)
(-0.00166579 1.93458e-07 -0.00127353)
(0.000426156 1.99337e-07 -0.00125447)
(0.00248579 2.02996e-07 -0.0012336)
(0.00451466 2.05042e-07 -0.0012125)
(0.00651362 2.05657e-07 -0.00119192)
(0.00848264 2.05308e-07 -0.00117179)
(0.0104223 2.04434e-07 -0.00115206)
(0.0123328 2.03378e-07 -0.00113267)
(0.0142145 2.0241e-07 -0.00111354)
(0.0160675 2.01731e-07 -0.00109459)
(0.0178917 2.01442e-07 -0.00107573)
(0.0196871 2.01563e-07 -0.00105687)
(0.0214534 2.02178e-07 -0.00103788)
(0.0231899 2.03238e-07 -0.00101866)
(0.0248961 2.04692e-07 -0.000999055)
(0.026571 2.06552e-07 -0.000978917)
(0.0282134 2.08844e-07 -0.00095808)
(0.0298218 2.11517e-07 -0.000936365)
(0.0313945 2.14503e-07 -0.000913579)
(0.0329293 2.1782e-07 -0.000889517)
(0.0344239 2.21403e-07 -0.00086396)
(0.0358753 2.25244e-07 -0.00083668)
(0.0372804 2.29304e-07 -0.00080744)
(0.0386356 2.33598e-07 -0.000775994)
(0.0399367 2.38075e-07 -0.000742091)
(0.0411795 2.42719e-07 -0.000705479)
(0.042359 2.47546e-07 -0.000665903)
(0.0434698 2.52594e-07 -0.000623112)
(0.0445062 2.57863e-07 -0.000576864)
(0.045462 2.63312e-07 -0.000526927)
(0.0463307 2.6898e-07 -0.000473083)
(0.0471053 2.74839e-07 -0.000415138)
(0.0477784 2.80781e-07 -0.00035293)
(0.0483426 2.86713e-07 -0.000286336)
(0.0487899 2.92554e-07 -0.000215298)
(0.0491125 2.98121e-07 -0.000139846)
(0.0493024 3.03315e-07 -6.01231e-05)
(0.0493512 3.08888e-07 2.38632e-05)
(0.0492525 3.14877e-07 0.00011244)
(0.0489962 3.20883e-07 0.000205718)
(0.0485744 3.27042e-07 0.000303423)
(0.0479791 3.33549e-07 0.000405215)
(0.047203 3.40621e-07 0.000510679)
(0.0462391 3.48299e-07 0.000619315)
(0.0450814 3.56745e-07 0.000730531)
(0.043725 3.65885e-07 0.000843627)
(0.0421657 3.75694e-07 0.000957785)
(0.0404012 3.85996e-07 0.00107205)
(0.0384304 3.96603e-07 0.00118533)
(0.0362542 4.07414e-07 0.00129636)
(0.0338757 4.1851e-07 0.00140369)
(0.0313004 4.30176e-07 0.00150569)
(0.0285367 4.4275e-07 0.00160049)
(0.0255963 4.56633e-07 0.00168597)
(0.0224946 4.71785e-07 0.00175971)
(0.0192513 4.87876e-07 0.00181895)
(0.0158911 5.04446e-07 0.00186054)
(0.0124444 5.2115e-07 0.0018808)
(0.00894904 5.38092e-07 0.00187545)
(0.00544872 5.55698e-07 0.00183954)
(0.00200607 5.7386e-07 0.00176685)
(-0.00133187 5.86209e-07 0.00164273)
(-0.00445053 5.97058e-07 0.00145914)
(-0.00726919 6.16109e-07 0.00121361)
(-0.00966487 6.42181e-07 0.000899055)
(-0.0114971 6.75741e-07 0.000502701)
(-0.0126038 7.15713e-07 1.43581e-05)
(-0.0128028 7.56821e-07 -0.00055586)
(-0.0119266 7.91067e-07 -0.0011676)
(-0.00987795 8.12162e-07 -0.00171258)
(-0.00675634 8.14815e-07 -0.00192846)
(-0.0031341 7.5648e-07 -0.00142289)
(-0.000474437 2.91208e-07 -0.000505532)
(0.00112193 2.70671e-06 -0.00271737)
(0.00288906 1.32452e-06 -0.00308405)
(0.00354845 3.36256e-07 -0.00208659)
(0.00352162 -9.33312e-08 -0.00079089)
(0.00288755 -1.36683e-07 0.000407387)
(0.00177113 -8.21215e-08 0.00139984)
(0.000257215 -1.03814e-08 0.00218538)
(-0.00158119 5.13555e-08 0.00279764)
(-0.00368243 9.22871e-08 0.00327516)
(-0.00599994 1.11803e-07 0.00365074)
(-0.00849622 1.1575e-07 0.00395116)
(-0.0111438 1.10924e-07 0.0041983)
(-0.0139213 1.01989e-07 0.00440752)
(-0.0168134 9.15646e-08 0.00459009)
(-0.0198088 8.10332e-08 0.00475404)
(-0.0228993 7.09786e-08 0.004905)
(-0.0260791 6.18502e-08 0.00504676)
(-0.0293435 5.41181e-08 0.00518174)
(-0.0326891 4.80723e-08 0.00531132)
(-0.0361125 4.36684e-08 0.00543608)
(-0.0396108 4.06644e-08 0.00555602)
(-0.0431806 3.8743e-08 0.00567068)
(-0.0468183 3.75652e-08 0.0057793)
(-0.0505197 3.67932e-08 0.0058809)
(-0.05428 3.61467e-08 0.00597432)
(-0.0580936 3.54623e-08 0.00605836)
(-0.0619542 3.46216e-08 0.00613177)
(-0.065855 3.35664e-08 0.00619333)
(-0.0697881 3.22857e-08 0.00624187)
(-0.0737453 3.08413e-08 0.00627631)
(-0.0777175 2.93373e-08 0.00629567)
(-0.0816952 2.78853e-08 0.0062991)
(-0.0856684 2.6571e-08 0.0062859)
(-0.0896268 2.5406e-08 0.00625552)
(-0.0935597 2.43704e-08 0.00620756)
(-0.0974562 2.34225e-08 0.00614179)
(-0.101305 2.2528e-08 0.00605814)
(-0.105096 2.1662e-08 0.0059567)
(-0.108818 2.07944e-08 0.0058377)
(-0.11246 1.98837e-08 0.00570153)
(-0.116012 1.8889e-08 0.0055487)
(-0.119463 1.77795e-08 0.00537985)
(-0.122804 1.65511e-08 0.00519573)
(-0.126026 1.52145e-08 0.00499719)
(-0.12912 1.38247e-08 0.00478515)
(-0.132078 1.24409e-08 0.00456063)
(-0.134892 1.11254e-08 0.00432468)
(-0.137556 9.93334e-09 0.00407841)
(-0.140064 8.90453e-09 0.00382297)
(-0.142409 8.06564e-09 0.00355951)
(-0.144588 7.4383e-09 0.00328921)
(-0.146595 7.00999e-09 0.00301321)
(-0.148429 6.77322e-09 0.00273268)
(-0.150085 6.69383e-09 0.00244874)
(-0.151563 6.71936e-09 0.00216249)
(-0.152861 6.77905e-09 0.001875)
(-0.153978 6.80628e-09 0.00158729)
(-0.154914 6.73696e-09 0.00130035)
(-0.155669 6.52447e-09 0.0010151)
(-0.156246 6.15217e-09 0.000732447)
(-0.156644 5.65419e-09 0.000453224)
(-0.156867 5.08631e-09 0.000178226)
(-0.156917 4.51428e-09 -9.18906e-05)
(-0.156795 4.00639e-09 -0.000356747)
(-0.156507 3.63419e-09 -0.000615902)
(-0.156056 3.40935e-09 -0.000868771)
(-0.155444 3.30854e-09 -0.00111485)
(-0.154678 3.31428e-09 -0.00135369)
(-0.153761 3.38995e-09 -0.00158492)
(-0.152697 3.49892e-09 -0.00180822)
(-0.151492 3.61372e-09 -0.00202334)
(-0.150151 3.69856e-09 -0.00223005)
(-0.148678 3.72846e-09 -0.0024282)
(-0.147079 3.67929e-09 -0.00261767)
(-0.145359 3.54272e-09 -0.00279837)
(-0.143524 3.32957e-09 -0.00297024)
(-0.141578 3.05815e-09 -0.00313327)
(-0.139527 2.74677e-09 -0.00328747)
(-0.137376 2.41125e-09 -0.00343287)
(-0.135131 2.05907e-09 -0.00356954)
(-0.132796 1.69023e-09 -0.00369757)
(-0.130378 1.29641e-09 -0.00381706)
(-0.127881 8.89255e-10 -0.00392814)
(-0.12531 4.68764e-10 -0.00403094)
(-0.122671 4.99214e-11 -0.00412562)
(-0.119967 -3.53954e-10 -0.00421235)
(-0.117205 -7.40365e-10 -0.0042913)
(-0.114388 -1.086e-09 -0.00436267)
(-0.111522 -1.38253e-09 -0.00442665)
(-0.10861 -1.61831e-09 -0.00448345)
(-0.105658 -1.79998e-09 -0.00453328)
(-0.102669 -1.93253e-09 -0.00457637)
(-0.0996477 -2.03762e-09 -0.00461293)
(-0.096598 -2.14439e-09 -0.0046432)
(-0.0935239 -2.28198e-09 -0.0046674)
(-0.090429 -2.48204e-09 -0.00468577)
(-0.087317 -2.75873e-09 -0.00469855)
(-0.0841914 -3.13287e-09 -0.00470599)
(-0.0810555 -3.60366e-09 -0.00470831)
(-0.0779127 -4.16526e-09 -0.00470578)
(-0.074766 -4.80853e-09 -0.00469861)
(-0.0716183 -5.50516e-09 -0.00468707)
(-0.0684725 -6.2435e-09 -0.00467138)
(-0.0653314 -6.98606e-09 -0.00465179)
(-0.0621974 -7.70952e-09 -0.00462853)
(-0.0590731 -8.39139e-09 -0.00460185)
(-0.0559607 -9.01917e-09 -0.00457197)
(-0.0528624 -9.58119e-09 -0.00453914)
(-0.0497803 -1.00758e-08 -0.00450358)
(-0.0467163 -1.05054e-08 -0.00446551)
(-0.0436721 -1.08776e-08 -0.00442516)
(-0.0406495 -1.12115e-08 -0.00438275)
(-0.03765 -1.15029e-08 -0.0043385)
(-0.0346749 -1.17569e-08 -0.0042926)
(-0.0317256 -1.1985e-08 -0.00424528)
(-0.0288032 -1.21857e-08 -0.00419673)
(-0.0259088 -1.23739e-08 -0.00414715)
(-0.0230432 -1.25504e-08 -0.00409674)
(-0.0202073 -1.27228e-08 -0.00404569)
(-0.0174017 -1.28902e-08 -0.00399419)
(-0.0146269 -1.30577e-08 -0.00394242)
(-0.0118835 -1.32301e-08 -0.00389057)
(-0.00917154 -1.34167e-08 -0.00383881)
(-0.00649137 -1.36009e-08 -0.00378738)
(-0.0038428 -1.37892e-08 -0.00373668)
(-0.00122632 -1.40259e-08 -0.00368678)
(0.00135975 -1.4251e-08 -0.00363718)
(0.00391122 -1.43742e-08 -0.00358778)
(0.0064302 -1.44124e-08 -0.0035379)
(0.0089162 -1.43805e-08 -0.00348736)
(0.0113696 -1.44411e-08 -0.00343705)
(0.0137903 -1.47287e-08 -0.0033873)
(0.0161782 -1.52114e-08 -0.00333809)
(0.0185334 -1.5856e-08 -0.00328932)
(0.0208558 -1.66157e-08 -0.00324087)
(0.0231453 -1.74173e-08 -0.00319259)
(0.0254017 -1.8214e-08 -0.0031443)
(0.0276247 -1.89625e-08 -0.00309577)
(0.0298139 -1.96326e-08 -0.00304677)
(0.0319686 -2.02277e-08 -0.002997)
(0.0340881 -2.07478e-08 -0.00294615)
(0.0361714 -2.11946e-08 -0.00289386)
(0.0382172 -2.15713e-08 -0.00283972)
(0.040224 -2.18948e-08 -0.0027833)
(0.04219 -2.21699e-08 -0.00272413)
(0.0441132 -2.24234e-08 -0.00266168)
(0.0459911 -2.2662e-08 -0.00259539)
(0.0478208 -2.28923e-08 -0.00252469)
(0.0495991 -2.31295e-08 -0.00244893)
(0.0513225 -2.33784e-08 -0.00236747)
(0.0529869 -2.36508e-08 -0.00227963)
(0.0545877 -2.39468e-08 -0.00218471)
(0.0561201 -2.42696e-08 -0.00208199)
(0.0575785 -2.4621e-08 -0.00197076)
(0.058957 -2.4986e-08 -0.00185028)
(0.0602493 -2.53762e-08 -0.00171985)
(0.0614486 -2.57834e-08 -0.00157879)
(0.0625474 -2.62142e-08 -0.00142642)
(0.0635381 -2.66854e-08 -0.00126215)
(0.0644125 -2.72204e-08 -0.00108541)
(0.0651621 -2.7841e-08 -0.000895749)
(0.0657781 -2.85673e-08 -0.000692805)
(0.0662513 -2.94062e-08 -0.000476379)
(0.0665724 -3.02756e-08 -0.000246441)
(0.0667315 -3.12589e-08 -3.04466e-06)
(0.0667192 -3.23151e-08 0.000254359)
(0.0665259 -3.33235e-08 0.00052609)
(0.0661424 -3.43174e-08 0.000811602)
(0.0655596 -3.52836e-08 0.00111025)
(0.0647685 -3.6227e-08 0.00142117)
(0.063761 -3.71327e-08 0.00174325)
(0.0625295 -3.80022e-08 0.00207512)
(0.0610674 -3.88743e-08 0.0024151)
(0.0593691 -3.97924e-08 0.0027612)
(0.0574304 -4.08136e-08 0.00311103)
(0.0552488 -4.19901e-08 0.00346181)
(0.0528235 -4.33203e-08 0.00381029)
(0.050156 -4.4739e-08 0.0041527)
(0.0472502 -4.60951e-08 0.0044847)
(0.0441131 -4.72577e-08 0.0048013)
(0.0407549 -4.81563e-08 0.00509675)
(0.0371897 -4.88341e-08 0.00536442)
(0.033436 -4.94574e-08 0.00559665)
(0.0295174 -5.01571e-08 0.00578456)
(0.0254633 -5.09216e-08 0.00591775)
(0.02131 -5.15691e-08 0.005984)
(0.0171014 -5.17834e-08 0.00596849)
(0.0128921 -5.13468e-08 0.00585411)
(0.00874379 -4.92604e-08 0.00561537)
(0.00473366 -4.46083e-08 0.00522651)
(0.000949207 -3.77735e-08 0.00466174)
(-0.00250447 -2.86725e-08 0.00388563)
(-0.00549391 -1.68742e-08 0.00286364)
(-0.00788591 -2.74313e-09 0.00156268)
(-0.00952436 1.19508e-08 -2.8904e-05)
(-0.010241 2.49067e-08 -0.00186488)
(-0.00985989 3.38807e-08 -0.00377685)
(-0.0082432 4.20043e-08 -0.00533446)
(-0.00532362 5.4526e-09 -0.00562775)
(-0.00133099 -4.50662e-07 -0.0033194)
(0.00112399 2.70666e-06 -0.00271657)
(0.00289038 1.32445e-06 -0.00308423)
(0.00354954 3.36236e-07 -0.00208653)
(0.00352201 -9.33259e-08 -0.000790916)
(0.0028877 -1.36676e-07 0.000407162)
(0.00177096 -8.21175e-08 0.0013996)
(0.000256831 -1.03809e-08 0.00218523)
(-0.00158163 5.13533e-08 0.00279758)
(-0.00368281 9.22833e-08 0.00327516)
(-0.00600021 1.11799e-07 0.00365076)
(-0.00849635 1.15746e-07 0.00395119)
(-0.0111438 1.1092e-07 0.00419834)
(-0.0139212 1.01985e-07 0.00440757)
(-0.0168132 9.15615e-08 0.00459014)
(-0.0198085 8.10305e-08 0.0047541)
(-0.022899 7.09763e-08 0.00490506)
(-0.0260787 6.18482e-08 0.00504683)
(-0.0293431 5.41164e-08 0.00518181)
(-0.0326886 4.80708e-08 0.00531139)
(-0.0361121 4.3667e-08 0.00543615)
(-0.0396104 4.06632e-08 0.00555609)
(-0.0431802 3.87418e-08 0.00567075)
(-0.0468179 3.75641e-08 0.00577937)
(-0.0505192 3.67921e-08 0.00588096)
(-0.0542795 3.61456e-08 0.00597439)
(-0.0580931 3.54612e-08 0.00605842)
(-0.0619537 3.46206e-08 0.00613184)
(-0.0658544 3.35654e-08 0.0061934)
(-0.0697875 3.22848e-08 0.00624194)
(-0.0737447 3.08405e-08 0.00627637)
(-0.0777168 2.93365e-08 0.00629573)
(-0.0816945 2.78845e-08 0.00629916)
(-0.0856677 2.65702e-08 0.00628596)
(-0.0896261 2.54053e-08 0.00625557)
(-0.093559 2.43697e-08 0.00620761)
(-0.0974555 2.34218e-08 0.00614184)
(-0.101305 2.25273e-08 0.00605819)
(-0.105096 2.16614e-08 0.00595674)
(-0.108817 2.07939e-08 0.00583774)
(-0.112459 1.98832e-08 0.00570157)
(-0.116011 1.88885e-08 0.00554874)
(-0.119462 1.7779e-08 0.00537988)
(-0.122804 1.65506e-08 0.00519576)
(-0.126026 1.5214e-08 0.00499721)
(-0.129119 1.38243e-08 0.00478517)
(-0.132077 1.24405e-08 0.00456065)
(-0.134892 1.11251e-08 0.0043247)
(-0.137556 9.93307e-09 0.00407843)
(-0.140063 8.90429e-09 0.00382299)
(-0.142408 8.06542e-09 0.00355952)
(-0.144587 7.43809e-09 0.00328921)
(-0.146594 7.0098e-09 0.00301322)
(-0.148428 6.77303e-09 0.00273268)
(-0.150085 6.69365e-09 0.00244874)
(-0.151562 6.71918e-09 0.00216249)
(-0.15286 6.77887e-09 0.001875)
(-0.153977 6.8061e-09 0.00158729)
(-0.154913 6.73678e-09 0.00130034)
(-0.155669 6.52429e-09 0.00101509)
(-0.156245 6.152e-09 0.000732438)
(-0.156643 5.65404e-09 0.000453214)
(-0.156866 5.08618e-09 0.000178216)
(-0.156916 4.51417e-09 -9.19019e-05)
(-0.156795 4.00628e-09 -0.00035676)
(-0.156506 3.6341e-09 -0.000615917)
(-0.156055 3.40926e-09 -0.000868788)
(-0.155444 3.30845e-09 -0.00111487)
(-0.154677 3.3142e-09 -0.00135371)
(-0.15376 3.38987e-09 -0.00158494)
(-0.152696 3.49883e-09 -0.00180825)
(-0.151492 3.61363e-09 -0.00202336)
(-0.15015 3.69847e-09 -0.00223008)
(-0.148677 3.72837e-09 -0.00242823)
(-0.147078 3.6792e-09 -0.0026177)
(-0.145359 3.54263e-09 -0.0027984)
(-0.143523 3.32949e-09 -0.00297027)
(-0.141577 3.05807e-09 -0.0031333)
(-0.139526 2.7467e-09 -0.00328749)
(-0.137375 2.41119e-09 -0.0034329)
(-0.13513 2.05902e-09 -0.00356957)
(-0.132796 1.69019e-09 -0.0036976)
(-0.130377 1.29638e-09 -0.00381709)
(-0.12788 8.89234e-10 -0.00392817)
(-0.125309 4.68753e-10 -0.00403097)
(-0.12267 4.99203e-11 -0.00412565)
(-0.119966 -3.53946e-10 -0.00421238)
(-0.117204 -7.40349e-10 -0.00429133)
(-0.114387 -1.08598e-09 -0.0043627)
(-0.111521 -1.3825e-09 -0.00442668)
(-0.108609 -1.61827e-09 -0.00448349)
(-0.105657 -1.79994e-09 -0.00453332)
(-0.102668 -1.93249e-09 -0.00457641)
(-0.099647 -2.03758e-09 -0.00461297)
(-0.0965974 -2.14435e-09 -0.00464324)
(-0.0935232 -2.28193e-09 -0.00466744)
(-0.0904283 -2.48199e-09 -0.00468582)
(-0.0873164 -2.75867e-09 -0.0046986)
(-0.0841908 -3.13281e-09 -0.00470604)
(-0.0810549 -3.60359e-09 -0.00470837)
(-0.0779121 -4.16519e-09 -0.00470583)
(-0.0747654 -4.80845e-09 -0.00469867)
(-0.0716177 -5.50506e-09 -0.00468713)
(-0.068472 -6.24339e-09 -0.00467144)
(-0.0653308 -6.98594e-09 -0.00465185)
(-0.0621969 -7.70939e-09 -0.0046286)
(-0.0590725 -8.39125e-09 -0.00460192)
(-0.0559602 -9.01903e-09 -0.00457204)
(-0.0528619 -9.58104e-09 -0.00453921)
(-0.0497798 -1.00756e-08 -0.00450365)
(-0.0467158 -1.05053e-08 -0.00446559)
(-0.0436716 -1.08774e-08 -0.00442525)
(-0.040649 -1.12113e-08 -0.00438284)
(-0.0376495 -1.15028e-08 -0.00433859)
(-0.0346744 -1.17567e-08 -0.00429269)
(-0.0317251 -1.19849e-08 -0.00424537)
(-0.0288027 -1.21855e-08 -0.00419682)
(-0.0259083 -1.23737e-08 -0.00414725)
(-0.0230427 -1.25503e-08 -0.00409684)
(-0.0202068 -1.27227e-08 -0.00404579)
(-0.0174012 -1.28901e-08 -0.00399429)
(-0.0146265 -1.30575e-08 -0.00394252)
(-0.011883 -1.323e-08 -0.00389067)
(-0.00917111 -1.34166e-08 -0.00383891)
(-0.00649094 -1.36008e-08 -0.00378748)
(-0.00384237 -1.37891e-08 -0.00373678)
(-0.0012259 -1.40258e-08 -0.00368688)
(0.00136017 -1.42508e-08 -0.00363728)
(0.00391163 -1.43741e-08 -0.00358788)
(0.00643061 -1.44123e-08 -0.00353801)
(0.00891661 -1.43804e-08 -0.00348747)
(0.01137 -1.4441e-08 -0.00343716)
(0.0137907 -1.47286e-08 -0.00338742)
(0.0161786 -1.52113e-08 -0.00333821)
(0.0185338 -1.58559e-08 -0.00328945)
(0.0208562 -1.66156e-08 -0.00324101)
(0.0231457 -1.74172e-08 -0.00319274)
(0.0254021 -1.82139e-08 -0.00314445)
(0.0276251 -1.89624e-08 -0.00309593)
(0.0298143 -1.96325e-08 -0.00304693)
(0.031969 -2.02276e-08 -0.00299717)
(0.0340885 -2.07477e-08 -0.00294633)
(0.0361717 -2.11945e-08 -0.00289404)
(0.0382175 -2.15713e-08 -0.00283991)
(0.0402243 -2.18947e-08 -0.0027835)
(0.0421904 -2.21699e-08 -0.00272432)
(0.0441135 -2.24234e-08 -0.00266188)
(0.0459914 -2.2662e-08 -0.0025956)
(0.0478211 -2.28923e-08 -0.00252489)
(0.0495995 -2.31295e-08 -0.00244914)
(0.0513229 -2.33784e-08 -0.00236769)
(0.0529872 -2.36508e-08 -0.00227985)
(0.0545881 -2.39468e-08 -0.00218494)
(0.0561204 -2.42696e-08 -0.00208222)
(0.0575788 -2.46211e-08 -0.00197099)
(0.0589573 -2.4986e-08 -0.00185052)
(0.0602496 -2.53763e-08 -0.00172009)
(0.0614489 -2.57834e-08 -0.00157903)
(0.0625477 -2.62142e-08 -0.00142667)
(0.0635384 -2.66854e-08 -0.0012624)
(0.0644128 -2.72204e-08 -0.00108567)
(0.0651624 -2.78411e-08 -0.000896009)
(0.0657784 -2.85674e-08 -0.000693069)
(0.0662516 -2.94062e-08 -0.000476648)
(0.0665727 -3.02756e-08 -0.000246714)
(0.0667318 -3.1259e-08 -3.32295e-06)
(0.0667194 -3.23152e-08 0.000254076)
(0.0665262 -3.33236e-08 0.000525803)
(0.0661427 -3.43175e-08 0.000811309)
(0.0655599 -3.52837e-08 0.00110995)
(0.0647688 -3.62271e-08 0.00142087)
(0.0637613 -3.71328e-08 0.00174294)
(0.0625298 -3.80023e-08 0.0020748)
(0.0610677 -3.88744e-08 0.00241478)
(0.0593693 -3.97925e-08 0.00276087)
(0.0574307 -4.08137e-08 0.0031107)
(0.055249 -4.19902e-08 0.00346147)
(0.0528237 -4.33205e-08 0.00380994)
(0.0501562 -4.47391e-08 0.00415235)
(0.0472505 -4.60952e-08 0.00448434)
(0.0441133 -4.72579e-08 0.00480093)
(0.0407551 -4.81564e-08 0.00509637)
(0.0371899 -4.88342e-08 0.00536403)
(0.0334362 -4.94575e-08 0.00559626)
(0.0295175 -5.01572e-08 0.00578416)
(0.0254634 -5.09217e-08 0.00591733)
(0.0213101 -5.15692e-08 0.00598357)
(0.0171015 -5.17835e-08 0.00596805)
(0.0128922 -5.13468e-08 0.00585366)
(0.00874389 -4.92605e-08 0.00561491)
(0.00473375 -4.46084e-08 0.00522603)
(0.000949304 -3.77735e-08 0.00466126)
(-0.00250436 -2.86725e-08 0.00388513)
(-0.00549379 -1.68742e-08 0.00286313)
(-0.00788576 -2.74313e-09 0.00156215)
(-0.00952419 1.19508e-08 -2.94604e-05)
(-0.0102408 2.49067e-08 -0.00186546)
(-0.00985973 3.38807e-08 -0.00377748)
(-0.00824325 4.20043e-08 -0.00533523)
(-0.00532446 5.45259e-09 -0.00562899)
(-0.00133195 -4.50662e-07 -0.00332118)
(0.00100893 1.0962e-06 -0.00464174)
(0.00186268 7.86318e-07 -0.00374509)
(0.00165209 2.83081e-07 -0.00186121)