/*--------------------------------*- C++ -*----------------------------------*\
  =========                 |
  \\      /  F ield         | OpenFOAM: The Open Source CFD Toolbox
   \\    /   O peration     | Website:  https://openfoam.org
    \\  /    A nd           | Version:  8
     \\/     M anipulation  |
\*---------------------------------------------------------------------------*/
FoamFile
{
    version     2.0;
    format      ascii;
    class       volScalarField;
    location    "2100";
    object      alphat;
}
// * * * * * * * * * * * * * * * * * * * * * * * * * * * * * * * * * * * * * //

dimensions      [1 -1 -1 0 0 0 0];

internalField   nonuniform List<scalar> 
48000
(
7.4545e-05
6.67991e-05
8.26703e-05
9.4679e-05
0.000104531
0.000112773
0.00011993
0.00012645
0.000132369
0.000137829
0.000142918
0.000147696
0.000152206
0.000156484
0.000160557
0.000164444
0.000168163
0.000171727
0.000175147
0.000178431
0.000181587
0.000184621
0.000187538
0.000190343
0.000193038
0.000195629
0.000198117
0.000200505
0.000202796
0.000204993
0.000207097
0.000209111
0.000211036
0.000212876
0.000214631
0.000216304
0.000217897
0.000219412
0.000220851
0.000222216
0.000223508
0.00022473
0.000225883
0.00022697
0.000227992
0.000228951
0.000229848
0.000230686
0.000231469
0.000232203
0.000232885
0.000233514
0.000234092
0.000234621
0.000235103
0.00023554
0.000235932
0.000236282
0.000236591
0.00023686
0.000237091
0.000237286
0.000237445
0.000237571
0.000237663
0.000237724
0.000237754
0.000237755
0.000237727
0.000237673
0.000237592
0.000237485
0.000237354
0.000237199
0.000237022
0.000236823
0.000236602
0.00023636
0.000236099
0.000235818
0.000235519
0.000235201
0.000234866
0.000234514
0.000234145
0.00023376
0.00023336
0.000232944
0.000232513
0.000232067
0.000231607
0.000231132
0.000230644
0.000230143
0.000229628
0.0002291
0.000228558
0.000228004
0.000227438
0.000226858
0.000226266
0.000225662
0.000225045
0.000224416
0.000223774
0.00022312
0.000222454
0.000221775
0.000221084
0.00022038
0.000219664
0.000218935
0.000218193
0.000217438
0.00021667
0.000215889
0.000215094
0.000214287
0.000213465
0.000212629
0.00021178
0.000210916
0.000210038
0.000209145
0.000208237
0.000207314
0.000206375
0.000205421
0.000204451
0.000203464
0.000202461
0.000201442
0.000200405
0.000199351
0.00019828
0.00019719
0.000196083
0.000194957
0.000193812
0.000192648
0.000191465
0.000190263
0.00018904
0.000187798
0.000186535
0.000185251
0.000183946
0.00018262
0.000181272
0.000179902
0.00017851
0.000177096
0.000175659
0.000174199
0.000172716
0.000171209
0.000169678
0.000168123
0.000166543
0.000164938
0.000163308
0.000161653
0.000159971
0.000158263
0.000156528
0.000154765
0.000152975
0.000151155
0.000149307
0.000147428
0.000145518
0.000143576
0.000141601
0.000139591
0.000137546
0.000135463
0.00013334
0.000131175
0.000128965
0.000126707
0.000124398
0.000122034
0.000119611
0.000117127
0.000114592
0.000111983
0.000109274
0.000106453
0.000103499
0.000100387
9.70839e-05
9.35439e-05
8.97073e-05
8.55443e-05
8.08959e-05
7.55521e-05
6.91909e-05
6.1373e-05
5.14203e-05
0.000119115
7.45433e-05
6.68002e-05
8.26712e-05
9.46798e-05
0.000104532
0.000112774
0.000119931
0.00012645
0.00013237
0.000137829
0.000142919
0.000147696
0.000152207
0.000156485
0.000160557
0.000164444
0.000168163
0.000171727
0.000175147
0.000178431
0.000181588
0.000184621
0.000187538
0.000190343
0.000193039
0.000195629
0.000198117
0.000200505
0.000202796
0.000204993
0.000207097
0.000209111
0.000211036
0.000212876
0.000214631
0.000216304
0.000217898
0.000219412
0.000220851
0.000222216
0.000223508
0.00022473
0.000225883
0.00022697
0.000227992
0.00022895
0.000229848
0.000230686
0.000231469
0.000232203
0.000232885
0.000233514
0.000234092
0.000234621
0.000235103
0.00023554
0.000235932
0.000236282
0.000236591
0.00023686
0.000237091
0.000237286
0.000237445
0.000237571
0.000237663
0.000237724
0.000237754
0.000237755
0.000237727
0.000237673
0.000237591
0.000237485
0.000237354
0.000237199
0.000237022
0.000236822
0.000236602
0.00023636
0.000236099
0.000235818
0.000235519
0.000235201
0.000234866
0.000234514
0.000234145
0.00023376
0.00023336
0.000232944
0.000232512
0.000232067
0.000231607
0.000231132
0.000230644
0.000230143
0.000229628
0.0002291
0.000228558
0.000228004
0.000227438
0.000226858
0.000226266
0.000225662
0.000225045
0.000224416
0.000223774
0.00022312
0.000222454
0.000221775
0.000221084
0.00022038
0.000219664
0.000218934
0.000218193
0.000217438
0.00021667
0.000215889
0.000215094
0.000214286
0.000213465
0.000212629
0.00021178
0.000210916
0.000210038
0.000209145
0.000208237
0.000207314
0.000206375
0.000205421
0.00020445
0.000203464
0.000202461
0.000201442
0.000200405
0.000199351
0.000198279
0.00019719
0.000196083
0.000194957
0.000193812
0.000192648
0.000191465
0.000190263
0.00018904
0.000187798
0.000186534
0.000185251
0.000183946
0.00018262
0.000181272
0.000179902
0.00017851
0.000177096
0.000175659
0.000174199
0.000172716
0.000171209
0.000169678
0.000168123
0.000166543
0.000164938
0.000163308
0.000161653
0.000159971
0.000158263
0.000156528
0.000154765
0.000152974
0.000151155
0.000149307
0.000147428
0.000145518
0.000143576
0.000141601
0.000139591
0.000137546
0.000135463
0.00013334
0.000131175
0.000128965
0.000126707
0.000124398
0.000122034
0.000119611
0.000117127
0.000114592
0.000111983
0.000109274
0.000106453
0.000103499
0.000100387
9.70839e-05
9.35439e-05
8.97073e-05
8.55444e-05
8.08962e-05
7.55526e-05
6.919e-05
6.13653e-05
5.14464e-05
0.000119323
5.78372e-05
0.000426063
0.000677811
0.000852232
0.000983341
0.00109082
0.00118286
0.00126336
0.00133551
0.00140106
0.00146124
0.00151697
0.00156894
0.00161766
0.00166356
0.00170695
0.0017481
0.00178722
0.0018245
0.00186006
0.00189404
0.00192655
0.00195766
0.00198745
0.002016
0.00204335
0.00206956
0.00209468
0.00211874
0.00214178
0.00216383
0.00218493
0.00220511
0.0022244
0.00224281
0.00226038
0.00227713
0.00229309
0.00230828
0.00232271
0.00233642
0.00234942
0.00236173
0.00237337
0.00238437
0.00239473
0.00240448
0.0024136
0.00242205
0.00242982
0.00243704
0.00244373
0.00244994
0.00245568
0.00246096
0.00246581
0.00247024
0.00247426
0.00247789
0.00248114
0.00248402
0.00248655
0.00248873
0.00249059
0.00249212
0.00249335
0.00249428
0.00249491
0.00249527
0.00249536
0.00249518
0.00249475
0.00249407
0.00249315
0.00249201
0.00249063
0.00248904
0.00248724
0.00248523
0.00248302
0.00248061
0.00247802
0.00247523
0.00247227
0.00246913
0.00246582
0.00246234
0.0024587
0.00245489
0.00245092
0.00244679
0.00244251
0.00243808
0.0024335
0.00242877
0.0024239
0.00241888
0.00241371
0.00240841
0.00240296
0.00239737
0.00239164
0.00238577
0.00237976
0.00237361
0.00236732
0.00236089
0.00235432
0.00234761
0.00234075
0.00233376
0.00232661
0.00231933
0.00231189
0.00230431
0.00229658
0.00228869
0.00228065
0.00227246
0.00226411
0.0022556
0.00224693
0.0022381
0.0022291
0.00221993
0.00221059
0.00220108
0.00219139
0.00218153
0.00217148
0.00216125
0.00215083
0.00214022
0.00212942
0.00211842
0.00210723
0.00209583
0.00208423
0.00207243
0.00206041
0.00204818
0.00203574
0.00202307
0.00201019
0.00199708
0.00198374
0.00197017
0.00195637
0.00194233
0.00192805
0.00191353
0.00189877
0.00188375
0.00186849
0.00185297
0.00183718
0.00182114
0.00180483
0.00178825
0.0017714
0.00175427
0.00173686
0.00171915
0.00170116
0.00168286
0.00166425
0.00164533
0.00162609
0.00160652
0.0015866
0.00156632
0.00154568
0.00152465
0.00150321
0.00148136
0.00145905
0.00143627
0.00141298
0.00138915
0.00136472
0.00133965
0.00131385
0.00128723
0.00125965
0.00123091
0.00120094
0.00116965
0.00113688
0.00110235
0.00106571
0.00102645
0.000983804
0.000936473
0.000881899
0.000818721
0.000743273
0.000649507
0.000528571
0.000373861
0.000341509
5.78376e-05
0.000426084
0.000677843
0.000852267
0.000983378
0.00109086
0.00118289
0.0012634
0.00133554
0.00140109
0.00146127
0.001517
0.00156897
0.0016177
0.00166359
0.00170698
0.00174813
0.00178725
0.00182452
0.00186009
0.00189407
0.00192657
0.00195768
0.00198748
0.00201602
0.00204338
0.00206959
0.0020947
0.00211876
0.0021418
0.00216385
0.00218495
0.00220513
0.00222441
0.00224283
0.0022604
0.00227715
0.00229311
0.00230829
0.00232273
0.00233643
0.00234943
0.00236174
0.00237339
0.00238438
0.00239475
0.00240449
0.00241362
0.00242206
0.00242984
0.00243705
0.00244375
0.00244995
0.00245569
0.00246097
0.00246582
0.00247025
0.00247427
0.0024779
0.00248115
0.00248403
0.00248656
0.00248875
0.0024906
0.00249214
0.00249336
0.00249429
0.00249492
0.00249528
0.00249537
0.00249519
0.00249476
0.00249408
0.00249316
0.00249202
0.00249064
0.00248905
0.00248725
0.00248524
0.00248303
0.00248062
0.00247803
0.00247524
0.00247228
0.00246914
0.00246583
0.00246235
0.0024587
0.0024549
0.00245093
0.0024468
0.00244252
0.00243809
0.00243351
0.00242878
0.00242391
0.00241889
0.00241372
0.00240842
0.00240297
0.00239738
0.00239165
0.00238578
0.00237977
0.00237362
0.00236733
0.0023609
0.00235433
0.00234762
0.00234076
0.00233377
0.00232662
0.00231933
0.0023119
0.00230432
0.00229658
0.0022887
0.00228066
0.00227247
0.00226412
0.00225561
0.00224694
0.00223811
0.00222911
0.00221994
0.0022106
0.00220109
0.0021914
0.00218153
0.00217149
0.00216125
0.00215084
0.00214023
0.00212943
0.00211843
0.00210724
0.00209584
0.00208424
0.00207243
0.00206042
0.00204819
0.00203574
0.00202308
0.00201019
0.00199708
0.00198375
0.00197018
0.00195638
0.00194234
0.00192806
0.00191354
0.00189878
0.00188376
0.00186849
0.00185297
0.00183719
0.00182115
0.00180484
0.00178826
0.00177141
0.00175428
0.00173686
0.00171916
0.00170116
0.00168287
0.00166426
0.00164534
0.0016261
0.00160652
0.0015866
0.00156633
0.00154568
0.00152465
0.00150322
0.00148136
0.00145906
0.00143628
0.00141299
0.00138916
0.00136473
0.00133966
0.00131386
0.00128724
0.00125966
0.00123092
0.00120095
0.00116966
0.00113688
0.00110235
0.00106571
0.00102646
0.00098381
0.000936478
0.000881902
0.000818716
0.000743235
0.00064935
0.00052814
0.000373973
0.00034146
7.07956e-05
0.00064537
0.00114796
0.00152347
0.00182112
0.00206876
0.00228171
0.0024689
0.00263627
0.00278783
0.00292641
0.00305411
0.00317255
0.00328297
0.00338638
0.00348358
0.00357525
0.00366193
0.00374408
0.00382209
0.0038963
0.00396698
0.00403438
0.00409872
0.00416018
0.00421892
0.00427508
0.00432879
0.00438017
0.00442932
0.00447634
0.0045213
0.00456428
0.00460537
0.00464462
0.0046821
0.00471788
0.004752
0.00478453
0.0048155
0.00484498
0.00487301
0.00489964
0.0049249
0.00494884
0.0049715
0.00499289
0.00501304
0.00503193
0.00504955
0.00506605
0.00508148
0.00509591
0.00510937
0.0051219
0.00513354
0.00514432
0.00515426
0.0051634
0.00517177
0.00517938
0.00518627
0.00519245
0.00519796
0.00520281
0.00520702
0.00521061
0.00521361
0.00521603
0.00521788
0.00521919
0.00521998
0.00522025
0.00522002
0.0052193
0.00521812
0.00521648
0.00521439
0.00521186
0.00520892
0.00520556
0.00520179
0.00519763
0.00519309
0.00518817
0.00518288
0.00517722
0.00517121
0.00516485
0.00515815
0.0051511
0.00514372
0.00513602
0.00512798
0.00511963
0.00511095
0.00510196
0.00509266
0.00508304
0.00507311
0.00506288
0.00505233
0.00504148
0.00503032
0.00501885
0.00500707
0.00499498
0.00498258
0.00496987
0.00495684
0.0049435
0.00492984
0.00491586
0.00490156
0.00488693
0.00487196
0.00485667
0.00484103
0.00482505
0.00480873
0.00479206
0.00477502
0.00475763
0.00473988
0.00472175
0.00470324
0.00468436
0.00466508
0.00464542
0.00462535
0.00460488
0.004584
0.0045627
0.00454097
0.00451881
0.00449622
0.00447319
0.0044497
0.00442576
0.00440135
0.00437647
0.00435112
0.00432528
0.00429895
0.00427212
0.00424478
0.00421693
0.00418856
0.00415965
0.00413021
0.00410023
0.00406969
0.00403858
0.00400691
0.00397465
0.0039418
0.00390835
0.00387428
0.00383958
0.00380425
0.00376826
0.0037316
0.00369426
0.00365621
0.00361744
0.00357792
0.00353763
0.00349655
0.00345464
0.00341186
0.00336819
0.00332358
0.00327798
0.00323134
0.00318359
0.00313466
0.00308447
0.00303293
0.00297991
0.00292529
0.0028689
0.00281054
0.00274996
0.00268686
0.00262088
0.00255165
0.00247875
0.00240154
0.00231919
0.00223065
0.00213441
0.00202839
0.00190951
0.00177325
0.00161419
0.00142382
0.00118847
0.000887095
0.000491647
5.52758e-05
7.07963e-05
0.000645398
0.00114801
0.00152354
0.0018212
0.00206884
0.00228179
0.00246898
0.00263635
0.00278791
0.00292649
0.00305419
0.00317262
0.00328304
0.00338645
0.00348365
0.00357531
0.00366199
0.00374414
0.00382215
0.00389635
0.00396703
0.00403443
0.00409877
0.00416022
0.00421896
0.00427512
0.00432883
0.00438021
0.00442936
0.00447637
0.00452133
0.00456431
0.0046054
0.00464465
0.00468213
0.0047179
0.00475203
0.00478455
0.00481552
0.004845
0.00487303
0.00489966
0.00492492
0.00494886
0.00497151
0.00499291
0.00501305
0.00503194
0.00504956
0.00506606
0.0050815
0.00509592
0.00510938
0.00512191
0.00513355
0.00514433
0.00515427
0.00516341
0.00517178
0.00517939
0.00518628
0.00519246
0.00519797
0.00520281
0.00520702
0.00521062
0.00521361
0.00521603
0.00521789
0.0052192
0.00521998
0.00522025
0.00522002
0.00521931
0.00521812
0.00521648
0.00521439
0.00521187
0.00520892
0.00520556
0.00520179
0.00519764
0.00519309
0.00518817
0.00518288
0.00517722
0.00517121
0.00516485
0.00515815
0.0051511
0.00514373
0.00513602
0.00512798
0.00511963
0.00511095
0.00510196
0.00509266
0.00508304
0.00507311
0.00506288
0.00505233
0.00504148
0.00503032
0.00501885
0.00500707
0.00499498
0.00498258
0.00496987
0.00495684
0.0049435
0.00492984
0.00491586
0.00490156
0.00488692
0.00487196
0.00485666
0.00484103
0.00482505
0.00480873
0.00479205
0.00477502
0.00475763
0.00473987
0.00472175
0.00470324
0.00468436
0.00466508
0.00464542
0.00462535
0.00460488
0.00458399
0.00456269
0.00454097
0.00451881
0.00449622
0.00447318
0.0044497
0.00442576
0.00440135
0.00437647
0.00435112
0.00432528
0.00429894
0.00427211
0.00424478
0.00421693
0.00418855
0.00415965
0.00413021
0.00410023
0.00406969
0.00403858
0.00400691
0.00397465
0.0039418
0.00390835
0.00387428
0.00383958
0.00380425
0.00376826
0.0037316
0.00369426
0.00365621
0.00361744
0.00357792
0.00353763
0.00349655
0.00345463
0.00341186
0.00336819
0.00332358
0.00327798
0.00323134
0.00318359
0.00313466
0.00308447
0.00303293
0.00297991
0.00292529
0.0028689
0.00281054
0.00274996
0.00268686
0.00262088
0.00255165
0.00247875
0.00240154
0.00231919
0.00223065
0.00213442
0.00202839
0.00190951
0.00177325
0.00161418
0.0014238
0.00118843
0.000887049
0.000491904
5.52841e-05
8.03796e-05
0.000773427
0.00145735
0.00200202
0.0024482
0.00282577
0.00315354
0.00344356
0.00370397
0.00394045
0.00415711
0.00435703
0.00454258
0.00471564
0.0048777
0.00502998
0.00517349
0.00530908
0.00543747
0.00555926
0.00567498
0.00578509
0.00588997
0.00598998
0.00608541
0.00617654
0.0062636
0.0063468
0.00642635
0.00650241
0.00657514
0.00664468
0.00671118
0.00677474
0.00683549
0.00689352
0.00694895
0.00700186
0.00705234
0.00710048
0.00714636
0.00719005
0.00723163
0.00727116
0.00730871
0.00734433
0.00737807
0.00740998
0.00744008
0.00746839
0.00749505
0.00752013
0.0075437
0.00756582
0.00758655
0.00760594
0.00762404
0.0076409
0.00765656
0.00767105
0.00768442
0.00769671
0.00770795
0.00771817
0.00772741
0.00773571
0.00774307
0.00774955
0.00775516
0.00775993
0.00776389
0.00776705
0.00776944
0.00777109
0.00777201
0.00777222
0.00777175
0.0077706
0.0077688
0.00776636
0.0077633
0.00775962
0.00775535
0.0077505
0.00774508
0.00773909
0.00773256
0.00772548
0.00771787
0.00770974
0.00770109
0.00769193
0.00768227
0.00767211
0.00766146
0.00765032
0.0076387
0.00762659
0.00761401
0.00760095
0.00758742
0.00757341
0.00755892
0.00754397
0.00752854
0.00751263
0.00749625
0.00747939
0.00746205
0.00744422
0.00742591
0.00740711
0.00738781
0.00736801
0.0073477
0.00732689
0.00730556
0.00728371
0.00726133
0.00723841
0.00721495
0.00719094
0.00716638
0.00714125
0.00711554
0.00708926
0.00706238
0.00703491
0.00700682
0.00697812
0.00694879
0.00691882
0.0068882
0.00685693
0.00682499
0.00679237
0.00675906
0.00672505
0.00669033
0.00665489
0.00661871
0.00658179
0.00654411
0.00650565
0.00646642
0.00642639
0.00638555
0.00634389
0.00630139
0.00625804
0.00621383
0.00616873
0.00612274
0.00607583
0.00602798
0.00597918
0.00592941
0.00587864
0.00582684
0.00577401
0.0057201
0.00566509
0.00560894
0.00555162
0.0054931
0.00543332
0.00537225
0.00530982
0.00524599
0.00518069
0.00511385
0.00504538
0.0049752
0.0049032
0.00482926
0.00475326
0.00467503
0.0045944
0.00451115
0.00442505
0.0043358
0.00424304
0.00414635
0.00404523
0.00393908
0.0038272
0.0037087
0.00358249
0.00344711
0.0033007
0.00314077
0.00296397
0.00276587
0.00254034
0.00227912
0.00197138
0.00160126
0.00114773
0.000592538
6.11944e-05
8.03805e-05
0.000773456
0.00145741
0.0020021
0.0024483
0.00282588
0.00315365
0.00344368
0.00370409
0.00394057
0.00415722
0.00435714
0.0045427
0.00471575
0.0048778
0.00503008
0.00517359
0.00530918
0.00543756
0.00555935
0.00567507
0.00578517
0.00589005
0.00599005
0.00608548
0.0061766
0.00626366
0.00634686
0.00642641
0.00650246
0.00657519
0.00664473
0.00671122
0.00677478
0.00683553
0.00689356
0.00694898
0.00700189
0.00705237
0.00710051
0.00714639
0.00719008
0.00723166
0.00727118
0.00730873
0.00734435
0.00737809
0.00740999
0.00744009
0.0074684
0.00749506
0.00752014
0.00754371
0.00756583
0.00758656
0.00760595
0.00762405
0.00764091
0.00765656
0.00767105
0.00768443
0.00769671
0.00770795
0.00771817
0.00772742
0.00773571
0.00774308
0.00774955
0.00775516
0.00775993
0.00776388
0.00776705
0.00776944
0.00777109
0.00777201
0.00777222
0.00777175
0.0077706
0.0077688
0.00776636
0.00776329
0.00775962
0.00775535
0.0077505
0.00774507
0.00773909
0.00773255
0.00772547
0.00771786
0.00770973
0.00770108
0.00769193
0.00768226
0.00767211
0.00766145
0.00765031
0.00763869
0.00762659
0.007614
0.00760094
0.00758741
0.0075734
0.00755892
0.00754396
0.00752853
0.00751262
0.00749624
0.00747938
0.00746204
0.00744422
0.0074259
0.0074071
0.0073878
0.007368
0.0073477
0.00732688
0.00730555
0.0072837
0.00726132
0.0072384
0.00721494
0.00719093
0.00716637
0.00714124
0.00711553
0.00708925
0.00706237
0.0070349
0.00700681
0.00697811
0.00694878
0.00691881
0.00688819
0.00685692
0.00682498
0.00679236
0.00675905
0.00672504
0.00669032
0.00665488
0.0066187
0.00658177
0.00654409
0.00650564
0.00646641
0.00642638
0.00638554
0.00634388
0.00630138
0.00625803
0.00621382
0.00616872
0.00612272
0.00607581
0.00602797
0.00597917
0.00592939
0.00587862
0.00582683
0.005774
0.00572009
0.00566508
0.00560893
0.00555161
0.00549309
0.00543331
0.00537224
0.00530981
0.00524598
0.00518068
0.00511384
0.00504537
0.00497518
0.00490318
0.00482925
0.00475325
0.00467502
0.00459439
0.00451114
0.00442504
0.00433579
0.00424303
0.00414634
0.00404522
0.00393907
0.00382719
0.0037087
0.00358248
0.0034471
0.00330069
0.00314076
0.00296397
0.00276586
0.00254034
0.00227911
0.00197137
0.00160126
0.00114774
0.000592612
6.11976e-05
8.80598e-05
0.000862938
0.00167874
0.00235675
0.0029255
0.00341376
0.00384165
0.0042229
0.00456708
0.00488103
0.00516976
0.00543706
0.00568587
0.0059185
0.00613681
0.00634232
0.0065363
0.0067198
0.00689372
0.00705885
0.00721585
0.0073653
0.00750771
0.00764353
0.00777317
0.00789697
0.00801525
0.0081283
0.00823639
0.00833975
0.0084386
0.00853312
0.00862352
0.00870996
0.00879259
0.00887157
0.00894703
0.00901912
0.00908794
0.00915362
0.00921627
0.009276
0.0093329
0.00938707
0.00943861
0.00948758
0.00953408
0.00957816
0.00961989
0.00965932
0.00969658
0.00973177
0.00976496
0.00979622
0.00982565
0.0098533
0.00987924
0.00990353
0.00992623
0.0099474
0.00996709
0.00998534
0.0100022
0.0100177
0.010032
0.0100449
0.0100567
0.0100673
0.0100767
0.0100851
0.0100924
0.0100986
0.0101038
0.010108
0.0101113
0.0101136
0.010115
0.0101156
0.0101153
0.0101141
0.0101121
0.0101093
0.0101058
0.0101014
0.0100963
0.0100905
0.0100839
0.0100766
0.0100687
0.01006
0.0100506
0.0100406
0.0100299
0.0100185
0.0100065
0.00999382
0.00998052
0.00996657
0.00995199
0.00993678
0.00992093
0.00990445
0.00988735
0.00986961
0.00985124
0.00983224
0.00981261
0.00979234
0.00977142
0.00974986
0.00972765
0.00970479
0.00968126
0.00965707
0.0096322
0.00960666
0.00958042
0.00955348
0.00952584
0.00949748
0.00946839
0.00943858
0.00940801
0.00937669
0.0093446
0.00931172
0.00927806
0.00924359
0.00920831
0.00917219
0.00913523
0.00909742
0.00905873
0.00901916
0.00897869
0.0089373
0.00889498
0.00885172
0.0088075
0.0087623
0.0087161
0.00866889
0.00862065
0.00857137
0.00852102
0.00846958
0.00841704
0.00836337
0.00830856
0.00825258
0.00819541
0.00813702
0.0080774
0.0080165
0.0079543
0.00789078
0.00782591
0.00775963
0.00769193
0.00762276
0.00755207
0.00747983
0.00740598
0.00733046
0.00725322
0.00717419
0.0070933
0.00701047
0.00692561
0.00683861
0.00674938
0.00665779
0.00656369
0.00646694
0.00636735
0.00626472
0.00615882
0.00604937
0.00593607
0.00581854
0.00569636
0.00556901
0.00543589
0.00529626
0.00514927
0.00499386
0.00482876
0.00465237
0.00446266
0.00425709
0.00403235
0.00378419
0.00350711
0.00319386
0.00283502
0.00241884
0.00192992
0.00135057
0.000674129
6.71098e-05
8.80607e-05
0.000862969
0.00167881
0.00235685
0.00292562
0.00341389
0.00384179
0.00422305
0.00456723
0.00488118
0.0051699
0.00543721
0.00568602
0.00591864
0.00613695
0.00634245
0.00653642
0.00671992
0.00689384
0.00705897
0.00721596
0.00736541
0.00750781
0.00764363
0.00777326
0.00789705
0.00801533
0.00812838
0.00823647
0.00833982
0.00843866
0.00853319
0.00862358
0.00871001
0.00879264
0.00887162
0.00894708
0.00901916
0.00908798
0.00915366
0.00921631
0.00927603
0.00933293
0.0093871
0.00943864
0.00948761
0.0095341
0.00957818
0.00961991
0.00965934
0.0096966
0.00973179
0.00976497
0.00979624
0.00982566
0.00985331
0.00987925
0.00990354
0.00992624
0.00994741
0.00996709
0.00998534
0.0100022
0.0100177
0.010032
0.010045
0.0100567
0.0100673
0.0100767
0.0100851
0.0100924
0.0100986
0.0101038
0.010108
0.0101113
0.0101136
0.010115
0.0101156
0.0101153
0.0101141
0.0101121
0.0101093
0.0101058
0.0101014
0.0100963
0.0100905
0.0100839
0.0100766
0.0100686
0.01006
0.0100506
0.0100406
0.0100299
0.0100185
0.0100065
0.00999381
0.00998051
0.00996656
0.00995198
0.00993676
0.00992092
0.00990444
0.00988734
0.0098696
0.00985123
0.00983223
0.0098126
0.00979233
0.00977141
0.00974985
0.00972764
0.00970478
0.00968125
0.00965706
0.00963219
0.00960664
0.0095804
0.00955347
0.00952582
0.00949747
0.00946838
0.00943856
0.009408
0.00937667
0.00934458
0.00931171
0.00927805
0.00924358
0.00920829
0.00917218
0.00913522
0.0090974
0.00905872
0.00901915
0.00897867
0.00893729
0.00889497
0.00885171
0.00880748
0.00876228
0.00871608
0.00866887
0.00862064
0.00857135
0.008521
0.00846956
0.00841702
0.00836336
0.00830855
0.00825257
0.0081954
0.00813701
0.00807738
0.00801648
0.00795429
0.00789077
0.00782589
0.00775962
0.00769191
0.00762274
0.00755206
0.00747981
0.00740596
0.00733045
0.00725321
0.00717418
0.00709329
0.00701045
0.00692559
0.0068386
0.00674937
0.00665777
0.00656368
0.00646692
0.00636733
0.0062647
0.0061588
0.00604936
0.00593605
0.00581853
0.00569635
0.005569
0.00543587
0.00529625
0.00514925
0.00499385
0.00482875
0.00465235
0.00446265
0.00425708
0.00403234
0.00378419
0.0035071
0.00319386
0.00283502
0.00241884
0.00192992
0.00135057
0.000674141
6.71104e-05
9.45885e-05
0.000934692
0.00185094
0.00263372
0.0033019
0.00388221
0.00439502
0.00485489
0.00527227
0.00565476
0.00600802
0.00633632
0.00664298
0.00693063
0.00720137
0.00745693
0.00769873
0.00792798
0.00814571
0.00835277
0.00854995
0.0087379
0.0089172
0.00908839
0.00925192
0.00940821
0.00955764
0.00970055
0.00983725
0.00996804
0.0100932
0.0102129
0.0103274
0.010437
0.0105417
0.0106419
0.0107377
0.0108292
0.0109167
0.0110002
0.0110799
0.0111559
0.0112284
0.0112975
0.0113633
0.0114259
0.0114855
0.011542
0.0115957
0.0116465
0.0116946
0.0117402
0.0117833
0.011824
0.0118624
0.0118986
0.0119327
0.0119648
0.0119948
0.012023
0.0120493
0.0120739
0.0120967
0.0121179
0.0121375
0.0121555
0.012172
0.0121871
0.0122008
0.0122131
0.012224
0.0122337
0.0122422
0.0122494
0.0122555
0.0122604
0.0122641
0.0122668
0.0122685
0.0122691
0.0122687
0.0122673
0.0122649
0.0122616
0.0122573
0.0122522
0.0122461
0.0122392
0.0122314
0.0122227
0.0122133
0.0122029
0.0121918
0.0121799
0.0121671
0.0121535
0.0121392
0.0121241
0.0121082
0.0120915
0.012074
0.0120558
0.0120367
0.0120169
0.0119964
0.011975
0.0119529
0.0119299
0.0119062
0.0118817
0.0118564
0.0118302
0.0118033
0.0117755
0.0117469
0.0117175
0.0116872
0.011656
0.0116239
0.011591
0.0115572
0.0115224
0.0114868
0.0114501
0.0114126
0.0113741
0.0113345
0.011294
0.0112525
0.0112099
0.0111663
0.0111216
0.0110758
0.0110289
0.0109809
0.0109318
0.0108815
0.01083
0.0107772
0.0107233
0.0106681
0.0106117
0.0105539
0.0104948
0.0104344
0.0103726
0.0103094
0.0102448
0.0101788
0.0101112
0.0100421
0.0099715
0.0098993
0.00982546
0.00974997
0.00967277
0.00959383
0.00951309
0.0094305
0.00934601
0.00925956
0.00917109
0.00908052
0.00898778
0.00889279
0.00879546
0.00869569
0.00859336
0.00848837
0.00838056
0.0082698
0.00815592
0.00803873
0.00791801
0.00779352
0.007665
0.00753212
0.00739453
0.0072518
0.00710345
0.00694891
0.00678751
0.00661845
0.00644079
0.00625341
0.00605494
0.00584373
0.00561776
0.00537452
0.00511089
0.00482295
0.00450579
0.00415322
0.00375743
0.00330869
0.00279499
0.00220241
0.001517
0.000741943
7.21803e-05
9.45896e-05
0.000934724
0.00185102
0.00263383
0.00330203
0.00388236
0.00439518
0.00485505
0.00527244
0.00565494
0.00600819
0.00633649
0.00664315
0.00693079
0.00720153
0.00745709
0.00769889
0.00792813
0.00814585
0.00835291
0.00855008
0.00873802
0.00891733
0.00908851
0.00925203
0.00940832
0.00955774
0.00970065
0.00983735
0.00996813
0.0100932
0.010213
0.0103275
0.010437
0.0105418
0.010642
0.0107378
0.0108293
0.0109167
0.0110002
0.0110799
0.011156
0.0112285
0.0112976
0.0113634
0.011426
0.0114855
0.011542
0.0115957
0.0116465
0.0116947
0.0117402
0.0117833
0.011824
0.0118625
0.0118987
0.0119328
0.0119648
0.0119949
0.012023
0.0120493
0.0120739
0.0120967
0.0121179
0.0121375
0.0121555
0.012172
0.0121871
0.0122008
0.0122131
0.012224
0.0122337
0.0122422
0.0122494
0.0122555
0.0122604
0.0122641
0.0122668
0.0122685
0.0122691
0.0122687
0.0122672
0.0122649
0.0122616
0.0122573
0.0122522
0.0122461
0.0122392
0.0122314
0.0122227
0.0122132
0.0122029
0.0121918
0.0121798
0.0121671
0.0121535
0.0121392
0.0121241
0.0121082
0.0120915
0.012074
0.0120557
0.0120367
0.0120169
0.0119963
0.011975
0.0119528
0.0119299
0.0119062
0.0118817
0.0118564
0.0118302
0.0118033
0.0117755
0.0117469
0.0117174
0.0116871
0.011656
0.0116239
0.011591
0.0115572
0.0115224
0.0114867
0.0114501
0.0114126
0.011374
0.0113345
0.011294
0.0112525
0.0112099
0.0111663
0.0111216
0.0110758
0.0110289
0.0109809
0.0109318
0.0108814
0.0108299
0.0107772
0.0107233
0.0106681
0.0106116
0.0105539
0.0104948
0.0104344
0.0103726
0.0103094
0.0102448
0.0101787
0.0101112
0.0100421
0.00997149
0.00989928
0.00982545
0.00974995
0.00967276
0.00959381
0.00951307
0.00943048
0.00934599
0.00925955
0.00917107
0.0090805
0.00898776
0.00889278
0.00879544
0.00869567
0.00859335
0.00848835
0.00838055
0.00826979
0.0081559
0.00803871
0.00791799
0.0077935
0.00766498
0.0075321
0.00739451
0.00725178
0.00710343
0.0069489
0.00678749
0.00661844
0.00644078
0.00625339
0.00605492
0.00584372
0.00561775
0.00537451
0.00511088
0.00482295
0.00450579
0.00415321
0.00375743
0.00330869
0.002795
0.00220241
0.001517
0.000741941
7.21804e-05
0.000100598
0.000995744
0.00199284
0.00285966
0.00360879
0.00426531
0.00484948
0.00537633
0.00585685
0.00629915
0.0067093
0.00709195
0.00745066
0.00778829
0.00810709
0.00840892
0.00869531
0.00896753
0.00922669
0.00947371
0.0097094
0.00993447
0.0101495
0.0103552
0.0105519
0.0107401
0.0109203
0.0110927
0.0112578
0.0114159
0.0115673
0.0117122
0.0118509
0.0119836
0.0121107
0.0122322
0.0123485
0.0124596
0.0125659
0.0126674
0.0127644
0.0128569
0.0129453
0.0130295
0.0131098
0.0131862
0.013259
0.0133282
0.013394
0.0134564
0.0135157
0.0135718
0.013625
0.0136754
0.013723
0.013768
0.0138104
0.0138504
0.0138881
0.0139234
0.0139566
0.0139877
0.0140167
0.0140437
0.0140689
0.0140922
0.0141137
0.0141335
0.0141516
0.0141681
0.014183
0.0141964
0.0142084
0.0142189
0.014228
0.0142357
0.0142421
0.0142473
0.0142512
0.0142538
0.0142553
0.0142556
0.0142548
0.0142528
0.0142498
0.0142456
0.0142405
0.0142343
0.014227
0.0142188
0.0142096
0.0141994
0.0141882
0.0141761
0.0141631
0.0141491
0.0141342
0.0141183
0.0141015
0.0140838
0.0140652
0.0140457
0.0140253
0.0140039
0.0139817
0.0139585
0.0139344
0.0139093
0.0138834
0.0138565
0.0138286
0.0137998
0.01377
0.0137393
0.0137075
0.0136748
0.013641
0.0136063
0.0135705
0.0135336
0.0134957
0.0134567
0.0134166
0.0133754
0.0133331
0.0132896
0.013245
0.0131991
0.0131521
0.0131038
0.0130542
0.0130034
0.0129513
0.0128979
0.0128431
0.012787
0.0127295
0.0126706
0.0126102
0.0125483
0.012485
0.0124201
0.0123536
0.0122856
0.012216
0.0121447
0.0120717
0.011997
0.0119205
0.0118422
0.0117621
0.0116801
0.0115962
0.0115103
0.0114224
0.0113324
0.0112402
0.0111459
0.0110493
0.0109503
0.010849
0.0107452
0.0106387
0.0105296
0.0104178
0.010303
0.0101852
0.0100642
0.00993997
0.00981222
0.00968079
0.00954547
0.00940603
0.00926221
0.00911369
0.00896013
0.00880115
0.00863628
0.00846502
0.00828676
0.00810079
0.00790629
0.00770229
0.00748765
0.00726099
0.00702068
0.00676476
0.00649083
0.00619599
0.00587666
0.00552846
0.00514603
0.00472275
0.00425056
0.0037197
0.00311871
0.00243516
0.00165872
0.000800218
7.66427e-05
0.000100599
0.000995777
0.00199292
0.00285977
0.00360893
0.00426547
0.00484965
0.00537651
0.00585703
0.00629934
0.00670949
0.00709214
0.00745085
0.00778847
0.00810727
0.0084091
0.00869548
0.0089677
0.00922685
0.00947387
0.00970955
0.00993461
0.0101497
0.0103553
0.010552
0.0107402
0.0109204
0.0110928
0.0112579
0.011416
0.0115674
0.0117123
0.011851
0.0119837
0.0121108
0.0122323
0.0123486
0.0124597
0.012566
0.0126675
0.0127644
0.012857
0.0129453
0.0130295
0.0131098
0.0131863
0.0132591
0.0133283
0.013394
0.0134565
0.0135157
0.0135719
0.013625
0.0136754
0.013723
0.013768
0.0138104
0.0138504
0.0138881
0.0139234
0.0139566
0.0139877
0.0140167
0.0140437
0.0140689
0.0140922
0.0141137
0.0141335
0.0141516
0.0141681
0.014183
0.0141964
0.0142084
0.0142189
0.014228
0.0142357
0.0142421
0.0142473
0.0142512
0.0142538
0.0142553
0.0142556
0.0142548
0.0142528
0.0142498
0.0142456
0.0142405
0.0142343
0.014227
0.0142188
0.0142096
0.0141994
0.0141882
0.0141761
0.0141631
0.0141491
0.0141341