/*--------------------------------*- C++ -*----------------------------------*\
  =========                 |
  \\      /  F ield         | OpenFOAM: The Open Source CFD Toolbox
   \\    /   O peration     | Website:  https://openfoam.org
    \\  /    A nd           | Version:  8
     \\/     M anipulation  |
\*---------------------------------------------------------------------------*/
FoamFile
{
    version     2.0;
    format      ascii;
    class       volScalarField;
    location    "2100";
    object      nut;
}
// * * * * * * * * * * * * * * * * * * * * * * * * * * * * * * * * * * * * * //

dimensions      [0 2 -1 0 0 0 0];

internalField   nonuniform List<scalar> 
48000
(
7.41353e-05
6.6432e-05
8.22159e-05
9.41586e-05
0.000103956
0.000112153
0.000119271
0.000125755
0.000131641
0.000137071
0.000142132
0.000146884
0.000151369
0.000155624
0.000159674
0.00016354
0.000167238
0.000170783
0.000174184
0.00017745
0.000180589
0.000183606
0.000186507
0.000189296
0.000191977
0.000194553
0.000197027
0.000199402
0.000201681
0.000203865
0.000205957
0.00020796
0.000209875
0.000211704
0.00021345
0.000215114
0.000216698
0.000218205
0.000219635
0.000220992
0.000222277
0.000223492
0.000224639
0.00022572
0.000226736
0.00022769
0.000228582
0.000229416
0.000230194
0.000230924
0.000231602
0.000232227
0.000232802
0.000233329
0.000233808
0.000234242
0.000234632
0.00023498
0.000235287
0.000235555
0.000235785
0.000235978
0.000236136
0.000236261
0.000236353
0.000236413
0.000236443
0.000236444
0.000236417
0.000236362
0.000236281
0.000236175
0.000236045
0.000235891
0.000235715
0.000235516
0.000235297
0.000235057
0.000234797
0.000234517
0.00023422
0.000233904
0.000233571
0.00023322
0.000232854
0.000232471
0.000232072
0.000231658
0.00023123
0.000230786
0.000230329
0.000229857
0.000229372
0.000228873
0.000228361
0.000227836
0.000227297
0.000226746
0.000226183
0.000225606
0.000225018
0.000224417
0.000223803
0.000223177
0.000222539
0.000221889
0.000221226
0.000220551
0.000219864
0.000219164
0.000218451
0.000217726
0.000216989
0.000216238
0.000215474
0.000214697
0.000213907
0.000213104
0.000212287
0.000211456
0.000210611
0.000209752
0.000208879
0.000207991
0.000207088
0.00020617
0.000205236
0.000204287
0.000203322
0.000202341
0.000201344
0.00020033
0.000199299
0.000198251
0.000197185
0.000196102
0.000195
0.000193881
0.000192742
0.000191585
0.000190409
0.000189213
0.000187997
0.000186761
0.000185505
0.000184228
0.000182931
0.000181612
0.000180272
0.000178909
0.000177525
0.000176119
0.00017469
0.000173238
0.000171763
0.000170264
0.000168741
0.000167195
0.000165624
0.000164028
0.000162407
0.00016076
0.000159088
0.000157389
0.000155664
0.000153911
0.00015213
0.000150321
0.000148483
0.000146614
0.000144715
0.000142784
0.00014082
0.000138821
0.000136787
0.000134715
0.000132604
0.000130451
0.000128253
0.000126008
0.000123712
0.000121361
0.000118951
0.000116481
0.00011396
0.000111365
0.000108671
0.000105866
0.000102928
9.98331e-05
9.65481e-05
9.30277e-05
8.92122e-05
8.50722e-05
8.04495e-05
7.51351e-05
6.88091e-05
6.10343e-05
5.11365e-05
0.000118457
7.41335e-05
6.6433e-05
8.22168e-05
9.41594e-05
0.000103957
0.000112154
0.000119272
0.000125755
0.000131642
0.000137072
0.000142133
0.000146884
0.00015137
0.000155624
0.000159674
0.00016354
0.000167239
0.000170783
0.000174184
0.00017745
0.000180589
0.000183606
0.000186507
0.000189296
0.000191977
0.000194553
0.000197027
0.000199402
0.000201681
0.000203865
0.000205957
0.00020796
0.000209875
0.000211704
0.00021345
0.000215114
0.000216698
0.000218205
0.000219635
0.000220992
0.000222277
0.000223492
0.000224639
0.00022572
0.000226736
0.000227689
0.000228582
0.000229415
0.000230194
0.000230924
0.000231602
0.000232227
0.000232802
0.000233329
0.000233808
0.000234242
0.000234632
0.00023498
0.000235287
0.000235555
0.000235785
0.000235978
0.000236136
0.000236261
0.000236353
0.000236413
0.000236443
0.000236444
0.000236416
0.000236362
0.000236281
0.000236175
0.000236045
0.000235891
0.000235715
0.000235516
0.000235297
0.000235056
0.000234796
0.000234517
0.00023422
0.000233904
0.000233571
0.00023322
0.000232854
0.000232471
0.000232072
0.000231658
0.00023123
0.000230786
0.000230329
0.000229857
0.000229372
0.000228873
0.000228361
0.000227835
0.000227297
0.000226746
0.000226183
0.000225606
0.000225018
0.000224416
0.000223803
0.000223177
0.000222539
0.000221889
0.000221226
0.000220551
0.000219864
0.000219164
0.000218451
0.000217726
0.000216988
0.000216238
0.000215474
0.000214697
0.000213907
0.000213104
0.000212287
0.000211456
0.000210611
0.000209752
0.000208879
0.00020799
0.000207087
0.000206169
0.000205236
0.000204287
0.000203322
0.000202341
0.000201344
0.00020033
0.000199299
0.000198251
0.000197185
0.000196102
0.000195
0.000193881
0.000192742
0.000191585
0.000190409
0.000189213
0.000187997
0.000186761
0.000185505
0.000184228
0.000182931
0.000181612
0.000180271
0.000178909
0.000177525
0.000176119
0.00017469
0.000173238
0.000171762
0.000170264
0.000168741
0.000167195
0.000165624
0.000164028
0.000162407
0.00016076
0.000159088
0.000157389
0.000155664
0.000153911
0.00015213
0.000150321
0.000148483
0.000146614
0.000144715
0.000142784
0.00014082
0.000138821
0.000136787
0.000134715
0.000132604
0.000130451
0.000128253
0.000126008
0.000123712
0.000121361
0.000118951
0.000116481
0.00011396
0.000111365
0.000108671
0.000105866
0.000102928
9.98331e-05
9.65481e-05
9.30277e-05
8.92122e-05
8.50723e-05
8.04497e-05
7.51357e-05
6.88081e-05
6.10266e-05
5.11625e-05
0.000118664
5.75193e-05
0.000423721
0.000674085
0.000847547
0.000977936
0.00108483
0.00117635
0.00125642
0.00132817
0.00139335
0.00145321
0.00150863
0.00156031
0.00160877
0.00165441
0.00169757
0.00173849
0.0017774
0.00181446
0.00184983
0.00188363
0.00191595
0.00194689
0.00197652
0.00200491
0.00203211
0.00205818
0.00208315
0.00210708
0.00212999
0.00215192
0.00217291
0.00219298
0.00221215
0.00223047
0.00224794
0.0022646
0.00228047
0.00229557
0.00230992
0.00232355
0.00233648
0.00234872
0.0023603
0.00237124
0.00238154
0.00239123
0.00240031
0.0024087
0.00241644
0.00242361
0.00243027
0.00243644
0.00244214
0.0024474
0.00245222
0.00245662
0.00246062
0.00246423
0.00246746
0.00247033
0.00247284
0.00247501
0.00247686
0.00247838
0.0024796
0.00248052
0.00248116
0.00248151
0.0024816
0.00248142
0.00248099
0.00248032
0.0024794
0.00247826
0.00247689
0.00247531
0.00247352
0.00247152
0.00246932
0.00246693
0.00246435
0.00246158
0.00245863
0.00245551
0.00245222
0.00244876
0.00244513
0.00244134
0.0024374
0.00243329
0.00242904
0.00242463
0.00242007
0.00241537
0.00241052
0.00240553
0.0024004
0.00239512
0.0023897
0.00238414
0.00237844
0.00237261
0.00236663
0.00236051
0.00235426
0.00234786
0.00234133
0.00233465
0.00232784
0.00232088
0.00231377
0.00230653
0.00229913
0.00229159
0.0022839
0.00227606
0.00226807
0.00225992
0.00225162
0.00224315
0.00223453
0.00222575
0.0022168
0.00220768
0.00219839
0.00218893
0.0021793
0.00216949
0.00215949
0.00214932
0.00213896
0.00212841
0.00211767
0.00210673
0.0020956
0.00208427
0.00207273
0.00206099
0.00204904
0.00203688
0.0020245
0.00201191
0.00199909
0.00198606
0.00197279
0.0019593
0.00194557
0.00193161
0.00191741
0.00190297
0.00188829
0.00187336
0.00185818
0.00184274
0.00182705
0.00181109
0.00179487
0.00177839
0.00176163
0.00174459
0.00172727
0.00170967
0.00169177
0.00167357
0.00165507
0.00163625
0.00161712
0.00159765
0.00157784
0.00155768
0.00153715
0.00151623
0.00149492
0.00147318
0.001451
0.00142835
0.00140519
0.00138148
0.00135719
0.00133226
0.0013066
0.00128013
0.0012527
0.00122412
0.00119431
0.0011632
0.0011306
0.00109626
0.00105983
0.00102079
0.000978375
0.000931305
0.000877032
0.000814203
0.000739171
0.000645922
0.000525654
0.000371797
0.000339624
5.75197e-05
0.000423742
0.000674117
0.000847583
0.000977973
0.00108486
0.00117639
0.00125645
0.0013282
0.00139339
0.00145324
0.00150867
0.00156034
0.0016088
0.00165444
0.0016976
0.00173852
0.00177742
0.00181449
0.00184986
0.00188365
0.00191598
0.00194691
0.00197655
0.00200493
0.00203213
0.0020582
0.00208317
0.0021071
0.00213001
0.00215194
0.00217293
0.00219299
0.00221217
0.00223048
0.00224796
0.00226462
0.00228048
0.00229558
0.00230994
0.00232357
0.0023365
0.00234874
0.00236032
0.00237125
0.00238156
0.00239125
0.00240032
0.00240872
0.00241645
0.00242363
0.00243028
0.00243645
0.00244216
0.00244741
0.00245223
0.00245663
0.00246063
0.00246424
0.00246747
0.00247034
0.00247285
0.00247502
0.00247687
0.0024784
0.00247961
0.00248053
0.00248117
0.00248152
0.00248161
0.00248143
0.002481
0.00248033
0.00247941
0.00247827
0.0024769
0.00247532
0.00247353
0.00247153
0.00246933
0.00246694
0.00246436
0.00246159
0.00245864
0.00245552
0.00245223
0.00244877
0.00244514
0.00244135
0.0024374
0.0024333
0.00242905
0.00242464
0.00242008
0.00241538
0.00241053
0.00240554
0.0024004
0.00239513
0.00238971
0.00238415
0.00237845
0.00237262
0.00236664
0.00236052
0.00235427
0.00234787
0.00234134
0.00233466
0.00232785
0.00232089
0.00231378
0.00230654
0.00229914
0.0022916
0.00228391
0.00227607
0.00226808
0.00225993
0.00225162
0.00224316
0.00223454
0.00222576
0.00221681
0.00220769
0.0021984
0.00218894
0.00217931
0.00216949
0.0021595
0.00214933
0.00213897
0.00212842
0.00211767
0.00210674
0.00209561
0.00208427
0.00207274
0.002061
0.00204905
0.00203689
0.00202451
0.00201191
0.0019991
0.00198606
0.0019728
0.00195931
0.00194558
0.00193162
0.00191742
0.00190298
0.0018883
0.00187337
0.00185818
0.00184275
0.00182705
0.0018111
0.00179488
0.00177839
0.00176163
0.0017446
0.00172728
0.00170967
0.00169178
0.00167358
0.00165508
0.00163626
0.00161712
0.00159766
0.00157785
0.00155768
0.00153715
0.00151624
0.00149492
0.00147319
0.00145101
0.00142835
0.00140519
0.00138149
0.0013572
0.00133226
0.00130661
0.00128013
0.00125271
0.00122413
0.00119432
0.0011632
0.00113061
0.00109627
0.00105983
0.00102079
0.000978381
0.00093131
0.000877035
0.000814198
0.000739133
0.000645767
0.000525226
0.000371909
0.000339576
7.04065e-05
0.000641822
0.00114165
0.0015151
0.00181111
0.00205739
0.00226917
0.00245533
0.00262178
0.00277251
0.00291032
0.00303732
0.00315511
0.00326492
0.00336776
0.00346443
0.00355559
0.00364179
0.00372349
0.00380107
0.00387487
0.00394516
0.00401219
0.00407617
0.00413729
0.00419571
0.00425156
0.00430498
0.00435607
0.00440495
0.0044517
0.00449641
0.00453916
0.00458002
0.00461905
0.00465633
0.00469191
0.00472584
0.00475818
0.00478899
0.0048183
0.00484618
0.00487266
0.00489778
0.00492159
0.00494411
0.00496539
0.00498542
0.00500421
0.00502173
0.00503813
0.00505348
0.00506783
0.00508122
0.00509368
0.00510525
0.00511597
0.00512585
0.00513494
0.00514326
0.00515083
0.00515768
0.00516383
0.0051693
0.00517412
0.00517831
0.00518188
0.00518486
0.00518726
0.00518911
0.00519041
0.00519119
0.00519146
0.00519123
0.00519052
0.00518934
0.0051877
0.00518563
0.00518311
0.00518018
0.00517684
0.0051731
0.00516896
0.00516444
0.00515954
0.00515428
0.00514866
0.00514268
0.00513635
0.00512969
0.00512268
0.00511534
0.00510768
0.00509969
0.00509138
0.00508275
0.00507381
0.00506456
0.00505499
0.00504512
0.00503494
0.00502445
0.00501366
0.00500256
0.00499115
0.00497944
0.00496741
0.00495508
0.00494244
0.00492949
0.00491622
0.00490264
0.00488873
0.00487451
0.00485996
0.00484508
0.00482986
0.00481431
0.00479843
0.00478219
0.00476561
0.00474867
0.00473138
0.00471372
0.00469569
0.00467729
0.00465851
0.00463934
0.00461978
0.00459982
0.00457947
0.0045587
0.00453751
0.00451591
0.00449388
0.00447141
0.0044485
0.00442514
0.00440133
0.00437706
0.00435232
0.0043271
0.00430141
0.00427522
0.00424854
0.00422135
0.00419366
0.00416544
0.0041367
0.00410742
0.0040776
0.00404723
0.0040163
0.0039848
0.00395272
0.00392005
0.00388678
0.0038529
0.00381839
0.00378325
0.00374746
0.00371101
0.00367387
0.00363603
0.00359747
0.00355817
0.00351811
0.00347725
0.00343557
0.00339303
0.0033496
0.00330524
0.00325989
0.0032135
0.00316602
0.00311736
0.00306745
0.00301619
0.00296347
0.00290915
0.00285307
0.00279503
0.00273478
0.00267203
0.00260641
0.00253757
0.00246507
0.00238828
0.0023064
0.00221834
0.00212264
0.00201719
0.00189897
0.00176346
0.00160528
0.00141596
0.00118192
0.0008822
0.000488933
5.49708e-05
7.04072e-05
0.000641851
0.0011417
0.00151517
0.00181119
0.00205747
0.00226925
0.00245541
0.00262186
0.00277259
0.0029104
0.0030374
0.00315518
0.00326499
0.00336783
0.0034645
0.00355565
0.00364185
0.00372355
0.00380113
0.00387492
0.00394521
0.00401224
0.00407622
0.00413734
0.00419575
0.0042516
0.00430501
0.00435611
0.00440499
0.00445174
0.00449645
0.00453919
0.00458005
0.00461908
0.00465636
0.00469193
0.00472586
0.00475821
0.00478901
0.00481832
0.0048462
0.00487267
0.0048978
0.0049216
0.00494413
0.0049654
0.00498544
0.00500422
0.00502174
0.00503815
0.0050535
0.00506784
0.00508123
0.00509369
0.00510526
0.00511597
0.00512586
0.00513495
0.00514327
0.00515084
0.00515769
0.00516383
0.00516931
0.00517413
0.00517831
0.00518189
0.00518487
0.00518727
0.00518911
0.00519042
0.00519119
0.00519146
0.00519123
0.00519052
0.00518934
0.00518771
0.00518563
0.00518312
0.00518019
0.00517684
0.0051731
0.00516896
0.00516444
0.00515955
0.00515428
0.00514866
0.00514268
0.00513636
0.00512969
0.00512268
0.00511534
0.00510768
0.00509969
0.00509138
0.00508275
0.00507381
0.00506456
0.00505499
0.00504512
0.00503494
0.00502445
0.00501366
0.00500256
0.00499115
0.00497944
0.00496741
0.00495508
0.00494244
0.00492949
0.00491622
0.00490264
0.00488873
0.00487451
0.00485996
0.00484508
0.00482986
0.00481431
0.00479842
0.00478219
0.00476561
0.00474867
0.00473138
0.00471372
0.00469569
0.00467729
0.0046585
0.00463934
0.00461978
0.00459982
0.00457946
0.0045587
0.00453751
0.00451591
0.00449387
0.00447141
0.0044485
0.00442514
0.00440133
0.00437706
0.00435232
0.0043271
0.00430141
0.00427522
0.00424854
0.00422135
0.00419365
0.00416544
0.00413669
0.00410742
0.0040776
0.00404723
0.00401629
0.00398479
0.00395271
0.00392004
0.00388678
0.0038529
0.00381839
0.00378325
0.00374746
0.00371101
0.00367387
0.00363603
0.00359747
0.00355817
0.00351811
0.00347725
0.00343557
0.00339303
0.0033496
0.00330524
0.00325989
0.0032135
0.00316602
0.00311736
0.00306745
0.00301619
0.00296346
0.00290914
0.00285306
0.00279503
0.00273478
0.00267203
0.00260641
0.00253757
0.00246507
0.00238828
0.0023064
0.00221834
0.00212264
0.00201719
0.00189897
0.00176346
0.00160527
0.00141594
0.00118187
0.000882153
0.00048919
5.4979e-05
7.99379e-05
0.000769176
0.00144934
0.00199101
0.00243474
0.00281024
0.0031362
0.00342464
0.00368361
0.00391879
0.00413425
0.00433308
0.00451761
0.00468972
0.00485088
0.00500232
0.00514504
0.00527989
0.00540757
0.00552869
0.00564377
0.00575327
0.00585757
0.00595703
0.00605193
0.00614256
0.00622913
0.00631188
0.00639099
0.00646663
0.00653895
0.00660811
0.00667424
0.00673745
0.00679786
0.00685557
0.00691069
0.00696331
0.00701351
0.00706139
0.00710701
0.00715046
0.0071918
0.00723111
0.00726845
0.00730387
0.00733743
0.00736916
0.00739909
0.00742724
0.00745375
0.00747869
0.00750213
0.00752413
0.00754474
0.00756402
0.00758202
0.00759878
0.00761435
0.00762876
0.00764206
0.00765428
0.00766545
0.00767562
0.00768481
0.00769305
0.00770038
0.00770682
0.00771239
0.00771714
0.00772107
0.00772421
0.00772659
0.00772823
0.00772914
0.00772935
0.00772888
0.00772774
0.00772595
0.00772352
0.00772047
0.00771682
0.00771257
0.00770774
0.00770235
0.00769639
0.00768989
0.00768286
0.00767529
0.0076672
0.0076586
0.00764949
0.00763988
0.00762978
0.00761919
0.00760811
0.00759655
0.00758451
0.007572
0.00755901
0.00754555
0.00753161
0.00751721
0.00750234
0.00748699
0.00747118
0.00745488
0.00743812
0.00742087
0.00740314
0.00738493
0.00736623
0.00734704
0.00732735
0.00730716
0.00728646
0.00726524
0.00724351
0.00722125
0.00719846
0.00717514
0.00715126
0.00712683
0.00710184
0.00707628
0.00705014
0.00702341
0.00699608
0.00696815
0.00693961
0.00691044
0.00688064
0.00685019
0.00681909
0.00678732
0.00675488
0.00672176
0.00668794
0.00665341
0.00661816
0.00658218
0.00654546
0.00650799
0.00646975
0.00643073
0.00639092
0.00635031
0.00630888
0.00626662
0.00622351
0.00617954
0.00613469
0.00608895
0.00604229
0.00599471
0.00594618
0.00589668
0.00584619
0.00579469
0.00574214
0.00568853
0.00563382
0.00557799
0.00552099
0.00546278
0.00540334
0.0053426
0.00528052
0.00521704
0.0051521
0.00508562
0.00501753
0.00494774
0.00487614
0.00480261
0.00472702
0.00464923
0.00456904
0.00448626
0.00440063
0.00431187
0.00421962
0.00412347
0.00402291
0.00391734
0.00380607
0.00368824
0.00356272
0.00342809
0.00328248
0.00312343
0.00294761
0.0027506
0.00252632
0.00226654
0.0019605
0.00159243
0.00114139
0.000589268
6.08566e-05
7.99387e-05
0.000769205
0.0014494
0.0019911
0.00243484
0.00281035
0.00313632
0.00342475
0.00368373
0.00391891
0.00413437
0.00433319
0.00451772
0.00468982
0.00485098
0.00500242
0.00514514
0.00527998
0.00540766
0.00552877
0.00564385
0.00575335
0.00585765
0.0059571
0.006052
0.00614262
0.0062292
0.00631194
0.00639104
0.00646668
0.006539
0.00660816
0.00667428
0.00673749
0.0067979
0.00685561
0.00691073
0.00696334
0.00701354
0.00706142
0.00710704
0.00715048
0.00719183
0.00723114
0.00726847
0.00730389
0.00733745
0.00736917
0.0073991
0.00742725
0.00745376
0.0074787
0.00750214
0.00752414
0.00754475
0.00756403
0.00758203
0.00759879
0.00761436
0.00762877
0.00764206
0.00765428
0.00766546
0.00767562
0.00768481
0.00769305
0.00770038
0.00770682
0.00771239
0.00771714
0.00772107
0.00772421
0.00772659
0.00772823
0.00772914
0.00772935
0.00772888
0.00772773
0.00772594
0.00772351
0.00772047
0.00771681
0.00771256
0.00770774
0.00770234
0.00769639
0.00768989
0.00768285
0.00767528
0.00766719
0.00765859
0.00764948
0.00763988
0.00762977
0.00761918
0.0076081
0.00759654
0.0075845
0.00757199
0.007559
0.00754554
0.00753161
0.0075172
0.00750233
0.00748698
0.00747117
0.00745488
0.00743811
0.00742086
0.00740313
0.00738492
0.00736622
0.00734703
0.00732734
0.00730715
0.00728645
0.00726523
0.0072435
0.00722124
0.00719845
0.00717513
0.00715125
0.00712682
0.00710183
0.00707627
0.00705012
0.0070234
0.00699607
0.00696814
0.0069396
0.00691043
0.00688063
0.00685018
0.00681908
0.00678731
0.00675487
0.00672175
0.00668793
0.0066534
0.00661815
0.00658217
0.00654545
0.00650798
0.00646974
0.00643072
0.00639091
0.0063503
0.00630887
0.0062666
0.0062235
0.00617952
0.00613468
0.00608893
0.00604228
0.0059947
0.00594617
0.00589667
0.00584618
0.00579467
0.00574213
0.00568852
0.00563381
0.00557797
0.00552097
0.00546277
0.00540333
0.00534259
0.00528051
0.00521703
0.00515209
0.00508561
0.00501752
0.00494773
0.00487612
0.0048026
0.00472701
0.00464922
0.00456903
0.00448625
0.00440062
0.00431186
0.00421961
0.00412346
0.0040229
0.00391734
0.00380607
0.00368823
0.00356271
0.00342808
0.00328248
0.00312343
0.00294761
0.0027506
0.00252632
0.00226654
0.00196049
0.00159242
0.0011414
0.000589342
6.08599e-05
8.75758e-05
0.000858195
0.00166952
0.0023438
0.00290942
0.003395
0.00382053
0.00419969
0.00454198
0.0048542
0.00514134
0.00540717
0.00565461
0.00588596
0.00610307
0.00630745
0.00650035
0.00668284
0.00685581
0.00702003
0.00717617
0.00732479
0.00746642
0.00760149
0.0077304
0.00785352
0.00797115
0.00808358
0.00819107
0.00829386
0.00839215
0.00848616
0.00857606
0.00866201
0.00874419
0.00882273
0.00889778
0.00896946
0.0090379
0.00910321
0.00916552
0.00922491
0.0092815
0.00933537
0.00938662
0.00943532
0.00948156
0.00952539
0.00956689
0.0096061
0.00964316
0.00967814
0.00971114
0.00974224
0.0097715
0.00979899
0.00982479
0.00984894
0.00987152
0.00989256
0.00991214
0.00993029
0.00994706
0.0099625
0.00997666
0.00998956
0.0100013
0.0100118
0.0100212
0.0100295
0.0100367
0.0100429
0.0100481
0.0100523
0.0100555
0.0100578
0.0100593
0.0100598
0.0100595
0.0100583
0.0100563
0.0100536
0.01005
0.0100457
0.0100406
0.0100348
0.0100283
0.010021
0.0100131
0.0100045
0.00999515
0.00998517
0.00997453
0.00996322
0.00995127
0.00993868
0.00992544
0.00991157
0.00989707
0.00988194
0.00986618
0.0098498
0.00983279
0.00981515
0.00979688
0.00977799
0.00975846
0.0097383
0.0097175
0.00969606
0.00967397
0.00965123
0.00962784
0.00960378
0.00957905
0.00955364
0.00952755
0.00950076
0.00947327
0.00944507
0.00941614
0.00938649
0.00935609
0.00932494
0.00929302
0.00926033
0.00922686
0.00919258
0.00915749
0.00912157
0.00908482
0.00904721
0.00900874
0.00896939
0.00892914
0.00888798
0.0088459
0.00880287
0.00875889
0.00871394
0.008668
0.00862105
0.00857308
0.00852406
0.00847399
0.00842284
0.00837059
0.00831722
0.00826271
0.00820704
0.00815018
0.00809212
0.00803282
0.00797226
0.00791041
0.00784724
0.00778272
0.00771681
0.00764948
0.00758069
0.0075104
0.00743855
0.00736511
0.00729001
0.00721319
0.0071346
0.00705416
0.00697178
0.00688738
0.00680087
0.00671213
0.00662104
0.00652747
0.00643125
0.00633221
0.00623014
0.00612483
0.00601599
0.00590331
0.00578643
0.00566492
0.00553828
0.00540589
0.00526703
0.00512085
0.0049663
0.00480211
0.00462669
0.00443803
0.00423359
0.00401009
0.00376331
0.00348775
0.00317624
0.00281938
0.00240549
0.00191927
0.00134311
0.000670408
6.67394e-05
8.75767e-05
0.000858226
0.00166958
0.0023439
0.00290954
0.00339513
0.00382067
0.00419984
0.00454213
0.00485434
0.00514149
0.00540732
0.00565476
0.0058861
0.00610321
0.00630758
0.00650048
0.00668297
0.00685593
0.00702015
0.00717627
0.0073249
0.00746652
0.00760158
0.0077305
0.00785361
0.00797123
0.00808366
0.00819115
0.00829393
0.00839222
0.00848622
0.00857612
0.00866207
0.00874424
0.00882278
0.00889782
0.0089695
0.00903794
0.00910325
0.00916555
0.00922495
0.00928153
0.0093354
0.00938665
0.00943535
0.00948158
0.00952541
0.00956691
0.00960612
0.00964317
0.00967816
0.00971116
0.00974225
0.00977151
0.009799
0.0098248
0.00984895
0.00987152
0.00989257
0.00991214
0.00993029
0.00994707
0.00996251
0.00997666
0.00998956
0.0100013
0.0100118
0.0100212
0.0100295
0.0100367
0.0100429
0.0100481
0.0100523
0.0100555
0.0100578
0.0100593
0.0100598
0.0100595
0.0100583
0.0100563
0.0100536
0.01005
0.0100457
0.0100406
0.0100348
0.0100283
0.010021
0.0100131
0.0100045
0.00999514
0.00998516
0.00997452
0.00996321
0.00995126
0.00993867
0.00992543
0.00991156
0.00989706
0.00988193
0.00986617
0.00984979
0.00983278
0.00981514
0.00979687
0.00977797
0.00975845
0.00973829
0.00971749
0.00969605
0.00967396
0.00965122
0.00962783
0.00960377
0.00957903
0.00955363
0.00952753
0.00950074
0.00947325
0.00944505
0.00941613
0.00938647
0.00935608
0.00932492
0.00929301
0.00926032
0.00922684
0.00919257
0.00915747
0.00912156
0.0090848
0.0090472
0.00900872
0.00896937
0.00892912
0.00888796
0.00884588
0.00880286
0.00875888
0.00871392
0.00866798
0.00862103
0.00857306
0.00852405
0.00847397
0.00842282
0.00837057
0.0083172
0.00826269
0.00820702
0.00815017
0.0080921
0.0080328
0.00797224
0.00791039
0.00784722
0.0077827
0.00771679
0.00764946
0.00758067
0.00751038
0.00743853
0.00736509
0.00728999
0.00721318
0.00713458
0.00705414
0.00697176
0.00688737
0.00680086
0.00671212
0.00662103
0.00652745
0.00643123
0.00633219
0.00623013
0.00612481
0.00601597
0.00590329
0.00578642
0.00566491
0.00553826
0.00540587
0.00526702
0.00512084
0.00496629
0.0048021
0.00462668
0.00443802
0.00423358
0.00401009
0.0037633
0.00348775
0.00317624
0.00281938
0.00240549
0.00191927
0.00134312
0.000670421
6.674e-05
9.40687e-05
0.000929555
0.00184077
0.00261924
0.00328375
0.00386088
0.00437086
0.0048282
0.00524329
0.00562368
0.00597499
0.00630149
0.00660646
0.00689252
0.00716177
0.00741593
0.0076564
0.00788439
0.00810091
0.00830684
0.00850292
0.00868984
0.00886815
0.00903839
0.00920102
0.00935645
0.00950505
0.00964717
0.00978312
0.00991318
0.0100376
0.0101567
0.0102706
0.0103795
0.0104837
0.0105833
0.0106786
0.0107696
0.0108566
0.0109396
0.0110189
0.0110945
0.0111666
0.0112353
0.0113007
0.011363
0.0114222
0.0114784
0.0115318
0.0115823
0.0116302
0.0116755
0.0117184
0.0117589
0.0117971
0.0118331
0.011867
0.0118988
0.0119287
0.0119567
0.0119829
0.0120073
0.01203
0.0120511
0.0120706
0.0120885
0.0121049
0.0121199
0.0121335
0.0121457
0.0121566
0.0121663
0.0121747
0.0121818
0.0121879
0.0121927
0.0121965
0.0121992
0.0122008
0.0122014
0.012201
0.0121996
0.0121972
0.0121939
0.0121897
0.0121846
0.0121786
0.0121717
0.0121639
0.0121553
0.0121459
0.0121356
0.0121245
0.0121126
0.0121
0.0120865
0.0120722
0.0120572
0.0120414
0.0120248
0.0120074
0.0119892
0.0119703
0.0119506
0.0119302
0.0119089
0.0118869
0.0118641
0.0118405
0.0118161
0.0117909
0.011765
0.0117382
0.0117105
0.0116821
0.0116528
0.0116227
0.0115917
0.0115598
0.011527
0.0114934
0.0114588
0.0114234
0.011387
0.0113496
0.0113113
0.011272
0.0112317
0.0111904
0.011148
0.0111047
0.0110602
0.0110147
0.0109681
0.0109203
0.0108714
0.0108214
0.0107702
0.0107178
0.0106641
0.0106092
0.0105531
0.0104957
0.0104369
0.0103768
0.0103154
0.0102525
0.0101883
0.0101226
0.0100554
0.00998671
0.00991647
0.00984466
0.00977124
0.00969616
0.00961939
0.00954088
0.00946059
0.00937846
0.00929443
0.00920846
0.00912047
0.00903041
0.00893818
0.00884372
0.00874692
0.0086477
0.00854594
0.00844152
0.00833431
0.00822416
0.00811091
0.00799436
0.00787431
0.00775051
0.00762269
0.00749055
0.00735372
0.00721178
0.00706425
0.00691056
0.00675005
0.00658193
0.00640525
0.00621889
0.00602152
0.00581148
0.00558676
0.00534486
0.00508269
0.00479634
0.00448093
0.00413029
0.00373669
0.00329043
0.00277957
0.00219025
0.00150863
0.000737848
7.17819e-05
9.40697e-05
0.000929587
0.00184084
0.00261935
0.00328388
0.00386103
0.00437102
0.00482837
0.00524346
0.00562385
0.00597517
0.00630166
0.00660663
0.00689269
0.00716194
0.00741608
0.00765655
0.00788454
0.00810105
0.00830697
0.00850306
0.00868996
0.00886827
0.00903851
0.00920113
0.00935656
0.00950516
0.00964727
0.00978322
0.00991327
0.0100377
0.0101567
0.0102706
0.0103796
0.0104838
0.0105834
0.0106786
0.0107697
0.0108566
0.0109397
0.0110189
0.0110945
0.0111666
0.0112353
0.0113008
0.011363
0.0114222
0.0114785
0.0115318
0.0115823
0.0116302
0.0116755
0.0117184
0.0117589
0.0117971
0.0118331
0.011867
0.0118988
0.0119287
0.0119567
0.0119829
0.0120073
0.01203
0.0120511
0.0120706
0.0120885
0.0121049
0.0121199
0.0121335
0.0121457
0.0121566
0.0121663
0.0121747
0.0121818
0.0121879
0.0121927
0.0121965
0.0121992
0.0122008
0.0122014
0.012201
0.0121996
0.0121972
0.0121939
0.0121897
0.0121846
0.0121785
0.0121717
0.0121639
0.0121553
0.0121459
0.0121356
0.0121245
0.0121126
0.0121
0.0120865
0.0120722
0.0120572
0.0120413
0.0120247
0.0120074
0.0119892
0.0119703
0.0119506
0.0119301
0.0119089
0.0118869
0.0118641
0.0118405
0.0118161
0.0117909
0.0117649
0.0117381
0.0117105
0.0116821
0.0116528
0.0116226
0.0115916
0.0115598
0.011527
0.0114934
0.0114588
0.0114234
0.0113869
0.0113496
0.0113113
0.011272
0.0112317
0.0111904
0.011148
0.0111046
0.0110602
0.0110147
0.0109681
0.0109203
0.0108714
0.0108214
0.0107702
0.0107178
0.0106641
0.0106092
0.0105531
0.0104957
0.0104369
0.0103768
0.0103154
0.0102525
0.0101883
0.0101226
0.0100554
0.00998669
0.00991646
0.00984465
0.00977122
0.00969615
0.00961937
0.00954087
0.00946057
0.00937844
0.00929442
0.00920844
0.00912046
0.00903039
0.00893816
0.0088437
0.0087469
0.00864768
0.00854592
0.0084415
0.00833429
0.00822415
0.00811089
0.00799434
0.00787429
0.00775049
0.00762268
0.00749053
0.0073537
0.00721176
0.00706423
0.00691055
0.00675004
0.00658191
0.00640523
0.00621888
0.00602151
0.00581147
0.00558675
0.00534485
0.00508268
0.00479633
0.00448092
0.00413029
0.00373669
0.00329043
0.00277957
0.00219025
0.00150863
0.000737846
7.1782e-05
0.000100045
0.000990272
0.00198189
0.00284394
0.00358896
0.00424187
0.00482283
0.00534678
0.00582465
0.00626452
0.00667242
0.00705296
0.0074097
0.00774547
0.00806252
0.00836268
0.00864749
0.00891822
0.00917595
0.00942161
0.009656
0.00987982
0.0100937
0.0102982
0.0104938
0.010681
0.0108602
0.0110317
0.0111959
0.0113531
0.0115036
0.0116477
0.0117857
0.0119177
0.012044
0.0121649
0.0122805
0.012391
0.0124967
0.0125977
0.0126941
0.0127861
0.012874
0.0129577
0.0130376
0.0131136
0.013186
0.0132548
0.0133202
0.0133823
0.0134412
0.013497
0.0135499
0.0136
0.0136474
0.0136921
0.0137343
0.0137741
0.0138115
0.0138467
0.0138797
0.0139105
0.0139394
0.0139663
0.0139913
0.0140145
0.0140359
0.0140555
0.0140736
0.01409
0.0141048
0.0141181
0.01413
0.0141404
0.0141495
0.0141572
0.0141636
0.0141687
0.0141725
0.0141752
0.0141766
0.0141769
0.0141761
0.0141742
0.0141711
0.014167
0.0141619
0.0141557
0.0141485
0.0141404
0.0141312
0.0141211
0.01411
0.0140979
0.0140849
0.014071
0.0140562
0.0140404
0.0140237
0.0140061
0.0139876
0.0139682
0.0139479
0.0139266
0.0139045
0.0138814
0.0138575
0.0138326
0.0138067
0.01378
0.0137523
0.0137236
0.013694
0.0136634
0.0136319
0.0135993
0.0135658
0.0135312
0.0134956
0.0134589
0.0134212
0.0133825
0.0133426
0.0133016
0.0132595
0.0132163
0.0131719
0.0131263
0.0130795
0.0130315
0.0129822
0.0129317
0.0128799
0.0128267
0.0127723
0.0127164
0.0126592
0.0126006
0.0125406
0.0124791
0.0124161
0.0123515
0.0122855
0.0122178
0.0121485
0.0120776
0.0120051
0.0119308
0.0118547
0.0117769
0.0116972
0.0116156
0.0115322
0.0114468
0.0113593
0.0112698
0.0111782
0.0110844
0.0109883
0.0108899
0.0107891
0.0106859
0.01058
0.0104715
0.0103603
0.0102461
0.010129
0.0100087
0.00988512
0.00975807
0.00962736
0.00949279
0.00935412
0.00921109
0.00906339
0.00891068
0.00875257
0.00858862
0.0084183
0.00824102
0.00805608
0.00786265
0.00765978
0.00744632
0.00722092
0.00698194
0.00672743
0.00645501
0.00616179
0.00584422
0.00549795
0.00511763
0.00469669
0.0042271
0.00369918
0.0031015
0.00242172
0.00164956
0.000795802
7.62197e-05
0.000100046
0.000990305
0.00198196
0.00284405
0.0035891
0.00424203
0.004823
0.00534696
0.00582484
0.00626471
0.00667261
0.00705315
0.00740989
0.00774566
0.0080627
0.00836286
0.00864767
0.00891839
0.00917611
0.00942176
0.00965615
0.00987997
0.0100939
0.0102984
0.010494
0.0106811
0.0108603
0.0110318
0.011196
0.0113532
0.0115037
0.0116478
0.0117857
0.0119178
0.0120441
0.012165
0.0122806
0.0123911
0.0124968
0.0125977
0.0126941
0.0127862
0.012874
0.0129578
0.0130376
0.0131136
0.013186
0.0132548
0.0133202
0.0133823
0.0134412
0.0134971
0.01355
0.0136
0.0136474
0.0136921
0.0137343
0.0137741
0.0138115
0.0138467
0.0138797
0.0139106
0.0139394
0.0139663
0.0139913
0.0140145
0.0140359
0.0140555
0.0140736
0.01409
0.0141048
0.0141181
0.01413
0.0141404
0.0141495
0.0141572
0.0141636
0.0141687
0.0141725
0.0141752
0.0141766
0.0141769
0.0141761
0.0141742
0.0141711
0.014167
0.0141619
0.0141557
0.0141485
0.0141404
0.0141312
0.014121
0.01411
0.0140979
0.0140849