/*--------------------------------*- C++ -*----------------------------------*\
  =========                 |
  \\      /  F ield         | OpenFOAM: The Open Source CFD Toolbox
   \\    /   O peration     | Website:  https://openfoam.org
    \\  /    A nd           | Version:  8
     \\/     M anipulation  |
\*---------------------------------------------------------------------------*/
FoamFile
{
    version     2.0;
    format      ascii;
    class       volVectorField;
    location    "2100";
    object      U;
}
// * * * * * * * * * * * * * * * * * * * * * * * * * * * * * * * * * * * * * //

dimensions      [0 1 -1 0 0 0 0];

internalField   nonuniform List<vector> 
48000
(
(-0.0153966 -8.73975e-07 0.0168146)
(-0.0288257 -1.27126e-07 0.012391)
(-0.0378374 -9.26188e-08 0.00419648)
(-0.0374782 -1.25927e-07 -0.00256518)
(-0.0313649 -1.64032e-07 -0.00711752)
(-0.021318 -1.90737e-07 -0.0099899)
(-0.00893863 -2.03324e-07 -0.011741)
(0.00509318 -1.99585e-07 -0.0126267)
(0.0196064 -1.8524e-07 -0.0128555)
(0.0343956 -1.7164e-07 -0.0127515)
(0.0490947 -1.62008e-07 -0.0124512)
(0.0635028 -1.55265e-07 -0.0120289)
(0.0774864 -1.51073e-07 -0.0115324)
(0.0909578 -1.48385e-07 -0.0109928)
(0.103861 -1.45815e-07 -0.0104314)
(0.116163 -1.42076e-07 -0.00986248)
(0.127845 -1.35969e-07 -0.00929597)
(0.138903 -1.26859e-07 -0.00873872)
(0.14934 -1.14965e-07 -0.0081954)
(0.159164 -1.01201e-07 -0.00766919)
(0.168389 -8.70874e-08 -0.00716216)
(0.177033 -7.42568e-08 -0.00667557)
(0.185113 -6.40304e-08 -0.00621011)
(0.192651 -5.72496e-08 -0.00576603)
(0.199669 -5.42342e-08 -0.00534326)
(0.206188 -5.46606e-08 -0.00494147)
(0.212231 -5.74933e-08 -0.00456021)
(0.217819 -6.12092e-08 -0.00419884)
(0.222975 -6.4415e-08 -0.00385669)
(0.22772 -6.60064e-08 -0.003533)
(0.232073 -6.52983e-08 -0.00322699)
(0.236056 -6.19973e-08 -0.00293787)
(0.239687 -5.63092e-08 -0.00266484)
(0.242986 -4.90069e-08 -0.00240711)
(0.245969 -4.12171e-08 -0.00216393)
(0.248653 -3.4029e-08 -0.00193453)
(0.251055 -2.82876e-08 -0.00171822)
(0.253191 -2.43509e-08 -0.0015143)
(0.255074 -2.23444e-08 -0.00132212)
(0.25672 -2.20932e-08 -0.00114106)
(0.25814 -2.31668e-08 -0.000970525)
(0.259349 -2.49086e-08 -0.00080996)
(0.260357 -2.64373e-08 -0.000658839)
(0.261177 -2.69551e-08 -0.000516665)
(0.261819 -2.58548e-08 -0.000382974)
(0.262294 -2.30374e-08 -0.000257334)
(0.262612 -1.87504e-08 -0.000139344)
(0.262781 -1.35078e-08 -2.85565e-05)
(0.262812 -7.93203e-09 7.55349e-05)
(0.262712 -2.61709e-09 0.000173084)
(0.26249 1.94782e-09 0.000264259)
(0.262152 5.38768e-09 0.000349512)
(0.261708 7.4455e-09 0.000429191)
(0.261163 8.01467e-09 0.00050359)
(0.260524 7.13709e-09 0.000572978)
(0.259797 5.03166e-09 0.000637606)
(0.258989 2.07913e-09 0.000697718)
(0.258105 -1.31886e-09 0.000753548)
(0.25715 -4.70542e-09 0.00080532)
(0.25613 -7.76646e-09 0.000853249)
(0.255049 -1.03154e-08 0.000897543)
(0.253912 -1.23352e-08 0.000938399)
(0.252723 -1.39837e-08 0.00097601)
(0.251486 -1.54762e-08 0.00101056)
(0.250206 -1.71266e-08 0.00104222)
(0.248885 -1.92111e-08 0.00107116)
(0.247528 -2.19466e-08 0.00109754)
(0.246137 -2.54588e-08 0.00112152)
(0.244716 -2.97781e-08 0.00114325)
(0.243267 -3.48094e-08 0.00116286)
(0.241792 -4.04479e-08 0.0011805)
(0.240295 -4.64082e-08 0.0011963)
(0.238778 -5.25226e-08 0.00121038)
(0.237243 -5.85418e-08 0.00122287)
(0.235692 -6.42889e-08 0.00123388)
(0.234126 -6.95429e-08 0.00124352)
(0.232548 -7.42124e-08 0.00125189)
(0.23096 -7.81244e-08 0.00125911)
(0.229361 -8.12197e-08 0.00126525)
(0.227755 -8.34202e-08 0.00127043)
(0.226141 -8.46024e-08 0.00127471)
(0.224522 -8.47794e-08 0.00127819)
(0.222898 -8.38999e-08 0.00128094)
(0.22127 -8.20154e-08 0.00128304)
(0.219639 -7.9179e-08 0.00128456)
(0.218006 -7.5524e-08 0.00128556)
(0.216371 -7.12827e-08 0.0012861)
(0.214735 -6.6596e-08 0.00128624)
(0.213098 -6.17075e-08 0.00128604)
(0.211461 -5.68457e-08 0.00128555)
(0.209825 -5.21628e-08 0.00128482)
(0.208188 -4.77807e-08 0.00128389)
(0.206553 -4.37793e-08 0.00128281)
(0.204918 -4.01319e-08 0.00128161)
(0.203284 -3.67816e-08 0.00128034)
(0.201652 -3.36178e-08 0.00127904)
(0.20002 -3.04844e-08 0.00127772)
(0.19839 -2.72673e-08 0.00127644)
(0.19676 -2.38408e-08 0.00127522)
(0.195132 -2.01744e-08 0.0012741)
(0.193504 -1.62644e-08 0.0012731)
(0.191878 -1.21869e-08 0.00127225)
(0.190251 -8.10552e-09 0.00127158)
(0.188625 -4.25642e-09 0.00127111)
(0.186999 -8.60369e-10 0.00127088)
(0.185373 1.83134e-09 0.00127091)
(0.183746 3.55982e-09 0.00127122)
(0.182118 4.24131e-09 0.00127184)
(0.180489 3.78063e-09 0.00127279)
(0.178858 2.23489e-09 0.00127409)
(0.177225 -2.51232e-10 0.00127578)
(0.175589 -3.41885e-09 0.00127786)
(0.17395 -7.00527e-09 0.00128037)
(0.172307 -1.06183e-08 0.00128332)
(0.17066 -1.39382e-08 0.00128674)
(0.169009 -1.66261e-08 0.00129066)
(0.167351 -1.8465e-08 0.00129508)
(0.165688 -1.92988e-08 0.00130005)
(0.164018 -1.91047e-08 0.00130557)
(0.16234 -1.79625e-08 0.00131167)
(0.160654 -1.61122e-08 0.00131838)
(0.15896 -1.38507e-08 0.00132572)
(0.157255 -1.15435e-08 0.00133371)
(0.15554 -9.60182e-09 0.00134238)
(0.153814 -8.47107e-09 0.00135175)
(0.152075 -8.40635e-09 0.00136185)
(0.150323 -9.64751e-09 0.00137268)
(0.148557 -1.22364e-08 0.00138429)
(0.146776 -1.60551e-08 0.00139669)
(0.144979 -2.07494e-08 0.0014099)
(0.143165 -2.5893e-08 0.00142395)
(0.141333 -3.09414e-08 0.00143886)
(0.139483 -3.54072e-08 0.00145465)
(0.137612 -3.88566e-08 0.00147134)
(0.13572 -4.10838e-08 0.00148896)
(0.133805 -4.21308e-08 0.00150753)
(0.131868 -4.22146e-08 0.00152707)
(0.129906 -4.16054e-08 0.00154759)
(0.127918 -4.06955e-08 0.00156912)
(0.125903 -3.96904e-08 0.00159167)
(0.12386 -3.85939e-08 0.00161526)
(0.121788 -3.73223e-08 0.00163989)
(0.119685 -3.57232e-08 0.00166559)
(0.117551 -3.36673e-08 0.00169237)
(0.115384 -3.12802e-08 0.00172023)
(0.113182 -2.89083e-08 0.00174919)
(0.110945 -2.69856e-08 0.00177925)
(0.108671 -2.59653e-08 0.00181041)
(0.10636 -2.59539e-08 0.00184268)
(0.104009 -2.66811e-08 0.00187605)
(0.101618 -2.75529e-08 0.00191051)
(0.0991862 -2.78956e-08 0.00194605)
(0.0967115 -2.7275e-08 0.00198264)
(0.0941931 -2.57331e-08 0.00202028)
(0.0916302 -2.36848e-08 0.00205893)
(0.0890216 -2.16974e-08 0.00209854)
(0.0863665 -2.00032e-08 0.00213907)
(0.0836641 -1.82252e-08 0.00218047)
(0.0809136 -1.56211e-08 0.00222267)
(0.0781144 -1.15169e-08 0.0022656)
(0.0752661 -6.01923e-09 0.00230917)
(0.0723682 -7.99514e-11 0.00235327)
(0.0694205 4.97224e-09 0.00239778)
(0.0664231 8.27692e-09 0.00244256)
(0.0633761 1.02453e-08 0.00248743)
(0.0602799 1.21946e-08 0.00253221)
(0.0571353 1.52708e-08 0.00257668)
(0.0539432 1.94093e-08 0.0026206)
(0.0507051 2.30528e-08 0.00266367)
(0.0474227 2.46176e-08 0.00270554)
(0.0440982 2.38942e-08 0.00274583)
(0.0407343 2.26873e-08 0.00278409)
(0.0373343 2.32051e-08 0.00281979)
(0.0339024 2.55618e-08 0.00285233)
(0.0304432 2.74806e-08 0.002881)
(0.0269625 2.67039e-08 0.00290497)
(0.023467 2.39018e-08 0.00292325)
(0.0199647 2.26454e-08 0.0029347)
(0.0164649 2.51277e-08 0.00293796)
(0.0129786 2.84476e-08 0.00293142)
(0.00951914 2.70618e-08 0.00291312)
(0.00610084 1.99347e-08 0.00288058)
(0.00274704 1.28151e-08 0.00283066)
(-0.000532346 1.0942e-08 0.0027537)
(-0.00369543 1.12694e-08 0.00264289)
(-0.00671399 7.78198e-09 0.00249931)
(-0.00955389 3.38082e-09 0.00232179)
(-0.0121689 7.14237e-09 0.00210333)
(-0.0145076 1.54954e-08 0.00183315)
(-0.0165052 1.19243e-08 0.00150009)
(-0.0180847 -5.25398e-09 0.00108984)
(-0.0191516 -1.76123e-08 0.000584272)
(-0.0195962 -2.08408e-08 -3.78315e-05)
(-0.0192786 -2.23942e-08 -0.000793283)
(-0.0180623 -6.19058e-09 -0.00169314)
(-0.0158056 1.82598e-08 -0.00272732)
(-0.0123806 5.93961e-10 -0.00380352)
(-0.00813517 2.254e-09 -0.004585)
(-0.00254646 2.00677e-07 -0.0036529)
(-0.000286527 3.15697e-07 3.52883e-05)
(-0.0153963 -8.7393e-07 0.0168149)
(-0.0288253 -1.27123e-07 0.012391)
(-0.037837 -9.26166e-08 0.00419638)
(-0.0374777 -1.25924e-07 -0.0025653)
(-0.0313644 -1.64028e-07 -0.00711763)
(-0.0213174 -1.90733e-07 -0.00999002)
(-0.00893806 -2.0332e-07 -0.0117411)
(0.00509372 -1.99582e-07 -0.0126268)
(0.0196069 -1.85236e-07 -0.0128556)
(0.034396 -1.71637e-07 -0.0127516)
(0.0490951 -1.62005e-07 -0.0124512)
(0.0635031 -1.55263e-07 -0.012029)
(0.0774867 -1.51071e-07 -0.0115324)
(0.090958 -1.48383e-07 -0.0109929)
(0.103861 -1.45814e-07 -0.0104314)
(0.116163 -1.42075e-07 -0.00986252)
(0.127845 -1.35968e-07 -0.00929601)
(0.138903 -1.26858e-07 -0.00873875)
(0.14934 -1.14964e-07 -0.00819543)
(0.159164 -1.012e-07 -0.00766921)
(0.168389 -8.70868e-08 -0.00716218)
(0.177032 -7.42563e-08 -0.00667559)
(0.185113 -6.403e-08 -0.00621013)
(0.192651 -5.72493e-08 -0.00576605)
(0.199669 -5.42339e-08 -0.00534327)
(0.206188 -5.46604e-08 -0.00494148)
(0.212231 -5.7493e-08 -0.00456021)
(0.217819 -6.1209e-08 -0.00419884)
(0.222975 -6.44147e-08 -0.00385669)
(0.227719 -6.60062e-08 -0.003533)
(0.232073 -6.5298e-08 -0.00322699)
(0.236056 -6.19971e-08 -0.00293786)
(0.239687 -5.6309e-08 -0.00266483)
(0.242986 -4.90067e-08 -0.00240711)
(0.245968 -4.1217e-08 -0.00216392)
(0.248653 -3.40289e-08 -0.00193453)
(0.251055 -2.82875e-08 -0.00171822)
(0.253191 -2.43508e-08 -0.0015143)
(0.255074 -2.23444e-08 -0.00132212)
(0.256719 -2.20931e-08 -0.00114105)
(0.25814 -2.31667e-08 -0.000970517)
(0.259348 -2.49086e-08 -0.00080995)
(0.260357 -2.64372e-08 -0.000658827)
(0.261177 -2.6955e-08 -0.000516652)
(0.261819 -2.58547e-08 -0.00038296)
(0.262294 -2.30373e-08 -0.00025732)
(0.262612 -1.87503e-08 -0.000139331)
(0.262781 -1.35077e-08 -2.85449e-05)
(0.262812 -7.93201e-09 7.55446e-05)
(0.262712 -2.61708e-09 0.000173092)
(0.262489 1.94782e-09 0.000264264)
(0.262152 5.38767e-09 0.000349514)
(0.261708 7.44548e-09 0.00042919)
(0.261163 8.01466e-09 0.000503586)
(0.260524 7.13707e-09 0.000572971)
(0.259797 5.03165e-09 0.000637598)
(0.258989 2.07912e-09 0.000697709)
(0.258105 -1.31886e-09 0.000753537)
(0.25715 -4.70541e-09 0.000805307)
(0.25613 -7.76645e-09 0.000853234)
(0.255049 -1.03154e-08 0.000897526)
(0.253912 -1.23352e-08 0.00093838)
(0.252723 -1.39837e-08 0.000975987)
(0.251486 -1.54761e-08 0.00101053)
(0.250206 -1.71266e-08 0.00104219)
(0.248885 -1.92111e-08 0.00107113)
(0.247528 -2.19466e-08 0.00109751)
(0.246137 -2.54587e-08 0.00112149)
(0.244716 -2.97781e-08 0.00114321)
(0.243266 -3.48093e-08 0.00116283)
(0.241792 -4.04479e-08 0.00118047)
(0.240295 -4.64081e-08 0.00119627)
(0.238778 -5.25225e-08 0.00121036)
(0.237243 -5.85417e-08 0.00122285)
(0.235692 -6.42888e-08 0.00123386)
(0.234126 -6.95428e-08 0.00124351)
(0.232548 -7.42123e-08 0.00125189)
(0.230959 -7.81243e-08 0.00125911)
(0.229361 -8.12195e-08 0.00126527)
(0.227755 -8.34201e-08 0.00127045)
(0.226141 -8.46022e-08 0.00127475)
(0.224522 -8.47793e-08 0.00127823)
(0.222898 -8.38998e-08 0.001281)
(0.22127 -8.20152e-08 0.0012831)
(0.219639 -7.91788e-08 0.00128463)
(0.218006 -7.55239e-08 0.00128563)
(0.216371 -7.12826e-08 0.00128618)
(0.214735 -6.65959e-08 0.00128633)
(0.213098 -6.17074e-08 0.00128614)
(0.211461 -5.68456e-08 0.00128565)
(0.209825 -5.21627e-08 0.00128492)
(0.208188 -4.77806e-08 0.00128399)
(0.206553 -4.37792e-08 0.00128291)
(0.204918 -4.01319e-08 0.00128171)
(0.203284 -3.67815e-08 0.00128044)
(0.201651 -3.36177e-08 0.00127912)
(0.20002 -3.04844e-08 0.00127781)
(0.198389 -2.72673e-08 0.00127652)
(0.19676 -2.38408e-08 0.0012753)
(0.195132 -2.01744e-08 0.00127417)
(0.193504 -1.62644e-08 0.00127316)
(0.191877 -1.21869e-08 0.00127231)
(0.190251 -8.10551e-09 0.00127164)
(0.188625 -4.25641e-09 0.00127117)
(0.186999 -8.60367e-10 0.00127094)
(0.185373 1.83134e-09 0.00127096)
(0.183746 3.55981e-09 0.00127127)
(0.182118 4.2413e-09 0.00127188)
(0.180489 3.78063e-09 0.00127283)
(0.178858 2.23489e-09 0.00127413)
(0.177225 -2.51231e-10 0.00127581)
(0.175589 -3.41885e-09 0.00127789)
(0.17395 -7.00525e-09 0.0012804)
(0.172307 -1.06183e-08 0.00128335)
(0.17066 -1.39382e-08 0.00128677)
(0.169009 -1.66261e-08 0.00129068)
(0.167351 -1.8465e-08 0.0012951)
(0.165688 -1.92988e-08 0.00130006)
(0.164018 -1.91046e-08 0.00130558)
(0.16234 -1.79625e-08 0.00131168)
(0.160654 -1.61122e-08 0.00131839)
(0.15896 -1.38507e-08 0.00132573)
(0.157255 -1.15435e-08 0.00133371)
(0.15554 -9.6018e-09 0.00134238)
(0.153814 -8.47106e-09 0.00135175)
(0.152075 -8.40634e-09 0.00136184)
(0.150323 -9.64749e-09 0.00137267)
(0.148557 -1.22364e-08 0.00138428)
(0.146776 -1.60551e-08 0.00139667)
(0.144979 -2.07494e-08 0.00140988)
(0.143165 -2.58929e-08 0.00142393)
(0.141333 -3.09413e-08 0.00143884)
(0.139483 -3.54072e-08 0.00145463)
(0.137612 -3.88565e-08 0.00147133)
(0.13572 -4.10837e-08 0.00148895)
(0.133805 -4.21307e-08 0.00150752)
(0.131868 -4.22145e-08 0.00152706)
(0.129906 -4.16053e-08 0.00154759)
(0.127918 -4.06954e-08 0.00156912)
(0.125903 -3.96903e-08 0.00159167)
(0.12386 -3.85938e-08 0.00161525)
(0.121788 -3.73222e-08 0.00163989)
(0.119685 -3.57232e-08 0.00166559)
(0.117551 -3.36673e-08 0.00169236)
(0.115384 -3.12801e-08 0.00172023)
(0.113182 -2.89082e-08 0.00174919)
(0.110945 -2.69856e-08 0.00177925)
(0.108671 -2.59653e-08 0.00181042)
(0.10636 -2.59538e-08 0.00184269)
(0.104009 -2.6681e-08 0.00187607)
(0.101619 -2.75529e-08 0.00191053)
(0.0991863 -2.78955e-08 0.00194607)
(0.0967115 -2.72749e-08 0.00198267)
(0.0941932 -2.5733e-08 0.00202031)
(0.0916302 -2.36847e-08 0.00205896)
(0.0890216 -2.16974e-08 0.00209857)
(0.0863665 -2.00032e-08 0.00213911)
(0.0836641 -1.82252e-08 0.00218051)
(0.0809136 -1.5621e-08 0.00222271)
(0.0781144 -1.15169e-08 0.00226564)
(0.0752661 -6.01922e-09 0.00230921)
(0.0723682 -7.99513e-11 0.00235331)
(0.0694206 4.97223e-09 0.00239782)
(0.0664231 8.2769e-09 0.00244259)
(0.0633761 1.02452e-08 0.00248746)
(0.0602799 1.21945e-08 0.00253224)
(0.0571353 1.52708e-08 0.00257671)
(0.0539433 1.94092e-08 0.00262063)
(0.0507052 2.30527e-08 0.00266369)
(0.0474228 2.46175e-08 0.00270556)
(0.0440982 2.38941e-08 0.00274584)
(0.0407343 2.26872e-08 0.00278409)
(0.0373344 2.3205e-08 0.00281979)
(0.0339025 2.55617e-08 0.00285234)
(0.0304433 2.74805e-08 0.00288101)
(0.0269626 2.67039e-08 0.00290497)
(0.0234671 2.39017e-08 0.00292325)
(0.0199647 2.26454e-08 0.00293469)
(0.0164649 2.51277e-08 0.00293797)
(0.0129787 2.84476e-08 0.00293143)
(0.0095192 2.70617e-08 0.00291313)
(0.00610088 1.99346e-08 0.00288058)
(0.00274709 1.28151e-08 0.00283065)
(-0.000532287 1.0942e-08 0.0027537)
(-0.00369536 1.12694e-08 0.00264288)
(-0.00671393 7.78196e-09 0.0024993)
(-0.00955383 3.38081e-09 0.00232178)
(-0.0121688 7.14235e-09 0.00210333)
(-0.0145075 1.54954e-08 0.00183315)
(-0.0165052 1.19242e-08 0.00150009)
(-0.0180847 -5.25396e-09 0.00108983)
(-0.0191516 -1.76122e-08 0.000584285)
(-0.0195961 -2.08407e-08 -3.78199e-05)
(-0.0192786 -2.23941e-08 -0.000793308)
(-0.0180623 -6.19052e-09 -0.00169318)
(-0.0158056 1.82591e-08 -0.00272741)
(-0.0123806 5.93894e-10 -0.00380373)
(-0.00813522 2.25375e-09 -0.00458529)
(-0.00254688 2.00726e-07 -0.00365297)
(-0.000285929 3.15877e-07 3.61145e-05)
(-0.00998704 -7.3958e-08 0.032539)
(-0.0133823 4.93249e-08 0.0178352)
(-0.0115885 3.82722e-08 0.00436025)
(-0.00672135 2.95024e-08 -0.00650617)
(0.000622951 2.32386e-08 -0.0142014)
(0.00989094 1.91719e-08 -0.019282)
(0.0205281 1.72013e-08 -0.0224589)
(0.0321111 1.57248e-08 -0.0242477)
(0.0442471 1.40552e-08 -0.0250503)
(0.0566639 1.22066e-08 -0.0252143)
(0.069124 9.91635e-09 -0.024945)
(0.0814591 7.45577e-09 -0.0243831)
(0.0935443 5.08183e-09 -0.0236242)
(0.10529 3.11242e-09 -0.0227346)
(0.116632 1.83025e-09 -0.0217615)
(0.127526 1.46946e-09 -0.0207388)
(0.137944 2.17092e-09 -0.019691)
(0.147869 3.86895e-09 -0.0186364)
(0.157293 6.24278e-09 -0.0175882)
(0.166214 8.83458e-09 -0.0165562)
(0.174635 1.12075e-08 -0.0155476)
(0.182566 1.30188e-08 -0.0145676)
(0.190016 1.40201e-08 -0.0136196)
(0.196999 1.41181e-08 -0.0127062)
(0.203529 1.34175e-08 -0.0118288)
(0.209622 1.2202e-08 -0.0109881)
(0.215295 1.08523e-08 -0.0101844)
(0.220563 9.73575e-09 -0.00941747)
(0.225444 9.11799e-09 -0.00868674)
(0.229955 9.15176e-09 -0.00799142)
(0.234112 9.87132e-09 -0.00733056)
(0.237932 1.11824e-08 -0.00670304)
(0.241431 1.2851e-08 -0.00610769)
(0.244624 1.45609e-08 -0.00554328)
(0.247527 1.59972e-08 -0.00500853)
(0.250153 1.69395e-08 -0.0045022)
(0.252517 1.72707e-08 -0.00402302)
(0.254633 1.69947e-08 -0.00356977)
(0.256512 1.61927e-08 -0.00314124)
(0.258168 1.50034e-08 -0.00273629)
(0.259612 1.3619e-08 -0.00235378)
(0.260856 1.22602e-08 -0.00199266)
(0.26191 1.11371e-08 -0.0016519)
(0.262785 1.04037e-08 -0.00133052)
(0.26349 1.00958e-08 -0.00102759)
(0.264035 1.01533e-08 -0.000742222)
(0.26443 1.04232e-08 -0.000473582)
(0.264681 1.07368e-08 -0.000220867)
(0.264799 1.09143e-08 1.66753e-05)
(0.26479 1.08291e-08 0.000239731)
(0.264662 1.04265e-08 0.000449005)
(0.264422 9.67975e-09 0.000645201)
(0.264076 8.60229e-09 0.000828961)
(0.263633 7.25022e-09 0.0010009)
(0.263096 5.7197e-09 0.00116158)
(0.262473 4.13016e-09 0.00131158)
(0.26177 2.60677e-09 0.00145141)
(0.26099 1.27708e-09 0.0015816)
(0.26014 2.33884e-10 0.00170263)
(0.259224 -4.66656e-10 0.00181498)
(0.258246 -8.24067e-10 0.0019191)
(0.257212 -8.77849e-10 0.00201544)
(0.256125 -7.06051e-10 0.00210441)
(0.254988 -3.94336e-10 0.00218642)
(0.253807 -3.45551e-11 0.00226187)
(0.252584 3.07141e-10 0.00233113)
(0.251322 5.87445e-10 0.00239457)
(0.250024 7.80183e-10 0.00245252)
(0.248694 9.02962e-10 0.00250534)
(0.247334 9.75771e-10 0.00255333)
(0.245947 1.03478e-09 0.00259681)
(0.244535 1.12234e-09 0.00263608)
(0.2431 1.26511e-09 0.00267141)
(0.241645 1.48973e-09 0.00270307)
(0.240171 1.80477e-09 0.00273134)
(0.238681 2.22023e-09 0.00275644)
(0.237175 2.73944e-09 0.00277863)
(0.235656 3.35336e-09 0.00279812)
(0.234125 4.06864e-09 0.00281514)
(0.232583 4.88291e-09 0.00282987)
(0.231031 5.79378e-09 0.00284253)
(0.229472 6.79984e-09 0.0028533)
(0.227905 7.8868e-09 0.00286234)
(0.226331 9.04468e-09 0.00286982)
(0.224752 1.02316e-08 0.00287591)
(0.223168 1.14185e-08 0.00288075)
(0.221581 1.25635e-08 0.00288448)
(0.219989 1.36229e-08 0.00288723)
(0.218395 1.4558e-08 0.00288913)
(0.216798 1.53404e-08 0.0028903)
(0.215199 1.59524e-08 0.00289084)
(0.213598 1.64031e-08 0.00289087)
(0.211996 1.67024e-08 0.00289048)
(0.210393 1.68799e-08 0.00288977)
(0.208789 1.69713e-08 0.00288883)
(0.207183 1.70117e-08 0.00288774)
(0.205577 1.70336e-08 0.0028866)
(0.20397 1.70455e-08 0.00288547)
(0.202363 1.70541e-08 0.00288442)
(0.200754 1.70365e-08 0.00288355)
(0.199145 1.69589e-08 0.0028829)
(0.197534 1.6779e-08 0.00288254)
(0.195923 1.64425e-08 0.00288255)
(0.19431 1.5909e-08 0.00288297)
(0.192695 1.51419e-08 0.00288388)
(0.191078 1.41334e-08 0.00288532)
(0.18946 1.28999e-08 0.00288736)
(0.187839 1.14869e-08 0.00289004)
(0.186215 9.95499e-09 0.00289343)
(0.184588 8.3945e-09 0.00289756)
(0.182957 6.90111e-09 0.00290251)
(0.181322 5.56144e-09 0.00290831)
(0.179683 4.45401e-09 0.00291502)
(0.178038 3.64068e-09 0.00292268)
(0.176388 3.16097e-09 0.00293135)
(0.174732 3.00868e-09 0.00294108)
(0.17307 3.16478e-09 0.00295191)
(0.1714 3.57167e-09 0.00296389)
(0.169722 4.15132e-09 0.00297707)
(0.168035 4.81711e-09 0.00299149)
(0.16634 5.47243e-09 0.00300722)
(0.164634 6.01877e-09 0.00302429)
(0.162918 6.38902e-09 0.00304275)
(0.16119 6.51085e-09 0.00306266)
(0.15945 6.35618e-09 0.00308406)
(0.157697 5.92168e-09 0.003107)
(0.15593 5.23638e-09 0.00313152)
(0.154148 4.37118e-09 0.00315767)
(0.152351 3.4208e-09 0.00318549)
(0.150537 2.50421e-09 0.00321504)
(0.148706 1.73991e-09 0.00324635)
(0.146856 1.23735e-09 0.00327946)
(0.144987 1.06413e-09 0.00331441)
(0.143097 1.25258e-09 0.00335125)
(0.141186 1.76751e-09 0.00339001)
(0.139253 2.54704e-09 0.00343073)
(0.137296 3.46934e-09 0.00347342)
(0.135315 4.42972e-09 0.00351814)
(0.133309 5.33298e-09 0.0035649)
(0.131275 6.12869e-09 0.00361372)
(0.129214 6.81495e-09 0.00366464)
(0.127124 7.4203e-09 0.00371765)
(0.125005 7.96378e-09 0.00377279)
(0.122854 8.45491e-09 0.00383005)
(0.120672 8.85658e-09 0.00388944)
(0.118456 9.09072e-09 0.00395095)
(0.116206 9.08596e-09 0.00401459)
(0.113921 8.82421e-09 0.00408032)
(0.111599 8.36259e-09 0.00414812)
(0.109241 7.83814e-09 0.00421796)
(0.106844 7.41173e-09 0.00428979)
(0.104408 7.20995e-09 0.00436356)
(0.101931 7.24802e-09 0.00443918)
(0.0994144 7.43362e-09 0.00451659)
(0.0968557 7.60114e-09 0.00459567)
(0.0942546 7.64587e-09 0.00467631)
(0.0916105 7.58401e-09 0.00475836)
(0.088923 7.55165e-09 0.00484168)
(0.0861915 7.70298e-09 0.00492608)
(0.0834158 8.08847e-09 0.00501134)
(0.0805957 8.53391e-09 0.00509723)
(0.0777313 8.74902e-09 0.00518347)
(0.0748226 8.49489e-09 0.00526976)
(0.0718701 7.80483e-09 0.00535574)
(0.0688742 6.98913e-09 0.005441)
(0.065836 6.38949e-09 0.0055251)
(0.0627563 6.09252e-09 0.00560751)
(0.0596368 5.81745e-09 0.00568766)
(0.0564791 5.12454e-09 0.00576488)
(0.0532853 3.88338e-09 0.00583842)
(0.0500581 2.45091e-09 0.00590742)
(0.0468006 1.44199e-09 0.0059709)
(0.0435163 1.03747e-09 0.00602774)
(0.0402095 7.55736e-10 0.00607667)
(0.0368853 -8.66143e-11 0.00611621)
(0.0335493 -1.48006e-09 0.00614467)
(0.0302084 -2.53371e-09 0.00616009)
(0.0268701 -2.44805e-09 0.00616019)
(0.0235436 -1.72658e-09 0.0061423)
(0.0202391 -1.95597e-09 0.00610329)
(0.0169686 -3.86434e-09 0.00603944)
(0.0137458 -6.11251e-09 0.00594608)
(0.0105871 -6.96343e-09 0.00581793)
(0.00751021 -6.75594e-09 0.00564633)
(0.00453647 -7.37747e-09 0.00542261)
(0.00168991 -8.48918e-09 0.0051404)
(-0.00100352 -7.3137e-09 0.00478996)
(-0.00350742 -4.01187e-09 0.00435913)
(-0.00578713 -3.35417e-09 0.00383258)
(-0.00780133 -6.30668e-09 0.00319194)
(-0.00950406 -6.60936e-09 0.00241512)
(-0.010845 -4.16511e-09 0.00147694)
(-0.0117711 -8.32071e-09 0.00035164)
(-0.0122307 -1.56554e-08 -0.000977959)
(-0.0121724 -1.64473e-08 -0.00251016)
(-0.0115653 -2.22269e-08 -0.00419905)
(-0.0103922 -2.65693e-08 -0.00587541)
(-0.00870968 -2.66467e-08 -0.00713267)
(-0.00619422 -2.81226e-08 -0.00682317)
(-0.00357785 4.15559e-08 -0.00315276)
(-0.00998686 -7.39559e-08 0.032539)
(-0.013382 4.93228e-08 0.0178349)
(-0.0115882 3.82706e-08 0.00436)
(-0.00672105 2.95013e-08 -0.00650638)
(0.000623241 2.32378e-08 -0.0142016)
(0.0098912 1.91713e-08 -0.0192821)
(0.0205284 1.72008e-08 -0.022459)
(0.0321113 1.57244e-08 -0.0242479)
(0.0442473 1.40548e-08 -0.0250504)
(0.056664 1.22063e-08 -0.0252144)
(0.0691241 9.91614e-09 -0.0249451)
(0.0814591 7.45563e-09 -0.0243832)
(0.0935443 5.08173e-09 -0.0236243)
(0.10529 3.11237e-09 -0.0227347)
(0.116632 1.83022e-09 -0.0217616)
(0.127526 1.46943e-09 -0.0207388)
(0.137944 2.17088e-09 -0.019691)
(0.147869 3.86889e-09 -0.0186364)
(0.157293 6.2427e-09 -0.0175882)
(0.166213 8.83447e-09 -0.0165562)
(0.174635 1.12073e-08 -0.0155476)
(0.182566 1.30186e-08 -0.0145676)
(0.190016 1.40199e-08 -0.0136196)
(0.196999 1.41179e-08 -0.0127062)
(0.203529 1.34174e-08 -0.0118288)
(0.209622 1.22019e-08 -0.0109881)
(0.215294 1.08522e-08 -0.0101844)
(0.220563 9.73566e-09 -0.00941748)
(0.225444 9.11792e-09 -0.00868675)
(0.229955 9.15169e-09 -0.00799143)
(0.234112 9.87125e-09 -0.00733056)
(0.237932 1.11824e-08 -0.00670305)
(0.241431 1.28509e-08 -0.0061077)
(0.244624 1.45608e-08 -0.00554328)
(0.247527 1.59971e-08 -0.00500854)
(0.250153 1.69394e-08 -0.00450221)
(0.252517 1.72706e-08 -0.00402303)
(0.254632 1.69946e-08 -0.00356978)
(0.256512 1.61926e-08 -0.00314125)
(0.258168 1.50033e-08 -0.0027363)
(0.259612 1.36189e-08 -0.00235379)
(0.260856 1.22602e-08 -0.00199267)
(0.26191 1.1137e-08 -0.00165191)
(0.262785 1.04036e-08 -0.00133053)
(0.26349 1.00957e-08 -0.00102759)
(0.264035 1.01533e-08 -0.000742229)
(0.264429 1.04231e-08 -0.000473589)
(0.264681 1.07367e-08 -0.000220874)
(0.264799 1.09142e-08 1.66681e-05)
(0.26479 1.0829e-08 0.000239723)
(0.264661 1.04264e-08 0.000448997)
(0.264421 9.67971e-09 0.000645191)
(0.264076 8.60225e-09 0.000828951)
(0.263632 7.2502e-09 0.00100089)
(0.263096 5.71967e-09 0.00116157)
(0.262473 4.13014e-09 0.00131157)
(0.261769 2.60676e-09 0.0014514)
(0.26099 1.27707e-09 0.00158159)
(0.26014 2.33883e-10 0.00170262)
(0.259223 -4.66654e-10 0.00181497)
(0.258246 -8.24064e-10 0.00191909)
(0.257212 -8.77846e-10 0.00201542)
(0.256125 -7.06048e-10 0.0021044)
(0.254988 -3.94335e-10 0.00218641)
(0.253807 -3.4555e-11 0.00226186)
(0.252583 3.0714e-10 0.00233112)
(0.251322 5.87444e-10 0.00239455)
(0.250024 7.8018e-10 0.00245251)
(0.248694 9.02959e-10 0.00250532)
(0.247334 9.75768e-10 0.00255332)
(0.245947 1.03477e-09 0.0025968)
(0.244535 1.12234e-09 0.00263606)
(0.2431 1.2651e-09 0.00267139)
(0.241645 1.48972e-09 0.00270306)
(0.240171 1.80477e-09 0.00273133)
(0.238681 2.22023e-09 0.00275643)
(0.237175 2.73943e-09 0.00277862)
(0.235656 3.35335e-09 0.00279812)
(0.234125 4.06862e-09 0.00281513)
(0.232583 4.88289e-09 0.00282987)
(0.231031 5.79377e-09 0.00284253)
(0.229472 6.79982e-09 0.0028533)
(0.227905 7.88678e-09 0.00286234)
(0.226331 9.04465e-09 0.00286983)
(0.224752 1.02315e-08 0.00287592)
(0.223168 1.14184e-08 0.00288076)
(0.22158 1.25635e-08 0.00288449)
(0.219989 1.36228e-08 0.00288725)
(0.218395 1.4558e-08 0.00288915)
(0.216798 1.53403e-08 0.00289031)
(0.215199 1.59524e-08 0.00289086)
(0.213598 1.6403e-08 0.00289088)
(0.211996 1.67024e-08 0.0028905)
(0.210393 1.68799e-08 0.00288979)
(0.208789 1.69712e-08 0.00288884)
(0.207183 1.70117e-08 0.00288776)
(0.205577 1.70336e-08 0.00288661)
(0.20397 1.70455e-08 0.00288548)
(0.202363 1.7054e-08 0.00288444)
(0.200754 1.70364e-08 0.00288356)
(0.199145 1.69588e-08 0.00288291)
(0.197534 1.6779e-08 0.00288255)
(0.195923 1.64425e-08 0.00288256)
(0.19431 1.5909e-08 0.00288298)
(0.192695 1.51418e-08 0.00288389)
(0.191078 1.41334e-08 0.00288533)
(0.18946 1.28999e-08 0.00288736)
(0.187839 1.14869e-08 0.00289005)
(0.186215 9.95496e-09 0.00289343)
(0.184587 8.39448e-09 0.00289757)
(0.182957 6.90109e-09 0.00290251)
(0.181322 5.56142e-09 0.00290831)
(0.179682 4.454e-09 0.00291502)
(0.178038 3.64068e-09 0.00292269)
(0.176388 3.16096e-09 0.00293136)
(0.174732 3.00867e-09 0.00294108)
(0.17307 3.16477e-09 0.00295191)
(0.1714 3.57166e-09 0.00296389)
(0.169722 4.15131e-09 0.00297706)
(0.168035 4.8171e-09 0.00299149)
(0.16634 5.47242e-09 0.00300722)
(0.164634 6.01875e-09 0.00302429)
(0.162918 6.38901e-09 0.00304275)
(0.16119 6.51084e-09 0.00306266)
(0.15945 6.35617e-09 0.00308405)
(0.157697 5.92167e-09 0.00310699)
(0.15593 5.23637e-09 0.00313151)
(0.154148 4.37117e-09 0.00315766)
(0.152351 3.4208e-09 0.00318548)
(0.150537 2.50421e-09 0.00321503)
(0.148706 1.73991e-09 0.00324634)
(0.146856 1.23735e-09 0.00327945)
(0.144987 1.06412e-09 0.00331441)
(0.143097 1.25258e-09 0.00335125)
(0.141186 1.76751e-09 0.00339)
(0.139253 2.54703e-09 0.00343072)
(0.137296 3.46933e-09 0.00347342)
(0.135315 4.42971e-09 0.00351813)
(0.133309 5.33297e-09 0.00356489)
(0.131275 6.12868e-09 0.00361372)
(0.129214 6.81493e-09 0.00366463)
(0.127124 7.42028e-09 0.00371764)
(0.125005 7.96376e-09 0.00377278)
(0.122854 8.45489e-09 0.00383004)
(0.120672 8.85655e-09 0.00388943)
(0.118456 9.0907e-09 0.00395095)
(0.116206 9.08594e-09 0.00401458)
(0.113921 8.82419e-09 0.00408031)
(0.111599 8.36256e-09 0.00414812)
(0.109241 7.83812e-09 0.00421796)
(0.106844 7.41171e-09 0.00428979)
(0.104408 7.20993e-09 0.00436355)
(0.101931 7.248e-09 0.00443918)
(0.0994144 7.4336e-09 0.00451659)
(0.0968557 7.60112e-09 0.00459567)
(0.0942546 7.64585e-09 0.00467631)
(0.0916106 7.58399e-09 0.00475836)
(0.088923 7.55163e-09 0.00484168)
(0.0861915 7.70296e-09 0.00492608)
(0.0834158 8.08844e-09 0.00501134)
(0.0805958 8.53389e-09 0.00509723)
(0.0777313 8.749e-09 0.00518347)
(0.0748226 8.49486e-09 0.00526976)
(0.0718701 7.8048e-09 0.00535574)
(0.0688742 6.98911e-09 0.005441)
(0.065836 6.38947e-09 0.00552509)
(0.0627564 6.09251e-09 0.00560751)
(0.0596368 5.81743e-09 0.00568766)
(0.0564791 5.12452e-09 0.00576488)
(0.0532853 3.88337e-09 0.00583842)
(0.0500581 2.4509e-09 0.00590742)
(0.0468006 1.44199e-09 0.00597089)
(0.0435163 1.03747e-09 0.00602774)
(0.0402095 7.55734e-10 0.00607666)
(0.0368853 -8.66141e-11 0.00611621)
(0.0335494 -1.48006e-09 0.00614467)
(0.0302084 -2.53371e-09 0.00616009)
(0.0268702 -2.44804e-09 0.00616018)
(0.0235436 -1.72657e-09 0.0061423)
(0.0202391 -1.95596e-09 0.00610329)
(0.0169686 -3.86433e-09 0.00603944)
(0.0137458 -6.11249e-09 0.00594608)
(0.0105871 -6.9634e-09 0.00581793)
(0.00751023 -6.75591e-09 0.00564634)
(0.00453649 -7.37744e-09 0.00542261)
(0.00168993 -8.48915e-09 0.0051404)
(-0.00100349 -7.31367e-09 0.00478996)
(-0.00350739 -4.01186e-09 0.00435914)
(-0.00578711 -3.35416e-09 0.00383258)
(-0.00780131 -6.30666e-09 0.00319194)
(-0.00950404 -6.60933e-09 0.00241512)
(-0.010845 -4.1651e-09 0.00147695)
(-0.0117711 -8.32068e-09 0.000351654)
(-0.0122307 -1.56553e-08 -0.000977944)
(-0.0121724 -1.64471e-08 -0.00251014)
(-0.0115653 -2.22263e-08 -0.00419904)
(-0.0103922 -2.65682e-08 -0.00587541)
(-0.00870971 -2.66469e-08 -0.00713264)
(-0.00619433 -2.81254e-08 -0.0068232)
(-0.00357781 4.15641e-08 -0.0031531)
(-0.00204448 1.1496e-07 0.0404149)
(-0.000180615 5.4013e-08 0.0150483)
(0.00573734 2.83949e-08 -0.00227394)
(0.0127993 2.35316e-08 -0.0148587)
(0.0208202 2.28219e-08 -0.0238626)
(0.0296753 2.26484e-08 -0.0300504)
(0.039253 2.23569e-08 -0.0340857)
(0.0493961 2.1669e-08 -0.0365008)
(0.05994 2.04196e-08 -0.0377172)
(0.0707207 1.87262e-08 -0.0380738)
(0.0815804 1.66949e-08 -0.0378133)
(0.0923898 1.45213e-08 -0.0371131)
(0.103044 1.24125e-08 -0.0361017)
(0.113461 1.05925e-08 -0.0348736)
(0.123579 9.22375e-09 -0.0334986)
(0.133351 8.49461e-09 -0.0320286)
(0.142744 8.47269e-09 -0.0305028)
(0.151735 8.98522e-09 -0.0289505)
(0.16031 9.80473e-09 -0.0273941)
(0.168461 1.07522e-08 -0.0258505)
(0.176187 1.16279e-08 -0.0243322)
(0.183489 1.21814e-08 -0.0228485)
(0.190373 1.22485e-08 -0.0214065)
(0.196847 1.18439e-08 -0.020011)
(0.202921 1.10981e-08 -0.0186651)
(0.208605 1.01582e-08 -0.0173712)
(0.213913 9.19682e-09 -0.0161301)
(0.218858 8.40155e-09 -0.0149424)
(0.223452 7.93705e-09 -0.0138076)
(0.227711 7.8823e-09 -0.0127251)
(0.231647 8.21353e-09 -0.0116939)
(0.235274 8.82506e-09 -0.0107126)
(0.238607 9.58484e-09 -0.00977975)
(0.241658 1.03375e-08 -0.00889366)
(0.244441 1.09231e-08 -0.00805264)
(0.246967 1.12146e-08 -0.00725495)
(0.24925 1.11463e-08 -0.00649882)
(0.251301 1.07248e-08 -0.00578249)
(0.253132 1.00143e-08 -0.00510424)
(0.254753 9.11647e-09 -0.00446238)