/*--------------------------------*- C++ -*----------------------------------*\
  =========                 |
  \\      /  F ield         | OpenFOAM: The Open Source CFD Toolbox
   \\    /   O peration     | Website:  https://openfoam.org
    \\  /    A nd           | Version:  8
     \\/     M anipulation  |
\*---------------------------------------------------------------------------*/
FoamFile
{
    version     2.0;
    format      ascii;
    class       volScalarField;
    location    "2500";
    object      alphat;
}
// * * * * * * * * * * * * * * * * * * * * * * * * * * * * * * * * * * * * * //

dimensions      [1 -1 -1 0 0 0 0];

internalField   nonuniform List<scalar> 
46000
(
2.60741e-07
1.2841e-06
2.57841e-06
3.82485e-06
5.01603e-06
6.17623e-06
7.31081e-06
8.42579e-06
9.52613e-06
1.06165e-05
1.17006e-05
1.27744e-05
1.38419e-05
1.49038e-05
1.59602e-05
1.70112e-05
1.80563e-05
1.90951e-05
2.0127e-05
2.11512e-05
2.21669e-05
2.31731e-05
2.41689e-05
2.51531e-05
2.61248e-05
2.70826e-05
2.80255e-05
2.89521e-05
2.98612e-05
3.07516e-05
3.16218e-05
3.24708e-05
3.3297e-05
3.40993e-05
3.48764e-05
3.56271e-05
3.635e-05
3.70441e-05
3.77081e-05
3.8341e-05
3.89418e-05
3.95094e-05
4.0043e-05
4.05417e-05
4.10048e-05
4.14315e-05
4.18213e-05
4.21738e-05
4.24884e-05
4.27649e-05
4.30031e-05
4.32028e-05
4.33642e-05
4.34873e-05
4.35722e-05
4.36194e-05
4.36291e-05
4.3602e-05
4.35385e-05
4.34396e-05
4.33059e-05
4.31389e-05
4.2941e-05
4.27133e-05
4.24549e-05
4.21667e-05
4.18499e-05
4.15055e-05
4.1135e-05
4.07397e-05
4.03209e-05
3.98802e-05
3.94188e-05
3.89384e-05
3.84403e-05
3.7926e-05
3.7397e-05
3.68547e-05
3.63005e-05
3.5736e-05
3.51625e-05
3.45813e-05
3.39939e-05
3.34016e-05
3.28055e-05
3.2207e-05
3.16073e-05
3.10074e-05
3.04085e-05
2.98116e-05
2.92178e-05
2.86278e-05
2.80427e-05
2.74633e-05
2.68903e-05
2.63244e-05
2.57664e-05
2.52167e-05
2.46761e-05
2.41449e-05
2.36236e-05
2.31127e-05
2.26124e-05
2.21232e-05
2.16451e-05
2.11785e-05
2.07235e-05
2.02801e-05
1.98486e-05
1.9429e-05
1.90212e-05
1.86252e-05
1.8241e-05
1.78685e-05
1.75076e-05
1.7158e-05
1.68198e-05
1.64925e-05
1.61762e-05
1.58704e-05
1.55749e-05
1.52896e-05
1.5014e-05
1.4748e-05
1.44911e-05
1.4243e-05
1.40035e-05
1.37722e-05
1.35486e-05
1.33326e-05
1.31236e-05
1.29215e-05
1.27256e-05
1.25356e-05
1.23515e-05
1.21726e-05
1.19986e-05
1.18289e-05
1.16632e-05
1.15011e-05
1.13421e-05
1.1186e-05
1.10322e-05
1.08804e-05
1.07301e-05
1.05811e-05
1.04329e-05
1.02852e-05
1.01376e-05
9.9897e-06
9.84121e-06
9.69177e-06
9.54108e-06
9.38882e-06
9.23472e-06
9.07849e-06
8.91989e-06
8.75868e-06
8.59466e-06
8.42763e-06
8.25743e-06
8.0839e-06
7.90693e-06
7.72644e-06
7.54343e-06
7.35793e-06
7.16912e-06
6.97686e-06
6.7812e-06
6.58223e-06
6.38006e-06
6.17486e-06
5.96679e-06
5.75606e-06
5.5429e-06
5.32755e-06
5.11028e-06
4.89137e-06
4.67111e-06
4.4498e-06
4.22775e-06
4.00525e-06
3.78261e-06
3.56011e-06
3.338e-06
3.11652e-06
2.89578e-06
2.67517e-06
2.45617e-06
2.2382e-06
2.02061e-06
1.80351e-06
1.58586e-06
1.36664e-06
1.14713e-06
9.24485e-07
6.93939e-07
4.53147e-07
2.12599e-07
4.05705e-08
2.60801e-07
1.28437e-06
2.57876e-06
3.82517e-06
5.01628e-06
6.17642e-06
7.31096e-06
8.42594e-06
9.52628e-06
1.06166e-05
1.17007e-05
1.27746e-05
1.3842e-05
1.49039e-05
1.59603e-05
1.70113e-05
1.80564e-05
1.90952e-05
2.01271e-05
2.11513e-05
2.2167e-05
2.31732e-05
2.4169e-05
2.51533e-05
2.61249e-05
2.70827e-05
2.80256e-05
2.89522e-05
2.98613e-05
3.07517e-05
3.16219e-05
3.24708e-05
3.32971e-05
3.40994e-05
3.48765e-05
3.56271e-05
3.63501e-05
3.70441e-05
3.77082e-05
3.83411e-05
3.89419e-05
3.95095e-05
4.00431e-05
4.05418e-05
4.10048e-05
4.14316e-05
4.18214e-05
4.21738e-05
4.24884e-05
4.27649e-05
4.30031e-05
4.32029e-05
4.33642e-05
4.34873e-05
4.35722e-05
4.36194e-05
4.36291e-05
4.3602e-05
4.35386e-05
4.34396e-05
4.3306e-05
4.3139e-05
4.2941e-05
4.27133e-05
4.24549e-05
4.21668e-05
4.18499e-05
4.15055e-05
4.1135e-05
4.07397e-05
4.03209e-05
3.98802e-05
3.94188e-05
3.89384e-05
3.84403e-05
3.7926e-05
3.73969e-05
3.68546e-05
3.63005e-05
3.5736e-05
3.51625e-05
3.45813e-05
3.39939e-05
3.34016e-05
3.28055e-05
3.2207e-05
3.16073e-05
3.10074e-05
3.04085e-05
2.98116e-05
2.92177e-05
2.86278e-05
2.80427e-05
2.74632e-05
2.68902e-05
2.63244e-05
2.57663e-05
2.52167e-05
2.4676e-05
2.41448e-05
2.36236e-05
2.31127e-05
2.26124e-05
2.21231e-05
2.16451e-05
2.11784e-05
2.07234e-05
2.02801e-05
1.98486e-05
1.94289e-05
1.90211e-05
1.86252e-05
1.8241e-05
1.78685e-05
1.75075e-05
1.7158e-05
1.68197e-05
1.64925e-05
1.61761e-05
1.58703e-05
1.55749e-05
1.52895e-05
1.5014e-05
1.47479e-05
1.4491e-05
1.4243e-05
1.40035e-05
1.37721e-05
1.35486e-05
1.33325e-05
1.31236e-05
1.29214e-05
1.27255e-05
1.25355e-05
1.23514e-05
1.21726e-05
1.19985e-05
1.18288e-05
1.16631e-05
1.1501e-05
1.13421e-05
1.11859e-05
1.10321e-05
1.08803e-05
1.07301e-05
1.05811e-05
1.04329e-05
1.02852e-05
1.01375e-05
9.98965e-06
9.84115e-06
9.69172e-06
9.54103e-06
9.38877e-06
9.23467e-06
9.07844e-06
8.91984e-06
8.75863e-06
8.59461e-06
8.42758e-06
8.25738e-06
8.08386e-06
7.90688e-06
7.7264e-06
7.54338e-06
7.35789e-06
7.16908e-06
6.97683e-06
6.78117e-06
6.58219e-06
6.38003e-06
6.17482e-06
5.96676e-06
5.75603e-06
5.54287e-06
5.32752e-06
5.11025e-06
4.89135e-06
4.67109e-06
4.44978e-06
4.22773e-06
4.00523e-06
3.78259e-06
3.56009e-06
3.33799e-06
3.1165e-06
2.89577e-06
2.67516e-06
2.45616e-06
2.23819e-06
2.0206e-06
1.8035e-06
1.58586e-06
1.36664e-06
1.14713e-06
9.24481e-07
6.93936e-07
4.53145e-07
2.12597e-07
4.05703e-08
1.17341e-06
2.50059e-05
4.63172e-05
6.08341e-05
7.19471e-05
8.10247e-05
8.88096e-05
9.57341e-05
0.000102034
0.000107854
0.000113293
0.000118428
0.000123302
0.000127952
0.000132404
0.000136678
0.000140793
0.00014476
0.000148592
0.000152296
0.00015588
0.000159349
0.000162709
0.000165963
0.000169114
0.000172164
0.000175117
0.000177972
0.000180733
0.000183398
0.00018597
0.000188449
0.000190834
0.000193126
0.000195325
0.000197431
0.000199443
0.000201361
0.000203185
0.000204914
0.000206549
0.000208088
0.000209531
0.000210878
0.00021213
0.000213284
0.000214342
0.000215304
0.000216169
0.000216937
0.000217609
0.000218185
0.000218666
0.000219052
0.000219344
0.000219542
0.000219648
0.000219662
0.000219586
0.00021942
0.000219165
0.000218822
0.000218387
0.000217864
0.000217259
0.000216575
0.000215815
0.000214982
0.000214078
0.000213105
0.000212067
0.000210965
0.000209803
0.000208584
0.00020731
0.000205984
0.000204608
0.000203187
0.000201722
0.000200217
0.000198675
0.000197098
0.00019549
0.000193853
0.00019219
0.000190504
0.000188799
0.000187076
0.000185339
0.00018359
0.000181832
0.000180067
0.000178298
0.000176527
0.000174758
0.000172991
0.000171229
0.000169475
0.000167731
0.000165997
0.000164277
0.000162572
0.000160884
0.000159214
0.000157563
0.000155934
0.000154327
0.000152744
0.000151185
0.000149652
0.000148146
0.000146666
0.000145215
0.000143792
0.000142397
0.000141032
0.000139696
0.00013839
0.000137113
0.000135865
0.000134647
0.000133458
0.000132297
0.000131164
0.000130059
0.000128981
0.000127929
0.000126902
0.0001259
0.000124922
0.000123967
0.000123033
0.00012212
0.000121227
0.00012035
0.00011949
0.000118644
0.000117811
0.00011699
0.000116178
0.000115375
0.000114579
0.000113788
0.000112999
0.000112212
0.000111425
0.000110635
0.000109842
0.000109042
0.000108235
0.000107419
0.000106591
0.00010575
0.000104894
0.000104022
0.000103132
0.000102222
0.00010129
0.000100335
9.93555e-05
9.83498e-05
9.73162e-05
9.62527e-05
9.51553e-05
9.40138e-05
9.28353e-05
9.16202e-05
9.03685e-05
8.90797e-05
8.77531e-05
8.63882e-05
8.49842e-05
8.35402e-05
8.20557e-05
8.05299e-05
7.89619e-05
7.73508e-05
7.56957e-05
7.39953e-05
7.22484e-05
7.04532e-05
6.86077e-05
6.67093e-05
6.47549e-05
6.27404e-05
6.06608e-05
5.851e-05
5.62814e-05
5.39573e-05
5.152e-05
4.89435e-05
4.6195e-05
4.32145e-05
3.99053e-05
3.60584e-05
3.15609e-05
2.60617e-05
1.88499e-05
8.64949e-06
1.88971e-07
1.17336e-06
2.50064e-05
4.63188e-05
6.08367e-05
7.19505e-05
8.10288e-05
8.88137e-05
9.57382e-05
0.000102038
0.000107858
0.000113297
0.000118432
0.000123307
0.000127956
0.000132408
0.000136683
0.000140797
0.000144765
0.000148597
0.000152301
0.000155885
0.000159354
0.000162714
0.000165968
0.000169119
0.000172169
0.000175122
0.000177978
0.000180738
0.000183404
0.000185976
0.000188455
0.00019084
0.000193132
0.000195331
0.000197437
0.000199449
0.000201367
0.000203191
0.00020492
0.000206555
0.000208094
0.000209537
0.000210885
0.000212136
0.000213291
0.000214349
0.00021531
0.000216175
0.000216943
0.000217615
0.000218192
0.000218672
0.000219058
0.00021935
0.000219548
0.000219654
0.000219668
0.000219592
0.000219426
0.000219172
0.000218828
0.000218393
0.000217871
0.000217265
0.000216581
0.000215821
0.000214988
0.000214084
0.000213111
0.000212073
0.000210971
0.000209809
0.00020859
0.000207315
0.000205989
0.000204614
0.000203192
0.000201727
0.000200222
0.00019868
0.000197103
0.000195495
0.000193858
0.000192195
0.000190509
0.000188804
0.000187081
0.000185343
0.000183594
0.000181836
0.000180071
0.000178302
0.000176532
0.000174762
0.000172995
0.000171233
0.000169479
0.000167734
0.000166001
0.000164281
0.000162576
0.000160887
0.000159217
0.000157567
0.000155937
0.00015433
0.000152747
0.000151188
0.000149655
0.000148149
0.000146669
0.000145217
0.000143794
0.0001424
0.000141034
0.000139698
0.000138392
0.000137115
0.000135867
0.000134649
0.00013346
0.000132299
0.000131166
0.000130061
0.000128983
0.000127931
0.000126904
0.000125902
0.000124923
0.000123968
0.000123034
0.000122122
0.000121228
0.000120351
0.000119491
0.000118645
0.000117812
0.000116991
0.000116179
0.000115376
0.00011458
0.000113788
0.000113
0.000112213
0.000111426
0.000110636
0.000109842
0.000109043
0.000108236
0.000107419
0.000106591
0.00010575
0.000104895
0.000104022
0.000103132
0.000102222
0.00010129
0.000100335
9.93556e-05
9.83499e-05
9.73163e-05
9.62527e-05
9.51553e-05
9.40138e-05
9.28352e-05
9.16201e-05
9.03684e-05
8.90796e-05
8.77531e-05
8.63881e-05
8.49841e-05
8.35401e-05
8.20556e-05
8.05298e-05
7.89617e-05
7.73507e-05
7.56956e-05
7.39952e-05
7.22483e-05
7.04531e-05
6.86076e-05
6.67092e-05
6.47548e-05
6.27403e-05
6.06607e-05
5.85099e-05
5.62813e-05
5.39573e-05
5.152e-05
4.89435e-05
4.6195e-05
4.32146e-05
3.99054e-05
3.60585e-05
3.1561e-05
2.60617e-05
1.885e-05
8.64951e-06
1.88972e-07
2.40575e-06
4.50433e-05
9.15161e-05
0.000126047
0.000152656
0.00017413
0.000192168
0.000207801
0.000221675
0.000234209
0.000245687
0.000256311
0.000266225
0.000275536
0.000284325
0.000292656
0.000300578
0.000308132
0.000315351
0.000322262
0.000328886
0.000335242
0.000341345
0.000347209
0.000352843
0.000358259
0.000363463
0.000368463
0.000373264
0.000377871
0.00038229
0.000386523
0.000390575
0.000394447
0.000398144
0.000401666
0.000405015
0.000408195
0.000411206
0.000414049
0.000416727
0.000419239
0.000421589
0.000423776
0.000425802
0.000427667
0.000429374
0.000430923
0.000432315
0.000433551
0.000434634
0.000435563
0.000436341
0.000436969
0.000437449
0.000437781
0.000437969
0.000438012
0.000437914
0.000437675
0.000437296
0.000436776
0.000436116
0.000435317
0.000434387
0.000433332
0.000432157
0.000430865
0.00042946
0.000427946
0.000426327
0.000424607
0.000422789
0.000420878
0.000418877
0.00041679
0.000414621
0.000412375
0.000410055
0.000407666
0.000405212
0.000402697
0.000400126
0.000397502
0.00039483
0.000392114
0.000389359
0.000386568
0.000383746
0.000380896
0.000378024
0.000375132
0.000372224
0.000369306
0.000366379
0.000363448
0.000360517
0.000357589
0.000354668
0.000351755
0.000348856
0.000345972
0.000343107
0.000340263
0.000337443
0.00033465
0.000331885
0.000329151
0.000326449
0.000323782
0.000321151
0.000318558
0.000316004
0.00031349
0.000311016
0.000308585
0.000306196
0.00030385
0.000301546
0.000299286
0.000297069
0.000294894
0.000292762
0.000290671
0.000288621
0.000286611
0.000284639
0.000282706
0.000280808
0.000278947
0.000277119
0.000275322
0.000273554
0.000271813
0.000270095
0.000268398
0.00026672
0.000265059
0.000263412
0.000261776
0.000260148
0.000258525
0.000256905
0.000255283
0.000253658
0.000252025
0.000250382
0.000248726
0.000247053
0.000245361
0.000243645
0.000241903
0.000240132
0.000238329
0.000236491
0.000234615
0.000232698
0.000230736
0.000228729
0.000226672
0.000224562
0.000222397
0.000220172
0.000217881
0.000215515
0.000213075
0.000210561
0.000207975
0.000205315
0.00020258
0.000199767
0.000196876
0.000193902
0.000190845
0.0001877
0.000184465
0.000181136
0.000177708
0.000174176
0.000170535
0.000166776
0.000162892
0.000158872
0.000154704
0.000150373
0.000145859
0.000141139
0.000136182
0.000130942
0.000125362
0.000119361
0.000112816
0.000105549
9.73055e-05
8.767e-05
7.60406e-05
6.1577e-05
4.27402e-05
1.8098e-05
4.09161e-07
2.40584e-06
4.50461e-05
9.15224e-05
0.000126055
0.000152665
0.00017414
0.000192177
0.00020781
0.000221685
0.000234218
0.000245696
0.00025632
0.000266235
0.000275545
0.000284334
0.000292665
0.000300587
0.000308141
0.000315361
0.000322271
0.000328895
0.000335251
0.000341354
0.000347218
0.000352853
0.000358268
0.000363473
0.000368472
0.000373273
0.000377881
0.0003823
0.000386533
0.000390585
0.000394457
0.000398153
0.000401675
0.000405025
0.000408205
0.000411215
0.000414059
0.000416736
0.000419249
0.000421599
0.000423786
0.000425812
0.000427677
0.000429384
0.000430933
0.000432325
0.000433561
0.000434644
0.000435573
0.000436351
0.000436979
0.000437458
0.000437791
0.000437978
0.000438022
0.000437923
0.000437684
0.000437305
0.000436785
0.000436125
0.000435326
0.000434396
0.000433341
0.000432165
0.000430873
0.000429468
0.000427955
0.000426336
0.000424615
0.000422797
0.000420886
0.000418884
0.000416797
0.000414628
0.000412382
0.000410062
0.000407673
0.000405219
0.000402704
0.000400132
0.000397508
0.000394836
0.000392121
0.000389365
0.000386574
0.000383752
0.000380902
0.000378029
0.000375137
0.00037223
0.000369311
0.000366384
0.000363454
0.000360522
0.000357594
0.000354672
0.00035176
0.00034886
0.000345977
0.000343111
0.000340267
0.000337447
0.000334654
0.000331888
0.000329154
0.000326452
0.000323785
0.000321154
0.000318561
0.000316007
0.000313492
0.000311019
0.000308587
0.000306198
0.000303852
0.000301548
0.000299288
0.000297071
0.000294896
0.000292763
0.000290672
0.000288622
0.000286612
0.00028464
0.000282707
0.000280809
0.000278948
0.00027712
0.000275323
0.000273555
0.000271813
0.000270095
0.000268398
0.000266721
0.00026506
0.000263412
0.000261776
0.000260148
0.000258525
0.000256904
0.000255283
0.000253657
0.000252025
0.000250382
0.000248726
0.000247053
0.00024536
0.000243644
0.000241902
0.000240132
0.000238328
0.00023649
0.000234614
0.000232697
0.000230736
0.000228728
0.000226671
0.000224561
0.000222396
0.000220171
0.00021788
0.000215514
0.000213073
0.00021056
0.000207974
0.000205314
0.000202579
0.000199766
0.000196874
0.000193901
0.000190844
0.000187699
0.000184464
0.000181135
0.000177707
0.000174175
0.000170534
0.000166775
0.000162891
0.000158871
0.000154703
0.000150372
0.000145858
0.000141138
0.000136181
0.000130941
0.000125361
0.000119361
0.000112815
0.000105549
9.73054e-05
8.76699e-05
7.60406e-05
6.1577e-05
4.27402e-05
1.8098e-05
4.09163e-07
3.63336e-06
5.89815e-05
0.000124701
0.000177568
0.000219914
0.000254769
0.000284251
0.000309782
0.000332326
0.000352549
0.000370924
0.000387792
0.000403408
0.000417962
0.000431602
0.000444443
0.000456577
0.000468077
0.000479004
0.000489407
0.000499327
0.000508797
0.000517848
0.000526502
0.000534782
0.000542704
0.000550285
0.000557538
0.000564474
0.000571104
0.000577438
0.000583482
0.000589245
0.000594733
0.000599951
0.000604906
0.000609601
0.000614042
0.000618233
0.000622177
0.000625878
0.00062934
0.000632566
0.00063556
0.000638323
0.000640859
0.000643171
0.000645262
0.000647135
0.000648792
0.000650236
0.00065147
0.000652496
0.000653318
0.000653938
0.000654359
0.000654584
0.000654614
0.000654454
0.000654104
0.000653567
0.000652844
0.000651936
0.000650847
0.000649583
0.000648152
0.00064656
0.000644811
0.000642912
0.000640867
0.000638681
0.000636359
0.000633905
0.000631326
0.000628626
0.00062581
0.000622883
0.00061985
0.000616718
0.000613491
0.000610174
0.000606773
0.000603294
0.000599742
0.000596121
0.000592439
0.000588699
0.000584909
0.000581072
0.000577194
0.000573281
0.000569337
0.000565368
0.00056138
0.000557375
0.000553361
0.000549341
0.000545319
0.000541301
0.000537291
0.000533293
0.00052931
0.000525347
0.000521408
0.000517495
0.000513613
0.000509764
0.000505951
0.000502176
0.000498443
0.000494753
0.000491108
0.000487511
0.000483962
0.000480464
0.000477016
0.00047362
0.000470276
0.000466985
0.000463746
0.00046056
0.000457426
0.000454343
0.000451311
0.000448329
0.000445395
0.000442507
0.000439665
0.000436867
0.000434111
0.000431394
0.000428712
0.000426062
0.000423441
0.000420846
0.000418273
0.000415719
0.000413181
0.000410655
0.000408137
0.000405622
0.000403108
0.00040059
0.000398064
0.000395525
0.000392969
0.000390393
0.000387791
0.000385159
0.000382494
0.000379791
0.000377046
0.000374254
0.000371412
0.000368516
0.000365563
0.000362547
0.000359465
0.000356315
0.000353091
0.00034979
0.000346407
0.000342938
0.000339375
0.000335712
0.000331945
0.000328074
0.000324098
0.000320014
0.00031582
0.000311512
0.000307087
0.00030254
0.000297867
0.00029306
0.000288113
0.000283018
0.000277767
0.000272348
0.000266749
0.000260955
0.000254949
0.00024871
0.000242214
0.000235428
0.000228315
0.000220827
0.000212903
0.00020446
0.000195389
0.000185543
0.000174716
0.000162618
0.000148835
0.000132767
0.000113561
9.00496e-05
6.06234e-05
2.49104e-05
6.40179e-07
3.63351e-06
5.89848e-05
0.000124709
0.000177579
0.000219928
0.000254783
0.000284266
0.000309797
0.000332341
0.000352564
0.000370938
0.000387806
0.000403422
0.000417976
0.000431616
0.000444457
0.000456591
0.000468091
0.000479018
0.000489421
0.00049934
0.000508811
0.000517861
0.000526516
0.000534795
0.000542718
0.000550298
0.000557551
0.000564487
0.000571118
0.000577451
0.000583495
0.000589258
0.000594746
0.000599964
0.000604919
0.000609614
0.000614055
0.000618246
0.00062219
0.000625891
0.000629353
0.000632579
0.000635572
0.000638335
0.000640872
0.000643184
0.000645275
0.000647147
0.000648804
0.000650248
0.000651482
0.000652508
0.00065333
0.00065395
0.000654371
0.000654595
0.000654626
0.000654465
0.000654115
0.000653578
0.000652854
0.000651947
0.000650857
0.000649593
0.000648162
0.00064657
0.000644821
0.000642922
0.000640877
0.00063869
0.000636368
0.000633915
0.000631335
0.000628635
0.000625818
0.000622891
0.000619859
0.000616726
0.000613499
0.000610182
0.000606781
0.000603301
0.000599749
0.000596128
0.000592446
0.000588706
0.000584915
0.000581078
0.0005772
0.000573287
0.000569343
0.000565374
0.000561385
0.000557381
0.000553366
0.000549346
0.000545324
0.000541306
0.000537296
0.000533297
0.000529314
0.000525351
0.000521412
0.000517499
0.000513617
0.000509767
0.000505954
0.000502179
0.000498446
0.000494756
0.000491111
0.000487513
0.000483965
0.000480466
0.000477018
0.000473621
0.000470277
0.000466986
0.000463747
0.000460561
0.000457427
0.000454344
0.000451312
0.00044833
0.000445395
0.000442508
0.000439666
0.000436867
0.000434111
0.000431394
0.000428711
0.000426062
0.000423441
0.000420845
0.000418272
0.000415719
0.00041318
0.000410654
0.000408136
0.000405621
0.000403107
0.000400589
0.000398063
0.000395524
0.000392968
0.000390391
0.000387789
0.000385158
0.000382492
0.000379789
0.000377044
0.000374252
0.00037141
0.000368514
0.000365561
0.000362545
0.000359463
0.000356313
0.000353089
0.000349788
0.000346405
0.000342936
0.000339373
0.00033571
0.000331943
0.000328072
0.000324096
0.000320012
0.000315818
0.00031151
0.000307085
0.000302538
0.000297865
0.000293058
0.000288111
0.000283016
0.000277765
0.000272346
0.000266747
0.000260953
0.000254948
0.000248709
0.000242212
0.000235426
0.000228314
0.000220826
0.000212902
0.000204459
0.000195388
0.000185543
0.000174715
0.000162617
0.000148835
0.000132767
0.000113561
9.00496e-05
6.06235e-05
2.49104e-05
6.40181e-07
4.84236e-06
6.99997e-05
0.000150572
0.000218841
0.000275433
0.000323
0.000363715
0.000399179
0.000430551
0.000458675
0.000484173
0.00050751
0.000529039
0.00054903
0.000567696
0.000585203
0.000601687
0.000617256
0.000631998
0.000645988
0.000659285
0.000671942
0.000684001
0.000695499
0.000706468
0.000716935
0.000726923
0.000736453
0.000745543
0.000754209
0.000762465
0.000770324
0.000777796
0.000784894
0.000791625
0.000797999
0.000804023
0.000809706
0.000815053
0.000820072
0.000824769
0.00082915
0.00083322
0.000836985
0.00084045
0.000843619
0.000846499
0.000849093
0.000851406
0.000853443
0.000855209
0.000856707
0.000857943
0.00085892
0.000859643
0.000860115
0.000860342
0.000860326
0.000860072
0.000859584
0.000858864
0.000857915
0.000856742
0.000855348
0.00085374
0.000851926
0.000849914
0.000847709
0.000845318
0.000842747
0.000840004
0.000837092
0.00083402
0.000830792
0.000827415
0.000823896
0.00082024
0.000816455
0.000812546
0.000808519
0.000804382
0.000800141
0.000795802
0.000791372
0.000786858
0.000782266
0.000777602
0.000772874
0.000768087
0.000763248
0.000758364
0.00075344
0.000748483
0.000743499
0.000738494
0.000733473
0.000728443
0.000723409
0.000718377
0.000713351
0.000708337
0.000703339
0.000698363
0.000693412
0.000688491
0.000683603
0.000678753
0.000673944
0.000669179
0.000664461
0.000659793
0.000655176
0.000650614
0.000646107
0.000641658
0.000637267
0.000632935
0.000628662
0.00062445
0.000620298
0.000616205
0.000612172
0.000608196
0.000604278
0.000600415
0.000596606
0.000592848
0.000589141
0.000585482
0.000581867
0.000578293
0.000574756
0.000571252
0.000567777
0.000564327
0.000560898
0.000557485
0.000554085
0.000550692
0.000547302
0.000543909
0.00054051
0.000537098
0.000533669
0.000530218
0.000526739
0.000523227
0.000519677
0.000516084
0.000512443
0.000508749
0.000504996
0.00050118
0.000497296
0.00049334
0.000489307
0.000485191
0.00048099
0.000476698
0.00047231
0.000467822
0.000463229
0.000458525
0.000453703
0.000448756
0.000443681
0.000438473
0.00043313
0.000427649
0.000422024
0.00041625
0.000410322
0.000404233
0.000397974
0.000391535
0.000384906
0.000378075
0.000371026
0.000363744
0.000356207
0.000348393
0.000340274
0.000331818
0.000322986
0.00031373
0.00030399
0.000293695
0.000282752
0.000271038
0.000258399
0.000244626
0.000229438
0.000212457
0.000193162
0.000170843
0.000144529
0.000112932
7.46606e-05
3.03624e-05
8.73195e-07
4.84252e-06
7.00033e-05
0.000150581
0.000218853
0.000275449
0.000323017
0.000363733
0.000399197
0.00043057
0.000458694
0.000484192
0.000507529
0.000529058
0.000549049
0.000567714
0.000585222
0.000601706
0.000617274
0.000632016
0.000646006
0.000659303
0.00067196
0.000684019
0.000695517
0.000706486
0.000716953
0.000726941
0.000736471
0.00074556
0.000754226
0.000762482
0.00077034
0.000777813
0.00078491
0.000791641
0.000798015
0.000804039
0.000809722
0.000815069
0.000820088
0.000824785
0.000829166
0.000833236
0.000837
0.000840465
0.000843634
0.000846513
0.000849107
0.000851421
0.000853458
0.000855223
0.000856721
0.000857957
0.000858934
0.000859656
0.000860129
0.000860355
0.000860339
0.000860085
0.000859596
0.000858876
0.000857928
0.000856754
0.00085536
0.000853752
0.000851938
0.000849925
0.00084772
0.000845329
0.000842758
0.000840014
0.000837103
0.00083403
0.000830802
0.000827425
0.000823906
0.00082025
0.000816464
0.000812555
0.000808528
0.000804391
0.000800149
0.00079581
0.00079138
0.000786866
0.000782273
0.00077761
0.000772881
0.000768094
0.000763255
0.00075837
0.000753446
0.000748489
0.000743505
0.000738499
0.000733479
0.000728449
0.000723415
0.000718382
0.000713356
0.000708341
0.000703344
0.000698367
0.000693416
0.000688495
0.000683607
0.000678757
0.000673948
0.000669183
0.000664464
0.000659796
0.000655179
0.000650617
0.00064611
0.00064166
0.000637269
0.000632937
0.000628664
0.000624452
0.0006203
0.000616207
0.000612173
0.000608198
0.000604279
0.000600416
0.000596606
0.000592849
0.000589142
0.000585482
0.000581867
0.000578293
0.000574756
0.000571252
0.000567777
0.000564327
0.000560897
0.000557485
0.000554084
0.000550691
0.0005473
0.000543908
0.000540508
0.000537097
0.000533668
0.000530216
0.000526737
0.000523225
0.000519675
0.000516082
0.000512441
0.000508746
0.000504994
0.000501178
0.000497294
0.000493338
0.000489304
0.000485189
0.000480987
0.000476695
0.000472307
0.00046782
0.000463226
0.000458522
0.0004537
0.000448754
0.000443678
0.00043847
0.000433127
0.000427646
0.000422021
0.000416248
0.00041032
0.00040423
0.000397971
0.000391533
0.000384904
0.000378073
0.000371024
0.000363742
0.000356205
0.000348391
0.000340272
0.000331816
0.000322984
0.000313728
0.000303989
0.000293694
0.00028275
0.000271037
0.000258398
0.000244625
0.000229438
0.000212457
0.000193162
0.000170843
0.000144529
0.000112932
7.46607e-05
3.03623e-05
8.73199e-07
6.04969e-06
7.92376e-05
0.000171851
0.000253131
0.000322263
0.000381397
0.000432597
0.000477513
0.000517405
0.000553233
0.000585728
0.00061545
0.000642834
0.00066822
0.000691879
0.000714027
0.000734836
0.00075445
0.000772986
0.00079054
0.000807192
0.000823012
0.000838057
0.000852375
0.00086601
0.000878996
0.000891367
0.00090315
0.000914368
0.000925044
0.000935197
0.000944844
0.000954001
0.000962681
0.000970899
0.000978665
0.000985991
0.000992887
0.000999364
0.00100543
0.00101109
0.00101636
0.00102125
0.00102575
0.00102989
0.00103366
0.00103708
0.00104015
0.00104287
0.00104526
0.00104732
0.00104905
0.00105047
0.00105157
0.00105237
0.00105287
0.00105308
0.00105299
0.00105262
0.00105198
0.00105106
0.00104987
0.00104842
0.00104671
0.00104475
0.00104254
0.00104011
0.00103745
0.00103457
0.00103148
0.00102818
0.00102469
0.00102101
0.00101715
0.00101312
0.00100891
0.00100455
0.00100004
0.000995381
0.000990586
0.000985662
0.000980616
0.000975456
0.00097019
0.000964825
0.000959369
0.000953829
0.000948213
0.000942529
0.000936783
0.000930984
0.000925138
0.000919253
0.000913336
0.000907394
0.000901433
0.00089546
0.000889481
0.000883503
0.000877532
0.000871574
0.000865634
0.000859717
0.000853829
0.000847974
0.000842157
0.000836382
0.000830653
0.000824974
0.000819347
0.000813776
0.000808264
0.000802812
0.000797423
0.000792098
0.000786838
0.000781644
0.000776516
0.000771456
0.000766462
0.000761533
0.00075667
0.00075187
0.000747132
0.000742455
0.000737835
0.000733272
0.000728761
0.000724301
0.000719886
0.000715513
0.000711177
0.000706874
0.000702598
0.000698346
0.000694111
0.00068989
0.000685676
0.000681464
0.000677248
0.000673023
0.000668784
0.000664523
0.000660235
0.000655915
0.000651555
0.000647151
0.000642695
0.000638183
0.000633609
0.000628966
0.000624248
0.000619452
0.00061457
0.000609598
0.000604531
0.000599362
0.000594088
0.000588703
0.000583201
0.000577577
0.000571825
0.00056594
0.000559914
0.00055374
0.000547413
0.000540927
0.000534278
0.000527459
0.000520466
0.00051329
0.000505922
0.000498353
0.000490572
0.000482564
0.000474316
0.000465809
0.000457023
0.000447935
0.000438517
0.000428738
0.00041856
0.000407938
0.000396819
0.00038514
0.000372821
0.000359765
0.00034585
0.000330923
0.000314782
0.000297171
0.000277751
0.000256075
0.000231555
0.000203412
0.00017064
0.000131995
8.6319e-05
3.50173e-05
1.10769e-06
6.04983e-06
7.92413e-05
0.00017186
0.000253144
0.00032228
0.000381416
0.000432618
0.000477534
0.000517427
0.000553256
0.000585751
0.000615473
0.000642856
0.000668243
0.000691902
0.000714049
0.000734859
0.000754473
0.000773008
0.000790562
0.000807214
0.000823034
0.000838078
0.000852397
0.000866031
0.000879018
0.000891388
0.000903171
0.000914389
0.000925065
0.000935217
0.000944864
0.000954021
0.000962701
0.000970918
0.000978684
0.00098601
0.000992906
0.000999382
0.00100545
0.00101111
0.00101638
0.00102127
0.00102577
0.00102991
0.00103368
0.0010371
0.00104016
0.00104289
0.00104528
0.00104733
0.00104907
0.00105048
0.00105159
0.00105239
0.00105289
0.00105309
0.00105301
0.00105264
0.00105199
0.00105107
0.00104988
0.00104843
0.00104672
0.00104476
0.00104256
0.00104012
0.00103746
0.00103458
0.00103149
0.00102819
0.0010247
0.00102102
0.00101716
0.00101313
0.00100892
0.00100456
0.00100005
0.000995391
0.000990596
0.000985671
0.000980625
0.000975465
0.000970199
0.000964833
0.000959377
0.000953837
0.000948221
0.000942536
0.00093679
0.000930991
0.000925145
0.00091926
0.000913343
0.0009074
0.000901439
0.000895466
0.000889487
0.000883509
0.000877538
0.000871579
0.000865639
0.000859722
0.000853834
0.000847978
0.000842161
0.000836386
0.000830657
0.000824977
0.000819351
0.00081378
0.000808267
0.000802815
0.000797426
0.0007921
0.00078684
0.000781646
0.000776519
0.000771458
0.000766464
0.000761535
0.000756672
0.000751872
0.000747134
0.000742456
0.000737836
0.000733273
0.000728762
0.000724302
0.000719887
0.000715514
0.000711178
0.000706874
0.000702599
0.000698346
0.000694111
0.000689889
0.000685675
0.000681463
0.000677247
0.000673023
0.000668783
0.000664522
0.000660234
0.000655913
0.000651554
0.000647149
0.000642694
0.000638181
0.000633607
0.000628963
0.000624246
0.00061945
0.000614568
0.000609596
0.000604528
0.00059936
0.000594085
0.0005887
0.000583198
0.000577574
0.000571823
0.000565937
0.000559911
0.000553738
0.00054741
0.000540924
0.000534275
0.000527457
0.000520463
0.000513287
0.00050592
0.000498351
0.000490569
0.000482562
0.000474314
0.000465807
0.000457021
0.000447933
0.000438515
0.000428736
0.000418558
0.000407936
0.000396818
0.000385138
0.000372819
0.000359764
0.000345849
0.000330922
0.000314782
0.000297171
0.000277751
0.000256075
0.000231554
0.000203412
0.00017064
0.000131995
8.63192e-05
3.50173e-05
1.10769e-06
7.25729e-06
8.73889e-05
0.000190123
0.000282551
0.000362692
0.000432206
0.000492993
0.000546681
0.000594575
0.000637706
0.000676878
0.000712727
0.000745751
0.000776351
0.000804845
0.000831491
0.000856501
0.000880046
0.00090227
0.000923291
0.000943209
0.000962108
0.000980059
0.000997124
0.00101335
0.0010288
0.00104349
0.00105747
0.00107076
0.00108339
0.0010954
0.00110678
0.00111758
0.0011278
0.00113747
0.00114659
0.00115518
0.00116326
0.00117083
0.00117791
0.00118451
0.00119064
0.00119632
0.00120154
0.00120632
0.00121067
0.0012146
0.00121812
0.00122123
0.00122394
0.00122627
0.00122822
0.0012298
0.00123101
0.00123187
0.00123237
0.00123254
0.00123237
0.00123188
0.00123106
0.00122993
0.00122849
0.00122675
0.00122472
0.0012224
0.00121981
0.00121695
0.00121383
0.00121046
0.00120686
0.00120302
0.00119896
0.00119468
0.0011902