/*--------------------------------*- C++ -*----------------------------------*\
  =========                 |
  \\      /  F ield         | OpenFOAM: The Open Source CFD Toolbox
   \\    /   O peration     | Website:  https://openfoam.org
    \\  /    A nd           | Version:  8
     \\/     M anipulation  |
\*---------------------------------------------------------------------------*/
FoamFile
{
    version     2.0;
    format      ascii;
    class       volScalarField;
    location    "2500";
    object      epsilon;
}
// * * * * * * * * * * * * * * * * * * * * * * * * * * * * * * * * * * * * * //

dimensions      [0 2 -3 0 0 0 0];

internalField   nonuniform List<scalar> 
46000
(
4.7421
21.0524
42.1843
62.4855
81.8571
100.703
119.115
137.195
155.025
172.683
190.231
207.605
224.869
242.036
259.11
276.09
292.971
309.747
326.407
342.94
359.332
375.569
391.636
407.514
423.187
438.635
453.84
468.782
483.44
497.794
511.823
525.507
538.824
551.755
564.278
576.373
588.021
599.202
609.899
620.093
629.769
638.909
647.5
655.528
662.981
669.848
676.119
681.788
686.846
691.29
695.116
698.323
700.91
702.88
704.236
704.982
705.126
704.676
703.64
702.032
699.866
697.161
693.958
690.276
686.1
681.444
676.325
670.764
664.782
658.401
651.643
644.53
637.086
629.334
621.298
613.001
604.468
595.721
586.783
577.678
568.428
559.056
549.583
540.031
530.419
520.767
511.096
501.422
491.765
482.139
472.563
463.05
453.615
444.271
435.03
425.905
416.906
408.042
399.324
390.757
382.351
374.112
366.044
358.153
350.443
342.918
335.579
328.43
321.471
314.702
308.126
301.74
295.544
289.536
283.715
278.078
272.623
267.346
262.244
257.314
252.55
247.949
243.506
239.217
235.075
231.077
227.216
223.487
219.885
216.403
213.035
209.778
206.622
203.562
200.596
197.716
194.912
192.18
189.511
186.901
184.341
181.827
179.35
176.906
174.487
172.088
169.701
167.322
164.944
162.562
160.17
157.762
155.333
152.878
150.393
147.874
145.315
142.713
140.066
137.368
134.619
131.815
128.954
126.035
123.075
120.073
117.016
113.902
110.732
107.507
104.229
100.9
97.5231
94.1016
90.6391
87.1396
83.6072
80.0465
76.4622
72.8592
69.2423
65.6164
61.9864
58.3569
54.732
51.1154
47.5092
43.9034
40.3218
36.7554
33.1932
29.6373
26.0706
22.476
18.8745
15.2194
11.4318
7.4717
3.50944
0.74425
4.74411
21.061
42.1947
62.4936
81.8623
100.706
119.117
137.197
155.028
172.685
190.233
207.608
224.871
242.038
259.112
276.092
292.974
309.749
326.409
342.942
359.334
375.571
391.638
407.516
423.189
438.637
453.842
468.783
483.442
497.796
511.825
525.508
538.826
551.756
564.279
576.374
588.022
599.203
609.9
620.094
629.77
638.91
647.501
655.529
662.982
669.849
676.12
681.788
686.847
691.291
695.117
698.324
700.911
702.881
704.236
704.983
705.127
704.676
703.641
702.032
699.866
697.162
693.958
690.276
686.1
681.444
676.325
670.764
664.782
658.401
651.642
644.53
637.086
629.334
621.298
613.001
604.468
595.72
586.783
577.678
568.428
559.056
549.583
540.03
530.418
520.767
511.095
501.422
491.764
482.139
472.562
463.049
453.614
444.27
435.03
425.905
416.905
408.042
399.323
390.757
382.351
374.111
366.043
358.152
350.442
342.917
335.578
328.429
321.47
314.702
308.125
301.739
295.543
289.535
283.714
278.077
272.622
267.345
262.243
257.313
252.549
247.948
243.505
239.216
235.074
231.076
227.215
223.486
219.884
216.402
213.035
209.777
206.621
203.561
200.595
197.715
194.911
192.179
189.51
186.9
184.34
181.826
179.349
176.905
174.486
172.087
169.7
167.321
164.944
162.561
160.169
157.761
155.332
152.878
150.393
147.873
145.314
142.713
140.065
137.368
134.618
131.814
128.953
126.035
123.074
120.072
117.015
113.902
110.732
107.506
104.228
100.899
97.5225
94.1011
90.6386
87.1391
83.6068
80.0461
76.4618
72.8588
69.2419
65.6161
61.9861
58.3566
54.7317
51.1152
47.509
43.9032
40.3216
36.7552
33.1931
29.6372
26.0705
22.476
18.8745
15.2194
11.4318
7.47167
3.50942
0.744246
22.7922
19.5537
26.0637
33.6193
41.4052
49.2936
57.2289
65.1967
73.1846
81.1932
89.2309
97.2902
105.375
113.486
121.62
129.774
137.941
146.115
154.289
162.455
170.603
178.723
186.805
194.838
202.811
210.711
218.527
226.244
233.85
241.332
248.676
255.868
262.895
269.742
276.396
282.844
289.073
295.068
300.818
306.31
311.533
316.475
321.127
325.479
329.521
333.247
336.648
339.719
342.454
344.85
346.904
348.614
349.979
350.999
351.675
352.012
352.011
351.678
351.019
350.042
348.755
347.172
345.31
343.179
340.779
338.116
335.201
332.045
328.661
325.062
321.261
317.272
313.108
308.785
304.315
299.714
294.994
290.17
285.255
280.263
275.206
270.098
264.951
259.777
254.587
249.392
244.203
239.03
233.883
228.769
223.698
218.678
213.716
208.818
203.992
199.241
194.573
189.99
185.498
181.1
176.799
172.598
168.498
164.502
160.611
156.827
153.149
149.577
146.113
142.755
139.504
136.357
133.314
130.373
127.534
124.793
122.149
119.601
117.145
114.779
112.501
110.308
108.198
106.167
104.213
102.332
100.523
98.7808
97.1035
95.4876
93.9295
92.4277
90.9796
89.5815
88.2304
86.9227
85.6547
84.4232
83.225
82.0569
80.9156
79.798
78.7011
77.6216
76.5566
75.503
74.458
73.4185
72.3817
71.3449
70.3053
69.2604
68.2076
67.1445
66.0688
64.9783
63.871
62.7451
61.5988
60.4306
59.2391
58.0234
56.7826
55.5175
54.2325
52.9261
51.5952
50.2387
48.8564
47.4487
46.0162
44.5601
43.0815
41.5819
40.0631
38.527
36.9755
35.4109
33.8354
32.2515
30.6616
29.0681
27.4734
25.8799
24.2897
22.7047
21.1264
19.5551
17.994
16.4423
14.8967
13.3663
11.8463
10.3374
8.84816
7.36827
5.89219
4.4432
3.19129
3.74776
22.7882
19.5522
26.0628
33.6182
41.4037
49.2916
57.2266
65.1941
73.1817
81.1901
89.2275
97.2865
105.371
113.482
121.616
129.769
137.936
146.11
154.284
162.449
170.596
178.716
186.798
194.831
202.804
210.703
218.518
226.235
233.841
241.323
248.666
255.858
262.884
269.732
276.386
282.833
289.061
295.056
300.806
306.298
311.521
316.463
321.115
325.466
329.509
333.234
336.635
339.705
342.441
344.837
346.891
348.6
349.965
350.985
351.662
351.998
351.997
351.665
351.006
350.028
348.742
347.158
345.296
343.166
340.766
338.103
335.188
332.032
328.648
325.049
321.248
317.259
313.096
308.773
304.304
299.702
294.983
290.159
285.244
280.252
275.196
270.088
264.941
259.767
254.578
249.383
244.194
239.021
233.874
228.761
223.69
218.67
213.708
208.811
203.984
199.234
194.566
189.984
185.492
181.094
176.793
172.592
168.492
164.497
160.606
156.821
153.143
149.572
146.108
142.751
139.499
136.352
133.31
130.369
127.53
124.789
122.145
119.597
117.141
114.775
112.498
110.305
108.195
106.164
104.21
102.33
100.52
98.7782
97.101
95.4852
93.9272
92.4254
90.9774
89.5794
88.2284
86.9207
85.6528
84.4215
83.2233
82.0552
80.914
79.7965
78.6996
77.6202
76.5553
75.5018
74.4568
73.4173
72.3806
71.3438
70.3043
69.2594
68.2067
67.1436
66.0679
64.9775
63.8703
62.7444
61.5982
60.43
59.2386
58.0228
56.7821
55.517
54.2321
52.9257
51.5948
50.2384
48.8561
47.4484
46.0159
44.5598
43.0812
41.5817
40.0629
38.5268
36.9753
35.4107
33.8353
32.2514
30.6614
29.0679
27.4733
25.8797
24.2895
22.7046
21.1263
19.555
17.9939
16.4422
14.8966
13.3662
11.8462
10.3373
8.84811
7.36823
5.89217
4.44318
3.1913
3.74777
45.9435
27.3134
28.4068
32.2437
36.9335
42.0222
47.3335
52.7912
58.355
64.0025
69.7212
75.5004
81.3335
87.2147
93.1383
99.0983
105.089
111.103
117.133
123.173
129.215
135.249
141.269
147.264
153.226
159.144
165.01
170.811
176.538
182.181
187.728
193.168
198.49
203.683
208.736
213.638
218.378
222.945
227.33
231.522
235.512
239.29
242.848
246.179
249.273
252.126
254.73
257.082
259.175
261.007
262.575
263.878
264.914
265.683
266.186
266.425
266.403
266.124
265.591
264.812
263.793
262.542
261.07
259.385
257.491
255.393
253.1
250.622
247.967
245.147
242.171
239.051
235.797
232.42
228.932
225.344
221.666
217.91
214.086
210.205
206.277
202.312
198.32
194.31
190.291
186.272
182.261
178.266
174.293
170.351
166.445
162.582
158.767
155.005
151.301
147.66
144.084
140.578
137.145
133.787
130.507
127.306
124.186
121.148
118.194
115.323
112.536
109.834
107.216
104.681
102.229
99.8597
97.5713
95.3628
93.2329
91.1802
89.203
87.2996
85.4682
83.7068
82.0134
80.386
78.8224
77.3204
75.8777
74.492
73.161
71.8822
70.6533
69.4715
68.3359
67.244
66.1934
65.1815
64.2058
63.2637
62.3526
61.47
60.6135
59.7805
58.9688
58.1758
57.3993
56.6368
55.886
55.1447
54.4106
53.6814
52.955
52.2292
51.502
50.7713
50.0351
49.2916
48.539
47.7755
46.9996
46.2097
45.4046
44.5829
43.7436
42.8858
42.0092
41.1137
40.2003
39.2687
38.3177
37.3466
36.3553
35.344
34.3131
33.2632
32.1954
31.1107
30.0104
28.896
27.7691
26.6313
25.4846
24.3307
23.1718
22.0097
20.8466
19.6845
18.5252
17.3707
16.2228
15.0831
13.9535
12.8357
11.7311
10.6435
9.57455
8.53176
7.52277
6.55935
5.66657
4.9249
4.69181
7.99756
45.9444
27.3117
28.4048
32.2415
36.9312
42.0197
47.3309
52.7884
58.352
63.9994
69.7179
75.4969
81.3298
87.2109
93.1343
99.0942
105.084
111.098
117.128
123.168
129.21
135.244
141.264
147.259
153.22
159.138
165.003
170.805
176.532
182.174
187.721
193.161
198.482
203.675
208.728
213.63
218.37
222.937
227.322
231.514
235.503
239.282
242.84
246.17
249.265
252.117
254.721
257.073
259.166
260.998
262.566
263.869
264.905
265.674
266.177
266.416
266.394
266.115
265.583
264.803
263.784
262.534
261.062
259.377
257.482
255.385
253.092
250.614
247.959
245.139
242.163
239.043
235.789
232.413
228.925
225.337
221.659
217.903
214.079
210.198
206.271
202.306
198.314
194.304
190.286
186.267
182.256
178.26
174.288
170.346
166.44
162.577
158.762
155.001
151.297
147.655
144.08
140.574
137.141
133.783
130.503
127.302
124.183
121.145
118.191
115.32
112.534
109.831
107.213
104.678
102.227
99.8574
97.569
95.3606
93.2309
91.1782
89.2011
87.2978
85.4664
83.7051
82.0118
80.3844
78.8209
77.3189
75.8763
74.4907
73.1597
71.881
70.6521
69.4704
68.3348
67.243
66.1924
65.1806
64.2049
63.2629
62.3518
61.4693
60.6128
59.7799
58.9682
58.1752
57.3987
56.6363
55.8856
55.1443
54.4102
53.681
52.9547
52.2289
51.5017
50.771
50.0348
49.2914
48.5388
47.7753
46.9994
46.2096
45.4044
44.5827
43.7435
42.8858
42.0091
41.1137
40.2002
39.2686
38.3176
37.3466
36.3553
35.344
34.313
33.2632
32.1954
31.1107
30.0104
28.896
27.7691
26.6313
25.4846
24.3307
23.1718
22.0097
20.8466
19.6845
18.5252
17.3707
16.2228
15.083
13.9535
12.8357
11.7311
10.6435
9.57453
8.53174
7.52275
6.55934
5.66657
4.9249
4.69182
7.99759
68.7148
36.0263
33.2286
34.8511
37.8712
41.5433
45.5876
49.8738
54.332
58.921
63.6149
68.3956
73.2499
78.1674
83.1395
88.158
93.2156
98.3047
103.418
108.548
113.688
118.828
123.962
129.081
134.176
139.239
144.261
149.232
154.142
158.984
163.745
168.418
172.992
177.456
181.802
186.02
190.1
194.032
197.808
201.419
204.855
208.11
211.175
214.043
216.708
219.164
221.405
223.427
225.225
226.797
228.14
229.252
230.133
230.782
231.2
231.388
231.349
231.086
230.603
229.905
228.998
227.887
226.582
225.088
223.411
221.558
219.534
217.349
215.01
212.527
209.909
207.165
204.305
201.339
198.276
195.125
191.898
188.602
185.248
181.845
178.402
174.927
171.429
167.916
164.397
160.878
157.368
153.872
150.397
146.949
143.535
140.158
136.825
133.539
130.304
127.126
124.006
120.948
117.954
115.027
112.168
109.38
106.664
104.02
101.45
98.9538
96.5319
94.1843
91.9108
89.7111
87.5845
85.5304
83.5477
81.6355
79.7926
78.0176
76.3091
74.6655
73.0853
71.5668
70.1082
68.7076
67.3632
66.0729
64.835
63.6472
62.5075
61.4139
60.3641
59.3569
58.3904
57.4624
56.5708
55.7133
54.8877
54.0919
53.3236
52.5806
51.8609
51.1622
50.4825
49.8197
49.1718
48.5365
47.912
47.2962
46.6871
46.0828
45.4813
44.8808
44.2794
43.6754
43.067
42.4525
41.8304
41.1992
40.5573
39.9035
39.2365
38.5552
37.8588
37.1464
36.4175
35.6719
34.9096
34.1305
33.334
32.5198
31.6876
30.8376
29.9703
29.0861
28.1859
27.2705
26.3411
25.3989
24.4454
23.4819
22.5102
21.5319
20.5489
19.5628
18.5758
17.5896
16.6062
15.6278
14.6562
13.6938
12.7429
11.8063
10.8872
9.98997
9.12021
8.28666
7.50216
6.79047
6.2014
5.87197
6.38167
12.3975
68.7182
36.0247
33.2263
34.8486
37.8686
41.5406
45.5848
49.8709
54.329
58.918
63.6118
68.3924
73.2465
78.164
83.1359
88.1544
93.2118
98.3008
103.414
108.544
113.683
118.824
123.958
129.076
134.171
139.234
144.256
149.226
154.137
158.978
163.74
168.412
172.986
177.451
181.797
186.014
190.094
194.026
197.802
201.412
204.849
208.103
211.169
214.037
216.702
219.157
221.398
223.42
225.219
226.791
228.133
229.246
230.126
230.775
231.193
231.381
231.342
231.08
230.597
229.899
228.991
227.881
226.576
225.082
223.405
221.552
219.528
217.343
215.005
212.522
209.904
207.16
204.3
201.334
198.271
195.121
191.893
188.597
185.244
181.84
178.397
174.922
171.425
167.912
164.393
160.875
157.364
153.868
150.393
146.946
143.531
140.155
136.822
133.536
130.302
127.123
124.003
120.945
117.951
115.024
112.166
109.378
106.662
104.018
101.448
98.9519
96.5301
94.1826
91.9092
89.7095
87.583
85.529
83.5464
81.6342
79.7913
78.0164
76.3079
74.6644
73.0843
71.5658
70.1072
68.7067
67.3623
66.0721
64.8342
63.6464
62.5068
61.4132
60.3635
59.3563
58.3898
57.4619
56.5703
55.7128
54.8873
54.0915
53.3232
52.5803
51.8605
51.1619
50.4823
49.8195
49.1715
48.5363
47.9118
47.296
46.6869
46.0826
45.4812
44.8807
44.2793
43.6753
43.067
42.4525
41.8304
41.1992
40.5573
39.9035
39.2365
38.5553
37.8588
37.1465
36.4176
35.672
34.9097
34.1306
33.3341
32.5199
31.6877
30.8377
29.9704
29.0862
28.186
27.2706
26.3412
25.399
24.4455
23.482
22.5103
21.532
20.5489
19.5629
18.5758
17.5896
16.6063
15.6278
14.6563
13.6938
12.743
11.8063
10.8872
9.98997
9.12022
8.28666
7.50215
6.79047
6.2014
5.87198
6.3817
12.3975
91.0056
45.0228
38.8737
38.7697
40.5917
43.3124
46.5459
50.1109
53.9093
57.8824
61.9925
66.2138
70.5272
74.9183
79.3751
83.8874
88.4461
93.0426
97.6688
102.317
106.978
111.645
116.31
120.964
125.599
130.206
134.778
139.304
143.777
148.186
152.524
156.78
160.946
165.013
168.971
172.811
176.525
180.103
183.538
186.821
189.945
192.902
195.685
198.288
200.704
202.928
204.955
206.782
208.403
209.817
211.022
212.014
212.795
213.364
213.72
213.867
213.805
213.538
213.07
212.404
211.546
210.501
209.276
207.877
206.31
204.58
202.694
200.661
198.486
196.18
193.749
191.203
188.55
185.8
182.961
180.042
177.051
173.999
170.893
167.741
164.553
161.336
158.098
154.847
151.59
148.333
145.084
141.848
138.632
135.442
132.282
129.157
126.072
123.032
120.039
117.098
114.211
111.382
108.612
105.904
103.259
100.68
98.1675
95.7222
93.3451
91.0366
88.7971
86.6265
84.5247
82.4913
80.5258
78.6276
76.7957
75.0293
73.3272
71.6882
70.1111
68.5943
67.1364
65.7359
64.391
63.1002
61.8617
60.6736
59.5341
58.4414
57.3936
56.3887
55.4253
54.5018
53.6162
52.7665
51.9507
51.1668
50.4127
49.6866
48.9862
48.3097
47.6551
47.0204
46.4036
45.8028
45.2162
44.6417
44.0775
43.5218
42.9727
42.4284
41.8871
41.3471
40.8067
40.2642
39.7181
39.1667
38.6087
38.0425
37.4669
36.8807
36.2826
35.6718
35.0473
34.4083
33.7544
33.0852
32.4004
31.7
30.9835
30.2508
29.5016
28.7363
27.955
27.1584
26.347
25.5218
24.6836
23.8336
22.9731
22.1033
21.2258
20.3421
19.4538
18.5628
17.6707
16.7796
15.8915
15.0085
14.133
13.2676
12.4154
11.5798
10.7655
9.97807
9.22563
8.51982
7.87909
7.33655
6.96226
6.95065
8.10548
16.8058
91.0087
45.0209
38.8712
38.7671
40.589
43.3096
46.5431
50.1081
53.9064
57.8794
61.9895
66.2106
70.524
74.915
79.3717
83.884
88.4426
93.039
97.665
102.313
106.974
111.641
116.306
120.959
125.594
130.202
134.773
139.299
143.772
148.181
152.519
156.775
160.941
165.008
168.966
172.806
176.519
180.098
183.533
186.816
189.94
192.897
195.68
198.282
200.698
202.922
204.95
206.776
208.398
209.812
211.016
212.009
212.79
213.358
213.715
213.861
213.8
213.533
213.065
212.399
211.541
210.496
209.271
207.873
206.305
204.575
202.69
200.656
198.482
196.175
193.745
191.199
188.546
185.796
182.957
180.038
177.048
173.995
170.889
167.738
164.55
161.333
158.095
154.844
151.587
148.33
145.081
141.845
138.63
135.439
132.279
129.155
126.07
123.03
120.037
117.096
114.209
111.38
108.61
105.902
103.258
100.679
98.166
95.7207
93.3437
91.0353
88.7958
86.6253
84.5235
82.4901
80.5247
78.6265
76.7947
75.0283
73.3263
71.6874
70.1102
68.5935
67.1357
65.7352
64.3904
63.0996
61.861
60.673
59.5336
58.4409
57.3931
56.3882
55.4248
54.5013
53.6158
52.7661
51.9503
51.1665
50.4124
49.6863
48.986
48.3095
47.6549
47.0202
46.4034
45.8027
45.216
44.6416
44.0774
43.5217
42.9726
42.4283
41.8871
41.3471
40.8067
40.2642
39.7181
39.1668
38.6087
38.0426
37.467
36.8807
36.2827
35.6719
35.0473
34.4084
33.7545
33.0853
32.4005
31.7001
30.9836
30.2509
29.5017
28.7364
27.9551
27.1585
26.3471
25.5219
24.6837
23.8337
22.9732
22.1034
21.2259
20.3422
19.4539
18.5628
17.6708
16.7797
15.8916
15.0086
14.1331
13.2677
12.4154
11.5799
10.7655
9.97808
9.22564
8.51982
7.87908
7.33655
6.96226
6.95066
8.10552
16.8059
113.178
54.2612
44.9864
43.3756
44.2211
46.2095
48.8478
51.9043
55.2534
58.8197
62.5546
66.4243
70.4046
74.4767
78.6257
82.839
87.1057
91.4158
95.76
100.13
104.516
108.91
113.305
117.691
122.059
126.403
130.712
134.978
139.193
143.347
147.432
151.439
155.359
159.183
162.904
166.511
169.997
173.354
176.573
179.648
182.571
185.334
187.932
190.359
192.609
194.676
196.557
198.248
199.745
201.046
202.148
203.051
203.754
204.256
204.559
204.664
204.573
204.288
203.813
203.153
202.311
201.293
200.104
198.751
197.239
195.573
193.761
191.81
189.725
187.517
185.191
182.756
180.221
177.594
174.883
172.096
169.242
166.33
163.366
160.36
157.318
154.249
151.16
148.059
144.951
141.844
138.744
135.656
132.587
129.542
126.526
123.543
120.597
117.694
114.835
112.026
109.267
106.564
103.916
101.328
98.7996
96.3334
93.9303
91.5913
89.3171
87.1083
84.965
82.8874
80.8753
78.9285
77.0464
75.2284
73.4738
71.7817
70.151
68.5806
67.0693
65.6158
64.2186
62.8763
61.5873
60.3501
59.163
58.0242
56.9321
55.8849
54.8807
53.9181
52.9957
52.1116
51.264
50.4508
49.6703
48.9204
48.1994
47.5053
46.8361
46.1901
45.5652
44.9597
44.3717
43.7993
43.2407
42.6941
42.1578
41.6298
41.1086
40.5923
40.0793
39.5679
39.0566
38.5437
38.0278
37.5073
36.981
36.4474
35.9054
35.3537
34.7914
34.2174
33.631
33.0315
32.4182
31.7909
31.1491
30.4929
29.8218
29.1358
28.4347
27.7188
26.9883
26.2437
25.4856
24.7147
23.9319
23.1382
22.3347
21.5226
20.7033
19.8781
19.0487
18.2166
17.3837
16.5519
15.7232
14.9
14.0849
13.2809
12.4915
11.7212
10.9755
10.2616
9.58952
8.97415
8.43911
8.02699
7.8281
8.09108
9.84511
21.2247
113.18
54.259
44.9837
43.3728
44.2183
46.2067
48.845
51.9014
55.2505
58.8168
62.5516
66.4212
70.4014
74.4735
78.6224
82.8357
87.1023
91.4123
95.7564
100.126
104.512
108.906
113.301
117.687
122.055
126.399
130.708
134.974
139.188
143.343
147.428
151.434
155.354
159.179
162.899
166.506
169.992
173.349
176.569
179.643
182.566
185.33
187.928
190.354
192.604
194.671
196.553
198.243
199.74
201.041
202.144
203.047
203.749
204.252
204.555
204.66
204.568
204.284
203.809
203.149
202.307
201.289
200.1
198.747
197.235
195.569
193.757
191.806
189.722
187.513
185.187
182.753
180.218
177.591
174.88
172.093
169.239
166.327
163.363
160.357
157.315
154.247
151.158
148.056
144.949
141.842
138.741
135.654
132.585
129.54
126.524
123.541
120.596
117.692
114.834
112.024
109.266
106.562
103.915
101.326
98.7983
96.3321
93.929
91.5901
89.316
87.1072
84.9639
82.8864
80.8743
78.9275
77.0455
75.2276
73.473
71.7809
70.1503
68.5799
67.0686
65.6151
64.218
62.8757
61.5868
60.3496
59.1625
58.0237
56.9316
55.8844
54.8803
53.9178
52.9954
52.1113
51.2636
50.4505
49.67
48.9202
48.1991
47.505
46.8359
46.1899
45.565
44.9595
44.3715
43.7992
43.2406
42.694
42.1577
41.6297
41.1085
40.5922
40.0792
39.5679
39.0566
38.5437
38.0278
37.5073
36.981
36.4474
35.9054
35.3538
34.7914
34.2175
33.6311
33.0315
32.4183
31.7909
31.1492
30.493
29.8219
29.1358
28.4348
27.7189
26.9884
26.2438
25.4857
24.7148
23.932
23.1383
22.3348
21.5227
20.7033
19.8782
19.0487
18.2167
17.3838
16.5519
15.7232
14.9
14.0849
13.2809
12.4916
11.7212
10.9755
10.2616
9.58953
8.97415
8.43911
8.02699
7.82809
8.09109
9.84517
21.2248
135.284
63.7284
51.4523
48.4594
48.4541
49.8353
52.0021
54.6725
57.6935
60.9734
64.4527
68.0906
71.8571
75.7297
79.6902
83.7237
87.8173
91.9595
96.1399
100.349
104.576
108.814
113.052
117.283
121.497
125.685
129.839
133.951
138.01
142.009
145.939
149.791
153.556
157.227
160.794
164.249
167.585
170.793
173.867
176.798
179.581
182.208
184.674
186.973
189.101
191.051
192.821
194.407
195.806
197.015
198.034
198.86
199.494
199.936
200.186
200.246
200.118
199.805
199.31
198.636
197.789
196.773
195.594
194.256
192.766
191.13
189.353
187.442
185.405
183.248
180.98
178.607
176.138
173.581
170.943
168.232
165.457
162.625
159.744
156.822
153.866
150.883
147.881
144.866
141.845
138.824
135.81
132.807
129.822
126.859
123.924
121.02
118.152
115.325
112.54
109.802
107.114
104.478
101.896
99.3703
96.9029
94.4952
92.1483
89.8632
87.6407
85.4812
83.3851
81.3525
79.3833
77.4773
75.634
73.8528
72.1331
70.474
68.8746
67.3337
65.8503
64.4231
63.0507
61.7317
60.4647
59.2481
58.0803
56.9598
55.8848
54.8536
53.8647
52.9169
52.0083
51.1371
50.3016
49.4999
48.7302
47.9906
47.2793
46.5945
45.9342
45.2967
44.6802
44.0828
43.5027
42.9381
42.3874
41.8486
41.3202
40.8003
40.2874
39.7797
39.2756
38.7735
38.2719
37.7694
37.2644
36.7556
36.2416
35.7213
35.1934
34.6569
34.1107
33.554
32.9861
32.4062
31.8139
31.2087
30.5903
29.9586
29.3134
28.6545
27.982
27.296
26.5967
25.8847
25.1603
24.4243
23.6774
22.9205
22.1547
21.3809
20.6004
19.8146
19.0248
18.2326
17.4397
16.6481
15.8598
15.0774
14.3036
13.5419
12.7963
12.0718
11.3751
10.7148
10.1029
9.55717
9.10656
8.8032
8.75828
9.2748
11.6094
25.6925
135.286
63.7258
51.4495
48.4565
48.4512
49.8325
51.9992
54.6696
57.6905
60.9704
64.4497
68.0875
71.854
75.7265
79.6869
83.7204
87.8139
91.9561
96.1364
100.345
104.573
108.81
113.049
117.279
121.493
125.681
129.835
133.947
138.006
142.005
145.935
149.787
153.552
157.222
160.789
164.245
167.58
170.789
173.862
176.794
179.577
182.204
184.67
186.969
189.096
191.047
192.817
194.403
195.802
197.011
198.03
198.856
199.49
199.932
200.182
200.242
200.114
199.801
199.306
198.632
197.785
196.769
195.59
194.253
192.763
191.126
189.349
187.439
185.402
183.245
180.977
178.604
176.135
173.578
170.94
168.229
165.454
162.623
159.742
156.82
153.864
150.881
147.879
144.864
141.843
138.822
135.808
132.805
129.82
126.857
123.922
121.018
118.151
115.323
112.539
109.801
107.113
104.476
101.895
99.369
96.9017
94.494
92.1472
89.8621
87.6396
85.4802
83.3842
81.3516
79.3825
77.4765
75.6332
73.852
72.1324
70.4733
68.8739
67.3331
65.8497
64.4225
63.0501
61.7311
60.4642
59.2476
58.0799
56.9593
55.8844
54.8532
53.8644
52.9165
52.0079
51.1368
50.3013
49.4997
48.73
47.9904
47.2791
46.5942
45.934
45.2965
44.68
44.0826
43.5025
42.938
42.3873
41.8485
41.3201
40.8003
40.2873
39.7796
39.2755
38.7735
38.2719
37.7694
37.2644
36.7556
36.2416
35.7213
35.1934
34.6569
34.1107
33.5541
32.9861
32.4063
31.8139
31.2087
30.5904
29.9587
29.3135
28.6546
27.9821
27.2961
26.5968
25.8847
25.1604
24.4243
23.6775
22.9206
22.1547
21.381
20.6005
19.8146
19.0248
18.2326
17.4397
16.6481
15.8598
15.0774
14.3036
13.5419
12.7963
12.0719
11.3752
10.7148
10.1028
9.55716
9.10655
8.80319
8.75828
9.27481
11.6095
25.6926
157.522
73.4759
58.2509
53.9467
53.1678
54.0214
55.7967
58.1606
60.9329
64.0054
67.308
70.7926
74.4239
78.1753
82.0257
85.9576
89.9562
94.0084
98.1024
102.227
106.373
110.529
114.686
118.834
122.966
127.07
131.139
135.163
139.134
143.042
146.879
150.636
154.305
157.878
161.345
164.699
167.933
171.039
174.01
176.839
179.519
182.045
184.411
186.611
188.642
190.499
192.178
193.676
194.992
196.122
197.065
197.821
198.39
198.771
198.967
198.978
198.806
198.455
197.928
197.228
196.36
195.329
194.139
192.796
191.306
189.674
187.906
186.009
183.99
181.855
179.612
177.269
174.832
172.309
169.709
167.038
164.304
161.515
158.679
155.802
152.891
149.955
146.999
144.031
141.056
138.081
135.112
132.153
129.211
126.291
123.396
120.533
117.703
114.912
112.163
109.458
106.802
104.196
101.642
99.1435
96.7012
94.3168
91.9915
89.7264
87.5222
85.3795
83.2985
81.2796
79.3226
77.4274
75.5935
73.8204
72.1076
70.4543
68.8594
67.3221
65.8412
64.4156
63.0438
61.7247
60.4568
59.2386
58.0685
56.945
55.8665
54.8314
53.8384
52.886
51.9725
51.0961
50.2549
49.4473
48.6714
47.9255
47.2076
46.5161
45.8491
45.2048
44.5814
43.9772
43.3904
42.8192
42.262
41.717
41.1825
40.6568
40.1384
39.6255
39.1168
38.6105
38.1053
37.5996
37.0922
36.5817
36.0669
35.5466
35.0196
34.485
33.9418
33.3893
32.8267
32.2535
31.669
31.073
30.4652
29.8454
29.2134
28.5692
27.9128
27.2444
26.5641
25.8723
25.1695
24.4564
23.7334
23.0015
22.2615
21.5143
20.761
20.0029
19.2411
18.4773
17.713
16.9501
16.1908
15.4378
14.6939
13.963
13.2495
12.5593
11.8996
11.2806
10.7161
10.2271
9.84753
9.63921
9.73437
10.4932
13.4005
30.1891
157.524
73.473
58.2479
53.9437
53.1649
54.0185
55.7938
58.1577
60.9299
64.0024
67.305
70.7895
74.4208
78.1721
82.0225
85.9543
89.9529
94.005
98.0989
102.224
106.369
110.525
114.682
118.831
122.962
127.066
131.135
135.159
139.13
143.038
146.875
150.632
154.301
157.873
161.341
164.695
167.929
171.035
174.006
176.834
179.515
182.041
184.406
186.607
188.638
190.495
192.174
193.672
194.988
196.118
197.061
197.817
198.386
198.768
198.963
198.974
198.803
198.452
197.925
197.225
196.357
195.325
194.136
192.793
191.303
189.671
187.903
186.006
183.987
181.853
179.61
177.266
174.829
172.307
169.706
167.035
164.302
161.513
158.676
155.799
152.889
149.953
146.997
144.029
141.054
138.079
135.11
132.152
129.21
126.289
123.395
120.531
117.702
114.911
112.161
109.457
106.801
104.195
101.641
99.1424
96.7001
94.3157
91.9905
89.7254
87.5212
85.3785
83.2977
81.2788
79.3218
77.4266
75.5927
73.8197
72.1069
70.4536
68.8588
67.3215
65.8406
64.415
63.0433
61.7242
60.4563
59.2381
58.068
56.9446
55.8661
54.831
53.838
52.8857
51.9722
51.0957
50.2546
49.447
48.6711
47.9252
47.2074
46.5158
45.8488
45.2045
44.5812
43.977
43.3902
42.8191
42.2618
41.7168
41.1823
40.6567
40.1383
39.6254
39.1167
38.6104
38.1052
37.5996
37.0922
36.5817
36.0669
35.5465
35.0196
34.485
33.9419
33.3893
32.8268
32.2535
31.669
31.073
30.4652
29.8454
29.2135
28.5693
27.9129
27.2444
26.5641
25.8723
25.1696
24.4564
23.7335
23.0016
22.2615
21.5143
20.7611
20.0029
19.2411
18.4773
17.713
16.9501
16.1909
15.4378
14.694
13.963
13.2495
12.5593
11.8996
11.2806
10.7161
10.2271
9.84752
9.6392
9.73437
10.4932
13.4006
30.1892
180.065
83.5482
65.3943
59.818
58.3146
58.6942
60.1338
62.2479
64.8283
67.7504
70.9333
74.3215
77.8746
81.5619
85.3591
89.2462
93.2064
97.2249
101.289
105.385
109.503
113.632
117.761
121.881
125.982
130.053
134.086
138.072
142
145.863
149.652
153.357
156.97
160.483
163.887
167.176
170.341
173.376
176.273
179.026
181.629
184.077
186.363
188.484
190.435
192.213
193.813
195.235
196.474
197.531
198.404
199.092
199.596
199.916
200.053
200.01
199.788
199.391
198.822
198.085
197.183
196.122
194.907
193.543
192.035
190.389
188.611
186.707
184.684
182.549
180.308
177.97
175.54
173.027
170.438
167.781
165.062
162.289
159.469
156.609
153.717
150.798
147.861
144.91
141.953
138.995
136.042
133.099
130.172
127.266
124.384
121.531
118.712
115.93
113.189
110.491
107.839
105.236
102.685
100.187
97.7442
95.3579
93.0295
90.7599
88.55
86.4004
84.3115
82.2835
80.3164
78.4101
76.5642
74.7783
73.0518
71.3841
69.7742
68.2211
66.7239
65.2815
63.8925
62.5556
61.2696
60.033
58.8442
57.7018
56.6041
55.5499
54.5378
53.5663
52.6334
51.7376
50.8771
50.0501
49.2549
48.4896
47.7525
47.0419
46.3559
45.6927
45.0507
44.4281
43.823
43.2339
42.659
42.0966
41.5451
41.0028
40.4681
39.9396
39.4155
38.8946
38.3753
37.8563
37.3363
36.8139
36.2881
35.7577
35.2217
34.6791
34.1292
33.5711
33.0042
32.4279
31.8419
31.2457
30.6392
30.0222
29.3945
28.7561
28.1071
27.4476
26.7777
26.0978
25.4084
24.7098
24.0027
23.2878
22.5657
21.8372
21.1034
20.3653
19.624
18.8809
18.1377
17.3962
16.6585
15.9274
15.206
14.4984
13.8094
13.1455
12.515
11.929
11.4035
10.9625
10.6449
10.5223
10.7484
11.7414
15.2112
34.6846
180.067
83.545
65.3912
59.8149
58.3116
58.6913
60.1308
62.2449
64.8253
67.7473
70.9302
74.3184
77.8715
81.5587
85.3558
89.2429
93.2031
97.2215
101.285
105.382
109.5
113.628
117.758
121.877
125.978
130.049
134.082
138.068
141.997
145.859
149.648
153.353
156.966
160.479
163.883
167.172
170.337
173.372
176.269
179.022
181.625
184.073
186.359
188.48
190.431
192.209
193.809
195.231
196.471
197.527
198.4
199.088
199.592
199.912
200.05
200.006
199.785
199.388
198.819
198.081
197.18
196.119
194.904
193.54
192.032
190.386
188.608
186.704
184.681
182.546
180.306
177.967
175.538
173.025
170.436
167.778
165.059
162.286
159.467
156.607
153.715
150.796
147.859
144.908
141.951
138.993
136.04
133.098
130.171
127.264
124.382
121.53
118.711
115.929
113.187
110.489
107.838
105.235
102.684
100.186
97.7432
95.3569
93.0285
90.7589
88.5491
86.3995
84.3107
82.2827
80.3156
78.4093
76.5634
74.7776
73.0512
71.3834
69.7735
68.2205
66.7233
65.2809
63.8919
62.5551
61.2691
60.0325
58.8437
57.7013
56.6037
55.5494
54.5374
53.5659
52.6331
51.7373
50.8768
50.0498
49.2546
48.4893
47.7523
47.0416
46.3556
45.6925
45.0505
44.4279
43.8228
43.2337
42.6588
42.0964
41.5449
41.0026
40.468
39.9394
39.4154
38.8945
38.3752
37.8562
37.3362
36.8139
36.288
35.7576
35.2216
34.6791
34.1291
33.571
33.0041
32.4279
31.8419
31.2457
30.6392
30.0222
29.3945
28.7561
28.1071
27.4476
26.7777
26.0979
25.4084
24.7099
24.0028
23.2878
22.5657
21.8372
21.1034
20.3653
19.624
18.8809
18.1377
17.3962
16.6585
15.9274
15.206
14.4984
13.8094
13.1455
12.515
11.929
11.4035
10.9625
10.6448
10.5223
10.7484
11.7414
15.2113
34.6848
203.114
94.0132
72.9136
66.081
63.8833
63.8261
64.9706
66.8775
69.3097
72.1254
75.2332
78.5697
82.0894
85.7572
89.5459
93.4329
97.3992
101.428
105.505
109.617
113.751
117.895
122.038
126.17
130.28
134.358
138.393
142.377
146.3
150.152
153.925
157.61
161.198
164.68
168.05
171.299
174.42
177.407
180.251
182.948
185.492
187.877
190.099
192.152
194.035
195.743
197.273
198.623
199.792
200.779
201.582
202.202
202.64
202.895
202.971
202.868
202.59
202.139
201.519
200.734
199.787
198.685
197.431
196.032
194.492
192.816
191.012
189.084
187.041
184.887
182.631
180.278
177.837
175.314
172.716
170.051
167.326
164.547
161.723
158.859
155.963
153.041
150.099
147.145
144.183
141.22
138.261
135.312
132.378
129.463
126.572
123.71
120.88
118.085
115.33
112.617
109.95
107.33
104.761
102.244
99.7802
97.3723
95.0213
92.7282
90.4938
88.3189
86.2037
84.1487
82.1539
80.2191
78.3442