/*--------------------------------*- C++ -*----------------------------------*\
  =========                 |
  \\      /  F ield         | OpenFOAM: The Open Source CFD Toolbox
   \\    /   O peration     | Website:  https://openfoam.org
    \\  /    A nd           | Version:  8
     \\/     M anipulation  |
\*---------------------------------------------------------------------------*/
FoamFile
{
    version     2.0;
    format      ascii;
    class       volScalarField;
    location    "2500";
    object      k;
}
// * * * * * * * * * * * * * * * * * * * * * * * * * * * * * * * * * * * * * //

dimensions      [0 2 -2 0 0 0 0];

internalField   nonuniform List<scalar> 
46000
(
0.00376846
0.0175996
0.0352636
0.0522319
0.0684224
0.0841733
0.0995616
0.114672
0.129575
0.144333
0.158999
0.17352
0.187949
0.202297
0.216567
0.230759
0.244868
0.258889
0.272813
0.286631
0.300332
0.313903
0.327331
0.340602
0.353701
0.366613
0.379321
0.391809
0.404061
0.416058
0.427783
0.43922
0.45035
0.461157
0.471624
0.481733
0.491468
0.500813
0.509753
0.518274
0.52636
0.533999
0.54118
0.547889
0.554118
0.559858
0.5651
0.569837
0.574065
0.57778
0.580978
0.583658
0.585822
0.587468
0.588602
0.589227
0.589348
0.588972
0.588107
0.586764
0.584954
0.582695
0.580019
0.576943
0.573454
0.569563
0.565287
0.56064
0.555642
0.55031
0.544662
0.538719
0.532498
0.526021
0.519306
0.512373
0.505242
0.497932
0.490463
0.482855
0.475125
0.467293
0.459376
0.451393
0.44336
0.435294
0.427211
0.419126
0.411055
0.403011
0.395007
0.387056
0.37917
0.37136
0.363637
0.35601
0.348488
0.341079
0.333791
0.326631
0.319604
0.312716
0.305972
0.299376
0.292931
0.28664
0.280505
0.274528
0.26871
0.263051
0.257553
0.252213
0.247033
0.24201
0.237142
0.232429
0.227867
0.223455
0.219188
0.215065
0.211081
0.207233
0.203517
0.19993
0.196466
0.193121
0.189892
0.186773
0.183759
0.180846
0.178029
0.175304
0.172663
0.170103
0.167622
0.165211
0.162866
0.160579
0.158346
0.156162
0.15402
0.151916
0.149844
0.147798
0.145774
0.143767
0.14177
0.139779
0.13779
0.135797
0.133795
0.131781
0.12975
0.127697
0.125618
0.123511
0.121371
0.119196
0.116982
0.114727
0.112429
0.110085
0.107694
0.105255
0.10278
0.100272
0.0977175
0.0951158
0.0924672
0.0897728
0.0870342
0.0842534
0.0814327
0.078575
0.075683
0.0727603
0.0698103
0.0668367
0.0638435
0.0608348
0.0578146
0.054787
0.051756
0.0487254
0.0456987
0.0426791
0.0396682
0.0366575
0.0336671
0.0306894
0.0277152
0.0247462
0.0217682
0.0187669
0.0157598
0.0127078
0.0095452
0.00623857
0.00293019
0.000589745
0.00376969
0.017605
0.0352703
0.0522374
0.0684262
0.0841758
0.0995637
0.114674
0.129577
0.144335
0.159001
0.173522
0.187951
0.202298
0.216569
0.23076
0.24487
0.258891
0.272815
0.286633
0.300333
0.313904
0.327332
0.340604
0.353703
0.366614
0.379323
0.391811
0.404062
0.416059
0.427784
0.439221
0.450352
0.461158
0.471625
0.481734
0.491469
0.500814
0.509754
0.518274
0.526361
0.534
0.54118
0.54789
0.554119
0.559859
0.5651
0.569838
0.574066
0.57778
0.580978
0.583659
0.585822
0.587469
0.588603
0.589227
0.589348
0.588972
0.588108
0.586764
0.584955
0.582695
0.580019
0.576943
0.573454
0.569563
0.565287
0.56064
0.555642
0.55031
0.544662
0.538719
0.532498
0.526021
0.519306
0.512373
0.505241
0.497932
0.490463
0.482854
0.475125
0.467292
0.459376
0.451392
0.443359
0.435294
0.427211
0.419126
0.411055
0.40301
0.395006
0.387056
0.37917
0.37136
0.363636
0.356009
0.348487
0.341079
0.333791
0.32663
0.319604
0.312716
0.305972
0.299376
0.29293
0.286639
0.280504
0.274527
0.268709
0.263051
0.257552
0.252213
0.247032
0.242009
0.237142
0.232428
0.227867
0.223454
0.219188
0.215064
0.21108
0.207232
0.203517
0.199929
0.196465
0.193121
0.189891
0.186772
0.183758
0.180845
0.178028
0.175303
0.172663
0.170102
0.167621
0.165211
0.162865
0.160578
0.158346
0.156161
0.154019
0.151915
0.149843
0.147797
0.145774
0.143766
0.141769
0.139779
0.137789
0.135796
0.133795
0.13178
0.129749
0.127696
0.125618
0.12351
0.121371
0.119195
0.116982
0.114727
0.112428
0.110084
0.107693
0.105254
0.10278
0.100271
0.0977169
0.0951153
0.0924667
0.0897723
0.0870337
0.0842529
0.0814323
0.0785745
0.0756826
0.0727599
0.0698099
0.0668364
0.0638432
0.0608345
0.0578143
0.0547867
0.0517557
0.0487251
0.0456985
0.0426789
0.039668
0.0366573
0.033667
0.0306893
0.0277151
0.0247461
0.0217681
0.0187668
0.0157597
0.0127078
0.00954517
0.00623855
0.00293018
0.000589742
0.0174362
0.0744912
0.116968
0.152168
0.183577
0.212494
0.239642
0.265503
0.290346
0.314364
0.33771
0.360481
0.382752
0.40458
0.426005
0.447054
0.467749
0.488102
0.508123
0.527815
0.547179
0.566212
0.584909
0.603263
0.621266
0.638906
0.656173
0.673053
0.689533
0.705598
0.721234
0.736425
0.751155
0.765409
0.77917
0.792423
0.805152
0.817342
0.828979
0.840047
0.850533
0.860425
0.869711
0.878379
0.88642
0.893824
0.900586
0.906697
0.912154
0.916952
0.92109
0.924567
0.927384
0.929543
0.931048
0.931904
0.932119
0.9317
0.930657
0.929002
0.926748
0.923911
0.920509
0.916561
0.912076
0.907071
0.901563
0.895573
0.88912
0.882225
0.874912
0.867203
0.859119
0.850686
0.841925
0.832861
0.823517
0.813918
0.804086
0.794045
0.783818
0.773428
0.762898
0.752249
0.741503
0.730681
0.719804
0.708891
0.697961
0.687033
0.676124
0.665252
0.654432
0.64368
0.63301
0.622437
0.611972
0.601627
0.591415
0.581346
0.571428
0.56167
0.552082
0.542669
0.533437
0.524393
0.515542
0.506887
0.498431
0.490178
0.482128
0.474285
0.466647
0.459216
0.451991
0.44497
0.438153
0.431537
0.425119
0.418897
0.412867
0.407024
0.401366
0.395886
0.390581
0.385445
0.380471
0.375655
0.370989
0.366468
0.362085
0.357834
0.353712
0.349708
0.345816
0.342025
0.338329
0.334719
0.331186
0.327723
0.324322
0.320973
0.317669
0.314401
0.31116
0.307939
0.304728
0.30152
0.298306
0.295078
0.291828
0.288548
0.28523
0.281867
0.278451
0.274976
0.271434
0.267819
0.264125
0.260347
0.256478
0.252514
0.24845
0.244282
0.240005
0.235626
0.231138
0.226536
0.22182
0.216989
0.212041
0.206978
0.201801
0.19651
0.191108
0.185596
0.179978
0.174256
0.168433
0.162512
0.156495
0.150386
0.144186
0.137896
0.131516
0.125046
0.118482
0.111815
0.105038
0.0981281
0.0910517
0.0838052
0.0763226
0.0685256
0.0602779
0.0514751
0.0418425
0.0309143
0.0177573
0.00284603
0.0174343
0.074489
0.116968
0.152169
0.183578
0.212495
0.239642
0.265503
0.290346
0.314364
0.33771
0.36048
0.382752
0.40458
0.426004
0.447053
0.467748
0.488101
0.508122
0.527814
0.547177
0.56621
0.584907
0.603261
0.621264
0.638904
0.65617
0.67305
0.68953
0.705595
0.721231
0.736422
0.751152
0.765405
0.779167
0.79242
0.805149
0.817339
0.828975
0.840043
0.85053
0.860421
0.869707
0.878375
0.886416
0.89382
0.900581
0.906693
0.912149
0.916948
0.921086
0.924563
0.927379
0.929538
0.931043
0.9319
0.932114
0.931695
0.930653
0.928998
0.926744
0.923906
0.920505
0.916556
0.912072
0.907066
0.901559
0.895568
0.889115
0.882221
0.874908
0.867198
0.859115
0.850681
0.84192
0.832856
0.823513
0.813913
0.804081
0.79404
0.783813
0.773424
0.762893
0.752244
0.741499
0.730677
0.7198
0.708886
0.697957
0.687029
0.67612
0.665248
0.654428
0.643676
0.633006
0.622433
0.611968
0.601623
0.591411
0.581342
0.571424
0.561667
0.552078
0.542665
0.533434
0.52439
0.515538
0.506883
0.498427
0.490174
0.482125
0.474281
0.466644
0.459213
0.451988
0.444967
0.43815
0.431534
0.425116
0.418894
0.412864
0.407022
0.401363
0.395884
0.390579
0.385442
0.380469
0.375652
0.370987
0.366466
0.362082
0.357832
0.35371
0.349706
0.345813
0.342023
0.338327
0.334716
0.331184
0.327721
0.32432
0.320971
0.317667
0.314399
0.311159
0.307937
0.304727
0.301519
0.298305
0.295077
0.291827
0.288547
0.285229
0.281866
0.27845
0.274975
0.271433
0.267818
0.264124
0.260346
0.256477
0.252513
0.248449
0.244281
0.240004
0.235625
0.231137
0.226536
0.22182
0.216988
0.21204
0.206978
0.2018
0.196509
0.191107
0.185596
0.179978
0.174256
0.168433
0.162511
0.156495
0.150385
0.144185
0.137895
0.131516
0.125046
0.118481
0.111815
0.105037
0.0981278
0.0910514
0.083805
0.0763224
0.0685254
0.0602778
0.0514751
0.0418425
0.0309144
0.0177574
0.00284604
0.0353448
0.117885
0.171305
0.214124
0.252132
0.287167
0.320106
0.351474
0.381606
0.410727
0.439004
0.466552
0.493462
0.519797
0.545609
0.570932
0.595793
0.620209
0.644193
0.667751
0.690886
0.713596
0.735877
0.757722
0.779122
0.800066
0.820542
0.840537
0.860036
0.879023
0.897482
0.915397
0.932751
0.949525
0.965704
0.98127
0.996206
1.0105
1.02412
1.03707
1.04933
1.06088
1.07171
1.08182
1.09118
1.09979
1.10765
1.11474
1.12106
1.12661
1.13139
1.13539
1.13862
1.14108
1.14277
1.14371
1.14389
1.14334
1.14206
1.14006
1.13736
1.13398
1.12993
1.12524
1.11992
1.11398
1.10746
1.10037
1.09274
1.08458
1.07594
1.06682
1.05726
1.04729
1.03692
1.0262
1.01514
1.00377
0.992125
0.980225
0.968098
0.955772
0.943273
0.930626
0.917856
0.904988
0.892045
0.879052
0.86603
0.853002
0.839988
0.827008
0.814082
0.801227
0.788462
0.775803
0.763265
0.750863
0.738611
0.726521
0.714605
0.702873
0.691337
0.680003
0.668882
0.657979
0.6473
0.636852
0.626639
0.616664
0.606929
0.597438
0.588192
0.57919
0.570434
0.561921
0.553651
0.545621
0.537829
0.530271
0.522943
0.515842
0.508962
0.502298
0.495844
0.489593
0.48354
0.477677
0.471997
0.466491
0.461157
0.455985
0.450967
0.446093
0.441354
0.436739
0.432239
0.427844
0.423545
0.419331
0.415191
0.411117
0.407097
0.403122
0.39918
0.395262
0.391357
0.387455
0.383546
0.379619
0.375665
0.371674
0.367636
0.363542
0.359382
0.355148
0.350831
0.346424
0.341918
0.337306
0.332581
0.327736
0.322767
0.317668
0.312434
0.307066
0.301557
0.295904
0.290104
0.284156
0.278059
0.271811
0.265414
0.258868
0.252174
0.245334
0.23835
0.231225
0.223961
0.216559
0.209024
0.201355
0.193556
0.185625
0.177561
0.169363
0.161024
0.152535
0.143882
0.135046
0.125996
0.116693
0.107072
0.0970619
0.0865272
0.0752624
0.0629639
0.048916
0.0310779
0.00610278
0.0353457
0.117885
0.171305
0.214124
0.252132
0.287167
0.320105
0.351473
0.381604
0.410726
0.439002
0.46655
0.493459
0.519795
0.545606
0.570929
0.595789
0.620206
0.64419
0.667748
0.690882
0.713592
0.735873
0.757717
0.779117
0.800061
0.820538
0.840532
0.860031
0.879018
0.897477
0.915392
0.932745
0.94952
0.965698
0.981264
0.9962
1.01049
1.02412
1.03707
1.04932
1.06088
1.07171
1.08181
1.09117
1.09979
1.10764
1.11473
1.12105
1.1266
1.13138
1.13538
1.13861
1.14107
1.14276
1.1437
1.14389
1.14333
1.14205
1.14005
1.13735
1.13397
1.12992
1.12523
1.11991
1.11398
1.10745
1.10036
1.09273
1.08458
1.07593
1.06681
1.05726
1.04728
1.03692
1.02619
1.01513
1.00377
0.992118
0.980218
0.968092
0.955766
0.943267
0.930619
0.917849
0.904981
0.892039
0.879046
0.866024
0.852996
0.839982
0.827002
0.814076
0.801222
0.788457
0.775797
0.76326
0.750858
0.738606
0.726516
0.7146
0.702868
0.691332
0.679999
0.668877
0.657974
0.647296
0.636848
0.626634
0.616659
0.606925
0.597434
0.588188
0.579186
0.57043
0.561917
0.553647
0.545617
0.537825
0.530267
0.52294
0.515839
0.508959
0.502294
0.49584
0.48959
0.483537
0.477674
0.471994
0.466488
0.461154
0.455982
0.450964
0.44609
0.441351
0.436736
0.432236
0.427842
0.423543
0.419328
0.415189
0.411115
0.407095
0.40312
0.399178
0.39526
0.391355
0.387453
0.383544
0.379618
0.375664
0.371672
0.367634
0.36354
0.35938
0.355147
0.35083
0.346423
0.341916
0.337304
0.332579
0.327735
0.322766
0.317667
0.312433
0.307065
0.301556
0.295903
0.290104
0.284156
0.278058
0.271811
0.265413
0.258867
0.252173
0.245333
0.23835
0.231224
0.22396
0.216559
0.209023
0.201355
0.193555
0.185624
0.177561
0.169362
0.161023
0.152534
0.143882
0.135046
0.125995
0.116693
0.107072
0.0970618
0.0865271
0.0752623
0.0629639
0.0489161
0.0310779
0.00610281
0.0530343
0.154705
0.216001
0.263922
0.306117
0.345028
0.381712
0.416736
0.450451
0.483091
0.514821
0.545762
0.576001
0.605607
0.634629
0.663104
0.691057
0.718508
0.745467
0.77194
0.79793
0.823434
0.848445
0.872958
0.896959
0.920439
0.943382
0.965773
0.987596
1.00883
1.02947
1.04948
1.06886
1.08757
1.10561
1.12295
1.13957
1.15547
1.17062
1.185
1.1986
1.2114
1.2234
1.23457
1.24492
1.25442
1.26307
1.27087
1.27782
1.28389
1.28911
1.29346
1.29695
1.29958
1.30136
1.30229
1.30239
1.30167
1.30014
1.29781
1.2947
1.29084
1.28623
1.2809
1.27487
1.26816
1.2608
1.2528
1.2442
1.23502
1.22529
1.21504
1.20429
1.19307
1.18143
1.16937
1.15694
1.14417
1.13108
1.11771
1.10408
1.09022
1.07617
1.06195
1.04759
1.03311
1.01855
1.00393
0.989275
0.974608
0.959952
0.945332
0.930768
0.916281
0.90189
0.887615
0.873473
0.85948
0.845652
0.832003
0.818547
0.805295
0.79226
0.779451
0.766877
0.754547
0.742469
0.730647
0.719088
0.707796
0.696774
0.686025
0.675551
0.665351
0.655428
0.645778
0.636402
0.627297
0.61846
0.609888
0.601575
0.593519
0.585712
0.578149
0.570825
0.563731
0.55686
0.550205
0.543757
0.537511
0.53146
0.525592
0.519898
0.514368
0.508991
0.503755
0.498651
0.493666
0.48879
0.484012
0.479319
0.474701
0.470146
0.465641
0.461176
0.456739
0.452317
0.447899
0.443474
0.439031
0.434557
0.430041
0.425474
0.420844
0.41614
0.411353
0.406474
0.401492
0.3964
0.391188
0.38585
0.380377
0.374764
0.369005
0.363094
0.35703
0.350806
0.34442
0.337867
0.331145
0.324252
0.317189
0.309954
0.302547
0.294971
0.287225
0.279311
0.271232
0.26299
0.254585
0.246021
0.237297
0.228416
0.219376
0.210177
0.200814
0.191282
0.181571
0.171669
0.161554
0.1512
0.140565
0.129591
0.118194
0.106231
0.0934856
0.0795669
0.0635368
0.0424653
0.00948955
0.0530368
0.154705
0.216
0.26392
0.306115
0.345027
0.38171
0.416734
0.450449
0.483089
0.514819
0.545759
0.575998
0.605604
0.634626
0.6631
0.691054
0.718504
0.745463
0.771936
0.797926
0.823429
0.848441
0.872953
0.896955
0.920434
0.943377
0.965768
0.987591
1.00883
1.02946
1.04948
1.06885
1.08756
1.1056
1.12294
1.13957
1.15546
1.17061
1.18499
1.19859
1.21139
1.22339
1.23457
1.24491
1.25441
1.26307
1.27087
1.27781
1.28389
1.2891
1.29345
1.29694
1.29957
1.30135
1.30228
1.30239
1.30166
1.30013
1.2978
1.2947
1.29083
1.28622
1.28089
1.27486
1.26816
1.26079
1.2528
1.2442
1.23502
1.22528
1.21503
1.20428
1.19307
1.18142
1.16936
1.15694
1.14416
1.13107
1.1177
1.10407
1.09021
1.07616
1.06194
1.04758
1.03311
1.01855
1.00393
0.989269
0.974602
0.959947
0.945326
0.930762
0.916275
0.901885
0.88761
0.873468
0.859475
0.845647
0.831998
0.818542
0.80529
0.792255
0.779446
0.766873
0.754543
0.742464
0.730643
0.719084
0.707792
0.69677
0.686021
0.675547
0.665348
0.655424
0.645775
0.636399
0.627294
0.618457
0.609884
0.601572
0.593515
0.585709
0.578146
0.570822
0.563728
0.556857
0.550202
0.543754
0.537509
0.531457
0.52559
0.519896
0.514366
0.508988
0.503753
0.498648
0.493664
0.488788
0.48401
0.479317
0.474699
0.470144
0.46564
0.461175
0.456737
0.452315
0.447898
0.443473
0.439029
0.434555
0.43004
0.425473
0.420842
0.416139
0.411352
0.406473
0.401491
0.396399
0.391187
0.385849
0.380376
0.374763
0.369004
0.363094
0.357029
0.350806
0.344419
0.337866
0.331144
0.324252
0.317188
0.309953
0.302547
0.29497
0.287224
0.279311
0.271232
0.262989
0.254585
0.24602
0.237297
0.228416
0.219376
0.210176
0.200813
0.191281
0.181571
0.171668
0.161554
0.151199
0.140565
0.129591
0.118193
0.106231
0.0934856
0.0795669
0.0635369
0.0424654
0.00948959
0.0703852
0.188222
0.256489
0.308766
0.354398
0.396385
0.43599
0.473864
0.510387
0.545803
0.58028
0.613939
0.646867
0.679127
0.710768
0.741825
0.772322
0.802274
0.831692
0.86058
0.888938
0.91676
0.94404
0.970768
0.996931
1.02251
1.0475
1.07188
1.09563
1.11872
1.14115
1.16289
1.18392
1.20422
1.22377
1.24256
1.26055
1.27774
1.2941
1.30962
1.32429
1.33808
1.35098
1.36299
1.37409
1.38427
1.39353
1.40185
1.40924
1.41569
1.4212
1.42577
1.42941
1.43211
1.4339
1.43477
1.43474
1.43382
1.43202
1.42936
1.42586
1.42154
1.41642
1.41051
1.40385
1.39646
1.38836
1.37957
1.37013
1.36007
1.3494
1.33818
1.32642
1.31415
1.30141
1.28824
1.27465
1.2607
1.2464
1.23179
1.2169
1.20176
1.18641
1.17088
1.15519
1.13938
1.12347
1.10749
1.09147
1.07544
1.05942
1.04343
1.0275
1.01166
0.995917
0.980298
0.96482
0.949503
0.934364
0.919417
0.904678
0.89016
0.875876
0.861837
0.848053
0.834533
0.821285
0.808316
0.795633
0.783239
0.77114
0.759337
0.747833
0.736629
0.725726
0.715122
0.704816
0.694805
0.685088
0.675659
0.666515
0.65765
0.649059
0.640735
0.632671
0.62486
0.617294
0.609964
0.602864
0.595986
0.589321
0.582857
0.576583
0.570489
0.564562
0.558792
0.553166
0.547672
0.542297
0.53703
0.531858
0.526769
0.521749
0.516785
0.511866
0.506978
0.502108
0.497244
0.492372
0.487482
0.48256
0.477594
0.472573
0.467484
0.462318
0.457062
0.451706
0.446241
0.440658
0.434946
0.429098
0.423107
0.416965
0.410666
0.404205
0.397577
0.390779
0.383804
0.37665
0.369314
0.361794
0.354089
0.346198
0.33812
0.329856
0.321408
0.312775
0.303958
0.294961
0.285782
0.276424
0.266888
0.257173
0.247278
0.237201
0.22694
0.216488
0.205836
0.194973
0.183878
0.172526
0.160878
0.148877
0.136434
0.123406
0.10954
0.0943362
0.0766468
0.0527864
0.0128903
0.0703875
0.188223
0.256489
0.308765
0.354396
0.396382
0.435988
0.473862
0.510384
0.5458
0.580278
0.613936
0.646863
0.679124
0.710765
0.741822
0.772318
0.80227
0.831689
0.860576
0.888934
0.916756
0.944036
0.970763
0.996926
1.02251
1.0475
1.07187
1.09562
1.11872
1.14115
1.16288
1.18391
1.20422
1.22377
1.24255
1.26054
1.27773
1.29409
1.30962
1.32428
1.33807
1.35098
1.36299
1.37408
1.38426
1.39352
1.40184
1.40923
1.41568
1.42119
1.42576
1.4294
1.43211
1.43389
1.43477
1.43473
1.43381
1.43201
1.42935
1.42585
1.42153
1.41641
1.41051
1.40385
1.39645
1.38835
1.37956
1.37013
1.36006
1.3494
1.33817
1.32641
1.31414
1.30141
1.28823
1.27465
1.26069
1.24639
1.23178
1.21689
1.20176
1.18641
1.17087
1.15518
1.13937
1.12346
1.10748
1.09147
1.07543
1.05941
1.04343
1.0275
1.01165
0.995912
0.980293
0.964816
0.949499
0.934359
0.919413
0.904674
0.890156
0.875872
0.861833
0.848049
0.834529
0.821281
0.808313
0.795629
0.783236
0.771136
0.759334
0.74783
0.736626
0.725723
0.715119
0.704812
0.694802
0.685085
0.675656
0.666512
0.657647
0.649056
0.640733
0.632669
0.624858
0.617292
0.609961
0.602862
0.595984
0.589319
0.582855
0.576581
0.570487
0.56456
0.55879
0.553164
0.54767
0.542296
0.537029
0.531857
0.526767
0.521747
0.516784
0.511864
0.506976
0.502106
0.497242
0.492371
0.487481
0.482559
0.477593
0.472572
0.467483
0.462317
0.457061
0.451705
0.446241
0.440657
0.434945
0.429098
0.423106
0.416964
0.410665
0.404204
0.397577
0.390778
0.383803
0.37665
0.369314
0.361794
0.354089
0.346197
0.33812
0.329856
0.321407
0.312774
0.303958
0.29496
0.285782
0.276424
0.266888
0.257172
0.247278
0.237201
0.22694
0.216488
0.205836
0.194972
0.183878
0.172526
0.160878
0.148877
0.136434
0.123406
0.10954
0.0943363
0.076647
0.0527865
0.0128904
0.0876663
0.219681
0.294562
0.351013
0.399862
0.444634
0.486822
0.52718
0.566134
0.603952
0.640808
0.676825
0.71209
0.746665
0.780596
0.813913
0.84664
0.878788
0.910367
0.941376
0.971813
1.00167
1.03094
1.05961
1.08767
1.11509
1.14186
1.16796
1.19338
1.21808
1.24206
1.26528
1.28772
1.30938
1.33021
1.35021
1.36935
1.38762
1.40499
1.42144
1.43698
1.45156
1.4652
1.47786
1.48955
1.50025
1.50995
1.51866
1.52636
1.53306
1.53875
1.54345
1.54715
1.54985
1.55158
1.55233
1.55212
1.55096
1.54887
1.54587
1.54198
1.53721
1.53159
1.52514
1.5179
1.50987
1.50109
1.49159
1.48139
1.47053
1.45904
1.44695
1.43429
1.42109
1.4074
1.39324
1.37864
1.36365
1.34829
1.3326
1.31662
1.30037
1.28389
1.26722
1.25038
1.2334
1.21632
1.19917
1.18197
1.16476
1.14755
1.13038
1.11327
1.09625
1.07933
1.06255
1.04591
1.02944
1.01316
0.997081
0.981224
0.965601
0.950226
0.93511
0.920266
0.905703
0.891429
0.877452
0.863779
0.850415
0.837365
0.824631
0.812216
0.800121
0.788347
0.776893
0.765757
0.754938
0.744432
0.734236
0.724344
0.714751
0.705452
0.696439
0.687705
0.679242
0.671041
0.663096
0.6554
0.647941
0.64071
0.633696
0.626885
0.620267
0.61383
0.607561
0.601447
0.595475
0.589632
0.583906
0.578282
0.572747
0.567287
0.561889
0.55654
0.551225
0.54593
0.540644
0.535351
0.530039
0.524694
0.519305
0.513858
0.508342
0.502744
0.497054
0.491259
0.485351
0.479319
0.473153
0.466846
0.46039
0.453776
0.446999
0.440054
0.432934
0.425636
0.418154
0.410485
0.402626
0.394575
0.386329
0.377888
0.369251
0.360417
0.351386
0.342159
0.332736
0.323117
0.313303
0.303294
0.29309
0.282689
0.272091
0.261292
0.25029
0.239077
0.227647
0.215987
0.20408
0.191899
0.179408
0.166547
0.153223
0.139277
0.124423
0.108074
0.0888586
0.0624321
0.0163037
0.0876683
0.219681
0.294561
0.351011
0.39986
0.444631
0.48682
0.527177
0.566132
0.603949
0.640805
0.676822
0.712087
0.746662
0.780592
0.81391
0.846636
0.878785
0.910363
0.941372
0.971809
1.00167
1.03094
1.05961
1.08766
1.11508
1.14186
1.16796
1.19337
1.21808
1.24205
1.26527
1.28772
1.30937
1.33021
1.3502
1.36935
1.38761
1.40498
1.42144
1.43697
1.45156
1.46519
1.47786
1.48954
1.50024
1.50995
1.51865
1.52635
1.53305
1.53875
1.54344
1.54714
1.54985
1.55157
1.55232
1.55211
1.55095
1.54886
1.54586
1.54197
1.5372
1.53158
1.52514
1.51789
1.50986
1.50108
1.49158
1.48139
1.47053
1.45903
1.44694
1.43428
1.42109
1.40739
1.39323
1.37864
1.36364
1.34829
1.3326
1.31661
1.30037
1.28389
1.26721
1.25037
1.2334
1.21632
1.19917
1.18197
1.16475
1.14755
1.13038
1.11327
1.09624
1.07933
1.06254
1.0459
1.02944
1.01315
0.997077
0.98122
0.965597
0.950222
0.935107
0.920263
0.905699
0.891426
0.877449
0.863776
0.850412
0.837362
0.824628
0.812213
0.800118
0.788344
0.77689
0.765755
0.754936
0.74443
0.734233
0.724342
0.714749
0.70545
0.696437
0.687703
0.67924
0.671039
0.663094
0.655398
0.64794
0.640709
0.633694
0.626883
0.620266
0.613828
0.607559
0.601445
0.595473
0.589631
0.583904
0.57828
0.572745
0.567286
0.561888
0.556538
0.551223
0.545929
0.540642
0.53535
0.530038
0.524694
0.519304
0.513858
0.508341
0.502743
0.497053
0.491259
0.48535
0.479318
0.473153
0.466846
0.460389
0.453776
0.446999
0.440053
0.432934
0.425635
0.418154
0.410485
0.402626
0.394575
0.386329
0.377888
0.36925
0.360416
0.351386
0.342159
0.332736
0.323117
0.313303
0.303294
0.29309
0.282689
0.272091
0.261292
0.25029
0.239077
0.227647
0.215987
0.20408
0.191899
0.179408
0.166547
0.153223
0.139277
0.124423
0.108075
0.0888587
0.0624323
0.0163037
0.104914
0.249872
0.331152
0.391764
0.443805
0.491293
0.53595
0.578644
0.61986
0.659896
0.69894
0.737123
0.774532
0.81123
0.84726
0.88265
0.917421
0.951583
0.98514
1.01809
1.05043
1.08215
1.11323
1.14367
1.17344
1.20253
1.23091
1.25857
1.28548
1.31162
1.33696
1.3615
1.38519
1.40803
1.42998
1.45103
1.47116
1.49034
1.50856
1.52581
1.54205
1.55729
1.57151
1.5847
1.59684
1.60793
1.61797
1.62694
1.63485
1.6417
1.64749
1.65222
1.6559
1.65853
1.66013
1.66071
1.66027
1.65884
1.65644
1.65308
1.64877
1.64356
1.63745
1.63048
1.62266
1.61403
1.60462
1.59444
1.58354
1.57195
1.55969
1.54681
1.53333
1.51929
1.50473
1.48967
1.47417
1.45824
1.44194
1.42528
1.40832
1.39108
1.37359
1.3559
1.33803
1.32002
1.3019
1.2837
1.26545
1.24718
1.22892
1.21069
1.19253
1.17445
1.15649
1.13866
1.12098
1.10348
1.08618
1.06909
1.05222
1.0356
1.01925
1.00316
0.987357
0.971848
0.956644
0.941751
0.927177
0.912927
0.899007
0.88542
0.872168
0.859254
0.846677
0.834437
0.822533
0.810963
0.799723
0.788809
0.778217
0.767941
0.757975
0.748311
0.738941
0.729859
0.721055
0.712523
0.704255
0.696237
0.68846
0.680912
0.67358
0.666452
0.659516
0.652757
0.646163
0.639721
0.633415
0.627233
0.62116
0.615182
0.609285
0.603454
0.597675
0.591934
0.586216
0.580507
0.574794
0.569062
0.563298
0.557489
0.551622
0.545684
0.539663
0.533548
0.527327
0.520989
0.514526
0.507927
0.501183
0.494287
0.487231
0.48001
0.472616
0.465045
0.457291
0.449351
0.441221
0.432896
0.424374
0.415653
0.406732
0.397608
0.388281
0.37875
0.369014
0.359072
0.348923
0.338567
0.328003
0.317229
0.306243
0.295043
0.283625
0.271986
0.260119
0.248015
0.235664
0.223048
0.210141
0.196905
0.183276
0.169154
0.154361
0.138572
0.121122
0.100421
0.0715873
0.019758
0.104916
0.249872
0.331151
0.391761
0.443803
0.49129
0.535947
0.578641
0.619857
0.659892
0.698937
0.73712
0.774529
0.811227
0.847256
0.882647
0.917418
0.951579
0.985136
1.01809
1.05043
1.08214
1.11323
1.14366
1.17343
1.20252
1.2309
1.25856
1.28547
1.31161
1.33696
1.36149
1.38519
1.40802
1.42998
1.45103
1.47115
1.49034
1.50856
1.5258
1.54205
1.55729
1.57151
1.58469
1.59683
1.60792
1.61796
1.62693
1.63485
1.6417
1.64748
1.65221
1.65589
1.65853
1.66013
1.6607
1.66027
1.65884
1.65643
1.65307
1.64877
1.64355
1.63745
1.63047
1.62266
1.61403
1.60461
1.59444
1.58354
1.57194
1.55969
1.5468
1.53332
1.51928
1.50472
1.48967
1.47416
1.45824
1.44193
1.42528
1.40831
1.39107
1.37359
1.3559
1.33803
1.32002
1.3019
1.2837
1.26545
1.24718
1.22892
1.21069
1.19253
1.17445
1.15649
1.13865
1.12098
1.10348
1.08617
1.06908
1.05222
1.0356
1.01924
1.00316
0.987354
0.971846
0.956641
0.941748
0.927174
0.912925
0.899004
0.885417
0.872166
0.859251
0.846674
0.834435
0.822531
0.810961
0.799721
0.788807
0.778215
0.767939
0.757973
0.748309
0.73894
0.729857
0.721053
0.712522
0.704253
0.696236
0.688459
0.68091
0.673579
0.666451
0.659514
0.652756
0.646162
0.639719
0.633414
0.627232
0.621159
0.615181
0.609284
0.603453
0.597674
0.591933
0.586215
0.580506
0.574793
0.569061
0.563297
0.557488
0.551621
0.545683
0.539662
0.533547
0.527326
0.520989
0.514525
0.507926
0.501183
0.494287
0.487231
0.480009
0.472615
0.465044
0.457291
0.449351
0.44122
0.432895
0.424374
0.415653
0.406732
0.397608
0.388281
0.37875
0.369013
0.359071
0.348923
0.338567
0.328003
0.317229
0.306243
0.295043
0.283625
0.271986
0.260119
0.248015
0.235664
0.223048
0.210141
0.196905
0.183276
0.169154
0.154361
0.138572
0.121122
0.100421
0.0715875
0.0197581
0.12228
0.279347
0.36688
0.431688
0.486975
0.53721
0.584334
0.629332
0.672756
0.714938
0.756088
0.796344
0.8358
0.87452
0.912545
0.949903
0.986612
1.02268
1.05811
1.09289
1.12702
1.16049
1.19327
1.22536
1.25673
1.28737
1.31724
1.34633
1.37462
1.40208
1.42868
1.4544
1.47922
1.50312
1.52607
1.54804
1.56903
1.58901
1.60796
1.62587
1.64272
1.6585
1.67319
1.68678
1.69927
1.71065
1.72092
1.73007
1.7381
1.74501
1.75081
1.7555
1.75909
1.76159
1.76301
1.76336
1.76266
1.76092
1.75816
1.75441
1.74969
1.74401
1.73741
1.72991
1.72154
1.71232
1.70229
1.69147
1.6799
1.66761
1.65463
1.641
1.62676
1.61194
1.59657
1.58069
1.56435
1.54757
1.53039
1.51286
1.495
1.47685
1.45844
1.43982
1.42102
1.40207
1.383
1.36384
1.34464
1.32541
1.30619
1.287
1.26788
1.24884
1.22992
1.21113
1.19251
1.17406
1.15582
1.13779
1.12
1.10247
1.0852
1.06822
1.05153
1.03514
1.01907
1.00333
0.987912
0.972834
0.958098
0.943708
0.929668
0.915979
0.902641
0.889655
0.877019
0.864731
0.852788
0.841185
0.829918
0.818981
0.808367
0.798069
0.78808
0.778391
0.768995
0.759885
0.75105
0.742477
0.734156
0.726075
0.71822
0.710579
0.703138
0.695885
0.688804
0.681882
0.675104
0.668456
0.661923
0.65549
0.649142
0.642866
0.636644
0.630464
0.624309
0.618166
0.61202
0.605856
0.599662
0.593423
0.587127
0.58076
0.57431
0.567766
0.561116
0.554349
0.547457
0.540428
0.533256
0.525931
0.518446
0.510795
0.502973
0.494974
0.486792
0.478424
0.469865
0.461111
0.45216
0.443009
0.433655
0.424097
0.414331
0.404357
0.394171
0.383774
0.373161
0.36233
0.35128
0.340007
0.328508
0.31678
0.304817
0.292614
0.280165
0.267461
0.25449
0.241234
0.227665
0.213743
0.1994
0.184522
0.168914
0.152209
0.133665
0.111511
0.0803416
0.0232376
0.122282
0.279347
0.366878
0.431685
0.486972
0.537207
0.584331
0.629329
0.672753
0.714935
0.756085
0.796341
0.835797
0.874516
0.912541
0.9499
0.986609
1.02268
1.0581
1.09289
1.12702
1.16048
1.19327
1.22536
1.25673
1.28736
1.31724
1.34633
1.37462
1.40207
1.42867
1.4544
1.47922
1.50311
1.52606
1.54804
1.56903
1.58901
1.60796
1.62587
1.64272
1.65849
1.67318
1.68678
1.69927
1.71065
1.72091
1.73006
1.73809
1.74501
1.75081
1.7555
1.75909
1.76159
1.763
1.76335
1.76265
1.76091
1.75816
1.75441
1.74968
1.74401
1.73741
1.72991
1.72153
1.71231
1.70228
1.69146
1.67989
1.6676
1.65462
1.641
1.62675
1.61193
1.59656
1.58069
1.56434
1.54757
1.53039
1.51285
1.49499
1.47684
1.45844
1.43982
1.42102
1.40206
1.38299
1.36384
1.34463
1.32541
1.30618
1.287
1.26787
1.24884
1.22991
1.21113
1.1925
1.17406
1.15581
1.13779
1.12
1.10247
1.0852
1.06822
1.05153
1.03514
1.01907
1.00332
0.987909
0.972831
0.958095
0.943706
0.929666
0.915977
0.902639
0.889653
0.877017
0.864729
0.852786
0.841183
0.829916
0.818979
0.808365
0.798068
0.788079
0.778389
0.768994
0.759884
0.751048
0.742476
0.734155
0.726073
0.718219
0.710578
0.703137
0.695883
0.688803
0.681881
0.675103
0.668455
0.661922
0.655489
0.649142
0.642865
0.636643
0.630463
0.624308
0.618165
0.612019
0.605856
0.599661
0.593423
0.587126
0.580759
0.574309
0.567765
0.561115
0.554349
0.547456
0.540428
0.533255
0.52593
0.518446
0.510795
0.502973
0.494973
0.486792
0.478424
0.469864
0.461111
0.45216
0.443009
0.433655
0.424096
0.414331
0.404356
0.394171
0.383773
0.37316
0.36233
0.35128
0.340007
0.328508
0.316779
0.304816
0.292614
0.280165
0.267461
0.25449
0.241233
0.227665
0.213743
0.1994
0.184522
0.168914
0.152209
0.133665
0.111511
0.0803418
0.0232377
0.139897
0.308458
0.40219
0.47126
0.529882
0.582942
0.632591
0.67993
0.725577
0.769903
0.813141
0.855445
0.896913
0.937613
0.977588
1.01686
1.05546
1.09337
1.13061
1.16717
1.20302
1.23817
1.27259
1.30626
1.33916
1.37126
1.40255
1.433
1.46258
1.49126
1.51903
1.54585
1.57171
1.59657
1.62042
1.64323
1.66499
1.68567
1.70526
1.72373
1.74109
1.7573
1.77237
1.78629
1.79904
1.81062
1.82103
1.83027
1.83834
1.84525
1.85099
1.85557
1.85901
1.86132
1.8625
1.86257
1.86156
1.85947
1.85633
1.85217
1.84699
1.84084
1.83374
1.8257
1.81677
1.80697
1.79633
1.78488
1.77266
1.75969
1.74603
1.73169
1.71672
1.70115
1.68502
1.66838
1.65124
1.63366
1.61567
1.59731
1.57862
1.55962
1.54037
1.52089
1.50122
1.48139
1.46145
1.44141
1.42132
1.4012
1.38109
1.36101
1.34099
1.32107
1.30125
1.28158
1.26207
1.24274
1.22362
1.20473
1.18607
1.16768
1.14956
1.13173
1.1142
1.09698
1.08009
1.06353
1.04732
1.03145
1.01593
1.00077
0.985974
0.971537
0.957463
0.943753
0.930405
0.917416
0.904784
0.892504
0.880572
0.868982
0.857726
0.846799
0.83619
0.825895
0.815906
0.806212
0.796803
0.787667
0.778792
0.770166
0.761776
0.753607
0.745648
0.737882
0.730297
0.722877
0.715607
0.708473
0.701459
0.69455
0.687731
0.680986
0.674301
0.667659
0.661046
0.654447
0.647847
0.641232
0.634587
0.6279
0.621157
0.614345
0.607452
0.600465
0.593375
0.58617
0.578841
0.571379
0.563775
0.556021
0.54811
0.540037
0.531794
0.523378
0.514784
0.506005
0.497039
0.487881
0.478529
0.468978
0.459225
0.449268
0.439103
0.428727
0.418138
0.40733
0.396301
0.385046
0.373562
0.361843
0.349885