/*--------------------------------*- C++ -*----------------------------------*\
  =========                 |
  \\      /  F ield         | OpenFOAM: The Open Source CFD Toolbox
   \\    /   O peration     | Website:  https://openfoam.org
    \\  /    A nd           | Version:  8
     \\/     M anipulation  |
\*---------------------------------------------------------------------------*/
FoamFile
{
    version     2.0;
    format      ascii;
    class       volScalarField;
    location    "2500";
    object      nut;
}
// * * * * * * * * * * * * * * * * * * * * * * * * * * * * * * * * * * * * * //

dimensions      [0 2 -1 0 0 0 0];

internalField   nonuniform List<scalar> 
46000
(
2.69526e-07
1.32417e-06
2.65305e-06
3.92948e-06
5.14733e-06
6.33212e-06
7.48963e-06
8.62626e-06
9.74721e-06
1.08573e-05
1.19605e-05
1.30528e-05
1.41381e-05
1.52174e-05
1.62908e-05
1.73583e-05
1.84196e-05
1.94743e-05
2.05217e-05
2.15611e-05
2.25917e-05
2.36125e-05
2.46226e-05
2.56209e-05
2.66062e-05
2.75775e-05
2.85334e-05
2.94728e-05
3.03943e-05
3.12968e-05
3.21788e-05
3.30391e-05
3.38763e-05
3.46892e-05
3.54765e-05
3.62369e-05
3.69692e-05
3.76722e-05
3.83446e-05
3.89855e-05
3.95938e-05
4.01685e-05
4.07086e-05
4.12133e-05
4.16818e-05
4.21136e-05
4.25079e-05
4.28642e-05
4.31823e-05
4.34617e-05
4.37023e-05
4.3904e-05
4.40667e-05
4.41906e-05
4.4276e-05
4.4323e-05
4.43321e-05
4.43039e-05
4.4239e-05
4.4138e-05
4.40019e-05
4.38321e-05
4.36309e-05
4.33995e-05
4.31372e-05
4.28446e-05
4.2523e-05
4.21736e-05
4.17977e-05
4.13967e-05
4.0972e-05
4.05251e-05
4.00573e-05
3.95701e-05
3.90651e-05
3.85437e-05
3.80074e-05
3.74576e-05
3.68959e-05
3.63236e-05
3.57423e-05
3.51532e-05
3.45578e-05
3.39573e-05
3.33531e-05
3.27464e-05
3.21385e-05
3.15304e-05
3.09233e-05
3.03182e-05
2.97161e-05
2.9118e-05
2.85249e-05
2.79374e-05
2.73564e-05
2.67826e-05
2.62168e-05
2.56595e-05
2.51112e-05
2.45725e-05
2.40439e-05
2.35257e-05
2.30183e-05
2.25221e-05
2.20372e-05
2.15638e-05
2.11022e-05
2.06525e-05
2.02147e-05
1.9789e-05
1.93752e-05
1.89734e-05
1.85836e-05
1.82056e-05
1.78393e-05
1.74846e-05
1.71413e-05
1.68092e-05
1.64881e-05
1.61778e-05
1.58779e-05
1.55883e-05
1.53086e-05
1.50385e-05
1.47778e-05
1.4526e-05
1.42829e-05
1.40481e-05
1.38212e-05
1.36019e-05
1.33898e-05
1.31846e-05
1.29857e-05
1.27929e-05
1.26061e-05
1.24246e-05
1.22479e-05
1.20757e-05
1.19076e-05
1.17431e-05
1.15818e-05
1.14233e-05
1.12672e-05
1.11132e-05
1.09608e-05
1.08096e-05
1.06592e-05
1.05093e-05
1.03595e-05
1.02095e-05
1.00588e-05
9.90712e-06
9.75418e-06
9.59964e-06
9.44321e-06
9.28461e-06
9.12357e-06
8.95987e-06
8.79328e-06
8.62361e-06
8.45069e-06
8.27436e-06
8.09448e-06
7.911e-06
7.7249e-06
7.53624e-06
7.34415e-06
7.14851e-06
6.94935e-06
6.74676e-06
6.54086e-06
6.33179e-06
6.11975e-06
5.90492e-06
5.68753e-06
5.46784e-06
5.24611e-06
5.02262e-06
4.79766e-06
4.57154e-06
4.34456e-06
4.11703e-06
3.88926e-06
3.66152e-06
3.43408e-06
3.20717e-06
2.98091e-06
2.75467e-06
2.52997e-06
2.3062e-06
2.08271e-06
1.85961e-06
1.63582e-06
1.41028e-06
1.18431e-06
9.54963e-07
7.17295e-07
4.68807e-07
2.2019e-07
4.20584e-08
2.69587e-07
1.32445e-06
2.6534e-06
3.9298e-06
5.14759e-06
6.3323e-06
7.48979e-06
8.62641e-06
9.74736e-06
1.08575e-05
1.19606e-05
1.30529e-05
1.41383e-05
1.52175e-05
1.62909e-05
1.73585e-05
1.84198e-05
1.94744e-05
2.05218e-05
2.15612e-05
2.25918e-05
2.36127e-05
2.46227e-05
2.5621e-05
2.66064e-05
2.75776e-05
2.85335e-05
2.94729e-05
3.03944e-05
3.12969e-05
3.21789e-05
3.30392e-05
3.38764e-05
3.46893e-05
3.54766e-05
3.6237e-05
3.69693e-05
3.76722e-05
3.83447e-05
3.89856e-05
3.95939e-05
4.01685e-05
4.07086e-05
4.12133e-05
4.16819e-05
4.21136e-05
4.25079e-05
4.28643e-05
4.31823e-05
4.34618e-05
4.37023e-05
4.3904e-05
4.40667e-05
4.41907e-05
4.4276e-05
4.4323e-05
4.43322e-05
4.43039e-05
4.4239e-05
4.4138e-05
4.4002e-05
4.38321e-05
4.36309e-05
4.33995e-05
4.31372e-05
4.28447e-05
4.2523e-05
4.21736e-05
4.17977e-05
4.13967e-05
4.0972e-05
4.0525e-05
4.00573e-05
3.95701e-05
3.90651e-05
3.85437e-05
3.80073e-05
3.74576e-05
3.68959e-05
3.63236e-05
3.57422e-05
3.51532e-05
3.45577e-05
3.39573e-05
3.33531e-05
3.27464e-05
3.21384e-05
3.15303e-05
3.09232e-05
3.03181e-05
2.97161e-05
2.9118e-05
2.85248e-05
2.79373e-05
2.73564e-05
2.67826e-05
2.62168e-05
2.56594e-05
2.51112e-05
2.45725e-05
2.40439e-05
2.35257e-05
2.30183e-05
2.2522e-05
2.20371e-05
2.15638e-05
2.11022e-05
2.06525e-05
2.02147e-05
1.97889e-05
1.93752e-05
1.89734e-05
1.85835e-05
1.82055e-05
1.78393e-05
1.74846e-05
1.71413e-05
1.68092e-05
1.64881e-05
1.61777e-05
1.58779e-05
1.55882e-05
1.53085e-05
1.50385e-05
1.47777e-05
1.4526e-05
1.42828e-05
1.4048e-05
1.38211e-05
1.36018e-05
1.33897e-05
1.31845e-05
1.29857e-05
1.27929e-05
1.2606e-05
1.24245e-05
1.22479e-05
1.20757e-05
1.19075e-05
1.1743e-05
1.15817e-05
1.14232e-05
1.12672e-05
1.11131e-05
1.09607e-05
1.08095e-05
1.06592e-05
1.05093e-05
1.03595e-05
1.02094e-05
1.00587e-05
9.90707e-06
9.75413e-06
9.59959e-06
9.44316e-06
9.28455e-06
9.12352e-06
8.95982e-06
8.79323e-06
8.62356e-06
8.45064e-06
8.27431e-06
8.09444e-06
7.91096e-06
7.72486e-06
7.5362e-06
7.34411e-06
7.14847e-06
6.94931e-06
6.74672e-06
6.54082e-06
6.33176e-06
6.11971e-06
5.90489e-06
5.6875e-06
5.46782e-06
5.24608e-06
5.02259e-06
4.79764e-06
4.57152e-06
4.34454e-06
4.11702e-06
3.88924e-06
3.6615e-06
3.43406e-06
3.20715e-06
2.98089e-06
2.75466e-06
2.52996e-06
2.3062e-06
2.08271e-06
1.8596e-06
1.63581e-06
1.41028e-06
1.18431e-06
9.5496e-07
7.17293e-07
4.68805e-07
2.20188e-07
4.20582e-08
1.2005e-06
2.55402e-05
4.72432e-05
6.19873e-05
7.32525e-05
8.24414e-05
9.03133e-05
9.73096e-05
0.00010367
0.000109544
0.000115031
0.000120209
0.000125124
0.00012981
0.000134297
0.000138604
0.00014275
0.000146747
0.000150607
0.000154338
0.000157949
0.000161443
0.000164828
0.000168105
0.00017128
0.000174353
0.000177327
0.000180204
0.000182985
0.00018567
0.000188261
0.000190758
0.000193161
0.00019547
0.000197685
0.000199806
0.000201833
0.000203765
0.000205601
0.000207343
0.000208988
0.000210537
0.00021199
0.000213345
0.000214604
0.000215765
0.000216829
0.000217795
0.000218663
0.000219435
0.000220109
0.000220686
0.000221167
0.000221552
0.000221842
0.000222038
0.000222141
0.000222151
0.000222071
0.000221899
0.000221639
0.000221288
0.000220846
0.000220315
0.000219701
0.000219008
0.000218238
0.000217394
0.000216478
0.000215494
0.000214444
0.00021333
0.000212156
0.000210923
0.000209636
0.000208296
0.000206907
0.000205471
0.000203992
0.000202473
0.000200916
0.000199324
0.000197701
0.000196049
0.000194371
0.000192671
0.00019095
0.000189212
0.000187459
0.000185695
0.000183922
0.000182142
0.000180358
0.000178572
0.000176788
0.000175006
0.00017323
0.000171461
0.000169702
0.000167955
0.000166221
0.000164502
0.0001628
0.000161117
0.000159453
0.000157811
0.000156192
0.000154596
0.000153025
0.00015148
0.000149962
0.000148472
0.000147009
0.000145576
0.000144171
0.000142796
0.00014145
0.000140135
0.000138849
0.000137593
0.000136366
0.000135169
0.000134
0.00013286
0.000131748
0.000130663
0.000129605
0.000128572
0.000127565
0.000126581
0.000125621
0.000124682
0.000123765
0.000122867
0.000121987
0.000121123
0.000120273
0.000119437
0.000118613
0.000117799
0.000116994
0.000116195
0.000115401
0.000114611
0.000113823
0.000113034
0.000112243
0.000111448
0.000110647
0.000109838
0.000109021
0.000108192
0.00010735
0.000106493
0.00010562
0.000104728
0.000103817
0.000102884
0.000101927
0.000100946
9.99387e-05
9.89031e-05
9.78373e-05
9.67373e-05
9.55926e-05
9.44104e-05
9.31912e-05
9.19348e-05
9.06408e-05
8.93085e-05
8.79372e-05
8.6526e-05
8.50741e-05
8.35809e-05
8.20454e-05
8.04667e-05
7.8844e-05
7.7176e-05
7.54615e-05
7.36991e-05
7.18869e-05
7.00228e-05
6.81041e-05
6.61274e-05
6.40886e-05
6.19824e-05
5.98025e-05
5.7542e-05
5.51829e-05
5.27068e-05
5.00873e-05
4.72906e-05
4.42553e-05
4.08824e-05
3.69577e-05
3.23648e-05
2.67424e-05
1.93583e-05
8.89265e-06
1.94513e-07
1.20044e-06
2.55407e-05
4.72447e-05
6.19899e-05
7.32559e-05
8.24455e-05
9.03175e-05
9.73138e-05
0.000103675
0.000109548
0.000115035
0.000120213
0.000125128
0.000129815
0.000134301
0.000138609
0.000142754
0.000146752
0.000150612
0.000154343
0.000157954
0.000161448
0.000164833
0.000168111
0.000171285
0.000174358
0.000177332
0.000180209
0.00018299
0.000185676
0.000188267
0.000190764
0.000193167
0.000195476
0.000197691
0.000199812
0.000201839
0.000203771
0.000205607
0.000207349
0.000208994
0.000210543
0.000211996
0.000213352
0.00021461
0.000215771
0.000216835
0.000217801
0.00021867
0.000219441
0.000220115
0.000220692
0.000221173
0.000221559
0.000221849
0.000222045
0.000222148
0.000222158
0.000222077
0.000221906
0.000221645
0.000221295
0.000220853
0.000220321
0.000219707
0.000219014
0.000218244
0.0002174
0.000216484
0.0002155
0.00021445
0.000213336
0.000212162
0.000210929
0.000209642
0.000208302
0.000206913
0.000205477
0.000203998
0.000202478
0.000200921
0.000199329
0.000197706
0.000196054
0.000194376
0.000192675
0.000190955
0.000189217
0.000187464
0.0001857
0.000183926
0.000182146
0.000180362
0.000178576
0.000176792
0.00017501
0.000173234
0.000171465
0.000169706
0.000167958
0.000166224
0.000164505
0.000162803
0.00016112
0.000159456
0.000157814
0.000156195
0.000154599
0.000153028
0.000151483
0.000149965
0.000148475
0.000147012
0.000145578
0.000144173
0.000142798
0.000141453
0.000140137
0.000138851
0.000137595
0.000136368
0.000135171
0.000134002
0.000132862
0.00013175
0.000130665
0.000129607
0.000128574
0.000127566
0.000126583
0.000125622
0.000124684
0.000123766
0.000122869
0.000121988
0.000121124
0.000120274
0.000119438
0.000118614
0.0001178
0.000116995
0.000116196
0.000115402
0.000114612
0.000113823
0.000113034
0.000112243
0.000111448
0.000110647
0.000109839
0.000109021
0.000108192
0.00010735
0.000106493
0.00010562
0.000104728
0.000103817
0.000102884
0.000101927
0.000100946
9.99388e-05
9.89032e-05
9.78374e-05
9.67373e-05
9.55926e-05
9.44104e-05
9.31912e-05
9.19348e-05
9.06408e-05
8.93084e-05
8.79371e-05
8.65259e-05
8.5074e-05
8.35808e-05
8.20453e-05
8.04666e-05
7.88439e-05
7.71759e-05
7.54614e-05
7.3699e-05
7.18868e-05
7.00227e-05
6.8104e-05
6.61274e-05
6.40885e-05
6.19823e-05
5.98024e-05
5.75419e-05
5.51828e-05
5.27068e-05
5.00873e-05
4.72906e-05
4.42553e-05
4.08825e-05
3.69578e-05
3.23648e-05
2.67425e-05
1.93584e-05
8.89267e-06
1.94514e-07
2.4472e-06
4.57911e-05
9.29736e-05
0.000127976
0.000154909
0.000176618
0.000194832
0.000210604
0.000224592
0.000237221
0.000248779
0.000259474
0.000269451
0.000278818
0.000287659
0.000296036
0.000304002
0.000311598
0.000318856
0.000325804
0.000332463
0.000338853
0.000344989
0.000350885
0.00035655
0.000361995
0.000367228
0.000372255
0.000377082
0.000381716
0.000386159
0.000390416
0.00039449
0.000398383
0.0004021
0.000405641
0.000409009
0.000412205
0.000415231
0.000418088
0.000420779
0.000423303
0.000425663
0.000427859
0.000429892
0.000431764
0.000433476
0.000435028
0.000436423
0.000437661
0.000438743
0.000439671
0.000440447
0.000441071
0.000441546
0.000441873
0.000442053
0.000442089
0.000441982
0.000441732
0.000441342
0.000440811
0.000440138
0.000439326
0.000438382
0.000437312
0.00043612
0.000434812
0.000433391
0.00043186
0.000430223
0.000428485
0.000426649
0.000424718
0.000422698
0.000420591
0.000418403
0.000416136
0.000413797
0.000411387
0.000408913
0.000406378
0.000403786
0.000401141
0.000398449
0.000395712
0.000392936
0.000390125
0.000387282
0.000384413
0.00038152
0.000378608
0.00037568
0.000372742
0.000369796
0.000366846
0.000363896
0.000360949
0.000358009
0.000355078
0.000352161
0.00034926
0.000346377
0.000343517
0.00034068
0.000337871
0.00033509
0.00033234
0.000329624
0.000326942
0.000324297
0.000321691
0.000319123
0.000316596
0.000314111
0.000311668
0.000309268
0.000306911
0.000304597
0.000302327
0.0003001
0.000297917
0.000295776
0.000293678
0.00029162
0.000289604
0.000287626
0.000285687
0.000283784
0.000281918
0.000280086
0.000278285
0.000276514
0.00027477
0.00027305
0.000271351
0.000269672
0.00026801
0.000266362
0.000264726
0.000263098
0.000261476
0.000259856
0.000258236
0.000256612
0.000254982
0.000253341
0.000251687
0.000250017
0.000248328
0.000246616
0.000244877
0.00024311
0.000241311
0.000239477
0.000237605
0.000235692
0.000233735
0.000231732
0.000229679
0.000227574
0.000225412
0.000223191
0.000220904
0.00021854
0.000216102
0.00021359
0.000211005
0.000208345
0.000205609
0.000202795
0.0001999
0.000196923
0.00019386
0.000190709
0.000187465
0.000184125
0.000180684
0.000177137
0.000173477
0.000169697
0.000165788
0.00016174
0.00015754
0.000153171
0.000148614
0.000143845
0.000138832
0.000133529
0.000127876
0.000121791
0.000115147
0.000107765
9.93806e-05
8.95716e-05
7.77209e-05
6.29659e-05
4.37268e-05
1.8527e-05
4.19122e-07
2.44728e-06
4.5794e-05
9.298e-05
0.000127985
0.000154919
0.000176627
0.000194842
0.000210614
0.000224602
0.00023723
0.000248789
0.000259484
0.000269461
0.000278828
0.000287668
0.000296046
0.000304012
0.000311607
0.000318866
0.000325813
0.000332473
0.000338863
0.000344999
0.000350894
0.00035656
0.000362005
0.000367237
0.000372264
0.000377092
0.000381725
0.000386169
0.000390425
0.000394499
0.000398393
0.00040211
0.000405651
0.000409019
0.000412215
0.000415241
0.000418098
0.000420789
0.000423313
0.000425673
0.000427869
0.000429902
0.000431774
0.000433486
0.000435038
0.000436433
0.000437671
0.000438753
0.000439681
0.000440456
0.000441081
0.000441555
0.000441882
0.000442063
0.000442098
0.000441991
0.000441742
0.000441352
0.000440821
0.000440147
0.000439335
0.000438391
0.000437321
0.000436129
0.000434821
0.000433399
0.000431868
0.000430232
0.000428493
0.000426657
0.000424726
0.000422705
0.000420599
0.00041841
0.000416144
0.000413804
0.000411395
0.00040892
0.000406385
0.000403792
0.000401148
0.000398455
0.000395719
0.000392943
0.000390131
0.000387288
0.000384418
0.000381525
0.000378613
0.000375686
0.000372747
0.000369801
0.000366851
0.000363901
0.000360954
0.000358014
0.000355083
0.000352166
0.000349264
0.000346382
0.000343521
0.000340684
0.000337874
0.000335093
0.000332344
0.000329627
0.000326946
0.000324301
0.000321694
0.000319126
0.000316599
0.000314114
0.00031167
0.00030927
0.000306913
0.000304599
0.000302329
0.000300102
0.000297919
0.000295778
0.000293679
0.000291622
0.000289605
0.000287627
0.000285688
0.000283785
0.000281919
0.000280087
0.000278286
0.000276515
0.000274771
0.00027305
0.000271351
0.000269672
0.00026801
0.000266362
0.000264726
0.000263098
0.000261476
0.000259856
0.000258236
0.000256612
0.000254981
0.000253341
0.000251687
0.000250017
0.000248327
0.000246615
0.000244877
0.00024311
0.00024131
0.000239476
0.000237604
0.000235691
0.000233734
0.000231731
0.000229678
0.000227573
0.000225411
0.00022319
0.000220902
0.000218539
0.000216101
0.000213589
0.000211004
0.000208344
0.000205608
0.000202794
0.000199899
0.000196922
0.000193859
0.000190707
0.000187464
0.000184124
0.000180683
0.000177136
0.000173476
0.000169696
0.000165787
0.000161739
0.000157539
0.00015317
0.000148614
0.000143845
0.000138832
0.000133528
0.000127875
0.00012179
0.000115147
0.000107764
9.93804e-05
8.95716e-05
7.77209e-05
6.29659e-05
4.37268e-05
1.8527e-05
4.19124e-07
3.68389e-06
5.97901e-05
0.000126369
0.000179877
0.000222694
0.0002579
0.000287652
0.000313396
0.000336111
0.000356476
0.00037497
0.000391941
0.000407646
0.000422278
0.000435989
0.000448894
0.000461086
0.000472641
0.000483618
0.000494069
0.000504034
0.000513547
0.000522639
0.000531333
0.00053965
0.000547609
0.000555225
0.000562512
0.000569481
0.000576142
0.000582505
0.000588578
0.000594368
0.000599881
0.000605124
0.000610101
0.000614817
0.000619277
0.000623486
0.000627446
0.000631162
0.000634636
0.000637873
0.000640875
0.000643646
0.000646188
0.000648504
0.000650598
0.000652471
0.000654127
0.000655569
0.000656799
0.00065782
0.000658635
0.000659246
0.000659658
0.000659871
0.00065989
0.000659716
0.000659351
0.000658799
0.000658059
0.000657133
0.000656025
0.000654742
0.000653291
0.000651677
0.000649907
0.000647986
0.000645918
0.000643708
0.000641362
0.000638885
0.000636281
0.000633556
0.000630715
0.000627763
0.000624706
0.000621548
0.000618295
0.000614953
0.000611527
0.000608022
0.000604444
0.000600799
0.000597091
0.000593327
0.000589511
0.00058565
0.000581748
0.000577811
0.000573843
0.000569851
0.000565839
0.000561812
0.000557775
0.000553732
0.000549689
0.00054565
0.000541619
0.0005376
0.000533598
0.000529615
0.000525657
0.000521726
0.000517825
0.000513959
0.000510129
0.000506338
0.000502589
0.000498884
0.000495225
0.000491613
0.000488051
0.00048454
0.00048108
0.000477672
0.000474317
0.000471016
0.000467768
0.000464573
0.000461431
0.000458341
0.000455302
0.000452313
0.000449373
0.000446481
0.000443634
0.000440832
0.000438073
0.000435353
0.00043267
0.000430019
0.000427397
0.000424802
0.00042223
0.000419678
0.000417141
0.000414618
0.000412102
0.000409592
0.000407082
0.000404569
0.000402047
0.000399514
0.000396965
0.000394395
0.0003918
0.000389177
0.00038652
0.000383825
0.000381088
0.000378306
0.000375474
0.000372588
0.000369645
0.000366639
0.000363569
0.000360429
0.000357216
0.000353926
0.000350554
0.000347095
0.000343542
0.000339889
0.000336131
0.000332269
0.0003283
0.000324223
0.000320035
0.000315732
0.00031131
0.000306764
0.00030209
0.00029728
0.000292328
0.000287225
0.000281963
0.000276528
0.00027091
0.000265092
0.000259057
0.000252783
0.000246244
0.000239409
0.000232237
0.000224681
0.000216676
0.000208139
0.000198959
0.000188985
0.000178006
0.000165726
0.000151723
0.000135382
0.000115833
9.18793e-05
6.18742e-05
2.54318e-05
6.53733e-07
3.68404e-06
5.97935e-05
0.000126377
0.000179888
0.000222707
0.000257914
0.000287666
0.00031341
0.000336126
0.000356491
0.000374985
0.000391955
0.00040766
0.000422293
0.000436003
0.000448908
0.0004611
0.000472655
0.000483632
0.000494083
0.000504047
0.000513561
0.000522652
0.000531346
0.000539664
0.000547623
0.000555239
0.000562525
0.000569494
0.000576156
0.000582519
0.000588591
0.000594381
0.000599894
0.000605137
0.000610114
0.00061483
0.00061929
0.000623499
0.000627459
0.000631174
0.000634649
0.000637886
0.000640888
0.000643659
0.000646201
0.000648517
0.00065061
0.000652484
0.00065414
0.000655581
0.000656811
0.000657832
0.000658647
0.000659258
0.000659669
0.000659883
0.000659901
0.000659727
0.000659362
0.00065881
0.00065807
0.000657144
0.000656036
0.000654753
0.000653301
0.000651687
0.000649917
0.000647995
0.000645927
0.000643718
0.000641372
0.000638894
0.00063629
0.000633565
0.000630724
0.000627772
0.000624714
0.000621556
0.000618303
0.000614961
0.000611535
0.00060803
0.000604452
0.000600806
0.000597098
0.000593334
0.000589518
0.000585656
0.000581754
0.000577817
0.000573849
0.000569857
0.000565844
0.000561817
0.00055778
0.000553737
0.000549694
0.000545655
0.000541623
0.000537604
0.000533602
0.000529619
0.000525661
0.000521729
0.000517829
0.000513962
0.000510132
0.000506341
0.000502592
0.000498886
0.000495227
0.000491616
0.000488053
0.000484542
0.000481082
0.000477674
0.000474319
0.000471018
0.000467769
0.000464574
0.000461432
0.000458342
0.000455302
0.000452314
0.000449374
0.000446481
0.000443635
0.000440833
0.000438073
0.000435353
0.00043267
0.000430019
0.000427397
0.000424802
0.00042223
0.000419677
0.000417141
0.000414617
0.000412102
0.000409591
0.000407081
0.000404567
0.000402046
0.000399513
0.000396963
0.000394394
0.000391799
0.000389175
0.000386518
0.000383823
0.000381087
0.000378304
0.000375472
0.000372586
0.000369642
0.000366637
0.000363566
0.000360426
0.000357213
0.000353923
0.000350551
0.000347093
0.00034354
0.000339886
0.000336129
0.000332267
0.000328298
0.000324221
0.000320033
0.00031573
0.000311308
0.000306762
0.000302088
0.000297278
0.000292326
0.000287224
0.000281961
0.000276527
0.000270909
0.000265091
0.000259056
0.000252782
0.000246243
0.000239407
0.000232236
0.00022468
0.000216675
0.000208138
0.000198959
0.000188985
0.000178005
0.000165725
0.000151723
0.000135382
0.000115833
9.18794e-05
6.18743e-05
2.54317e-05
6.53736e-07
4.89934e-06
7.08191e-05
0.000152309
0.000221314
0.000278476
0.000326485
0.000367548
0.00040329
0.000434888
0.000463199
0.000488854
0.000512324
0.000533968
0.00055406
0.000572815
0.000590403
0.00060696
0.000622596
0.0006374
0.000651448
0.0006648
0.000677509
0.000689617
0.000701162
0.000712176
0.000722686
0.000732716
0.000742286
0.000751414
0.000760116
0.000768406
0.000776298
0.000783802
0.000790929
0.000797687
0.000804087
0.000810135
0.000815839
0.000821206
0.000826243
0.000830956
0.00083535
0.000839431
0.000843205
0.000846677
0.000849852
0.000852734
0.000855329
0.000857642
0.000859676
0.000861437
0.000862929
0.000864156
0.000865123
0.000865834
0.000866293
0.000866505
0.000866473
0.000866201
0.000865694
0.000864953
0.000863984
0.000862788
0.00086137
0.000859738
0.000857898
0.00085586
0.000853628
0.00085121
0.000848611
0.000845839
0.000842899
0.000839797
0.00083654
0.000833134
0.000829585
0.0008259
0.000822085
0.000818145
0.000814089
0.000809922
0.000805652
0.000801283
0.000796824
0.000792281
0.00078766
0.000782968
0.000778211
0.000773397
0.00076853
0.000763619
0.000758668
0.000753685
0.000748675
0.000743645
0.0007386
0.000733545
0.000728488
0.000723432
0.000718384
0.000713348
0.000708329
0.000703332
0.000698361
0.00069342
0.000688514
0.000683646
0.00067882
0.000674038
0.000669304
0.00066462
0.000659989
0.000655413
0.000650893
0.000646431
0.000642029
0.000637686
0.000633404
0.000629183
0.000625022
0.000620922
0.000616881
0.0006129
0.000608976
0.000605108
0.000601295
0.000597535
0.000593826
0.000590165
0.00058655
0.000582976
0.00057944
0.000575937
0.000572465
0.000569018
0.000565593
0.000562185
0.000558789
0.000555403
0.000552019
0.000548634
0.000545243
0.00054184
0.000538421
0.00053498
0.000531512
0.000528012
0.000524474
0.000520894
0.000517267
0.000513586
0.000509848
0.000506048
0.00050218
0.00049824
0.000494223
0.000490125
0.000485941
0.000481666
0.000477297
0.000472827
0.000468252
0.000463565
0.000458761
0.000453832
0.000448773
0.000443581
0.000438253
0.000432786
0.000427173
0.000421411
0.000415493
0.000409411
0.000403156
0.00039672
0.00039009
0.000383253
0.000376195
0.000368898
0.000361341
0.000353501
0.000345348
0.000336851
0.000327967
0.000318649
0.000308835
0.000298452
0.000287404
0.000275568
0.000262784
0.00024884
0.000233448
0.000216223
0.000196634
0.000173955
0.000147196
0.00011504
7.60686e-05
3.09391e-05
8.89839e-07
4.89949e-06
7.08227e-05
0.000152318
0.000221327
0.000278492
0.000326503
0.000367566
0.000403309
0.000434907
0.000463218
0.000488873
0.000512343
0.000533987
0.000554079
0.000572834
0.000590422
0.000606979
0.000622614
0.000637419
0.000651466
0.000664818
0.000677526
0.000689635
0.00070118
0.000712194
0.000722704
0.000732733
0.000742303
0.000751431
0.000760133
0.000768423
0.000776315
0.000783819
0.000790945
0.000797704
0.000804103
0.000810151
0.000815855
0.000821222
0.000826259
0.000830972
0.000835366
0.000839447
0.000843221
0.000846692
0.000849867
0.000852749
0.000855344
0.000857656
0.000859691
0.000861451
0.000862943
0.00086417
0.000865137
0.000865847
0.000866306
0.000866518
0.000866486
0.000866214
0.000865706
0.000864966
0.000863996
0.0008628
0.000861382
0.000859749
0.00085791
0.000855871
0.000853639
0.000851221
0.000848622
0.00084585
0.00084291
0.000839808
0.000836551
0.000833144
0.000829595
0.000825909
0.000822094
0.000818154
0.000814098
0.000809931
0.00080566
0.000801292
0.000796832
0.000792289
0.000787668
0.000782975
0.000778218
0.000773404
0.000768537
0.000763625
0.000758675
0.000753691
0.000748681
0.000743651
0.000738605
0.000733551
0.000728493
0.000723437
0.000718389
0.000713352
0.000708333
0.000703336
0.000698365
0.000693424
0.000688518
0.00068365
0.000678823
0.000674041
0.000669307
0.000664623
0.000659992
0.000655416
0.000650896
0.000646434
0.000642031
0.000637688
0.000633406
0.000629184
0.000625023
0.000620923
0.000616882
0.000612901
0.000608977
0.000605109
0.000601296
0.000597536
0.000593826
0.000590165
0.00058655
0.000582976
0.00057944
0.000575937
0.000572464
0.000569017
0.000565592
0.000562184
0.000558789
0.000555401
0.000552018
0.000548633
0.000545242
0.000541839
0.000538419
0.000534978
0.00053151
0.00052801
0.000524472
0.000520892
0.000517264
0.000513584
0.000509846
0.000506045
0.000502177
0.000498237
0.00049422
0.000490122
0.000485938
0.000481664
0.000477294
0.000472824
0.000468249
0.000463562
0.000458758
0.000453829
0.00044877
0.000443578
0.00043825
0.000432783
0.000427171
0.000421409
0.00041549
0.000409408
0.000403154
0.000396717
0.000390087
0.000383251
0.000376193
0.000368896
0.000361339
0.000353499
0.000345347
0.000336849
0.000327965
0.000318647
0.000308834
0.000298451
0.000287403
0.000275567
0.000262783
0.000248839
0.000233448
0.000216223
0.000196634
0.000173955
0.000147196
0.00011504
7.60688e-05
3.09391e-05
8.89843e-07
6.11149e-06
8.00456e-05
0.000173586
0.000255649
0.000325411
0.000385049
0.000436655
0.0004819
0.000522062
0.000558115
0.000590799
0.000620681
0.000648204
0.000673711
0.000697477
0.00071972
0.000740616
0.000760309
0.000778917
0.000796538
0.000813255
0.000829134
0.000844235
0.000858607
0.000872293
0.000885329
0.000897747
0.000909575
0.000920836
0.000931553
0.000941745
0.000951429
0.00096062
0.000969334
0.000977582
0.000985376
0.000992728
0.000999649
0.00100615
0.00101223
0.00101791
0.0010232
0.00102809
0.00103261
0.00103675
0.00104053
0.00104395
0.00104702
0.00104974
0.00105212
0.00105417
0.0010559
0.0010573
0.00105839
0.00105918
0.00105966
0.00105985
0.00105974
0.00105935
0.00105868
0.00105774
0.00105652
0.00105504
0.00105331
0.00105132
0.00104909
0.00104662
0.00104393
0.00104101
0.00103789
0.00103456
0.00103104
0.00102733
0.00102343
0.00101936
0.00101513
0.00101073
0.00100618
0.00100149
0.000996665
0.000991708
0.000986629
0.000981436
0.000976137
0.00097074
0.000965252
0.000959681
0.000954034
0.000948319
0.000942544
0.000936715
0.000930841
0.000924928
0.000918983
0.000913014
0.000907027
0.000901028
0.000895025
0.000889023
0.000883029
0.000877048
0.000871086
0.000865148
0.000859239
0.000853365
0.000847529
0.000841736
0.00083599
0.000830294
0.000824653
0.000819067
0.000813541
0.000808077
0.000802675
0.000797339
0.000792069
0.000786866
0.00078173
0.000776662
0.000771661
0.000766727
0.000761859
0.000757055
0.000752314
0.000747634
0.000743014
0.00073845
0.00073394
0.000729481
0.000725069
0.000720699
0.000716367
0.000712069
0.000707799
0.000703554
0.000699327
0.000695114
0.000690909
0.000686707
0.000682503
0.00067829
0.000674063
0.000669816
0.000665542
0.000661237
0.000656894
0.000652506
0.000648069
0.000643575
0.00063902
0.000634397
0.000629701
0.000624926
0.000620067
0.000615118
0.000610074
0.00060493
0.00059968
0.000594319
0.000588843
0.000583245
0.000577519
0.000571659
0.000565658
0.00055951
0.000553207
0.000546744
0.000540118
0.000533321
0.000526348
0.00051919
0.000511838
0.000504283
0.000496512
0.000488511
0.000480266
0.000471757
0.000462964
0.000453863
0.000444425
0.000434617
0.000424401
0.000413731
0.000402553
0.0003908
0.000378392
0.00036523
0.000351189
0.000336111
0.000319793
0.000301972
0.000282301
0.000260327
0.000235449
0.000206874
0.000173576
0.000134286
8.78283e-05
3.56319e-05
1.12713e-06
6.11163e-06
8.00494e-05
0.000173595
0.000255662
0.000325428
0.000385068
0.000436676
0.000481921
0.000522085
0.000558138
0.000590822
0.000620704
0.000648227
0.000673734
0.0006975
0.000719743
0.000740639
0.000760332
0.00077894
0.000796561
0.000813277
0.000829156
0.000844257
0.000858629
0.000872315
0.00088535
0.000897768
0.000909595
0.000920857
0.000931574
0.000941765
0.000951449
0.00096064
0.000969353
0.000977601
0.000985396
0.000992748
0.000999668
0.00100617
0.00101225
0.00101793
0.00102321
0.00102811
0.00103263
0.00103677
0.00104055
0.00104397
0.00104703
0.00104975
0.00105214
0.00105419
0.00105591
0.00105732
0.00105841
0.00105919
0.00105967
0.00105986
0.00105976
0.00105937
0.0010587
0.00105775
0.00105654
0.00105506
0.00105332
0.00105133
0.0010491
0.00104663
0.00104394
0.00104103
0.0010379
0.00103458
0.00103105
0.00102734
0.00102344
0.00101937
0.00101514
0.00101074
0.0010062
0.0010015
0.000996675
0.000991717
0.000986638
0.000981445
0.000976146
0.000970749
0.00096526
0.000959689
0.000954042
0.000948327
0.000942551
0.000936723
0.000930848
0.000924935
0.00091899
0.00091302
0.000907033
0.000901034
0.000895031
0.000889029
0.000883034
0.000877053
0.000871091
0.000865153
0.000859244
0.000853369
0.000847533
0.00084174
0.000835994
0.000830298
0.000824656
0.000819071
0.000813545
0.00080808
0.000802678
0.000797342
0.000792072
0.000786868
0.000781733
0.000776664
0.000771663
0.000766729
0.00076186
0.000757057
0.000752316
0.000747636
0.000743015
0.000738451
0.000733941
0.000729482
0.00072507
0.0007207
0.000716368
0.000712069
0.000707799
0.000703554
0.000699327
0.000695113
0.000690908
0.000686706
0.000682502
0.000678289
0.000674062
0.000669814
0.000665541
0.000661236
0.000656892
0.000652505
0.000648067
0.000643573
0.000639018
0.000634395
0.000629699
0.000624924
0.000620064
0.000615115
0.000610071
0.000604927
0.000599677
0.000594317
0.00058884
0.000583242
0.000577516
0.000571656
0.000565656
0.000559507
0.000553204
0.000546742
0.000540115
0.000533319
0.000526345
0.000519187
0.000511836
0.00050428
0.000496509
0.000488509
0.000480264
0.000471755
0.000462962
0.000453861
0.000444423
0.000434615
0.000424399
0.000413729
0.000402551
0.000390798
0.000378391
0.000365229
0.000351188
0.00033611
0.000319792
0.000301971
0.000282301
0.000260327
0.000235449
0.000206874
0.000173576
0.000134287
8.78285e-05
3.56318e-05
1.12713e-06
7.32258e-06
8.81747e-05
0.00019182
0.000285045
0.000365845
0.0004359
0.00049713
0.000551184
0.000599382
0.000642766
0.000682153
0.000718184
0.000751367
0.000782104
0.00081072
0.000837474
0.000862582
0.000886216
0.000908521
0.000929617
0.000949606
0.000968571
0.000986585
0.00100371
0.00102
0.00103549
0.00105024
0.00106426
0.0010776
0.00109028
0.00110233
0.00111376
0.00112459
0.00113485
0.00114455
0.0011537
0.00116232
0.00117042
0.00117802
0.00118512
0.00119174
0.00119789
0.00120357
0.0012088
0.00121359
0.00121794
0.00122187
0.00122539
0.0012285
0.00123121
0.00123353
0.00123546
0.00123703
0.00123822
0.00123906
0.00123955
0.00123969
0.0012395
0.00123898
0.00123814
0.00123698
0.00123551
0.00123374
0.00123168
0.00122933
0.0012267
0.00122381
0.00122065
0.00121725
0.00121361
0.00120973
0.00120563
0.00120132
0.0011968
0.00119208
0.00118718
0.00118209