/*--------------------------------*- C++ -*----------------------------------*\
  =========                 |
  \\      /  F ield         | OpenFOAM: The Open Source CFD Toolbox
   \\    /   O peration     | Website:  https://openfoam.org
    \\  /    A nd           | Version:  8
     \\/     M anipulation  |
\*---------------------------------------------------------------------------*/
FoamFile
{
    version     2.0;
    format      ascii;
    class       surfaceScalarField;
    location    "2500";
    object      phi;
}
// * * * * * * * * * * * * * * * * * * * * * * * * * * * * * * * * * * * * * //

dimensions      [1 0 -1 0 0 0 0];

internalField   nonuniform List<scalar> 
114370
(
2.65273e-10
8.58943e-14
-2.65359e-10
6.47749e-10
1.54358e-13
-3.85016e-10
9.66233e-10
9.11879e-14
-3.17674e-10
1.14125e-09
2.70734e-14
-1.74268e-10
1.17184e-09
6.14684e-15
-3.03757e-11
1.07899e-09
-1.95996e-15
9.27896e-11
8.87124e-10
-6.42512e-15
1.91761e-10
6.17624e-10
-7.3455e-15
2.69412e-10
2.87615e-10
-4.46511e-15
3.29945e-10
-8.95942e-11
7.45413e-16
3.77155e-10
-5.03635e-10
6.36911e-15
4.13991e-10
-9.46642e-10
1.07908e-14
4.42961e-10
-1.41286e-09
1.30467e-14
4.66176e-10
-1.89793e-09
1.29343e-14
4.85032e-10
-2.39855e-09
1.11776e-14
5.00581e-10
-2.91217e-09
8.74575e-15
5.13592e-10
-3.43683e-09
6.3603e-15
5.24629e-10
-3.97094e-09
4.36431e-15
5.34097e-10
-4.51324e-09
2.85601e-15
5.42283e-10
-5.06264e-09
1.80656e-15
5.49383e-10
-5.61817e-09
1.13593e-15
5.55524e-10
-6.17895e-09
7.47431e-16
5.6078e-10
-6.74415e-09
5.52143e-16
5.65188e-10
-7.3129e-09
4.79811e-16
5.68754e-10
-7.88437e-09
4.7666e-16
5.71463e-10
-8.45766e-09
5.06909e-16
5.73288e-10
-9.03186e-09
5.45839e-16
5.74188e-10
-9.60598e-09
5.86727e-16
5.74121e-10
-1.0179e-08
6.34344e-16
5.73041e-10
-1.07499e-08
6.95843e-16
5.70902e-10
-1.13176e-08
7.74479e-16
5.67664e-10
-1.18809e-08
8.71118e-16
5.6329e-10
-1.24386e-08
9.78603e-16
5.5775e-10
-1.29897e-08
1.08555e-15
5.5102e-10
-1.35327e-08
1.18188e-15
5.43087e-10
-1.40667e-08
1.25826e-15
5.33942e-10
-1.45903e-08
1.30559e-15
5.2359e-10
-1.51023e-08
1.32007e-15
5.1204e-10
-1.56016e-08
1.30127e-15
4.99314e-10
-1.60871e-08
1.25288e-15
4.85439e-10
-1.65575e-08
1.18064e-15
4.70452e-10
-1.70119e-08
1.0956e-15
4.54397e-10
-1.74492e-08
1.00547e-15
4.37324e-10
-1.78685e-08
9.17841e-16
4.19292e-10
-1.82689e-08
8.38561e-16
4.00361e-10
-1.86495e-08
7.69474e-16
3.80599e-10
-1.90096e-08
7.11448e-16
3.60077e-10
-1.93484e-08
6.61013e-16
3.38869e-10
-1.96655e-08
6.14592e-16
3.17052e-10
-1.99602e-08
5.67956e-16
2.94704e-10
-2.02321e-08
5.13623e-16
2.71904e-10
-2.04808e-08
4.45848e-16
2.48731e-10
-2.07061e-08
3.60184e-16
2.25264e-10
-2.09077e-08
2.53922e-16
2.01582e-10
-2.10855e-08
1.29664e-16
1.77762e-10
-2.12393e-08
-1.02063e-17
1.53878e-10
-2.13693e-08
-1.59942e-16
1.30005e-10
-2.14755e-08
-3.13254e-16
1.06213e-10
-2.15581e-08
-4.62663e-16
8.25717e-11
-2.16173e-08
-6.04048e-16
5.9147e-11
-2.16533e-08
-7.33832e-16
3.60003e-11
-2.16664e-08
-8.51363e-16
1.31887e-11
-2.16572e-08
-9.59245e-16
-9.23937e-12
-2.16259e-08
-1.05954e-15
-3.12501e-11
-2.15731e-08
-1.15419e-15
-5.28095e-11
-2.14992e-08
-1.24212e-15
-7.38771e-11
-2.14048e-08
-1.32442e-15
-9.44116e-11
-2.12904e-08
-1.40009e-15
-1.14375e-10
-2.11566e-08
-1.46515e-15
-1.33734e-10
-2.10041e-08
-1.51968e-15
-1.52462e-10
-2.08336e-08
-1.56045e-15
-1.70533e-10
-2.06456e-08
-1.59179e-15
-1.87929e-10
-2.0441e-08
-1.61195e-15
-2.04634e-10
-2.02203e-08
-1.62616e-15
-2.20633e-10
-1.99843e-08
-1.63754e-15
-2.35918e-10
-1.97338e-08
-1.64958e-15
-2.5048e-10
-1.94695e-08
-1.66421e-15
-2.64315e-10
-1.9192e-08
-1.68145e-15
-2.7742e-10
-1.89022e-08
-1.70227e-15
-2.89796e-10
-1.86007e-08
-1.72515e-15
-3.01445e-10
-1.82883e-08
-1.74868e-15
-3.1237e-10
-1.79657e-08
-1.77231e-15
-3.22577e-10
-1.76336e-08
-1.79692e-15
-3.32075e-10
-1.72927e-08
-1.82153e-15
-3.40871e-10
-1.69437e-08
-1.84842e-15
-3.48976e-10
-1.65872e-08
-1.87672e-15
-3.56401e-10
-1.6224e-08
-1.90849e-15
-3.6316e-10
-1.58547e-08
-1.94232e-15
-3.69266e-10
-1.54799e-08
-1.97744e-15
-3.74734e-10
-1.51003e-08
-2.01105e-15
-3.7958e-10
-1.47165e-08
-2.04163e-15
-3.83821e-10
-1.43289e-08
-2.06678e-15
-3.87474e-10
-1.39383e-08
-2.08457e-15
-3.90557e-10
-1.35452e-08
-2.09454e-15
-3.93087e-10
-1.315e-08
-2.09844e-15
-3.95085e-10
-1.27534e-08
-2.09563e-15
-3.9657e-10
-1.23558e-08
-2.08869e-15
-3.97562e-10
-1.19577e-08
-2.07676e-15
-3.9808e-10
-1.15594e-08
-2.0631e-15
-3.98146e-10
-1.11616e-08
-2.04684e-15
-3.9778e-10
-1.07645e-08
-2.02906e-15
-3.97002e-10
-1.03686e-08
-2.01085e-15
-3.95833e-10
-9.97428e-09
-1.99545e-15
-3.94295e-10
-9.5818e-09
-1.98266e-15
-3.92408e-10
-9.19153e-09
-1.97204e-15
-3.90194e-10
-8.80378e-09
-1.9651e-15
-3.87674e-10
-8.41884e-09
-1.96206e-15
-3.84868e-10
-8.03697e-09
-1.96033e-15
-3.81796e-10
-7.65841e-09
-1.96012e-15
-3.7848e-10
-7.28339e-09
-1.9599e-15
-3.74938e-10
-6.91212e-09
-1.95926e-15
-3.71191e-10
-6.54478e-09
-1.95687e-15
-3.67259e-10
-6.18153e-09
-1.95297e-15
-3.63159e-10
-5.82254e-09
-1.94821e-15
-3.58911e-10
-5.46791e-09
-1.94171e-15
-3.54532e-10
-5.11778e-09
-1.93325e-15
-3.50041e-10
-4.77223e-09
-1.92437e-15
-3.45453e-10
-4.43135e-09
-1.91071e-15
-3.40786e-10
-4.0952e-09
-1.89901e-15
-3.36053e-10
-3.76383e-09
-1.8873e-15
-3.3127e-10
-3.43728e-09
-1.87451e-15
-3.2645e-10
-3.11557e-09
-1.86324e-15
-3.21606e-10
-2.79871e-09
-1.85609e-15
-3.1675e-10
-2.48671e-09
-1.85068e-15
-3.11893e-10
-2.17956e-09
-1.84895e-15
-3.07044e-10
-1.87723e-09
-1.85047e-15
-3.02214e-10
-1.57971e-09
-1.8585e-15
-2.97411e-10
-1.28695e-09
-1.86978e-15
-2.92641e-10
-9.98917e-10
-1.88475e-15
-2.87916e-10
-7.1554e-10
-1.90102e-15
-2.83257e-10
-4.36728e-10
-1.91903e-15
-2.7869e-10
-1.62394e-10
-1.92988e-15
-2.74212e-10
1.07439e-10
-1.93986e-15
-2.69708e-10
3.72656e-10
-1.94897e-15
-2.6509e-10
6.33212e-10
-1.96155e-15
-2.60428e-10
8.89105e-10
-1.9945e-15
-2.55764e-10
1.14032e-09
-2.0344e-15
-2.51084e-10
1.38682e-09
-2.07191e-15
-2.46372e-10
1.62856e-09
-2.10248e-15
-2.41606e-10
1.86545e-09
-2.12742e-15
-2.36763e-10
2.0974e-09
-2.14563e-15
-2.31817e-10
2.32428e-09
-2.15994e-15
-2.26741e-10
2.54592e-09
-2.16969e-15
-2.21504e-10
2.76212e-09
-2.17446e-15
-2.16073e-10
2.97267e-09
-2.17511e-15
-2.10413e-10
3.17729e-09
-2.17511e-15
-2.04488e-10
3.37569e-09
-2.17468e-15
-1.98258e-10
3.5675e-09
-2.17663e-15
-1.91684e-10
3.75236e-09
-2.17966e-15
-1.84723e-10
3.92983e-09
-2.1892e-15
-1.77333e-10
4.09943e-09
-2.20655e-15
-1.69469e-10
4.26065e-09
-2.23387e-15
-1.61089e-10
4.41293e-09
-2.27226e-15
-1.52148e-10
4.55566e-09
-2.32018e-15
-1.42605e-10
4.68821e-09
-2.37939e-15
-1.32418e-10
4.80989e-09
-2.44639e-15
-1.21548e-10
4.91998e-09
-2.52056e-15
-1.0996e-10
5.01773e-09
-2.59842e-15
-9.76217e-11
5.10237e-09
-2.67714e-15
-8.45052e-11
5.17309e-09
-2.75521e-15
-7.05898e-11
5.22908e-09
-2.83004e-15
-5.58623e-11
5.26953e-09
-2.89662e-15
-4.03206e-11
5.29364e-09
-2.95476e-15
-2.39758e-11
5.30064e-09
-2.9988e-15
-6.86007e-12
5.28973e-09
-3.04129e-15
1.10423e-11
5.26012e-09
-3.08512e-15
2.97581e-11
5.21101e-09
-3.11334e-15
4.92493e-11
5.14169e-09
-3.13158e-15
6.94585e-11
5.05152e-09
-3.1442e-15
9.0315e-11
4.93994e-09
-3.14511e-15
1.11734e-10
4.80647e-09
-3.13431e-15
1.33615e-10
4.65079e-09
-3.10834e-15
1.55839e-10
4.47267e-09
-3.07111e-15
1.78271e-10
4.27208e-09
-3.02346e-15
2.00752e-10
4.04914e-09
-2.97843e-15
2.231e-10
3.80419e-09
-2.94815e-15
2.45109e-10
3.53781e-09
-2.94824e-15
2.66543e-10
3.25084e-09
-2.9917e-15
2.87136e-10
2.94443e-09
-3.07854e-15
3.06585e-10
2.62006e-09
-3.20095e-15
3.24549e-10
2.2796e-09
-3.33898e-15
3.4064e-10
1.92537e-09
-3.48005e-15
3.54415e-10
1.5602e-09
-3.61636e-15
3.65367e-10
1.18748e-09
-3.75571e-15
3.72914e-10
8.11314e-10
-3.91457e-15
3.76376e-10
4.36578e-10
-4.10726e-15
3.7495e-10
6.9082e-11
-4.33378e-15
3.67719e-10
-2.83935e-10
-4.55073e-15
3.53248e-10
-6.1381e-10
-4.76329e-15
3.30114e-10
-9.10509e-10
-5.03045e-15
2.96943e-10
-1.16236e-09
-5.32447e-15
2.52105e-10
-1.35565e-09
-5.60588e-15
1.93548e-10
-1.47429e-09
-5.82565e-15
1.189e-10
-1.50079e-09
-5.94693e-15
2.67763e-11
-1.41848e-09
-5.91693e-15
-8.20231e-11
-1.21631e-09
-5.72453e-15
-2.01874e-10
-8.98701e-10
-5.33861e-15
-3.17296e-10
-5.09018e-10
-4.93313e-15
-3.89349e-10
-1.60165e-10
-5.38395e-15
-3.48481e-10
-2.5181e-15
-1.59759e-10
2.67778e-10
-2.67816e-10
6.48679e-10
-3.89015e-10
9.65755e-10
-3.20319e-10
1.14051e-09
-1.75708e-10
1.17128e-09
-3.10578e-11
1.07867e-09
9.25101e-11
8.86932e-10
1.91671e-10
6.1748e-10
2.69398e-10
2.87475e-10
3.29957e-10
-8.97363e-11
3.77175e-10
-5.0377e-10
4.14012e-10
-9.46761e-10
4.42981e-10
-1.41296e-09
4.66194e-10
-1.89801e-09
4.85049e-10
-2.3986e-09
5.00596e-10
-2.9122e-09
5.13606e-10
-3.43684e-09
5.24642e-10
-3.97094e-09
5.3411e-10
-4.51323e-09
5.42296e-10
-5.06261e-09
5.49396e-10
-5.61814e-09
5.55536e-10
-6.17892e-09
5.60792e-10
-6.74411e-09
5.65199e-10
-7.31286e-09
5.68765e-10
-7.88432e-09
5.71474e-10
-8.45761e-09
5.73298e-10
-9.0318e-09
5.74198e-10
-9.60592e-09
5.74131e-10
-1.0179e-08
5.7305e-10
-1.07499e-08
5.70911e-10
-1.13175e-08
5.67673e-10
-1.18808e-08
5.63298e-10
-1.24386e-08
5.57758e-10
-1.29896e-08
5.51028e-10
-1.35327e-08
5.43094e-10
-1.40666e-08
5.33949e-10
-1.45902e-08
5.23596e-10
-1.51022e-08
5.12046e-10
-1.56016e-08
4.9932e-10
-1.6087e-08
4.85445e-10
-1.65574e-08
4.70457e-10
-1.70118e-08
4.54402e-10
-1.74492e-08
4.37329e-10
-1.78685e-08
4.19296e-10
-1.82688e-08
4.00365e-10
-1.86494e-08
3.80603e-10
-1.90095e-08
3.60081e-10
-1.93484e-08
3.38873e-10
-1.96654e-08
3.17055e-10
-1.99601e-08
2.94707e-10
-2.0232e-08
2.71906e-10
-2.04808e-08
2.48733e-10
-2.0706e-08
2.25266e-10
-2.09076e-08
2.01584e-10
-2.10854e-08
1.77764e-10
-2.12392e-08
1.5388e-10
-2.13693e-08
1.30007e-10
-2.14755e-08
1.06215e-10
-2.1558e-08
8.25734e-11
-2.16172e-08
5.91487e-11
-2.16532e-08
3.60021e-11
-2.16663e-08
1.31905e-11
-2.16571e-08
-9.23744e-12
-2.16258e-08
-3.12481e-11
-2.1573e-08
-5.28075e-11
-2.14991e-08
-7.38751e-11
-2.14047e-08
-9.44097e-11
-2.12903e-08
-1.14373e-10
-2.11565e-08
-1.33732e-10
-2.1004e-08
-1.5246e-10
-2.08335e-08
-1.70531e-10
-2.06455e-08
-1.87928e-10
-2.04409e-08
-2.04632e-10
-2.02202e-08
-2.20632e-10
-1.99843e-08
-2.35916e-10
-1.97338e-08
-2.50478e-10
-1.94694e-08
-2.64313e-10
-1.9192e-08
-2.77419e-10
-1.89021e-08
-2.89795e-10
-1.86006e-08
-3.01443e-10
-1.82882e-08
-3.12369e-10
-1.79656e-08
-3.22577e-10
-1.76335e-08
-3.32074e-10
-1.72926e-08
-3.4087e-10
-1.69436e-08
-3.48975e-10
-1.65872e-08
-3.564e-10
-1.6224e-08
-3.63158e-10
-1.58547e-08
-3.69264e-10
-1.54799e-08
-3.74733e-10
-1.51002e-08
-3.79579e-10
-1.47164e-08
-3.8382e-10
-1.43289e-08
-3.87473e-10
-1.39383e-08
-3.90555e-10
-1.35451e-08
-3.93085e-10
-1.315e-08
-3.95083e-10
-1.27534e-08
-3.96568e-10
-1.23557e-08
-3.97559e-10
-1.19576e-08
-3.98078e-10
-1.15594e-08
-3.98144e-10
-1.11615e-08
-3.97777e-10
-1.07645e-08
-3.96999e-10
-1.03686e-08
-3.9583e-10
-9.97421e-09
-3.94292e-10
-9.58174e-09
-3.92405e-10
-9.19147e-09
-3.90191e-10
-8.80372e-09
-3.8767e-10
-8.41878e-09
-3.84864e-10
-8.03691e-09
-3.81793e-10
-7.65835e-09
-3.78476e-10
-7.28333e-09
-3.74934e-10
-6.91206e-09
-3.71187e-10
-6.54472e-09
-3.67254e-10
-6.18148e-09
-3.63154e-10
-5.82248e-09
-3.58905e-10
-5.46786e-09
-3.54527e-10
-5.11772e-09
-3.50035e-10
-4.77218e-09
-3.45447e-10
-4.4313e-09
-3.40779e-10
-4.09515e-09
-3.36046e-10
-3.76378e-09
-3.31263e-10
-3.43722e-09
-3.26442e-10
-3.11551e-09
-3.21598e-10
-2.79866e-09
-3.16741e-10
-2.48666e-09
-3.11884e-10
-2.17951e-09
-3.07035e-10
-1.87718e-09
-3.02205e-10
-1.57966e-09
-2.97401e-10
-1.2869e-09
-2.92631e-10
-9.98867e-10
-2.87905e-10
-7.1549e-10
-2.83246e-10
-4.36679e-10
-2.78679e-10
-1.62345e-10
-2.742e-10
1.07488e-10
-2.69696e-10
3.72704e-10
-2.65077e-10
6.33259e-10
-2.60414e-10
8.89151e-10
-2.5575e-10
1.14036e-09
-2.5107e-10
1.38687e-09
-2.46357e-10
1.6286e-09
-2.41591e-10
1.8655e-09
-2.36748e-10
2.09745e-09
-2.31802e-10
2.32432e-09
-2.26725e-10
2.54596e-09
-2.21488e-10
2.76217e-09
-2.16056e-10
2.97271e-09
-2.10396e-10
3.17734e-09
-2.04471e-10
3.37573e-09
-1.98241e-10
3.56754e-09
-1.91667e-10
3.7524e-09
-1.84706e-10
3.92987e-09
-1.77316e-10
4.09947e-09
-1.69452e-10
4.26069e-09
-1.61072e-10
4.41297e-09
-1.52131e-10
4.5557e-09
-1.42588e-10
4.68825e-09
-1.32401e-10
4.80993e-09
-1.21531e-10
4.92002e-09
-1.09943e-10
5.01777e-09
-9.7604e-11
5.10241e-09
-8.44873e-11
5.17313e-09
-7.05717e-11
5.22912e-09
-5.5844e-11
5.26957e-09
-4.0302e-11
5.29368e-09
-2.39569e-11
5.30068e-09
-6.84082e-12
5.28977e-09
1.10619e-11
5.26015e-09
2.97781e-11
5.21104e-09
4.92696e-11
5.14173e-09
6.9479e-11
5.05156e-09
9.03359e-11
4.93997e-09
1.11755e-10
4.80651e-09
1.33636e-10
4.65082e-09
1.55861e-10
4.4727e-09
1.78293e-10
4.27211e-09
2.00774e-10
4.04916e-09
2.23123e-10
3.80422e-09
2.45132e-10
3.53784e-09
2.66566e-10
3.25087e-09
2.8716e-10
2.94446e-09
3.0661e-10
2.62008e-09
3.24575e-10
2.27962e-09
3.40666e-10
1.92539e-09
3.54442e-10
1.56021e-09
3.65395e-10
1.1875e-09
3.72943e-10
8.11326e-10
3.76406e-10
4.36588e-10
3.74982e-10
6.90895e-11
3.67752e-10
-2.8393e-10
3.53282e-10
-6.13809e-10
3.30148e-10
-9.1051e-10
2.96978e-10
-1.16237e-09
2.52141e-10
-1.35566e-09
1.93585e-10
-1.47429e-09
1.18938e-10
-1.50079e-09
2.6815e-11
-1.41848e-09
-8.19835e-11
-1.2163e-09
-2.01833e-10
-8.98686e-10
-3.17253e-10
-5.08988e-10
-3.89301e-10
-1.60123e-10
-3.48422e-10
-1.59696e-10
3.83096e-10
-1.39632e-13
-6.46614e-10
6.32238e-10
-6.44538e-14
-6.33887e-10
7.27579e-10
-1.30735e-14
-4.1309e-10
7.06898e-10
-1.04522e-14
-1.5371e-10
5.89028e-10
-7.42057e-15
8.73819e-11
3.89051e-10
-5.98268e-15
2.92683e-10
1.20405e-10
-4.69467e-15
4.60348e-10
-2.04961e-10
-3.49047e-15
5.94732e-10
-5.76672e-10
-1.91897e-15
7.01615e-10
-9.8615e-10
8.4416e-17
7.86595e-10
-1.42651e-09
2.11886e-15
8.5432e-10
-1.89224e-09
3.64356e-15
9.08656e-10
-2.37886e-09
4.36451e-15
9.52766e-10
-2.88283e-09
4.32834e-15
9.88982e-10
-3.40136e-09
3.82835e-15
1.01909e-09
-3.9322e-09
3.16731e-15
1.04442e-09
-4.47355e-09
2.53648e-15
1.06596e-09
-5.02391e-09
2.01141e-15
1.08446e-09
-5.58205e-09
1.60692e-15
1.10042e-09
-6.14688e-09
1.31324e-15
1.11421e-09
-6.71742e-09
1.11253e-15
1.12606e-09
-7.29277e-09
9.83491e-16
1.13613e-09
-7.87206e-09
9.05469e-16
1.14448e-09
-8.45443e-09
8.59651e-16
1.15112e-09
-9.03901e-09
8.3075e-16
1.15604e-09
-9.62491e-09
8.08358e-16
1.15918e-09
-1.02112e-08
7.86728e-16
1.16048e-09
-1.07969e-08
7.64993e-16
1.15984e-09
-1.13811e-08
7.44345e-16
1.15719e-09
-1.19626e-08
7.26627e-16
1.15243e-09
-1.25404e-08
7.10592e-16
1.14551e-09
-1.31135e-08
6.94506e-16
1.13633e-09
-1.36806e-08
6.75494e-16
1.12485e-09
-1.42406e-08
6.50306e-16
1.11103e-09
-1.47923e-08
6.16716e-16
1.09482e-09
-1.53346e-08
5.74456e-16
1.07623e-09
-1.58663e-08
5.2309e-16
1.05525e-09
-1.63861e-08
4.65438e-16
1.03191e-09
-1.68931e-08
4.05132e-16
1.00625e-09
-1.73859e-08
3.46345e-16
9.78314e-10
-1.78637e-08
2.93361e-16
9.48177e-10
-1.83252e-08
2.49973e-16
9.15925e-10
-1.87695e-08
2.17917e-16
8.81654e-10
-1.91957e-08
1.96542e-16
8.45476e-10
-1.96029e-08
1.83896e-16
8.0751e-10
-1.99901e-08
1.76563e-16
7.67886e-10
-2.03568e-08
1.71238e-16
7.26744e-10
-2.07022e-08
1.6445e-16
6.84227e-10
-2.10256e-08
1.53381e-16
6.40485e-10
-2.13266e-08
1.36241e-16
5.9567e-10
-2.16046e-08
1.13302e-16
5.49937e-10
-2.18593e-08
8.38034e-17
5.03442e-10
-2.20904e-08
4.95355e-17
4.56339e-10
-2.22976e-08
1.21241e-17
4.08784e-10
-2.24807e-08
-2.62083e-17
3.60926e-10
-2.26398e-08
-6.31848e-17
3.12913e-10
-2.27747e-08
-9.64747e-17
2.64889e-10
-2.28854e-08
-1.2418e-16
2.16993e-10
-2.29722e-08
-1.45326e-16
1.69358e-10
-2.30352e-08
-1.59208e-16
1.2211e-10
-2.30745e-08
-1.66313e-16
7.53689e-11
-2.30906e-08
-1.67672e-16
2.92457e-11
-2.30836e-08
-1.64639e-16
-1.61601e-11
-2.30541e-08
-1.58733e-16
-6.07621e-11
-2.30024e-08
-1.51309e-16
-1.04477e-10
-2.29291e-08
-1.42475e-16
-1.47223e-10
-2.28345e-08
-1.32611e-16
-1.88925e-10
-2.27194e-08
-1.20687e-16
-2.29512e-10
-2.25841e-08
-1.06975e-16
-2.68922e-10
-2.24295e-08
-9.23403e-17
-3.07103e-10
-2.2256e-08
-7.67845e-17
-3.44007e-10
-2.20643e-08
-6.14454e-17
-3.79594e-10
-2.18551e-08
-4.73533e-17
-4.13832e-10
-2.1629e-08
-3.57006e-17
-4.46693e-10
-2.13867e-08
-2.77344e-17
-4.78157e-10
-2.11289e-08
-2.39966e-17
-5.08208e-10
-2.08564e-08
-2.41078e-17
-5.36834e-10
-2.05697e-08
-2.68753e-17
-5.64031e-10
-2.02697e-08
-3.08355e-17
-5.89798e-10
-1.9957e-08
-3.51752e-17
-6.14136e-10
-1.96323e-08
-3.9786e-17
-6.37052e-10
-1.92962e-08
-4.52101e-17
-6.58558e-10
-1.89496e-08
-5.2098e-17
-6.78666e-10
-1.85931e-08
-6.03956e-17
-6.97392e-10
-1.82272e-08
-6.94522e-17
-7.14755e-10
-1.78528e-08
-7.79668e-17
-7.30776e-10
-1.74705e-08
-8.56139e-17
-7.4548e-10
-1.70808e-08
-9.093e-17
-7.58892e-10
-1.66844e-08
-9.48909e-17
-7.7104e-10
-1.6282e-08
-9.71713e-17
-7.81954e-10
-1.58741e-08
-9.92892e-17
-7.91665e-10
-1.54613e-08
-1.00486e-16
-8.00204e-10
-1.50442e-08
-9.99475e-17
-8.07606e-10
-1.46234e-08
-9.7783e-17
-8.13904e-10
-1.41993e-08
-9.345e-17
-8.19134e-10
-1.37724e-08
-8.7599e-17
-8.23334e-10
-1.33434e-08
-8.07723e-17
-8.26539e-10
-1.29126e-08
-7.38371e-17
-8.28788e-10
-1.24806e-08
-6.80945e-17
-8.30119e-10
-1.20477e-08
-6.35447e-17
-8.3057e-10
-1.16145e-08
-6.01875e-17
-8.30179e-10
-1.11813e-08
-5.72639e-17
-8.28987e-10
-1.07485e-08
-5.52075e-17
-8.27031e-10
-1.03165e-08
-5.28799e-17
-8.24351e-10
-9.88559e-09
-5.05522e-17
-8.20988e-10
-9.45621e-09
-4.7899e-17
-8.1698e-10
-9.02864e-09
-4.53541e-17
-8.12366e-10
-8.60317e-09
-4.30259e-17
-8.07185e-10
-8.1801e-09
-4.04809e-17
-8.01475e-10
-7.75968e-09
-3.75562e-17
-7.95273e-10
-7.34217e-09
-3.34389e-17
-7.88619e-10
-6.92779e-09
-2.8237e-17
-7.81547e-10
-6.51677e-09
-2.08665e-17
-7.74096e-10
-6.10929e-09
-1.21405e-17
-7.663e-10
-5.70554e-09
-2.49252e-18
-7.58194e-10
-5.30567e-09
8.45677e-18
-7.49811e-10
-4.90985e-09
2.00569e-17
-7.41186e-10
-4.51819e-09
3.18198e-17
-7.32348e-10
-4.13081e-09
4.34204e-17
-7.23328e-10
-3.74782e-09
5.4967e-17
-7.14155e-10
-3.36931e-09
6.58634e-17
-7.04856e-10
-2.99536e-09
7.62721e-17
-6.95458e-10
-2.62602e-09
8.55429e-17
-6.85984e-10
-2.26134e-09
9.4543e-17
-6.76457e-10
-1.90138e-09
1.02568e-16
-6.66899e-10
-1.54615e-09
1.10484e-16
-6.57331e-10
-1.19567e-09
1.1748e-16
-6.4777e-10
-8.49959e-10
1.23012e-16
-6.38237e-10
-5.09001e-10
1.27297e-16
-6.28755e-10
-1.72773e-10
1.32451e-16
-6.19365e-10
1.58671e-10
1.35708e-16
-6.10012e-10
4.85194e-10
1.40756e-16
-6.00611e-10
8.06744e-10
1.49328e-16
-5.91132e-10
1.12333e-09
1.58443e-16
-5.81544e-10
1.4349e-09
1.67178e-16
-5.71875e-10
1.74141e-09
1.738e-16
-5.62142e-10
2.04277e-09
1.78361e-16
-5.52321e-10
2.33892e-09
1.81297e-16
-5.42382e-10
2.62973e-09
1.83204e-16
-5.32284e-10
2.91508e-09
1.84785e-16
-5.21983e-10
3.19482e-09
1.85608e-16
-5.11428e-10
3.46878e-09
1.85021e-16
-5.00562e-10
3.73673e-09
1.83838e-16
-4.89325e-10
3.99845e-09
1.8092e-16
-4.7765e-10
4.25363e-09
1.76431e-16
-4.65466e-10
4.50198e-09
1.70423e-16
-4.52699e-10
4.74312e-09
1.61488e-16
-4.39268e-10
4.97666e-09
1.50709e-16
-4.2509e-10
5.20215e-09
1.37599e-16
-4.1008e-10
5.4191e-09
1.21453e-16
-3.94149e-10
5.62697e-09
1.02053e-16
-3.77207e-10
5.82518e-09
8.04847e-17
-3.59162e-10
6.01309e-09
5.62589e-17
-3.39924e-10
6.19002e-09
2.9159e-17
-3.19405e-10
6.35525e-09
1.62426e-18
-2.97517e-10
6.50801e-09
-2.67791e-17
-2.74179e-10
6.6475e-09
-5.48587e-17
-2.49314e-10
6.77286e-09
-8.13136e-17
-2.22851e-10
6.88322e-09
-1.05602e-16
-1.94731e-10
6.97766e-09
-1.2729e-16
-1.64903e-10
7.05527e-09
-1.45837e-16
-1.33332e-10
7.11508e-09
-1.60916e-16
-9.99984e-11
7.15614e-09
-1.72529e-16
-6.49003e-11
7.17748e-09
-1.82085e-16
-2.80555e-11
7.17814e-09
-1.87748e-16
1.05246e-11
7.15721e-09
-1.89831e-16
5.08281e-11
7.11381e-09
-1.91374e-16
9.27972e-11
7.04709e-09
-1.91404e-16
1.36332e-10
6.95625e-09
-1.89379e-16
1.81302e-10
6.84059e-09
-1.8595e-16
2.27547e-10
6.69949e-09
-1.79382e-16
2.7487e-10
6.53245e-09
-1.70869e-16
3.23039e-10
6.3391e-09
-1.59868e-16
3.71779e-10
6.11925e-09
-1.48875e-16
4.20773e-10
5.87286e-09
-1.41468e-16
4.69656e-10
5.60013e-09
-1.4155e-16
5.18008e-10
5.30149e-09
-1.52266e-16
5.65351e-10
4.97766e-09
-1.74592e-16
6.11145e-10
4.62965e-09
-2.06035e-16
6.54774e-10
4.25884e-09
-2.41608e-16
6.95542e-10
3.86701e-09
-2.74263e-16
7.3266e-10
3.4564e-09
-3.00639e-16
7.65229e-10
3.02974e-09
-3.22254e-16
7.92225e-10
2.5904e-09
-3.44853e-16
8.12473e-10
2.14238e-09
-3.71253e-16
8.24617e-10
1.69049e-09
-4.07091e-16
8.2707e-10
1.24045e-09
-4.44991e-16
8.17997e-10
7.98888e-10
-4.85602e-16
7.95055e-10
3.73572e-10
-5.35854e-16
7.55684e-10
-2.63789e-11
-5.92709e-16
6.97156e-10
-3.90022e-10
-6.48776e-16
6.16019e-10
-7.04932e-10
-6.9297e-16
5.0874e-10
-9.57508e-10
-7.11639e-16
3.71769e-10
-1.13277e-09
-6.90991e-16
2.02345e-10
-1.21447e-09
-6.23567e-16
4.13539e-15
-1.18668e-09
-4.97287e-16
-2.29322e-10
-1.03588e-09
-2.83401e-16
-4.67713e-10
-7.52462e-10
-7.2401e-17
-6.72333e-10
-3.49511e-10
-4.57398e-16
-7.50895e-10
2.40299e-15
-5.089e-10
3.84552e-10
-6.45248e-10
6.33471e-10
-6.34429e-10
7.2817e-10
-4.13784e-10
7.07082e-10
-1.54158e-10
5.8901e-10
8.71325e-11
3.88952e-10
2.92561e-10
1.20283e-10
4.60295e-10
-2.05082e-10
5.94712e-10
-5.76783e-10
7.01608e-10
-9.86243e-10
7.86592e-10
-1.42659e-09
8.54317e-10
-1.89229e-09
9.08653e-10
-2.37889e-09
9.52763e-10
-2.88285e-09
9.88977e-10
-3.40136e-09
1.01908e-09
-3.93219e-09
1.04441e-09
-4.47352e-09
1.06596e-09
-5.02388e-09
1.08445e-09
-5.58201e-09
1.10041e-09
-6.14683e-09
1.1142e-09
-6.71737e-09
1.12606e-09
-7.29272e-09
1.13613e-09
-7.87201e-09
1.14448e-09
-8.45438e-09
1.15112e-09
-9.03895e-09
1.15604e-09
-9.62485e-09
1.15918e-09
-1.02111e-08
1.16047e-09
-1.07968e-08
1.15984e-09
-1.1381e-08
1.15719e-09
-1.19625e-08
1.15243e-09
-1.25404e-08
1.14551e-09
-1.31134e-08
1.13633e-09
-1.36805e-08
1.12485e-09
-1.42405e-08
1.11103e-09
-1.47922e-08
1.09482e-09
-1.53345e-08
1.07623e-09
-1.58662e-08
1.05526e-09
-1.6386e-08
1.03192e-09
-1.6893e-08
1.00625e-09
-1.73859e-08
9.78315e-10
-1.78636e-08
9.48179e-10
-1.83251e-08
9.15927e-10
-1.87694e-08
8.81656e-10
-1.91956e-08
8.45477e-10
-1.96028e-08
8.07511e-10
-1.999e-08
7.67888e-10
-2.03567e-08
7.26745e-10
-2.07021e-08
6.84228e-10
-2.10255e-08
6.40486e-10
-2.13265e-08
5.95671e-10
-2.16045e-08
5.49938e-10
-2.18592e-08
5.03443e-10
-2.20903e-08
4.5634e-10
-2.22975e-08
4.08785e-10
-2.24806e-08
3.60926e-10
-2.26397e-08
3.12913e-10
-2.27746e-08
2.6489e-10
-2.28853e-08
2.16993e-10
-2.29721e-08
1.69358e-10
-2.30351e-08
1.2211e-10
-2.30744e-08
7.53692e-11
-2.30905e-08
2.92459e-11
-2.30835e-08
-1.61599e-11
-2.3054e-08
-6.07619e-11
-2.30023e-08
-1.04477e-10
-2.2929e-08
-1.47223e-10
-2.28344e-08
-1.88925e-10
-2.27193e-08
-2.29512e-10
-2.25841e-08
-2.68922e-10
-2.24294e-08
-3.07103e-10
-2.22559e-08
-3.44007e-10
-2.20642e-08
-3.79594e-10
-2.1855e-08
-4.13832e-10
-2.16289e-08
-4.46694e-10
-2.13866e-08
-4.78158e-10
-2.11288e-08
-5.08208e-10
-2.08563e-08
-5.36835e-10
-2.05696e-08
-5.64032e-10
-2.02696e-08
-5.89798e-10
-1.99569e-08
-6.14136e-10
-1.96322e-08
-6.37053e-10
-1.92962e-08
-6.58559e-10
-1.89495e-08
-6.78667e-10
-1.8593e-08
-6.97393e-10
-1.82272e-08
-7.14755e-10
-1.78527e-08
-7.30776e-10
-1.74704e-08
-7.4548e-10
-1.70807e-08
-7.58892e-10
-1.66844e-08
-7.7104e-10
-1.62819e-08
-7.81955e-10
-1.5874e-08
-7.91665e-10
-1.54613e-08
-8.00205e-10
-1.50442e-08
-8.07606e-10
-1.46233e-08
-8.13904e-10
-1.41992e-08
-8.19134e-10
-1.37724e-08
-8.23333e-10
-1.33433e-08
-8.26539e-10
-1.29126e-08
-8.28788e-10
-1.24805e-08
-8.30119e-10
-1.20477e-08
-8.3057e-10
-1.16144e-08
-8.30179e-10
-1.11812e-08
-8.28986e-10
-1.07484e-08
-8.2703e-10
-1.03164e-08
-8.24351e-10
-9.88553e-09
-8.20988e-10
-9.45615e-09
-8.16979e-10
-9.02857e-09
-8.12366e-10
-8.60311e-09
-8.07184e-10
-8.18003e-09
-8.01474e-10
-7.75962e-09
-7.95273e-10
-7.34211e-09
-7.88618e-10
-6.92773e-09
-7.81547e-10
-6.51671e-09
-7.74095e-10
-6.10923e-09
-7.66299e-10
-5.70548e-09
-7.58193e-10
-5.30562e-09
-7.4981e-10
-4.90979e-09
-7.41185e-10
-4.51813e-09
-7.32347e-10
-4.13076e-09
-7.23327e-10
-3.74777e-09
-7.14154e-10
-3.36926e-09
-7.04855e-10
-2.99531e-09
-6.95456e-10
-2.62596e-09
-6.85982e-10
-2.26129e-09
-6.76455e-10
-1.90133e-09
-6.66898e-10
-1.5461e-09
-6.57329e-10
-1.19562e-09
-6.47768e-10
-8.49911e-10
-6.38235e-10
-5.08954e-10
-6.28754e-10
-1.72726e-10
-6.19363e-10
1.58717e-10
-6.1001e-10
4.8524e-10
-6.00608e-10
8.06789e-10
-5.9113e-10
1.12337e-09
-5.81542e-10
1.43494e-09
-5.71872e-10
1.74145e-09
-5.6214e-10
2.04282e-09
-5.52319e-10
2.33896e-09
-5.42379e-10
2.62977e-09
-5.32282e-10
2.91512e-09
-5.21981e-10
3.19487e-09
-5.11426e-10
3.46882e-09
-5.0056e-10
3.73678e-09
-4.89323e-10
3.99849e-09
-4.77648e-10
4.25367e-09
-4.65464e-10
4.50202e-09
-4.52697e-10
4.74316e-09
-4.39266e-10
4.9767e-09
-4.25089e-10
5.20219e-09
-4.10079e-10
5.41914e-09
-3.94148e-10
5.62701e-09
-3.77205e-10
5.82522e-09
-3.59161e-10
6.01313e-09
-3.39923e-10
6.19006e-09
-3.19404e-10
6.35529e-09
-2.97516e-10
6.50805e-09
-2.74178e-10
6.64754e-09
-2.49312e-10
6.7729e-09
-2.2285e-10
6.88325e-09
-1.94729e-10
6.9777e-09
-1.64902e-10
7.05531e-09
-1.33331e-10
7.11512e-09
-9.99969e-11
7.15618e-09
-6.48986e-11
7.17752e-09
-2.80536e-11
7.17818e-09
1.05266e-11
7.15725e-09
5.08304e-11
7.11385e-09
9.27996e-11
7.04712e-09
1.36334e-10
6.95629e-09
1.81305e-10
6.84063e-09
2.2755e-10
6.69953e-09
2.74874e-10
6.53248e-09
3.23042e-10
6.33914e-09
3.71783e-10
6.11928e-09
4.20777e-10
5.87289e-09
4.6966e-10
5.60016e-09
5.18012e-10
5.30152e-09
5.65357e-10
4.97768e-09
6.11151e-10
4.62967e-09
6.5478e-10
4.25887e-09
6.95549e-10
3.86704e-09
7.32667e-10
3.45642e-09
7.65237e-10
3.02976e-09
7.92233e-10
2.59042e-09
8.12482e-10
2.14239e-09
8.24626e-10
1.6905e-09
8.27079e-10
1.24046e-09
8.18006e-10
7.98897e-10
7.95064e-10
3.73578e-10
7.55693e-10
-2.63754e-11
6.97166e-10
-3.9002e-10
6.16028e-10
-7.04932e-10
5.08748e-10
-9.5751e-10
3.71777e-10
-1.13277e-09
2.02352e-10
-1.21448e-09
9.85807e-15
-1.18668e-09
-2.29316e-10
-1.03588e-09
-4.67707e-10
-7.52443e-10
-6.72323e-10
-3.49468e-10
-7.50874e-10
-5.08869e-10
3.05233e-10
7.33571e-14
-9.542e-10
3.96799e-10
2.28475e-14
-7.25924e-10
3.52517e-10
1.83329e-14
-3.69024e-10
2.25514e-10
9.48231e-15
-2.6802e-11
3.53242e-11
2.50815e-15
2.77524e-10
-2.08645e-10
-1.72242e-15
5.36626e-10
-4.99901e-10
-2.7622e-15
7.51588e-10
-8.32635e-10
-2.38641e-15
9.27454e-10
-1.20141e-09
-1.45861e-15
1.07038e-09
-1.6012e-09
-3.53216e-16
1.18638e-09
-2.02759e-09
6.8866e-16
1.28071e-09
-2.47677e-09
1.44821e-15
1.35783e-09
-2.94539e-09
1.78748e-15
1.42138e-09
-3.43066e-09
1.73623e-15
1.47424e-09
-3.93022e-09
1.46319e-15
1.51864e-09
-4.44211e-09
1.1338e-15
1.5563e-09
-4.96468e-09
8.35559e-16
1.58852e-09
-5.4965e-09
5.92155e-16
1.61627e-09
-6.03634e-09
4.05567e-16
1.64026e-09
-6.58311e-09
2.75252e-16
1.66098e-09
-7.13581e-09
1.98526e-16
1.67876e-09
-7.69351e-09
1.66662e-16
1.69382e-09
-8.25528e-09
1.6589e-16
1.70625e-09
-8.82025e-09
1.8103e-16
1.71609e-09
-9.38752e-09
2.00319e-16
1.72331e-09
-9.95617e-09
2.16358e-16
1.72784e-09
-1.05253e-08
2.26788e-16
1.72959e-09
-1.10939e-08
2.31528e-16
1.72845e-09
-1.1661e-08
2.31716e-16
1.7243e-09
-1.22256e-08
2.28083e-16
1.71703e-09
-1.27866e-08
2.20549e-16
1.70653e-09
-1.3343e-08
2.08192e-16
1.6927e-09
-1.38936e-08
1.89846e-16
1.67547e-09
-1.44374e-08
1.64482e-16
1.65477e-09
-1.49731e-08
1.31719e-16
1.63056e-09
-1.54997e-08
9.24519e-17
1.60283e-09
-1.6016e-08
4.89579e-17
1.57158e-09
-1.6521e-08
4.40813e-18
1.53684e-09
-1.70134e-08
-3.72674e-17
1.49868e-09
-1.74922e-08
-7.23824e-17
1.45716e-09
-1.79564e-08
-9.74404e-17
1.41238e-09
-1.8405e-08
-1.10815e-16
1.36448e-09
-1.88369e-08
-1.12263e-16
1.31359e-09
-1.92513e-08
-1.0406e-16
1.25987e-09
-1.96473e-08
-8.94866e-17
1.2035e-09
-2.00241e-08
-7.30693e-17
1.14466e-09
-2.03809e-08
-5.85217e-17
1.08355e-09
-2.07171e-08
-4.94756e-17
1.02039e-09
-2.1032e-08
-4.75846e-17
9.55392e-10
-2.13251e-08
-5.3174e-17
8.88779e-10
-2.15959e-08
-6.50783e-17
8.20777e-10
-2.18441e-08
-8.16713e-17
7.51614e-10
-2.20693e-08
-1.00622e-16
6.81516e-10
-2.22712e-08
-1.19653e-16
6.1071e-10
-2.24497e-08
-1.36868e-16
5.39417e-10
-2.26046e-08
-1.50803e-16
4.67854e-10
-2.2736e-08
-1.60537e-16
3.96232e-10
-2.28437e-08
-1.65499e-16
3.24755e-10
-2.2928e-08
-1.658e-16
2.53617e-10
-2.29889e-08
-1.61682e-16
1.83006e-10
-2.30266e-08
-1.53877e-16
1.13096e-10
-2.30414e-08
-1.432e-16
4.40497e-11
-2.30336e-08
-1.30191e-16
-2.39804e-11
-2.30035e-08
-1.15311e-16
-9.08545e-11
-2.29515e-08
-9.92661e-17
-1.56441e-10
-2.28781e-08
-8.18658e-17
-2.20619e-10
-2.27837e-08
-6.3354e-17
-2.83277e-10
-2.26689e-08
-4.39748e-17
-3.44313e-10
-2.25342e-08
-2.45685e-17
-4.03636e-10
-2.23802e-08
-6.16506e-18
-4.61165e-10
-2.22073e-08
1.07477e-17
-5.1683e-10
-2.20163e-08
2.54378e-17
-5.70571e-10
-2.18078e-08
3.79053e-17
-6.22337e-10
-2.15824e-08
4.79333e-17
-6.72088e-10
-2.13408e-08
5.53321e-17
-7.19788e-10
-2.10836e-08
6.02915e-17
-7.65414e-10
-2.08114e-08
6.30553e-17
-8.08948e-10
-2.05251e-08
6.45723e-17
-8.5038e-10
-2.02252e-08
6.56015e-17
-8.89704e-10
-1.99124e-08
6.65764e-17
-9.26924e-10
-1.95874e-08
6.747e-17
-9.62048e-10
-1.92508e-08
6.78214e-17
-9.95089e-10
-1.89034e-08
6.69531e-17
-1.02606e-09
-1.85458e-08
6.49734e-17
-1.055e-09
-1.81786e-08
6.2289e-17
-1.08191e-09
-1.78026e-08
6.02822e-17
-1.10684e-09
-1.74182e-08
5.8953e-17
-1.12981e-09
-1.70262e-08
5.8925e-17
-1.15087e-09
-1.66272e-08
5.98727e-17
-1.17005e-09
-1.62218e-08
6.10102e-17
-1.18739e-09
-1.58105e-08
6.18224e-17
-1.20294e-09
-1.53939e-08
6.23364e-17
-1.21674e-09
-1.49727e-08
6.27692e-17
-1.22885e-09
-1.45473e-08
6.36898e-17
-1.2393e-09
-1.41182e-08
6.5505e-17
-1.24816e-09
-1.36861e-08
6.7754e-17
-1.25546e-09
-1.32513e-08
7.01657e-17
-1.26128e-09
-1.28145e-08
7.20624e-17
-1.26566e-09
-1.23759e-08
7.30647e-17
-1.26865e-09
-1.19362e-08
7.27659e-17
-1.27031e-09
-1.14956e-08
7.14372e-17
-1.27069e-09
-1.10547e-08
6.96207e-17
-1.26986e-09
-1.06139e-08
6.75062e-17
-1.26786e-09
-1.01735e-08
6.53918e-17
-1.26476e-09
-9.73385e-09
6.3386e-17
-1.2606e-09
-9.29535e-09
6.15972e-17
-1.25546e-09
-8.85832e-09
5.97271e-17
-1.24938e-09
-8.42306e-09
5.7559e-17
-1.24242e-09
-7.98989e-09
5.51742e-17
-1.23463e-09
-7.55907e-09
5.26811e-17
-1.22608e-09
-7.13086e-09
5.0432e-17
-1.2168e-09
-6.70552e-09
4.86982e-17
-1.20687e-09
-6.28327e-09
4.76422e-17
-1.19632e-09
-5.86433e-09
4.72098e-17
-1.18522e-09
-5.44888e-09
4.7401e-17
-1.17362e-09
-5.03712e-09