/*--------------------------------*- C++ -*----------------------------------*\
  =========                 |
  \\      /  F ield         | OpenFOAM: The Open Source CFD Toolbox
   \\    /   O peration     | Website:  https://openfoam.org
    \\  /    A nd           | Version:  8
     \\/     M anipulation  |
\*---------------------------------------------------------------------------*/
FoamFile
{
    version     2.0;
    format      ascii;
    class       volScalarField;
    location    "2500";
    object      T;
}
// * * * * * * * * * * * * * * * * * * * * * * * * * * * * * * * * * * * * * //

dimensions      [0 0 0 1 0 0 0];

internalField   nonuniform List<scalar> 
46000
(
310.864
310.088
309.377
308.875
308.503
308.206
307.959
307.746
307.56
307.395
307.245
307.109
306.984
306.87
306.764
306.667
306.575
306.491
306.412
306.338
306.268
306.204
306.143
306.086
306.032
305.981
305.934
305.889
305.847
305.807
305.769
305.734
305.7
305.668
305.638
305.61
305.583
305.558
305.533
305.511
305.489
305.469
305.45
305.431
305.414
305.398
305.383
305.369
305.356
305.344
305.333
305.323
305.314
305.306
305.298
305.292
305.286
305.281
305.278
305.275
305.273
305.271
305.271
305.271
305.272
305.274
305.277
305.281
305.285
305.291
305.297
305.304
305.313
305.322
305.331
305.342
305.353
305.366
305.379
305.392
305.407
305.422
305.438
305.455
305.472
305.491
305.509
305.529
305.549
305.569
305.59
305.612
305.634
305.657
305.68
305.703
305.727
305.751
305.776
305.801
305.826
305.852
305.878
305.904
305.93
305.957
305.983
306.01
306.037
306.064
306.091
306.118
306.145
306.172
306.199
306.226
306.253
306.28
306.307
306.334
306.36
306.387
306.414
306.44
306.467
306.493
306.52
306.546
306.573
306.599
306.626
306.652
306.679
306.705
306.732
306.759
306.786
306.813
306.841
306.869
306.897
306.925
306.954
306.984
307.014
307.045
307.076
307.108
307.141
307.175
307.21
307.246
307.282
307.32
307.359
307.4
307.442
307.485
307.529
307.575
307.623
307.673
307.724
307.777
307.831
307.887
307.944
308.004
308.065
308.129
308.194
308.262
308.331
308.403
308.477
308.553
308.63
308.71
308.792
308.876
308.962
309.05
309.14
309.232
309.326
309.421
309.519
309.62
309.723
309.829
309.94
310.056
310.18
310.315
310.465
310.639
310.854
311.135
311.492
311.792
310.863
310.087
309.376
308.875
308.503
308.206
307.958
307.746
307.56
307.394
307.245
307.109
306.984
306.87
306.764
306.666
306.575
306.491
306.412
306.338
306.268
306.203
306.143
306.086
306.032
305.981
305.934
305.889
305.847
305.807
305.769
305.734
305.7
305.668
305.638
305.61
305.583
305.558
305.533
305.511
305.489
305.469
305.45
305.431
305.414
305.398
305.383
305.37
305.357
305.344
305.333
305.323
305.314
305.306
305.298
305.292
305.286
305.281
305.278
305.275
305.273
305.271
305.271
305.271
305.272
305.274
305.277
305.281
305.285
305.291
305.297
305.305
305.313
305.322
305.331
305.342
305.353
305.366
305.379
305.392
305.407
305.422
305.438
305.455
305.473
305.491
305.509
305.529
305.549
305.569
305.59
305.612
305.634
305.657
305.68
305.703
305.727
305.751
305.776
305.801
305.826
305.852
305.878
305.904
305.93
305.957
305.983
306.01
306.037
306.064
306.091
306.118
306.145
306.172
306.199
306.226
306.253
306.28
306.307
306.334
306.36
306.387
306.414
306.44
306.467
306.493
306.52
306.546
306.573
306.599
306.626
306.652
306.679
306.705
306.732
306.759
306.786
306.813
306.841
306.869
306.897
306.925
306.954
306.984
307.014
307.045
307.076
307.108
307.141
307.175
307.21
307.246
307.282
307.32
307.359
307.4
307.442
307.485
307.529
307.575
307.623
307.673
307.724
307.777
307.831
307.887
307.944
308.004
308.065
308.129
308.194
308.262
308.331
308.403
308.477
308.553
308.631
308.71
308.792
308.876
308.962
309.05
309.14
309.232
309.326
309.421
309.519
309.62
309.723
309.829
309.94
310.056
310.18
310.315
310.465
310.639
310.854
311.135
311.492
311.792
307.521
306.973
306.533
306.201
305.94
305.728
305.55
305.397
305.263
305.144
305.037
304.94
304.852
304.772
304.699
304.631
304.569
304.512
304.459
304.411
304.365
304.324
304.285
304.249
304.215
304.184
304.155
304.128
304.103
304.079
304.056
304.036
304.016
303.997
303.98
303.963
303.947
303.932
303.918
303.904
303.891
303.878
303.866
303.854
303.843
303.833
303.822
303.813
303.803
303.794
303.785
303.777
303.769
303.762
303.755
303.748
303.741
303.735
303.73
303.725
303.72
303.715
303.711
303.708
303.705
303.702
303.7
303.698
303.697
303.696
303.695
303.695
303.696
303.697
303.699
303.701
303.703
303.706
303.71
303.714
303.718
303.723
303.729
303.734
303.741
303.748
303.755
303.762
303.77
303.779
303.788
303.797
303.807
303.817
303.827
303.838
303.849
303.861
303.873
303.885
303.897
303.91
303.923
303.937
303.95
303.964
303.979
303.993
304.008
304.023
304.038
304.053
304.069
304.085
304.101
304.117
304.134
304.151
304.167
304.185
304.202
304.22
304.237
304.255
304.274
304.292
304.311
304.33
304.349
304.369
304.389
304.409
304.43
304.451
304.472
304.494
304.516
304.539
304.563
304.586
304.611
304.636
304.662
304.688
304.715
304.744
304.772
304.802
304.833
304.865
304.898
304.932
304.967
305.004
305.042
305.081
305.121
305.164
305.207
305.253
305.3
305.348
305.399
305.451
305.505
305.561
305.619
305.679
305.741
305.805
305.871
305.94
306.01
306.083
306.157
306.234
306.313
306.394
306.477
306.561
306.648
306.737
306.827
306.919
307.012
307.107
307.204
307.302
307.403
307.506
307.612
307.722
307.839
307.967
308.111
308.279
308.486
308.754
309.115
309.497
307.52
306.973
306.533
306.201
305.94
305.728
305.55
305.397
305.263
305.143
305.037
304.94
304.852
304.772
304.699
304.631
304.569
304.512
304.459
304.411
304.365
304.324
304.285
304.249
304.215
304.184
304.155
304.128
304.103
304.079
304.056
304.036
304.016
303.997
303.98
303.963
303.947
303.932
303.918
303.904
303.891
303.878
303.866
303.854
303.843
303.833
303.822
303.813
303.803
303.794
303.785
303.777
303.769
303.762
303.755
303.748
303.741
303.735
303.73
303.725
303.72
303.715
303.711
303.708
303.705
303.702
303.7
303.698
303.697
303.696
303.695
303.695
303.696
303.697
303.699
303.701
303.703
303.706
303.71
303.714
303.718
303.723
303.729
303.735
303.741
303.748
303.755
303.762
303.77
303.779
303.788
303.797
303.807
303.817
303.827
303.838
303.849
303.861
303.873
303.885
303.897
303.91
303.923
303.937
303.95
303.964
303.979
303.993
304.008
304.023
304.038
304.053
304.069
304.085
304.101
304.117
304.134
304.151
304.167
304.185
304.202
304.22
304.237
304.255
304.274
304.292
304.311
304.33
304.349
304.369
304.389
304.409
304.43
304.451
304.472
304.494
304.516
304.539
304.563
304.586
304.611
304.636
304.662
304.688
304.715
304.744
304.772
304.802
304.833
304.865
304.898
304.932
304.967
305.004
305.042
305.081
305.121
305.164
305.207
305.253
305.3
305.348
305.399
305.451
305.505
305.561
305.619
305.679
305.741
305.805
305.871
305.94
306.01
306.083
306.157
306.234
306.313
306.394
306.477
306.561
306.648
306.737
306.827
306.919
307.012
307.107
307.204
307.302
307.403
307.506
307.612
307.722
307.839
307.967
308.111
308.279
308.486
308.754
309.115
309.497
305.645
305.444
305.226
305.026
304.85
304.695
304.558
304.437
304.329
304.232
304.144
304.064
303.991
303.924
303.863
303.807
303.755
303.708
303.664
303.624
303.587
303.553
303.521
303.492
303.465
303.44
303.417
303.396
303.376
303.357
303.34
303.323
303.308
303.293
303.28
303.267
303.254
303.243
303.231
303.221
303.21
303.2
303.19
303.181
303.172
303.163
303.154
303.146
303.138
303.13
303.122
303.114
303.107
303.1
303.093
303.086
303.08
303.074
303.068
303.062
303.056
303.051
303.046
303.042
303.037
303.033
303.03
303.026
303.023
303.021
303.018
303.017
303.015
303.014
303.013
303.013
303.013
303.013
303.014
303.015
303.017
303.019
303.021
303.024
303.027
303.031
303.035
303.039
303.044
303.049
303.054
303.06
303.067
303.073
303.08
303.087
303.095
303.103
303.111
303.12
303.128
303.138
303.147
303.157
303.167
303.177
303.188
303.199
303.21
303.222
303.234
303.246
303.258
303.271
303.284
303.297
303.311
303.324
303.338
303.353
303.367
303.382
303.397
303.413
303.429
303.445
303.461
303.478
303.495
303.513
303.531
303.549
303.568
303.588
303.607
303.628
303.648
303.67
303.692
303.714
303.737
303.761
303.786
303.811
303.838
303.865
303.893
303.922
303.952
303.983
304.015
304.049
304.083
304.119
304.156
304.195
304.235
304.277
304.32
304.365
304.411
304.459
304.509
304.561
304.614
304.67
304.727
304.786
304.848
304.911
304.976
305.044
305.113
305.184
305.258
305.333
305.411
305.49
305.571
305.654
305.738
305.824
305.911
305.999
306.089
306.18
306.271
306.364
306.458
306.553
306.65
306.749
306.852
306.96
307.077
307.207
307.352
307.521
307.718
307.923
305.645
305.444
305.225
305.026
304.85
304.695
304.558
304.437
304.329
304.232
304.144
304.064
303.991
303.924
303.863
303.807
303.755
303.708
303.664
303.624
303.587
303.553
303.521
303.492
303.465
303.44
303.417
303.396
303.376
303.357
303.34
303.323
303.308
303.293
303.28
303.267
303.254
303.243
303.231
303.221
303.21
303.2
303.19
303.181
303.172
303.163
303.154
303.146
303.138
303.13
303.122
303.114
303.107
303.1
303.093
303.086
303.08
303.074
303.068
303.062
303.056
303.051
303.046
303.042
303.037
303.033
303.03
303.026
303.023
303.021
303.019
303.017
303.015
303.014
303.013
303.013
303.013
303.013
303.014
303.015
303.017
303.019
303.021
303.024
303.027
303.031
303.035
303.039
303.044
303.049
303.055
303.06
303.067
303.073
303.08
303.087
303.095
303.103
303.111
303.12
303.128
303.138
303.147
303.157
303.167
303.177
303.188
303.199
303.21
303.222
303.234
303.246
303.258
303.271
303.284
303.297
303.311
303.324
303.338
303.353
303.367
303.382
303.397
303.413
303.429
303.445
303.461
303.478
303.495
303.513
303.531
303.549
303.568
303.588
303.607
303.628
303.648
303.67
303.692
303.714
303.737
303.761
303.786
303.811
303.838
303.865
303.893
303.922
303.952
303.983
304.015
304.049
304.083
304.119
304.156
304.195
304.235
304.277
304.32
304.365
304.411
304.459
304.509
304.561
304.614
304.67
304.727
304.786
304.848
304.911
304.976
305.044
305.113
305.184
305.258
305.333
305.411
305.49
305.571
305.654
305.738
305.824
305.911
305.999
306.089
306.18
306.271
306.364
306.458
306.553
306.65
306.749
306.852
306.96
307.077
307.207
307.352
307.521
307.718
307.922
304.572
304.508
304.4
304.28
304.16
304.046
303.94
303.843
303.754
303.672
303.597
303.528
303.465
303.407
303.354
303.305
303.26
303.218
303.18
303.145
303.113
303.083
303.056
303.031
303.007
302.986
302.966
302.948
302.931
302.915
302.9
302.886
302.873
302.861
302.849
302.838
302.828
302.818
302.808
302.799
302.79
302.782
302.773
302.765
302.757
302.749
302.741
302.734
302.726
302.719
302.712
302.704
302.698
302.691
302.684
302.677
302.671
302.665
302.659
302.653
302.647
302.642
302.636
302.631
302.626
302.622
302.618
302.614
302.61
302.606
302.603
302.601
302.598
302.596
302.594
302.593
302.591
302.591
302.59
302.59
302.591
302.591
302.592
302.594
302.595
302.597
302.6
302.603
302.606
302.609
302.613
302.617
302.622
302.627
302.632
302.638
302.644
302.65
302.657
302.663
302.671
302.678
302.686
302.694
302.703
302.712
302.721
302.73
302.74
302.75
302.76
302.771
302.781
302.793
302.804
302.816
302.828
302.84
302.853
302.866
302.879
302.893
302.907
302.921
302.936
302.951
302.966
302.982
302.998
303.015
303.032
303.049
303.067
303.086
303.105
303.124
303.144
303.165
303.186
303.208
303.23
303.254
303.278
303.303
303.328
303.355
303.383
303.411
303.441
303.471
303.503
303.536
303.57
303.606
303.643
303.681
303.721
303.762
303.805
303.849
303.895
303.943
303.992
304.043
304.096
304.151
304.208
304.267
304.328
304.39
304.455
304.521
304.59
304.66
304.732
304.807
304.883
304.96
305.04
305.12
305.203
305.286
305.371
305.456
305.543
305.629
305.717
305.805
305.893
305.982
306.071
306.16
306.251
306.344
306.439
306.538
306.638
306.739
306.833
306.911
304.572
304.508
304.4
304.28
304.16
304.046
303.94
303.843
303.754
303.672
303.597
303.528
303.465
303.407
303.354
303.305
303.26
303.218
303.18
303.145
303.113
303.083
303.056
303.031
303.007
302.986
302.966
302.948
302.931
302.915
302.9
302.886
302.873
302.861
302.849
302.838
302.828
302.818
302.808
302.799
302.79
302.782
302.773
302.765
302.757
302.749
302.741
302.734
302.726
302.719
302.712
302.704
302.698
302.691
302.684
302.677
302.671
302.665
302.659
302.653
302.647
302.642
302.636
302.631
302.627
302.622
302.618
302.614
302.61
302.606
302.603
302.601
302.598
302.596
302.594
302.593
302.591
302.591
302.59
302.59
302.591
302.591
302.592
302.594
302.595
302.597
302.6
302.603
302.606
302.609
302.613
302.617
302.622
302.627
302.632
302.638
302.644
302.65
302.657
302.663
302.671
302.678
302.686
302.694
302.703
302.712
302.721
302.73
302.74
302.75
302.76
302.771
302.781
302.793
302.804
302.816
302.828
302.84
302.853
302.866
302.879
302.893
302.907
302.921
302.936
302.951
302.966
302.982
302.998
303.015
303.032
303.049
303.067
303.086
303.105
303.124
303.144
303.165
303.186
303.208
303.23
303.254
303.278
303.303
303.328
303.355
303.383
303.411
303.441
303.471
303.503
303.536
303.57
303.606
303.643
303.681
303.721
303.762
303.805
303.849
303.895
303.943
303.992
304.043
304.096
304.151
304.208
304.267
304.328
304.39
304.455
304.521
304.59
304.66
304.732
304.807
304.883
304.96
305.04
305.12
305.203
305.286
305.371
305.456
305.543
305.63
305.717
305.805
305.893
305.982
306.071
306.16
306.251
306.344
306.439
306.538
306.638
306.739
306.833
306.911
303.876
303.857
303.8
303.725
303.643
303.558
303.476
303.398
303.324
303.256
303.191
303.132
303.077
303.026
302.979
302.936
302.896
302.859
302.825
302.794
302.765
302.739
302.715
302.692
302.672
302.653
302.635
302.619
302.604
302.59
302.577
302.565
302.554
302.543
302.533
302.524
302.515
302.506
302.498
302.489
302.482
302.474
302.466
302.459
302.452
302.445
302.438
302.431
302.424
302.417
302.41
302.403
302.397
302.39
302.383
302.377
302.371
302.365
302.359
302.353
302.347
302.341
302.336
302.33
302.325
302.32
302.316
302.311
302.307
302.303
302.3
302.296
302.293
302.291
302.288
302.286
302.284
302.283
302.282
302.281
302.28
302.28
302.28
302.281
302.282
302.283
302.284
302.286
302.288
302.291
302.294
302.297
302.301
302.305
302.309
302.314
302.318
302.324
302.329
302.335
302.341
302.348
302.355
302.362
302.37
302.377
302.386
302.394
302.403
302.412
302.421
302.431
302.441
302.451
302.462
302.473
302.484
302.495
302.507
302.519
302.532
302.545
302.558
302.571
302.585
302.6
302.614
302.63
302.645
302.661
302.677
302.694
302.712
302.729
302.748
302.767
302.786
302.806
302.827
302.849
302.871
302.894
302.917
302.942
302.967
302.993
303.021
303.049
303.078
303.108
303.14
303.172
303.206
303.241
303.278
303.316
303.355
303.396
303.438
303.482
303.528
303.575
303.624
303.675
303.728
303.782
303.838
303.897
303.957
304.018
304.082
304.148
304.216
304.285
304.356
304.429
304.504
304.58
304.657
304.736
304.817
304.898
304.98
305.063
305.146
305.229
305.313
305.396
305.48
305.562
305.644
305.726
305.806
305.886
305.963
306.039
306.109
306.17
306.214
306.235
303.876
303.857
303.8
303.725
303.643
303.558
303.476
303.398
303.324
303.256
303.191
303.132
303.077
303.026
302.979
302.936
302.896
302.859
302.825
302.794
302.765
302.739
302.715
302.692
302.672
302.653
302.635
302.619
302.604
302.59
302.577
302.565
302.554
302.543
302.533
302.524
302.515
302.506
302.498
302.489
302.482
302.474
302.466
302.459
302.452
302.445
302.438
302.431
302.424
302.417
302.41
302.403
302.397
302.39
302.383
302.377
302.371
302.365
302.359
302.353
302.347
302.341
302.336
302.33
302.325
302.32
302.316
302.311
302.307
302.303
302.3
302.296
302.293
302.291
302.288
302.286
302.284
302.283
302.282
302.281
302.28
302.28
302.28
302.281
302.282
302.283
302.284
302.286
302.288
302.291
302.294
302.297
302.301
302.305
302.309
302.314
302.318
302.324
302.329
302.335
302.341
302.348
302.355
302.362
302.37
302.377
302.386
302.394
302.403
302.412
302.421
302.431
302.441
302.451
302.462
302.473
302.484
302.495
302.507
302.519
302.532
302.545
302.558
302.571
302.585
302.6
302.614
302.63
302.645
302.661
302.677
302.694
302.712
302.729
302.748
302.767
302.786
302.806
302.827
302.849
302.871
302.894
302.917
302.942
302.967
302.993
303.021
303.049
303.078
303.108
303.14
303.172
303.206
303.241
303.278
303.316
303.355
303.396
303.438
303.482
303.528
303.575
303.624
303.675
303.728
303.782
303.838
303.897
303.957
304.018
304.082
304.148
304.216
304.285
304.356
304.429
304.504
304.58
304.657
304.736
304.817
304.898
304.98
305.063
305.146
305.229
305.313
305.396
305.48
305.562
305.644
305.726
305.806
305.886
305.963
306.039
306.109
306.17
306.214
306.235
303.371
303.365
303.332
303.283
303.225
303.162
303.098
303.035
302.974
302.916
302.861
302.81
302.762
302.717
302.675
302.637
302.601
302.569
302.538
302.51
302.485
302.461
302.439
302.42
302.401
302.384
302.369
302.354
302.341
302.329
302.318
302.307
302.297
302.288
302.279
302.27
302.262
302.255
302.247
302.24
302.233
302.226
302.219
302.213
302.206
302.199
302.193
302.186
302.18
302.173
302.167
302.161
302.154
302.148
302.142
302.135
302.129
302.123
302.117
302.111
302.105
302.1
302.094
302.089
302.083
302.078
302.074
302.069
302.064
302.06
302.056
302.053
302.049
302.046
302.043
302.04
302.038
302.036
302.035
302.033
302.032
302.031
302.031
302.031
302.031
302.032
302.033
302.034
302.035
302.037
302.04
302.042
302.045
302.048
302.052
302.056
302.06
302.065
302.07
302.075
302.08
302.086
302.092
302.099
302.106
302.113
302.12
302.128
302.136
302.145
302.153
302.162
302.172
302.181
302.191
302.202
302.212
302.223
302.234
302.246
302.258
302.27
302.283
302.296
302.309
302.323
302.337
302.352
302.367
302.383
302.399
302.415
302.432
302.449
302.467
302.486
302.505
302.525
302.545
302.566
302.588
302.611
302.634
302.658
302.683
302.709
302.736
302.764
302.793
302.823
302.854
302.886
302.92
302.955
302.991
303.029
303.068
303.108
303.15
303.194
303.239
303.286
303.335
303.385
303.437
303.491
303.547
303.604
303.664
303.725
303.788
303.853
303.919
303.988
304.058
304.13
304.203
304.278
304.354
304.431
304.509
304.588
304.667
304.747
304.828
304.908
304.988
305.067
305.146
305.223
305.299
305.373
305.445
305.513
305.578
305.637
305.689
305.728
305.749
305.748
303.37
303.365
303.332
303.283
303.225
303.162
303.098
303.035
302.974
302.916
302.861
302.81
302.762
302.717
302.675
302.637
302.601
302.569
302.538
302.51
302.485
302.461
302.439
302.42
302.401
302.384
302.369
302.354
302.341
302.329
302.318
302.307
302.297
302.288
302.279
302.27
302.262
302.255
302.247
302.24
302.233
302.226
302.219
302.213
302.206
302.199
302.193
302.186
302.18
302.173
302.167
302.161
302.154
302.148
302.142
302.135
302.129
302.123
302.117
302.111
302.105
302.1
302.094
302.089
302.083
302.078
302.074
302.069
302.064
302.06
302.056
302.053
302.049
302.046
302.043
302.04
302.038
302.036
302.035
302.033
302.032
302.031
302.031
302.031
302.031
302.032
302.033
302.034
302.035
302.037
302.04
302.042
302.045
302.048
302.052
302.056
302.06
302.065
302.07
302.075
302.08
302.086
302.092
302.099
302.106
302.113
302.12
302.128
302.136
302.145
302.153
302.162
302.172
302.181
302.191
302.202
302.212
302.223
302.234
302.246
302.258
302.27
302.283
302.296
302.309
302.323
302.337
302.352
302.367
302.383
302.399
302.415
302.432
302.449
302.467
302.486
302.505
302.525
302.545
302.566
302.588
302.611
302.634
302.658
302.683
302.709
302.736
302.764
302.793
302.823
302.854
302.886
302.92
302.955
302.991
303.029
303.068
303.108
303.15
303.194
303.239
303.286
303.335
303.385
303.437
303.491
303.547
303.604
303.664
303.725
303.788
303.853
303.919
303.988
304.058
304.13
304.203
304.278
304.354
304.431
304.509
304.588
304.667
304.747
304.828
304.908
304.988
305.067
305.146
305.223
305.299
305.373
305.445
305.513
305.578
305.637
305.689
305.728
305.749
305.748
302.973
302.971
302.95
302.915
302.873
302.825
302.774
302.723
302.673
302.624
302.577
302.533
302.491
302.452
302.415
302.381
302.35
302.32
302.293
302.268
302.246
302.224
302.205
302.187
302.171
302.156
302.142
302.129
302.117
302.106
302.096
302.087
302.078
302.07
302.062
302.055
302.048
302.041
302.034
302.028
302.021
302.015
302.009
302.003
301.997
301.991
301.985
301.979
301.972
301.966
301.96
301.954
301.948
301.942
301.936
301.93
301.924
301.918
301.912
301.906
301.9
301.894
301.889
301.883
301.878
301.873
301.868
301.863
301.858
301.854
301.85
301.846
301.842
301.839
301.835
301.833
301.83
301.828
301.825
301.824
301.822
301.821
301.82
301.82
301.82
301.82
301.82
301.821
301.822
301.823
301.825
301.827
301.83
301.832
301.835
301.839
301.843
301.847
301.851
301.856
301.861
301.866
301.872
301.878
301.884
301.891
301.898
301.905
301.912
301.92
301.929
301.937
301.946
301.955
301.965
301.974
301.985
301.995
302.006
302.017
302.029
302.041
302.053
302.066
302.079
302.092
302.106
302.12
302.135
302.15
302.166
302.182
302.198
302.215
302.233
302.251
302.27
302.289
302.31
302.33
302.352
302.374
302.397
302.421
302.446
302.472
302.498
302.526
302.555
302.584
302.615
302.648
302.681
302.716
302.751
302.789
302.828
302.868
302.91
302.953
302.998
303.044
303.093
303.143
303.194
303.248
303.303
303.36
303.419
303.479
303.541
303.605
303.671
303.738
303.807
303.878
303.95
304.023
304.097
304.173
304.249
304.326
304.403
304.48
304.558
304.635
304.711
304.787
304.861
304.933
305.004
305.072
305.136
305.197
305.252
305.3
305.34
305.368
305.38
305.372
302.972
302.971
302.95
302.915
302.873
302.825
302.774
302.723
302.673
302.624
302.577
302.533
302.491
302.452
302.415
302.381
302.35
302.32
302.293
302.268
302.246
302.224
302.205
302.187
302.171
302.156
302.142
302.129
302.117
302.106
302.096
302.087
302.078
302.07
302.062
302.055
302.048
302.041
302.034
302.028
302.021
302.015
302.009
302.003
301.997
301.991
301.985
301.979
301.972
301.966
301.96
301.954
301.948
301.942
301.936
301.93
301.924
301.918
301.912
301.906
301.9
301.894
301.889
301.883
301.878
301.873
301.868
301.863
301.858
301.854
301.85
301.846
301.842
301.839
301.835
301.833
301.83
301.828
301.825
301.824
301.822
301.821
301.82
301.82
301.82
301.82
301.82
301.821
301.822
301.823
301.825
301.827
301.83
301.832
301.835
301.839
301.843
301.847
301.851
301.856
301.861
301.866
301.872
301.878
301.884
301.891
301.898
301.905
301.912
301.92
301.929
301.937
301.946
301.955
301.965
301.974
301.985
301.995
302.006
302.017
302.029
302.041
302.053
302.066
302.079
302.092
302.106
302.12
302.135
302.15
302.166
302.182
302.198
302.215
302.233
302.251
302.27
302.289
302.31
302.33
302.352
302.374
302.397
302.421
302.446
302.472
302.498
302.526
302.555
302.584
302.615
302.648
302.681
302.716
302.751
302.789
302.828
302.868
302.91
302.953
302.998
303.044
303.093
303.143
303.194
303.248
303.303
303.36
303.419
303.479
303.541
303.605
303.671
303.738
303.807
303.878
303.95
304.023
304.097
304.173
304.249
304.326
304.403
304.48
304.558
304.635
304.711
304.787
304.861
304.933
305.004
305.072
305.136
305.197
305.252
305.3
305.34
305.368
305.38
305.372
302.642
302.641
302.626
302.601
302.568
302.531
302.491
302.449
302.407
302.366
302.326
302.288
302.252
302.217
302.185
302.155
302.127
302.101
302.077
302.055
302.034
302.015
301.998
301.982
301.967
301.954
301.941
301.93
301.92
301.91
301.901
301.893
301.885
301.878
301.871
301.864
301.858
301.852
301.846
301.84
301.834
301.829
301.823
301.818
301.812
301.806
301.801
301.795
301.789
301.784
301.778
301.772
301.766
301.76
301.754
301.749
301.743
301.737
301.731
301.725
301.719
301.714
301.708
301.703
301.697
301.692
301.687
301.682
301.677
301.673
301.668
301.664
301.66
301.656
301.653
301.65
301.647
301.644
301.642
301.64
301.638
301.637
301.635
301.635
301.634
301.634
301.634
301.634
301.635
301.636
301.637
301.639
301.641
301.643
301.646
301.649
301.652
301.656
301.66
301.664
301.669
301.674
301.679
301.685
301.69
301.697
301.703
301.71
301.717
301.725
301.733
301.741
301.749
301.758
301.767
301.777
301.786
301.797
301.807
301.818
301.829
301.841
301.853
301.865
301.878
301.891
301.904
301.918
301.933
301.948
301.963
301.979
301.995
302.012
302.029
302.047
302.066
302.085
302.105
302.126
302.147
302.169
302.192
302.216
302.24
302.266
302.292
302.319
302.348
302.378
302.408
302.44
302.473
302.508
302.543
302.581
302.619
302.659
302.701
302.744
302.788
302.834
302.882
302.932
302.983
303.036
303.091
303.147
303.205
303.265
303.327
303.39
303.455
303.521
303.589
303.658
303.729
303.8
303.873
303.947
304.021
304.096
304.171
304.246
304.32
304.394
304.468
304.54
304.61
304.678
304.744
304.807
304.865
304.919
304.968
305.009
305.042
305.064
305.072
305.065
302.642
302.641
302.626
302.601
302.568
302.531
302.491
302.449
302.407
302.366
302.326
302.288
302.252
302.217
302.185
302.155
302.127
302.101
302.077
302.055
302.034
302.015
301.998
301.982
301.967
301.954
301.941
301.93
301.92
301.91
301.901
301.893
301.885
301.878
301.871
301.864
301.858
301.852
301.846
301.84
301.834
301.829
301.823
301.818
301.812
301.806
301.801
301.795
301.789
301.784
301.778
301.772
301.766
301.76
301.754
301.749
301.743
301.737
301.731
301.725
301.719
301.714
301.708
301.703
301.697
301.692
301.687
301.682
301.677
301.673
301.668
301.664
301.66
301.656
301.653
301.65
301.647
301.644
301.642
301.64
301.638
301.637
301.635
301.635
301.634
301.634
301.634
301.634
301.635
301.636
301.637
301.639
301.641
301.643
301.646
301.649
301.652
301.656
301.66
301.664
301.669
301.674
301.679
301.685
301.69
301.697
301.703
301.71
301.717
301.725
301.733
301.741
301.749
301.758
301.767
301.777
301.786
301.797
301.807
301.818
301.829
301.841
301.853
301.865
301.878
301.891
301.904
301.918
301.933
301.948
301.963
301.979
301.995
302.012
302.029
302.047
302.066
302.085
302.105
302.126
302.147
302.169
302.192
302.216
302.24
302.266
302.292
302.319
302.348
302.378
302.408
302.44
302.473
302.508
302.543
302.581
302.619
302.659
302.701
302.744
302.788
302.834
302.882
302.932
302.983
303.036
303.091
303.147
303.205
303.265
303.327
303.39
303.455
303.521
303.589
303.658
303.729
303.8
303.873
303.947
304.021
304.096
304.171
304.246
304.32
304.394
304.468
304.54
304.61
304.678
304.744
304.807
304.865
304.919
304.968
305.009
305.042
305.064
305.072
305.065
302.359
302.356
302.344
302.325
302.3
302.27
302.237
302.203
302.168
302.133
302.099
302.066
302.035
302.005
301.977
301.95
301.925
301.902
301.881
301.861
301.842
301.826
301.81
301.796
301.783
301.771
301.76
301.75
301.741
301.732
301.724
301.717
301.71
301.704
301.698
301.692
301.686
301.681
301.676
301.67
301.665
301.66
301.655
301.65
301.645
301.64
301.635
301.629
301.624
301.618
301.613
301.607
301.602
301.596
301.59
301.585
301.579
301.573
301.567
301.562
301.556
301.55
301.545
301.539
301.534
301.529
301.523
301.518
301.514
301.509
301.504
301.5
301.496
301.492
301.489
301.485
301.482
301.479
301.477
301.474
301.472
301.47
301.469
301.468
301.467
301.466
301.466
301.466
301.467
301.467
301.468
301.47
301.471
301.473
301.476
301.478
301.481
301.485
301.488
301.492
301.496
301.501
301.506
301.511
301.517
301.523
301.529
301.535
301.542
301.549
301.557
301.565
301.573
301.581
301.59
301.599
301.609
301.619
301.629
301.64
301.651
301.662
301.673
301.686
301.698
301.711
301.724
301.738
301.752
301.767
301.782
301.797
301.813
301.83
301.847
301.865
301.884
301.903
301.922
301.943
301.964
301.986
302.008
302.032
302.056
302.082
302.108
302.135
302.164
302.193
302.224
302.255
302.288
302.322
302.358
302.395
302.433
302.473
302.514
302.557
302.601
302.647
302.695
302.744
302.795
302.847
302.901
302.957
303.015
303.074
303.135
303.197
303.261
303.326
303.393
303.461
303.53
303.601
303.672
303.744
303.816
303.889
303.962
304.034
304.107
304.178
304.248
304.317
304.384
304.449
304.51
304.569
304.623
304.672
304.715
304.752
304.78
304.8
304.808
304.802
302.359
302.356
302.344
302.325
302.3
302.27
302.237
302.203
302.168
302.133
302.099
302.066
302.035
302.005
301.977
301.95
301.925
301.902
301.881
301.861
301.842
301.826
301.81
301.796
301.783
301.771
301.76
301.75
301.741
301.732
301.724
301.717
301.71
301.704
301.698
301.692
301.686
301.681
301.676
301.67
301.665
301.66
301.655
301.65
301.645
301.64
301.635
301.629
301.624
301.618
301.613
301.607
301.602
301.596
301.59
301.585
301.579
301.573
301.567
301.562
301.556
301.55
301.545
301.539
301.534
301.529
301.523
301.518
301.514
301.509
301.504
301.5
301.496
301.492
301.488
301.485
301.482
301.479
301.477
301.474
301.472
301.47
301.469
301.468
301.467
301.466
301.466
301.466
301.467
301.467
301.468
301.47
301.471
301.473
301.476
301.478
301.481
301.485
301.488
301.492
301.496
301.501
301.506
301.511
301.517
301.523
301.529
301.535
301.542
301.549
301.557
301.565
301.573
301.581
301.59
301.599
301.609
301.619
301.629
301.64
301.651
301.662
301.673
301.686
301.698
301.711
301.724
301.738
301.752
301.767
301.782
301.797
301.813
301.83
301.847
301.865
301.884
301.903
301.922
301.943
301.964
301.986
302.008
302.032
302.056
302.082
302.108
302.135
302.164
302.193
302.224
302.255
302.288
302.322
302.358
302.395
302.433
302.473
302.514
302.557
302.601
302.647
302.695
302.744
302.795
302.847
302.901
302.957
303.015
303.074
303.135
303.197
303.261
303.326
303.393
303.461
303.53
303.601
303.672
303.744
303.816
303.889
303.962
304.034
304.107
304.178
304.248
304.317
304.384
304.449
304.51
304.569
304.623
304.672
304.715
304.752
304.78
304.799
304.808
304.802
302.108
302.105
302.095
302.079
302.059
302.034
302.008
301.979
301.95
301.92
301.891
301.863
301.836
301.809
301.785
301.761
301.739
301.719
301.7
301.682
301.666
301.651
301.637
301.625
301.613
301.603
301.593
301.584
301.576
301.568
301.562
301.555
301.549
301.543
301.538
301.533
301.528
301.523
301.519
301.514
301.509
301.505
301.5
301.496
301.491
301.486
301.481
301.476
301.471
301.466
301.461
301.456
301.45
301.445
301.439
301.434
301.428
301.423
301.417
301.411
301.406
301.4
301.394
301.389
301.384
301.378
301.373
301.368
301.363
301.358
301.354
301.349
301.345
301.341
301.337
301.334
301.331
301.327
301.325
301.322
301.32
301.318
301.316
301.315
301.314
301.313
301.312
301.312
301.312
301.313
301.314
301.315
301.316
301.318
301.32
301.322
301.325
301.328
301.331
301.335
301.339
301.343
301.348
301.353
301.358
301.363
301.369
301.376
301.382
301.389
301.396
301.404
301.412
301.42
301.429
301.438
301.447
301.456
301.466