/*--------------------------------*- C++ -*----------------------------------*\
  =========                 |
  \\      /  F ield         | OpenFOAM: The Open Source CFD Toolbox
   \\    /   O peration     | Website:  https://openfoam.org
    \\  /    A nd           | Version:  8
     \\/     M anipulation  |
\*---------------------------------------------------------------------------*/
FoamFile
{
    version     2.0;
    format      ascii;
    class       volVectorField;
    location    "2500";
    object      U;
}
// * * * * * * * * * * * * * * * * * * * * * * * * * * * * * * * * * * * * * //

dimensions      [0 1 -1 0 0 0 0];

internalField   nonuniform List<vector> 
46000
(
(0.000777939 9.88436e-07 -0.000818181)
(0.0036028 5.54135e-06 -0.00184263)
(0.00653978 5.14843e-06 -0.00181821)
(0.00849058 2.81789e-06 -0.00112972)
(0.00924842 1.0244e-06 -0.000361806)
(0.00895477 7.64038e-08 0.000311919)
(0.00780068 -2.32916e-07 0.000856381)
(0.00596997 -2.15298e-07 0.00128336)
(0.00361324 -8.01859e-08 0.00161595)
(0.000849011 6.36312e-08 0.00187432)
(-0.00223919 1.71355e-07 0.00207246)
(-0.0055698 2.31799e-07 0.00222425)
(-0.0090999 2.49425e-07 0.00234401)
(-0.012788 2.32329e-07 0.00243986)
(-0.0166056 1.94501e-07 0.00251768)
(-0.0205306 1.50342e-07 0.00258179)
(-0.0245459 1.10224e-07 0.00263536)
(-0.0286383 7.85784e-08 0.00268066)
(-0.0327969 5.55848e-08 0.0027193)
(-0.0370129 3.95386e-08 0.00275237)
(-0.0412786 2.86036e-08 0.00278058)
(-0.045587 2.13612e-08 0.00280438)
(-0.0499317 1.67935e-08 0.00282397)
(-0.0543061 1.40607e-08 0.00283942)
(-0.0587039 1.24651e-08 0.00285069)
(-0.0631184 1.14766e-08 0.00285763)
(-0.0675427 1.07799e-08 0.00286007)
(-0.0719696 1.03349e-08 0.00285779)
(-0.0763915 1.02384e-08 0.00285058)
(-0.0808004 1.05875e-08 0.00283821)
(-0.0851882 1.13719e-08 0.0028205)
(-0.0895461 1.25345e-08 0.00279725)
(-0.0938655 1.39079e-08 0.00276833)
(-0.0981371 1.53196e-08 0.00273364)
(-0.102352 1.66225e-08 0.00269311)
(-0.106501 1.77245e-08 0.00264672)
(-0.110574 1.8527e-08 0.00259448)
(-0.114562 1.90033e-08 0.00253648)
(-0.118457 1.91535e-08 0.00247281)
(-0.122249 1.89876e-08 0.00240363)
(-0.12593 1.85376e-08 0.00232913)
(-0.12949 1.78669e-08 0.00224954)
(-0.132923 1.70042e-08 0.00216512)
(-0.136221 1.59743e-08 0.00207614)
(-0.139376 1.47892e-08 0.00198293)
(-0.142382 1.34555e-08 0.00188582)
(-0.145232 1.19865e-08 0.00178516)
(-0.147922 1.03823e-08 0.00168131)
(-0.150445 8.65128e-09 0.00157466)
(-0.152799 6.82343e-09 0.00146557)
(-0.154979 4.8988e-09 0.00135444)
(-0.156982 2.90077e-09 0.00124165)
(-0.158805 8.51063e-10 0.00112757)
(-0.160446 -1.21188e-09 0.00101259)
(-0.161905 -3.24128e-09 0.000897054)
(-0.16318 -5.19705e-09 0.000781334)
(-0.164271 -7.04242e-09 0.000665773)
(-0.165179 -8.75234e-09 0.000550709)
(-0.165904 -1.02951e-08 0.000436468)
(-0.166448 -1.1679e-08 0.000323346)
(-0.166813 -1.29059e-08 0.000211583)
(-0.167001 -1.40241e-08 0.000101322)
(-0.167015 -1.50771e-08 -7.18648e-06)
(-0.166858 -1.61051e-08 -0.000113497)
(-0.166533 -1.71448e-08 -0.000217428)
(-0.166045 -1.81779e-08 -0.000318984)
(-0.165396 -1.92178e-08 -0.000418008)
(-0.164592 -2.02393e-08 -0.00051432)
(-0.163637 -2.1184e-08 -0.000607763)
(-0.162535 -2.20519e-08 -0.000698206)
(-0.161292 -2.27845e-08 -0.000785538)
(-0.159912 -2.34286e-08 -0.000869671)
(-0.158401 -2.39524e-08 -0.000950528)
(-0.156765 -2.44011e-08 -0.00102805)
(-0.155008 -2.48148e-08 -0.00110219)
(-0.153136 -2.52285e-08 -0.00117292)
(-0.151156 -2.56607e-08 -0.00124021)
(-0.149071 -2.61048e-08 -0.00130405)
(-0.146889 -2.65622e-08 -0.00136444)
(-0.144614 -2.70048e-08 -0.00142138)
(-0.142252 -2.74207e-08 -0.00147489)
(-0.139808 -2.77949e-08 -0.001525)
(-0.137289 -2.81307e-08 -0.00157173)
(-0.1347 -2.84382e-08 -0.00161512)
(-0.132045 -2.87441e-08 -0.00165522)
(-0.12933 -2.90384e-08 -0.00169206)
(-0.126561 -2.93779e-08 -0.00172571)
(-0.123742 -2.97493e-08 -0.00175623)
(-0.120878 -3.01493e-08 -0.00178368)
(-0.117974 -3.05493e-08 -0.00180813)
(-0.115035 -3.09227e-08 -0.00182965)
(-0.112066 -3.1246e-08 -0.00184831)
(-0.10907 -3.14891e-08 -0.00186421)
(-0.106052 -3.16385e-08 -0.00187741)
(-0.103017 -3.17211e-08 -0.001888)
(-0.0999677 -3.173e-08 -0.00189608)
(-0.0969088 -3.16922e-08 -0.00190173)
(-0.0938437 -3.15975e-08 -0.00190505)
(-0.0907761 -3.14793e-08 -0.00190613)
(-0.0877093 -3.13244e-08 -0.00190507)
(-0.0846465 -3.11393e-08 -0.00190197)
(-0.0815908 -3.09375e-08 -0.00189691)
(-0.0785453 -3.07591e-08 -0.00189001)
(-0.0755125 -3.06041e-08 -0.00188137)
(-0.0724952 -3.04693e-08 -0.00187108)
(-0.0694957 -3.03579e-08 -0.00185925)
(-0.0665164 -3.02967e-08 -0.00184599)
(-0.0635594 -3.0249e-08 -0.00183138)
(-0.0606266 -3.02146e-08 -0.00181554)
(-0.0577198 -3.01769e-08 -0.00179857)
(-0.0548408 -3.01426e-08 -0.00178055)
(-0.051991 -3.00915e-08 -0.00176159)
(-0.0491718 -3.00337e-08 -0.00174179)
(-0.0463844 -2.9986e-08 -0.00172124)
(-0.0436299 -2.99282e-08 -0.00170003)
(-0.0409092 -2.98636e-08 -0.00167824)
(-0.0382232 -2.98092e-08 -0.00165598)
(-0.0355725 -2.97178e-08 -0.00163331)
(-0.0329578 -2.96533e-08 -0.00161032)
(-0.0303794 -2.96122e-08 -0.00158708)
(-0.0278377 -2.95677e-08 -0.00156366)
(-0.025333 -2.95568e-08 -0.00154013)
(-0.0228654 -2.96264e-08 -0.00151654)
(-0.0204349 -2.97295e-08 -0.00149296)
(-0.0180416 -2.98864e-08 -0.00146943)
(-0.0156853 -3.0107e-08 -0.00144601)
(-0.0133659 -3.04216e-08 -0.00142273)
(-0.0110832 -3.07899e-08 -0.00139961)
(-0.00883679 -3.1202e-08 -0.0013767)
(-0.00662651 -3.16208e-08 -0.00135414)
(-0.00445126 -3.20565e-08 -0.00133236)
(-0.0023112 -3.23714e-08 -0.00131145)
(-0.000204718 -3.26663e-08 -0.00128987)
(0.00186734 -3.29443e-08 -0.00126625)
(0.00390236 -3.33264e-08 -0.00124167)
(0.00590241 -3.40343e-08 -0.0012172)
(0.00786652 -3.48666e-08 -0.0011928)
(0.00979466 -3.56856e-08 -0.00116838)
(0.0116865 -3.64343e-08 -0.00114383)
(0.0135415 -3.70957e-08 -0.00111904)
(0.0153589 -3.76667e-08 -0.00109388)
(0.017138 -3.81739e-08 -0.00106822)
(0.0188775 -3.86208e-08 -0.0010419)
(0.0205761 -3.89872e-08 -0.00101477)
(0.0222321 -3.92899e-08 -0.000986661)
(0.0238436 -3.95523e-08 -0.000957403)
(0.0254085 -3.97948e-08 -0.000926807)
(0.0269242 -4.00273e-08 -0.000894683)
(0.0283879 -4.02532e-08 -0.000860833)
(0.0297964 -4.0523e-08 -0.000825056)
(0.0311462 -4.08502e-08 -0.00078715)
(0.0324335 -4.12481e-08 -0.000746913)
(0.0336542 -4.17439e-08 -0.000704145)
(0.0348035 -4.23207e-08 -0.000658653)
(0.0358769 -4.29886e-08 -0.000610253)
(0.036869 -4.37241e-08 -0.000558772)
(0.0377744 -4.45105e-08 -0.000504055)
(0.0385874 -4.53142e-08 -0.000445967)
(0.0393021 -4.60948e-08 -0.000384398)
(0.0399123 -4.68421e-08 -0.000319272)
(0.0404116 -4.75057e-08 -0.00025056)
(0.0407938 -4.80486e-08 -0.000178292)
(0.0410525 -4.84573e-08 -0.000102583)
(0.0411813 -4.86406e-08 -2.36104e-05)
(0.0411745 -4.87834e-08 5.87534e-05)
(0.0410259 -4.89202e-08 0.000144603)
(0.0407286 -4.87945e-08 0.0002337)
(0.040277 -4.85141e-08 0.000325767)
(0.0396658 -4.81395e-08 0.000420425)
(0.03889 -4.76437e-08 0.000517228)
(0.0379455 -4.70739e-08 0.000615653)
(0.0368292 -4.64637e-08 0.0007151)
(0.0355385 -4.58739e-08 0.00081488)
(0.0340725 -4.52978e-08 0.000914207)
(0.0324311 -4.48636e-08 0.00101219)
(0.0306161 -4.46389e-08 0.0011078)
(0.0286308 -4.47658e-08 0.00119992)
(0.0264805 -4.53931e-08 0.00128725)
(0.0241727 -4.65618e-08 0.00136835)
(0.0217174 -4.834e-08 0.00144159)
(0.0191275 -5.06063e-08 0.00150514)
(0.0164189 -5.33274e-08 0.00155692)
(0.0136116 -5.63684e-08 0.00159457)
(0.0107295 -5.97432e-08 0.00161541)
(0.00780163 -6.35738e-08 0.00161632)
(0.00486188 -6.80706e-08 0.00159373)
(0.00195622 -7.32885e-08 0.00154328)
(-0.000877322 -7.86182e-08 0.00145536)
(-0.00356077 -8.39646e-08 0.00132357)
(-0.00603047 -9.00198e-08 0.00114519)
(-0.00820125 -9.62764e-08 0.000916202)
(-0.00997192 -1.02186e-07 0.000627625)
(-0.011227 -1.07035e-07 0.000269139)
(-0.0118323 -1.09998e-07 -0.000161329)
(-0.0116462 -1.09769e-07 -0.000651478)
(-0.0105497 -1.06133e-07 -0.00116161)
(-0.00848975 -9.88862e-08 -0.00159168)
(-0.00559855 -9.09944e-08 -0.00170339)
(-0.00243264 -9.48264e-08 -0.00116221)
(-0.000305512 -4.19805e-08 -0.000317067)
(0.000801595 9.88287e-07 -0.000848467)
(0.00362373 5.53927e-06 -0.00189084)
(0.00653982 5.14746e-06 -0.00185132)
(0.00848182 2.81769e-06 -0.00114737)
(0.00924086 1.02437e-06 -0.000369641)
(0.00895045 7.64029e-08 0.000309058)
(0.00779868 -2.32913e-07 0.00085564)
(0.00596891 -2.15295e-07 0.00128338)
(0.00361232 -8.01847e-08 0.00161619)
(0.000847973 6.36301e-08 0.00187458)
(-0.00224028 1.71352e-07 0.00207269)
(-0.00557083 2.31795e-07 0.00222445)
(-0.00910077 2.49421e-07 0.0023442)
(-0.0127886 2.32325e-07 0.00244003)
(-0.0166061 1.94498e-07 0.00251783)
(-0.0205309 1.5034e-07 0.00258193)
(-0.0245461 1.10222e-07 0.00263549)
(-0.0286383 7.85773e-08 0.00268079)
(-0.0327968 5.5584e-08 0.00271942)
(-0.0370127 3.95381e-08 0.00275248)
(-0.0412784 2.86032e-08 0.00278069)
(-0.0455868 2.1361e-08 0.00280447)
(-0.0499314 1.67932e-08 0.00282406)
(-0.0543058 1.40606e-08 0.00283951)
(-0.0587036 1.24649e-08 0.00285077)
(-0.063118 1.14764e-08 0.00285771)
(-0.0675423 1.07798e-08 0.00286014)
(-0.0719692 1.03348e-08 0.00285786)
(-0.0763911 1.02383e-08 0.00285065)
(-0.0808 1.05874e-08 0.00283828)
(-0.0851877 1.13717e-08 0.00282056)
(-0.0895456 1.25343e-08 0.00279731)
(-0.093865 1.39077e-08 0.00276839)
(-0.0981366 1.53195e-08 0.00273369)
(-0.102351 1.66223e-08 0.00269316)
(-0.1065 1.77243e-08 0.00264677)
(-0.110573 1.85268e-08 0.00259453)
(-0.114562 1.90031e-08 0.00253653)
(-0.118457 1.91533e-08 0.00247286)
(-0.122249 1.89874e-08 0.00240368)
(-0.125929 1.85374e-08 0.00232919)
(-0.12949 1.78667e-08 0.00224959)
(-0.132923 1.7004e-08 0.00216516)
(-0.13622 1.59742e-08 0.00207619)
(-0.139375 1.47891e-08 0.00198297)
(-0.142381 1.34554e-08 0.00188586)
(-0.145231 1.19864e-08 0.00178519)
(-0.147921 1.03822e-08 0.00168134)
(-0.150445 8.6512e-09 0.00157468)
(-0.152798 6.82337e-09 0.0014656)
(-0.154978 4.89875e-09 0.00135447)
(-0.156981 2.90074e-09 0.00124167)
(-0.158804 8.51056e-10 0.0011276)
(-0.160445 -1.21187e-09 0.00101261)
(-0.161904 -3.24125e-09 0.000897077)
(-0.163179 -5.197e-09 0.000781357)
(-0.16427 -7.04235e-09 0.000665796)
(-0.165178 -8.75227e-09 0.000550733)
(-0.165903 -1.0295e-08 0.000436491)
(-0.166447 -1.16789e-08 0.000323369)
(-0.166812 -1.29058e-08 0.000211606)
(-0.167 -1.4024e-08 0.000101343)
(-0.167014 -1.5077e-08 -7.16641e-06)
(-0.166857 -1.6105e-08 -0.000113479)
(-0.166533 -1.71447e-08 -0.000217412)
(-0.166044 -1.81778e-08 -0.00031897)
(-0.165396 -1.92176e-08 -0.000417996)
(-0.164592 -2.02391e-08 -0.00051431)
(-0.163636 -2.11838e-08 -0.000607755)
(-0.162535 -2.20517e-08 -0.000698199)
(-0.161291 -2.27843e-08 -0.000785534)
(-0.159912 -2.34284e-08 -0.000869667)
(-0.158401 -2.39522e-08 -0.000950527)
(-0.156764 -2.44009e-08 -0.00102805)
(-0.155008 -2.48146e-08 -0.0011022)
(-0.153136 -2.52283e-08 -0.00117292)
(-0.151155 -2.56605e-08 -0.00124021)
(-0.149071 -2.61045e-08 -0.00130405)
(-0.146888 -2.6562e-08 -0.00136444)
(-0.144613 -2.70046e-08 -0.00142138)
(-0.142251 -2.74205e-08 -0.0014749)
(-0.139808 -2.77946e-08 -0.00152501)
(-0.137289 -2.81305e-08 -0.00157174)
(-0.134699 -2.84379e-08 -0.00161513)
(-0.132044 -2.87439e-08 -0.00165522)
(-0.12933 -2.90381e-08 -0.00169207)
(-0.12656 -2.93777e-08 -0.00172572)
(-0.123741 -2.97491e-08 -0.00175623)
(-0.120877 -3.0149e-08 -0.00178368)
(-0.117974 -3.05491e-08 -0.00180813)
(-0.115035 -3.09225e-08 -0.00182965)
(-0.112065 -3.12458e-08 -0.00184832)
(-0.109069 -3.14888e-08 -0.00186421)
(-0.106052 -3.16383e-08 -0.00187741)
(-0.103016 -3.17208e-08 -0.001888)
(-0.0999672 -3.17298e-08 -0.00189608)
(-0.0969083 -3.1692e-08 -0.00190173)
(-0.0938432 -3.15973e-08 -0.00190505)
(-0.0907756 -3.14791e-08 -0.00190613)
(-0.0877088 -3.13242e-08 -0.00190507)
(-0.084646 -3.11391e-08 -0.00190196)
(-0.0815904 -3.09373e-08 -0.0018969)
(-0.0785448 -3.07589e-08 -0.00189)
(-0.075512 -3.06039e-08 -0.00188135)
(-0.0724947 -3.04691e-08 -0.00187106)
(-0.0694953 -3.03577e-08 -0.00185924)
(-0.066516 -3.02965e-08 -0.00184597)
(-0.0635589 -3.02488e-08 -0.00183136)
(-0.0606261 -3.02144e-08 -0.00181552)
(-0.0577194 -3.01768e-08 -0.00179854)
(-0.0548404 -3.01424e-08 -0.00178052)
(-0.0519905 -3.00913e-08 -0.00176156)
(-0.0491713 -3.00336e-08 -0.00174175)
(-0.0463839 -2.99858e-08 -0.0017212)
(-0.0436294 -2.9928e-08 -0.00169998)
(-0.0409088 -2.98635e-08 -0.0016782)
(-0.0382228 -2.9809e-08 -0.00165593)
(-0.0355721 -2.97177e-08 -0.00163326)
(-0.0329574 -2.96531e-08 -0.00161026)
(-0.030379 -2.9612e-08 -0.00158702)
(-0.0278373 -2.95676e-08 -0.00156359)
(-0.0253326 -2.95567e-08 -0.00154006)
(-0.0228649 -2.96263e-08 -0.00151647)
(-0.0204345 -2.97294e-08 -0.00149288)
(-0.0180412 -2.98863e-08 -0.00146935)
(-0.0156849 -3.01069e-08 -0.00144592)
(-0.0133655 -3.04215e-08 -0.00142263)
(-0.0110828 -3.07898e-08 -0.00139952)
(-0.0088364 -3.12019e-08 -0.0013766)
(-0.00662613 -3.16207e-08 -0.00135403)
(-0.00445087 -3.20564e-08 -0.00133225)
(-0.00231082 -3.23713e-08 -0.00131133)
(-0.000204341 -3.26662e-08 -0.00128975)
(0.00186771 -3.29442e-08 -0.00126612)
(0.00390272 -3.33263e-08 -0.00124154)
(0.00590277 -3.40342e-08 -0.00121707)
(0.00786688 -3.48665e-08 -0.00119266)
(0.00979501 -3.56855e-08 -0.00116824)
(0.0116868 -3.64342e-08 -0.00114368)
(0.0135418 -3.70957e-08 -0.00111889)
(0.0153593 -3.76666e-08 -0.00109372)
(0.0171383 -3.81738e-08 -0.00106805)
(0.0188778 -3.86207e-08 -0.00104173)
(0.0205764 -3.89871e-08 -0.0010146)
(0.0222324 -3.92898e-08 -0.000986489)
(0.023844 -3.95523e-08 -0.000957228)
(0.0254089 -3.97947e-08 -0.000926629)
(0.0269246 -4.00272e-08 -0.000894502)
(0.0283882 -4.02532e-08 -0.00086065)
(0.0297967 -4.0523e-08 -0.000824871)
(0.0311466 -4.08501e-08 -0.000786963)
(0.0324339 -4.12481e-08 -0.000746723)
(0.0336545 -4.17439e-08 -0.000703953)
(0.0348038 -4.23207e-08 -0.000658459)
(0.0358772 -4.29886e-08 -0.000610057)
(0.0368693 -4.37241e-08 -0.000558574)
(0.0377747 -4.45105e-08 -0.000503855)
(0.0385877 -4.53142e-08 -0.000445765)
(0.0393024 -4.60948e-08 -0.000384193)
(0.0399126 -4.68421e-08 -0.000319066)
(0.0404119 -4.75058e-08 -0.000250351)
(0.0407941 -4.80486e-08 -0.00017808)
(0.0410528 -4.84573e-08 -0.000102369)
(0.0411816 -4.86406e-08 -2.33933e-05)
(0.0411748 -4.87834e-08 5.89731e-05)
(0.0410261 -4.89202e-08 0.000144826)
(0.0407288 -4.87946e-08 0.000233925)
(0.0402773 -4.85141e-08 0.000325994)
(0.039666 -4.81395e-08 0.000420655)
(0.0388903 -4.76437e-08 0.000517459)
(0.0379458 -4.70739e-08 0.000615886)
(0.0368294 -4.64637e-08 0.000715334)
(0.0355388 -4.5874e-08 0.000815117)
(0.0340727 -4.52978e-08 0.000914446)
(0.0324314 -4.48636e-08 0.00101243)
(0.0306164 -4.46389e-08 0.00110805)
(0.028631 -4.47658e-08 0.00120017)
(0.0264807 -4.53931e-08 0.00128751)
(0.0241729 -4.65619e-08 0.00136861)
(0.0217176 -4.834e-08 0.00144185)
(0.0191276 -5.06063e-08 0.00150541)
(0.0164191 -5.33275e-08 0.0015572)
(0.0136117 -5.63685e-08 0.00159486)
(0.0107296 -5.97432e-08 0.00161571)
(0.00780174 -6.35738e-08 0.00161663)
(0.00486197 -6.80706e-08 0.00159405)
(0.00195629 -7.32885e-08 0.00154361)
(-0.000877278 -7.86183e-08 0.00145571)
(-0.00356075 -8.39647e-08 0.00132393)
(-0.00603048 -9.00198e-08 0.00114555)
(-0.00820128 -9.62764e-08 0.000916578)
(-0.00997196 -1.02186e-07 0.000628011)
(-0.011227 -1.07035e-07 0.000269536)
(-0.0118323 -1.09998e-07 -0.000160921)
(-0.0116462 -1.09769e-07 -0.00065106)
(-0.0105497 -1.06133e-07 -0.00116118)
(-0.00848967 -9.88864e-08 -0.00159124)
(-0.00559838 -9.09946e-08 -0.00170293)
(-0.00243227 -9.48268e-08 -0.00116172)
(-0.000305269 -4.19806e-08 -0.000316656)
(0.00171789 -5.22966e-06 -0.00378312)
(0.00431303 -1.98598e-06 -0.00456891)
(0.00548078 -2.95641e-07 -0.00338166)
(0.00574603 -8.44797e-08 -0.00164418)
(0.00517371 -8.46228e-08 3.70039e-05)
(0.003917 -1.19734e-07 0.00147142)
(0.0020837 -1.08804e-07 0.00263076)
(-0.000228828 -6.87416e-08 0.00354706)
(-0.00293317 -2.08799e-08 0.00426514)
(-0.00595574 2.26688e-08 0.00482776)
(-0.00923865 5.59504e-08 0.005269)
(-0.0127337 7.55935e-08 0.0056176)
(-0.0164035 8.15322e-08 0.00589724)
(-0.0202174 7.66504e-08 0.00612433)
(-0.0241516 6.58602e-08 0.00631135)
(-0.0281869 5.36314e-08 0.00646746)
(-0.0323081 4.26876e-08 0.00659941)
(-0.036503 3.39314e-08 0.00671208)
(-0.0407611 2.72653e-08 0.00680894)
(-0.0450737 2.22621e-08 0.00689236)
(-0.0494331 1.85408e-08 0.0069639)
(-0.0538322 1.58099e-08 0.00702449)
(-0.0582643 1.38306e-08 0.00707457)
(-0.0627229 1.23776e-08 0.00711424)
(-0.0672013 1.12516e-08 0.00714334)
(-0.071693 1.03059e-08 0.00716154)
(-0.0761908 9.46795e-09 0.00716837)
(-0.0806878 8.73016e-09 0.00716333)
(-0.0851762 8.10751e-09 0.00714585)
(-0.0896485 7.61826e-09 0.00711542)
(-0.0940963 7.23491e-09 0.00707153)
(-0.0985114 6.92661e-09 0.00701374)
(-0.102885 6.65337e-09 0.0069417)
(-0.107209 6.37856e-09 0.00685512)
(-0.111473 6.08386e-09 0.00675384)
(-0.115669 5.7701e-09 0.00663778)
(-0.119788 5.43061e-09 0.00650696)
(-0.123821 5.08703e-09 0.00636153)
(-0.127759 4.75018e-09 0.00620174)
(-0.131593 4.43504e-09 0.00602792)
(-0.135315 4.14326e-09 0.00584052)
(-0.138917 3.88149e-09 0.00564008)
(-0.14239 3.63559e-09 0.00542721)
(-0.145727 3.37891e-09 0.0052026)
(-0.148922 3.09898e-09 0.00496702)
(-0.151967 2.77998e-09 0.00472128)
(-0.154856 2.41776e-09 0.00446624)
(-0.157585 2.01814e-09 0.00420281)
(-0.160148 1.59193e-09 0.00393193)
(-0.16254 1.15579e-09 0.00365454)
(-0.164758 7.41309e-10 0.0033716)
(-0.166798 3.48497e-10 0.0030841)
(-0.168659 -1.85618e-12 0.00279299)
(-0.170336 -3.03101e-10 0.00249922)
(-0.171831 -5.51915e-10 0.00220373)
(-0.17314 -7.45808e-10 0.00190744)
(-0.174264 -8.81459e-10 0.00161123)
(-0.175203 -9.60534e-10 0.00131597)
(-0.175957 -9.90526e-10 0.0010225)
(-0.176529 -9.75595e-10 0.000731603)
(-0.176918 -9.26559e-10 0.000444047)
(-0.177128 -8.55063e-10 0.000160555)
(-0.17716 -7.79407e-10 -0.000118287)
(-0.177017 -7.08743e-10 -0.000392093)
(-0.176703 -6.55546e-10 -0.000660409)
(-0.176221 -6.12329e-10 -0.000922677)
(-0.175574 -5.77431e-10 -0.0011784)
(-0.174768 -5.30888e-10 -0.00142714)
(-0.173806 -4.69374e-10 -0.00166851)
(-0.172692 -3.99545e-10 -0.00190217)
(-0.171432 -3.14745e-10 -0.00212783)
(-0.17003 -2.22461e-10 -0.00234526)
(-0.168492 -1.31841e-10 -0.00255424)
(-0.166821 -5.70241e-11 -0.00275463)
(-0.165024 -1.63094e-11 -0.0029463)
(-0.163106 -1.55191e-11 -0.00312915)
(-0.161072 -5.29904e-11 -0.00330313)
(-0.158927 -1.09594e-10 -0.0034682)
(-0.156677 -1.68694e-10 -0.00362436)
(-0.154327 -2.16983e-10 -0.00377164)
(-0.151882 -2.5363e-10 -0.00391008)
(-0.149349 -2.96102e-10 -0.00403976)
(-0.146731 -3.54384e-10 -0.00416076)
(-0.144035 -4.3513e-10 -0.00427318)
(-0.141266 -5.30854e-10 -0.00437714)
(-0.138427 -6.21592e-10 -0.00447279)
(-0.135526 -7.07343e-10 -0.00456028)
(-0.132566 -7.64814e-10 -0.00463977)
(-0.129553 -8.14802e-10 -0.00471145)
(-0.12649 -8.50652e-10 -0.0047755)
(-0.123384 -8.96489e-10 -0.00483212)
(-0.120237 -9.40668e-10 -0.00488152)
(-0.117055 -9.69044e-10 -0.0049239)
(-0.113843 -9.78285e-10 -0.00495948)
(-0.110603 -9.57574e-10 -0.0049885)
(-0.10734 -9.14394e-10 -0.00501119)
(-0.104059 -8.57066e-10 -0.00502778)
(-0.100762 -7.97238e-10 -0.00503851)
(-0.0974536 -7.50722e-10 -0.00504363)
(-0.094137 -7.1752e-10 -0.00504337)
(-0.0908157 -6.968e-10 -0.00503798)
(-0.0874929 -6.79407e-10 -0.00502772)
(-0.0841716 -6.6534e-10 -0.00501282)
(-0.0808548 -6.39618e-10 -0.00499355)
(-0.0775452 -6.064e-10 -0.00497014)
(-0.0742456 -5.65685e-10 -0.00494285)
(-0.0709584 -5.24966e-10 -0.00491193)
(-0.0676861 -4.84242e-10 -0.00487762)
(-0.0644308 -4.41848e-10 -0.00484016)
(-0.0611947 -3.95287e-10 -0.00479978)
(-0.0579798 -3.32901e-10 -0.00475673)
(-0.0547878 -2.56351e-10 -0.00471124)
(-0.0516205 -1.52311e-10 -0.00466353)
(-0.0484795 -2.99377e-11 -0.00461383)
(-0.0453661 1.08275e-10 -0.00456236)
(-0.0422817 2.60663e-10 -0.00450932)
(-0.0392275 4.23065e-10 -0.00445492)
(-0.0362046 5.88818e-10 -0.00439936)
(-0.0332139 7.52094e-10 -0.00434281)
(-0.0302562 9.16224e-10 -0.00428547)
(-0.0273324 1.07288e-09 -0.00422749)
(-0.0244429 1.22456e-09 -0.00416904)
(-0.0215884 1.36543e-09 -0.00411027)
(-0.0187693 1.50632e-09 -0.00405131)
(-0.0159859 1.64057e-09 -0.00399229)
(-0.0132386 1.77485e-09 -0.00393334)
(-0.0105274 1.89831e-09 -0.00387456)
(-0.00785254 2.00679e-09 -0.00381607)
(-0.00521396 2.10696e-09 -0.00375802)
(-0.00261167 2.21881e-09 -0.00370086)
(-4.50912e-05 2.3032e-09 -0.00364433)
(0.00248439 2.4218e-09 -0.0035878)
(0.00497576 2.60045e-09 -0.00353072)
(0.00742945 2.7858e-09 -0.00347249)
(0.00984508 2.9645e-09 -0.00341362)
(0.0122224 3.10905e-09 -0.00335454)
(0.0145608 3.21695e-09 -0.00329508)
(0.0168597 3.29319e-09 -0.00323504)
(0.0191184 3.34943e-09 -0.00317418)
(0.021336 3.39401e-09 -0.0031122)
(0.0235115 3.42444e-09 -0.00304879)
(0.0256436 3.43569e-09 -0.00298359)
(0.0277307 3.43694e-09 -0.00291623)
(0.0297712 3.41234e-09 -0.00284629)
(0.0317631 3.36772e-09 -0.00277332)
(0.033704 3.30057e-09 -0.00269687)
(0.0355914 3.20171e-09 -0.00261643)
(0.0374224 3.07529e-09 -0.00253149)
(0.0391936 2.92048e-09 -0.00244152)
(0.0409015 2.73225e-09 -0.00234596)
(0.0425421 2.50392e-09 -0.00224426)
(0.0441112 2.25133e-09 -0.00213586)
(0.0456039 1.97029e-09 -0.00202018)
(0.0470153 1.65327e-09 -0.00189669)
(0.04834 1.32615e-09 -0.00176483)
(0.0495722 9.88922e-10 -0.00162411)
(0.0507058 6.5326e-10 -0.00147404)
(0.0517343 3.30858e-10 -0.0013142)
(0.0526513 3.34116e-11 -0.0011442)
(0.0534496 -2.40748e-10 -0.000963758)
(0.0541223 -4.78246e-10 -0.000772644)
(0.0546619 -6.80746e-10 -0.000570769)
(0.0550611 -8.49913e-10 -0.00035817)
(0.0553124 -1.00414e-09 -0.000135073)
(0.0554081 -1.10839e-09 9.85717e-05)
(0.0553412 -1.17752e-09 0.000342914)
(0.0551045 -1.24171e-09 0.000597589)
(0.0546912 -1.2993e-09 0.000861936)
(0.0540949 -1.34528e-09 0.00113514)
(0.0533096 -1.39806e-09 0.00141618)
(0.05233 -1.45598e-09 0.00170384)
(0.0511517 -1.53413e-09 0.00199669)
(0.0497712 -1.62582e-09 0.00229302)
(0.0481859 -1.74281e-09 0.00259087)
(0.0463949 -1.90859e-09 0.00288796)
(0.0443986 -2.14332e-09 0.00318171)
(0.0421991 -2.46718e-09 0.00346912)
(0.0398005 -2.9054e-09 0.00374683)
(0.0372094 -3.44801e-09 0.00401098)
(0.0344347 -4.07834e-09 0.00425719)
(0.0314884 -4.74274e-09 0.00448048)
(0.0283855 -5.39424e-09 0.00467515)
(0.0251452 -6.01435e-09 0.00483466)
(0.0217907 -6.63161e-09 0.00495146)
(0.0183503 -7.27624e-09 0.00501677)
(0.0148577 -8.0306e-09 0.00502015)
(0.0113538 -8.85107e-09 0.0049496)
(0.00788542 -9.75616e-09 0.00478799)
(0.00450897 -1.07846e-08 0.00451742)
(0.00129 -1.18421e-08 0.00412017)
(-0.00169827 -1.28192e-08 0.00357221)
(-0.0043568 -1.36127e-08 0.0028491)
(-0.00659054 -1.40155e-08 0.00192435)
(-0.00828465 -1.36832e-08 0.000777583)
(-0.00932007 -1.24384e-08 -0.000590422)
(-0.00956267 -1.00786e-08 -0.00212297)
(-0.00889193 -6.07654e-09 -0.00365877)
(-0.0072162 -1.89172e-09 -0.00480001)
(-0.00451971 -5.57899e-09 -0.00475429)
(-0.00109262 4.63602e-08 -0.00255173)
(0.00173114 -5.23021e-06 -0.00378673)
(0.00432522 -1.98589e-06 -0.00458585)
(0.00548864 -2.95623e-07 -0.00339429)
(0.00574857 -8.44753e-08 -0.00165154)
(0.00517396 -8.46189e-08 3.33106e-05)
(0.00391631 -1.19729e-07 0.00146984)
(0.0020828 -1.088e-07 0.00263023)
(-0.000229745 -6.8739e-08 0.00354698)
(-0.00293404 -2.08791e-08 0.00426521)
(-0.00595653 2.26681e-08 0.00482785)
(-0.0092393 5.59486e-08 0.00526908)
(-0.0127342 7.55912e-08 0.00561766)
(-0.0164039 8.15297e-08 0.00589728)
(-0.0202176 7.66482e-08 0.00612436)
(-0.0241516 6.58583e-08 0.00631137)
(-0.0281868 5.36298e-08 0.00646747)
(-0.032308 4.26864e-08 0.00659942)
(-0.0365028 3.39304e-08 0.00671209)
(-0.0407608 2.72646e-08 0.00680895)
(-0.0450734 2.22615e-08 0.00689237)
(-0.0494327 1.85403e-08 0.00696392)
(-0.0538318 1.58095e-08 0.0070245)
(-0.0582639 1.38302e-08 0.00707458)
(-0.0627224 1.23773e-08 0.00711425)
(-0.0672009 1.12513e-08 0.00714335)
(-0.0716925 1.03057e-08 0.00716155)
(-0.0761903 9.46771e-09 0.00716839)
(-0.0806872 8.72994e-09 0.00716334)
(-0.0851757 8.10731e-09 0.00714587)
(-0.0896479 7.61807e-09 0.00711544)
(-0.0940957 7.23473e-09 0.00707155)
(-0.0985108 6.92643e-09 0.00701376)
(-0.102885 6.65321e-09 0.00694172)
(-0.107208 6.37841e-09 0.00685514)
(-0.111472 6.08371e-09 0.00675386)
(-0.115669 5.76996e-09 0.0066378)
(-0.119788 5.43047e-09 0.00650699)
(-0.123821 5.08691e-09 0.00636156)
(-0.127759 4.75007e-09 0.00620176)
(-0.131593 4.43493e-09 0.00602795)
(-0.135315 4.14316e-09 0.00584055)
(-0.138916 3.8814e-09 0.00564011)
(-0.142389 3.6355e-09 0.00542724)
(-0.145726 3.37883e-09 0.00520263)
(-0.148921 3.09891e-09 0.00496704)
(-0.151966 2.77991e-09 0.0047213)
(-0.154856 2.4177e-09 0.00446626)
(-0.157584 2.01809e-09 0.00420283)
(-0.160147 1.5919e-09 0.00393194)
(-0.162539 1.15576e-09 0.00365455)
(-0.164757 7.41292e-10 0.00337162)
(-0.166798 3.48489e-10 0.00308412)
(-0.168658 -1.85614e-12 0.002793)
(-0.170336 -3.03094e-10 0.00249923)
(-0.17183 -5.51902e-10 0.00220374)
(-0.173139 -7.45791e-10 0.00190745)
(-0.174263 -8.81438e-10 0.00161124)
(-0.175202 -9.60512e-10 0.00131598)
(-0.175957 -9.90503e-10 0.00102251)
(-0.176528 -9.75573e-10 0.000731614)
(-0.176917 -9.26538e-10 0.000444057)
(-0.177127 -8.55044e-10 0.000160565)
(-0.177159 -7.7939e-10 -0.000118277)
(-0.177016 -7.08727e-10 -0.000392084)
(-0.176702 -6.55531e-10 -0.0006604)
(-0.17622 -6.12316e-10 -0.000922669)
(-0.175574 -5.77418e-10 -0.0011784)
(-0.174767 -5.30876e-10 -0.00142714)
(-0.173805 -4.69364e-10 -0.00166851)
(-0.172692 -3.99536e-10 -0.00190217)
(-0.171432 -3.14738e-10 -0.00212783)
(-0.17003 -2.22456e-10 -0.00234525)
(-0.168491 -1.31838e-10 -0.00255424)
(-0.16682 -5.70229e-11 -0.00275463)
(-0.165023 -1.6309e-11 -0.0029463)
(-0.163105 -1.55188e-11 -0.00312915)
(-0.161071 -5.29893e-11 -0.00330312)
(-0.158926 -1.09591e-10 -0.00346819)
(-0.156676 -1.6869e-10 -0.00362436)
(-0.154326 -2.16978e-10 -0.00377164)
(-0.151882 -2.53625e-10 -0.00391008)
(-0.149348 -2.96097e-10 -0.00403976)
(-0.146731 -3.54377e-10 -0.00416076)
(-0.144035 -4.35121e-10 -0.00427318)
(-0.141265 -5.30844e-10 -0.00437714)
(-0.138427 -6.2158e-10 -0.00447279)
(-0.135525 -7.0733e-10 -0.00456028)
(-0.132565 -7.648e-10 -0.00463977)
(-0.129552 -8.14787e-10 -0.00471145)
(-0.12649 -8.50636e-10 -0.0047755)
(-0.123383 -8.96473e-10 -0.00483212)
(-0.120237 -9.40651e-10 -0.00488152)
(-0.117055 -9.69026e-10 -0.00492389)
(-0.113842 -9.78268e-10 -0.00495948)
(-0.110602 -9.57557e-10 -0.0049885)
(-0.10734 -9.14378e-10 -0.00501118)
(-0.104058 -8.57051e-10 -0.00502777)
(-0.100761 -7.97224e-10 -0.00503851)
(-0.097453 -7.5071e-10 -0.00504362)
(-0.0941365 -7.17508e-10 -0.00504337)
(-0.0908152 -6.96788e-10 -0.00503798)
(-0.0874924 -6.79396e-10 -0.00502771)
(-0.0841711 -6.6533e-10 -0.00501282)
(-0.0808543 -6.39608e-10 -0.00499354)
(-0.0775447 -6.0639e-10 -0.00497013)
(-0.0742451 -5.65677e-10 -0.00494284)
(-0.0709579 -5.24958e-10 -0.00491192)
(-0.0676856 -4.84235e-10 -0.00487761)
(-0.0644303 -4.41842e-10 -0.00484015)
(-0.0611943 -3.95282e-10 -0.00479977)
(-0.0579793 -3.32896e-10 -0.00475672)
(-0.0547874 -2.56347e-10 -0.00471122)
(-0.0516201 -1.52309e-10 -0.00466351)
(-0.048479 -2.99373e-11 -0.00461381)
(-0.0453657 1.08274e-10 -0.00456234)
(-0.0422813 2.6066e-10 -0.0045093)
(-0.0392271 4.2306e-10 -0.0044549)
(-0.0362042 5.88811e-10 -0.00439934)
(-0.0332135 7.52085e-10 -0.00434279)
(-0.0302558 9.16214e-10 -0.00428545)
(-0.027332 1.07287e-09 -0.00422747)
(-0.0244425 1.22454e-09 -0.00416902)
(-0.021588 1.36541e-09 -0.00411024)
(-0.0187689 1.50631e-09 -0.00405128)
(-0.0159855 1.64056e-09 -0.00399226)
(-0.0132382 1.77483e-09 -0.00393331)
(-0.010527 1.89829e-09 -0.00387453)
(-0.00785217 2.00677e-09 -0.00381604)
(-0.0052136 2.10694e-09 -0.00375799)
(-0.00261131 2.2188e-09 -0.00370082)
(-4.47348e-05 2.30318e-09 -0.00364429)
(0.00248474 2.42178e-09 -0.00358776)
(0.00497611 2.60043e-09 -0.00353067)
(0.0074298 2.78578e-09 -0.00347244)
(0.00984542 2.96448e-09 -0.00341358)
(0.0122227 3.10903e-09 -0.0033545)
(0.0145611 3.21693e-09 -0.00329503)
(0.01686 3.29317e-09 -0.00323499)
(0.0191187 3.34941e-09 -0.00317413)
(0.0213364 3.394e-09 -0.00311215)
(0.0235118 3.42442e-09 -0.00304874)
(0.0256439 3.43567e-09 -0.00298354)
(0.0277311 3.43693e-09 -0.00291618)
(0.0297716 3.41233e-09 -0.00284624)
(0.0317634 3.36771e-09 -0.00277327)
(0.0337044 3.30056e-09 -0.00269682)
(0.0355917 3.2017e-09 -0.00261638)
(0.0374227 3.07528e-09 -0.00253144)
(0.0391939 2.92047e-09 -0.00244147)
(0.0409018 2.73225e-09 -0.00234591)
(0.0425424 2.50392e-09 -0.00224422)
(0.0441115 2.25132e-09 -0.00213581)
(0.0456042 1.97029e-09 -0.00202013)
(0.0470156 1.65327e-09 -0.00189664)
(0.0483403 1.32615e-09 -0.00176478)
(0.0495725 9.88921e-10 -0.00162406)
(0.0507061 6.5326e-10 -0.00147399)
(0.0517346 3.30858e-10 -0.00131415)
(0.0526516 3.34116e-11 -0.00114415)
(0.0534499 -2.40748e-10 -0.000963706)
(0.0541226 -4.78246e-10 -0.000772591)
(0.0546622 -6.80746e-10 -0.000570715)
(0.0550614 -8.49913e-10 -0.000358115)
(0.0553127 -1.00415e-09 -0.000135016)
(0.0554084 -1.1084e-09 9.863e-05)
(0.0553415 -1.17752e-09 0.000342974)
(0.0551048 -1.24171e-09 0.000597651)
(0.0546915 -1.2993e-09 0.000861999)
(0.0540951 -1.34528e-09 0.0011352)
(0.0533098 -1.39806e-09 0.00141625)
(0.0523303 -1.45598e-09 0.00170391)
(0.051152 -1.53413e-09 0.00199676)
(0.0497714 -1.62582e-09 0.00229309)
(0.0481862 -1.74282e-09 0.00259094)
(0.0463952 -1.90859e-09 0.00288804)
(0.0443988 -2.14332e-09 0.00318179)
(0.0421993 -2.46718e-09 0.00346921)
(0.0398008 -2.9054e-09 0.00374692)
(0.0372096 -3.44802e-09 0.00401107)
(0.0344349 -4.07835e-09 0.00425729)
(0.0314885 -4.74275e-09 0.00448058)
(0.0283857 -5.39425e-09 0.00467525)
(0.0251454 -6.01436e-09 0.00483477)
(0.0217909 -6.63162e-09 0.00495157)
(0.0183505 -7.27625e-09 0.00501689)
(0.0148578 -8.03062e-09 0.00502027)
(0.0113539 -8.85108e-09 0.00494973)
(0.0078855 -9.75617e-09 0.00478813)
(0.00450903 -1.07846e-08 0.00451755)
(0.00129004 -1.18421e-08 0.00412031)
(-0.00169825 -1.28192e-08 0.00357236)
(-0.0043568 -1.36127e-08 0.00284925)
(-0.00659056 -1.40155e-08 0.0019245)
(-0.00828467 -1.36832e-08 0.000777729)
(-0.00932009 -1.24384e-08 -0.000590273)
(-0.00956268 -1.00786e-08 -0.00212281)
(-0.00889192 -6.07653e-09 -0.0036586)
(-0.00721613 -1.89172e-09 -0.00479978)
(-0.00451944 -5.57899e-09 -0.00475391)
(-0.00109229 4.63602e-08 -0.00255123)