/*--------------------------------*- C++ -*----------------------------------*\
  =========                 |
  \\      /  F ield         | OpenFOAM: The Open Source CFD Toolbox
   \\    /   O peration     | Website:  https://openfoam.org
    \\  /    A nd           | Version:  8
     \\/     M anipulation  |
\*---------------------------------------------------------------------------*/
FoamFile
{
    version     2.0;
    format      ascii;
    class       volScalarField;
    location    "1000";
    object      alphat;
}
// * * * * * * * * * * * * * * * * * * * * * * * * * * * * * * * * * * * * * //

dimensions      [1 -1 -1 0 0 0 0];

internalField   nonuniform List<scalar> 
46000
(
5.87962e-08
2.83194e-07
6.02664e-07
9.51368e-07
1.32587e-06
1.71163e-06
2.09104e-06
2.45921e-06
2.8162e-06
3.15089e-06
3.46682e-06
3.76326e-06
4.03927e-06
4.29403e-06
4.52691e-06
4.73742e-06
4.92526e-06
5.0903e-06
5.23259e-06
5.35236e-06
5.44998e-06
5.52603e-06
5.5812e-06
5.61632e-06
5.63228e-06
5.63089e-06
5.61977e-06
5.59521e-06
5.55694e-06
5.50589e-06
5.44341e-06
5.37101e-06
5.29021e-06
5.20255e-06
5.10948e-06
5.01242e-06
4.91268e-06
4.81146e-06
4.70986e-06
4.60888e-06
4.50939e-06
4.41212e-06
4.31773e-06
4.22675e-06
4.13961e-06
4.05664e-06
3.97812e-06
3.9042e-06
3.83502e-06
3.77063e-06
3.71104e-06
3.65622e-06
3.60611e-06
3.56061e-06
3.51963e-06
3.48302e-06
3.45066e-06
3.4224e-06
3.39807e-06
3.37752e-06
3.36067e-06
3.3484e-06
3.33969e-06
3.33417e-06
3.3317e-06
3.33216e-06
3.33545e-06
3.34148e-06
3.35015e-06
3.3614e-06
3.37513e-06
3.39127e-06
3.40974e-06
3.43049e-06
3.45344e-06
3.47855e-06
3.50576e-06
3.53502e-06
3.56629e-06
3.59952e-06
3.63468e-06
3.67171e-06
3.71059e-06
3.75128e-06
3.79374e-06
3.83796e-06
3.88391e-06
3.93156e-06
3.98088e-06
4.03186e-06
4.08446e-06
4.13865e-06
4.19441e-06
4.25171e-06
4.31052e-06
4.3708e-06
4.43254e-06
4.49569e-06
4.56021e-06
4.62606e-06
4.6932e-06
4.76157e-06
4.83111e-06
4.90178e-06
4.97351e-06
5.04626e-06
5.11996e-06
5.19456e-06
5.26999e-06
5.3462e-06
5.42311e-06
5.50067e-06
5.57881e-06
5.65749e-06
5.73666e-06
5.81626e-06
5.89626e-06
5.97663e-06
6.05734e-06
6.13836e-06
6.21968e-06
6.30128e-06
6.38317e-06
6.46537e-06
6.54788e-06
6.63074e-06
6.71398e-06
6.79764e-06
6.88177e-06
6.96644e-06
7.05171e-06
7.13767e-06
7.22441e-06
7.31202e-06
7.4006e-06
7.49026e-06
7.58112e-06
7.67332e-06
7.767e-06
7.8623e-06
7.95936e-06
8.05834e-06
8.15938e-06
8.26264e-06
8.36829e-06
8.47648e-06
8.58733e-06
8.70095e-06
8.81744e-06
8.93687e-06
9.05927e-06
9.18465e-06
9.31294e-06
9.444e-06
9.57763e-06
9.71353e-06
9.85133e-06
9.99053e-06
1.01305e-05
1.02704e-05
1.04093e-05
1.05462e-05
1.06797e-05
1.08084e-05
1.09306e-05
1.10444e-05
1.11478e-05
1.12386e-05
1.13143e-05
1.13725e-05
1.14105e-05
1.14262e-05
1.14209e-05
1.13896e-05
1.13283e-05
1.12341e-05
1.11046e-05
1.0938e-05
1.07325e-05
1.04871e-05
1.0201e-05
9.87427e-06
9.50736e-06
9.10149e-06
8.65855e-06
8.18118e-06
7.6727e-06
7.13706e-06
6.57887e-06
6.0032e-06
5.41546e-06
4.82112e-06
4.22466e-06
3.62224e-06
3.02975e-06
2.44257e-06
1.84777e-06
1.26213e-06
6.56747e-07
1.42691e-07
5.87816e-08
2.83182e-07
6.02845e-07
9.51691e-07
1.32655e-06
1.71224e-06
2.09175e-06
2.46019e-06
2.81744e-06
3.15229e-06
3.46826e-06
3.76465e-06
4.04055e-06
4.29518e-06
4.5279e-06
4.73825e-06
4.92593e-06
5.09082e-06
5.23297e-06
5.3526e-06
5.45013e-06
5.52609e-06
5.5812e-06
5.61627e-06
5.63221e-06
5.63089e-06
5.61979e-06
5.59524e-06
5.55698e-06
5.50594e-06
5.44348e-06
5.37108e-06
5.29029e-06
5.20263e-06
5.10956e-06
5.01248e-06
4.91272e-06
4.81147e-06
4.70985e-06
4.60883e-06
4.5093e-06
4.41201e-06
4.3176e-06
4.22662e-06
4.13949e-06
4.05655e-06
3.97805e-06
3.90418e-06
3.83504e-06
3.7707e-06
3.71114e-06
3.65635e-06
3.60625e-06
3.56077e-06
3.51979e-06
3.48318e-06
3.45082e-06
3.42255e-06
3.39823e-06
3.37769e-06
3.36096e-06
3.34876e-06
3.34004e-06
3.33451e-06
3.33202e-06
3.33245e-06
3.33573e-06
3.34175e-06
3.35044e-06
3.36173e-06
3.37552e-06
3.39174e-06
3.4103e-06
3.43115e-06
3.4542e-06
3.4794e-06
3.50668e-06
3.53599e-06
3.56727e-06
3.60049e-06
3.63561e-06
3.67257e-06
3.71136e-06
3.75194e-06
3.7943e-06
3.8384e-06
3.88424e-06
3.9318e-06
3.98104e-06
4.03196e-06
4.08452e-06
4.1387e-06
4.19446e-06
4.25178e-06
4.31063e-06
4.37096e-06
4.43275e-06
4.49596e-06
4.56053e-06
4.62642e-06
4.69359e-06
4.76197e-06
4.83152e-06
4.90218e-06
4.97389e-06
5.04661e-06
5.12027e-06
5.19482e-06
5.27019e-06
5.34634e-06
5.4232e-06
5.50071e-06
5.57881e-06
5.65747e-06
5.73663e-06
5.81624e-06
5.89627e-06
5.97669e-06
6.05745e-06
6.13853e-06
6.21991e-06
6.30157e-06
6.38352e-06
6.46575e-06
6.54827e-06
6.63112e-06
6.71432e-06
6.79791e-06
6.88196e-06
6.96653e-06
7.05171e-06
7.13759e-06
7.22427e-06
7.31183e-06
7.40039e-06
7.49006e-06
7.58095e-06
7.6732e-06
7.76693e-06
7.86228e-06
7.95939e-06
8.05839e-06
8.15944e-06
8.26271e-06
8.36834e-06
8.47649e-06
8.5873e-06
8.70088e-06
8.81732e-06
8.93672e-06
9.05912e-06
9.1845e-06
9.3128e-06
9.44388e-06
9.57751e-06
9.71343e-06
9.85125e-06
9.99045e-06
1.01304e-05
1.02703e-05
1.04092e-05
1.05461e-05
1.06796e-05
1.08083e-05
1.09306e-05
1.10444e-05
1.11479e-05
1.12387e-05
1.13145e-05
1.13727e-05
1.14108e-05
1.14266e-05
1.14211e-05
1.13899e-05
1.13285e-05
1.12343e-05
1.11049e-05
1.09382e-05
1.07327e-05
1.04873e-05
1.02012e-05
9.87445e-06
9.50752e-06
9.10163e-06
8.65869e-06
8.18133e-06
7.67284e-06
7.13721e-06
6.57903e-06
6.00336e-06
5.41561e-06
4.82127e-06
4.2248e-06
3.62237e-06
3.02985e-06
2.44264e-06
1.84783e-06
1.26225e-06
6.56839e-07
1.4271e-07
2.66232e-07
9.96488e-06
2.09389e-05
2.92965e-05
3.60288e-05
4.15476e-05
4.63145e-05
5.05054e-05
5.42242e-05
5.75582e-05
6.05352e-05
6.31821e-05
6.55231e-05
6.75799e-05
6.9372e-05
7.09172e-05
7.22325e-05
7.33337e-05
7.42359e-05
7.49537e-05
7.55008e-05
7.58904e-05
7.61347e-05
7.62444e-05
7.62263e-05
7.6074e-05
7.57608e-05
7.53658e-05
7.49011e-05
7.43791e-05
7.38109e-05
7.32063e-05
7.25739e-05
7.19215e-05
7.12561e-05
7.05841e-05
6.9911e-05
6.92419e-05
6.85812e-05
6.79329e-05
6.73003e-05
6.66865e-05
6.60939e-05
6.55247e-05
6.49807e-05
6.44632e-05
6.39733e-05
6.3512e-05
6.30796e-05
6.26767e-05
6.23033e-05
6.19595e-05
6.16451e-05
6.13598e-05
6.11033e-05
6.0875e-05
6.06743e-05
6.05005e-05
6.03527e-05
6.02296e-05
6.01283e-05
6.00405e-05
5.99752e-05
5.9933e-05
5.99136e-05
5.99167e-05
5.99418e-05
5.99881e-05
6.00551e-05
6.0142e-05
6.02482e-05
6.03731e-05
6.0516e-05
6.06764e-05
6.08536e-05
6.1047e-05
6.12561e-05
6.14804e-05
6.17193e-05
6.19723e-05
6.22389e-05
6.25185e-05
6.28107e-05
6.3115e-05
6.34312e-05
6.37586e-05
6.4097e-05
6.4446e-05
6.48051e-05
6.51739e-05
6.55521e-05
6.59391e-05
6.63346e-05
6.67383e-05
6.71497e-05
6.75684e-05
6.7994e-05
6.8426e-05
6.8864e-05
6.93075e-05
6.97561e-05
7.02092e-05
7.06664e-05
7.11272e-05
7.15912e-05
7.20578e-05
7.25267e-05
7.29973e-05
7.34693e-05
7.39422e-05
7.44156e-05
7.48891e-05
7.53624e-05
7.58351e-05
7.63071e-05
7.67781e-05
7.72479e-05
7.77164e-05
7.81836e-05
7.86492e-05
7.91134e-05
7.95761e-05
8.00374e-05
8.04975e-05
8.09567e-05
8.1415e-05
8.18728e-05
8.23303e-05
8.27879e-05
8.32461e-05
8.37052e-05
8.41658e-05
8.46284e-05
8.50935e-05
8.55616e-05
8.60334e-05
8.65094e-05
8.69904e-05
8.74771e-05
8.79701e-05
8.84701e-05
8.89776e-05
8.94935e-05
9.00183e-05
9.05527e-05
9.10972e-05
9.16522e-05
9.2218e-05
9.27947e-05
9.33823e-05
9.39807e-05
9.45894e-05
9.52077e-05
9.58345e-05
9.64683e-05
9.71072e-05
9.77491e-05
9.83912e-05
9.90302e-05
9.96619e-05
0.000100282
0.000100885
0.000101466
0.000102017
0.000102532
0.000103002
0.00010342
0.000103775
0.000104058
0.000104259
0.000104367
0.000104371
0.000104242
0.000103962
0.000103528
0.000102931
0.000102163
0.000101214
0.000100077
9.87421e-05
9.72041e-05
9.54576e-05
9.34989e-05
9.13258e-05
8.89377e-05
8.63357e-05
8.35223e-05
8.05009e-05
7.72755e-05
7.38499e-05
7.02255e-05
6.63999e-05
6.23617e-05
5.80866e-05
5.34288e-05
4.80685e-05
4.12772e-05
3.12475e-05
1.59539e-05
5.95056e-07
2.66315e-07
9.96724e-06
2.09442e-05
2.93017e-05
3.60297e-05
4.15477e-05
4.63143e-05
5.0505e-05
5.42237e-05
5.75577e-05
6.05347e-05
6.31818e-05
6.5523e-05
6.758e-05
6.93722e-05
7.09175e-05
7.22327e-05
7.33337e-05
7.42357e-05
7.49533e-05
7.55002e-05
7.58897e-05
7.6134e-05
7.62438e-05
7.62258e-05
7.60736e-05
7.57605e-05
7.53656e-05
7.4901e-05
7.43791e-05
7.3811e-05
7.32065e-05
7.25741e-05
7.19217e-05
7.12563e-05
7.05842e-05
6.99109e-05
6.92415e-05
6.85805e-05
6.79319e-05
6.7299e-05
6.66849e-05
6.60922e-05
6.5523e-05
6.4979e-05
6.44618e-05
6.39724e-05
6.35114e-05
6.30796e-05
6.26771e-05
6.23042e-05
6.19607e-05
6.16465e-05
6.13613e-05
6.11049e-05
6.08766e-05
6.06759e-05
6.05021e-05
6.03543e-05
6.02311e-05
6.01289e-05
6.00403e-05
5.99749e-05
5.99326e-05
5.99133e-05
5.99165e-05
5.99415e-05
5.99879e-05
6.0055e-05
6.0142e-05
6.02485e-05
6.03737e-05
6.05169e-05
6.06775e-05
6.0855e-05
6.10486e-05
6.12579e-05
6.14823e-05
6.17212e-05
6.19741e-05
6.22405e-05
6.25198e-05
6.28118e-05
6.31159e-05
6.34318e-05
6.37591e-05
6.40973e-05
6.44461e-05
6.48052e-05
6.5174e-05
6.55521e-05
6.59392e-05
6.63348e-05
6.67385e-05
6.71499e-05
6.75686e-05
6.79942e-05
6.84263e-05
6.88642e-05
6.93077e-05
6.97563e-05
7.02093e-05
7.06665e-05
7.11273e-05
7.15912e-05
7.20579e-05
7.25268e-05
7.29975e-05
7.34695e-05
7.39424e-05
7.44158e-05
7.48892e-05
7.53623e-05
7.5835e-05
7.63069e-05
7.67779e-05
7.72477e-05
7.77163e-05
7.81834e-05
7.86491e-05
7.91134e-05
7.95762e-05
8.00377e-05
8.04981e-05
8.09573e-05
8.14157e-05
8.18735e-05
8.23309e-05
8.27884e-05
8.32464e-05
8.37054e-05
8.41658e-05
8.46282e-05
8.50932e-05
8.55612e-05
8.6033e-05
8.65091e-05
8.69902e-05
8.7477e-05
8.79701e-05
8.84702e-05
8.89778e-05
8.94937e-05
9.00185e-05
9.05529e-05
9.10973e-05
9.16522e-05
9.22178e-05
9.27943e-05
9.33818e-05
9.39802e-05
9.4589e-05
9.52073e-05
9.58341e-05
9.64679e-05
9.71069e-05
9.77489e-05
9.8391e-05
9.903e-05
9.96617e-05
0.000100282
0.000100885
0.000101465
0.000102017
0.000102531
0.000103002
0.000103419
0.000103775
0.000104058
0.000104259
0.000104368
0.000104372
0.000104243
0.000103963
0.000103529
0.000102932
0.000102164
0.000101215
0.000100078
9.87429e-05
9.72049e-05
9.54584e-05
9.34996e-05
9.13264e-05
8.89384e-05
8.63364e-05
8.35231e-05
8.05017e-05
7.72765e-05
7.38509e-05
7.02266e-05
6.64011e-05
6.2363e-05
5.80878e-05
5.34299e-05
4.80695e-05
4.1278e-05
3.12478e-05
1.59542e-05
5.95069e-07
5.42796e-07
2.05582e-05
4.60303e-05
6.54597e-05
8.06692e-05
9.31899e-05
0.000103851
0.00011309
0.000121156
0.00012822
0.000134393
0.000139758
0.000144388
0.000148346
0.000151689
0.00015447
0.00015674
0.000158546
0.000159933
0.000160942
0.000161613
0.000161983
0.000162085
0.000161946
0.00016159
0.000161025
0.000160246
0.000159331
0.00015831
0.00015721
0.000156053
0.000154857
0.000153639
0.000152412
0.000151187
0.000149975
0.000148782
0.000147618
0.000146486
0.000145393
0.000144342
0.000143336
0.000142378
0.000141469
0.00014061
0.000139803
0.000139046
0.000138341
0.000137687
0.000137083
0.000136529
0.000136022
0.000135563
0.000135149
0.00013478
0.000134454
0.00013417
0.000133926
0.00013372
0.000133549
0.00013341
0.000133297
0.000133215
0.000133165
0.000133148
0.000133165
0.000133214
0.000133295
0.000133407
0.00013355
0.000133724
0.000133926
0.000134158
0.000134417
0.000134703
0.000135016
0.000135355
0.000135718
0.000136106
0.000136518
0.000136952
0.000137409
0.000137888
0.000138387
0.000138907
0.000139447
0.000140005
0.000140582
0.000141177
0.000141789
0.000142417
0.00014306
0.000143719
0.000144391
0.000145077
0.000145776
0.000146486
0.000147206
0.000147937
0.000148677
0.000149425
0.000150181
0.000150942
0.000151709
0.000152481
0.000153257
0.000154035
0.000154816
0.000155598
0.000156381
0.000157164
0.000157946
0.000158727
0.000159507
0.000160285
0.00016106
0.000161833
0.000162604
0.000163372
0.000164137
0.0001649
0.000165661
0.00016642
0.000167177
0.000167933
0.000168688
0.000169444
0.0001702
0.000170957
0.000171716
0.000172477
0.000173243
0.000174014
0.00017479
0.000175573
0.000176364
0.000177164
0.000177974
0.000178795
0.000179629
0.000180477
0.000181339
0.000182217
0.000183113
0.000184026
0.000184958
0.000185909
0.00018688
0.00018787
0.00018888
0.000189909
0.000190955
0.000192018
0.000193094
0.000194182
0.000195277
0.000196376
0.000197473
0.000198561
0.000199635
0.000200685
0.000201704
0.00020268
0.000203602
0.000204459
0.000205237
0.000205921
0.000206496
0.000206947
0.000207255
0.000207404
0.000207374
0.000207122
0.000206632
0.000205889
0.000204878
0.000203585
0.000201994
0.00020009
0.000197861
0.000195292
0.000192371
0.000189088
0.000185433
0.000181394
0.000176962
0.000172125
0.000166869
0.000161178
0.000155025
0.00014837
0.000141149
0.00013325
0.000124464
0.000114369
0.000102156
8.62539e-05
6.37165e-05
3.06722e-05
1.25507e-06
5.43006e-07
2.05585e-05
4.60307e-05
6.54595e-05
8.06677e-05
9.31879e-05
0.000103849
0.000113088
0.000121154
0.000128218
0.000134391
0.000139756
0.000144387
0.000148344
0.000151688
0.000154469
0.000156739
0.000158545
0.000159932
0.000160941
0.000161613
0.000161983
0.000162084
0.000161946
0.000161589
0.000161025
0.000160246
0.000159331
0.00015831
0.00015721
0.000156053
0.000154858
0.00015364
0.000152413
0.000151188
0.000149975
0.000148783
0.000147618
0.000146487
0.000145393
0.000144342
0.000143336
0.000142378
0.000141469
0.00014061
0.000139802
0.000139046
0.000138341
0.000137687
0.000137083
0.000136529
0.000136022
0.000135563
0.00013515
0.000134781
0.000134455
0.00013417
0.000133926
0.00013372
0.00013355
0.00013341
0.000133296
0.000133214
0.000133164
0.000133148
0.000133164
0.000133213
0.000133294
0.000133407
0.00013355
0.000133723
0.000133926
0.000134158
0.000134417
0.000134704
0.000135016
0.000135355
0.000135719
0.000136107
0.000136518
0.000136953
0.00013741
0.000137888
0.000138387
0.000138907
0.000139447
0.000140005
0.000140582
0.000141177
0.000141788
0.000142416
0.00014306
0.000143719
0.000144391
0.000145077
0.000145775
0.000146485
0.000147206
0.000147937
0.000148677
0.000149425
0.00015018
0.000150942
0.000151709
0.000152481
0.000153257
0.000154035
0.000154816
0.000155598
0.000156381
0.000157164
0.000157946
0.000158727
0.000159507
0.000160284
0.00016106
0.000161833
0.000162604
0.000163372
0.000164137
0.0001649
0.000165661
0.00016642
0.000167177
0.000167933
0.000168689
0.000169444
0.0001702
0.000170957
0.000171716
0.000172478
0.000173243
0.000174014
0.00017479
0.000175573
0.000176363
0.000177163
0.000177973
0.000178795
0.000179629
0.000180477
0.000181339
0.000182217
0.000183113
0.000184026
0.000184958
0.000185909
0.00018688
0.00018787
0.00018888
0.000189909
0.000190955
0.000192018
0.000193094
0.000194182
0.000195277
0.000196376
0.000197472
0.000198561
0.000199635
0.000200685
0.000201703
0.000202679
0.000203602
0.000204459
0.000205236
0.00020592
0.000206496
0.000206947
0.000207255
0.000207404
0.000207374
0.000207123
0.000206633
0.000205889
0.000204879
0.000203585
0.000201994
0.000200091
0.000197861
0.000195292
0.000192372
0.000189089
0.000185434
0.000181395
0.000176962
0.000172126
0.00016687
0.000161179
0.000155026
0.000148371
0.000141151
0.000133251
0.000124465
0.00011437
0.000102157
8.62545e-05
6.37169e-05
3.06725e-05
1.25507e-06
8.12619e-07
2.78845e-05
6.38012e-05
9.22248e-05
0.000115042
0.00013403
0.000150218
0.000164208
0.000176374
0.000186967
0.000196166
0.000204109
0.000210911
0.000216672
0.000221485
0.000225434
0.000228602
0.000231066
0.000232897
0.000234166
0.000234936
0.000235269
0.000235218
0.000234833
0.000234152
0.000233209
0.000232024
0.00023066
0.000229166
0.000227576
0.000225921
0.000224228
0.000222516
0.000220806
0.000219113
0.000217449
0.000215826
0.000214252
0.000212734
0.000211278
0.000209888
0.000208568
0.000207319
0.000206143
0.00020504
0.000204011
0.000203054
0.000202169
0.000201353
0.000200605
0.000199922
0.000199303
0.000198745
0.000198245
0.000197801
0.000197411
0.000197071
0.00019678
0.000196535
0.000196332
0.000196167
0.000196037
0.000195945
0.000195889
0.000195872
0.000195893
0.000195951
0.000196047
0.00019618
0.00019635
0.000196556
0.000196797
0.000197073
0.000197384
0.000197729
0.000198107
0.000198518
0.00019896
0.000199434
0.000199939
0.000200474
0.000201039
0.000201632
0.000202253
0.000202902
0.000203577
0.000204278
0.000205004
0.000205754
0.000206527
0.000207323
0.000208141
0.000208978
0.000209835
0.000210711
0.000211603
0.000212512
0.000213436
0.000214373
0.000215322
0.000216283
0.000217254
0.000218233
0.00021922
0.000220213
0.000221212
0.000222214
0.000223219
0.000224226
0.000225235
0.000226243
0.000227251
0.000228257
0.000229262
0.000230264
0.000231264
0.000232262
0.000233256
0.000234248
0.000235237
0.000236223
0.000237207
0.00023819
0.000239171
0.000240152
0.000241134
0.000242116
0.000243101
0.000244088
0.00024508
0.000246077
0.000247081
0.000248092
0.000249114
0.000250145
0.00025119
0.000252248
0.000253322
0.000254413
0.000255523
0.000256653
0.000257804
0.00025898
0.00026018
0.000261405
0.000262658
0.000263938
0.000265246
0.000266583
0.000267946
0.000269337
0.000270752
0.00027219
0.000273647
0.000275121
0.000276604
0.000278093
0.000279579
0.000281055
0.00028251
0.000283935
0.000285316
0.000286641
0.000287895
0.000289061
0.000290122
0.00029106
0.000291854
0.000292484
0.000292926
0.000293159
0.000293156
0.000292878
0.0002923
0.000291401
0.000290161
0.000288558
0.000286571
0.00028418
0.000281365
0.000278104
0.000274378
0.000270164
0.000265441
0.000260184
0.000254366
0.000247952
0.000240905
0.000233171
0.000224682
0.000215337
0.000204989
0.000193399
0.000180171
0.000164623
0.000145566
0.000120965
8.7537e-05
4.17158e-05
1.9894e-06
8.128e-07
2.78842e-05
6.37996e-05
9.22219e-05
0.000115038
0.000134026
0.000150213
0.000164204
0.00017637
0.000186963
0.000196162
0.000204105
0.000210907
0.000216669
0.000221482
0.000225432
0.0002286
0.000231064
0.000232896
0.000234164
0.000234935
0.000235268
0.000235218
0.000234833
0.000234152
0.000233209
0.000232025
0.000230661
0.000229167
0.000227577
0.000225923
0.000224229
0.000222518
0.000220808
0.000219114
0.000217451
0.000215827
0.000214253
0.000212735
0.000211279
0.000209889
0.000208569
0.00020732
0.000206144
0.000205042
0.000204012
0.000203055
0.00020217
0.000201354
0.000200605
0.000199923
0.000199304
0.000198745
0.000198246
0.000197802
0.000197411
0.000197072
0.000196781
0.000196535
0.000196332
0.000196167
0.000196037
0.000195944
0.000195889
0.000195872
0.000195892
0.000195951
0.000196047
0.00019618
0.00019635
0.000196555
0.000196797
0.000197073
0.000197384
0.000197729
0.000198107
0.000198518
0.00019896
0.000199435
0.000199939
0.000200474
0.000201039
0.000201632
0.000202253
0.000202902
0.000203577
0.000204278
0.000205004
0.000205754
0.000206527
0.000207323
0.000208141
0.000208978
0.000209835
0.000210711
0.000211603
0.000212512
0.000213436
0.000214373
0.000215323
0.000216283
0.000217254
0.000218234
0.00021922
0.000220214
0.000221212
0.000222214
0.00022322
0.000224227
0.000225235
0.000226243
0.000227251
0.000228257
0.000229262
0.000230265
0.000231265
0.000232262
0.000233257
0.000234248
0.000235237
0.000236224
0.000237208
0.00023819
0.000239172
0.000240153
0.000241134
0.000242117
0.000243101
0.000244089
0.00024508
0.000246077
0.000247081
0.000248093
0.000249114
0.000250146
0.00025119
0.000252249
0.000253322
0.000254413
0.000255523
0.000256653
0.000257805
0.00025898
0.00026018
0.000261406
0.000262658
0.000263939
0.000265247
0.000266583
0.000267947
0.000269337
0.000270752
0.00027219
0.000273648
0.000275121
0.000276605
0.000278093
0.000279579
0.000281055
0.00028251
0.000283935
0.000285316
0.000286641
0.000287895
0.000289061
0.000290122
0.00029106
0.000291854
0.000292484
0.000292927
0.000293159
0.000293157
0.000292878
0.0002923
0.000291402
0.000290162
0.000288559
0.000286572
0.000284181
0.000281366
0.000278105
0.000274379
0.000270166
0.000265443
0.000260186
0.000254367
0.000247954
0.000240907
0.000233173
0.000224683
0.000215339
0.00020499
0.0001934
0.000180173
0.000164624
0.000145567
0.000120966
8.75376e-05
4.1716e-05
1.98939e-06
1.08614e-06
3.30969e-05
7.64179e-05
0.000112017
0.000141162
0.000165634
0.000186577
0.000204703
0.000220473
0.000234203
0.000246121
0.000256405
0.000265205
0.000272648
0.000278854
0.000283932
0.000287988
0.000291123
0.000293434
0.000295012
0.000295943
0.00029631
0.000296186
0.000295638
0.000294726
0.000293501
0.000292006
0.000290289
0.00028842
0.000286441
0.000284388
0.000282293
0.000280182
0.000278077
0.000275999
0.000273962
0.00027198
0.000270063
0.000268219
0.000266454
0.000264774
0.000263183
0.000261682
0.000260272
0.000258954
0.000257727
0.00025659
0.000255541
0.000254577
0.000253695
0.000252893
0.000252168
0.000251514
0.00025093
0.000250411
0.000249955
0.000249557
0.000249214
0.000248922
0.000248679
0.00024848
0.000248323
0.000248207
0.000248132
0.000248099
0.000248107
0.000248157
0.000248247
0.000248378
0.00024855
0.000248761
0.000249013
0.000249304
0.000249635
0.000250004
0.000250412
0.000250858
0.000251341
0.000251861
0.000252418
0.000253011
0.000253639
0.000254302
0.000254998
0.000255728
0.000256491
0.000257285
0.00025811
0.000258965
0.000259849
0.00026076
0.000261698
0.000262661
0.000263648
0.000264659
0.00026569
0.000266742
0.000267812
0.0002689
0.000270003
0.000271119
0.000272249
0.000273389
0.000274539
0.000275697
0.000276862
0.000278032
0.000279206
0.000280383
0.000281561
0.00028274
0.000283919
0.000285098
0.000286274
0.000287449
0.000288622
0.000289791
0.000290959
0.000292123
0.000293286
0.000294446
0.000295605
0.000296763
0.000297921
0.000299079
0.000300238
0.000301401
0.000302567
0.000303738
0.000304916
0.000306102
0.000307297
0.000308503
0.000309722
0.000310956
0.000312207
0.000313476
0.000314765
0.000316077
0.000317414
0.000318777
0.000320168
0.000321589
0.000323042
0.000324528
0.000326049
0.000327604
0.000329195
0.000330822
0.000332484
0.000334179
0.000335906
0.000337662
0.000339444
0.000341246
0.000343062
0.000344885
0.000346707
0.000348518
0.000350306
0.000352059
0.000353762
0.0003554
0.000356955
0.000358407
0.000359737
0.000360923
0.000361941
0.000362767
0.000363375
0.000363738
0.000363826
0.0003636
0.000363034
0.000362101
0.000360773
0.000359027
0.000356833
0.000354167
0.000351
0.000347304
0.000343047
0.000338197
0.000332718
0.000326568
0.000319699
0.000312053
0.000303561
0.000294133
0.000283653
0.00027196
0.000258822
0.000243892
0.000226621
0.000206125
0.000180964
0.000148829
0.00010627
5.03042e-05
2.76807e-06
1.08615e-06
3.30963e-05
7.64155e-05
0.000112013
0.000141157
0.000165629
0.000186571
0.000204697
0.000220467
0.000234197
0.000246115
0.0002564
0.0002652
0.000272644
0.00027885
0.000283929
0.000287986
0.000291121
0.000293432
0.00029501
0.000295943
0.00029631
0.000296186
0.000295639
0.000294727
0.000293502
0.000292008
0.000290291
0.000288422
0.000286443
0.00028439
0.000282295
0.000280184
0.00027808
0.000276002
0.000273965
0.000271983
0.000270065
0.000268221
0.000266457
0.000264777
0.000263185
0.000261684
0.000260274
0.000258956
0.000257729
0.000256592
0.000255542
0.000254578
0.000253697
0.000252895
0.000252169
0.000251515
0.000250931
0.000250412
0.000249956
0.000249557
0.000249214
0.000248923
0.00024868
0.000248481
0.000248323
0.000248207
0.000248132
0.000248099
0.000248107
0.000248157
0.000248247
0.000248378
0.00024855
0.000248761
0.000249013
0.000249304
0.000249635
0.000250004
0.000250412
0.000250858
0.000251341
0.000251861
0.000252418
0.000253011
0.000253639
0.000254302
0.000254999
0.000255729
0.000256491
0.000257285
0.00025811
0.000258965
0.000259849
0.00026076
0.000261698
0.000262662
0.000263649
0.000264659
0.000265691
0.000266743
0.000267813
0.0002689
0.000270003
0.00027112
0.00027225
0.00027339
0.00027454
0.000275698
0.000276863
0.000278033
0.000279207
0.000280383
0.000281562
0.000282741
0.00028392
0.000285098
0.000286275
0.00028745
0.000288622
0.000289792
0.00029096
0.000292124
0.000293287
0.000294447
0.000295606
0.000296764
0.000297922
0.00029908
0.00030024
0.000301402
0.000302568
0.000303739
0.000304917
0.000306103
0.000307298
0.000308504
0.000309723
0.000310957
0.000312208
0.000313477
0.000314766
0.000316078
0.000317415
0.000318778
0.000320169
0.00032159
0.000323043
0.000324529
0.000326049
0.000327605
0.000329196
0.000330823
0.000332484
0.00033418
0.000335907
0.000337663
0.000339445
0.000341246
0.000343062
0.000344886
0.000346708
0.000348519
0.000350307
0.00035206
0.000353763
0.000355401
0.000356955
0.000358408
0.000359738
0.000360924
0.000361942
0.000362768
0.000363376
0.000363738
0.000363827
0.000363601
0.000363035
0.000362102
0.000360775
0.000359028
0.000356835
0.000354169
0.000351002
0.000347305
0.000343049
0.000338199
0.000332721
0.00032657
0.000319701
0.000312056
0.000303563
0.000294135
0.000283655
0.000271962
0.000258825
0.000243894
0.000226623
0.000206127
0.000180966
0.00014883
0.000106271
5.03045e-05
2.76806e-06
1.36086e-06
3.71754e-05
8.60959e-05
0.000127412
0.00016174
0.000190782
0.000215734
0.000237383
0.000256252
0.000272704
0.000287005
0.000299365
0.000309955
0.000318925
0.000326415
0.000332551
0.000337459
0.000341257
0.000344061
0.000345979
0.000347119
0.000347578
0.000347448
0.000346813
0.00034575
0.000344323
0.000342593
0.000340612
0.000338456
0.000336174
0.000333807
0.000331393
0.000328962
0.00032654
0.00032415
0.000321808
0.00031953
0.000317327
0.000315208
0.000313181
0.000311252
0.000309424
0.000307699
0.00030608
0.000304566
0.000303156
0.000301849
0.000300643
0.000299535
0.00029852
0.000297597
0.000296759
0.000296004
0.000295327
0.000294724
0.000294189
0.00029372
0.000293312
0.000292961
0.000292663
0.000292415
0.000292213
0.000292057
0.000291945
0.000291878
0.000291855
0.000291875
0.00029194
0.000292048
0.0002922
0.000292395
0.000292633
0.000292915
0.000293239
0.000293607
0.000294017
0.00029447
0.000294965
0.000295502
0.00029608
0.000296699
0.000297358
0.000298058
0.000298796
0.000299574
0.000300389
0.00030124
0.000302128
0.00030305
0.000304006
0.000304995
0.000306015
0.000307064
0.000308143
0.000309248
0.000310378
0.000311532
0.000312708
0.000313904
0.000315119
0.00031635
0.000317597
0.000318857
0.000320128
0.000321409
0.000322699
0.000323995
0.000325297
0.000326602
0.000327911
0.000329221
0.000330531
0.000331842
0.000333151
0.00033446
0.000335766
0.000337071
0.000338374
0.000339674
0.000340973
0.000342271
0.000343568
0.000344866
0.000346164
0.000347464
0.000348767
0.000350074
0.000351387
0.000352707
0.000354036
0.000355375
0.000356726
0.000358092
0.000359474
0.000360874
0.000362295
0.000363739
0.000365207
0.000366703
0.000368229
0.000369787
0.000371379
0.000373006
0.000374672
0.000376378
0.000378125
0.000379913
0.000381745
0.000383619
0.000385535
0.000387491
0.000389485
0.000391515
0.000393575
0.000395661
0.000397766
0.000399881
0.000401997
0.000404103
0.000406186
0.000408233
0.000410226
0.00041215
0.000413983
0.000415705
0.000417294
0.000418726
0.000419975
0.000421014
0.000421815
0.000422349
0.00042258
0.000422473
0.000421999
0.000421126
0.000419824
0.000418062
0.000415808
0.000413028
0.000409689
0.000405752
0.000401176
0.000395914
0.000389916
0.000383121
0.000375459
0.000366848
0.000357185
0.000346346
0.000334167
0.00032043
0.000304832
0.000286931
0.000266059
0.000241184
0.00021069
0.000172087
0.000121857
5.75452e-05
3.53914e-06
1.36083e-06
3.71745e-05
8.60931e-05
0.000127407
0.000161735
0.000190775
0.000215727
0.000237376
0.000256245
0.000272697
0.000286999
0.000299359
0.000309949
0.000318921
0.000326411
0.000332548
0.000337457
0.000341255
0.000344059
0.000345978
0.000347118
0.000347578
0.000347448
0.000346814
0.000345751
0.000344325
0.000342595
0.000340615
0.000338459
0.000336177
0.00033381
0.000331396
0.000328965
0.000326543
0.000324153
0.000321811
0.000319533
0.00031733
0.000315211
0.000313185
0.000311255
0.000309427
0.000307703
0.000306083
0.000304569
0.000303159
0.000301852
0.000300646
0.000299537
0.000298523
0.000297599
0.000296761
0.000296006
0.000295329
0.000294725
0.000294191
0.000293722
0.000293314
0.000292963
0.000292665
0.000292416
0.000292214
0.000292057
0.000291946
0.000291879
0.000291855
0.000291876
0.000291941
0.000292049
0.0002922
0.000292395
0.000292634
0.000292915
0.00029324
0.000293608
0.000294018
0.000294471
0.000294966
0.000295502
0.00029608
0.0002967
0.000297359
0.000298059
0.000298797
0.000299574
0.000300389
0.000301241
0.000302129
0.000303051
0.000304007
0.000304996
0.000306016
0.000307065
0.000308144
0.000309249
0.000310379
0.000311533
0.000312709
0.000313905
0.00031512
0.000316352
0.000317598
0.000318858
0.000320129
0.000321411
0.0003227
0.000323997
0.000325298
0.000326604
0.000327912
0.000329222
0.000330533
0.000331843
0.000333153
0.000334461
0.000335768
0.000337072
0.000338375
0.000339676
0.000340975
0.000342273
0.00034357
0.000344867
0.000346165
0.000347465
0.000348768
0.000350076
0.000351388
0.000352708
0.000354037
0.000355376
0.000356728
0.000358094
0.000359476
0.000360876
0.000362297
0.00036374
0.000365209
0.000366705
0.000368231
0.000369788
0.00037138
0.000373008
0.000374674
0.000376379
0.000378126
0.000379915
0.000381746
0.00038362
0.000385536
0.000387492
0.000389487
0.000391516
0.000393577
0.000395662
0.000397767
0.000399882
0.000401998
0.000404104
0.000406187
0.000408234
0.000410228
0.000412151
0.000413984
0.000415706
0.000417296
0.000418727
0.000419976
0.000421015
0.000421816
0.00042235
0.000422581
0.000422475
0.000422
0.000421128
0.000419826
0.000418064
0.00041581
0.000413031
0.000409691
0.000405754
0.000401178
0.000395917
0.000389919
0.000383124
0.000375462
0.000366851
0.000357188
0.000346349
0.000334169
0.000320433
0.000304835
0.000286934
0.000266062
0.000241186
0.000210692
0.000172088
0.000121858
5.75454e-05
3.5391e-06
1.63555e-06
4.06927e-05
9.41051e-05
0.000140041
0.00017863
0.000211477
0.000239802
0.000264435
0.000285945
0.000304733
0.000321095
0.000335261
0.000347423
0.000357748
0.000366388
0.000373487
0.00037918
0.000383603
0.000386883
0.000389146
0.000390513
0.000391096
0.000391003
0.000390332
0.000389173
0.000387605
0.0003857
0.00038352
0.000381142
0.000378623
0.000376009
0.000373343
0.000370657
0.000367982
0.00036534
0.000362751
0.000360231
0.000357792
0.000355445
0.000353197
0.000351054
0.000349021
0.000347101
0.000345294
0.000343601
0.000342022
0.000340555
0.000339197
0.000337946
0.000336798
0.000335749
0.000334794
0.000333929
0.000333149
0.000332449
0.000331825
0.000331271
0.000330783
0.000330357
0.000329988
0.000329673
0.000329409
0.000329193
0.000329026
0.000328905