/*--------------------------------*- C++ -*----------------------------------*\
  =========                 |
  \\      /  F ield         | OpenFOAM: The Open Source CFD Toolbox
   \\    /   O peration     | Website:  https://openfoam.org
    \\  /    A nd           | Version:  8
     \\/     M anipulation  |
\*---------------------------------------------------------------------------*/
FoamFile
{
    version     2.0;
    format      ascii;
    class       volScalarField;
    location    "1000";
    object      epsilon;
}
// * * * * * * * * * * * * * * * * * * * * * * * * * * * * * * * * * * * * * //

dimensions      [0 2 -3 0 0 0 0];

internalField   nonuniform List<scalar> 
46000
(
1.0832
4.6968
9.9679
15.7082
21.8566
28.1762
34.3827
40.4013
46.2343
51.7018
56.8619
61.7031
66.211
70.3731
74.1792
77.6215
80.6953
83.3982
85.7312
87.6978
89.3044
90.5598
91.4753
92.0639
92.3403
92.3341
92.1678
91.7813
91.1704
90.3501
89.3424
88.1716
86.8629
85.4409
83.9298
82.3523
80.7298
79.082
77.4271
75.7812
74.1586
72.5717
71.0311
69.5456
68.1225
66.7674
65.4847
64.2773
63.1471
62.0952
61.1215
60.2257
59.4067
58.6632
57.9933
57.395
56.8662
56.4046
56.0075
55.6725
55.3981
55.1996
55.0587
54.9701
54.9312
54.9401
54.9954
55.0956
55.2392
55.4249
55.6515
55.9176
56.2222
56.5641
56.9421
57.3553
57.8029
58.2839
58.7977
59.3436
59.9208
60.5289
61.1672
61.8351
62.532
63.2573
64.0107
64.7917
65.5999
66.435
67.2967
68.1846
69.098
70.0366
70.9997
71.987
72.9977
74.0314
75.0874
76.1652
77.2638
78.3825
79.5205
80.6767
81.8502
83.0399
84.2448
85.4641
86.6968
87.9419
89.1985
90.4658
91.7426
93.0279
94.321
95.6211
96.9274
98.2395
99.5569
100.879
102.207
103.539
104.876
106.217
107.564
108.915
110.273
111.638
113.01
114.391
115.781
117.182
118.595
120.023
121.466
122.928
124.408
125.911
127.437
128.989
130.57
132.183
133.83
135.512
137.233
138.995
140.8
142.65
144.548
146.493
148.487
150.529
152.618
154.752
156.93
159.145
161.39
163.659
165.94
168.221
170.487
172.721
174.9
177
178.996
180.858
182.55
184.038
185.281
186.239
186.872
187.144
187.071
186.577
185.594
184.076
181.983
179.284
175.952
171.968
167.321
162.008
156.037
149.428
142.211
134.426
126.128
117.38
108.256
98.8369
89.2117
79.4683
69.6785
59.7804
50.0298
40.3576
30.549
20.8797
10.8765
2.62312
1.08301
4.69708
9.96847
15.7081
21.8557
28.175
34.3815
40.4006
46.2341
51.7021
56.8626
61.704
66.2117
70.3736
74.1794
77.6217
80.6957
83.3991
85.7328
87.7001
89.3071
90.5629
91.4786
92.0674
92.3438
92.337
92.1705
91.7839
91.1728
90.3522
89.344
88.1727
86.8635
85.4413
83.9301
82.3529
80.7309
79.0839
77.4298
75.7847
74.1627
72.5763
71.0359
69.5504
68.1269
66.7713
65.488
64.2799
63.1492
62.0967
61.1227
60.2269
59.408
58.6647
57.9951
57.3972
56.8686
56.407
56.0099
55.6746
55.3996
55.2009
55.0597
54.9709
54.9319
54.9409
54.9963
55.0965
55.2401
55.4256
55.6518
55.9175
56.2215
56.5627
56.9401
57.3529
57.8
58.2808
58.7946
59.3407
59.9184
60.527
61.1658
61.8342
62.5315
63.2573
64.0111
64.7924
65.6008
66.436
67.2977
68.1855
69.0988
70.0372
71.0003
71.9874
72.998
74.0316
75.0877
76.1655
77.2643
78.3831
79.5213
80.6776
81.851
83.0407
84.2456
85.4649
86.6976
87.9428
89.1996
90.4671
91.744
93.0294
94.3226
95.6227
96.9291
98.2412
99.5587
100.881
102.208
103.54
104.876
106.217
107.563
108.914
110.272
111.637
113.01
114.391
115.782
117.183
118.597
120.025
121.469
122.93
124.411
125.913
127.438
128.99
130.571
132.184
133.83
135.512
137.233
138.996
140.801
142.653
144.551
146.496
148.49
150.531
152.62
154.755
156.932
159.147
161.392
163.66
165.941
168.223
170.489
172.722
174.901
177.002
178.999
180.861
182.553
184.04
185.283
186.241
186.873
187.143
187.07
186.576
185.594
184.076
181.984
179.284
175.953
171.969
167.321
162.008
156.038
149.43
142.213
134.429
126.131
117.382
108.257
98.838
89.2127
79.4689
69.679
59.7812
50.0304
40.3585
30.55
20.8806
10.8775
2.62339
5.24405
4.40249
6.34179
8.64327
11.1016
13.6611
16.2312
18.7647
21.2562
23.6799
26.031
28.3013
30.4813
32.5609
34.5299
36.378
38.0953
39.6725
41.1011
42.3736
43.4838
44.4273
45.2012
45.8048
46.2406
46.5197
46.6715
46.6824
46.5524
46.2871
45.896
45.3909
44.785
44.0925
43.3277
42.505
41.638
40.74
39.8234
38.8993
37.978
37.0684
36.1784
35.3145
34.4823
33.6863
32.9297
32.2153
31.5447
30.919
30.3386
29.8036
29.3135
28.8677
28.465
28.1044
27.7845
27.5039
27.2612
27.0551
26.8851
26.7536
26.6557
26.5889
26.5512
26.5411
26.5576
26.5997
26.6662
26.7564
26.8694
27.0044
27.1607
27.3376
27.5345
27.7508
27.9859
28.2393
28.5105
28.7992
29.1049
29.4273
29.766
30.1206
30.4909
30.8767
31.2775
31.6933
32.1238
32.5688
33.0281
33.5016
33.9891
34.4902
35.0048
35.5328
36.0737
36.6275
37.1938
37.7723
38.3628
38.9648
39.578
40.202
40.8362
41.4803
42.1338
42.7963
43.4671
44.146
44.8323
45.5255
46.2252
46.9308
47.6419
48.358
49.0787
49.8036
50.5325
51.265
52.001
52.7403
53.4827
54.2283
54.9772
55.7293
56.485
57.2445
58.0081
58.7764
59.5497
60.3288
61.1143
61.907
62.7079
63.5179
64.3379
65.169
66.0124
66.8694
67.7414
68.6296
69.5354
70.4602
71.4053
72.3721
73.3619
74.3758
75.415
76.4802
77.5718
78.6901
79.8348
81.0053
82.2001
83.4171
84.6533
85.9046
87.1661
88.4316
89.6932
90.9418
92.1666
93.3552
94.4934
95.5653
96.553
97.4369
98.1964
98.8094
99.2541
99.5112
99.5731
99.4106
98.9917
98.2897
97.282
95.9494
94.2765
92.2519
89.8689
87.1258
84.0267
80.5818
76.807
72.7244
68.3621
63.753
58.9348
53.9488
48.8388
43.6488
38.4201
33.185
28.012
22.94
18.0689
13.6976
10.2089
11.7789
5.24321
4.40073
6.34033
8.64215
11.1011
13.6607
16.2305
18.7638
21.2552
23.679
26.0301
28.3006
30.4807
32.5605
34.5296
36.3779
38.0954
39.6728
41.1016
42.3743
43.4847
44.4283
45.2023
45.806
46.2418
46.5209
46.6726
46.6834
46.5534
46.288
45.8968
45.3916
44.7856
44.0931
43.3284
42.5057
41.6389
40.7411
39.8247
38.9009
37.9798
37.0704
36.1805
35.3166
34.4843
33.688
32.9312
32.2164
31.5455
30.9195
30.3389
29.8037
29.3136
28.8677
28.465
28.1045
27.7846
27.504
27.2613
27.0551
26.8853
26.7539
26.6561
26.5892
26.5515
26.5415
26.558
26.6001
26.6666
26.7567
26.8696
27.0044
27.1606
27.3373
27.534
27.7501
27.985
28.2383
28.5096
28.7983
29.1042
29.4267
29.7655
30.1204
30.4909
30.8768
31.2778
31.6937
32.1243
32.5694
33.0288
33.5023
33.9897
34.4908
35.0054
35.5332
36.0741
36.6278
37.1941
37.7726
38.363
38.9651
39.5783
40.2023
40.8366
41.4807
42.1343
42.7967
43.4677
44.1466
44.833
45.5263
46.226
46.9317
47.6427
48.3588
49.0795
49.8043
50.5332
51.2656
52.0015
52.7407
53.483
54.2285
54.9773
55.7294
56.4851
57.2447
58.0085
58.7769
59.5504
60.3296
61.1153
61.9081
62.7091
63.519
64.339
65.17
66.0133
66.8702
67.7421
68.6302
69.536
70.4607
71.4058
72.3727
73.3626
74.3768
75.4161
76.4813
77.5729
78.6912
79.8359
81.0064
82.2012
83.4182
84.6542
85.9056
87.1671
88.4325
89.6942
90.9427
92.1675
93.3562
94.4944
95.5663
96.5539
97.4378
98.1971
98.81
99.2546
99.5114
99.573
99.4104
98.9915
98.2896
97.2819
95.9494
94.2766
92.2521
89.8691
87.1261
84.0271
80.5822
76.8074
72.725
68.3626
63.7534
58.9351
53.9491
48.8389
43.6488
38.42
33.1849
28.012
22.94
18.0689
13.6977
10.2089
11.7792
10.4605
6.2312
7.0421
8.556
10.2881
12.1258
14.0133
15.9165
17.8164
19.6968
21.5466
23.3564
25.1172
26.82
28.4557
30.015
31.4887
32.8674
34.1421
35.3042
36.3458
37.2601
38.0416
38.6863
39.193
39.5641
39.8074
39.9226
39.9105
39.775
39.5226
39.1622
38.704
38.1594
37.5406
36.8599
36.1297
35.3621
34.5685
33.7599
32.946
32.1358
31.3373
30.5572
29.8014
29.0746
28.3808
27.7229
27.103
26.5227
25.9828
25.4837
25.0253
24.6073
24.2288
23.8889
23.5867
23.3209
23.0902
22.8936
22.7302
22.5997
22.5
22.4293
22.3859
22.3686
22.376
22.4072
22.4612
22.5371
22.634
22.7512
22.8879
23.0435
23.2173
23.4087
23.6173
23.8424
24.0836
24.3405
24.6126
24.8997
25.2013
25.5172
25.847
26.1905
26.5475
26.9176
27.3008
27.6968
28.1054
28.5264
28.9598
29.4052
29.8626
30.3316
30.8122
31.3042
31.8072
32.3211
32.8456
33.3804
33.9252
34.4797
35.0435
35.6163
36.1976
36.7871
37.3843
37.9889
38.6003
39.2182
39.842
40.4714
41.1059
41.7451
42.3887
43.0362
43.6874
44.342
44.9998
45.6605
46.3241
46.9904
47.6595
48.3314
49.0062
49.6841
50.3654
51.0504
51.7395
52.4332
53.132
53.8366
54.5477
55.266
55.9925
56.728
57.4734
58.23
58.9986
59.7806
60.5771
61.3892
62.2182
63.0652
63.9313
64.8175
65.7248
66.6538
67.6051
68.5789
69.575
70.5927
71.6311
72.6883
73.7619
74.8486
75.9442
77.0433
78.1395
79.2252
80.2911
81.3269
82.3204
83.2581
84.125
84.9048
85.5796
86.1311
86.5407
86.7908
86.8659
86.7435
86.4013
85.8184
84.9761
83.8587
82.4535
80.7511
78.7467
76.4393
73.8329
70.9366
67.764
64.3339
60.6692
56.7973
52.749
48.5586
44.2635
39.9048
35.5281
31.1877
26.9586
22.9398
19.2938
16.3427
15.1185
24.5339
10.4599
6.23078
7.04208
8.55625
10.2885
12.1264
14.0139
15.9172
17.8171
19.6974
21.5472
23.3571
25.1179
26.8207
28.4564
30.0158
31.4894
32.8681
34.1428
35.3049
36.3465
37.2608
38.0423
38.687
39.1936
39.5647
39.808
39.9231
39.911
39.7754
39.5231
39.1626
38.7044
38.1598
37.541
36.8603
36.1301
35.3625
34.569
33.7603
32.9465
32.1363
31.3378
30.5577
29.8019
29.0752
28.3814
27.7234
27.1035
26.5232
25.9832
25.4841
25.0257
24.6076
24.2291
23.8893
23.5871
23.3212
23.0906
22.894
22.7307
22.6002
22.5005
22.4298
22.3865
22.3691
22.3766
22.4078
22.4618
22.5376
22.6345
22.7517
22.8884
23.0439
23.2177
23.4091
23.6176
23.8427
24.0839
24.3408
24.613
24.9001
25.2017
25.5176
25.8475
26.191
26.5479
26.9181
27.3013
27.6973
28.1059
28.527
28.9603
29.4058
29.8631
30.3322
30.8128
31.3047
31.8077
32.3216
32.8461
33.3809
33.9257
34.4802
35.0441
35.6168
36.1981
36.7876
37.3848
37.9894
38.6008
39.2187
39.8425
40.4719
41.1064
41.7457
42.3892
43.0368
43.688
44.3426
45.0003
45.661
46.3245
46.9908
47.6599
48.3318
49.0066
49.6845
50.3659
51.0509
51.74
52.4336
53.1325
53.8371
54.5482
55.2666
55.993
56.7285
57.4739
58.2305
58.9991
59.7811
60.5776
61.3897
62.2186
63.0656
63.9318
64.818
65.7253
66.6544
67.6057
68.5794
69.5755
70.5933
71.6317
72.6889
73.7625
74.8492
75.9447
77.0439
78.1401
79.2257
80.2917
81.3274
82.321
83.2587
84.1257
84.9054
85.5802
86.1317
86.5413
86.7914
86.8664
86.744
86.4018
85.8188
84.9766
83.8591
82.4539
80.7516
78.7471
76.4396
73.8333
70.9369
67.7644
64.3342
60.6695
56.7976
52.7493
48.5588
44.2638
39.905
35.5283
31.1878
26.9587
22.9399
19.2938
16.3427
15.1184
24.534
15.4214
8.36149
8.46055
9.56626
10.9862
12.5553
14.2031
15.8892
17.5879
19.2805
20.9534
22.5958
24.1984
25.753
27.2518
28.687
30.051
31.3361
32.5345
33.6384
34.6407
35.5345
36.3138
36.9737
37.5113
37.9253
38.2171
38.3874
38.4371
38.369
38.1881
37.9013
37.5171
37.0452
36.4961
35.8811
35.2116
34.499
33.7544
32.9885
32.2111
31.4315
30.6578
29.8973
29.1563
28.4401
27.753
27.0987
26.4797
25.8981
25.3552
24.8517
24.3878
23.9635
23.5783
23.2315
22.9222
22.6494
22.4119
22.2087
22.0386
21.9009
21.7939
21.7163
21.6664
21.6431
21.6451
21.6713
21.7207
21.7924
21.8855
21.9992
22.1326
22.2852
22.4562
22.6449
22.8509
23.0736
23.3124
23.5669
23.8367
24.1214
24.4206
24.7339
25.0612
25.4019
25.756
26.1232
26.5031
26.8957
27.3008
27.718
28.1474
28.5885
29.0414
29.5058
29.9814
30.4681
30.9657
31.474
31.9926
32.5214
33.0599
33.608
34.1652
34.7313
35.3057
35.8883
36.4784
37.0758
37.68
38.2906
38.9071
39.5291
40.1562
40.788
41.4241
42.0642
42.7079
43.355
44.0052
44.6583
45.3142
45.9727
46.6339
47.2977
47.9642
48.6336
49.3062
49.9821
50.6617
51.3456
52.0341
52.728
53.4278
54.1342
54.8481
55.5703
56.3018
57.0434
57.7964
58.5617
59.3405
60.1339
60.9431
61.7691
62.613
63.4758
64.3583
65.2612
66.185
67.1299
68.0957
69.0818
70.0872
71.1101
72.1482
73.1983
74.2564
75.3173
76.3749
77.4218
78.4493
79.4475
80.4048
81.3085
82.1444
82.8969
83.5495
84.0848
84.4851
84.7332
84.8111
84.6994
84.3788
83.8315
83.041
81.9937
80.6784
79.0874
77.2167
75.0662
72.6397
69.9455
66.9959
63.8071
60.3991
56.7955
53.0233
49.1136
45.1017
41.0296
36.9489
32.9269
29.0562
25.4717
22.3953
20.2953
20.8402
38.6272
15.4213
8.36167
8.46094
9.5668
10.9869
12.5561
14.2038
15.89
17.5887
19.2814
20.9543
22.5966
24.1992
25.7538
27.2525
28.6877
30.0517
31.3368
32.5351
33.639
34.6413
35.535
36.3142
36.9741
37.5116
37.9256
38.2173
38.3877
38.4373
38.3692
38.1883
37.9015
37.5172
37.0453
36.4962
35.8812
35.2117
34.4991
33.7545
32.9886
32.2113
31.4316
30.6579
29.8974
29.1565
28.4403
27.7533
27.0989
26.48
25.8984
25.3554
24.8519
24.3881
23.9638
23.5786
23.2318
22.9225
22.6497
22.4122
22.209
22.039
21.9012
21.7943
21.7166
21.6668
21.6434
21.6454
21.6716
21.7211
21.7928
21.8859
21.9995
22.133
22.2856
22.4565
22.6453
22.8513
23.0739
23.3127
23.5673
23.8371
24.1217
24.4209
24.7343
25.0615
25.4023
25.7564
26.1235
26.5035
26.8961
27.3011
27.7184
28.1477
28.5889
29.0418
29.5061
29.9817
30.4685
30.9661
31.4743
31.993
32.5217
33.0603
33.6083
34.1656
34.7316
35.3061
35.8886
36.4787
37.0761
37.6803
38.2909
38.9074
39.5294
40.1565
40.7883
41.4244
42.0645
42.7082
43.3553
44.0055
44.6586
45.3145
45.973
46.6341
47.2979
47.9645
48.6339
49.3064
49.9823
50.662
51.3458
52.0344
52.7282
53.428
54.1344
54.8483
55.5705
56.302
57.0437
57.7966
58.562
59.3407
60.1342
60.9433
61.7693
62.6132
63.476
64.3585
65.2614
66.1853
67.1302
68.096
69.0821
70.0875
71.1104
72.1485
73.1986
74.2566
75.3176
76.3751
77.4221
78.4496
79.4478
80.4051
81.3088
82.1447
82.8972
83.5498
84.0851
84.4854
84.7335
84.8114
84.6996
84.3791
83.8317
83.0413
81.9939
80.6786
79.0876
77.2169
75.0663
72.6398
69.9456
66.9959
63.8071
60.3991
56.7954
53.0233
49.1135
45.1017
41.0296
36.9489
32.9268
29.0561
25.4717
22.3952
20.2952
20.8399
38.627
20.3638
10.6558
10.1541
10.9692
12.2019
13.6289
15.1579
16.7383
18.3377
19.9336
21.5096
23.0538
24.5569
26.0112
27.4105
28.7488
30.0207
31.2205
32.3425
33.3811
34.3303
35.1844
35.9382
36.5867
37.1263
37.5542
37.8692
38.071
38.1597
38.1372
38.0068
37.774
37.4455
37.0293
36.5346
35.9713
35.3498
34.6807
33.9745
33.2416
32.4918
31.7343
30.9774
30.2288
29.4953
28.7825
28.0954
27.4379
26.8133
26.2241
25.6719
25.1581
24.6831
24.2472
23.8502
23.4917
23.171
22.8872
22.6392
22.4261
22.2467
22.0999
21.9846
21.8992
21.8426
21.8133
21.8102
21.8323
21.8784
21.9476
22.0391
22.1518
22.285
22.438
22.6101
22.8005
23.0087
23.2341
23.4762
23.7344
24.0084
24.2976
24.6017
24.9203
25.253
25.5996
25.9598
26.3333
26.7199
27.1192
27.5312
27.9556
28.3921
28.8407
29.301
29.7729
30.2561
30.7506
31.2559
31.7719
32.2983
32.8349
33.3813
33.9373
34.5024
35.0764
35.6588
36.2493
36.8474
37.4528
38.065
38.6837
39.3082
39.9384
40.5736
41.2136
41.858
42.5063
43.1584
43.8138
44.4723
45.1338
45.7981
46.465
47.1345
47.8066
48.4814
49.1591
49.8397
50.5237
51.2113
51.9029
52.5991
53.3004
54.0074
54.7208
55.4415
56.1702
56.9078
57.6554
58.4139
59.1845
59.9681
60.766
61.5792
62.4088
63.2558
64.1213
65.006
65.9105
66.8355
67.7809
68.7466
69.732
70.7359
71.7567
72.792
73.8385
74.8923
75.9482
77.0001
78.0407
79.0615
80.0526
81.0028
81.8996
82.7292
83.4766
84.1257
84.6598
85.0618
85.3145
85.4
85.3007
84.9992
84.4796
83.7275
82.7306
81.4795
79.9677
78.1917
76.1517
73.8512
71.2973
68.5003
65.4737
62.234
58.8011
55.1982
51.4528
47.5989
43.6791
39.7497
35.888
32.204
28.8642
26.1556
24.7271
27.0151
53.5031
20.3639
10.6563
10.1547
10.9698
12.2027
13.6297
15.1587
16.7392
18.3386
19.9344
21.5105
23.0547
24.5576
26.0119
27.4112
28.7495
30.0213
31.221
32.343
33.3815
34.3307
35.1848
35.9384
36.5869
37.1264
37.5543
37.8693
38.0711
38.1597
38.1371
38.0068
37.774
37.4454
37.0292
36.5345
35.9712
35.3497
34.6806
33.9744
33.2415
32.4917
31.7342
30.9774
30.2288
29.4953
28.7825
28.0954
27.438
26.8134
26.2242
25.672
25.1582
24.6832
24.2473
23.8504
23.4919
23.1712
22.8873
22.6394
22.4263
22.2469
22.1001
21.9848
21.8995
21.8428
21.8135
21.8105
21.8325
21.8786
21.9479
22.0393
22.152
22.2853
22.4383
22.6103
22.8008
23.009
23.2344
23.4764
23.7347
24.0086
24.2978
24.6019
24.9205
25.2532
25.5999
25.9601
26.3335
26.7201
27.1195
27.5314
27.9558
28.3923
28.8409
29.3012
29.7731
30.2563
30.7507
31.2561
31.7721
32.2985
32.8351
33.3815
33.9375
34.5026
35.0766
35.659
36.2494
36.8476
37.453
38.0652
38.6838
39.3084
39.9385
40.5737
41.2137
41.8581
42.5064
43.1585
43.8139
44.4724
45.1339
45.7982
46.4651
47.1346
47.8067
48.4815
49.1591
49.8398
50.5238
51.2113
51.903
52.5992
53.3004
54.0074
54.7209
55.4415
56.1702
56.9079
57.6555
58.414
59.1845
59.9682
60.766
61.5792
62.4088
63.2559
64.1213
65.006
65.9106
66.8355
67.7809
68.7466
69.732
70.736
71.7568
72.792
73.8386
74.8923
75.9482
77.0002
78.0408
79.0616
80.0527
81.0029
81.8997
82.7293
83.4767
84.1258
84.6599
85.0619
85.3146
85.4001
85.3007
84.9993
84.4796
83.7275
82.7306
81.4795
79.9676
78.1916
76.1516
73.8511
71.2972
68.5001
65.4735
62.2338
58.8009
55.198
51.4526
47.5987
43.6789
39.7495
35.8878
32.2038
28.864
26.1554
24.7268
27.0147
53.5023
25.2707
13.0552
11.9942
12.5745
13.672
15.0046
16.4575
17.969
19.4999
21.0238
22.5223
23.9821
25.3942
26.7518
28.0503
29.286
30.4558
31.5566
32.5853
33.5385
34.4124
35.2031
35.9064
36.5182
37.0348
37.453
37.7703
37.9853
38.097
38.1061
38.0147
37.8265
37.5465
37.181
36.7376
36.2248
35.6517
35.0279
34.3631
33.6671
32.9494
32.2189
31.4842
30.753
30.0322
29.328
28.6457
27.9897
27.3637
26.7706
26.2126
25.6913
25.2078
24.7624
24.3555
23.9868
23.6558
23.3618
23.104
22.8814
22.6929
22.5375
22.4139
22.3211
22.2576
22.2223
22.214
22.2317
22.2742
22.3407
22.4301
22.5416
22.6743
22.8275
23.0004
23.1924
23.4027
23.6308
23.8761
24.1382
24.4164
24.7104
25.0197
25.3439
25.6827
26.0358
26.4028
26.7834
27.1773
27.5844
28.0043
28.4369
28.8818
29.339
29.8081
30.2889
30.7812
31.2848
31.7994
32.3248
32.8606
33.4066
33.9626
34.5281
35.1028
35.6863
36.2783
36.8784
37.4862
38.1013
38.7231
39.3514
39.9856
40.6255
41.2705
41.9202
42.5744
43.2326
43.8945
44.5599
45.2284
45.8999
46.5742
47.2512
47.9309
48.6132
49.2982
49.986
50.6769
51.371
52.0688
52.7706
53.4769
54.1882
54.9052
55.6286
56.3591
57.0975
57.8448
58.6019
59.3698
60.1495
60.9422
61.749
62.571
63.4092
64.2646
65.1382
66.0309
66.9431
67.8755
68.828
69.8005
70.7923
71.8022
72.8285
73.8688
74.9198
75.9775
77.0368
78.0915
79.1344
80.1571
81.1498
82.1014
82.9999
83.8316
84.5822
85.2362
85.7773
86.1891
86.4549
86.5578
86.4818
86.2112
85.7317
85.0308
84.0979
82.9247
81.5056
79.8378
77.9212
75.7586
73.355
70.7184
67.8587
64.7885
61.5229
58.0807
54.4857
50.7691
46.9734
43.1582
39.4085
35.8498
32.6787
30.2483
29.3897
33.2792
68.1691
25.2707
13.0557
11.9949
12.5752
13.6728
15.0054
16.4584
17.9698
19.5008
21.0247
22.5231
23.9829
25.3949
26.7525
28.051
29.2866
30.4563
31.557
32.5857
33.5388
34.4127
35.2033
35.9065
36.5183
37.0348
37.453
37.7703
37.9852
38.0968
38.1059
38.0145
37.8263
37.5462
37.1807
36.7373
36.2245
35.6514
35.0276
34.3629
33.6669
32.9492
32.2187
31.484
30.7528
30.0321
29.3279
28.6456
27.9896
27.3636
26.7706
26.2126
25.6913
25.2078
24.7624
24.3555
23.9868
23.6558
23.3618
23.104
22.8814
22.6929
22.5375
22.414
22.3212
22.2577
22.2224
22.2141
22.2318
22.2743
22.3408
22.4302
22.5417
22.6744
22.8276
23.0005
23.1925
23.4028
23.6309
23.8762
24.1383
24.4165
24.7105
25.0198
25.344
25.6828
26.0359
26.4029
26.7835
27.1774
27.5845
28.0044
28.437
28.8819
29.339
29.8081
30.2889
30.7813
31.2848
31.7994
32.3248
32.8606
33.4067
33.9626
34.5281
35.1028
35.6863
36.2784
36.8785
37.4862
38.1013
38.7231
39.3514
39.9856
40.6255
41.2705
41.9202
42.5744
43.2325
43.8945
44.5598
45.2283
45.8998
46.5741
47.2511
47.9308
48.6131
49.2981
49.9859
50.6768
51.3709
52.0687
52.7705
53.4768
54.1881
54.9051
55.6285
56.359
57.0974
57.8447
58.6017
59.3696
60.1494
60.9421
61.7489
62.5709
63.409
64.2645
65.1381
66.0307
66.943
67.8754
68.8279
69.8004
70.7922
71.8021
72.8284
73.8687
74.9197
75.9774
77.0367
78.0914
79.1344
80.157
81.1497
82.1014
82.9998
83.8316
84.5822
85.2361
85.7773
86.189
86.4548
86.5578
86.4817
86.211
85.7316
85.0306
84.0977
82.9244
81.5053
79.8375
77.921
75.7583
73.3547
70.7181
67.8584
64.7882
61.5226
58.0804
54.4853
50.7687
46.9731
43.1579
39.4082
35.8495
32.6784
30.248
29.3893
33.2788
68.1684
30.1414
15.4896
13.913
14.2906
15.2779
16.5357
17.927
19.3792
20.8471
22.3006
23.7194
25.0897
26.4027
27.653
28.8378
29.9557
31.0062
31.9892
32.9042
33.7507
34.5271
35.2317
35.8617
36.4143
36.8862
37.2742
37.5755
37.7875
37.9083
37.9374
37.8755
37.7246
37.488
37.1703
36.7773
36.316
35.794
35.2196
34.6017
33.9491
33.2708
32.5753
31.871
31.1656
30.4661
29.7788
29.1094
28.4627
27.8427
27.2526
26.6952
26.1724
25.6855
25.2356
24.8229
24.4476
24.1095
23.8081
23.5427
23.3124
23.1164
22.9535
22.8227
22.7229
22.6529
22.6117
22.5979
22.6107
22.649
22.7118
22.7981
22.9071
23.0379
23.1897
23.3618
23.5535
23.764
23.9929
24.2394
24.5031
24.7834
25.08
25.3922
25.7197
26.0622
26.4193
26.7906
27.1758
27.5747
27.9869
28.4122
28.8503
29.3011
29.7641
30.2393
30.7263
31.2249
31.7349
32.2559
32.7877
33.33
33.8826
34.445
35.0169
35.5981
36.188
36.7864
37.3929
38.0069
38.6282
39.2563
39.8908
40.5312
41.1772
41.8283
42.4843
43.1446
43.809
44.4771
45.1488
45.8236
46.5015
47.1822
47.8657
48.5519
49.2408
49.9325
50.6271
51.3247
52.0257
52.7303
53.439
54.1521
54.8704
55.5942
56.3245
57.0618
57.807
58.5611
59.3249
60.0994
60.8858
61.6851
62.4983
63.3266
64.171
65.0326
65.9122
66.8107
67.7286
68.6664
69.6242
70.6017
71.5983
72.6127
73.6431
74.6872
75.7417
76.8024
77.8644
78.9217
79.9669
80.9918
81.987
82.9416
83.8439
84.6809
85.4386
86.1024
86.6568
87.0863
87.3749
87.5076
87.4696
87.2471
86.8277
86.2004
85.3562
84.2881
82.9912
81.4629
79.7025
77.7113
75.4923
73.0501
70.3904
67.5211
64.4521
61.1968
57.7743
54.2125
50.5524
46.855
43.2115
39.7611
36.7289
34.5326
34.1813
39.5663
82.6554
30.1411
15.4901
13.9137
14.2914
15.2787
16.5365
17.9279
19.3801
20.8479
22.3015
23.7202
25.0905
26.4034
27.6537
28.8384
29.9562
31.0066
31.9895
32.9045
33.7509
34.5273
35.2318
35.8617
36.4142
36.8861
37.2741
37.5753
37.7872
37.908
37.9371
37.8752
37.7242
37.4876
37.1699
36.7769
36.3156
35.7936
35.2192
34.6013
33.9487
33.2704
32.575
31.8707
31.1653
30.4658
29.7785
29.1092
28.4625
27.8425
27.2525
26.6951
26.1722
25.6854
25.2354
24.8228
24.4475
24.1094
23.808
23.5426
23.3124
23.1163
22.9535
22.8227
22.7229
22.6529
22.6116
22.5979
22.6107
22.649
22.7118
22.7981
22.9071
23.0379
23.1897
23.3618
23.5535
23.764
23.9929
24.2394
24.5031
24.7834
25.0799
25.3922
25.7197
26.0622
26.4193
26.7906
27.1758
27.5746
27.9868
28.4121
28.8503
29.301
29.7641
30.2392
30.7262
31.2249
31.7348
32.2558
32.7876
33.33
33.8825
34.4449
35.0168
35.598
36.1879
36.7863
37.3928
38.0068
38.6281
39.2562
39.8906
40.5311
41.1771
41.8282
42.4841
43.1444
43.8088
44.477
45.1486
45.8234
46.5013
47.182
47.8655
48.5517
49.2406
49.9323
50.6269
51.3245
52.0255
52.7301
53.4387
54.1519
54.8701
55.594
56.3242
57.0615
57.8068
58.5608
59.3246
60.0992
60.8855
61.6848
62.498
63.3263
64.1707
65.0323
65.9119
66.8104
67.7283
68.6662
69.624
70.6015
71.598
72.6124
73.6429
74.687
75.7414
76.8022
77.8642
78.9214
79.9667
80.9916
81.9868
82.9414
83.8437
84.6807
85.4384
86.1022
86.6566
87.0861
87.3747
87.5073
87.4693
87.2468
86.8274
86.2001
85.3559
84.2878
82.9908
81.4625
79.7021
77.7109
75.4919
73.0496
70.39
67.5207
64.4516
61.1963
57.7739
54.2121
50.5519
46.8545
43.2111
39.7607
36.7285
34.5321
34.1808
39.5658
82.6555
35.0437
17.9311
15.8679
16.0607
16.9494
18.1388
19.4705
20.8615
22.2612
23.6366
24.9656
26.2344
27.4349
28.5632
29.6185
30.602
31.5159
32.3631
33.146
33.8668
34.5267
35.1258
35.6634
36.1379
36.5469
36.8875
37.1567
37.3513
37.4686
37.5069
37.4654
37.3446
37.1461
36.8727
36.5285
36.1187
35.6494
35.1277
34.561
33.9573
33.3248
32.6716
32.0054
31.3339
30.6639
30.002
29.3538
28.7244
28.1181
27.5386
26.9888
26.4709
25.9868
25.5377
25.1242
24.7468
24.4056
24.1001
23.83
23.5945
23.3929
23.2242
23.0874
22.9816
22.9056
22.8585
22.8391
22.8466
22.8797
22.9377
23.0196
23.1245
23.2516
23.4
23.569
23.758
23.9662
24.193
24.4379
24.7002
24.9794
25.2752
25.5869
25.9143
26.2568
26.6142
26.986
27.3719
27.7717
28.185
28.6115
29.051
29.5032
29.9679
30.4447
30.9334
31.4337
31.9453
32.468
33.0015
33.5454
34.0995
34.6633
35.2366
35.819
36.4102
37.0096
37.617
38.232
38.854
39.4828
40.1178
40.7588
41.4053
42.0569
42.7132
43.3739
44.0387
44.7073
45.3794
46.0547
46.7331
47.4145
48.0987
48.7856
49.4753
50.1679
50.8634
51.5621
52.2642
52.9699
53.6798
54.3942
55.1137
55.8389
56.5704
57.3091
58.0556
58.8109
59.576
60.3517
61.1392
61.9396
62.7538
63.5829
64.4282
65.2904
66.1706
67.0694
67.9876
68.9255
69.8831
70.8603
71.8562
72.8698
73.8993
74.9421
75.9952
77.0544
78.1149
79.1707
80.2149
81.2393
82.2348
83.1911
84.097
84.9401
85.7073
86.3848
86.9583
87.4132
87.7352
87.9108
87.9269
87.7718
87.4348
86.9066
86.1797
85.2481
84.1076
82.7554
81.1901
79.411
77.4184
75.213
72.7962
70.1701
67.3388
64.31
61.0971
57.7236
54.2278
50.671
47.1488
43.8123
40.9131
38.9307
39.0442
45.8192
96.5603
35.0432
17.9316
15.8687
16.0616
16.9503
18.1397
19.4714
20.8624
22.2621
23.6374
24.9664
26.2351
27.4356
28.5638
29.619
30.6024
31.5162
32.3633
33.1462
33.8669
34.5267
35.1258
35.6633
36.1378
36.5467
36.8872
37.1564
37.351
37.4682
37.5064
37.4649
37.3441
37.1456
36.8722
36.528
36.1182
35.6489
35.1272
34.5605
33.9568
33.3244
32.6711
32.005
31.3334
30.6635
30.0016
29.3534
28.7241
28.1178
27.5383
26.9885
26.4706
25.9866
25.5374
25.124
24.7466
24.4054
24.0999
23.8298
23.5944
23.3928
23.2241
23.0873
22.9815
22.9055
22.8584
22.839
22.8464
22.8796
22.9376
23.0195
23.1244
23.2514
23.3999
23.5689
23.7579
23.9661
24.1929
24.4377
24.7001
24.9793
25.2751
25.5868
25.9141
26.2567
26.614
26.9858
27.3718
27.7716
28.1848
28.6114
29.0509
29.5031
29.9677
30.4445
30.9332
31.4335
31.9451
32.4678
33.0013
33.5452
34.0993
34.6631
35.2364
35.8188
36.41
37.0094
37.6168
38.2317
38.8538
39.4825
40.1176
40.7585
41.405
42.0566
42.7129
43.3736
44.0384
44.707
45.3791
46.0544
46.7328
47.4142
48.0983
48.7853
49.475
50.1676
50.8631
51.5617
52.2638
52.9696
53.6794
54.3938
55.1133
55.8385
56.57
57.3087
58.0552
58.8105
59.5756
60.3513
61.1388
61.9392
62.7534
63.5826
64.4278
65.29
66.1702
67.069
67.9872
68.9251
69.8827
70.8599
71.8559
72.8695
73.8989
74.9417
75.9948
77.0541
78.1146
79.1704
80.2145
81.2389
82.2344
83.1908
84.0966
84.9397
85.7069
86.3844
86.9579
87.4129
87.7348
87.9104
87.9265
87.7714
87.4344
86.9061
86.1792
85.2476
84.1071
82.7549
81.1896
79.4105
77.4179
75.2125
72.7957
70.1696
67.3383
64.3095
61.0966
57.7231
54.2273
50.6704
47.1483
43.8118
40.9126
38.9301
39.0435
45.8186
96.5606
39.9944
20.3736
17.8311
17.8464
18.6397
19.7599
21.0279
22.3508
23.6729
24.9588
26.1856
27.3395
28.4136
29.4055
30.3168
31.1512
31.914
32.6107
33.2468
33.8272
34.3556
34.8345
35.2649
35.6467
35.9783
36.2575
36.4813
36.6462
36.7487
36.7859
36.756
36.6578
36.4912
36.2574
35.9587
35.5986
35.1817
34.7135
34.2003
33.6489
33.0665
32.4606
31.8384
31.2071
30.5734
29.9437
29.3238
28.7187
28.1331
27.5708
27.0349
26.5281
26.0525
25.6095
25.2001
24.825
24.4845
24.1784
23.9066
23.6685
23.4634
23.2906
23.1492
23.0383
22.9569
22.9042
22.879
22.8806
22.9079
22.96
23.036
23.1352
23.2565
23.3994
23.563
23.7466
23.9496
24.1714
24.4113
24.6689
24.9435
25.2348
25.5422
25.8654
26.2038
26.5572
26.9252
27.3074
27.7035
28.1132
28.5362
28.9722
29.4209
29.882
30.3553
30.8403
31.337
31.8449
32.3638
32.8933
33.4332
33.983
34.5425
35.1112
35.6889
36.2752
36.8696
37.4718
38.0814
38.6979
39.321
39.9503
40.5854
41.2259
41.8714
42.5216
43.1762
43.8348
44.4973
45.1632
45.8324
46.5048
47.1801
47.8583
48.5394
49.2233
49.9102
50.6001
51.2932
51.9898
52.6901
53.3947
54.1038
54.818
55.538
56.2643
56.9977
57.739
58.4891
59.2488
60.0192
60.8013
61.5961
62.4046
63.228
64.0673
64.9235
65.7975
66.6899
67.6015
68.5326
69.4832
70.4532
71.4417
72.4478
73.4695
74.5046
75.55
76.6017
77.6549
78.704
79.7423
80.7621
81.7546
82.7104
83.6186
84.468
85.2463
85.941
86.539
87.0271
87.3927
87.6243
87.7107
87.642
87.4095
87.0056
86.4243
85.6605
84.7105
83.5711
82.2396
80.7134
78.9896
77.0646
74.9348
72.5966
70.0477
67.2891
64.3283
61.1834
57.889
54.5052
51.1306
47.9264
45.1685
43.3943
43.944
52.0135
109.852
39.9939
20.3741
17.832
17.8473
18.6406
19.7609
21.0288
22.3516
23.6738
24.9596
26.1863
27.3402
28.4141
29.406
30.3172
31.1516
31.9142
32.6108
33.2469
33.8272
34.3556
34.8344
35.2647
35.6464
35.978
36.2572
36.4809
36.6458
36.7482
36.7854
36.7554
36.6572
36.4906
36.2568
35.9581
35.598
35.1811
34.7129
34.1997
33.6483
33.066
32.46
31.8378
31.2065
30.5729
29.9432
29.3233
28.7183
28.1327
27.5704
27.0345
26.5278
26.0521
25.6091
25.1998
24.8247
24.4842
24.1781
23.9063
23.6682
23.4632
23.2904
23.149
23.038
22.9567
22.9039
22.8788
22.8804
22.9077
22.9598
23.0358
23.1349
23.2563
23.3992
23.5628
23.7464
23.9494
24.1712
24.4111
24.6687
24.9433
25.2346
25.542
25.8651
26.2036
26.557
26.925
27.3072
27.7033
28.113
28.536
28.9719
29.4206
29.8817
30.355
30.8401
31.3367
31.8446
32.3635
32.893
33.4329
33.9827
34.5422
35.1109
35.6886
36.2749
36.8693
37.4715
38.081
38.6975
39.3206
39.9499
40.585
41.2255
41.871
42.5212
43.1758
43.8344
44.4969
45.1628
45.832
46.5043
47.1797
47.8579
48.5389
49.2229
49.9097
50.5996
51.2927
51.9893
52.6897
53.3942
54.1033
54.8175
55.5375
56.2638
56.9972
57.7385
58.4886
59.2483
60.0187
60.8008
61.5956
62.4041
63.2275
64.0668
64.923
65.7969
66.6894
67.601
68.5321
69.4827
70.4527
71.4412
72.4473
73.469
74.5041
75.5495
76.6012
77.6544
78.7035
79.7418
80.7616
81.7542
82.7099
83.6182
84.4675
85.2459
85.9405
86.5385
87.0266
87.3923
87.6238
87.7102
87.6415
87.4089
87.0051
86.4237
85.66
84.7099
83.5705
82.239
80.7129
78.989
77.0641
74.9343
72.596
70.0471
67.2886
64.3278
61.1828
57.8884
54.5046
51.13
47.9257
45.1678
43.3936
43.9432
52.0127
109.851
44.9093
22.7945
19.7792
19.6188
20.3154
21.3623
22.5597
23.8055
25.0396
26.2246
27.3372
28.3641
29.2995
30.1433
30.8992
31.5735
32.1744
32.7103
33.1896
33.6197
34.0067
34.3554
34.6685
34.9471
35.191
35.3983
35.5662
35.6912
35.7692
35.7963
35.7694
35.6859
35.5445
35.3444
35.0864
34.7724
34.4054
33.9894
33.5293
33.031
32.5005
31.9445
31.3696
30.7824
30.1895
29.597
29.0104
28.4351
27.8755
27.3357
26.819
26.3284
25.866
25.4336
25.0325
24.6636
24.3273
24.0238
23.753
23.5146
23.3081
23.1328
22.9879
22.8728
22.7866
22.7284
22.6974
22.6927
22.7133
22.7585
22.8273
22.919
23.0328
23.1679
23.3236
23.4993
23.6943
23.908
24.1398
24.3892
24.6556
24.9386
25.2378
25.5527
25.8829
26.228
26.5877
26.9616
27.3493
27.7506
28.1651
28.5925
29.0325
29.4849
29.9493
30.4253
30.9128
31.4114
31.9208
32.4406
32.9705
33.5102
34.0594
34.6176
35.1844
35.7597
36.3428
36.9335
37.5314
38.136
38.7471
39.3642
39.9869
40.6149
41.2478