/*--------------------------------*- C++ -*----------------------------------*\
  =========                 |
  \\      /  F ield         | OpenFOAM: The Open Source CFD Toolbox
   \\    /   O peration     | Website:  https://openfoam.org
    \\  /    A nd           | Version:  8
     \\/     M anipulation  |
\*---------------------------------------------------------------------------*/
FoamFile
{
    version     2.0;
    format      ascii;
    class       volScalarField;
    location    "1000";
    object      k;
}
// * * * * * * * * * * * * * * * * * * * * * * * * * * * * * * * * * * * * * //

dimensions      [0 2 -2 0 0 0 0];

internalField   nonuniform List<scalar> 
46000
(
0.000855706
0.00390692
0.00829329
0.0130675
0.0181818
0.0234396
0.028604
0.0336118
0.038465
0.043014
0.0473075
0.0513359
0.0550871
0.0585506
0.0617178
0.0645823
0.0671402
0.0693897
0.0713314
0.0729682
0.0743054
0.0753504
0.0761126
0.0766028
0.0768331
0.0768281
0.0766901
0.076369
0.0758611
0.075179
0.0743409
0.0733671
0.0722784
0.0710954
0.0698381
0.0685255
0.0671754
0.0658043
0.0644271
0.0630574
0.061707
0.0603862
0.0591039
0.0578673
0.0566826
0.0555543
0.054486
0.0534804
0.0525389
0.0516625
0.0508513
0.0501048
0.0494224
0.0488027
0.0482444
0.0477458
0.047305
0.04692
0.0465888
0.0463093
0.0460801
0.0459138
0.0457957
0.0457213
0.0456882
0.0456952
0.0457408
0.0458238
0.045943
0.0460973
0.0462855
0.0465067
0.0467599
0.047044
0.0473584
0.0477021
0.0480745
0.0484748
0.0489025
0.049357
0.0498377
0.050344
0.0508755
0.0514317
0.0520121
0.0526163
0.053244
0.0538948
0.0545684
0.0552644
0.0559826
0.0567225
0.0574838
0.0582661
0.0590689
0.0598918
0.0607343
0.061596
0.0624764
0.0633749
0.0642908
0.0652235
0.0661722
0.0671362
0.0681146
0.0691067
0.0701116
0.0711285
0.0721568
0.0731954
0.0742437
0.0753007
0.0763658
0.077438
0.0785168
0.0796014
0.0806914
0.0817862
0.0828856
0.0839892
0.0850968
0.0862083
0.0873238
0.0884432
0.0895668
0.0906951
0.0918284
0.0929674
0.0941127
0.0952652
0.0964258
0.0975956
0.0987758
0.0999678
0.101173
0.102393
0.103629
0.104883
0.106158
0.107454
0.108774
0.11012
0.111494
0.112899
0.114336
0.115807
0.117313
0.118858
0.120442
0.122065
0.123729
0.125434
0.127177
0.128959
0.130775
0.132623
0.134497
0.136389
0.138292
0.140195
0.142084
0.143946
0.145763
0.147514
0.149178
0.150728
0.152138
0.153376
0.154411
0.155208
0.155733
0.155956
0.155892
0.155477
0.154654
0.153385
0.151638
0.149385
0.146605
0.143281
0.139405
0.134975
0.129997
0.124488
0.118472
0.111984
0.105069
0.09778
0.090178
0.0823314
0.074313
0.0661964
0.0580415
0.0497961
0.0416749
0.0336179
0.0254473
0.0173932
0.00905941
0.00207477
0.000855525
0.00390695
0.00829477
0.0130697
0.0181861
0.0234433
0.0286084
0.0336181
0.0384734
0.0430237
0.0473176
0.0513457
0.0550961
0.0585586
0.0617246
0.0645881
0.067145
0.0693936
0.0713345
0.0729708
0.0743075
0.0753521
0.0761139
0.0766038
0.0768341
0.0768293
0.0766914
0.0763703
0.0758624
0.0751802
0.074342
0.073368
0.0722792
0.0710961
0.0698388
0.0685262
0.0671761
0.0658051
0.0644281
0.0630584
0.0617081
0.0603873
0.059105
0.0578684
0.0566836
0.0555552
0.054487
0.0534814
0.05254
0.0516636
0.0508525
0.0501062
0.0494239
0.0488044
0.0482463
0.0477478
0.047307
0.0469221
0.0465909
0.0463112
0.0460826
0.0459167
0.0457986
0.0457239
0.0456907
0.0456976
0.0457431
0.0458261
0.0459454
0.0460998
0.0462883
0.0465098
0.0467634
0.047048
0.0473628
0.0477069
0.0480796
0.0484802
0.048908
0.0493625
0.049843
0.0503491
0.0508802
0.0514358
0.0520157
0.0526193
0.0532464
0.0538967
0.0545698
0.0552655
0.0559835
0.0567233
0.0574845
0.0582669
0.0590699
0.059893
0.0607359
0.061598
0.0624787
0.0633775
0.0642937
0.0652266
0.0661754
0.0671393
0.0681176
0.0691094
0.070114
0.0711306
0.0721584
0.0731968
0.0742447
0.0753015
0.0763664
0.0774385
0.0785172
0.0796019
0.0806921
0.0817873
0.082887
0.083991
0.085099
0.0862107
0.0873262
0.0884456
0.0895691
0.0906972
0.0918303
0.092969
0.094114
0.0952661
0.0964262
0.0975957
0.0987757
0.0999675
0.101173
0.102393
0.103629
0.104883
0.106158
0.107454
0.108774
0.110121
0.111495
0.112899
0.114336
0.115807
0.117314
0.118858
0.120442
0.122066
0.12373
0.125434
0.127177
0.128959
0.130776
0.132624
0.134497
0.136389
0.138292
0.140195
0.142085
0.143946
0.145763
0.147515
0.149178
0.15073
0.15214
0.153378
0.154413
0.15521
0.155735
0.155958
0.155894
0.155479
0.154656
0.153387
0.15164
0.149387
0.146606
0.143283
0.139407
0.134976
0.129999
0.12449
0.118474
0.111986
0.105071
0.097782
0.0901798
0.0823329
0.0743144
0.0661977
0.0580428
0.0497973
0.0416759
0.0336188
0.0254481
0.0173944
0.00906045
0.00207502
0.00398673
0.0223172
0.0387735
0.0534845
0.0671649
0.0799603
0.09198
0.103241
0.113826
0.123755
0.133048
0.141715
0.149762
0.157192
0.164005
0.170203
0.175787
0.180759
0.185123
0.188886
0.192057
0.194647
0.19667
0.198142
0.199081
0.199505
0.199443
0.19897
0.198104
0.196875
0.195316
0.193465
0.191362
0.189046
0.186553
0.183922
0.181188
0.178384
0.175541
0.172688
0.169851
0.167053
0.164315
0.161654
0.159085
0.156621
0.154273
0.152047
0.149951
0.147988
0.146162
0.144473
0.142921
0.141505
0.140225
0.139076
0.138057
0.137164
0.136392
0.135739
0.1352
0.134771
0.134453
0.134238
0.134122
0.134101
0.134171
0.13433
0.134573
0.134898
0.135303
0.135783
0.136337
0.136962
0.137655
0.138414
0.139237
0.140122
0.141066
0.142069
0.143128
0.144242
0.145408
0.146625
0.147893
0.149209
0.150572
0.151982
0.153436
0.154934
0.156474
0.158056
0.159678
0.161339
0.163038
0.164774
0.166545
0.16835
0.170188
0.172057
0.173956
0.175883
0.177837
0.179816
0.181818
0.183842
0.185885
0.187947
0.190025
0.192117
0.194222
0.196339
0.198465
0.200599
0.20274
0.204887
0.207037
0.209191
0.211348
0.213506
0.215666
0.217827
0.219989
0.222152
0.224316
0.226483
0.228653
0.230826
0.233005
0.235189
0.237383
0.239586
0.241801
0.244031
0.246278
0.248544
0.250833
0.253147
0.255491
0.257866
0.260276
0.262725
0.265217
0.267754
0.270341
0.27298
0.275673
0.278425
0.281235
0.284107
0.287039
0.290033
0.293084
0.296192
0.29935
0.302551
0.305787
0.309045
0.312312
0.315569
0.318796
0.321969
0.325058
0.328034
0.330858
0.333491
0.335889
0.338004
0.339785
0.341177
0.342128
0.342585
0.342489
0.341762
0.340343
0.338172
0.335197
0.331368
0.326642
0.320984
0.314368
0.306777
0.298205
0.288659
0.278155
0.266724
0.254405
0.241249
0.227316
0.212668
0.197373
0.18149
0.165061
0.148094
0.130528
0.112066
0.0921858
0.0698506
0.0430987
0.00894287
0.00398703
0.0223154
0.038774
0.0534858
0.0671642
0.0799591
0.091978
0.103238
0.113822
0.123752
0.133045
0.141713
0.149761
0.157191
0.164005
0.170203
0.175787
0.180759
0.185124
0.188887
0.192058
0.194649
0.196672
0.198144
0.199083
0.199507
0.199445
0.198972
0.198106
0.196876
0.195318
0.193467
0.191364
0.189047
0.186555
0.183924
0.18119
0.178386
0.175543
0.17269
0.169854
0.167056
0.164317
0.161656
0.159087
0.156623
0.154275
0.152049
0.149953
0.14799
0.146164
0.144474
0.142922
0.141507
0.140226
0.139078
0.138059
0.137166
0.136394
0.135741
0.135201
0.134772
0.134453
0.134238
0.134122
0.134101
0.134172
0.13433
0.134574
0.134899
0.135303
0.135784
0.136337
0.136962
0.137655
0.138414
0.139237
0.140122
0.141066
0.142069
0.143128
0.144242
0.145408
0.146626
0.147893
0.14921
0.150573
0.151983
0.153437
0.154935
0.156476
0.158058
0.15968
0.161341
0.16304
0.164775
0.166546
0.168351
0.170189
0.172058
0.173957
0.175884
0.177838
0.179817
0.181819
0.183843
0.185886
0.187948
0.190026
0.192119
0.194224
0.196341
0.198467
0.200601
0.202742
0.204888
0.207039
0.209193
0.211349
0.213507
0.215667
0.217828
0.21999
0.222153
0.224318
0.226484
0.228654
0.230827
0.233006
0.235191
0.237384
0.239587
0.241803
0.244033
0.24628
0.248546
0.250835
0.253149
0.255492
0.257867
0.260278
0.262727
0.265218
0.267756
0.270342
0.272981
0.275675
0.278426
0.281237
0.284108
0.287041
0.290034
0.293086
0.296193
0.299351
0.302552
0.305788
0.309046
0.312313
0.31557
0.318797
0.32197
0.32506
0.328035
0.330859
0.333492
0.33589
0.338005
0.339786
0.341179
0.342129
0.342586
0.34249
0.341763
0.340344
0.338174
0.335199
0.331369
0.326644
0.320986
0.314369
0.306778
0.298207
0.28866
0.278157
0.266726
0.254407
0.241251
0.227318
0.21267
0.197375
0.181491
0.165063
0.148096
0.130529
0.112067
0.0921869
0.0698511
0.0430992
0.00894309
0.0080114
0.0380092
0.0603989
0.0793279
0.0965071
0.112558
0.127691
0.141973
0.155442
0.168112
0.179993
0.191091
0.201411
0.210957
0.21973
0.227735
0.234976
0.241457
0.247184
0.252167
0.256415
0.259941
0.262762
0.264895
0.266361
0.267183
0.267387
0.267042
0.266179
0.264836
0.263056
0.260883
0.258364
0.255546
0.252477
0.249203
0.245769
0.242218
0.238592
0.234928
0.231262
0.227625
0.224047
0.220551
0.217161
0.213896
0.21077
0.207796
0.204984
0.202343
0.199876
0.197588
0.195479
0.193549
0.191798
0.190223
0.18882
0.187585
0.186515
0.185604
0.184847
0.184239
0.183778
0.183456
0.183269
0.183211
0.183276
0.183461
0.18376
0.18417
0.184687
0.185305
0.186022
0.186835
0.187738
0.18873
0.189807
0.190967
0.192205
0.19352
0.194909
0.19637
0.1979
0.199498
0.20116
0.202886
0.204673
0.20652
0.208425
0.210386
0.212401
0.21447
0.21659
0.218759
0.220977
0.223242
0.225551
0.227903
0.230296
0.232729
0.235199
0.237705
0.240244
0.242814
0.245413
0.248038
0.250688
0.253361
0.256053
0.258763
0.261489
0.264228
0.266979
0.269739
0.272507
0.275281
0.278059
0.280841
0.283625
0.286411
0.289197
0.291983
0.29477
0.297557
0.300344
0.303133
0.305924
0.308719
0.311519
0.314325
0.31714
0.319967
0.322807
0.325664
0.32854
0.33144
0.334366
0.337322
0.340313
0.343343
0.346415
0.349534
0.352704
0.35593
0.359216
0.362565
0.365982
0.369468
0.373027
0.37666
0.380367
0.384148
0.388
0.391919
0.395898
0.399928
0.403999
0.408096
0.412201
0.416291
0.420342
0.424322
0.428198
0.43193
0.435474
0.438781
0.441797
0.444464
0.446719
0.448498
0.449734
0.450363
0.450299
0.449467
0.447793
0.445208
0.441645
0.437046
0.431358
0.424538
0.41655
0.407371
0.39699
0.385404
0.372625
0.358675
0.343586
0.327399
0.310162
0.291925
0.272739
0.25265
0.231687
0.209849
0.187068
0.163122
0.137486
0.108769
0.0725905
0.018705
0.00801273
0.0380082
0.060399
0.079329
0.0965083
0.11256
0.127692
0.141974
0.155443
0.168113
0.179994
0.191093
0.201413
0.210958
0.219732
0.227737
0.234978
0.241458
0.247186
0.252168
0.256416
0.259943
0.262764
0.264896
0.266362
0.267185
0.267389
0.267044
0.266181
0.264838
0.263058
0.260885
0.258366
0.255548
0.252478
0.249204
0.24577
0.24222
0.238594
0.23493
0.231264
0.227627
0.224048
0.220553
0.217163
0.213898
0.210771
0.207798
0.204986
0.202345
0.199878
0.197589
0.19548
0.193551
0.1918
0.190224
0.188822
0.187587
0.186517
0.185606
0.184849
0.184241
0.183779
0.183458
0.183271
0.183212
0.183278
0.183463
0.183762
0.184172
0.184688
0.185307
0.186024
0.186837
0.18774
0.188732
0.189809
0.190968
0.192207
0.193522
0.194911
0.196372
0.197902
0.199499
0.201162
0.202888
0.204675
0.206522
0.208426
0.210387
0.212403
0.214471
0.216591
0.218761
0.220979
0.223243
0.225552
0.227905
0.230298
0.232731
0.235201
0.237707
0.240245
0.242815
0.245414
0.24804
0.25069
0.253362
0.256055
0.258765
0.261491
0.26423
0.266981
0.269741
0.272509
0.275283
0.278061
0.280843
0.283627
0.286412
0.289198
0.291985
0.294771
0.297558
0.300346
0.303135
0.305926
0.308721
0.31152
0.314327
0.317142
0.319968
0.322808
0.325665
0.328542
0.331441
0.334367
0.337324
0.340315
0.343344
0.346416
0.349535
0.352706
0.355932
0.359217
0.362567
0.365983
0.36947
0.373029
0.376661
0.380369
0.384149
0.388001
0.39192
0.395899
0.39993
0.404001
0.408098
0.412202
0.416292
0.420343
0.424324
0.4282
0.431932
0.435476
0.438783
0.441798
0.444465
0.44672
0.448499
0.449736
0.450365
0.450301
0.449469
0.447795
0.445209
0.441647
0.437048
0.43136
0.424539
0.416552
0.407373
0.396991
0.385406
0.372627
0.358677
0.343588
0.327401
0.310164
0.291927
0.272741
0.252651
0.231688
0.20985
0.187069
0.163123
0.137487
0.10877
0.0725905
0.0187051
0.0118711
0.0511598
0.0777861
0.0993893
0.118907
0.137159
0.1544
0.170709
0.186109
0.200603
0.214192
0.226876
0.238659
0.249545
0.259543
0.268662
0.276913
0.284307
0.290858
0.296579
0.301486
0.305595
0.308926
0.311498
0.313335
0.314461
0.314904
0.314716
0.313938
0.31261
0.310777
0.308485
0.305783
0.302723
0.299354
0.295729
0.291896
0.287905
0.283802
0.279632
0.275435
0.27125
0.267112
0.263051
0.259096
0.255269
0.251592
0.248081
0.24475
0.24161
0.238668
0.23593
0.233399
0.231077
0.228962
0.227054
0.225349
0.223843
0.222532
0.22141
0.220472
0.219712
0.219126
0.218707
0.218448
0.218344
0.218389
0.218576
0.218901
0.219359
0.219943
0.220651
0.221476
0.222414
0.223462
0.224615
0.225869
0.227221
0.228667
0.230204
0.231829
0.233539
0.23533
0.237201
0.239149
0.24117
0.243264
0.245428
0.24766
0.249957
0.252318
0.25474
0.257222
0.259762
0.262358
0.265008
0.267709
0.27046
0.273258
0.276101
0.278988
0.281915
0.28488
0.287881
0.290914
0.293979
0.297071
0.300189
0.303329
0.30649
0.309668
0.312862
0.316068
0.319285
0.322511
0.325744
0.328981
0.332223
0.335466
0.338711
0.341956
0.345202
0.348447
0.351693
0.354939
0.358186
0.361435
0.364688
0.367946
0.371212
0.374487
0.377774
0.381077
0.384398
0.387741
0.391109
0.394508
0.397941
0.401412
0.404927
0.408491
0.412107
0.415782
0.419519
0.423325
0.427202
0.431156
0.435189
0.439304
0.443503
0.447786
0.452152
0.456598
0.461119
0.465708
0.470355
0.475046
0.479765
0.484491
0.4892
0.493861
0.498442
0.502902
0.507198
0.511279
0.51509
0.518571
0.521658
0.52428
0.526366
0.52784
0.528628
0.528638
0.527791
0.526007
0.523211
0.519333
0.514307
0.508077
0.500593
0.491817
0.481719
0.470281
0.457495
0.443363
0.427895
0.411111
0.393036
0.373699
0.353134
0.331374
0.30845
0.284384
0.259178
0.232776
0.204981
0.175237
0.141924
0.0992838
0.0295157
0.0118724
0.0511601
0.0777869
0.0993905
0.118908
0.13716
0.154401
0.170711
0.186111
0.200605
0.214194
0.226878
0.238661
0.249547
0.259545
0.268664
0.276915
0.284309
0.29086
0.296581
0.301487
0.305597
0.308927
0.3115
0.313337
0.314463
0.314906
0.314717
0.313939
0.312611
0.310778
0.308486
0.305785
0.302724
0.299356
0.29573
0.291897
0.287906
0.283804
0.279633
0.275437
0.271252
0.267114
0.263053
0.259097
0.255271
0.251594
0.248083
0.244752
0.241611
0.238669
0.235931
0.233401
0.231078
0.228964
0.227056
0.225351
0.223845
0.222534
0.221412
0.220474
0.219714
0.219128
0.218709
0.21845
0.218346
0.218391
0.218578
0.218903
0.21936
0.219945
0.220652
0.221477
0.222416
0.223464
0.224617
0.225871
0.227223
0.228669
0.230206
0.231831
0.23354
0.235332
0.237203
0.23915
0.241172
0.243266
0.24543
0.247661
0.249958
0.252319
0.254742
0.257224
0.259764
0.26236
0.265009
0.26771
0.270461
0.273259
0.276103
0.278989
0.281916
0.284881
0.287882
0.290916
0.29398
0.297073
0.30019
0.303331
0.306491
0.30967
0.312863
0.31607
0.319287
0.322513
0.325745
0.328983
0.332224
0.335468
0.338712
0.341958
0.345203
0.348449
0.351694
0.35494
0.358187
0.361437
0.36469
0.367948
0.371213
0.374488
0.377776
0.381078
0.384399
0.387742
0.391111
0.394509
0.397942
0.401414
0.404929
0.408492
0.412108
0.415783
0.419521
0.423326
0.427204
0.431157
0.43519
0.439305
0.443504
0.447787
0.452153
0.456599
0.46112
0.465709
0.470356
0.475047
0.479766
0.484492
0.489201
0.493862
0.498443
0.502903
0.507199
0.51128
0.515091
0.518573
0.521659
0.524281
0.526367
0.527841
0.528629
0.52864
0.527792
0.526009
0.523213
0.519334
0.514309
0.508078
0.500594
0.491818
0.481721
0.470283
0.457497
0.443364
0.427897
0.411112
0.393037
0.3737
0.353135
0.331375
0.308451
0.284385
0.259179
0.232777
0.204982
0.175238
0.141924
0.0992834
0.0295155
0.0157392
0.0628101
0.0931214
0.117138
0.138648
0.158688
0.177585
0.195441
0.212276
0.22809
0.242877
0.256637
0.269375
0.281103
0.291837
0.301597
0.310405
0.318284
0.325259
0.331352
0.336589
0.340994
0.344589
0.347399
0.34945
0.350767
0.351379
0.35132
0.350639
0.349374
0.347569
0.345268
0.342519
0.339371
0.335876
0.332085
0.328049
0.323819
0.319445
0.314973
0.310449
0.305914
0.301408
0.296966
0.292621
0.288399
0.284326
0.280422
0.276705
0.273188
0.269882
0.266795
0.263933
0.261297
0.25889
0.25671
0.254755
0.253022
0.251506
0.250201
0.249103
0.248205
0.247502
0.246988
0.246654
0.246496
0.246505
0.246677
0.247005
0.247483
0.248105
0.248867
0.249762
0.250786
0.251933
0.2532
0.254581
0.256073
0.257672
0.259373
0.261173
0.263069
0.265057
0.267135
0.269299
0.271547
0.273875
0.276282
0.278764
0.28132
0.283947
0.286642
0.289404
0.29223
0.295118
0.298066
0.30107
0.30413
0.307241
0.310403
0.313612
0.316865
0.32016
0.323494
0.326864
0.330268
0.333702
0.337164
0.340651
0.344159
0.347687
0.351232
0.354791
0.358361
0.361941
0.365528
0.369121
0.372718
0.376317
0.379919
0.38352
0.387122
0.390724
0.394327
0.397929
0.401534
0.405141
0.408751
0.412368
0.415993
0.419628
0.423277
0.426942
0.430628
0.434337
0.438075
0.441846
0.445654
0.449505
0.453403
0.457354
0.461364
0.465437
0.469579
0.473796
0.478092
0.482471
0.486937
0.491493
0.49614
0.500879
0.505709
0.510626
0.515625
0.520698
0.525833
0.531016
0.536229
0.541448
0.546648
0.551796
0.556854
0.561781
0.566528
0.571042
0.575264
0.579129
0.582567
0.585506
0.587867
0.589571
0.590537
0.590673
0.589896
0.588127
0.585286
0.581303
0.576109
0.569647
0.561865
0.552719
0.542175
0.530208
0.5168
0.501941
0.485625
0.467853
0.448628
0.427957
0.405847
0.382311
0.357361
0.331006
0.303242
0.274014
0.24311
0.2099
0.172472
0.124035
0.0409448
0.0157394
0.0628107
0.0931225
0.117139
0.13865
0.15869
0.177587
0.195443
0.212278
0.228092
0.242879
0.256639
0.269377
0.281105
0.291839
0.301599
0.310407
0.318286
0.32526
0.331354
0.336591
0.340995
0.34459
0.347401
0.349451
0.350768
0.35138
0.351321
0.35064
0.349375
0.34757
0.345269
0.34252
0.339372
0.335877
0.332086
0.32805
0.323821
0.319446
0.314974
0.31045
0.305915
0.301409
0.296968
0.292622
0.2884
0.284327
0.280423
0.276706
0.273189
0.269883
0.266796
0.263934
0.261298
0.258891
0.256711
0.254756
0.253023
0.251507
0.250203
0.249105
0.248207
0.247504
0.246989
0.246656
0.246497
0.246507
0.246678
0.247006
0.247484
0.248107
0.248868
0.249763
0.250787
0.251934
0.253201
0.254583
0.256075
0.257673
0.259374
0.261175
0.26307
0.265059
0.267136
0.2693
0.271548
0.273876
0.276283
0.278765
0.281321
0.283948
0.286643
0.289405
0.292231
0.295119
0.298067
0.301072
0.304131
0.307243
0.310404
0.313613
0.316866
0.320161
0.323495
0.326865
0.330269
0.333703
0.337165
0.340652
0.344161
0.347688
0.351233
0.354792
0.358362
0.361942
0.365529
0.369122
0.372719
0.376319
0.37992
0.383521
0.387123
0.390725
0.394328
0.397931
0.401535
0.405142
0.408752
0.412369
0.415994
0.419629
0.423278
0.426943
0.430629
0.434338
0.438076
0.441847
0.445655
0.449506
0.453404
0.457355
0.461365
0.465438
0.46958
0.473797
0.478093
0.482472
0.486938
0.491493
0.496141
0.50088
0.50571
0.510627
0.515626
0.520699
0.525834
0.531017
0.53623
0.541449
0.546649
0.551796
0.556855
0.561782
0.566529
0.571043
0.575265
0.57913
0.582568
0.585507
0.587868
0.589572
0.590538
0.590674
0.589898
0.588128
0.585287
0.581304
0.576111
0.569648
0.561866
0.55272
0.542176
0.530209
0.516801
0.501942
0.485626
0.467854
0.448629
0.427958
0.405848
0.382312
0.357361
0.331006
0.303243
0.274014
0.24311
0.209899
0.172471
0.124034
0.0409443
0.0195944
0.0735798
0.107297
0.133617
0.156948
0.178544
0.198817
0.2179
0.235825
0.252593
0.2682
0.282649
0.295952
0.30813
0.319213
0.329233
0.33823
0.346241
0.353306
0.359462
0.364745
0.369189
0.372826
0.375684
0.377792
0.379177
0.379866
0.379888
0.379286
0.378096
0.376358
0.374111
0.3714
0.36827
0.36477
0.360947
0.356852
0.352535
0.348044
0.343428
0.338733
0.334004
0.329282
0.324606
0.32001
0.315527
0.311183
0.307004
0.303009
0.299215
0.295637
0.292283
0.289163
0.28628
0.283637
0.281235
0.279072
0.277147
0.275455
0.273991
0.272749
0.271724
0.27091
0.2703
0.269888
0.269666
0.269628
0.269768
0.270079
0.270554
0.271188
0.271974
0.272907
0.273981
0.275191
0.276532
0.277999
0.279587
0.281293
0.283111
0.285037
0.287068
0.289201
0.291432
0.293756
0.296173
0.298677
0.301267
0.303939
0.306692
0.309521
0.312425
0.315401
0.318447
0.321559
0.324736
0.327974
0.331271
0.334624
0.338031
0.341488
0.344992
0.348542
0.352132
0.355762
0.359427
0.363124
0.366851
0.370604
0.374381
0.378178
0.381993
0.385822
0.389665
0.393517
0.397378
0.401245
0.405116
0.408991
0.412867
0.416745
0.420623
0.424502
0.428381
0.432262
0.436144
0.44003
0.44392
0.447817
0.451724
0.455641
0.459574
0.463525
0.467498
0.471497
0.475527
0.479592
0.483698
0.487849
0.492052
0.496312
0.500635
0.505026
0.509491
0.514036
0.518666
0.523386
0.528198
0.533108
0.538115
0.543221
0.548423
0.553719
0.559103
0.564565
0.570094
0.575674
0.581286
0.586905
0.592504
0.598047
0.603497
0.608808
0.613931
0.618809
0.62338
0.627578
0.631332
0.634564
0.637197
0.639148
0.640331
0.640658
0.640047
0.638419
0.635697
0.631808
0.626687
0.620274
0.612515
0.603364
0.592781
0.580731
0.567184
0.552114
0.535495
0.517303
0.497514
0.476105
0.453054
0.428342
0.401955
0.373884
0.344105
0.31254
0.278942
0.242572
0.201224
0.147153
0.0522296
0.0195942
0.0735802
0.107298
0.133619
0.15695
0.178546
0.198819
0.217902
0.235827
0.252595
0.268202
0.282651
0.295954
0.308132
0.319214
0.329235
0.338231
0.346243
0.353307
0.359463
0.364747
0.36919
0.372827
0.375685
0.377792
0.379177
0.379867
0.379888
0.379287
0.378097
0.376358
0.374112
0.371401
0.368271
0.36477
0.360948
0.356853
0.352535
0.348044
0.343428
0.338734
0.334005
0.329283
0.324606
0.320011
0.315527
0.311184
0.307005
0.30301
0.299216
0.295638
0.292284
0.289163
0.28628
0.283638
0.281236
0.279073
0.277148
0.275456
0.273991
0.27275
0.271725
0.270911
0.270301
0.269889
0.269667
0.269629
0.269769
0.27008
0.270555
0.271189
0.271975
0.272908
0.273982
0.275192
0.276533
0.278
0.279588
0.281294
0.283111
0.285038
0.287069
0.289202
0.291432
0.293757
0.296174
0.298678
0.301268
0.30394
0.306693
0.309522
0.312426
0.315402
0.318448
0.32156
0.324737
0.327975
0.331272
0.334625
0.338032
0.341489
0.344993
0.348542
0.352133
0.355763
0.359428
0.363125
0.366852
0.370605
0.374382
0.378179
0.381993
0.385823
0.389666
0.393518
0.397379
0.401246
0.405117
0.408991
0.412868
0.416745
0.420624
0.424502
0.428382
0.432262
0.436145
0.44003
0.443921
0.447818
0.451724
0.455642
0.459575
0.463526
0.467499
0.471498
0.475528
0.479593
0.483699
0.48785
0.492053
0.496313
0.500635
0.505026
0.509492
0.514037
0.518667
0.523386
0.528199
0.533108
0.538115
0.543221
0.548424
0.55372
0.559103
0.564566
0.570095
0.575675
0.581287
0.586906
0.592504
0.598048
0.603498
0.608809
0.613932
0.618809
0.623381
0.627579
0.631332
0.634565
0.637198
0.639149
0.640331
0.640659
0.640048
0.63842
0.635698
0.631809
0.626688
0.620275
0.612516
0.603365
0.592782
0.580732
0.567185
0.552115
0.535496
0.517304
0.497515
0.476106
0.453054
0.428342
0.401956
0.373884
0.344105
0.31254
0.278942
0.242572
0.201223
0.147152
0.0522291
0.0234305
0.0837611
0.120702
0.149209
0.174224
0.197198
0.21863
0.238689
0.257426
0.27485
0.290966
0.305784
0.319327
0.331629
0.342737
0.3527
0.361576
0.369421
0.376292
0.382244
0.387326
0.391585
0.395061
0.397791
0.399807
0.401138
0.40181
0.401848
0.401287
0.40016
0.398499
0.396339
0.393718
0.390675
0.387253
0.383495
0.379447
0.375155
0.370667
0.36603
0.361289
0.35649
0.351675
0.346884
0.342154
0.337519
0.33301
0.328654
0.324474
0.320489
0.316715
0.313167
0.309852
0.306778
0.30395
0.30137
0.299037
0.29695
0.295107
0.293502
0.292132
0.290989
0.290069
0.289364
0.288869
0.288577
0.288481
0.288573
0.288849
0.2893
0.289922
0.290706
0.291648
0.292741
0.29398
0.29536
0.296875
0.29852
0.300291
0.302182
0.304191
0.306312
0.308542
0.310877
0.313313
0.315847
0.318476
0.321196
0.324004
0.326898
0.329874
0.33293
0.336062
0.339269
0.342546
0.345891
0.349301
0.352773
0.356305
0.359893
0.363533
0.367224
0.370961
0.374743
0.378564
0.382422
0.386315
0.390238
0.394188
0.398163
0.402159
0.406174
0.410205
0.414249
0.418304
0.422368
0.426439
0.430514
0.434594
0.438676
0.44276
0.446845
0.450932
0.45502
0.45911
0.463202
0.467299
0.471402
0.475513
0.479633
0.483767
0.487918
0.492088
0.496282
0.500505
0.50476
0.509053
0.51339
0.517775
0.522215
0.526716
0.531283
0.535923
0.540642
0.545446
0.550339
0.555327
0.560414
0.565603
0.570896
0.576293
0.581792
0.58739
0.593081
0.598855
0.6047
0.6106
0.616534
0.622478
0.628401
0.63427
0.640043
0.645676
0.651117
0.656308
0.661188
0.665689
0.669739
0.673261
0.676177
0.678405
0.679858
0.680454
0.680113
0.678759
0.676318
0.672719
0.6679
0.661799
0.654362
0.64554
0.635284
0.623549
0.61029
0.59546
0.57901
0.560886
0.541031
0.519388
0.495897
0.470505
0.443163
0.413831
0.382454
0.348918
0.312918
0.2736
0.228471
0.168932
0.0633891
0.0234302
0.0837615
0.120703
0.149211
0.174226
0.1972
0.218632
0.238691
0.257428
0.274852
0.290968
0.305785
0.319328
0.331631
0.342738
0.352701
0.361577
0.369422
0.376293
0.382244
0.387327
0.391585
0.395062
0.397792
0.399808
0.401138
0.40181
0.401848
0.401287
0.40016
0.398499
0.39634
0.393718
0.390676
0.387253
0.383495
0.379447
0.375155
0.370668
0.36603
0.36129
0.35649
0.351675
0.346884
0.342154
0.337519
0.333011
0.328654
0.324474
0.320489
0.316716
0.313167
0.309852
0.306779
0.303951
0.30137
0.299037
0.296951
0.295107
0.293503
0.292132
0.29099
0.290069
0.289365
0.28887
0.288577
0.288481
0.288574
0.28885
0.289301
0.289922
0.290707
0.291649
0.292742
0.293981
0.29536
0.296875
0.29852
0.300291
0.302183
0.304191
0.306313
0.308542
0.310877
0.313313
0.315848
0.318476
0.321196
0.324005
0.326899
0.329875
0.332931
0.336063
0.339269
0.342546
0.345891
0.349302
0.352774
0.356305
0.359893
0.363534
0.367225
0.370962
0.374743
0.378564
0.382423
0.386315
0.390238
0.394189
0.398164
0.40216
0.406175
0.410206
0.41425
0.418305
0.422368
0.426439
0.430515
0.434594
0.438676
0.44276
0.446846
0.450932
0.45502
0.45911
0.463203
0.4673
0.471402
0.475513
0.479634
0.483768
0.487918
0.492088
0.496283
0.500505
0.50476
0.509053
0.51339
0.517775
0.522215
0.526716
0.531283
0.535924
0.540643
0.545446
0.550339
0.555328
0.560415
0.565603
0.570896
0.576293
0.581792
0.58739
0.593081
0.598855
0.6047
0.6106
0.616534
0.622478
0.628401
0.63427
0.640044
0.645677
0.651117
0.656309
0.661188
0.665689
0.669739
0.673262
0.676177
0.678405
0.679858
0.680454
0.680114
0.67876
0.676318
0.67272
0.6679
0.661799
0.654363
0.64554
0.635284
0.623549
0.61029
0.59546
0.57901
0.560886
0.541032
0.519388
0.495897
0.470505
0.443163
0.413831
0.382453
0.348918
0.312918
0.273599
0.22847
0.168931
0.0633886
0.0272948
0.0935039
0.133502
0.164064
0.190625
0.214815
0.237214
0.258033
0.277344
0.295171
0.31153
0.326446
0.339955
0.352108
0.362969
0.372609
0.381104
0.388533
0.394972
0.400493
0.405164
0.409043
0.412184
0.414629
0.416417
0.417578
0.418139
0.418121
0.417552
0.416458
0.414866
0.412802
0.410297
0.407381
0.404091
0.400462
0.396536
0.392352
0.387956
0.38339
0.378699
0.373926
0.369115
0.364304
0.359534
0.354839
0.350251
0.345801
0.341512
0.337408
0.333507
0.329823
0.32637
0.323155
0.320185
0.317464
0.314994
0.312773
0.310801
0.309074
0.307587
0.306335
0.305313
0.304514
0.303933
0.303563
0.303398
0.30343
0.303654
0.304063
0.304649
0.305407
0.306331
0.307414
0.308651
0.310036
0.311564
0.31323
0.315028
0.316954
0.319003
0.321172
0.323455
0.32585
0.328351
0.330956
0.333661
0.336462
0.339357
0.342342
0.345413
0.348568
0.351803
0.355116
0.358503
0.361961
0.365487
0.369078
0.37273
0.376441
0.380207
0.384024
0.38789
0.3918
0.395753
0.399743
0.403769
0.407826
0.411912
0.416022
0.420155
0.424307
0.428476
0.432659
0.436853
0.441057
0.445268
0.449486
0.453707
0.457933
0.462161
0.466391
0.470624
0.474859
0.479097
0.483339
0.487587
0.491842
0.496105
0.500381
0.504672
0.50898
0.51331
0.517666
0.522053
0.526474
0.530936
0.535444
0.540004
0.544621
0.549302
0.554054
0.558882
0.563793
0.568792
0.573886
0.579079
0.584376
0.58978
0.595293
0.600915
0.606644
0.612477
0.618408
0.624427
0.630521
0.636674
0.642865
0.649069
0.655256
0.661391
0.667434
0.673338
0.679053
0.684521
0.689681
0.694466
0.698805
0.702624
0.705846
0.70839
0.710175
0.711123
0.71116
0.710213
0.708212
0.705093
0.700792
0.695252
0.688415
0.680226
0.670631
0.659569
0.646979
0.632789
0.616924
0.599295
0.579811
0.558371
0.534877
0.509233
0.48135
0.451146
0.418527
0.383331
0.345183
0.303108
0.25435
0.189549
0.0741165
0.0272946
0.0935044
0.133503
0.164066
0.190627
0.214817
0.237216
0.258035
0.277346
0.295173
0.311532
0.326448
0.339957
0.35211
0.36297
0.37261
0.381105
0.388533
0.394972
0.400494
0.405164
0.409044
0.412184
0.414629
0.416417
0.417578
0.418139
0.418121
0.417552
0.416458
0.414866
0.412802
0.410296
0.407381
0.404091
0.400462
0.396536
0.392352
0.387956
0.38339
0.378699
0.373926
0.369115
0.364304
0.359534
0.354839
0.350251
0.345801
0.341512
0.337408
0.333507
0.329823
0.32637
0.323155
0.320185
0.317465
0.314994
0.312774
0.310801
0.309074
0.307587
0.306335
0.305313
0.304514
0.303933
0.303563
0.303398
0.303431
0.303655
0.304063
0.304649
0.305408
0.306331
0.307415
0.308652
0.310037
0.311564
0.31323
0.315028
0.316954
0.319004
0.321172
0.323455
0.32585
0.328351
0.330956
0.333661
0.336463
0.339357
0.342342
0.345413
0.348568
0.351803
0.355116
0.358503
0.361961
0.365487
0.369078
0.37273
0.376441
0.380207
0.384024
0.38789
0.391801
0.395753
0.399744
0.403769
0.407826
0.411912
0.416022
0.420155
0.424307
0.428476
0.432659
0.436853
0.441057
0.445268
0.449486
0.453708
0.457933
0.462161
0.466392
0.470624
0.474859
0.479097
0.483339
0.487587
0.491842
0.496106
0.500381
0.504672
0.50898
0.51331
0.517666
0.522053
0.526474
0.530936
0.535444
0.540004
0.544621
0.549302
0.554054
0.558882
0.563793
0.568792
0.573886
0.579079
0.584376
0.58978
0.595293
0.600915
0.606644
0.612477
0.618408
0.624427
0.630521
0.636674
0.642865
0.649069
0.655256
0.661391
0.667434
0.673338
0.679053
0.684521
0.689681
0.694466
0.698805
0.702624
0.705846
0.70839
0.710175
0.711123
0.71116
0.710213
0.708213
0.705093
0.700792
0.695252
0.688415
0.680227
0.670631
0.659569
0.646979
0.632789
0.616924
0.599295
0.579811
0.558371
0.534877
0.509233
0.48135
0.451146
0.418527
0.38333
0.345182
0.303107
0.254349
0.189548
0.074116
0.0311975
0.102922
0.145775
0.178242
0.206204
0.231454
0.254645
0.27603
0.295706
0.313718
0.330096
0.344881
0.358126
0.369902
0.380292
0.389389
0.397292
0.4041
0.409911
0.414818
0.418903
0.422242
0.424898
0.426924
0.428364
0.429251
0.429612
0.429467
0.428835
0.427736
0.426188
0.424212
0.421826
0.419056
0.415926
0.412466
0.408708
0.404688
0.400444
0.396016
0.391444
0.386769
0.382034
0.377278
0.37254
0.367855
0.363258
0.358779
0.354445
0.35028
0.346306
0.342539
0.338993
0.335678