/*--------------------------------*- C++ -*----------------------------------*\
  =========                 |
  \\      /  F ield         | OpenFOAM: The Open Source CFD Toolbox
   \\    /   O peration     | Website:  https://openfoam.org
    \\  /    A nd           | Version:  8
     \\/     M anipulation  |
\*---------------------------------------------------------------------------*/
FoamFile
{
    version     2.0;
    format      ascii;
    class       volScalarField;
    location    "1000";
    object      nut;
}
// * * * * * * * * * * * * * * * * * * * * * * * * * * * * * * * * * * * * * //

dimensions      [0 2 -1 0 0 0 0];

internalField   nonuniform List<scalar> 
46000
(
6.08391e-08
2.92489e-07
6.21002e-07
9.78365e-07
1.36124e-06
1.75493e-06
2.14169e-06
2.51669e-06
2.88011e-06
3.22075e-06
3.54227e-06
3.84395e-06
4.12489e-06
4.38428e-06
4.62148e-06
4.83602e-06
5.02759e-06
5.19608e-06
5.34152e-06
5.46412e-06
5.5643e-06
5.64259e-06
5.69969e-06
5.73643e-06
5.75371e-06
5.75334e-06
5.74304e-06
5.71903e-06
5.68103e-06
5.62998e-06
5.56724e-06
5.49435e-06
5.41284e-06
5.32426e-06
5.23011e-06
5.13182e-06
5.03071e-06
4.92802e-06
4.82488e-06
4.72229e-06
4.62114e-06
4.52221e-06
4.42615e-06
4.33351e-06
4.24474e-06
4.16019e-06
4.08012e-06
4.00474e-06
3.93416e-06
3.86844e-06
3.8076e-06
3.75163e-06
3.70045e-06
3.65397e-06
3.6121e-06
3.57469e-06
3.54162e-06
3.51273e-06
3.48786e-06
3.46687e-06
3.44964e-06
3.4371e-06
3.4282e-06
3.42257e-06
3.42005e-06
3.42054e-06
3.42392e-06
3.43011e-06
3.43901e-06
3.45054e-06
3.46462e-06
3.48117e-06
3.5001e-06
3.52137e-06
3.54489e-06
3.57062e-06
3.5985e-06
3.62849e-06
3.66053e-06
3.69459e-06
3.73061e-06
3.76856e-06
3.80839e-06
3.85007e-06
3.89358e-06
3.93888e-06
3.98594e-06
4.03475e-06
4.08527e-06
4.13749e-06
4.19136e-06
4.24686e-06
4.30396e-06
4.36264e-06
4.42286e-06
4.48459e-06
4.5478e-06
4.61245e-06
4.67851e-06
4.74592e-06
4.81465e-06
4.88463e-06
4.95581e-06
5.02814e-06
5.10156e-06
5.17602e-06
5.25144e-06
5.32778e-06
5.40497e-06
5.48295e-06
5.56165e-06
5.64101e-06
5.72096e-06
5.80146e-06
5.88246e-06
5.9639e-06
6.04575e-06
6.12797e-06
6.21053e-06
6.29342e-06
6.3766e-06
6.46007e-06
6.54384e-06
6.62791e-06
6.71231e-06
6.79706e-06
6.88219e-06
6.96775e-06
7.05379e-06
7.14037e-06
7.22757e-06
7.31547e-06
7.40416e-06
7.49374e-06
7.5843e-06
7.67596e-06
7.76884e-06
7.86309e-06
7.95884e-06
8.05624e-06
8.15543e-06
8.25657e-06
8.35981e-06
8.46532e-06
8.57326e-06
8.68378e-06
8.79701e-06
8.91306e-06
9.03204e-06
9.154e-06
9.27899e-06
9.40701e-06
9.538e-06
9.67181e-06
9.80822e-06
9.94695e-06
1.00876e-05
1.02297e-05
1.03726e-05
1.05154e-05
1.06572e-05
1.07969e-05
1.09332e-05
1.10646e-05
1.11894e-05
1.13056e-05
1.14113e-05
1.15041e-05
1.15816e-05
1.16412e-05
1.16804e-05
1.16969e-05
1.16919e-05
1.16605e-05
1.15985e-05
1.15031e-05
1.13717e-05
1.12025e-05
1.09937e-05
1.07442e-05
1.04532e-05
1.01208e-05
9.74726e-06
9.33391e-06
8.88262e-06
8.39601e-06
7.8774e-06
7.33077e-06
6.76073e-06
6.17241e-06
5.57122e-06
4.96269e-06
4.35133e-06
3.73314e-06
3.12437e-06
2.52034e-06
1.90778e-06
1.304e-06
6.79129e-07
1.47695e-07
6.08239e-08
2.92476e-07
6.21187e-07
9.78698e-07
1.36193e-06
1.75556e-06
2.14242e-06
2.51769e-06
2.88138e-06
3.22219e-06
3.54374e-06
3.84537e-06
4.1262e-06
4.38544e-06
4.62249e-06
4.83686e-06
5.02828e-06
5.1966e-06
5.3419e-06
5.46438e-06
5.56444e-06
5.64265e-06
5.69969e-06
5.73638e-06
5.75364e-06
5.75334e-06
5.74306e-06
5.71906e-06
5.68107e-06
5.63003e-06
5.56731e-06
5.49442e-06
5.41292e-06
5.32435e-06
5.23019e-06
5.13188e-06
5.03075e-06
4.92804e-06
4.82486e-06
4.72223e-06
4.62105e-06
4.52209e-06
4.42601e-06
4.33337e-06
4.24461e-06
4.16009e-06
4.08006e-06
4.00472e-06
3.93418e-06
3.86851e-06
3.80771e-06
3.75176e-06
3.7006e-06
3.65413e-06
3.61226e-06
3.57485e-06
3.54178e-06
3.51289e-06
3.48803e-06
3.46703e-06
3.44993e-06
3.43747e-06
3.42856e-06
3.42292e-06
3.42038e-06
3.42084e-06
3.42421e-06
3.43039e-06
3.43931e-06
3.45088e-06
3.46502e-06
3.48164e-06
3.50068e-06
3.52204e-06
3.54567e-06
3.57149e-06
3.59945e-06
3.62948e-06
3.66154e-06
3.69559e-06
3.73156e-06
3.76944e-06
3.80918e-06
3.85075e-06
3.89414e-06
3.93933e-06
3.98628e-06
4.035e-06
4.08544e-06
4.13759e-06
4.19143e-06
4.24691e-06
4.30402e-06
4.36272e-06
4.42297e-06
4.48475e-06
4.54802e-06
4.61273e-06
4.67883e-06
4.74629e-06
4.81505e-06
4.88505e-06
4.95624e-06
5.02856e-06
5.10195e-06
5.17637e-06
5.25175e-06
5.32804e-06
5.40518e-06
5.4831e-06
5.56174e-06
5.64105e-06
5.72096e-06
5.80144e-06
5.88243e-06
5.96388e-06
6.04576e-06
6.12802e-06
6.21064e-06
6.29359e-06
6.37683e-06
6.46037e-06
6.54419e-06
6.6283e-06
6.71271e-06
6.79745e-06
6.88254e-06
6.96803e-06
7.05399e-06
7.14047e-06
7.22757e-06
7.31539e-06
7.40401e-06
7.49354e-06
7.58408e-06
7.67575e-06
7.76867e-06
7.86296e-06
7.95877e-06
8.05622e-06
8.15546e-06
8.25663e-06
8.35988e-06
8.46539e-06
8.57331e-06
8.6838e-06
8.79698e-06
8.91299e-06
9.03192e-06
9.15385e-06
9.27884e-06
9.40686e-06
9.53786e-06
9.67167e-06
9.8081e-06
9.94685e-06
1.00875e-05
1.02296e-05
1.03725e-05
1.05153e-05
1.06571e-05
1.07968e-05
1.09331e-05
1.10645e-05
1.11893e-05
1.13056e-05
1.14114e-05
1.15043e-05
1.15818e-05
1.16415e-05
1.16807e-05
1.16973e-05
1.16921e-05
1.16608e-05
1.15988e-05
1.15033e-05
1.1372e-05
1.12027e-05
1.09939e-05
1.07444e-05
1.04534e-05
1.01209e-05
9.74743e-06
9.33406e-06
8.88277e-06
8.39616e-06
7.87754e-06
7.33092e-06
6.7609e-06
6.17257e-06
5.57138e-06
4.96285e-06
4.35148e-06
3.73327e-06
3.12448e-06
2.52041e-06
1.90784e-06
1.30413e-06
6.79223e-07
1.47714e-07
2.72779e-07
1.01818e-05
2.13354e-05
2.97866e-05
3.65713e-05
4.21216e-05
4.69115e-05
5.11215e-05
5.48576e-05
5.82084e-05
6.12021e-05
6.38658e-05
6.62238e-05
6.82978e-05
7.01072e-05
7.16701e-05
7.30033e-05
7.41225e-05
7.50429e-05
7.57789e-05
7.63441e-05
7.67518e-05
7.70139e-05
7.71411e-05
7.71401e-05
7.7004e-05
7.67056e-05
7.63246e-05
7.58731e-05
7.53636e-05
7.4807e-05
7.42132e-05
7.35908e-05
7.29475e-05
7.22905e-05
7.16259e-05
7.09595e-05
7.02961e-05
6.96404e-05
6.89963e-05
6.83671e-05
6.7756e-05
6.71655e-05
6.65977e-05
6.60546e-05
6.55375e-05
6.50476e-05
6.45859e-05
6.41528e-05
6.3749e-05
6.33745e-05
6.30296e-05
6.27139e-05
6.24274e-05
6.21697e-05
6.19403e-05
6.17386e-05
6.15639e-05
6.14155e-05
6.12919e-05
6.11903e-05
6.11022e-05
6.10368e-05
6.09947e-05
6.09758e-05
6.09797e-05
6.10058e-05
6.10535e-05
6.1122e-05
6.12109e-05
6.13194e-05
6.14468e-05
6.15925e-05
6.17559e-05
6.19364e-05
6.21335e-05
6.23465e-05
6.25749e-05
6.28181e-05
6.30757e-05
6.3347e-05
6.36316e-05
6.3929e-05
6.42387e-05
6.45604e-05
6.48936e-05
6.52379e-05
6.5593e-05
6.59583e-05
6.63335e-05
6.67181e-05
6.71117e-05
6.7514e-05
6.79245e-05
6.83428e-05
6.87685e-05
6.92011e-05
6.96403e-05
7.00855e-05
7.05364e-05
7.09923e-05
7.14528e-05
7.19174e-05
7.23857e-05
7.28571e-05
7.33312e-05
7.38077e-05
7.42859e-05
7.47654e-05
7.52459e-05
7.57269e-05
7.62079e-05
7.66887e-05
7.7169e-05
7.76485e-05
7.8127e-05
7.86044e-05
7.90804e-05
7.9555e-05
8.00281e-05
8.04997e-05
8.09698e-05
8.14386e-05
8.19061e-05
8.23725e-05
8.28382e-05
8.33033e-05
8.37681e-05
8.4233e-05
8.46985e-05
8.51649e-05
8.56327e-05
8.61026e-05
8.6575e-05
8.70504e-05
8.75294e-05
8.80128e-05
8.85011e-05
8.89952e-05
8.94956e-05
9.0003e-05
9.05181e-05
9.10415e-05
9.1574e-05
9.21161e-05
9.26684e-05
9.32313e-05
9.3805e-05
9.43897e-05
9.49855e-05
9.55921e-05
9.62091e-05
9.68358e-05
9.7471e-05
9.81133e-05
9.87608e-05
9.94114e-05
0.000100062
0.00010071
0.00010135
0.000101979
0.00010259
0.000103179
0.000103739
0.000104261
0.00010474
0.000105164
0.000105527
0.000105817
0.000106024
0.000106138
0.000106147
0.000106022
0.000105744
0.000105312
0.000104715
0.000103947
0.000102996
0.000101855
0.000100516
9.89713e-05
9.72166e-05
9.52478e-05
9.30625e-05
9.066e-05
8.8041e-05
8.52075e-05
8.21626e-05
7.89095e-05
7.54512e-05
7.17881e-05
6.79163e-05
6.38226e-05
5.94808e-05
5.47401e-05
4.92719e-05
4.23292e-05
3.20582e-05
1.63754e-05
6.11073e-07
2.72863e-07
1.01842e-05
2.13408e-05
2.97918e-05
3.65722e-05
4.21217e-05
4.69113e-05
5.1121e-05
5.4857e-05
5.82078e-05
6.12016e-05
6.38655e-05
6.62237e-05
6.82979e-05
7.01074e-05
7.16704e-05
7.30035e-05
7.41225e-05
7.50427e-05
7.57785e-05
7.63436e-05
7.67511e-05
7.70132e-05
7.71405e-05
7.71395e-05
7.70036e-05
7.67053e-05
7.63244e-05
7.58731e-05
7.53636e-05
7.48071e-05
7.42134e-05
7.3591e-05
7.29478e-05
7.22907e-05
7.1626e-05
7.09594e-05
7.02958e-05
6.96397e-05
6.89952e-05
6.83658e-05
6.77544e-05
6.71637e-05
6.65959e-05
6.60529e-05
6.55361e-05
6.50466e-05
6.45853e-05
6.41528e-05
6.37494e-05
6.33754e-05
6.30307e-05
6.27153e-05
6.24289e-05
6.21713e-05
6.19419e-05
6.17402e-05
6.15656e-05
6.14171e-05
6.12934e-05
6.11909e-05
6.1102e-05
6.10365e-05
6.09944e-05
6.09755e-05
6.09794e-05
6.10055e-05
6.10532e-05
6.11219e-05
6.1211e-05
6.13196e-05
6.14473e-05
6.15933e-05
6.17571e-05
6.19379e-05
6.21351e-05
6.23483e-05
6.25768e-05
6.282e-05
6.30775e-05
6.33486e-05
6.3633e-05
6.39301e-05
6.42396e-05
6.45611e-05
6.48941e-05
6.52382e-05
6.55931e-05
6.59584e-05
6.63335e-05
6.67181e-05
6.71118e-05
6.75141e-05
6.79246e-05
6.8343e-05
6.87687e-05
6.92014e-05
6.96406e-05
7.00858e-05
7.05365e-05
7.09924e-05
7.14529e-05
7.19175e-05
7.23857e-05
7.28572e-05
7.33314e-05
7.38078e-05
7.42861e-05
7.47657e-05
7.52461e-05
7.5727e-05
7.6208e-05
7.66887e-05
7.71689e-05
7.76484e-05
7.81269e-05
7.86042e-05
7.90802e-05
7.95549e-05
8.0028e-05
8.04997e-05
8.097e-05
8.14389e-05
8.19066e-05
8.23732e-05
8.28389e-05
8.3304e-05
8.37687e-05
8.42335e-05
8.46988e-05
8.5165e-05
8.56327e-05
8.61024e-05
8.65746e-05
8.705e-05
8.7529e-05
8.80124e-05
8.85009e-05
8.89951e-05
8.94956e-05
9.00031e-05
9.05183e-05
9.10418e-05
9.15742e-05
9.21163e-05
9.26685e-05
9.32312e-05
9.38048e-05
9.43893e-05
9.4985e-05
9.55916e-05
9.62086e-05
9.68354e-05
9.74706e-05
9.81129e-05
9.87605e-05
9.94111e-05
0.000100062
0.000100709
0.00010135
0.000101978
0.00010259
0.000103179
0.000103738
0.000104261
0.000104739
0.000105164
0.000105527
0.000105817
0.000106024
0.000106138
0.000106147
0.000106022
0.000105745
0.000105313
0.000104716
0.000103948
0.000102997
0.000101856
0.000100517
9.89721e-05
9.72174e-05
9.52485e-05
9.30632e-05
9.06607e-05
8.80417e-05
8.52083e-05
8.21634e-05
7.89105e-05
7.54522e-05
7.17892e-05
6.79175e-05
6.38239e-05
5.9482e-05
5.47412e-05
4.92728e-05
4.233e-05
3.20585e-05
1.63757e-05
6.11085e-07
5.52214e-07
2.08664e-05
4.66228e-05
6.61949e-05
8.14755e-05
9.40341e-05
0.000104718
0.000113974
0.000122055
0.000129135
0.000135324
0.000140708
0.000145358
0.000149338
0.000152705
0.000155512
0.00015781
0.000159645
0.000161062
0.000162103
0.000162807
0.00016321
0.000163346
0.000163242
0.00016292
0.000162389
0.000161644
0.000160761
0.000159773
0.000158704
0.000157577
0.000156411
0.000155221
0.000154021
0.000152821
0.000151633
0.000150464
0.00014932
0.000148209
0.000147134
0.0001461
0.000145109
0.000144164
0.000143268
0.00014242
0.000141622
0.000140875
0.000140177
0.00013953
0.000138931
0.000138382
0.000137879
0.000137423
0.000137013
0.000136647
0.000136323
0.000136041
0.000135799
0.000135595
0.000135426
0.000135289
0.000135177
0.000135097
0.000135049
0.000135035
0.000135053
0.000135105
0.000135189
0.000135305
0.000135451
0.000135629
0.000135835
0.000136071
0.000136335
0.000136627
0.000136946
0.00013729
0.00013766
0.000138055
0.000138473
0.000138915
0.00013938
0.000139866
0.000140374
0.000140902
0.00014145
0.000142017
0.000142603
0.000143207
0.000143829
0.000144466
0.00014512
0.000145788
0.000146471
0.000147167
0.000147876
0.000148596
0.000149328
0.000150069
0.00015082
0.000151578
0.000152345
0.000153117
0.000153895
0.000154678
0.000155464
0.000156254
0.000157046
0.000157839
0.000158632
0.000159426
0.000160219
0.000161011
0.000161801
0.00016259
0.000163376
0.00016416
0.000164942
0.00016572
0.000166497
0.00016727
0.000168042
0.000168811
0.000169579
0.000170346
0.000171112
0.000171878
0.000172644
0.000173412
0.000174181
0.000174954
0.00017573
0.000176511
0.000177298
0.000178092
0.000178893
0.000179704
0.000180524
0.000181357
0.000182201
0.00018306
0.000183933
0.000184823
0.000185729
0.000186654
0.000187597
0.000188559
0.000189542
0.000190544
0.000191565
0.000192606
0.000193664
0.000194739
0.000195828
0.000196928
0.000198035
0.000199146
0.000200255
0.000201356
0.000202443
0.000203506
0.000204537
0.000205525
0.00020646
0.000207329
0.000208119
0.000208815
0.000209403
0.000209865
0.000210186
0.000210346
0.000210327
0.000210085
0.000209605
0.00020887
0.000207868
0.000206582
0.000204998
0.0002031
0.000200875
0.00019831
0.000195392
0.00019211
0.000188454
0.000184411
0.000179972
0.000175124
0.000169852
0.000164136
0.00015795
0.000151249
0.000143964
0.000135979
0.000127078
0.000116827
0.000104395
8.81742e-05
6.51523e-05
3.13685e-05
1.2835e-06
5.52428e-07
2.08667e-05
4.66231e-05
6.61946e-05
8.14739e-05
9.40321e-05
0.000104716
0.000113972
0.000122053
0.000129133
0.000135322
0.000140706
0.000145356
0.000149336
0.000152704
0.000155511
0.000157809
0.000159644
0.000161061
0.000162102
0.000162806
0.00016321
0.000163345
0.000163241
0.000162919
0.000162389
0.000161644
0.000160762
0.000159773
0.000158704
0.000157577
0.000156411
0.000155221
0.000154021
0.000152822
0.000151633
0.000150464
0.000149321
0.000148209
0.000147134
0.0001461
0.000145109
0.000144164
0.000143268
0.00014242
0.000141622
0.000140875
0.000140177
0.00013953
0.000138932
0.000138382
0.00013788
0.000137424
0.000137013
0.000136647
0.000136324
0.000136042
0.000135799
0.000135595
0.000135426
0.000135289
0.000135177
0.000135096
0.000135049
0.000135034
0.000135053
0.000135104
0.000135188
0.000135304
0.000135451
0.000135628
0.000135835
0.000136071
0.000136336
0.000136628
0.000136946
0.000137291
0.000137661
0.000138055
0.000138474
0.000138916
0.00013938
0.000139866
0.000140374
0.000140902
0.00014145
0.000142017
0.000142603
0.000143207
0.000143828
0.000144466
0.000145119
0.000145788
0.000146471
0.000147167
0.000147876
0.000148596
0.000149327
0.000150069
0.00015082
0.000151578
0.000152344
0.000153117
0.000153895
0.000154678
0.000155464
0.000156254
0.000157045
0.000157838
0.000158632
0.000159426
0.000160219
0.000161011
0.000161801
0.00016259
0.000163376
0.00016416
0.000164942
0.00016572
0.000166497
0.00016727
0.000168042
0.000168811
0.000169579
0.000170346
0.000171112
0.000171878
0.000172644
0.000173412
0.000174181
0.000174954
0.00017573
0.000176511
0.000177298
0.000178091
0.000178893
0.000179703
0.000180524
0.000181356
0.000182201
0.00018306
0.000183933
0.000184823
0.000185729
0.000186654
0.000187597
0.000188559
0.000189542
0.000190543
0.000191565
0.000192606
0.000193664
0.000194739
0.000195827
0.000196927
0.000198035
0.000199146
0.000200255
0.000201356
0.000202442
0.000203505
0.000204536
0.000205525
0.00020646
0.000207329
0.000208119
0.000208815
0.000209403
0.000209865
0.000210186
0.000210346
0.000210327
0.000210086
0.000209605
0.000208871
0.000207868
0.000206582
0.000204998
0.000203101
0.000200876
0.000198311
0.000195393
0.000192111
0.000188454
0.000184412
0.000179973
0.000175125
0.000169853
0.000164137
0.000157951
0.00015125
0.000143966
0.00013598
0.000127079
0.000116828
0.000104396
8.81748e-05
6.51527e-05
3.13687e-05
1.28349e-06
8.22432e-07
2.81719e-05
6.43647e-05
9.2935e-05
0.000115827
0.000134853
0.000151061
0.000165064
0.000177241
0.000187845
0.000197058
0.000205018
0.000211841
0.000217627
0.000222468
0.000226449
0.000229652
0.000232153
0.000234024
0.000235335
0.00023615
0.000236529
0.000236526
0.000236189
0.000235558
0.000234664
0.000233529
0.000232215
0.00023077
0.000229228
0.00022762
0.000225972
0.000224306
0.000222639
0.000220987
0.000219363
0.000217777
0.000216239
0.000214755
0.000213331
0.00021197
0.000210677
0.000209454
0.000208301
0.00020722
0.00020621
0.00020527
0.0002044
0.000203599
0.000202863
0.000202192
0.000201583
0.000201033
0.000200541
0.000200105
0.000199721
0.000199387
0.000199101
0.000198861
0.000198662
0.000198502
0.000198376
0.000198287
0.000198236
0.000198223
0.000198247
0.00019831
0.00019841
0.000198548
0.000198723
0.000198934
0.00019918
0.000199463
0.00019978
0.000200131
0.000200516
0.000200934
0.000201384
0.000201866
0.00020238
0.000202923
0.000203497
0.000204099
0.00020473
0.000205389
0.000206074
0.000206786
0.000207523
0.000208284
0.000209069
0.000209876
0.000210705
0.000211555
0.000212424
0.000213311
0.000214216
0.000215137
0.000216073
0.000217023
0.000217985
0.000218959
0.000219943
0.000220935
0.000221934
0.000222941
0.000223952
0.000224967
0.000225985
0.000227005
0.000228026
0.000229047
0.000230068
0.000231087
0.000232105
0.00023312
0.000234133
0.000235143
0.00023615
0.000237154
0.000238156
0.000239155
0.000240152
0.000241147
0.000242141
0.000243135
0.000244129
0.000245124
0.000246121
0.000247121
0.000248126
0.000249136
0.000250152
0.000251177
0.00025221
0.000253255
0.000254312
0.000255383
0.00025647
0.000257574
0.000258697
0.00025984
0.000261005
0.000262194
0.000263407
0.000264646
0.000265912
0.000267206
0.000268529
0.000269879
0.000271257
0.000272661
0.000274091
0.000275544
0.000277016
0.000278504
0.000280003
0.000281506
0.000283008
0.000284499
0.00028597
0.00028741
0.000288808
0.000290149
0.000291419
0.000292601
0.000293679
0.000294633
0.000295444
0.000296091
0.000296552
0.000296802
0.000296817
0.000296556
0.000295996
0.000295116
0.000293893
0.000292309
0.00029034
0.000287968
0.00028517
0.000281928
0.000278218
0.000274021
0.000269312
0.000264066
0.000258255
0.000251843
0.000244789
0.000237039
0.000228517
0.000219122
0.000208696
0.000196993
0.000183607
0.000167834
0.000148461
0.000123407
8.93218e-05
4.25695e-05
2.02981e-06
8.22615e-07
2.81716e-05
6.4363e-05
9.29321e-05
0.000115823
0.000134849
0.000151056
0.000165059
0.000177236
0.000187841
0.000197054
0.000205015
0.000211838
0.000217624
0.000222465
0.000226447
0.00022965
0.000232151
0.000234023
0.000235334
0.00023615
0.000236529
0.000236526
0.000236189
0.000235559
0.000234665
0.00023353
0.000232216
0.000230771
0.000229229
0.000227622
0.000225974
0.000224307
0.00022264
0.000220988
0.000219364
0.000217779
0.000216241
0.000214756
0.000213332
0.000211972
0.000210679
0.000209455
0.000208302
0.000207221
0.000206211
0.000205271
0.000204401
0.000203599
0.000202864
0.000202192
0.000201583
0.000201034
0.000200542
0.000200105
0.000199721
0.000199387
0.000199102
0.000198861
0.000198662
0.000198502
0.000198376
0.000198287
0.000198236
0.000198222
0.000198247
0.00019831
0.00019841
0.000198548
0.000198722
0.000198933
0.00019918
0.000199462
0.00019978
0.000200131
0.000200516
0.000200934
0.000201384
0.000201866
0.00020238
0.000202923
0.000203497
0.000204099
0.00020473
0.000205389
0.000206074
0.000206786
0.000207523
0.000208284
0.000209069
0.000209876
0.000210705
0.000211555
0.000212424
0.000213311
0.000214216
0.000215137
0.000216073
0.000217023
0.000217986
0.000218959
0.000219943
0.000220935
0.000221935
0.000222941
0.000223952
0.000224967
0.000225985
0.000227005
0.000228026
0.000229048
0.000230068
0.000231087
0.000232105
0.00023312
0.000234133
0.000235143
0.00023615
0.000237155
0.000238156
0.000239156
0.000240153
0.000241148
0.000242142
0.000243136
0.00024413
0.000245125
0.000246122
0.000247122
0.000248126
0.000249136
0.000250153
0.000251177
0.000252211
0.000253256
0.000254313
0.000255384
0.000256471
0.000257575
0.000258697
0.00025984
0.000261006
0.000262194
0.000263407
0.000264647
0.000265913
0.000267207
0.000268529
0.000269879
0.000271257
0.000272662
0.000274091
0.000275544
0.000277016
0.000278504
0.000280003
0.000281507
0.000283008
0.000284499
0.00028597
0.00028741
0.000288808
0.000290149
0.000291419
0.000292601
0.000293679
0.000294634
0.000295445
0.000296092
0.000296552
0.000296802
0.000296818
0.000296557
0.000295997
0.000295116
0.000293894
0.000292309
0.000290341
0.000287969
0.000285172
0.000281929
0.00027822
0.000274022
0.000269314
0.000264068
0.000258257
0.000251845
0.000244791
0.00023704
0.000228519
0.000219124
0.000208697
0.000196995
0.000183609
0.000167836
0.000148462
0.000123408
8.93224e-05
4.25696e-05
2.0298e-06
1.09484e-06
3.33206e-05
7.68598e-05
0.000112581
0.000141789
0.000166292
0.000187248
0.000205381
0.000221156
0.000234892
0.000246821
0.000257121
0.000265941
0.000273409
0.000279645
0.000284759
0.000288855
0.000292034
0.000294392
0.000296021
0.000297007
0.00029743
0.000297364
0.000296877
0.000296027
0.000294864
0.000293433
0.000291778
0.000289972
0.000288055
0.000286064
0.000284028
0.000281976
0.000279928
0.000277905
0.000275921
0.000273989
0.00027212
0.000270322
0.000268601
0.000266961
0.000265408
0.000263941
0.000262564
0.000261276
0.000260077
0.000258965
0.000257938
0.000256995
0.000256133
0.000255348
0.000254637
0.000253998
0.000253426
0.000252918
0.000252472
0.000252083
0.000251748
0.000251464
0.000251228
0.000251036
0.000250884
0.000250774
0.000250706
0.000250678
0.000250692
0.000250746
0.000250842
0.000250979
0.000251157
0.000251375
0.000251633
0.000251931
0.000252268
0.000252645
0.000253061
0.000253514
0.000254006
0.000254535
0.000255101
0.000255704
0.000256342
0.000257015
0.000257722
0.000258463
0.000259237
0.000260043
0.00026088
0.000261747
0.000262643
0.000263567
0.000264517
0.000265494
0.000266494
0.000267518
0.000268563
0.000269628
0.000270712
0.000271813
0.00027293
0.00027406
0.000275204
0.000276358
0.000277522
0.000278694
0.000279873
0.000281056
0.000282244
0.000283435
0.000284628
0.000285821
0.000287014
0.000288206
0.000289397
0.000290585
0.000291772
0.000292956
0.000294137
0.000295315
0.000296492
0.000297666
0.000298839
0.000300011
0.000301182
0.000302354
0.000303528
0.000304704
0.000305884
0.00030707
0.000308261
0.000309461
0.00031067
0.00031189
0.000313124
0.000314372
0.000315637
0.00031692
0.000318224
0.00031955
0.000320901
0.000322278
0.000323684
0.00032512
0.000326588
0.000328089
0.000329624
0.000331195
0.000332802
0.000334444
0.000336121
0.000337832
0.000339576
0.000341348
0.000343146
0.000344964
0.000346797
0.000348638
0.000350477
0.000352306
0.000354112
0.000355883
0.000357605
0.000359262
0.000360836
0.000362309
0.00036366
0.000364867
0.000365907
0.000366755
0.000367387
0.000367774
0.000367887
0.000367688
0.000367148
0.000366243
0.000364945
0.000363228
0.000361066
0.000358431
0.000355297
0.000351633
0.00034741
0.000342592
0.000337144
0.000331021
0.000324174
0.000316544
0.000308056
0.000298619
0.00028811
0.000276363
0.000263137
0.000248073
0.000230607
0.000209835
0.000184285
0.000151601
0.000108269
5.12537e-05
2.82008e-06
1.09485e-06
3.33201e-05
7.68573e-05
0.000112577
0.000141784
0.000166286
0.000187242
0.000205375
0.00022115
0.000234887
0.000246816
0.000257116
0.000265936
0.000273405
0.000279642
0.000284756
0.000288852
0.000292032
0.000294391
0.00029602
0.000297006
0.000297429
0.000297365
0.000296878
0.000296028
0.000294865
0.000293434
0.00029178
0.000289974
0.000288058
0.000286066
0.00028403
0.000281978
0.000279931
0.000277907
0.000275924
0.000273992
0.000272123
0.000270324
0.000268603
0.000266964
0.00026541
0.000263944
0.000262566
0.000261278
0.000260079
0.000258967
0.00025794
0.000256997
0.000256134
0.000255349
0.000254638
0.000253999
0.000253427
0.000252919
0.000252472
0.000252083
0.000251749
0.000251465
0.000251229
0.000251037
0.000250885
0.000250775
0.000250706
0.000250678
0.000250692
0.000250747
0.000250842
0.000250979
0.000251157
0.000251375
0.000251633
0.000251931
0.000252268
0.000252645
0.000253061
0.000253515
0.000254006
0.000254536
0.000255102
0.000255704
0.000256342
0.000257015
0.000257723
0.000258464
0.000259237
0.000260043
0.00026088
0.000261747
0.000262643
0.000263567
0.000264518
0.000265494
0.000266495
0.000267518
0.000268563
0.000269628
0.000270712
0.000271813
0.00027293
0.000274061
0.000275204
0.000276359
0.000277523
0.000278695
0.000279873
0.000281057
0.000282245
0.000283436
0.000284628
0.000285822
0.000287015
0.000288207
0.000289398
0.000290586
0.000291773
0.000292957
0.000294138
0.000295316
0.000296493
0.000297667
0.00029884
0.000300012
0.000301183
0.000302355
0.000303529
0.000304705
0.000305885
0.000307071
0.000308262
0.000309462
0.000310671
0.000311891
0.000313125
0.000314373
0.000315638
0.000316921
0.000318225
0.000319551
0.000320902
0.000322279
0.000323685
0.000325121
0.000326589
0.00032809
0.000329625
0.000331196
0.000332802
0.000334445
0.000336122
0.000337833
0.000339577
0.000341349
0.000343147
0.000344965
0.000346798
0.000348638
0.000350478
0.000352306
0.000354113
0.000355884
0.000357606
0.000359263
0.000360837
0.00036231
0.00036366
0.000364867
0.000365907
0.000366756
0.000367387
0.000367775
0.000367888
0.000367689
0.000367149
0.000366244
0.000364946
0.000363229
0.000361067
0.000358433
0.000355299
0.000351635
0.000347412
0.000342594
0.000337146
0.000331023
0.000324176
0.000316546
0.000308059
0.000298621
0.000288113
0.000276365
0.000263139
0.000248075
0.000230609
0.000209836
0.000184286
0.000151602
0.00010827
5.1254e-05
2.82006e-06
1.36738e-06
3.73229e-05
8.63868e-05
0.000127785
0.000162153
0.00019121
0.000216165
0.000237813
0.00025668
0.000273133
0.000287441
0.000299813
0.000310421
0.000319417
0.000326937
0.000333112
0.000338062
0.000341909
0.000344765
0.000346742
0.000347942
0.000348466
0.000348404
0.000347839
0.000346847
0.000345493
0.000343837
0.00034193
0.000339848
0.000337639
0.000335345
0.000333003
0.000330642
0.000328288
0.000325964
0.000323686
0.000321469
0.000319325
0.000317262
0.000315288
0.000313408
0.000311627
0.000309946
0.000308367
0.00030689
0.000305515
0.000304239
0.000303062
0.00030198
0.00030099
0.000300088
0.00029927
0.000298533
0.000297872
0.000297283
0.000296762
0.000296305
0.000295908
0.000295567
0.000295279
0.000295039
0.000294845
0.000294696
0.000294591
0.000294531
0.000294514
0.000294541
0.000294613
0.000294727
0.000294886
0.000295088
0.000295333
0.000295622
0.000295955
0.00029633
0.000296749
0.00029721
0.000297714
0.00029826
0.000298848
0.000299477
0.000300147
0.000300857
0.000301607
0.000302396
0.000303222
0.000304086
0.000304986
0.000305921
0.00030689
0.000307892
0.000308925
0.000309988
0.00031108
0.000312199
0.000313343
0.000314511
0.000315701
0.000316912
0.000318141
0.000319387
0.000320648
0.000321922
0.000323208
0.000324504
0.000325808
0.000327119
0.000328435
0.000329755
0.000331078
0.000332403
0.000333728
0.000335053
0.000336377
0.0003377
0.000339021
0.00034034
0.000341657
0.000342972
0.000344286
0.000345598
0.00034691
0.000348222
0.000349535
0.000350849
0.000352167
0.000353489
0.000354817
0.000356151
0.000357495
0.000358849
0.000360215
0.000361595
0.000362992
0.000364407
0.000365843
0.000367302
0.000368786
0.000370297
0.000371838
0.000373411
0.000375018
0.000376661
0.000378343
0.000380064
0.000381827
0.000383632
0.000385479
0.000387369
0.000389302
0.000391275
0.000393286
0.000395333
0.000397411
0.000399515
0.000401637
0.000403771
0.000405906
0.000408032
0.000410135
0.000412202
0.000414217
0.000416162
0.000418017
0.000419763
0.000421377
0.000422834
0.00042411
0.000425177
0.000426008
0.000426573
0.000426836
0.000426765
0.000426326
0.000425492
0.00042423
0.00042251
0.0004203
0.000417567
0.000414275
0.000410386
0.000405859
0.000400646
0.000394695
0.000387943
0.000380319
0.000371736
0.00036209
0.00035125
0.000339047
0.000325255
0.000309561
0.00029151
0.000270417
0.000245227
0.000214292
0.000175075
0.000123996
5.85607e-05
3.60155e-06
1.36735e-06
3.73219e-05
8.63839e-05
0.00012778
0.000162147
0.000191203
0.000216158
0.000237806
0.000256673
0.000273126
0.000287435
0.000299807
0.000310416
0.000319412
0.000326933
0.000333108
0.00033806
0.000341907
0.000344764
0.000346741
0.000347942
0.000348466
0.000348404
0.00034784
0.000346848
0.000345495
0.000343839
0.000341933
0.000339851
0.000337642
0.000335348
0.000333006
0.000330645
0.000328292
0.000325967
0.00032369
0.000321473
0.000319328
0.000317265
0.000315291
0.000313411
0.00031163
0.000309949
0.00030837
0.000306893
0.000305517
0.000304242
0.000303065
0.000301982
0.000300992
0.00030009
0.000299272
0.000298535
0.000297874
0.000297285
0.000296764
0.000296307
0.000295909
0.000295568
0.00029528
0.00029504
0.000294846
0.000294696
0.000294592
0.000294531
0.000294515
0.000294542
0.000294613
0.000294728
0.000294886
0.000295088
0.000295334
0.000295623
0.000295955
0.000296331
0.000296749
0.000297211
0.000297715
0.000298261
0.000298849
0.000299478
0.000300148
0.000300858
0.000301608
0.000302397
0.000303223
0.000304087
0.000304987
0.000305922
0.000306891
0.000307893
0.000308926
0.000309989
0.000311081
0.0003122
0.000313344
0.000314512
0.000315703
0.000316913
0.000318142
0.000319388
0.000320649
0.000321924
0.00032321
0.000324505
0.000325809
0.00032712
0.000328436
0.000329757
0.00033108
0.000332404
0.000333729
0.000335054
0.000336378
0.000337701
0.000339022
0.000340341
0.000341659
0.000342974
0.000344288
0.0003456
0.000346912
0.000348224
0.000349536
0.000350851
0.000352169
0.000353491
0.000354818
0.000356153
0.000357496
0.00035885
0.000360217
0.000361597
0.000362994
0.000364409
0.000365845
0.000367304
0.000368787
0.000370298
0.000371839
0.000373412
0.000375019
0.000376663
0.000378344
0.000380066
0.000381828
0.000383633
0.000385481
0.000387371
0.000389303
0.000391276
0.000393288
0.000395335
0.000397413
0.000399516
0.000401639
0.000403772
0.000405907
0.000408033
0.000410136
0.000412203
0.000414218
0.000416163
0.000418019
0.000419764
0.000421378
0.000422836
0.000424111
0.000425179
0.000426009
0.000426574
0.000426838
0.000426766
0.000426328
0.000425493
0.000424231
0.000422512
0.000420302
0.000417569
0.000414277
0.000410389
0.000405861
0.000400649
0.000394697
0.000387946
0.000380322
0.000371739
0.000362093
0.000351253
0.00033905
0.000325258
0.000309564
0.000291512
0.000270419
0.000245229
0.000214294
0.000175076
0.000123997
5.85608e-05
3.60151e-06
1.63924e-06
4.07649e-05
9.42434e-05
0.000140212
0.000178811
0.000211654
0.000239967
0.000264589
0.000286089
0.000304872
0.000321235
0.000335409
0.000347587
0.000357936
0.000366607
0.000373744
0.000379483
0.000383956
0.000387294
0.000389619
0.000391052
0.000391706
0.000391688
0.000391094
0.000390014
0.000388527
0.000386704
0.000384607
0.000382313
0.000379876
0.000377345
0.000374759
0.000372153
0.000369555
0.000366988
0.000364472
0.000362021
0.00035965
0.000357366
0.000355179
0.000353094
0.000351114
0.000349244
0.000347484
0.000345835
0.000344296
0.000342866
0.000341542
0.000340322
0.000339203
0.000338179
0.000337248
0.000336405
0.000335644
0.000334961
0.000334353
0.000333813
0.000333338
0.000332924
0.000332566
0.000332262
0.000332007