/*--------------------------------*- C++ -*----------------------------------*\
  =========                 |
  \\      /  F ield         | OpenFOAM: The Open Source CFD Toolbox
   \\    /   O peration     | Website:  https://openfoam.org
    \\  /    A nd           | Version:  8
     \\/     M anipulation  |
\*---------------------------------------------------------------------------*/
FoamFile
{
    version     2.0;
    format      ascii;
    class       surfaceScalarField;
    location    "1000";
    object      phi;
}
// * * * * * * * * * * * * * * * * * * * * * * * * * * * * * * * * * * * * * //

dimensions      [1 0 -1 0 0 0 0];

internalField   nonuniform List<scalar> 
114370
(
-9.35043e-10
6.34975e-14
9.34977e-10
-2.08313e-09
6.36513e-13
1.14067e-09
-2.87462e-09
1.92694e-12
7.82085e-10
-3.10606e-09
2.38697e-12
2.33434e-10
-2.81021e-09
1.98428e-12
-2.94328e-10
-2.08578e-09
1.48498e-12
-7.24746e-10
-1.04156e-09
1.29969e-12
-1.04544e-09
2.26472e-10
1.45675e-12
-1.2693e-09
1.63478e-09
1.7555e-12
-1.40906e-09
3.11615e-09
1.95308e-12
-1.48137e-09
4.6213e-09
1.97486e-12
-1.5047e-09
6.11108e-09
1.8663e-12
-1.48923e-09
7.55476e-09
1.69226e-12
-1.44319e-09
8.92815e-09
1.4979e-12
-1.37301e-09
1.02124e-08
1.30001e-12
-1.28396e-09
1.13931e-08
1.09627e-12
-1.18044e-09
1.24595e-08
8.81314e-13
-1.06621e-09
1.34043e-08
6.58883e-13
-9.44574e-10
1.42229e-08
4.42869e-13
-8.1842e-10
1.49135e-08
2.49663e-13
-6.90318e-10
1.54764e-08
9.01601e-14
-5.6255e-10
1.59139e-08
-3.27015e-14
-4.37151e-10
1.62301e-08
-1.21513e-13
-3.15944e-10
1.6431e-08
-1.81303e-13
-2.00596e-10
1.65239e-08
-2.18774e-13
-9.2656e-11
1.65178e-08
-2.37554e-13
6.40606e-12
1.6421e-08
-2.40445e-13
9.69616e-11
1.62417e-08
-2.29127e-13
1.79532e-10
1.59885e-08
-2.00262e-13
2.53325e-10
1.56706e-08
-1.52426e-13
3.18036e-10
1.52972e-08
-8.94356e-14
3.73547e-10
1.48774e-08
-2.09869e-14
4.19909e-10
1.44202e-08
3.99462e-14
4.57323e-10
1.39342e-08
8.07305e-14
4.86124e-10
1.34276e-08
9.10109e-14
5.06753e-10
1.29081e-08
6.28637e-14
5.19737e-10
1.23827e-08
-8.81546e-15
5.25668e-10
1.18579e-08
-1.24134e-13
5.25181e-10
1.13394e-08
-2.75419e-13
5.18939e-10
1.08322e-08
-4.46615e-13
5.07621e-10
1.03408e-08
-6.16221e-13
4.91907e-10
9.86884e-09
-7.62334e-13
4.7247e-10
9.41933e-09
-8.66964e-13
4.49962e-10
8.99471e-09
-9.17435e-13
4.25001e-10
8.59684e-09
-9.05372e-13
3.98166e-10
8.22707e-09
-8.26637e-13
3.69997e-10
7.88623e-09
-6.84519e-13
3.40987e-10
7.57474e-09
-4.92655e-13
3.11584e-10
7.29263e-09
-2.73789e-13
2.82178e-10
7.03958e-09
-5.63454e-14
2.53101e-10
6.81502e-09
1.30312e-13
2.24628e-10
6.61817e-09
2.65146e-13
1.9697e-10
6.44804e-09
3.4319e-13
1.70294e-10
6.30353e-09
3.71078e-13
1.44728e-10
6.18343e-09
3.59563e-13
1.20361e-10
6.08647e-09
3.25662e-13
9.72516e-11
6.01136e-09
2.91975e-13
7.54299e-11
5.95677e-09
2.74301e-13
5.49059e-11
5.92142e-09
2.76307e-13
3.56561e-11
5.90411e-09
2.99256e-13
1.7625e-11
5.90369e-09
3.38597e-13
7.13715e-13
5.91888e-09
3.80373e-13
-1.48939e-11
5.94826e-09
4.08276e-13
-2.90872e-11
5.99063e-09
4.11956e-13
-4.20584e-11
6.04486e-09
3.92483e-13
-5.39132e-11
6.10992e-09
3.57432e-13
-6.47477e-11
6.18487e-09
3.19011e-13
-7.46484e-11
6.26883e-09
2.91719e-13
-8.36929e-11
6.36099e-09
2.88622e-13
-9.19485e-11
6.4606e-09
3.20722e-13
-9.94734e-11
6.56699e-09
3.95493e-13
-1.06318e-10
6.67951e-09
5.12218e-13
-1.12529e-10
6.79757e-09
6.61739e-13
-1.18149e-10
6.92065e-09
8.31331e-13
-1.2322e-10
7.04826e-09
1.00555e-12
-1.27787e-10
7.17997e-09
1.16419e-12
-1.31893e-10
7.3154e-09
1.28733e-12
-1.3559e-10
7.45422e-09
1.36405e-12
-1.3893e-10
7.59615e-09
1.39248e-12
-1.41957e-10
7.7409e-09
1.37268e-12
-1.44708e-10
7.88825e-09
1.30587e-12
-1.4721e-10
8.03796e-09
1.19992e-12
-1.49492e-10
8.18981e-09
1.06817e-12
-1.51576e-10
8.34362e-09
9.20524e-13
-1.53487e-10
8.49922e-09
7.60981e-13
-1.55251e-10
8.65647e-09
5.95554e-13
-1.56898e-10
8.81528e-09
4.3605e-13
-1.5846e-10
8.97557e-09
2.93761e-13
-1.59966e-10
9.13729e-09
1.75056e-13
-1.61438e-10
9.30041e-09
8.51544e-14
-1.62886e-10
9.46489e-09
2.92273e-14
-1.64313e-10
9.63073e-09
6.49802e-15
-1.65722e-10
9.7979e-09
9.14401e-15
-1.67115e-10
9.96642e-09
3.0477e-14
-1.68493e-10
1.01363e-08
6.91765e-14
-1.69853e-10
1.03075e-08
1.22625e-13
-1.71196e-10
1.048e-08
1.81805e-13
-1.72525e-10
1.06538e-08
2.36976e-13
-1.73837e-10
1.0829e-08
2.8436e-13
-1.75124e-10
1.10055e-08
3.23774e-13
-1.76372e-10
1.11832e-08
3.53567e-13
-1.7757e-10
1.13621e-08
3.71959e-13
-1.78696e-10
1.1542e-08
3.80183e-13
-1.79725e-10
1.17229e-08
3.79768e-13
-1.80635e-10
1.19046e-08
3.68231e-13
-1.81415e-10
1.20869e-08
3.41274e-13
-1.82056e-10
1.22697e-08
2.98348e-13
-1.82549e-10
1.24528e-08
2.42956e-13
-1.82885e-10
1.26361e-08
1.78732e-13
-1.83059e-10
1.28194e-08
1.09211e-13
-1.83069e-10
1.30025e-08
4.15295e-14
-1.82907e-10
1.31852e-08
-1.39783e-14
-1.82557e-10
1.33674e-08
-5.05438e-14
-1.82007e-10
1.35488e-08
-7.00065e-14
-1.81255e-10
1.37292e-08
-7.96434e-14
-1.80309e-10
1.39084e-08
-8.49001e-14
-1.79179e-10
1.40864e-08
-8.573e-14
-1.77875e-10
1.42629e-08
-7.76738e-14
-1.76416e-10
1.44379e-08
-5.3813e-14
-1.74821e-10
1.46111e-08
-6.66585e-15
-1.73107e-10
1.47825e-08
6.74396e-14
-1.71287e-10
1.4952e-08
1.62251e-13
-1.69375e-10
1.51194e-08
2.59645e-13
-1.67399e-10
1.52849e-08
3.36151e-13
-1.65388e-10
1.54483e-08
3.74287e-13
-1.63369e-10
1.56097e-08
3.70149e-13
-1.61365e-10
1.57692e-08
3.32125e-13
-1.59395e-10
1.59268e-08
2.7294e-13
-1.57482e-10
1.60826e-08
2.01659e-13
-1.55643e-10
1.62366e-08
1.20927e-13
-1.53897e-10
1.6389e-08
3.02194e-14
-1.52266e-10
1.65399e-08
-6.79608e-14
-1.50782e-10
1.66895e-08
-1.63903e-13
-1.49472e-10
1.6838e-08
-2.42038e-13
-1.48355e-10
1.69855e-08
-2.87582e-13
-1.47431e-10
1.71323e-08
-2.94354e-13
-1.46696e-10
1.72786e-08
-2.68326e-13
-1.46153e-10
1.74244e-08
-2.23902e-13
-1.45818e-10
1.75702e-08
-1.75054e-13
-1.45712e-10
1.77161e-08
-1.27472e-13
-1.4585e-10
1.78624e-08
-7.81036e-14
-1.46234e-10
1.80093e-08
-2.32632e-14
-1.4686e-10
1.81571e-08
3.09351e-14
-1.47728e-10
1.83061e-08
6.58653e-14
-1.48843e-10
1.84564e-08
6.08169e-14
-1.50216e-10
1.86083e-08
1.0327e-14
-1.51855e-10
1.87623e-08
-6.65786e-14
-1.53761e-10
1.89185e-08
-1.36118e-13
-1.55919e-10
1.9077e-08
-1.73344e-13
-1.58309e-10
1.92381e-08
-1.79932e-13
-1.60904e-10
1.9402e-08
-1.79318e-13
-1.63682e-10
1.95688e-08
-1.9237e-13
-1.66612e-10
1.97387e-08
-2.16289e-13
-1.69651e-10
1.99117e-08
-2.27838e-13
-1.72731e-10
2.00876e-08
-2.08391e-13
-1.75762e-10
2.02664e-08
-1.65276e-13
-1.78644e-10
2.04479e-08
-1.26247e-13
-1.81267e-10
2.06315e-08
-1.12189e-13
-1.83497e-10
2.08168e-08
-1.17408e-13
-1.85166e-10
2.1003e-08
-1.19375e-13
-1.86057e-10
2.1189e-08
-1.06354e-13
-1.85919e-10
2.13736e-08
-9.06571e-14
-1.84471e-10
2.1555e-08
-9.21218e-14
-1.81402e-10
2.17314e-08
-1.11885e-13
-1.76362e-10
2.19004e-08
-1.2824e-13
-1.6895e-10
2.20592e-08
-1.19703e-13
-1.58714e-10
2.22044e-08
-8.6854e-14
-1.45164e-10
2.23322e-08
-4.54096e-14
-1.27779e-10
2.24382e-08
2.34637e-16
-1.06015e-10
2.25175e-08
6.55196e-14
-7.93066e-11
2.25644e-08
1.59883e-13
-4.70637e-11
2.25731e-08
2.59803e-13
-8.81568e-12
2.25367e-08
3.21853e-13
3.62363e-11
2.24474e-08
3.31398e-13
8.91927e-11
2.22964e-08
3.18563e-13
1.50819e-10
2.20746e-08
3.14307e-13
2.21676e-10
2.17722e-08
3.12282e-13
3.02247e-10
2.13791e-08
2.90674e-13
3.92888e-10
2.08852e-08
2.57601e-13
4.93786e-10
2.02801e-08
2.41094e-13
6.04929e-10
1.95538e-08
2.38014e-13
7.26046e-10
1.8697e-08
2.13946e-13
8.5651e-10
1.77016e-08
1.61042e-13
9.95233e-10
1.65607e-08
1.11639e-13
1.1406e-09
1.52701e-08
8.26473e-14
1.29037e-09
1.38284e-08
5.96193e-14
1.4415e-09
1.22382e-08
5.00569e-14
1.5899e-09
1.05077e-08
8.35835e-14
1.7302e-09
8.6519e-09
1.4493e-13
1.85551e-09
6.6947e-09
1.9097e-13
1.95682e-09
4.67209e-09
2.30717e-13
2.02222e-09
2.6361e-09
2.90212e-13
2.03556e-09
6.60322e-10
3.46952e-13
1.97536e-09
-1.14406e-09
3.71851e-13
1.80399e-09
-2.62342e-09
3.34599e-13
1.47904e-09
-3.58779e-09
2.19972e-13
9.64111e-10
-3.81624e-09
1.18172e-13
2.28223e-10
-3.13565e-09
1.01075e-13
-6.80812e-10
-1.62544e-09
1.28464e-13
-1.51043e-09
1.63489e-13
-1.6258e-09
-9.31105e-10
9.30937e-10
-2.07696e-09
1.12935e-09
-2.87336e-09
7.71047e-10
-3.10846e-09
2.25072e-10
-2.81249e-09
-3.00172e-10
-2.08631e-09
-7.29627e-10
-1.04037e-09
-1.05092e-09
2.28543e-10
-1.27618e-09
1.63658e-09
-1.41706e-09
3.11703e-09
-1.48965e-09
4.62137e-09
-1.51258e-09
6.1106e-09
-1.49631e-09
7.55398e-09
-1.44928e-09
8.92729e-09
-1.37808e-09
1.02116e-08
-1.28807e-09
1.13924e-08
-1.18368e-09
1.2459e-08
-1.06872e-09
1.3404e-08
-9.4646e-10
1.42228e-08
-8.19792e-10
1.49135e-08
-6.9126e-10
1.54764e-08
-5.6313e-10
1.59138e-08
-4.37427e-10
1.62301e-08
-3.15975e-10
1.6431e-08
-2.00438e-10
1.65239e-08
-9.23642e-11
1.65178e-08
6.76724e-12
1.6421e-08
9.73312e-11
1.62417e-08
1.79871e-10
1.59886e-08
2.53603e-10
1.56707e-08
3.18239e-10
1.52973e-08
3.73676e-10
1.48775e-08
4.19977e-10
1.44203e-08
4.57358e-10
1.39343e-08
4.86166e-10
1.34277e-08
5.06857e-10
1.29083e-08
5.1997e-10
1.23829e-08
5.26099e-10
1.18581e-08
5.25875e-10
1.13396e-08
5.1994e-10
1.08325e-08
5.08943e-10
1.03411e-08
4.93527e-10
9.86911e-09
4.74321e-10
9.41961e-09
4.51935e-10
8.99502e-09
4.26955e-10
8.59718e-09
3.99948e-10
8.22742e-09
3.71461e-10
7.88659e-09
3.42019e-10
7.57511e-09
3.12115e-10
7.29301e-09
2.82193e-10
7.03999e-09
2.52635e-10
6.81547e-09
2.23748e-10
6.61864e-09
1.95766e-10
6.44852e-09
1.68861e-10
6.304e-09
1.43146e-10
6.18388e-09
1.18685e-10
6.08689e-09
9.55125e-11
6.01172e-09
7.36414e-11
5.95706e-09
5.30623e-11
5.92166e-09
3.37476e-11
5.9043e-09
1.56507e-11
5.90384e-09
-1.28845e-12
5.919e-09
-1.68728e-11
5.94835e-09
-3.10081e-11
5.99069e-09
-4.38812e-11
6.04489e-09
-5.56087e-11
6.10992e-09
-6.63116e-11
6.18482e-09
-7.61041e-11
6.26874e-09
-8.50896e-11
6.36087e-09
-9.33585e-11
6.46045e-09
-1.00984e-10
6.56682e-09
-1.0802e-10
6.67933e-09
-1.14503e-10
6.79742e-09
-1.20455e-10
6.92055e-09
-1.25889e-10
7.04823e-09
-1.30815e-10
7.18003e-09
-1.35248e-10
7.31554e-09
-1.3921e-10
7.45442e-09
-1.42725e-10
7.59636e-09
-1.45822e-10
7.74111e-09
-1.48529e-10
7.88842e-09
-1.50877e-10
8.03806e-09
-1.52897e-10
8.18984e-09
-1.54626e-10
8.34357e-09
-1.56113e-10
8.49911e-09
-1.57416e-10
8.65631e-09
-1.58591e-10
8.81509e-09
-1.59696e-10
8.97535e-09
-1.60786e-10
9.13707e-09
-1.61907e-10
9.30021e-09
-1.63088e-10
9.46475e-09
-1.64342e-10
9.63068e-09
-1.65676e-10
9.79796e-09
-1.67087e-10
9.96659e-09
-1.68563e-10
1.01365e-08
-1.70087e-10
1.03078e-08
-1.71645e-10
1.04804e-08
-1.73217e-10
1.06543e-08
-1.74779e-10
1.08294e-08
-1.76297e-10
1.10059e-08
-1.77741e-10
1.11835e-08
-1.7908e-10
1.13623e-08
-1.80283e-10
1.15421e-08
-1.81315e-10
1.17229e-08
-1.82156e-10
1.19045e-08
-1.82798e-10
1.20867e-08
-1.83246e-10
1.22695e-08
-1.83507e-10
1.24527e-08
-1.83595e-10
1.2636e-08
-1.83527e-10
1.28193e-08
-1.83313e-10
1.30024e-08
-1.82956e-10
1.31852e-08
-1.8245e-10
1.33674e-08
-1.81795e-10
1.35489e-08
-1.81e-10
1.37294e-08
-1.80073e-10
1.39088e-08
-1.79023e-10
1.40868e-08
-1.77856e-10
1.42633e-08
-1.76576e-10
1.44381e-08
-1.75181e-10
1.46113e-08
-1.73664e-10
1.47825e-08
-1.72015e-10
1.49519e-08
-1.70234e-10
1.51193e-08
-1.68334e-10
1.52848e-08
-1.66336e-10
1.54482e-08
-1.64268e-10
1.56096e-08
-1.62157e-10
1.57691e-08
-1.60031e-10
1.59267e-08
-1.57918e-10
1.60825e-08
-1.55847e-10
1.62365e-08
-1.53858e-10
1.6389e-08
-1.52001e-10
1.654e-08
-1.50328e-10
1.66897e-08
-1.48884e-10
1.68382e-08
-1.47689e-10
1.69857e-08
-1.46744e-10
1.71325e-08
-1.46041e-10
1.72787e-08
-1.45574e-10
1.74246e-08
-1.45345e-10
1.75703e-08
-1.45358e-10
1.77162e-08
-1.45609e-10
1.78625e-08
-1.46087e-10
1.80094e-08
-1.46773e-10
1.81572e-08
-1.4766e-10
1.83062e-08
-1.48755e-10
1.84565e-08
-1.50084e-10
1.86086e-08
-1.51674e-10
1.87625e-08
-1.53535e-10
1.89186e-08
-1.55653e-10
1.90771e-08
-1.58e-10
1.92383e-08
-1.60549e-10
1.94022e-08
-1.63289e-10
1.9569e-08
-1.66207e-10
1.97389e-08
-1.69263e-10
1.99118e-08
-1.72379e-10
2.00877e-08
-1.75445e-10
2.02665e-08
-1.78347e-10
2.04479e-08
-1.80975e-10
2.06316e-08
-1.83206e-10
2.08169e-08
-1.84878e-10
2.10031e-08
-1.85772e-10
2.11891e-08
-1.85634e-10
2.13738e-08
-1.84192e-10
2.15553e-08
-1.81156e-10
2.17317e-08
-1.76191e-10
2.19007e-08
-1.68895e-10
2.20595e-08
-1.58797e-10
2.22046e-08
-1.45389e-10
2.23323e-08
-1.28147e-10
2.24383e-08
-1.06528e-10
2.25175e-08
-7.99522e-11
2.25644e-08
-4.78054e-11
2.25731e-08
-9.61489e-12
2.25368e-08
3.53971e-11
2.24474e-08
8.83128e-11
2.22965e-08
1.4991e-10
2.20747e-08
2.20778e-10
2.17723e-08
3.014e-10
2.13793e-08
3.92105e-10
2.08853e-08
4.93064e-10
2.02802e-08
6.0428e-10
1.9554e-08
7.2548e-10
1.86973e-08
8.55999e-10
1.77018e-08
9.94727e-10
1.6561e-08
1.14008e-09
1.52703e-08
1.28984e-09
1.38285e-08
1.44094e-09
1.22383e-08
1.58927e-09
1.05078e-08
1.7295e-09
8.65194e-09
1.85477e-09
6.69475e-09
1.95599e-09
4.67216e-09
2.02124e-09
2.6362e-09
2.03448e-09
6.6042e-10
1.97418e-09
-1.14398e-09
1.80281e-09
-2.62341e-09
1.47803e-09
-3.58779e-09
9.63152e-10
-3.81617e-09
2.27167e-10
-3.13557e-09
-6.81945e-10
-1.62527e-09
-1.51182e-09
-1.62653e-09
-1.08064e-09
-6.64642e-13
2.02142e-09
-1.78979e-09
-1.56656e-12
1.86627e-09
-1.84998e-09
-8.45011e-13
8.44326e-10
-1.38085e-09
-3.35167e-13
-2.34999e-10
-5.11314e-10
-1.70872e-13
-1.1636e-09
6.5605e-10
-2.19153e-13
-1.89168e-09
2.03777e-09
-3.40693e-13
-2.42649e-09
3.56452e-09
-4.3558e-13
-2.79533e-09
5.18162e-09
-4.51976e-13
-3.02565e-09
6.84389e-09
-4.10999e-13
-3.14342e-09
8.51218e-09
-3.57437e-13
-3.17294e-09
1.01545e-08
-3.06825e-13
-3.13155e-09
1.17446e-08
-2.59099e-13
-3.03336e-09
1.32613e-08
-2.10229e-13
-2.88971e-09
1.46873e-08
-1.59642e-13
-2.71002e-09
1.60091e-08
-1.10711e-13
-2.50226e-09
1.72162e-08
-6.73153e-14
-2.27334e-09
1.8301e-08
-3.12109e-14
-2.02936e-09
1.92583e-08
-2.23813e-15
-1.77573e-09
2.00853e-08
2.02036e-14
-1.51732e-09
2.07812e-08
3.66628e-14
-1.25848e-09
2.13472e-08
4.82178e-14
-1.00314e-09
2.17861e-08
5.66476e-14
-7.54795e-10
2.21022e-08
6.3474e-14
-5.16565e-10
2.23008e-08
6.8835e-14
-2.91184e-10
2.23883e-08
7.09516e-14
-8.09727e-11
2.23724e-08
6.80457e-14
1.12919e-10
2.22622e-08
5.97653e-14
2.89933e-10
2.20664e-08
4.6726e-14
4.49255e-10
2.17943e-08
3.05489e-14
5.90316e-10
2.14552e-08
1.35144e-14
7.1284e-10
2.10585e-08
-1.21125e-15
8.1684e-10
2.06134e-08
-9.46217e-15
9.02602e-10
2.01291e-08
-6.95305e-15
9.70657e-10
1.96142e-08
8.94093e-15
1.02176e-09
1.90771e-08
3.77183e-14
1.05683e-09
1.85258e-08
7.57848e-14
1.07696e-09
1.79676e-08
1.17914e-13
1.08335e-09
1.74092e-08
1.58864e-13
1.07728e-09
1.68566e-08
1.94015e-13
1.06008e-09
1.63153e-08
2.19061e-13
1.0331e-09
1.579e-08
2.29896e-13
9.97689e-10
1.52848e-08
2.23427e-13
9.5517e-10
1.48031e-08
1.99036e-13
9.06816e-10
1.43477e-08
1.59794e-13
8.53836e-10
1.39206e-08
1.12317e-13
7.9736e-10
1.35235e-08
6.45341e-14
7.3843e-10
1.31575e-08
2.27791e-14
6.77992e-10
1.28232e-08
-9.09908e-15
6.16891e-10
1.25208e-08
-2.92168e-14
5.55876e-10
1.22502e-08
-3.82656e-14
4.95589e-10
1.20109e-08
-3.93726e-14
4.36571e-10
1.18021e-08
-3.54532e-14
3.79267e-10
1.1623e-08
-2.88219e-14
3.24034e-10
1.14725e-08
-2.37548e-14
2.71137e-10
1.13492e-08
-2.4549e-14
2.20769e-10
1.12518e-08
-3.06297e-14
1.73054e-10
1.11789e-08
-3.84885e-14
1.28052e-10
1.11291e-08
-4.66853e-14
8.57622e-11
1.11009e-08
-5.41869e-14
4.61486e-11
1.10927e-08
-5.75932e-14
9.14164e-12
1.11033e-08
-5.54762e-14
-2.518e-11
1.11312e-08
-5.11831e-14
-5.67794e-11
1.11752e-08
-4.80466e-14
-8.58123e-11
1.12339e-08
-4.67068e-14
-1.12423e-10
1.13061e-08
-4.78233e-14
-1.36767e-10
1.13907e-08
-5.36698e-14
-1.59e-10
1.14866e-08
-6.63901e-14
-1.79267e-10
1.15927e-08
-8.67515e-14
-1.97711e-10
1.17082e-08
-1.13844e-13
-2.14468e-10
1.1832e-08
-1.44996e-13
-2.29666e-10
1.19635e-08
-1.77128e-13
-2.43431e-10
1.21018e-08
-2.08241e-13
-2.55883e-10
1.22464e-08
-2.36531e-13
-2.67129e-10
1.23965e-08
-2.59486e-13
-2.77267e-10
1.25516e-08
-2.75598e-13
-2.86397e-10
1.27112e-08
-2.85484e-13
-2.94619e-10
1.28748e-08
-2.89373e-13
-3.0202e-10
1.3042e-08
-2.84887e-13
-3.08675e-10
1.32124e-08
-2.69536e-13
-3.14655e-10
1.33855e-08
-2.44182e-13
-3.2004e-10
1.35612e-08
-2.11862e-13
-3.24901e-10
1.37392e-08
-1.74674e-13
-3.29293e-10
1.39191e-08
-1.34604e-13
-3.33271e-10
1.41009e-08
-9.59969e-14
-3.36901e-10
1.42843e-08
-6.37016e-14
-3.40247e-10
1.44693e-08
-3.91201e-14
-3.43353e-10
1.46557e-08
-2.07676e-14
-3.46263e-10
1.48433e-08
-7.87379e-15
-3.49024e-10
1.50323e-08
-7.33676e-16
-3.51683e-10
1.52224e-08
1.4862e-15
-3.54263e-10
1.54136e-08
2.18244e-16
-3.56778e-10
1.56059e-08
-4.71465e-15
-3.59245e-10
1.57994e-08
-1.41346e-14
-3.61685e-10
1.59939e-08
-2.68259e-14
-3.64107e-10
1.61895e-08
-4.01869e-14
-3.66508e-10
1.63862e-08
-5.30877e-14
-3.68884e-10
1.65839e-08
-6.5765e-14
-3.71228e-10
1.67825e-08
-7.71819e-14
-3.73519e-10
1.69822e-08
-8.47859e-14
-3.75723e-10
1.71827e-08
-8.69879e-14
-3.77812e-10
1.7384e-08
-8.40923e-14
-3.79761e-10
1.7586e-08
-7.6792e-14
-3.81541e-10
1.77886e-08
-6.56316e-14
-3.83113e-10
1.79918e-08
-5.22741e-14
-3.84437e-10
1.81953e-08
-3.9424e-14
-3.85482e-10
1.83991e-08
-2.85927e-14
-3.86219e-10
1.86029e-08
-1.90014e-14
-3.86622e-10
1.88066e-08
-9.28241e-15
-3.86663e-10
1.90099e-08
8.2391e-16
-3.86324e-10
1.92127e-08
1.10927e-14
-3.85592e-10
1.94147e-08
2.17229e-14
-3.84459e-10
1.96157e-08
3.21458e-14
-3.82917e-10
1.98155e-08
3.9391e-14
-3.80968e-10
2.0014e-08
3.91765e-14
-3.78625e-10
2.02109e-08
2.91395e-14
-3.75907e-10
2.0406e-08
1.06422e-14
-3.72841e-10
2.05993e-08
-1.23297e-14
-3.69455e-10
2.07905e-08
-3.50945e-14
-3.65783e-10
2.09795e-08
-5.33665e-14
-3.61868e-10
2.11662e-08
-6.43145e-14
-3.57753e-10
2.13506e-08
-6.82207e-14
-3.53486e-10
2.15325e-08
-6.87431e-14
-3.49116e-10
2.17119e-08
-6.98777e-14
-3.44689e-10
2.18889e-08
-7.1608e-14
-3.4025e-10
2.20635e-08
-6.89424e-14
-3.35843e-10
2.22357e-08
-5.60316e-14
-3.31512e-10
2.24055e-08
-3.1599e-14
-3.273e-10
2.25731e-08
-5.13626e-16
-3.23251e-10
2.27385e-08
2.94786e-14
-3.19408e-10
2.2902e-08
5.22759e-14
-3.15808e-10
2.30637e-08
6.55146e-14
-3.12488e-10
2.32237e-08
6.99358e-14
-3.09481e-10
2.33821e-08
6.78579e-14
-3.06816e-10
2.35393e-08
6.18474e-14
-3.04523e-10
2.36953e-08
5.34205e-14
-3.02627e-10
2.38504e-08
4.21679e-14
-3.01155e-10
2.40048e-08
2.6695e-14
-3.00127e-10
2.41588e-08
7.59622e-15
-2.99562e-10
2.43125e-08
-1.02178e-14
-2.99473e-10
2.44663e-08
-1.92751e-14
-2.99875e-10
2.46204e-08
-1.52251e-14
-3.00785e-10
2.4775e-08
-1.50116e-15
-3.02213e-10
2.49304e-08
1.23915e-14
-3.04166e-10
2.50869e-08
1.87572e-14
-3.06641e-10
2.52448e-08
1.88234e-14
-3.0963e-10
2.54042e-08
2.16952e-14
-3.13122e-10
2.55655e-08
3.50517e-14
-3.17104e-10
2.57288e-08
5.60604e-14
-3.21553e-10
2.58944e-08
7.19139e-14
-3.26429e-10
2.60625e-08
7.06945e-14
-3.31669e-10
2.62332e-08
5.28003e-14
-3.37188e-10
2.64066e-08
3.15991e-14
-3.42879e-10
2.65826e-08
2.18477e-14
-3.48611e-10
2.67612e-08
2.66323e-14
-3.54223e-10
2.69422e-08
3.5712e-14
-3.59507e-10
2.71252e-08
3.70722e-14
-3.64206e-10
2.73098e-08
2.96679e-14
-3.68011e-10
2.74952e-08
2.35721e-14
-3.70556e-10
2.76807e-08
2.73807e-14
-3.71416e-10
2.78649e-08
3.75664e-14
-3.70094e-10
2.80464e-08
4.26288e-14
-3.66011e-10
2.82236e-08
3.68816e-14
-3.585e-10
2.83941e-08
2.62668e-14
-3.46817e-10
2.85553e-08
1.87183e-14
-3.30147e-10
2.87042e-08
1.23473e-14
-3.07585e-10
2.88373e-08
-1.93164e-15
-2.78126e-10
2.89502e-08
-2.64782e-14
-2.40678e-10
2.90384e-08
-5.11216e-14
-1.94095e-10
2.90963e-08
-6.43894e-14
-1.37191e-10
2.9118e-08
-6.70178e-14
-6.87199e-11
2.90967e-08
-6.90879e-14
1.25588e-11
2.90247e-08
-7.42979e-14
1.08158e-10
2.88942e-08
-7.47803e-14
2.19708e-10
2.86963e-08
-6.40949e-14
3.48558e-10
2.8422e-08
-4.92809e-14
4.95894e-10
2.80614e-08
-4.27141e-14
6.62717e-10
2.76043e-08
-4.45402e-14
8.49743e-10
2.70406e-08
-4.42413e-14
1.05731e-09
2.636e-08
-3.89831e-14
1.28535e-09
2.55525e-08
-3.60905e-14
1.53326e-09
2.4609e-08
-3.47907e-14
1.79979e-09
2.35212e-08
-2.44871e-14
2.08277e-09
2.22826e-08
-8.08206e-15
2.37896e-09
2.08888e-08
-3.43058e-15
2.68388e-09
1.93384e-08
-1.19838e-14
2.99156e-09
1.76339e-08
-1.63084e-14
3.29408e-09
1.57826e-08
-1.70577e-14
3.58121e-09
1.37981e-08
-3.12432e-14
3.83978e-09
1.17017e-08
-5.26427e-14
4.05288e-09
9.52503e-09
-6.35462e-14
4.19866e-09
7.31182e-09
-6.44766e-14
4.24848e-09
5.1216e-09
-5.08265e-14
4.16523e-09
3.02877e-09
-2.32107e-14
3.89642e-09
1.12698e-09
-1.29385e-14
3.38041e-09
-4.61974e-10
-1.9868e-14
2.55266e-09
-1.58705e-09
-3.50416e-14
1.35286e-09
-2.04241e-09
-5.53125e-14
-2.25999e-10
-1.51769e-09
-4.80034e-14
-2.03588e-09
5.32987e-14
-3.14322e-09
-1.08427e-09
2.02835e-09
-1.78736e-09
1.86963e-09
-1.848e-09
8.4508e-10
-1.38043e-09
-2.34859e-10
-5.11762e-10
-1.16327e-09
6.55365e-10
-1.89093e-09
2.03727e-09
-2.4254e-09
3.56444e-09
-2.79414e-09
5.18189e-09
-3.02457e-09
6.8443e-09
-3.14254e-09
8.51261e-09
-3.17223e-09
1.01549e-08
-3.13099e-09
1.17449e-08
-3.03292e-09
1.32615e-08
-2.88937e-09
1.46875e-08
-2.70976e-09
1.60093e-08
-2.50207e-09
1.72164e-08
-2.27323e-09
1.83012e-08
-2.02932e-09
1.92585e-08
-1.77577e-09
2.00855e-08
-1.51741e-09
2.07814e-08
-1.25863e-09
2.13474e-08
-1.00332e-09
2.17863e-08
-7.54987e-10
2.21023e-08
-5.16762e-10
2.23009e-08
-2.91373e-10
2.23884e-08
-8.11446e-11
2.23725e-08
1.12773e-10
2.22623e-08
2.89821e-10
2.20665e-08
4.49184e-10
2.17944e-08
5.90289e-10
2.14553e-08
7.12855e-10
2.10586e-08
8.16886e-10
2.06135e-08
9.02659e-10
2.01292e-08
9.70699e-10
1.96143e-08
1.02175e-09
1.90773e-08
1.05675e-09
1.85261e-08
1.07679e-09
1.79679e-08
1.08308e-09
1.74095e-08
1.0769e-09
1.68569e-08
1.05961e-09
1.63156e-08
1.03257e-09
1.57904e-08
9.97128e-10
1.52851e-08
9.54624e-10
1.48034e-08
9.06326e-10
1.43478e-08
8.53437e-10
1.39207e-08
7.97074e-10
1.35235e-08
7.38267e-10
1.31575e-08
6.77947e-10
1.28232e-08
6.16953e-10
1.25208e-08
5.56018e-10
1.22502e-08
4.95779e-10
1.20109e-08
4.36779e-10
1.18023e-08
3.79472e-10
1.16232e-08
3.24215e-10
1.14727e-08
2.71286e-10
1.13494e-08
2.20894e-10
1.12521e-08
1.73168e-10
1.11792e-08
1.2816e-10
1.11294e-08
8.58668e-11
1.11011e-08
4.62558e-11
1.10929e-08
9.25919e-12
1.11035e-08
-2.50539e-11
1.11314e-08
-5.66553e-11
1.11754e-08
-8.56937e-11
1.12341e-08
-1.12308e-10
1.13063e-08
-1.3665e-10
1.13909e-08
-1.58869e-10
1.14867e-08
-1.79105e-10
1.15928e-08
-1.97495e-10
1.17082e-08
-2.14171e-10
1.1832e-08
-2.29272e-10
1.19634e-08
-2.42933e-10
1.21017e-08
-2.5528e-10
1.22463e-08
-2.6643e-10
1.23964e-08
-2.76491e-10
1.25516e-08
-2.85573e-10
1.27113e-08
-2.93778e-10
1.28749e-08
-3.01192e-10
1.30422e-08
-3.07888e-10
1.32126e-08
-3.13944e-10
1.33858e-08
-3.19428e-10
1.35615e-08
-3.24396e-10
1.37395e-08
-3.28895e-10
1.39194e-08
-3.32978e-10
1.41012e-08
-3.36707e-10
1.42846e-08
-3.40134e-10
1.44695e-08
-3.43303e-10
1.46559e-08
-3.46258e-10
1.48435e-08
-3.49045e-10
1.50324e-08
-3.51703e-10
1.52225e-08
-3.54263e-10
1.54136e-08
-3.5675e-10
1.5606e-08
-3.59189e-10
1.57994e-08
-3.61594e-10
1.59939e-08
-3.63972e-10
1.61896e-08
-3.66329e-10
1.63862e-08
-3.68669e-10
1.65839e-08
-3.70987e-10
1.67826e-08
-3.73262e-10
1.69823e-08
-3.75469e-10
1.71828e-08
-3.77577e-10
1.73841e-08
-3.79557e-10
1.75861e-08
-3.81369e-10
1.77888e-08
-3.82973e-10
1.79919e-08
-3.84334e-10
1.81955e-08
-3.85418e-10
1.83993e-08
-3.86191e-10
1.86031e-08
-3.86624e-10
1.88067e-08
-3.86692e-10
1.901e-08
-3.86375e-10
1.92128e-08
-3.85656e-10
1.94148e-08
-3.84525e-10
1.96158e-08
-3.82977e-10
1.98156e-08
-3.81018e-10
2.00141e-08
-3.78661e-10
2.0211e-08
-3.75926e-10
2.04062e-08
-3.72836e-10
2.05994e-08
-3.69422e-10
2.07906e-08
-3.6572e-10
2.09796e-08
-3.61773e-10
2.11662e-08
-3.57625e-10
2.13506e-08
-3.53327e-10
2.15325e-08
-3.48933e-10
2.1712e-08
-3.44495e-10
2.1889e-08
-3.40063e-10
2.20636e-08
-3.35684e-10
2.22357e-08
-3.31397e-10
2.24055e-08
-3.27241e-10
2.25731e-08
-3.2325e-10
2.27386e-08
-3.19461e-10
2.29021e-08
-3.15907e-10
2.30638e-08
-3.12621e-10
2.32238e-08
-3.09633e-10
2.33823e-08
-3.06974e-10
2.35394e-08
-3.04672e-10
2.36954e-08
-3.02758e-10
2.38505e-08
-3.01258e-10
2.40049e-08
-3.00196e-10
2.41589e-08
-2.99594e-10
2.43126e-08
-2.99475e-10
2.44664e-08
-2.99859e-10
2.46204e-08
-3.00763e-10
2.4775e-08
-3.02194e-10
2.49305e-08
-3.04155e-10
2.5087e-08
-3.06645e-10
2.52449e-08
-3.0966e-10
2.54043e-08
-3.13191e-10
2.55656e-08
-3.17215e-10
2.57289e-08
-3.21695e-10
2.58946e-08
-3.26582e-10
2.60627e-08
-3.31815e-10
2.62334e-08
-3.3732e-10
2.64067e-08
-3.43003e-10
2.65827e-08
-3.48733e-10
2.67613e-08
-3.54342e-10
2.69422e-08
-3.59616e-10
2.71253e-08
-3.64303e-10
2.73099e-08
-3.681e-10
2.74953e-08
-3.70646e-10
2.76807e-08
-3.71512e-10
2.78649e-08
-3.7019e-10
2.80465e-08
-3.66094e-10
2.82237e-08
-3.58566e-10
2.83942e-08
-3.46874e-10
2.85554e-08
-3.30203e-10
2.87043e-08
-3.07631e-10
2.88374e-08
-2.78141e-10
2.89503e-08
-2.40652e-10
2.90384e-08
-1.94034e-10
2.90963e-08
-1.37101e-10
2.9118e-08
-6.85938e-11
2.90966e-08
1.27266e-11
2.90247e-08
1.08347e-10
2.88942e-08
2.19885e-10
2.86964e-08
3.48708e-10
2.84221e-08
4.9603e-10
2.80615e-08
6.62848e-10
2.76045e-08
8.4986e-10
2.70407e-08
1.05741e-09
2.63601e-08
1.28544e-09
2.55527e-08
1.53337e-09
2.46091e-08
1.79989e-09
2.35213e-08
2.08283e-09
2.22827e-08
2.37899e-09
2.08889e-08
2.68392e-09
1.93385e-08
2.99161e-09
1.7634e-08
3.29414e-09
1.57827e-08
3.58129e-09
1.37981e-08
3.8399e-09
1.17018e-08
4.05302e-09
9.52504e-09
4.19882e-09
7.31182e-09
4.24866e-09
5.12166e-09
4.16538e-09
3.02889e-09
3.89652e-09
1.12715e-09
3.38049e-09
-4.61805e-10
2.55268e-09
-1.58687e-09
1.35283e-09
-2.04199e-09
-2.26116e-10
-1.51673e-09
-2.03635e-09
-3.14382e-09
-6.77337e-10
1.12429e-12
2.68344e-09
-6.92273e-10
-1.48639e-13
1.87991e-09
-1.83501e-10
-2.26512e-13
3.33723e-10
6.5643e-10
-1.06027e-13
-1.07596e-09
1.72879e-09
-6.28693e-15
-2.2368e-09
2.97803e-09
3.60452e-14
-3.14177e-09
4.36171e-09
3.28167e-14
-3.81105e-09
5.8416e-09
7.23479e-15
-4.27609e-09
7.38368e-09
-1.47271e-14
-4.56856e-09
8.95717e-09
-2.44048e-14
-4.71767e-09
1.05332e-08
-2.86621e-14
-4.74959e-09
1.20865e-08
-3.15382e-14
-4.68543e-09
1.35954e-08
-3.27368e-14
-4.54272e-09
1.50414e-08
-3.11198e-14
-4.33607e-09
1.6409e-08
-2.71447e-14
-4.07793e-09
1.76856e-08
-2.23183e-14
-3.77903e-09
1.8861e-08
-1.74895e-14
-3.44885e-09
1.99274e-08
-1.24628e-14
-3.09583e-09
2.08792e-08
-6.95834e-15
-2.72757e-09
2.17128e-08
-1.3301e-15
-2.35095e-09
2.24266e-08
3.77596e-15
-1.9722e-09
2.30205e-08
8.22807e-15
-1.59697e-09
2.34961e-08
1.26076e-14
-1.23029e-09
2.38563e-08
1.75481e-14
-8.76668e-10
2.41052e-08
2.29476e-14
-5.39998e-10
2.42478e-08
2.80156e-14
-2.23534e-10
2.42905e-08
3.16244e-14
7.02957e-11
2.42407e-08
3.28479e-14
3.39786e-10
2.41063e-08
3.12104e-14
5.83697e-10
2.38955e-08
2.63929e-14
8.0111e-10
2.36169e-08
1.85144e-14
9.91508e-10
2.3279e-08
8.74581e-15
1.15478e-09
2.28905e-08
-5.49248e-16
1.29119e-09
2.24598e-08
-6.64801e-15
1.40137e-09
2.19954e-08
-7.78283e-15
1.48629e-09
2.15052e-08
-3.86948e-15
1.54716e-09
2.09968e-08
3.88244e-15
1.58547e-09
2.04775e-08
1.4009e-14
1.60286e-09
1.99538e-08
2.54837e-14
1.60113e-09
1.9432e-08
3.75253e-14
1.58218e-09
1.89173e-08
4.89782e-14
1.54796e-09
1.84149e-08
5.81177e-14
1.50042e-09
1.79287e-08
6.31986e-14
1.44152e-09
1.74626e-08
6.33311e-14
1.37316e-09
1.70194e-08
5.90722e-14
1.29714e-09
1.66017e-08
5.21894e-14
1.2152e-09
1.62113e-08
4.44686e-14
1.12891e-09
1.58496e-08
3.67649e-14
1.03973e-09
1.55174e-08
2.95201e-14
9.48993e-10
1.52154e-08
2.33944e-14
8.57855e-10
1.49436e-08
1.87297e-14
7.67336e-10
1.47017e-08
1.56787e-14
6.78302e-10
1.44894e-08
1.52073e-14
5.91475e-10
1.43059e-08
1.7825e-14
5.07447e-10
1.41502e-08
2.15805e-14
4.26676e-10
1.40213e-08
2.40752e-14
3.49506e-10
1.3918e-08
2.54236e-14
2.76177e-10
1.38391e-08
2.63934e-14
2.06839e-10
1.37831e-08
2.57733e-14
1.41553e-10
1.37488e-08
2.25191e-14
8.03203e-11
1.37347e-08
1.77022e-14
2.3109e-11
1.37394e-08
1.3041e-14
-3.00758e-11
1.37618e-08
8.45228e-15
-7.92724e-11
1.38005e-08
3.05084e-15
-1.24632e-10
1.38543e-08
-1.97909e-15
-1.66336e-10
1.3922e-08
-4.47522e-15
-2.04584e-10
1.40025e-08
-4.09234e-15
-2.39587e-10
1.40946e-08
-2.94755e-15
-2.71556e-10
1.41975e-08
-3.42069e-15
-3.00699e-10
1.43101e-08
-5.81592e-15
-3.27213e-10
1.44315e-08
-8.95676e-15
-3.51286e-10
1.45609e-08
-1.26447e-14
-3.73104e-10
1.46976e-08
-1.79604e-14
-3.92843e-10
1.48408e-08
-2.52613e-14
-4.10668e-10
1.49899e-08
-3.35986e-14
-4.26733e-10
1.51444e-08
-4.22479e-14
-4.41184e-10
1.53035e-08
-5.11375e-14
-4.54162e-10
1.5467e-08
-5.9334e-14
-4.65805e-10
1.56342e-08
-6.4663e-14
-4.76239e-10
1.58048e-08
-6.58208e-14
-4.85581e-10
1.59785e-08
-6.36922e-14
-4.93946e-10
1.61548e-08
-5.95037e-14
-5.01452e-10
1.63335e-08
-5.3068e-14
-5.08204e-10
1.65144e-08
-4.43052e-14
-5.143e-10
1.66972e-08
-3.50039e-14
-5.19831e-10
1.68818e-08
-2.72799e-14
-5.24886e-10
1.7068e-08
-2.1521e-14
-5.29551e-10
1.72556e-08
-1.72162e-14
-5.33907e-10
1.74447e-08
-1.40758e-14
-5.38019e-10
1.7635e-08
-1.1018e-14
-5.41939e-10
1.78265e-08
-6.2607e-15
-5.45714e-10
1.80191e-08
-1.38863e-16
-5.49386e-10
1.82128e-08
4.27133e-15
-5.52986e-10
1.84077e-08
5.03267e-15
-5.56534e-10
1.86036e-08
3.80413e-15
-5.60034e-10
1.88005e-08
2.81793e-15
-5.63487e-10
1.89984e-08
1.56849e-15
-5.66888e-10
1.91973e-08
-1.51622e-15
-5.70215e-10
1.93971e-08
-5.90952e-15
-5.73437e-10
1.95978e-08
-9.57856e-15
-5.76519e-10
1.97993e-08
-1.1428e-14
-5.79426e-10
2.00015e-08
-1.13504e-14
-5.82113e-10
2.02044e-08
-9.14051e-15
-5.84523e-10
2.04078e-08
-5.32871e-15
-5.86604e-10
2.06116e-08
-2.11872e-15
-5.88315e-10
2.08157e-08
-1.39861e-15
-5.89613e-10
2.10199e-08
-2.2293e-15
-5.90451e-10
2.12241e-08
-2.07358e-15
-5.9078e-10
2.1428e-08
-2.01576e-16
-5.90566e-10
2.16315e-08
1.91336e-15
-5.89787e-10
2.18344e-08
3.46762e-15
-5.88427e-10
2.20364e-08
5.58432e-15
-5.86467e-10
2.22375e-08
9.07591e-15
-5.83903e-10
2.24373e-08
1.2583e-14
-5.80746e-10
2.26357e-08
1.40616e-14
-5.77017e-10
2.28326e-08
1.31149e-14
-5.7274e-10
2.30277e-08
1.07843e-14
-5.67942e-10
2.32209e-08
7.85433e-15
-5.62665e-10
2.34121e-08
4.68355e-15
-5.56966e-10
2.3601e-08
2.17471e-15
-5.50905e-10
2.37878e-08
1.13967e-15
-5.44544e-10
2.39721e-08
2.98576e-16
-5.37946e-10
2.41541e-08
-3.5417e-15
-5.31183e-10
2.43337e-08
-1.19737e-14
-5.24328e-10
2.45109e-08
-2.2123e-14
-5.17449e-10
2.46856e-08
-2.84545e-14
-5.10615e-10
2.4858e-08
-2.76138e-14
-5.03894e-10
2.50281e-08
-2.08841e-14
-4.97359e-10
2.5196e-08
-1.19852e-14