/*--------------------------------*- C++ -*----------------------------------*\
  =========                 |
  \\      /  F ield         | OpenFOAM: The Open Source CFD Toolbox
   \\    /   O peration     | Website:  https://openfoam.org
    \\  /    A nd           | Version:  8
     \\/     M anipulation  |
\*---------------------------------------------------------------------------*/
FoamFile
{
    version     2.0;
    format      ascii;
    class       volScalarField;
    location    "1000";
    object      T;
}
// * * * * * * * * * * * * * * * * * * * * * * * * * * * * * * * * * * * * * //

dimensions      [0 0 0 1 0 0 0];

internalField   nonuniform List<scalar> 
46000
(
311.193
310.592
309.843
309.198
308.661
308.225
307.883
307.613
307.397
307.23
307.099
306.997
306.919
306.861
306.821
306.796
306.785
306.786
306.797
306.818
306.848
306.885
306.93
306.98
307.035
307.094
307.155
307.217
307.281
307.347
307.414
307.483
307.551
307.62
307.688
307.755
307.821
307.885
307.946
308.005
308.061
308.115
308.165
308.212
308.256
308.296
308.334
308.368
308.4
308.428
308.454
308.477
308.498
308.517
308.533
308.548
308.561
308.572
308.582
308.59
308.597
308.602
308.606
308.609
308.611
308.613
308.613
308.613
308.613
308.612
308.61
308.608
308.605
308.602
308.599
308.595
308.591
308.587
308.582
308.577
308.571
308.566
308.56
308.553
308.547
308.54
308.533
308.525
308.518
308.51
308.502
308.493
308.485
308.476
308.467
308.457
308.448
308.438
308.428
308.418
308.408
308.398
308.388
308.377
308.367
308.356
308.346
308.335
308.324
308.314
308.303
308.293
308.282
308.272
308.262
308.252
308.242
308.232
308.222
308.212
308.203
308.193
308.184
308.175
308.165
308.156
308.147
308.138
308.129
308.12
308.111
308.102
308.092
308.083
308.074
308.064
308.054
308.045
308.035
308.024
308.014
308.003
307.992
307.981
307.969
307.957
307.945
307.933
307.92
307.907
307.893
307.879
307.865
307.851
307.837
307.822
307.808
307.793
307.779
307.766
307.752
307.74
307.728
307.718
307.709
307.702
307.696
307.693
307.693
307.696
307.702
307.712
307.726
307.744
307.767
307.795
307.83
307.871
307.92
307.977
308.043
308.118
308.204
308.3
308.409
308.529
308.662
308.808
308.967
309.138
309.319
309.509
309.704
309.902
310.095
310.285
310.485
310.703
310.985
311.293
311.193
310.592
309.843
309.198
308.661
308.225
307.883
307.613
307.397
307.23
307.099
306.997
306.919
306.861
306.821
306.796
306.785
306.786
306.797
306.818
306.848
306.885
306.929
306.98
307.035
307.094
307.155
307.217
307.281
307.347
307.414
307.483
307.552
307.62
307.688
307.755
307.821
307.885
307.946
308.005
308.061
308.115
308.165
308.212
308.256
308.296
308.334
308.368
308.4
308.428
308.454
308.477
308.498
308.517
308.533
308.548
308.561
308.572
308.582
308.59
308.597
308.602
308.606
308.609
308.611
308.612
308.613
308.613
308.613
308.612
308.61
308.608
308.605
308.602
308.599
308.595
308.591
308.587
308.582
308.577
308.572
308.566
308.56
308.553
308.547
308.54
308.533
308.525
308.518
308.51
308.502
308.493
308.485
308.476
308.467
308.457
308.448
308.438
308.428
308.418
308.408
308.398
308.388
308.377
308.367
308.356
308.346
308.335
308.324
308.314
308.303
308.293
308.282
308.272
308.262
308.252
308.242
308.232
308.222
308.212
308.203
308.193
308.184
308.175
308.165
308.156
308.147
308.138
308.129
308.12
308.111
308.102
308.092
308.083
308.074
308.064
308.054
308.045
308.035
308.024
308.014
308.003
307.992
307.981
307.969
307.957
307.945
307.933
307.92
307.907
307.893
307.879
307.865
307.851
307.837
307.822
307.808
307.793
307.779
307.766
307.752
307.74
307.728
307.718
307.709
307.702
307.696
307.693
307.693
307.696
307.702
307.712
307.726
307.744
307.767
307.795
307.83
307.871
307.92
307.977
308.043
308.118
308.204
308.3
308.409
308.529
308.662
308.808
308.967
309.138
309.319
309.509
309.704
309.902
310.095
310.285
310.485
310.703
310.985
311.293
308
307.101
306.195
305.484
304.945
304.543
304.242
304.017
303.848
303.723
303.632
303.568
303.527
303.504
303.496
303.502
303.52
303.548
303.585
303.63
303.682
303.741
303.806
303.875
303.948
304.026
304.106
304.188
304.271
304.354
304.439
304.523
304.606
304.689
304.769
304.848
304.925
304.999
305.07
305.137
305.201
305.262
305.318
305.371
305.419
305.464
305.505
305.543
305.576
305.607
305.634
305.659
305.681
305.7
305.718
305.733
305.746
305.758
305.768
305.777
305.785
305.792
305.798
305.803
305.807
305.811
305.814
305.816
305.819
305.821
305.823
305.824
305.826
305.827
305.828
305.829
305.829
305.83
305.831
305.831
305.831
305.831
305.831
305.831
305.831
305.83
305.83
305.829
305.828
305.827
305.826
305.824
305.823
305.821
305.819
305.817
305.815
305.812
305.81
305.807
305.804
305.801
305.798
305.795
305.792
305.789
305.785
305.782
305.779
305.775
305.772
305.768
305.765
305.762
305.759
305.755
305.752
305.749
305.746
305.743
305.741
305.738
305.735
305.732
305.729
305.727
305.724
305.721
305.719
305.716
305.713
305.71
305.707
305.704
305.701
305.697
305.694
305.69
305.686
305.682
305.677
305.673
305.668
305.663
305.657
305.652
305.646
305.639
305.633
305.626
305.619
305.612
305.604
305.597
305.589
305.581
305.574
305.566
305.559
305.552
305.546
305.54
305.536
305.532
305.53
305.529
305.53
305.534
305.54
305.548
305.56
305.576
305.595
305.618
305.647
305.681
305.72
305.767
305.82
305.882
305.952
306.031
306.121
306.221
306.332
306.456
306.593
306.741
306.902
307.074
307.256
307.442
307.63
307.813
307.985
308.141
308.284
308.43
308.581
308.737
307.999
307.1
306.194
305.484
304.945
304.543
304.242
304.017
303.848
303.723
303.632
303.568
303.527
303.503
303.496
303.502
303.52
303.548
303.585
303.63
303.682
303.741
303.805
303.875
303.948
304.026
304.106
304.188
304.271
304.354
304.439
304.523
304.606
304.689
304.769
304.848
304.925
304.999
305.07
305.137
305.201
305.262
305.318
305.371
305.419
305.464
305.505
305.542
305.576
305.607
305.634
305.659
305.681
305.7
305.718
305.733
305.746
305.758
305.768
305.777
305.785
305.792
305.798
305.803
305.807
305.81
305.814
305.816
305.819
305.821
305.823
305.824
305.826
305.827
305.828
305.829
305.83
305.83
305.831
305.831
305.831
305.831
305.831
305.831
305.831
305.83
305.83
305.829
305.828
305.827
305.826
305.824
305.823
305.821
305.819
305.817
305.815
305.812
305.81
305.807
305.804
305.801
305.798
305.795
305.792
305.789
305.785
305.782
305.779
305.775
305.772
305.768
305.765
305.762
305.759
305.755
305.752
305.749
305.746
305.743
305.741
305.738
305.735
305.732
305.729
305.727
305.724
305.721
305.719
305.716
305.713
305.71
305.707
305.704
305.701
305.697
305.694
305.69
305.686
305.682
305.677
305.673
305.668
305.663
305.657
305.652
305.646
305.639
305.633
305.626
305.619
305.612
305.604
305.597
305.589
305.581
305.574
305.566
305.559
305.552
305.546
305.54
305.536
305.532
305.53
305.529
305.53
305.534
305.54
305.548
305.56
305.576
305.595
305.618
305.647
305.681
305.72
305.767
305.82
305.882
305.952
306.031
306.12
306.221
306.332
306.456
306.593
306.741
306.902
307.074
307.255
307.442
307.63
307.813
307.985
308.141
308.284
308.429
308.581
308.737
305.685
304.923
304.236
303.702
303.299
302.992
302.76
302.586
302.456
302.361
302.294
302.249
302.224
302.214
302.218
302.234
302.259
302.294
302.337
302.387
302.444
302.506
302.574
302.646
302.721
302.801
302.883
302.967
303.052
303.138
303.224
303.311
303.396
303.481
303.564
303.645
303.724
303.801
303.874
303.943
304.01
304.072
304.131
304.186
304.236
304.283
304.326
304.366
304.402
304.434
304.463
304.49
304.513
304.534
304.553
304.57
304.585
304.598
304.609
304.62
304.629
304.637
304.644
304.651
304.656
304.662
304.666
304.671
304.675
304.678
304.682
304.685
304.688
304.691
304.694
304.697
304.7
304.702
304.705
304.707
304.71
304.712
304.714
304.717
304.719
304.721
304.723
304.725
304.726
304.728
304.729
304.73
304.732
304.733
304.733
304.734
304.735
304.735
304.735
304.735
304.735
304.735
304.735
304.734
304.734
304.733
304.733
304.732
304.731
304.73
304.73
304.729
304.728
304.727
304.727
304.726
304.725
304.725
304.724
304.724
304.723
304.723
304.722
304.722
304.721
304.721
304.72
304.72
304.719
304.719
304.718
304.717
304.716
304.715
304.714
304.713
304.712
304.71
304.708
304.706
304.704
304.701
304.699
304.696
304.692
304.689
304.685
304.681
304.677
304.672
304.668
304.663
304.658
304.652
304.647
304.642
304.637
304.632
304.627
304.623
304.62
304.617
304.615
304.614
304.615
304.617
304.621
304.627
304.636
304.647
304.662
304.679
304.701
304.727
304.758
304.794
304.836
304.884
304.94
305.002
305.074
305.154
305.243
305.343
305.454
305.576
305.709
305.853
306.008
306.172
306.343
306.518
306.691
306.859
307.013
307.148
307.26
307.346
307.399
307.381
305.685
304.923
304.236
303.702
303.298
302.992
302.76
302.586
302.456
302.361
302.294
302.249
302.224
302.214
302.218
302.234
302.259
302.294
302.337
302.387
302.444
302.506
302.574
302.646
302.721
302.801
302.883
302.967
303.052
303.138
303.224
303.311
303.396
303.481
303.564
303.645
303.724
303.801
303.874
303.943
304.01
304.072
304.131
304.186
304.236
304.283
304.326
304.366
304.402
304.434
304.463
304.49
304.513
304.534
304.553
304.57
304.585
304.598
304.609
304.62
304.629
304.637
304.644
304.651
304.656
304.662
304.666
304.671
304.675
304.678
304.682
304.685
304.688
304.691
304.694
304.697
304.7
304.702
304.705
304.707
304.71
304.712
304.714
304.717
304.719
304.721
304.723
304.725
304.726
304.728
304.729
304.73
304.732
304.733
304.733
304.734
304.735
304.735
304.735
304.735
304.735
304.735
304.735
304.734
304.734
304.733
304.733
304.732
304.731
304.73
304.73
304.729
304.728
304.727
304.727
304.726
304.725
304.725
304.724
304.724
304.723
304.723
304.722
304.722
304.721
304.721
304.72
304.72
304.719
304.719
304.718
304.717
304.716
304.715
304.714
304.713
304.712
304.71
304.708
304.706
304.704
304.701
304.699
304.696
304.692
304.689
304.685
304.681
304.677
304.672
304.668
304.663
304.658
304.652
304.647
304.642
304.637
304.632
304.627
304.623
304.62
304.617
304.615
304.614
304.615
304.617
304.621
304.627
304.636
304.647
304.662
304.679
304.701
304.727
304.758
304.794
304.836
304.884
304.939
305.002
305.074
305.154
305.243
305.343
305.454
305.576
305.709
305.853
306.008
306.172
306.343
306.518
306.691
306.859
307.013
307.148
307.26
307.346
307.398
307.381
303.977
303.401
302.918
302.547
302.259
302.034
301.86
301.728
301.629
301.558
301.509
301.479
301.464
301.463
301.473
301.494
301.523
301.561
301.605
301.657
301.714
301.776
301.843
301.915
301.99
302.068
302.149
302.232
302.317
302.402
302.488
302.574
302.659
302.744
302.827
302.908
302.987
303.064
303.137
303.208
303.275
303.338
303.398
303.454
303.506
303.554
303.599
303.639
303.677
303.711
303.742
303.769
303.794
303.817
303.837
303.855
303.871
303.886
303.899
303.91
303.921
303.93
303.938
303.946
303.953
303.959
303.965
303.97
303.975
303.98
303.984
303.989
303.993
303.997
304.001
304.005
304.008
304.012
304.016
304.019
304.023
304.026
304.03
304.033
304.037
304.04
304.043
304.046
304.049
304.052
304.054
304.057
304.059
304.062
304.064
304.066
304.068
304.069
304.071
304.072
304.074
304.075
304.076
304.077
304.077
304.078
304.079
304.079
304.08
304.081
304.081
304.082
304.082
304.083
304.083
304.084
304.084
304.085
304.085
304.086
304.087
304.087
304.088
304.089
304.089
304.09
304.091
304.091
304.092
304.092
304.092
304.093
304.093
304.093
304.093
304.093
304.092
304.092
304.091
304.09
304.089
304.088
304.086
304.084
304.082
304.08
304.077
304.074
304.071
304.068
304.064
304.061
304.057
304.053
304.049
304.045
304.042
304.038
304.035
304.033
304.031
304.03
304.03
304.031
304.033
304.037
304.043
304.051
304.061
304.075
304.091
304.111
304.135
304.163
304.196
304.234
304.277
304.327
304.384
304.448
304.521
304.601
304.691
304.791
304.9
305.02
305.15
305.29
305.439
305.595
305.757
305.921
306.083
306.237
306.378
306.5
306.596
306.661
306.684
306.636
303.977
303.4
302.918
302.547
302.259
302.034
301.86
301.728
301.629
301.558
301.509
301.479
301.464
301.463
301.473
301.494
301.523
301.561
301.605
301.657
301.714
301.776
301.843
301.915
301.99
302.068
302.149
302.232
302.317
302.402
302.488
302.574
302.659
302.744
302.827
302.908
302.987
303.064
303.137
303.208
303.275
303.338
303.398
303.454
303.506
303.554
303.599
303.639
303.677
303.711
303.742
303.769
303.794
303.817
303.837
303.855
303.871
303.886
303.899
303.91
303.921
303.93
303.938
303.946
303.953
303.959
303.965
303.97
303.975
303.98
303.984
303.989
303.993
303.997
304.001
304.005
304.008
304.012
304.016
304.019
304.023
304.026
304.03
304.033
304.037
304.04
304.043
304.046
304.049
304.052
304.054
304.057
304.059
304.062
304.064
304.066
304.068
304.069
304.071
304.072
304.074
304.075
304.076
304.077
304.077
304.078
304.079
304.08
304.08
304.081
304.081
304.082
304.082
304.083
304.083
304.084
304.084
304.085
304.085
304.086
304.087
304.087
304.088
304.089
304.089
304.09
304.091
304.091
304.092
304.092
304.092
304.093
304.093
304.093
304.093
304.093
304.092
304.092
304.091
304.09
304.089
304.088
304.086
304.084
304.082
304.08
304.077
304.074
304.071
304.068
304.064
304.061
304.057
304.053
304.049
304.045
304.042
304.038
304.035
304.033
304.031
304.03
304.03
304.031
304.033
304.037
304.043
304.051
304.061
304.075
304.091
304.111
304.135
304.163
304.196
304.234
304.277
304.327
304.384
304.448
304.521
304.601
304.691
304.791
304.9
305.02
305.15
305.29
305.439
305.595
305.757
305.921
306.083
306.237
306.378
306.5
306.596
306.661
306.684
306.636
302.649
302.238
301.916
301.671
301.475
301.318
301.195
301.1
301.029
300.979
300.946
300.928
300.923
300.928
300.944
300.968
301
301.039
301.085
301.137
301.193
301.255
301.321
301.391
301.465
301.541
301.62
301.701
301.784
301.868
301.952
302.037
302.121
302.204
302.286
302.366
302.444
302.52
302.594
302.664
302.731
302.794
302.854
302.91
302.963
303.012
303.057
303.099
303.137
303.172
303.204
303.233
303.259
303.283
303.304
303.323
303.34
303.356
303.37
303.382
303.394
303.404
303.413
303.421
303.429
303.436
303.443
303.449
303.455
303.46
303.465
303.47
303.475
303.48
303.484
303.489
303.493
303.498
303.502
303.506
303.511
303.515
303.519
303.523
303.527
303.531
303.535
303.539
303.543
303.546
303.55
303.553
303.556
303.559
303.562
303.565
303.568
303.57
303.573
303.575
303.577
303.579
303.581
303.582
303.584
303.586
303.587
303.589
303.59
303.591
303.593
303.594
303.595
303.596
303.598
303.599
303.6
303.602
303.603
303.604
303.606
303.607
303.608
303.61
303.611
303.612
303.614
303.615
303.616
303.617
303.618
303.619
303.62
303.621
303.622
303.622
303.622
303.623
303.622
303.622
303.622
303.621
303.62
303.619
303.618
303.616
303.614
303.612
303.61
303.607
303.605
303.602
303.599
303.596
303.593
303.591
303.588
303.586
303.584
303.583
303.582
303.582
303.583
303.586
303.59
303.595
303.603
303.613
303.625
303.64
303.658
303.68
303.705
303.735
303.77
303.81
303.855
303.907
303.966
304.031
304.104
304.186
304.276
304.375
304.484
304.601
304.728
304.864
305.008
305.158
305.311
305.466
305.618
305.762
305.893
306.006
306.095
306.154
306.175
306.147
302.648
302.238
301.916
301.671
301.475
301.318
301.195
301.1
301.029
300.979
300.946
300.928
300.923
300.928
300.944
300.968
301
301.039
301.085
301.137
301.193
301.255
301.321
301.391
301.465
301.541
301.62
301.701
301.784
301.868
301.952
302.037
302.121
302.204
302.286
302.366
302.445
302.52
302.594
302.664
302.731
302.794
302.854
302.91
302.963
303.012
303.057
303.099
303.137
303.172
303.204
303.233
303.259
303.283
303.304
303.323
303.34
303.356
303.37
303.382
303.394
303.404
303.413
303.421
303.429
303.436
303.443
303.449
303.455
303.46
303.465
303.47
303.475
303.48
303.484
303.489
303.493
303.498
303.502
303.506
303.511
303.515
303.519
303.523
303.527
303.531
303.535
303.539
303.543
303.546
303.55
303.553
303.556
303.559
303.562
303.565
303.568
303.57
303.573
303.575
303.577
303.579
303.581
303.582
303.584
303.586
303.587
303.589
303.59
303.591
303.593
303.594
303.595
303.596
303.598
303.599
303.6
303.602
303.603
303.604
303.606
303.607
303.608
303.61
303.611
303.612
303.614
303.615
303.616
303.617
303.618
303.619
303.62
303.621
303.622
303.622
303.622
303.623
303.622
303.622
303.622
303.621
303.62
303.619
303.618
303.616
303.614
303.612
303.61
303.607
303.605
303.602
303.599
303.596
303.593
303.591
303.588
303.586
303.584
303.583
303.582
303.582
303.583
303.586
303.59
303.595
303.603
303.613
303.625
303.64
303.658
303.68
303.705
303.735
303.77
303.81
303.855
303.907
303.966
304.031
304.104
304.186
304.276
304.375
304.484
304.601
304.728
304.864
305.008
305.158
305.311
305.466
305.618
305.762
305.893
306.006
306.095
306.154
306.175
306.147
301.59
301.317
301.123
300.972
300.848
300.746
300.665
300.602
300.556
300.524
300.505
300.498
300.501
300.513
300.533
300.56
300.595
300.635
300.681
300.733
300.789
300.85
300.914
300.983
301.054
301.129
301.206
301.285
301.365
301.447
301.529
301.612
301.694
301.775
301.855
301.934
302.011
302.086
302.158
302.227
302.293
302.356
302.416
302.472
302.524
302.573
302.619
302.661
302.699
302.735
302.767
302.797
302.824
302.848
302.87
302.89
302.908
302.924
302.939
302.952
302.964
302.975
302.985
302.994
303.002
303.01
303.017
303.024
303.03
303.036
303.042
303.048
303.053
303.058
303.063
303.068
303.073
303.078
303.083
303.088
303.092
303.097
303.102
303.106
303.111
303.115
303.12
303.124
303.128
303.132
303.136
303.14
303.144
303.148
303.151
303.154
303.158
303.161
303.164
303.167
303.169
303.172
303.174
303.177
303.179
303.181
303.183
303.185
303.187
303.189
303.191
303.193
303.194
303.196
303.198
303.2
303.202
303.204
303.205
303.207
303.209
303.211
303.213
303.215
303.217
303.218
303.22
303.222
303.224
303.225
303.227
303.228
303.23
303.231
303.232
303.233
303.234
303.234
303.235
303.235
303.235
303.235
303.234
303.234
303.233
303.232
303.231
303.229
303.227
303.226
303.224
303.222
303.219
303.217
303.215
303.213
303.212
303.21
303.209
303.209
303.21
303.211
303.213
303.217
303.223
303.23
303.239
303.25
303.264
303.281
303.301
303.324
303.352
303.384
303.42
303.462
303.509
303.563
303.623
303.69
303.764
303.846
303.937
304.036
304.143
304.259
304.383
304.516
304.654
304.798
304.945
305.092
305.235
305.371
305.495
305.603
305.689
305.75
305.78
305.776
301.589
301.317
301.122
300.972
300.848
300.746
300.665
300.602
300.556
300.524
300.505
300.498
300.501
300.513
300.533
300.56
300.595
300.635
300.681
300.733
300.789
300.85
300.914
300.983
301.054
301.129
301.206
301.285
301.365
301.447
301.529
301.612
301.694
301.775
301.855
301.934
302.011
302.086
302.158
302.227
302.293
302.356
302.416
302.472
302.524
302.573
302.619
302.661
302.699
302.735
302.767
302.797
302.824
302.848
302.87
302.89
302.908
302.924
302.939
302.952
302.964
302.975
302.985
302.994
303.002
303.01
303.017
303.024
303.03
303.036
303.042
303.048
303.053
303.058
303.063
303.068
303.073
303.078
303.083
303.088
303.092
303.097
303.102
303.106
303.111
303.115
303.12
303.124
303.128
303.132
303.136
303.14
303.144
303.148
303.151
303.154
303.158
303.161
303.164
303.167
303.169
303.172
303.174
303.177
303.179
303.181
303.183
303.185
303.187
303.189
303.191
303.193
303.194
303.196
303.198
303.2
303.202
303.204
303.205
303.207
303.209
303.211
303.213
303.215
303.217
303.218
303.22
303.222
303.224
303.225
303.227
303.228
303.23
303.231
303.232
303.233
303.234
303.234
303.235
303.235
303.235
303.235
303.234
303.234
303.233
303.232
303.231
303.229
303.227
303.226
303.224
303.222
303.219
303.217
303.215
303.213
303.212
303.21
303.209
303.209
303.21
303.211
303.213
303.217
303.223
303.23
303.239
303.25
303.264
303.281
303.301
303.324
303.352
303.384
303.42
303.462
303.509
303.563
303.623
303.69
303.764
303.846
303.937
304.036
304.143
304.259
304.383
304.516
304.654
304.798
304.945
305.092
305.235
305.371
305.495
305.603
305.689
305.75
305.78
305.776
300.751
300.591
300.489
300.407
300.337
300.278
300.23
300.194
300.168
300.152
300.145
300.148
300.158
300.175
300.199
300.23
300.266
300.307
300.354
300.405
300.46
300.52
300.583
300.649
300.719
300.791
300.866
300.943
301.021
301.1
301.18
301.26
301.34
301.419
301.497
301.574
301.649
301.722
301.792
301.86
301.925
301.987
302.046
302.101
302.153
302.202
302.247
302.289
302.327
302.363
302.396
302.425
302.453
302.477
302.5
302.52
302.539
302.555
302.571
302.584
302.597
302.608
302.619
302.628
302.637
302.645
302.653
302.66
302.667
302.673
302.679
302.685
302.691
302.696
302.702
302.707
302.713
302.718
302.723
302.728
302.733
302.738
302.743
302.748
302.753
302.758
302.763
302.767
302.772
302.776
302.781
302.785
302.789
302.793
302.797
302.801
302.805
302.808
302.811
302.815
302.818
302.821
302.824
302.826
302.829
302.832
302.834
302.837
302.839
302.841
302.844
302.846
302.848
302.85
302.853
302.855
302.857
302.859
302.862
302.864
302.866
302.868
302.871
302.873
302.875
302.877
302.879
302.882
302.884
302.886
302.888
302.889
302.891
302.893
302.894
302.895
302.897
302.898
302.898
302.899
302.899
302.9
302.9
302.899
302.899
302.898
302.898
302.897
302.895
302.894
302.893
302.891
302.89
302.888
302.887
302.886
302.885
302.884
302.884
302.885
302.886
302.889
302.892
302.897
302.904
302.913
302.923
302.936
302.952
302.97
302.992
303.017
303.047
303.08
303.119
303.162
303.212
303.267
303.329
303.397
303.472
303.555
303.646
303.745
303.852
303.966
304.088
304.217
304.351
304.49
304.631
304.771
304.908
305.038
305.157
305.262
305.348
305.413
305.453
305.464
300.75
300.591
300.489
300.407
300.337
300.278
300.23
300.194
300.168
300.152
300.146
300.148
300.158
300.175
300.199
300.23
300.266
300.307
300.354
300.405
300.46
300.52
300.583
300.649
300.719
300.791
300.866
300.943
301.021
301.1
301.18
301.26
301.34
301.419
301.497
301.574
301.649
301.722
301.792
301.86
301.925
301.987
302.046
302.101
302.153
302.202
302.247
302.289
302.327
302.363
302.396
302.425
302.453
302.477
302.5
302.52
302.539
302.555
302.571
302.584
302.597
302.608
302.619
302.628
302.637
302.645
302.653
302.66
302.667
302.673
302.679
302.685
302.691
302.696
302.702
302.707
302.713
302.718
302.723
302.728
302.733
302.738
302.743
302.748
302.753
302.758
302.763
302.767
302.772
302.776
302.781
302.785
302.789
302.793
302.797
302.801
302.805
302.808
302.811
302.815
302.818
302.821
302.824
302.826
302.829
302.832
302.834
302.837
302.839
302.841
302.844
302.846
302.848
302.85
302.853
302.855
302.857
302.859
302.862
302.864
302.866
302.868
302.871
302.873
302.875
302.877
302.879
302.882
302.884
302.886
302.888
302.889
302.891
302.893
302.894
302.895
302.897
302.898
302.898
302.899
302.899
302.9
302.9
302.899
302.899
302.898
302.898
302.897
302.895
302.894
302.893
302.891
302.89
302.888
302.887
302.886
302.885
302.884
302.884
302.885
302.886
302.889
302.892
302.897
302.904
302.913
302.923
302.936
302.952
302.97
302.992
303.017
303.047
303.08
303.119
303.162
303.212
303.267
303.329
303.397
303.472
303.555
303.646
303.745
303.852
303.966
304.088
304.217
304.351
304.49
304.631
304.771
304.908
305.038
305.157
305.262
305.348
305.413
305.453
305.464
300.096
300.027
299.988
299.953
299.922
299.894
299.871
299.855
299.846
299.843
299.846
299.856
299.872
299.894
299.922
299.954
299.992
300.034
300.08
300.131
300.185
300.244
300.305
300.37
300.437
300.507
300.58
300.654
300.729
300.806
300.883
300.961
301.038
301.115
301.191
301.265
301.338
301.409
301.478
301.544
301.607
301.668
301.725
301.779
301.83
301.878
301.923
301.964
302.003
302.038
302.07
302.1
302.127
302.152
302.175
302.195
302.214
302.231
302.247
302.261
302.273
302.285
302.296
302.306
302.315
302.323
302.331
302.339
302.346
302.352
302.359
302.365
302.371
302.377
302.382
302.388
302.394
302.399
302.404
302.41
302.415
302.42
302.426
302.431
302.436
302.441
302.446
302.451
302.456
302.461
302.465
302.47
302.474
302.479
302.483
302.487
302.491
302.495
302.498
302.502
302.505
302.509
302.512
302.515
302.518
302.521
302.524
302.527
302.529
302.532
302.535
302.537
302.54
302.542
302.545
302.548
302.55
302.553
302.555
302.558
302.56
302.563
302.566
302.568
302.571
302.573
302.576
302.578
302.58
302.583
302.585
302.587
302.589
302.591
302.593
302.594
302.596
302.597
302.598
302.599
302.6
302.6
302.601
302.601
302.601
302.6
302.6
302.599
302.599
302.598
302.597
302.596
302.595
302.594
302.593
302.593
302.592
302.593
302.593
302.595
302.598
302.601
302.606
302.612
302.62
302.63
302.642
302.656
302.673
302.694
302.717
302.745
302.776
302.812
302.852
302.898
302.949
303.006
303.069
303.139
303.216
303.299
303.391
303.489
303.595
303.709
303.828
303.954
304.085
304.219
304.355
304.49
304.622
304.747
304.863
304.966
305.053
305.122
305.173
305.2
300.096
300.027
299.988
299.953
299.922
299.894
299.871
299.855
299.846
299.843
299.846
299.856
299.872
299.894
299.922
299.954
299.992
300.034
300.08
300.131
300.185
300.244
300.305
300.37
300.437
300.507
300.58
300.654
300.729
300.806
300.883
300.961
301.038
301.115
301.191
301.265
301.338
301.409
301.478
301.544
301.607
301.668
301.725
301.779
301.83
301.878
301.923
301.964
302.003
302.038
302.07
302.1
302.127
302.152
302.175
302.195
302.214
302.231
302.247
302.261
302.273
302.285
302.296
302.306
302.315
302.323
302.331
302.339
302.346
302.352
302.359
302.365
302.371
302.377
302.382
302.388
302.394
302.399
302.404
302.41
302.415
302.42
302.426
302.431
302.436
302.441
302.446
302.451
302.456
302.461
302.465
302.47
302.474
302.479
302.483
302.487
302.491
302.495
302.498
302.502
302.505
302.509
302.512
302.515
302.518
302.521
302.524
302.527
302.529
302.532
302.535
302.537
302.54
302.542
302.545
302.548
302.55
302.553
302.555
302.558
302.56
302.563
302.566
302.568
302.571
302.573
302.576
302.578
302.58
302.583
302.585
302.587
302.589
302.591
302.593
302.594
302.596
302.597
302.598
302.599
302.6
302.6
302.601
302.601
302.601
302.6
302.6
302.599
302.599
302.598
302.597
302.596
302.595
302.594
302.593
302.593
302.592
302.593
302.593
302.595
302.598
302.601
302.606
302.612
302.62
302.63
302.642
302.656
302.673
302.694
302.717
302.745
302.776
302.812
302.852
302.898
302.949
303.006
303.069
303.139
303.216
303.299
303.391
303.489
303.595
303.709
303.828
303.954
304.085
304.219
304.355
304.49
304.622
304.747
304.863
304.966
305.053
305.122
305.173
305.2
299.606
299.597
299.596
299.592
299.586
299.58
299.575
299.574
299.577
299.584
299.595
299.611
299.632
299.658
299.688
299.722
299.76
299.803
299.849
299.899
299.952
300.009
300.069
300.131
300.197
300.264
300.334
300.406
300.479
300.553
300.627
300.702
300.777
300.851
300.924
300.996
301.067
301.135
301.202
301.266
301.327
301.386
301.442
301.495
301.545
301.592
301.635
301.676
301.713
301.748
301.78
301.81
301.837
301.861
301.884
301.904
301.923
301.94
301.956
301.97
301.983
301.995
302.006
302.016
302.025
302.033
302.041
302.049
302.056
302.063
302.07
302.076
302.082
302.088
302.094
302.1
302.105
302.111
302.117
302.122
302.128
302.133
302.138
302.144
302.149
302.154
302.16
302.165
302.17
302.175
302.18
302.184
302.189
302.193
302.198
302.202
302.206
302.21
302.214
302.218
302.222
302.226
302.229
302.232
302.236
302.239
302.242
302.245
302.248
302.251
302.254
302.257
302.26
302.263
302.266
302.268
302.271
302.274
302.277
302.28
302.283
302.285
302.288
302.291
302.294
302.297
302.299
302.302
302.305
302.307
302.31
302.312
302.314
302.316
302.318
302.32
302.322
302.323
302.325
302.326
302.327
302.328
302.328
302.329
302.329
302.329
302.329
302.328
302.328
302.328
302.327
302.326
302.326
302.326
302.325
302.325
302.326
302.327
302.329
302.331
302.335
302.339
302.345
302.352
302.362
302.373
302.386
302.403
302.421
302.443
302.469
302.498
302.531
302.569
302.611
302.659
302.712
302.771
302.836
302.907
302.985
303.07
303.162
303.26
303.366
303.478
303.596
303.719
303.847
303.977
304.109
304.24
304.368
304.489
304.602
304.704
304.793
304.867
304.927
304.971
299.605
299.597
299.596
299.592
299.586
299.58
299.575
299.574
299.577
299.584
299.595
299.611
299.632
299.658
299.688
299.722
299.76
299.803
299.849
299.899
299.952
300.009
300.069
300.131
300.197
300.264
300.334
300.406
300.479
300.553
300.627
300.702
300.777
300.851
300.924
300.996
301.067
301.135
301.202
301.266
301.327
301.386
301.442
301.495
301.545
301.592
301.635
301.676
301.713
301.748
301.78
301.81
301.837
301.861
301.884
301.904
301.923
301.94
301.956
301.97
301.983
301.995
302.006
302.016
302.025
302.033
302.041
302.049
302.056
302.063
302.07
302.076
302.082
302.088
302.094
302.1
302.105
302.111
302.117
302.122
302.128
302.133
302.138
302.144
302.149
302.154
302.16
302.165
302.17
302.175
302.18
302.184
302.189
302.193
302.198
302.202
302.206
302.21
302.214
302.218
302.222
302.226
302.229
302.232
302.236
302.239
302.242
302.245
302.248
302.251
302.254
302.257
302.26
302.263
302.266
302.268
302.271
302.274
302.277
302.28
302.283
302.285
302.288
302.291
302.294
302.297
302.299
302.302
302.305
302.307
302.31
302.312
302.314
302.316
302.318
302.32
302.322
302.323
302.325
302.326
302.327
302.328
302.328
302.329
302.329
302.329
302.329
302.328
302.328
302.328
302.327
302.326
302.326
302.326
302.325
302.325
302.326
302.327
302.329
302.331
302.335
302.339
302.345
302.352
302.362
302.373
302.386
302.403
302.421
302.443
302.469
302.498
302.531
302.569
302.611
302.659
302.712
302.771
302.836
302.907
302.985
303.07
303.162
303.26
303.366
303.478
303.596
303.719
303.847
303.978
304.109
304.24
304.368
304.489
304.602
304.704
304.793
304.867
304.927
304.971
299.257
299.275
299.294
299.307
299.316
299.324
299.332
299.341
299.352
299.367
299.384
299.405
299.429
299.457
299.489
299.524
299.563
299.605
299.651
299.7
299.752
299.807
299.865
299.926
299.989
300.054
300.121
300.19
300.26
300.331
300.403
300.475
300.547
300.618
300.689
300.758
300.826
300.892
300.957
301.019
301.078
301.135
301.189
301.24
301.289
301.334
301.376
301.416
301.453
301.487
301.518
301.547
301.573
301.598
301.62
301.64
301.659
301.676
301.691
301.705
301.718
301.73
301.741
301.751
301.76
301.769
301.777
301.784
301.792
301.799
301.805
301.812
301.818
301.824
301.83
301.836
301.841
301.847
301.853
301.858
301.864
301.869
301.875
301.88
301.886
301.891
301.896
301.902
301.907
301.912
301.917
301.922
301.927
301.931
301.936
301.94
301.945
301.949
301.953
301.957
301.961
301.965
301.969
301.972
301.976
301.979
301.983
301.986
301.989
301.992
301.995
301.999
302.002
302.005
302.008