/*--------------------------------*- C++ -*----------------------------------*\
  =========                 |
  \\      /  F ield         | OpenFOAM: The Open Source CFD Toolbox
   \\    /   O peration     | Website:  https://openfoam.org
    \\  /    A nd           | Version:  8
     \\/     M anipulation  |
\*---------------------------------------------------------------------------*/
FoamFile
{
    version     2.0;
    format      ascii;
    class       volVectorField;
    location    "1000";
    object      U;
}
// * * * * * * * * * * * * * * * * * * * * * * * * * * * * * * * * * * * * * //

dimensions      [0 1 -1 0 0 0 0];

internalField   nonuniform List<vector> 
46000
(
(-0.00300228 1.04732e-06 0.00326552)
(-0.0122521 8.03606e-06 0.00493344)
(-0.0204037 2.15618e-05 0.00434561)
(-0.0243996 2.58288e-05 0.00216185)
(-0.0239477 2.11895e-05 -0.000288254)
(-0.0197359 1.5653e-05 -0.00243324)
(-0.0126563 1.35392e-05 -0.0041187)
(-0.00355462 1.51122e-05 -0.00535522)
(0.0070335 1.82414e-05 -0.00613802)
(0.0182863 2.03651e-05 -0.00653192)
(0.0299365 2.06912e-05 -0.00667473)
(0.04159 1.97005e-05 -0.00662295)
(0.0529916 1.8045e-05 -0.00641869)
(0.063931 1.61602e-05 -0.00609589)
(0.0742444 1.41932e-05 -0.00568185)
(0.0838056 1.21056e-05 -0.00519904)
(0.0925193 9.83717e-06 -0.00466636)
(0.100317 7.43121e-06 -0.00410019)
(0.107155 5.04923e-06 -0.00351496)
(0.113007 2.89133e-06 -0.00292339)
(0.117868 1.10315e-06 -0.00233658)
(0.121749 -2.64263e-07 -0.00176421)
(0.124675 -1.23643e-06 -0.00121487)
(0.126684 -1.87735e-06 -0.000696447)
(0.127829 -2.27228e-06 -0.000216539)
(0.128164 -2.44882e-06 0.000218641)
(0.127778 -2.43748e-06 0.00061284)
(0.126714 -2.27722e-06 0.000970053)
(0.125044 -1.93959e-06 0.00128683)
(0.122835 -1.41785e-06 0.00156167)
(0.12016 -7.55318e-07 0.00179418)
(0.117088 -5.17557e-08 0.00198485)
(0.113691 5.59002e-07 0.00213494)
(0.110036 9.4372e-07 0.00224633)
(0.106189 9.91637e-07 0.00232128)
(0.10221 6.21295e-07 0.00236247)
(0.0981584 -2.1217e-07 0.00237283)
(0.0940851 -1.49709e-06 0.00235553)
(0.0900379 -3.14231e-06 0.00231381)
(0.0860589 -4.97612e-06 0.00225084)
(0.0821845 -6.77671e-06 0.00216972)
(0.0784459 -8.32062e-06 0.00207343)
(0.0748696 -9.42339e-06 0.00196492)
(0.071477 -9.95192e-06 0.00184702)
(0.0682852 -9.81648e-06 0.00172232)
(0.0653067 -8.97494e-06 0.00159312)
(0.0625497 -7.46681e-06 0.00146142)
(0.0600191 -5.43859e-06 0.00132897)
(0.0577167 -3.12866e-06 0.00119734)
(0.0556414 -8.33993e-07 0.00106801)
(0.05379 1.1392e-06 0.000942254)
(0.0521573 2.57139e-06 0.000821069)
(0.0507366 3.40638e-06 0.00070518)
(0.0495194 3.70629e-06 0.000595118)
(0.0484967 3.57694e-06 0.000491099)
(0.047659 3.19265e-06 0.000393128)
(0.0469962 2.79633e-06 0.000301226)
(0.046498 2.5627e-06 0.000215249)
(0.0461543 2.52349e-06 0.000134669)
(0.0459556 2.6937e-06 5.88951e-05)
(0.0458903 3.0173e-06 -1.241e-05)
(0.0459549 3.37071e-06 -7.80918e-05)
(0.0461335 3.61639e-06 -0.000137634)
(0.0464182 3.64385e-06 -0.000191845)
(0.0467997 3.48056e-06 -0.000240894)
(0.0472698 3.21637e-06 -0.000285232)
(0.0478207 2.96536e-06 -0.000325564)
(0.0484451 2.84392e-06 -0.000362344)
(0.0491361 2.96006e-06 -0.000395799)
(0.0498879 3.43416e-06 -0.000426277)
(0.0506949 4.35646e-06 -0.000454205)
(0.0515519 5.69457e-06 -0.000479882)
(0.0524541 7.32349e-06 -0.000503511)
(0.0533971 9.13281e-06 -0.000525217)
(0.0543772 1.09977e-05 -0.00054497)
(0.0553909 1.269e-05 -0.000562735)
(0.056435 1.39667e-05 -0.000578714)
(0.0575069 1.47336e-05 -0.000593178)
(0.0586039 1.50145e-05 -0.000606179)
(0.0597234 1.48041e-05 -0.00061774)
(0.0608635 1.40719e-05 -0.000628223)
(0.0620224 1.28864e-05 -0.000638117)
(0.0631983 1.1412e-05 -0.000647531)
(0.0643898 9.77644e-06 -0.000656309)
(0.0655958 8.03117e-06 -0.000664561)
(0.0668157 6.24431e-06 -0.000672601)
(0.0680482 4.54139e-06 -0.000680409)
(0.0692925 3.03767e-06 -0.000687674)
(0.0705479 1.7999e-06 -0.000694449)
(0.0718141 8.84956e-07 -0.000701229)
(0.0730907 3.37924e-07 -0.000708291)
(0.0743773 1.30958e-07 -0.000715408)
(0.0756739 1.73601e-07 -0.000722371)
(0.076981 4.08882e-07 -0.000729321)
(0.0782986 8.39655e-07 -0.000736369)
(0.0796265 1.43636e-06 -0.000743318)
(0.0809647 2.08456e-06 -0.000749989)
(0.0823132 2.66172e-06 -0.000756483)
(0.0836717 3.1195e-06 -0.000762877)
(0.0850397 3.4591e-06 -0.000768981)
(0.086417 3.67546e-06 -0.000774663)
(0.0878033 3.76957e-06 -0.000780144)
(0.089198 3.77711e-06 -0.000785669)
(0.0906001 3.7321e-06 -0.000791044)
(0.0920086 3.61532e-06 -0.000795815)
(0.0934225 3.37699e-06 -0.000799776)
(0.0948408 2.99826e-06 -0.000803022)
(0.0962621 2.49787e-06 -0.000805558)
(0.0976849 1.89543e-06 -0.000807178)
(0.099108 1.21539e-06 -0.000807791)
(0.10053 5.31051e-07 -0.000807578)
(0.10195 -4.07762e-08 -0.000806709)
(0.103366 -4.19093e-07 -0.000805081)
(0.104777 -6.19257e-07 -0.000802485)
(0.106181 -7.21186e-07 -0.000798909)
(0.107577 -7.88978e-07 -0.0007945)
(0.108963 -8.27682e-07 -0.000789308)
(0.110339 -7.91354e-07 -0.000783248)
(0.111702 -6.01349e-07 -0.000776341)
(0.113052 -1.65507e-07 -0.000768837)
(0.114389 5.72408e-07 -0.000761035)
(0.11571 1.5613e-06 -0.000753068)
(0.117015 2.61577e-06 -0.000744941)
(0.118305 3.48252e-06 -0.000736686)
(0.119579 3.96176e-06 -0.000728385)
(0.120838 3.99117e-06 -0.000720077)
(0.12208 3.63906e-06 -0.000711767)
(0.123308 3.03002e-06 -0.000703572)
(0.12452 2.26725e-06 -0.000695757)
(0.125718 1.39924e-06 -0.000688534)
(0.126903 4.38141e-07 -0.000681873)
(0.128077 -5.90057e-07 -0.000675583)
(0.129239 -1.60053e-06 -0.000669622)
(0.130392 -2.44591e-06 -0.000664277)
(0.131536 -2.96826e-06 -0.000659991)
(0.132673 -3.08183e-06 -0.000657015)
(0.133805 -2.82962e-06 -0.000655257)
(0.134933 -2.36317e-06 -0.000654436)
(0.136059 -1.84888e-06 -0.000654368)
(0.137186 -1.36518e-06 -0.000655117)
(0.138315 -8.76411e-07 -0.000656955)
(0.139447 -3.16327e-07 -0.000660181)
(0.140585 2.81517e-07 -0.000664942)
(0.14173 7.27754e-07 -0.000671118)
(0.142885 7.74689e-07 -0.000678361)
(0.144054 3.12819e-07 -0.000686317)
(0.145237 -4.99169e-07 -0.000694925)
(0.146435 -1.30745e-06 -0.000704514)
(0.14765 -1.80708e-06 -0.000715548)
(0.148885 -1.9563e-06 -0.00072817)
(0.15014 -1.96717e-06 -0.000741985)
(0.151418 -2.07482e-06 -0.000756332)
(0.15272 -2.30207e-06 -0.000770789)
(0.154046 -2.44878e-06 -0.000785397)
(0.155394 -2.31525e-06 -0.000800308)
(0.156765 -1.92741e-06 -0.000815225)
(0.158158 -1.52282e-06 -0.000829227)
(0.159571 -1.31321e-06 -0.000841195)
(0.161 -1.28529e-06 -0.00085037)
(0.162439 -1.25895e-06 -0.000856374)
(0.16388 -1.12389e-06 -0.0008586)
(0.165315 -9.71936e-07 -0.000855598)
(0.166734 -9.7339e-07 -0.000845225)
(0.168122 -1.15356e-06 -0.000825471)
(0.169464 -1.34035e-06 -0.000794949)
(0.170738 -1.34096e-06 -0.000752322)
(0.171921 -1.12541e-06 -0.00069531)
(0.172986 -7.86399e-07 -0.000620741)
(0.173903 -3.35687e-07 -0.000525761)
(0.174634 3.63264e-07 -0.000408576)
(0.175139 1.38021e-06 -0.000267396)
(0.175368 2.48414e-06 -9.93616e-05)
(0.175281 3.23373e-06 0.000100287)
(0.174818 3.43353e-06 0.000337102)
(0.173913 3.32372e-06 0.000614461)
(0.172496 3.20946e-06 0.000934562)
(0.170495 3.11119e-06 0.0013006)
(0.167833 2.89068e-06 0.00171552)
(0.164431 2.60912e-06 0.00217987)
(0.160207 2.47293e-06 0.00269235)
(0.155082 2.44234e-06 0.00325213)
(0.148979 2.21604e-06 0.0038585)
(0.14183 1.67149e-06 0.0045073)
(0.133573 1.01467e-06 0.00518926)
(0.124161 4.45888e-07 0.00589249)
(0.113569 4.11693e-08 0.00660363)
(0.1018 -3.35866e-08 0.00730406)
(0.0888886 3.28274e-07 0.00796677)
(0.0749175 8.60814e-07 0.00855705)
(0.0600319 1.28494e-06 0.00903013)
(0.0444589 1.71828e-06 0.00932346)
(0.028513 2.26545e-06 0.00935252)
(0.012752 2.8166e-06 0.00899919)
(-0.00235215 3.19409e-06 0.00799232)
(-0.0154953 2.824e-06 0.00609523)
(-0.0254198 1.69419e-06 0.0032446)
(-0.0305415 7.67045e-07 -0.000572772)
(-0.0288793 4.36734e-07 -0.0048214)
(-0.019965 4.66139e-07 -0.00759806)
(-0.00593002 5.6752e-07 -0.00626914)
(-0.00298173 1.04733e-06 0.00324007)
(-0.012216 8.03619e-06 0.00487564)
(-0.0203896 2.15619e-05 0.00429456)
(-0.0244097 2.58287e-05 0.00212839)
(-0.023963 2.11894e-05 -0.000309016)
(-0.0197437 1.56531e-05 -0.00245059)
(-0.0126535 1.35394e-05 -0.00414057)
(-0.0035442 1.51123e-05 -0.0053857)
(0.00704551 1.82415e-05 -0.0061756)
(0.0182947 2.03652e-05 -0.00657174)
(0.0299398 2.06913e-05 -0.00671251)
(0.0415892 1.97007e-05 -0.00665587)
(0.052988 1.80451e-05 -0.00644558)
(0.063926 1.61603e-05 -0.00611692)
(0.0742395 1.41933e-05 -0.00569801)
(0.0838018 1.21056e-05 -0.0052117)
(0.0925172 9.83714e-06 -0.00467694)
(0.100317 7.43117e-06 -0.00410983)
(0.107155 5.0492e-06 -0.0035243)
(0.113008 2.89131e-06 -0.00293252)
(0.117869 1.10314e-06 -0.00234524)
(0.12175 -2.64262e-07 -0.00177207)
(0.124675 -1.23642e-06 -0.00122175)
(0.126684 -1.87734e-06 -0.000702438)
(0.127829 -2.27228e-06 -0.000221834)
(0.128164 -2.44882e-06 0.000213793)
(0.127778 -2.43748e-06 0.000608311)
(0.126715 -2.27721e-06 0.000965964)
(0.125044 -1.93958e-06 0.00128347)
(0.122835 -1.41785e-06 0.00155944)
(0.120159 -7.55317e-07 0.00179341)
(0.117088 -5.17557e-08 0.00198564)
(0.113691 5.59002e-07 0.00213706)
(0.110036 9.43718e-07 0.00224915)
(0.10619 9.91634e-07 0.00232403)
(0.102212 6.21291e-07 0.00236436)
(0.0981608 -2.12168e-07 0.00237326)
(0.0940882 -1.49707e-06 0.00235417)
(0.0900416 -3.14227e-06 0.0023106)
(0.0860627 -4.97604e-06 0.002246)
(0.0821881 -6.7766e-06 0.00216366)
(0.0784492 -8.32049e-06 0.00206676)
(0.0748724 -9.42327e-06 0.00195826)
(0.0714795 -9.95182e-06 0.00184086)
(0.0682872 -9.81642e-06 0.00171694)
(0.0653081 -8.97493e-06 0.00158856)
(0.0625506 -7.46683e-06 0.00145747)
(0.0600196 -5.43862e-06 0.00132527)
(0.0577171 -3.12868e-06 0.00119348)
(0.0556422 -8.33998e-07 0.00106352)
(0.0537916 1.1392e-06 0.000936585)
(0.0521599 2.5714e-06 0.000813772)
(0.0507398 3.40637e-06 0.000696073)
(0.0495231 3.70627e-06 0.00058416)
(0.0485007 3.57692e-06 0.0004784)
(0.0476629 3.19262e-06 0.000379128)
(0.0469995 2.79632e-06 0.000286538)
(0.0465006 2.56269e-06 0.000200291)
(0.0461562 2.52348e-06 0.000119693)
(0.0459566 2.69371e-06 4.41695e-05)
(0.0458909 3.01731e-06 -2.6483e-05)
(0.0459553 3.37072e-06 -9.12911e-05)
(0.0461341 3.61641e-06 -0.000149989)
(0.046419 3.64387e-06 -0.000203317)
(0.0468006 3.48058e-06 -0.000251478)
(0.0472706 3.21639e-06 -0.000294941)
(0.0478212 2.96538e-06 -0.000334322)
(0.0484451 2.84394e-06 -0.000370063)
(0.0491355 2.96009e-06 -0.000402471)
(0.0498866 3.4342e-06 -0.000431899)
(0.0506928 4.35652e-06 -0.000458772)
(0.0515492 5.69465e-06 -0.000483523)
(0.0524511 7.3236e-06 -0.000506491)
(0.0533943 9.13294e-06 -0.000527776)
(0.0543748 1.09978e-05 -0.00054732)
(0.0553894 1.26901e-05 -0.000565179)
(0.0564347 1.39668e-05 -0.000581565)
(0.0575076 1.47336e-05 -0.000596588)
(0.0586054 1.50145e-05 -0.00061021)
(0.0597255 1.4804e-05 -0.000622557)
(0.0608659 1.40718e-05 -0.000633993)
(0.0620246 1.28863e-05 -0.000644723)
(0.0632 1.14119e-05 -0.000654577)
(0.064391 9.77637e-06 -0.000663384)
(0.0655967 8.03112e-06 -0.000671315)
(0.0668162 6.24428e-06 -0.000678625)
(0.0680483 4.54137e-06 -0.000685317)
(0.0692922 3.03767e-06 -0.000691347)
(0.0705473 1.7999e-06 -0.000696984)
(0.0718133 8.84957e-07 -0.000702676)
(0.0730898 3.37925e-07 -0.000708681)
(0.0743766 1.30959e-07 -0.000715061)
(0.0756738 1.73601e-07 -0.000721895)
(0.0769816 4.08883e-07 -0.000729216)
(0.0782999 8.39655e-07 -0.000736826)
(0.0796284 1.43636e-06 -0.00074445)
(0.0809673 2.08456e-06 -0.00075204)
(0.0823162 2.66171e-06 -0.000759706)
(0.0836748 3.11949e-06 -0.000767363)
(0.0850425 3.45909e-06 -0.000774703)
(0.0864193 3.67545e-06 -0.00078151)
(0.0878049 3.76956e-06 -0.000787782)
(0.0891988 3.77711e-06 -0.000793479)
(0.0906001 3.7321e-06 -0.000798365)
(0.0920082 3.61533e-06 -0.000802221)
(0.093422 3.37699e-06 -0.000805055)
(0.0948403 2.99826e-06 -0.000807004)
(0.0962616 2.49787e-06 -0.000808147)
(0.0976846 1.89543e-06 -0.000808548)
(0.099108 1.21538e-06 -0.00080839)
(0.10053 5.3105e-07 -0.00080789)
(0.101951 -4.07761e-08 -0.000807058)
(0.103367 -4.19093e-07 -0.000805664)
(0.104778 -6.19256e-07 -0.00080347)
(0.106183 -7.21184e-07 -0.000800413)
(0.107579 -7.88975e-07 -0.000796522)
(0.108966 -8.27679e-07 -0.000791775)
(0.110341 -7.91351e-07 -0.000786119)
(0.111704 -6.01348e-07 -0.000779592)
(0.113053 -1.65507e-07 -0.000772324)
(0.114388 5.7241e-07 -0.000764412)
(0.115709 1.56131e-06 -0.000755863)
(0.117014 2.61578e-06 -0.000746714)
(0.118304 3.48253e-06 -0.000737173)
(0.119578 3.96177e-06 -0.000727603)
(0.120837 3.99117e-06 -0.000718373)
(0.12208 3.63906e-06 -0.000709743)
(0.123307 3.03001e-06 -0.000701834)
(0.12452 2.26724e-06 -0.000694639)
(0.125719 1.39924e-06 -0.000688031)
(0.126904 4.38139e-07 -0.00068182)
(0.128078 -5.90054e-07 -0.000675883)
(0.129241 -1.60052e-06 -0.000670295)
(0.130394 -2.44589e-06 -0.000665319)
(0.131538 -2.96825e-06 -0.000661234)
(0.132674 -3.08183e-06 -0.000658147)
(0.133805 -2.82962e-06 -0.000655942)
(0.134933 -2.36317e-06 -0.000654434)
(0.13606 -1.84887e-06 -0.000653596)
(0.137187 -1.36518e-06 -0.000653673)
(0.138315 -8.76411e-07 -0.000655089)
(0.139447 -3.16327e-07 -0.000658199)
(0.140584 2.81517e-07 -0.000663068)
(0.14173 7.27753e-07 -0.000669446)
(0.142887 7.74687e-07 -0.000676998)
(0.144056 3.12817e-07 -0.000685584)
(0.145239 -4.99167e-07 -0.000695343)
(0.146437 -1.30745e-06 -0.000706467)
(0.147651 -1.80708e-06 -0.000718854)
(0.148885 -1.9563e-06 -0.000732006)
(0.150141 -1.96716e-06 -0.000745348)
(0.15142 -2.07481e-06 -0.000758686)
(0.152722 -2.30206e-06 -0.000772354)
(0.154047 -2.44878e-06 -0.000786782)
(0.155394 -2.31525e-06 -0.000801871)
(0.156765 -1.92741e-06 -0.000816764)
(0.158158 -1.52283e-06 -0.000830291)
(0.159572 -1.31321e-06 -0.000841644)
(0.161001 -1.28529e-06 -0.000850572)
(0.16244 -1.25895e-06 -0.000856836)
(0.16388 -1.12388e-06 -0.000859484)
(0.165316 -9.71934e-07 -0.000856729)
(0.166736 -9.73387e-07 -0.00084659)
(0.168125 -1.15356e-06 -0.000827529)
(0.169467 -1.34034e-06 -0.000798196)
(0.17074 -1.34096e-06 -0.00075655)
(0.171922 -1.12541e-06 -0.000699564)
(0.172988 -7.86398e-07 -0.000624162)
(0.173904 -3.35687e-07 -0.000528263)
(0.174634 3.63265e-07 -0.000410463)
(0.175137 1.38022e-06 -0.000268562)
(0.175367 2.48414e-06 -9.94021e-05)
(0.175281 3.23374e-06 0.000101106)
(0.174819 3.43354e-06 0.000337581)
(0.173914 3.32372e-06 0.00061365)
(0.172497 3.20946e-06 0.000932841)
(0.170495 3.11119e-06 0.00129904)
(0.167834 2.89068e-06 0.00171442)
(0.164432 2.60911e-06 0.00217878)
(0.160208 2.47293e-06 0.00269139)
(0.155083 2.44233e-06 0.00325202)
(0.148981 2.21604e-06 0.00385875)
(0.141833 1.67148e-06 0.00450589)
(0.133575 1.01467e-06 0.00518517)
(0.124163 4.45886e-07 0.00588713)
(0.113571 4.11692e-08 0.00659838)
(0.101801 -3.35865e-08 0.00729853)
(0.088888 3.28274e-07 0.00796124)
(0.074917 8.60815e-07 0.00855325)
(0.0600323 1.28494e-06 0.00902781)
(0.044459 1.71829e-06 0.00932086)
(0.0285129 2.26546e-06 0.00934992)
(0.0127529 2.81662e-06 0.00899607)
(-0.00235141 3.19411e-06 0.00798713)
(-0.0154938 2.82402e-06 0.00609061)
(-0.0254173 1.6942e-06 0.00323931)
(-0.0305407 7.67052e-07 -0.000580497)
(-0.0288793 4.36735e-07 -0.00482838)
(-0.0199648 4.66136e-07 -0.00760668)
(-0.00592958 5.67518e-07 -0.0062717)
(-0.00430148 -8.33208e-06 0.0126697)
(-0.0126201 -1.74331e-05 0.0139742)
(-0.0151773 -9.07564e-06 0.00817219)
(-0.0133271 -3.54461e-06 0.00104396)
(-0.00793211 -1.74082e-06 -0.00538964)
(7.46634e-05 -2.21018e-06 -0.0104985)
(0.010018 -3.47004e-06 -0.0142481)
(0.0212812 -4.47003e-06 -0.0168279)
(0.0334314 -4.66213e-06 -0.0184256)
(0.0460719 -4.25965e-06 -0.0192385)
(0.0588977 -3.72716e-06 -0.0194611)
(0.0716326 -3.22383e-06 -0.0192151)
(0.0840594 -2.74957e-06 -0.0185996)
(0.0959986 -2.25835e-06 -0.017692)
(0.107305 -1.73695e-06 -0.0165557)
(0.117862 -1.21696e-06 -0.0152435)
(0.12758 -7.43119e-07 -0.0138007)
(0.13639 -3.42303e-07 -0.0122666)
(0.144242 -1.9035e-08 -0.0106761)
(0.151107 2.32284e-07 -0.00906015)
(0.156972 4.19557e-07 -0.00744634)
(0.161837 5.54821e-07 -0.00585931)
(0.165717 6.54877e-07 -0.00432114)
(0.168639 7.33695e-07 -0.00285175)
(0.170641 7.93664e-07 -0.00146907)
(0.171766 8.15896e-07 -0.000189249)
(0.172065 7.83544e-07 0.000985723)
(0.171607 6.95204e-07 0.00205732)
(0.170457 5.56548e-07 0.00301875)
(0.168684 3.85808e-07 0.00386636)
(0.166359 2.09759e-07 0.00459855)
(0.163554 6.41671e-08 0.00521571)
(0.160339 -6.98099e-09 0.00571995)
(0.156786 3.94715e-08 0.00611495)
(0.152963 2.2896e-07 0.00640569)
(0.148935 5.55527e-07 0.00659825)
(0.144765 9.82027e-07 0.00669964)
(0.140511 1.45347e-06 0.00671755)
(0.136228 1.91255e-06 0.00666015)
(0.131965 2.3067e-06 0.00653581)
(0.127766 2.5872e-06 0.006353)
(0.12367 2.71021e-06 0.00612011)
(0.119713 2.6451e-06 0.00584534)
(0.115921 2.38834e-06 0.0055366)
(0.112321 1.97446e-06 0.00520135)
(0.108929 1.47279e-06 0.0048465)
(0.105762 9.64207e-07 0.00447839)
(0.10283 5.14534e-07 0.00410271)
(0.100138 1.67522e-07 0.00372456)
(0.0976915 -5.33098e-08 0.00334845)
(0.0954899 -1.532e-07 0.00297822)
(0.0935313 -1.62582e-07 0.00261706)
(0.091811 -1.10697e-07 0.00226752)
(0.0903227 -2.42311e-08 0.00193159)
(0.0890583 4.78663e-08 0.00161069)
(0.0880089 5.7642e-08 0.0013058)
(0.0871643 1.05674e-08 0.00101747)
(0.0865139 -5.72243e-08 0.000745905)
(0.0860465 -1.37296e-07 0.000490934)
(0.0857512 -2.28647e-07 0.00025204)
(0.0856162 -2.9127e-07 2.83343e-05)
(0.0856302 -3.01833e-07 -0.000178772)
(0.0857836 -2.95598e-07 -0.000368308)
(0.0860658 -3.06767e-07 -0.000541856)
(0.0864668 -3.37747e-07 -0.000700521)
(0.0869769 -3.89185e-07 -0.000845334)
(0.0875866 -4.83527e-07 -0.000977323)
(0.0882875 -6.51662e-07 -0.00109757)
(0.0890711 -9.14481e-07 -0.0012071)
(0.08993 -1.26253e-06 -0.00130673)
(0.090857 -1.65297e-06 -0.00139721)
(0.0918457 -2.04702e-06 -0.00147926)
(0.0928901 -2.43235e-06 -0.00155354)
(0.0939848 -2.78772e-06 -0.00162063)
(0.0951249 -3.06555e-06 -0.00168109)
(0.0963058 -3.23996e-06 -0.00173548)
(0.0975232 -3.33098e-06 -0.00178429)
(0.0987736 -3.35078e-06 -0.00182806)
(0.100053 -3.26719e-06 -0.00186734)
(0.101358 -3.05272e-06 -0.00190272)
(0.102686 -2.73254e-06 -0.0019347)
(0.104035 -2.35156e-06 -0.00196372)
(0.105401 -1.92898e-06 -0.00199021)
(0.106784 -1.48064e-06 -0.00201453)
(0.108181 -1.05518e-06 -0.0020369)
(0.109592 -7.07332e-07 -0.00205749)
(0.111016 -4.52226e-07 -0.0020766)
(0.112451 -2.75187e-07 -0.00209467)
(0.113896 -1.66512e-07 -0.00211199)
(0.115351 -1.19314e-07 -0.00212864)
(0.116814 -1.14126e-07 -0.00214472)
(0.118287 -1.35541e-07 -0.00216055)
(0.119768 -1.88834e-07 -0.0021764)
(0.121258 -2.76001e-07 -0.00219222)
(0.122755 -3.7247e-07 -0.00220788)
(0.124262 -4.52175e-07 -0.00222339)
(0.125776 -5.20724e-07 -0.00223882)
(0.127299 -5.98689e-07 -0.00225405)
(0.128829 -6.831e-07 -0.00226888)
(0.130366 -7.48318e-07 -0.00228325)
(0.13191 -7.75583e-07 -0.00229711)
(0.133461 -7.60344e-07 -0.00231018)
(0.135017 -6.99253e-07 -0.002322)
(0.136578 -5.94771e-07 -0.00233228)
(0.138144 -4.71095e-07 -0.00234104)
(0.139713 -3.62369e-07 -0.00234821)
(0.141284 -2.80219e-07 -0.00235349)
(0.142856 -2.07767e-07 -0.00235659)
(0.144428 -1.27344e-07 -0.00235744)
(0.145998 -3.72712e-08 -0.00235611)
(0.147565 6.26089e-08 -0.00235248)
(0.149126 1.80824e-07 -0.00234636)
(0.15068 3.13468e-07 -0.00233768)
(0.152226 4.22769e-07 -0.00232659)
(0.153762 4.539e-07 -0.00231323)
(0.155287 3.75261e-07 -0.00229755)
(0.156799 1.97363e-07 -0.00227957)
(0.158297 -4.09659e-08 -0.00225949)
(0.15978 -2.91124e-07 -0.00223766)
(0.161246 -5.03229e-07 -0.00221439)
(0.162694 -6.39652e-07 -0.00218986)
(0.164125 -6.98609e-07 -0.00216432)
(0.165536 -7.19318e-07 -0.00213814)
(0.166929 -7.4653e-07 -0.00211162)
(0.168303 -7.81311e-07 -0.00208496)
(0.169658 -7.71586e-07 -0.00205832)
(0.170994 -6.56418e-07 -0.00203199)
(0.172312 -4.20093e-07 -0.00200644)
(0.173612 -1.05347e-07 -0.00198205)
(0.174895 2.17097e-07 -0.00195905)
(0.176161 4.85987e-07 -0.00193752)
(0.177414 6.65963e-07 -0.00191764)
(0.178653 7.47924e-07 -0.00189971)
(0.179879 7.46728e-07 -0.00188403)
(0.181094 6.93301e-07 -0.00187079)
(0.182299 6.13149e-07 -0.00186009)
(0.183496 5.0432e-07 -0.001852)
(0.184687 3.43802e-07 -0.00184664)
(0.185874 1.28318e-07 -0.00184412)
(0.187058 -8.89623e-08 -0.00184452)
(0.188241 -2.14804e-07 -0.00184799)
(0.189425 -1.86075e-07 -0.00185468)
(0.190612 -3.20562e-08 -0.0018647)
(0.191804 1.38875e-07 -0.00187803)
(0.193003 2.29037e-07 -0.00189449)
(0.194213 2.38412e-07 -0.00191394)
(0.195433 2.62219e-07 -0.00193641)
(0.196666 3.92778e-07 -0.00196204)
(0.197913 6.15516e-07 -0.00199085)
(0.199177 8.03161e-07 -0.00202253)
(0.20046 8.22814e-07 -0.00205649)
(0.201762 6.59131e-07 -0.00209207)
(0.203086 4.34437e-07 -0.00212872)
(0.204429 3.01694e-07 -0.00216591)
(0.205792 3.11018e-07 -0.00220283)
(0.207175 3.79798e-07 -0.00223812)
(0.208575 3.94249e-07 -0.00226993)
(0.20999 3.33566e-07 -0.00229621)
(0.211415 2.81754e-07 -0.00231485)
(0.212843 3.16924e-07 -0.00232356)
(0.214267 4.1146e-07 -0.00231942)
(0.215677 4.6492e-07 -0.00229875)
(0.217062 4.25577e-07 -0.00225726)
(0.218406 3.41368e-07 -0.00219037)
(0.219689 2.7495e-07 -0.00209327)
(0.220891 2.04353e-07 -0.00196053)
(0.221986 5.21851e-08 -0.00178589)
(0.222946 -1.94185e-07 -0.00156243)
(0.223735 -4.41396e-07 -0.00128303)
(0.224316 -5.91568e-07 -0.00094057)
(0.224643 -6.50789e-07 -0.000527609)
(0.224667 -6.9693e-07 -3.74021e-05)
(0.224336 -7.50152e-07 0.000540125)
(0.223586 -7.47066e-07 0.00121722)
(0.222355 -6.49264e-07 0.00200283)
(0.220573 -5.2152e-07 0.00290423)
(0.218168 -4.57634e-07 0.00392781)
(0.215063 -4.52139e-07 0.00507845)
(0.211177 -4.27885e-07 0.0063589)
(0.206431 -3.67706e-07 0.00776935)
(0.200746 -3.11167e-07 0.00930686)
(0.194048 -2.33061e-07 0.010964)
(0.186267 -7.65656e-08 0.0127277)
(0.177342 8.70579e-08 0.0145785)
(0.16723 1.2573e-07 0.0164899)
(0.155905 7.55819e-08 0.0184251)
(0.143367 5.95301e-08 0.020334)
(0.129648 2.7464e-08 0.022151)
(0.114822 -1.16367e-07 0.0237917)
(0.0990194 -2.85664e-07 0.0251462)
(0.0824361 -3.96948e-07 0.0260685)
(0.0653528 -4.19691e-07 0.0263605)
(0.0481748 -2.34782e-07 0.0257605)
(0.0313981 2.32081e-08 0.0238559)
(0.0156928 8.99581e-08 0.0201592)
(0.00186544 6.07191e-08 0.0141849)
(-0.0090083 -1.01768e-07 0.00549055)
(-0.0155187 -1.97572e-07 -0.00566231)
(-0.016229 -2.79409e-07 -0.017201)
(-0.00708954 1.77114e-07 -0.0211346)
(-0.00430538 -8.33229e-06 0.0126745)
(-0.012613 -1.74339e-05 0.0139526)
(-0.0151632 -9.07593e-06 0.00815028)
(-0.0133217 -3.54469e-06 0.00102915)
(-0.00793302 -1.74085e-06 -0.00539765)
(7.13123e-05 -2.21021e-06 -0.0105026)
(0.0100148 -3.47011e-06 -0.0142512)
(0.0212798 -4.47013e-06 -0.0168322)
(0.0334324 -4.66224e-06 -0.0184318)
(0.0460743 -4.25975e-06 -0.0192461)
(0.0589007 -3.72724e-06 -0.0194691)
(0.0716354 -3.22388e-06 -0.0192227)
(0.0840617 -2.74961e-06 -0.0186063)
(0.0960003 -2.25837e-06 -0.0176977)
(0.107306 -1.73696e-06 -0.0165604)
(0.117864 -1.21697e-06 -0.0152472)
(0.127581 -7.43123e-07 -0.0138036)
(0.136391 -3.42305e-07 -0.012269)
(0.144244 -1.90352e-08 -0.0106781)
(0.151109 2.32286e-07 -0.00906194)
(0.156974 4.19561e-07 -0.00744791)
(0.161838 5.54827e-07 -0.00586066)
(0.165718 6.54883e-07 -0.00432226)
(0.16864 7.33701e-07 -0.00285269)
(0.170641 7.93668e-07 -0.00146983)
(0.171767 8.15896e-07 -0.000189919)
(0.172066 7.83542e-07 0.000985055)
(0.171608 6.95202e-07 0.00205667)
(0.170457 5.56546e-07 0.00301815)
(0.168685 3.85807e-07 0.00386589)
(0.16636 2.09759e-07 0.00459833)
(0.163555 6.41671e-08 0.00521579)
(0.16034 -6.98099e-09 0.00572035)
(0.156787 3.94715e-08 0.00611559)
(0.152964 2.28961e-07 0.00640644)
(0.148936 5.55527e-07 0.00659899)
(0.144766 9.82026e-07 0.00670026)
(0.140513 1.45346e-06 0.00671799)
(0.13623 1.91254e-06 0.00666036)
(0.131967 2.30668e-06 0.0065358)
(0.127768 2.58717e-06 0.00635279)
(0.123673 2.71018e-06 0.00611978)
(0.119715 2.64507e-06 0.00584499)
(0.115924 2.38832e-06 0.00553631)
(0.112323 1.97444e-06 0.00520114)
(0.108931 1.47278e-06 0.00484638)
(0.105763 9.64202e-07 0.00447831)
(0.10283 5.14532e-07 0.00410266)
(0.100138 1.67522e-07 0.00372451)
(0.0976913 -5.33098e-08 0.00334837)
(0.0954899 -1.53201e-07 0.00297805)
(0.0935316 -1.62583e-07 0.00261672)
(0.0918118 -1.10697e-07 0.00226693)
(0.0903239 -2.42311e-08 0.00193067)
(0.0890601 4.78663e-08 0.0016094)
(0.088011 5.7642e-08 0.00130417)
(0.0871666 1.05674e-08 0.00101556)
(0.0865161 -5.72243e-08 0.000743764)
(0.0860486 -1.37297e-07 0.000488625)
(0.0857531 -2.28648e-07 0.000249629)
(0.0856177 -2.91273e-07 2.60228e-05)
(0.0856316 -3.01837e-07 -0.000180829)
(0.085785 -2.95602e-07 -0.000370124)
(0.0860673 -3.06771e-07 -0.000543401)
(0.0864684 -3.37751e-07 -0.000701814)
(0.0869784 -3.8919e-07 -0.000846479)
(0.0875881 -4.83533e-07 -0.000978417)
(0.0882887 -6.51668e-07 -0.00109863)
(0.089072 -9.14487e-07 -0.00120807)
(0.0899305 -1.26254e-06 -0.00130764)
(0.0908571 -1.65297e-06 -0.00139811)
(0.0918454 -2.04701e-06 -0.00148014)
(0.0928896 -2.43233e-06 -0.00155436)
(0.0939842 -2.78769e-06 -0.00162136)
(0.0951244 -3.06551e-06 -0.00168176)
(0.0963056 -3.23991e-06 -0.00173612)
(0.0975236 -3.33092e-06 -0.00178494)
(0.0987744 -3.35072e-06 -0.00182875)
(0.100054 -3.26713e-06 -0.00186815)
(0.10136 -3.05267e-06 -0.00190371)
(0.102688 -2.73251e-06 -0.00193588)
(0.104037 -2.35154e-06 -0.00196505)
(0.105403 -1.92896e-06 -0.00199163)
(0.106786 -1.48064e-06 -0.00201598)
(0.108183 -1.05518e-06 -0.00203832)
(0.109594 -7.07333e-07 -0.00205879)
(0.111018 -4.52227e-07 -0.00207768)
(0.112452 -2.75188e-07 -0.00209543)
(0.113897 -1.66513e-07 -0.00211243)
(0.115352 -1.19315e-07 -0.00212884)
(0.116815 -1.14126e-07 -0.00214484)
(0.118288 -1.35541e-07 -0.00216062)
(0.119768 -1.88834e-07 -0.00217631)
(0.121258 -2.76001e-07 -0.00219193)
(0.122756 -3.7247e-07 -0.0022075)
(0.124262 -4.52175e-07 -0.00222311)
(0.125777 -5.20725e-07 -0.00223874)
(0.127299 -5.9869e-07 -0.00225415)
(0.12883 -6.83101e-07 -0.00226915)
(0.130367 -7.4832e-07 -0.00228367)
(0.131911 -7.75586e-07 -0.00229767)
(0.133462 -7.60347e-07 -0.00231089)
(0.135018 -6.99257e-07 -0.00232293)
(0.136579 -5.94773e-07 -0.00233351)
(0.138145 -4.71096e-07 -0.00234245)
(0.139714 -3.62371e-07 -0.00234957)
(0.141285 -2.8022e-07 -0.00235467)
(0.142857 -2.07768e-07 -0.00235763)
(0.144429 -1.27344e-07 -0.00235843)
(0.145999 -3.72712e-08 -0.002357)
(0.147565 6.2609e-08 -0.00235316)
(0.149126 1.80825e-07 -0.00234678)
(0.15068 3.13468e-07 -0.00233789)
(0.152226 4.2277e-07 -0.00232662)
(0.153763 4.53901e-07 -0.00231309)
(0.155288 3.75262e-07 -0.00229733)
(0.1568 1.97364e-07 -0.00227945)
(0.158298 -4.0966e-08 -0.00225963)
(0.159781 -2.91125e-07 -0.00223808)
(0.161246 -5.0323e-07 -0.00221499)
(0.162695 -6.39653e-07 -0.00219056)
(0.164125 -6.9861e-07 -0.00216504)
(0.165536 -7.19317e-07 -0.00213875)
(0.16693 -7.46528e-07 -0.00211198)
(0.168304 -7.81308e-07 -0.00208502)
(0.169659 -7.71583e-07 -0.00205821)
(0.170995 -6.56416e-07 -0.00203192)
(0.172312 -4.20092e-07 -0.00200648)
(0.173612 -1.05347e-07 -0.00198213)
(0.174895 2.17097e-07 -0.00195904)
(0.176162 4.85987e-07 -0.00193742)
(0.177415 6.65964e-07 -0.00191755)
(0.178654 7.47927e-07 -0.00189968)
(0.17988 7.4673e-07 -0.00188403)
(0.181095 6.93304e-07 -0.00187077)
(0.1823 6.13151e-07 -0.00186003)
(0.183497 5.04322e-07 -0.00185193)
(0.184688 3.43802e-07 -0.00184655)
(0.185875 1.28319e-07 -0.00184398)
(0.187059 -8.89623e-08 -0.00184434)
(0.188242 -2.14803e-07 -0.0018478)
(0.189425 -1.86075e-07 -0.00185452)
(0.190612 -3.20562e-08 -0.00186452)
(0.191804 1.38875e-07 -0.0018777)
(0.193004 2.29037e-07 -0.00189399)
(0.194214 2.38412e-07 -0.00191344)
(0.195434 2.6222e-07 -0.00193619)
(0.196666 3.92779e-07 -0.00196226)
(0.197914 6.15518e-07 -0.00199139)
(0.199178 8.03165e-07 -0.00202306)
(0.200461 8.22818e-07 -0.00205673)
(0.201764 6.59133e-07 -0.00209202)
(0.203087 4.34438e-07 -0.00212866)
(0.20443 3.01695e-07 -0.00216608)
(0.205792 3.11019e-07 -0.00220323)
(0.207175 3.798e-07 -0.0022385)
(0.208576 3.9425e-07 -0.00227008)
(0.209991 3.33567e-07 -0.00229614)
(0.211416 2.81754e-07 -0.00231478)
(0.212844 3.16925e-07 -0.00232363)
(0.214267 4.11461e-07 -0.00231956)
(0.215678 4.64922e-07 -0.00229877)
(0.217063 4.25579e-07 -0.00225712)
(0.218406 3.41369e-07 -0.0021903)
(0.21969 2.74951e-07 -0.00209351)
(0.220892 2.04354e-07 -0.00196107)
(0.221987 5.21852e-08 -0.0017865)
(0.222947 -1.94185e-07 -0.00156298)
(0.223736 -4.41397e-07 -0.00128358)
(0.224316 -5.91569e-07 -0.000941175)
(0.224642 -6.50789e-07 -0.000528075)
(0.224667 -6.96931e-07 -3.74951e-05)
(0.224336 -7.50153e-07 0.000540314)
(0.223586 -7.47067e-07 0.00121728)
(0.222355 -6.49265e-07 0.0020025)
(0.220574 -5.21521e-07 0.0029037)
(0.218169 -4.57634e-07 0.00392741)
(0.215064 -4.52139e-07 0.00507823)
(0.211178 -4.27885e-07 0.00635872)
(0.206432 -3.67706e-07 0.00776927)
(0.200747 -3.11167e-07 0.00930702)
(0.194049 -2.33061e-07 0.0109643)
(0.186267 -7.65656e-08 0.0127277)
(0.177343 8.70579e-08 0.0145785)
(0.167231 1.25729e-07 0.0164901)
(0.155907 7.55817e-08 0.0184253)
(0.143368 5.953e-08 0.0203336)
(0.129648 2.74639e-08 0.0221505)
(0.114823 -1.16367e-07 0.0237918)
(0.0990201 -2.85663e-07 0.0251466)
(0.0824362 -3.96948e-07 0.0260687)
(0.0653527 -4.19692e-07 0.0263606)
(0.0481745 -2.34783e-07 0.0257602)
(0.0313982 2.32082e-08 0.0238554)
(0.0156941 8.99581e-08 0.0201589)
(0.00186684 6.07192e-08 0.0141839)
(-0.00900679 -1.01769e-07 0.00548876)
(-0.0155169 -1.97572e-07 -0.00566482)
(-0.0162257 -2.79409e-07 -0.0172063)
(-0.00708366 1.77113e-07 -0.0211383)
(-0.00356303 1.22742e-05 0.0201767)
(-0.00661347 -1.57338e-06 0.0163797)
(-0.00409052 -2.33633e-06 0.00557212)
(0.0013002 -1.13138e-06 -0.00485471)
(0.00874975 -8.84363e-08 -0.0135293)
(0.017717 3.94345e-07 -0.0202684)
(0.0278525 4.14743e-07 -0.0252195)
(0.0388518 1.95652e-07 -0.0286379)
(0.0504455 -4.85674e-09 -0.0307773)
(0.0623884 -1.02283e-07 -0.0318682)
(0.0744557 -1.69158e-07 -0.0321168)
(0.0864399 -2.42493e-07 -0.0316833)
(0.0981642 -3.08302e-07 -0.0306985)
(0.109476 -3.40246e-07 -0.0292693)
(0.120247 -3.30676e-07 -0.0274852)
(0.130372 -2.89838e-07 -0.0254229)
(0.139763 -2.28597e-07 -0.0231488)
(0.148352 -1.51377e-07 -0.0207221)
(0.156089 -6.23659e-08 -0.0181955)
(0.162938 2.88326e-08 -0.0156167)
(0.16888 1.1156e-07 -0.0130283)
(0.173908 1.82342e-07 -0.0104691)
(0.178027 2.46891e-07 -0.00797368)