/*--------------------------------*- C++ -*----------------------------------*\
  =========                 |
  \\      /  F ield         | OpenFOAM: The Open Source CFD Toolbox
   \\    /   O peration     | Website:  https://openfoam.org
    \\  /    A nd           | Version:  8
     \\/     M anipulation  |
\*---------------------------------------------------------------------------*/
FoamFile
{
    version     2.0;
    format      ascii;
    class       volScalarField;
    location    "4400";
    object      alphat;
}
// * * * * * * * * * * * * * * * * * * * * * * * * * * * * * * * * * * * * * //

dimensions      [1 -1 -1 0 0 0 0];

internalField   nonuniform List<scalar> 
46000
(
2.2669e-06
8.41291e-06
1.47801e-05
2.06429e-05
2.61644e-05
3.14946e-05
3.66979e-05
4.1793e-05
4.6808e-05
5.17644e-05
5.66787e-05
6.15621e-05
6.63878e-05
7.11754e-05
7.59297e-05
8.06517e-05
8.53405e-05
8.99942e-05
9.46102e-05
9.91853e-05
0.000103716
0.000108197
0.000112626
0.000116997
0.000121305
0.000125546
0.000129714
0.000133804
0.000137813
0.000141733
0.000145561
0.000149292
0.000152921
0.000156444
0.000159855
0.000163151
0.000166329
0.000169383
0.000172311
0.000175109
0.000177775
0.000180305
0.000182697
0.000184949
0.00018706
0.000189027
0.000190849
0.000192525
0.000194055
0.000195439
0.000196675
0.000197765
0.000198709
0.000199508
0.000200163
0.000200676
0.000201047
0.000201279
0.000201375
0.000201338
0.000201169
0.000200876
0.000200459
0.00019992
0.000199262
0.000198486
0.000197598
0.000196601
0.000195498
0.000194294
0.000192992
0.000191597
0.000190113
0.000188544
0.000186895
0.00018517
0.000183373
0.000181509
0.000179583
0.000177597
0.000175558
0.000173468
0.000171332
0.000169155
0.000166941
0.000164692
0.000162414
0.00016011
0.000157784
0.00015544
0.00015308
0.000150709
0.000148329
0.000145944
0.000143557
0.00014117
0.000138786
0.000136409
0.000134039
0.000131681
0.000129335
0.000127004
0.000124689
0.000122394
0.000120118
0.000117865
0.000115634
0.000113428
0.000111248
0.000109094
0.000106967
0.000104869
0.000102799
0.00010076
9.87497e-05
9.67702e-05
9.48214e-05
9.29034e-05
9.10163e-05
8.91603e-05
8.73352e-05
8.55409e-05
8.37773e-05
8.20441e-05
8.0341e-05
7.86677e-05
7.70238e-05
7.54088e-05
7.38222e-05
7.22636e-05
7.07324e-05
6.9228e-05
6.77498e-05
6.62972e-05
6.48697e-05
6.34665e-05
6.20869e-05
6.07304e-05
5.93963e-05
5.80838e-05
5.67924e-05
5.55214e-05
5.42702e-05
5.3038e-05
5.18243e-05
5.06284e-05
4.94498e-05
4.82879e-05
4.71421e-05
4.60118e-05
4.48965e-05
4.37957e-05
4.27088e-05
4.16355e-05
4.05753e-05
3.95277e-05
3.84922e-05
3.74686e-05
3.64564e-05
3.54553e-05
3.44649e-05
3.34849e-05
3.25149e-05
3.15547e-05
3.0604e-05
2.96624e-05
2.87298e-05
2.7806e-05
2.68915e-05
2.59852e-05
2.50867e-05
2.41957e-05
2.33119e-05
2.24351e-05
2.15649e-05
2.0701e-05
1.98431e-05
1.89909e-05
1.81439e-05
1.73018e-05
1.6464e-05
1.56301e-05
1.47996e-05
1.39728e-05
1.31484e-05
1.23254e-05
1.1503e-05
1.068e-05
9.85509e-06
9.02687e-06
8.1935e-06
7.35276e-06
6.50191e-06
5.63742e-06
4.75474e-06
3.84774e-06
2.90816e-06
1.92859e-06
9.3349e-07
1.84735e-07
2.26889e-06
8.41622e-06
1.4783e-05
2.06445e-05
2.61651e-05
3.14949e-05
3.66981e-05
4.17931e-05
4.68081e-05
5.17645e-05
5.66788e-05
6.15621e-05
6.63878e-05
7.11754e-05
7.59297e-05
8.06517e-05
8.53405e-05
8.99942e-05
9.46102e-05
9.91853e-05
0.000103716
0.000108197
0.000112626
0.000116997
0.000121305
0.000125545
0.000129714
0.000133804
0.000137813
0.000141733
0.000145561
0.000149292
0.000152921
0.000156443
0.000159855
0.000163151
0.000166328
0.000169383
0.000172311
0.000175109
0.000177775
0.000180305
0.000182697
0.000184949
0.00018706
0.000189026
0.000190849
0.000192525
0.000194055
0.000195438
0.000196675
0.000197765
0.000198709
0.000199508
0.000200163
0.000200675
0.000201047
0.000201279
0.000201375
0.000201337
0.000201169
0.000200875
0.000200459
0.00019992
0.000199261
0.000198486
0.000197598
0.000196601
0.000195498
0.000194293
0.000192992
0.000191597
0.000190113
0.000188544
0.000186895
0.00018517
0.000183373
0.000181509
0.000179582
0.000177597
0.000175557
0.000173468
0.000171332
0.000169155
0.00016694
0.000164692
0.000162414
0.00016011
0.000157784
0.00015544
0.00015308
0.000150709
0.000148329
0.000145944
0.000143557
0.00014117
0.000138786
0.000136408
0.000134039
0.00013168
0.000129334
0.000127003
0.000124689
0.000122394
0.000120118
0.000117864
0.000115634
0.000113428
0.000111247
0.000109093
0.000106967
0.000104868
0.000102799
0.000100759
9.87495e-05
9.677e-05
9.48212e-05
9.29032e-05
9.10161e-05
8.91601e-05
8.7335e-05
8.55407e-05
8.37771e-05
8.20439e-05
8.03408e-05
7.86675e-05
7.70236e-05
7.54086e-05
7.3822e-05
7.22634e-05
7.07322e-05
6.92278e-05
6.77496e-05
6.62971e-05
6.48695e-05
6.34663e-05
6.20868e-05
6.07303e-05
5.93961e-05
5.80837e-05
5.67923e-05
5.55213e-05
5.427e-05
5.30379e-05
5.18242e-05
5.06283e-05
4.94497e-05
4.82878e-05
4.7142e-05
4.60117e-05
4.48964e-05
4.37956e-05
4.27087e-05
4.16354e-05
4.05752e-05
3.95276e-05
3.84921e-05
3.74685e-05
3.64563e-05
3.54552e-05
3.44648e-05
3.34848e-05
3.25148e-05
3.15546e-05
3.06039e-05
2.96623e-05
2.87297e-05
2.7806e-05
2.68914e-05
2.59851e-05
2.50866e-05
2.41956e-05
2.33119e-05
2.2435e-05
2.15648e-05
2.0701e-05
1.98431e-05
1.89908e-05
1.81439e-05
1.73017e-05
1.6464e-05
1.56301e-05
1.47996e-05
1.39727e-05
1.31483e-05
1.23254e-05
1.1503e-05
1.06799e-05
9.85508e-06
9.02686e-06
8.19349e-06
7.35275e-06
6.5019e-06
5.63742e-06
4.75474e-06
3.84775e-06
2.90817e-06
1.9286e-06
9.33491e-07
1.84735e-07
7.7692e-06
6.2354e-05
0.000104036
0.000133124
0.00015578
0.000174652
0.000190968
0.000205619
0.000219089
0.000231672
0.000243548
0.000254861
0.000265716
0.000276177
0.000286288
0.000296088
0.000305603
0.000314856
0.000323863
0.000332636
0.000341185
0.000349518
0.000357639
0.000365552
0.00037326
0.000380764
0.000388064
0.000395161
0.000402053
0.00040874
0.000415221
0.000421493
0.000427555
0.000433406
0.000439043
0.000444464
0.000449669
0.000454655
0.00045942
0.000463963
0.000468284
0.00047238
0.000476251
0.000479897
0.000483317
0.00048651
0.000489477
0.000492219
0.000494735
0.000497027
0.000499095
0.000500942
0.000502568
0.000503976
0.000505168
0.000506146
0.000506912
0.00050747
0.000507823
0.000507973
0.000507924
0.000507678
0.00050724
0.000506615
0.000505807
0.000504821
0.000503663
0.000502336
0.000500846
0.000499198
0.000497396
0.000495447
0.000493356
0.000491127
0.000488767
0.00048628
0.000483673
0.00048095
0.000478118
0.000475181
0.000472146
0.000469017
0.000465801
0.000462502
0.000459126
0.000455678
0.000452163
0.000448587
0.000444953
0.000441269
0.000437537
0.000433763
0.000429951
0.000426106
0.000422233
0.000418334
0.000414415
0.00041048
0.000406531
0.000402573
0.000398609
0.000394643
0.000390677
0.000386715
0.000382759
0.000378812
0.000374877
0.000370957
0.000367052
0.000363166
0.0003593
0.000355456
0.000351635
0.00034784
0.000344071
0.000340329
0.000336616
0.000332932
0.000329278
0.000325654
0.000322062
0.000318501
0.000314972
0.000311475
0.000308009
0.000304576
0.000301173
0.000297802
0.000294461
0.000291151
0.000287871
0.000284619
0.000281396
0.000278201
0.000275032
0.00027189
0.000268772
0.000265678
0.000262608
0.000259559
0.000256531
0.000253523
0.000250533
0.000247561
0.000244605
0.000241664
0.000238737
0.000235823
0.000232919
0.000230027
0.000227143
0.000224266
0.000221396
0.000218531
0.00021567
0.000212812
0.000209955
0.000207098
0.000204239
0.000201378
0.000198512
0.00019564
0.000192762
0.000189874
0.000186976
0.000184066
0.000181141
0.000178197
0.000175232
0.000172248
0.000169242
0.000166212
0.000163155
0.000160067
0.000156946
0.000153788
0.000150588
0.000147342
0.000144043
0.000140686
0.000137263
0.000133765
0.00013018
0.000126489
0.000122688
0.000118759
0.000114682
0.000110433
0.000105981
0.000101288
9.63032e-05
9.09594e-05
8.51644e-05
7.87853e-05
7.16204e-05
6.33397e-05
5.33433e-05
4.03646e-05
2.13934e-05
8.50369e-07
7.76643e-06
6.23494e-05
0.000104034
0.000133124
0.000155782
0.000174655
0.00019097
0.000205622
0.000219092
0.000231675
0.000243551
0.000254863
0.000265719
0.000276179
0.000286291
0.000296091
0.000305606
0.000314859
0.000323866
0.000332639
0.000341188
0.000349521
0.000357642
0.000365556
0.000373264
0.000380768
0.000388068
0.000395165
0.000402057
0.000408744
0.000415225
0.000421497
0.000427559
0.00043341
0.000439047
0.000444468
0.000449673
0.000454659
0.000459424
0.000463968
0.000468288
0.000472384
0.000476256
0.000479901
0.000483321
0.000486514
0.000489482
0.000492223
0.000494739
0.000497031
0.0004991
0.000500946
0.000502573
0.000503981
0.000505172
0.00050615
0.000506917
0.000507475
0.000507827
0.000507977
0.000507928
0.000507682
0.000507244
0.000506619
0.000505811
0.000504826
0.000503667
0.00050234
0.00050085
0.000499202
0.0004974
0.000495451
0.00049336
0.000491131
0.000488771
0.000486284
0.000483677
0.000480954
0.000478122
0.000475185
0.00047215
0.000469021
0.000465805
0.000462506
0.00045913
0.000455681
0.000452167
0.00044859
0.000444957
0.000441272
0.00043754
0.000433766
0.000429955
0.00042611
0.000422236
0.000418337
0.000414418
0.000410483
0.000406534
0.000402576
0.000398612
0.000394645
0.00039068
0.000386717
0.000382762
0.000378815
0.00037488
0.000370959
0.000367055
0.000363168
0.000359302
0.000355458
0.000351638
0.000347842
0.000344073
0.000340331
0.000336618
0.000332934
0.00032928
0.000325657
0.000322064
0.000318504
0.000314974
0.000311477
0.000308011
0.000304577
0.000301175
0.000297804
0.000294463
0.000291153
0.000287872
0.000284621
0.000281398
0.000278203
0.000275034
0.000271891
0.000268774
0.00026568
0.000262609
0.00025956
0.000256532
0.000253524
0.000250535
0.000247562
0.000244606
0.000241665
0.000238738
0.000235824
0.000232921
0.000230028
0.000227144
0.000224267
0.000221397
0.000218533
0.000215672
0.000212813
0.000209956
0.000207099
0.00020424
0.000201379
0.000198513
0.000195641
0.000192763
0.000189875
0.000186977
0.000184067
0.000181142
0.000178198
0.000175233
0.000172249
0.000169243
0.000166213
0.000163155
0.000160068
0.000156947
0.000153789
0.000150589
0.000147342
0.000144044
0.000140687
0.000137264
0.000133766
0.00013018
0.00012649
0.000122688
0.000118759
0.000114682
0.000110433
0.000105982
0.000101288
9.63035e-05
9.09597e-05
8.51647e-05
7.87855e-05
7.16206e-05
6.33399e-05
5.33435e-05
4.03647e-05
2.13934e-05
8.50369e-07
1.39589e-05
0.000100991
0.000183159
0.0002449
0.000292975
0.000331993
0.000364857
0.00039342
0.000418845
0.000441909
0.00046314
0.000482908
0.00050148
0.000519046
0.000535744
0.000551682
0.000566945
0.000581597
0.000595693
0.000609274
0.000622375
0.000635023
0.000647241
0.000659049
0.000670462
0.000681492
0.000692151
0.000702447
0.000712389
0.000721981
0.00073123
0.000740139
0.000748713
0.000756955
0.000764868
0.000772453
0.000779714
0.000786652
0.000793269
0.000799567
0.000805548
0.000811213
0.000816564
0.000821604
0.000826333
0.000830754
0.000834869
0.000838681
0.000842191
0.000845403
0.000848319
0.000850942
0.000853275
0.000855321
0.000857084
0.000858568
0.000859775
0.00086071
0.000861376
0.000861776
0.000861915
0.000861794
0.00086142
0.000860798
0.000859937
0.000858842
0.000857519
0.000855975
0.000854216
0.000852247
0.000850074
0.000847704
0.000845142
0.000842396
0.000839471
0.000836373
0.000833109
0.000829685
0.000826107
0.000822382
0.000818517
0.000814517
0.000810388
0.000806138
0.000801771
0.000797295
0.000792716
0.000788039
0.00078327
0.000778416
0.000773482
0.000768473
0.000763396
0.000758255
0.000753057
0.000747806
0.000742507
0.000737166
0.000731787
0.000726374
0.000720933
0.000715467
0.000709981
0.000704479
0.000698964
0.00069344
0.000687911
0.00068238
0.00067685
0.000671323
0.000665804
0.000660293
0.000654795
0.000649309
0.00064384
0.000638388
0.000632956
0.000627544
0.000622154
0.000616788
0.000611445
0.000606127
0.000600834
0.000595568
0.000590327
0.000585113
0.000579924
0.000574762
0.000569626
0.000564515
0.000559428
0.000554366
0.000549328
0.000544311
0.000539317
0.000534342
0.000529387
0.00052445
0.00051953
0.000514625
0.000509734
0.000504855
0.000499986
0.000495127
0.000490276
0.000485429
0.000480587
0.000475747
0.000470907
0.000466065
0.000461219
0.000456367
0.000451508
0.000446638
0.000441756
0.00043686
0.000431947
0.000427014
0.00042206
0.000417081
0.000412074
0.000407038
0.000401967
0.00039686
0.000391712
0.000386519
0.000381276
0.000375978
0.000370617
0.000365193
0.000359702
0.000354138
0.000348494
0.000342762
0.000336934
0.000331
0.000324949
0.000318769
0.000312444
0.000305958
0.00029929
0.000292418
0.00028531
0.000277932
0.000270249
0.000262219
0.000253786
0.000244884
0.000235426
0.000225304
0.000214376
0.000202453
0.000189275
0.00017447
0.000157485
0.000137455
0.000112933
8.1396e-05
3.92397e-05
1.76598e-06
1.39577e-05
0.00010099
0.000183161
0.000244903
0.00029298
0.000331998
0.000364862
0.000393425
0.00041885
0.000441914
0.000463145
0.000482913
0.000501485
0.00051905
0.000535749
0.000551687
0.00056695
0.000581602
0.000595698
0.000609279
0.00062238
0.000635028
0.000647246
0.000659054
0.000670467
0.000681497
0.000692156
0.000702453
0.000712394
0.000721986
0.000731235
0.000740144
0.000748719
0.00075696
0.000764873
0.000772459
0.000779719
0.000786657
0.000793275
0.000799573
0.000805553
0.000811219
0.00081657
0.000821609
0.000826338
0.000830759
0.000834875
0.000838686
0.000842197
0.000845408
0.000848324
0.000850947
0.00085328
0.000855327
0.00085709
0.000858573
0.00085978
0.000860715
0.000861381
0.000861781
0.00086192
0.000861799
0.000861425
0.000860803
0.000859942
0.000858847
0.000857524
0.00085598
0.000854221
0.000852251
0.000850078
0.000847708
0.000845147
0.0008424
0.000839475
0.000836377
0.000833113
0.000829689
0.000826111
0.000822387
0.000818521
0.000814521
0.000810392
0.000806142
0.000801775
0.000797299
0.00079272
0.000788042
0.000783274
0.000778419
0.000773485
0.000768476
0.000763399
0.000758259
0.00075306
0.000747809
0.00074251
0.000737169
0.00073179
0.000726377
0.000720936
0.00071547
0.000709984
0.000704482
0.000698967
0.000693443
0.000687914
0.000682382
0.000676852
0.000671326
0.000665806
0.000660295
0.000654797
0.000649311
0.000643842
0.00063839
0.000632958
0.000627546
0.000622156
0.000616789
0.000611447
0.000606129
0.000600836
0.000595569
0.000590328
0.000585114
0.000579926
0.000574763
0.000569627
0.000564516
0.00055943
0.000554367
0.000549329
0.000544312
0.000539318
0.000534343
0.000529388
0.000524451
0.000519531
0.000514626
0.000509734
0.000504855
0.000499987
0.000495128
0.000490276
0.00048543
0.000480588
0.000475748
0.000470907
0.000466065
0.00046122
0.000456368
0.000451508
0.000446639
0.000441757
0.000436861
0.000431947
0.000427015
0.00042206
0.000417081
0.000412075
0.000407038
0.000401968
0.00039686
0.000391712
0.000386519
0.000381277
0.000375978
0.000370617
0.000365193
0.000359703
0.000354138
0.000348494
0.000342762
0.000336934
0.000331001
0.00032495
0.000318769
0.000312444
0.000305958
0.00029929
0.000292418
0.000285311
0.000277932
0.000270249
0.000262219
0.000253786
0.000244884
0.000235426
0.000225304
0.000214376
0.000202453
0.000189275
0.00017447
0.000157486
0.000137455
0.000112933
8.1396e-05
3.92396e-05
1.76598e-06
1.98186e-05
0.000128757
0.000242017
0.000333715
0.000407776
0.000468851
0.00052051
0.000565229
0.000604715
0.000640162
0.000672423
0.000702113
0.000729688
0.000755486
0.000779761
0.000802713
0.000824497
0.000845236
0.000865031
0.000883962
0.000902096
0.000919489
0.000936187
0.000952229
0.000967647
0.000982471
0.000996723
0.00101043
0.0010236
0.00103625
0.0010484
0.00106007
0.00107125
0.00108197
0.00109223
0.00110203
0.0011114
0.00112032
0.00112882
0.00113689
0.00114454
0.00115178
0.00115861
0.00116503
0.00117106
0.0011767
0.00118195
0.00118682
0.0011913
0.00119542
0.00119916
0.00120254
0.00120557
0.00120824
0.00121056
0.00121253
0.00121417
0.00121547
0.00121644
0.00121709
0.00121742
0.00121743
0.00121714
0.00121654
0.00121564
0.00121446
0.001213
0.00121127
0.00120928
0.00120703
0.00120452
0.00120178
0.0011988
0.00119558
0.00119215
0.0011885
0.00118464
0.00118058
0.00117632
0.00117188
0.00116726
0.00116246
0.0011575
0.00115238
0.0011471
0.00114169
0.00113613
0.00113044
0.00112462
0.00111869
0.00111265
0.0011065
0.00110025
0.00109391
0.00108748
0.00108097
0.00107439
0.00106774
0.00106102
0.00105425
0.00104743
0.00104055
0.00103364
0.00102669
0.0010197
0.00101269
0.00100565
0.000998593
0.000991518
0.000984431
0.000977335
0.000970232
0.000963126
0.00095602
0.000948916
0.000941817
0.000934725
0.000927641
0.000920567
0.000913506
0.000906458
0.000899424
0.000892405
0.000885402
0.000878416
0.000871446
0.000864494
0.000857558
0.000850638
0.000843735
0.000836847
0.000829975
0.000823116
0.00081627
0.000809436
0.000802613
0.000795799
0.000788993
0.000782193
0.000775397
0.000768604
0.000761811
0.000755017
0.00074822
0.000741416
0.000734605
0.000727783
0.000720949
0.000714099
0.000707231
0.000700342
0.00069343
0.000686491
0.000679523
0.000672522
0.000665485
0.000658408
0.000651288
0.000644121
0.000636902
0.000629628
0.000622293
0.000614893
0.000607422
0.000599874
0.000592241
0.000584518
0.000576694
0.00056876
0.000560713
0.000552543
0.000544239
0.00053579
0.000527183
0.000518403
0.000509431
0.00050025
0.000490836
0.000481164
0.000471203
0.000460919
0.000450269
0.000439205
0.000427667
0.000415589
0.000402896
0.00038949
0.000375253
0.000360036
0.000343652
0.000325857
0.000306335
0.000284658
0.000260239
0.000232239
0.000199438
0.000160006
0.000111315
5.13756e-05
2.67482e-06
1.98186e-05
0.000128758
0.000242021
0.00033372
0.000407783
0.000468858
0.000520517
0.000565236
0.000604722
0.000640169
0.00067243
0.00070212
0.000729695
0.000755492
0.000779768
0.00080272
0.000824504
0.000845243
0.000865037
0.000883969
0.000902103
0.000919496
0.000936194
0.000952236
0.000967654
0.000982477
0.00099673
0.00101043
0.0010236
0.00103626
0.00104841
0.00106007
0.00107126
0.00108198
0.00109223
0.00110204
0.0011114
0.00112033
0.00112882
0.00113689
0.00114454
0.00115178
0.00115861
0.00116504
0.00117107
0.00117671
0.00118196
0.00118682
0.00119131
0.00119542
0.00119917
0.00120255
0.00120557
0.00120824
0.00121056
0.00121254
0.00121417
0.00121548
0.00121645
0.0012171
0.00121743
0.00121744
0.00121714
0.00121654
0.00121565
0.00121447
0.00121301
0.00121128
0.00120928
0.00120703
0.00120453
0.00120178
0.0011988
0.00119559
0.00119215
0.0011885
0.00118464
0.00118058
0.00117633
0.00117188
0.00116726
0.00116247
0.0011575
0.00115238
0.00114711
0.00114169
0.00113613
0.00113044
0.00112463
0.0011187
0.00111265
0.0011065
0.00110025
0.00109391
0.00108748
0.00108098
0.00107439
0.00106774
0.00106103
0.00105425
0.00104743
0.00104056
0.00103364
0.00102669
0.0010197
0.00101269
0.00100565
0.000998595
0.00099152
0.000984433
0.000977336
0.000970234
0.000963128
0.000956022
0.000948918
0.000941818
0.000934726
0.000927642
0.000920569
0.000913507
0.000906459
0.000899425
0.000892406
0.000885403
0.000878417
0.000871447
0.000864494
0.000857558
0.000850639
0.000843736
0.000836848
0.000829975
0.000823116
0.000816271
0.000809437
0.000802614
0.0007958
0.000788993
0.000782193
0.000775397
0.000768604
0.000761811
0.000755017
0.00074822
0.000741416
0.000734605
0.000727783
0.000720949
0.000714099
0.000707231
0.000700342
0.00069343
0.000686491
0.000679523
0.000672522
0.000665485
0.000658408
0.000651288
0.000644121
0.000636902
0.000629628
0.000622293
0.000614893
0.000607422
0.000599873
0.000592241
0.000584517
0.000576693
0.00056876
0.000560713
0.000552542
0.000544238
0.00053579
0.000527183
0.000518402
0.000509431
0.00050025
0.000490836
0.000481163
0.000471203
0.000460918
0.000450269
0.000439205
0.000427667
0.000415589
0.000402896
0.00038949
0.000375253
0.000360036
0.000343651
0.000325857
0.000306335
0.000284658
0.000260238
0.000232239
0.000199438
0.000160007
0.000111315
5.13753e-05
2.67483e-06
2.5448e-05
0.000151253
0.000288706
0.000405772
0.000503449
0.000585723
0.000656136
0.000717402
0.000771537
0.000820032
0.000863992
0.000904247
0.000941424
0.000976003
0.00100835
0.00103877
0.00106748
0.00109466
0.00112048
0.00114505
0.00116848
0.00119084
0.00121223
0.00123268
0.00125226
0.00127102
0.00128898
0.0013062
0.00132269
0.00133848
0.0013536
0.00136806
0.0013819
0.00139512
0.00140774
0.00141978
0.00143125
0.00144216
0.00145252
0.00146235
0.00147166
0.00148045
0.00148873
0.00149652
0.00150382
0.00151064
0.00151698
0.00152287
0.0015283
0.00153328
0.00153781
0.00154192
0.00154559
0.00154885
0.00155169
0.00155413
0.00155616
0.00155781
0.00155906
0.00155994
0.00156044
0.00156057
0.00156034
0.00155975
0.00155883
0.00155756
0.00155597
0.00155406
0.00155185
0.00154933
0.00154651
0.00154341
0.00154003
0.00153638
0.00153247
0.0015283
0.00152389
0.00151923
0.00151434
0.00150923
0.00150391
0.00149837
0.00149263
0.0014867
0.00148059
0.00147429
0.00146783
0.0014612
0.00145441
0.00144748
0.00144041
0.0014332
0.00142587
0.00141841
0.00141084
0.00140317
0.00139539
0.00138752
0.00137957
0.00137153
0.00136342
0.00135524
0.00134699
0.00133869
0.00133034
0.00132193
0.00131349
0.001305
0.00129648
0.00128793
0.00127936
0.00127076
0.00126215
0.00125352
0.00124488
0.00123622
0.00122757
0.0012189
0.00121024
0.00120157
0.00119291
0.00118424
0.00117558
0.00116693
0.00115828
0.00114963
0.00114099
0.00113235
0.00112372
0.0011151
0.00110648
0.00109786
0.00108924
0.00108063
0.00107202
0.0010634
0.00105478
0.00104616
0.00103752
0.00102888
0.00102023
0.00101156
0.00100288
0.000994181
0.000985459
0.000976712
0.000967938
0.000959134
0.000950296
0.000941421
0.000932506
0.000923546
0.000914539
0.00090548
0.000896365
0.000887189
0.000877947
0.000868636
0.000859248
0.000849779
0.000840223
0.000830573
0.000820821
0.00081096
0.000800982
0.000790877
0.000780634
0.000770243
0.00075969
0.000748966
0.000738057
0.000726947
0.000715621
0.000704057
0.000692233
0.000680125
0.000667703
0.000654934
0.00064178
0.000628198
0.000614134
0.000599531
0.000584316
0.000568407
0.000551705
0.0005341
0.000515453
0.000495593
0.000474313
0.000451351
0.000426375
0.000398961
0.00036855
0.000334404
0.000295517
0.00025052
0.000197555
0.000134389
6.07859e-05
3.55819e-06
2.54482e-05
0.000151255
0.000288711
0.000405779
0.000503457
0.000585731
0.000656144
0.000717411
0.000771546
0.000820041
0.000864001
0.000904256
0.000941433
0.000976012
0.00100836
0.00103878
0.00106748
0.00109467
0.00112049
0.00114506
0.00116849
0.00119085
0.00121223
0.00123269
0.00125227
0.00127103
0.00128899
0.0013062
0.00132269
0.00133849
0.0013536
0.00136807
0.00138191
0.00139513
0.00140775
0.00141979
0.00143126
0.00144217
0.00145253
0.00146236
0.00147166
0.00148045
0.00148874
0.00149653
0.00150382
0.00151064
0.00151699
0.00152288
0.0015283
0.00153328
0.00153782
0.00154192
0.0015456
0.00154885
0.0015517
0.00155413
0.00155617
0.00155781
0.00155907
0.00155994
0.00156044
0.00156058
0.00156034
0.00155976
0.00155883
0.00155757
0.00155598
0.00155407
0.00155185
0.00154933
0.00154652
0.00154342
0.00154004
0.00153639
0.00153247
0.00152831
0.00152389
0.00151924
0.00151435
0.00150924
0.00150391
0.00149837
0.00149264
0.00148671
0.00148059
0.0014743
0.00146783
0.0014612
0.00145442
0.00144749
0.00144041
0.0014332
0.00142587
0.00141841
0.00141084
0.00140317
0.00139539
0.00138753
0.00137957
0.00137153
0.00136342
0.00135524
0.001347
0.00133869
0.00133034
0.00132193
0.00131349
0.001305
0.00129648
0.00128794
0.00127936
0.00127076
0.00126215
0.00125352
0.00124488
0.00123623
0.00122757
0.0012189
0.00121024
0.00120157
0.00119291
0.00118424
0.00117558
0.00116693
0.00115828
0.00114963
0.00114099
0.00113235
0.00112372
0.0011151
0.00110648
0.00109786
0.00108925
0.00108063
0.00107202
0.0010634
0.00105478
0.00104616
0.00103752
0.00102888
0.00102023
0.00101156
0.00100288
0.000994181
0.000985458
0.000976712
0.000967938
0.000959133
0.000950295
0.000941421
0.000932505
0.000923546
0.000914539
0.00090548
0.000896364
0.000887188
0.000877947
0.000868635
0.000859248
0.000849779
0.000840222
0.000830572
0.00082082
0.00081096
0.000800981
0.000790876
0.000780634
0.000770242
0.000759689
0.000748965
0.000738056
0.000726947
0.00071562
0.000704056
0.000692233
0.000680124
0.000667702
0.000654933
0.00064178
0.000628197
0.000614133
0.00059953
0.000584315
0.000568406
0.000551704
0.000534099
0.000515452
0.000495593
0.000474313
0.00045135
0.000426375
0.00039896
0.00036855
0.000334404
0.000295517
0.00025052
0.000197555
0.000134389
6.07856e-05
3.5582e-06
3.09524e-05
0.000170557
0.000327561
0.000466135
0.000584779
0.000686553
0.000774709
0.000851977
0.000920515
0.000981993
0.0010377
0.00108863
0.00113555
0.00117906
0.00121965
0.00125767
0.00129345
0.00132722
0.00135918
0.0013895
0.00141831
0.00144574
0.00147188
0.00149682
0.00152063
0.00154336
0.00156508
0.00158584
0.00160567
0.00162462
0.00164272
0.00166
0.00167648
0.0016922
0.00170718
0.00172144
0.001735
0.00174787
0.00176008
0.00177164
0.00178256
0.00179287
0.00180257
0.00181168
0.00182021
0.00182817
0.00183558
0.00184244
0.00184876
0.00185457
0.00185985
0.00186464
0.00186893
0.00187273
0.00187606
0.00187892
0.00188132
0.00188327
0.00188478
0.00188586
0.0018865
0.00188673
0.00188655
0.00188596
0.00188499
0.00188363
0.00188191
0.00187982
0.00187738
0.00187459
0.00187147
0.00186802
0.00186426
0.00186019
0.00185582
0.00185115
0.0018462
0.00184098
0.0018355
0.00182975
0.00182376
0.00181752
0.00181105
0.00180436
0.00179745
0.00179033
0.00178301
0.0017755
0.00176781
0.00175994
0.0017519
0.00174371
0.00173536
0.00172686
0.00171823
0.00170946
0.00170057
0.00169157
0.00168246
0.00167324
0.00166393
0.00165453
0.00164504
0.00163548
0.00162585
0.00161615
0.00160639
0.00159657
0.0015867
0.00157679
0.00156684
0.00155684
0.00154682
0.00153676
0.00152668
0.00151658
0.00150645
0.00149631
0.00148615
0.00147598
0.00146579
0.0014556
0.0014454
0.00143519
0.00142497
0.00141474
0.00140451
0.00139427
0.00138402
0.00137377
0.00136351
0.00135323
0.00134295
0.00133266
0.00132235
0.00131203
0.00130169
0.00129133
0.00128095
0.00127054
0.00126011
0.00124965
0.00123916
0.00122863
0.00121806
0.00120745
0.0011968
0.0011861
0.00117534
0.00116452
0.00115365
0.0011427
0.00113169
0.0011206
0.00110943
0.00109817
0.00108682
0.00107537
0.00106381
0.00105214
0.00104035
0.00102843
0.00101637
0.00100415
0.000991783
0.000979239
0.000966509
0.000953579
0.000940432
0.000927052
0.000913422
0.000899521
0.000885327
0.000870812
0.000855947
0.000840697
0.000825025
0.000808886
0.00079223
0.000774998
0.000757123
0.000738528
0.000719119
0.00069879
0.000677413
0.000654844
0.000630903
0.000605378
0.000578004
0.000548459
0.00051634
0.00048114
0.000442213
0.000398728
0.000349607
0.000293464
0.000228583
0.000153249
6.86636e-05
4.42443e-06
3.09526e-05
0.000170559
0.000327565
0.000466141
0.000584787
0.000686562
0.000774719
0.000851987
0.000920525
0.000982004
0.00103771
0.00108864
0.00113556
0.00117907
0.00121966
0.00125768
0.00129346
0.00132723
0.00135919
0.00138951
0.00141832
0.00144575
0.0014719
0.00149683
0.00152064
0.00154337
0.00156509
0.00158585
0.00160568
0.00162463
0.00164273
0.00166001
0.00167649
0.00169221
0.00170719
0.00172145
0.001735
0.00174788
0.00176009
0.00177165
0.00178257
0.00179288
0.00180258
0.00181169
0.00182022
0.00182818
0.00183559
0.00184245
0.00184877
0.00185457
0.00185986
0.00186465
0.00186894
0.00187274
0.00187607
0.00187893
0.00188133
0.00188328
0.00188479
0.00188586
0.00188651
0.00188674
0.00188655
0.00188597
0.001885
0.00188364
0.00188191
0.00187982
0.00187738
0.0018746
0.00187147
0.00186803
0.00186426
0.00186019
0.00185582
0.00185116
0.00184621
0.00184099
0.0018355
0.00182975
0.00182376
0.00181752
0.00181105
0.00180436
0.00179745
0.00179033
0.00178302
0.00177551
0.00176781
0.00175995
0.00175191
0.00174371
0.00173536
0.00172686
0.00171823
0.00170947
0.00170058
0.00169157
0.00168246
0.00167324
0.00166393
0.00165453
0.00164505
0.00163548
0.00162585
0.00161615
0.00160639
0.00159657
0.0015867
0.00157679
0.00156684
0.00155685
0.00154682
0.00153677
0.00152668
0.00151658
0.00150645
0.00149631
0.00148615
0.00147598
0.0014658
0.0014556
0.0014454
0.00143519
0.00142497
0.00141474
0.00140451
0.00139427
0.00138402
0.00137377
0.00136351
0.00135323
0.00134295
0.00133266
0.00132235
0.00131203
0.00130169
0.00129133
0.00128095
0.00127054
0.00126011
0.00124965
0.00123916
0.00122863
0.00121806
0.00120745
0.0011968
0.0011861
0.00117534
0.00116452
0.00115365
0.0011427
0.00113169
0.0011206
0.00110943
0.00109817
0.00108682
0.00107537
0.00106381
0.00105214
0.00104035
0.00102843
0.00101636
0.00100415
0.000991782
0.000979238
0.000966508
0.000953578
0.000940431
0.000927051
0.000913421
0.000899521
0.000885326
0.000870811
0.000855946
0.000840696
0.000825024
0.000808885
0.000792229
0.000774997
0.000757123
0.000738527
0.000719118
0.000698789
0.000677413
0.000654843
0.000630903
0.000605377
0.000578003
0.000548459
0.00051634
0.00048114
0.000442213
0.000398728
0.000349608
0.000293465
0.000228584
0.000153249
6.86634e-05
4.42445e-06
3.6357e-05
0.000187687
0.000361162
0.00051821
0.000655386
0.000774822
0.000879387
0.000971713
0.001054
0.001128
0.00119514
0.00125653
0.00131305
0.0013654
0.00141415
0.00145975
0.00150256
0.00154289
0.00158097
0.00161703
0.00165123
0.00168371
0.00171461
0.00174402
0.00177203
0.00179874
0.0018242
0.00184849
0.00187165
0.00189374
0.0019148
0.00193486
0.00195398
0.00197217
0.00198948
0.00200592
0.00202154
0.00203634
0.00205036
0.00206361
0.00207613
0.00208791
0.00209899
0.00210938
0.0021191
0.00212817
0.00213659
0.00214438
0.00215157
0.00215815
0.00216415
0.00216958
0.00217444
0.00217875
0.00218253
0.00218578
0.00218851
0.00219074
0.00219247
0.00219371
0.00219448
0.00219478
0.00219462
0.00219402
0.00219298
0.00219152
0.00218964
0.00218736
0.00218469
0.00218163
0.00217821
0.00217442
0.00217027
0.00216578
0.00216096
0.00215581
0.00215035
0.00214458
0.00213851
0.00213215
0.00212551
0.00211861
0.00211144
0.00210401
0.00209635
0.00208845
0.00208032
0.00207197
0.00206341
0.00205466
0.00204571
0.00203657
0.00202726
0.00201778
0.00200814
0.00199835
0.00198841
0.00197834
0.00196814
0.00195781
0.00194737
0.00193682
0.00192617
0.00191543
0.0019046
0.00189368
0.00188269
0.00187162
0.00186049
0.0018493
0.00183805
0.00182675
0.0018154
0.00180401
0.00179258
0.00178112
0.00176962
0.00175809
0.00174653
0.00173495
0.00172334
0.00171171
0.00170006
0.00168839
0.0016767
0.00166499
0.00165326
0.00164152
0.00162975
0.00161797
0.00160616
0.00159433
0.00158248
0.0015706
0.0015587
0.00154677
0.0015348
0.00152281