/*--------------------------------*- C++ -*----------------------------------*\
  =========                 |
  \\      /  F ield         | OpenFOAM: The Open Source CFD Toolbox
   \\    /   O peration     | Website:  https://openfoam.org
    \\  /    A nd           | Version:  8
     \\/     M anipulation  |
\*---------------------------------------------------------------------------*/
FoamFile
{
    version     2.0;
    format      ascii;
    class       volScalarField;
    location    "4400";
    object      epsilon;
}
// * * * * * * * * * * * * * * * * * * * * * * * * * * * * * * * * * * * * * //

dimensions      [0 2 -3 0 0 0 0];

internalField   nonuniform List<scalar> 
46000
(
41.0332
137.606
241.168
336.322
425.814
512.116
596.291
678.655
759.673
839.698
919.001
997.767
1075.57
1152.73
1229.32
1305.36
1380.85
1455.74
1530.01
1603.6
1676.45
1748.5
1819.68
1889.91
1959.13
2027.24
2094.18
2159.86
2224.21
2287.14
2348.57
2408.43
2466.65
2523.14
2577.85
2630.7
2681.64
2730.6
2777.52
2822.36
2865.06
2905.59
2943.9
2979.96
3013.74
3045.22
3074.37
3101.18
3125.64
3147.75
3167.5
3184.9
3199.96
3212.69
3223.11
3231.24
3237.11
3240.75
3242.2
3241.51
3238.73
3233.94
3227.17
3218.44
3207.8
3195.28
3180.96
3164.88
3147.12
3127.73
3106.77
3084.33
3060.45
3035.22
3008.71
2980.97
2952.09
2922.13
2891.16
2859.25
2826.48
2792.9
2758.6
2723.62
2688.04
2651.93
2615.34
2578.33
2540.97
2503.32
2465.42
2427.34
2389.12
2350.81
2312.47
2274.14
2235.86
2197.68
2159.63
2121.75
2084.07
2046.64
2009.47
1972.6
1936.06
1899.87
1864.04
1828.61
1793.59
1759
1724.84
1691.14
1657.9
1625.13
1592.85
1561.05
1529.75
1498.94
1468.62
1438.8
1409.48
1380.66
1352.32
1324.47
1297.11
1270.22
1243.8
1217.85
1192.35
1167.3
1142.69
1118.51
1094.75
1071.4
1048.45
1025.89
1003.7
981.892
960.438
939.331
918.561
898.117
877.989
858.166
838.639
819.396
800.429
781.728
763.284
745.088
727.131
709.405
691.902
674.614
657.534
640.654
623.969
607.471
591.154
575.013
559.041
543.234
527.586
512.093
496.75
481.551
466.493
451.575
436.802
422.158
407.638
393.236
378.947
364.766
350.689
336.71
322.825
309.027
295.311
281.67
268.095
254.578
241.112
227.702
214.327
200.971
187.619
174.252
160.85
147.388
133.836
120.158
106.309
92.2283
77.8414
63.0457
47.7011
31.6793
15.3643
3.37711
41.0735
137.672
241.226
336.349
425.823
512.118
596.292
678.656
759.674
839.699
919.002
997.768
1075.57
1152.73
1229.32
1305.36
1380.85
1455.74
1530.01
1603.6
1676.45
1748.5
1819.68
1889.91
1959.13
2027.24
2094.18
2159.86
2224.21
2287.13
2348.57
2408.43
2466.64
2523.14
2577.85
2630.7
2681.64
2730.59
2777.52
2822.36
2865.06
2905.59
2943.9
2979.96
3013.74
3045.21
3074.36
3101.18
3125.64
3147.75
3167.5
3184.9
3199.96
3212.68
3223.1
3231.23
3237.1
3240.75
3242.2
3241.51
3238.73
3233.93
3227.16
3218.44
3207.79
3195.28
3180.95
3164.88
3147.11
3127.72
3106.77
3084.32
3060.45
3035.22
3008.7
2980.97
2952.08
2922.12
2891.16
2859.25
2826.47
2792.9
2758.59
2723.61
2688.04
2651.92
2615.33
2578.33
2540.97
2503.31
2465.41
2427.33
2389.11
2350.81
2312.47
2274.14
2235.86
2197.67
2159.62
2121.74
2084.07
2046.63
2009.47
1972.6
1936.06
1899.86
1864.04
1828.61
1793.59
1758.99
1724.84
1691.13
1657.9
1625.13
1592.85
1561.05
1529.74
1498.93
1468.62
1438.8
1409.48
1380.65
1352.32
1324.47
1297.1
1270.21
1243.8
1217.84
1192.35
1167.3
1142.69
1118.5
1094.74
1071.39
1048.44
1025.88
1003.7
981.89
960.436
939.329
918.559
898.115
877.987
858.164
838.637
819.394
800.427
781.727
763.283
745.086
727.13
709.404
691.9
674.613
657.532
640.653
623.967
607.469
591.152
575.011
559.04
543.233
527.585
512.092
496.748
481.55
466.491
451.573
436.801
422.157
407.637
393.235
378.946
364.765
350.688
336.709
322.824
309.027
295.311
281.669
268.094
254.578
241.112
227.701
214.326
200.971
187.618
174.252
160.85
147.388
133.836
120.158
106.308
92.2281
77.8413
63.0456
47.7011
31.6793
15.3643
3.37711
149.553
126.403
157.633
195.785
235.883
276.956
318.721
360.912
403.468
446.377
489.518
532.913
576.482
620.232
664.154
708.222
752.4
796.646
840.911
885.142
929.282
973.271
1017.04
1060.54
1103.68
1146.41
1188.66
1230.34
1271.4
1311.77
1351.36
1390.12
1427.98
1464.87
1500.72
1535.49
1569.1
1601.5
1632.63
1662.46
1690.92
1717.99
1743.61
1767.75
1790.39
1811.49
1831.02
1848.98
1865.35
1880.1
1893.25
1904.77
1914.69
1922.99
1929.69
1934.81
1938.36
1940.36
1940.85
1939.84
1937.39
1933.53
1928.31
1921.73
1913.84
1904.65
1894.23
1882.6
1869.83
1855.95
1841.02
1825.08
1808.19
1790.41
1771.78
1752.35
1732.19
1711.34
1689.85
1667.79
1645.19
1622.12
1598.61
1574.73
1550.51
1526.01
1501.27
1476.33
1451.24
1426.04
1400.77
1375.45
1350.14
1324.87
1299.66
1274.55
1249.57
1224.74
1200.1
1175.66
1151.44
1127.47
1103.77
1080.35
1057.22
1034.41
1011.92
989.762
967.95
946.491
925.39
904.652
884.283
864.286
844.662
825.412
806.537
788.035
769.905
752.145
734.751
717.72
701.046
684.726
668.753
653.122
637.826
622.858
608.212
593.881
579.856
566.13
552.696
539.545
526.67
514.063
501.715
489.619
477.766
466.15
454.762
443.595
432.641
421.893
411.344
400.987
390.816
380.824
371.004
361.35
351.858
342.521
333.333
324.291
315.388
306.621
297.984
289.475
281.088
272.821
264.669
256.629
248.699
240.874
233.153
225.533
218.012
210.589
203.264
196.031
188.886
181.827
174.851
167.955
161.139
154.399
147.733
141.139
134.615
128.158
121.767
115.438
109.17
102.965
96.8153
90.7165
84.6639
78.6522
72.676
66.7289
60.8037
54.8921
48.9846
43.071
37.1413
31.1908
25.2381
19.4028
14.317
16.6934
149.492
126.396
157.634
195.784
235.881
276.953
318.717
360.907
403.463
446.371
489.512
532.906
576.475
620.225
664.146
708.213
752.391
796.637
840.901
885.132
929.271
973.259
1017.03
1060.53
1103.67
1146.4
1188.64
1230.33
1271.39
1311.75
1351.35
1390.1
1427.96
1464.85
1500.71
1535.47
1569.08
1601.48
1632.61
1662.44
1690.9
1717.97
1743.59
1767.73
1790.37
1811.46
1831
1848.96
1865.32
1880.08
1893.22
1904.75
1914.66
1922.97
1929.67
1934.79
1938.34
1940.34
1940.82
1939.82
1937.36
1933.51
1928.28
1921.71
1913.81
1904.63
1894.21
1882.58
1869.81
1855.93
1840.99
1825.06
1808.17
1790.39
1771.75
1752.33
1732.17
1711.32
1689.83
1667.77
1645.17
1622.1
1598.59
1574.71
1550.49
1525.99
1501.25
1476.32
1451.23
1426.02
1400.75
1375.44
1350.13
1324.85
1299.65
1274.54
1249.56
1224.73
1200.08
1175.64
1151.43
1127.46
1103.75
1080.33
1057.21
1034.39
1011.91
989.75
967.939
946.479
925.379
904.642
884.273
864.276
844.652
825.402
806.527
788.026
769.896
752.136
734.743
717.711
701.038
684.718
668.745
653.114
637.819
622.851
608.205
593.874
579.849
566.124
552.69
539.539
526.664
514.057
501.709
489.613
477.761
466.145
454.757
443.59
432.636
421.888
411.34
400.983
390.812
380.819
371
361.346
351.854
342.517
333.33
324.287
315.385
306.617
297.981
289.472
281.085
272.818
264.666
256.627
248.696
240.872
233.151
225.531
218.01
210.587
203.262
196.029
188.884
181.825
174.849
167.954
161.137
154.397
147.731
141.137
134.614
128.157
121.765
115.436
109.169
102.964
96.8143
90.7156
84.663
78.6515
72.6753
66.7283
60.8031
54.8916
48.9842
43.0707
37.1411
31.1906
25.238
19.4027
14.317
16.6934
265.163
165.769
168.434
187.199
211.392
238.261
266.754
296.342
326.726
357.753
389.303
421.302
453.683
486.399
519.414
552.687
586.177
619.84
653.631
687.501
721.401
755.277
789.077
822.743
856.219
889.447
922.368
954.922
987.048
1018.69
1049.78
1080.27
1110.1
1139.2
1167.53
1195.04
1221.66
1247.35
1272.07
1295.76
1318.39
1339.92
1360.31
1379.54
1397.56
1414.36
1429.91
1444.2
1457.2
1468.92
1479.33
1488.44
1496.24
1502.74
1507.95
1511.86
1514.51
1515.9
1516.06
1515.01
1512.78
1509.4
1504.9
1499.31
1492.64
1484.94
1476.23
1466.55
1455.94
1444.44
1432.09
1418.94
1405.03
1390.4
1375.1
1359.16
1342.65
1325.59
1308.04
1290.03
1271.61
1252.83
1233.72
1214.33
1194.69
1174.85
1154.83
1134.68
1114.44
1094.13
1073.79
1053.44
1033.12
1012.86
992.678
972.602
952.655
932.859
913.233
893.797
874.567
855.559
836.788
818.267
800.006
782.017
764.309
746.888
729.763
712.938
696.418
680.207
664.306
648.718
633.444
618.482
603.833
589.495
575.465
561.742
548.321
535.198
522.37
509.832
497.579
485.605
473.904
462.471
451.3
440.383
429.716
419.29
409.1
399.139
389.399
379.875
370.56
361.446
352.528
343.799
335.252
326.882
318.681
310.645
302.766
295.04
287.461
280.024
272.724
265.555
258.513
251.593
244.791
238.104
231.526
225.054
218.685
212.415
206.241
200.16
194.17
188.267
182.45
176.715
171.061
165.485
159.987
154.565
149.217
143.942
138.736
133.597
128.524
123.516
118.57
113.686
108.863
104.098
99.3904
94.7396
90.1442
85.6033
81.1163
76.6832
72.302
67.9709
63.6881
59.4525
55.2627
51.1181
47.0185
42.9653
38.9625
35.0194
31.1567
27.4217
23.9303
21.0189
20.1047
34.1152
265.139
165.763
168.43
187.195
211.389
238.257
266.749
296.338
326.721
357.748
389.298
421.297
453.677
486.393
519.408
552.68
586.17
619.833
653.624
687.494
721.393
755.269
789.068
822.734
856.21
889.438
922.358
954.911
987.038
1018.68
1049.77
1080.26
1110.09
1139.19
1167.52
1195.02
1221.65
1247.34
1272.05
1295.75
1318.38
1339.91
1360.3
1379.52
1397.55
1414.35
1429.9
1444.18
1457.19
1468.9
1479.31
1488.42
1496.23
1502.73
1507.93
1511.85
1514.5
1515.89
1516.05
1514.99
1512.76
1509.38
1504.89
1499.29
1492.63
1484.92
1476.21
1466.53
1455.92
1444.43
1432.08
1418.93
1405.02
1390.39
1375.08
1359.15
1342.64
1325.58
1308.02
1290.02
1271.6
1252.82
1233.71
1214.32
1194.68
1174.84
1154.82
1134.67
1114.43
1094.12
1073.78
1053.43
1033.11
1012.85
992.67
972.594
952.647
932.851
913.225
893.789
874.56
855.552
836.781
818.26
800
782.011
764.302
746.882
729.757
712.932
696.413
680.201
664.301
648.713
633.439
618.477
603.828
589.49
575.461
561.737
548.316
535.194
522.367
509.829
497.575
485.601
473.901
462.468
451.296
440.38
429.713
419.287
409.097
399.136
389.397
379.873
370.557
361.444
352.526
343.797
335.25
326.879
318.679
310.642
302.764
295.038
287.46
280.023
272.722
265.553
258.511
251.591
244.79
238.102
231.524
225.052
218.683
212.414
206.24
200.159
194.169
188.266
182.448
176.714
171.06
165.484
159.986
154.564
149.217
143.941
138.735
133.596
128.524
123.515
118.57
113.686
108.862
104.097
99.3898
94.7391
90.1437
85.6028
81.1159
76.6828
72.3016
67.9705
63.6878
59.4522
55.2624
51.1178
47.0183
42.9651
38.9623
35.0192
31.1566
27.4216
23.9302
21.0189
20.1048
34.1152
373.871
210.935
193.245
199.994
215.119
234.299
255.871
279.037
303.354
328.555
354.464
380.957
407.943
435.35
463.12
491.199
519.54
548.094
576.815
605.656
634.567
663.501
692.407
721.235
749.933
778.448
806.727
834.718
862.366
889.618
916.421
942.722
968.469
993.611
1018.1
1041.88
1064.92
1087.16
1108.56
1129.08
1148.69
1167.35
1185.02
1201.68
1217.3
1231.85
1245.32
1257.68
1268.93
1279.04
1288.02
1295.85
1302.54
1308.09
1312.5
1315.78
1317.95
1319.01
1318.98
1317.89
1315.76
1312.62
1308.48
1303.38
1297.33
1290.38
1282.53
1273.84
1264.33
1254.04
1243.01
1231.28
1218.87
1205.84
1192.22
1178.06
1163.38
1148.24
1132.66
1116.7
1100.38
1083.75
1066.84
1049.68
1032.32
1014.79
997.124
979.347
961.495
943.596
925.679
907.771
889.898
872.085
854.353
836.725
819.222
801.861
784.661
767.638
750.806
734.179
717.77
701.59
685.648
669.954
654.514
639.336
624.425
609.786
595.422
581.335
567.528
554.003
540.758
527.794
515.109
502.703
490.572
478.714
467.126
455.804
444.744
433.941
423.392
413.09
403.031
393.209
383.619
374.255
365.11
356.18
347.457
338.937
330.612
322.477
314.526
306.753
299.152
291.716
284.441
277.321
270.35
263.523
256.834
250.279
243.853
237.551
231.368
225.3
219.343
213.492
207.745
202.096
196.543
191.083
185.712
180.427
175.225
170.104
165.062
160.095
155.202
150.381
145.63
140.947
136.331
131.78
127.294
122.87
118.507
114.202
109.956
105.766
101.632
97.5532
93.5278
89.5555
85.6357
81.7679
77.9515
74.1865
70.4727
66.8104
63.1997
59.6404
56.1329
52.6782
49.278
45.9353
42.6552
39.4459
36.3214
33.3061
30.445
27.8277
25.6545
24.4766
26.5575
51.1782
373.873
210.932
193.241
199.99
215.115
234.295
255.867
279.033
303.349
328.55
354.459
380.953
407.938
435.345
463.114
491.193
519.534
548.088
576.809
605.649
634.561
663.494
692.4
721.228
749.925
778.44
806.719
834.71
862.358
889.61
916.413
942.713
968.46
993.602
1018.09
1041.87
1064.91
1087.15
1108.55
1129.07
1148.68
1167.34
1185.01
1201.67
1217.29
1231.84
1245.31
1257.67
1268.92
1279.03
1288.01
1295.84
1302.53
1308.08
1312.49
1315.77
1317.94
1319
1318.97
1317.88
1315.75
1312.61
1308.47
1303.37
1297.32
1290.37
1282.52
1273.83
1264.32
1254.03
1243
1231.27
1218.86
1205.83
1192.21
1178.05
1163.37
1148.23
1132.65
1116.69
1100.37
1083.74
1066.83
1049.68
1032.32
1014.79
997.117
979.341
961.489
943.59
925.673
907.766
889.893
872.079
854.348
836.72
819.217
801.856
784.656
767.633
750.801
734.175
717.766
701.586
685.644
669.95
654.51
639.333
624.422
609.782
595.418
581.332
567.525
554
540.755
527.791
515.106
502.7
490.569
478.711
467.123
455.801
444.741
433.939
423.389
413.088
403.029
393.207
383.617
374.253
365.109
356.178
347.456
338.935
330.611
322.476
314.525
306.752
299.15
291.715
284.44
277.32
270.349
263.522
256.833
250.278
243.852
237.55
231.367
225.299
219.342
213.492
207.744
202.096
196.543
191.082
185.711
180.426
175.224
170.104
165.061
160.094
155.201
150.38
145.629
140.947
136.331
131.78
127.294
122.87
118.506
114.202
109.956
105.766
101.632
97.5529
93.5275
89.5553
85.6355
81.7676
77.9513
74.1862
70.4725
66.8102
63.1996
59.6403
56.1328
52.6781
49.2779
45.9352
42.6551
39.4458
36.3213
33.306
30.445
27.8276
25.6545
24.4767
26.5577
51.1784
477.948
257.67
222.666
220.012
228.475
242.307
259.28
278.32
298.833
320.459
342.96
366.169
389.965
414.252
438.955
464.009
489.355
514.942
540.717
566.632
592.639
618.689
644.734
670.725
696.614
722.351
747.888
773.174
798.159
822.796
847.033
870.823
894.118
916.871
939.035
960.566
981.422
1001.56
1020.94
1039.53
1057.28
1074.18
1090.17
1105.25
1119.38
1132.54
1144.71
1155.88
1166.02
1175.13
1183.21
1190.23
1196.22
1201.16
1205.05
1207.92
1209.76
1210.59
1210.42
1209.28
1207.18
1204.14
1200.2
1195.36
1189.67
1183.13
1175.78
1167.66
1158.78
1149.19
1138.92
1128.01
1116.48
1104.38
1091.75
1078.61
1065.01
1050.97
1036.55
1021.77
1006.67
991.289
975.653
959.798
943.758
927.565
911.248
894.837
878.361
861.847
845.321
828.809
812.333
795.917
779.581
763.346
747.23
731.249
715.422
699.761
684.282
668.995
653.913
639.046
624.403
609.991
595.818
581.889
568.21
554.784
541.615
528.705
516.056
503.667
491.541
479.675
468.07
456.723
445.632
434.795
424.208
413.868
403.771
393.913
384.289
374.896
365.727
356.778
348.043
339.518
331.196
323.072
315.141
307.397
299.834
292.446
285.228
278.175
271.28
264.539
257.946
251.496
245.184
239.005
232.953
227.025
221.216
215.521
209.936
204.457
199.08
193.802
188.618
183.526
178.522
173.602
168.765
164.007
159.326
154.719
150.184
145.719
141.322
136.991
132.724
128.52
124.378
120.296
116.272
112.306
108.397
104.542
100.742
96.994
93.2989
89.6555
86.0633
82.522
79.0313
75.591
72.2014
68.8628
65.5756
62.3408
59.1596
56.0331
52.9635
49.9537
47.0078
44.1324
41.3366
38.635
36.0504
33.6207
31.4128
29.5549
28.3278
28.493
33.133
67.6562
477.955
257.667
222.662
220.008
228.471
242.303
259.275
278.315
298.829
320.455
342.955
366.165
389.96
414.247
438.95
464.003
489.35
514.936
540.711
566.626
592.633
618.683
644.727
670.718
696.607
722.345
747.881
773.167
798.152
822.788
847.026
870.816
894.111
916.863
939.027
960.558
981.414
1001.55
1020.93
1039.52
1057.27
1074.17
1090.17
1105.24
1119.37
1132.53
1144.7
1155.87
1166.01
1175.12
1183.2
1190.23
1196.21
1201.15
1205.05
1207.91
1209.75
1210.58
1210.41
1209.27
1207.17
1204.14
1200.19
1195.36
1189.66
1183.12
1175.78
1167.65
1158.78
1149.19
1138.92
1128
1116.48
1104.38
1091.74
1078.6
1065
1050.97
1036.55
1021.77
1006.67
991.284
975.648
959.793
943.753
927.56
911.243
894.832
878.356
861.843
845.317
828.805
812.329
795.913
779.578
763.342
747.226
731.246
715.418
699.758
684.278
668.992
653.911
639.044
624.4
609.989
595.816
581.887
568.208
554.782
541.613
528.703
516.053
503.665
491.539
479.674
468.068
456.721
445.63
434.793
424.206
413.866
403.769
393.911
384.288
374.894
365.725
356.777
348.042
339.517
331.195
323.071
315.14
307.396
299.833
292.445
285.227
278.174
271.279
264.538
257.946
251.496
245.183
239.004
232.953
227.025
221.215
215.52
209.936
204.457
199.08
193.802
188.618
183.525
178.521
173.602
168.765
164.007
159.326
154.719
150.184
145.719
141.322
136.991
132.724
128.52
124.378
120.295
116.272
112.306
108.396
104.542
100.741
96.9938
93.2987
89.6553
86.0632
82.5218
79.0311
75.5909
72.2013
68.8627
65.5755
62.3407
59.1595
56.033
52.9634
49.9536
47.0078
44.1323
41.3366
38.635
36.0504
33.6207
31.4128
29.5549
28.3278
28.493
33.1333
67.6564
579.466
305.346
254.42
243.561
246.525
256.153
269.651
285.675
303.483
322.622
342.795
363.795
385.47
407.703
430.4
453.485
476.891
500.556
524.426
548.449
572.574
596.753
620.937
645.078
669.13
693.045
716.776
740.275
763.497
786.393
808.918
831.027
852.674
873.816
894.409
914.411
933.783
952.485
970.481
987.735
1004.21
1019.89
1034.72
1048.7
1061.79
1073.97
1085.23
1095.55
1104.92
1113.31
1120.74
1127.19
1132.66
1137.15
1140.66
1143.21
1144.8
1145.43
1145.14
1143.92
1141.81
1138.82
1134.97
1130.29
1124.79
1118.51
1111.47
1103.69
1095.21
1086.06
1076.28
1065.88
1054.92
1043.41
1031.4
1018.92
1006.01
992.689
979.004
964.986
950.667
936.08
921.258
906.233
891.034
875.692
860.235
844.692
829.089
813.453
797.807
782.175
766.579
751.042
735.582
720.219
704.969
689.85
674.877
660.063
645.421
630.964
616.701
602.643
588.798
575.172
561.774
548.608
535.679
522.991
510.547
498.348
486.398
474.695
463.241
452.036
441.077
430.363
419.893
409.663
399.671
389.914
380.387
371.088
362.011
353.153
344.508
336.072
327.839
319.806
311.965
304.313
296.844
289.552
282.433
275.48
268.689
262.054
255.57
249.232
243.035
236.974
231.043
225.239
219.557
213.993
208.541
203.198
197.959
192.822
187.782
182.835
177.979
173.209
168.524
163.919
159.392
154.942
150.564
146.257
142.018
137.846
133.739
129.695
125.712
121.79
117.926
114.119
110.368
106.673
103.032
99.4443
95.9086
92.4245
88.9916
85.6094
82.2776
78.9963
75.7654
72.5855
69.4568
66.3804
63.3573
60.3891
57.4779
54.6261
51.8372
49.1161
46.4692
43.9059
41.4397
39.0905
36.8896
34.8872
33.1706
31.9052
31.4495
32.7716
39.7501
83.7487
579.471
305.342
254.416
243.557
246.521
256.149
269.647
285.671
303.478
322.617
342.791
363.79
385.465
407.698
430.395
453.48
476.886
500.551
524.421
548.444
572.569
596.747
620.931
645.073
669.124
693.039
716.77
740.269
763.49
786.387
808.912
831.02
852.667
873.809
894.402
914.404
933.776
952.478
970.474
987.727
1004.21
1019.88
1034.72
1048.69
1061.78
1073.97
1085.23
1095.54
1104.91
1113.31
1120.73
1127.18
1132.65
1137.14
1140.66
1143.2
1144.79
1145.43
1145.13
1143.92
1141.8
1138.81
1134.97
1130.28
1124.79
1118.5
1111.46
1103.68
1095.21
1086.06
1076.27
1065.88
1054.91
1043.41
1031.4
1018.92
1006
992.684
979
964.981
950.662
936.076
921.254
906.229
891.03
875.688
860.232
844.689
829.086
813.449
797.803
782.171
766.576
751.039
735.579
720.216
704.966
689.847
674.874
660.06
645.419
630.962
616.699
602.641
588.795
575.17
561.772
548.606
535.677
522.989
510.545
498.347
486.396
474.694
463.24
452.034
441.075
430.362
419.891
409.662
399.67
389.913
380.386
371.087
362.01
353.152
344.507
336.071
327.838
319.805
311.964
304.312
296.843
289.552
282.432
275.479
268.688
262.053
255.569
249.231
243.034
236.973
231.043
225.239
219.557
213.992
208.54
203.197
197.959
192.822
187.781
182.835
177.978
173.209
168.523
163.919
159.392
154.941
150.563
146.256
142.018
137.846
133.739
129.695
125.712
121.789
117.925
114.119
110.368
106.673
103.032
99.4441
95.9084
92.4244
88.9915
85.6092
82.2775
78.9962
75.7653
72.5854
69.4568
66.3803
63.3573
60.3891
57.4778
54.626
51.8372
49.1161
46.4692
43.9059
41.4396
39.0905
36.8895
34.8871
33.1706
31.9052
31.4495
32.7717
39.7505
83.749
678.927
353.753
287.686
269.282
267.415
273.496
284.164
297.807
313.535
330.806
349.265
368.665
388.824
409.604
430.896
452.609
474.667
497.003
519.554
542.267
565.087
587.965
610.852
633.699
656.461
679.09
701.542
723.77
745.73
767.377
788.668
809.559
830.007
849.971
869.411
888.287
906.561
924.197
941.159
957.415
972.933
987.684
1001.64
1014.78
1027.08
1038.51
1049.07
1058.73
1067.48
1075.32
1082.24
1088.22
1093.28
1097.4
1100.6
1102.88
1104.24
1104.71
1104.28
1102.98
1100.83
1097.83
1094.02
1089.42
1084.04
1077.91
1071.06
1063.51
1055.3
1046.44
1036.98
1026.94
1016.35
1005.25
993.668
981.638
969.193
956.364
943.185
929.688
915.904
901.865
887.601
873.142
858.518
843.757
828.887
813.934
798.923
783.881
768.829
753.791
738.787
723.839
708.965
694.184
679.511
664.964
650.555
636.3
622.209
608.295
594.567
581.036
567.708
554.592
541.693
529.017
516.568
504.351
492.368
480.621
469.112
457.841
446.809
436.016
425.46
415.14
405.053
395.199
385.573
376.173
366.996
358.036
349.292
340.758
332.429
324.302
316.372
308.633
301.08
293.71
286.515
279.493
272.636
265.941
259.402
253.014
246.772
240.671
234.707
228.874
223.168
217.585
212.119
206.767
201.525
196.389
191.354
186.417
181.574
176.822
172.158
167.579
163.081
158.662
154.319
150.05
145.851
141.722
137.66
133.663
129.729
125.856
122.044
118.29
114.593
110.953
107.368
103.837
100.359
96.9343
93.5611
90.2394
86.9686
83.7488
80.5799
77.462
74.3957
71.3816
68.4206
65.5141
62.6637
59.8718
57.141
54.4752
51.8792
49.3594
46.9246
44.5868
42.3634
40.2798
38.3747
36.7105
35.394
34.6267
34.844
37.2184
46.4123
99.6197
678.928
353.749
287.682
269.277
267.411
273.491
284.16
297.803
313.53
330.801
349.261
368.66
388.819
409.6
430.891
452.605
474.662
496.998
519.549
542.262
565.082
587.96
610.846
633.693
656.455
679.084
701.536
723.764
745.724
767.371
788.662
809.552
830.001
849.965
869.405
888.281
906.555
924.191
941.153
957.409
972.927
987.678
1001.64
1014.77
1027.07
1038.51
1049.06
1058.72
1067.48
1075.32
1082.23
1088.22
1093.27
1097.4
1100.59
1102.87
1104.24
1104.7
1104.27
1102.97
1100.82
1097.83
1094.02
1089.41
1084.04
1077.91
1071.06
1063.51
1055.29
1046.44
1036.97
1026.93
1016.35
1005.25
993.664
981.634
969.189
956.36
943.182
929.684
915.9
901.861
887.597
873.139
858.515
843.754
828.884
813.931
798.92
783.878
768.826
753.788
738.785
723.837
708.963
694.181
679.509
664.961
650.553
636.297
622.207
608.293
594.565
581.034
567.706
554.59
541.691
529.015
516.567
504.349
492.366
480.619
469.11
457.84
446.808
436.014
425.458
415.138
405.052
395.198
385.572
376.172
366.995
358.036
349.291
340.757
332.428
324.301
316.371
308.632
301.08
293.709
286.515
279.492
272.636
265.941
259.401
253.013
246.772
240.671
234.706
228.874
223.168
217.584
212.119
206.767
201.525
196.388
191.353
186.416
181.574
176.822
172.158
167.579
163.081
158.662
154.319
150.049
145.851
141.722
137.66
133.663
129.728
125.856
122.043
118.289
114.593
110.953
107.368
103.837
100.359
96.9341
93.561
90.2392
86.9685
83.7487
80.5798
77.4619
74.3956
71.3815
68.4205
65.514
62.6637
59.8717
57.141
54.4752
51.8792
49.3594
46.9246
44.5868
42.3634
40.2798
38.3747
36.7105
35.394
34.6267
34.844
37.2185
46.4128
99.6201
776.767
402.78
322.115
296.582
290.303
293.253
301.503
313.169
327.215
343.011
360.143
378.326
397.35
417.055
437.316
458.029
479.11
500.482
522.08
543.843
565.715
587.645
609.582
631.478
653.286
674.96
696.455
717.728
738.734
759.432
779.779
799.733
819.255
838.305
856.844
874.835
892.243
909.033
925.173
940.63
955.375
969.382
982.624
995.078
1006.72
1017.54
1027.51
1036.63
1044.87
1052.24
1058.72
1064.3
1069
1072.8
1075.72
1077.75
1078.91
1079.2
1078.64
1077.24
1075.02
1072
1068.19
1063.62
1058.3
1052.27
1045.54
1038.14
1030.1
1021.45
1012.21
1002.41
992.097
981.285
970.01
958.304
946.197
933.722
920.908
907.788
894.39
880.746
866.885
852.835
838.625
824.282
809.831
795.3
780.713
766.093
751.463
736.845
722.259
707.725
693.261
678.885
664.613
650.461
636.441
622.568
608.854
595.309
581.943
568.765
555.784
543.006
530.438
518.085
505.951
494.04
482.355
470.899
459.672
448.676
437.911
427.377
417.073
406.997
397.148
387.524
378.121
368.938
359.971
351.215
342.669
334.327
326.185
318.238
310.484
302.915
295.529
288.32
281.283
274.413
267.706
261.156
254.758
248.508
242.401
236.433
230.597
224.891
219.309
213.847
208.501
203.267
198.14
193.117
188.194
183.368
178.634
173.99
169.432
164.958
160.564
156.248
152.008
147.84
143.742
139.713
135.75
131.851
128.016
124.241
120.526
116.869
113.269
109.726
106.237
102.803
99.4216
96.0934
92.8175
89.5936
86.4214
83.3011
80.2328
77.217
74.2546
71.3463
68.4937
65.6985
62.9629
60.2898
57.683
55.147
52.6881
50.3144
48.0365
45.8693
43.8338
41.9605
40.2955
38.9127
37.9383
37.6094
38.4386
41.8026
53.1413
115.388
776.767
402.775
322.11
296.577
290.299
293.248
301.498
313.165
327.211
343.006
360.139
378.321
397.345
417.05
437.311
458.025
479.105
500.477
522.075
543.838
565.71
587.64
609.577
631.472
653.28
674.954
696.45
717.722
738.729
759.426
779.773
799.727
819.249
838.299
856.838
874.83
892.238
909.028
925.167
940.624
955.369
969.376
982.618
995.072
1006.72
1017.54
1027.51
1036.62
1044.87
1052.23
1058.71
1064.3
1068.99
1072.8
1075.71
1077.75
1078.9
1079.2
1078.64
1077.24
1075.02
1071.99
1068.19
1063.61
1058.3
1052.26
1045.53
1038.14
1030.1
1021.44
1012.2
1002.41
992.093
981.281
970.006
958.3
946.194
933.718
920.905
907.784
894.387
880.743
866.882
852.832
838.622
824.279
809.829
795.298
780.71
766.09
751.46
736.842
722.256
707.722
693.259
678.883
664.611
650.458
636.439
622.566
608.852
595.307
581.941
568.763
555.782
543.005
530.436
518.083
505.949
494.039
482.354
470.898
459.671
448.675
437.91
427.376
417.072
406.996
397.147
387.523
378.12
368.937
359.97
351.215
342.668
334.326
326.184
318.238
310.483
302.915
295.528
288.319
281.282
274.412
267.705
261.155
254.757
248.508
242.401
236.432
230.597
224.891
219.309
213.847
208.501
203.266
198.14
193.117
188.194
183.367
178.634
173.989
169.432
164.958
160.564
156.248
152.007
147.839
143.742
139.713
135.75
131.851
128.015
124.241
120.526
116.869
113.269
109.725
106.237
102.802
99.4215
96.0933
92.8174
89.5934
86.4213
83.301
80.2327
77.217
74.2545
71.3462
68.4936
65.6984
62.9628
60.2898
57.6829
55.147
52.6881
50.3143
48.0364
45.8693
43.8338
41.9604
40.2955
38.9127
37.9382
37.6094
38.4386
41.8027
53.1419
115.389
873.594
452.523
357.554
325.177
314.767
314.867
320.979
330.945
343.582
358.17
374.24
391.466
409.612
428.496
447.978
467.942
488.292
508.947
529.833
550.887
572.048
593.263
614.48
635.649
656.724
677.659
698.41
718.933
739.186
759.129
778.719
797.919
816.689
834.992
852.792
870.053
886.742
902.826
918.274
933.057
947.147
960.518
973.148
985.013
996.094
1006.37
1015.84
1024.47
1032.26
1039.2
1045.29
1050.52
1054.88
1058.39
1061.04
1062.84
1063.79
1063.91
1063.21
1061.7
1059.4
1056.32
1052.48
1047.91
1042.62
1036.64
1029.98
1022.68
1014.76
1006.25
997.171
987.558
977.438
966.839
955.793
944.329
932.477
920.267
907.729
894.892
881.787
868.441
854.882
841.14
827.24
813.21
799.074
784.858
770.584
756.277
741.958
727.648
713.367
699.135
684.968
670.884
656.899
643.027
629.283
615.679
602.227
588.937
575.82
562.884
550.138
537.587
525.239
513.098
501.17
489.458
477.964
466.692
455.643
444.817
434.216
423.839
413.686
403.755
394.045
384.554
375.279
366.217
357.367
348.724
340.284
332.044
324.001
316.149
308.484
301.002
293.699
286.569
279.608
272.812
266.175
259.693
253.362
247.175
241.13
235.221
229.443
223.793
218.266
212.858
207.564
202.38
197.304
192.33
187.456
182.677
177.991
173.394
168.883
164.455
160.107
155.837
151.642
147.52
143.468
139.484
135.567
131.715
127.925
124.197
120.529
116.919
113.367
109.871
106.431
103.046
99.7147
96.4373
93.2132
90.0422
86.9243
83.8597
80.8488
77.8925
74.9917
72.1477
69.3622
66.6376
63.9765
61.3826
58.8603
56.4152
54.0548
51.7887
49.6295
47.5949
45.7091
44.0077
42.5442
41.4036
40.7316
40.8013
42.2024
46.5176
59.9624
131.148
873.593
452.517
357.55
325.173
314.763
314.863
320.974
330.941
343.577
358.165
374.235
391.462
409.607
428.492
447.973
467.937
488.288
508.942
529.828
550.882
572.043
593.258
614.475
635.644
656.719
677.654
698.405
718.928
739.181
759.123
778.714
797.914
816.684
834.987
852.787
870.048
886.737
902.821
918.269
933.051
947.141
960.513
973.142
985.007
996.088
1006.37
1015.83
1024.46
1032.25
1039.2
1045.28
1050.51
1054.88
1058.38
1061.03
1062.83
1063.79
1063.91
1063.21
1061.7
1059.39
1056.31
1052.48
1047.91
1042.62
1036.63
1029.98
1022.68
1014.76
1006.24
997.168
987.555
977.434
966.836
955.79
944.326
932.474
920.264
907.726
894.889
881.784
868.438
854.88
841.137
827.238
813.207
799.072
784.855
770.582
756.275
741.956
727.646
713.365
699.133
684.966
670.882
656.897
643.026
629.282
615.677
602.225
588.936
575.819
562.883
550.136
537.586
525.238
513.097
501.169
489.456
477.963
466.691
455.642
444.816
434.215
423.838
413.685
403.754
394.044
384.553
375.278
366.217
357.366
348.723
340.283
332.044
324
316.148
308.483
301.001
293.698
286.568
279.608
272.811
266.175
259.693
253.361
247.175
241.13
235.22
229.443
223.793
218.266
212.857
207.563
202.38
197.304
192.33
187.455
182.677
177.991
173.393
168.882
164.454
160.107
155.837
151.642
147.519
143.467
139.484
135.567
131.715
127.925
124.197
120.528
116.919
113.367
109.871
106.431
103.046
99.7146
96.4372
93.2131
90.0421
86.9242
83.8596
80.8488
77.8924
74.9916
72.1476
69.3621
66.6375
63.9765
61.3825
58.8602
56.4151
54.0547
51.7886
49.6295
47.5948
45.7091
44.0077
42.5441
41.4036
40.7316
40.8012
42.2024
46.5177
59.963
131.148
969.905
503.061
393.986
354.942
340.588
338.035
342.207
350.672
362.095
375.668
390.866
407.323
424.775
443.021
461.903
481.295
501.09
521.199
541.544
562.056
582.671
603.334
623.99
644.589
665.083
685.428
705.579
725.493
745.129
764.448
783.409
801.977
820.113
837.782
854.949
871.582
887.648
903.118
917.961
932.15
945.66
958.467
970.548
981.884
992.455
1002.25
1011.24
1019.43
1026.81
1033.36
1039.08
1043.96
1048.02
1051.24
1053.63
1055.19
1055.94
1055.89
1055.04
1053.4
1051
1047.85
1043.97
1039.37
1034.08
1028.11
1021.5
1014.26
1006.42
998.011
989.051
979.572
969.6
959.165
948.294
937.017
925.363
913.36
901.037
888.423
875.545
862.432
849.111
835.609
821.951
808.164
794.271
780.298
766.266
752.198
738.116
724.04
709.989
695.981
682.035
668.167
654.392
640.724
627.178
613.765
600.498
587.387
574.441
561.67
549.081
536.681
524.476
512.473
500.674
489.085
477.708
466.546
455.601
444.873