/*--------------------------------*- C++ -*----------------------------------*\
  =========                 |
  \\      /  F ield         | OpenFOAM: The Open Source CFD Toolbox
   \\    /   O peration     | Website:  https://openfoam.org
    \\  /    A nd           | Version:  8
     \\/     M anipulation  |
\*---------------------------------------------------------------------------*/
FoamFile
{
    version     2.0;
    format      ascii;
    class       volScalarField;
    location    "4400";
    object      k;
}
// * * * * * * * * * * * * * * * * * * * * * * * * * * * * * * * * * * * * * //

dimensions      [0 2 -2 0 0 0 0];

internalField   nonuniform List<scalar> 
46000
(
0.0326269
0.114892
0.201357
0.280798
0.355511
0.427562
0.497836
0.566599
0.634238
0.701048
0.767255
0.833014
0.897968
0.962383
1.02633
1.08981
1.15283
1.21536
1.27736
1.3388
1.39962
1.45977
1.51919
1.57783
1.63561
1.69248
1.74836
1.8032
1.85691
1.90945
1.96074
2.01071
2.05931
2.10648
2.15215
2.19628
2.2388
2.27968
2.31885
2.35628
2.39194
2.42577
2.45775
2.48786
2.51606
2.54234
2.56668
2.58907
2.60949
2.62795
2.64444
2.65897
2.67154
2.68217
2.69087
2.69766
2.70256
2.7056
2.70682
2.70624
2.70392
2.69992
2.69427
2.68699
2.6781
2.66766
2.65571
2.64229
2.62746
2.61127
2.59378
2.57504
2.55512
2.53405
2.51192
2.48877
2.46466
2.43965
2.4138
2.38716
2.3598
2.33177
2.30313
2.27394
2.24424
2.21409
2.18354
2.15265
2.12146
2.09003
2.05839
2.0266
1.99469
1.96272
1.93071
1.89871
1.86675
1.83487
1.80311
1.77149
1.74003
1.70878
1.67775
1.64698
1.61647
1.58625
1.55635
1.52677
1.49753
1.46864
1.44013
1.41199
1.38424
1.35689
1.32994
1.30339
1.27725
1.25153
1.22622
1.20132
1.17684
1.15278
1.12912
1.10587
1.08302
1.06057
1.03852
1.01685
0.995558
0.974643
0.954095
0.933906
0.914068
0.894572
0.87541
0.856574
0.838055
0.819843
0.80193
0.784307
0.766966
0.749896
0.73309
0.716539
0.700235
0.684169
0.668333
0.652719
0.637319
0.622126
0.607133
0.592333
0.577719
0.563284
0.549023
0.53493
0.520998
0.507223
0.4936
0.480122
0.466787
0.453589
0.440524
0.427588
0.414777
0.402087
0.389514
0.377058
0.364724
0.352497
0.340374
0.328348
0.316417
0.304577
0.292823
0.281152
0.269558
0.258038
0.246585
0.235195
0.22386
0.212574
0.201331
0.190133
0.178965
0.167813
0.156664
0.145503
0.134313
0.123072
0.111756
0.100335
0.0887704
0.0770132
0.0649999
0.0526453
0.0398326
0.0264539
0.0128301
0.00267859
0.0326571
0.114942
0.201401
0.28082
0.35552
0.427565
0.497838
0.5666
0.634239
0.701049
0.767256
0.833014
0.897968
0.962383
1.02633
1.08981
1.15283
1.21536
1.27736
1.3388
1.39962
1.45977
1.51919
1.57783
1.63561
1.69248
1.74836
1.80319
1.85691
1.90945
1.96073
2.01071
2.05931
2.10648
2.15215
2.19628
2.2388
2.27967
2.31885
2.35628
2.39193
2.42577
2.45775
2.48786
2.51606
2.54234
2.56668
2.58906
2.60949
2.62794
2.64443
2.65896
2.67153
2.68216
2.69086
2.69765
2.70255
2.7056
2.70681
2.70624
2.70392
2.69992
2.69427
2.68698
2.6781
2.66766
2.6557
2.64228
2.62745
2.61127
2.59378
2.57504
2.55511
2.53405
2.51191
2.48876
2.46465
2.43964
2.41379
2.38716
2.3598
2.33177
2.30313
2.27393
2.24423
2.21408
2.18354
2.15265
2.12146
2.09002
2.05839
2.02659
1.99469
1.96271
1.9307
1.8987
1.86675
1.83487
1.80311
1.77148
1.74003
1.70878
1.67775
1.64697
1.61646
1.58625
1.55634
1.52676
1.49752
1.46864
1.44013
1.41199
1.38424
1.35689
1.32993
1.30339
1.27725
1.25153
1.22622
1.20132
1.17684
1.15277
1.12912
1.10587
1.08302
1.06057
1.03851
1.01684
0.995556
0.974641
0.954093
0.933904
0.914066
0.89457
0.875408
0.856572
0.838053
0.819841
0.801928
0.784305
0.766964
0.749894
0.733089
0.716538
0.700233
0.684167
0.668331
0.652717
0.637317
0.622125
0.607132
0.592331
0.577717
0.563283
0.549022
0.534928
0.520997
0.507222
0.493598
0.480121
0.466786
0.453588
0.440523
0.427587
0.414776
0.402086
0.389513
0.377057
0.364723
0.352496
0.340373
0.328347
0.316417
0.304576
0.292823
0.281151
0.269558
0.258037
0.246585
0.235194
0.22386
0.212574
0.20133
0.190133
0.178965
0.167813
0.156664
0.145503
0.134312
0.123072
0.111756
0.100335
0.0887703
0.0770131
0.0649999
0.0526453
0.0398326
0.026454
0.0128301
0.00267858
0.114706
0.298578
0.430476
0.542475
0.643917
0.738587
0.828314
0.914438
0.997831
1.07909
1.15845
1.23629
1.31275
1.38802
1.46221
1.5354
1.60762
1.6789
1.74924
1.81863
1.88705
1.95448
2.02086
2.08617
2.15034
2.21334
2.2751
2.33557
2.39469
2.4524
2.50865
2.56338
2.61653
2.66805
2.71788
2.76598
2.81228
2.85676
2.89936
2.94004
2.97877
3.01551
3.05023
3.08291
3.11353
3.14206
3.16849
3.1928
3.21501
3.23509
3.25305
3.2689
3.28264
3.2943
3.30387
3.31139
3.31689
3.32037
3.32189
3.32148
3.31918
3.31503
3.30909
3.30138
3.29193
3.2808
3.26803
3.25367
3.23778
3.22042
3.20163
3.18148
3.16003
3.13734
3.11346
3.08847
3.06241
3.03535
3.00735
2.97847
2.94877
2.91832
2.88717
2.85537
2.82299
2.79008
2.75671
2.72291
2.68874
2.65426
2.61952
2.58456
2.54943
2.51417
2.47883
2.44344
2.40806
2.37271
2.33743
2.30225
2.26722
2.23235
2.19767
2.16322
2.12902
2.09508
2.06144
2.0281
1.9951
1.96243
1.93013
1.89819
1.86664
1.83547
1.80471
1.77435
1.7444
1.71487
1.68575
1.65705
1.62877
1.60091
1.57347
1.54644
1.51983
1.49362
1.46781
1.4424
1.41737
1.39273
1.36847
1.34457
1.32103
1.29784
1.275
1.25248
1.23028
1.2084
1.18682
1.16553
1.14453
1.12379
1.10332
1.0831
1.06313
1.04338
1.02386
1.00455
0.985445
0.966535
0.94781
0.929261
0.910882
0.892661
0.874593
0.856669
0.838881
0.821221
0.803683
0.786259
0.768943
0.751727
0.734605
0.717569
0.700614
0.683733
0.666919
0.650165
0.633468
0.61682
0.600212
0.583637
0.567086
0.550551
0.534022
0.517489
0.500942
0.484369
0.467757
0.451092
0.434357
0.417533
0.4006
0.383533
0.366311
0.3489
0.331263
0.313354
0.295119
0.276494
0.257397
0.237724
0.217339
0.196062
0.173636
0.149687
0.123617
0.0943344
0.0590355
0.0127206
0.114662
0.298559
0.430473
0.542476
0.643918
0.738588
0.828314
0.914437
0.99783
1.07909
1.15845
1.23628
1.31275
1.38802
1.46221
1.5354
1.60762
1.6789
1.74924
1.81863
1.88705
1.95447
2.02086
2.08616
2.15034
2.21333
2.27509
2.33556
2.39468
2.4524
2.50865
2.56338
2.61653
2.66805
2.71788
2.76597
2.81228
2.85675
2.89935
2.94003
2.97876
3.0155
3.05023
3.08291
3.11352
3.14205
3.16848
3.1928
3.215
3.23508
3.25305
3.26889
3.28264
3.29429
3.30387
3.31139
3.31688
3.32037
3.32189
3.32147
3.31917
3.31503
3.30908
3.30137
3.29192
3.28079
3.26802
3.25366
3.23778
3.22041
3.20163
3.18148
3.16003
3.13733
3.11346
3.08846
3.0624
3.03534
3.00734
2.97846
2.94877
2.91831
2.88716
2.85536
2.82299
2.79008
2.7567
2.7229
2.68874
2.65426
2.61951
2.58455
2.54942
2.51416
2.47882
2.44344
2.40805
2.3727
2.33742
2.30225
2.26721
2.23234
2.19767
2.16322
2.12901
2.09508
2.06143
2.0281
1.99509
1.96243
1.93012
1.89819
1.86663
1.83547
1.8047
1.77434
1.74439
1.71486
1.68574
1.65705
1.62877
1.60091
1.57347
1.54644
1.51982
1.49361
1.4678
1.44239
1.41737
1.39273
1.36847
1.34457
1.32103
1.29784
1.27499
1.25248
1.23028
1.2084
1.18682
1.16553
1.14452
1.12379
1.10332
1.0831
1.06312
1.04338
1.02386
1.00455
0.985443
0.966532
0.947807
0.929259
0.910879
0.892659
0.874591
0.856666
0.838878
0.821219
0.803681
0.786257
0.768941
0.751725
0.734602
0.717567
0.700612
0.683731
0.666917
0.650163
0.633466
0.616818
0.60021
0.583635
0.567085
0.550549
0.53402
0.517488
0.500941
0.484368
0.467756
0.451091
0.434355
0.417532
0.400599
0.383532
0.36631
0.348899
0.331262
0.313353
0.295118
0.276494
0.257396
0.237723
0.217339
0.196061
0.173636
0.149687
0.123617
0.0943344
0.0590355
0.0127206
0.204273
0.434381
0.589544
0.718522
0.83496
0.943443
1.04633
1.14501
1.24033
1.33296
1.42333
1.51176
1.59848
1.68367
1.76746
1.84994
1.93116
2.01116
2.08995
2.16754
2.24391
2.31903
2.39288
2.46541
2.53659
2.60636
2.67467
2.74147
2.8067
2.87032
2.93225
2.99244
3.05085
3.10741
3.16208
3.21479
3.26552
3.3142
3.3608
3.40527
3.44759
3.48771
3.52561
3.56127
3.59465
3.62575
3.65456
3.68105
3.70523
3.72709
3.74664
3.76389
3.77884
3.7915
3.80191
3.81007
3.81603
3.81979
3.82141
3.82093
3.81837
3.81379
3.80724
3.79874
3.78836
3.77613
3.7621
3.74634
3.7289
3.70985
3.68923
3.66711
3.64355
3.61863
3.5924
3.56492
3.53627
3.50651
3.4757
3.4439
3.41119
3.37763
3.34328
3.3082
3.27245
3.2361
3.19921
3.16183
3.12402
3.08584
3.04734
3.00857
2.96958
2.93043
2.89116
2.85181
2.81243
2.77306
2.73374
2.69451
2.6554
2.61645
2.57769
2.53915
2.50085
2.46283
2.4251
2.38769
2.35062
2.31391
2.27757
2.24162
2.20607
2.17093
2.13622
2.10193
2.06809
2.03468
2.00172
1.96922
1.93716
1.90555
1.87439
1.84368
1.81341
1.78359
1.75419
1.72523
1.69669
1.66856
1.64085
1.61353
1.5866
1.56005
1.53387
1.50805
1.48258
1.45745
1.43265
1.40816
1.38398
1.3601
1.3365
1.31317
1.2901
1.26729
1.24471
1.22236
1.20022
1.1783
1.15657
1.13503
1.11366
1.09246
1.07142
1.05053
1.02977
1.00915
0.988645
0.968256
0.947972
0.927785
0.907686
0.887668
0.867722
0.847842
0.828018
0.808242
0.788508
0.768807
0.749131
0.729468
0.70981
0.690144
0.670461
0.650748
0.630991
0.611177
0.59129
0.571311
0.551222
0.531
0.51062
0.490052
0.469267
0.448227
0.426886
0.405192
0.383079
0.360471
0.337271
0.313358
0.288575
0.262713
0.23548
0.206438
0.174851
0.139166
0.0945375
0.0261359
0.204255
0.434372
0.589542
0.718521
0.834959
0.943442
1.04633
1.145
1.24033
1.33296
1.42333
1.51176
1.59848
1.68367
1.76746
1.84993
1.93115
2.01115
2.08995
2.16754
2.2439
2.31903
2.39287
2.46541
2.53658
2.60635
2.67467
2.74147
2.8067
2.87031
2.93224
2.99244
3.05084
3.10741
3.16207
3.21479
3.26551
3.31419
3.36079
3.40526
3.44758
3.4877
3.5256
3.56126
3.59465
3.62575
3.65455
3.68104
3.70522
3.72709
3.74664
3.76388
3.77883
3.7915
3.8019
3.81007
3.81602
3.81979
3.82141
3.82092
3.81836
3.81378
3.80723
3.79874
3.78835
3.77612
3.7621
3.74634
3.7289
3.70984
3.68922
3.6671
3.64355
3.61862
3.59239
3.56492
3.53626
3.5065
3.47569
3.4439
3.41119
3.37762
3.34327
3.30819
3.27245
3.2361
3.1992
3.16182
3.12401
3.08583
3.04733
3.00856
2.96958
2.93042
2.89115
2.8518
2.81242
2.77305
2.73374
2.6945
2.6554
2.61645
2.57768
2.53914
2.50085
2.46282
2.4251
2.38769
2.35062
2.3139
2.27756
2.24161
2.20606
2.17093
2.13621
2.10193
2.06808
2.03468
2.00172
1.96921
1.93715
1.90555
1.87439
1.84368
1.81341
1.78358
1.75419
1.72523
1.69669
1.66856
1.64084
1.61352
1.58659
1.56004
1.53386
1.50804
1.48258
1.45745
1.43264
1.40816
1.38398
1.3601
1.3365
1.31317
1.2901
1.26728
1.2447
1.22235
1.20022
1.1783
1.15657
1.13502
1.11366
1.09246
1.07142
1.05052
1.02977
1.00915
0.988643
0.968254
0.94797
0.927782
0.907683
0.887665
0.86772
0.847839
0.828016
0.80824
0.788506
0.768805
0.749129
0.729466
0.709808
0.690142
0.670459
0.650746
0.630989
0.611175
0.591288
0.57131
0.55122
0.530998
0.510618
0.490051
0.469266
0.448226
0.426885
0.405191
0.383078
0.36047
0.33727
0.313357
0.288574
0.262713
0.235479
0.206438
0.174851
0.139166
0.0945376
0.0261359
0.288684
0.55269
0.725203
0.866212
0.992934
1.111
1.22315
1.33089
1.43515
1.53655
1.63553
1.7324
1.82739
1.92068
2.01238
2.10259
2.19136
2.27873
2.36471
2.44929
2.53248
2.61424
2.69455
2.77335
2.85062
2.92631
3.00035
3.0727
3.1433
3.2121
3.27903
3.34405
3.40709
3.46811
3.52704
3.58384
3.63846
3.69086
3.74099
3.7888
3.83428
3.87738
3.91807
3.95633
3.99214
4.02548
4.05634
4.08471
4.11058
4.13396
4.15484
4.17325
4.18918
4.20266
4.2137
4.22234
4.22859
4.2325
4.23409
4.23341
4.2305
4.22541
4.21818
4.20887
4.19751
4.18417
4.16889
4.15174
4.13278
4.11207
4.08967
4.06565
4.04008
4.01302
3.98454
3.95472
3.92361
3.8913
3.85784
3.82331
3.78778
3.75132
3.71399
3.67586
3.637
3.59747
3.55734
3.51666
3.47551
3.43393
3.39199
3.34975
3.30726
3.26456
3.22173
3.17879
3.13581
3.09281
3.04986
3.00699
2.96423
2.92163
2.87923
2.83704
2.79511
2.75345
2.71211
2.6711
2.63045
2.59017
2.55029
2.51081
2.47176
2.43316
2.395
2.3573
2.32007
2.28331
2.24703
2.21123
2.17591
2.14108
2.10673
2.07286
2.03948
2.00656
1.97412
1.94213
1.91061
1.87953
1.84889
1.81869
1.7889
1.75953
1.73056
1.70198
1.67378
1.64595
1.61847
1.59133
1.56453
1.53804
1.51187
1.48598
1.46038
1.43505
1.40998
1.38515
1.36056
1.33619
1.31204
1.28808
1.26431
1.24073
1.2173
1.19404
1.17093
1.14795
1.1251
1.10237
1.07975
1.05723
1.0348
1.01245
0.990179
0.96797
0.945816
0.923709
0.90164
0.879599
0.857578
0.835564
0.813546
0.791514
0.769454
0.747354
0.725198
0.702971
0.680657
0.658236
0.635686
0.612986
0.590106
0.567018
0.543686
0.520071
0.496127
0.471797
0.447014
0.421697
0.395747
0.369038
0.341408
0.312638
0.282416
0.250255
0.215265
0.175414
0.124157
0.0393337
0.288685
0.552688
0.725201
0.86621
0.992932
1.111
1.22315
1.33089
1.43515
1.53655
1.63553
1.7324
1.82739
1.92068
2.01238
2.10259
2.19136
2.27872
2.3647
2.44929
2.53248
2.61424
2.69454
2.77335
2.85062
2.9263
3.00035
3.0727
3.1433
3.21209
3.27903
3.34405
3.40709
3.4681
3.52704
3.58384
3.63846
3.69085
3.74098
3.7888
3.83427
3.87737
3.91806
3.95632
3.99213
4.02547
4.05633
4.0847
4.11057
4.13395
4.15484
4.17324
4.18917
4.20265
4.2137
4.22233
4.22858
4.23249
4.23408
4.2334
4.23049
4.2254
4.21818
4.20886
4.1975
4.18416
4.16888
4.15174
4.13277
4.11206
4.08966
4.06564
4.04007
4.01301
3.98454
3.95471
3.92361
3.89129
3.85784
3.82331
3.78778
3.75131
3.71398
3.67586
3.63699
3.59746
3.55733
3.51666
3.4755
3.43392
3.39199
3.34974
3.30725
3.26456
3.22172
3.17879
3.1358
3.09281
3.04986
3.00698
2.96423
2.92163
2.87922
2.83703
2.7951
2.75345
2.71211
2.6711
2.63044
2.59016
2.55028
2.51081
2.47176
2.43315
2.39499
2.35729
2.32006
2.2833
2.24702
2.21122
2.17591
2.14108
2.10673
2.07286
2.03947
2.00656
1.97411
1.94213
1.9106
1.87953
1.84889
1.81868
1.7889
1.75953
1.73056
1.70198
1.67378
1.64594
1.61846
1.59133
1.56453
1.53804
1.51186
1.48598
1.46038
1.43505
1.40998
1.38515
1.36056
1.33619
1.31204
1.28808
1.26431
1.24072
1.2173
1.19404
1.17092
1.14795
1.1251
1.10237
1.07975
1.05723
1.0348
1.01245
0.990177
0.967968
0.945814
0.923708
0.901638
0.879597
0.857576
0.835562
0.813545
0.791513
0.769453
0.747352
0.725196
0.70297
0.680656
0.658234
0.635685
0.612984
0.590105
0.567016
0.543684
0.52007
0.496126
0.471796
0.447013
0.421696
0.395746
0.369037
0.341407
0.312637
0.282416
0.250255
0.215265
0.175414
0.124157
0.0393338
0.36959
0.661597
0.849661
1.0012
1.13636
1.26213
1.38169
1.49671
1.60818
1.71673
1.82279
1.92666
2.02856
2.12865
2.22703
2.3238
2.41899
2.51265
2.60477
2.69535
2.78438
2.87184
2.95769
3.04188
3.12438
3.20514
3.2841
3.36121
3.43641
3.50964
3.58085
3.64998
3.71698
3.78179
3.84435
3.90462
3.96254
4.01808
4.07118
4.12182
4.16994
4.21553
4.25855
4.29898
4.3368
4.37198
4.40453
4.43442
4.46167
4.48626
4.50821
4.52752
4.5442
4.55828
4.56978
4.57872
4.58513
4.58905
4.59052
4.58958
4.58626
4.58063
4.57273
4.56261
4.55032
4.53591
4.51946
4.50101
4.48064
4.45841
4.43438
4.40862
4.38122
4.35222
4.32172
4.28977
4.25646
4.22186
4.18603
4.14906
4.11101
4.07196
4.03197
3.99113
3.9495
3.90714
3.86414
3.82054
3.77642
3.73184
3.68687
3.64156
3.59597
3.55015
3.50417
3.45807
3.41191
3.36573
3.31958
3.27351
3.22754
3.18174
3.13612
3.09074
3.04561
3.00078
2.95627
2.9121
2.8683
2.8249
2.78191
2.73936
2.69725
2.6556
2.61443
2.57375
2.53356
2.49386
2.45468
2.41601
2.37785
2.3402
2.30307
2.26645
2.23034
2.19474
2.15963
2.12502
2.09089
2.05725
2.02407
1.99136
1.95909
1.92727
1.89587
1.8649
1.83433
1.80415
1.77435
1.74492
1.71585
1.68711
1.65871
1.63062
1.60284
1.57534
1.54812
1.52116
1.49446
1.468
1.44176
1.41573
1.38991
1.36428
1.33882
1.31354
1.28841
1.26344
1.23859
1.21388
1.18927
1.16478
1.14038
1.11607
1.09183
1.06767
1.04355
1.01949
0.995468
0.971472
0.947494
0.923523
0.899546
0.875551
0.851525
0.827454
0.803323
0.779115
0.754814
0.7304
0.70585
0.681141
0.656245
0.631131
0.605764
0.580104
0.554104
0.527706
0.500844
0.473437
0.445382
0.416554
0.386783
0.35584
0.323381
0.288843
0.251151
0.207773
0.150702
0.052106
0.369594
0.661597
0.84966
1.0012
1.13635
1.26213
1.38169
1.49671
1.60818
1.71673
1.82279
1.92666
2.02856
2.12864
2.22703
2.3238
2.41899
2.51264
2.60476
2.69535
2.78438
2.87184
2.95768
3.04188
3.12438
3.20514
3.2841
3.3612
3.4364
3.50964
3.58085
3.64998
3.71698
3.78178
3.84434
3.90461
3.96254
4.01807
4.07118
4.12181
4.16994
4.21553
4.25855
4.29897
4.33679
4.37198
4.40452
4.43442
4.46166
4.48625
4.5082
4.52751
4.5442
4.55828
4.56977
4.57871
4.58513
4.58905
4.59052
4.58957
4.58626
4.58063
4.57272
4.5626
4.55031
4.53591
4.51945
4.50101
4.48063
4.4584
4.43437
4.40862
4.38121
4.35222
4.32171
4.28977
4.25646
4.22185
4.18602
4.14905
4.111
4.07195
4.03197
3.99113
3.94949
3.90714
3.86413
3.82054
3.77642
3.73184
3.68686
3.64155
3.59596
3.55015
3.50417
3.45807
3.41191
3.36573
3.31958
3.2735
3.22754
3.18173
3.13612
3.09073
3.04561
3.00078
2.95626
2.9121
2.8683
2.8249
2.78191
2.73935
2.69725
2.6556
2.61443
2.57374
2.53355
2.49386
2.45468
2.416
2.37785
2.3402
2.30307
2.26645
2.23034
2.19473
2.15963
2.12501
2.09089
2.05724
2.02407
1.99135
1.95909
1.92727
1.89587
1.86489
1.83432
1.80415
1.77435
1.74492
1.71584
1.68711
1.65871
1.63062
1.60283
1.57534
1.54812
1.52116
1.49446
1.46799
1.44175
1.41573
1.38991
1.36427
1.33882
1.31354
1.28841
1.26343
1.23859
1.21387
1.18927
1.16478
1.14038
1.11607
1.09183
1.06766
1.04355
1.01949
0.995467
0.971471
0.947493
0.923521
0.899544
0.875549
0.851523
0.827452
0.803321
0.779114
0.754813
0.730399
0.705849
0.68114
0.656244
0.63113
0.605763
0.580103
0.554103
0.527705
0.500844
0.473436
0.445382
0.416553
0.386783
0.35584
0.323381
0.288843
0.251151
0.207774
0.150702
0.0521061
0.44857
0.764376
0.966912
1.1285
1.27157
1.40433
1.53044
1.65181
1.76953
1.88426
1.99644
2.10638
2.21428
2.32029
2.4245
2.52699
2.6278
2.72694
2.82443
2.92025
3.01438
3.1068
3.19747
3.28635
3.37338
3.45853
3.54173
3.62294
3.70209
3.77912
3.85399
3.92663
3.99698
4.065
4.13062
4.19381
4.25451
4.31267
4.36825
4.42122
4.47154
4.51917
4.5641
4.60629
4.64573
4.6824
4.71629
4.7474
4.77571
4.80124
4.82399
4.84397
4.8612
4.87569
4.88747
4.89657
4.90302
4.90685
4.90811
4.90684
4.90308
4.89689
4.88831
4.8774
4.86422
4.84882
4.83127
4.81162
4.78996
4.76633
4.74082
4.7135
4.68444
4.6537
4.62138
4.58754
4.55226
4.51562
4.47768
4.43854
4.39825
4.35691
4.31458
4.27134
4.22725
4.1824
4.13686
4.09068
4.04395
3.99672
3.94907
3.90105
3.85272
3.80415
3.7554
3.70651
3.65754
3.60855
3.55958
3.51067
3.46188
3.41324
3.36479
3.31658
3.26863
3.22098
3.17366
3.12669
3.08011
3.03394
2.9882
2.94291
2.89808
2.85374
2.80989
2.76655
2.72372
2.68142
2.63965
2.59842
2.55773
2.51757
2.47795
2.43888
2.40033
2.36232
2.32484
2.28788
2.25143
2.21548
2.18003
2.14507
2.11058
2.07656
2.043
2.00987
1.97717
1.94489
1.91301
1.88152
1.85041
1.81966
1.78926
1.75919
1.72945
1.70001
1.67086
1.642
1.6134
1.58505
1.55695
1.52907
1.50141
1.47395
1.44668
1.4196
1.39267
1.36591
1.33929
1.3128
1.28643
1.26018
1.23403
1.20798
1.182
1.1561
1.13025
1.10446
1.07871
1.05299
1.02729
1.00159
0.975892
0.950174
0.924425
0.898631
0.872775
0.846842
0.820814
0.79467
0.768389
0.741947
0.715317
0.688466
0.661361
0.63396
0.606218
0.578076
0.549469
0.520314
0.490507
0.459918
0.428367
0.395605
0.361243
0.324626
0.284475
0.237792
0.175311
0.0645965
0.448573
0.764376
0.966911
1.1285
1.27157
1.40433
1.53044
1.65181
1.76952
1.88425
1.99644
2.10637
2.21427
2.32028
2.4245
2.52699
2.62779
2.72694
2.82443
2.92025
3.01438
3.1068
3.19747
3.28634
3.37338
3.45853
3.54173
3.62293
3.70208
3.77912
3.85398
3.92662
3.99698
4.06499
4.13062
4.1938
4.2545
4.31266
4.36825
4.42122
4.47153
4.51917
4.5641
4.60629
4.64573
4.6824
4.71629
4.74739
4.77571
4.80124
4.82399
4.84397
4.86119
4.87568
4.88747
4.89657
4.90301
4.90685
4.9081
4.90683
4.90307
4.89688
4.88831
4.8774
4.86422
4.84882
4.83126
4.81162
4.78995
4.76633
4.74082
4.71349
4.68443
4.6537
4.62138
4.58754
4.55226
4.51561
4.47768
4.43853
4.39825
4.35691
4.31457
4.27133
4.22725
4.1824
4.13685
4.09068
4.04394
3.99672
3.94906
3.90104
3.85272
3.80415
3.75539
3.70651
3.65754
3.60855
3.55957
3.51067
3.46187
3.41323
3.36479
3.31657
3.26862
3.22097
3.17365
3.12669
3.08011
3.03394
2.9882
2.9429
2.89808
2.85373
2.80989
2.76654
2.72372
2.68142
2.63965
2.59842
2.55772
2.51757
2.47795
2.43887
2.40033
2.36232
2.32484
2.28787
2.25142
2.21548
2.18003
2.14507
2.11058
2.07656
2.04299
2.00987
1.97717
1.94489
1.91301
1.88152
1.85041
1.81966
1.78926
1.75919
1.72944
1.70001
1.67086
1.642
1.6134
1.58505
1.55695
1.52907
1.50141
1.47395
1.44668
1.41959
1.39267
1.36591
1.33928
1.3128
1.28643
1.26018
1.23403
1.20797
1.182
1.1561
1.13025
1.10446
1.07871
1.05299
1.02729
1.00159
0.975891
0.950173
0.924424
0.89863
0.872774
0.846841
0.820813
0.794669
0.768389
0.741947
0.715316
0.688466
0.66136
0.63396
0.606217
0.578076
0.549469
0.520313
0.490507
0.459917
0.428367
0.395605
0.361243
0.324626
0.284475
0.237792
0.175312
0.0645967
0.526006
0.862696
1.07918
1.25062
1.40148
1.54098
1.67327
1.80052
1.92395
2.04429
2.162
2.27741
2.3907
2.50202
2.61146
2.71907
2.8249
2.92894
3.03121
3.13169
3.23035
3.32716
3.42208
3.51507
3.60609
3.69507
3.78197
3.86672
3.94928
4.02959
4.10759
4.18321
4.25642
4.32715
4.39536
4.46099
4.52399
4.58433
4.64196
4.69684
4.74894
4.79823
4.84469
4.88828
4.929
4.96683
5.00176
5.03379
5.0629
5.08912
5.11244
5.13288
5.15045
5.16518
5.1771
5.18622
5.19259
5.19624
5.19721
5.19555
5.19131
5.18454
5.17529
5.16362
5.14958
5.13324
5.11466
5.0939
5.07104
5.04615
5.0193
4.99055
4.96
4.9277
4.89375
4.85822
4.82118
4.78272
4.74291
4.70184
4.65958
4.6162
4.57179
4.52642
4.48017
4.43312
4.38533
4.33687
4.28782
4.23826
4.18823
4.13782
4.08707
4.03607
3.98486
3.9335
3.88204
3.83055
3.77907
3.72766
3.67634
3.62518
3.57422
3.52348
3.47301
3.42285
3.37302
3.32355
3.27448
3.22583
3.17762
3.12987
3.0826
3.03583
2.98957
2.94383
2.89863
2.85397
2.80987
2.76632
2.72332
2.68089
2.63902
2.59771
2.55696
2.51676
2.4771
2.438
2.39942
2.36138
2.32385
2.28683
2.25031
2.21427
2.17871
2.14361
2.10896
2.07474
2.04095
2.00757
1.97458
1.94197
1.90973
1.87784
1.84628
1.81505
1.78413
1.7535
1.72316
1.69308
1.66325
1.63367
1.60431
1.57516
1.54622
1.51746
1.48889
1.46047
1.43222
1.4041
1.37611
1.34824
1.32049
1.29282
1.26525
1.23775
1.21032
1.18294
1.15561
1.12831
1.10103
1.07376
1.04649
1.01921
0.991888
0.964527
0.937106
0.909608
0.882017
0.854311
0.82647
0.798468
0.77028
0.741874
0.713214
0.684261
0.654969
0.62528
0.595126
0.564423
0.533065
0.50091
0.467768
0.433357
0.397239
0.358655
0.316128
0.266232
0.198612
0.0769273
0.526007
0.862695
1.07918
1.25061
1.40148
1.54098
1.67327
1.80052
1.92395
2.04428
2.162
2.2774
2.39069
2.50201
2.61145
2.71907
2.82489
2.92894
3.03121
3.13169
3.23035
3.32716
3.42208
3.51507
3.60608
3.69506
3.78196
3.86672
3.94928
4.02958
4.10758
4.18321
4.25642
4.32715
4.39535
4.46098
4.52399
4.58432
4.64195
4.69683
4.74894
4.79823
4.84468
4.88828
4.929
4.96683
5.00176
5.03378
5.0629
5.08911
5.11243
5.13287
5.15045
5.16518
5.17709
5.18621
5.19258
5.19623
5.1972
5.19555
5.19131
5.18454
5.17529
5.16362
5.14958
5.13324
5.11465
5.0939
5.07104
5.04615
5.01929
4.99055
4.95999
4.9277
4.89375
4.85821
4.82118
4.78272
4.74291
4.70183
4.65957
4.6162
4.57179
4.52642
4.48017
4.43311
4.38532
4.33687
4.28782
4.23825
4.18823
4.13781
4.08707
4.03606
3.98485
3.93349
3.88204
3.83055
3.77907
3.72765
3.67634
3.62518
3.57421
3.52348
3.47301
3.42284
3.37301
3.32355
3.27448
3.22583
3.17761
3.12987
3.0826
3.03582
2.98957
2.94383
2.89863
2.85397
2.80986
2.76631
2.72332
2.68089
2.63902
2.59771
2.55695
2.51675
2.4771
2.43799
2.39942
2.36137
2.32385
2.28683
2.2503
2.21427
2.17871
2.14361
2.10896
2.07474
2.04095
2.00757
1.97458
1.94197
1.90973
1.87783
1.84628
1.81505
1.78413
1.7535
1.72315
1.69308
1.66325
1.63366
1.60431
1.57516
1.54622
1.51746
1.48889
1.46047
1.43221
1.4041
1.37611
1.34824
1.32048
1.29282
1.26525
1.23775
1.21032
1.18294
1.15561
1.12831
1.10103
1.07376
1.04649
1.0192
0.991887
0.964526
0.937105
0.909608
0.882016
0.85431
0.826469
0.798468
0.770279
0.741873
0.713214
0.684261
0.654968
0.625279
0.595126
0.564423
0.533065
0.50091
0.467768
0.433357
0.397239
0.358655
0.316128
0.266233
0.198613
0.0769276
0.602228
0.957852
1.18781
1.36902
1.52769
1.67389
1.81224
1.94516
2.07402
2.19964
2.32253
2.443
2.56127
2.67748
2.79171
2.90401
3.01441
3.12291
3.22951
3.33419
3.43692
3.53767
3.63639
3.73304
3.82758
3.91994
4.01007
4.09793
4.18345
4.26658
4.34727
4.42545
4.50107
4.57409
4.64446
4.71212
4.77703
4.83915
4.89843
4.95486
5.00838
5.05898
5.10664
5.15132
5.19301
5.23171
5.2674
5.30008
5.32976
5.35643
5.38011
5.40082
5.41857
5.43337
5.44528
5.4543
5.46048
5.46386
5.46448
5.46238
5.45762
5.45026
5.44033
5.42791
5.41305
5.39581
5.37626
5.35447
5.33051
5.30445
5.27637
5.24634
5.21443
5.18074
5.14532
5.10827
5.06967
5.02959
4.98812
4.94533
4.90131
4.85614
4.80989
4.76264
4.71447
4.66546
4.61569
4.56522
4.51413
4.46248
4.41036
4.35782
4.30494
4.25177
4.19838
4.14482
4.09116
4.03745
3.98374
3.93008
3.87652
3.8231
3.76988
3.71688
3.66415
3.61173
3.55964
3.50793
3.45661
3.40572
3.35527
3.3053
3.25581
3.20684
3.15838
3.11047
3.0631
3.01629
2.97004
2.92437
2.87927
2.83475
2.7908
2.74744
2.70464
2.66242
2.62077
2.57967
2.53913
2.49913
2.45967
2.42074
2.38232
2.34441
2.30699
2.27004
2.23357
2.19754
2.16196
2.1268
2.09205
2.0577
2.02372
1.99012
1.95686
1.92395
1.89135
1.85907
1.82707
1.79536
1.76391
1.73271
1.70176
1.67102
1.6405
1.61017
1.58004
1.55007
1.52027
1.49061
1.4611
1.43171
1.40243
1.37326
1.34419
1.31519
1.28626
1.2574
1.22858
1.1998
1.17104
1.1423
1.11355
1.0848
1.05601
1.02719
0.998306
0.96935
0.940302
0.911143
0.881851
0.852403
0.822771
0.792925
0.762829
0.732443
0.70172
0.670603
0.639022
0.606888
0.574089
0.540474
0.505831
0.469847
0.432025
0.391505
0.346622
0.293561
0.221002
0.0891882
0.602229
0.957852
1.18781
1.36901
1.52769
1.67389
1.81223
1.94516
2.07402
2.19964
2.32252
2.443
2.56127
2.67747
2.7917
2.904
3.0144
3.12291
3.22951
3.33419
3.43692
3.53767
3.63639
3.73304
3.82757
3.91993
4.01007
4.09793
4.18345
4.26658
4.34726
4.42544
4.50107
4.57409
4.64445
4.71211
4.77702
4.83914
4.89843
4.95485
5.00838
5.05898
5.10663
5.15131
5.19301
5.2317
5.2674
5.30008
5.32975
5.35643
5.38011
5.40081
5.41856
5.43337
5.44527
5.45429
5.46048
5.46385
5.46447
5.46238
5.45762
5.45025
5.44033
5.4279
5.41304
5.3958
5.37626
5.35447
5.33051
5.30445
5.27637
5.24633
5.21443
5.18073
5.14532
5.10827
5.06967
5.02959
4.98811
4.94533
4.90131
4.85613
4.80988
4.76263
4.71447
4.66546
4.61568
4.56521
4.51412
4.46248
4.41036
4.35782
4.30494
4.25177
4.19838
4.14482
4.09116
4.03744
3.98373
3.93007
3.87651
3.8231
3.76987
3.71688
3.66415
3.61173
3.55964
3.50793
3.45661
3.40571
3.35527
3.30529
3.25581
3.20683
3.15838
3.11047
3.0631
3.01629
2.97004
2.92437
2.87927
2.83475
2.7908
2.74743
2.70464
2.66242
2.62076
2.57967
2.53913
2.49913
2.45967
2.42074
2.38232
2.34441
2.30698
2.27004
2.23356
2.19754
2.16196
2.1268
2.09205
2.05769
2.02372
1.99012
1.95686
1.92395
1.89135
1.85906
1.82707
1.79536
1.76391
1.73271
1.70175
1.67102
1.6405
1.61017
1.58003
1.55007
1.52027
1.49061
1.4611
1.43171
1.40243
1.37326
1.34418
1.31519
1.28626
1.2574
1.22858
1.1998
1.17104
1.1423
1.11355
1.0848
1.05601
1.02719
0.998305
0.969349
0.940301
0.911142
0.881851
0.852403
0.822771
0.792924
0.762828
0.732442
0.70172
0.670603
0.639021
0.606888
0.574089
0.540474
0.505831
0.469847
0.432025
0.391506
0.346622
0.293562
0.221003
0.0891885
0.677704
1.05077
1.29371
1.48468
1.65124
1.80419
1.94859
2.08711
2.22129
2.35201
2.47984
2.60513
2.72811
2.8489
2.96761
3.08427
3.19891
3.31152
3.42211
3.53063
3.63707
3.74139
3.84354
3.94347
4.04115
4.13651
4.2295
4.32008
4.40818
4.49375
4.57674
4.65709
4.73476
4.8097
4.88186
4.95119
5.01765
5.0812
5.14181
5.19945
5.25408
5.30568
5.35423
5.39971
5.4421
5.4814
5.51761
5.55072
5.58073
5.60765
5.63151
5.6523
5.67006
5.6848
5.69656
5.70537
5.71126
5.71429
5.71448
5.7119
5.70659
5.6986
5.688
5.67483
5.65917
5.64108
5.62062
5.59786
5.57288
5.54575
5.51654
5.48534
5.45221
5.41725
5.38052
5.34212
5.30212
5.2606
5.21764
5.17334
5.12776
5.08099
5.03311
4.9842
4.93434
4.88361
4.83208
4.77983
4.72693
4.67345
4.61947
4.56506
4.51027
4.45518
4.39986
4.34435
4.28872
4.23302
4.17732
4.12166
4.06608
4.01065
3.9554
3.90037
3.84561
3.79114
3.73702
3.68327
3.62991
3.57698
3.5245
3.4725
3.42099
3.37
3.31954
3.26963
3.22027
3.17147
3.12326
3.07562
3.02857
2.98211
2.93624
2.89096
2.84627
2.80216
2.75863
2.71568
2.67329
2.63147
2.59019
2.54946
2.50925
2.46956
2.43038
2.3917
2.35349
2.31575
2.27847
2.24162
2.2052
2.16918
2.13356
2.09832
2.06344
2.02892
1.99472
1.96085
1.92728
1.894
1.861
1.82826
1.79577
1.76351
1.73147
1.69964
1.66801
1.63656
1.60527
1.57415
1.54316
1.51231
1.48159
1.45097
1.42045
1.39002
1.35966
1.32937
1.29913
1.26893
1.23876
1.20861
1.17846
1.1483
1.11812
1.08789
1.05762
1.02727
0.996839
0.966298
0.935627
0.904804
0.873801
0.842588
0.811129
0.779382
0.747302
0.714827
0.681885
0.648384
0.614201
0.579173
0.543064
0.505528
0.466009
0.423547
0.3763
0.3201
0.242753
0.10145
0.677705
1.05077
1.29371
1.48468
1.65124
1.80418
1.94858
2.08711
2.22128
2.35201
2.47984
2.60513
2.7281
2.8489
2.9676
3.08426
3.1989
3.31152
3.4221
3.53063
3.63707
3.74139
3.84353
3.94347
4.04114
4.1365
4.2295
4.32007
4.40817
4.49374
4.57673
4.65709
4.73476
4.8097
4.88185
4.95118
5.01765
5.0812
5.14181
5.19945
5.25408
5.30568
5.35422
5.3997
5.4421
5.4814
5.51761
5.55071
5.58072
5.60765
5.6315
5.6523
5.67005
5.68479
5.69655
5.70536
5.71126
5.71428
5.71448
5.7119
5.70658
5.6986
5.68799
5.67483
5.65917
5.64107
5.62061
5.59785
5.57287
5.54574
5.51654
5.48533
5.45221
5.41724
5.38052
5.34212
5.30211
5.26059
5.21764
5.17333
5.12776
5.08099
5.03311
4.9842
4.93434
4.88361
4.83208
4.77982
4.72692
4.67345
4.61947
4.56505
4.51027
4.45518
4.39985
4.34434
4.28871
4.23302
4.17732
4.12165
4.06608
4.01065
3.95539
3.90037
3.8456
3.79114
3.73702
3.68326
3.62991
3.57698
3.5245
3.4725
3.42099
3.37
3.31954
3.26962
3.22026
3.17147
3.12325
3.07562
3.02857
2.98211
2.93624
2.89096
2.84627
2.80216
2.75863
2.71568
2.67329
2.63147
2.59019
2.54945
2.50925
2.46956
2.43038
2.3917
2.35349
2.31575
2.27846
2.24162
2.20519
2.16918
2.13356
2.09832
2.06344
2.02891
1.99472
1.96085
1.92728
1.894
1.861
1.82826
1.79577
1.76351
1.73147
1.69964
1.66801
1.63656
1.60527
1.57414
1.54316
1.51231
1.48159
1.45097
1.42045
1.39002
1.35966
1.32937
1.29913
1.26893
1.23876
1.20861
1.17846
1.1483
1.11811
1.08789
1.05762
1.02727
0.996839
0.966297
0.935627
0.904804
0.873801
0.842587
0.811128
0.779382
0.747301
0.714827
0.681885
0.648384
0.614201
0.579173
0.543065
0.505528
0.466009
0.423548
0.376301
0.320101
0.242753
0.101451
0.752814
1.14209
1.39764
1.59836
1.77287
1.93265
2.08316
2.2273
2.36674
2.50248
2.63514
2.76509
2.89258
3.01776
3.14072
3.26149