/*--------------------------------*- C++ -*----------------------------------*\
  =========                 |
  \\      /  F ield         | OpenFOAM: The Open Source CFD Toolbox
   \\    /   O peration     | Website:  https://openfoam.org
    \\  /    A nd           | Version:  8
     \\/     M anipulation  |
\*---------------------------------------------------------------------------*/
FoamFile
{
    version     2.0;
    format      ascii;
    class       volScalarField;
    location    "4400";
    object      nut;
}
// * * * * * * * * * * * * * * * * * * * * * * * * * * * * * * * * * * * * * //

dimensions      [0 2 -1 0 0 0 0];

internalField   nonuniform List<scalar> 
46000
(
2.33484e-06
8.63348e-06
1.51306e-05
2.10996e-05
2.67134e-05
3.21271e-05
3.74074e-05
4.25741e-05
4.76563e-05
5.26762e-05
5.76509e-05
6.25918e-05
6.74723e-05
7.23122e-05
7.71168e-05
8.18869e-05
8.66219e-05
9.13201e-05
9.59788e-05
0.000100595
0.000105165
0.000109684
0.000114149
0.000118555
0.000122897
0.000127169
0.000131368
0.000135488
0.000139525
0.000143472
0.000147325
0.000151081
0.000154732
0.000158276
0.000161708
0.000165024
0.000168219
0.00017129
0.000174233
0.000177046
0.000179725
0.000182267
0.00018467
0.000186932
0.000189051
0.000191026
0.000192855
0.000194537
0.000196071
0.000197458
0.000198697
0.000199789
0.000200734
0.000201533
0.000202186
0.000202697
0.000203065
0.000203294
0.000203385
0.000203342
0.000203168
0.000202868
0.000202443
0.000201896
0.000201229
0.000200445
0.000199546
0.000198538
0.000197424
0.000196208
0.000194894
0.000193487
0.00019199
0.000190407
0.000188744
0.000187005
0.000185194
0.000183315
0.000181373
0.000179372
0.000177316
0.00017521
0.000173058
0.000170865
0.000168633
0.000166368
0.000164073
0.000161753
0.000159409
0.000157048
0.000154671
0.000152282
0.000149885
0.000147482
0.000145077
0.000142673
0.000140272
0.000137877
0.00013549
0.000133114
0.000130751
0.000128403
0.000126072
0.000123759
0.000121467
0.000119197
0.000116949
0.000114727
0.00011253
0.00011036
0.000108217
0.000106103
0.000104018
0.000101963
9.99375e-05
9.79428e-05
9.59789e-05
9.40461e-05
9.21443e-05
9.02737e-05
8.84343e-05
8.66258e-05
8.48481e-05
8.31011e-05
8.13843e-05
7.96974e-05
7.80401e-05
7.64118e-05
7.48122e-05
7.32406e-05
7.16966e-05
7.01795e-05
6.86888e-05
6.72238e-05
6.57839e-05
6.43685e-05
6.29769e-05
6.16084e-05
6.02623e-05
5.89381e-05
5.7635e-05
5.63523e-05
5.50894e-05
5.38457e-05
5.26206e-05
5.14133e-05
5.02233e-05
4.90499e-05
4.78927e-05
4.67511e-05
4.56244e-05
4.45123e-05
4.34141e-05
4.23294e-05
4.12578e-05
4.01987e-05
3.91518e-05
3.81167e-05
3.7093e-05
3.60802e-05
3.50781e-05
3.40864e-05
3.31046e-05
3.21325e-05
3.11698e-05
3.02162e-05
2.92715e-05
2.83354e-05
2.74085e-05
2.64898e-05
2.55788e-05
2.46751e-05
2.37785e-05
2.28888e-05
2.20055e-05
2.11285e-05
2.02573e-05
1.93915e-05
1.85309e-05
1.76749e-05
1.68232e-05
1.59751e-05
1.51301e-05
1.42887e-05
1.34494e-05
1.26114e-05
1.17735e-05
1.09348e-05
1.00938e-05
9.24909e-06
8.39871e-06
7.5404e-06
6.6713e-06
5.78774e-06
4.88492e-06
3.95646e-06
2.99357e-06
1.98814e-06
9.64253e-07
1.91209e-07
2.33688e-06
8.63687e-06
1.51336e-05
2.11012e-05
2.67141e-05
3.21274e-05
3.74076e-05
4.25742e-05
4.76564e-05
5.26763e-05
5.7651e-05
6.25919e-05
6.74723e-05
7.23123e-05
7.71168e-05
8.18869e-05
8.66219e-05
9.132e-05
9.59788e-05
0.000100595
0.000105165
0.000109684
0.000114149
0.000118555
0.000122897
0.000127169
0.000131368
0.000135488
0.000139524
0.000143472
0.000147325
0.00015108
0.000154732
0.000158276
0.000161708
0.000165023
0.000168218
0.00017129
0.000174233
0.000177046
0.000179724
0.000182267
0.00018467
0.000186932
0.000189051
0.000191026
0.000192854
0.000194536
0.000196071
0.000197458
0.000198697
0.000199789
0.000200734
0.000201532
0.000202186
0.000202696
0.000203065
0.000203294
0.000203385
0.000203342
0.000203168
0.000202867
0.000202443
0.000201896
0.000201229
0.000200444
0.000199546
0.000198538
0.000197424
0.000196208
0.000194894
0.000193486
0.000191989
0.000190407
0.000188744
0.000187005
0.000185193
0.000183314
0.000181372
0.000179371
0.000177316
0.00017521
0.000173058
0.000170865
0.000168633
0.000166368
0.000164073
0.000161752
0.000159409
0.000157047
0.00015467
0.000152282
0.000149884
0.000147482
0.000145077
0.000142673
0.000140272
0.000137877
0.00013549
0.000133114
0.000130751
0.000128403
0.000126071
0.000123759
0.000121467
0.000119196
0.000116949
0.000114727
0.00011253
0.00011036
0.000108217
0.000106103
0.000104018
0.000101963
9.99373e-05
9.79426e-05
9.59787e-05
9.40459e-05
9.21441e-05
9.02735e-05
8.84341e-05
8.66256e-05
8.4848e-05
8.31009e-05
8.13841e-05
7.96972e-05
7.80399e-05
7.64116e-05
7.4812e-05
7.32404e-05
7.16964e-05
7.01793e-05
6.86886e-05
6.72237e-05
6.57838e-05
6.43684e-05
6.29767e-05
6.16082e-05
6.02622e-05
5.8938e-05
5.76348e-05
5.63522e-05
5.50893e-05
5.38456e-05
5.26204e-05
5.14131e-05
5.02231e-05
4.90498e-05
4.78926e-05
4.6751e-05
4.56243e-05
4.45122e-05
4.3414e-05
4.23293e-05
4.12577e-05
4.01986e-05
3.91517e-05
3.81166e-05
3.70929e-05
3.60801e-05
3.50781e-05
3.40863e-05
3.31045e-05
3.21325e-05
3.11698e-05
3.02162e-05
2.92714e-05
2.83354e-05
2.74085e-05
2.64897e-05
2.55787e-05
2.4675e-05
2.37785e-05
2.28887e-05
2.20055e-05
2.11284e-05
2.02572e-05
1.93915e-05
1.85309e-05
1.76749e-05
1.68231e-05
1.5975e-05
1.51301e-05
1.42887e-05
1.34494e-05
1.26114e-05
1.17735e-05
1.09348e-05
1.00938e-05
9.24907e-06
8.3987e-06
7.5404e-06
6.6713e-06
5.78773e-06
4.88492e-06
3.95646e-06
2.99358e-06
1.98815e-06
9.64254e-07
1.91209e-07
7.91808e-06
6.34746e-05
0.000105802
0.000135277
0.000158199
0.00017727
0.000193741
0.000208521
0.000222099
0.000234776
0.000246735
0.000258121
0.000269043
0.000279564
0.000289731
0.000299581
0.000309143
0.000318438
0.000327484
0.000336294
0.000344876
0.00035324
0.00036139
0.00036933
0.000377062
0.000384589
0.00039191
0.000399025
0.000405935
0.000412638
0.000419133
0.000425418
0.000431492
0.000437353
0.000442999
0.000448429
0.00045364
0.000458631
0.000463401
0.000467948
0.000472271
0.000476369
0.000480241
0.000483886
0.000487305
0.000490496
0.00049346
0.000496197
0.000498709
0.000500995
0.000503057
0.000504897
0.000506515
0.000507915
0.000509097
0.000510065
0.000510821
0.000511368
0.000511709
0.000511847
0.000511785
0.000511526
0.000511074
0.000510434
0.000509611
0.00050861
0.000507436
0.000506093
0.000504587
0.000502922
0.000501104
0.000499138
0.000497029
0.000494782
0.000492404
0.0004899
0.000487274
0.000484533
0.000481683
0.000478728
0.000475674
0.000472527
0.000469292
0.000465974
0.000462579
0.000459113
0.000455579
0.000451985
0.000448333
0.00044463
0.00044088
0.000437088
0.000433258
0.000429396
0.000425504
0.000421588
0.000417652
0.000413699
0.000409734
0.000405759
0.000401778
0.000397796
0.000393814
0.000389836
0.000385865
0.000381903
0.000377953
0.000374017
0.000370098
0.000366197
0.000362317
0.00035846
0.000354626
0.000350817
0.000347035
0.000343281
0.000339555
0.000335859
0.000332193
0.000328558
0.000324955
0.000321383
0.000317843
0.000314335
0.00031086
0.000307416
0.000304004
0.000300623
0.000297273
0.000293954
0.000290665
0.000287405
0.000284173
0.000280969
0.000277793
0.000274642
0.000271517
0.000268415
0.000265337
0.000262281
0.000259246
0.00025623
0.000253233
0.000250254
0.00024729
0.000244342
0.000241408
0.000238486
0.000235575
0.000232675
0.000229783
0.000226899
0.00022402
0.000221147
0.000218278
0.000215411
0.000212544
0.000209678
0.000206809
0.000203937
0.000201061
0.000198178
0.000195288
0.000192389
0.000189478
0.000186554
0.000183615
0.000180657
0.000177677
0.000174676
0.000171653
0.000168605
0.000165529
0.000162421
0.00015928
0.0001561
0.000152877
0.000149606
0.000146282
0.000142898
0.000139446
0.000135918
0.000132301
0.000128576
0.000124738
0.00012077
0.000116651
0.000112357
0.000107857
0.00010311
9.80663e-05
9.26571e-05
8.6788e-05
8.03236e-05
7.30578e-05
6.46526e-05
5.44931e-05
4.12781e-05
2.19087e-05
8.72392e-07
7.91526e-06
6.34699e-05
0.0001058
0.000135278
0.000158201
0.000177273
0.000193744
0.000208523
0.000222102
0.000234779
0.000246738
0.000258124
0.000269046
0.000279567
0.000289734
0.000299584
0.000309146
0.000318441
0.000327487
0.000336297
0.00034488
0.000353244
0.000361393
0.000369333
0.000377066
0.000384592
0.000391913
0.000399029
0.000405939
0.000412642
0.000419137
0.000425422
0.000431496
0.000437357
0.000443003
0.000448433
0.000453644
0.000458636
0.000463406
0.000467953
0.000472276
0.000476373
0.000480245
0.000483891
0.000487309
0.0004905
0.000493464
0.000496202
0.000498713
0.000500999
0.000503061
0.000504901
0.00050652
0.000507919
0.000509102
0.000510069
0.000510826
0.000511372
0.000511713
0.000511851
0.000511789
0.00051153
0.000511078
0.000510438
0.000509615
0.000508615
0.00050744
0.000506097
0.000504591
0.000502926
0.000501108
0.000499142
0.000497033
0.000494786
0.000492408
0.000489904
0.000487278
0.000484537
0.000481687
0.000478732
0.000475678
0.00047253
0.000469295
0.000465978
0.000462583
0.000459116
0.000455583
0.000451988
0.000448337
0.000444633
0.000440883
0.000437091
0.000433262
0.000429399
0.000425508
0.000421592
0.000417655
0.000413702
0.000409737
0.000405762
0.000401781
0.000397799
0.000393817
0.000389839
0.000385867
0.000381905
0.000377955
0.00037402
0.000370101
0.0003662
0.00036232
0.000358462
0.000354628
0.00035082
0.000347037
0.000343283
0.000339557
0.000335861
0.000332195
0.00032856
0.000324957
0.000321385
0.000317845
0.000314337
0.000310862
0.000307418
0.000304006
0.000300625
0.000297275
0.000293956
0.000290666
0.000287406
0.000284175
0.000280971
0.000277794
0.000274644
0.000271518
0.000268417
0.000265339
0.000262282
0.000259247
0.000256231
0.000253234
0.000250255
0.000247292
0.000244343
0.000241409
0.000238487
0.000235576
0.000232676
0.000229784
0.0002269
0.000224022
0.000221148
0.000218279
0.000215412
0.000212545
0.000209679
0.00020681
0.000203938
0.000201062
0.000198179
0.000195289
0.00019239
0.000189479
0.000186555
0.000183616
0.000180658
0.000177677
0.000174677
0.000171654
0.000168606
0.000165529
0.000162422
0.00015928
0.0001561
0.000152877
0.000149607
0.000146282
0.000142898
0.000139447
0.000135919
0.000132301
0.000128576
0.000124739
0.00012077
0.000116652
0.000112358
0.000107857
0.00010311
9.80667e-05
9.26574e-05
8.67883e-05
8.03239e-05
7.3058e-05
6.46528e-05
5.44933e-05
4.12782e-05
2.19087e-05
8.72392e-07
1.41629e-05
0.000102443
0.000185715
0.00024821
0.000296814
0.000336218
0.000369374
0.000398166
0.000423774
0.000446988
0.000468345
0.000488219
0.000506881
0.000524524
0.000541289
0.000557285
0.000572597
0.000587293
0.000601426
0.000615039
0.000628167
0.000640839
0.000653077
0.000664902
0.000676328
0.00068737
0.000698037
0.00070834
0.000718286
0.000727881
0.00073713
0.000746039
0.000754611
0.00076285
0.000770757
0.000778337
0.000785591
0.00079252
0.000799129
0.000805417
0.000811386
0.00081704
0.000822379
0.000827405
0.00083212
0.000836526
0.000840626
0.000844422
0.000847916
0.000851111
0.000854009
0.000856614
0.000858929
0.000860957
0.000862701
0.000864164
0.000865352
0.000866266
0.000866911
0.000867291
0.000867408
0.000867266
0.00086687
0.000866226
0.000865343
0.000864226
0.000862881
0.000861314
0.000859532
0.000857541
0.000855345
0.000852953
0.000850369
0.0008476
0.000844652
0.000841533
0.000838246
0.000834801
0.000831201
0.000827455
0.000823568
0.000819547
0.000815397
0.000811126
0.00080674
0.000802244
0.000797644
0.000792948
0.00078816
0.000783287
0.000778334
0.000773307
0.000768212
0.000763054
0.000757839
0.000752571
0.000747257
0.0007419
0.000736505
0.000731077
0.000725622
0.000720142
0.000714642
0.000709127
0.000703599
0.000698063
0.000692522
0.000686979
0.000681438
0.000675902
0.000670372
0.000664852
0.000659344
0.000653851
0.000648373
0.000642914
0.000637474
0.000632056
0.00062666
0.000621288
0.00061594
0.000610617
0.00060532
0.000600049
0.000594805
0.000589587
0.000584396
0.000579232
0.000574093
0.000568981
0.000563893
0.00055883
0.000553791
0.000548774
0.000543779
0.000538805
0.000533851
0.000528914
0.000523995
0.000519091
0.000514201
0.000509323
0.000504456
0.000499598
0.000494748
0.000489903
0.000485062
0.000480223
0.000475384
0.000470543
0.000465698
0.000460846
0.000455987
0.000451117
0.000446234
0.000441337
0.000436421
0.000431486
0.000426529
0.000421546
0.000416535
0.000411493
0.000406416
0.000401302
0.000396145
0.000390943
0.000385689
0.000380378
0.000375003
0.000369564
0.000364057
0.000358474
0.00035281
0.000347055
0.000341203
0.000335243
0.000329163
0.00032295
0.000316591
0.000310067
0.000303359
0.000296443
0.000289287
0.000281855
0.000274115
0.000266021
0.000257519
0.000248538
0.000238994
0.000228775
0.000217737
0.000205686
0.000192359
0.000177377
0.000160176
0.000139871
0.000114982
8.29271e-05
4.00085e-05
1.80206e-06
1.41616e-05
0.000102442
0.000185717
0.000248214
0.000296819
0.000336223
0.000369379
0.000398171
0.000423779
0.000446993
0.00046835
0.000488224
0.000506886
0.000524529
0.000541293
0.00055729
0.000572602
0.000587298
0.000601431
0.000615044
0.000628172
0.000640844
0.000653082
0.000664907
0.000676333
0.000687375
0.000698043
0.000708346
0.000718291
0.000727886
0.000737136
0.000746045
0.000754617
0.000762855
0.000770763
0.000778342
0.000785596
0.000792526
0.000799134
0.000805422
0.000811392
0.000817045
0.000822384
0.00082741
0.000832125
0.000836532
0.000840632
0.000844427
0.000847921
0.000851116
0.000854015
0.00085662
0.000858934
0.000860962
0.000862706
0.00086417
0.000865357
0.000866271
0.000866916
0.000867296
0.000867413
0.000867271
0.000866875
0.000866231
0.000865348
0.000864231
0.000862886
0.000861319
0.000859537
0.000857545
0.00085535
0.000852957
0.000850373
0.000847605
0.000844657
0.000841537
0.000838251
0.000834805
0.000831206
0.000827459
0.000823572
0.000819551
0.000815401
0.00081113
0.000806743
0.000802247
0.000797648
0.000792951
0.000788163
0.00078329
0.000778337
0.000773311
0.000768216
0.000763058
0.000757842
0.000752575
0.00074726
0.000741903
0.000736508
0.00073108
0.000725624
0.000720145
0.000714645
0.000709129
0.000703601
0.000698065
0.000692524
0.000686982
0.000681441
0.000675904
0.000670374
0.000664854
0.000659346
0.000653853
0.000648375
0.000642916
0.000637476
0.000632058
0.000626662
0.000621289
0.000615941
0.000610618
0.000605321
0.000600051
0.000594806
0.000589589
0.000584398
0.000579233
0.000574095
0.000568982
0.000563894
0.000558831
0.000553792
0.000548775
0.00054378
0.000538806
0.000533852
0.000528915
0.000523996
0.000519092
0.000514202
0.000509324
0.000504457
0.000499599
0.000494749
0.000489904
0.000485063
0.000480224
0.000475385
0.000470543
0.000465698
0.000460847
0.000455987
0.000451117
0.000446235
0.000441337
0.000436422
0.000431487
0.000426529
0.000421546
0.000416535
0.000411493
0.000406416
0.000401302
0.000396145
0.000390943
0.000385689
0.000380378
0.000375003
0.000369565
0.000364057
0.000358474
0.00035281
0.000347056
0.000341203
0.000335243
0.000329163
0.00032295
0.000316591
0.000310068
0.000303359
0.000296443
0.000289287
0.000281855
0.000274115
0.000266021
0.000257519
0.000248538
0.000238994
0.000228775
0.000217737
0.000205686
0.000192359
0.000177377
0.000160176
0.000139871
0.000114982
8.29271e-05
4.00084e-05
1.80206e-06
2.00616e-05
0.000130334
0.000244936
0.000337656
0.00041248
0.000474132
0.000526235
0.000571302
0.000611066
0.000646739
0.000679184
0.000709026
0.000736727
0.00076263
0.000786994
0.000810019
0.000831863
0.000852653
0.000872488
0.000891453
0.000909613
0.000927026
0.000943739
0.000959791
0.000975215
0.00099004
0.00100429
0.00101799
0.00103115
0.0010438
0.00105594
0.00106759
0.00107876
0.00108946
0.0010997
0.00110949
0.00111883
0.00112773
0.0011362
0.00114425
0.00115188
0.00115909
0.00116589
0.0011723
0.0011783
0.00118391
0.00118913
0.00119397
0.00119843
0.00120251
0.00120623
0.00120958
0.00121257
0.00121521
0.0012175
0.00121945
0.00122106
0.00122233
0.00122327
0.00122389
0.00122419
0.00122417
0.00122384
0.00122321
0.00122229
0.00122108
0.00121959
0.00121783
0.00121581
0.00121353
0.001211
0.00120822
0.00120521
0.00120197
0.00119851
0.00119483
0.00119095
0.00118686
0.00118258
0.00117811
0.00117347
0.00116865
0.00116366
0.00115852
0.00115322
0.00114778
0.0011422
0.00113649
0.00113066
0.00112471
0.00111864
0.00111248
0.00110621
0.00109985
0.00109341
0.00108688
0.00108029
0.00107362
0.00106689
0.00106011
0.00105327
0.00104639
0.00103946
0.0010325
0.0010255
0.00101848
0.00101144
0.00100437
0.00099729
0.000990197
0.000983095
0.000975988
0.000968878
0.000961769
0.000954663
0.000947561
0.000940468
0.000933384
0.00092631
0.00091925
0.000912203
0.000905171
0.000898155
0.000891156
0.000884174
0.000877209
0.000870261
0.000863331
0.000856417
0.000849521
0.000842641
0.000835776
0.000828925
0.000822088
0.000815263
0.000808449
0.000801645
0.000794849
0.000788059
0.000781274
0.000774491
0.00076771
0.000760926
0.00075414
0.000747348
0.000740547
0.000733736
0.000726913
0.000720073
0.000713216
0.000706337
0.000699434
0.000692504
0.000685544
0.000678551
0.000671521
0.000664451
0.000657336
0.000650173
0.000642958
0.000635686
0.000628352
0.000620951
0.000613478
0.000605926
0.000598288
0.000590557
0.000582723
0.000574778
0.000566717
0.00055853
0.000550207
0.000541736
0.000533104
0.000524295
0.000515292
0.000506075
0.000496622
0.000486905
0.000476895
0.000466556
0.000455846
0.000444715
0.000433103
0.000420943
0.000408157
0.000394648
0.000380296
0.000364948
0.000348415
0.000330449
0.000310729
0.000288819
0.00026412
0.00023578
0.000202549
0.000162565
0.000113141
5.22394e-05
2.72074e-06
2.00616e-05
0.000130335
0.00024494
0.000337662
0.000412487
0.000474139
0.000526242
0.000571309
0.000611074
0.000646746
0.000679191
0.000709033
0.000736734
0.000762637
0.000787
0.000810026
0.00083187
0.000852659
0.000872495
0.000891459
0.00090962
0.000927033
0.000943746
0.000959797
0.000975221
0.000990047
0.0010043
0.001018
0.00103116
0.00104381
0.00105595
0.0010676
0.00107877
0.00108947
0.00109971
0.00110949
0.00111883
0.00112774
0.00113621
0.00114426
0.00115188
0.0011591
0.0011659
0.0011723
0.00117831
0.00118392
0.00118914
0.00119397
0.00119843
0.00120252
0.00120623
0.00120959
0.00121258
0.00121522
0.00121751
0.00121945
0.00122106
0.00122233
0.00122328
0.0012239
0.00122419
0.00122418
0.00122385
0.00122322
0.0012223
0.00122109
0.0012196
0.00121784
0.00121582
0.00121353
0.001211
0.00120823
0.00120522
0.00120198
0.00119852
0.00119484
0.00119095
0.00118687
0.00118259
0.00117812
0.00117347
0.00116865
0.00116367
0.00115852
0.00115323
0.00114779
0.00114221
0.0011365
0.00113066
0.00112471
0.00111865
0.00111248
0.00110621
0.00109986
0.00109341
0.00108689
0.00108029
0.00107362
0.0010669
0.00106011
0.00105327
0.00104639
0.00103946
0.0010325
0.00102551
0.00101848
0.00101144
0.00100437
0.000997292
0.000990199
0.000983097
0.000975989
0.00096888
0.00096177
0.000954664
0.000947563
0.000940469
0.000933385
0.000926312
0.000919251
0.000912204
0.000905172
0.000898156
0.000891157
0.000884174
0.000877209
0.000870262
0.000863331
0.000856418
0.000849522
0.000842641
0.000835776
0.000828926
0.000822088
0.000815264
0.00080845
0.000801646
0.000794849
0.000788059
0.000781274
0.000774492
0.00076771
0.000760927
0.00075414
0.000747348
0.000740547
0.000733736
0.000726913
0.000720073
0.000713215
0.000706337
0.000699434
0.000692504
0.000685544
0.000678551
0.000671521
0.00066445
0.000657336
0.000650173
0.000642958
0.000635685
0.000628352
0.000620951
0.000613477
0.000605925
0.000598288
0.000590556
0.000582723
0.000574778
0.000566716
0.00055853
0.000550207
0.000541736
0.000533104
0.000524295
0.000515292
0.000506075
0.000496621
0.000486904
0.000476894
0.000466556
0.000455846
0.000444715
0.000433103
0.000420942
0.000408157
0.000394648
0.000380295
0.000364948
0.000348414
0.000330449
0.000310729
0.000288819
0.00026412
0.00023578
0.000202549
0.000162565
0.000113141
5.22392e-05
2.72074e-06
2.57218e-05
0.000152885
0.000291796
0.000410053
0.000508666
0.000591675
0.000662667
0.000724396
0.000778905
0.000827702
0.00087191
0.000912368
0.000949713
0.00098443
0.00101689
0.0010474
0.00107619
0.00110344
0.0011293
0.00115391
0.00117736
0.00119975
0.00122114
0.0012416
0.00126119
0.00127994
0.00129789
0.00131509
0.00133156
0.00134734
0.00136243
0.00137687
0.00139068
0.00140387
0.00141647
0.00142847
0.00143991
0.00145078
0.00146111
0.0014709
0.00148017
0.00148892
0.00149717
0.00150492
0.00151218
0.00151896
0.00152526
0.00153111
0.00153649
0.00154143
0.00154593
0.00154999
0.00155363
0.00155684
0.00155965
0.00156204
0.00156404
0.00156564
0.00156686
0.0015677
0.00156816
0.00156825
0.00156798
0.00156736
0.00156639
0.00156509
0.00156347
0.00156152
0.00155927
0.00155671
0.00155386
0.00155073
0.00154732
0.00154363
0.00153969
0.00153549
0.00153105
0.00152636
0.00152144
0.00151631
0.00151095
0.00150539
0.00149963
0.00149367
0.00148753
0.00148121
0.00147473
0.00146808
0.00146127
0.00145432
0.00144723
0.00144
0.00143265
0.00142518
0.00141759
0.0014099
0.00140212
0.00139424
0.00138627
0.00137822
0.0013701
0.00136191
0.00135366
0.00134535
0.00133699
0.00132858
0.00132013
0.00131164
0.00130312
0.00129457
0.00128599
0.0012774
0.00126879
0.00126016
0.00125152
0.00124287
0.00123422
0.00122556
0.0012169
0.00120825
0.00119959
0.00119094
0.00118229
0.00117364
0.001165
0.00115637
0.00114774
0.00113912
0.00113051
0.0011219
0.00111329
0.00110469
0.00109609
0.0010875
0.0010789
0.0010703
0.0010617
0.0010531
0.00104449
0.00103587
0.00102723
0.00101859
0.00100993
0.00100125
0.000992548
0.000983822
0.000975069
0.000966285
0.000957468
0.000948613
0.000939717
0.000930777
0.000921788
0.000912747
0.000903648
0.000894488
0.000885261
0.000875963
0.000866588
0.00085713
0.000847582
0.000837939
0.000828193
0.000818336
0.000808359
0.000798253
0.000788006
0.000777608
0.000767046
0.000756309
0.000745383
0.000734254
0.000722904
0.000711312
0.000699456
0.00068731
0.000674846
0.000662028
0.00064882
0.000635175
0.000621043
0.000606362
0.000591061
0.000575055
0.000558244
0.000540517
0.000521732
0.000501718
0.000480261
0.000457098
0.00043189
0.000404207
0.00037348
0.000338957
0.000299617
0.000254061
0.0002004
0.000136359
6.16905e-05
3.61168e-06
2.57221e-05
0.000152887
0.000291801
0.000410059
0.000508674
0.000591683
0.000662676
0.000724405
0.000778914
0.000827711
0.000871919
0.000912377
0.000949722
0.000984439
0.0010169
0.00104741
0.0010762
0.00110344
0.00112931
0.00115392
0.00117737
0.00119976
0.00122115
0.00124161
0.00126119
0.00127994
0.0012979
0.0013151
0.00133157
0.00134734
0.00136244
0.00137688
0.00139069
0.00140388
0.00141647
0.00142848
0.00143991
0.00145079
0.00146112
0.00147091
0.00148018
0.00148893
0.00149718
0.00150492
0.00151218
0.00151896
0.00152527
0.00153111
0.0015365
0.00154144
0.00154594
0.00155
0.00155364
0.00155685
0.00155965
0.00156205
0.00156405
0.00156565
0.00156687
0.0015677
0.00156816
0.00156826
0.00156799
0.00156736
0.0015664
0.0015651
0.00156347
0.00156153
0.00155927
0.00155672
0.00155387
0.00155073
0.00154732
0.00154364
0.00153969
0.0015355
0.00153105
0.00152636
0.00152145
0.00151631
0.00151096
0.00150539
0.00149963
0.00149367
0.00148753
0.00148122
0.00147473
0.00146808
0.00146127
0.00145432
0.00144723
0.00144
0.00143265
0.00142518
0.0014176
0.00140991
0.00140212
0.00139424
0.00138627
0.00137822
0.0013701
0.00136191
0.00135366
0.00134535
0.00133699
0.00132858
0.00132013
0.00131164
0.00130312
0.00129457
0.001286
0.0012774
0.00126879
0.00126016
0.00125152
0.00124287
0.00123422
0.00122556
0.0012169
0.00120825
0.00119959
0.00119094
0.00118229
0.00117364
0.001165
0.00115637
0.00114774
0.00113912
0.00113051
0.0011219
0.00111329
0.00110469
0.00109609
0.0010875
0.0010789
0.0010703
0.0010617
0.0010531
0.00104449
0.00103587
0.00102723
0.00101859
0.00100993
0.00100125
0.000992547
0.000983822
0.000975068
0.000966285
0.000957467
0.000948613
0.000939717
0.000930777
0.000921788
0.000912746
0.000903647
0.000894487
0.000885261
0.000875962
0.000866587
0.000857129
0.000847582
0.000837939
0.000828193
0.000818335
0.000808358
0.000798252
0.000788006
0.000777608
0.000767045
0.000756308
0.000745382
0.000734253
0.000722903
0.000711311
0.000699455
0.000687309
0.000674845
0.000662027
0.000648819
0.000635174
0.000621042
0.000606361
0.00059106
0.000575054
0.000558243
0.000540516
0.000521732
0.000501717
0.000480261
0.000457097
0.00043189
0.000404206
0.00037348
0.000338957
0.000299617
0.000254061
0.000200401
0.000136359
6.16902e-05
3.61169e-06
3.12518e-05
0.000172212
0.000330723
0.000470589
0.000590288
0.000692917
0.000781764
0.000859592
0.000928587
0.00099044
0.00104645
0.00109764
0.00114477
0.00118845
0.00122918
0.00126732
0.00130319
0.00133703
0.00136905
0.00139941
0.00142826
0.00145571
0.00148187
0.00150681
0.00153061
0.00155333
0.00157504
0.00159577
0.00161558
0.0016345
0.00165256
0.00166981
0.00168626
0.00170194
0.00171687
0.00173108
0.0017446
0.00175742
0.00176958
0.00178109
0.00179197
0.00180223
0.00181188
0.00182094
0.00182941
0.00183732
0.00184468
0.00185149
0.00185776
0.00186351
0.00186875
0.00187348
0.00187772
0.00188147
0.00188475
0.00188756
0.00188991
0.00189181
0.00189327
0.0018943
0.0018949
0.00189508
0.00189485
0.00189422
0.0018932
0.0018918
0.00189003
0.0018879
0.00188541
0.00188259
0.00187943
0.00187594
0.00187214
0.00186803
0.00186362
0.00185892
0.00185394
0.00184869
0.00184317
0.00183739
0.00183137
0.0018251
0.0018186
0.00181188
0.00180495
0.00179781
0.00179047
0.00178293
0.00177522
0.00176733
0.00175927
0.00175106
0.00174269
0.00173418
0.00172553
0.00171676
0.00170786
0.00169884
0.00168972
0.0016805
0.00167118
0.00166177
0.00165228
0.00164271
0.00163308
0.00162338
0.00161362
0.0016038
0.00159394
0.00158403
0.00157408
0.00156409
0.00155408
0.00154403
0.00153396
0.00152386
0.00151375
0.00150362
0.00149348
0.00148332
0.00147315
0.00146297
0.00145279
0.0014426
0.0014324
0.00142219
0.00141198
0.00140177
0.00139154
0.00138132
0.00137108
0.00136083
0.00135058
0.00134031
0.00133003
0.00131974
0.00130943
0.0012991
0.00128875
0.00127837
0.00126797
0.00125755
0.00124708
0.00123659
0.00122605
0.00121547
0.00120485
0.00119418
0.00118345
0.00117267
0.00116182
0.0011509
0.00113992
0.00112886
0.00111771
0.00110648
0.00109515
0.00108372
0.00107218
0.00106053
0.00104875
0.00103685
0.0010248
0.00101259
0.00100023
0.000987689
0.000974959
0.000962025
0.000948871
0.00093548
0.000921834
0.000907913
0.000893693
0.000879148
0.000864246
0.000848953
0.000833231
0.000817035
0.000800314
0.000783009
0.000765051
0.000746361
0.000726846
0.000706398
0.000684887
0.000662165
0.000638054
0.000612335
0.000584741
0.000554945
0.000522537
0.000487002
0.000447684
0.000403738
0.00035407
0.000297268
0.000231588
0.000155289
6.95861e-05
4.48417e-06
3.1252e-05
0.000172214
0.000330728
0.000470595
0.000590296
0.000692926
0.000781774
0.000859603
0.000928598
0.000990451
0.00104646
0.00109765
0.00114478
0.00118846
0.00122919
0.00126733
0.0013032
0.00133704
0.00136906
0.00139942
0.00142827
0.00145572
0.00148188
0.00150682
0.00153062
0.00155334
0.00157505
0.00159578
0.00161559
0.00163451
0.00165257
0.00166982
0.00168627
0.00170195
0.00171688
0.00173109
0.0017446
0.00175743
0.00176959
0.0017811
0.00179198
0.00180223
0.00181189
0.00182094
0.00182942
0.00183733
0.00184469
0.00185149
0.00185777
0.00186352
0.00186876
0.00187349
0.00187773
0.00188148
0.00188476
0.00188757
0.00188992
0.00189182
0.00189328
0.00189431
0.00189491
0.00189509
0.00189486
0.00189423
0.00189321
0.00189181
0.00189004
0.0018879
0.00188542
0.00188259
0.00187943
0.00187595
0.00187215
0.00186804
0.00186363
0.00185893
0.00185395
0.00184869
0.00184317
0.00183739
0.00183137
0.0018251
0.00181861
0.00181189
0.00180495
0.00179781
0.00179047
0.00178294
0.00177522
0.00176733
0.00175928
0.00175106
0.00174269
0.00173418
0.00172554
0.00171676
0.00170786
0.00169884
0.00168972
0.0016805
0.00167118
0.00166177
0.00165228
0.00164272
0.00163308
0.00162338
0.00161362
0.0016038
0.00159394
0.00158403
0.00157408
0.0015641
0.00155408
0.00154403
0.00153396
0.00152387
0.00151375
0.00150362
0.00149348
0.00148332
0.00147315
0.00146298
0.00145279
0.0014426
0.0014324
0.00142219
0.00141198
0.00140177
0.00139155
0.00138132
0.00137108
0.00136083
0.00135058
0.00134031
0.00133003
0.00131974
0.00130943
0.0012991
0.00128875
0.00127837
0.00126797
0.00125755
0.00124708
0.00123659
0.00122605
0.00121547
0.00120485
0.00119418
0.00118345
0.00117267
0.00116182
0.0011509
0.00113992
0.00112886
0.00111771
0.00110648
0.00109515
0.00108372
0.00107218
0.00106053
0.00104875
0.00103685
0.0010248
0.00101259
0.00100023
0.000987688
0.000974959
0.000962025
0.00094887
0.000935479
0.000921833
0.000907912
0.000893693
0.000879147
0.000864245
0.000848952
0.000833231
0.000817035
0.000800313
0.000783008
0.00076505
0.00074636
0.000726845
0.000706397
0.000684886
0.000662165
0.000638054
0.000612334
0.000584741
0.000554944
0.000522536
0.000487002
0.000447684
0.000403739
0.00035407
0.000297268
0.000231589
0.000155289
6.95859e-05
4.48419e-06
3.66776e-05
0.000189347
0.000364343
0.000522737
0.000661047
0.000781421
0.000886762
0.000979727
0.00106254
0.00113698
0.00120448
0.00126617
0.00132294
0.00137549
0.00142441
0.00147014
0.00151307
0.00155348
0.00159164
0.00162775
0.00166198
0.00169449
0.00172539
0.0017548
0.00178281
0.00180951
0.00183495
0.00185921
0.00188234
0.00190439
0.0019254
0.00194543
0.00196449
0.00198264
0.00199989
0.00201628
0.00203184
0.00204658
0.00206054
0.00207374
0.00208619
0.00209791
0.00210893
0.00211926
0.00212891
0.00213791
0.00214627
0.00215401
0.00216113
0.00216765
0.00217359
0.00217895
0.00218375
0.00218801
0.00219172
0.00219491
0.00219758
0.00219975
0.00220143
0.00220261
0.00220332
0.00220357
0.00220336
0.0022027
0.00220161
0.0022001
0.00219817
0.00219584
0.00219312
0.00219002
0.00218654
0.00218271
0.00217852
0.00217399
0.00216913
0.00216394
0.00215844
0.00215263
0.00214652
0.00214013
0.00213346
0.00212652
0.00211932
0.00211187
0.00210418
0.00209625
0.0020881
0.00207973
0.00207115
0.00206237
0.0020534
0.00204425
0.00203492
0.00202543
0.00201578
0.00200598
0.00199603
0.00198595
0.00197574
0.00196541
0.00195496
0.00194441
0.00193376
0.00192302
0.00191218
0.00190127
0.00189028
0.00187922
0.0018681
0.00185692
0.00184568
0.00183439
0.00182306
0.00181168
0.00180027
0.00178882
0.00177734
0.00176583
0.00175429
0.00174273
0.00173115
0.00171954
0.00170792
0.00169628
0.00168461
0.00167293
0.00166124
0.00164952
0.00163779
0.00162604
0.00161427
0.00160248
0.00159066
0.00157882
0.00156696
0.00155506
0.00154314