/*--------------------------------*- C++ -*----------------------------------*\
  =========                 |
  \\      /  F ield         | OpenFOAM: The Open Source CFD Toolbox
   \\    /   O peration     | Website:  https://openfoam.org
    \\  /    A nd           | Version:  8
     \\/     M anipulation  |
\*---------------------------------------------------------------------------*/
FoamFile
{
    version     2.0;
    format      ascii;
    class       surfaceScalarField;
    location    "4400";
    object      phi;
}
// * * * * * * * * * * * * * * * * * * * * * * * * * * * * * * * * * * * * * //

dimensions      [1 0 -1 0 0 0 0];

internalField   nonuniform List<scalar> 
114370
(
7.84008e-10
3.80601e-13
-7.84388e-10
1.93013e-09
1.70634e-12
-1.17058e-09
2.91982e-09
7.6486e-13
-9.81195e-10
3.51325e-09
3.19952e-13
-5.90639e-10
3.71346e-09
2.43211e-13
-2.00046e-10
3.57387e-09
2.06979e-13
1.39126e-10
3.15709e-09
1.58518e-13
4.16363e-10
2.52036e-09
1.09974e-13
6.36465e-10
1.71123e-09
7.04282e-14
8.0896e-10
7.67657e-10
4.20862e-14
9.43463e-10
-2.79845e-10
2.38014e-14
1.04742e-09
-1.40604e-09
1.2895e-14
1.12613e-09
-2.59083e-09
6.70438e-15
1.18475e-09
-3.81877e-09
3.31233e-15
1.22791e-09
-5.07735e-09
1.60285e-15
1.25854e-09
-6.35634e-09
8.77825e-16
1.27897e-09
-7.64733e-09
6.18145e-16
1.29097e-09
-8.94332e-09
4.71658e-16
1.29597e-09
-1.02384e-08
2.85707e-16
1.29512e-09
-1.15278e-08
5.76908e-17
1.28932e-09
-1.28071e-08
-1.62464e-16
1.27932e-09
-1.40728e-08
-3.37407e-16
1.26574e-09
-1.53219e-08
-4.57163e-16
1.24907e-09
-1.65516e-08
-5.25473e-16
1.22975e-09
-1.77597e-08
-5.44994e-16
1.20811e-09
-1.89442e-08
-5.12906e-16
1.18447e-09
-2.01032e-08
-4.27855e-16
1.15906e-09
-2.12353e-08
-2.97755e-16
1.13211e-09
-2.23391e-08
-1.41308e-16
1.1038e-09
-2.34134e-08
1.83379e-17
1.07431e-09
-2.44571e-08
1.57763e-16
1.04376e-09
-2.54694e-08
2.60163e-16
1.0123e-09
-2.64494e-08
3.13504e-16
9.80022e-10
-2.73965e-08
3.13068e-16
9.47039e-10
-2.83099e-08
2.58367e-16
9.13441e-10
-2.91892e-08
1.52981e-16
8.7931e-10
-3.00339e-08
3.79282e-18
8.44725e-10
-3.08436e-08
-1.77162e-16
8.09754e-10
-3.16181e-08
-3.68363e-16
7.74465e-10
-3.2357e-08
-5.40265e-16
7.38919e-10
-3.30601e-08
-6.62293e-16
7.03173e-10
-3.37274e-08
-7.11951e-16
6.67282e-10
-3.43587e-08
-6.83546e-16
6.31298e-10
-3.49539e-08
-5.90469e-16
5.95269e-10
-3.55131e-08
-4.62697e-16
5.59242e-10
-3.60364e-08
-3.3937e-16
5.23262e-10
-3.65237e-08
-2.58273e-16
4.87372e-10
-3.69753e-08
-2.41469e-16
4.51614e-10
-3.73913e-08
-2.84621e-16
4.16027e-10
-3.77719e-08
-3.56884e-16
3.80652e-10
-3.81174e-08
-4.10173e-16
3.45524e-10
-3.84281e-08
-4.01067e-16
3.10681e-10
-3.87042e-08
-3.10266e-16
2.76158e-10
-3.89462e-08
-1.53383e-16
2.4199e-10
-3.91544e-08
2.39917e-17
2.0821e-10
-3.93293e-08
1.65046e-16
1.7485e-10
-3.94712e-08
2.25055e-16
1.41942e-10
-3.95807e-08
1.85969e-16
1.09516e-10
-3.96583e-08
6.25317e-17
7.76007e-11
-3.97045e-08
-1.06822e-16
4.62204e-11
-3.97199e-08
-2.74928e-16
1.53987e-11
-3.97051e-08
-4.02864e-16
-1.48368e-11
-3.96606e-08
-4.69869e-16
-4.44576e-11
-3.95872e-08
-4.75724e-16
-7.34433e-11
-3.94854e-08
-4.34471e-16
-1.01778e-10
-3.9356e-08
-3.67306e-16
-1.29442e-10
-3.91996e-08
-2.9396e-16
-1.56414e-10
-3.90169e-08
-2.27879e-16
-1.82674e-10
-3.88087e-08
-1.75459e-16
-2.08202e-10
-3.85757e-08
-1.37675e-16
-2.3298e-10
-3.83187e-08
-1.11764e-16
-2.56994e-10
-3.80385e-08
-9.49593e-17
-2.80227e-10
-3.77358e-08
-8.4335e-17
-3.02668e-10
-3.74115e-08
-7.77765e-17
-3.24304e-10
-3.70664e-08
-7.36032e-17
-3.45126e-10
-3.67013e-08
-7.01888e-17
-3.65124e-10
-3.6317e-08
-6.60156e-17
-3.84292e-10
-3.59144e-08
-5.88607e-17
-4.02623e-10
-3.54943e-08
-4.76944e-17
-4.20112e-10
-3.50576e-08
-3.1107e-17
-4.36757e-10
-3.4605e-08
-8.8818e-18
-4.52553e-10
-3.41375e-08
1.81139e-17
-4.67503e-10
-3.3656e-08
4.86332e-17
-4.81604e-10
-3.31611e-08
8.12125e-17
-4.9486e-10
-3.26538e-08
1.13521e-16
-5.07274e-10
-3.2135e-08
1.43986e-16
-5.18849e-10
-3.16054e-08
1.70223e-16
-5.29592e-10
-3.1066e-08
1.91038e-16
-5.3951e-10
-3.05174e-08
2.06704e-16
-5.4861e-10
-2.99605e-08
2.15648e-16
-5.569e-10
-2.93961e-08
2.19767e-16
-5.64393e-10
-2.8825e-08
2.19061e-16
-5.71098e-10
-2.8248e-08
2.14615e-16
-5.77028e-10
-2.76659e-08
2.07729e-16
-5.82196e-10
-2.70793e-08
1.99651e-16
-5.86616e-10
-2.6489e-08
1.91084e-16
-5.90303e-10
-2.58958e-08
1.8344e-16
-5.93273e-10
-2.53002e-08
1.77747e-16
-5.95542e-10
-2.47031e-08
1.74601e-16
-5.97126e-10
-2.41051e-08
1.74058e-16
-5.98045e-10
-2.35068e-08
1.75846e-16
-5.98315e-10
-2.29089e-08
1.79152e-16
-5.97956e-10
-2.2312e-08
1.82675e-16
-5.96987e-10
-2.17166e-08
1.86468e-16
-5.95426e-10
-2.11233e-08
1.88365e-16
-5.93294e-10
-2.05327e-08
1.88851e-16
-5.90611e-10
-1.99454e-08
1.8717e-16
-5.87396e-10
-1.93617e-08
1.82778e-16
-5.8367e-10
-1.87823e-08
1.76651e-16
-5.79452e-10
-1.82076e-08
1.69223e-16
-5.74762e-10
-1.7638e-08
1.60711e-16
-5.69621e-10
-1.7074e-08
1.51278e-16
-5.64047e-10
-1.65159e-08
1.41573e-16
-5.58061e-10
-1.59643e-08
1.31163e-16
-5.5168e-10
-1.54194e-08
1.20049e-16
-5.44925e-10
-1.48816e-08
1.08176e-16
-5.37812e-10
-1.43513e-08
9.41887e-17
-5.30361e-10
-1.38287e-08
7.81413e-17
-5.22587e-10
-1.33142e-08
5.9817e-17
-5.14508e-10
-1.28081e-08
3.87822e-17
-5.06141e-10
-1.23107e-08
1.482e-17
-4.975e-10
-1.18221e-08
-1.10939e-17
-4.886e-10
-1.13427e-08
-4.04772e-17
-4.79457e-10
-1.08726e-08
-7.19206e-17
-4.70083e-10
-1.04122e-08
-1.05424e-16
-4.60492e-10
-9.96149e-09
-1.40662e-16
-4.50696e-10
-9.52081e-09
-1.7731e-16
-4.40707e-10
-9.0903e-09
-2.14826e-16
-4.30537e-10
-8.67013e-09
-2.53209e-16
-4.20196e-10
-8.26046e-09
-2.9235e-16
-4.09695e-10
-7.86144e-09
-3.32143e-16
-3.99042e-10
-7.47322e-09
-3.72153e-16
-3.88248e-10
-7.09592e-09
-4.12054e-16
-3.77321e-10
-6.72967e-09
-4.5304e-16
-3.6627e-10
-6.37459e-09
-4.9446e-16
-3.55103e-10
-6.03078e-09
-5.35446e-16
-3.43828e-10
-5.69835e-09
-5.78601e-16
-3.32453e-10
-5.37738e-09
-6.21648e-16
-3.20986e-10
-5.06796e-09
-6.65779e-16
-3.09435e-10
-4.77017e-09
-7.11103e-16
-2.97808e-10
-4.48407e-09
-7.5697e-16
-2.86114e-10
-4.20972e-09
-8.04897e-16
-2.74361e-10
-3.94718e-09
-8.54125e-16
-2.62558e-10
-3.69647e-09
-9.04764e-16
-2.50715e-10
-3.45764e-09
-9.57246e-16
-2.38843e-10
-3.2307e-09
-1.01092e-15
-2.26952e-10
-3.01565e-09
-1.06633e-15
-2.15055e-10
-2.81249e-09
-1.12326e-15
-2.03165e-10
-2.6212e-09
-1.18073e-15
-1.91295e-10
-2.44174e-09
-1.23907e-15
-1.7946e-10
-2.27406e-09
-1.2973e-15
-1.67678e-10
-2.11809e-09
-1.35412e-15
-1.55965e-10
-1.97374e-09
-1.40845e-15
-1.44342e-10
-1.84091e-09
-1.45812e-15
-1.32829e-10
-1.71945e-09
-1.50248e-15
-1.21447e-10
-1.60922e-09
-1.53892e-15
-1.10222e-10
-1.51002e-09
-1.56702e-15
-9.91787e-11
-1.42166e-09
-1.58286e-15
-8.83445e-11
-1.3439e-09
-1.58548e-15
-7.77485e-11
-1.27646e-09
-1.5753e-15
-6.74219e-11
-1.21904e-09
-1.54973e-15
-5.73972e-11
-1.17131e-09
-1.50877e-15
-4.77092e-11
-1.13289e-09
-1.45392e-15
-3.83942e-11
-1.10337e-09
-1.38477e-15
-2.94904e-11
-1.08231e-09
-1.30304e-15
-2.10376e-11
-1.06921e-09
-1.21286e-15
-1.30775e-11
-1.06353e-09
-1.11422e-15
-5.65345e-12
-1.06469e-09
-1.01059e-15
1.18983e-12
-1.07207e-09
-9.03715e-16
7.40701e-12
-1.08499e-09
-7.94235e-16
1.29501e-11
-1.10273e-09
-6.81504e-16
1.77687e-11
-1.12452e-09
-5.60316e-16
2.18122e-11
-1.14952e-09
-4.26552e-16
2.50287e-11
-1.17686e-09
-2.68503e-16
2.73653e-11
-1.2056e-09
-7.68439e-17
2.87678e-11
-1.23476e-09
1.60134e-16
2.91813e-11
-1.26329e-09
4.46335e-16
2.85501e-11
-1.29008e-09
7.81758e-16
2.68177e-11
-1.314e-09
1.1573e-15
2.39275e-11
-1.33381e-09
1.55712e-15
1.98228e-11
-1.34825e-09
1.96692e-15
1.44479e-11
-1.356e-09
2.37889e-15
7.749e-12
-1.35568e-09
2.80646e-15
-3.24146e-13
-1.34589e-09
3.26939e-15
-9.81147e-12
-1.32517e-09
3.79368e-15
-2.07448e-11
-1.29206e-09
4.38585e-15
-3.31435e-11
-1.24511e-09
5.0255e-15
-4.69989e-11
-1.18291e-09
5.66928e-15
-6.22596e-11
-1.10419e-09
6.2916e-15
-7.88065e-11
-1.00787e-09
6.89701e-15
-9.64106e-11
-8.93324e-10
7.52932e-15
-1.14664e-10
-7.60594e-10
8.21671e-15
-1.32868e-10
-6.10912e-10
8.95183e-15
-1.49843e-10
-4.47484e-10
9.7169e-15
-1.63614e-10
-2.76791e-10
1.05809e-14
-1.70908e-10
-1.10674e-10
1.16986e-14
-1.66363e-10
3.05874e-11
1.31113e-14
-1.41544e-10
1.14586e-10
1.43485e-14
-8.43258e-11
1.02007e-10
1.44381e-14
1.21905e-11
7.459e-15
1.01547e-10
8.03464e-10
-8.02891e-10
1.93257e-09
-1.185e-09
2.91572e-09
-9.87941e-10
3.50936e-09
-5.93216e-10
3.71104e-09
-2.00881e-10
3.57258e-09
1.38908e-10
3.15644e-09
4.16321e-10
2.52003e-09
6.36458e-10
1.71106e-09
8.08955e-10
7.67574e-10
9.43456e-10
-2.7988e-10
1.04741e-09
-1.40605e-09
1.12612e-09
-2.59083e-09
1.18474e-09
-3.81877e-09
1.2279e-09
-5.07734e-09
1.25854e-09
-6.35633e-09
1.27897e-09
-7.64732e-09
1.29097e-09
-8.94331e-09
1.29597e-09
-1.02384e-08
1.29512e-09
-1.15278e-08
1.28932e-09
-1.28071e-08
1.27932e-09
-1.40728e-08
1.26574e-09
-1.53219e-08
1.24907e-09
-1.65516e-08
1.22975e-09
-1.77597e-08
1.20811e-09
-1.89441e-08
1.18446e-09
-2.01032e-08
1.15906e-09
-2.12353e-08
1.13211e-09
-2.23391e-08
1.10381e-09
-2.34134e-08
1.07431e-09
-2.44571e-08
1.04376e-09
-2.54694e-08
1.0123e-09
-2.64494e-08
9.80023e-10
-2.73964e-08
9.4704e-10
-2.83098e-08
9.13442e-10
-2.91891e-08
8.79312e-10
-3.00338e-08
8.44726e-10
-3.08436e-08
8.09756e-10
-3.1618e-08
7.74467e-10
-3.23569e-08
7.38921e-10
-3.30601e-08
7.03176e-10
-3.37273e-08
6.67285e-10
-3.43586e-08
6.31301e-10
-3.49539e-08
5.95272e-10
-3.55131e-08
5.59245e-10
-3.60363e-08
5.23265e-10
-3.65237e-08
4.87375e-10
-3.69752e-08
4.51616e-10
-3.73912e-08
4.16029e-10
-3.77719e-08
3.80653e-10
-3.81174e-08
3.45525e-10
-3.8428e-08
3.10682e-10
-3.87042e-08
2.76159e-10
-3.89462e-08
2.41991e-10
-3.91544e-08
2.0821e-10
-3.93292e-08
1.7485e-10
-3.94711e-08
1.41942e-10
-3.95807e-08
1.09516e-10
-3.96582e-08
7.76003e-11
-3.97045e-08
4.62197e-11
-3.97199e-08
1.53977e-11
-3.9705e-08
-1.48379e-11
-3.96606e-08
-4.44588e-11
-3.95871e-08
-7.34444e-11
-3.94854e-08
-1.01779e-10
-3.93559e-08
-1.29443e-10
-3.91995e-08
-1.56415e-10
-3.90168e-08
-1.82675e-10
-3.88086e-08
-2.08203e-10
-3.85757e-08
-2.32982e-10
-3.83187e-08
-2.56995e-10
-3.80385e-08
-2.80228e-10
-3.77358e-08
-3.02669e-10
-3.74115e-08
-3.24306e-10
-3.70664e-08
-3.45128e-10
-3.67013e-08
-3.65126e-10
-3.6317e-08
-3.84294e-10
-3.59144e-08
-4.02625e-10
-3.54943e-08
-4.20115e-10
-3.50575e-08
-4.36759e-10
-3.4605e-08
-4.52556e-10
-3.41375e-08
-4.67505e-10
-3.36559e-08
-4.81607e-10
-3.31611e-08
-4.94863e-10
-3.26538e-08
-5.07277e-10
-3.2135e-08
-5.18852e-10
-3.16054e-08
-5.29596e-10
-3.10659e-08
-5.39513e-10
-3.05173e-08
-5.48613e-10
-2.99605e-08
-5.56904e-10
-2.93961e-08
-5.64396e-10
-2.8825e-08
-5.71102e-10
-2.8248e-08
-5.77032e-10
-2.76658e-08
-5.822e-10
-2.70792e-08
-5.8662e-10
-2.6489e-08
-5.90307e-10
-2.58957e-08
-5.93277e-10
-2.53002e-08
-5.95546e-10
-2.47031e-08
-5.9713e-10
-2.41051e-08
-5.98049e-10
-2.35068e-08
-5.98319e-10
-2.29089e-08
-5.9796e-10
-2.23119e-08
-5.96991e-10
-2.17165e-08
-5.9543e-10
-2.11233e-08
-5.93299e-10
-2.05327e-08
-5.90615e-10
-1.99453e-08
-5.874e-10
-1.93617e-08
-5.83674e-10
-1.87823e-08
-5.79456e-10
-1.82075e-08
-5.74766e-10
-1.7638e-08
-5.69625e-10
-1.70739e-08
-5.64051e-10
-1.65159e-08
-5.58065e-10
-1.59643e-08
-5.51685e-10
-1.54194e-08
-5.44929e-10
-1.48816e-08
-5.37817e-10
-1.43513e-08
-5.30365e-10
-1.38287e-08
-5.22592e-10
-1.33142e-08
-5.14513e-10
-1.28081e-08
-5.06145e-10
-1.23106e-08
-4.97504e-10
-1.18221e-08
-4.88605e-10
-1.13427e-08
-4.79461e-10
-1.08726e-08
-4.70087e-10
-1.04121e-08
-4.60496e-10
-9.96147e-09
-4.507e-10
-9.52079e-09
-4.40712e-10
-9.09028e-09
-4.30542e-10
-8.67011e-09
-4.20201e-10
-8.26044e-09
-4.09699e-10
-7.86142e-09
-3.99046e-10
-7.4732e-09
-3.88252e-10
-7.0959e-09
-3.77325e-10
-6.72965e-09
-3.66274e-10
-6.37457e-09
-3.55107e-10
-6.03076e-09
-3.43832e-10
-5.69833e-09
-3.32457e-10
-5.37736e-09
-3.2099e-10
-5.06795e-09
-3.09438e-10
-4.77015e-09
-2.97811e-10
-4.48405e-09
-2.86117e-10
-4.20971e-09
-2.74364e-10
-3.94716e-09
-2.62561e-10
-3.69646e-09
-2.50718e-10
-3.45762e-09
-2.38846e-10
-3.23068e-09
-2.26955e-10
-3.01563e-09
-2.15058e-10
-2.81247e-09
-2.03167e-10
-2.62118e-09
-1.91296e-10
-2.44172e-09
-1.79462e-10
-2.27404e-09
-1.67679e-10
-2.11807e-09
-1.55966e-10
-1.97372e-09
-1.44343e-10
-1.84089e-09
-1.32829e-10
-1.71943e-09
-1.21448e-10
-1.6092e-09
-1.10222e-10
-1.51001e-09
-9.91783e-11
-1.42165e-09
-8.83438e-11
-1.34388e-09
-7.77476e-11
-1.27644e-09
-6.74207e-11
-1.21902e-09
-5.73958e-11
-1.17129e-09
-4.77076e-11
-1.13287e-09
-3.83923e-11
-1.10336e-09
-2.94882e-11
-1.08229e-09
-2.10352e-11
-1.06919e-09
-1.30749e-11
-1.06351e-09
-5.65074e-12
-1.06467e-09
1.19269e-12
-1.07205e-09
7.41001e-12
-1.08497e-09
1.29532e-11
-1.10272e-09
1.77719e-11
-1.1245e-09
2.18155e-11
-1.1495e-09
2.5032e-11
-1.17684e-09
2.73686e-11
-1.20559e-09
2.8771e-11
-1.23475e-09
2.91844e-11
-1.26327e-09
2.8553e-11
-1.29007e-09
2.68203e-11
-1.31399e-09
2.39296e-11
-1.3338e-09
1.98243e-11
-1.34824e-09
1.44486e-11
-1.35599e-09
7.74868e-12
-1.35567e-09
-3.25592e-13
-1.34588e-09
-9.81417e-12
-1.32516e-09
-2.07489e-11
-1.29205e-09
-3.31493e-11
-1.2451e-09
-4.70066e-11
-1.18291e-09
-6.22696e-11
-1.10418e-09
-7.88191e-11
-1.00787e-09
-9.64259e-11
-8.93325e-10
-1.14683e-10
-7.60596e-10
-1.3289e-10
-6.10915e-10
-1.49868e-10
-4.47489e-10
-1.63643e-10
-2.76797e-10
-1.70941e-10
-1.10681e-10
-1.66401e-10
3.05779e-11
-1.41586e-10
1.14569e-10
-8.43726e-11
1.01972e-10
1.21361e-11
1.01485e-10
1.18489e-09
-1.52143e-12
-1.94583e-09
1.87311e-09
-1.35735e-13
-1.85969e-09
2.23094e-09
-5.22676e-15
-1.33806e-09
2.33047e-09
2.1652e-14
-6.9015e-10
2.19362e-09
5.02282e-14
-6.33672e-11
1.8441e-09
5.46322e-14
4.88474e-10
1.30867e-09
4.422e-14
9.51653e-10
6.14499e-10
3.05909e-14
1.33052e-09
-2.12257e-10
1.8931e-14
1.63563e-09
-1.14736e-09
1.05797e-14
1.87849e-09
-2.16959e-09
5.24102e-15
2.0696e-09
-3.26133e-09
2.05435e-15
2.21782e-09
-4.40751e-09
2.30355e-16
2.33089e-09
-5.59511e-09
-7.37656e-16
2.41547e-09
-6.81317e-09
-1.16004e-15
2.47658e-09
-8.05246e-09
-1.26763e-15
2.51824e-09
-9.30515e-09
-1.23099e-15
2.54365e-09
-1.05646e-08
-1.14618e-15
2.55542e-09
-1.18251e-08
-1.03964e-15
2.55565e-09
-1.30819e-08
-9.04849e-16
2.54608e-09
-1.43307e-08
-7.37967e-16
2.52811e-09
-1.55679e-08
-5.50187e-16
2.50294e-09
-1.67903e-08
-3.62515e-16
2.47153e-09
-1.79953e-08
-1.93871e-16
2.43472e-09
-1.91804e-08
-5.38768e-17
2.39319e-09
-2.03434e-08
5.81453e-17
2.34755e-09
-2.14826e-08
1.47941e-16
2.29828e-09
-2.25963e-08
2.22288e-16
2.24584e-09
-2.36831e-08
2.84545e-16
2.1906e-09
-2.47417e-08
3.35284e-16
2.13289e-09
-2.57709e-08
3.7228e-16
2.07301e-09
-2.67698e-08
3.91603e-16
2.0112e-09
-2.77375e-08
3.8721e-16
1.94771e-09
-2.86732e-08
3.54005e-16
1.88273e-09
-2.95762e-08
2.92068e-16
1.81646e-09
-3.04459e-08
2.08501e-16
1.74907e-09
-3.12819e-08
1.16478e-16
1.68072e-09
-3.20837e-08
3.1854e-17
1.61154e-09
-3.28509e-08
-3.02452e-17
1.54168e-09
-3.35832e-08
-5.66199e-17
1.47126e-09
-3.42804e-08
-3.93147e-17
1.4004e-09
-3.49423e-08
2.05726e-17
1.32921e-09
-3.55687e-08
1.09828e-16
1.25779e-09
-3.61597e-08
2.05345e-16
1.18625e-09
-3.67151e-08
2.81428e-16
1.11467e-09
-3.7235e-08
3.19686e-16
1.04316e-09
-3.77193e-08
3.16771e-16
9.71797e-10
-3.81684e-08
2.85152e-16
9.00667e-10
-3.85822e-08
2.47759e-16
8.29852e-10
-3.89609e-08
2.2804e-16
7.59432e-10
-3.93049e-08
2.40439e-16
6.89481e-10
-3.96143e-08
2.84416e-16
6.20075e-10
-3.98894e-08
3.45632e-16
5.51284e-10
-4.01305e-08
4.01414e-16
4.83178e-10
-4.03381e-08
4.29223e-16
4.15822e-10
-4.05126e-08
4.15805e-16
3.49282e-10
-4.06542e-08
3.60591e-16
2.83621e-10
-4.07636e-08
2.75508e-16
2.18898e-10
-4.08412e-08
1.79962e-16
1.55171e-10
-4.08875e-08
9.44447e-17
9.24952e-11
-4.0903e-08
3.43793e-17
3.09227e-11
-4.08883e-08
5.86417e-18
-2.94955e-11
-4.08441e-08
6.85292e-18
-8.87123e-11
-4.07708e-08
2.87803e-17
-1.46682e-10
-4.06693e-08
6.11432e-17
-2.03362e-10
-4.054e-08
9.40075e-17
-2.58711e-10
-4.03837e-08
1.2118e-16
-3.12688e-10
-4.02012e-08
1.39787e-16
-3.65253e-10
-3.9993e-08
1.49829e-16
-4.1637e-10
-3.976e-08
1.52878e-16
-4.66006e-10
-3.95028e-08
1.5121e-16
-5.14128e-10
-3.92224e-08
1.46615e-16
-5.60708e-10
-3.89193e-08
1.40516e-16
-6.05721e-10
-3.85945e-08
1.34051e-16
-6.49143e-10
-3.82487e-08
1.27803e-16
-6.90954e-10
-3.78827e-08
1.22314e-16
-7.31137e-10
-3.74973e-08
1.18004e-16
-7.69676e-10
-3.70934e-08
1.15089e-16
-8.06559e-10
-3.66717e-08
1.1349e-16
-8.41777e-10
-3.62332e-08
1.13137e-16
-8.75322e-10
-3.57786e-08
1.13828e-16
-9.0719e-10
-3.53087e-08
1.14735e-16
-9.3738e-10
-3.48244e-08
1.15548e-16
-9.65893e-10
-3.43266e-08
1.1571e-16
-9.92731e-10
-3.3816e-08
1.14436e-16
-1.0179e-09
-3.32934e-08
1.11752e-16
-1.04141e-09
-3.27598e-08
1.06927e-16
-1.06327e-09
-3.22158e-08
1.0034e-16
-1.0835e-09
-3.16624e-08
9.20451e-17
-1.1021e-09
-3.11002e-08
8.2341e-17
-1.1191e-09
-3.05301e-08
7.17425e-17
-1.13452e-09
-2.99528e-08
6.08459e-17
-1.14838e-09
-2.93692e-08
5.01118e-17
-1.1607e-09
-2.87799e-08
4.00825e-17
-1.1715e-09
-2.81857e-08
3.12188e-17
-1.18082e-09
-2.75874e-08
2.37644e-17
-1.18869e-09
-2.69856e-08
1.80177e-17
-1.19513e-09
-2.6381e-08
1.39244e-17
-1.20017e-09
-2.57743e-08
1.17285e-17
-1.20385e-09
-2.51661e-08
1.07794e-17
-1.20621e-09
-2.45572e-08
1.07518e-17
-1.20727e-09
-2.39481e-08
1.13477e-17
-1.20707e-09
-2.33395e-08
1.17538e-17
-1.20566e-09
-2.27319e-08
1.20244e-17
-1.20307e-09
-2.21259e-08
1.17258e-17
-1.19933e-09
-2.1522e-08
1.08309e-17
-1.19448e-09
-2.09209e-08
9.31253e-18
-1.18857e-09
-2.0323e-08
7.41469e-18
-1.18163e-09
-1.97288e-08
5.3813e-18
-1.1737e-09
-1.91387e-08
3.45632e-18
-1.16482e-09
-1.85534e-08
1.85658e-18
-1.15503e-09
-1.79731e-08
4.46548e-19
-1.14436e-09
-1.73983e-08
-5.84035e-19
-1.13285e-09
-1.68295e-08
-1.26228e-18
-1.12054e-09
-1.6267e-08
-1.69661e-18
-1.10746e-09
-1.57112e-08
-1.94125e-18
-1.09366e-09
-1.51624e-08
-2.34855e-18
-1.07915e-09
-1.46211e-08
-2.78301e-18
-1.06399e-09
-1.40874e-08
-3.35304e-18
-1.04819e-09
-1.35618e-08
-4.16708e-18
-1.0318e-09
-1.30445e-08
-5.06249e-18
-1.01483e-09
-1.25358e-08
-5.84955e-18
-9.97326e-10
-1.2036e-08
-6.66379e-18
-9.79309e-10
-1.15453e-08
-7.34258e-18
-9.60805e-10
-1.1064e-08
-7.56068e-18
-9.41842e-10
-1.05923e-08
-7.26388e-18
-9.22442e-10
-1.01304e-08
-6.61483e-18
-9.0263e-10
-9.6785e-09
-5.39668e-18
-8.82427e-10
-9.23687e-09
-3.47392e-18
-8.61853e-10
-8.80567e-09
-1.30735e-18
-8.4093e-10
-8.38506e-09
1.42828e-18
-8.19676e-10
-7.97522e-09
4.59743e-18
-7.98109e-10
-7.57632e-09
8.06458e-18
-7.76248e-10
-7.1885e-09
1.18839e-17
-7.54108e-10
-6.81192e-09
1.58928e-17
-7.31706e-10
-6.44671e-09
1.98743e-17
-7.0906e-10
-6.093e-09
2.40183e-17
-6.86183e-10
-5.75091e-09
2.7891e-17
-6.63094e-10
-5.42056e-09
3.17634e-17
-6.39807e-10
-5.10204e-09
3.54459e-17
-6.16339e-10
-4.79546e-09
3.90196e-17
-5.92708e-10
-4.50091e-09
4.23491e-17
-5.6893e-10
-4.21845e-09
4.56783e-17
-5.45025e-10
-3.94816e-09
4.89258e-17
-5.21013e-10
-3.6901e-09
5.23085e-17
-4.96914e-10
-3.44431e-09
5.56366e-17
-4.72751e-10
-3.21082e-09
5.93438e-17
-4.48548e-10
-2.98966e-09
6.34572e-17
-4.24333e-10
-2.78082e-09
6.82748e-17
-4.00133e-10
-2.5843e-09
7.38239e-17
-3.75979e-10
-2.40007e-09
8.02127e-17
-3.51905e-10
-2.22808e-09
8.75227e-17
-3.27947e-10
-2.06828e-09
9.6621e-17
-3.04144e-10
-1.92056e-09
1.06695e-16
-2.80538e-10
-1.78482e-09
1.18557e-16
-2.57174e-10
-1.66093e-09
1.32207e-16
-2.34101e-10
-1.54872e-09
1.46995e-16
-2.1137e-10
-1.44801e-09
1.63301e-16
-1.89038e-10
-1.35858e-09
1.81069e-16
-1.67164e-10
-1.28017e-09
1.99759e-16
-1.45809e-10
-1.21251e-09
2.19315e-16
-1.25041e-10
-1.15526e-09
2.3887e-16
-1.04929e-10
-1.10809e-09
2.58046e-16
-8.55465e-11
-1.07058e-09
2.76407e-16
-6.69712e-11
-1.04231e-09
2.93359e-16
-4.92835e-11
-1.02279e-09
3.08195e-16
-3.25674e-11
-1.01151e-09
3.20266e-16
-1.69103e-11
-1.00789e-09
3.29572e-16
-2.40256e-12
-1.01132e-09
3.35841e-16
1.08637e-11
-1.02113e-09
3.38531e-16
2.27922e-11
-1.03662e-09
3.39215e-16
3.32831e-11
-1.05702e-09
3.38651e-16
4.22348e-11
-1.08151e-09
3.38575e-16
4.95435e-11
-1.10922e-09
3.4072e-16
5.51039e-11
-1.13924e-09
3.47527e-16
5.8809e-11
-1.17059e-09
3.59862e-16
6.05506e-11
-1.20224e-09
3.77726e-16
6.02202e-11
-1.23312e-09
3.983e-16
5.7709e-11
-1.26209e-09
4.17681e-16
5.29094e-11
-1.28798e-09
4.30448e-16
4.57159e-11
-1.30956e-09
4.32534e-16
3.60268e-11
-1.32557e-09
4.24863e-16
2.37472e-11
-1.33471e-09
4.1253e-16
8.79249e-12
-1.33564e-09
4.02797e-16
-8.90329e-12
-1.32704e-09
4.00926e-16
-2.93821e-11
-1.30759e-09
4.02578e-16
-5.26534e-11
-1.27598e-09
3.96261e-16
-7.86728e-11
-1.23101e-09
3.70538e-16
-1.07313e-10
-1.1716e-09
3.23783e-16
-1.38318e-10
-1.09688e-09
2.67489e-16
-1.71243e-10
-1.00635e-09
2.125e-16
-2.05337e-10
-8.99996e-10
1.55891e-16
-2.39388e-10
-7.78574e-10
7.80422e-17
-2.71454e-10
-6.43951e-10
-1.81121e-17
-2.98455e-10
-4.99561e-10
-7.88903e-17
-3.15547e-10
-3.50985e-10
-2.98895e-17
-3.15225e-10
-2.06687e-10
1.51501e-16
-2.86173e-10
-7.92383e-11
3.78526e-16
-2.12176e-10
5.8697e-12
-3.22179e-17
-7.34395e-11
-6.52527e-15
1.07048e-10
1.19505e-09
-1.94381e-09
1.87681e-09
-1.86195e-09
2.23159e-09
-1.33949e-09
2.33015e-09
-6.90867e-10
2.19318e-09
-6.37125e-11
1.84378e-09
4.88316e-10
1.30848e-09
9.51582e-10
6.14402e-10
1.33049e-09
-2.123e-10
1.63561e-09
-1.14737e-09
1.87848e-09
-2.16959e-09
2.06959e-09
-3.26132e-09
2.21782e-09
-4.4075e-09
2.33089e-09
-5.5951e-09
2.41547e-09
-6.81316e-09
2.47658e-09
-8.05245e-09
2.51824e-09
-9.30514e-09
2.54365e-09
-1.05646e-08
2.55542e-09
-1.18251e-08
2.55565e-09
-1.30819e-08
2.54607e-09
-1.43307e-08
2.52811e-09
-1.55679e-08
2.50293e-09
-1.67903e-08
2.47153e-09
-1.79953e-08
2.43472e-09
-1.91803e-08
2.39319e-09
-2.03434e-08
2.34754e-09
-2.14826e-08
2.29828e-09
-2.25963e-08
2.24584e-09
-2.36831e-08
2.1906e-09
-2.47417e-08
2.13289e-09
-2.57709e-08
2.07301e-09
-2.67698e-08
2.0112e-09
-2.77374e-08
1.94771e-09
-2.86731e-08
1.88273e-09
-2.95761e-08
1.81646e-09
-3.04459e-08
1.74907e-09
-3.12818e-08
1.68072e-09
-3.20836e-08
1.61154e-09
-3.28508e-08
1.54168e-09
-3.35831e-08
1.47126e-09
-3.42803e-08
1.4004e-09
-3.49422e-08
1.32921e-09
-3.55687e-08
1.25779e-09
-3.61596e-08
1.18625e-09
-3.6715e-08
1.11467e-09
-3.72349e-08
1.04316e-09
-3.77193e-08
9.71797e-10
-3.81683e-08
9.00667e-10
-3.85821e-08
8.29852e-10
-3.89609e-08
7.59431e-10
-3.93048e-08
6.89481e-10
-3.96142e-08
6.20075e-10
-3.98893e-08
5.51284e-10
-4.01305e-08
4.83177e-10
-4.03381e-08
4.15822e-10
-4.05125e-08
3.49282e-10
-4.06542e-08
2.8362e-10
-4.07636e-08
2.18897e-10
-4.08411e-08
1.55171e-10
-4.08874e-08
9.24947e-11
-4.09029e-08
3.09222e-11
-4.08883e-08
-2.94961e-11
-4.0844e-08
-8.87128e-11
-4.07708e-08
-1.46683e-10
-4.06692e-08
-2.03363e-10
-4.054e-08
-2.58712e-10
-4.03837e-08
-3.12688e-10
-4.02011e-08
-3.65253e-10
-3.99929e-08
-4.16371e-10
-3.97599e-08
-4.66006e-10
-3.95028e-08
-5.14128e-10
-3.92223e-08
-5.60709e-10
-3.89193e-08
-6.05721e-10
-3.85945e-08
-6.49144e-10
-3.82486e-08
-6.90955e-10
-3.78826e-08
-7.31137e-10
-3.74973e-08
-7.69676e-10
-3.70933e-08
-8.06559e-10
-3.66717e-08
-8.41777e-10
-3.62331e-08
-8.75322e-10
-3.57785e-08
-9.07191e-10
-3.53087e-08
-9.37381e-10
-3.48244e-08
-9.65893e-10
-3.43266e-08
-9.92732e-10
-3.38159e-08
-1.0179e-09
-3.32934e-08
-1.04141e-09
-3.27597e-08
-1.06327e-09
-3.22158e-08
-1.0835e-09
-3.16623e-08
-1.1021e-09
-3.11001e-08
-1.1191e-09
-3.053e-08
-1.13452e-09
-2.99528e-08
-1.14838e-09
-2.93691e-08
-1.1607e-09
-2.87799e-08
-1.1715e-09
-2.81857e-08
-1.18082e-09
-2.75873e-08
-1.18869e-09
-2.69855e-08
-1.19513e-09
-2.63809e-08
-1.20017e-09
-2.57742e-08
-1.20385e-09
-2.51661e-08
-1.20621e-09
-2.45572e-08
-1.20727e-09
-2.39481e-08
-1.20707e-09
-2.33395e-08
-1.20566e-09
-2.27319e-08
-1.20307e-09
-2.21259e-08
-1.19933e-09
-2.1522e-08
-1.19448e-09
-2.09209e-08
-1.18857e-09
-2.03229e-08
-1.18163e-09
-1.97287e-08
-1.1737e-09
-1.91387e-08
-1.16482e-09
-1.85533e-08
-1.15503e-09
-1.79731e-08
-1.14436e-09
-1.73983e-08
-1.13285e-09
-1.68295e-08
-1.12054e-09
-1.6267e-08
-1.10746e-09
-1.57112e-08
-1.09366e-09
-1.51624e-08
-1.07915e-09
-1.4621e-08
-1.06399e-09
-1.40874e-08
-1.04819e-09
-1.35618e-08
-1.0318e-09
-1.30445e-08
-1.01483e-09
-1.25358e-08
-9.97327e-10
-1.2036e-08
-9.79309e-10
-1.15453e-08
-9.60806e-10
-1.1064e-08
-9.41843e-10
-1.05922e-08
-9.22443e-10
-1.01303e-08
-9.02631e-10
-9.67849e-09
-8.82427e-10
-9.23686e-09
-8.61854e-10
-8.80565e-09
-8.40931e-10
-8.38504e-09
-8.19677e-10
-7.9752e-09
-7.9811e-10
-7.5763e-09
-7.76249e-10
-7.18849e-09
-7.54109e-10
-6.81191e-09
-7.31707e-10
-6.44669e-09
-7.09061e-10
-6.09298e-09
-6.86185e-10
-5.75089e-09
-6.63095e-10
-5.42054e-09
-6.39808e-10
-5.10202e-09
-6.16341e-10
-4.79545e-09
-5.92709e-10
-4.50089e-09
-5.68932e-10
-4.21843e-09
-5.45027e-10
-3.94815e-09
-5.21014e-10
-3.69008e-09
-4.96915e-10
-3.44429e-09
-4.72752e-10
-3.21081e-09
-4.4855e-10
-2.98964e-09
-4.24334e-10
-2.7808e-09
-4.00134e-10
-2.58428e-09
-3.7598e-10
-2.40005e-09
-3.51906e-10
-2.22807e-09
-3.27948e-10
-2.06826e-09
-3.04145e-10
-1.92054e-09
-2.80539e-10
-1.78481e-09
-2.57175e-10
-1.66091e-09
-2.34101e-10
-1.54871e-09
-2.11371e-10
-1.448e-09
-1.89039e-10
-1.35856e-09
-1.67164e-10
-1.28016e-09
-1.4581e-10
-1.21249e-09
-1.25041e-10
-1.15525e-09
-1.04929e-10
-1.10807e-09
-8.55468e-11
-1.07056e-09
-6.69714e-11
-1.04229e-09
-4.92835e-11
-1.02278e-09
-3.25673e-11
-1.01149e-09
-1.69101e-11
-1.00787e-09
-2.4022e-12
-1.0113e-09
1.08642e-11
-1.02112e-09
2.27929e-11
-1.03661e-09
3.32839e-11
-1.05701e-09
4.22357e-11
-1.0815e-09
4.95446e-11
-1.10921e-09
5.51051e-11
-1.13923e-09
5.88102e-11
-1.17058e-09
6.0552e-11
-1.20223e-09
6.02216e-11
-1.23311e-09
5.77104e-11
-1.26208e-09
5.29109e-11
-1.28797e-09
4.57173e-11
-1.30955e-09
3.60282e-11
-1.32556e-09
2.37484e-11
-1.3347e-09
8.79357e-12
-1.33564e-09
-8.90238e-12
-1.32704e-09
-2.93814e-11
-1.30758e-09
-5.2653e-11
-1.27597e-09
-7.86728e-11
-1.23101e-09
-1.07313e-10
-1.1716e-09
-1.38319e-10
-1.09688e-09
-1.71244e-10
-1.00635e-09
-2.05339e-10
-8.99998e-10
-2.39391e-10
-7.78577e-10
-2.71457e-10
-6.43955e-10
-2.98459e-10
-4.99566e-10
-3.15552e-10
-3.5099e-10
-3.15231e-10
-2.06693e-10
-2.86181e-10
-7.92478e-11
-2.12186e-10
5.8416e-12
-7.34521e-11
1.07031e-10
9.56943e-10
-1.89905e-13
-2.91241e-09
1.31233e-09
4.19511e-14
-2.21725e-09
1.33856e-09
4.68382e-14
-1.36462e-09
1.16375e-09
2.92372e-14
-5.1548e-10
8.29082e-10
2.69037e-14
2.71206e-10
3.53096e-10
2.40338e-14
9.6438e-10
-2.50956e-10
1.86718e-14
1.55564e-09
-9.69629e-10
1.29084e-14
2.04915e-09
-1.78867e-09
7.97513e-15
2.45463e-09
-2.69379e-09
4.28076e-15
2.78358e-09
-3.67138e-09
1.80034e-15
3.04716e-09
-4.709e-09
2.6248e-16
3.25543e-09
-5.79536e-09
-6.37169e-16
3.41723e-09
-6.92013e-09
-1.1152e-15
3.54023e-09
-8.07422e-09
-1.31299e-15
3.63067e-09
-9.2497e-09
-1.33877e-15
3.6937e-09
-1.04396e-08
-1.27189e-15
3.73356e-09
-1.16379e-08
-1.15514e-15
3.75371e-09
-1.28393e-08
-1.00032e-15
3.75704e-09
-1.40392e-08
-8.09501e-16
3.74594e-09
-1.52334e-08
-5.9292e-16
3.7224e-09
-1.64186e-08
-3.71827e-16
3.68809e-09
-1.75915e-08
-1.70506e-16
3.64441e-09
-1.87493e-08
-6.79417e-18
3.59256e-09
-1.98897e-08
1.11856e-16
3.53356e-09
-2.10104e-08
1.88236e-16
3.46826e-09
-2.21095e-08
2.31955e-16
3.39742e-09
-2.31853e-08
2.54341e-16
3.32169e-09
-2.42363e-08
2.63976e-16
3.24162e-09
-2.52612e-08
2.65898e-16
3.15773e-09
-2.62586e-08
2.61099e-16
3.07045e-09
-2.72275e-08
2.4783e-16
2.98016e-09
-2.81671e-08
2.22377e-16
2.88723e-09
-2.90763e-08
1.82558e-16
2.79196e-09
-2.99545e-08
1.31165e-16
2.69464e-09
-3.08009e-08
7.66287e-17
2.59554e-09
-3.16151e-08
3.00203e-17
2.4949e-09
-3.23965e-08
1.09804e-18
2.39292e-09
-3.31446e-08
-3.79553e-18
2.28984e-09
-3.38592e-08
1.72098e-17
2.18582e-09
-3.45398e-08
6.1119e-17
2.08107e-09
-3.51864e-08
1.18079e-16
1.97574e-09
-3.57985e-08
1.7218e-16
1.86999e-09
-3.63763e-08
2.06833e-16
1.76399e-09
-3.69195e-08
2.13229e-16
1.65788e-09
-3.74281e-08
1.95271e-16
1.55179e-09
-3.79022e-08
1.69371e-16
1.44587e-09
-3.83417e-08
1.56062e-16
1.34023e-09
-3.87469e-08
1.69655e-16
1.23502e-09
-3.91178e-08
2.11572e-16
1.13034e-09
-3.94546e-08
2.69793e-16
1.02631e-09
-3.97576e-08
3.25087e-16
9.2305e-10
-4.00269e-08
3.59089e-16
8.20663e-10
-4.0263e-08
3.61189e-16
7.19256e-10
-4.04661e-08
3.31062e-16
6.1893e-10
-4.06366e-08
2.77285e-16
5.19782e-10
-4.07749e-08
2.13194e-16
4.21909e-10
-4.08814e-08
1.52411e-16
3.254e-10
-4.09566e-08
1.05058e-16
2.30345e-10
-4.10009e-08
7.62174e-17
1.36826e-10
-4.10149e-08
6.59035e-17
4.49243e-11
-4.09991e-08
7.05923e-17
-4.52837e-11
-4.09541e-08
8.45375e-17
-1.33724e-10
-4.08805e-08
1.02291e-16
-2.20326e-10
-4.07788e-08
1.19231e-16
-3.05022e-10
-4.06498e-08
1.32648e-16
-3.87749e-10
-4.0494e-08
1.41253e-16
-4.68445e-10
-4.03122e-08
1.45292e-16
-5.47053e-10
-4.01051e-08
1.45535e-16
-6.23517e-10
-3.98733e-08
1.43204e-16
-6.97787e-10
-3.96176e-08
1.39531e-16
-7.69815e-10
-3.93387e-08
1.3556e-16
-8.39559e-10
-3.90375e-08
1.32199e-16
-9.06981e-10
-3.87146e-08
1.29732e-16
-9.72044e-10
-3.83708e-08
1.28363e-16
-1.03472e-09
-3.8007e-08
1.27875e-16
-1.09498e-09
-3.76239e-08
1.2801e-16
-1.1528e-09
-3.72223e-08
1.28281e-16
-1.20816e-09
-3.6803e-08
1.28348e-16
-1.26105e-09
-3.63669e-08
1.28185e-16
-1.31146e-09
-3.59147e-08
1.27453e-16
-1.35938e-09
-3.54473e-08
1.26179e-16
-1.40481e-09
-3.49654e-08
1.24309e-16
-1.44774e-09
-3.447e-08
1.21856e-16
-1.48819e-09
-3.39617e-08
1.18535e-16
-1.52616e-09
-3.34415e-08
1.14537e-16
-1.56166e-09
-3.29101e-08
1.09563e-16
-1.5947e-09
-3.23683e-08
1.03708e-16
-1.62532e-09
-3.18169e-08
9.71622e-17
-1.65353e-09
-3.12566e-08
9.00334e-17
-1.67935e-09
-3.06883e-08
8.262e-17
-1.70281e-09
-3.01128e-08
7.54506e-17
-1.72395e-09
-2.95307e-08
6.86607e-17
-1.7428e-09
-2.89428e-08
6.26161e-17
-1.7594e-09
-2.83499e-08
5.76693e-17
-1.77378e-09
-2.77526e-08
5.37796e-17
-1.78599e-09
-2.71516e-08
5.12452e-17
-1.79608e-09
-2.65477e-08
4.97272e-17
-1.80409e-09
-2.59415e-08
4.9185e-17
-1.81006e-09
-2.53337e-08
4.92391e-17
-1.81405e-09
-2.47249e-08
4.9754e-17
-1.81611e-09
-2.41156e-08
5.03366e-17
-1.81629e-09
-2.35067e-08
5.06889e-17
-1.81465e-09
-2.28985e-08
5.08514e-17
-1.81124e-09
-2.22917e-08
5.0648e-17
-1.80611e-09
-2.16869e-08
5.01193e-17
-1.79933e-09
-2.10845e-08
4.94145e-17
-1.79094e-09
-2.04852e-08
4.86283e-17
-1.78101e-09
-1.98893e-08
4.79912e-17
-1.76959e-09
-1.92974e-08
4.7476e-17
-1.75674e-09
-1.87099e-08
4.73268e-17
-1.74251e-09
-1.81273e-08
4.74486e-17
-1.72696e-09