/*--------------------------------*- C++ -*----------------------------------*\
  =========                 |
  \\      /  F ield         | OpenFOAM: The Open Source CFD Toolbox
   \\    /   O peration     | Website:  https://openfoam.org
    \\  /    A nd           | Version:  8
     \\/     M anipulation  |
\*---------------------------------------------------------------------------*/
FoamFile
{
    version     2.0;
    format      ascii;
    class       volScalarField;
    location    "4400";
    object      T;
}
// * * * * * * * * * * * * * * * * * * * * * * * * * * * * * * * * * * * * * //

dimensions      [0 0 0 1 0 0 0];

internalField   nonuniform List<scalar> 
46000
(
309.7
308.516
307.722
307.215
306.851
306.563
306.322
306.116
305.934
305.77
305.621
305.484
305.358
305.241
305.131
305.028
304.931
304.84
304.753
304.671
304.593
304.519
304.448
304.381
304.317
304.256
304.198
304.143
304.09
304.039
303.991
303.945
303.901
303.859
303.82
303.781
303.745
303.711
303.678
303.646
303.616
303.588
303.561
303.536
303.511
303.489
303.467
303.446
303.427
303.409
303.392
303.376
303.362
303.348
303.335
303.324
303.313
303.303
303.294
303.286
303.279
303.273
303.268
303.263
303.259
303.256
303.254
303.253
303.252
303.253
303.254
303.256
303.258
303.262
303.266
303.271
303.276
303.283
303.29
303.297
303.306
303.315
303.325
303.335
303.346
303.358
303.371
303.384
303.398
303.412
303.427
303.443
303.459
303.476
303.493
303.512
303.53
303.55
303.569
303.59
303.611
303.633
303.655
303.677
303.701
303.724
303.749
303.774
303.799
303.825
303.851
303.878
303.906
303.933
303.962
303.991
304.02
304.05
304.08
304.111
304.143
304.175
304.207
304.24
304.273
304.307
304.341
304.376
304.411
304.447
304.483
304.519
304.557
304.594
304.633
304.671
304.711
304.75
304.791
304.832
304.873
304.915
304.957
305
305.044
305.088
305.133
305.179
305.225
305.271
305.318
305.366
305.415
305.464
305.514
305.564
305.616
305.668
305.72
305.773
305.828
305.882
305.938
305.994
306.051
306.109
306.168
306.228
306.289
306.35
306.413
306.476
306.541
306.607
306.675
306.744
306.814
306.887
306.961
307.037
307.116
307.198
307.282
307.37
307.462
307.558
307.66
307.768
307.884
308.009
308.145
308.295
308.464
308.657
308.884
309.159
309.511
309.985
310.634
311.286
309.698
308.516
307.722
307.215
306.85
306.563
306.322
306.116
305.934
305.77
305.621
305.484
305.358
305.241
305.131
305.028
304.931
304.84
304.753
304.671
304.593
304.519
304.448
304.381
304.317
304.256
304.198
304.143
304.09
304.039
303.991
303.945
303.901
303.859
303.82
303.781
303.745
303.711
303.678
303.646
303.616
303.588
303.561
303.536
303.511
303.489
303.467
303.446
303.427
303.409
303.392
303.376
303.362
303.348
303.335
303.324
303.313
303.303
303.294
303.286
303.279
303.273
303.268
303.263
303.259
303.256
303.254
303.253
303.252
303.253
303.254
303.256
303.258
303.262
303.266
303.271
303.276
303.283
303.29
303.297
303.306
303.315
303.325
303.335
303.346
303.358
303.371
303.384
303.398
303.412
303.427
303.443
303.459
303.476
303.493
303.512
303.53
303.55
303.569
303.59
303.611
303.633
303.655
303.677
303.701
303.724
303.749
303.774
303.799
303.825
303.851
303.878
303.906
303.933
303.962
303.991
304.02
304.05
304.08
304.111
304.143
304.175
304.207
304.24
304.273
304.307
304.341
304.376
304.411
304.447
304.483
304.519
304.557
304.594
304.633
304.671
304.711
304.75
304.791
304.832
304.873
304.915
304.957
305
305.044
305.088
305.133
305.179
305.225
305.271
305.318
305.366
305.415
305.464
305.514
305.564
305.616
305.668
305.72
305.773
305.828
305.882
305.938
305.994
306.051
306.109
306.168
306.228
306.289
306.35
306.413
306.476
306.541
306.607
306.675
306.744
306.814
306.887
306.961
307.037
307.116
307.198
307.282
307.37
307.462
307.558
307.66
307.768
307.884
308.009
308.145
308.295
308.464
308.657
308.884
309.159
309.511
309.985
310.634
311.286
306.268
305.885
305.562
305.306
305.098
304.923
304.772
304.638
304.517
304.407
304.305
304.211
304.122
304.039
303.961
303.887
303.817
303.75
303.686
303.626
303.568
303.513
303.46
303.409
303.361
303.315
303.271
303.228
303.188
303.149
303.111
303.076
303.041
303.009
302.977
302.947
302.918
302.89
302.864
302.839
302.814
302.791
302.769
302.748
302.728
302.709
302.69
302.673
302.656
302.64
302.625
302.611
302.597
302.585
302.573
302.561
302.551
302.541
302.531
302.523
302.515
302.507
302.5
302.494
302.488
302.483
302.479
302.475
302.471
302.468
302.466
302.464
302.463
302.463
302.462
302.463
302.464
302.465
302.467
302.469
302.472
302.476
302.479
302.484
302.489
302.494
302.5
302.506
302.513
302.52
302.528
302.536
302.544
302.553
302.563
302.573
302.583
302.594
302.606
302.617
302.63
302.642
302.655
302.669
302.683
302.697
302.712
302.728
302.743
302.76
302.776
302.793
302.811
302.829
302.847
302.866
302.885
302.905
302.925
302.946
302.967
302.989
303.011
303.033
303.056
303.08
303.104
303.128
303.153
303.178
303.204
303.23
303.257
303.285
303.312
303.341
303.37
303.399
303.429
303.459
303.49
303.522
303.554
303.586
303.62
303.653
303.688
303.722
303.758
303.794
303.83
303.867
303.905
303.943
303.982
304.021
304.061
304.101
304.142
304.184
304.226
304.269
304.312
304.356
304.401
304.446
304.492
304.538
304.585
304.633
304.682
304.731
304.781
304.832
304.883
304.936
304.99
305.045
305.101
305.159
305.219
305.28
305.344
305.41
305.479
305.551
305.627
305.709
305.796
305.89
305.993
306.107
306.236
306.384
306.558
306.769
307.033
307.377
307.84
308.415
306.268
305.884
305.562
305.306
305.098
304.923
304.772
304.638
304.517
304.407
304.305
304.211
304.122
304.039
303.961
303.887
303.817
303.75
303.686
303.626
303.568
303.513
303.46
303.409
303.361
303.315
303.271
303.228
303.188
303.149
303.111
303.076
303.041
303.009
302.977
302.947
302.918
302.89
302.864
302.839
302.814
302.791
302.769
302.748
302.728
302.709
302.69
302.673
302.656
302.64
302.625
302.611
302.597
302.585
302.573
302.561
302.551
302.541
302.531
302.523
302.515
302.507
302.5
302.494
302.488
302.483
302.479
302.475
302.471
302.468
302.466
302.464
302.463
302.463
302.462
302.463
302.464
302.465
302.467
302.469
302.472
302.476
302.479
302.484
302.489
302.494
302.5
302.506
302.513
302.52
302.528
302.536
302.544
302.553
302.563
302.573
302.583
302.594
302.606
302.617
302.63
302.642
302.655
302.669
302.683
302.697
302.712
302.728
302.743
302.76
302.776
302.793
302.811
302.829
302.847
302.866
302.885
302.905
302.925
302.946
302.967
302.989
303.011
303.033
303.056
303.08
303.104
303.128
303.153
303.178
303.204
303.23
303.257
303.285
303.312
303.341
303.37
303.399
303.429
303.459
303.49
303.522
303.554
303.586
303.62
303.653
303.688
303.722
303.758
303.794
303.83
303.867
303.905
303.943
303.982
304.021
304.061
304.101
304.142
304.184
304.226
304.269
304.312
304.356
304.401
304.446
304.492
304.538
304.585
304.633
304.682
304.731
304.781
304.832
304.883
304.936
304.99
305.045
305.101
305.159
305.219
305.28
305.344
305.41
305.479
305.551
305.627
305.709
305.796
305.89
305.993
306.107
306.236
306.384
306.558
306.769
307.033
307.377
307.84
308.415
304.801
304.724
304.588
304.446
304.312
304.189
304.076
303.973
303.877
303.788
303.704
303.626
303.552
303.481
303.415
303.351
303.29
303.233
303.177
303.124
303.074
303.025
302.979
302.934
302.891
302.85
302.811
302.773
302.737
302.702
302.668
302.636
302.605
302.576
302.547
302.52
302.493
302.468
302.444
302.421
302.399
302.377
302.357
302.337
302.318
302.3
302.283
302.266
302.251
302.235
302.221
302.207
302.194
302.182
302.17
302.159
302.148
302.138
302.128
302.119
302.111
302.103
302.096
302.089
302.082
302.077
302.071
302.066
302.062
302.058
302.054
302.051
302.049
302.047
302.045
302.044
302.043
302.043
302.043
302.043
302.044
302.046
302.048
302.05
302.053
302.056
302.06
302.064
302.068
302.073
302.078
302.084
302.09
302.096
302.103
302.111
302.119
302.127
302.135
302.144
302.154
302.164
302.174
302.185
302.196
302.207
302.219
302.232
302.245
302.258
302.271
302.286
302.3
302.315
302.331
302.346
302.363
302.379
302.397
302.414
302.432
302.451
302.47
302.489
302.509
302.53
302.551
302.572
302.594
302.616
302.639
302.663
302.686
302.711
302.736
302.761
302.787
302.813
302.84
302.868
302.896
302.924
302.953
302.983
303.013
303.044
303.075
303.107
303.139
303.172
303.206
303.24
303.274
303.309
303.345
303.381
303.418
303.455
303.493
303.531
303.57
303.609
303.649
303.689
303.73
303.772
303.814
303.856
303.899
303.943
303.987
304.032
304.077
304.123
304.17
304.218
304.266
304.316
304.367
304.418
304.471
304.526
304.582
304.641
304.701
304.765
304.831
304.901
304.976
305.057
305.144
305.239
305.345
305.464
305.6
305.756
305.94
306.154
306.406
306.674
304.801
304.724
304.588
304.446
304.312
304.189
304.076
303.973
303.877
303.788
303.704
303.626
303.552
303.481
303.415
303.351
303.29
303.233
303.177
303.124
303.074
303.025
302.979
302.934
302.891
302.85
302.811
302.773
302.737
302.702
302.668
302.636
302.605
302.576
302.547
302.52
302.493
302.468
302.444
302.421
302.399
302.377
302.357
302.337
302.318
302.3
302.283
302.266
302.251
302.235
302.221
302.207
302.194
302.182
302.17
302.159
302.148
302.138
302.128
302.119
302.111
302.103
302.096
302.089
302.082
302.077
302.071
302.066
302.062
302.058
302.054
302.051
302.049
302.047
302.045
302.044
302.043
302.043
302.043
302.043
302.044
302.046
302.048
302.05
302.053
302.056
302.06
302.064
302.068
302.073
302.078
302.084
302.09
302.096
302.103
302.111
302.119
302.127
302.135
302.144
302.154
302.164
302.174
302.185
302.196
302.207
302.219
302.232
302.245
302.258
302.271
302.286
302.3
302.315
302.331
302.346
302.363
302.379
302.397
302.414
302.432
302.451
302.47
302.489
302.509
302.53
302.551
302.572
302.594
302.616
302.639
302.663
302.686
302.711
302.736
302.761
302.787
302.813
302.84
302.868
302.896
302.924
302.953
302.983
303.013
303.044
303.075
303.107
303.139
303.172
303.206
303.24
303.274
303.309
303.345
303.381
303.418
303.455
303.493
303.531
303.57
303.609
303.649
303.689
303.73
303.772
303.814
303.856
303.899
303.943
303.987
304.032
304.077
304.123
304.17
304.218
304.267
304.316
304.367
304.418
304.471
304.526
304.582
304.641
304.701
304.765
304.831
304.901
304.976
305.057
305.144
305.239
305.345
305.464
305.6
305.756
305.94
306.154
306.405
306.674
304.037
304.032
303.973
303.891
303.802
303.713
303.626
303.544
303.465
303.39
303.318
303.25
303.185
303.123
303.063
303.006
302.952
302.899
302.849
302.801
302.755
302.71
302.667
302.626
302.587
302.548
302.512
302.477
302.443
302.41
302.379
302.349
302.32
302.292
302.265
302.239
302.214
302.19
302.167
302.145
302.124
302.103
302.084
302.065
302.047
302.029
302.013
301.997
301.981
301.967
301.953
301.939
301.926
301.914
301.902
301.891
301.88
301.87
301.861
301.851
301.843
301.835
301.827
301.82
301.813
301.807
301.801
301.795
301.79
301.786
301.782
301.778
301.775
301.772
301.77
301.768
301.766
301.765
301.764
301.764
301.764
301.764
301.765
301.767
301.768
301.77
301.773
301.776
301.779
301.783
301.787
301.791
301.796
301.801
301.807
301.813
301.82
301.827
301.834
301.841
301.85
301.858
301.867
301.876
301.886
301.896
301.907
301.918
301.929
301.941
301.953
301.966
301.979
301.992
302.006
302.021
302.036
302.051
302.067
302.083
302.099
302.117
302.134
302.152
302.171
302.19
302.209
302.229
302.249
302.27
302.292
302.314
302.336
302.359
302.382
302.406
302.431
302.456
302.481
302.507
302.534
302.561
302.589
302.617
302.645
302.675
302.704
302.735
302.766
302.797
302.829
302.861
302.894
302.928
302.962
302.996
303.031
303.067
303.103
303.139
303.176
303.214
303.252
303.29
303.329
303.369
303.409
303.449
303.49
303.531
303.573
303.616
303.659
303.702
303.746
303.791
303.837
303.883
303.93
303.978
304.028
304.078
304.13
304.184
304.239
304.297
304.357
304.42
304.486
304.557
304.633
304.714
304.802
304.899
305.005
305.121
305.247
305.38
305.512
305.625
304.037
304.032
303.973
303.891
303.802
303.713
303.626
303.544
303.465
303.39
303.318
303.25
303.185
303.123
303.063
303.006
302.952
302.899
302.849
302.801
302.755
302.71
302.667
302.626
302.587
302.548
302.512
302.477
302.443
302.41
302.379
302.349
302.32
302.292
302.265
302.239
302.214
302.19
302.167
302.145
302.124
302.103
302.084
302.065
302.047
302.029
302.013
301.997
301.981
301.967
301.953
301.939
301.926
301.914
301.902
301.891
301.88
301.87
301.861
301.851
301.843
301.835
301.827
301.82
301.813
301.807
301.801
301.795
301.79
301.786
301.782
301.778
301.775
301.772
301.77
301.768
301.766
301.765
301.764
301.764
301.764
301.764
301.765
301.767
301.768
301.77
301.773
301.776
301.779
301.783
301.787
301.791
301.796
301.801
301.807
301.813
301.82
301.827
301.834
301.842
301.85
301.858
301.867
301.876
301.886
301.896
301.907
301.918
301.929
301.941
301.953
301.966
301.979
301.992
302.006
302.021
302.036
302.051
302.067
302.083
302.099
302.117
302.134
302.152
302.171
302.19
302.209
302.229
302.249
302.27
302.292
302.314
302.336
302.359
302.382
302.406
302.431
302.456
302.481
302.507
302.534
302.561
302.589
302.617
302.645
302.675
302.704
302.735
302.766
302.797
302.829
302.861
302.894
302.928
302.962
302.996
303.031
303.067
303.103
303.139
303.176
303.214
303.252
303.29
303.329
303.369
303.409
303.449
303.49
303.531
303.573
303.616
303.659
303.702
303.746
303.791
303.837
303.883
303.93
303.978
304.028
304.078
304.13
304.184
304.239
304.297
304.357
304.42
304.486
304.557
304.633
304.714
304.802
304.899
305.005
305.121
305.247
305.38
305.512
305.625
303.549
303.558
303.53
303.48
303.419
303.353
303.286
303.219
303.153
303.089
303.027
302.967
302.909
302.853
302.8
302.748
302.698
302.65
302.603
302.559
302.516
302.474
302.434
302.396
302.358
302.323
302.288
302.255
302.223
302.192
302.162
302.133
302.105
302.079
302.053
302.028
302.004
301.981
301.959
301.938
301.917
301.897
301.878
301.86
301.842
301.826
301.809
301.794
301.779
301.764
301.75
301.737
301.724
301.712
301.7
301.689
301.679
301.668
301.659
301.65
301.641
301.632
301.625
301.617
301.61
301.604
301.598
301.592
301.587
301.582
301.577
301.573
301.569
301.566
301.563
301.561
301.559
301.557
301.556
301.555
301.554
301.554
301.554
301.555
301.556
301.558
301.559
301.561
301.564
301.567
301.57
301.574
301.578
301.583
301.588
301.593
301.598
301.605
301.611
301.618
301.625
301.633
301.641
301.649
301.658
301.667
301.677
301.687
301.698
301.709
301.72
301.732
301.744
301.756
301.769
301.783
301.797
301.811
301.826
301.841
301.857
301.873
301.89
301.907
301.925
301.943
301.961
301.98
302
302.02
302.04
302.061
302.083
302.105
302.127
302.15
302.174
302.198
302.222
302.247
302.273
302.299
302.326
302.353
302.381
302.409
302.438
302.467
302.497
302.527
302.558
302.589
302.621
302.654
302.687
302.72
302.754
302.788
302.823
302.858
302.894
302.931
302.967
303.004
303.042
303.08
303.118
303.157
303.197
303.236
303.277
303.317
303.358
303.4
303.442
303.485
303.528
303.572
303.616
303.662
303.708
303.755
303.804
303.853
303.904
303.957
304.012
304.069
304.128
304.191
304.257
304.326
304.4
304.478
304.56
304.646
304.733
304.816
304.888
304.937
303.549
303.558
303.53
303.48
303.419
303.353
303.286
303.219
303.153
303.089
303.027
302.967
302.909
302.853
302.8
302.748
302.698
302.65
302.603
302.559
302.516
302.474
302.434
302.396
302.358
302.323
302.288
302.255
302.223
302.192
302.162
302.133
302.105
302.079
302.053
302.028
302.004
301.981
301.959
301.938
301.917
301.897
301.878
301.86
301.842
301.826
301.809
301.794
301.779
301.764
301.75
301.737
301.724
301.712
301.7
301.689
301.679
301.668
301.659
301.65
301.641
301.632
301.625
301.617
301.61
301.604
301.598
301.592
301.587
301.582
301.577
301.573
301.569
301.566
301.563
301.561
301.559
301.557
301.556
301.555
301.554
301.554
301.554
301.555
301.556
301.558
301.559
301.561
301.564
301.567
301.57
301.574
301.578
301.583
301.588
301.593
301.598
301.605
301.611
301.618
301.625
301.633
301.641
301.649
301.658
301.667
301.677
301.687
301.698
301.709
301.72
301.732
301.744
301.756
301.769
301.783
301.797
301.811
301.826
301.841
301.857
301.873
301.89
301.907
301.925
301.943
301.961
301.98
302
302.02
302.04
302.061
302.083
302.105
302.127
302.15
302.174
302.198
302.222
302.247
302.273
302.299
302.326
302.353
302.381
302.409
302.438
302.467
302.497
302.527
302.558
302.589
302.621
302.654
302.687
302.72
302.754
302.788
302.823
302.858
302.894
302.931
302.967
303.004
303.042
303.08
303.118
303.157
303.197
303.236
303.277
303.317
303.358
303.4
303.442
303.485
303.528
303.572
303.616
303.662
303.708
303.755
303.804
303.853
303.904
303.957
304.012
304.069
304.128
304.191
304.257
304.326
304.4
304.478
304.56
304.646
304.733
304.816
304.888
304.937
303.193
303.203
303.188
303.155
303.111
303.061
303.008
302.953
302.898
302.843
302.789
302.736
302.684
302.634
302.585
302.537
302.491
302.447
302.404
302.362
302.322
302.283
302.245
302.209
302.173
302.139
302.107
302.075
302.044
302.015
301.986
301.958
301.932
301.906
301.881
301.857
301.834
301.812
301.79
301.77
301.75
301.731
301.712
301.694
301.677
301.66
301.644
301.629
301.614
301.6
301.586
301.573
301.561
301.548
301.537
301.526
301.515
301.505
301.495
301.486
301.477
301.469
301.461
301.453
301.446
301.439
301.433
301.427
301.421
301.416
301.412
301.407
301.403
301.4
301.396
301.394
301.391
301.389
301.387
301.386
301.385
301.385
301.384
301.385
301.385
301.386
301.387
301.389
301.391
301.394
301.396
301.4
301.403
301.407
301.411
301.416
301.421
301.427
301.433
301.439
301.445
301.453
301.46
301.468
301.476
301.485
301.494
301.503
301.513
301.523
301.534
301.545
301.557
301.569
301.581
301.594
301.607
301.621
301.635
301.65
301.665
301.68
301.696
301.713
301.729
301.747
301.765
301.783
301.802
301.821
301.841
301.861
301.882
301.903
301.925
301.948
301.97
301.994
302.018
302.042
302.067
302.092
302.118
302.145
302.172
302.199
302.227
302.256
302.285
302.314
302.344
302.375
302.406
302.438
302.47
302.502
302.535
302.569
302.602
302.637
302.672
302.707
302.742
302.779
302.815
302.852
302.889
302.927
302.965
303.003
303.042
303.081
303.121
303.16
303.201
303.242
303.283
303.325
303.367
303.41
303.454
303.498
303.544
303.59
303.637
303.686
303.736
303.787
303.841
303.896
303.953
304.012
304.074
304.137
304.201
304.265
304.325
304.379
304.419
304.441
303.193
303.203
303.188
303.155
303.111
303.061
303.008
302.953
302.898
302.843
302.789
302.736
302.684
302.634
302.585
302.537
302.491
302.447
302.404
302.362
302.322
302.283
302.245
302.209
302.173
302.139
302.106
302.075
302.044
302.015
301.986
301.958
301.932
301.906
301.881
301.857
301.834
301.812
301.79
301.77
301.75
301.731
301.712
301.694
301.677
301.66
301.644
301.629
301.614
301.6
301.586
301.573
301.561
301.548
301.537
301.526
301.515
301.505
301.495
301.486
301.477
301.469
301.461
301.453
301.446
301.439
301.433
301.427
301.421
301.416
301.412
301.407
301.403
301.4
301.396
301.394
301.391
301.389
301.387
301.386
301.385
301.385
301.384
301.385
301.385
301.386
301.387
301.389
301.391
301.394
301.396
301.4
301.403
301.407
301.411
301.416
301.421
301.427
301.433
301.439
301.445
301.453
301.46
301.468
301.476
301.485
301.494
301.503
301.513
301.523
301.534
301.545
301.557
301.569
301.581
301.594
301.607
301.621
301.635
301.65
301.665
301.68
301.696
301.713
301.729
301.747
301.765
301.783
301.802
301.821
301.841
301.861
301.882
301.903
301.925
301.948
301.97
301.994
302.018
302.042
302.067
302.092
302.118
302.145
302.172
302.199
302.227
302.256
302.285
302.314
302.344
302.375
302.406
302.438
302.47
302.502
302.535
302.569
302.602
302.637
302.672
302.707
302.742
302.779
302.815
302.852
302.889
302.927
302.965
303.003
303.042
303.081
303.121
303.16
303.201
303.242
303.283
303.325
303.367
303.41
303.454
303.498
303.544
303.59
303.637
303.686
303.736
303.787
303.841
303.896
303.953
304.012
304.074
304.137
304.201
304.265
304.325
304.379
304.419
304.441
302.913
302.921
302.91
302.887
302.854
302.815
302.772
302.727
302.68
302.632
302.585
302.537
302.491
302.445
302.401
302.357
302.315
302.273
302.233
302.194
302.156
302.119
302.084
302.049
302.016
301.983
301.952
301.922
301.892
301.864
301.836
301.81
301.784
301.759
301.735
301.712
301.69
301.668
301.647
301.627
301.607
301.589
301.571
301.553
301.536
301.52
301.504
301.489
301.474
301.46
301.447
301.434
301.421
301.409
301.398
301.387
301.376
301.366
301.356
301.347
301.338
301.33
301.321
301.314
301.307
301.3
301.293
301.287
301.281
301.276
301.271
301.266
301.262
301.258
301.255
301.252
301.249
301.247
301.245
301.243
301.242
301.241
301.241
301.24
301.241
301.241
301.242
301.243
301.245
301.247
301.249
301.252
301.255
301.259
301.263
301.267
301.272
301.277
301.282
301.288
301.294
301.301
301.308
301.315
301.323
301.331
301.34
301.349
301.358
301.368
301.378
301.388
301.4
301.411
301.423
301.435
301.448
301.461
301.475
301.489
301.503
301.518
301.534
301.55
301.566
301.583
301.6
301.618
301.636
301.655
301.674
301.694
301.714
301.735
301.756
301.778
301.8
301.823
301.847
301.87
301.895
301.92
301.945
301.971
301.997
302.024
302.051
302.079
302.108
302.137
302.166
302.196
302.226
302.257
302.288
302.32
302.352
302.385
302.418
302.452
302.486
302.52
302.555
302.59
302.625
302.661
302.697
302.734
302.77
302.808
302.845
302.883
302.921
302.96
302.998
303.038
303.077
303.117
303.158
303.198
303.24
303.282
303.324
303.367
303.411
303.456
303.501
303.548
303.596
303.644
303.694
303.745
303.796
303.847
303.897
303.945
303.988
304.024
304.047
304.057
302.913
302.921
302.91
302.887
302.854
302.815
302.772
302.727
302.68
302.632
302.585
302.537
302.491
302.445
302.401
302.357
302.315
302.273
302.233
302.194
302.156
302.119
302.084
302.049
302.016
301.983
301.952
301.922
301.892
301.864
301.836
301.81
301.784
301.759
301.735
301.712
301.69
301.668
301.647
301.627
301.607
301.589
301.571
301.553
301.536
301.52
301.504
301.489
301.474
301.46
301.447
301.434
301.421
301.409
301.398
301.387
301.376
301.366
301.356
301.347
301.338
301.33
301.321
301.314
301.307
301.3
301.293
301.287
301.281
301.276
301.271
301.266
301.262
301.258
301.255
301.252
301.249
301.247
301.245
301.243
301.242
301.241
301.241
301.24
301.241
301.241
301.242
301.243
301.245
301.247
301.249
301.252
301.255
301.259
301.263
301.267
301.272
301.277
301.282
301.288
301.294
301.301
301.308
301.315
301.323
301.331
301.34
301.349
301.358
301.368
301.378
301.388
301.4
301.411
301.423
301.435
301.448
301.461
301.475
301.489
301.503
301.518
301.534
301.55
301.566
301.583
301.6
301.618
301.636
301.655
301.674
301.694
301.714
301.735
301.756
301.778
301.8
301.823
301.847
301.87
301.895
301.92
301.945
301.971
301.997
302.024
302.051
302.079
302.108
302.137
302.166
302.196
302.226
302.257
302.288
302.32
302.352
302.385
302.418
302.452
302.486
302.52
302.555
302.59
302.625
302.661
302.697
302.734
302.77
302.808
302.845
302.883
302.921
302.96
302.998
303.038
303.077
303.117
303.158
303.198
303.24
303.282
303.324
303.367
303.411
303.456
303.501
303.548
303.596
303.644
303.694
303.745
303.796
303.847
303.897
303.945
303.988
304.024
304.047
304.057
302.681
302.686
302.677
302.659
302.634
302.602
302.567
302.528
302.488
302.447
302.405
302.362
302.321
302.279
302.238
302.198
302.159
302.12
302.082
302.046
302.01
301.975
301.942
301.909
301.877
301.846
301.816
301.787
301.758
301.731
301.705
301.679
301.654
301.63
301.607
301.584
301.563
301.542
301.521
301.501
301.482
301.464
301.446
301.429
301.413
301.397
301.381
301.366
301.352
301.338
301.325
301.312
301.299
301.287
301.276
301.265
301.254
301.244
301.234
301.225
301.216
301.207
301.199
301.192
301.184
301.177
301.171
301.164
301.159
301.153
301.148
301.143
301.139
301.135
301.131
301.128
301.125
301.122
301.12
301.118
301.117
301.116
301.115
301.114
301.114
301.114
301.115
301.116
301.117
301.119
301.121
301.124
301.126
301.13
301.133
301.137
301.141
301.146
301.151
301.157
301.162
301.169
301.175
301.182
301.189
301.197
301.205
301.214
301.223
301.232
301.242
301.252
301.263
301.274
301.285
301.297
301.31
301.322
301.336
301.349
301.363
301.378
301.393
301.408
301.424
301.441
301.458
301.475
301.493
301.511
301.53
301.549
301.569
301.589
301.61
301.631
301.653
301.675
301.698
301.722
301.745
301.77
301.795
301.82
301.846
301.872
301.899
301.926
301.954
301.982
302.011
302.04
302.07
302.1
302.131
302.162
302.194
302.226
302.258
302.291
302.324
302.357
302.391
302.426
302.46
302.495
302.53
302.566
302.602
302.638
302.674
302.711
302.747
302.785
302.822
302.86
302.898
302.936
302.974
303.013
303.052
303.092
303.132
303.172
303.213
303.254
303.296
303.338
303.38
303.424
303.467
303.51
303.553
303.595
303.634
303.671
303.702
303.726
303.74
303.743
302.681
302.686
302.677
302.659
302.634
302.602
302.567
302.528
302.488
302.447
302.405
302.362
302.321
302.279
302.238
302.198
302.159
302.12
302.082
302.046
302.01
301.975
301.942
301.909
301.877
301.846
301.816
301.787
301.758
301.731
301.705
301.679
301.654
301.63
301.607
301.584
301.563
301.542
301.521
301.501
301.482
301.464
301.446
301.429
301.413
301.397
301.381
301.366
301.352
301.338
301.325
301.312
301.299
301.287
301.276
301.265
301.254
301.244
301.234
301.225
301.216
301.207
301.199
301.192
301.184
301.177
301.171
301.164
301.159
301.153
301.148
301.143
301.139
301.135
301.131
301.128
301.125
301.122
301.12
301.118
301.117
301.116
301.115
301.114
301.114
301.114
301.115
301.116
301.117
301.119
301.121
301.124
301.126
301.13
301.133
301.137
301.141
301.146
301.151
301.157
301.162
301.169
301.175
301.182
301.189
301.197
301.205
301.214
301.223
301.232
301.242
301.252
301.263
301.274
301.285
301.297
301.31
301.322
301.336
301.349
301.363
301.378
301.393
301.408
301.424
301.441
301.458
301.475
301.493
301.511
301.53
301.549
301.569
301.589
301.61
301.631
301.653
301.675
301.698
301.722
301.745
301.77
301.795
301.82
301.846
301.872
301.899
301.926
301.954
301.982
302.011
302.04
302.07
302.1
302.131
302.162
302.194
302.226
302.258
302.291
302.324
302.357
302.391
302.426
302.46
302.495
302.53
302.566
302.602
302.638
302.674
302.711
302.747
302.785
302.822
302.86
302.898
302.936
302.974
303.013
303.052
303.092
303.132
303.172
303.213
303.254
303.296
303.338
303.38
303.424
303.467
303.51
303.553
303.595
303.634
303.671
303.702
303.726
303.74
303.743
302.482
302.484
302.477
302.462
302.441
302.415
302.384
302.351
302.316
302.28
302.243
302.205
302.167
302.129
302.091
302.054
302.018
301.982
301.946
301.912
301.878
301.845
301.813
301.782
301.751
301.722
301.693
301.665
301.638
301.612
301.586
301.561
301.537
301.514
301.491
301.469
301.448
301.428
301.408
301.389
301.37
301.352
301.335
301.318
301.301
301.286
301.27
301.256
301.242
301.228
301.215
301.202
301.19
301.178
301.166
301.155
301.145
301.135
301.125
301.115
301.106
301.098
301.09
301.082
301.075
301.067
301.061
301.054
301.048
301.043
301.038
301.033
301.028
301.024
301.02
301.017
301.014
301.011
301.008
301.006
301.004
301.003
301.002
301.001
301.001
301.001
301.001
301.002
301.003
301.005
301.006
301.009
301.011
301.014
301.017
301.021
301.025
301.029
301.034
301.039
301.044
301.05
301.057
301.063
301.07
301.078
301.085
301.094
301.102
301.111
301.121
301.131
301.141
301.152
301.163
301.174
301.186
301.199
301.211
301.225
301.238
301.253
301.267
301.282
301.298
301.314
301.33
301.347
301.365
301.383
301.401
301.42
301.439
301.459
301.48
301.5
301.522
301.544
301.566
301.589
301.612
301.636
301.661
301.685
301.711
301.737
301.763
301.79
301.817
301.845
301.873
301.902
301.931
301.961
301.991
302.021
302.052
302.083
302.115
302.147
302.18
302.212
302.246
302.279
302.313
302.347
302.381
302.416
302.45
302.486
302.521
302.556
302.592
302.628
302.664
302.7
302.737
302.773
302.81
302.847
302.884
302.921
302.959
302.996
303.034
303.072
303.11
303.149
303.187
303.225
303.263
303.3
303.336
303.37
303.402
303.43
303.453
303.47
303.479
303.478
302.482
302.484
302.477
302.462
302.441
302.415
302.384
302.351
302.316
302.28
302.243
302.205
302.167
302.129
302.091
302.054
302.018
301.982
301.946
301.912
301.878
301.845
301.813
301.782
301.751
301.722
301.693
301.665
301.638
301.612
301.586
301.561
301.537
301.514
301.491
301.469
301.448
301.428
301.408
301.389
301.37
301.352
301.335
301.318
301.301
301.286
301.27
301.256
301.242
301.228
301.215
301.202
301.19
301.178
301.166
301.155
301.145
301.135
301.125
301.115
301.106
301.098
301.09
301.082
301.075
301.067
301.061
301.054
301.048
301.043
301.038
301.033
301.028
301.024
301.02
301.017
301.014
301.011
301.008
301.006
301.004
301.003
301.002
301.001
301.001
301.001
301.001
301.002
301.003
301.005
301.006
301.009
301.011
301.014
301.017
301.021
301.025
301.029
301.034
301.039
301.044
301.05
301.057
301.063
301.07
301.078
301.085
301.094
301.102
301.111
301.121
301.131
301.141
301.152
301.163
301.174
301.186
301.199
301.211
301.225
301.238
301.253
301.267
301.282
301.298
301.314
301.33
301.347
301.365
301.383
301.401
301.42
301.439
301.459
301.48
301.5
301.522
301.544
301.566
301.589
301.612
301.636
301.661
301.685
301.711
301.737
301.763
301.79
301.817
301.845
301.873
301.902
301.931
301.961
301.991
302.021
302.052
302.083
302.115
302.147
302.18
302.212
302.246
302.279
302.313
302.347
302.381
302.416
302.45
302.486
302.521
302.556
302.592
302.628
302.664
302.7
302.737
302.773
302.81
302.847
302.884
302.921
302.959
302.996
303.034
303.072
303.11
303.149
303.187
303.225
303.263
303.3
303.336
303.37
303.402
303.43
303.453
303.47
303.479
303.478
302.307
302.307
302.3
302.287
302.269
302.246
302.22
302.192
302.161
302.128
302.095
302.061
302.026
301.991
301.957
301.922
301.888
301.855
301.821
301.789
301.757
301.726
301.695
301.665
301.636
301.608
301.58
301.554
301.527
301.502
301.477
301.453
301.43
301.407
301.385
301.364
301.344
301.323
301.304
301.285
301.267
301.249
301.232
301.216
301.2
301.184
301.169
301.155
301.141
301.127
301.114
301.101
301.089
301.077
301.066
301.055
301.045
301.035
301.025
301.015
301.006
300.998
300.99
300.982
300.974
300.967
300.96
300.954
300.948
300.942
300.937
300.932
300.927
300.923
300.919
300.915
300.912
300.909
300.906
300.904
300.902
300.901
300.899
300.898
300.898
300.898
300.898
300.898
300.899
300.9
300.902
300.904
300.906
300.909
300.912
300.915
300.919
300.923
300.927
300.932
300.937
300.943
300.949
300.955
300.962
300.969
300.976
300.984
300.993
301.001
301.011
301.02
301.03
301.04
301.051
301.062
301.074