/*--------------------------------*- C++ -*----------------------------------*\
  =========                 |
  \\      /  F ield         | OpenFOAM: The Open Source CFD Toolbox
   \\    /   O peration     | Website:  https://openfoam.org
    \\  /    A nd           | Version:  8
     \\/     M anipulation  |
\*---------------------------------------------------------------------------*/
FoamFile
{
    version     2.0;
    format      ascii;
    class       volVectorField;
    location    "4400";
    object      U;
}
// * * * * * * * * * * * * * * * * * * * * * * * * * * * * * * * * * * * * * //

dimensions      [0 1 -1 0 0 0 0];

internalField   nonuniform List<vector> 
46000
(
(0.00226359 5.54761e-06 -0.00231163)
(0.0107313 3.76374e-05 -0.00632702)
(0.0194437 2.15404e-05 -0.00587366)
(0.0256806 9.78182e-06 -0.00365276)
(0.0286453 5.40903e-06 -0.00134852)
(0.0287471 3.49509e-06 0.000636752)
(0.0264651 2.32938e-06 0.00223146)
(0.0222865 1.51074e-06 0.0034696)
(0.0166156 9.30241e-07 0.00441678)
(0.0097822 5.37159e-07 0.00513813)
(0.00205053 2.90864e-07 0.00568008)
(-0.00638393 1.48167e-07 0.00606956)
(-0.0153156 7.02605e-08 0.00633922)
(-0.0246343 2.95111e-08 0.00652372)
(-0.0342255 1.04397e-08 0.00664135)
(-0.0440044 3.80554e-09 0.0067056)
(-0.0538999 2.81074e-09 0.00672687)
(-0.0638539 2.733e-09 0.00671327)
(-0.0738174 1.58566e-09 0.00667119)
(-0.0837497 -4.51956e-10 0.00660572)
(-0.0936163 -2.47022e-09 0.00652091)
(-0.103388 -3.86472e-09 0.00642006)
(-0.113039 -4.55256e-09 0.00630585)
(-0.122548 -4.69091e-09 0.00618044)
(-0.131896 -4.39592e-09 0.00604566)
(-0.141068 -3.63869e-09 0.00590301)
(-0.150049 -2.38196e-09 0.00575375)
(-0.158826 -7.00095e-10 0.00559893)
(-0.167389 1.16775e-09 0.00543947)
(-0.175729 2.90763e-09 0.00527613)
(-0.183836 4.20247e-09 0.00510959)
(-0.191704 4.84858e-09 0.00494042)
(-0.199326 4.73887e-09 0.00476911)
(-0.206697 3.90444e-09 0.0045961)
(-0.213812 2.46118e-09 0.00442177)
(-0.220666 5.74036e-10 0.00424647)
(-0.227257 -1.58053e-09 0.00407049)
(-0.233579 -3.80701e-09 0.00389412)
(-0.239633 -5.8376e-09 0.00371758)
(-0.245414 -7.35889e-09 0.00354111)
(-0.250922 -8.07502e-09 0.00336491)
(-0.256155 -7.80579e-09 0.00318917)
(-0.261113 -6.56558e-09 0.00301406)
(-0.265795 -4.57742e-09 0.00283974)
(-0.270201 -2.23296e-09 0.00266636)
(-0.274332 -1.68492e-11 0.00249406)
(-0.278187 1.61882e-09 0.00232298)
(-0.281768 2.4016e-09 0.00215325)
(-0.285077 2.36737e-09 0.00198499)
(-0.288113 1.85367e-09 0.00181832)
(-0.290881 1.39903e-09 0.00165335)
(-0.293381 1.4704e-09 0.00149018)
(-0.295616 2.26215e-09 0.00132893)
(-0.297588 3.5889e-09 0.00116969)
(-0.299301 4.95543e-09 0.00101257)
(-0.300757 5.79101e-09 0.000857657)
(-0.30196 5.69444e-09 0.000705051)
(-0.302913 4.57527e-09 0.000554829)
(-0.303621 2.69025e-09 0.000407042)
(-0.304087 5.07128e-10 0.000261696)
(-0.304316 -1.46325e-09 0.000118767)
(-0.304311 -2.85624e-09 -2.15334e-05)
(-0.304078 -3.51739e-09 -0.000158816)
(-0.303621 -3.51736e-09 -0.000292985)
(-0.302945 -3.04886e-09 -0.000424147)
(-0.302055 -2.35113e-09 -0.000552311)
(-0.300957 -1.62269e-09 -0.000677421)
(-0.299656 -9.80635e-10 -0.000799408)
(-0.298157 -4.64011e-10 -0.000918202)
(-0.296466 -6.94878e-11 -0.00103374)
(-0.294588 2.41976e-10 -0.00114595)
(-0.292531 4.90318e-10 -0.00125479)
(-0.290299 6.9381e-10 -0.00136021)
(-0.287899 8.58267e-10 -0.00146215)
(-0.285336 9.77876e-10 -0.00156057)
(-0.282618 1.05679e-09 -0.00165545)
(-0.279751 1.10414e-09 -0.00174673)
(-0.27674 1.14734e-09 -0.0018344)
(-0.273593 1.21049e-09 -0.00191842)
(-0.270315 1.32929e-09 -0.00199877)
(-0.266913 1.51955e-09 -0.00207544)
(-0.263394 1.78542e-09 -0.00214842)
(-0.259764 2.11362e-09 -0.00221768)
(-0.25603 2.4784e-09 -0.00228324)
(-0.252197 2.84071e-09 -0.0023451)
(-0.248273 3.17398e-09 -0.00240325)
(-0.244264 3.43997e-09 -0.0024577)
(-0.240175 3.62705e-09 -0.00250849)
(-0.236014 3.74103e-09 -0.00255561)
(-0.231786 3.77691e-09 -0.00259911)
(-0.227498 3.76544e-09 -0.002639)
(-0.223156 3.71574e-09 -0.00267532)
(-0.218765 3.64276e-09 -0.00270811)
(-0.214331 3.56231e-09 -0.00273741)
(-0.209861 3.48685e-09 -0.00276326)
(-0.20536 3.42052e-09 -0.00278572)
(-0.200833 3.37581e-09 -0.00280483)
(-0.196286 3.35853e-09 -0.00282067)
(-0.191724 3.37368e-09 -0.00283328)
(-0.187152 3.41961e-09 -0.00284273)
(-0.182575 3.49215e-09 -0.00284908)
(-0.177998 3.57968e-09 -0.00285242)
(-0.173427 3.66639e-09 -0.0028528)
(-0.168864 3.75478e-09 -0.00285031)
(-0.164316 3.81325e-09 -0.00284502)
(-0.159786 3.85094e-09 -0.00283701)
(-0.155277 3.85787e-09 -0.00282635)
(-0.150796 3.82653e-09 -0.00281314)
(-0.146344 3.77356e-09 -0.00279744)
(-0.141926 3.70312e-09 -0.00277935)
(-0.137545 3.61935e-09 -0.00275894)
(-0.133205 3.52643e-09 -0.0027363)
(-0.128909 3.43349e-09 -0.00271151)
(-0.12466 3.33639e-09 -0.00268465)
(-0.120461 3.23511e-09 -0.00265579)
(-0.116314 3.12965e-09 -0.00262503)
(-0.112223 3.00003e-09 -0.00259244)
(-0.10819 2.85708e-09 -0.0025581)
(-0.104217 2.68412e-09 -0.00252207)
(-0.100307 2.48449e-09 -0.00248444)
(-0.0964612 2.24984e-09 -0.00244528)
(-0.0926825 1.99683e-09 -0.00240464)
(-0.0889725 1.70045e-09 -0.00236261)
(-0.0853331 1.38235e-09 -0.00231925)
(-0.081766 1.04086e-09 -0.00227461)
(-0.0782729 6.75974e-10 -0.00222876)
(-0.0748551 2.94341e-10 -0.00218176)
(-0.0715143 -1.04042e-10 -0.00213365)
(-0.0682517 -5.14181e-10 -0.0020845)
(-0.0650686 -9.44418e-10 -0.00203435)
(-0.0619663 -1.39476e-09 -0.00198326)
(-0.0589459 -1.85855e-09 -0.00193126)
(-0.0560084 -2.33746e-09 -0.00187841)
(-0.0531549 -2.84484e-09 -0.00182476)
(-0.0503863 -3.37737e-09 -0.00177033)
(-0.0477035 -3.92005e-09 -0.00171518)
(-0.0451072 -4.51125e-09 -0.00165935)
(-0.0425983 -5.11262e-09 -0.00160289)
(-0.0401775 -5.74252e-09 -0.00154583)
(-0.0378453 -6.39762e-09 -0.00148823)
(-0.0356024 -7.06794e-09 -0.00143012)
(-0.0334493 -7.76849e-09 -0.00137156)
(-0.0313863 -8.48427e-09 -0.0013126)
(-0.029414 -9.20527e-09 -0.0012533)
(-0.0275325 -9.94485e-09 -0.0011937)
(-0.0257421 -1.0683e-08 -0.00113388)
(-0.024043 -1.1428e-08 -0.00107389)
(-0.022435 -1.21817e-08 -0.00101382)
(-0.0209183 -1.29289e-08 -0.000953742)
(-0.0194925 -1.3683e-08 -0.000893737)
(-0.0181574 -1.44424e-08 -0.000833899)
(-0.0169125 -1.5197e-08 -0.000774327)
(-0.0157573 -1.59452e-08 -0.000715127)
(-0.0146911 -1.66803e-08 -0.000656414)
(-0.0137128 -1.74006e-08 -0.000598312)
(-0.0128216 -1.80877e-08 -0.000540952)
(-0.012016 -1.87483e-08 -0.000484476)
(-0.0112947 -1.93339e-08 -0.000429035)
(-0.0106559 -1.9846e-08 -0.000374788)
(-0.0100977 -2.02713e-08 -0.000321905)
(-0.00961803 -2.0583e-08 -0.000270566)
(-0.00921434 -2.07676e-08 -0.000220959)
(-0.00888398 -2.08317e-08 -0.000173282)
(-0.00862395 -2.07619e-08 -0.000127741)
(-0.00843096 -2.05581e-08 -8.4554e-05)
(-0.0083014 -2.02738e-08 -4.3945e-05)
(-0.00823133 -1.99091e-08 -6.14968e-06)
(-0.00821648 -1.95041e-08 2.85891e-05)
(-0.0082522 -1.90889e-08 6.00352e-05)
(-0.00833351 -1.8677e-08 8.79364e-05)
(-0.00845502 -1.82617e-08 0.00011202)
(-0.00861097 -1.77992e-08 0.000132017)
(-0.00879517 -1.72327e-08 0.000147655)
(-0.00900105 -1.64143e-08 0.000158656)
(-0.00922161 -1.52128e-08 0.000164739)
(-0.0094494 -1.34637e-08 0.000165619)
(-0.00967658 -1.11193e-08 0.000161009)
(-0.00989483 -8.15252e-09 0.000150621)
(-0.0100954 -4.67034e-09 0.000134166)
(-0.0102692 -8.84098e-10 0.00011136)
(-0.0104064 3.05858e-09 8.19227e-05)
(-0.0104971 7.09738e-09 4.55874e-05)
(-0.0105307 1.14376e-08 2.09993e-06)
(-0.0104964 1.63926e-08 -4.87148e-05)
(-0.010383 2.23265e-08 -0.000106983)
(-0.0101791 2.9328e-08 -0.000172784)
(-0.00987342 3.70885e-08 -0.000246029)
(-0.00945453 4.50333e-08 -0.00032639)
(-0.00891178 5.27859e-08 -0.000413156)
(-0.00823573 6.03165e-08 -0.000504991)
(-0.00741922 6.80578e-08 -0.000599539)
(-0.00645914 7.61735e-08 -0.000692762)
(-0.00535924 8.43422e-08 -0.000777837)
(-0.0041349 9.20336e-08 -0.000843312)
(-0.00282067 9.97923e-08 -0.00087011)
(-0.00148377 1.09257e-07 -0.000826925)
(-0.000240801 1.21144e-07 -0.000664753)
(0.00070642 1.31413e-07 -0.000317219)
(0.001085 1.35202e-07 0.000207941)
(0.000473414 7.24324e-08 0.000506601)
(0.0024222 5.54315e-06 -0.00247728)
(0.0108397 3.75962e-05 -0.00647732)
(0.0194193 2.15345e-05 -0.00594939)
(0.0256355 9.7816e-06 -0.0036816)
(0.0286164 5.40913e-06 -0.00135717)
(0.0287324 3.49514e-06 0.000634938)
(0.0264581 2.32939e-06 0.00223138)
(0.0222831 1.51074e-06 0.00346975)
(0.016614 9.30238e-07 0.00441687)
(0.00978139 5.37156e-07 0.00513817)
(0.00205016 2.90863e-07 0.0056801)
(-0.00638405 1.48166e-07 0.00606959)
(-0.0153156 7.02602e-08 0.00633926)
(-0.0246343 2.9511e-08 0.00652377)
(-0.0342255 1.04397e-08 0.00664141)
(-0.0440043 3.80553e-09 0.00670566)
(-0.0538999 2.81073e-09 0.00672693)
(-0.0638538 2.73299e-09 0.00671333)
(-0.0738174 1.58566e-09 0.00667125)
(-0.0837497 -4.51955e-10 0.00660577)
(-0.0936162 -2.47022e-09 0.00652096)
(-0.103388 -3.86472e-09 0.0064201)
(-0.113039 -4.55255e-09 0.00630587)
(-0.122548 -4.6909e-09 0.00618046)
(-0.131896 -4.39591e-09 0.00604567)
(-0.141068 -3.63868e-09 0.00590301)
(-0.150048 -2.38196e-09 0.00575374)
(-0.158826 -7.00093e-10 0.00559892)
(-0.167389 1.16774e-09 0.00543946)
(-0.175728 2.90762e-09 0.00527613)
(-0.183836 4.20247e-09 0.00510959)
(-0.191704 4.84857e-09 0.00494042)
(-0.199326 4.73886e-09 0.00476911)
(-0.206697 3.90443e-09 0.0045961)
(-0.213812 2.46118e-09 0.00442178)
(-0.220666 5.74035e-10 0.00424648)
(-0.227256 -1.58053e-09 0.0040705)
(-0.233579 -3.807e-09 0.00389413)
(-0.239632 -5.8376e-09 0.0037176)
(-0.245414 -7.35888e-09 0.00354113)
(-0.250922 -8.07501e-09 0.00336493)
(-0.256155 -7.80578e-09 0.00318919)
(-0.261113 -6.56557e-09 0.00301408)
(-0.265795 -4.57741e-09 0.00283976)
(-0.270201 -2.23296e-09 0.00266638)
(-0.274331 -1.68492e-11 0.00249408)
(-0.278187 1.61882e-09 0.002323)
(-0.281768 2.40159e-09 0.00215326)
(-0.285076 2.36737e-09 0.001985)
(-0.288113 1.85366e-09 0.00181832)
(-0.29088 1.39902e-09 0.00165334)
(-0.29338 1.4704e-09 0.00149017)
(-0.295615 2.26215e-09 0.00132892)
(-0.297587 3.5889e-09 0.00116968)
(-0.2993 4.95543e-09 0.00101255)
(-0.300756 5.791e-09 0.000857641)
(-0.301959 5.69444e-09 0.000705035)
(-0.302913 4.57526e-09 0.000554813)
(-0.303621 2.69025e-09 0.000407025)
(-0.304087 5.07127e-10 0.000261677)
(-0.304315 -1.46324e-09 0.000118747)
(-0.30431 -2.85624e-09 -2.15559e-05)
(-0.304077 -3.51739e-09 -0.00015884)
(-0.30362 -3.51735e-09 -0.00029301)
(-0.302944 -3.04886e-09 -0.000424173)
(-0.302055 -2.35113e-09 -0.000552336)
(-0.300957 -1.62268e-09 -0.000677446)
(-0.299655 -9.80634e-10 -0.000799433)
(-0.298156 -4.64011e-10 -0.000918227)
(-0.296465 -6.94878e-11 -0.00103376)
(-0.294588 2.41976e-10 -0.00114598)
(-0.29253 4.90317e-10 -0.00125482)
(-0.290298 6.93809e-10 -0.00136023)
(-0.287898 8.58267e-10 -0.00146218)
(-0.285336 9.77875e-10 -0.00156061)
(-0.282618 1.05679e-09 -0.00165548)
(-0.27975 1.10414e-09 -0.00174677)
(-0.27674 1.14734e-09 -0.00183443)
(-0.273592 1.21049e-09 -0.00191846)
(-0.270315 1.32929e-09 -0.00199881)
(-0.266913 1.51955e-09 -0.00207548)
(-0.263394 1.78542e-09 -0.00214845)
(-0.259764 2.11362e-09 -0.00221772)
(-0.256029 2.4784e-09 -0.00228328)
(-0.252197 2.84071e-09 -0.00234514)
(-0.248273 3.17398e-09 -0.00240329)
(-0.244263 3.43997e-09 -0.00245775)
(-0.240175 3.62705e-09 -0.00250853)
(-0.236014 3.74103e-09 -0.00255566)
(-0.231786 3.77691e-09 -0.00259915)
(-0.227498 3.76543e-09 -0.00263904)
(-0.223155 3.71573e-09 -0.00267537)
(-0.218764 3.64276e-09 -0.00270815)
(-0.214331 3.56231e-09 -0.00273745)
(-0.209861 3.48684e-09 -0.00276331)
(-0.20536 3.42052e-09 -0.00278576)
(-0.200833 3.37581e-09 -0.00280488)
(-0.196285 3.35853e-09 -0.00282071)
(-0.191723 3.37368e-09 -0.00283332)
(-0.187151 3.4196e-09 -0.00284278)
(-0.182575 3.49215e-09 -0.00284913)
(-0.177998 3.57967e-09 -0.00285247)
(-0.173426 3.66639e-09 -0.00285286)
(-0.168864 3.75478e-09 -0.00285036)
(-0.164316 3.81325e-09 -0.00284507)
(-0.159785 3.85094e-09 -0.00283706)
(-0.155277 3.85786e-09 -0.00282641)
(-0.150795 3.82653e-09 -0.00281319)
(-0.146344 3.77356e-09 -0.0027975)
(-0.141926 3.70311e-09 -0.0027794)
(-0.137545 3.61935e-09 -0.002759)
(-0.133205 3.52643e-09 -0.00273636)
(-0.128909 3.43349e-09 -0.00271156)
(-0.12466 3.33638e-09 -0.0026847)
(-0.12046 3.2351e-09 -0.00265585)
(-0.116314 3.12965e-09 -0.00262509)
(-0.112223 3.00003e-09 -0.0025925)
(-0.10819 2.85708e-09 -0.00255815)
(-0.104217 2.68412e-09 -0.00252213)
(-0.100307 2.48449e-09 -0.0024845)
(-0.096461 2.24984e-09 -0.00244533)
(-0.0926823 1.99683e-09 -0.0024047)
(-0.0889724 1.70045e-09 -0.00236267)
(-0.085333 1.38235e-09 -0.00231931)
(-0.0817659 1.04086e-09 -0.00227467)
(-0.0782727 6.75974e-10 -0.00222882)
(-0.074855 2.94341e-10 -0.00218182)
(-0.0715141 -1.04041e-10 -0.00213371)
(-0.0682515 -5.1418e-10 -0.00208456)
(-0.0650685 -9.44417e-10 -0.00203441)
(-0.0619662 -1.39476e-09 -0.00198332)
(-0.0589457 -1.85855e-09 -0.00193132)
(-0.0560083 -2.33746e-09 -0.00187847)
(-0.0531548 -2.84484e-09 -0.00182481)
(-0.0503862 -3.37737e-09 -0.00177039)
(-0.0477033 -3.92004e-09 -0.00171524)
(-0.0451071 -4.51124e-09 -0.00165941)
(-0.0425982 -5.11261e-09 -0.00160295)
(-0.0401773 -5.74251e-09 -0.00154589)
(-0.0378452 -6.39762e-09 -0.00148828)
(-0.0356023 -7.06793e-09 -0.00143018)
(-0.0334491 -7.76848e-09 -0.00137162)
(-0.0313862 -8.48426e-09 -0.00131266)
(-0.0294139 -9.20526e-09 -0.00125335)
(-0.0275324 -9.94484e-09 -0.00119375)
(-0.025742 -1.0683e-08 -0.00113393)
(-0.0240428 -1.1428e-08 -0.00107394)
(-0.0224349 -1.21817e-08 -0.00101387)
(-0.0209181 -1.29289e-08 -0.000953788)
(-0.0194923 -1.3683e-08 -0.000893781)
(-0.0181572 -1.44424e-08 -0.000833942)
(-0.0169124 -1.5197e-08 -0.000774368)
(-0.0157572 -1.59452e-08 -0.000715166)
(-0.0146909 -1.66803e-08 -0.000656451)
(-0.0137127 -1.74006e-08 -0.000598347)
(-0.0128215 -1.80877e-08 -0.000540985)
(-0.0120159 -1.87483e-08 -0.000484507)
(-0.0112946 -1.93339e-08 -0.000429063)
(-0.0106558 -1.9846e-08 -0.000374814)
(-0.0100976 -2.02713e-08 -0.000321929)
(-0.0096179 -2.0583e-08 -0.000270587)
(-0.00921421 -2.07676e-08 -0.000220977)
(-0.00888385 -2.08317e-08 -0.000173297)
(-0.00862382 -2.07619e-08 -0.000127754)
(-0.00843083 -2.05581e-08 -8.45631e-05)
(-0.00830127 -2.02738e-08 -4.39506e-05)
(-0.00823121 -1.99091e-08 -6.15184e-06)
(-0.00821636 -1.95041e-08 2.85906e-05)
(-0.00825208 -1.90889e-08 6.00403e-05)
(-0.00833339 -1.8677e-08 8.79452e-05)
(-0.00845491 -1.82616e-08 0.000112033)
(-0.00861086 -1.77992e-08 0.000132034)
(-0.00879507 -1.72327e-08 0.000147675)
(-0.00900095 -1.64143e-08 0.00015868)
(-0.00922151 -1.52128e-08 0.000164767)
(-0.00944931 -1.34636e-08 0.00016565)
(-0.00967649 -1.11193e-08 0.000161043)
(-0.00989475 -8.15252e-09 0.000150656)
(-0.0100953 -4.67034e-09 0.000134202)
(-0.0102691 -8.84097e-10 0.000111396)
(-0.0104063 3.05858e-09 8.19573e-05)
(-0.010497 7.09738e-09 4.56196e-05)
(-0.0105306 1.14376e-08 2.12845e-06)
(-0.0104963 1.63926e-08 -4.86911e-05)
(-0.0103829 2.23265e-08 -0.000106965)
(-0.0101791 2.93279e-08 -0.000172775)
(-0.00987338 3.70884e-08 -0.00024603)
(-0.0094545 4.50333e-08 -0.000326405)
(-0.00891176 5.27858e-08 -0.000413186)
(-0.00823572 6.03165e-08 -0.000505038)
(-0.00741922 6.80578e-08 -0.000599605)
(-0.00645915 7.61734e-08 -0.000692848)
(-0.00535927 8.43421e-08 -0.000777947)
(-0.00413494 9.20335e-08 -0.000843449)
(-0.00282072 9.97923e-08 -0.000870272)
(-0.00148384 1.09257e-07 -0.000827113)
(-0.000240874 1.21144e-07 -0.000664967)
(0.000706338 1.31413e-07 -0.000317458)
(0.00108485 1.35202e-07 0.000207687)
(0.0004733 7.24324e-08 0.000506387)
(0.00607158 -3.49716e-05 -0.0113589)
(0.012632 -3.21895e-06 -0.0131951)
(0.0162753 6.30756e-07 -0.0103776)
(0.0180596 9.48143e-07 -0.0060111)
(0.0178537 1.03521e-06 -0.00164798)
(0.015921 8.95162e-07 0.00218383)
(0.0124562 6.53612e-07 0.00535683)
(0.00767038 4.25483e-07 0.00790964)
(0.00177271 2.51233e-07 0.00993331)
(-0.00504541 1.33482e-07 0.0115218)
(-0.0126 6.12688e-08 0.0127546)
(-0.020749 2.00051e-08 0.013695)
(-0.0293641 -2.32784e-09 0.0144005)
(-0.0383401 -1.32052e-08 0.0149214)
(-0.0475844 -1.69583e-08 0.0152918)
(-0.0570206 -1.66554e-08 0.0155391)
(-0.0665838 -1.45807e-08 0.0156847)
(-0.076219 -1.20714e-08 0.0157457)
(-0.0858797 -9.50002e-09 0.0157355)
(-0.0955257 -6.75216e-09 0.0156655)
(-0.105123 -3.75759e-09 0.0155444)
(-0.114642 -6.95067e-10 0.0153798)
(-0.124056 2.08802e-09 0.0151778)
(-0.133345 4.28939e-09 0.0149433)
(-0.142487 5.78304e-09 0.0146808)
(-0.151467 6.63206e-09 0.0143938)
(-0.16027 6.99993e-09 0.0140853)
(-0.168881 7.06003e-09 0.0137581)
(-0.17729 6.92542e-09 0.0134144)
(-0.185487 6.65305e-09 0.0130561)
(-0.193462 6.25374e-09 0.0126851)
(-0.201207 5.71508e-09 0.0123028)
(-0.208716 4.99976e-09 0.0119106)
(-0.215982 4.08749e-09 0.0115098)
(-0.222999 3.02105e-09 0.0111015)
(-0.229764 1.91416e-09 0.0106867)
(-0.236272 9.21564e-10 0.0102663)
(-0.24252 1.94649e-10 0.00984121)
(-0.248504 -1.49272e-10 0.00941217)
(-0.254222 -2.77513e-11 0.00897995)
(-0.259672 5.86893e-10 0.00854525)
(-0.264853 1.63359e-09 0.00810872)
(-0.269763 2.92151e-09 0.00767099)
(-0.274402 4.16821e-09 0.00723266)
(-0.278769 5.08327e-09 0.00679429)
(-0.282865 5.48016e-09 0.00635644)
(-0.28669 5.35442e-09 0.00591962)
(-0.290243 4.87612e-09 0.00548436)
(-0.293527 4.31518e-09 0.00505114)
(-0.296543 3.92819e-09 0.00462045)
(-0.299292 3.8594e-09 0.00419273)
(-0.301777 4.08305e-09 0.00376844)
(-0.303998 4.43663e-09 0.003348)
(-0.30596 4.68554e-09 0.00293184)
(-0.307663 4.61697e-09 0.00252037)
(-0.309112 4.13109e-09 0.00211398)
(-0.31031 3.26708e-09 0.00171307)
(-0.311259 2.18474e-09 0.00131799)
(-0.311964 1.10247e-09 0.00092912)
(-0.312428 2.25797e-10 0.000546791)
(-0.312656 -3.10628e-10 0.000171342)
(-0.312651 -4.80521e-10 -0.000196948)
(-0.312418 -3.38809e-10 -0.000557872)
(-0.311962 1.16297e-12 -0.00091118)
(-0.311287 4.21091e-10 -0.00125659)
(-0.310399 8.1884e-10 -0.00159383)
(-0.309302 1.13806e-09 -0.00192265)
(-0.308002 1.36053e-09 -0.00224278)
(-0.306505 1.49413e-09 -0.00255402)
(-0.304815 1.55957e-09 -0.00285613)
(-0.302938 1.58172e-09 -0.00314894)
(-0.300881 1.57363e-09 -0.00343228)
(-0.298648 1.54295e-09 -0.00370598)
(-0.296247 1.49695e-09 -0.0039699)
(-0.293682 1.43356e-09 -0.00422393)
(-0.290961 1.35815e-09 -0.00446796)
(-0.288089 1.27652e-09 -0.0047019)
(-0.285072 1.19925e-09 -0.00492567)
(-0.281918 1.13358e-09 -0.00513923)
(-0.278631 1.08759e-09 -0.00534254)
(-0.275219 1.06502e-09 -0.00553556)
(-0.271687 1.05715e-09 -0.0057183)
(-0.268042 1.05819e-09 -0.00589076)
(-0.264291 1.05571e-09 -0.00605297)
(-0.260439 1.03624e-09 -0.00620496)
(-0.256494 9.96476e-10 -0.0063468)
(-0.25246 9.26046e-10 -0.00647854)
(-0.248345 8.33239e-10 -0.00660029)
(-0.244154 7.21369e-10 -0.00671212)
(-0.239894 5.99135e-10 -0.00681417)
(-0.23557 4.71923e-10 -0.00690654)
(-0.231189 3.50923e-10 -0.00698938)
(-0.226757 2.39034e-10 -0.00706283)
(-0.222278 1.4123e-10 -0.00712705)
(-0.217759 5.99975e-11 -0.00718222)
(-0.213206 -5.0758e-12 -0.00722852)
(-0.208624 -5.06734e-11 -0.00726613)
(-0.204017 -8.05239e-11 -0.00729526)
(-0.199392 -9.131e-11 -0.0073161)
(-0.194754 -9.09053e-11 -0.00732887)
(-0.190106 -8.30395e-11 -0.00733379)
(-0.185456 -7.14424e-11 -0.00733109)
(-0.180806 -6.39901e-11 -0.00732098)
(-0.176162 -6.15123e-11 -0.00730371)
(-0.171527 -6.73261e-11 -0.00727951)
(-0.166907 -8.10182e-11 -0.00724862)
(-0.162306 -1.03419e-10 -0.00721127)
(-0.157726 -1.29968e-10 -0.00716771)
(-0.153174 -1.57765e-10 -0.00711816)
(-0.148651 -1.82247e-10 -0.00706288)
(-0.144162 -2.00926e-10 -0.00700209)
(-0.139709 -2.1546e-10 -0.00693604)
(-0.135298 -2.22946e-10 -0.00686494)
(-0.130929 -2.23797e-10 -0.00678902)
(-0.126608 -2.21746e-10 -0.00670851)
(-0.122336 -2.15132e-10 -0.00662362)
(-0.118116 -2.10593e-10 -0.00653456)
(-0.113951 -2.05639e-10 -0.00644153)
(-0.109844 -2.03589e-10 -0.00634474)
(-0.105796 -2.0486e-10 -0.00624437)
(-0.101811 -2.08207e-10 -0.00614062)
(-0.0978902 -2.11971e-10 -0.00603364)
(-0.094036 -2.16567e-10 -0.00592363)
(-0.0902503 -2.20335e-10 -0.00581072)
(-0.0865351 -2.2037e-10 -0.00569509)
(-0.0828921 -2.15425e-10 -0.00557687)
(-0.0793232 -2.07161e-10 -0.00545621)
(-0.0758298 -1.94746e-10 -0.00533324)
(-0.0724137 -1.75273e-10 -0.00520808)
(-0.0690763 -1.55385e-10 -0.00508086)
(-0.065819 -1.32174e-10 -0.00495168)
(-0.0626432 -1.06885e-10 -0.00482066)
(-0.0595501 -7.99342e-11 -0.0046879)
(-0.056541 -5.04896e-11 -0.00455349)
(-0.0536169 -2.06277e-11 -0.00441754)
(-0.0507791 6.32822e-12 -0.00428015)
(-0.0480285 3.53627e-11 -0.00414139)
(-0.0453662 6.31523e-11 -0.00400138)
(-0.0427929 9.13587e-11 -0.00386019)
(-0.0403097 1.21229e-10 -0.00371793)
(-0.0379171 1.53178e-10 -0.00357471)
(-0.0356161 1.87623e-10 -0.00343061)
(-0.0334072 2.28305e-10 -0.00328575)
(-0.031291 2.74395e-10 -0.00314025)
(-0.0292679 3.28804e-10 -0.00299424)
(-0.0273385 3.87378e-10 -0.00284784)
(-0.025503 4.57186e-10 -0.0027012)
(-0.0237617 5.36568e-10 -0.00255449)
(-0.0221146 6.25529e-10 -0.00240786)
(-0.0205618 7.22823e-10 -0.00226151)
(-0.0191032 8.29284e-10 -0.00211564)
(-0.0177384 9.43253e-10 -0.00197047)
(-0.0164671 1.06973e-09 -0.00182624)
(-0.0152888 1.20038e-09 -0.00168319)
(-0.0142027 1.34272e-09 -0.00154162)
(-0.0132078 1.49757e-09 -0.0014018)
(-0.0123032 1.65661e-09 -0.00126407)
(-0.0114874 1.82901e-09 -0.00112876)
(-0.010759 2.01561e-09 -0.000996244)
(-0.0101162 2.21141e-09 -0.000866898)
(-0.00955685 2.42308e-09 -0.000741134)
(-0.00907881 2.64563e-09 -0.000619387)
(-0.00867946 2.87657e-09 -0.000502113)
(-0.00835595 3.11673e-09 -0.00038979)
(-0.00810511 3.35694e-09 -0.00028292)
(-0.00792346 3.59556e-09 -0.00018203)
(-0.00780717 3.82006e-09 -8.76635e-05)
(-0.00775209 4.02961e-09 -3.87174e-07)
(-0.00775367 4.2192e-09 7.92204e-05)
(-0.00780704 4.38216e-09 0.000150552)
(-0.00790692 4.53264e-09 0.000212972)
(-0.00804766 4.67983e-09 0.000265837)
(-0.0082232 4.84208e-09 0.000308486)
(-0.00842706 5.04612e-09 0.000340244)
(-0.0086524 5.32034e-09 0.000360422)
(-0.00889191 5.68147e-09 0.000368318)
(-0.00913792 6.12624e-09 0.000363224)
(-0.00938231 6.62377e-09 0.00034442)
(-0.00961659 7.11732e-09 0.000311187)
(-0.00983185 7.53671e-09 0.00026281)
(-0.0100188 7.83595e-09 0.000198584)
(-0.0101679 8.02754e-09 0.000117834)
(-0.0102692 8.18833e-09 1.99403e-05)
(-0.0103125 8.41444e-09 -9.56113e-05)
(-0.0102875 8.76699e-09 -0.000229209)
(-0.0101839 9.18419e-09 -0.000381063)
(-0.00999145 9.50381e-09 -0.000551045)
(-0.00970042 9.56683e-09 -0.000738502)
(-0.00930175 9.34213e-09 -0.00094195)
(-0.00878772 8.95093e-09 -0.0011586)
(-0.00815263 8.50451e-09 -0.00138354)
(-0.00739398 7.91407e-09 -0.0016085)
(-0.00651403 6.88785e-09 -0.00181974)
(-0.00552202 5.3952e-09 -0.00199463)
(-0.0044372 4.01274e-09 -0.00209622)
(-0.00329322 3.52496e-09 -0.00206514)
(-0.00214081 4.1261e-09 -0.00180896)
(-0.00106153 5.11613e-09 -0.00119544)
(-0.000153078 2.57552e-09 -9.78072e-05)
(0.000160563 -5.46327e-08 0.00111376)
(0.00616611 -3.49809e-05 -0.0114383)
(0.0126858 -3.21874e-06 -0.0132553)
(0.0162894 6.30736e-07 -0.010406)
(0.0180577 9.48124e-07 -0.00602314)
(0.0178494 1.03519e-06 -0.00165275)
(0.0159178 8.95152e-07 0.0021821)
(0.0124543 6.53605e-07 0.00535624)
(0.00766938 4.25479e-07 0.00790944)
(0.00177224 2.5123e-07 0.00993323)
(-0.00504558 1.3348e-07 0.0115218)
(-0.0126 6.12682e-08 0.0127546)
(-0.0207489 2.00049e-08 0.013695)
(-0.029364 -2.32782e-09 0.0144005)
(-0.03834 -1.32051e-08 0.0149214)
(-0.0475844 -1.69582e-08 0.0152918)
(-0.0570205 -1.66553e-08 0.0155391)
(-0.0665837 -1.45805e-08 0.0156847)
(-0.0762189 -1.20713e-08 0.0157457)
(-0.0858796 -9.49994e-09 0.0157356)
(-0.0955256 -6.75211e-09 0.0156655)
(-0.105123 -3.75756e-09 0.0155444)
(-0.114642 -6.95061e-10 0.0153798)
(-0.124056 2.088e-09 0.0151778)
(-0.133345 4.28935e-09 0.0149433)
(-0.142487 5.783e-09 0.0146808)
(-0.151467 6.63201e-09 0.0143938)
(-0.160269 6.99988e-09 0.0140853)
(-0.168881 7.05998e-09 0.0137581)
(-0.17729 6.92537e-09 0.0134144)
(-0.185486 6.653e-09 0.0130561)
(-0.193461 6.25369e-09 0.0126851)
(-0.201207 5.71504e-09 0.0123028)
(-0.208715 4.99973e-09 0.0119106)
(-0.215981 4.08746e-09 0.0115098)
(-0.222999 3.02103e-09 0.0111015)
(-0.229764 1.91414e-09 0.0106867)
(-0.236272 9.21557e-10 0.0102663)
(-0.242519 1.94647e-10 0.00984122)
(-0.248503 -1.49271e-10 0.00941218)
(-0.254221 -2.77511e-11 0.00897996)
(-0.259672 5.86888e-10 0.00854526)
(-0.264853 1.63358e-09 0.00810873)
(-0.269763 2.92149e-09 0.007671)
(-0.274402 4.16818e-09 0.00723267)
(-0.278769 5.08323e-09 0.0067943)
(-0.282865 5.48012e-09 0.00635644)
(-0.286689 5.35439e-09 0.00591963)
(-0.290243 4.87609e-09 0.00548436)
(-0.293527 4.31515e-09 0.00505114)
(-0.296543 3.92817e-09 0.00462044)
(-0.299292 3.85937e-09 0.00419272)
(-0.301776 4.08302e-09 0.00376843)
(-0.303998 4.4366e-09 0.00334799)
(-0.305959 4.68551e-09 0.00293184)
(-0.307663 4.61694e-09 0.00252036)
(-0.309112 4.13106e-09 0.00211398)
(-0.310309 3.26706e-09 0.00171306)
(-0.311259 2.18473e-09 0.00131799)
(-0.311964 1.10246e-09 0.000929113)
(-0.312428 2.25796e-10 0.000546783)
(-0.312655 -3.10626e-10 0.000171334)
(-0.31265 -4.80518e-10 -0.000196957)
(-0.312418 -3.38807e-10 -0.000557882)
(-0.311962 1.16296e-12 -0.000911189)
(-0.311287 4.21089e-10 -0.0012566)
(-0.310399 8.18835e-10 -0.00159384)
(-0.309302 1.13806e-09 -0.00192265)
(-0.308002 1.36053e-09 -0.00224279)
(-0.306504 1.49412e-09 -0.00255402)
(-0.304814 1.55956e-09 -0.00285614)
(-0.302938 1.58171e-09 -0.00314895)
(-0.30088 1.57362e-09 -0.00343229)
(-0.298648 1.54294e-09 -0.00370598)
(-0.296246 1.49694e-09 -0.00396991)
(-0.293682 1.43355e-09 -0.00422394)
(-0.290961 1.35814e-09 -0.00446797)
(-0.288089 1.27651e-09 -0.00470191)
(-0.285072 1.19924e-09 -0.00492568)
(-0.281917 1.13357e-09 -0.00513924)
(-0.278631 1.08759e-09 -0.00534255)
(-0.275218 1.06501e-09 -0.00553557)
(-0.271687 1.05714e-09 -0.00571831)
(-0.268042 1.05818e-09 -0.00589077)
(-0.264291 1.0557e-09 -0.00605298)
(-0.260439 1.03624e-09 -0.00620497)
(-0.256493 9.9647e-10 -0.00634681)
(-0.25246 9.26041e-10 -0.00647856)
(-0.248345 8.33234e-10 -0.0066003)
(-0.244154 7.21364e-10 -0.00671214)
(-0.239894 5.99131e-10 -0.00681418)
(-0.23557 4.71921e-10 -0.00690655)
(-0.231189 3.50921e-10 -0.00698939)
(-0.226756 2.39032e-10 -0.00706284)
(-0.222278 1.41229e-10 -0.00712707)
(-0.217759 5.99971e-11 -0.00718224)
(-0.213206 -5.07577e-12 -0.00722854)
(-0.208623 -5.06731e-11 -0.00726615)
(-0.204017 -8.05234e-11 -0.00729527)
(-0.199392 -9.13094e-11 -0.00731611)
(-0.194753 -9.09048e-11 -0.00732888)
(-0.190106 -8.3039e-11 -0.00733381)
(-0.185455 -7.1442e-11 -0.0073311)
(-0.180806 -6.39898e-11 -0.007321)
(-0.176161 -6.15119e-11 -0.00730373)
(-0.171527 -6.73258e-11 -0.00727953)
(-0.166907 -8.10178e-11 -0.00724863)
(-0.162305 -1.03418e-10 -0.00721129)
(-0.157726 -1.29968e-10 -0.00716772)
(-0.153173 -1.57764e-10 -0.00711818)
(-0.148651 -1.82246e-10 -0.0070629)
(-0.144161 -2.00925e-10 -0.00700211)
(-0.139709 -2.15459e-10 -0.00693605)
(-0.135297 -2.22945e-10 -0.00686495)
(-0.130929 -2.23796e-10 -0.00678903)
(-0.126608 -2.21745e-10 -0.00670852)
(-0.122336 -2.15131e-10 -0.00662363)
(-0.118116 -2.10591e-10 -0.00653457)
(-0.113951 -2.05638e-10 -0.00644155)
(-0.109843 -2.03588e-10 -0.00634476)
(-0.105796 -2.04859e-10 -0.00624439)
(-0.101811 -2.08206e-10 -0.00614063)
(-0.09789 -2.1197e-10 -0.00603366)
(-0.0940358 -2.16566e-10 -0.00592364)
(-0.0902501 -2.20334e-10 -0.00581074)
(-0.0865349 -2.20369e-10 -0.00569511)
(-0.082892 -2.15424e-10 -0.00557689)
(-0.079323 -2.0716e-10 -0.00545623)
(-0.0758297 -1.94745e-10 -0.00533326)
(-0.0724136 -1.75272e-10 -0.0052081)
(-0.0690762 -1.55384e-10 -0.00508088)
(-0.0658189 -1.32173e-10 -0.0049517)
(-0.0626431 -1.06885e-10 -0.00482068)
(-0.05955 -7.99339e-11 -0.00468791)
(-0.0565408 -5.04894e-11 -0.00455351)
(-0.0536168 -2.06276e-11 -0.00441756)
(-0.050779 6.3282e-12 -0.00428016)
(-0.0480284 3.53626e-11 -0.00414141)
(-0.045366 6.3152e-11 -0.00400139)
(-0.0427928 9.13583e-11 -0.00386021)
(-0.0403095 1.21228e-10 -0.00371795)
(-0.037917 1.53177e-10 -0.00357472)
(-0.035616 1.87622e-10 -0.00343063)
(-0.0334071 2.28304e-10 -0.00328577)
(-0.0312908 2.74394e-10 -0.00314027)
(-0.0292678 3.28803e-10 -0.00299425)
(-0.0273384 3.87376e-10 -0.00284785)
(-0.0255029 4.57184e-10 -0.00270122)
(-0.0237616 5.36566e-10 -0.0025545)
(-0.0221145 6.25527e-10 -0.00240788)
(-0.0205617 7.2282e-10 -0.00226153)
(-0.0191031 8.29281e-10 -0.00211566)
(-0.0177383 9.4325e-10 -0.00197049)
(-0.016467 1.06972e-09 -0.00182625)
(-0.0152887 1.20038e-09 -0.0016832)
(-0.0142026 1.34271e-09 -0.00154163)
(-0.0132077 1.49756e-09 -0.00140181)
(-0.0123031 1.65661e-09 -0.00126408)
(-0.0114873 1.82901e-09 -0.00112877)
(-0.0107589 2.0156e-09 -0.00099625)
(-0.010116 2.2114e-09 -0.000866903)
(-0.00955673 2.42307e-09 -0.000741139)
(-0.00907869 2.64562e-09 -0.000619391)
(-0.00867934 2.87656e-09 -0.000502115)
(-0.00835583 3.11672e-09 -0.00038979)
(-0.008105 3.35693e-09 -0.000282919)
(-0.00792335 3.59555e-09 -0.000182027)
(-0.00780706 3.82005e-09 -8.7659e-05)
(-0.00775198 4.0296e-09 -3.80878e-07)
(-0.00775356 4.21919e-09 7.92286e-05)
(-0.00780693 4.38214e-09 0.000150562)
(-0.00790682 4.53263e-09 0.000212984)
(-0.00804756 4.67982e-09 0.000265851)
(-0.0082231 4.84207e-09 0.000308502)
(-0.00842697 5.0461e-09 0.000340261)
(-0.00865231 5.32032e-09 0.00036044)
(-0.00889183 5.68146e-09 0.000368339)
(-0.00913784 6.12622e-09 0.000363245)
(-0.00938223 6.62376e-09 0.000344442)
(-0.00961651 7.1173e-09 0.00031121)
(-0.00983178 7.53669e-09 0.000262832)
(-0.0100188 7.83593e-09 0.000198605)
(-0.0101679 8.02752e-09 0.000117855)
(-0.0102691 8.18831e-09 1.99592e-05)
(-0.0103124 8.41442e-09 -9.55945e-05)
(-0.0102875 8.76697e-09 -0.000229195)
(-0.0101838 9.18417e-09 -0.000381052)
(-0.00999143 9.50379e-09 -0.000551039)
(-0.0097004 9.56681e-09 -0.000738501)
(-0.00930174 9.34211e-09 -0.000941956)
(-0.00878771 8.95091e-09 -0.00115861)
(-0.00815263 8.50449e-09 -0.00138356)
(-0.00739399 7.91405e-09 -0.00160853)
(-0.00651405 6.88784e-09 -0.00181978)
(-0.00552204 5.39519e-09 -0.00199468)
(-0.00443724 4.01273e-09 -0.0020963)
(-0.00329326 3.52495e-09 -0.00206522)
(-0.00214085 4.1261e-09 -0.00180907)
(-0.00106158 5.11612e-09 -0.00119558)
(-0.000153178 2.57552e-09 -9.79825e-05)
(0.000160434 -5.46327e-08 0.00111353)
(0.00531903 -1.0502e-05 -0.0204573)
(0.00962591 -9.8801e-07 -0.0170453)
(0.0105609 3.93473e-07 -0.0113542)