/*--------------------------------*- C++ -*----------------------------------*\
  =========                 |
  \\      /  F ield         | OpenFOAM: The Open Source CFD Toolbox
   \\    /   O peration     | Website:  https://openfoam.org
    \\  /    A nd           | Version:  8
     \\/     M anipulation  |
\*---------------------------------------------------------------------------*/
FoamFile
{
    version     2.0;
    format      ascii;
    class       volScalarField;
    location    "200";
    object      alphat;
}
// * * * * * * * * * * * * * * * * * * * * * * * * * * * * * * * * * * * * * //

dimensions      [1 -1 -1 0 0 0 0];

internalField   nonuniform List<scalar> 
48000
(
8.95821e-06
2.52309e-05
3.99234e-05
5.43664e-05
6.89374e-05
8.34591e-05
9.79761e-05
0.000112597
0.000127263
0.000141665
0.00015585
0.000169621
0.00018257
0.00019401
0.000202504
0.000202326
3.74079e-05
3.52778e-05
3.69548e-05
3.78022e-05
3.87e-05
4.03197e-05
0.000225437
3.99192e-05
4.36918e-05
0.000272463
0.00031152
0.000323516
5.29218e-05
4.96544e-05
4.97955e-05
5.05124e-05
5.13176e-05
5.21276e-05
5.29267e-05
5.37113e-05
5.44799e-05
5.52322e-05
5.59682e-05
5.66875e-05
5.73901e-05
5.80763e-05
5.87463e-05
5.94e-05
6.00373e-05
6.06582e-05
6.12624e-05
6.18498e-05
6.24204e-05
6.29745e-05
6.35122e-05
6.40334e-05
6.45384e-05
6.5027e-05
6.54995e-05
6.59559e-05
6.63965e-05
6.68214e-05
6.72306e-05
6.76244e-05
6.80028e-05
6.83659e-05
6.87139e-05
6.9047e-05
6.93653e-05
6.96689e-05
6.9958e-05
7.02327e-05
7.0493e-05
7.07393e-05
7.09716e-05
7.11903e-05
7.13952e-05
7.15865e-05
7.17642e-05
7.19284e-05
7.20793e-05
7.22168e-05
7.2342e-05
7.24566e-05
7.25593e-05
7.26496e-05
7.27275e-05
7.2793e-05
7.28461e-05
7.28871e-05
7.29161e-05
7.29334e-05
7.29391e-05
7.29337e-05
7.29172e-05
7.28898e-05
7.28514e-05
7.28021e-05
7.27416e-05
7.26701e-05
7.25879e-05
7.24951e-05
7.23923e-05
7.22796e-05
7.21575e-05
7.20262e-05
7.18859e-05
7.17363e-05
7.15776e-05
7.14099e-05
7.12333e-05
7.10481e-05
7.08546e-05
7.06529e-05
7.04433e-05
7.02258e-05
7.00004e-05
6.97674e-05
6.95268e-05
6.92785e-05
6.90223e-05
6.87583e-05
6.84867e-05
6.82078e-05
6.79215e-05
6.76267e-05
6.73229e-05
6.70104e-05
6.66899e-05
6.63618e-05
6.60256e-05
6.56806e-05
6.53264e-05
6.49632e-05
6.45918e-05
6.42123e-05
6.3824e-05
6.34258e-05
6.30172e-05
6.25984e-05
6.21701e-05
6.17329e-05
6.12868e-05
6.08308e-05
6.03639e-05
5.98859e-05
5.93969e-05
5.88976e-05
5.83882e-05
5.78685e-05
5.73373e-05
5.67942e-05
5.62392e-05
5.56733e-05
5.50966e-05
5.45084e-05
5.39073e-05
5.32925e-05
5.26644e-05
5.20243e-05
5.13724e-05
5.07071e-05
5.00283e-05
4.94029e-05
4.99335e-05
0.000304225
5.02499e-05
4.73755e-05
4.11814e-05
3.54157e-05
3.32806e-05
3.22112e-05
3.21842e-05
0.000207646
0.000227489
0.000225694
0.000224061
0.000227927
0.000225499
0.000220643
0.000208677
0.00019691
0.000182926
0.000184695
0.000185359
0.000180809
0.000172386
0.000161803
0.000150139
0.000138002
0.000125749
0.000113606
0.000101729
9.02317e-05
7.92001e-05
6.86905e-05
5.87034e-05
4.92149e-05
4.05791e-05
3.25692e-05
2.50564e-05
1.79894e-05
1.0851e-05
3.23657e-06
8.9574e-06
2.52387e-05
3.99298e-05
5.43712e-05
6.89411e-05
8.34629e-05
9.79802e-05
0.000112601
0.000127265
0.000141667
0.000155853
0.000169623
0.00018257
0.000194002
0.000202475
0.000202245
3.7402e-05
3.52856e-05
3.69592e-05
3.77948e-05
3.86724e-05
3.99752e-05
0.000244579
0.00027378
0.000287389
0.000304304
0.000318414
0.000324767
5.29174e-05
4.96381e-05
4.97873e-05
5.05092e-05
5.13161e-05
5.21264e-05
5.29255e-05
5.37098e-05
5.44784e-05
5.52306e-05
5.59663e-05
5.66854e-05
5.73879e-05
5.80741e-05
5.87442e-05
5.93981e-05
6.00356e-05
6.06562e-05
6.12601e-05
6.18473e-05
6.2418e-05
6.29722e-05
6.35099e-05
6.40313e-05
6.45363e-05
6.50252e-05
6.5498e-05
6.59549e-05
6.63958e-05
6.68209e-05
6.72304e-05
6.76243e-05
6.80027e-05
6.83658e-05
6.87137e-05
6.90468e-05
6.9365e-05
6.96686e-05
6.99577e-05
7.02324e-05
7.04929e-05
7.07393e-05
7.09718e-05
7.11905e-05
7.13955e-05
7.15867e-05
7.17642e-05
7.19284e-05
7.20793e-05
7.2217e-05
7.23426e-05
7.24574e-05
7.25601e-05
7.26504e-05
7.27281e-05
7.27935e-05
7.28464e-05
7.28872e-05
7.2916e-05
7.29331e-05
7.29387e-05
7.29332e-05
7.29165e-05
7.28889e-05
7.28502e-05
7.28002e-05
7.27389e-05
7.26668e-05
7.25841e-05
7.24912e-05
7.23885e-05
7.22763e-05
7.2155e-05
7.20248e-05
7.18856e-05
7.1737e-05
7.1579e-05
7.14113e-05
7.12339e-05
7.10473e-05
7.0852e-05
7.06491e-05
7.04391e-05
7.02225e-05
6.9999e-05
6.97683e-05
6.95295e-05
6.92818e-05
6.90247e-05
6.87589e-05
6.84851e-05
6.82045e-05
6.7917e-05
6.7622e-05
6.7319e-05
6.70079e-05
6.66888e-05
6.63616e-05
6.60257e-05
6.56807e-05
6.53262e-05
6.49628e-05
6.45909e-05
6.42108e-05
6.3822e-05
6.34237e-05
6.30154e-05
6.2597e-05
6.21688e-05
6.17315e-05
6.12851e-05
6.08291e-05
6.03626e-05
5.98851e-05
5.93965e-05
5.88971e-05
5.83872e-05
5.78667e-05
5.73354e-05
5.67929e-05
5.62388e-05
5.56733e-05
5.50962e-05
5.45067e-05
5.39045e-05
5.32897e-05
5.26627e-05
5.20239e-05
5.13728e-05
5.0707e-05
5.0026e-05
4.9396e-05
4.9919e-05
0.00030409
5.02331e-05
4.74044e-05
4.12242e-05
3.5432e-05
3.32865e-05
3.22123e-05
3.21846e-05
0.000207654
0.000227439
0.000225577
0.000223865
0.000227766
0.00022543
0.000220623
0.00020873
0.000196943
0.00018281
0.000184544
0.000185289
0.000180774
0.000172364
0.000161789
0.00015013
0.000137997
0.000125746
0.000113603
0.000101725
9.02267e-05
7.91953e-05
6.86876e-05
5.87026e-05
4.92144e-05
4.05784e-05
3.25682e-05
2.50552e-05
1.79885e-05
1.08504e-05
3.23658e-06
1.53857e-05
8.81393e-05
0.000143334
0.000186152
0.000221965
0.000254136
0.000283848
0.000311717
0.000338165
0.000363324
0.000387105
0.000409115
0.000428411
0.000442778
0.000445904
0.000415661
0.000298266
0.000285011
0.000292309
0.000300605
0.000310048
0.000328545
0.000407113
0.000376355
0.00037226
0.000463792
0.000494339
0.000500278
0.000457058
0.000457505
0.000465848
0.000474809
0.000483215
0.000491101
0.000498619
0.000505866
0.000512898
0.000519741
0.000526414
0.000532924
0.000539277
0.000545476
0.000551523
0.000557421
0.000563169
0.000568768
0.000574219
0.000579523
0.000584681
0.000589692
0.000594559
0.000599281
0.000603859
0.000608294
0.000612586
0.000616736
0.000620745
0.000624613
0.000628342
0.000631933
0.000635386
0.000638702
0.000641884
0.000644932
0.000647848
0.000650631
0.000653284
0.000655807
0.000658201
0.000660468
0.000662607
0.000664621
0.00066651
0.000668274
0.000669915
0.000671431
0.000672824
0.000674088
0.000675207
0.000676202
0.000677076
0.000677834
0.000678476
0.000679005
0.000679422
0.000679728
0.000679924
0.000680011
0.000679991
0.000679864
0.000679632
0.000679298
0.000678861
0.000678324
0.000677688
0.000676952
0.000676119
0.000675191
0.000674168
0.000673052
0.000671847
0.000670554
0.000669176
0.000667715
0.000666172
0.000664549
0.000662847
0.000661068
0.000659211
0.000657277
0.000655266
0.000653179
0.000651017
0.000648779
0.000646466
0.000644078
0.000641617
0.000639079
0.000636464
0.000633771
0.000630997
0.00062814
0.000625201
0.00062218
0.000619079
0.000615896
0.00061263
0.000609276
0.000605834
0.000602301
0.00059868
0.000594971
0.000591171
0.00058728
0.000583295
0.000579216
0.000575043
0.000570775
0.000566409
0.000561944
0.000557377
0.000552709
0.000547939
0.000543067
0.000538094
0.000533015
0.000527827
0.000522527
0.000517116
0.000511594
0.000505961
0.000500216
0.000494355
0.000488372
0.000482265
0.000476028
0.000469651
0.000463117
0.000456458
0.000450275
0.000449129
0.000481853
0.000391231
0.000364825
0.000367622
0.000353623
0.000341677
0.000333111
0.000332596
0.000380429
0.000390972
0.00038769
0.000388371
0.000404964
0.000410659
0.000408636
0.000400143
0.000364217
0.000351234
0.000379412
0.00039505
0.000394483
0.000384459
0.000369877
0.000353194
0.00033555
0.000317489
0.000299302
0.000281159
0.000263169
0.0002454
0.000227893
0.000210649
0.000193529
0.000176097
0.000157401
0.000135512
0.000105806
6.20597e-05
8.16314e-06
1.53914e-05
8.81952e-05
0.000143414
0.000186241
0.00022206
0.000254235
0.000283948
0.000311817
0.000338263
0.00036342
0.000387195
0.000409191
0.000428465
0.000442859
0.000446343
0.000417213
0.000299152
0.000285017
0.000291908
0.000300241
0.000309649
0.000328775
0.000424148
0.000457082
0.000471602
0.000486616
0.000497694
0.000500932
0.000457635
0.000457751
0.000465936
0.000474846
0.000483237
0.000491116
0.000498629
0.000505874
0.000512903
0.000519746
0.000526417
0.000532925
0.000539277
0.000545476
0.000551523
0.000557419
0.000563167
0.000568766
0.000574216
0.00057952
0.000584677
0.000589688
0.000594555
0.000599277
0.000603855
0.000608289
0.000612581
0.000616731
0.00062074
0.000624609
0.000628338
0.000631928
0.000635381
0.000638698
0.00064188
0.000644928
0.000647843
0.000650626
0.000653278
0.000655801
0.000658194
0.000660461
0.0006626
0.000664613
0.000666502
0.000668266
0.000669906
0.000671423
0.000672816
0.00067408
0.000675198
0.000676192
0.000677066
0.000677824
0.000678466
0.000678995
0.000679411
0.000679717
0.000679913
0.000680001
0.00067998
0.000679854
0.000679623
0.000679289
0.000678853
0.000678315
0.000677678
0.000676942
0.000676108
0.000675178
0.000674155
0.000673039
0.000671834
0.000670542
0.000669164
0.000667704
0.000666163
0.000664541
0.000662839
0.000661058
0.000659199
0.000657262
0.000655249
0.00065316
0.000650998
0.000648762
0.000646453
0.00064407
0.00064161
0.000639074
0.000636458
0.000633762
0.000630984
0.000628126
0.000625186
0.000622165
0.000619064
0.000615881
0.000612614
0.000609261
0.000605819
0.000602288
0.000598667
0.000594957
0.000591157
0.000587266
0.000583282
0.000579203
0.000575028
0.000570757
0.00056639
0.000561925
0.000557361
0.000552696
0.000547929
0.000543057
0.00053808
0.000532998
0.000527808
0.00052251
0.000517102
0.000511583
0.00050595
0.000500202
0.000494337
0.000488352
0.000482246
0.000476013
0.000469641
0.000463109
0.000456427
0.000450155
0.000448865
0.000482341
0.000392023
0.000364779
0.000367065
0.000353397
0.000341562
0.000332936
0.000332195
0.000379938
0.000390976
0.000387878
0.000388592
0.000405159
0.000410949
0.000409229
0.000400524
0.000364337
0.000351693
0.00037982
0.000395021
0.000394355
0.000384371
0.000369832
0.000353174
0.000335541
0.000317485
0.000299299
0.000281156
0.000263164
0.000245396
0.000227889
0.000210646
0.000193529
0.000176099
0.000157406
0.000135517
0.00010581
6.20572e-05
8.16401e-06
2.3739e-05
0.000131592
0.000224879
0.000296373
0.0003546
0.000405021
0.000450274
0.000491751
0.000530229
0.000566082
0.000599336
0.000629625
0.000656077
0.000677277
0.000691523
0.000695992
0.000674084
0.00067235
0.000681731
0.000694348
0.00070874
0.000725733
0.000756642
0.000767909
0.000779646
0.000810524
0.000832079
0.000849405
0.000858576
0.000873519
0.000890366
0.000906844
0.000922391
0.000937055
0.000951003
0.000964379
0.000977288
0.000989797
0.00100195
0.00101379
0.00102531
0.00103655
0.0010475
0.00105817
0.00106858
0.00107871
0.00108858
0.00109819
0.00110753
0.00111662
0.00112544
0.00113401
0.00114233
0.00115039
0.0011582
0.00116576
0.00117307
0.00118012
0.00118693
0.0011935
0.00119981
0.00120589
0.00121172
0.00121732
0.00122267
0.00122779
0.00123268
0.00123733
0.00124174
0.00124593
0.00124989
0.00125362
0.00125712
0.00126039
0.00126344
0.00126627
0.00126886
0.00127123
0.00127335
0.00127524
0.00127692
0.00127838
0.00127963
0.00128066
0.00128149
0.00128211
0.00128253
0.00128275
0.00128276
0.00128258
0.0012822
0.00128163
0.00128087
0.00127992
0.00127879
0.00127747
0.00127597
0.00127429
0.00127244
0.00127042
0.00126822
0.00126587
0.00126335
0.00126067
0.00125784
0.00125486
0.00125172
0.00124844
0.00124501
0.00124144
0.00123772
0.00123386
0.00122985
0.0012257
0.0012214
0.00121696
0.00121237
0.00120764
0.00120276
0.00119772
0.00119254
0.0011872
0.0011817
0.00117605
0.00117024
0.00116426
0.00115813
0.00115183
0.00114537
0.00113873
0.00113193
0.00112495
0.00111781
0.00111048
0.00110298
0.0010953
0.00108744
0.00107939
0.00107116
0.00106274
0.00105413
0.00104533
0.00103634
0.00102714
0.00101775
0.00100816
0.000998363
0.000988358
0.000978143
0.000967717
0.000957074
0.000946211
0.000935121
0.000923796
0.000912222
0.000900376
0.000888214
0.000875653
0.000862548
0.000848833
0.000835599
0.000828831
0.00079909
0.000774314
0.000757052
0.000737744
0.000719727
0.000703604
0.000690652
0.000688442
0.000680912
0.000670191
0.000661707
0.000657822
0.000651954
0.000644691
0.000633282
0.00061398
0.000603486
0.000607823
0.000608629
0.000600716
0.000586061
0.000567376
0.000546454
0.00052429
0.000501417
0.000478125
0.00045457
0.000430821
0.000406872
0.000382626
0.000357834
0.000331947
0.000303858
0.0002715
0.000231076
0.000176043
9.83516e-05
1.4355e-05
2.3748e-05
0.000131662
0.000224989
0.000296504
0.000354741
0.000405167
0.000450421
0.000491897
0.000530373
0.000566223
0.000599472
0.000629747
0.000656167
0.000677327
0.000691648
0.000696371
0.000673459
0.000670833
0.000680096
0.000692724
0.000706889
0.000723806
0.000758514
0.0007813
0.000798943
0.00081636
0.000833257
0.000849915
0.000858897
0.000873667
0.000890434
0.000906883
0.000922416
0.00093707
0.000951009
0.000964378
0.00097728
0.000989786
0.00100194
0.00101377
0.00102529
0.00103652
0.00104747
0.00105815
0.00106855
0.00107868
0.00108855
0.00109815
0.00110749
0.00111658
0.0011254
0.00113397
0.00114229
0.00115035
0.00115816
0.00116571
0.00117302
0.00118008
0.00118688
0.00119345
0.00119976
0.00120584
0.00121167
0.00121726
0.00122262
0.00122774
0.00123262
0.00123727
0.00124169
0.00124587
0.00124983
0.00125356
0.00125706
0.00126033
0.00126338
0.00126621
0.0012688
0.00127116
0.00127329
0.00127518
0.00127686
0.00127832
0.00127956
0.0012806
0.00128143
0.00128205
0.00128247
0.00128268
0.0012827
0.00128251
0.00128214
0.00128157
0.0012808
0.00127985
0.00127872
0.0012774
0.0012759
0.00127422
0.00127237
0.00127035
0.00126815
0.0012658
0.00126328
0.0012606
0.00125777
0.00125479
0.00125165
0.00124837
0.00124494
0.00124137
0.00123765
0.00123379
0.00122978
0.00122563
0.00122133
0.00121689
0.00121231
0.00120757
0.00120269
0.00119765
0.00119247
0.00118712
0.00118163
0.00117598
0.00117017
0.00116419
0.00115806
0.00115176
0.0011453
0.00113866
0.00113186
0.00112488
0.00111773
0.00111041
0.00110291
0.00109523
0.00108737
0.00107932
0.00107109
0.00106267
0.00105406
0.00104526
0.00103627
0.00102708
0.00101768
0.00100809
0.000998293
0.000988289
0.000978076
0.00096765
0.000957007
0.000946143
0.000935053
0.000923728
0.000912154
0.00090031
0.000888152
0.000875592
0.000862477
0.000848731
0.00083551
0.000829235
0.00079914
0.00077377
0.000756562
0.00073738
0.000719372
0.00070319
0.000690201
0.00068835
0.000681178
0.000670552
0.000662118
0.00065831
0.000652612
0.000645559
0.000633946
0.000614478
0.000603779
0.000607713
0.000608313
0.000600444
0.000585891
0.000567278
0.000546394
0.000524245
0.000501377
0.000478087
0.000454532
0.000430783
0.000406835
0.000382591
0.000357801
0.000331919
0.000303836
0.000271486
0.000231068
0.000176039
9.83426e-05
1.43553e-05
3.25079e-05
0.00016158
0.000280422
0.000373937
0.000450786
0.000516912
0.000575712
0.00062914
0.000678337
0.000723935
0.000766183
0.000804985
0.000839907
0.000870358
0.000896192
0.000918083
0.000934358
0.000951883
0.000970955
0.000990962
0.00101171
0.00103296
0.00105641
0.00107742
0.00109789
0.00112074
0.00114268
0.00116432
0.00118514
0.0012067
0.00122836
0.00124949
0.00126981
0.00128931
0.00130805
0.00132612
0.00134361
0.00136057
0.00137705
0.00139308
0.00140869
0.00142391
0.00143873
0.00145318
0.00146726
0.00148098
0.00149433
0.00150733
0.00151998
0.00153229
0.00154424
0.00155586
0.00156713
0.00157806
0.00158866
0.00159892
0.00160884
0.00161843
0.00162769
0.00163661
0.00164521
0.00165349
0.00166144
0.00166907
0.00167637
0.00168337
0.00169004
0.0016964
0.00170245
0.00170818
0.00171361
0.00171872
0.00172353
0.00172804
0.00173224
0.00173613
0.00173971
0.00174299
0.00174595
0.00174861
0.00175097
0.00175304
0.00175481
0.00175631
0.00175751
0.00175844
0.00175909
0.00175946
0.00175956
0.00175939
0.00175895
0.00175825
0.00175729
0.00175606
0.00175459
0.00175286
0.00175089
0.00174867
0.00174621
0.00174352
0.00174059
0.00173744
0.00173407
0.00173048
0.00172667
0.00172265
0.00171842
0.00171399
0.00170936
0.00170452
0.00169948
0.00169424
0.00168881
0.00168317
0.00167733
0.00167129
0.00166504
0.00165859
0.00165194
0.00164508
0.001638
0.00163072
0.00162322
0.0016155
0.00160757
0.00159941
0.00159103
0.00158242
0.00157358
0.00156451
0.00155521
0.00154567
0.00153589
0.00152587
0.0015156
0.00150509
0.00149433
0.00148331
0.00147204
0.00146051
0.00144872
0.00143667
0.00142434
0.00141175
0.00139888
0.00138573
0.00137231
0.0013586
0.0013446
0.0013303
0.00131571
0.00130082
0.00128561
0.00127007
0.00125419
0.00123793
0.00122125
0.00120407
0.00118625
0.00116763
0.00114837
0.0011298
0.00110787
0.00108551
0.00106376
0.00104196
0.00102073
0.00100021
0.000980676
0.000963468
0.000946238
0.000928741
0.000912031
0.00089678
0.000881856
0.000867448
0.000852386
0.000835305
0.000820177
0.000808471
0.000795413
0.000778627
0.000758256
0.000735212
0.000710327
0.000684179
0.000657132
0.000629396
0.000601067
0.000572145
0.000542516
0.000511913
0.000479824
0.000445307
0.000406697
0.000361139
0.000303946
0.000228102
0.000126313
2.07885e-05
3.25115e-05
0.00016165
0.000280538
0.000374083
0.00045095
0.000517087
0.000575892
0.000629322
0.000678519
0.000724117
0.000766365
0.000805164
0.000840079
0.000870523
0.000896399
0.000918377
0.000934329
0.000951488
0.000970425
0.00099033
0.00101083
0.00103179
0.00105571
0.00107833
0.00109991
0.00112127
0.00114258
0.00116425
0.00118514
0.00120672
0.00122839
0.00124952
0.00126984
0.00128933
0.00130807
0.00132613
0.00134361
0.00136056
0.00137703
0.00139306
0.00140867
0.00142388
0.00143871
0.00145315
0.00146723
0.00148094
0.00149429
0.00150729
0.00151994
0.00153224
0.00154419
0.00155581
0.00156708
0.00157801
0.0015886
0.00159886
0.00160878
0.00161837
0.00162762
0.00163655
0.00164515
0.00165342
0.00166137
0.001669
0.0016763
0.00168329
0.00168997
0.00169632
0.00170237
0.0017081
0.00171353
0.00171864
0.00172345
0.00172796
0.00173215
0.00173604
0.00173963
0.00174291
0.00174587
0.00174852
0.00175088
0.00175295
0.00175473
0.00175622
0.00175743
0.00175835
0.001759
0.00175937
0.00175947
0.0017593
0.00175886
0.00175816
0.00175719
0.00175597
0.00175449
0.00175277
0.00175079
0.00174857
0.00174611
0.00174342
0.0017405
0.00173734
0.00173397
0.00173038
0.00172657
0.00172255
0.00171833
0.00171389
0.00170926
0.00170442
0.00169938
0.00169414
0.00168871
0.00168307
0.00167723
0.00167119
0.00166494
0.00165849
0.00165184
0.00164498
0.0016379
0.00163062
0.00162312
0.0016154
0.00160747
0.00159931
0.00159093
0.00158232
0.00157348
0.00156441
0.00155511
0.00154557
0.00153579
0.00152577
0.00151551
0.00150499
0.00149423
0.00148321
0.00147194
0.00146041
0.00144862
0.00143657
0.00142425
0.00141165
0.00139878
0.00138564
0.00137221
0.0013585
0.0013445
0.00133021
0.00131562
0.00130072
0.00128551
0.00126998
0.0012541
0.00123784
0.00122116
0.00120398
0.00118616
0.00116754
0.00114831
0.0011299
0.00110791
0.00108536
0.00106355
0.00104173
0.00102045
0.000999883
0.000980325
0.00096324
0.000946132
0.000928676
0.000912017
0.000896837
0.000882004
0.000867667
0.00085248
0.000835231
0.000819955
0.00080812
0.000795072
0.000778377
0.000758096
0.000735108
0.000710252
0.000684117
0.000657074
0.000629339
0.000601011
0.00057209
0.000542462
0.000511862
0.000479776
0.000445266
0.000406664
0.000361116
0.000303932
0.000228094
0.0001263
2.07877e-05
4.23195e-05
0.00018512
0.000321277
0.000431418
0.000522809
0.000601505
0.000671331
0.000734631
0.000792841
0.000846828
0.000897073
0.000943771
0.000986902
0.00102638
0.00106238
0.00109552
0.00112618
0.00115557
0.00118411
0.00121204
0.00123957
0.00126675
0.00129382
0.00132026
0.00134622
0.00137206
0.00139756
0.0014229
0.0014481
0.00147326
0.00149818
0.00152261
0.00154639
0.00156947
0.00159186
0.00161358
0.00163467
0.00165518
0.00167513
0.00169456
0.00171349
0.00173194
0.00174991
0.00176743
0.0017845
0.00180113
0.00181733
0.0018331
0.00184844
0.00186337
0.00187788
0.00189197
0.00190565
0.00191892
0.00193179
0.00194425
0.00195631
0.00196796
0.00197922
0.00199008
0.00200054
0.00201061
0.00202029
0.00202958
0.00203849
0.00204701
0.00205515
0.00206291
0.0020703
0.0020773
0.00208394
0.0020902
0.00209608
0.0021016
0.00210675
0.00211153
0.00211594
0.00211998
0.00212365
0.00212695
0.00212989
0.00213248
0.00213471
0.0021366
0.00213815
0.00213935
0.00214022
0.00214075
0.00214095
0.00214081
0.00214036
0.00213958
0.00213849
0.00213708
0.00213536
0.00213334
0.00213101
0.00212839
0.00212547
0.00212227
0.00211879
0.00211502
0.00211099
0.00210668
0.00210212
0.00209729
0.00209221
0.00208687
0.00208129
0.00207545
0.00206937
0.00206305
0.00205648
0.00204966
0.0020426
0.00203528
0.00202772
0.00201991
0.00201185
0.00200353
0.00199496
0.00198613
0.00197704
0.00196768
0.00195805
0.00194816
0.00193799
0.00192754
0.00191682
0.00190582
0.00189453
0.00188295
0.00187108
0.00185891
0.00184645
0.00183369
0.00182062
0.00180725
0.00179356
0.00177956
0.00176524
0.0017506
0.00173563
0.00172033
0.0017047
0.00168874
0.00167243
0.00165577
0.00163877
0.00162141
0.00160369
0.0015856
0.00156713
0.00154826
0.00152899
0.00150927
0.00148908
0.00146836
0.00144704
0.00142504
0.00140238
0.00137934
0.00135556
0.00133141
0.0013071
0.00128277
0.00125859
0.00123467
0.00121107
0.00118807
0.00116541
0.00114295
0.00112083
0.00109924
0.00107805
0.00105732
0.00103675
0.0010158
0.000994973
0.000974423
0.000952928
0.000929616
0.000904329
0.000877286
0.000848795
0.000819122
0.000788457
0.000756902
0.000724468
0.000691065
0.000656463
0.000620237
0.000581644
0.000539431
0.000491511
0.000434499
0.000363158
0.000270218
0.000149461
2.73311e-05
4.23175e-05
0.000185184
0.000321393
0.000431569
0.000522985
0.000601697
0.000671533
0.000734839
0.000793052
0.000847041
0.000897286
0.000943981
0.000987108
0.00102658
0.00106258
0.00109574
0.00112633
0.00115562
0.00118409
0.00121195
0.00123938
0.00126641
0.00129347
0.00132008
0.00134619
0.00137192
0.00139739
0.00142281
0.00144807
0.00147328
0.00149822
0.00152266
0.00154644
0.00156952
0.0015919
0.00161361
0.00163469
0.00165519
0.00167514
0.00169457
0.00171349
0.00173193
0.0017499
0.00176742
0.00178448
0.00180111
0.0018173
0.00183307
0.00184841
0.00186333
0.00187784
0.00189193
0.00190561
0.00191888
0.00193174
0.0019442
0.00195625
0.0019679
0.00197916
0.00199002
0.00200048
0.00201055
0.00202023
0.00202952
0.00203842
0.00204694
0.00205508
0.00206284
0.00207022
0.00207723
0.00208386
0.00209012
0.002096
0.00210152
0.00210667
0.00211145
0.00211586
0.0021199
0.00212357
0.00212686
0.0021298
0.00213239
0.00213462
0.00213651
0.00213806
0.00213926
0.00214012
0.00214065
0.00214085
0.00214072
0.00214026
0.00213949
0.00213839
0.00213698
0.00213526
0.00213324
0.00213091
0.00212829
0.00212537
0.00212217
0.00211868
0.00211492
0.00211088
0.00210658
0.00210201
0.00209719
0.00209211
0.00208677
0.00208118
0.00207535
0.00206927
0.00206294
0.00205637
0.00204955
0.00204249
0.00203518
0.00202762
0.00201981
0.00201174
0.00200343
0.00199485
0.00198602
0.00197693
0.00196757
0.00195794
0.00194805
0.00193788
0.00192744
0.00191671
0.00190571
0.00189442
0.00188284
0.00187097
0.00185881
0.00184634
0.00183358
0.00182051
0.00180714
0.00179345
0.00177945
0.00176513
0.00175049
0.00173552
0.00172023
0.0017046
0.00168863
0.00167232
0.00165567
0.00163866
0.0016213
0.00160358
0.00158549
0.00156702
0.00154816
0.00152888
0.00150917
0.00148898
0.00146826
0.00144694
0.00142495
0.00140229
0.0013793
0.00135553
0.00133134
0.00130702
0.00128266
0.00125846
0.00123451
0.00121089
0.00118791
0.00116527
0.00114281
0.00112071
0.00109914
0.00107797
0.00105727
0.00103667
0.00101564
0.000994753
0.000974177
0.000952711
0.000929451
0.000904209
0.000877196
0.00084872
0.000819055
0.000788392
0.000756838
0.000724406
0.000691003
0.000656403
0.00062018
0.000581592
0.000539386
0.000491475
0.000434475
0.000363144
0.000270207
0.000149444
2.73302e-05
5.34724e-05
0.00020707
0.000355702
0.000478478
0.000581245
0.000669963
0.000748703
0.000820076
0.00088574
0.000946749
0.00100376
0.00105718
0.00110722
0.00115405
0.00119789
0.00123913
0.00127816
0.0013154
0.00135116
0.00138567
0.00141915
0.00145175
0.0014836
0.00151469
0.00154511
0.00157495
0.00160425
0.00163311
0.00166161
0.00168975
0.00171746
0.00174466
0.00177125
0.0017972
0.00182249
0.00184712
0.00187112
0.0018945
0.00191728
0.00193949
0.00196113
0.00198224
0.00200281
0.00202286
0.00204241
0.00206145
0.00208
0.00209806
0.00211564
0.00213274
0.00214936
0.00216551
0.00218119
0.0021964
0.00221115
0.00222544
0.00223927
0.00225264
0.00226556
0.00227802
0.00229004
0.0023016
0.00231273
0.0023234
0.00233364
0.00234344
0.00235281
0.00236174
0.00237024
0.00237831
0.00238595
0.00239316
0.00239996
0.00240633
0.00241228
0.00241781
0.00242291
0.0024276
0.00243187
0.00243572
0.00243916
0.00244219
0.00244483
0.00244707
0.00244891
0.00245036
0.00245143
0.00245211
0.00245241
0.00245234
0.00245189
0.00245108
0.0024499
0.00244836
0.00244646
0.00244422
0.00244163
0.00243869
0.00243542
0.00243182
0.0024279
0.00242366
0.0024191
0.00241423
0.00240906
0.00240359
0.00239782
0.00239176
0.00238541
0.00237877
0.00237185
0.00236465
0.00235716
0.00234939
0.00234133
0.00233299
0.00232436
0.00231544
0.00230624
0.00229674
0.00228695
0.00227687
0.00226648
0.00225579
0.00224479
0.00223349
0.00222187
0.00220994
0.00219769
0.00218512
0.00217222
0.00215899
0.00214542
0.00213153
0.00211729
0.0021027
0.00208777
0.00207249
0.00205685
0.00204085
0.00202449
0.00200776
0.00199065
0.00197317
0.00195531
0.00193707
0.00191843
0.0018994
0.00187998
0.00186015
0.00183991
0.00181925
0.00179816
0.00177663
0.00175465
0.00173219
0.00170923
0.00168575
0.0016617
0.00163708
0.00161187
0.00158619
0.00156005
0.00153358
0.00150688
0.00148005
0.0014532
0.00142638
0.00139963
0.00137303
0.00134659
0.00132029
0.00129415
0.00126822
0.00124248
0.00121694
0.0011915
0.00116595
0.0011402
0.00111411
0.00108725
0.00105928
0.00103004
0.000999555
0.000967887
0.000935127
0.00090133
0.000866496
0.000830544
0.000793286
0.000754381
0.000713255
0.000668973
0.000620026
0.000564001
0.000497122
0.00041376
0.000306501
0.000170094
3.39117e-05
5.34701e-05
0.000207134
0.000355818
0.000478633
0.000581428
0.000670166
0.000748919
0.000820301
0.000885971
0.000946983
0.001004
0.00105741
0.00110745
0.00115427
0.00119811
0.00123933
0.00127834
0.00131556
0.00135129
0.00138577
0.00141922
0.00145176
0.00148357
0.00151467
0.00154509
0.00157492
0.00160423
0.00163312
0.00166164
0.0016898
0.00171753
0.00174473
0.00177132
0.00179726
0.00182254
0.00184717
0.00187116
0.00189453
0.00191731
0.00193951
0.00196115
0.00198225
0.00200281
0.00202286
0.0020424
0.00206144
0.00207999
0.00209805
0.00211562
0.00213271
0.00214933
0.00216548
0.00218116
0.00219637
0.00221112
0.0022254
0.00223923
0.0022526
0.00226551
0.00227797
0.00228999
0.00230155
0.00231267
0.00232335
0.00233358
0.00234338
0.00235274
0.00236167
0.00237017
0.00237824
0.00238588
0.00239309
0.00239989
0.00240625
0.0024122
0.00241773
0.00242284
0.00242752
0.00243179
0.00243564
0.00243908
0.00244211
0.00244475
0.00244698
0.00244882
0.00245028
0.00245134
0.00245202
0.00245232
0.00245225
0.0024518
0.00245099
0.00244981
0.00244826
0.00244637
0.00244412
0.00244153
0.0024386
0.00243533
0.00243173
0.0024278
0.00242356
0.002419
0.00241413
0.00240896
0.00240349
0.00239772
0.00239166
0.00238531
0.00237867
0.00237175
0.00236454
0.00235705
0.00234928
0.00234123
0.00233288
0.00232426
0.00231534
0.00230614
0.00229664
0.00228685
0.00227676
0.00226637
0.00225568
0.00224469
0.00223338
0.00222177
0.00220983
0.00219758
0.00218501
0.00217211
0.00215888
0.00214532
0.00213142
0.00211718
0.0021026
0.00208766
0.00207238
0.00205674
0.00204074
0.00202438
0.00200765
0.00199055
0.00197307
0.00195521
0.00193696
0.00191833
0.0018993
0.00187987
0.00186004
0.0018398
0.00181914
0.00179805
0.00177653
0.00175455
0.00173209
0.00170913
0.00168565
0.00166161
0.00163699
0.00161179
0.00158611
0.00155998
0.00153351
0.00150681
0.00147998
0.00145311
0.00142628
0.00139952
0.00137292
0.00134648
0.00132018
0.00129404
0.00126811
0.00124237
0.00121684
0.0011914
0.00116583
0.00114006
0.00111396
0.00108712
0.00105917
0.00102995
0.000999475
0.000967814
0.000935058
0.000901263
0.00086643
0.000830479
0.000793223
0.00075432
0.000713198
0.000668921
0.000619981
0.000563965
0.000497097
0.000413744
0.000306489
0.000170075
3.39118e-05
6.62392e-05
0.000229209
0.000387839
0.000520684
0.000632628
0.000729527
0.000815605
0.000893662
0.000965522
0.00103237
0.00109501
0.00115394
0.00120954
0.00126207
0.0013118
0.00135899
0.00140394
0.00144691
0.00148815
0.00152785
0.00156619
0.00160333
0.0016394
0.0016745
0.0017087
0.00174208
0.00177473
0.00180672
0.0018381
0.00186891
0.00189913
0.00192876
0.00195775
0.00198609
0.00201377
0.00204078
0.00206715
0.00209287
0.00211796
0.00214244
0.00216632
0.00218962
0.00221233
0.00223449
0.00225608
0.00227712
0.00229763
0.00231759
0.00233703
0.00235593
0.00237432
0.00239219
0.00240954
0.00242637
0.0024427
0.00245852
0.00247383
0.00248864
0.00250295
0.00251676
0.00253007
0.00254289
0.00255523
0.00256707
0.00257843
0.0025893
0.0025997
0.00260962
0.00261906
0.00262803
0.00263652
0.00264455
0.00265211
0.0026592
0.00266584
0.002672
0.00267771
0.00268295
0.00268774
0.00269207
0.00269594
0.00269936
0.00270234
0.00270489
0.002707
0.00270868
0.00270993
0.00271076
0.00271116
0.00271115
0.00271073
0.00270991
0.00270867
0.00270704
0.00270502
0.00270261
0.00269981
0.00269664
0.0026931
0.00268918
0.00268491
0.00268028
0.00267531
0.00266999
0.00266433
0.00265833
0.00265201
0.00264536
0.00263839
0.0026311
0.00262349
0.00261556
0.00260732
0.00259877
0.00258989
0.00258071
0.0025712
0.00256138
0.00255124
0.00254077
0.00252998
0.00251886
0.00250741
0.00249562
0.0024835
0.00247104
0.00245823
0.00244507
0.00243157
0.0024177
0.00240348
0.0023889
0.00237395
0.00235862
0.00234293
0.00232685
0.00231039
0.00229354
0.0022763
0.00225867
0.00224063
0.00222219
0.00220334
0.00218407
0.00216439
0.00214428
0.00212375
0.00210278
0.00208138
0.00205954
0.00203724
0.0020145
0.00199129
0.00196761
0.00194345
0.00191879
0.00189362
0.00186793
0.00184171
0.00181495
0.00178768
0.00175994
0.00173178
0.00170327
0.00167449
0.0016455
0.00161636
0.00158712
0.00155781
0.00152847
0.00149914
0.00146982
0.00144053
0.00141129
0.00138208
0.00135289