/*--------------------------------*- C++ -*----------------------------------*\
  =========                 |
  \\      /  F ield         | OpenFOAM: The Open Source CFD Toolbox
   \\    /   O peration     | Website:  https://openfoam.org
    \\  /    A nd           | Version:  8
     \\/     M anipulation  |
\*---------------------------------------------------------------------------*/
FoamFile
{
    version     2.0;
    format      ascii;
    class       volScalarField;
    location    "200";
    object      epsilon;
}
// * * * * * * * * * * * * * * * * * * * * * * * * * * * * * * * * * * * * * //

dimensions      [0 2 -3 0 0 0 0];

internalField   nonuniform List<scalar> 
48000
(
0.0117466
0.0242538
0.0385007
0.0525381
0.0667023
0.0808272
0.0949564
0.109237
0.123504
0.137571
0.151456
0.164925
0.177435
0.187917
0.194577
0.195555
0.846486
0.892285
0.854856
0.867797
0.899114
0.909719
0.196741
0.861233
0.964844
0.190395
0.189988
0.195082
0.84946
0.882996
0.926269
0.974743
1.0253
1.07655
1.1281
1.17989
1.23193
1.2842
1.33668
1.3893
1.44204
1.49481
1.54755
1.60017
1.65259
1.70473
1.75651
1.80786
1.85872
1.90901
1.95866
2.00761
2.05579
2.10316
2.14965
2.1952
2.23977
2.2833
2.32574
2.36706
2.40722
2.44617
2.48389
2.52034
2.55549
2.58933
2.62183
2.65297
2.68273
2.7111
2.73805
2.76357
2.78765
2.81027
2.83142
2.85109
2.86927
2.88595
2.90132
2.91526
2.92775
2.93876
2.9483
2.95637
2.96298
2.96813
2.97183
2.97409
2.97492
2.97433
2.97234
2.96898
2.96426
2.95822
2.95089
2.94229
2.93245
2.92139
2.90913
2.8957
2.88113
2.86544
2.84866
2.83085
2.81203
2.79226
2.77159
2.75007
2.72773
2.7046
2.6807
2.65605
2.63064
2.6045
2.57764
2.55012
2.52196
2.49319
2.4638
2.43378
2.40314
2.37193
2.34019
2.30795
2.27518
2.24184
2.20793
2.17349
2.13856
2.1032
2.0674
2.03114
1.99441
1.95726
1.91975
1.88189
1.84367
1.80508
1.76611
1.72683
1.68733
1.64764
1.60775
1.56764
1.5273
1.48676
1.4461
1.40539
1.36466
1.3239
1.28312
1.24234
1.20164
1.16104
1.12058
1.08025
1.04002
0.99982
0.959352
0.917623
0.871756
0.197046
1.10414
1.10901
0.986576
0.962329
0.929305
0.88962
0.850784
0.194357
0.188986
0.186182
0.178107
0.185086
0.184502
0.1837
0.191053
0.169429
0.166342
0.186022
0.186142
0.179349
0.169685
0.15865
0.146924
0.134893
0.122814
0.110873
0.0992085
0.0879307
0.0771207
0.0668288
0.0570309
0.0477892
0.0393665
0.0315638
0.0242589
0.0174117
0.0105068
0.00433733
0.0117467
0.0242612
0.0385077
0.052544
0.0667066
0.0808303
0.0949591
0.10924
0.123507
0.137574
0.151458
0.164928
0.17744
0.187925
0.194594
0.195567
0.846355
0.892165
0.854847
0.867746
0.899494
0.919035
0.174969
0.173016
0.176475
0.182033
0.188374
0.19479
0.849047
0.88293
0.926288
0.974746
1.02528
1.07653
1.12808
1.17985
1.23188
1.28414
1.33662
1.38925
1.44199
1.49477
1.5475
1.60011
1.65252
1.70465
1.75643
1.80779
1.85864
1.90892
1.95856
2.00751
2.05569
2.10305
2.14954
2.19508
2.23964
2.28316
2.32559
2.3669
2.40705
2.44599
2.48369
2.52014
2.55529
2.58914
2.62165
2.6528
2.68257
2.71094
2.7379
2.76343
2.78751
2.81013
2.83128
2.85094
2.86912
2.8858
2.90117
2.91512
2.92762
2.93864
2.94819
2.95628
2.9629
2.96806
2.97177
2.97402
2.97485
2.97425
2.97226
2.96889
2.96417
2.95813
2.9508
2.9422
2.93236
2.92129
2.90902
2.89557
2.88097
2.86526
2.84847
2.83065
2.81185
2.79211
2.77148
2.74999
2.72767
2.70455
2.68064
2.65597
2.63054
2.60437
2.5775
2.54997
2.52182
2.49307
2.46368
2.43366
2.40303
2.37183
2.34011
2.30787
2.27509
2.24174
2.20782
2.17337
2.13846
2.10311
2.06731
2.03105
1.99432
1.95717
1.91965
1.88177
1.84354
1.80496
1.76603
1.72679
1.6873
1.64759
1.60766
1.56751
1.52717
1.48667
1.44606
1.40536
1.3646
1.32381
1.28302
1.24227
1.20159
1.16102
1.12055
1.0802
1.03995
0.999772
0.959359
0.917691
0.871859
0.197057
1.10402
1.10839
0.986087
0.962184
0.929306
0.889649
0.850801
0.19436
0.188987
0.186199
0.178169
0.185162
0.184498
0.18364
0.190955
0.169373
0.166352
0.186051
0.186142
0.17934
0.169677
0.158644
0.14692
0.134891
0.122812
0.110869
0.0992046
0.0879264
0.0771166
0.0668255
0.0570285
0.0477874
0.0393652
0.0315632
0.024259
0.0174121
0.0105072
0.00433811
0.0268012
0.0225029
0.0281655
0.0354805
0.0436625
0.0524261
0.061598
0.0711183
0.0809607
0.0910814
0.101458
0.112048
0.122825
0.133997
0.147084
0.170516
0.250237
0.281035
0.296415
0.312648
0.329
0.337711
0.303415
0.351793
0.380315
0.341004
0.349121
0.37159
0.42954
0.457447
0.480978
0.505306
0.530847
0.557284
0.584348
0.611872
0.639754
0.66792
0.696308
0.724867
0.753546
0.782297
0.81107
0.839816
0.868487
0.897033
0.925411
0.953576
0.981486
1.0091
1.03638
1.06328
1.08978
1.11584
1.14141
1.16648
1.19101
1.21498
1.23834
1.26109
1.2832
1.30464
1.32541
1.34548
1.36484
1.38347
1.40137
1.41852
1.43491
1.45052
1.46536
1.47941
1.49266
1.50511
1.51676
1.52761
1.53764
1.54688
1.55536
1.56307
1.56999
1.57611
1.58143
1.58596
1.58969
1.59263
1.59479
1.59616
1.59677
1.59662
1.59571
1.59406
1.59167
1.58857
1.58476
1.58026
1.57508
1.56924
1.56274
1.55562
1.54788
1.53953
1.53061
1.52112
1.5111
1.50056
1.48952
1.47801
1.46605
1.45365
1.44083
1.4276
1.41398
1.39998
1.38561
1.37089
1.35582
1.34041
1.32468
1.30864
1.29229
1.27564
1.25871
1.2415
1.22399
1.2062
1.18814
1.16981
1.15123
1.13242
1.11336
1.09407
1.07455
1.05481
1.03486
1.01471
0.994369
0.973841
0.953142
0.93229
0.9113
0.89018
0.868935
0.847572
0.826102
0.804545
0.782924
0.761258
0.73956
0.717839
0.696109
0.674383
0.652682
0.631025
0.609429
0.587902
0.566453
0.545092
0.52378
0.50202
0.476136
0.422985
0.475285
0.475479
0.447607
0.432618
0.416331
0.397868
0.373843
0.313364
0.288185
0.272181
0.253441
0.226363
0.20935
0.196912
0.188105
0.192237
0.18418
0.159988
0.143952
0.132339
0.122272
0.112627
0.103108
0.0937122
0.084521
0.0756231
0.0670962
0.0590013
0.0513823
0.0442661
0.0376648
0.031602
0.0261215
0.0212061
0.0169609
0.0135084
0.0112591
0.0143705
0.0268085
0.0224971
0.0281545
0.0354662
0.0436458
0.0524074
0.0615775
0.0710967
0.0809383
0.0910587
0.101436
0.112028
0.122809
0.133973
0.146954
0.169909
0.249551
0.281068
0.296823
0.313008
0.329442
0.338046
0.293573
0.29798
0.31319
0.329013
0.347676
0.371225
0.428974
0.457171
0.480861
0.505239
0.530792
0.557234
0.5843
0.611825
0.639706
0.667871
0.69626
0.72482
0.753501
0.782254
0.811027
0.839772
0.868442
0.896988
0.925366
0.953531
0.981441
1.00905
1.03633
1.06324
1.08974
1.11579
1.14137
1.16644
1.19096
1.21492
1.23829
1.26104
1.28314
1.30459
1.32535
1.34542
1.36478
1.38342
1.40132
1.41847
1.43486
1.45047
1.46531
1.47936
1.49261
1.50507
1.51672
1.52756
1.5376
1.54684
1.55532
1.56303
1.56995
1.57608
1.5814
1.58593
1.58966
1.5926
1.59476
1.59613
1.59674
1.59658
1.59567
1.59401
1.59162
1.58852
1.5847
1.5802
1.57502
1.56917
1.56268
1.55556
1.54782
1.53948
1.53056
1.52108
1.51106
1.50052
1.48948
1.47796
1.466
1.45361
1.4408
1.42758
1.41397
1.39997
1.3856
1.37086
1.35577
1.34035
1.32462
1.30858
1.29223
1.2756
1.25867
1.24146
1.22396
1.20618
1.18812
1.16979
1.15121
1.13239
1.11333
1.09404
1.07452
1.05478
1.03482
1.01468
0.994339
0.973822
0.953132
0.932283
0.911287
0.890155
0.868901
0.847537
0.826076
0.80453
0.782916
0.761248
0.739542
0.717814
0.696082
0.674362
0.652668
0.631017
0.609419
0.587888
0.566437
0.545084
0.523805
0.502137
0.476396
0.42254
0.474336
0.475603
0.448294
0.43287
0.416437
0.398023
0.374218
0.313695
0.288117
0.271984
0.253226
0.22618
0.209162
0.196609
0.187921
0.192147
0.183888
0.159762
0.143925
0.132356
0.122285
0.112631
0.103107
0.09371
0.0845181
0.0756199
0.0670929
0.0589982
0.0513798
0.0442641
0.037663
0.0316002
0.0261196
0.0212043
0.0169595
0.0135076
0.0112594
0.0143703
0.0414527
0.0284387
0.0310593
0.0365439
0.0432233
0.0506698
0.0586934
0.0672003
0.0761418
0.0854917
0.0952503
0.105451
0.116199
0.127739
0.140536
0.155497
0.177307
0.195836
0.212738
0.229345
0.245981
0.262553
0.275407
0.29484
0.314452
0.32889
0.346982
0.36664
0.389501
0.410617
0.431672
0.453513
0.476255
0.499787
0.523963
0.548658
0.57377
0.599216
0.624926
0.650842
0.676906
0.703068
0.729276
0.755482
0.781639
0.807701
0.833624
0.859366
0.884887
0.910147
0.935108
0.959736
0.983995
1.00785
1.03128
1.05424
1.07671
1.09866
1.12007
1.14092
1.16118
1.18083
1.19987
1.21826
1.236
1.25308
1.26948
1.28519
1.3002
1.3145
1.32809
1.34095
1.35309
1.3645
1.37518
1.38512
1.39433
1.40281
1.41056
1.4176
1.42391
1.4295
1.43436
1.4385
1.44192
1.44461
1.4466
1.44787
1.44845
1.44834
1.44754
1.44607
1.44393
1.44114
1.43771
1.43365
1.42897
1.42368
1.41781
1.41136
1.40435
1.3968
1.38873
1.38016
1.37109
1.36155
1.35156
1.34114
1.33029
1.31905
1.30743
1.29545
1.28311
1.27043
1.25742
1.24408
1.23043
1.21648
1.20224
1.18773
1.17294
1.15789
1.14257
1.12699
1.11116
1.09509
1.07877
1.06222
1.04544
1.02844
1.01123
0.993805
0.976183
0.958363
0.940353
0.922161
0.903797
0.885272
0.866596
0.847778
0.828827
0.809752
0.790566
0.771278
0.751901
0.732448
0.712934
0.693371
0.673773
0.654155
0.634532
0.614918
0.59533
0.575784
0.5563
0.536898
0.517614
0.498505
0.479677
0.461242
0.442812
0.421262
0.409606
0.396643
0.381369
0.366244
0.350513
0.334362
0.317617
0.297272
0.27966
0.263679
0.247357
0.229856
0.214249
0.199833
0.187266
0.177917
0.165819
0.150214
0.136648
0.125225
0.115015
0.105422
0.0962027
0.0872987
0.0787248
0.0705193
0.0627231
0.055371
0.0484907
0.0421031
0.0362271
0.0308889
0.0261273
0.0219948
0.0186047
0.0162076
0.0157942
0.0252744
0.0414589
0.0284286
0.0310459
0.0365281
0.0432058
0.050651
0.0586735
0.0671796
0.0761203
0.0854697
0.0952281
0.10543
0.116182
0.127731
0.140517
0.155416
0.177463
0.196258
0.213219
0.229846
0.246596
0.263344
0.275198
0.291024
0.308892
0.327484
0.346816
0.366515
0.389383
0.410551
0.431633
0.453482
0.476227
0.499763
0.523942
0.54864
0.573753
0.599201
0.624913
0.65083
0.676897
0.70306
0.729269
0.755476
0.781633
0.807696
0.83362
0.859363
0.884884
0.910145
0.935107
0.959735
0.983995
1.00785
1.03128
1.05424
1.07671
1.09866
1.12007
1.14092
1.16118
1.18084
1.19987
1.21827
1.23601
1.25309
1.26949
1.2852
1.30021
1.31451
1.3281
1.34097
1.35311
1.36452
1.3752
1.38514
1.39435
1.40283
1.41058
1.41762
1.42394
1.42953
1.43439
1.43853
1.44194
1.44464
1.44662
1.4479
1.44848
1.44836
1.44756
1.44609
1.44396
1.44117
1.43773
1.43367
1.42899
1.42371
1.41784
1.41139
1.40438
1.39683
1.38876
1.38018
1.37111
1.36157
1.35159
1.34117
1.33033
1.31909
1.30747
1.29549
1.28314
1.27046
1.25744
1.2441
1.23045
1.2165
1.20227
1.18776
1.17297
1.15792
1.14259
1.12701
1.11119
1.09511
1.0788
1.06225
1.04547
1.02847
1.01125
0.993833
0.976208
0.958385
0.940372
0.922182
0.903822
0.885301
0.866626
0.847805
0.828849
0.809772
0.790584
0.771299
0.751925
0.732473
0.712958
0.693392
0.673792
0.654174
0.634551
0.614938
0.595351
0.575804
0.556318
0.536916
0.517632
0.498525
0.479704
0.461286
0.442855
0.421056
0.409573
0.396904
0.381589
0.366397
0.350654
0.334522
0.317786
0.297277
0.279522
0.263515
0.247188
0.229681
0.214029
0.199557
0.187059
0.17776
0.165722
0.150227
0.136705
0.12527
0.11504
0.105434
0.0962094
0.0873029
0.0787278
0.0705219
0.0627255
0.0553734
0.048493
0.0421051
0.0362287
0.03089
0.026128
0.0219951
0.0186049
0.0162077
0.0157954
0.0252739
0.056854
0.0370033
0.0377798
0.0424217
0.0486928
0.0559627
0.0639615
0.0725489
0.0816471
0.0912188
0.101261
0.111812
0.122968
0.134894
0.147755
0.16159
0.176792
0.192309
0.208193
0.224438
0.241053
0.258129
0.275298
0.293531
0.312453
0.331534
0.351418
0.371808
0.392792
0.413985
0.435608
0.457854
0.480776
0.504346
0.528496
0.553148
0.578224
0.603655
0.629375
0.655323
0.681444
0.707682
0.733986
0.760305
0.78659
0.812796
0.838876
0.864787
0.890488
0.915938
0.941098
0.965931
0.990402
1.01448
1.03812
1.06131
1.08401
1.10619
1.12783
1.14891
1.1694
1.18929
1.20856
1.22718
1.24515
1.26245
1.27906
1.29499
1.31021
1.32472
1.3385
1.35157
1.3639
1.37549
1.38635
1.39647
1.40585
1.41449
1.42239
1.42956
1.436
1.4417
1.44668
1.45092
1.45444
1.45723
1.45931
1.46067
1.46133
1.4613
1.46057
1.45917
1.4571
1.45437
1.451
1.44698
1.44235
1.43711
1.43127
1.42486
1.41788
1.41036
1.40231
1.39375
1.38469
1.37515
1.36516
1.35473
1.34387
1.33262
1.32098
1.30896
1.29659
1.28387
1.27081
1.25742
1.24372
1.22972
1.21543
1.20085
1.186
1.17087
1.15548
1.13982
1.12392
1.10776
1.09137
1.07473
1.05787
1.04078
1.02347
1.00596
0.98824
0.97032
0.952209
0.933915
0.91545
0.896821
0.878037
0.859106
0.840038
0.820845
0.801539
0.78213
0.76263
0.743052
0.723409
0.703715
0.683985
0.664233
0.644477
0.62473
0.60501
0.585336
0.565732
0.546223
0.526845
0.507649
0.488718
0.470158
0.45197
0.433601
0.416334
0.399403
0.382554
0.36577
0.348963
0.332221
0.315591
0.298698
0.282214
0.266243
0.250551
0.234957
0.21989
0.205259
0.19133
0.178504
0.165652
0.152527
0.140202
0.128868
0.118318
0.108343
0.0988294
0.0897349
0.0810565
0.0728088
0.065012
0.0576859
0.0508491
0.0445202
0.0387222
0.0334883
0.0288709
0.024956
0.0219093
0.0201326
0.0211173
0.0366111
0.0568632
0.0369908
0.0377649
0.0424049
0.0486744
0.0559428
0.0639404
0.0725265
0.0816238
0.0911944
0.101235
0.111785
0.122941
0.134866
0.147719
0.161533
0.176786
0.192372
0.208286
0.224562
0.241251
0.258452
0.275601
0.293534
0.312244
0.33161
0.35156
0.37188
0.392815
0.413984
0.435594
0.457834
0.480756
0.504327
0.528479
0.553133
0.578212
0.603645
0.629367
0.655317
0.681439
0.707679
0.733984
0.760304
0.786591
0.812797
0.838879
0.864791
0.890493
0.915944
0.941105
0.965939
0.990411
1.01449
1.03813
1.06132
1.08402
1.1062
1.12785
1.14893
1.16942
1.18931
1.20858
1.2272
1.24517
1.26247
1.27909
1.29501
1.31023
1.32474
1.33853
1.3516
1.36393
1.37552
1.38638
1.3965
1.40588
1.41452
1.42243
1.4296
1.43604
1.44174
1.44671
1.45096
1.45447
1.45727
1.45934
1.46071
1.46137
1.46134
1.46061
1.45921
1.45714
1.45442
1.45104
1.44703
1.4424
1.43716
1.43133
1.42491
1.41793
1.4104
1.40235
1.39378
1.38473
1.37519
1.36521
1.35478
1.34393
1.33267
1.32103
1.30901
1.29663
1.2839
1.27084
1.25746
1.24377
1.22977
1.21548
1.2009
1.18604
1.17091
1.15552
1.13986
1.12396
1.1078
1.09141
1.07477
1.05791
1.04082
1.02352
1.006
0.988279
0.970358
0.952247
0.933955
0.915491
0.896862
0.878076
0.859143
0.840073
0.82088
0.801574
0.782166
0.762667
0.743088
0.723443
0.703747
0.684016
0.664265
0.644508
0.624761
0.60504
0.585365
0.56576
0.546251
0.526873
0.507677
0.488745
0.470186
0.451991
0.433554
0.41631
0.399446
0.382615
0.365841
0.349047
0.332319
0.315694
0.298761
0.282241
0.266259
0.250553
0.23494
0.219852
0.205205
0.191306
0.178519
0.165696
0.152589
0.140256
0.128904
0.118339
0.108355
0.0988372
0.0897406
0.0810613
0.0728133
0.0650163
0.0576901
0.0508529
0.0445236
0.0387249
0.0334905
0.0288726
0.0249572
0.0219101
0.0201334
0.0211194
0.0366107
0.0741185
0.0477925
0.0470113
0.0512317
0.0575566
0.0651334
0.0735921
0.0827346
0.0924463
0.102665
0.113369
0.124575
0.136338
0.148746
0.161875
0.175718
0.190272
0.205413
0.22115
0.237464
0.254339
0.271794
0.289805
0.308481
0.32782
0.347779
0.368384
0.38954
0.411198
0.433311
0.455922
0.479086
0.502825
0.527128
0.551958
0.577264
0.60299
0.629077
0.655466
0.682101
0.708925
0.735885
0.762927
0.79
0.817054
0.844041
0.870913
0.897626
0.924136
0.950401
0.976381
1.00204
1.02733
1.05223
1.07669
1.10069
1.1242
1.14719
1.16963
1.19149
1.21276
1.23342
1.25343
1.27279
1.29148
1.30949
1.32679
1.34338
1.35925
1.37439
1.38878
1.40243
1.41533
1.42747
1.43884
1.44946
1.45931
1.46839
1.47671
1.48427
1.49106
1.4971
1.50238
1.5069
1.51067
1.5137
1.51598
1.51753
1.51835
1.51845
1.51783
1.51652
1.51451
1.51182
1.50846
1.50444
1.49978
1.49448
1.48857
1.48206
1.47496
1.46729
1.45907
1.45031
1.44105
1.43129
1.42105
1.41035
1.39921
1.38765
1.37568
1.36331
1.35057
1.33747
1.32401
1.31021
1.29608
1.28163
1.26688
1.25182
1.23647
1.22083
1.20492
1.18873
1.17228
1.15556
1.13859
1.12137
1.10391
1.08622
1.06829
1.05015
1.03179
1.01321
0.994443
0.975481
0.956336
0.937019
0.917537
0.8979
0.878119
0.858204
0.838169
0.818025
0.797783
0.777458
0.757063
0.736613
0.716124
0.69561
0.675089
0.654577
0.634094
0.613659
0.593298
0.573038
0.55291
0.532953
0.513216
0.493756
0.474601
0.455652
0.436996
0.418566
0.400334
0.382273
0.364377
0.346687
0.329242
0.312006
0.295066
0.27849
0.262288
0.24644
0.231011
0.215995
0.201467
0.187554
0.174108
0.161082
0.148672
0.136943
0.125846
0.115311
0.105289
0.0957531
0.086697
0.0781239
0.0700421
0.0624625
0.0553982
0.0488667
0.0428943
0.0375226
0.0328194
0.0289005
0.0259928
0.0246567
0.0269496
0.0481584
0.0741309
0.0477793
0.0469952
0.0512134
0.0575364
0.0651114
0.0735685
0.0827096
0.09242
0.102637
0.11334
0.124545
0.136307
0.148714
0.161841
0.175678
0.190239
0.205396
0.221144
0.237471
0.254372
0.271871
0.289911
0.308577
0.327899
0.347871
0.368462
0.389584
0.411214
0.433308
0.455908
0.479066
0.502804
0.527107
0.551939
0.577247
0.602975
0.629063
0.655455
0.682091
0.708918
0.735879
0.762923
0.789997
0.817052
0.84404
0.870914
0.897628
0.924139
0.950405
0.976386
1.00204
1.02734
1.05223
1.0767
1.1007
1.12421
1.1472
1.16964
1.19151
1.21278
1.23343
1.25345
1.27281
1.2915
1.30951
1.32681
1.34341
1.35928
1.37441
1.38881
1.40246
1.41536
1.4275
1.43887
1.44949
1.45934
1.46842
1.47674
1.4843
1.4911
1.49714
1.50242
1.50694
1.51071
1.51374
1.51602
1.51757
1.51839
1.51849
1.51788
1.51656
1.51456
1.51187
1.50851
1.50449
1.49983
1.49453
1.48862
1.4821
1.475
1.46733
1.45912
1.45036
1.4411
1.43133
1.4211
1.4104
1.39926
1.3877
1.37572
1.36336
1.35062
1.33751
1.32406
1.31026
1.29613
1.28168
1.26692
1.25187
1.23652
1.22088
1.20497
1.18878
1.17232
1.15561
1.13864
1.12142
1.10396
1.08626
1.06834
1.05019
1.03183
1.01326
0.994487
0.975524
0.956379
0.93706
0.917577
0.897939
0.878157
0.858243
0.838208
0.818064
0.797821
0.777495
0.757099
0.736649
0.716159
0.695645
0.675123
0.65461
0.634126
0.613691
0.59333
0.573069
0.55294
0.532981
0.513243
0.493781
0.474625
0.45566
0.437
0.418579
0.400353
0.382298
0.364409
0.346726
0.329286
0.312044
0.295097
0.27852
0.262315
0.246461
0.231026
0.216005
0.201482
0.187582
0.174145
0.16112
0.148703
0.136965
0.125861
0.115321
0.105296
0.0957592
0.0867025
0.0781292
0.0700473
0.0624674
0.0554026
0.0488705
0.0428975
0.0375253
0.0328215
0.0289022
0.0259941
0.024658
0.0269525
0.0481585
0.0938218
0.0609404
0.0585564
0.0625411
0.0691731
0.0773335
0.0865314
0.0965
0.10708
0.118178
0.129748
0.141782
0.154305
0.167363
0.181001
0.195236
0.210069
0.225494
0.241528
0.258179
0.275455
0.293365
0.311917
0.331133
0.351021
0.371579
0.392795
0.414629
0.437042
0.460007
0.483518
0.507581
0.532193
0.557337
0.582985
0.609095
0.635622
0.662514
0.689718
0.717182
0.74485
0.772669
0.800586
0.828549
0.856507
0.884411
0.912212
0.939865
0.967322
0.994542
1.02148
1.0481
1.07436
1.10022
1.12565
1.15061
1.17508
1.19901
1.22239
1.24519
1.26738
1.28894
1.30985
1.33009
1.34964
1.36849
1.38661
1.40401
1.42066
1.43656
1.45169
1.46605
1.47963
1.49243
1.50445
1.51567
1.52609
1.53573
1.54456
1.55261
1.55985
1.56631
1.57198
1.57687
1.58097
1.58429
1.58684
1.58863
1.58966
1.58994
1.58947
1.58827
1.58636
1.58372
1.58039
1.57638
1.57168
1.56633
1.56033
1.5537
1.54645
1.53861
1.53019
1.52122
1.5117
1.50166
1.49112
1.4801
1.4686
1.45666
1.44428
1.43149
1.41829
1.40471
1.39076
1.37644
1.36177
1.34676
1.33142
1.31576
1.29979
1.28351
1.26694
1.25007
1.23292
1.2155
1.1978
1.17984
1.16162
1.14314
1.12443
1.10548
1.0863
1.06689
1.04728
1.02746
1.00744
0.987242
0.966867
0.946326
0.925631
0.904792
0.883823
0.862735
0.841544
0.820262
0.798904
0.777485
0.756022
0.734531
0.71303
0.691536
0.67007
0.648654
0.627311
0.606068
0.584953
0.563997
0.543231
0.522688
0.502389
0.482321
0.46248
0.442855
0.423446
0.404258
0.385307
0.366621
0.348233
0.330155
0.312416
0.29505
0.278084
0.261538
0.245435
0.229791
0.214636
0.200015
0.185934
0.172402
0.159464
0.147139
0.135413
0.124262
0.11366
0.103594
0.0940543
0.0850396
0.0765516
0.0685954
0.061181
0.0543257
0.0480594
0.0424319
0.0375268
0.0334906
0.0306144
0.0296228
0.0331507
0.0597703
0.0938359
0.0609263
0.0585385
0.0625206
0.0691503
0.0773086
0.0865047
0.0964716
0.10705
0.118147
0.129715
0.141748
0.15427
0.167328
0.180966
0.1952
0.210034
0.225462
0.241499
0.258155
0.275438
0.293361
0.311926
0.331149
0.351039
0.371598
0.392808
0.414632
0.437035
0.459991
0.483497
0.507557
0.532168
0.557313
0.582962
0.609074
0.635602
0.662496
0.689702
0.717168
0.744837
0.772658
0.800576
0.828541
0.8565
0.884406
0.912208
0.939862
0.967321
0.994542
1.02148
1.0481
1.07436
1.10023
1.12566
1.15062
1.17509
1.19902
1.2224
1.2452
1.26739
1.28896
1.30987
1.33011
1.34966
1.36851
1.38664
1.40403
1.42068
1.43658
1.45172
1.46608
1.47966
1.49246
1.50447
1.5157
1.52612
1.53576
1.5446
1.55264
1.55989
1.56635
1.57202
1.5769
1.581
1.58433
1.58688
1.58867
1.5897
1.58998
1.58951
1.58832
1.5864
1.58377
1.58044
1.57642
1.57172
1.56637
1.56037
1.55374
1.5465
1.53866
1.53025
1.52127
1.51175
1.50171
1.49116
1.48014
1.46864
1.4567
1.44433
1.43154
1.41834
1.40476
1.3908
1.37648
1.36181
1.3468
1.33147
1.31581
1.29984
1.28356
1.26698
1.25012
1.23297
1.21554
1.19784
1.17988
1.16166
1.14319
1.12447
1.10552
1.08634
1.06694
1.04732
1.0275
1.00748
0.987282
0.966907
0.946366
0.92567
0.904831
0.883861
0.862773
0.841581
0.820299
0.79894
0.777521
0.756057
0.734566
0.713063
0.691569
0.670103
0.648686
0.627343
0.606098
0.584982
0.564025
0.543258
0.522713
0.502412
0.48234
0.462496
0.442871
0.423462
0.404276
0.385327
0.366644
0.348257
0.330178
0.312438
0.295071
0.278106
0.261558
0.245454
0.229809
0.214652
0.200034
0.185955
0.172422
0.159481
0.147153
0.135424
0.12427
0.113668
0.1036
0.0940603
0.0850453
0.0765571
0.0686006
0.0611856
0.0543298
0.0480629
0.0424348
0.0375292
0.0334925
0.030616
0.0296245
0.0331546
0.0597707
0.116454
0.0764191
0.0723877
0.0762468
0.0833604
0.0923011
0.102436
0.113418
0.125037
0.137165
0.149729
0.162701
0.176086
0.189909
0.204206
0.219007
0.234339
0.250225
0.266694
0.283771
0.301479
0.319837
0.338859
0.358559
0.378946
0.40002
0.421772
0.444182
0.467223
0.490872
0.515108
0.539918
0.565282
0.591178
0.617573
0.644431
0.671709
0.699359
0.727333
0.755577
0.784041
0.81267
0.841413
0.870217
0.899032
0.927806
0.95649
0.985037
1.0134
1.04153
1.0694
1.09694
1.12413
1.15093
1.17729
1.20319
1.22859
1.25345
1.27776
1.30147
1.32457
1.34703
1.36883
1.38995
1.41036
1.43005
1.44901
1.46722
1.48466
1.50133
1.51721
1.5323
1.54659
1.56006
1.57273
1.58458
1.59561
1.60581
1.6152
1.62375
1.63148
1.63839
1.64448
1.64975
1.65421
1.65787
1.66072
1.66277
1.66404
1.66452
1.66424
1.66318
1.66138
1.65883
1.65555
1.65156
1.64686
1.64146
1.6354
1.62867
1.6213
1.61331
1.60471
1.59552
1.58576
1.57545
1.56461
1.55326
1.54142
1.52909
1.51631
1.50309
1.48944
1.47537
1.46091
1.44606
1.43084
1.41525
1.39932
1.38304
1.36642
1.34948
1.33223
1.31466
1.29679
1.27862
1.26016
1.24142
1.2224
1.20312
1.18358
1.16378
1.14374
1.12347
1.10296
1.08224
1.06131
1.04018
1.01887
0.997375
0.975715
0.953902
0.931948
0.909867
0.887674
0.865382
0.843008
0.820567
0.798076
0.775553
0.753015
0.730484
0.707978
0.68552
0.663133
0.640842
0.618674
0.596655
0.57481
0.553162
0.531728
0.510518
0.489534
0.468782
0.448272
0.428019
0.408044
0.388375
0.369038
0.350055
0.331451
0.31325
0.295477
0.278156
0.261307
0.244952
0.229112
0.213812
0.199072
0.18491
0.171345
0.158386
0.14603
0.134266
0.123082
0.112468
0.102416
0.092921
0.0839809
0.0755978
0.0677796
0.060544
0.0539246
0.0479799
0.0428097
0.0385919
0.0356834
0.034974
0.0396662
0.0716455
0.116466
0.0764021
0.0723668
0.0762232
0.0833342
0.0922727
0.102406
0.113386
0.125003
0.137129
0.149692
0.162663
0.176046
0.189869
0.204166
0.218968
0.2343
0.250187
0.266658
0.283737
0.301447
0.319808
0.338835
0.358539
0.378928
0.400003
0.421754
0.444162
0.4672
0.490846
0.51508
0.539889
0.565253
0.59115
0.617546
0.644406
0.671685
0.699337
0.727312
0.755558
0.784024
0.812655
0.841399
0.870205
0.899021
0.927796
0.956482
0.985031
1.0134
1.04153
1.06939
1.09694
1.12413
1.15093
1.1773
1.2032
1.2286
1.25346
1.27777
1.30148
1.32459
1.34705
1.36885
1.38996
1.41038
1.43007
1.44903
1.46724
1.48468
1.50135
1.51723
1.53232
1.54661
1.56009
1.57276
1.58461
1.59564
1.60584
1.61523
1.62378
1.63151
1.63842
1.64451
1.64979
1.65425
1.6579
1.66076
1.66281
1.66408
1.66456
1.66428
1.66322
1.66142
1.65887
1.6556
1.6516
1.6469
1.64151
1.63544
1.62872
1.62135
1.61336
1.60475
1.59556
1.5858
1.57549
1.56465
1.5533
1.54146
1.52914
1.51636
1.50314
1.48948
1.47542
1.46095
1.44611
1.43088
1.4153
1.39936
1.38308
1.36647
1.34953
1.33227
1.3147
1.29683
1.27866
1.2602
1.24146
1.22245
1.20316
1.18362
1.16383
1.14379
1.12351
1.10301
1.08228
1.06135
1.04022
1.01891
0.997414
0.975754
0.95394
0.931985
0.909904
0.887711
0.865419
0.843044
0.820602
0.79811
0.775586
0.753049
0.730517
0.70801
0.685551
0.663163
0.640871
0.618703
0.596683
0.574836
0.553187
0.531751
0.510539
0.489554
0.468801
0.44829
0.428037
0.408063
0.388394
0.369057
0.350075
0.33147
0.313268
0.295495
0.278173
0.261324
0.244968
0.229127
0.213826
0.199086
0.184924
0.171358
0.158397
0.14604
0.134275
0.12309
0.112475
0.102422
0.092927
0.0839867
0.0756032
0.0677845
0.0605483
0.0539284
0.0479832
0.0428124
0.0385941
0.0356853
0.0349763
0.0396712
0.0716452
0.142663
0.0943995
0.0885583
0.0923621
0.100104
0.109993
0.121231
0.133378
0.146167
0.159434
0.173082
0.187064
0.201372
0.216023
0.231049
0.24649
0.262385
0.278776
0.295705
0.313209
0.331323
0.350076
0.369491
0.389586
0.410372
0.431854
0.454027
0.476881
0.500397
0.524553
0.549329
0.5747
0.600642
0.627127
0.65412
0.681583
0.709476
0.737752
0.766362
0.795258
0.824387
0.853698
0.883138
0.912655
0.942198
0.971715
1.00116
1.03048
1.05962
1.08855
1.11722
1.14558
1.17359
1.20121
1.22841
1.25514
1.28137
1.30707
1.33221
1.35675
1.38068
1.40396
1.42657
1.44849
1.46969
1.49017
1.50989
1.52885
1.54703
1.56442
1.58101
1.59678
1.61174
1.62586
1.63915
1.6516
1.6632
1.67396
1.68387
1.69292
1.70113
1.70848
1.71499
1.72065
1.72547
1.72945
1.73261
1.73494
1.73645
1.73715
1.73705
1.73616
1.73449
1.73204
1.72884
1.72489
1.7202
1.71479
1.70868
1.70189
1.69442
1.68629
1.67754
1.66816
1.65819
1.64764
1.63654
1.62489
1.61272
1.60005
1.58689
1.57326
1.55918
1.54466
1.52972
1.51437
1.49862
1.48249
1.46598
1.4491
1.43187
1.41429
1.39638
1.37813
1.35956
1.34067
1.32148
1.30199
1.2822
1.26213
1.24178
1.22116
1.20029
1.17916
1.15779
1.13619
1.11436
1.09233
1.07009
1.04767
1.02507
1.0023
0.979385
0.956333
0.933159
0.90988
0.886511
0.863069
0.839571
0.816037
0.792486
0.768937
0.74541
0.721929
0.698517
0.675198
0.651996
0.628937
0.606044
0.583336
0.560834
0.538553
0.516506
0.494709
0.473177
0.451931
0.430994
0.410391
0.390149
0.370293
0.350845
0.33183
0.31327
0.295188
0.277606
0.260544
0.244022
0.228059
0.212675
0.197886
0.183704
0.170137
0.157185
0.144844
0.133107
0.121965
0.111411
0.101437
0.0920398
0.0832186
0.0749801
0.0673432
0.0603453
0.0540537
0.0485851
0.0441494
0.0411708
0.0407057
0.046517
0.0836288
0.14267
0.0943778
0.0885336
0.0923343
0.100074
0.109961
0.121196
0.133341
0.146129
0.159394
0.17304
0.187021
0.201328
0.215979
0.231005
0.246445
0.262341
0.278733
0.295663
0.313168
0.331283
0.350038
0.369455
0.389551
0.410339
0.431822
0.453996
0.476849
0.500365
0.52452
0.549295
0.574667
0.60061
0.627095
0.654089
0.681555
0.709449
0.737726
0.766338
0.795236
0.824367
0.853679
0.883121
0.912639
0.942184
0.971703
1.00115
1.03047
1.05962
1.08855
1.11721
1.14558
1.17359
1.20121
1.22841
1.25514
1.28138
1.30708
1.33222
1.35676
1.38069
1.40397
1.42658
1.4485
1.46971
1.49018
1.50991
1.52887
1.54705
1.56444
1.58103
1.59681
1.61176
1.62589
1.63918
1.65163
1.66323
1.67399
1.6839
1.69295
1.70116
1.70851
1.71502
1.72068
1.7255
1.72949
1.73264
1.73497
1.73649
1.73719
1.73709
1.7362
1.73453
1.73209
1.72888
1.72493
1.72024
1.71484
1.70873
1.70193
1.69446
1.68634
1.67758
1.66821
1.65823
1.64769
1.63658
1.62493
1.61276
1.60009
1.58693
1.57331
1.55923
1.54471
1.52977
1.51442
1.49867
1.48253
1.46602
1.44914
1.43192
1.41434
1.39642
1.37818
1.3596
1.34071
1.32152
1.30203
1.28224
1.26217
1.24182
1.22121
1.20033
1.1792
1.15783
1.13623
1.1144
1.09237
1.07013
1.04771
1.02511
1.00234
0.979423
0.95637
0.933196
0.909916
0.886546
0.863103
0.839605
0.816071
0.792519
0.768969
0.745442
0.72196
0.698547
0.675227
0.652025
0.628965
0.60607
0.583361
0.560858
0.538575
0.516528
0.49473
0.473198
0.451951
0.431013
0.410411
0.390169
0.370312
0.350864
0.331848
0.313288
0.295205
0.277622
0.260559
0.244036
0.228073
0.212688
0.197898
0.183715
0.170147
0.157195
0.144853
0.133115
0.121972
0.111417
0.101444
0.092046
0.0832244
0.0749854
0.0673479
0.0603494
0.0540573
0.0485881
0.044152
0.0411732
0.0407087
0.0465234
0.0836279
0.171051
0.114696
0.107069
0.110938
0.119474
0.130484
0.142983
0.156432
0.170506
0.185002
0.199801
0.214843
0.23011
0.245616
0.261395
0.277492
0.293958
0.310848
0.328215
0.346108
0.364572
0.383647
0.403365
0.42375
0.44482
0.466584
0.489045
0.512196
0.536025
0.560514
0.585643
0.611387
0.637719
0.664607
0.692016
0.719909
0.748243
0.776974
0.806053
0.835432
0.865061
0.894887
0.924859
0.954924
0.985032
1.01513
1.04517
1.0751
1.10487
1.13444
1.16376
1.19278
1.22147
1.24977
1.27765
1.30508
1.33201
1.35841
1.38425
1.4095
1.43413
1.45811
1.48142
1.50403
1.52593
1.54708
1.56748
1.5871
1.60593
1.62396
1.64117
1.65755
1.6731
1.6878
1.70165
1.71464
1.72677
1.73803
1.74842
1.75793
1.76657
1.77434
1.78123
1.78726
1.79242
1.79672
1.80016
1.80276
1.80451
1.80542
1.80551
1.80478
1.80325
1.80091
1.79779
1.79389
1.78924
1.78384
1.7777
1.77086
1.76331
1.75509
1.7462
1.73667
1.72651
1.71576
1.70442
1.69251
1.68005
1.66706
1.65357
1.63957
1.6251
1.61017
1.59479
1.57898
1.56275
1.54611
1.52907
1.51164
1.49384
1.47567
1.45714
1.43826
1.41904
1.39948
1.3796
1.35941
1.3389
1.31809
1.29699
1.2756
1.25394
1.23201
1.20983
1.1874
1.16474
1.14185
1.11876
1.09546
1.07197
1.04831
1.02449
1.00053
0.976432
0.952224
0.92792
0.903538
0.879095
0.854612
0.830107
0.805602
0.781117
0.756675
0.7323
0.708016
0.683846
0.659816
0.635948
0.612263
0.588784
0.565531
0.542522
0.519777
0.497318
0.475168
0.453351
0.431893
0.410819
0.390156
0.369926
0.350153
0.33086
0.312069
0.293802
0.276078
0.258917
0.242335
0.226351
0.210977
0.196225
0.182101
0.168607
0.155741
0.143496
0.131865
0.12084
0.110413
0.100576
0.091328
0.0826749
0.0746366
0.0672549
0.060606
0.0548239
0.0501519
0.0470827
0.0468402
0.0537371
0.0957292
0.171063
0.114673
0.10704
0.110905
0.119439
0.130446
0.142943
0.156391
0.170462
0.184956
0.199754
0.214794
0.230061
0.245567
0.261345
0.277442
0.293909
0.3108
0.328167
0.346061
0.364526
0.383602
0.403321
0.423708
0.444779
0.466544
0.489005
0.512157
0.535987
0.560477