/*--------------------------------*- C++ -*----------------------------------*\
  =========                 |
  \\      /  F ield         | OpenFOAM: The Open Source CFD Toolbox
   \\    /   O peration     | Website:  https://openfoam.org
    \\  /    A nd           | Version:  8
     \\/     M anipulation  |
\*---------------------------------------------------------------------------*/
FoamFile
{
    version     2.0;
    format      ascii;
    class       surfaceScalarField;
    location    "200";
    object      phi;
}
// * * * * * * * * * * * * * * * * * * * * * * * * * * * * * * * * * * * * * //

dimensions      [1 0 -1 0 0 0 0];

internalField   nonuniform List<scalar> 
119360
(
-6.95759e-08
-3.64494e-11
6.96124e-08
-1.23737e-07
-8.00046e-12
5.46025e-08
-1.4989e-07
-9.57099e-12
2.62635e-08
-1.48393e-07
-1.03577e-11
-1.45177e-09
-1.24966e-07
-5.13821e-12
-2.33977e-08
-8.55754e-08
1.52168e-12
-3.93814e-08
-3.50194e-08
5.33085e-12
-5.05815e-08
2.29942e-08
5.65681e-12
-5.80663e-08
8.55617e-08
5.14666e-12
-6.26176e-08
1.50512e-07
6.67056e-12
-6.49744e-08
2.16191e-07
8.78164e-12
-6.56823e-08
2.81274e-07
7.23899e-12
-6.50807e-08
3.44937e-07
-2.15882e-13
-6.36561e-08
4.07467e-07
-1.25993e-11
-6.25093e-08
4.71136e-07
-2.66031e-11
-6.3606e-08
5.34164e-07
-4.43361e-11
-6.29024e-08
5.88283e-07
-7.52857e-11
-5.39313e-08
6.42528e-07
-1.337e-10
-5.39886e-08
6.98519e-07
-2.37404e-10
-5.56375e-08
7.48885e-07
-4.09638e-10
-4.9841e-08
7.98529e-07
-7.21399e-10
-4.87904e-08
8.44302e-07
-1.44921e-09
-4.41669e-08
8.98144e-07
-1.72207e-09
-5.1921e-08
9.3407e-07
-1.49091e-09
-3.41922e-08
9.77983e-07
1.61854e-09
-4.53758e-08
1.02447e-06
3.07919e-09
-4.94761e-08
1.05776e-06
1.39317e-09
-3.45875e-08
1.09392e-06
5.88454e-10
-3.66716e-08
1.13558e-06
2.54886e-10
-4.1857e-08
1.17467e-06
1.21328e-10
-3.92015e-08
1.21087e-06
4.68948e-11
-3.63038e-08
1.24489e-06
-1.32438e-12
-3.41298e-08
1.27748e-06
-3.04285e-11
-3.27022e-08
1.3089e-06
-4.50608e-11
-3.15009e-08
1.33919e-06
-5.09934e-11
-3.03482e-08
1.36837e-06
-5.30082e-11
-2.92298e-08
1.39647e-06
-5.33404e-11
-2.81278e-08
1.42348e-06
-5.3825e-11
-2.70363e-08
1.44943e-06
-5.40104e-11
-2.59578e-08
1.47435e-06
-5.2282e-11
-2.48953e-08
1.49825e-06
-4.86605e-11
-2.38561e-08
1.52115e-06
-4.39727e-11
-2.28454e-08
1.54306e-06
-3.94744e-11
-2.18653e-08
1.56401e-06
-3.60265e-11
-2.09161e-08
1.58405e-06
-3.36719e-11
-1.99966e-08
1.60321e-06
-3.24625e-11
-1.91044e-08
1.62152e-06
-3.15394e-11
-1.82336e-08
1.639e-06
-2.91047e-11
-1.73777e-08
1.65567e-06
-2.47908e-11
-1.65367e-08
1.67155e-06
-1.97254e-11
-1.57151e-08
1.68664e-06
-1.43406e-11
-1.49131e-08
1.70097e-06
-8.28077e-12
-1.41256e-08
1.71453e-06
-1.64296e-12
-1.33498e-08
1.72732e-06
5.0917e-12
-1.25868e-08
1.73934e-06
1.14156e-11
-1.18391e-08
1.7506e-06
1.65569e-11
-1.11099e-08
1.76111e-06
1.99158e-11
-1.04022e-08
1.7709e-06
2.17066e-11
-9.71772e-09
1.77999e-06
2.24076e-11
-9.0582e-09
1.78842e-06
2.21559e-11
-8.42618e-09
1.79623e-06
2.13635e-11
-7.82234e-09
1.80345e-06
2.10439e-11
-7.24373e-09
1.81013e-06
2.18869e-11
-6.68636e-09
1.8163e-06
2.3798e-11
-6.14743e-09
1.82196e-06
2.65776e-11
-5.62433e-09
1.82712e-06
3.02281e-11
-5.11402e-09
1.83179e-06
3.45333e-11
-4.61444e-09
1.83596e-06
3.90791e-11
-4.12518e-09
1.83963e-06
4.3598e-11
-3.64671e-09
1.8428e-06
4.76545e-11
-3.18094e-09
1.84548e-06
5.02668e-11
-2.73226e-09
1.84769e-06
5.05876e-11
-2.30563e-09
1.84946e-06
4.88923e-11
-1.90286e-09
1.85082e-06
4.64801e-11
-1.52136e-09
1.85183e-06
4.47422e-11
-1.15602e-09
1.8525e-06
4.45954e-11
-8.01015e-10
1.85286e-06
4.6404e-11
-4.50698e-10
1.85289e-06
4.98028e-11
-1.01167e-10
1.85258e-06
5.35637e-11
2.49248e-10
1.85192e-06
5.62428e-11
5.9785e-10
1.8509e-06
5.71077e-11
9.39774e-10
1.84953e-06
5.61828e-11
1.27308e-09
1.84781e-06
5.36018e-11
1.59772e-09
1.84576e-06
4.93573e-11
1.91371e-09
1.84341e-06
4.36585e-11
2.22101e-09
1.84076e-06
3.70921e-11
2.52121e-09
1.83783e-06
3.02889e-11
2.81882e-09
1.83461e-06
2.36037e-11
3.11967e-09
1.83111e-06
1.71099e-11
3.42738e-09
1.82731e-06
1.05841e-11
3.74041e-09
1.8232e-06
3.20949e-12
4.05248e-09
1.81877e-06
-6.46294e-12
4.35624e-09
1.81404e-06
-1.95383e-11
4.64716e-09
1.80903e-06
-3.52831e-11
4.92403e-09
1.80375e-06
-5.08902e-11
5.18718e-09
1.79825e-06
-6.29828e-11
5.43838e-09
1.79253e-06
-6.92436e-11
5.68279e-09
1.78659e-06
-6.87345e-11
5.9286e-09
1.78041e-06
-6.137e-11
6.1826e-09
1.77396e-06
-4.76252e-11
6.44564e-09
1.76723e-06
-2.87539e-11
6.71308e-09
1.76019e-06
-6.98819e-12
6.97882e-09
1.75283e-06
1.45531e-11
7.23756e-09
1.7452e-06
3.19766e-11
7.4837e-09
1.73733e-06
4.08401e-11
7.71038e-09
1.72929e-06
3.73285e-11
7.91213e-09
1.72111e-06
2.06708e-11
8.08826e-09
1.71283e-06
-4.7003e-12
8.24335e-09
1.70445e-06
-2.94407e-11
8.38503e-09
1.69594e-06
-4.26694e-11
8.52157e-09
1.68728e-06
-3.66926e-11
8.66065e-09
1.67842e-06
-1.06041e-11
8.8079e-09
1.66935e-06
2.862e-11
8.96501e-09
1.66009e-06
6.77072e-11
9.12822e-09
1.65065e-06
9.13856e-11
9.28911e-09
1.64106e-06
8.88738e-11
9.43811e-09
1.63138e-06
5.96186e-11
9.56988e-09
1.62162e-06
1.39496e-11
9.68723e-09
1.61179e-06
-3.25912e-11
9.80077e-09
1.60184e-06
-6.68169e-11
9.92484e-09
1.59174e-06
-8.18568e-11
1.00716e-08
1.58147e-06
-7.69577e-11
1.02443e-08
1.57102e-06
-5.63272e-11
1.0432e-08
1.5604e-06
-2.78843e-11
1.06147e-08
1.54958e-06
-3.51275e-13
1.0779e-08
1.53855e-06
2.03689e-11
1.09311e-08
1.52736e-06
3.22447e-11
1.10927e-08
1.51603e-06
3.54206e-11
1.12824e-08
1.50457e-06
3.07178e-11
1.15035e-08
1.49293e-06
1.95806e-11
1.17454e-08
1.48106e-06
4.64218e-12
1.19934e-08
1.46889e-06
-9.65189e-12
1.22375e-08
1.45643e-06
-1.79218e-11
1.24772e-08
1.44373e-06
-1.76305e-11
1.27157e-08
1.43081e-06
-1.19069e-11
1.29547e-08
1.41768e-06
-6.43985e-12
1.31958e-08
1.40432e-06
-3.98154e-12
1.34462e-08
1.39071e-06
-3.3179e-12
1.37138e-08
1.37683e-06
-1.82798e-12
1.4e-08
1.36265e-06
2.03143e-12
1.42992e-08
1.34815e-06
6.69381e-12
1.45999e-08
1.33332e-06
8.44747e-12
1.48898e-08
1.31816e-06
5.92559e-12
1.51666e-08
1.30269e-06
1.17834e-12
1.5439e-08
1.28695e-06
-3.11418e-12
1.57155e-08
1.27092e-06
-3.76371e-12
1.60049e-08
1.25461e-06
1.61332e-12
1.6318e-08
1.238e-06
9.87099e-12
1.66548e-08
1.22104e-06
1.40744e-11
1.69993e-08
1.20373e-06
1.01205e-11
1.7334e-08
1.18605e-06
-1.43618e-12
1.76478e-08
1.16803e-06
-1.5307e-11
1.79375e-08
1.14974e-06
-2.21259e-11
1.82138e-08
1.13122e-06
-1.59361e-11
1.84928e-08
1.1125e-06
-1.30734e-12
1.87688e-08
1.09357e-06
1.14479e-11
1.90106e-08
1.07442e-06
1.43452e-11
1.91742e-08
1.05519e-06
6.80445e-12
1.91994e-08
1.03598e-06
-5.13378e-12
1.91422e-08
1.01648e-06
-1.33177e-11
1.94686e-08
9.95504e-07
-1.43093e-11
2.0998e-08
9.62875e-07
-7.24565e-12
3.26841e-08
9.35701e-07
-4.79894e-13
2.71956e-08
9.18198e-07
2.36561e-12
1.74911e-08
9.05984e-07
-2.80342e-12
1.21742e-08
8.83313e-07
-1.72988e-11
2.26286e-08
8.60853e-07
-1.89917e-11
2.25078e-08
8.35969e-07
-1.1174e-11
2.50302e-08
8.1297e-07
-2.65221e-12
2.31704e-08
7.91039e-07
2.69951e-12
2.20571e-08
7.65342e-07
7.31593e-12
2.57557e-08
7.42677e-07
1.16495e-11
2.26722e-08
7.15947e-07
1.34219e-11
2.67151e-08
6.93697e-07
7.37704e-12
2.22361e-08
6.69501e-07
5.61884e-13
2.41927e-08
6.38211e-07
4.0784e-13
3.1293e-08
6.12391e-07
2.93071e-12
2.58248e-08
5.91534e-07
2.60592e-12
2.0855e-08
5.55944e-07
-8.73748e-14
3.55944e-08
5.21592e-07
2.45132e-12
3.43836e-08
4.91089e-07
3.11562e-12
3.05341e-08
4.58909e-07
1.51101e-12
3.22162e-08
4.24437e-07
-1.30534e-12
3.4507e-08
3.87753e-07
-2.49567e-12
3.67215e-08
3.49015e-07
-3.32623e-13
3.87795e-08
3.08372e-07
3.43403e-12
4.06823e-08
2.65956e-07
5.51981e-12
4.24342e-08
2.21918e-07
3.83882e-12
4.40203e-08
1.76475e-07
-5.65103e-13
4.53964e-08
1.29965e-07
-3.93352e-12
4.64652e-08
8.29161e-08
-2.55274e-12
4.70372e-08
3.61671e-08
3.90987e-12
4.67794e-08
-8.89804e-09
1.06923e-11
4.51058e-08
-4.99177e-08
1.21916e-11
4.1019e-08
-8.34765e-08
8.11462e-12
3.34905e-08
-1.05088e-07
1.18683e-12
2.14891e-08
-1.09358e-07
-6.18972e-12
4.13177e-09
-9.14438e-08
-1.11267e-11
-1.80224e-08
-5.1151e-08
-1.19407e-11
-4.03407e-08
-7.74981e-12
-5.11255e-08
-6.94865e-08
6.96751e-08
-1.23727e-07
5.45775e-08
-1.49872e-07
2.62221e-08
-1.4834e-07
-1.48203e-09
-1.24883e-07
-2.34122e-08
-8.54789e-08
-3.93874e-08
-3.49228e-08
-5.05858e-08
2.30871e-08
-5.80692e-08
8.56553e-08
-6.26132e-08
1.50605e-07
-6.49635e-08
2.16272e-07
-6.56744e-08
2.81339e-07
-6.50852e-08
3.44993e-07
-6.368e-08
4.07533e-07
-6.25501e-08
4.71217e-07
-6.36491e-08
5.3423e-07
-6.29413e-08
5.88239e-07
-5.39372e-08
6.42218e-07
-5.39586e-08
6.97652e-07
-5.55099e-08
7.46476e-07
-4.905e-08
7.93122e-07
-4.71602e-08
8.424e-07
-5.04936e-08
8.92567e-07
-5.16061e-08
9.32853e-07
-4.14775e-08
9.74925e-07
-4.02224e-08
1.01574e-06
-3.75509e-08
1.05307e-06
-3.57662e-08
1.09176e-06
-3.79598e-08
1.13472e-06
-4.26042e-08
1.17447e-06
-3.95861e-08
1.21096e-06
-3.64631e-08
1.24506e-06
-3.41608e-08
1.27767e-06
-3.2703e-08
1.30909e-06
-3.15155e-08
1.33937e-06
-3.03617e-08
1.36854e-06
-2.92266e-08
1.39659e-06
-2.81178e-08
1.42358e-06
-2.70315e-08
1.44952e-06
-2.59619e-08
1.47443e-06
-2.49061e-08
1.49833e-06
-2.38647e-08
1.52123e-06
-2.28467e-08
1.54314e-06
-2.18627e-08
1.56408e-06
-2.09131e-08
1.58411e-06
-1.9992e-08
1.60326e-06
-1.90945e-08
1.62156e-06
-1.82167e-08
1.63904e-06
-1.7356e-08
1.6557e-06
-1.65135e-08
1.67157e-06
-1.56898e-08
1.68667e-06
-1.48835e-08
1.70099e-06
-1.40924e-08
1.71455e-06
-1.33156e-08
1.72733e-06
-1.25538e-08
1.73934e-06
-1.18095e-08
1.75059e-06
-1.10855e-08
1.76109e-06
-1.03829e-08
1.77088e-06
-9.7021e-09
1.77997e-06
-9.04546e-09
1.7884e-06
-8.41514e-09
1.79621e-06
-7.81022e-09
1.80345e-06
-7.22799e-09
1.81014e-06
-6.66648e-09
1.81631e-06
-6.12407e-09
1.82198e-06
-5.59828e-09
1.82715e-06
-5.08667e-09
1.83182e-06
-4.58762e-09
1.83599e-06
-4.09998e-09
1.83966e-06
-3.62361e-09
1.84283e-06
-3.16122e-09
1.8455e-06
-2.7176e-09
1.8477e-06
-2.29612e-09
1.84946e-06
-1.89654e-09
1.85083e-06
-1.51581e-09
1.85185e-06
-1.14942e-09
1.85253e-06
-7.91994e-10
1.8529e-06
-4.3877e-10
1.85294e-06
-8.77241e-11
1.85263e-06
2.61407e-10
1.85197e-06
6.06665e-10
1.85095e-06
9.45096e-10
1.84957e-06
1.27551e-09
1.84784e-06
1.59684e-09
1.84579e-06
1.90798e-09
1.84342e-06
2.20939e-09
1.84076e-06
2.50444e-09
1.83781e-06
2.79866e-09
1.83458e-06
3.09699e-09
1.83107e-06
3.401e-09
1.82725e-06
3.70793e-09
1.82313e-06
4.01258e-09
1.81868e-06
4.31017e-09
1.81394e-06
4.59781e-09
1.80892e-06
4.87414e-09
1.80365e-06
5.13925e-09
1.79817e-06
5.396e-09
1.79247e-06
5.65041e-09
1.78656e-06
5.90923e-09
1.7804e-06
6.17627e-09
1.77399e-06
6.45041e-09
1.76729e-06
6.72637e-09
1.76027e-06
6.99635e-09
1.75292e-06
7.25155e-09
1.74528e-06
7.48409e-09
1.73738e-06
7.68982e-09
1.72929e-06
7.87045e-09
1.72107e-06
8.03339e-09
1.71277e-06
8.18948e-09
1.70441e-06
8.34924e-09
1.69595e-06
8.51858e-09
1.68735e-06
8.69599e-09
1.67852e-06
8.8734e-09
1.66945e-06
9.04054e-09
1.66013e-06
9.18907e-09
1.6506e-06
9.31446e-09
1.64094e-06
9.4176e-09
1.6312e-06
9.5071e-09
1.62144e-06
9.59925e-09
1.61165e-06
9.71278e-09
1.60177e-06
9.86057e-09
1.59175e-06
1.00429e-08
1.58155e-06
1.02454e-08
1.57114e-06
1.04461e-08
1.56051e-06
1.06282e-08
1.54965e-06
1.07919e-08
1.53859e-06
1.09514e-08
1.52736e-06
1.11217e-08
1.51601e-06
1.13104e-08
1.50453e-06
1.15181e-08
1.49287e-06
1.17424e-08
1.48098e-06
1.1979e-08
1.46881e-06
1.22234e-08
1.45637e-06
1.24708e-08
1.4437e-06
1.27157e-08
1.43082e-06
1.29572e-08
1.41772e-06
1.32034e-08
1.40439e-06
1.34651e-08
1.39078e-06
1.37443e-08
1.37687e-06
1.40347e-08
1.36264e-06
1.43251e-08
1.34808e-06
1.46031e-08
1.33323e-06
1.48673e-08
1.3181e-06
1.51322e-08
1.30269e-06
1.54145e-08
1.28699e-06
1.57186e-08
1.27098e-06
1.60365e-08
1.25464e-06
1.63579e-08
1.23797e-06
1.66771e-08
1.22099e-06
1.69919e-08
1.20367e-06
1.73021e-08
1.18602e-06
1.7612e-08
1.16804e-06
1.79221e-08
1.14976e-06
1.82286e-08
1.13122e-06
1.8528e-08
1.11244e-06
1.88046e-08
1.09345e-06
1.90251e-08
1.07431e-06
1.91445e-08
1.05517e-06
1.90991e-08
1.03613e-06
1.90002e-08
1.01671e-06
1.94094e-08
9.95661e-07
2.1061e-08
9.62903e-07
3.27766e-08
9.35662e-07
2.72413e-08
9.18142e-07
1.74998e-08
9.05935e-07
1.21624e-08
8.8333e-07
2.25919e-08
8.60912e-07
2.24939e-08
8.36005e-07
2.50457e-08
8.12943e-07
2.32111e-08
7.90963e-07
2.2104e-08
7.6524e-07
2.58123e-08
7.42559e-07
2.27284e-08
7.15801e-07
2.67501e-08
6.93559e-07
2.2212e-08
6.69424e-07
2.41209e-08
6.3816e-07
3.12634e-08
6.12321e-07
2.58515e-08
5.91442e-07
2.09016e-08
5.55867e-07
3.56071e-08
5.21519e-07
3.43649e-08
4.91031e-07
3.05135e-08
4.58861e-07
3.22046e-08
4.24402e-07
3.45024e-08
3.87729e-07
3.67253e-08
3.48994e-07
3.87865e-08
3.0834e-07
4.06828e-08
2.65909e-07
4.24228e-08
2.21867e-07
4.40012e-08
1.7644e-07
4.53799e-08
1.29962e-07
4.64606e-08
8.29425e-08
4.70452e-08
3.61952e-08
4.67899e-08
-8.89429e-09
4.51084e-08
-4.99384e-08
4.10129e-08
-8.35085e-08
3.34788e-08
-1.05122e-07
2.14761e-08
-1.09386e-07
4.12295e-09
-9.14619e-08
-1.80292e-08
-5.11525e-08
-4.03524e-08
-5.11393e-08
-4.97666e-08
-7.83673e-12
1.19843e-07
-6.7461e-08
-7.27581e-12
7.24272e-08
-6.44816e-08
-1.00282e-11
2.33033e-08
-4.60304e-08
-7.414e-12
-1.98899e-08
-1.49277e-08
-2.27472e-12
-5.44978e-08
2.63631e-08
1.71997e-12
-8.06958e-08
7.54453e-08
3.51939e-12
-9.97104e-08
1.30257e-07
4.45855e-12
-1.12923e-07
1.89139e-07
6.42409e-12
-1.21518e-07
2.50695e-07
9.02895e-12
-1.26524e-07
3.13763e-07
9.99556e-12
-1.28736e-07
3.77462e-07
7.86876e-12
-1.28767e-07
4.41103e-07
2.60833e-12
-1.27273e-07
5.03832e-07
-3.67226e-12
-1.2518e-07
5.64117e-07
-9.12267e-12
-1.2378e-07
6.23339e-07
-1.58368e-11
-1.21971e-07
6.86464e-07
-2.78123e-11
-1.16877e-07
7.45862e-07
-4.52286e-11
-1.13192e-07
8.00958e-07
-6.41362e-11
-1.10518e-07
8.57415e-07
-5.70969e-11
-1.06072e-07
9.11494e-07
5.9889e-12
-1.0269e-07
9.65486e-07
5.313e-10
-9.84841e-08
1.0102e-06
4.09238e-10
-9.68128e-08
1.06665e-06
6.35641e-10
-9.11228e-08
1.11186e-06
-6.41835e-10
-8.986e-08
1.15212e-06
-1.38604e-09
-8.82709e-08
1.20046e-06
-4.40335e-10
-8.24385e-08
1.24364e-06
-9.89758e-11
-7.97182e-08
1.28063e-06
-4.08365e-12
-7.88631e-08
1.31797e-06
1.07192e-11
-7.66209e-08
1.35535e-06
2.73626e-12
-7.37965e-08
1.39199e-06
-7.88797e-12
-7.08893e-08
1.42724e-06
-1.5172e-11
-6.80699e-08
1.46101e-06
-1.87072e-11
-6.53646e-08
1.49338e-06
-1.96128e-11
-6.27951e-08
1.52443e-06
-1.95211e-11
-6.03453e-08
1.55423e-06
-1.9687e-11
-5.79796e-08
1.58283e-06
-1.96069e-11
-5.56756e-08
1.61028e-06
-1.87894e-11
-5.34289e-08
1.63664e-06
-1.72195e-11
-5.12423e-08
1.66192e-06
-1.4663e-11
-4.91177e-08
1.68616e-06
-1.1956e-11
-4.70558e-08
1.70937e-06
-1.04261e-11
-4.50546e-08
1.73159e-06
-9.95974e-12
-4.31078e-08
1.75284e-06
-9.54364e-12
-4.12082e-08
1.77315e-06
-8.60306e-12
-3.93503e-08
1.79255e-06
-7.16197e-12
-3.75321e-08
1.81106e-06
-5.56966e-12
-3.57545e-08
1.8287e-06
-4.07031e-12
-3.402e-08
1.84549e-06
-2.50266e-12
-3.23294e-08
1.86145e-06
-6.67203e-13
-3.06823e-08
1.87661e-06
1.29542e-12
-2.9078e-08
1.89097e-06
3.16545e-12
-2.75155e-08
1.90455e-06
4.82149e-12
-2.59942e-08
1.91736e-06
6.02829e-12
-2.45138e-08
1.92943e-06
6.5439e-12
-2.30744e-08
1.94077e-06
6.46434e-12
-2.16757e-08
1.95141e-06
6.06422e-12
-2.03172e-08
1.96136e-06
5.45168e-12
-1.89986e-08
1.97065e-06
4.72773e-12
-1.77197e-08
1.9793e-06
4.21116e-12
-1.64795e-08
1.98735e-06
4.16643e-12
-1.52774e-08
1.99481e-06
4.55161e-12
-1.41131e-08
2.0017e-06
5.23696e-12
-1.29861e-08
2.00804e-06
6.19607e-12
-1.18949e-08
2.01384e-06
7.36869e-12
-1.0838e-08
2.0191e-06
8.62117e-12
-9.8141e-09
2.02383e-06
9.90877e-12
-8.82205e-09
2.02806e-06
1.11986e-11
-7.86117e-09
2.03177e-06
1.22381e-11
-6.93132e-09
2.035e-06
1.26956e-11
-6.03233e-09
2.03775e-06
1.25564e-11
-5.16313e-09
2.04006e-06
1.21604e-11
-4.32171e-09
2.04193e-06
1.18927e-11
-3.50576e-09
2.0434e-06
1.20196e-11
-2.71293e-09
2.04449e-06
1.27106e-11
-1.94065e-09
2.04519e-06
1.3934e-11
-1.18642e-09
2.04551e-06
1.53219e-11
-4.48571e-10
2.04545e-06
1.6361e-11
2.7474e-10
2.04501e-06
1.68037e-11
9.85218e-10
2.0442e-06
1.67644e-11
1.6838e-09
2.04302e-06
1.6393e-11
2.37122e-09
2.04147e-06
1.5599e-11
3.04733e-09
2.03957e-06
1.42255e-11
3.71154e-09
2.03733e-06
1.23959e-11
4.36455e-09
2.03475e-06
1.05065e-11
5.00905e-09
2.03184e-06
8.84565e-12
5.64832e-09
2.02861e-06
7.32434e-12
6.28365e-09
2.02506e-06
5.59243e-12
6.91327e-09
2.02119e-06
3.34231e-12
7.53406e-09
2.017e-06
4.53873e-13
8.14451e-09
2.0125e-06
-3.12407e-12
8.7451e-09
2.00769e-06
-7.45848e-12
9.33566e-09
2.00257e-06
-1.23752e-11
9.91392e-09
1.99717e-06
-1.71418e-11
1.04783e-08
1.99148e-06
-2.0657e-11
1.10312e-08
1.98552e-06
-2.20892e-11
1.15769e-08
1.97929e-06
-2.12698e-11
1.21175e-08
1.97279e-06
-1.84594e-11
1.26519e-08
1.96602e-06
-1.39321e-11
1.31796e-08
1.95897e-06
-7.99259e-12
1.37025e-08
1.95166e-06
-1.37738e-12
1.42207e-08
1.9441e-06
4.60422e-12
1.47266e-08
1.93629e-06
8.48552e-12
1.52065e-08
1.92826e-06
9.203e-12
1.56494e-08
1.92004e-06
6.43807e-12
1.60517e-08
1.91163e-06
8.9688e-13
1.64164e-08
1.90306e-06
-5.44015e-12
1.67502e-08
1.89433e-06
-9.64639e-12
1.70639e-08
1.88543e-06
-9.08172e-12
1.73723e-08
1.87636e-06
-2.82475e-12
1.76881e-08
1.86711e-06
7.7961e-12
1.80145e-08
1.85769e-06
1.96877e-11
1.8344e-08
1.8481e-06
2.87811e-11
1.8665e-08
1.83834e-06
3.09936e-11
1.89679e-08
1.82843e-06
2.39155e-11
1.92476e-08
1.81837e-06
8.77823e-12
1.95053e-08
1.8082e-06
-9.17326e-12
1.97529e-08
1.79789e-06
-2.30879e-11
2.0014e-08
1.78745e-06
-2.83354e-11
2.03133e-08
1.77684e-06
-2.49446e-11
2.06577e-08
1.76605e-06
-1.69134e-11
2.10284e-08
1.75505e-06
-8.9397e-12
2.13957e-08
1.74385e-06
-3.07609e-12
2.17462e-08
1.73245e-06
1.83079e-12
2.20944e-08
1.72087e-06
7.41321e-12
2.2467e-08
1.70911e-06
1.28502e-11
2.28764e-08
1.69716e-06
1.51484e-11
2.33125e-08
1.685e-06
1.21544e-11
2.37575e-08
1.67261e-06
4.92235e-12
2.42047e-08
1.65998e-06
-2.56878e-12
2.46623e-08
1.6471e-06
-5.97007e-12
2.51415e-08
1.63395e-06
-3.88768e-12
2.56438e-08
1.62055e-06
7.46306e-13
2.61594e-08
1.60689e-06
3.30865e-12
2.66777e-08
1.59296e-06
1.7525e-12
2.71971e-08
1.57879e-06
-1.98007e-12
2.7724e-08
1.56435e-06
-4.02373e-12
2.82663e-08
1.54963e-06
-1.78534e-12
2.88275e-08
1.53462e-06
3.49827e-12
2.94038e-08
1.51927e-06
7.24396e-12
2.99845e-08
1.5036e-06
5.90836e-12
3.05598e-08
1.48761e-06
5.74971e-13
3.11293e-08
1.47131e-06
-4.23706e-12
3.17042e-08
1.45471e-06
-4.36323e-12
3.23022e-08
1.43781e-06
6.52547e-13
3.29346e-08
1.42059e-06
6.87932e-12
3.35947e-08
1.40302e-06
9.35761e-12
3.42624e-08
1.38509e-06
5.99862e-12
3.4921e-08
1.3668e-06
-1.25208e-12
3.55705e-08
1.34813e-06
-7.6896e-12
3.62278e-08
1.3291e-06
-9.27913e-12
3.69113e-08
1.30969e-06
-5.37376e-12
3.76241e-08
1.28988e-06
1.20612e-12
3.83531e-08
1.26961e-06
5.98907e-12
3.90847e-08
1.2488e-06
6.18478e-12
3.9825e-08
1.22732e-06
2.61935e-12
4.06084e-08
1.20499e-06
-1.12033e-12
4.14802e-08
1.18165e-06
-2.15045e-12
4.24637e-08
1.15739e-06
-1.51892e-12
4.37541e-08
1.13258e-06
-8.88872e-13
4.58403e-08
1.11674e-06
-1.58568e-13
4.8532e-08
1.09692e-06
5.7121e-14
4.70027e-08
1.07043e-06
-1.23399e-12
4.39554e-08
1.03925e-06
-4.09223e-12
4.33294e-08
1.01575e-06
-3.6956e-12
4.61821e-08
9.90383e-07
-2.28587e-12
4.79968e-08
9.65806e-07
-7.6622e-13
4.97396e-08
9.39171e-07
1.28125e-12
4.99083e-08
9.10923e-07
4.86583e-12
5.03723e-08
8.84694e-07
8.39931e-12
5.20275e-08
8.54999e-07
1.001e-11
5.23952e-08
8.27834e-07
6.93542e-12
5.3875e-08
7.96005e-07
1.46871e-12
5.40446e-08
7.64402e-07
3.22992e-13
5.57929e-08
7.3746e-07
-3.54411e-13
5.82471e-08
7.054e-07
1.60144e-12
5.79061e-08
6.67089e-07
3.39054e-12
5.92004e-08
6.38563e-07
5.1604e-12
6.41612e-08
6.07514e-07
4.16822e-12
6.54517e-08
5.72042e-07
2.26716e-12
6.60325e-08
5.35912e-07
1.12804e-12
6.83869e-08
4.98955e-07
5.03292e-13
7.1513e-08
4.60886e-07
1.31417e-12
7.48404e-08
4.21573e-07
3.07457e-12
7.81297e-08
3.80983e-07
3.96874e-12
8.12774e-08
3.39162e-07
3.0265e-12
8.4223e-08
2.96235e-07
7.32081e-13
8.68971e-08
2.52422e-07
-1.40571e-12
8.91745e-08
2.08067e-07
-1.69187e-12
9.08235e-08
1.6368e-07
2.44083e-13
9.14551e-08
1.20012e-07
2.7186e-12
9.04714e-08
7.80929e-08
3.79174e-12
8.70055e-08
3.92026e-08
3.07615e-12
7.98433e-08
4.94618e-09
1.03995e-12
6.76489e-08
-2.2688e-08
-1.22724e-12
4.90165e-08
-4.14745e-08
-2.41263e-12
2.28327e-08
-4.84651e-08
-2.58504e-12
-1.10778e-08
-3.77817e-08
-1.59761e-12
-5.10284e-08
3.61222e-12
-8.89192e-08
-4.97754e-08
1.19806e-07
-6.74595e-08
7.23593e-08
-6.4449e-08
2.32574e-08
-4.5975e-08
-1.99156e-08
-1.486e-08
-5.45091e-08
2.64355e-08
-8.06999e-08
7.55202e-08
-9.97135e-08
1.30336e-07
-1.12927e-07
1.8922e-07
-1.21524e-07
2.50771e-07
-1.26534e-07
3.13828e-07
-1.28753e-07
3.77515e-07
-1.28793e-07
4.41147e-07
-1.27313e-07
5.03875e-07
-1.25231e-07
5.64162e-07
-1.2384e-07
6.23375e-07
-1.22027e-07
6.8648e-07
-1.16908e-07
7.45852e-07
-1.13202e-07
8.00992e-07
-1.10513e-07
8.58063e-07
-1.05949e-07
9.13602e-07
-1.02453e-07
9.63949e-07
-1.00056e-07
1.01053e-06
-9.74993e-08
1.06224e-06
-9.23215e-08
1.11033e-06
-8.877e-08
1.15686e-06
-8.53103e-08
1.20263e-06
-8.18453e-08
1.24452e-06
-7.98406e-08
1.28102e-06
-7.9055e-08
1.31817e-06
-7.67193e-08
1.35548e-06
-7.37805e-08
1.39211e-06
-7.08032e-08
1.42738e-06
-6.79781e-08
1.46115e-06
-6.52845e-08
1.4935e-06
-6.27087e-08
1.52453e-06
-6.02452e-08
1.55431e-06
-5.7877e-08
1.5829e-06
-5.55858e-08
1.61035e-06
-5.33581e-08
1.63671e-06
-5.11869e-08
1.66198e-06
-4.90713e-08
1.68621e-06
-4.70137e-08
1.70941e-06
-4.50143e-08
1.73163e-06
-4.30694e-08
1.75287e-06
-4.11729e-08
1.77318e-06
-3.93187e-08
1.79257e-06
-3.75041e-08
1.81108e-06
-3.57304e-08
1.82871e-06
-3.39996e-08
1.8455e-06
-3.23128e-08
1.86146e-06
-3.06697e-08
1.87661e-06
-2.90695e-08
1.89097e-06
-2.7511e-08
1.90454e-06
-2.5994e-08
1.91736e-06
-2.4518e-08
1.92942e-06
-2.30825e-08
1.94076e-06
-2.16866e-08
1.95139e-06
-2.033e-08
1.96134e-06
-1.90127e-08
1.97064e-06
-1.77342e-08
1.9793e-06
-1.6494e-08
1.98735e-06
-1.52923e-08
1.99481e-06
-1.4129e-08
2.00171e-06
-1.30032e-08
2.00805e-06
-1.19135e-08
2.01384e-06
-1.08583e-08
2.0191e-06
-9.83617e-09
2.02384e-06
-8.84591e-09
2.02806e-06
-7.88713e-09
2.03178e-06
-6.95995e-09
2.035e-06
-6.0639e-09
2.03775e-06
-5.1975e-09
2.04006e-06
-4.35872e-09
2.04194e-06
-3.54542e-09
2.04342e-06
-2.75527e-09
2.0445e-06
-1.98568e-09
2.04521e-06
-1.23431e-09
2.04553e-06
-4.99499e-10
2.04547e-06
2.20938e-10
2.04503e-06
9.28971e-10
2.04422e-06
1.62526e-09
2.04303e-06
2.31011e-09
2.04148e-06
2.98358e-09
2.03958e-06
3.64618e-09
2.03733e-06
4.29952e-09
2.03474e-06
4.94639e-09
2.03183e-06
5.58964e-09
2.02859e-06
6.23044e-09
2.02504e-06
6.86789e-09
2.02116e-06
7.5005e-09
2.01697e-06
8.12757e-09
2.01246e-06
8.7483e-09
2.00764e-06
9.35976e-09
2.00253e-06
9.95772e-09
1.99713e-06
1.054e-08
1.99145e-06
1.11081e-08
1.9855e-06
1.16641e-08
1.97928e-06
1.2207e-08
1.97279e-06
1.27322e-08
1.96603e-06
1.32365e-08
1.95899e-06
1.37206e-08
1.95169e-06
1.41884e-08
1.94412e-06
1.46453e-08
1.93631e-06
1.50969e-08
1.92827e-06
1.5547e-08
1.92004e-06
1.59922e-08
1.91162e-06
1.64204e-08
1.90305e-06
1.68153e-08
1.89433e-06
1.71661e-08
1.88545e-06
1.74734e-08
1.87639e-06
1.77481e-08
1.86714e-06
1.80072e-08
1.8577e-06
1.82685e-08
1.84808e-06
1.85462e-08
1.83829e-06
1.88452e-08
1.82836e-06
1.91585e-08
1.81831e-06
1.94735e-08
1.80815e-06
1.97836e-08
1.79787e-06
2.00943e-08
1.78745e-06
2.04153e-08
1.77686e-06
2.07472e-08
1.76607e-06
2.10786e-08
1.75508e-06
2.13999e-08
1.74388e-06
2.17182e-08
1.73248e-06
2.20555e-08
1.72089e-06
2.24307e-08
1.70911e-06
2.28451e-08
1.69714e-06
2.32853e-08
1.68497e-06
2.37377e-08
1.67258e-06
2.41987e-08
1.65996e-06
2.46725e-08
1.64707e-06
2.51622e-08
1.63394e-06
2.56641e-08
1.62054e-06
2.61718e-08
1.60689e-06
2.66833e-08
1.59299e-06
2.72021e-08
1.57882e-06
2.77323e-08
1.56437e-06
2.82761e-08
1.54963e-06
2.88326e-08
1.53458e-06
2.93983e-08
1.51922e-06
2.99688e-08
1.50356e-06
3.05419e-08
1.4876e-06
3.11198e-08
1.47133e-06
3.17102e-08
1.45474e-06
3.23217e-08
1.43782e-06
3.29551e-08
1.42058e-06
3.36013e-08
1.40299e-06
3.42509e-08
1.38506e-06
3.49011e-08
1.36678e-06
3.55581e-08
1.34814e-06
3.62333e-08
1.32911e-06
3.69317e-08
1.3097e-06
3.76458e-08
1.28988e-06
3.83646e-08
1.2696e-06
3.90844e-08
1.2488e-06
3.98137e-08
1.22736e-06
4.0576e-08
1.20504e-06
4.1406e-08
1.18168e-06
4.23666e-08
1.15738e-06
4.37172e-08
1.13256e-06
4.5883e-08
1.11674e-06
4.85974e-08
1.09693e-06
4.70484e-08
1.07044e-06
4.39761e-08
1.03927e-06
4.33232e-08
1.01576e-06
4.61637e-08
9.90378e-07
4.79828e-08
9.65793e-07
4.97525e-08
9.39159e-07
4.99527e-08
9.10907e-07
5.04254e-08
8.84669e-07
5.20661e-08
8.54958e-07
5.24099e-08
8.27793e-07
5.38654e-08
7.95968e-07
5.40068e-08
7.64354e-07
5.57445e-08
7.37415e-07
5.8231e-08
7.05363e-07
5.79272e-08
6.67065e-07
5.92153e-08
6.38537e-07
6.41503e-08
6.07479e-07
6.54314e-08
5.72003e-07
6.60129e-08
5.35878e-07
6.83732e-08
4.98929e-07
7.15096e-08
4.60863e-07
7.48415e-08
4.21545e-07
7.81254e-08
3.80948e-07
8.12634e-08
3.39127e-07
8.42038e-08
2.96209e-07
8.68828e-08
2.52412e-07
8.91727e-08
2.0807e-07
9.08326e-08
1.63688e-07
9.14649e-08
1.20013e-07
9.04719e-08
7.80845e-08
8.69967e-08
3.91875e-08
7.98333e-08
4.92965e-09
6.76463e-08
-2.27014e-08
4.90232e-08
-4.14874e-08
2.28414e-08
-4.84801e-08
-1.10782e-08
-3.77921e-08
-5.10473e-08
-8.89707e-08
-1.92979e-08
-2.37653e-11
1.39257e-07
-1.34711e-08
-2.43585e-11
6.65255e-08
6.50773e-09
-1.76193e-11
3.3214e-09
3.57516e-08
-9.58273e-12
-4.9109e-08
7.24593e-08
-2.36515e-12
-9.11789e-08
1.15578e-07
2.12797e-12
-1.23802e-07
1.64098e-07
4.01912e-12
-1.4823e-07
2.16992e-07
5.12024e-12
-1.65815e-07
2.73279e-07
6.83962e-12
-1.77795e-07
3.32027e-07
8.369e-12
-1.85259e-07
3.92413e-07
8.00783e-12
-1.89115e-07
4.53777e-07
5.00396e-12
-1.90131e-07
5.1558e-07
4.73455e-13
-1.8907e-07
5.77232e-07
-3.56216e-12
-1.86803e-07
6.3786e-07
-6.62824e-12
-1.84349e-07
6.97381e-07
-9.93194e-12
-1.81413e-07
7.57206e-07
-1.42523e-11
-1.76607e-07
8.15741e-07
-1.85965e-11
-1.71629e-07
8.72133e-07
-2.07937e-11
-1.66801e-07
9.27574e-07
-8.43435e-12
-1.61404e-07
9.81279e-07
2.3186e-11
-1.56311e-07
1.03343e-06
1.529e-10
-1.50682e-07
1.08258e-06
1.96745e-10
-1.4607e-07
1.13209e-06
1.98848e-10
-1.40778e-07
1.17848e-06
-9.64802e-11
-1.36102e-07
1.22226e-06
-3.1602e-10
-1.31699e-07
1.26654e-06
-1.78864e-10
-1.26509e-07
1.30915e-06
-6.91866e-11
-1.22232e-07
1.34902e-06
-1.68265e-11
-1.1871e-07
1.38726e-06
3.40034e-13
-1.14878e-07
1.42428e-06
2.79314e-12
-1.10842e-07
1.46018e-06
1.25987e-12
-1.06813e-07
1.4949e-06
-2.4733e-13
-1.02819e-07
1.52845e-06
-9.346e-13
-9.89302e-08
1.56081e-06
-1.07253e-12
-9.51781e-08
1.592e-06
-1.29234e-12
-9.155e-08
1.62203e-06
-1.78849e-12
-8.80231e-08
1.65093e-06
-2.19381e-12
-8.45844e-08
1.67874e-06
-2.23653e-12
-8.12316e-08
1.70547e-06
-1.80322e-12
-7.79664e-08
1.73115e-06
-1.01867e-12
-7.47897e-08
1.7558e-06
-4.23717e-13
-7.16998e-08
1.77944e-06
-5.80785e-13
-6.86922e-08
1.80209e-06
-1.50693e-12
-6.57604e-08
1.82378e-06
-2.60002e-12
-6.28968e-08
1.84453e-06
-3.24599e-12
-6.00955e-08
1.86437e-06
-3.4323e-12
-5.73556e-08
1.88333e-06
-3.55432e-12
-5.46795e-08
1.90141e-06
-3.83556e-12
-5.20697e-08
1.91865e-06
-4.20572e-12
-4.9527e-08
1.93506e-06
-4.5413e-12
-4.70508e-08
1.95067e-06
-4.79315e-12
-4.46396e-08
1.96548e-06
-5.01852e-12
-4.22917e-08
1.97951e-06
-5.40557e-12
-4.00058e-08
1.99279e-06
-6.13795e-12
-3.77806e-08
2.00532e-06
-7.19572e-12
-3.56148e-08
2.01714e-06
-8.39522e-12
-3.35071e-08
2.02825e-06
-9.59037e-12
-3.14565e-08
2.03868e-06
-1.07109e-11
-2.94622e-08
2.04844e-06
-1.16716e-11
-2.75238e-08
2.05758e-06
-1.24007e-11
-2.5641e-08
2.06609e-06
-1.29181e-11
-2.38139e-08
2.07401e-06
-1.32741e-11
-2.20423e-08
2.08134e-06
-1.34585e-11
-2.03253e-08
2.08812e-06
-1.34516e-11
-1.86613e-08
2.09434e-06
-1.32857e-11
-1.70486e-08
2.10002e-06
-1.29829e-11
-1.54858e-08
2.10517e-06
-1.25318e-11
-1.39713e-08
2.10981e-06
-1.20026e-11
-1.25039e-08
2.11394e-06
-1.15716e-11
-1.10826e-08
2.11758e-06
-1.13446e-11
-9.70592e-09
2.12074e-06
-1.12433e-11
-8.37147e-09
2.12345e-06
-1.11052e-11
-7.07647e-09
2.12572e-06
-1.07989e-11
-5.8181e-09
2.12756e-06
-1.02212e-11
-4.59364e-09
2.12899e-06
-9.31196e-12
-3.40038e-09
2.13003e-06
-8.14559e-12
-2.2355e-09
2.13066e-06
-6.93144e-12
-1.09609e-09
2.1309e-06
-5.85944e-12
2.07556e-11
2.13074e-06
-4.98553e-12
1.11726e-09
2.13021e-06
-4.29497e-12
2.19409e-09
2.12929e-06
-3.80454e-12
3.25155e-09
2.128e-06
-3.50946e-12
4.29108e-09
2.12635e-06
-3.26245e-12
5.3147e-09
2.12435e-06
-2.79577e-12
6.32359e-09
2.122e-06
-1.89245e-12
7.31786e-09
2.11931e-06
-5.3392e-13
8.29808e-09
2.11629e-06
1.13674e-12
9.26636e-09
2.11293e-06
3.02241e-12
1.0225e-08
2.10924e-06
5.18675e-12
1.11737e-08
2.10523e-06
7.60442e-12
1.21093e-08
2.10089e-06
9.80178e-12
1.30289e-08
2.09624e-06
1.10103e-11
1.39329e-08
2.09127e-06
1.08273e-11
1.48243e-08
2.086e-06
9.55173e-12
1.57049e-08
2.08045e-06
7.74551e-12
1.65734e-08
2.07462e-06
5.61322e-12
1.74279e-08
2.06851e-06
2.92699e-12
1.82679e-08
2.06213e-06
-6.38482e-13
1.90941e-08
2.05548e-06
-5.32126e-12
1.99039e-08
2.04856e-06
-1.11746e-11
2.06905e-08
2.04137e-06
-1.75067e-11
2.14453e-08
2.03392e-06
-2.21817e-11
2.21625e-08
2.0262e-06
-2.21447e-11
2.28411e-08
2.01826e-06
-1.55312e-11
2.34832e-08
2.01011e-06
-3.54524e-12
2.4091e-08
2.00177e-06
9.90214e-12
2.46677e-08
1.99326e-06
2.04102e-11
2.52193e-08
1.98459e-06
2.49907e-11
2.57534e-08
1.97576e-06
2.25667e-11
2.62754e-08
1.96675e-06
1.39677e-11
2.6784e-08
1.95755e-06
2.13087e-12
2.7273e-08
1.94815e-06
-8.4851e-12
2.77375e-08
1.93856e-06
-1.40905e-11
2.81803e-08
1.92878e-06
-1.38295e-11
2.86121e-08
1.91885e-06
-9.69033e-12
2.90453e-08
1.90878e-06
-4.12322e-12
2.94883e-08
1.89859e-06
1.80592e-12
2.99436e-08
1.88826e-06
7.70335e-12
3.04116e-08
1.87776e-06
1.19793e-11
3.08937e-08
1.86706e-06
1.18464e-11
3.13925e-08
1.85614e-06
5.92751e-12
3.19093e-08
1.84501e-06
-3.26215e-12
3.24437e-08
1.8337e-06
-1.02391e-11
3.29964e-08
1.82222e-06
-1.07891e-11
3.35702e-08
1.81054e-06
-5.56907e-12
3.41679e-08
1.79864e-06
6.43881e-13
3.47899e-08
1.7865e-06
3.3067e-12
3.54338e-08
1.77415e-06
1.75815e-12
3.60981e-08
1.76158e-06
-8.76396e-13
3.67845e-08
1.74877e-06
-8.16097e-13
3.74962e-08
1.7357e-06
2.9682e-12
3.82341e-08
1.72236e-06
7.67842e-12
3.89934e-08
1.70873e-06
8.99563e-12
3.9766e-08
1.69485e-06
4.98122e-12
4.05475e-08
1.68071e-06
-1.992e-12
4.13408e-08
1.66632e-06
-6.94586e-12