/*--------------------------------*- C++ -*----------------------------------*\
  =========                 |
  \\      /  F ield         | OpenFOAM: The Open Source CFD Toolbox
   \\    /   O peration     | Website:  https://openfoam.org
    \\  /    A nd           | Version:  8
     \\/     M anipulation  |
\*---------------------------------------------------------------------------*/
FoamFile
{
    version     2.0;
    format      ascii;
    class       volVectorField;
    location    "200";
    object      U;
}
// * * * * * * * * * * * * * * * * * * * * * * * * * * * * * * * * * * * * * //

dimensions      [0 1 -1 0 0 0 0];

internalField   nonuniform List<vector> 
48000
(
(-0.00278739 -6.54837e-06 0.00301858)
(-0.00705711 -9.33136e-07 0.00294072)
(-0.00971782 -6.60053e-07 0.00149716)
(-0.0104909 -9.69207e-07 -5.43509e-05)
(-0.0095034 -8.02464e-07 -0.00127773)
(-0.00725598 -3.73133e-07 -0.00214471)
(-0.00410329 -9.83712e-09 -0.00273176)
(-0.000316389 1.34767e-07 -0.00309971)
(0.00387095 1.42338e-07 -0.00329008)
(0.00826912 2.32063e-07 -0.00335464)
(0.0127723 3.42909e-07 -0.00333224)
(0.017273 1.69184e-07 -0.00324391)
(0.0216882 -4.73581e-07 -0.00312733)
(0.026011 -1.55142e-06 -0.00309712)
(0.0303631 -2.82598e-06 -0.00342901)
(0.0347491 -4.62266e-06 -0.00346277)
(0.0388794 -7.97475e-06 -0.00227743)
(0.0424586 -1.44637e-05 -0.00288588)
(0.0460991 -2.61365e-05 -0.00349505)
(0.0499336 -4.60201e-05 -0.00249832)
(0.0534418 -8.22502e-05 -0.00256562)
(0.0567303 -0.000169039 -0.00240676)
(0.0594383 -0.000165026 -0.00426394)
(0.063135 -6.32445e-05 -0.00024869)
(0.0661583 0.000147363 -0.00306854)
(0.0686573 0.000280246 -0.00482839)
(0.0715188 0.00015072 -0.00183626)
(0.0738648 6.82397e-05 -0.00180904)
(0.0766956 2.92202e-05 -0.00257034)
(0.0795663 1.36003e-05 -0.00214364)
(0.0820295 5.03766e-06 -0.00185888)
(0.0843691 -3.4185e-07 -0.00167996)
(0.086649 -3.44106e-06 -0.0015825)
(0.0888428 -4.92208e-06 -0.00152108)
(0.0909507 -5.51154e-06 -0.00146829)
(0.0929826 -5.74617e-06 -0.00141737)
(0.094941 -5.85479e-06 -0.00136631)
(0.0968259 -5.97514e-06 -0.00131434)
(0.0986378 -6.02322e-06 -0.00126154)
(0.100378 -5.85228e-06 -0.00120851)
(0.102048 -5.51119e-06 -0.00115624)
(0.103648 -5.10585e-06 -0.00110548)
(0.10518 -4.7457e-06 -0.0010565)
(0.106646 -4.48077e-06 -0.0010092)
(0.108047 -4.27494e-06 -0.000963288)
(0.109387 -4.11903e-06 -0.000918464)
(0.110665 -3.96026e-06 -0.000874541)
(0.111885 -3.67002e-06 -0.000831455)
(0.113046 -3.23659e-06 -0.000789378)
(0.114151 -2.75701e-06 -0.000748502)
(0.115201 -2.23832e-06 -0.000708687)
(0.116198 -1.62642e-06 -0.000669603)
(0.117141 -9.49486e-07 -0.000631145)
(0.118032 -2.92043e-07 -0.00059349)
(0.118872 2.7095e-07 -0.000556897)
(0.11966 6.64727e-07 -0.000521588)
(0.120399 8.53996e-07 -0.000487665)
(0.12109 8.8714e-07 -0.000455116)
(0.121735 8.21801e-07 -0.000423965)
(0.122336 6.68805e-07 -0.000394315)
(0.122895 4.75827e-07 -0.000366144)
(0.123416 3.67056e-07 -0.000339154)
(0.1239 4.356e-07 -0.000312931)
(0.124348 6.81254e-07 -0.000287148)
(0.124762 1.07485e-06 -0.00026159)
(0.12514 1.59308e-06 -0.00023614)
(0.125483 2.18412e-06 -0.000210824)
(0.125791 2.77918e-06 -0.000185799)
(0.126061 3.33417e-06 -0.000161264)
(0.126295 3.7985e-06 -0.000137467)
(0.126493 4.07319e-06 -0.000114754)
(0.126656 4.07637e-06 -9.34814e-05)
(0.126786 3.8435e-06 -7.38191e-05)
(0.126887 3.51949e-06 -5.56597e-05)
(0.126962 3.26498e-06 -3.87007e-05)
(0.127013 3.19711e-06 -2.25509e-05)
(0.127043 3.37839e-06 -6.80156e-06)
(0.127051 3.79584e-06 8.92457e-06)
(0.127038 4.34246e-06 2.48727e-05)
(0.127002 4.87433e-06 4.1014e-05)
(0.126943 5.30056e-06 5.71846e-05)
(0.126861 5.59384e-06 7.33041e-05)
(0.126754 5.73453e-06 8.93386e-05)
(0.126624 5.68863e-06 0.000105204)
(0.12647 5.44109e-06 0.000120754)
(0.126292 5.01486e-06 0.000135874)
(0.126092 4.44995e-06 0.000150579)
(0.12587 3.78412e-06 0.000164996)
(0.125626 3.05335e-06 0.000179256)
(0.125363 2.27851e-06 0.000193382)
(0.12508 1.42236e-06 0.000207299)
(0.124777 3.77448e-07 0.000220963)
(0.124456 -9.43139e-07 0.00023444)
(0.124117 -2.46713e-06 0.000247853)
(0.12376 -3.94861e-06 0.000261239)
(0.123386 -5.11303e-06 0.000274545)
(0.122995 -5.79833e-06 0.000287736)
(0.122585 -5.95966e-06 0.000300825)
(0.122157 -5.59702e-06 0.000313738)
(0.121709 -4.72054e-06 0.000326231)
(0.12124 -3.37596e-06 0.000338044)
(0.120752 -1.67481e-06 0.000349147)
(0.120244 1.92499e-07 0.000359769)
(0.119719 1.92944e-06 0.000370153)
(0.119181 3.11194e-06 0.000380329)
(0.118632 3.28589e-06 0.000390169)
(0.118074 2.23258e-06 0.000399561)
(0.117508 2.39682e-07 0.000408454)
(0.116933 -1.87916e-06 0.000416761)
(0.11635 -3.10474e-06 0.000424355)
(0.115755 -2.68958e-06 0.000431305)
(0.115146 -5.14498e-07 0.000438078)
(0.114522 2.82387e-06 0.000445349)
(0.113885 6.18078e-06 0.000453379)
(0.113237 8.24262e-06 0.000461479)
(0.112582 8.06182e-06 0.000468224)
(0.111921 5.52897e-06 0.000472544)
(0.111254 1.45241e-06 0.000474894)
(0.110581 -2.86076e-06 0.000477396)
(0.109901 -6.19467e-06 0.000482588)
(0.109213 -7.78513e-06 0.000491584)
(0.108517 -7.41447e-06 0.000503092)
(0.107811 -5.43314e-06 0.000514197)
(0.107092 -2.66438e-06 0.000522544)
(0.106356 -3.50416e-08 0.000528244)
(0.105603 1.8746e-06 0.000533737)
(0.104838 2.95083e-06 0.00054158)
(0.104065 3.30961e-06 0.000552222)
(0.103285 3.05148e-06 0.000563956)
(0.102495 2.21722e-06 0.000574897)
(0.101689 9.01267e-07 0.00058489)
(0.100865 -5.82753e-07 0.000595526)
(0.100022 -1.71981e-06 0.000608327)
(0.0991625 -2.15141e-06 0.000622833)
(0.0982873 -1.9723e-06 0.000636635)
(0.0973945 -1.49317e-06 0.000647665)
(0.0964827 -8.39581e-07 0.000656436)
(0.0955529 5.20067e-09 0.000665827)
(0.0946078 9.31388e-07 0.000678709)
(0.0936483 1.63767e-06 0.00069561)
(0.0926711 1.72923e-06 0.00071416)
(0.0916702 1.02044e-06 0.000730892)
(0.0906413 -9.65563e-08 0.000744111)
(0.0895857 -8.85959e-07 0.000755033)
(0.0885091 -9.17846e-07 0.000766305)
(0.0874171 -2.17851e-07 0.000779978)
(0.0863114 8.42928e-07 0.000796337)
(0.0851891 1.56625e-06 0.000813819)
(0.0840451 1.43328e-06 0.000830473)
(0.0828758 6.1713e-07 0.000845797)
(0.0816807 -3.51052e-07 0.000860721)
(0.0804621 -1.00089e-06 0.00087605)
(0.079222 -9.42324e-07 0.000891476)
(0.0779611 -1.51338e-07 0.000905428)
(0.0766794 7.57081e-07 0.000915082)
(0.0753771 1.12388e-06 0.000917146)
(0.0740597 7.61706e-07 0.000908109)
(0.0727388 4.7178e-08 0.000884555)
(0.0713935 -5.70084e-07 0.000860575)
(0.0701694 -7.67906e-07 0.000887023)
(0.0687874 -6.5654e-07 0.00145465)
(0.0666258 -3.2788e-07 0.0046185)
(0.0649795 -4.96638e-08 0.00322308)
(0.0637476 5.8261e-08 0.000509971)
(0.0623727 -5.53241e-07 -0.00157916)
(0.0607396 -1.58447e-06 0.000546301)
(0.0592925 -1.31311e-06 0.000768181)
(0.0577191 -3.5631e-07 0.00121916)
(0.0560522 2.40912e-07 0.000968938)
(0.054643 1.5318e-07 0.000834591)
(0.052923 2.0418e-07 0.00150103)
(0.0511465 5.9324e-07 0.00116938)
(0.049419 9.87703e-07 0.00237121)
(0.0482265 5.71797e-07 0.00119361)
(0.046729 -9.44503e-08 0.00114645)
(0.0446739 -1.82436e-07 0.0022223)
(0.0429151 -3.66587e-08 0.000781876)
(0.0410578 -2.63756e-07 -0.000607671)
(0.038661 -5.4053e-07 0.00291603)
(0.0366213 -2.35097e-08 0.00265806)
(0.0346263 2.09535e-07 0.00155995)
(0.0324817 2.27712e-07 0.00145195)
(0.0301899 1.11522e-07 0.00152391)
(0.027744 1.02785e-07 0.00163377)
(0.0251512 3.37901e-07 0.00175069)
(0.0224217 6.32761e-07 0.00186717)
(0.0195654 6.77479e-07 0.0019814)
(0.016593 2.93836e-07 0.00209243)
(0.0135175 -3.67586e-07 0.00219836)
(0.0103574 -8.59448e-07 0.00229459)
(0.00714054 -7.49621e-07 0.00237092)
(0.0039133 -1.30356e-08 0.00240739)
(0.000745937 8.10986e-07 0.00236317)
(-0.00225955 1.09823e-06 0.00216254)
(-0.004857 7.94819e-07 0.00174228)
(-0.0068147 2.09061e-07 0.00104713)
(-0.00778036 -3.98482e-07 3.1098e-05)
(-0.00730892 -7.86859e-07 -0.00122423)
(-0.00533275 -7.80897e-07 -0.00229784)
(-0.00188545 -2.43428e-07 -0.00223359)
(-0.00278195 -6.55237e-06 0.00302216)
(-0.00705226 -9.33006e-07 0.00294044)
(-0.00971639 -6.59923e-07 0.00149587)
(-0.0104893 -9.69064e-07 -5.56686e-05)
(-0.0094999 -8.02386e-07 -0.00127862)
(-0.00725049 -3.73112e-07 -0.00214522)
(-0.00409668 -9.83671e-09 -0.00273215)
(-0.00030961 1.34755e-07 -0.0031002)
(0.00387714 1.42321e-07 -0.00329053)
(0.00827494 2.32039e-07 -0.00335503)
(0.0127778 3.4288e-07 -0.00333284)
(0.0172783 1.69172e-07 -0.00324506)
(0.0216933 -4.73565e-07 -0.00312949)
(0.0260164 -1.55152e-06 -0.00310034)
(0.0303692 -2.82667e-06 -0.00343254)
(0.034756 -4.62342e-06 -0.00346684)
(0.0388839 -7.97356e-06 -0.00227883)
(0.0424524 -1.44607e-05 -0.00288661)
(0.0460694 -2.61358e-05 -0.00349612)
(0.0498504 -4.60544e-05 -0.00245655)
(0.0532068 -8.24032e-05 -0.00252096)
(0.056448 -0.000169525 -0.00393198)
(0.0593841 -0.000167757 -0.00483117)
(0.0627771 -8.15283e-05 -0.00239261)
(0.0657117 0.000252744 -0.00195044)
(0.0685161 0.000358744 -0.00167607)
(0.0711089 0.000153229 -0.0014275)
(0.0736658 6.85657e-05 -0.00180381)
(0.0766019 2.92665e-05 -0.00261503)
(0.0795388 1.36069e-05 -0.00217673)
(0.082033 5.03787e-06 -0.00187547)
(0.0843821 -3.41821e-07 -0.00168429)
(0.0866626 -3.44072e-06 -0.00158254)
(0.0888563 -4.92164e-06 -0.00152181)
(0.0909643 -5.51113e-06 -0.00146957)
(0.0929948 -5.74585e-06 -0.00141791)
(0.0949505 -5.85458e-06 -0.0013663)
(0.0968328 -5.975e-06 -0.00131452)
(0.0986435 -6.02312e-06 -0.00126237)
(0.100383 -5.85217e-06 -0.00121007)
(0.102053 -5.51108e-06 -0.00115812)
(0.103654 -5.10576e-06 -0.00110725)
(0.105186 -4.74564e-06 -0.00105806)
(0.106651 -4.48073e-06 -0.00101052)
(0.108052 -4.27492e-06 -0.000964325)
(0.10939 -4.11902e-06 -0.000919249)
(0.110669 -3.96025e-06 -0.000875172)
(0.111888 -3.67001e-06 -0.000832066)
(0.113049 -3.2366e-06 -0.000790004)
(0.114153 -2.75703e-06 -0.000748971)
(0.115203 -2.23834e-06 -0.000708826)
(0.116199 -1.62643e-06 -0.000669468)
(0.117142 -9.49498e-07 -0.000630932)
(0.118033 -2.92047e-07 -0.000593364)
(0.118872 2.70955e-07 -0.000556972)
(0.119659 6.64741e-07 -0.000521893)
(0.120397 8.54017e-07 -0.000488107)
(0.121088 8.87165e-07 -0.000455572)
(0.121733 8.21825e-07 -0.000424383)
(0.122334 6.68826e-07 -0.000394631)
(0.122894 4.75843e-07 -0.000366195)
(0.123415 3.67069e-07 -0.00033879)
(0.1239 4.35615e-07 -0.000312143)
(0.124349 6.81276e-07 -0.000286035)
(0.124763 1.07488e-06 -0.000260291)
(0.125142 1.59312e-06 -0.000234836)
(0.125486 2.18417e-06 -0.000209704)
(0.125793 2.77923e-06 -0.000184974)
(0.126063 3.33422e-06 -0.000160771)
(0.126296 3.79855e-06 -0.000137347)
(0.126494 4.07323e-06 -0.000115059)
(0.126656 4.07641e-06 -9.41816e-05)
(0.126787 3.84355e-06 -7.47737e-05)
(0.126888 3.51953e-06 -5.66858e-05)
(0.126963 3.26502e-06 -3.96319e-05)
(0.127015 3.19715e-06 -2.32433e-05)
(0.127045 3.37843e-06 -7.16166e-06)
(0.127054 3.79588e-06 8.89058e-06)
(0.127041 4.34248e-06 2.50634e-05)
(0.127006 4.87434e-06 4.13206e-05)
(0.126948 5.30054e-06 5.7553e-05)
(0.126865 5.59379e-06 7.369e-05)
(0.126758 5.73445e-06 8.96372e-05)
(0.126627 5.68854e-06 0.000105256)
(0.126472 5.44099e-06 0.000120431)
(0.126293 5.01477e-06 0.000135151)
(0.126092 4.44987e-06 0.00014951)
(0.125868 3.78408e-06 0.000163635)
(0.125624 3.05333e-06 0.000177592)
(0.12536 2.2785e-06 0.000191359)
(0.125076 1.42237e-06 0.000204899)
(0.124772 3.77449e-07 0.000218238)
(0.12445 -9.43144e-07 0.000231466)
(0.124111 -2.46715e-06 0.000244653)
(0.123754 -3.94864e-06 0.000257816)
(0.123381 -5.11308e-06 0.000270961)
(0.12299 -5.7984e-06 0.00028413)
(0.122581 -5.95975e-06 0.000297335)
(0.122154 -5.59714e-06 0.000310476)
(0.121707 -4.72066e-06 0.000323367)
(0.12124 -3.37605e-06 0.000335841)
(0.120754 -1.67486e-06 0.000347809)
(0.120248 1.92503e-07 0.000359207)
(0.119725 1.92947e-06 0.000369934)
(0.119186 3.11195e-06 0.000379894)
(0.118636 3.28587e-06 0.000389104)
(0.118075 2.23254e-06 0.000397745)
(0.117507 2.39678e-07 0.000406085)
(0.116932 -1.87913e-06 0.000414356)
(0.116349 -3.10471e-06 0.000422677)
(0.115755 -2.68959e-06 0.000431054)
(0.115148 -5.14504e-07 0.000439411)
(0.114524 2.82394e-06 0.000447535)
(0.113886 6.18098e-06 0.000454955)
(0.113236 8.24287e-06 0.000460984)
(0.112578 8.062e-06 0.000465132)
(0.111915 5.52904e-06 0.000467727)
(0.111246 1.45242e-06 0.000470143)
(0.110573 -2.86079e-06 0.000474234)
(0.109895 -6.19475e-06 0.000481254)
(0.109211 -7.78524e-06 0.000491003)
(0.108519 -7.41455e-06 0.000501885)
(0.107816 -5.43317e-06 0.000511954)
(0.107098 -2.66439e-06 0.000520276)
(0.10636 -3.50419e-08 0.000527473)
(0.105606 1.87462e-06 0.000534964)
(0.104839 2.95088e-06 0.000543667)
(0.104065 3.30966e-06 0.000553467)
(0.103284 3.0515e-06 0.000563726)
(0.102493 2.21723e-06 0.000574056)
(0.101686 9.01273e-07 0.000584622)
(0.10086 -5.82761e-07 0.000595873)
(0.100016 -1.71985e-06 0.000607943)
(0.099158 -2.15148e-06 0.000620398)
(0.0982855 -1.97237e-06 0.000632745)
(0.0973964 -1.49321e-06 0.000645072)
(0.096488 -8.39589e-07 0.000657854)
(0.0955598 5.20061e-09 0.00067131)
(0.094613 9.31366e-07 0.000685187)
(0.0936488 1.63764e-06 0.000698931)
(0.0926662 1.72924e-06 0.000712088)
(0.0916623 1.02048e-06 0.00072492)
(0.0906349 -9.65614e-08 0.000738396)
(0.0895842 -8.86e-07 0.000753145)
(0.0885126 -9.17862e-07 0.000768729)
(0.0874225 -2.17848e-07 0.000784125)
(0.0863146 8.42913e-07 0.00079872)
(0.0851878 1.56625e-06 0.000812825)
(0.0840406 1.43333e-06 0.00082729)
(0.0828719 6.17157e-07 0.000842901)
(0.0816801 -3.51061e-07 0.000859928)
(0.0804644 -1.00089e-06 0.000877405)
(0.0792247 -9.42299e-07 0.000893385)
(0.0779609 -1.51336e-07 0.000906151)
(0.0766745 7.57099e-07 0.000914194)
(0.0753682 1.12395e-06 0.000915354)
(0.0740505 7.61764e-07 0.000905402)
(0.072734 4.71803e-08 0.000877999)
(0.0714004 -5.70075e-07 0.00084936)
(0.0701871 -7.67868e-07 0.00088046)
(0.0688026 -6.56588e-07 0.00145772)
(0.06663 -3.27968e-07 0.00462527)
(0.0649768 -4.96744e-08 0.00322572)
(0.0637435 5.82554e-08 0.000510849)
(0.0623704 -5.53033e-07 -0.00157527)
(0.0607402 -1.58406e-06 0.000543041)
(0.0592959 -1.31299e-06 0.000765519)
(0.0577222 -3.56312e-07 0.00121884)
(0.0560513 2.40931e-07 0.000970723)
(0.0546376 1.53196e-07 0.000835915)
(0.0529157 2.04198e-07 0.00150367)
(0.0511389 5.93397e-07 0.00117301)
(0.0494092 9.88126e-07 0.00237662)
(0.0482165 5.71955e-07 0.00119444)
(0.046722 -9.44642e-08 0.00113899)
(0.0446697 -1.82479e-07 0.0022202)
(0.0429112 -3.66532e-08 0.000785859)
(0.0410527 -2.63713e-07 -0.000600731)
(0.0386546 -5.40814e-07 0.00291832)
(0.0366154 -2.35324e-08 0.00265731)
(0.0346223 2.09641e-07 0.00155771)
(0.0324787 2.27769e-07 0.0014508)
(0.0301876 1.11536e-07 0.00152331)
(0.0277421 1.0279e-07 0.00163364)
(0.0251494 3.37912e-07 0.0017506)
(0.0224194 6.32776e-07 0.00186653)
(0.0195623 6.77498e-07 0.00197999)
(0.0165893 2.93848e-07 0.00209069)
(0.0135144 -3.67605e-07 0.00219708)
(0.010356 -8.595e-07 0.00229431)
(0.00714128 -7.49665e-07 0.00237153)
(0.00391517 -1.30362e-08 0.00240819)
(0.000747247 8.11015e-07 0.00236357)
(-0.00225968 1.09826e-06 0.0021625)
(-0.00485814 7.94835e-07 0.00174201)
(-0.00681611 2.09064e-07 0.00104679)
(-0.00778176 -3.98478e-07 3.06586e-05)
(-0.00731038 -7.86836e-07 -0.00122519)
(-0.00533441 -7.80859e-07 -0.00229986)
(-0.00188672 -2.43412e-07 -0.00223655)
(-0.00243964 -1.15685e-06 0.00809847)
(-0.00445934 -1.85721e-07 0.0056375)
(-0.004735 -5.30765e-07 0.00246321)
(-0.00396746 -5.12088e-07 -0.000491698)
(-0.00222028 -2.01489e-07 -0.00286905)
(0.000309587 1.0196e-07 -0.00464206)
(0.0034505 2.77876e-07 -0.00590286)
(0.0070479 3.80415e-07 -0.00675734)
(0.0109761 5.45224e-07 -0.00729373)
(0.0151297 7.42413e-07 -0.00759006)
(0.0194226 7.95254e-07 -0.00770248)
(0.0237854 5.98495e-07 -0.00766752)
(0.0281697 1.3132e-07 -0.00752665)
(0.0325513 -4.42323e-07 -0.00734665)
(0.0367608 -9.61869e-07 -0.00722515)
(0.0407748 -1.64241e-06 -0.00712108)
(0.0450115 -2.9195e-06 -0.00679993)
(0.0492403 -4.85159e-06 -0.00647458)
(0.0531688 -7.10661e-06 -0.00629076)
(0.0570591 -6.5341e-06 -0.00607979)
(0.0607379 -5.02583e-07 -0.005898)
(0.0644504 6.88275e-05 -0.00564847)
(0.067987 3.53719e-05 -0.00554471)
(0.0713776 3.39297e-05 -0.00529845)
(0.0746407 -7.15397e-05 -0.00511622)
(0.0777265 -0.000128313 -0.00498917)
(0.0808764 -3.74693e-05 -0.00465539)
(0.0840218 -7.29179e-06 -0.00443066)
(0.0866656 3.99892e-07 -0.0044331)
(0.0891091 1.21019e-06 -0.00444106)
(0.091694 9.72092e-08 -0.00434803)
(0.0942703 -1.10579e-06 -0.00420067)
(0.0967408 -1.84741e-06 -0.00404755)
(0.0991053 -2.17124e-06 -0.00389377)
(0.10137 -2.24575e-06 -0.00374381)
(0.103542 -2.23833e-06 -0.00359961)
(0.105626 -2.26788e-06 -0.00345944)
(0.107627 -2.27279e-06 -0.00332195)
(0.109547 -2.19293e-06 -0.00318716)
(0.111391 -2.04118e-06 -0.00305563)
(0.11316 -1.8091e-06 -0.00292786)
(0.114857 -1.5684e-06 -0.00280404)
(0.116482 -1.43133e-06 -0.00268401)
(0.118039 -1.38068e-06 -0.00256732)
(0.119528 -1.32623e-06 -0.00245343)
(0.120952 -1.22442e-06 -0.00234198)
(0.122312 -1.08016e-06 -0.00223282)
(0.123609 -9.2292e-07 -0.00212598)
(0.124846 -7.73447e-07 -0.00202166)
(0.126023 -6.1335e-07 -0.00191999)
(0.127142 -4.2088e-07 -0.00182095)
(0.128205 -2.13544e-07 -0.00172445)
(0.129213 -2.19523e-08 -0.00163044)
(0.130168 1.3408e-07 -0.00153892)
(0.131069 2.29977e-07 -0.00144996)
(0.131919 2.48792e-07 -0.00136357)
(0.13272 2.10263e-07 -0.00127972)
(0.133471 1.46059e-07 -0.00119838)
(0.134176 6.40845e-08 -0.00111952)
(0.134836 -2.76725e-08 -0.00104316)
(0.135452 -9.37557e-08 -0.000969252)
(0.136026 -1.01994e-07 -0.000897674)
(0.13656 -5.38945e-08 -0.000828309)
(0.137055 3.60521e-08 -0.000761052)
(0.137511 1.60334e-07 -0.000695801)
(0.137929 3.0612e-07 -0.000632461)
(0.138309 4.5379e-07 -0.00057098)
(0.138653 5.95643e-07 -0.00051134)
(0.13896 7.28577e-07 -0.000453548)
(0.139232 8.29111e-07 -0.00039765)
(0.139469 8.65738e-07 -0.000343724)
(0.139673 8.38638e-07 -0.000291811)
(0.139844 7.84841e-07 -0.000241859)
(0.139986 7.47772e-07 -0.000193715)
(0.140098 7.60068e-07 -0.000147172)
(0.140184 8.44854e-07 -0.000101987)
(0.140243 1.00467e-06 -5.79158e-05)
(0.140277 1.20675e-06 -1.4771e-05)
(0.140285 1.39955e-06 2.76891e-05)
(0.140267 1.55238e-06 6.96101e-05)
(0.140224 1.66635e-06 0.000110969)
(0.140156 1.74522e-06 0.000151769)
(0.140062 1.77048e-06 0.000191997)
(0.139943 1.71856e-06 0.000231614)
(0.1398 1.59411e-06 0.000270617)
(0.139633 1.43011e-06 0.000309081)
(0.139442 1.25383e-06 0.00034712)
(0.139228 1.06317e-06 0.00038479)
(0.138992 8.37229e-07 0.000422032)
(0.138733 5.61285e-07 0.000458723)
(0.138454 2.35265e-07 0.000494788)
(0.138153 -1.41043e-07 0.000530227)
(0.137832 -5.75729e-07 0.000565036)
(0.13749 -1.05813e-06 0.000599147)
(0.137129 -1.52753e-06 0.000632505)
(0.136748 -1.89141e-06 0.000665169)
(0.136346 -2.08398e-06 0.000697272)
(0.135926 -2.09626e-06 0.000728875)
(0.135485 -1.94527e-06 0.000759959)
(0.135025 -1.63249e-06 0.000790588)
(0.134546 -1.15433e-06 0.00082099)
(0.134049 -5.55228e-07 0.000851323)
(0.133535 4.88843e-08 0.000881354)
(0.133005 5.09666e-07 0.000910421)
(0.13246 7.05188e-07 0.000937768)
(0.131902 5.76915e-07 0.000962855)
(0.131332 1.60509e-07 0.000985445)
(0.130749 -3.80683e-07 0.00100561)
(0.130155 -7.72254e-07 0.00102387)
(0.129549 -7.40951e-07 0.00104135)
(0.128931 -1.69237e-07 0.00105946)
(0.1283 8.22621e-07 0.00107905)
(0.127658 1.9121e-06 0.00109967)
(0.127003 2.68223e-06 0.00111963)
(0.126338 2.7642e-06 0.00113701)
(0.125662 2.00814e-06 0.00115113)
(0.124977 6.11397e-07 0.00116337)
(0.124283 -9.3016e-07 0.00117657)
(0.123582 -2.0746e-06 0.00119319)
(0.122871 -2.52187e-06 0.00121353)
(0.122149 -2.32526e-06 0.00123549)
(0.121415 -1.76965e-06 0.00125633)
(0.120668 -1.13132e-06 0.00127502)
(0.119908 -5.06058e-07 0.00129319)
(0.119133 1.53521e-07 0.00131362)
(0.118345 8.36262e-07 0.00133764)
(0.117545 1.35276e-06 0.00136392)
(0.116731 1.46747e-06 0.00138987)
(0.115904 1.12795e-06 0.00141437)
(0.115062 5.24319e-07 0.00143888)
(0.114205 -4.54806e-08 0.00146589)
(0.113331 -3.56248e-07 0.00149633)
(0.11244 -3.86466e-07 0.0015285)
(0.11153 -3.08051e-07 0.00155962)
(0.110602 -2.82467e-07 0.00158839)
(0.109655 -2.75976e-07 0.00161623)
(0.10869 -1.38976e-07 0.00164585)
(0.107708 1.88838e-07 0.00167882)
(0.106709 5.95343e-07 0.00171431)
(0.105691 8.27029e-07 0.00174999)
(0.104652 6.41359e-07 0.00178409)
(0.103589 7.64955e-08 0.0018167)
(0.102502 -4.9204e-07 0.00184951)
(0.101393 -6.56658e-07 0.00188422)
(0.100264 -2.89625e-07 0.00192119)
(0.0991152 3.66903e-07 0.00195947)
(0.097946 8.48822e-07 0.00199786)
(0.0967545 8.28496e-07 0.00203587)
(0.0955392 3.44676e-07 0.00207396)
(0.0942991 -2.76644e-07 0.00211299)
(0.093034 -6.35181e-07 0.00215333)
(0.0917436 -5.39736e-07 0.00219437)
(0.0904269 -1.24647e-07 0.00223494)
(0.089082 3.03443e-07 0.00227416)
(0.0877062 4.58436e-07 0.00231199)
(0.0862957 2.69532e-07 0.00234932)
(0.0848453 -5.84974e-08 0.00238794)
(0.0833488 -2.131e-07 0.00242927)
(0.0817815 -7.54047e-08 0.00247555)
(0.0801003 3.51041e-08 0.00255241)
(0.0784979 -4.1731e-08 0.00261623)
(0.0772106 -1.09916e-07 0.00259135)
(0.0757496 -1.32585e-07 0.00244578)
(0.0740631 -2.18866e-07 0.00232178)
(0.0722979 -3.83046e-07 0.00236105)
(0.0704673 -2.81539e-07 0.00251896)
(0.0686753 -1.45052e-07 0.00267805)
(0.0669569 -7.55874e-08 0.00279936)
(0.0652576 1.77099e-08 0.00280393)
(0.0633088 2.91356e-07 0.00281165)
(0.0614573 5.28009e-07 0.00287642)
(0.0596447 6.87558e-07 0.00292842)
(0.0577028 4.52371e-07 0.00301464)
(0.0555187 -4.31999e-08 0.0030167)
(0.0533324 -1.32984e-07 0.00308982)
(0.0513856 -2.08311e-07 0.00318688)
(0.0493632 2.65635e-09 0.00317532)
(0.0470992 1.88989e-07 0.00332846)
(0.044771 3.98332e-07 0.00361867)
(0.0426164 3.56795e-07 0.00371194)
(0.0403564 2.28043e-07 0.00379936)
(0.0379321 1.85845e-07 0.00398903)
(0.0354385 1.92837e-07 0.0042146)
(0.0328703 3.07521e-07 0.00444313)
(0.0302178 4.54393e-07 0.00466202)
(0.0274768 4.54896e-07 0.00486708)
(0.0246487 2.52187e-07 0.00505664)
(0.0217398 -5.58893e-08 0.00522821)
(0.018762 -2.93278e-07 0.00537568)
(0.0157341 -2.94462e-07 0.00548611)
(0.0126841 -4.60287e-08 0.00553578)
(0.00965346 2.62558e-07 0.00548552)
(0.00670346 4.29123e-07 0.00527352)
(0.00391016 4.08862e-07 0.00480455)
(0.00137766 2.47895e-07 0.00397439)
(-0.000780672 5.78626e-08 0.00267256)
(-0.00240541 -3.97633e-08 0.000815227)
(-0.00331776 -5.88608e-08 -0.00156974)
(-0.00340094 5.75961e-08 -0.00419753)
(-0.00179813 7.66104e-07 -0.00619412)
(-0.002438 -1.1567e-06 0.00810076)
(-0.00445779 -1.85641e-07 0.00563548)
(-0.00473355 -5.30531e-07 0.00246119)
(-0.00396513 -5.11884e-07 -0.000493116)
(-0.00221672 -2.01419e-07 -0.0028698)
(0.000314125 1.01927e-07 -0.00464241)
(0.00345551 2.77791e-07 -0.00590319)
(0.00705306 3.80308e-07 -0.00675787)
(0.0109812 5.45083e-07 -0.0072944)
(0.0151347 7.42238e-07 -0.00759088)
(0.0194273 7.95087e-07 -0.00770366)
(0.0237899 5.98399e-07 -0.00766938)
(0.0281737 1.31318e-07 -0.00752961)
(0.0325548 -4.42469e-07 -0.00735093)
(0.0367641 -9.62578e-07 -0.00723013)
(0.0407783 -1.64317e-06 -0.00712558)
(0.0450144 -2.91884e-06 -0.00680254)
(0.0492419 -4.8501e-06 -0.00647598)
(0.0531701 -7.1052e-06 -0.00628967)
(0.0570635 -6.53447e-06 -0.00605467)
(0.0608689 -5.02778e-07 -0.00583698)
(0.0644282 6.85656e-05 -0.00566023)
(0.0678834 3.49749e-05 -0.0055677)
(0.0712453 3.4565e-05 -0.00537723)
(0.0745927 -8.1072e-05 -0.00519547)
(0.077841 -0.000134654 -0.00495893)
(0.0810723 -3.80744e-05 -0.0046696)
(0.0841029 -7.33164e-06 -0.00446382)
(0.0867001 4.00693e-07 -0.00445961)
(0.0891273 1.21112e-06 -0.00445564)
(0.0917051 9.72336e-08 -0.00435075)
(0.0942792 -1.10584e-06 -0.00419624)
(0.0967501 -1.84737e-06 -0.00404254)
(0.099115 -2.17116e-06 -0.00389028)
(0.101379 -2.24568e-06 -0.00373998)
(0.10355 -2.23829e-06 -0.00359434)
(0.105632 -2.26786e-06 -0.00345363)
(0.107632 -2.27277e-06 -0.00331696)
(0.109552 -2.19291e-06 -0.00318358)
(0.111395 -2.04118e-06 -0.00305322)
(0.113164 -1.80909e-06 -0.00292602)
(0.11486 -1.5684e-06 -0.00280229)
(0.116485 -1.43133e-06 -0.00268217)
(0.118041 -1.38069e-06 -0.00256538)
(0.11953 -1.32624e-06 -0.00245145)
(0.120954 -1.22443e-06 -0.00234002)
(0.122313 -1.08017e-06 -0.00223091)
(0.12361 -9.2293e-07 -0.00212417)
(0.124846 -7.73456e-07 -0.00201995)
(0.126023 -6.13358e-07 -0.00191832)
(0.127142 -4.20886e-07 -0.00181929)
(0.128206 -2.13547e-07 -0.00172282)
(0.129213 -2.19527e-08 -0.00162889)
(0.130167 1.34082e-07 -0.00153752)
(0.131069 2.29981e-07 -0.00144872)
(0.131919 2.48797e-07 -0.00136247)
(0.132719 2.10268e-07 -0.00127869)
(0.133471 1.46062e-07 -0.00119735)
(0.134176 6.40858e-08 -0.00111846)
(0.134835 -2.76731e-08 -0.00104202)
(0.135452 -9.37578e-08 -0.000967976)
(0.136026 -1.01997e-07 -0.000896251)
(0.13656 -5.38957e-08 -0.000826767)
(0.137055 3.60529e-08 -0.00075943)
(0.137511 1.60338e-07 -0.000694139)
(0.137929 3.06127e-07 -0.000630811)
(0.13831 4.538e-07 -0.00056939)
(0.138653 5.95657e-07 -0.000509841)
(0.138961 7.28594e-07 -0.000452174)
(0.139232 8.29131e-07 -0.000396457)
(0.139469 8.65758e-07 -0.000342769)
(0.139673 8.38658e-07 -0.000291119)
(0.139844 7.8486e-07 -0.000241419)
(0.139986 7.4779e-07 -0.000193513)
(0.140099 7.60086e-07 -0.000147192)
(0.140185 8.44873e-07 -0.000102214)
(0.140244 1.00469e-06 -5.83464e-05)
(0.140278 1.20677e-06 -1.54308e-05)
(0.140286 1.39958e-06 2.67586e-05)
(0.140269 1.55241e-06 6.83733e-05)
(0.140225 1.66638e-06 0.000109393)
(0.140157 1.74525e-06 0.000149808)
(0.140063 1.77051e-06 0.000189603)
(0.139944 1.71859e-06 0.000228766)
(0.139801 1.59414e-06 0.000267339)
(0.139633 1.43014e-06 0.000305425)
(0.139441 1.25385e-06 0.000343146)
(0.139227 1.06319e-06 0.000380568)
(0.13899 8.37243e-07 0.000417673)
(0.138732 5.61295e-07 0.000454421)
(0.138452 2.3527e-07 0.000490816)
(0.138151 -1.41046e-07 0.000526871)
(0.137829 -5.7574e-07 0.000562533)
(0.137488 -1.05815e-06 0.00059769)
(0.137127 -1.52756e-06 0.00063228)
(0.136745 -1.89145e-06 0.000666336)
(0.136345 -2.08402e-06 0.000699869)
(0.135924 -2.09631e-06 0.00073271)
(0.135484 -1.94532e-06 0.000764554)
(0.135024 -1.63252e-06 0.000795177)
(0.134546 -1.15436e-06 0.000824578)
(0.13405 -5.55241e-07 0.000852915)
(0.133536 4.88853e-08 0.00088037)
(0.133007 5.09677e-07 0.000907098)
(0.132462 7.05203e-07 0.000933185)
(0.131903 5.76926e-07 0.000958512)
(0.131332 1.60512e-07 0.000982648)
(0.130749 -3.8069e-07 0.00100504)
(0.130155 -7.72269e-07 0.00102545)
(0.129549 -7.40966e-07 0.00104426)
(0.128932 -1.69241e-07 0.00106232)
(0.128301 8.22638e-07 0.00108035)
(0.127658 1.91214e-06 0.00109841)
(0.127002 2.6823e-06 0.00111588)
(0.126335 2.76427e-06 0.00113206)
(0.125659 2.0082e-06 0.00114696)
(0.124974 6.11412e-07 0.00116164)
(0.124281 -9.30181e-07 0.00117769)
(0.12358 -2.07465e-06 0.00119612)
(0.12287 -2.52192e-06 0.00121641)
(0.122149 -2.32532e-06 0.00123684)
(0.121416 -1.7697e-06 0.00125598)
(0.12067 -1.13135e-06 0.00127401)
(0.11991 -5.0607e-07 0.00129271)
(0.119135 1.53524e-07 0.00131389)
(0.118346 8.3628e-07 0.00133779)
(0.117544 1.35279e-06 0.00136299)
(0.11673 1.46751e-06 0.00138804)
(0.115902 1.12798e-06 0.00141295)
(0.115061 5.24332e-07 0.00143907)
(0.114204 -4.54817e-08 0.00146747)
(0.113329 -3.56256e-07 0.00149772)
(0.112437 -3.86477e-07 0.00152821)
(0.111528 -3.08061e-07 0.00155772)
(0.110602 -2.82476e-07 0.00158668)
(0.109657 -2.75984e-07 0.00161665)
(0.108694 -1.38979e-07 0.00164872)
(0.107711 1.88842e-07 0.00168238)
(0.106709 5.95356e-07 0.00171614)
(0.105688 8.27051e-07 0.00174889)
(0.104647 6.4138e-07 0.00178098)
(0.103585 7.6498e-08 0.00181385)
(0.102501 -4.92055e-07 0.00184877)
(0.101395 -6.56675e-07 0.00188574)
(0.100266 -2.89633e-07 0.00192355)
(0.0991161 3.66913e-07 0.00196086)
(0.0979448 8.48848e-07 0.00199743)
(0.0967521 8.28524e-07 0.00203428)
(0.0955369 3.44687e-07 0.00207266)
(0.0942982 -2.76653e-07 0.00211293)
(0.0930346 -6.35199e-07 0.00215438)
(0.0917445 -5.3975e-07 0.00219568)
(0.090427 -1.2465e-07 0.00223573)
(0.089081 3.03452e-07 0.00227439)
(0.0877049 4.58451e-07 0.00231219)
(0.0862955 2.69541e-07 0.00234941)
(0.0848474 -5.84987e-08 0.00238612)
(0.083353 -2.13104e-07 0.00242247)
(0.0817849 -7.54073e-08 0.00246554)
(0.0801004 3.51087e-08 0.00254814)
(0.0784961 -4.17464e-08 0.00262028)
(0.0772097 -1.09974e-07 0.0025977)
(0.0757503 -1.32573e-07 0.00245018)
(0.0740644 -2.18577e-07 0.00232373)
(0.0722992 -3.82457e-07 0.00235887)
(0.0704681 -2.81367e-07 0.00251613)
(0.0686751 -1.45066e-07 0.0026759)
(0.0669558 -7.56204e-08 0.00279953)
(0.0652562 1.77202e-08 0.00280656)
(0.0633073 2.9153e-07 0.00281514)
(0.0614555 5.28344e-07 0.00287882)
(0.0596424 6.88412e-07 0.00292923)
(0.0577004 4.53414e-07 0.00301366)
(0.0555161 -4.32926e-08 0.00301285)
(0.0533294 -1.33073e-07 0.00308549)
(0.0513824 -2.08116e-07 0.00318465)
(0.0493603 2.65093e-09 0.00317631)
(0.0470974 1.88825e-07 0.00332856)
(0.0447695 3.99183e-07 0.0036165)
(0.0426141 3.57997e-07 0.00370958)
(0.0403536 2.28542e-07 0.00379814)
(0.0379297 1.86022e-07 0.00398819)
(0.0354366 1.92904e-07 0.00421422)
(0.0328686 3.07559e-07 0.00444305)
(0.0302158 4.54415e-07 0.00466175)
(0.0274744 4.54909e-07 0.00486621)
(0.0246462 2.52194e-07 0.00505526)
(0.0217377 -5.58909e-08 0.00522688)
(0.0187609 -2.93286e-07 0.00537503)
(0.015734 -2.94471e-07 0.00548636)
(0.0126845 -4.603e-08 0.00553651)
(0.00965378 2.62565e-07 0.00548607)
(0.00670331 4.29133e-07 0.0052736)
(0.00390955 4.08869e-07 0.00480437)
(0.0013768 2.47897e-07 0.00397431)
(-0.000781546 5.78619e-08 0.00267272)
(-0.00240629 -3.97621e-08 0.000815389)
(-0.0033189 -5.88587e-08 -0.0015701)
(-0.00340248 5.75951e-08 -0.00419905)
(-0.00179989 7.66044e-07 -0.00619726)
(-0.001073 -1.92613e-06 0.0108169)
(-0.00144687 -1.6343e-06 0.00585924)
(-0.000363831 -1.23123e-06 0.001271)
(0.0013487 -6.84376e-07 -0.00261889)
(0.00363334 -1.20401e-07 -0.00573003)
(0.00639128 2.58402e-07 -0.00811529)
(0.00955476 4.14178e-07 -0.00987584)
(0.0130528 4.8288e-07 -0.0111225)
(0.0168155 5.97924e-07 -0.0119543)
(0.0207771 6.97678e-07 -0.0124565)
(0.0248772 6.40741e-07 -0.0126983)
(0.0290656 3.60728e-07 -0.012737)
(0.0333035 -5.52418e-08 -0.0126328)
(0.0375623 -4.34544e-07 -0.0124619)
(0.0417599 -7.2109e-07 -0.0123208)
(0.0458492 -1.03147e-06 -0.0121429)
(0.0499384 -1.43489e-06 -0.0117549)
(0.0540171 -1.84958e-06 -0.0114056)
(0.0579705 -2.0972e-06 -0.0111021)
(0.0618199 -5.20601e-07 -0.0107304)
(0.0655245 2.9594e-06 -0.0104005)