/*--------------------------------*- C++ -*----------------------------------*\
  =========                 |
  \\      /  F ield         | OpenFOAM: The Open Source CFD Toolbox
   \\    /   O peration     | Website:  https://openfoam.org
    \\  /    A nd           | Version:  8
     \\/     M anipulation  |
\*---------------------------------------------------------------------------*/
FoamFile
{
    version     2.0;
    format      ascii;
    class       volScalarField;
    location    "2300";
    object      alphat;
}
// * * * * * * * * * * * * * * * * * * * * * * * * * * * * * * * * * * * * * //

dimensions      [1 -1 -1 0 0 0 0];

internalField   nonuniform List<scalar> 
48000
(
7.99177e-05
7.0524e-05
8.72856e-05
9.99108e-05
0.000110329
0.000119062
0.000126634
0.00013349
0.00013976
0.000145527
0.000150897
0.000155933
0.000160682
0.00016518
0.000169455
0.000173529
0.00017742
0.000181143
0.000184709
0.000188127
0.000191405
0.000194551
0.00019757
0.000200467
0.000203247
0.000205913
0.000208468
0.000210917
0.000213262
0.000215506
0.000217651
0.0002197
0.000221656
0.00022352
0.000225296
0.000226986
0.000228591
0.000230115
0.000231559
0.000232925
0.000234216
0.000235435
0.000236582
0.00023766
0.000238671
0.000239617
0.0002405
0.000241327
0.000242101
0.000242818
0.00024348
0.000244088
0.000244644
0.00024515
0.000245608
0.00024602
0.000246387
0.000246711
0.000246993
0.000247236
0.00024744
0.000247606
0.000247737
0.000247834
0.000247898
0.000247929
0.00024793
0.000247901
0.000247844
0.000247759
0.000247648
0.000247511
0.00024735
0.000247165
0.000246957
0.000246727
0.000246475
0.000246203
0.000245911
0.000245599
0.000245269
0.00024492
0.000244554
0.000244171
0.000243771
0.000243355
0.000242923
0.000242476
0.000242014
0.000241537
0.000241046
0.000240541
0.000240022
0.00023949
0.000238944
0.000238385
0.000237812
0.000237228
0.00023663
0.00023602
0.000235397
0.000234762
0.000234114
0.000233454
0.000232782
0.000232097
0.000231399
0.00023069
0.000229968
0.000229233
0.000228485
0.000227725
0.000226952
0.000226166
0.000225367
0.000224554
0.000223728
0.000222888
0.000222034
0.000221167
0.000220285
0.000219388
0.000218477
0.000217551
0.00021661
0.000215653
0.000214681
0.000213692
0.000212688
0.000211667
0.000210629
0.000209573
0.000208501
0.000207411
0.000206303
0.000205176
0.000204032
0.000202868
0.000201685
0.000200482
0.00019926
0.000198018
0.000196755
0.000195472
0.000194168
0.000192842
0.000191495
0.000190126
0.000188735
0.000187322
0.000185885
0.000184426
0.000182943
0.000181437
0.000179907
0.000178352
0.000176773
0.000175168
0.000173539
0.000171884
0.000170202
0.000168495
0.00016676
0.000164998
0.000163208
0.00016139
0.000159542
0.000157665
0.000155757
0.000153818
0.000151847
0.000149842
0.000147802
0.000145726
0.000143612
0.000141459
0.000139264
0.000137025
0.000134738
0.000132401
0.00013001
0.000127561
0.000125052
0.000122482
0.000119857
0.000117144
0.000114325
0.000111387
0.000108308
0.000105062
0.000101614
9.79157e-05
9.39107e-05
8.95604e-05
8.46863e-05
7.9041e-05
7.2075e-05
6.20587e-05
4.32648e-05
4.50841e-05
7.99147e-05
7.05251e-05
8.72865e-05
9.99115e-05
0.00011033
0.000119062
0.000126634
0.00013349
0.000139761
0.000145527
0.000150898
0.000155934
0.000160682
0.00016518
0.000169455
0.000173529
0.000177421
0.000181143
0.000184709
0.000188127
0.000191406
0.000194552
0.000197571
0.000200468
0.000203247
0.000205913
0.000208469
0.000210917
0.000213262
0.000215506
0.000217651
0.0002197
0.000221656
0.00022352
0.000225296
0.000226986
0.000228591
0.000230115
0.000231559
0.000232925
0.000234216
0.000235435
0.000236582
0.00023766
0.000238671
0.000239617
0.0002405
0.000241327
0.000242101
0.000242818
0.00024348
0.000244088
0.000244644
0.00024515
0.000245608
0.00024602
0.000246387
0.000246711
0.000246993
0.000247236
0.00024744
0.000247606
0.000247737
0.000247834
0.000247897
0.000247929
0.00024793
0.000247901
0.000247844
0.000247759
0.000247648
0.000247511
0.00024735
0.000247165
0.000246957
0.000246727
0.000246475
0.000246203
0.000245911
0.000245599
0.000245269
0.00024492
0.000244554
0.000244171
0.000243771
0.000243355
0.000242923
0.000242476
0.000242014
0.000241537
0.000241046
0.000240541
0.000240022
0.000239489
0.000238944
0.000238385
0.000237812
0.000237228
0.00023663
0.00023602
0.000235397
0.000234762
0.000234114
0.000233454
0.000232781
0.000232097
0.000231399
0.00023069
0.000229968
0.000229233
0.000228485
0.000227725
0.000226952
0.000226166
0.000225366
0.000224554
0.000223728
0.000222888
0.000222034
0.000221167
0.000220285
0.000219388
0.000218477
0.000217551
0.00021661
0.000215653
0.000214681
0.000213692
0.000212688
0.000211666
0.000210628
0.000209573
0.000208501
0.000207411
0.000206303
0.000205176
0.000204031
0.000202868
0.000201685
0.000200482
0.00019926
0.000198018
0.000196755
0.000195472
0.000194168
0.000192842
0.000191495
0.000190126
0.000188735
0.000187322
0.000185885
0.000184426
0.000182943
0.000181437
0.000179906
0.000178352
0.000176773
0.000175168
0.000173539
0.000171884
0.000170202
0.000168495
0.00016676
0.000164998
0.000163208
0.00016139
0.000159542
0.000157665
0.000155757
0.000153818
0.000151847
0.000149842
0.000147802
0.000145726
0.000143612
0.000141459
0.000139264
0.000137025
0.000134738
0.000132401
0.00013001
0.000127561
0.000125052
0.000122482
0.000119857
0.000117144
0.000114325
0.000111387
0.000108308
0.000105062
0.000101614
9.79157e-05
9.39109e-05
8.95607e-05
8.46872e-05
7.90448e-05
7.20916e-05
6.21067e-05
4.32397e-05
4.49793e-05
6.11236e-05
0.000449941
0.000715307
0.000899686
0.00103795
0.00115138
0.00124855
0.00133369
0.0014098
0.00147895
0.0015424
0.0016011
0.00165578
0.00170698
0.00175513
0.00180059
0.00184363
0.00188448
0.00192333
0.00196034
0.00199563
0.00202933
0.00206153
0.00209232
0.00212176
0.00214993
0.00217688
0.00220266
0.00222732
0.0022509
0.00227344
0.00229498
0.00231555
0.00233517
0.00235389
0.00237173
0.00238872
0.00240488
0.00242023
0.00243481
0.00244864
0.00246173
0.00247411
0.00248581
0.00249683
0.00250719
0.00251688
0.00252581
0.00253408
0.00254177
0.00254891
0.00255553
0.00256166
0.00256732
0.00257251
0.00257726
0.00258159
0.0025855
0.00258901
0.00259213
0.00259488
0.00259727
0.00259931
0.00260101
0.00260239
0.00260345
0.00260421
0.00260467
0.00260485
0.00260475
0.00260438
0.00260376
0.00260288
0.00260176
0.00260041
0.00259882
0.00259701
0.00259499
0.00259276
0.00259032
0.00258768
0.00258485
0.00258184
0.00257863
0.00257525
0.00257169
0.00256796
0.00256407
0.00256
0.00255578
0.0025514
0.00254686
0.00254216
0.00253731
0.00253232
0.00252717
0.00252188
0.00251644
0.00251086
0.00250513
0.00249926
0.00249325
0.0024871
0.0024808
0.00247436
0.00246778
0.00246106
0.00245419
0.00244718
0.00244003
0.00243272
0.00242528
0.00241768
0.00240994
0.00240204
0.00239399
0.00238579
0.00237743
0.00236892
0.00236024
0.0023514
0.00234239
0.00233322
0.00232388
0.00231437
0.00230468
0.00229481
0.00228477
0.00227454
0.00226413
0.00225352
0.00224273
0.00223174
0.00222055
0.00220917
0.00219758
0.00218578
0.00217378
0.00216156
0.00214912
0.00213647
0.0021236
0.0021105
0.00209717
0.00208361
0.00206982
0.00205579
0.00204152
0.00202701
0.00201225
0.00199724
0.00198197
0.00196645
0.00195067
0.00193463
0.00191832
0.00190174
0.00188488
0.00186774
0.00185032
0.00183261
0.00181461
0.00179631
0.0017777
0.00175877
0.00173953
0.00171996
0.00170004
0.00167979
0.00165916
0.00163817
0.00161679
0.001595
0.00157279
0.00155012
0.00152699
0.00150335
0.00147917
0.00145442
0.00142903
0.00140295
0.00137609
0.00134835
0.00131955
0.00128953
0.00125826
0.00122561
0.00119139
0.00115531
0.001117
0.00107591
0.00103118
0.000981376
0.00092409
0.000857739
0.000778002
0.000676438
0.000534194
0.000305834
2.93013e-05
6.11238e-05
0.000449961
0.000715338
0.00089972
0.00103799
0.00115141
0.00124858
0.00133372
0.00140984
0.00147898
0.00154243
0.00160113
0.00165581
0.00170701
0.00175516
0.00180062
0.00184366
0.00188451
0.00192336
0.00196036
0.00199566
0.00202935
0.00206155
0.00209234
0.00212178
0.00214995
0.0021769
0.00220268
0.00222734
0.00225092
0.00227346
0.002295
0.00231556
0.00233519
0.00235391
0.00237175
0.00238873
0.00240489
0.00242025
0.00243482
0.00244865
0.00246174
0.00247413
0.00248582
0.00249684
0.0025072
0.00251689
0.00252582
0.00253409
0.00254178
0.00254892
0.00255554
0.00256167
0.00256733
0.00257252
0.00257727
0.0025816
0.00258551
0.00258902
0.00259214
0.00259489
0.00259728
0.00259932
0.00260102
0.0026024
0.00260346
0.00260422
0.00260468
0.00260486
0.00260476
0.00260439
0.00260377
0.00260289
0.00260177
0.00260041
0.00259883
0.00259702
0.002595
0.00259277
0.00259033
0.00258769
0.00258486
0.00258184
0.00257864
0.00257526
0.0025717
0.00256797
0.00256408
0.00256001
0.00255579
0.0025514
0.00254686
0.00254217
0.00253732
0.00253233
0.00252718
0.00252189
0.00251645
0.00251087
0.00250514
0.00249927
0.00249326
0.0024871
0.00248081
0.00247437
0.00246779
0.00246107
0.0024542
0.00244719
0.00244003
0.00243273
0.00242529
0.00241769
0.00240995
0.00240205
0.002394
0.0023858
0.00237744
0.00236892
0.00236025
0.00235141
0.0023424
0.00233323
0.00232389
0.00231438
0.00230469
0.00229482
0.00228478
0.00227455
0.00226413
0.00225353
0.00224274
0.00223175
0.00222056
0.00220918
0.00219759
0.00218579
0.00217378
0.00216157
0.00214913
0.00213648
0.0021236
0.00211051
0.00209718
0.00208362
0.00206983
0.0020558
0.00204153
0.00202701
0.00201225
0.00199724
0.00198198
0.00196646
0.00195068
0.00193464
0.00191833
0.00190175
0.00188489
0.00186775
0.00185033
0.00183262
0.00181462
0.00179631
0.0017777
0.00175878
0.00173954
0.00171996
0.00170005
0.00167979
0.00165917
0.00163818
0.0016168
0.00159501
0.00157279
0.00155013
0.001527
0.00150336
0.00147918
0.00145442
0.00142904
0.00140296
0.0013761
0.00134835
0.00131956
0.00128954
0.00125826
0.00122562
0.0011914
0.00115532
0.00111701
0.00107591
0.00103119
0.000981381
0.000924097
0.000857751
0.000778029
0.000676478
0.000534149
0.000305797
2.93135e-05
7.48209e-05
0.000681651
0.00121209
0.00160805
0.00192149
0.00218214
0.00240631
0.00260343
0.00277963
0.00293914
0.00308491
0.00321915
0.00334354
0.00345939
0.00356774
0.00366944
0.00376521
0.00385562
0.00394116
0.00402226
0.00409928
0.00417252
0.00424225
0.0043087
0.00437209
0.00443258
0.00449035
0.00454553
0.00459825
0.00464863
0.00469677
0.00474277
0.00478672
0.00482869
0.00486876
0.004907
0.00494348
0.00497825
0.00501138
0.00504292
0.00507292
0.00510144
0.00512851
0.00515419
0.0051785
0.00520147
0.0052231
0.00524338
0.00526238
0.0052802
0.00529689
0.00531253
0.00532714
0.00534078
0.00535348
0.00536527
0.00537618
0.00538624
0.00539548
0.00540392
0.0054116
0.00541854
0.00542475
0.00543027
0.00543512
0.00543931
0.00544287
0.00544582
0.00544817
0.00544994
0.00545115
0.00545182
0.00545196
0.00545158
0.00545071
0.00544935
0.00544752
0.00544523
0.00544249
0.00543932
0.00543571
0.0054317
0.00542727
0.00542244
0.00541723
0.00541163
0.00540566
0.00539933
0.00539263
0.00538558
0.00537817
0.00537043
0.00536234
0.00535392
0.00534516
0.00533608
0.00532667
0.00531693
0.00530688
0.00529651
0.00528581
0.00527481
0.00526348
0.00525184
0.00523988
0.0052276
0.005215
0.00520209
0.00518885
0.00517529
0.00516141
0.0051472
0.00513266
0.00511778
0.00510257
0.00508702
0.00507112
0.00505488
0.00503829
0.00502133
0.00500402
0.00498634
0.00496829
0.00494986
0.00493105
0.00491186
0.00489227
0.00487227
0.00485188
0.00483107
0.00480984
0.00478819
0.00476611
0.00474359
0.00472063
0.00469722
0.00467334
0.00464901
0.0046242
0.00459891
0.00457313
0.00454686
0.00452009
0.00449281
0.00446501
0.00443669
0.00440784
0.00437844
0.0043485
0.004318
0.00428693
0.00425529
0.00422306
0.00419023
0.0041568
0.00412276
0.00408808
0.00405277
0.0040168
0.00398016
0.00394284
0.00390482
0.00386608
0.0038266
0.00378637
0.00374535
0.00370352
0.00366085
0.00361731
0.00357287
0.00352748
0.00348109
0.00343366
0.00338513
0.00333543
0.00328448
0.00323219
0.00317847
0.00312319
0.0030662
0.00300733
0.00294636
0.00288303
0.00281701
0.00274794
0.00267548
0.00259914
0.00251824
0.00243192
0.00233905
0.00223806
0.00212671
0.00200179
0.00185859
0.00169165
0.00149176
0.00124399
0.00092432
0.000502434
5.55192e-05
7.48213e-05
0.000681677
0.00121215
0.00160812
0.00192156
0.00218221
0.00240638
0.0026035
0.0027797
0.00293921
0.00308498
0.00321922
0.00334361
0.00345945
0.0035678
0.0036695
0.00376526
0.00385567
0.00394121
0.00402231
0.00409933
0.00417256
0.00424229
0.00430874
0.00437213
0.00443262
0.00449039
0.00454556
0.00459828
0.00464866
0.0046968
0.0047428
0.00478674
0.00482871
0.00486878
0.00490702
0.0049435
0.00497827
0.0050114
0.00504294
0.00507294
0.00510146
0.00512853
0.0051542
0.00517851
0.00520148
0.00522312
0.00524339
0.00526239
0.00528021
0.0052969
0.00531254
0.00532715
0.00534079
0.00535349
0.00536527
0.00537618
0.00538624
0.00539548
0.00540393
0.00541161
0.00541854
0.00542476
0.00543028
0.00543512
0.00543932
0.00544288
0.00544582
0.00544817
0.00544994
0.00545115
0.00545182
0.00545196
0.00545159
0.00545072
0.00544936
0.00544753
0.00544524
0.0054425
0.00543932
0.00543572
0.0054317
0.00542727
0.00542245
0.00541723
0.00541164
0.00540567
0.00539933
0.00539263
0.00538558
0.00537817
0.00537043
0.00536234
0.00535392
0.00534516
0.00533608
0.00532667
0.00531694
0.00530688
0.00529651
0.00528582
0.00527481
0.00526348
0.00525184
0.00523988
0.0052276
0.005215
0.00520209
0.00518885
0.00517529
0.00516141
0.0051472
0.00513266
0.00511778
0.00510257
0.00508702
0.00507112
0.00505488
0.00503829
0.00502133
0.00500402
0.00498634
0.00496829
0.00494986
0.00493105
0.00491186
0.00489226
0.00487227
0.00485188
0.00483107
0.00480984
0.00478819
0.00476611
0.00474359
0.00472063
0.00469721
0.00467334
0.004649
0.00462419
0.0045989
0.00457313
0.00454686
0.00452009
0.00449281
0.00446501
0.00443669
0.00440783
0.00437844
0.0043485
0.00431799
0.00428693
0.00425528
0.00422306
0.00419023
0.0041568
0.00412276
0.00408808
0.00405277
0.0040168
0.00398016
0.00394284
0.00390482
0.00386608
0.0038266
0.00378637
0.00374535
0.00370352
0.00366085
0.00361731
0.00357287
0.00352748
0.00348109
0.00343366
0.00338513
0.00333543
0.00328448
0.00323219
0.00317847
0.00312319
0.0030662
0.00300733
0.00294636
0.00288302
0.002817
0.00274794
0.00267548
0.00259914
0.00251824
0.00243192
0.00233905
0.00223806
0.00212671
0.00200179
0.0018586
0.00169166
0.00149179
0.00124405
0.000924321
0.00050241
5.54792e-05
8.49099e-05
0.000818258
0.00153977
0.00211326
0.00258253
0.00297941
0.00332386
0.00362861
0.00390218
0.00415053
0.00437796
0.00458769
0.0047822
0.00496343
0.00513295
0.00529205
0.00544179
0.00558306
0.00571663
0.00584316
0.0059632
0.00607725
0.00618574
0.00628905
0.00638751
0.00648141
0.00657103
0.0066566
0.00673834
0.00681643
0.00689106
0.00696238
0.00703054
0.00709568
0.00715791
0.00721736
0.00727413
0.00732832
0.00738003
0.00742935
0.00747635
0.00752112
0.00756373
0.00760425
0.00764274
0.00767924
0.00771379
0.00774643
0.00777722
0.00780627
0.00783366
0.00785946
0.00788374
0.00790655
0.00792794
0.00794798
0.0079667
0.00798415
0.00800037
0.0080154
0.00802929
0.00804206
0.00805376
0.00806441
0.00807405
0.00808271
0.00809042
0.00809721
0.0081031
0.00810812
0.0081123
0.00811566
0.00811822
0.00812001
0.00812104
0.00812134
0.00812092
0.0081198
0.008118
0.00811554
0.00811242
0.00810867
0.0081043
0.00809932
0.00809374
0.00808758
0.00808085
0.00807355
0.0080657
0.00805729
0.00804836
0.00803889
0.00802889
0.00801838
0.00800735
0.00799582
0.00798378
0.00797124
0.0079582
0.00794467
0.00793064
0.00791612
0.00790111
0.0078856
0.00786961
0.00785312
0.00783613
0.00781865
0.00780067
0.00778219
0.0077632
0.0077437
0.00772369
0.00770316
0.00768211
0.00766052
0.00763841
0.00761575
0.00759254
0.00756878
0.00754446
0.00751957
0.0074941
0.00746804
0.00744139
0.00741413
0.00738627
0.00735778
0.00732866
0.0072989
0.00726849
0.00723741
0.00720567
0.00717324
0.00714012
0.00710629
0.00707175
0.00703648
0.00700047
0.00696371
0.00692619
0.00688789
0.0068488
0.00680891
0.00676821
0.00672668
0.0066843
0.00664107
0.00659697
0.00655198
0.00650608
0.00645926
0.00641151
0.00636279
0.0063131
0.00626241
0.0062107
0.00615795
0.00610412
0.0060492
0.00599315
0.00593594
0.00587754
0.0058179
0.005757
0.00569477
0.00563117
0.00556615
0.00549964
0.00543158
0.00536189
0.00529047
0.00521725
0.0051421
0.0050649
0.00498551
0.00490376
0.00481946
0.00473239
0.00464229
0.00454885
0.00445168
0.00435034
0.00424431
0.00413296
0.00401556
0.00389118
0.00375865
0.00361644
0.00346259
0.00329447
0.00310861
0.00290035
0.00266328
0.00238897
0.002066
0.00167772
0.00120171
0.000619062
6.38379e-05
8.49106e-05
0.000818286
0.00153983
0.00211334
0.00258262
0.00297951
0.00332396
0.00362871
0.00390228
0.00415063
0.00437806
0.00458779
0.0047823
0.00496352
0.00513304
0.00529214
0.00544187
0.00558314
0.00571671
0.00584323
0.00596327
0.00607732
0.00618581
0.00628911
0.00638756
0.00648147
0.00657108
0.00665665
0.00673839
0.00681648
0.0068911
0.00696242
0.00703058
0.00709571
0.00715794
0.00721739
0.00727416
0.00732835
0.00738006
0.00742937
0.00747637
0.00752114
0.00756375
0.00760427
0.00764275
0.00767925
0.00771381
0.00774645
0.00777723
0.00780628
0.00783367
0.00785947
0.00788375
0.00790655
0.00792795
0.00794798
0.0079667
0.00798415
0.00800037
0.00801541
0.00802929
0.00804206
0.00805376
0.00806441
0.00807405
0.00808271
0.00809042
0.00809721
0.0081031
0.00810812
0.0081123
0.00811566
0.00811822
0.00812001
0.00812104
0.00812134
0.00812092
0.0081198
0.008118
0.00811553
0.00811242
0.00810867
0.0081043
0.00809932
0.00809374
0.00808758
0.00808084
0.00807354
0.00806569
0.00805729
0.00804835
0.00803888
0.00802889
0.00801837
0.00800735
0.00799581
0.00798377
0.00797123
0.0079582
0.00794466
0.00793063
0.00791611
0.0079011
0.0078856
0.0078696
0.00785311
0.00783613
0.00781864
0.00780066
0.00778218
0.00776319
0.00774369
0.00772368
0.00770315
0.0076821
0.00766052
0.0076384
0.00761574
0.00759253
0.00756877
0.00754445
0.00751956
0.00749409
0.00746803
0.00744138
0.00741412
0.00738626
0.00735777
0.00732865
0.00729889
0.00726848
0.0072374
0.00720566
0.00717323
0.00714011
0.00710628
0.00707174
0.00703647
0.00700046
0.0069637
0.00692618
0.00688788
0.00684879
0.0068089
0.0067682
0.00672667
0.00668429
0.00664106
0.00659696
0.00655197
0.00650607
0.00645925
0.0064115
0.00636278
0.00631309
0.0062624
0.00621069
0.00615794
0.00610411
0.00604919
0.00599314
0.00593593
0.00587753
0.00581789
0.00575699
0.00569476
0.00563116
0.00556614
0.00549963
0.00543157
0.00536188
0.00529047
0.00521724
0.00514209
0.00506489
0.0049855
0.00490375
0.00481945
0.00473239
0.00464228
0.00454884
0.00445167
0.00435034
0.00424431
0.00413295
0.00401555
0.00389117
0.00375864
0.00361644
0.00346259
0.00329447
0.00310861
0.00290034
0.00266328
0.00238896
0.002066
0.00167772
0.00120168
0.000619031
6.38286e-05
9.30217e-05
0.000912987
0.00177385
0.0024876
0.00308548
0.0035983
0.00404745
0.00444749
0.0048085
0.00513764
0.0054402
0.00572012
0.00598048
0.00622369
0.0064517
0.0066661
0.00686823
0.00705921
0.00724
0.00741142
0.00757418
0.00772893
0.00787622
0.00801653
0.00815031
0.00827794
0.00839979
0.00851616
0.00862735
0.00873362
0.00883521
0.00893234
0.0090252
0.00911399
0.00919888
0.00928003
0.00935758
0.00943168
0.00950246
0.00957005
0.00963455
0.00969607
0.00975473
0.0098106
0.00986378
0.00991435
0.00996238
0.0100079
0.0100511
0.010092
0.0101306
0.0101672
0.0102018
0.0102344
0.0102652
0.0102941
0.0103213
0.0103468
0.0103707
0.010393
0.0104139
0.0104332
0.0104511
0.0104676
0.0104828
0.0104967
0.0105094
0.0105208
0.010531
0.0105401
0.0105481
0.010555
0.0105608
0.0105656
0.0105694
0.0105722
0.0105741
0.0105751
0.0105751
0.0105743
0.0105726
0.01057
0.0105667
0.0105625
0.0105575
0.0105518
0.0105453
0.010538
0.01053
0.0105212
0.0105118
0.0105016
0.0104908
0.0104792
0.0104669
0.010454
0.0104404
0.0104261
0.0104112
0.0103956
0.0103793
0.0103624
0.0103448
0.0103266
0.0103077
0.0102881
0.0102679
0.010247
0.0102254
0.0102031
0.0101802
0.0101566
0.0101323
0.0101073
0.0100816
0.0100552
0.010028
0.0100002
0.00997159
0.00994224
0.00991214
0.00988127
0.00984963
0.00981719
0.00978396
0.00974991
0.00971503
0.00967932
0.00964275
0.00960532
0.00956701
0.00952781
0.0094877
0.00944666
0.00940469
0.00936176
0.00931786
0.00927297
0.00922708
0.00918016
0.00913221
0.0090832
0.00903312
0.00898194
0.00892965
0.00887622
0.00882164
0.00876587
0.00870891
0.00865072
0.00859128
0.00853057
0.00846856
0.00840521
0.0083405
0.00827439
0.00820686
0.00813786
0.00806735
0.00799529
0.00792164
0.00784635
0.00776935
0.0076906
0.00761003
0.00752756
0.00744312
0.00735663
0.00726799
0.0071771
0.00708383
0.00698806
0.00688964
0.00678839
0.00668415
0.00657668
0.00646573
0.00635103
0.00623224
0.00610897
0.00598075
0.00584706
0.00570725
0.00556055
0.00540606
0.00524268
0.00506906
0.00488352
0.00468394
0.00446763
0.00423114
0.00397002
0.00367852
0.0033491
0.00297202
0.00253506
0.00202212
0.0014147
0.000705879
7.01873e-05
9.30223e-05
0.000913015
0.00177391
0.00248769
0.00308559
0.00359842
0.00404758
0.00444763
0.00480863
0.00513778
0.00544033
0.00572025
0.00598061
0.00622381
0.00645182
0.00666622
0.00686835
0.00705932
0.0072401
0.00741151
0.00757428
0.00772902
0.0078763
0.00801661
0.00815038
0.00827801
0.00839986
0.00851623
0.00862741
0.00873368
0.00883527
0.00893239
0.00902525
0.00911404
0.00919893
0.00928007
0.00935762
0.00943172
0.0095025
0.00957008
0.00963458
0.0096961
0.00975475
0.00981062
0.00986381
0.00991438
0.0099624
0.010008
0.0100511
0.010092
0.0101307
0.0101672
0.0102018
0.0102344
0.0102652
0.0102941
0.0103213
0.0103468
0.0103707
0.0103931
0.0104139
0.0104332
0.0104511
0.0104676
0.0104828
0.0104967
0.0105094
0.0105208
0.010531
0.0105401
0.0105481
0.010555
0.0105608
0.0105656
0.0105694
0.0105722
0.0105741
0.0105751
0.0105751
0.0105743
0.0105726
0.01057
0.0105667
0.0105625
0.0105575
0.0105518
0.0105453
0.010538
0.01053
0.0105212
0.0105118
0.0105016
0.0104907
0.0104792
0.0104669
0.010454
0.0104404
0.0104261
0.0104112
0.0103956
0.0103793
0.0103624
0.0103448
0.0103266
0.0103077
0.0102881
0.0102678
0.0102469
0.0102254
0.0102031
0.0101802
0.0101566
0.0101323
0.0101073
0.0100816
0.0100552
0.010028
0.0100002
0.00997158
0.00994223
0.00991213
0.00988126
0.00984962
0.00981718
0.00978395
0.0097499
0.00971502
0.00967931
0.00964274
0.00960531
0.009567
0.0095278
0.00948768
0.00944665
0.00940467
0.00936174
0.00931784
0.00927296
0.00922706
0.00918015
0.0091322
0.00908319
0.00903311
0.00898193
0.00892963
0.00887621
0.00882162
0.00876586
0.0087089
0.00865071
0.00859127
0.00853056
0.00846854
0.00840519
0.00834048
0.00827438
0.00820684
0.00813784
0.00806733
0.00799528
0.00792163
0.00784633
0.00776934
0.00769058
0.00761001
0.00752755
0.00744311
0.00735662
0.00726798
0.00717708
0.00708382
0.00698804
0.00688962
0.00678838
0.00668413
0.00657666
0.00646572
0.00635102
0.00623223
0.00610895
0.00598074
0.00584705
0.00570724
0.00556054
0.00540605
0.00524267
0.00506905
0.00488351
0.00468393
0.00446762
0.00423113
0.00397002
0.00367852
0.00334909
0.00297202
0.00253506
0.00202212
0.00141469
0.000705866
7.01858e-05
9.99249e-05
0.000988839
0.00195571
0.00277977
0.00348202
0.00409122
0.0046291
0.00511114
0.00554839
0.00594887
0.0063185
0.00666178
0.00698219
0.00728247
0.00756483
0.00783108
0.00808274
0.00832106
0.00854714
0.00876191
0.0089662
0.00916071
0.00934609
0.00952291
0.00969168
0.00985285
0.0100068
0.010154
0.0102948
0.0104294
0.0105581
0.0106813
0.0107991
0.0109119
0.0110197
0.0111229
0.0112216
0.0113159
0.0114061
0.0114923
0.0115747
0.0116533
0.0117284
0.0117999
0.0118682
0.0119332
0.0119951
0.0120539
0.0121098
0.0121628
0.0122132
0.0122609
0.0123062
0.012349
0.0123895
0.0124278
0.0124639
0.0124979
0.0125299
0.0125599
0.0125881
0.0126144
0.012639
0.0126618
0.0126831
0.0127027
0.0127207
0.0127372
0.0127523
0.012766
0.0127782
0.0127892
0.0127988
0.0128071
0.0128142
0.0128201
0.0128249
0.0128285
0.0128309
0.0128323
0.0128326
0.0128319
0.0128301
0.0128274
0.0128236
0.0128189
0.0128133
0.0128067
0.0127992
0.0127908
0.0127815
0.0127713
0.0127603
0.0127484
0.0127357
0.0127221
0.0127076
0.0126924
0.0126763
0.0126594
0.0126416
0.0126231
0.0126037
0.0125835
0.0125625
0.0125406
0.012518
0.0124945
0.0124702
0.012445
0.012419
0.0123921
0.0123644
0.0123358
0.0123064
0.012276
0.0122448
0.0122126
0.0121796
0.0121456
0.0121106
0.0120747
0.0120378
0.012
0.0119611
0.0119213
0.0118804
0.0118384
0.0117954
0.0117513
0.0117061
0.0116598
0.0116124
0.0115637
0.0115139
0.011463
0.0114107
0.0113573
0.0113026
0.0112466
0.0111893
0.0111306
0.0110706
0.0110092
0.0109464
0.0108821
0.0108164
0.0107492
0.0106805
0.0106101
0.0105382
0.0104647
0.0103895
0.0103126
0.0102339
0.0101534
0.0100711
0.0099869
0.00990074
0.00981257
0.00972232
0.00962994
0.00953533
0.00943843
0.00933915
0.00923738
0.00913302
0.00902596
0.00891606
0.00880319
0.00868718
0.00856785
0.00844501
0.00831843
0.00818786
0.00805299
0.00791351
0.00776902
0.00761908
0.00746318
0.00730071
0.00713096
0.0069531
0.00676613
0.00656887
0.00635989
0.00613745
0.00589944
0.00564322
0.00536551
0.00506222
0.00472824
0.0043571
0.0039407
0.00346893
0.00292935
0.00230741
0.00158886
0.000776892
7.54995e-05
9.99256e-05
0.000988868
0.00195578
0.00277986
0.00348214
0.00409135
0.00462924
0.00511129
0.00554855
0.00594902
0.00631865
0.00666193
0.00698234
0.00728261
0.00756497
0.00783122
0.00808287
0.00832119
0.00854726
0.00876203
0.00896631
0.00916082
0.0093462
0.00952301
0.00969177
0.00985294
0.0100069
0.0101541
0.0102948
0.0104294
0.0105582
0.0106814
0.0107992
0.0109119
0.0110198
0.0111229
0.0112216
0.011316
0.0114062
0.0114924
0.0115747
0.0116533
0.0117284
0.0118
0.0118682
0.0119332
0.0119951
0.0120539
0.0121098
0.0121629
0.0122132
0.012261
0.0123062
0.012349
0.0123895
0.0124278
0.0124639
0.0124979
0.0125299
0.0125599
0.0125881
0.0126144
0.012639
0.0126619
0.0126831
0.0127027
0.0127207
0.0127372
0.0127523
0.012766
0.0127782
0.0127892
0.0127988
0.0128071
0.0128142
0.0128201
0.0128249
0.0128285
0.0128309
0.0128323
0.0128326
0.0128319
0.0128301
0.0128274
0.0128236
0.0128189
0.0128133
0.0128067
0.0127992
0.0127908
0.0127815
0.0127713
0.0127603
0.0127484
0.0127356
0.0127221
0.0127076
0.0126924
0.0126763
0.0126594
0.0126416
0.0126231
0.0126037
0.0125835
0.0125625
0.0125406
0.012518
0.0124945
0.0124701
0.012445
0.012419
0.0123921
0.0123644
0.0123358
0.0123063
0.012276
0.0122448
0.0122126
0.0121795
0.0121455
0.0121106
0.0120747
0.0120378
0.012
0.0119611
0.0119213
0.0118804
0.0118384
0.0117954
0.0117513
0.0117061
0.0116598
0.0116123
0.0115637
0.0115139
0.0114629
0.0114107
0.0113573
0.0113026
0.0112466
0.0111892
0.0111306
0.0110706
0.0110092
0.0109464
0.0108821
0.0108164
0.0107492
0.0106804
0.0106101
0.0105382
0.0104647
0.0103895
0.0103126
0.0102339
0.0101534
0.0100711
0.00998689
0.00990073
0.00981255
0.00972231
0.00962992
0.00953532
0.00943842
0.00933913
0.00923736
0.009133
0.00902594
0.00891605
0.00880317
0.00868716
0.00856784
0.008445
0.00831842
0.00818784
0.00805298
0.00791349
0.007769
0.00761906
0.00746316
0.00730069
0.00713095
0.00695308
0.00676612
0.00656886
0.00635988
0.00613744
0.00589943
0.00564321
0.0053655
0.00506222
0.00472823
0.0043571
0.0039407
0.00346893
0.00292935
0.00230741
0.00158886
0.000776885
7.54993e-05
0.000106229
0.00105356
0.00210566
0.00301818
0.00380543
0.00449443
0.00510685
0.0056587
0.00616163
0.00662423
0.00705289
0.00745248
0.00782678
0.00817875
0.00851079
0.00882484
0.00912252
0.0094052
0.00967402
0.00993
0.010174
0.0104068
0.010629
0.0108414
0.0110443
0.0112384
0.0114241
0.0116018
0.0117718
0.0119346
0.0120905
0.0122397
0.0123826
0.0125194
0.0126503
0.0127757
0.0128957
0.0130105
0.0131203
0.0132254
0.0133258
0.0134218
0.0135135
0.0136011
0.0136846
0.0137643
0.0138403
0.0139127
0.0139815
0.0140471
0.0141093
0.0141685
0.0142247
0.014278
0.0143285
0.0143764
0.0144216
0.0144644
0.0145048
0.0145428
0.0145786
0.0146122
0.0146437
0.0146732
0.0147007
0.0147263
0.0147501
0.014772
0.0147923
0.0148108
0.0148277
0.014843
0.0148567
0.0148689
0.0148797
0.014889
0.014897
0.0149036
0.0149088
0.0149128
0.0149155
0.014917
0.0149172
0.0149163
0.0149142
0.014911
0.0149066
0.0149012
0.0148946
0.014887
0.0148784
0.0148687
0.0148579
0.0148462
0.0148334
0.0148197
0.0148049
0.0147892
0.0147725
0.0147548
0.0147361
0.0147165
0.0146959
0.0146743
0.0146518
0.0146283
0.0146038
0.0145783
0.0145518
0.0145244
0.0144959
0.0144664
0.0144359
0.0144044
0.0143719
0.0143383
0.0143036
0.0142678
0.014231
0.0141931
0.014154
0.0141138
0.0140724
0.0140299
0.0139862
0.0139412
0.0138951
0.0138476
0.013799
0.013749
0.0136977
0.013645
0.0135911
0.0135357
0.0134789
0.0134206
0.0133609
0.0132998
0.013237
0.0131728
0.013107
0.0130395
0.0129704
0.0128997
0.0128272
0.012753
0.012677
0.0125992
0.0125196
0.012438
0.0123545
0.012269
0.0121815
0.0120919
0.0120001
0.0119062
0.01181
0.0117114
0.0116105
0.0115071
0.0114011
0.0112925
0.0111811
0.0110669
0.0109498
0.0108296
0.0107062
0.0105794
0.0104491
0.0103151
0.0101772
0.0100352
0.00988876
0.00973768
0.00958162
0.00942021
0.00925304
0.00907962
0.0088994
0.00871176
0.00851593
0.00831106
0.00809612
0.00786991
0.00763098
0.00737761
0.00710775
0.00681888
0.00650796
0.00617126
0.00580422
0.00540122
0.00495541
0.00445841
0.00390012
0.00326866
0.00255122
0.00173714
0.000837801
8.01511e-05
0.000106229
0.00105358
0.00210573
0.00301828
0.00380556
0.00449457
0.005107
0.00565886
0.0061618
0.00662439
0.00705305
0.00745265
0.00782694
0.00817891
0.00851094
0.00882499
0.00912267
0.00940534
0.00967416
0.00993013
0.0101741
0.0104069
0.0106291
0.0108415
0.0110444
0.0112385
0.0114242
0.0116018
0.0117719
0.0119347
0.0120905
0.0122398
0.0123826
0.0125194
0.0126504
0.0127757
0.0128957
0.0130105
0.0131204
0.0132254
0.0133258
0.0134218
0.0135135
0.0136011
0.0136847
0.0137644
0.0138403
0.0139127
0.0139816
0.0140471
0.0141094
0.0141685
0.0142247
0.014278
0.0143286
0.0143764
0.0144217
0.0144644
0.0145048
0.0145428
0.0145786
0.0146122
0.0146437
0.0146732
0.0147007
0.0147263
0.0147501
0.014772
0.0147923
0.0148108
0.0148277
0.014843
0.0148567
0.0148689
0.0148797
0.014889
0.014897
0.0149036
0.0149088
0.0149128
0.0149155
0.014917
0.0149172
0.0149163
0.0149142
0.014911
0.0149066
0.0149012
0.0148946
0.014887
0.0148784
0.0148687
0.0148579
0.0148462
0.0148334
0.0148197
0.0148049
0.0147892
0.0147725
0.0147548
0.0147361
0.0147165
0.0146959
0.0146743
0.0146518
0.0146283
0.0146038
0.0145783
0.0145518
0.0145244
0.0144959
0.0144664