/*--------------------------------*- C++ -*----------------------------------*\
  =========                 |
  \\      /  F ield         | OpenFOAM: The Open Source CFD Toolbox
   \\    /   O peration     | Website:  https://openfoam.org
    \\  /    A nd           | Version:  8
     \\/     M anipulation  |
\*---------------------------------------------------------------------------*/
FoamFile
{
    version     2.0;
    format      ascii;
    class       volScalarField;
    location    "2300";
    object      epsilon;
}
// * * * * * * * * * * * * * * * * * * * * * * * * * * * * * * * * * * * * * //

dimensions      [0 2 -3 0 0 0 0];

internalField   nonuniform List<scalar> 
48000
(
0.69781
2.75238
5.21905
7.82867
10.542
13.2485
15.9404
18.6734
21.4296
24.1931
26.9717
29.7634
32.5666
35.3789
38.1979
41.0204
43.8428
46.6615
49.4723
52.2707
55.0525
57.8129
60.5473
63.2512
65.92
68.5493
71.1348
73.6724
76.1583
78.5888
80.9605
83.2704
85.5156
87.6936
89.8021
91.8393
93.8035
95.6934
97.5078
99.246
100.907
102.492
103.999
105.429
106.782
108.058
109.258
110.391
111.457
112.452
113.376
114.228
115.012
115.729
116.38
116.968
117.493
117.958
118.365
118.715
119.009
119.251
119.442
119.582
119.675
119.722
119.724
119.683
119.6
119.478
119.318
119.121
118.889
118.623
118.324
117.994
117.634
117.245
116.828
116.385
115.916
115.423
114.907
114.368
113.807
113.226
112.624
112.004
111.365
110.708
110.035
109.344
108.638
107.917
107.181
106.43
105.666
104.888
104.098
103.294
102.479
101.652
100.813
99.9625
99.1012
98.2292
97.3466
96.4537
95.5506
94.6376
93.7149
92.7825
91.8407
90.8896
89.9293
88.96
87.9817
86.9946
85.9989
84.9945
83.9817
82.9605
81.9311
80.8935
79.8479
78.7944
77.7332
76.6643
75.588
74.5043
73.4134
72.3155
71.2109
70.0996
68.9819
67.858
66.7282
65.5927
64.4517
63.3056
62.1547
60.9993
59.8397
58.6762
57.5093
56.3393
55.1667
53.9918
52.8151
51.6371
50.4581
49.2788
48.0995
46.9209
45.7433
44.5675
43.3938
42.2228
41.0551
39.8913
38.7319
37.5775
36.4286
35.2858
34.1496
33.0206
31.8993
30.7863
29.682
28.5869
27.5014
26.4261
25.3613
24.3075
23.2648
22.2338
21.2145
20.2073
19.2124
18.2298
17.2596
16.3023
15.3587
14.4312
13.523
12.6252
11.7356
10.8539
9.97836
9.10771
8.23996
7.3726
6.50449
5.642
4.77128
3.88547
2.97717
2.04392
1.13442
0.597629
0.697849
2.75249
5.21923
7.82889
10.5423
13.2488
15.9407
18.6738
21.4299
24.1934
26.972
29.7638
32.5669
35.3793
38.1982
41.0207
43.8432
46.6618
49.4726
52.2711
55.0528
57.8132
60.5476
63.2515
65.9202
68.5495
71.135
73.6726
76.1585
78.589
80.9607
83.2706
85.5158
87.6937
89.8023
91.8395
93.8037
95.6935
97.5079
99.2461
100.908
102.492
103.999
105.429
106.782
108.058
109.258
110.391
111.457
112.452
113.376
114.228
115.012
115.729
116.38
116.968
117.493
117.958
118.365
118.715
119.009
119.251
119.442
119.582
119.675
119.722
119.724
119.683
119.6
119.478
119.318
119.121
118.889
118.623
118.324
117.994
117.634
117.245
116.828
116.385
115.916
115.423
114.907
114.368
113.807
113.226
112.624
112.004
111.365
110.708
110.034
109.344
108.638
107.917
107.181
106.43
105.666
104.888
104.098
103.294
102.479
101.652
100.813
99.9624
99.1011
98.2291
97.3465
96.4536
95.5505
94.6376
93.7148
92.7825
91.8407
90.8895
89.9293
88.9599
87.9817
86.9946
85.9988
84.9945
83.9816
82.9605
81.931
80.8935
79.8479
78.7944
77.7331
76.6643
75.5879
74.5042
73.4134
72.3155
71.2108
70.0995
68.9818
67.858
66.7281
65.5926
64.4517
63.3056
62.1547
60.9992
59.8396
58.6762
57.5093
56.3393
55.1667
53.9918
52.8151
51.637
50.4581
49.2787
48.0995
46.9208
45.7433
44.5674
43.3937
42.2228
41.0551
39.8913
38.7319
37.5775
36.4286
35.2858
34.1496
33.0206
31.8993
30.7863
29.682
28.5869
27.5014
26.4261
25.3613
24.3075
23.2648
22.2338
21.2145
20.2073
19.2124
18.2298
17.2596
16.3023
15.3587
14.4312
13.523
12.6252
11.7356
10.8539
9.97836
9.10772
8.23996
7.3726
6.50449
5.64199
4.77125
3.88537
2.97684
2.04319
1.13442
0.597151
3.24518
2.79089
3.58791
4.56969
5.63665
6.74139
7.86321
9.00533
10.1658
11.342
12.5338
13.7403
14.9605
16.1931
17.4366
18.6891
19.9486
21.2128
22.4795
23.746
25.0099
26.2683
27.5188
28.7586
29.9851
31.1959
32.3884
33.5604
34.7097
35.8342
36.932
38.0015
39.0409
40.049
41.0245
41.9663
42.8736
43.7455
44.5815
45.3811
46.1441
46.8702
47.5594
48.2118
48.8275
49.407
49.9509
50.4619
50.9399
51.3842
51.7948
52.1722
52.5169
52.8297
53.1114
53.3629
53.585
53.7786
53.9445
54.0837
54.197
54.2853
54.3496
54.3906
54.4093
54.4065
54.383
54.3396
54.2771
54.1964
54.098
53.9829
53.8516
53.7049
53.5434
53.3678
53.1787
52.9767
52.7623
52.5361
52.2985
52.0502
51.7916
51.5231
51.2452
50.9583
50.6627
50.3589
50.0472
49.7279
49.4014
49.0679
48.7277
48.3812
48.0284
47.6698
47.3054
46.9355
46.5604
46.1801
45.7948
45.4047
45.0099
44.6107
44.207
43.799
43.3869
42.9706
42.5504
42.1263
41.6983
41.2666
40.8312
40.3922
39.9497
39.5036
39.0541
38.6012
38.145
37.6854
37.2226
36.7567
36.2875
35.8153
35.3401
34.8618
34.3806
33.8965
33.4096
32.92
32.4276
31.9327
31.4353
30.9354
30.4331
29.9286
29.422
28.9133
28.4026
27.8902
27.3762
26.8605
26.3435
25.8253
25.306
24.7859
24.2649
23.7435
23.2217
22.6998
22.1779
21.6563
21.1351
20.6147
20.0952
19.5769
19.0599
18.5447
18.0313
17.52
17.0111
16.5048
16.0014
15.501
15.004
14.5106
14.021
13.5354
13.0541
12.5771
12.1049
11.6374
11.175
10.7177
10.2658
9.8192
9.37819
8.9428
8.51311
8.08919
7.67108
7.25891
6.85284
6.45315
6.05989
5.67174
5.28817
4.90954
4.53511
4.16456
3.79755
3.43393
3.07432
2.72038
2.37016
2.02456
1.68902
1.38315
1.18587
1.92339
3.24533
2.79087
3.58784
4.56959
5.63653
6.74125
7.86306
9.00517
10.1656
11.3418
12.5336
13.7401
14.9603
16.1929
17.4363
18.6888
19.9483
21.2126
22.4792
23.7458
25.0096
26.2681
27.5185
28.7583
29.9848
31.1956
32.3881
33.5601
34.7094
35.8339
36.9317
38.0012
39.0406
40.0487
41.0242
41.966
42.8733
43.7452
44.5812
45.3808
46.1438
46.8699
47.5591
48.2115
48.8272
49.4066
49.9506
50.4615
50.9395
51.3839
51.7945
52.1718
52.5165
52.8294
53.1111
53.3626
53.5847
53.7782
53.9441
54.0833
54.1966
54.285
54.3493
54.3903
54.409
54.4062
54.3827
54.3393
54.2768
54.196
54.0977
53.9826
53.8513
53.7046
53.5431
53.3675
53.1784
52.9764
52.762
52.5357
52.2982
52.0499
51.7913
51.5228
51.2449
50.958
50.6624
50.3586
50.0469
49.7276
49.4011
49.0676
48.7275
48.3809
48.0282
47.6695
47.3051
46.9353
46.5601
46.1798
45.7945
45.4044
45.0097
44.6104
44.2067
43.7987
43.3866
42.9704
42.5501
42.126
41.6981
41.2664
40.831
40.392
39.9494
39.5034
39.0539
38.601
38.1447
37.6852
37.2224
36.7564
36.2873
35.8151
35.3398
34.8616
34.3804
33.8963
33.4094
32.9198
32.4274
31.9325
31.4351
30.9352
30.4329
29.9284
29.4218
28.9131
28.4025
27.8901
27.376
26.8604
26.3434
25.8252
25.3059
24.7857
24.2648
23.7433
23.2216
22.6996
22.1777
21.6561
21.135
20.6146
20.0951
19.5767
19.0598
18.5445
18.0311
17.5199
17.011
16.5047
16.0013
15.5009
15.0039
14.5105
14.0209
13.5353
13.054
12.5771
12.1048
11.6374
11.1749
10.7176
10.2657
9.81913
9.37811
8.94273
8.51304
8.08912
7.67102
7.25885
6.85278
6.4531
6.05984
5.67169
5.28813
4.90949
4.53507
4.16452
3.79752
3.4339
3.07429
2.72036
2.37012
2.02449
1.68892
1.3833
1.18587
1.92295
5.95336
3.74893
4.00675
4.60088
5.31626
6.09381
6.90916
7.75223
8.61739
9.50105
10.401
11.3157
12.2436
13.1832
14.1333
15.0921
16.0579
17.0289
18.0031
18.9785
19.9529
20.9242
21.8901
22.8486
23.7974
24.7344
25.6577
26.5652
27.4552
28.326
29.176
30.0036
30.8077
31.587
32.3406
33.0674
33.7667
34.438
35.0808
35.6945
36.2791
36.8344
37.3602
37.8568
38.3243
38.7629
39.1734
39.5565
39.9126
40.2419
40.5446
40.821
41.0717
41.2972
41.4983
41.6754
41.8294
41.961
42.0708
42.1596
42.2281
42.2771
42.3071
42.3191
42.3136
42.2913
42.2529
42.1991
42.1305
42.0478
41.9515
41.8422
41.7206
41.5871
41.4424
41.2869
41.121
40.9454
40.7604
40.5666
40.3642
40.1537
39.9356
39.71
39.4775
39.2384
38.9928
38.7412
38.4839
38.221
37.9529
37.6797
37.4018
37.1192
36.8323
36.5411
36.2459
35.9469
35.6441
35.3377
35.0279
34.7148
34.3984
34.079
33.7565
33.4311
33.1028
32.7719
32.4382
32.1019
31.763
31.4217
31.0779
30.7317
30.3831
30.0323
29.6792
29.3238
28.9663
28.6066
28.2448
27.881
27.5151
27.1472
26.7774
26.4057
26.032
25.6566
25.2794
24.9004
24.5198
24.1375
23.7537
23.3684
22.9817
22.5936
22.2043
21.8137
21.4221
21.0295
20.636
20.2416
19.8466
19.451
19.055
18.6587
18.2621
17.8655
17.4691
17.0728
16.677
16.2817
15.8872
15.4936
15.101
14.7097
14.3198
13.9315
13.545
13.1604
12.7781
12.398
12.0205
11.6456
11.2736
10.9047
10.539
10.1767
9.81797
9.46292
9.11173
8.76452
8.42144
8.0826
7.74812
7.41808
7.09259
6.77172
6.45554
6.14411
5.8375
5.53578
5.23902
4.94728
4.66053
4.37851
4.1011
3.82828
3.55993
3.2964
3.03785
2.78469
2.53783
2.29879
2.06932
1.85356
1.66148
1.52009
1.52405
2.49178
5.95358
3.74887
4.00662
4.60073
5.31608
6.09362
6.90896
7.75202
8.61716
9.50082
10.4008
11.3154
12.2433
13.183
14.133
15.0918
16.0576
17.0286
18.0028
18.9782
19.9526
20.9239
21.8899
22.8483
23.7971
24.7341
25.6574
26.565
27.455
28.3258
29.1757
30.0034
30.8075
31.5868
32.3403
33.0672
33.7665
34.4378
35.0805
35.6943
36.2789
36.8342
37.36
37.8566
38.3241
38.7628
39.1732
39.5563
39.9124
40.2417
40.5444
40.8208
41.0715
41.2971
41.4981
41.6753
41.8293
41.9608
42.0707
42.1595
42.228
42.2769
42.307
42.3189
42.3134
42.2911
42.2528
42.199
42.1304
42.0476
41.9514
41.8421
41.7205
41.587
41.4423
41.2867
41.1209
40.9453
40.7603
40.5664
40.3641
40.1536
39.9354
39.7099
39.4774
39.2382
38.9927
38.7411
38.4838
38.2209
37.9528
37.6796
37.4017
37.1191
36.8322
36.541
36.2458
35.9468
35.644
35.3376
35.0278
34.7147
34.3983
34.0789
33.7564
33.431
33.1028
32.7718
32.4381
32.1018
31.7629
31.4216
31.0778
30.7316
30.3831
30.0322
29.6791
29.3237
28.9662
28.6066
28.2448
27.8809
27.515
27.1472
26.7773
26.4056
26.032
25.6565
25.2793
24.9003
24.5197
24.1375
23.7536
23.3683
22.9816
22.5936
22.2042
21.8137
21.4221
21.0294
20.6359
20.2416
19.8466
19.451
19.055
18.6586
18.2621
17.8655
17.469
17.0728
16.677
16.2817
15.8872
15.4935
15.101
14.7097
14.3198
13.9315
13.545
13.1604
12.778
12.398
12.0204
11.6456
11.2736
10.9047
10.539
10.1767
9.81794
9.4629
9.1117
8.7645
8.42142
8.08258
7.74809
7.41806
7.09257
6.7717
6.45552
6.14409
5.83748
5.53576
5.239
4.94727
4.66051
4.3785
4.10108
3.82827
3.55992
3.29639
3.03784
2.78468
2.53782
2.29878
2.06931
1.85354
1.66142
1.52013
1.52408
2.49271
8.7023
4.91331
4.76841
5.13731
5.68428
6.32053
7.01045
7.73674
8.48972
9.26351
10.0543
10.8594
11.6767
12.5046
13.3414
14.1855
15.0355
15.8896
16.7461
17.6033
18.4593
19.3122
20.1602
21.0013
21.8338
22.6556
23.4651
24.2606
25.0405
25.8031
26.5472
27.2715
27.9747
28.6558
29.3139
29.9481
30.5579
31.1426
31.7018
32.2351
32.7424
33.2235
33.6783
34.107
34.5097
34.8867
35.2384
35.5653
35.8678
36.1462
36.4008
36.632
36.8404
37.0264
37.1905
37.3335
37.4559
37.5583
37.6415
37.7059
37.7524
37.7814
37.7938
37.7901
37.7709
37.7369
37.6887
37.6269
37.552
37.4647
37.3654
37.2548
37.1332
37.0013
36.8596
36.7083
36.5482
36.3794
36.2026
36.018
35.8261
35.6271
35.4216
35.2097
34.9918
34.7681
34.5391
34.3049
34.0658
33.822
33.5738
33.3213
33.0648
32.8045
32.5405
32.273
32.0022
31.7282
31.4511
31.1711
30.8882
30.6027
30.3145
30.0239
29.7308
29.4354
29.1377
28.8378
28.5358
28.2317
27.9256
27.6175
27.3076
26.9957
26.682
26.3666
26.0493
25.7304
25.4098
25.0875
24.7637
24.4382
24.1113
23.7828
23.4528
23.1214
22.7886
22.4545
22.119
21.7823
21.4444
21.1053
20.765
20.4237
20.0815
19.7382
19.3942
19.0493
18.7037
18.3575
18.0108
17.6636
17.3161
16.9683
16.6204
16.2725
15.9247
15.577
15.2297
14.8829
14.5367
14.1912
13.8466
13.5031
13.1607
12.8197
12.4801
12.1422
11.8061
11.4719
11.1399
10.8101
10.4828
10.158
9.83601
9.51688
9.20078
8.88787
8.57828
8.27214
7.96958
7.67073
7.37569
7.08459
6.79752
6.51457
6.23583
5.9614
5.69133
5.42572
5.16464
4.90816
4.65637
4.40933
4.16709
3.92968
3.69716
3.46967
3.24743
3.03084
2.82045
2.61715
2.42244
2.23849
2.06899
1.92089
1.80923
1.77389
1.96694
3.71672
8.70256
4.91324
4.76825
5.13712
5.68408
6.32031
7.01023
7.73651
8.48948
9.26327
10.054
10.8591
11.6764
12.5043
13.3411
14.1853
15.0352
15.8893
16.7459
17.6031
18.4591
19.312
20.16
21.0011
21.8335
22.6554
23.4649
24.2604
25.0402
25.8029
26.547
27.2713
27.9745
28.6556
29.3137
29.948
30.5577
31.1424
31.7016
32.235
32.7423
33.2233
33.6782
34.1069
34.5096
34.8866
35.2383
35.5651
35.8677
36.146
36.4007
36.6319
36.8403
37.0263
37.1904
37.3334
37.4558
37.5582
37.6414
37.7058
37.7523
37.7813
37.7937
37.79
37.7708
37.7369
37.6887
37.6268
37.552
37.4646
37.3653
37.2547
37.1332
37.0013
36.8595
36.7083
36.5481
36.3794
36.2025
36.0179
35.826
35.6271
35.4215
35.2096
34.9917
34.7681
34.539
34.3048
34.0657
33.8219
33.5737
33.3213
33.0648
32.8045
32.5405
32.273
32.0022
31.7281
31.4511
31.171
30.8882
30.6027
30.3145
30.0238
29.7308
29.4353
29.1377
28.8378
28.5358
28.2317
27.9256
27.6175
27.3075
26.9957
26.682
26.3665
26.0493
25.7304
25.4098
25.0875
24.7637
24.4382
24.1112
23.7828
23.4528
23.1214
22.7886
22.4545
22.119
21.7823
21.4444
21.1052
20.765
20.4237
20.0814
19.7382
19.3941
19.0493
18.7037
18.3575
18.0108
17.6636
17.3161
16.9683
16.6204
16.2725
15.9246
15.577
15.2297
14.8829
14.5367
14.1912
13.8466
13.5031
13.1607
12.8197
12.4801
12.1422
11.8061
11.4719
11.1399
10.8101
10.4828
10.158
9.836
9.51687
9.20078
8.88787
8.57827
8.27213
7.96958
7.67072
7.37569
7.08458
6.79751
6.51456
6.23583
5.96139
5.69133
5.42572
5.16463
4.90816
4.65636
4.40933
4.16709
3.92968
3.69716
3.46967
3.24743
3.03084
2.82045
2.61715
2.42244
2.23849
2.06899
1.92088
1.80923
1.77394
1.96701
3.71692
11.4418
6.17929
5.68051
5.87939
6.31577
6.86851
7.48954
8.15507
8.85165
9.57105
10.3079
11.0584
11.82
12.5904
13.3681
14.1513
14.9386
15.7284
16.5192
17.3096
18.0979
18.8824
19.6616
20.4337
21.1973
21.9505
22.692
23.4202
24.1336
24.8309
25.5108
26.1722
26.8141
27.4353
28.0352
28.613
29.168
29.6998
30.2079
30.6921
31.152
31.5877
31.9991
32.3862
32.7492
33.0883
33.4039
33.6963
33.9659
34.2131
34.4382
34.6416
34.8237
34.9851
35.1264
35.2479
35.3504
35.4344
35.5005
35.5493
35.5814
35.5974
35.598
35.5836
35.5549
35.5125
35.4569
35.3887
35.3085
35.2167
35.1139
35.0006
34.8772
34.7443
34.6023
34.4516
34.2926
34.1258
33.9515
33.7701
33.582
33.3875
33.1869
32.9805
32.7686
32.5516
32.3296
32.103
31.8719
31.6365
31.3972
31.1541
30.9073
30.6572
30.4037
30.1471
29.8876
29.6252
29.3601
29.0924
28.8223
28.5498
28.275
27.998
27.7189
27.4378
27.1548
26.8698
26.5831
26.2945
26.0043
25.7123
25.4188
25.1237
24.827
24.5289
24.2293
23.9282
23.6258
23.322
23.0169
22.7105
22.4028
22.0939
21.7838
21.4726
21.1602
20.8467
20.5323
20.2168
19.9003
19.583
19.2648
18.9458
18.626
18.3056
17.9846
17.663
17.3409
17.0185
16.6957
16.3727
16.0496
15.7264
15.4033
15.0803
14.7576
14.4353
14.1135
13.7923
13.4718
13.1522
12.8336
12.5161
12.1999
11.8851
11.5718
11.2602
10.9505
10.6427
10.337
10.0335
9.73249
9.43399
9.13816
8.84515
8.55509
8.26811
7.98434
7.7039
7.4269
7.15348
6.88373
6.61775
6.35567
6.09756
5.84352
5.59365
5.34804
5.10678
4.86998
4.63772
4.41013
4.18733
3.96945
3.75665
3.54913
3.34721
3.1513
2.96201
2.78022
2.60721
2.44493
2.29645
2.16697
2.06621
2.01468
2.06647
2.43126
4.91957
11.4421
6.17919
5.68033
5.87919
6.31554
6.86828
7.4893
8.15482
8.8514
9.57078
10.3076
11.0581
11.8197
12.5902
13.3678
14.151
14.9383
15.7281
16.519
17.3093
18.0976
18.8821
19.6613
20.4335
21.197
21.9503
22.6918
23.42
24.1334
24.8307
25.5106
26.1721
26.8139
27.4351
28.035
28.6128
29.1678
29.6996
30.2078
30.6919
31.1519
31.5876
31.9989
32.3861
32.7491
33.0882
33.4038
33.6962
33.9658
34.213
34.4381
34.6415
34.8236
34.9851
35.1263
35.2478
35.3503
35.4343
35.5004
35.5492
35.5813
35.5974
35.5979
35.5835
35.5548
35.5124
35.4569
35.3887
35.3084
35.2167
35.1139
35.0005
34.8772
34.7443
34.6022
34.4515
34.2926
34.1257
33.9515
33.7701
33.5819
33.3874
33.1868
32.9804
32.7686
32.5516
32.3296
32.1029
31.8718
31.6365
31.3972
31.1541
30.9073
30.6571
30.4037
30.1471
29.8875
29.6252
29.3601
29.0924
28.8223
28.5498
28.275
27.998
27.7189
27.4378
27.1547
26.8698
26.583
26.2945
26.0042
25.7123
25.4188
25.1237
24.827
24.5289
24.2292
23.9282
23.6258
23.322
23.0169
22.7105
22.4028
22.0939
21.7838
21.4725
21.1602
20.8467
20.5322
20.2168
19.9003
19.583
19.2648
18.9458
18.626
18.3056
17.9846
17.663
17.3409
17.0185
16.6957
16.3727
16.0496
15.7264
15.4033
15.0803
14.7576
14.4353
14.1135
13.7923
13.4718
13.1522
12.8336
12.5161
12.1999
11.8851
11.5718
11.2602
10.9505
10.6427
10.337
10.0335
9.73249
9.43399
9.13816
8.84515
8.55509
8.26811
7.98434
7.7039
7.42691
7.15348
6.88373
6.61776
6.35567
6.09756
5.84352
5.59365
5.34804
5.10679
4.86998
4.63772
4.41014
4.18733
3.96945
3.75665
3.54913
3.34721
3.1513
2.96201
2.78022
2.60721
2.44494
2.29645
2.16697
2.06621
2.01468
2.06649
2.4313
4.91962
14.1824
7.50306
6.68696
6.74588
7.09972
7.59571
8.17342
8.80293
9.46727
10.156
10.8622
11.5812
12.3098
13.0454
13.7861
14.5303
15.2766
16.0235
16.7697
17.514
18.2549
18.991
19.721
20.4435
21.1571
21.8603
22.5519
23.2305
23.8947
24.5436
25.1758
25.7904
26.3864
26.963
27.5194
28.055
28.5691
29.0613
29.5312
29.9786
30.4033
30.8051
31.1841
31.5402
31.8736
32.1846
32.4733
32.7402
32.9855
33.2096
33.4128
33.5956
33.7585
33.9017
34.026
34.1317
34.2194
34.2897
34.3431
34.3802
34.4016
34.4077
34.3993
34.3767
34.3407
34.2917
34.2302
34.1568
34.0721
33.9764
33.8703
33.7543
33.6288
33.4943
33.3511
33.1998
33.0407
32.8742
32.7006
32.5203
32.3337
32.1411
31.9427
31.7389
31.53
31.3162
31.0977
30.8749
30.6479
30.417
30.1823
29.9441
29.7025
29.4578
29.21
28.9593
28.7058
28.4497
28.1912
27.9303
27.6671
27.4017
27.1342
26.8648
26.5935
26.3203
26.0453
25.7687
25.4904
25.2106
24.9292
24.6463
24.362
24.0763
23.7892
23.5008
23.2112
22.9203
22.6281
22.3348
22.0404
21.7448
21.4482
21.1505
20.8518
20.5521
20.2515
19.95
19.6476
19.3444
19.0404
18.7357
18.4303
18.1243
17.8177
17.5106
17.203
16.895
16.5868
16.2783
15.9696
15.6609
15.3521
15.0435
14.735
14.4268
14.119
13.8117
13.505
13.199
12.8938
12.5896
12.2865
11.9845
11.6839
11.3847
11.0871
10.7912
10.4972
10.2051
9.91514
9.62742
9.34207
9.05923
8.77903
8.50159
8.22704
7.9555
7.6871
7.42195
7.16017
6.90186
6.64715
6.39612
6.1489
5.90558
5.66627
5.43107
5.20009
4.97345
4.75126
4.53368
4.32084
4.11293
3.91017
3.7128
3.52118
3.33573
3.15706
2.98599
2.82367
2.67178
2.53281
2.41066
2.31192
2.24885
2.2476
2.37685
2.90348
6.12007
14.1828
7.50294
6.68677
6.74565
7.09947
7.59545
8.17316
8.80266
9.46699
10.1557
10.8619
11.5809
12.3095
13.0451
13.7858
14.53
15.2763
16.0232
16.7695
17.5137
18.2546
18.9908
19.7208
20.4433
21.1569
21.8601
22.5517
23.2302
23.8945
24.5434
25.1756
25.7902
26.3862
26.9628
27.5193
28.0548
28.5689
29.0611
29.5311
29.9785
30.4032
30.805
31.1839
31.5401
31.8735
32.1845
32.4732
32.7401
32.9854
33.2095
33.4127
33.5956
33.7584
33.9017
34.0259
34.1316
34.2194
34.2897
34.3431
34.3802
34.4015
34.4077
34.3992
34.3767
34.3406
34.2916
34.2301
34.1568
34.072
33.9763
33.8703
33.7543
33.6288
33.4942
33.3511
33.1998
33.0407
32.8741
32.7006
32.5203
32.3337
32.141
31.9427
31.7389
31.53
31.3161
31.0977
30.8749
30.6479
30.417
30.1823
29.9441
29.7025
29.4577
29.2099
28.9592
28.7058
28.4497
28.1912
27.9302
27.667
27.4017
27.1342
26.8648
26.5934
26.3203
26.0453
25.7687
25.4904
25.2106
24.9292
24.6463
24.362
24.0763
23.7892
23.5008
23.2112
22.9202
22.6281
22.3348
22.0404
21.7448
21.4482
21.1505
20.8518
20.5521
20.2515
19.95
19.6476
19.3444
19.0404
18.7357
18.4303
18.1243
17.8177
17.5106
17.203
16.895
16.5868
16.2783
15.9696
15.6609
15.3521
15.0435
14.735
14.4268
14.119
13.8117
13.505
13.199
12.8939
12.5896
12.2865
11.9845
11.6839
11.3847
11.0871
10.7912
10.4972
10.2051
9.91514
9.62742
9.34207
9.05923
8.77903
8.50159
8.22704
7.9555
7.6871
7.42195
7.16017
6.90186
6.64715
6.39613
6.14891
5.90559
5.66627
5.43107
5.20009
4.97345
4.75127
4.53368
4.32084
4.11294
3.91017
3.71281
3.52118
3.33573
3.15706
2.98599
2.82368
2.67178
2.53281
2.41066
2.31192
2.24886
2.2476
2.37685
2.90351
6.12008
17.0426
8.88574
7.7695
7.7061
7.99386
8.44832
8.99684
9.60357
10.2482
10.9182
11.6054
12.3041
13.0106
13.7221
14.4363
15.1518
15.867
16.5809
17.2921
17.9997
18.7024
19.3993
20.089
20.7704
21.4425
22.1039
22.7536
23.3904
24.0132
24.6211
25.2129
25.7878
26.3449
26.8835
27.4029
27.9026
28.3819
28.8405
29.278
29.6942
30.0889
30.4621
30.8136
31.1435
31.452
31.7392
32.0054
32.2508
32.4758
32.6806
32.8657
33.0315
33.1782
33.3065
33.4167
33.5093
33.5849
33.6439
33.6868
33.7143
33.7268
33.7248
33.709
33.6797
33.6375
33.583
33.5167
33.439
33.3504
33.2514
33.1424
33.024
32.8965
32.7604
32.6161
32.4639
32.3043
32.1375
31.9641
31.7842
31.5983
31.4066
31.2095
31.0071
30.7999
30.588
30.3716
30.1511
29.9266
29.6983
29.4665
29.2313
28.9929
28.7515
28.5071
28.26
28.0104
27.7582
27.5037
27.247
26.9881
26.7271
26.4642
26.1995
25.933
25.6647
25.3948
25.1234
24.8504
24.5759
24.3
24.0228
23.7443
23.4644
23.1834
22.9011
22.6177
22.3331
22.0475
21.7607
21.473
21.1843
20.8946
20.604
20.3125
20.0201
19.7269
19.433
19.1383
18.8428
18.5468
18.2501
17.9529
17.6551
17.3569
17.0583
16.7593
16.4601
16.1607
15.8611
15.5615
15.2619
14.9624
14.6631
14.3641
14.0655
13.7673
13.4697
13.1727
12.8765
12.5813
12.287
11.9938
11.7019
11.4113
11.1222
10.8348
10.549
10.2651
9.9831
9.70324
9.42561
9.15033
8.87752
8.6073
8.33981
8.07515
7.81345
7.55482
7.29937
7.04723
6.7985
6.55329
6.31172
6.07389
5.83991
5.60991
5.38399
5.1623
4.94496
4.73213
4.52399
4.32072
4.12258
3.92984
3.74285
3.56206
3.38804
3.22156
3.06363
2.91569
2.77977
2.6589
2.55782
2.48452
2.45377
2.49728
2.69843
3.3813
7.32202
17.043
8.8856
7.76928
7.70585
7.99359
8.44804
8.99655
9.60328
10.2479
10.9179
11.6051
12.3038
13.0103
13.7218
14.436
15.1515
15.8668
16.5806
17.2918
17.9994
18.7022
19.399
20.0887
20.7702
21.4422
22.1037
22.7534
23.3902
24.013
24.6208
25.2127
25.7876
26.3447
26.8833
27.4028
27.9024
28.3817
28.8403
29.2779
29.6941
30.0888
30.4619
30.8134
31.1434
31.4519
31.7391
32.0053
32.2507
32.4757
32.6805
32.8656
33.0314
33.1781
33.3064
33.4166
33.5092
33.5848
33.6438
33.6868
33.7142
33.7267
33.7248
33.7089
33.6796
33.6375
33.583
33.5166
33.4389
33.3503
33.2513
33.1424
33.024
32.8965
32.7604
32.616
32.4638
32.3042
32.1375
31.9641
31.7842
31.5983
31.4066
31.2095
31.0071
30.7999
30.5879
30.3716
30.1511
29.9266
29.6983
29.4665
29.2313
28.9929
28.7514
28.5071
28.26
28.0103
27.7582
27.5037
27.2469
26.988
26.7271
26.4642
26.1995
25.933
25.6647
25.3948
25.1233
24.8504
24.5759
24.3
24.0228
23.7442
23.4644
23.1833
22.9011
22.6177
22.3331
22.0474
21.7607
21.473
21.1843
20.8946
20.604
20.3125
20.0201
19.7269
19.433
19.1383
18.8428
18.5468
18.2501
17.9529
17.6551
17.3569
17.0583
16.7593
16.4601
16.1607
15.8611
15.5615
15.2619
14.9624
14.6631
14.3641
14.0655
13.7673
13.4697
13.1727
12.8765
12.5813
12.287
11.9938
11.7019
11.4113
11.1222
10.8348
10.549
10.2651
9.9831
9.70324
9.42561
9.15033
8.87752
8.60731
8.33981
8.07515
7.81345
7.55482
7.29938
7.04723
6.79851
6.5533
6.31172
6.07389
5.83992
5.60991
5.384
5.1623
4.94496
4.73213
4.52399
4.32073
4.12258
3.92984
3.74286
3.56206
3.38804
3.22156
3.06363
2.91569
2.77978
2.6589
2.55782
2.48452
2.45377
2.49728
2.69844
3.38133
7.32203
20.0272
10.3328
8.92265
8.74753
8.97971
9.40229
9.93034
10.5222
11.1543
11.8122
12.4864
13.1706
13.8605
14.553
15.2458
15.9373
16.6262
17.3115
17.9921
18.6673
19.3361
19.9976
20.651
21.2952
21.9295
22.5528
23.1641
23.7627
24.3474
24.9175
25.4721
26.0104
26.5316
27.0352
27.5205
27.987
28.4343
28.8619
29.2696
29.6571
30.0242
30.371
30.6973
31.0033
31.2889
31.5544
31.8
32.026
32.2325
32.42
32.5887
32.7391
32.8714
32.9862
33.0839
33.1649
33.2296
33.2786
33.3124
33.3314
33.3361
33.327
33.3047
33.2695
33.2221
33.1629
33.0923
33.0108
32.9189
32.8171
32.7057
32.5852
32.456
32.3185
32.1731
32.0202
31.86
31.6931
31.5197
31.3401
31.1547
30.9637
30.7674
30.5661
30.3601
30.1496
29.9348
29.7159
29.4933
29.267
29.0372
28.8042
28.5681
28.3291
28.0872
27.8428
27.5958
27.3465
27.0948
26.8411
26.5852
26.3274
26.0678
25.8063
25.5432
25.2784
25.012
24.7442
24.4748
24.2042
23.9321
23.6588
23.3842
23.1085
22.8315
22.5535
22.2744
21.9942
21.713
21.4308
21.1477
20.8637
20.5788
20.293
20.0064
19.7191
19.431
19.1423
18.8528
18.5628
18.2722
17.981
17.6894
17.3973
17.1049
16.8121
16.5191
16.2259
15.9326
15.6392
15.3458
15.0525
14.7594
14.4665
14.174
13.8819
13.5903
13.2993
13.0091
12.7197
12.4312
12.1437
11.8574
11.5723
11.2886
11.0064
10.7257
10.4468
10.1698
9.89464
9.6216
9.35075
9.08221
8.8161
8.55254
8.29165
8.03354
7.77832
7.52611
7.27703
7.03119
6.78869
6.54966
6.31421
6.08246
5.85452
5.63053
5.41063
5.19495
4.98367
4.77697
4.57506
4.37819
4.18664
4.00077
3.82101
3.64791
3.48216
3.32469
3.17671
3.03992
2.9167
2.81063
2.72726
2.67599
2.67423
2.75917
3.02943
3.86766
8.53823
20.0276
10.3326
8.9224
8.74725
8.97942
9.40199
9.93004
10.5219
11.154
11.8118
12.4861
13.1703
13.8602
14.5527
15.2455
15.937
16.6259
17.3112
17.9919
18.667
19.3358
19.9973
20.6507
21.295
21.9292
22.5525
23.1639
23.7624
24.3472
24.9173
25.4719
26.0102
26.5315
27.0351
27.5204
27.9869
28.4341
28.8617
29.2694
29.6569
30.0241
30.3709
30.6972
31.0031
31.2888
31.5543
31.7999
32.0259
32.2324
32.4199
32.5886
32.739
32.8714
32.9862
33.0838
33.1648
33.2296
33.2786
33.3123
33.3313
33.336
33.327
33.3046
33.2695
33.2221
33.1628
33.0922
33.0108
32.9189
32.817
32.7056
32.5851
32.4559
32.3185
32.1731
32.0201
31.86
31.6931
31.5197
31.3401
31.1546
30.9636
30.7674
30.5661
30.3601
30.1495
29.9347
29.7159
29.4932
29.2669
29.0372
28.8042
28.5681
28.329
28.0872
27.8428
27.5958
27.3464
27.0948
26.841
26.5852
26.3274
26.0677
25.8063
25.5431
25.2784
25.012
24.7441
24.4748
24.2041
23.9321
23.6588
23.3842
23.1085
22.8315
22.5535
22.2744
21.9942
21.713
21.4308
21.1477
20.8637
20.5788
20.293
20.0064
19.7191
19.431
19.1423
18.8528
18.5628
18.2722
17.981
17.6894
17.3973
17.1049
16.8121
16.5191
16.2259
15.9326
15.6392
15.3458
15.0525
14.7594
14.4665
14.174
13.8819
13.5903
13.2993
13.0091
12.7197
12.4312
12.1437
11.8574
11.5723
11.2886
11.0064
10.7257
10.4468
10.1698
9.89464
9.6216
9.35075
9.08221
8.8161
8.55254
8.29165
8.03354
7.77832
7.52612
7.27704
7.03119
6.7887
6.54967
6.31422
6.08246
5.85452
5.63054
5.41063
5.19496
4.98368
4.77698
4.57507
4.37819
4.18664
4.00077
3.82101
3.64791
3.48216
3.32469
3.17671
3.03992
2.9167
2.81063
2.72726
2.67599
2.67423
2.75918
3.02944
3.8677
8.53825
23.1198
11.8453
10.1452
9.86563
10.0495
10.4467
10.96
11.5419
12.1656
12.815
13.4795
14.1519
14.8277
15.5034
16.1768
16.8462
17.5106
18.169
18.8206
19.4649
20.1012
20.7289
21.3473
21.9557
22.5535
23.1399
23.7142
24.2757
24.8236
25.3571
25.8756
26.3784
26.8649
27.3345
27.7868
28.2212
28.6373
29.0349
29.4137
29.7734
30.114
30.4353
30.7373
31.0201
31.2838
31.5284
31.7543
31.9616
32.1505
32.3214
32.4746
32.6104
32.7291
32.8312
32.9171
32.9871
33.0418
33.0814
33.1066
33.1177
33.1153
33.0997
33.0714
33.031
32.9788
32.9153
32.8409
32.7561
32.6613
32.557
32.4435
32.3213
32.1906
32.052
31.9058
31.7523
31.5919
31.4249
31.2516
31.0724
30.8875
30.6972
30.5018
30.3015
30.0967
29.8874
29.674
29.4567
29.2357
29.0111
28.7832
28.5521
28.318
28.081
27.8413
27.5991
27.3544
27.1073
26.8581
26.6068
26.3534
26.0982
25.8411
25.5823
25.3219
25.0598
24.7963
24.5313
24.2649
23.9971
23.7281
23.4578
23.1863
22.9137
22.6399
22.3651
22.0893
21.8124
21.5346
21.2559
20.9763
20.6958
20.4145
20.1324
19.8495
19.5659
19.2817
18.9968
18.7113
18.4252
18.1386
17.8516
17.5641
17.2763
16.9881
16.6997
16.4111
16.1223
15.8334
15.5446
15.2558
14.9671
14.6786
14.3905
14.1027
13.8154
13.5286
13.2424
12.9571
12.6725
12.3889
12.1063
11.8249
11.5447
11.2659
10.9885
10.7128
10.4387
10.1665
9.89612
9.62782
9.36167
9.09777
8.83626
8.57723
8.32081
8.06711
7.81623
7.5683
7.32342
7.08172
6.84329
6.60828
6.37678
6.14894
5.92488
5.70474
5.48869
5.27689
5.06952
4.86681
4.669
4.47639
4.28931
4.10819
3.93353
3.76599
3.60637
3.45575
3.31553
3.18766
3.0749
2.98133
2.91337
2.88179
2.90668
3.03083
3.36808
4.35987
9.75855
23.1203
11.8452
10.145
9.86532
10.0491
10.4464
10.9597
11.5415
12.1653
12.8147
13.4791
14.1516
14.8273
15.503
16.1764
16.8459
17.5103
18.1687
18.8203
19.4646
20.1009
20.7286
21.347
21.9555
22.5533
23.1397
23.714
24.2755
24.8233
25.3569
25.8754
26.3782
26.8647
27.3344
27.7866
28.221
28.6372
29.0348
29.4135
29.7733
30.1138
30.4351
30.7372
31.02
31.2837
31.5283
31.7542
31.9615
32.1504
32.3213
32.4745
32.6103
32.7291
32.8312
32.917
32.9871
33.0417
33.0814
33.1066
33.1177
33.1152
33.0996
33.0714
33.0309
32.9787
32.9152
32.8409
32.7561
32.6613
32.557
32.4435
32.3212
32.1906
32.052
31.9058
31.7523
31.5919
31.4249
31.2516
31.0724
30.8875
30.6972
30.5018
30.3015
30.0966
29.8874
29.674
29.4567
29.2357
29.0111
28.7832
28.5521
28.318
28.081
27.8413
27.599
27.3543
27.1073
26.8581
26.6067
26.3534
26.0982
25.8411
25.5823
25.3219
25.0598
24.7963
24.5313
24.2648
23.9971
23.7281
23.4578
23.1863
22.9137
22.6399
22.3651
22.0893
21.8124
21.5346
21.2559
20.9762
20.6958
20.4145
20.1324
19.8495
19.5659
19.2817
18.9968
18.7113
18.4252
18.1386
17.8516
17.5641
17.2763
16.9881
16.6997
16.4111
16.1223
15.8334
15.5446
15.2558
14.9671
14.6786
14.3905
14.1027
13.8154
13.5286
13.2424
12.9571
12.6725
12.3889
12.1063
11.8249
11.5447
11.2659
10.9886
10.7128
10.4387
10.1665
9.89613
9.62782
9.36167
9.09778
8.83626
8.57724
8.32082
8.06711
7.81624
7.5683
7.32343
7.08172
6.8433
6.60828
6.37678
6.14894
5.92488
5.70475
5.48869
5.27689
5.06953
4.86682
4.66901
4.47639
4.28931
4.10819
3.93354
3.76599
3.60637
3.45575
3.31553
3.18766
3.0749
2.98134
2.91337
2.88179
2.90668
3.03083
3.36809
4.35991
9.75856
26.3266
13.4273
11.439
11.0602
11.201
11.5776
12.08
12.655
13.2728
13.9154
14.5713
15.2329
15.8951
16.5544
17.2086
17.8561
18.4959
19.1273
19.7499
20.3632
20.9669
21.5606
22.144
22.7165
23.2778
23.8273
24.3645
24.8889
25.3998
25.8968
26.3793
26.8466
27.2984
27.7341
28.1534
28.5557
28.9409
29.3086
29.6585
29.9906
30.3046
30.6006
30.8785
31.1383
31.3801
31.6041
31.8105
31.9993
32.1709
32.3254
32.4633
32.5848
32.6902
32.7799
32.8542
32.9136
32.9584
32.9891
33.006
33.0096
33.0003
32.9785
32.9446
32.8991
32.8424
32.775
32.6971
32.6093
32.512
32.4054
32.2901
32.1664
32.0346
31.8951
31.7483
31.5945
31.434
31.2671
31.0942
30.9154
30.7312
30.5418
30.3474
30.1483
29.9447
29.7368
29.5249
29.3092
29.0898
28.867
28.6409
28.4116
28.1795
27.9445
27.7069
27.4667
27.2242
26.9794
26.7324
26.4833
26.2323
25.9794
25.7247
25.4683
25.2103
24.9507
24.6897
24.4272
24.1633
23.8982
23.6317
23.3641