/*--------------------------------*- C++ -*----------------------------------*\
  =========                 |
  \\      /  F ield         | OpenFOAM: The Open Source CFD Toolbox
   \\    /   O peration     | Website:  https://openfoam.org
    \\  /    A nd           | Version:  8
     \\/     M anipulation  |
\*---------------------------------------------------------------------------*/
FoamFile
{
    version     2.0;
    format      ascii;
    class       volScalarField;
    location    "2300";
    object      nut;
}
// * * * * * * * * * * * * * * * * * * * * * * * * * * * * * * * * * * * * * //

dimensions      [0 2 -1 0 0 0 0];

internalField   nonuniform List<scalar> 
48000
(
7.94786e-05
7.01365e-05
8.6806e-05
9.93618e-05
0.000109723
0.000118408
0.000125938
0.000132756
0.000138992
0.000144727
0.000150068
0.000155076
0.000159799
0.000164272
0.000168523
0.000172575
0.000176445
0.000180147
0.000183693
0.000187092
0.000190353
0.000193482
0.000196484
0.000199365
0.000202129
0.00020478
0.000207322
0.000209757
0.000212089
0.00021432
0.000216453
0.000218491
0.000220436
0.00022229
0.000224056
0.000225737
0.000227333
0.000228848
0.000230284
0.000231643
0.000232927
0.000234139
0.000235279
0.000236351
0.000237357
0.000238298
0.000239175
0.000239998
0.000240768
0.000241481
0.000242139
0.000242743
0.000243296
0.0002438
0.000244255
0.000244665
0.00024503
0.000245352
0.000245632
0.000245873
0.000246076
0.000246242
0.000246372
0.000246468
0.000246531
0.000246562
0.000246563
0.000246535
0.000246478
0.000246393
0.000246283
0.000246147
0.000245986
0.000245802
0.000245595
0.000245366
0.000245116
0.000244845
0.000244554
0.000244245
0.000243916
0.000243569
0.000243205
0.000242824
0.000242427
0.000242013
0.000241583
0.000241139
0.000240679
0.000240205
0.000239716
0.000239214
0.000238698
0.000238168
0.000237625
0.000237069
0.0002365
0.000235919
0.000235324
0.000234717
0.000234098
0.000233466
0.000232822
0.000232166
0.000231497
0.000230816
0.000230123
0.000229417
0.000228699
0.000227968
0.000227224
0.000226468
0.0002257
0.000224918
0.000224123
0.000223315
0.000222493
0.000221658
0.000220809
0.000219946
0.000219069
0.000218178
0.000217272
0.000216351
0.000215415
0.000214463
0.000213496
0.000212513
0.000211514
0.000210498
0.000209466
0.000208417
0.00020735
0.000206266
0.000205164
0.000204044
0.000202906
0.000201748
0.000200572
0.000199376
0.000198161
0.000196925
0.000195669
0.000194393
0.000193096
0.000191778
0.000190438
0.000189077
0.000187694
0.000186288
0.000184859
0.000183408
0.000181934
0.000180436
0.000178914
0.000177368
0.000175797
0.000174202
0.000172581
0.000170935
0.000169263
0.000167565
0.00016584
0.000164088
0.000162307
0.000160499
0.000158662
0.000156795
0.000154898
0.000152969
0.000151009
0.000149015
0.000146986
0.000144922
0.00014282
0.000140679
0.000138496
0.000136269
0.000133995
0.000131671
0.000129293
0.000126857
0.000124362
0.000121806
0.000119195
0.000116497
0.000113694
0.000110773
0.000107711
0.000104482
0.000101053
9.73753e-05
9.33924e-05
8.90661e-05
8.4219e-05
7.86048e-05
7.16772e-05
6.17162e-05
4.3026e-05
4.48353e-05
7.94756e-05
7.01376e-05
8.68069e-05
9.93625e-05
0.000109724
0.000118408
0.000125939
0.000132757
0.000138993
0.000144727
0.000150068
0.000155077
0.000159799
0.000164272
0.000168524
0.000172575
0.000176445
0.000180148
0.000183693
0.000187093
0.000190353
0.000193482
0.000196484
0.000199365
0.00020213
0.000204781
0.000207322
0.000209757
0.000212089
0.00021432
0.000216453
0.000218491
0.000220436
0.00022229
0.000224056
0.000225737
0.000227333
0.000228848
0.000230284
0.000231643
0.000232927
0.000234139
0.000235279
0.000236351
0.000237357
0.000238298
0.000239175
0.000239998
0.000240768
0.000241481
0.000242139
0.000242743
0.000243296
0.0002438
0.000244255
0.000244665
0.000245029
0.000245351
0.000245632
0.000245873
0.000246076
0.000246242
0.000246372
0.000246468
0.000246531
0.000246562
0.000246563
0.000246535
0.000246478
0.000246393
0.000246283
0.000246147
0.000245986
0.000245802
0.000245595
0.000245366
0.000245116
0.000244845
0.000244554
0.000244244
0.000243916
0.000243569
0.000243205
0.000242824
0.000242426
0.000242013
0.000241583
0.000241139
0.000240679
0.000240205
0.000239716
0.000239214
0.000238698
0.000238168
0.000237625
0.000237069
0.0002365
0.000235919
0.000235324
0.000234717
0.000234098
0.000233466
0.000232822
0.000232166
0.000231497
0.000230816
0.000230122
0.000229417
0.000228698
0.000227968
0.000227224
0.000226468
0.0002257
0.000224918
0.000224123
0.000223315
0.000222493
0.000221658
0.000220809
0.000219946
0.000219069
0.000218178
0.000217272
0.000216351
0.000215414
0.000214463
0.000213496
0.000212513
0.000211514
0.000210498
0.000209466
0.000208417
0.00020735
0.000206266
0.000205164
0.000204044
0.000202905
0.000201748
0.000200572
0.000199376
0.00019816
0.000196925
0.000195669
0.000194393
0.000193096
0.000191778
0.000190438
0.000189077
0.000187694
0.000186288
0.000184859
0.000183408
0.000181934
0.000180436
0.000178914
0.000177368
0.000175797
0.000174202
0.000172581
0.000170935
0.000169263
0.000167565
0.00016584
0.000164087
0.000162307
0.000160499
0.000158662
0.000156795
0.000154898
0.000152969
0.000151009
0.000149015
0.000146986
0.000144922
0.00014282
0.000140679
0.000138496
0.000136269
0.000133995
0.000131671
0.000129293
0.000126857
0.000124362
0.000121806
0.000119195
0.000116497
0.000113694
0.000110773
0.000107711
0.000104482
0.000101053
9.73754e-05
9.33926e-05
8.90664e-05
8.42199e-05
7.86086e-05
7.16938e-05
6.17639e-05
4.30011e-05
4.4731e-05
6.07877e-05
0.000447469
0.000711377
0.000894743
0.00103225
0.00114505
0.00124168
0.00132636
0.00140206
0.00147083
0.00153392
0.0015923
0.00164668
0.0016976
0.00174549
0.0017907
0.0018335
0.00187412
0.00191276
0.00194956
0.00198466
0.00201817
0.0020502
0.00208081
0.00211009
0.00213811
0.00216491
0.00219055
0.00221507
0.00223852
0.00226094
0.00228235
0.00230281
0.00232233
0.00234094
0.00235868
0.00237557
0.00239164
0.00240691
0.00242141
0.00243516
0.00244818
0.00246049
0.00247212
0.00248308
0.00249338
0.00250302
0.0025119
0.00252013
0.00252777
0.00253487
0.00254146
0.00254755
0.00255317
0.00255834
0.00256306
0.00256736
0.00257125
0.00257474
0.00257784
0.00258058
0.00258295
0.00258498
0.00258668
0.00258805
0.0025891
0.00258985
0.00259031
0.00259049
0.00259039
0.00259002
0.0025894
0.00258853
0.00258741
0.00258607
0.00258449
0.00258269
0.00258068
0.00257846
0.00257603
0.00257341
0.0025706
0.00256759
0.00256441
0.00256105
0.00255751
0.0025538
0.00254992
0.00254588
0.00254168
0.00253732
0.0025328
0.00252813
0.00252331
0.00251834
0.00251323
0.00250796
0.00250256
0.002497
0.00249131
0.00248547
0.00247949
0.00247337
0.00246711
0.00246071
0.00245416
0.00244748
0.00244065
0.00243368
0.00242656
0.0024193
0.00241189
0.00240434
0.00239664
0.00238879
0.00238078
0.00237263
0.00236431
0.00235584
0.00234721
0.00233842
0.00232947
0.00232035
0.00231106
0.0023016
0.00229196
0.00228215
0.00227216
0.00226199
0.00225163
0.00224109
0.00223035
0.00221942
0.0022083
0.00219698
0.00218545
0.00217372
0.00216178
0.00214963
0.00213726
0.00212468
0.00211188
0.00209885
0.0020856
0.00207211
0.0020584
0.00204445
0.00203025
0.00201582
0.00200114
0.00198622
0.00197104
0.0019556
0.00193991
0.00192395
0.00190773
0.00189124
0.00187448
0.00185744
0.00184011
0.0018225
0.00180459
0.00178639
0.00176788
0.00174907
0.00172993
0.00171046
0.00169066
0.00167051
0.00165001
0.00162913
0.00160787
0.0015862
0.00156411
0.00154157
0.00151856
0.00149505
0.00147101
0.00144639
0.00142114
0.00139521
0.0013685
0.00134091
0.00131227
0.00128241
0.00125131
0.00121885
0.00118482
0.00114894
0.00111084
0.00106997
0.00102549
0.00097596
0.000918991
0.000853005
0.000773708
0.000672705
0.000531246
0.000304146
2.91396e-05
6.0788e-05
0.000447489
0.000711407
0.000894776
0.00103228
0.00114508
0.00124172
0.00132639
0.00140209
0.00147086
0.00153395
0.00159233
0.00164671
0.00169762
0.00174552
0.00179072
0.00183353
0.00187415
0.00191278
0.00194958
0.00198468
0.0020182
0.00205022
0.00208083
0.00211011
0.00213813
0.00216493
0.00219056
0.00221509
0.00223854
0.00226095
0.00228237
0.00230282
0.00232234
0.00234096
0.0023587
0.00237559
0.00239165
0.00240692
0.00242142
0.00243517
0.00244819
0.0024605
0.00247213
0.00248309
0.00249339
0.00250303
0.00251191
0.00252014
0.00252778
0.00253488
0.00254147
0.00254756
0.00255318
0.00255835
0.00256307
0.00256737
0.00257126
0.00257475
0.00257785
0.00258059
0.00258296
0.00258499
0.00258669
0.00258806
0.00258911
0.00258986
0.00259032
0.0025905
0.0025904
0.00259003
0.00258941
0.00258854
0.00258742
0.00258607
0.0025845
0.0025827
0.00258069
0.00257847
0.00257604
0.00257342
0.00257061
0.0025676
0.00256442
0.00256105
0.00255752
0.00255381
0.00254993
0.00254589
0.00254169
0.00253733
0.00253281
0.00252814
0.00252332
0.00251835
0.00251324
0.00250797
0.00250256
0.00249701
0.00249132
0.00248548
0.0024795
0.00247338
0.00246712
0.00246072
0.00245417
0.00244748
0.00244066
0.00243368
0.00242657
0.00241931
0.0024119
0.00240435
0.00239665
0.00238879
0.00238079
0.00237263
0.00236432
0.00235585
0.00234722
0.00233843
0.00232947
0.00232035
0.00231106
0.0023016
0.00229197
0.00228216
0.00227217
0.002262
0.00225164
0.00224109
0.00223036
0.00221943
0.00220831
0.00219698
0.00218546
0.00217373
0.00216179
0.00214964
0.00213727
0.00212469
0.00211188
0.00209886
0.0020856
0.00207212
0.0020584
0.00204445
0.00203026
0.00201583
0.00200115
0.00198622
0.00197104
0.00195561
0.00193992
0.00192396
0.00190774
0.00189125
0.00187449
0.00185744
0.00184012
0.00182251
0.0018046
0.0017864
0.00176789
0.00174907
0.00172994
0.00171047
0.00169067
0.00167052
0.00165001
0.00162914
0.00160787
0.0015862
0.00156411
0.00154158
0.00151857
0.00149506
0.00147102
0.0014464
0.00142115
0.00139521
0.00136851
0.00134091
0.00131227
0.00128242
0.00125132
0.00121885
0.00118482
0.00114894
0.00111084
0.00106997
0.0010255
0.000975965
0.000918997
0.000853017
0.000773735
0.000672745
0.000531201
0.00030411
2.91517e-05
7.44098e-05
0.000677905
0.00120543
0.00159922
0.00191093
0.00217015
0.00239309
0.00258912
0.00276436
0.00292298
0.00306796
0.00320146
0.00332517
0.00344037
0.00354813
0.00364927
0.00374451
0.00383442
0.0039195
0.00400015
0.00407674
0.00414958
0.00421892
0.00428501
0.00434804
0.00440821
0.00446565
0.00452053
0.00457296
0.00462306
0.00467094
0.00471668
0.00476038
0.00480212
0.00484197
0.00487999
0.00491627
0.00495085
0.0049838
0.00501516
0.005045
0.00507335
0.00510028
0.00512581
0.00514998
0.00517282
0.00519434
0.0052145
0.0052334
0.00525111
0.00526772
0.00528326
0.0052978
0.00531136
0.00532398
0.0053357
0.00534655
0.00535655
0.00536574
0.00537414
0.00538177
0.00538867
0.00539485
0.00540034
0.00540516
0.00540933
0.00541286
0.00541579
0.00541813
0.00541989
0.00542109
0.00542176
0.00542189
0.00542152
0.00542065
0.0054193
0.00541748
0.0054152
0.00541248
0.00540932
0.00540573
0.00540173
0.00539733
0.00539253
0.00538735
0.00538178
0.00537584
0.00536954
0.00536288
0.00535586
0.0053485
0.0053408
0.00533275
0.00532438
0.00531567
0.00530663
0.00529728
0.0052876
0.0052776
0.00526728
0.00525665
0.0052457
0.00523444
0.00522286
0.00521096
0.00519875
0.00518623
0.00517338
0.00516022
0.00514673
0.00513293
0.00511879
0.00510433
0.00508954
0.00507441
0.00505895
0.00504314
0.00502699
0.00501048
0.00499362
0.00497641
0.00495882
0.00494087
0.00492255
0.00490384
0.00488475
0.00486527
0.00484539
0.0048251
0.00480441
0.0047833
0.00476177
0.00473981
0.00471742
0.00469458
0.00467129
0.00464755
0.00462335
0.00459868
0.00457353
0.00454789
0.00452177
0.00449514
0.00446801
0.00444037
0.0044122
0.00438351
0.00435428
0.0043245
0.00429417
0.00426327
0.0042318
0.00419975
0.00416711
0.00413386
0.00410001
0.00406552
0.0040304
0.00399463
0.0039582
0.00392108
0.00388327
0.00384474
0.00380549
0.00376547
0.00372468
0.00368308
0.00364065
0.00359735
0.00355315
0.00350801
0.00346188
0.00341471
0.00336645
0.00331702
0.00326635
0.00321436
0.00316093
0.00310595
0.00304928
0.00299073
0.0029301
0.00286711
0.00280146
0.00273278
0.00266071
0.00258479
0.00250434
0.00241849
0.00232614
0.0022257
0.00211497
0.00199074
0.00184834
0.00168232
0.00148353
0.00123713
0.000919219
0.000499661
5.52128e-05
7.44102e-05
0.000677932
0.00120549
0.00159928
0.001911
0.00217022
0.00239316
0.0025892
0.00276443
0.00292305
0.00306803
0.00320153
0.00332523
0.00344044
0.00354819
0.00364933
0.00374457
0.00383448
0.00391955
0.0040002
0.00407679
0.00414962
0.00421896
0.00428505
0.00434808
0.00440824
0.00446569
0.00452056
0.00457299
0.00462309
0.00467096
0.00471671
0.00476041
0.00480214
0.00484199
0.00488002
0.00491629
0.00495087
0.00498382
0.00501518
0.00504502
0.00507337
0.00510029
0.00512582
0.00514999
0.00517284
0.00519435
0.00521451
0.00523341
0.00525112
0.00526773
0.00528327
0.00529781
0.00531137
0.00532399
0.00533571
0.00534656
0.00535656
0.00536575
0.00537415
0.00538178
0.00538868
0.00539486
0.00540035
0.00540516
0.00540933
0.00541287
0.0054158
0.00541813
0.00541989
0.0054211
0.00542176
0.0054219
0.00542153
0.00542066
0.0054193
0.00541748
0.0054152
0.00541248
0.00540932
0.00540573
0.00540174
0.00539733
0.00539254
0.00538735
0.00538178
0.00537585
0.00536954
0.00536288
0.00535586
0.0053485
0.0053408
0.00533275
0.00532438
0.00531567
0.00530664
0.00529728
0.0052876
0.0052776
0.00526728
0.00525665
0.0052457
0.00523444
0.00522286
0.00521096
0.00519875
0.00518623
0.00517338
0.00516022
0.00514673
0.00513293
0.00511879
0.00510433
0.00508954
0.00507441
0.00505895
0.00504314
0.00502698
0.00501048
0.00499362
0.00497641
0.00495882
0.00494087
0.00492255
0.00490384
0.00488475
0.00486527
0.00484539
0.0048251
0.00480441
0.0047833
0.00476177
0.00473981
0.00471741
0.00469458
0.00467129
0.00464755
0.00462335
0.00459867
0.00457352
0.00454789
0.00452176
0.00449514
0.00446801
0.00444037
0.0044122
0.00438351
0.00435428
0.0043245
0.00429416
0.00426327
0.0042318
0.00419975
0.00416711
0.00413386
0.0041
0.00406552
0.0040304
0.00399463
0.00395819
0.00392108
0.00388327
0.00384474
0.00380548
0.00376547
0.00372468
0.00368308
0.00364065
0.00359735
0.00355315
0.00350801
0.00346188
0.00341471
0.00336645
0.00331702
0.00326635
0.00321436
0.00316093
0.00310595
0.00304927
0.00299073
0.0029301
0.00286711
0.00280146
0.00273277
0.00266071
0.00258479
0.00250434
0.00241849
0.00232614
0.0022257
0.00211497
0.00199074
0.00184834
0.00168232
0.00148355
0.00123718
0.00091922
0.000499637
5.5173e-05
8.44434e-05
0.000813763
0.00153131
0.00210165
0.00256834
0.00296304
0.00330559
0.00360867
0.00388074
0.00412772
0.0043539
0.00456248
0.00475592
0.00493615
0.00510474
0.00526296
0.00541187
0.00555237
0.00568521
0.00581104
0.00593042
0.00604384
0.00615173
0.00625446
0.00635238
0.00644576
0.00653489
0.00661999
0.00670127
0.00677894
0.00685315
0.00692408
0.00699186
0.00705663
0.00711852
0.00717764
0.00723409
0.00728799
0.00733941
0.00738845
0.00743519
0.00747971
0.00752209
0.00756238
0.00760065
0.00763695
0.00767131
0.00770377
0.00773439
0.00776327
0.00779051
0.00781616
0.0078403
0.00786298
0.00788426
0.00790418
0.0079228
0.00794015
0.00795628
0.00797123
0.00798503
0.00799773
0.00800936
0.00801995
0.00802954
0.00803815
0.00804581
0.00805256
0.00805842
0.00806342
0.00806757
0.00807091
0.00807346
0.00807523
0.00807626
0.00807655
0.00807613
0.00807502
0.00807323
0.00807077
0.00806767
0.00806394
0.0080596
0.00805464
0.0080491
0.00804297
0.00803627
0.00802901
0.0080212
0.00801284
0.00800395
0.00799453
0.00798459
0.00797414
0.00796317
0.0079517
0.00793973
0.00792726
0.00791429
0.00790083
0.00788688
0.00787244
0.00785751
0.00784209
0.00782618
0.00780978
0.00779289
0.00777551
0.00775762
0.00773924
0.00772036
0.00770097
0.00768107
0.00766065
0.00763971
0.00761825
0.00759625
0.00757372
0.00755064
0.00752701
0.00750282
0.00747807
0.00745274
0.00742682
0.00740032
0.00737322
0.0073455
0.00731717
0.00728821
0.00725862
0.00722837
0.00719747
0.0071659
0.00713365
0.00710071
0.00706707
0.00703272
0.00699764
0.00696183
0.00692528
0.00688796
0.00684987
0.006811
0.00677134
0.00673086
0.00668955
0.00664741
0.00660442
0.00656056
0.00651582
0.00647018
0.00642362
0.00637612
0.00632768
0.00627826
0.00622785
0.00617643
0.00612396
0.00607044
0.00601582
0.00596008
0.00590318
0.0058451
0.0057858
0.00572522
0.00566334
0.00560009
0.00553543
0.00546929
0.0054016
0.00533229
0.00526128
0.00518846
0.00511372
0.00503695
0.00495799
0.0048767
0.00479286
0.00470628
0.00461667
0.00452374
0.00442711
0.00432634
0.00422089
0.00411015
0.0039934
0.00386971
0.0037379
0.00359649
0.00344348
0.00327629
0.00309146
0.00288434
0.00264858
0.00237578
0.0020546
0.00166846
0.00119508
0.000615645
6.34856e-05
8.4444e-05
0.00081379
0.00153137
0.00210173
0.00256843
0.00296314
0.0033057
0.00360877
0.00388084
0.00412782
0.004354
0.00456258
0.00475601
0.00493624
0.00510483
0.00526305
0.00541196
0.00555245
0.00568528
0.00581111
0.00593049
0.0060439
0.00615179
0.00625452
0.00635243
0.00644582
0.00653494
0.00662004
0.00670132
0.00677898
0.00685319
0.00692411
0.0069919
0.00705667
0.00711855
0.00717767
0.00723412
0.00728801
0.00733943
0.00738847
0.00743521
0.00747973
0.00752211
0.0075624
0.00760067
0.00763696
0.00767133
0.00770378
0.0077344
0.00776329
0.00779052
0.00781617
0.00784031
0.00786299
0.00788427
0.00790419
0.0079228
0.00794015
0.00795628
0.00797123
0.00798504
0.00799774
0.00800936
0.00801995
0.00802954
0.00803815
0.00804581
0.00805256
0.00805842
0.00806342
0.00806757
0.00807091
0.00807346
0.00807523
0.00807625
0.00807655
0.00807613
0.00807501
0.00807322
0.00807077
0.00806767
0.00806394
0.00805959
0.00805464
0.00804909
0.00804296
0.00803626
0.008029
0.00802119
0.00801284
0.00800395
0.00799453
0.00798459
0.00797413
0.00796317
0.00795169
0.00793972
0.00792725
0.00791428
0.00790082
0.00788687
0.00787243
0.0078575
0.00784208
0.00782618
0.00780978
0.00779288
0.0077755
0.00775762
0.00773923
0.00772035
0.00770096
0.00768106
0.00766064
0.0076397
0.00761824
0.00759625
0.00757371
0.00755063
0.007527
0.00750281
0.00747806
0.00745273
0.00742682
0.00740031
0.00737321
0.0073455
0.00731716
0.0072882
0.00725861
0.00722836
0.00719746
0.00716589
0.00713364
0.0071007
0.00706706
0.00703271
0.00699764
0.00696183
0.00692527
0.00688795
0.00684986
0.00681099
0.00677133
0.00673085
0.00668954
0.0066474
0.00660441
0.00656055
0.00651581
0.00647016
0.00642361
0.00637611
0.00632767
0.00627825
0.00622784
0.00617642
0.00612395
0.00607043
0.00601581
0.00596007
0.00590317
0.00584509
0.00578579
0.00572521
0.00566333
0.00560008
0.00553542
0.00546928
0.00540159
0.00533229
0.00526127
0.00518845
0.00511371
0.00503694
0.00495798
0.00487669
0.00479286
0.00470627
0.00461666
0.00452373
0.0044271
0.00432633
0.00422088
0.00411015
0.00399339
0.0038697
0.0037379
0.00359648
0.00344348
0.00327629
0.00309145
0.00288434
0.00264858
0.00237578
0.00205459
0.00166846
0.00119505
0.000615615
6.34764e-05
9.25106e-05
0.000907971
0.0017641
0.00247394
0.00306853
0.00357853
0.00402521
0.00442306
0.00478207
0.00510941
0.0054103
0.00568869
0.00594761
0.00618949
0.00641624
0.00662946
0.00683048
0.00702041
0.0072002
0.00737067
0.00753254
0.00768644
0.00783291
0.00797244
0.00810548
0.00823241
0.00835359
0.00846932
0.00857989
0.00868558
0.0087866
0.00888319
0.00897554
0.00906384
0.00914826
0.00922896
0.00930608
0.00937977
0.00945016
0.00951736
0.00958151
0.00964269
0.00970102
0.00975658
0.00980947
0.00985975
0.00990752
0.00995281
0.00999572
0.0100364
0.0100748
0.0101112
0.0101456
0.010178
0.0102086
0.0102374
0.0102644
0.0102898
0.0103136
0.0103358
0.0103565
0.0103757
0.0103935
0.0104099
0.010425
0.0104388
0.0104514
0.0104628
0.010473
0.010482
0.0104899
0.0104968
0.0105026
0.0105073
0.0105111
0.0105139
0.0105158
0.0105167
0.0105168
0.010516
0.0105143
0.0105117
0.0105084
0.0105042
0.0104993
0.0104936
0.0104871
0.0104799
0.0104719
0.0104632
0.0104538
0.0104437
0.0104329
0.0104214
0.0104092
0.0103963
0.0103828
0.0103686
0.0103538
0.0103382
0.0103221
0.0103052
0.0102877
0.0102696
0.0102508
0.0102313
0.0102112
0.0101904
0.010169
0.0101468
0.010124
0.0101005
0.0100764
0.0100515
0.010026
0.00999969
0.00997271
0.009945
0.00991656
0.00988738
0.00985744
0.00982674
0.00979527
0.00976302
0.00972996
0.0096961
0.00966142
0.0096259
0.00958954
0.00955231
0.00951422
0.00947523
0.00943534
0.00939453
0.00935278
0.00931009
0.00926643
0.00922179
0.00917615
0.0091295
0.00908181
0.00903308
0.00898327
0.00893237
0.00888037
0.00882723
0.00877295
0.0087175
0.00866085
0.00860298
0.00854387
0.00848349
0.00842182
0.00835882
0.00829447
0.00822873
0.00816157
0.00809294
0.00802283
0.00795117
0.00787792
0.00780304
0.00772647
0.00764816
0.00756803
0.00748602
0.00740205
0.00731603
0.00722788
0.00713749
0.00704473
0.00694949
0.00685161
0.00675093
0.00664726
0.00654038
0.00643005
0.00631598
0.00619784
0.00607525
0.00594775
0.00581479
0.00567575
0.00552987
0.00537623
0.00521375
0.00504109
0.00485657
0.00465809
0.00444297
0.00420779
0.00394811
0.00365822
0.00333061
0.00295562
0.00252107
0.00201096
0.00140689
0.000701983
6.97999e-05
9.25112e-05
0.000907999
0.00176417
0.00247403
0.00306864
0.00357865
0.00402534
0.00442319
0.00478221
0.00510954
0.00541043
0.00568882
0.00594774
0.00618961
0.00641636
0.00662958
0.00683059
0.00702051
0.0072003
0.00737077
0.00753263
0.00768652
0.00783299
0.00797253
0.00810556
0.00823249
0.00835366
0.00846938
0.00857996
0.00868563
0.00878666
0.00888324
0.00897559
0.00906389
0.0091483
0.009229
0.00930612
0.00937981
0.00945019
0.0095174
0.00958154
0.00964272
0.00970104
0.0097566
0.00980949
0.00985978
0.00990754
0.00995283
0.00999574
0.0100364
0.0100748
0.0101112
0.0101456
0.010178
0.0102086
0.0102374
0.0102644
0.0102898
0.0103136
0.0103358
0.0103565
0.0103757
0.0103935
0.0104099
0.010425
0.0104389
0.0104514
0.0104628
0.010473
0.010482
0.0104899
0.0104968
0.0105026
0.0105073
0.0105111
0.0105139
0.0105158
0.0105167
0.0105168
0.010516
0.0105143
0.0105117
0.0105084
0.0105042
0.0104993
0.0104936
0.0104871
0.0104798
0.0104719
0.0104632
0.0104538
0.0104437
0.0104329
0.0104214
0.0104092
0.0103963
0.0103828
0.0103686
0.0103537
0.0103382
0.0103221
0.0103052
0.0102877
0.0102696
0.0102508
0.0102313
0.0102112
0.0101904
0.0101689
0.0101468
0.010124
0.0101005
0.0100764
0.0100515
0.0100259
0.00999968
0.00997269
0.00994499
0.00991655
0.00988736
0.00985743
0.00982673
0.00979526
0.009763
0.00972995
0.00969609
0.00966141
0.00962589
0.00958953
0.0095523
0.0095142
0.00947522
0.00943532
0.00939451
0.00935277
0.00931008
0.00926642
0.00922178
0.00917614
0.00912949
0.0090818
0.00903306
0.00898325
0.00893236
0.00888035
0.00882722
0.00877294
0.00871748
0.00866083
0.00860297
0.00854386
0.00848348
0.0084218
0.00835881
0.00829445
0.00822871
0.00816155
0.00809293
0.00802281
0.00795115
0.00787791
0.00780303
0.00772646
0.00764814
0.00756801
0.007486
0.00740203
0.00731602
0.00722787
0.00713747
0.00704472
0.00694948
0.0068516
0.00675092
0.00664725
0.00654037
0.00643004
0.00631597
0.00619783
0.00607524
0.00594774
0.00581478
0.00567574
0.00552985
0.00537622
0.00521374
0.00504108
0.00485656
0.00465808
0.00444297
0.00420778
0.00394811
0.00365822
0.00333061
0.00295562
0.00252107
0.00201096
0.00140688
0.000701971
6.97984e-05
9.9376e-05
0.000983407
0.00194497
0.00276449
0.00346289
0.00406874
0.00460366
0.00508306
0.00551791
0.00591618
0.00628378
0.00662517
0.00694382
0.00724244
0.00752325
0.00778804
0.00803831
0.00827532
0.00850015
0.00871374
0.0089169
0.00911034
0.0092947
0.00947055
0.00963838
0.00979866
0.0099518
0.0100982
0.0102381
0.010372
0.0105
0.0106225
0.0107397
0.0108518
0.0109591
0.0110617
0.0111598
0.0112536
0.0113433
0.0114291
0.0115109
0.0115891
0.0116638
0.011735
0.0118028
0.0118675
0.011929
0.0119875
0.0120431
0.0120958
0.0121459
0.0121934
0.0122384
0.012281
0.0123213
0.0123593
0.0123952
0.012429
0.0124608
0.0124907
0.0125187
0.0125449
0.0125693
0.012592
0.0126131
0.0126326
0.0126506
0.012667
0.012682
0.0126956
0.0127078
0.0127186
0.0127282
0.0127365
0.0127436
0.0127494
0.0127541
0.0127577
0.0127602
0.0127615
0.0127618
0.0127611
0.0127594
0.0127566
0.0127529
0.0127482
0.0127426
0.0127361
0.0127286
0.0127202
0.012711
0.0127009
0.0126899
0.0126781
0.0126654
0.0126519
0.0126375
0.0126223
0.0126063
0.0125895
0.0125719
0.0125534
0.0125341
0.0125141
0.0124932
0.0124714
0.0124489
0.0124255
0.0124013
0.0123763
0.0123505
0.0123237
0.0122962
0.0122677
0.0122384
0.0122083
0.0121772
0.0121452
0.0121123
0.0120785
0.0120438
0.0120081
0.0119714
0.0119338
0.0118951
0.0118555
0.0118148
0.0117731
0.0117303
0.0116865
0.0116415
0.0115955
0.0115483
0.0114999
0.0114504
0.0113997
0.0113478
0.0112946
0.0112402
0.0111845
0.0111275
0.0110692
0.0110095
0.0109484
0.010886
0.0108221
0.0107567
0.0106899
0.0106215
0.0105516
0.0104801
0.0104069
0.0103322
0.0102557
0.0101774
0.0100974
0.0100155
0.00993179
0.0098461
0.00975842
0.00966867
0.00957679
0.00948271
0.00938634
0.0092876
0.0091864
0.00908262
0.00897614
0.00886685
0.0087546
0.00863924
0.00852057
0.00839841
0.00827253
0.00814267
0.00800855
0.00786983
0.00772614
0.00757703
0.00742199
0.00726042
0.00709161
0.00691473
0.00672879
0.00653262
0.00632479
0.00610358
0.00586688
0.00561207
0.00533589
0.00503429
0.00470214
0.00433306
0.00391896
0.00344978
0.00291318
0.00229468
0.0015801
0.000772604
7.50828e-05
9.93766e-05
0.000983435
0.00194503
0.00276459
0.00346301
0.00406887
0.0046038
0.0050832
0.00551806
0.00591633
0.00628393
0.00662532
0.00694396
0.00724259
0.00752339
0.00778817
0.00803844
0.00827545
0.00850027
0.00871386
0.00891701
0.00911045
0.00929481
0.00947064
0.00963847
0.00979875
0.00995189
0.0100983
0.0102382
0.0103721
0.0105001
0.0106226
0.0107398
0.0108519
0.0109591
0.0110617
0.0111599
0.0112537
0.0113434
0.0114291
0.011511
0.0115892
0.0116638
0.011735
0.0118029
0.0118675
0.011929
0.0119875
0.0120431
0.0120959
0.0121459
0.0121934
0.0122384
0.012281
0.0123213
0.0123593
0.0123952
0.012429
0.0124608
0.0124907
0.0125187
0.0125449
0.0125693
0.0125921
0.0126131
0.0126326
0.0126506
0.012667
0.012682
0.0126956
0.0127078
0.0127186
0.0127282
0.0127365
0.0127436
0.0127494
0.0127541
0.0127577
0.0127602
0.0127615
0.0127618
0.0127611
0.0127594
0.0127566
0.0127529
0.0127482
0.0127426
0.012736
0.0127286
0.0127202
0.012711
0.0127009
0.0126899
0.0126781
0.0126654
0.0126519
0.0126375
0.0126223
0.0126063
0.0125895
0.0125719
0.0125534
0.0125341
0.0125141
0.0124931
0.0124714
0.0124489
0.0124255
0.0124013
0.0123763
0.0123504
0.0123237
0.0122962
0.0122677
0.0122384
0.0122083
0.0121772
0.0121452
0.0121123
0.0120785
0.0120438
0.0120081
0.0119714
0.0119338
0.0118951
0.0118555
0.0118148
0.0117731
0.0117303
0.0116865
0.0116415
0.0115954
0.0115483
0.0114999
0.0114504
0.0113997
0.0113478
0.0112946
0.0112402
0.0111845
0.0111275
0.0110692
0.0110095
0.0109484
0.010886
0.0108221
0.0107567
0.0106899
0.0106215
0.0105516
0.0104801
0.0104069
0.0103321
0.0102556
0.0101774
0.0100974
0.0100155
0.00993177
0.00984609
0.0097584
0.00966865
0.00957678
0.00948269
0.00938633
0.00928759
0.00918638
0.0090826
0.00897613
0.00886684
0.00875459
0.00863922
0.00852055
0.00839839
0.00827251
0.00814265
0.00800853
0.00786982
0.00772613
0.00757702
0.00742197
0.0072604
0.00709159
0.00691471
0.00672877
0.0065326
0.00632478
0.00610357
0.00586687
0.00561206
0.00533589
0.00503428
0.00470214
0.00433305
0.00391896
0.00344978
0.00291318
0.00229468
0.00158009
0.000772598
7.50826e-05
0.000105645
0.00104777
0.00209409
0.0030016
0.00378453
0.00446973
0.00507879
0.00562761
0.00612778
0.00658783
0.00701413
0.00741153
0.00778376
0.0081338
0.00846401
0.00877633
0.00907238
0.0093535
0.00962084
0.0098754
0.0101181
0.0103496
0.0105706
0.0107817
0.0109836
0.0111766
0.0113612
0.0115379
0.0117071
0.0118689
0.0120239
0.0121723
0.0123144
0.0124505
0.0125807
0.0127054
0.0128247
0.0129389
0.0130481
0.0131525
0.0132524
0.0133479
0.0134391
0.0135262
0.0136093
0.0136885
0.0137641
0.013836
0.0139045
0.0139697
0.0140316
0.0140905
0.0141463
0.0141993
0.0142496
0.0142972
0.0143422
0.0143847
0.0144248
0.0144627
0.0144983
0.0145317
0.014563
0.0145923
0.0146197
0.0146451
0.0146688
0.0146906
0.0147107
0.0147291
0.0147459
0.0147611
0.0147748
0.0147869
0.0147976
0.0148069
0.0148148
0.0148214
0.0148266
0.0148306
0.0148332
0.0148347
0.014835
0.014834
0.0148319
0.0148287
0.0148244
0.014819
0.0148125
0.0148049
0.0147963
0.0147866
0.0147759
0.0147643
0.0147516
0.0147379
0.0147232
0.0147076
0.014691
0.0146734
0.0146548
0.0146353
0.0146148
0.0145934
0.0145709
0.0145475
0.0145232
0.0144978
0.0144715
0.0144442
0.0144159
0.0143866
0.0143563
0.0143249
0.0142926
0.0142591
0.0142247
0.0141891
0.0141525
0.0141147
0.0140759
0.0140359
0.0139948
0.0139525
0.013909
0.0138643
0.0138184
0.0137712
0.0137228
0.0136731
0.0136221
0.0135697
0.013516
0.013461
0.0134045
0.0133466
0.0132872
0.0132264
0.013164
0.0131001
0.0130346
0.0129676
0.0128989
0.0128285
0.0127564
0.0126826
0.0126071
0.0125297
0.0124505
0.0123694
0.0122863
0.0122013
0.0121143
0.0120252
0.0119339
0.0118405
0.0117448
0.0116468
0.0115464
0.0114436
0.0113382
0.0112302
0.0111194
0.0110059
0.0108894
0.0107698
0.0106471
0.010521
0.0103914
0.0102582
0.010121
0.00997979
0.00983418
0.00968394
0.00952874
0.00936822
0.00920197
0.00902951
0.00885029
0.00866368
0.00846894
0.0082652
0.00805144
0.00782647
0.00758886
0.0073369
0.00706852
0.00678125
0.00647205
0.00613721
0.00577218
0.00537141
0.00492806
0.00443381
0.0038786
0.00325062
0.00253714
0.00172755
0.000833177
7.97088e-05
0.000105646
0.0010478
0.00209416
0.0030017
0.00378465
0.00446987
0.00507894
0.00562777
0.00612794
0.006588
0.0070143
0.00741169
0.00778393
0.00813396
0.00846417
0.00877649
0.00907253
0.00935364
0.00962098
0.00987554
0.0101182
0.0103497
0.0105707
0.0107818
0.0109837
0.0111767
0.0113613
0.011538
0.0117071
0.011869
0.012024
0.0121724
0.0123145
0.0124505
0.0125808
0.0127054
0.0128247
0.0129389
0.0130481
0.0131526
0.0132525
0.0133479
0.0134391
0.0135262
0.0136093
0.0136886
0.0137641
0.0138361
0.0139046
0.0139697
0.0140316
0.0140905
0.0141464
0.0141994
0.0142496
0.0142972
0.0143422
0.0143847
0.0144249
0.0144627
0.0144983
0.0145317
0.014563
0.0145923
0.0146197
0.0146451
0.0146688
0.0146906
0.0147107
0.0147291
0.0147459
0.0147611
0.0147748
0.0147869
0.0147976
0.0148069
0.0148148
0.0148214
0.0148266
0.0148306
0.0148332
0.0148347
0.014835
0.014834
0.0148319
0.0148287
0.0148244
0.014819
0.0148125
0.0148049
0.0147963
0.0147866
0.0147759
0.0147643
0.0147516
0.0147379
0.0147232
0.0147076
0.014691
0.0146734
0.0146548
0.0146353
0.0146148
0.0145933