/*--------------------------------*- C++ -*----------------------------------*\
  =========                 |
  \\      /  F ield         | OpenFOAM: The Open Source CFD Toolbox
   \\    /   O peration     | Website:  https://openfoam.org
    \\  /    A nd           | Version:  8
     \\/     M anipulation  |
\*---------------------------------------------------------------------------*/
FoamFile
{
    version     2.0;
    format      ascii;
    class       surfaceScalarField;
    location    "2300";
    object      phi;
}
// * * * * * * * * * * * * * * * * * * * * * * * * * * * * * * * * * * * * * //

dimensions      [1 0 -1 0 0 0 0];

internalField   nonuniform List<scalar> 
119360
(
-3.149e-07
-1.682e-11
3.14917e-07
-5.22091e-07
-2.4098e-12
2.07352e-07
-5.95457e-07
-1.11729e-12
7.34237e-08
-5.56494e-07
-1.15794e-12
-3.89165e-08
-4.39604e-07
-1.46625e-12
-1.1685e-07
-2.72262e-07
-1.76107e-12
-1.67303e-07
-7.3739e-08
-1.95003e-12
-1.98486e-07
1.42399e-07
-1.97934e-12
-2.16102e-07
3.66556e-07
-1.87365e-12
-2.24121e-07
5.92543e-07
-1.72971e-12
-2.25954e-07
8.16322e-07
-1.59185e-12
-2.23748e-07
1.03515e-06
-1.45122e-12
-2.18799e-07
1.24717e-06
-1.31683e-12
-2.11997e-07
1.45115e-06
-1.20286e-12
-2.03954e-07
1.64628e-06
-1.11743e-12
-1.95103e-07
1.83206e-06
-1.06109e-12
-1.85754e-07
2.00822e-06
-1.02909e-12
-1.76138e-07
2.17466e-06
-1.01182e-12
-1.66424e-07
2.33142e-06
-9.97917e-13
-1.56739e-07
2.47862e-06
-9.77545e-13
-1.47179e-07
2.61645e-06
-9.43017e-13
-1.37817e-07
2.74517e-06
-8.90254e-13
-1.28704e-07
2.86507e-06
-8.20837e-13
-1.1988e-07
2.97646e-06
-7.41262e-13
-1.11373e-07
3.07968e-06
-6.58801e-13
-1.03202e-07
3.17508e-06
-5.81613e-13
-9.53774e-08
3.263e-06
-5.16776e-13
-8.79062e-08
3.3438e-06
-4.70091e-13
-8.07892e-08
3.41784e-06
-4.43363e-13
-7.4024e-08
3.48546e-06
-4.3462e-13
-6.76052e-08
3.547e-06
-4.38506e-13
-6.15253e-08
3.60279e-06
-4.50108e-13
-5.57746e-08
3.65314e-06
-4.63597e-13
-5.03426e-08
3.69837e-06
-4.73534e-13
-4.52174e-08
3.73877e-06
-4.75352e-13
-4.03867e-08
3.77462e-06
-4.66637e-13
-3.58379e-08
3.80619e-06
-4.48401e-13
-3.1558e-08
3.83374e-06
-4.23907e-13
-2.75342e-08
3.85751e-06
-3.97789e-13
-2.37538e-08
3.87772e-06
-3.73781e-13
-2.02044e-08
3.89461e-06
-3.54921e-13
-1.68739e-08
3.90837e-06
-3.44082e-13
-1.37507e-08
3.91921e-06
-3.42362e-13
-1.08237e-08
3.9273e-06
-3.49939e-13
-8.082e-09
3.93283e-06
-3.65357e-13
-5.51566e-09
3.93596e-06
-3.86008e-13
-3.11503e-09
3.93684e-06
-4.09725e-13
-8.70333e-10
3.93562e-06
-4.33733e-13
1.22701e-09
3.93245e-06
-4.56576e-13
3.18471e-09
3.92745e-06
-4.77601e-13
5.01096e-09
3.92075e-06
-4.95642e-13
6.71345e-09
3.91246e-06
-5.10103e-13
8.29931e-09
3.9027e-06
-5.21316e-13
9.77511e-09
3.89157e-06
-5.30143e-13
1.1147e-08
3.87916e-06
-5.38442e-13
1.24208e-08
3.86557e-06
-5.48156e-13
1.3602e-08
3.85089e-06
-5.61007e-13
1.46959e-08
3.8352e-06
-5.77424e-13
1.57074e-08
3.81857e-06
-5.96756e-13
1.66412e-08
3.80108e-06
-6.17989e-13
1.75018e-08
3.78281e-06
-6.39625e-13
1.82934e-08
3.7638e-06
-6.60775e-13
1.90202e-08
3.74413e-06
-6.80967e-13
1.9686e-08
3.72386e-06
-7.00077e-13
2.02943e-08
3.70302e-06
-7.18104e-13
2.08488e-08
3.68169e-06
-7.3441e-13
2.13528e-08
3.6599e-06
-7.47636e-13
2.18094e-08
3.6377e-06
-7.55949e-13
2.22216e-08
3.61512e-06
-7.57461e-13
2.25924e-08
3.59222e-06
-7.50495e-13
2.29245e-08
3.56902e-06
-7.34272e-13
2.32206e-08
3.54555e-06
-7.08945e-13
2.34831e-08
3.52186e-06
-6.75555e-13
2.37145e-08
3.49796e-06
-6.36211e-13
2.3917e-08
3.47389e-06
-5.93038e-13
2.40928e-08
3.44967e-06
-5.48004e-13
2.42438e-08
3.42531e-06
-5.03026e-13
2.43722e-08
3.40085e-06
-4.5927e-13
2.44796e-08
3.3763e-06
-4.17192e-13
2.45679e-08
3.35168e-06
-3.77238e-13
2.46388e-08
3.32701e-06
-3.38825e-13
2.46938e-08
3.30229e-06
-3.02257e-13
2.47344e-08
3.27755e-06
-2.66979e-13
2.47621e-08
3.25278e-06
-2.32923e-13
2.47782e-08
3.22801e-06
-2.00588e-13
2.47839e-08
3.20325e-06
-1.69849e-13
2.47806e-08
3.17849e-06
-1.41483e-13
2.47694e-08
3.15375e-06
-1.16253e-13
2.47513e-08
3.12904e-06
-9.48813e-14
2.47275e-08
3.10435e-06
-7.80337e-14
2.46988e-08
3.07969e-06
-6.64319e-14
2.46662e-08
3.05507e-06
-6.0742e-14
2.46305e-08
3.03049e-06
-6.09502e-14
2.45927e-08
3.00595e-06
-6.69455e-14
2.45535e-08
2.98144e-06
-7.8353e-14
2.45137e-08
2.95697e-06
-9.45068e-14
2.4474e-08
2.93255e-06
-1.1413e-13
2.4435e-08
2.90816e-06
-1.36029e-13
2.43974e-08
2.8838e-06
-1.5865e-13
2.43619e-08
2.85948e-06
-1.80993e-13
2.4329e-08
2.83518e-06
-2.01588e-13
2.42993e-08
2.81092e-06
-2.19102e-13
2.42734e-08
2.78667e-06
-2.33091e-13
2.42517e-08
2.76244e-06
-2.43555e-13
2.42347e-08
2.73823e-06
-2.50188e-13
2.42231e-08
2.71402e-06
-2.5388e-13
2.42171e-08
2.68981e-06
-2.55656e-13
2.42173e-08
2.66559e-06
-2.56489e-13
2.42241e-08
2.64136e-06
-2.57849e-13
2.42379e-08
2.61711e-06
-2.60402e-13
2.42592e-08
2.59283e-06
-2.65204e-13
2.42884e-08
2.56851e-06
-2.72337e-13
2.43259e-08
2.54415e-06
-2.81913e-13
2.43721e-08
2.51973e-06
-2.93459e-13
2.44275e-08
2.49524e-06
-3.06171e-13
2.44924e-08
2.47068e-06
-3.19577e-13
2.45673e-08
2.44604e-06
-3.32623e-13
2.46525e-08
2.4213e-06
-3.44974e-13
2.47484e-08
2.39645e-06
-3.55909e-13
2.48555e-08
2.37149e-06
-3.65457e-13
2.49741e-08
2.34639e-06
-3.73396e-13
2.51045e-08
2.32116e-06
-3.80362e-13
2.52472e-08
2.29576e-06
-3.85886e-13
2.54026e-08
2.2702e-06
-3.89993e-13
2.55709e-08
2.24446e-06
-3.92158e-13
2.57526e-08
2.21852e-06
-3.90604e-13
2.59479e-08
2.19238e-06
-3.8422e-13
2.61573e-08
2.16601e-06
-3.71286e-13
2.63811e-08
2.1394e-06
-3.51052e-13
2.66196e-08
2.11253e-06
-3.23491e-13
2.68732e-08
2.0854e-06
-2.90517e-13
2.71422e-08
2.05799e-06
-2.55129e-13
2.7427e-08
2.03027e-06
-2.21684e-13
2.77277e-08
2.00224e-06
-1.95149e-13
2.80447e-08
1.97387e-06
-1.79828e-13
2.83782e-08
1.94515e-06
-1.78135e-13
2.87284e-08
1.91606e-06
-1.90237e-13
2.90956e-08
1.88659e-06
-2.13246e-13
2.94799e-08
1.85672e-06
-2.41335e-13
2.98815e-08
1.82643e-06
-2.66592e-13
3.03005e-08
1.7957e-06
-2.8097e-13
3.0737e-08
1.76452e-06
-2.79277e-13
3.11913e-08
1.73286e-06
-2.59959e-13
3.16632e-08
1.70072e-06
-2.25736e-13
3.21529e-08
1.66807e-06
-1.83631e-13
3.26602e-08
1.63489e-06
-1.42913e-13
3.3185e-08
1.60117e-06
-1.10883e-13
3.37271e-08
1.56689e-06
-9.19542e-14
3.42861e-08
1.53204e-06
-8.47933e-14
3.48617e-08
1.49659e-06
-8.29891e-14
3.54536e-08
1.46054e-06
-7.75491e-14
3.60612e-08
1.42386e-06
-6.10067e-14
3.66839e-08
1.38655e-06
-3.03091e-14
3.73212e-08
1.34858e-06
1.06859e-14
3.7972e-08
1.30995e-06
5.30132e-14
3.86355e-08
1.27064e-06
8.66807e-14
3.93105e-08
1.23065e-06
1.07026e-13
3.99957e-08
1.18997e-06
1.16379e-13
4.06896e-08
1.14858e-06
1.25178e-13
4.13906e-08
1.10648e-06
1.44301e-13
4.20969e-08
1.06368e-06
1.78274e-13
4.28063e-08
1.02016e-06
2.20435e-13
4.35164e-08
9.75938e-07
2.55407e-13
4.42244e-08
9.3101e-07
2.6748e-13
4.49272e-08
8.85386e-07
2.54297e-13
4.56214e-08
8.39081e-07
2.30399e-13
4.63029e-08
7.9211e-07
2.22294e-13
4.69676e-08
7.44497e-07
2.49439e-13
4.76104e-08
6.96267e-07
3.09003e-13
4.82258e-08
6.47455e-07
3.73535e-13
4.88073e-08
5.98102e-07
4.09478e-13
4.93475e-08
5.48257e-07
4.04399e-13
4.9838e-08
4.9798e-07
3.8089e-13
5.02694e-08
4.47342e-07
3.77864e-13
5.06309e-08
3.96423e-07
4.1378e-13
5.09101e-08
3.45321e-07
4.6535e-13
5.10925e-08
2.9415e-07
4.84168e-13
5.11612e-08
2.43042e-07
4.49751e-13
5.10968e-08
1.92154e-07
3.96627e-13
5.08766e-08
1.41669e-07
3.85469e-13
5.04736e-08
9.18006e-08
4.35263e-13
4.98557e-08
4.28058e-08
4.95048e-13
4.89819e-08
-5.0121e-09
5.0332e-13
4.78043e-08
-5.12633e-08
4.66516e-13
4.6237e-08
-9.54948e-08
4.57911e-13
4.42173e-08
-1.37205e-07
4.95326e-13
4.16958e-08
-1.75805e-07
4.99434e-13
3.8586e-08
-2.10588e-07
4.22329e-13
3.47679e-08
-2.40692e-07
3.48666e-13
3.00885e-08
-2.65086e-07
3.82527e-13
2.43789e-08
-2.82523e-07
4.67959e-13
1.74221e-08
-2.91506e-07
4.84279e-13
8.96702e-09
-2.90266e-07
4.97546e-13
-1.25622e-09
-2.76847e-07
6.46094e-13
-1.34358e-08
-2.49229e-07
7.90423e-13
-2.76359e-08
-2.05718e-07
7.73548e-13
-4.35299e-08
-1.46195e-07
9.4702e-13
-5.95431e-08
-7.52821e-08
1.03917e-12
-7.09342e-08
-1.39302e-08
1.39888e-12
-6.138e-08
4.14224e-13
-1.39594e-08
-3.14868e-07
3.14936e-07
-5.22084e-07
2.07357e-07
-5.95451e-07
7.34265e-08
-5.56487e-07
-3.89143e-08
-4.39596e-07
-1.16848e-07
-2.72254e-07
-1.67301e-07
-7.37307e-08
-1.98484e-07
1.42407e-07
-2.16099e-07
3.66563e-07
-2.24119e-07
5.92549e-07
-2.25952e-07
8.16327e-07
-2.23746e-07
1.03515e-06
-2.18797e-07
1.24718e-06
-2.11995e-07
1.45116e-06
-2.03953e-07
1.64628e-06
-1.95101e-07
1.83206e-06
-1.85753e-07
2.00822e-06
-1.76136e-07
2.17466e-06
-1.66422e-07
2.33142e-06
-1.56737e-07
2.47862e-06
-1.47178e-07
2.61645e-06
-1.37815e-07
2.74517e-06
-1.28702e-07
2.86507e-06
-1.19878e-07
2.97646e-06
-1.11372e-07
3.07968e-06
-1.032e-07
3.17507e-06
-9.53759e-08
3.263e-06
-8.79047e-08
3.3438e-06
-8.07877e-08
3.41784e-06
-7.40226e-08
3.48546e-06
-6.7604e-08
3.547e-06
-6.1524e-08
3.60279e-06
-5.57735e-08
3.65314e-06
-5.03414e-08
3.69837e-06
-4.52163e-08
3.73877e-06
-4.03856e-08
3.77462e-06
-3.58367e-08
3.80619e-06
-3.15568e-08
3.83374e-06
-2.7533e-08
3.8575e-06
-2.37526e-08
3.87772e-06
-2.02032e-08
3.89461e-06
-1.68728e-08
3.90837e-06
-1.37496e-08
3.91921e-06
-1.08225e-08
3.9273e-06
-8.08089e-09
3.93283e-06
-5.51455e-09
3.93595e-06
-3.11392e-09
3.93683e-06
-8.69207e-10
3.93562e-06
1.22816e-09
3.93245e-06
3.18589e-09
3.92745e-06
5.01217e-09
3.92075e-06
6.7147e-09
3.91246e-06
8.3006e-09
3.9027e-06
9.77643e-09
3.89156e-06
1.11484e-08
3.87916e-06
1.24222e-08
3.86557e-06
1.36034e-08
3.85089e-06
1.46973e-08
3.83519e-06
1.57088e-08
3.81857e-06
1.66427e-08
3.80108e-06
1.75033e-08
3.7828e-06
1.8295e-08
3.7638e-06
1.90218e-08
3.74413e-06
1.96876e-08
3.72385e-06
2.0296e-08
3.70302e-06
2.08505e-08
3.68169e-06
2.13545e-08
3.6599e-06
2.18112e-08
3.63769e-06
2.22234e-08
3.61512e-06
2.25943e-08
3.59222e-06
2.29264e-08
3.56901e-06
2.32226e-08
3.54555e-06
2.34851e-08
3.52186e-06
2.37165e-08
3.49796e-06
2.3919e-08
3.47389e-06
2.40947e-08
3.44966e-06
2.42458e-08
3.42531e-06
2.43741e-08
3.40085e-06
2.44815e-08
3.3763e-06
2.45698e-08
3.35168e-06
2.46406e-08
3.32701e-06
2.46955e-08
3.30229e-06
2.47361e-08
3.27754e-06
2.47637e-08
3.25278e-06
2.47797e-08
3.22801e-06
2.47854e-08
3.20325e-06
2.4782e-08
3.17849e-06
2.47707e-08
3.15375e-06
2.47526e-08
3.12904e-06
2.47287e-08
3.10435e-06
2.46999e-08
3.07969e-06
2.46672e-08
3.05507e-06
2.46315e-08
3.03049e-06
2.45936e-08
3.00595e-06
2.45544e-08
2.98144e-06
2.45145e-08
2.95697e-06
2.44747e-08
2.93255e-06
2.44357e-08
2.90815e-06
2.43981e-08
2.8838e-06
2.43625e-08
2.85948e-06
2.43296e-08
2.83518e-06
2.42999e-08
2.81092e-06
2.4274e-08
2.78667e-06
2.42523e-08
2.76244e-06
2.42355e-08
2.73823e-06
2.42238e-08
2.71402e-06
2.42179e-08
2.68981e-06
2.42181e-08
2.66559e-06
2.42249e-08
2.64136e-06
2.42388e-08
2.61711e-06
2.42601e-08
2.59283e-06
2.42893e-08
2.56851e-06
2.43268e-08
2.54414e-06
2.4373e-08
2.51973e-06
2.44284e-08
2.49524e-06
2.44933e-08
2.47068e-06
2.45681e-08
2.44604e-06
2.46533e-08
2.4213e-06
2.47493e-08
2.39645e-06
2.48564e-08
2.37149e-06
2.4975e-08
2.34639e-06
2.51055e-08
2.32116e-06
2.52482e-08
2.29576e-06
2.54036e-08
2.2702e-06
2.55719e-08
2.24446e-06
2.57536e-08
2.21852e-06
2.5949e-08
2.19238e-06
2.61584e-08
2.166e-06
2.63822e-08
2.1394e-06
2.66208e-08
2.11253e-06
2.68744e-08
2.0854e-06
2.71434e-08
2.05799e-06
2.74281e-08
2.03027e-06
2.77288e-08
2.00224e-06
2.80457e-08
1.97387e-06
2.83792e-08
1.94515e-06
2.87293e-08
1.91606e-06
2.90965e-08
1.88659e-06
2.94807e-08
1.85672e-06
2.98823e-08
1.82643e-06
3.03013e-08
1.7957e-06
3.07378e-08
1.76452e-06
3.11921e-08
1.73286e-06
3.16641e-08
1.70072e-06
3.21538e-08
1.66807e-06
3.2661e-08
1.63489e-06
3.31858e-08
1.60117e-06
3.37278e-08
1.56689e-06
3.42868e-08
1.53204e-06
3.48624e-08
1.49659e-06
3.54542e-08
1.46054e-06
3.60618e-08
1.42386e-06
3.66845e-08
1.38655e-06
3.73217e-08
1.34858e-06
3.79725e-08
1.30995e-06
3.8636e-08
1.27064e-06
3.93109e-08
1.23065e-06
3.9996e-08
1.18997e-06
4.06898e-08
1.14858e-06
4.13908e-08
1.10648e-06
4.2097e-08
1.06368e-06
4.28063e-08
1.02016e-06
4.35163e-08
9.75939e-07
4.42242e-08
9.3101e-07
4.49269e-08
8.85387e-07
4.5621e-08
8.39082e-07
4.63025e-08
7.92111e-07
4.69671e-08
7.44497e-07
4.76099e-08
6.96268e-07
4.82253e-08
6.47456e-07
4.88066e-08
5.98102e-07
4.93467e-08
5.48258e-07
4.98371e-08
4.97981e-07
5.02684e-08
4.47342e-07
5.06299e-08
3.96424e-07
5.09091e-08
3.45322e-07
5.10914e-08
2.94151e-07
5.116e-08
2.43043e-07
5.10955e-08
1.92155e-07
5.08752e-08
1.41669e-07
5.04723e-08
9.18014e-08
4.98543e-08
4.28064e-08
4.89805e-08
-5.01152e-09
4.78028e-08
-5.12625e-08
4.62355e-08
-9.54939e-08
4.42158e-08
-1.37204e-07
4.16943e-08
-1.75805e-07
3.85845e-08
-2.10587e-07
3.47662e-08
-2.40691e-07
3.00869e-08
-2.65085e-07
2.43775e-08
-2.82523e-07
1.74207e-08
-2.91506e-07
8.96546e-09
-2.90266e-07
-1.25775e-09
-2.76847e-07
-1.34374e-08
-2.49229e-07
-2.76378e-08
-2.05719e-07
-4.35317e-08
-1.46196e-07
-5.95452e-08
-7.52841e-08
-7.09403e-08
-1.39297e-08
-6.13845e-08
-1.39611e-08
-1.81595e-07
-3.19686e-12
4.9666e-07
-2.0583e-07
5.63311e-13
2.31689e-07
-1.60943e-07
5.69246e-13
2.85825e-08
-7.21479e-08
4.6306e-13
-1.27672e-07
5.11081e-08
3.6218e-13
-2.40071e-07
2.00723e-07
2.8764e-13
-3.16884e-07
3.69016e-07
2.42821e-13
-3.66747e-07
5.49617e-07
2.18444e-13
-3.96672e-07
7.37457e-07
2.02692e-13
-4.11932e-07
9.28417e-07
1.93844e-13
-4.16887e-07
1.1193e-06
1.88848e-13
-4.14605e-07
1.30772e-06
1.85434e-13
-4.07191e-07
1.4919e-06
1.81194e-13
-3.96157e-07
1.67056e-06
1.73977e-13
-3.8259e-07
1.84276e-06
1.63103e-13
-3.67287e-07
2.00787e-06
1.49718e-13
-3.50842e-07
2.16545e-06
1.35299e-13
-3.33701e-07
2.31524e-06
1.22011e-13
-3.16203e-07
2.45713e-06
1.12081e-13
-2.98607e-07
2.59108e-06
1.07362e-13
-2.81113e-07
2.71715e-06
1.0825e-13
-2.63872e-07
2.83547e-06
1.14037e-13
-2.47002e-07
2.94619e-06
1.23079e-13
-2.30588e-07
3.04953e-06
1.33272e-13
-2.14697e-07
3.14572e-06
1.42618e-13
-1.99373e-07
3.235e-06
1.49269e-13
-1.84649e-07
3.31765e-06
1.51857e-13
-1.70543e-07
3.39394e-06
1.50008e-13
-1.57065e-07
3.46415e-06
1.44228e-13
-1.44218e-07
3.52855e-06
1.35835e-13
-1.31996e-07
3.58743e-06
1.26339e-13
-1.20389e-07
3.64105e-06
1.17072e-13
-1.09385e-07
3.68969e-06
1.09408e-13
-9.8967e-08
3.7336e-06
1.04291e-13
-8.91158e-08
3.77303e-06
1.02261e-13
-7.98113e-08
3.80824e-06
1.02996e-13
-7.10318e-08
3.83945e-06
1.05664e-13
-6.27554e-08
3.86688e-06
1.09005e-13
-5.49595e-08
3.89076e-06
1.11982e-13
-4.76219e-08
3.91129e-06
1.13856e-13
-4.07204e-08
3.92866e-06
1.14171e-13
-3.42334e-08
3.94306e-06
1.12655e-13
-2.81397e-08
3.95467e-06
1.09501e-13
-2.2419e-08
3.96365e-06
1.0513e-13
-1.70517e-08
3.97016e-06
1.00245e-13
-1.2019e-08
3.97436e-06
9.55401e-14
-7.30286e-09
3.97638e-06
9.16057e-14
-2.88603e-09
3.97637e-06
8.85213e-14
1.2474e-09
3.97446e-06
8.63702e-14
5.11248e-09
3.97076e-06
8.55098e-14
8.72415e-09
3.96538e-06
8.58775e-14
1.20966e-08
3.95845e-06
8.73693e-14
1.5243e-08
3.95006e-06
8.985e-14
1.81759e-08
3.94032e-06
9.2799e-14
2.0907e-08
3.9293e-06
9.57306e-14
2.34475e-08
3.91711e-06
9.82771e-14
2.5808e-08
3.90382e-06
1.00099e-13
2.79983e-08
3.88951e-06
1.01375e-13
3.00281e-08
3.87426e-06
1.02388e-13
3.19064e-08
3.85814e-06
1.03495e-13
3.36416e-08
3.8412e-06
1.04987e-13
3.52421e-08
3.82352e-06
1.06951e-13
3.67156e-08
3.80515e-06
1.09393e-13
3.80695e-08
3.78615e-06
1.12106e-13
3.93108e-08
3.76657e-06
1.15156e-13
4.04463e-08
3.74646e-06
1.18535e-13
4.14824e-08
3.72586e-06
1.22494e-13
4.24252e-08
3.70482e-06
1.27313e-13
4.32806e-08
3.68337e-06
1.33193e-13
4.40542e-08
3.66157e-06
1.40188e-13
4.47513e-08
3.63943e-06
1.48091e-13
4.5377e-08
3.61699e-06
1.56508e-13
4.59362e-08
3.59429e-06
1.6489e-13
4.64333e-08
3.57135e-06
1.72648e-13
4.6873e-08
3.54821e-06
1.79236e-13
4.72593e-08
3.52487e-06
1.84364e-13
4.75963e-08
3.50137e-06
1.87837e-13
4.78878e-08
3.47773e-06
1.89634e-13
4.81374e-08
3.45397e-06
1.89943e-13
4.83486e-08
3.4301e-06
1.89075e-13
4.85247e-08
3.40614e-06
1.87184e-13
4.86687e-08
3.3821e-06
1.8452e-13
4.87837e-08
3.35801e-06
1.81182e-13
4.88725e-08
3.33386e-06
1.77276e-13
4.89378e-08
3.30967e-06
1.72731e-13
4.8982e-08
3.28546e-06
1.67495e-13
4.90076e-08
3.26122e-06
1.61469e-13
4.90169e-08
3.23697e-06
1.54499e-13
4.90121e-08
3.21272e-06
1.46495e-13
4.89951e-08
3.18846e-06
1.37471e-13
4.89679e-08
3.1642e-06
1.27461e-13
4.89325e-08
3.13995e-06
1.16629e-13
4.88905e-08
3.1157e-06
1.05198e-13
4.88436e-08
3.09147e-06
9.35021e-14
4.87934e-08
3.06725e-06
8.19731e-14
4.87414e-08
3.04304e-06
7.10409e-14
4.86891e-08
3.01884e-06
6.10766e-14
4.86378e-08
2.99466e-06
5.24689e-14
4.85888e-08
2.97048e-06
4.55404e-14
4.85433e-08
2.94632e-06
4.04125e-14
4.85026e-08
2.92215e-06
3.72171e-14
4.84678e-08
2.89799e-06
3.58363e-14
4.84399e-08
2.87383e-06
3.60583e-14
4.842e-08
2.84966e-06
3.75189e-14
4.84091e-08
2.82548e-06
3.9951e-14
4.84081e-08
2.80129e-06
4.28237e-14
4.8418e-08
2.77707e-06
4.56617e-14
4.84396e-08
2.75283e-06
4.8229e-14
4.84739e-08
2.72855e-06
5.01546e-14
4.85217e-08
2.70423e-06
5.1348e-14
4.85839e-08
2.67987e-06
5.17852e-14
4.86613e-08
2.65545e-06
5.15978e-14
4.87547e-08
2.63096e-06
5.10566e-14
4.8865e-08
2.6064e-06
5.04217e-14
4.8993e-08
2.58176e-06
5.00435e-14
4.91395e-08
2.55703e-06
5.0099e-14
4.93053e-08
2.5322e-06
5.08241e-14
4.94912e-08
2.50726e-06
5.23125e-14
4.96978e-08
2.4822e-06
5.45711e-14
4.99261e-08
2.457e-06
5.74125e-14
5.01767e-08
2.43167e-06
6.07085e-14
5.04504e-08
2.40617e-06
6.4223e-14
5.07479e-08
2.38052e-06
6.77862e-14
5.10699e-08
2.35468e-06
7.13146e-14
5.14171e-08
2.32865e-06
7.48014e-14
5.17901e-08
2.30242e-06
7.84373e-14
5.21897e-08
2.27597e-06
8.2455e-14
5.26165e-08
2.24929e-06
8.69722e-14
5.30711e-08
2.22236e-06
9.20376e-14
5.35542e-08
2.19518e-06
9.74117e-14
5.40664e-08
2.16772e-06
1.02734e-13
5.46083e-08
2.13998e-06
1.07199e-13
5.51804e-08
2.11193e-06
1.10082e-13
5.57833e-08
2.08357e-06
1.10596e-13
5.64174e-08
2.05487e-06
1.08281e-13
5.70833e-08
2.02583e-06
1.03178e-13
5.77813e-08
1.99642e-06
9.58609e-14
5.85118e-08
1.96663e-06
8.74578e-14
5.92752e-08
1.93645e-06
7.95198e-14
6.00717e-08
1.90586e-06
7.37188e-14
6.09014e-08
1.87484e-06
7.12416e-14
6.17645e-08
1.84338e-06
7.25115e-14
6.26609e-08
1.81146e-06
7.69524e-14
6.35907e-08
1.77906e-06
8.3121e-14
6.45537e-08
1.74618e-06
8.90399e-14
6.55496e-08
1.71279e-06
9.28008e-14
6.6578e-08
1.67889e-06
9.31547e-14
6.76383e-08
1.64445e-06
9.00877e-14
6.87301e-08
1.60947e-06
8.47794e-14
6.98523e-08
1.57392e-06
7.90687e-14
7.10041e-08
1.53781e-06
7.50233e-14
7.21842e-08
1.5011e-06
7.36633e-14
7.33914e-08
1.46381e-06
7.46972e-14
7.4624e-08
1.4259e-06
7.63278e-14
7.58801e-08
1.38738e-06
7.63972e-14
7.71578e-08
1.34824e-06
7.3129e-14
7.84545e-08
1.30847e-06
6.67036e-14
7.97675e-08
1.26807e-06
5.88696e-14
8.10937e-08
1.22703e-06
5.23956e-14
8.24296e-08
1.18536e-06
4.93147e-14
8.37714e-08
1.14305e-06
4.91482e-14
8.51145e-08
1.10011e-06
4.88984e-14
8.6454e-08
1.05655e-06
4.47559e-14
8.77844e-08
1.01238e-06
3.44794e-14
8.90993e-08
9.67607e-07
2.0095e-14
9.03918e-08
9.22253e-07
6.87645e-15
9.1654e-08
8.76341e-07
6.52258e-16
9.28772e-08
8.29896e-07
2.91434e-15
9.40513e-08
7.82952e-07
8.86097e-15
9.51653e-08
7.35548e-07
1.02696e-14
9.62066e-08
6.87729e-07
1.69309e-15
9.71609e-08
6.39548e-07
-1.419e-14
9.80123e-08
5.91068e-07
-2.81233e-14
9.87425e-08
5.4236e-07
-3.25503e-14
9.93308e-08
4.93509e-07
-2.98095e-14
9.97535e-08
4.44609e-07
-3.09752e-14
9.99835e-08
3.95771e-07
-4.50889e-14
9.99896e-08
3.47122e-07
-6.77444e-14
9.97357e-08
2.98808e-07
-8.35859e-14
9.91801e-08
2.50997e-07
-8.25243e-14
9.82739e-08
2.03883e-07
-7.27682e-14
9.69591e-08
1.57688e-07
-7.19702e-14
9.51657e-08
1.12668e-07
-8.41271e-14
9.2812e-08
6.91104e-08
-9.33351e-14
8.97823e-08
2.73439e-08
-8.94215e-14
8.59717e-08
-1.22462e-08
-8.9373e-14
8.12734e-08
-4.92057e-08
-1.13971e-13
7.55327e-08
-8.3028e-08
-1.4648e-13
6.85773e-08
-1.13154e-07
-1.49838e-13
6.02012e-08
-1.38953e-07
-1.29882e-13
5.01645e-08
-1.5973e-07
-1.33879e-13
3.81855e-08
-1.74745e-07
-1.63203e-13
2.39682e-08
-1.83248e-07
-1.63383e-13
7.23325e-09
-1.84518e-07
-1.39097e-13
-1.2181e-08
-1.77986e-07
-1.41956e-13
-3.41838e-08
-1.63392e-07
-1.09926e-13
-5.81415e-08
-1.40827e-07
-2.0331e-14
-8.2128e-08
-1.09896e-07
4.34652e-14
-1.0189e-07
-6.54248e-08
-3.91632e-14
-1.05881e-07
-1.9127e-12
-7.94058e-08
-1.81582e-07
4.96657e-07
-2.05826e-07
2.31686e-07
-1.60938e-07
2.85794e-08
-7.21437e-08
-1.27675e-07
5.11122e-08
-2.40073e-07
2.00726e-07
-3.16885e-07
3.69019e-07
-3.66749e-07
5.4962e-07
-3.96673e-07
7.37459e-07
-4.11934e-07
9.28418e-07
-4.16888e-07
1.1193e-06
-4.14606e-07
1.30772e-06
-4.07192e-07
1.4919e-06
-3.96158e-07
1.67056e-06
-3.82591e-07
1.84276e-06
-3.67288e-07
2.00787e-06
-3.50843e-07
2.16545e-06
-3.33701e-07
2.31524e-06
-3.16203e-07
2.45713e-06
-2.98607e-07
2.59108e-06
-2.81113e-07
2.71715e-06
-2.63873e-07
2.83546e-06
-2.47002e-07
2.94619e-06
-2.30589e-07
3.04953e-06
-2.14697e-07
3.14571e-06
-1.99373e-07
3.235e-06
-1.84649e-07
3.31765e-06
-1.70543e-07
3.39394e-06
-1.57066e-07
3.46415e-06
-1.44218e-07
3.52855e-06
-1.31996e-07
3.58743e-06
-1.20389e-07
3.64105e-06
-1.09385e-07
3.68968e-06
-9.89672e-08
3.73359e-06
-8.9116e-08
3.77303e-06
-7.98114e-08
3.80824e-06
-7.1032e-08
3.83944e-06
-6.27555e-08
3.86688e-06
-5.49597e-08
3.89076e-06
-4.76221e-08
3.91129e-06
-4.07206e-08
3.92866e-06
-3.42336e-08
3.94306e-06
-2.81399e-08
3.95466e-06
-2.24192e-08
3.96364e-06
-1.70519e-08
3.97016e-06
-1.20192e-08
3.97436e-06
-7.30301e-09
3.97638e-06
-2.88619e-09
3.97637e-06
1.24725e-09
3.97446e-06
5.11233e-09
3.97075e-06
8.724e-09
3.96538e-06
1.20964e-08
3.95845e-06
1.52428e-08
3.95006e-06
1.81757e-08
3.94031e-06
2.09069e-08
3.9293e-06
2.34474e-08
3.91711e-06
2.58078e-08
3.90382e-06
2.79982e-08
3.88951e-06
3.00279e-08
3.87426e-06
3.19062e-08
3.85814e-06
3.36415e-08
3.8412e-06
3.52419e-08
3.82352e-06
3.67154e-08
3.80515e-06
3.80693e-08
3.78615e-06
3.93106e-08
3.76657e-06
4.0446e-08
3.74646e-06
4.14821e-08
3.72586e-06
4.2425e-08
3.70482e-06
4.32804e-08
3.68337e-06
4.4054e-08
3.66156e-06
4.47511e-08
3.63943e-06
4.53768e-08
3.61699e-06
4.59359e-08
3.59429e-06
4.64331e-08
3.57135e-06
4.68728e-08
3.5482e-06
4.72591e-08
3.52487e-06
4.75961e-08
3.50137e-06
4.78876e-08
3.47773e-06
4.81372e-08
3.45397e-06
4.83484e-08
3.4301e-06
4.85245e-08
3.40614e-06
4.86686e-08
3.3821e-06
4.87836e-08
3.35801e-06
4.88724e-08
3.33386e-06
4.89377e-08
3.30967e-06
4.89819e-08
3.28546e-06
4.90075e-08
3.26122e-06
4.90168e-08
3.23697e-06
4.9012e-08
3.21272e-06
4.8995e-08
3.18846e-06
4.89679e-08
3.1642e-06
4.89324e-08
3.13995e-06
4.88904e-08
3.1157e-06
4.88435e-08
3.09147e-06
4.87933e-08
3.06725e-06
4.87413e-08
3.04304e-06
4.8689e-08
3.01884e-06
4.86377e-08
2.99466e-06
4.85887e-08
2.97048e-06
4.85432e-08
2.94631e-06
4.85026e-08
2.92215e-06
4.84678e-08
2.89799e-06
4.84399e-08
2.87383e-06
4.842e-08
2.84966e-06
4.84091e-08
2.82548e-06
4.84081e-08
2.80129e-06
4.8418e-08
2.77707e-06
4.84396e-08
2.75283e-06
4.84739e-08
2.72855e-06
4.85217e-08
2.70423e-06
4.85839e-08
2.67987e-06
4.86612e-08
2.65545e-06
4.87547e-08
2.63096e-06
4.8865e-08
2.6064e-06
4.8993e-08
2.58176e-06
4.91394e-08
2.55703e-06
4.93052e-08
2.5322e-06
4.94911e-08
2.50726e-06
4.96977e-08
2.4822e-06
4.9926e-08
2.457e-06
5.01766e-08
2.43167e-06
5.04503e-08
2.40617e-06
5.07478e-08
2.38052e-06
5.10698e-08
2.35468e-06
5.1417e-08
2.32865e-06
5.179e-08
2.30242e-06
5.21896e-08
2.27597e-06
5.26164e-08
2.24929e-06
5.30711e-08
2.22236e-06
5.35542e-08
2.19518e-06
5.40663e-08
2.16772e-06
5.46082e-08
2.13998e-06
5.51803e-08
2.11193e-06
5.57831e-08
2.08357e-06
5.64173e-08
2.05487e-06
5.70832e-08
2.02583e-06
5.77812e-08
1.99642e-06
5.85117e-08
1.96663e-06
5.92751e-08
1.93645e-06
6.00716e-08
1.90586e-06
6.09013e-08
1.87484e-06
6.17644e-08
1.84338e-06
6.26608e-08
1.81146e-06
6.35906e-08
1.77906e-06
6.45536e-08
1.74618e-06
6.55495e-08
1.71279e-06
6.65779e-08
1.67889e-06
6.76382e-08
1.64445e-06
6.873e-08
1.60947e-06
6.98522e-08
1.57392e-06
7.1004e-08
1.53781e-06
7.21841e-08
1.5011e-06
7.33913e-08
1.46381e-06
7.46239e-08
1.4259e-06
7.588e-08
1.38738e-06
7.71577e-08
1.34824e-06
7.84544e-08
1.30847e-06
7.97674e-08
1.26807e-06
8.10936e-08
1.22703e-06
8.24295e-08
1.18536e-06
8.37713e-08
1.14305e-06
8.51144e-08
1.10012e-06
8.6454e-08
1.05655e-06
8.77843e-08
1.01238e-06
8.90992e-08
9.67607e-07
9.03917e-08
9.22254e-07
9.1654e-08
8.76341e-07
9.28771e-08
8.29896e-07
9.40512e-08
7.82953e-07
9.51652e-08
7.35548e-07
9.62065e-08
6.87729e-07
9.71608e-08
6.39548e-07
9.80122e-08
5.91068e-07
9.87425e-08
5.42361e-07
9.93308e-08
4.93509e-07
9.97535e-08
4.44609e-07
9.99835e-08
3.95771e-07
9.99896e-08
3.47122e-07
9.97357e-08
2.98809e-07
9.91802e-08
2.50998e-07
9.82739e-08
2.03883e-07
9.69591e-08
1.57688e-07
9.51657e-08
1.12668e-07
9.2812e-08
6.91108e-08
8.97824e-08
2.73442e-08
8.59718e-08
-1.22459e-08
8.12735e-08
-4.92054e-08
7.55328e-08
-8.30277e-08
6.85774e-08
-1.13154e-07
6.02014e-08
-1.38952e-07
5.01647e-08
-1.59729e-07
3.81856e-08
-1.74745e-07
2.39685e-08
-1.83248e-07
7.23359e-09
-1.84518e-07
-1.21807e-08
-1.77986e-07
-3.41834e-08
-1.63391e-07
-5.8141e-08
-1.40826e-07
-8.21278e-08
-1.09898e-07
-1.01889e-07
-6.54301e-08
-1.05881e-07
-7.94105e-08
-3.40064e-08
-1.77936e-12
5.30722e-07
2.59065e-08
5.10558e-13
1.71833e-07
1.21583e-07
3.52699e-13
-6.7081e-08
2.34478e-07
2.74395e-13
-2.40557e-07
3.61628e-07
2.27901e-13
-3.67213e-07
5.01475e-07
1.9673e-13
-4.56724e-07
6.51822e-07
1.76739e-13
-5.17088e-07
8.10093e-07
1.61871e-13
-5.54937e-07
9.73764e-07
1.51806e-13
-5.75598e-07
1.14031e-06
1.45502e-13
-5.83423e-07
1.30745e-06
1.39687e-13
-5.81741e-07
1.4733e-06
1.33875e-13
-5.73042e-07
1.63635e-06
1.27092e-13
-5.59201e-07
1.7954e-06
1.18582e-13
-5.41633e-07
1.94953e-06
1.08836e-13
-5.21414e-07
2.09806e-06
9.82261e-14
-4.9937e-07
2.2405e-06
8.71377e-14
-4.76135e-07
2.37651e-06
7.7496e-14
-4.52206e-07
2.50587e-06
7.09282e-14
-4.27967e-07
2.62848e-06
6.73581e-14
-4.03719e-07
2.74431e-06
6.62304e-14
-3.79697e-07
2.85339e-06
6.74863e-14
-3.56081e-07
2.95582e-06
7.06712e-14
-3.33013e-07
3.05173e-06
7.45361e-14
-3.10598e-07
3.14127e-06
7.77626e-14
-2.88915e-07
3.22464e-06
7.95597e-14
-2.68018e-07
3.30205e-06
7.96672e-14
-2.47945e-07
3.37371e-06
7.7981e-14
-2.28719e-07
3.43984e-06
7.46121e-14
-2.1035e-07
3.50069e-06
7.01382e-14
-1.92837e-07
3.55647e-06
6.53625e-14
-1.76173e-07
3.60743e-06
6.1043e-14
-1.60344e-07
3.6538e-06
5.7825e-14
-1.4533e-07
3.6958e-06
5.60226e-14
-1.3111e-07
3.73364e-06
5.57762e-14
-1.17656e-07
3.76756e-06
5.69124e-14
-1.04942e-07
3.79774e-06
5.89437e-14
-9.29376e-08
3.8244e-06
6.12023e-14
-8.16141e-08
3.84772e-06
6.31434e-14
-7.0941e-08
3.86789e-06
6.4408e-14
-6.08886e-08
3.88509e-06
6.48885e-14
-5.14271e-08
3.89948e-06
6.46022e-14
-4.25277e-08
3.91122e-06
6.36117e-14
-3.41623e-08
3.92048e-06
6.21059e-14
-2.63037e-08
3.92739e-06
6.02966e-14
-1.89257e-08
3.93209e-06
5.84508e-14
-1.20031e-08
3.93472e-06
5.67993e-14
-5.51188e-09
3.9354e-06
5.54601e-14
5.70585e-10
3.93425e-06
5.45129e-14
6.26565e-09
3.93138e-06
5.4081e-14
1.1594e-08
3.9269e-06
5.41573e-14
1.65758e-08
3.92092e-06
5.46985e-14
2.12296e-08
3.91352e-06
5.55884e-14
2.55733e-08
3.90481e-06
5.66465e-14
2.96236e-08
3.89486e-06
5.76162e-14
3.33966e-08
3.88377e-06
5.83361e-14
3.69073e-08
3.8716e-06
5.87212e-14
4.01702e-08
3.85843e-06
5.88201e-14
4.31988e-08
3.84433e-06
5.87836e-14
4.60061e-08
3.82937e-06
5.88079e-14
4.86046e-08
3.81361e-06
5.90594e-14
5.10059e-08
3.79711e-06
5.95781e-14
5.32213e-08
3.77992e-06
6.03708e-14
5.52615e-08
3.7621e-06
6.13926e-14
5.71366e-08
3.74369e-06
6.2652e-14
5.88566e-08
3.72475e-06
6.4175e-14
6.04305e-08
3.70531e-06
6.60971e-14
6.18674e-08
3.68542e-06
6.8517e-14
6.31756e-08
3.66511e-06
7.15181e-14
6.43634e-08
3.64443e-06
7.51141e-14
6.54383e-08
3.6234e-06
7.92046e-14
6.64079e-08
3.60206e-06
8.35396e-14
6.72792e-08
3.58044e-06
8.78556e-14
6.80589e-08
3.55856e-06
9.18472e-14
6.87534e-08
3.53646e-06
9.52559e-14
6.93689e-08
3.51415e-06
9.79291e-14
6.99111e-08
3.49165e-06
9.9846e-14
7.03858e-08
3.469e-06
1.00965e-13
7.07981e-08
3.4462e-06
1.014e-13
7.11531e-08
3.42327e-06
1.01248e-13
7.14557e-08
3.40023e-06
1.00545e-13
7.17105e-08
3.37709e-06
9.93706e-14
7.19217e-08
3.35388e-06
9.76861e-14
7.20935e-08
3.33059e-06
9.54292e-14
7.22299e-08
3.30724e-06
9.25288e-14
7.23345e-08
3.28384e-06
8.88668e-14
7.2411e-08
3.26039e-06
8.4379e-14
7.24627e-08
3.23691e-06
7.90395e-14
7.24927e-08
3.21341e-06
7.2883e-14
7.25042e-08
3.18988e-06
6.60395e-14
7.24999e-08
3.16633e-06
5.87103e-14
7.24827e-08
3.14277e-06
5.11382e-14
7.2455e-08
3.11919e-06
4.36546e-14
7.24195e-08
3.09561e-06
3.65734e-14
7.23784e-08
3.07202e-06
3.02521e-14
7.2334e-08
3.04842e-06
2.49334e-14
7.22884e-08
3.02481e-06
2.08238e-14
7.22436e-08
3.0012e-06
1.8017e-14
7.22016e-08
2.97758e-06
1.65148e-14
7.21642e-08
2.95395e-06
1.61834e-14
7.21332e-08
2.93031e-06
1.68565e-14
7.21103e-08
2.90666e-06
1.81957e-14
7.2097e-08
2.88298e-06
1.99512e-14
7.2095e-08
2.85929e-06
2.17501e-14
7.21057e-08
2.83557e-06
2.33408e-14
7.21305e-08
2.81182e-06
2.44493e-14
7.21708e-08
2.78803e-06
2.4935e-14
7.22281e-08
2.7642e-06
2.47286e-14
7.23036e-08
2.74032e-06
2.38768e-14
7.23986e-08
2.71639e-06
2.2522e-14
7.25145e-08
2.69241e-06
2.09052e-14
7.26524e-08
2.66835e-06
1.92867e-14
7.28135e-08
2.64422e-06
1.79614e-14
7.29992e-08
2.62e-06
1.71669e-14
7.32106e-08
2.59569e-06
1.71305e-14
7.34489e-08
2.57128e-06
1.79701e-14
7.37152e-08
2.54677e-06
1.97256e-14
7.40107e-08
2.52213e-06
2.23051e-14
7.43365e-08
2.49736e-06
2.5556e-14
7.46937e-08
2.47246e-06
2.92284e-14
7.50835e-08
2.4474e-06
3.30691e-14
7.55068e-08
2.42219e-06
3.67623e-14
7.59648e-08
2.3968e-06
4.0086e-14
7.64585e-08
2.37123e-06
4.28963e-14
7.69888e-08
2.34547e-06
4.51792e-14
7.75567e-08
2.31949e-06
4.70041e-14
7.81633e-08
2.2933e-06
4.85289e-14
7.88094e-08
2.26688e-06
4.99358e-14
7.94961e-08
2.24021e-06
5.13929e-14
8.0224e-08
2.21329e-06
5.29212e-14
8.09942e-08
2.18609e-06
5.44443e-14
8.18074e-08
2.15861e-06
5.58269e-14
8.26644e-08
2.13083e-06
5.67324e-14
8.3566e-08
2.10273e-06
5.68608e-14
8.45127e-08
2.07431e-06
5.60264e-14
8.55052e-08
2.04555e-06
5.4139e-14
8.6544e-08
2.01643e-06
5.14033e-14
8.76296e-08
1.98695e-06
4.82548e-14
8.87624e-08
1.95708e-06
4.53127e-14
8.99425e-08
1.92681e-06
4.32553e-14
9.11702e-08
1.89613e-06
4.25979e-14
9.24455e-08
1.86503e-06
4.34999e-14
9.37683e-08