/*--------------------------------*- C++ -*----------------------------------*\
  =========                 |
  \\      /  F ield         | OpenFOAM: The Open Source CFD Toolbox
   \\    /   O peration     | Website:  https://openfoam.org
    \\  /    A nd           | Version:  8
     \\/     M anipulation  |
\*---------------------------------------------------------------------------*/
FoamFile
{
    version     2.0;
    format      ascii;
    class       volScalarField;
    location    "4100";
    object      alphat;
}
// * * * * * * * * * * * * * * * * * * * * * * * * * * * * * * * * * * * * * //

dimensions      [1 -1 -1 0 0 0 0];

internalField   nonuniform List<scalar> 
48000
(
5.3241e-05
9.25458e-05
0.000114594
0.000130815
0.00014437
0.000155821
0.000165764
0.000174587
0.000182663
0.000190163
0.000197105
0.000203598
0.000209699
0.000215455
0.0002209
0.000226066
0.000230974
0.000235644
0.000240091
0.000244329
0.000248368
0.000252218
0.000255887
0.000259382
0.00026271
0.000265875
0.000268884
0.000271742
0.000274452
0.00027702
0.00027945
0.000281745
0.00028391
0.000285948
0.000287864
0.000289661
0.000291343
0.000292913
0.000294375
0.000295733
0.00029699
0.000298149
0.000299214
0.000300188
0.000301086
0.000301911
0.000302656
0.000303322
0.000303913
0.000304433
0.000304884
0.000305269
0.000305593
0.000305857
0.000306064
0.000306218
0.000306321
0.000306375
0.000306383
0.000306348
0.000306271
0.000306155
0.000306002
0.000305814
0.000305592
0.000305339
0.000305056
0.000304745
0.000304408
0.000304045
0.000303658
0.000303249
0.000302818
0.000302367
0.000301897
0.000301409
0.000300903
0.000300381
0.000299843
0.000299291
0.000298724
0.000298143
0.00029755
0.000296944
0.000296325
0.000295695
0.000295053
0.000294401
0.000293737
0.000293063
0.000292379
0.000291685
0.00029098
0.000290265
0.000289541
0.000288806
0.000288062
0.000287308
0.000286544
0.00028577
0.000284986
0.000284191
0.000283387
0.000282571
0.000281746
0.000280909
0.000280061
0.000279202
0.000278331
0.000277449
0.000276555
0.000275648
0.000274728
0.000273796
0.000272851
0.000271892
0.000270919
0.000269932
0.000268931
0.000267914
0.000266883
0.000265836
0.000264773
0.000263693
0.000262597
0.000261484
0.000260354
0.000259205
0.000258039
0.000256854
0.00025565
0.000254427
0.000253184
0.000251921
0.000250638
0.000249333
0.000248008
0.000246661
0.000245292
0.000243901
0.000242487
0.00024105
0.000239589
0.000238105
0.000236597
0.000235064
0.000233506
0.000231922
0.000230313
0.000228678
0.000227017
0.000225329
0.000223613
0.00022187
0.000220099
0.000218299
0.00021647
0.000214612
0.000212724
0.000210805
0.000208856
0.000206874
0.00020486
0.000202813
0.000200732
0.000198617
0.000196465
0.000194277
0.000192051
0.000189786
0.00018748
0.000185132
0.000182739
0.0001803
0.000177813
0.000175274
0.000172682
0.000170031
0.00016732
0.000164545
0.000161705
0.000158811
0.000155838
0.000152767
0.000149588
0.000146288
0.000142848
0.000139249
0.000135463
0.000131457
0.000127185
0.000122605
0.000117667
0.000112228
0.000106121
9.90712e-05
9.0586e-05
7.95008e-05
6.07722e-05
7.79761e-05
5.32414e-05
9.25461e-05
0.000114595
0.000130815
0.000144371
0.000155821
0.000165764
0.000174587
0.000182663
0.000190163
0.000197105
0.000203598
0.0002097
0.000215455
0.0002209
0.000226066
0.000230974
0.000235644
0.000240091
0.000244329
0.000248368
0.000252218
0.000255887
0.000259382
0.00026271
0.000265875
0.000268884
0.000271742
0.000274453
0.00027702
0.00027945
0.000281745
0.00028391
0.000285948
0.000287864
0.000289661
0.000291343
0.000292913
0.000294375
0.000295733
0.00029699
0.000298149
0.000299214
0.000300188
0.000301086
0.000301911
0.000302656
0.000303322
0.000303913
0.000304433
0.000304884
0.000305269
0.000305593
0.000305857
0.000306064
0.000306218
0.000306321
0.000306375
0.000306383
0.000306348
0.000306271
0.000306155
0.000306002
0.000305814
0.000305592
0.000305339
0.000305056
0.000304745
0.000304408
0.000304045
0.000303658
0.000303249
0.000302818
0.000302367
0.000301897
0.000301409
0.000300903
0.000300381
0.000299843
0.000299291
0.000298724
0.000298143
0.00029755
0.000296944
0.000296325
0.000295695
0.000295053
0.000294401
0.000293737
0.000293063
0.000292379
0.000291685
0.00029098
0.000290265
0.000289541
0.000288806
0.000288062
0.000287308
0.000286544
0.00028577
0.000284986
0.000284191
0.000283387
0.000282571
0.000281746
0.000280909
0.000280061
0.000279202
0.000278331
0.000277449
0.000276555
0.000275648
0.000274728
0.000273796
0.000272851
0.000271892
0.000270919
0.000269932
0.000268931
0.000267914
0.000266883
0.000265836
0.000264773
0.000263693
0.000262597
0.000261484
0.000260354
0.000259205
0.000258039
0.000256854
0.00025565
0.000254427
0.000253184
0.000251921
0.000250638
0.000249333
0.000248008
0.000246661
0.000245292
0.000243901
0.000242487
0.00024105
0.000239589
0.000238105
0.000236597
0.000235063
0.000233506
0.000231922
0.000230313
0.000228678
0.000227017
0.000225329
0.000223613
0.00022187
0.000220099
0.000218299
0.00021647
0.000214612
0.000212724
0.000210805
0.000208856
0.000206874
0.00020486
0.000202813
0.000200732
0.000198617
0.000196465
0.000194277
0.000192051
0.000189786
0.00018748
0.000185132
0.000182739
0.0001803
0.000177813
0.000175274
0.000172682
0.000170031
0.00016732
0.000164545
0.000161705
0.000158811
0.000155838
0.000152767
0.000149589
0.000146288
0.000142848
0.000139249
0.000135463
0.000131457
0.000127185
0.000122605
0.000117667
0.000112228
0.000106121
9.90713e-05
9.0586e-05
7.94999e-05
6.07707e-05
7.79679e-05
8.05183e-05
0.000596997
0.000945323
0.00118892
0.0013715
0.00151986
0.00164702
0.00175885
0.00185861
0.00194865
0.00203105
0.00210701
0.00217746
0.00224313
0.00230457
0.00236223
0.00241647
0.0024676
0.00251586
0.00256149
0.00260464
0.0026455
0.0026842
0.00272086
0.00275559
0.0027885
0.00281967
0.00284918
0.00287712
0.00290355
0.00292853
0.00295212
0.00297439
0.00299539
0.00301516
0.00303375
0.00305122
0.0030676
0.00308293
0.00309726
0.00311061
0.00312303
0.00313452
0.00314508
0.00315454
0.00316305
0.00317076
0.00317775
0.00318408
0.00318978
0.00319489
0.00319943
0.00320342
0.0032069
0.00320989
0.0032124
0.00321446
0.00321608
0.00321729
0.00321811
0.00321855
0.00321862
0.00321835
0.00321775
0.00321683
0.00321561
0.0032141
0.00321232
0.00321027
0.00320796
0.00320541
0.00320263
0.00319963
0.00319642
0.003193
0.00318938
0.00318557
0.00318158
0.00317741
0.00317307
0.00316857
0.0031639
0.00315908
0.00315412
0.003149
0.00314374
0.00313834
0.0031328
0.00312713
0.00312132
0.00311538
0.00310932
0.00310312
0.00309679
0.00309034
0.00308376
0.00307705
0.00307021
0.00306325
0.00305615
0.00304893
0.00304157
0.00303408
0.00302646
0.0030187
0.00301081
0.00300277
0.0029946
0.00298628
0.00297781
0.00296919
0.00296043
0.0029515
0.00294242
0.00293318
0.00292378
0.0029142
0.00290446
0.00289455
0.00288445
0.00287418
0.00286372
0.00285308
0.00284224
0.00283121
0.00281998
0.00280855
0.00279691
0.00278507
0.002773
0.00276073
0.00274823
0.0027355
0.00272255
0.00270936
0.00269594
0.00268227
0.00266836
0.0026542
0.00263979
0.00262513
0.0026102
0.00259501
0.00257955
0.00256382
0.00254782
0.00253153
0.00251496
0.0024981
0.00248094
0.00246349
0.00244574
0.00242768
0.0024093
0.00239061
0.0023716
0.00235225
0.00233258
0.00231256
0.00229219
0.00227146
0.00225037
0.00222891
0.00220707
0.00218483
0.00216218
0.00213912
0.00211563
0.00209169
0.00206728
0.00204239
0.00201699
0.00199106
0.00196458
0.00193749
0.00190978
0.0018814
0.00185229
0.00182238
0.00179158
0.00175976
0.00172675
0.00169252
0.00165702
0.00162014
0.00158168
0.00154143
0.0014991
0.00145429
0.00140646
0.0013548
0.00129783
0.00123407
0.00116206
0.00107879
0.000979165
0.000853935
0.000684101
0.000426134
5.41029e-05
8.05187e-05
0.000597004
0.000945333
0.00118893
0.00137152
0.00151987
0.00164703
0.00175886
0.00185862
0.00194866
0.00203106
0.00210702
0.00217747
0.00224314
0.00230458
0.00236224
0.00241648
0.00246761
0.00251587
0.00256149
0.00260465
0.00264551
0.00268421
0.00272087
0.0027556
0.00278851
0.00281968
0.00284919
0.00287713
0.00290355
0.00292853
0.00295213
0.0029744
0.00299539
0.00301516
0.00303376
0.00305122
0.0030676
0.00308294
0.00309726
0.00311062
0.00312304
0.00313453
0.00314509
0.00315455
0.00316305
0.00317076
0.00317776
0.00318408
0.00318979
0.00319489
0.00319943
0.00320343
0.00320691
0.00320989
0.0032124
0.00321446
0.00321609
0.0032173
0.00321811
0.00321855
0.00321863
0.00321836
0.00321775
0.00321684
0.00321562
0.00321411
0.00321232
0.00321027
0.00320797
0.00320542
0.00320264
0.00319964
0.00319642
0.003193
0.00318938
0.00318557
0.00318158
0.00317741
0.00317307
0.00316857
0.00316391
0.00315909
0.00315412
0.003149
0.00314374
0.00313834
0.00313281
0.00312713
0.00312133
0.00311539
0.00310932
0.00310312
0.0030968
0.00309034
0.00308376
0.00307705
0.00307022
0.00306325
0.00305616
0.00304893
0.00304158
0.00303409
0.00302647
0.00301871
0.00301081
0.00300278
0.0029946
0.00298628
0.00297781
0.0029692
0.00296043
0.00295151
0.00294243
0.00293318
0.00292378
0.00291421
0.00290447
0.00289455
0.00288446
0.00287418
0.00286373
0.00285308
0.00284225
0.00283122
0.00281999
0.00280855
0.00279692
0.00278507
0.00277301
0.00276073
0.00274823
0.0027355
0.00272255
0.00270936
0.00269594
0.00268227
0.00266837
0.00265421
0.0026398
0.00262513
0.00261021
0.00259502
0.00257956
0.00256383
0.00254782
0.00253153
0.00251496
0.0024981
0.00248095
0.0024635
0.00244574
0.00242768
0.00240931
0.00239062
0.0023716
0.00235226
0.00233258
0.00231256
0.00229219
0.00227147
0.00225038
0.00222891
0.00220707
0.00218483
0.00216219
0.00213912
0.00211563
0.00209169
0.00206728
0.00204239
0.002017
0.00199107
0.00196458
0.0019375
0.00190979
0.0018814
0.00185229
0.00182238
0.00179158
0.00175976
0.00172675
0.00169252
0.00165703
0.00162014
0.00158168
0.00154143
0.0014991
0.00145429
0.00140646
0.0013548
0.00129784
0.00123408
0.00116206
0.00107879
0.000979168
0.000853944
0.00068412
0.000426129
5.41024e-05
9.90432e-05
0.000905789
0.00161132
0.00214006
0.00255571
0.00289975
0.00319475
0.00345388
0.00368508
0.00389372
0.00408378
0.00425814
0.00441896
0.00456796
0.00470648
0.00483564
0.00495635
0.00506939
0.00517542
0.005275
0.00536864
0.00545677
0.0055398
0.00561805
0.00569186
0.00576149
0.00582721
0.00588926
0.00594783
0.00600314
0.00605535
0.00610464
0.00615116
0.00619505
0.00623644
0.00627546
0.00631222
0.00634682
0.00637936
0.00640993
0.00643861
0.00646547
0.00649055
0.00651386
0.00653536
0.00655517
0.00657346
0.00659035
0.00660595
0.00662033
0.00663355
0.00664568
0.00665676
0.00666683
0.00667595
0.00668415
0.00669148
0.00669796
0.00670363
0.00670852
0.00671267
0.0067161
0.00671884
0.00672092
0.00672237
0.0067232
0.00672344
0.00672311
0.00672224
0.00672084
0.00671893
0.00671653
0.00671366
0.00671033
0.00670655
0.00670235
0.00669772
0.0066927
0.00668728
0.00668147
0.0066753
0.00666876
0.00666186
0.00665462
0.00664704
0.00663912
0.00663087
0.00662229
0.00661339
0.00660418
0.00659465
0.00658481
0.00657466
0.0065642
0.00655343
0.00654235
0.00653096
0.00651926
0.00650725
0.00649493
0.0064823
0.00646935
0.00645607
0.00644248
0.00642856
0.00641431
0.00639972
0.0063848
0.00636953
0.00635391
0.00633794
0.00632161
0.00630491
0.00628785
0.0062704
0.00625257
0.00623435
0.00621573
0.00619671
0.00617728
0.00615742
0.00613714
0.00611643
0.00609527
0.00607367
0.0060516
0.00602908
0.00600607
0.00598259
0.00595861
0.00593413
0.00590915
0.00588365
0.00585763
0.00583107
0.00580397
0.00577631
0.0057481
0.00571931
0.00568994
0.00565999
0.00562943
0.00559827
0.00556648
0.00553406
0.00550101
0.0054673
0.00543293
0.00539788
0.00536214
0.00532571
0.00528856
0.00525069
0.00521207
0.0051727
0.00513255
0.00509162
0.00504987
0.0050073
0.00496389
0.0049196
0.00487441
0.00482831
0.00478126
0.00473323
0.00468418
0.00463408
0.0045829
0.00453057
0.00447706
0.00442231
0.00436624
0.0043088
0.0042499
0.00418945
0.00412735
0.00406346
0.00399764
0.00392971
0.00385946
0.00378662
0.00371091
0.00363206
0.00354979
0.00346364
0.00337307
0.00327741
0.00317579
0.00306708
0.00294976
0.00282174
0.00268008
0.00252079
0.00233943
0.00212864
0.00187712
0.00156689
0.00116875
0.000640317
7.00182e-05
9.90434e-05
0.000905797
0.00161134
0.00214008
0.00255573
0.00289977
0.00319477
0.00345391
0.0036851
0.00389374
0.0040838
0.00425815
0.00441898
0.00456798
0.0047065
0.00483566
0.00495637
0.00506941
0.00517543
0.00527501
0.00536865
0.00545679
0.00553981
0.00561806
0.00569187
0.0057615
0.00582722
0.00588927
0.00594784
0.00600315
0.00605536
0.00610465
0.00615117
0.00619506
0.00623645
0.00627547
0.00631223
0.00634683
0.00637937
0.00640994
0.00643862
0.00646548
0.00649056
0.00651387
0.00653536
0.00655517
0.00657346
0.00659036
0.00660596
0.00662033
0.00663356
0.00664568
0.00665676
0.00666684
0.00667596
0.00668416
0.00669148
0.00669796
0.00670363
0.00670852
0.00671267
0.0067161
0.00671884
0.00672093
0.00672237
0.0067232
0.00672344
0.00672312
0.00672224
0.00672084
0.00671894
0.00671654
0.00671366
0.00671033
0.00670655
0.00670235
0.00669773
0.0066927
0.00668728
0.00668148
0.0066753
0.00666876
0.00666187
0.00665462
0.00664704
0.00663912
0.00663087
0.00662229
0.0066134
0.00660418
0.00659465
0.00658481
0.00657466
0.0065642
0.00655343
0.00654235
0.00653096
0.00651926
0.00650726
0.00649493
0.0064823
0.00646935
0.00645608
0.00644248
0.00642856
0.00641431
0.00639972
0.0063848
0.00636953
0.00635391
0.00633794
0.00632161
0.00630492
0.00628785
0.0062704
0.00625257
0.00623435
0.00621574
0.00619671
0.00617728
0.00615742
0.00613714
0.00611643
0.00609527
0.00607367
0.00605161
0.00602908
0.00600607
0.00598259
0.00595861
0.00593414
0.00590915
0.00588365
0.00585763
0.00583107
0.00580397
0.00577631
0.0057481
0.00571931
0.00568994
0.00565999
0.00562943
0.00559827
0.00556648
0.00553406
0.00550101
0.0054673
0.00543293
0.00539788
0.00536214
0.00532571
0.00528856
0.00525069
0.00521207
0.0051727
0.00513255
0.00509162
0.00504987
0.0050073
0.00496389
0.0049196
0.00487441
0.00482831
0.00478126
0.00473323
0.00468418
0.00463409
0.0045829
0.00453057
0.00447706
0.00442231
0.00436624
0.0043088
0.0042499
0.00418945
0.00412735
0.00406346
0.00399764
0.00392971
0.00385946
0.00378662
0.00371091
0.00363207
0.00354979
0.00346364
0.00337307
0.00327741
0.00317579
0.00306708
0.00294976
0.00282174
0.00268008
0.00252079
0.00233943
0.00212864
0.00187712
0.00156689
0.00116875
0.000640304
7.00179e-05
0.000112135
0.00109541
0.00206141
0.00282877
0.00345468
0.00398237
0.00443897
0.00484181
0.00520234
0.00552844
0.00582586
0.00609885
0.00635068
0.0065839
0.0068006
0.00700245
0.00719089
0.00736711
0.00753215
0.00768693
0.00783223
0.00796876
0.00809717
0.00821802
0.00833182
0.00843906
0.00854016
0.00863551
0.00872547
0.00881038
0.00889053
0.00896621
0.00903768
0.00910518
0.00916893
0.00922913
0.00928597
0.00933962
0.00939025
0.009438
0.00948299
0.00952535
0.00956516
0.0096025
0.0096374
0.00967001
0.00970049
0.00972897
0.00975559
0.00978044
0.00980363
0.00982524
0.00984534
0.009864
0.00988128
0.00989724
0.00991193
0.00992541
0.00993773
0.00994892
0.00995904
0.00996811
0.00997618
0.00998329
0.00998947
0.00999475
0.00999917
0.0100027
0.0100055
0.0100075
0.0100087
0.0100092
0.010009
0.010008
0.0100064
0.0100042
0.0100013
0.00999775
0.00999361
0.00998889
0.00998358
0.0099777
0.00997126
0.00996426
0.00995673
0.00994866
0.00994006
0.00993094
0.0099213
0.00991115
0.0099005
0.00988933
0.00987766
0.00986548
0.00985281
0.00983962
0.00982594
0.00981175
0.00979705
0.00978183
0.00976611
0.00974987
0.0097331
0.0097158
0.00969798
0.00967961
0.0096607
0.00964124
0.00962121
0.00960062
0.00957946
0.00955771
0.00953536
0.00951242
0.00948887
0.00946469
0.00943988
0.00941443
0.00938833
0.00936157
0.00933413
0.00930601
0.00927718
0.00924765
0.0092174
0.00918641
0.00915467
0.00912218
0.00908891
0.00905485
0.00901999
0.00898432
0.00894782
0.00891048
0.00887228
0.00883321
0.00879325
0.00875239
0.00871061
0.0086679
0.00862423
0.0085796
0.00853398
0.00848735
0.00843971
0.00839102
0.00834127
0.00829044
0.00823851
0.00818545
0.00813124
0.00807586
0.00801928
0.00796147
0.00790242
0.00784207
0.00778041
0.00771741
0.00765301
0.00758719
0.00751991
0.00745111
0.00738075
0.00730877
0.00723513
0.00715975
0.00708256
0.0070035
0.00692247
0.00683939
0.00675414
0.00666662
0.00657669
0.00648421
0.006389
0.00629087
0.0061896
0.00608492
0.00597654
0.00586409
0.00574715
0.00562526
0.00549787
0.00536435
0.00522393
0.00507561
0.00491818
0.00475009
0.00456938
0.00437355
0.00415929
0.00392223
0.00365658
0.00335507
0.00300756
0.00259954
0.0021105
0.00151259
0.000780443
7.9877e-05
0.000112136
0.00109542
0.00206143
0.00282879
0.00345471
0.0039824
0.004439
0.00484184
0.00520237
0.00552847
0.00582589
0.00609888
0.0063507
0.00658393
0.00680062
0.00700248
0.00719091
0.00736713
0.00753218
0.00768695
0.00783225
0.00796878
0.00809719
0.00821803
0.00833184
0.00843908
0.00854017
0.00863552
0.00872548
0.00881039
0.00889054
0.00896622
0.00903769
0.00910519
0.00916894
0.00922914
0.00928598
0.00933963
0.00939026
0.009438
0.009483
0.00952536
0.00956517
0.0096025
0.00963741
0.00967002
0.00970049
0.00972898
0.00975559
0.00978045
0.00980364
0.00982524
0.00984534
0.009864
0.00988128
0.00989724
0.00991193
0.00992542
0.00993773
0.00994892
0.00995904
0.00996811
0.00997619
0.0099833
0.00998947
0.00999476
0.00999917
0.0100027
0.0100055
0.0100075
0.0100087
0.0100092
0.010009
0.010008
0.0100064
0.0100042
0.0100013
0.00999775
0.00999361
0.00998889
0.00998358
0.0099777
0.00997126
0.00996426
0.00995673
0.00994866
0.00994006
0.00993094
0.0099213
0.00991115
0.00990049
0.00988933
0.00987766
0.00986548
0.00985281
0.00983962
0.00982594
0.00981175
0.00979704
0.00978183
0.00976611
0.00974986
0.0097331
0.0097158
0.00969798
0.00967961
0.0096607
0.00964123
0.00962121
0.00960062
0.00957945
0.0095577
0.00953536
0.00951242
0.00948886
0.00946469
0.00943988
0.00941443
0.00938833
0.00936157
0.00933413
0.009306
0.00927718
0.00924765
0.00921739
0.00918641
0.00915467
0.00912217
0.0090889
0.00905485
0.00901999
0.00898432
0.00894782
0.00891048
0.00887228
0.00883321
0.00879325
0.00875239
0.00871061
0.0086679
0.00862423
0.0085796
0.00853398
0.00848735
0.00843971
0.00839102
0.00834127
0.00829044
0.0082385
0.00818544
0.00813124
0.00807586
0.00801928
0.00796147
0.00790241
0.00784207
0.00778041
0.0077174
0.00765301
0.00758719
0.0075199
0.0074511
0.00738074
0.00730877
0.00723512
0.00715974
0.00708256
0.0070035
0.00692247
0.00683938
0.00675414
0.00666662
0.00657669
0.0064842
0.00638899
0.00629087
0.0061896
0.00608492
0.00597654
0.00586409
0.00574715
0.00562525
0.00549786
0.00536435
0.00522392
0.0050756
0.00491817
0.00475008
0.00456937
0.00437355
0.00415929
0.00392223
0.00365658
0.00335507
0.00300756
0.00259954
0.0021105
0.00151259
0.000780437
7.98769e-05
0.00012277
0.00122427
0.00238343
0.00334363
0.00414638
0.00483303
0.00543247
0.00596441
0.0064425
0.00687642
0.00727327
0.00763838
0.00797587
0.00828899
0.00858034
0.00885211
0.00910609
0.00934382
0.00956665
0.00977575
0.00997214
0.0101568
0.0103304
0.010494
0.010648
0.0107931
0.01093
0.0110591
0.011181
0.0112961
0.0114048
0.0115075
0.0116046
0.0116964
0.0117832
0.0118653
0.011943
0.0120165
0.0120859
0.0121517
0.0122138
0.0122725
0.0123279
0.0123802
0.0124294
0.0124758
0.0125194
0.0125605
0.0125992
0.0126356
0.0126699
0.0127022
0.0127324
0.0127609
0.0127875
0.0128125
0.0128358
0.0128576
0.0128779
0.0128967
0.0129141
0.0129302
0.012945
0.0129586
0.0129709
0.0129821
0.0129922
0.0130012
0.0130091
0.013016
0.0130219
0.0130268
0.0130308
0.0130339
0.0130361
0.0130374
0.0130379
0.0130375
0.0130363
0.0130343
0.0130316
0.013028
0.0130237
0.0130187
0.0130129
0.0130064
0.0129992
0.0129913
0.0129826
0.0129732
0.0129632
0.0129524
0.012941
0.0129288
0.012916
0.0129024
0.0128882
0.0128732
0.0128575
0.0128412
0.0128241
0.0128063
0.0127878
0.0127685
0.0127485
0.0127277
0.0127062
0.0126839
0.0126609
0.012637
0.0126124
0.0125869
0.0125606
0.0125335
0.0125055
0.0124767
0.012447
0.0124164
0.0123849
0.0123525
0.0123192
0.0122849
0.0122496
0.0122134
0.0121762
0.0121379
0.0120986
0.0120583
0.0120169
0.0119744
0.0119308
0.0118861
0.0118402
0.0117931
0.0117449
0.0116955
0.0116448
0.0115929
0.0115396
0.0114851
0.0114293
0.0113721
0.0113136
0.0112536
0.0111922
0.0111294
0.011065
0.0109992
0.0109318
0.0108628
0.0107922
0.0107199
0.0106459
0.0105702
0.0104927
0.0104134
0.0103322
0.010249
0.0101639
0.0100768
0.00998751
0.00989607
0.00980237
0.00970634
0.00960789
0.00950692
0.00940333
0.00929701
0.00918781
0.00907562
0.00896025
0.00884155
0.00871932
0.00859332
0.00846331
0.008329
0.00819006
0.00804611
0.00789669
0.00774131
0.00757935
0.00741012
0.00723283
0.0070465
0.00684999
0.00664187
0.00642039
0.00618341
0.00592822
0.00565143
0.0053487
0.00501457
0.00464201
0.00422191
0.00374286
0.00318945
0.00254192
0.00177737
0.000886861
8.76523e-05
0.000122771
0.00122428
0.00238345
0.00334366
0.00414641
0.00483306
0.0054325
0.00596445
0.00644253
0.00687645
0.0072733
0.00763842
0.00797591
0.00828902
0.00858038
0.00885214
0.00910612
0.00934385
0.00956668
0.00977577
0.00997217
0.0101568
0.0103305
0.010494
0.010648
0.0107932
0.01093
0.0110592
0.011181
0.0112961
0.0114048
0.0115076
0.0116047
0.0116964
0.0117832
0.0118653
0.011943
0.0120165
0.012086
0.0121517
0.0122138
0.0122725
0.0123279
0.0123802
0.0124294
0.0124758
0.0125194
0.0125605
0.0125992
0.0126357
0.0126699
0.0127022
0.0127325
0.0127609
0.0127875
0.0128125
0.0128358
0.0128576
0.0128779
0.0128967
0.0129141
0.0129302
0.012945
0.0129586
0.0129709
0.0129821
0.0129922
0.0130012
0.0130091
0.013016
0.0130219
0.0130268
0.0130308
0.0130339
0.0130361
0.0130374
0.0130379
0.0130375
0.0130363
0.0130343
0.0130316
0.013028
0.0130237
0.0130187
0.0130129
0.0130064
0.0129992
0.0129913
0.0129826
0.0129732
0.0129632
0.0129524
0.012941
0.0129288
0.012916
0.0129024
0.0128882
0.0128732
0.0128575
0.0128412
0.0128241
0.0128063
0.0127878
0.0127685
0.0127485
0.0127277
0.0127062
0.0126839
0.0126609
0.012637
0.0126124
0.0125869
0.0125606
0.0125335
0.0125055
0.0124767
0.012447
0.0124164
0.0123849
0.0123525
0.0123192
0.0122849
0.0122496
0.0122134
0.0121762
0.0121379
0.0120986
0.0120583
0.0120169
0.0119744
0.0119308
0.011886
0.0118402
0.0117931
0.0117449
0.0116955
0.0116448
0.0115928
0.0115396
0.0114851
0.0114293
0.0113721
0.0113136
0.0112536
0.0111922
0.0111294
0.011065
0.0109992
0.0109318
0.0108628
0.0107921
0.0107199
0.0106459
0.0105702
0.0104927
0.0104134
0.0103322
0.010249
0.0101639
0.0100768
0.00998751
0.00989606
0.00980237
0.00970634
0.00960789
0.00950692
0.00940333
0.009297
0.00918781
0.00907561
0.00896025
0.00884155
0.00871931
0.00859332
0.00846331
0.008329
0.00819006
0.0080461
0.00789669
0.0077413
0.00757934
0.00741012
0.00723282
0.0070465
0.00684998
0.00664186
0.00642039
0.00618341
0.00592822
0.00565142
0.0053487
0.00501457
0.00464201
0.00422191
0.00374286
0.00318945
0.00254192
0.00177737
0.000886858
8.76523e-05
0.000131784
0.00132633
0.00263291
0.00374745
0.00469626
0.0055173
0.00623969
0.00688434
0.00746627
0.00799636
0.00848273
0.00893149
0.00934742
0.00973427
0.0100951
0.0104324
0.0107482
0.0110444
0.0113226
0.011584
0.0118299
0.0120615
0.0122795
0.0124851
0.0126789
0.0128618
0.0130345
0.0131975
0.0133515
0.0134971
0.0136347
0.013765
0.0138882
0.0140048
0.0141152
0.0142198
0.0143189
0.0144128
0.0145018
0.0145861
0.014666
0.0147417
0.0148135
0.0148814
0.0149456
0.0150064
0.0150639
0.0151184
0.0151699
0.0152186
0.0152647
0.0153083
0.0153496
0.0153886
0.0154254
0.0154601
0.0154929
0.0155238
0.0155528
0.0155801
0.0156057
0.0156297
0.0156521
0.015673
0.0156925
0.0157105
0.0157272
0.0157425
0.0157565
0.0157693
0.0157809
0.0157913
0.0158005
0.0158086
0.0158156
0.0158216
0.0158265
0.0158303
0.0158332
0.015835
0.0158359
0.0158359
0.0158348
0.0158329
0.01583
0.0158262
0.0158215
0.0158159
0.0158094
0.015802
0.0157938
0.0157846
0.0157746
0.0157636
0.0157518
0.0157391
0.0157255
0.015711
0.0156956
0.0156793
0.0156621
0.015644
0.015625
0.015605
0.015584
0.0155621
0.0155393
0.0155154
0.0154906
0.0154647
0.0154379
0.01541
0.015381
0.015351
0.0153199
0.0152877
0.0152544
0.01522
0.0151844
0.0151476
0.0151097
0.0150705
0.0150301
0.0149884
0.0149455
0.0149013
0.0148557
0.0148089
0.0147606
0.014711
0.0146599
0.0146074
0.0145534
0.014498
0.014441
0.0143824
0.0143223
0.0142606
0.0141972
0.0141322
0.0140655
0.013997
0.0139267
0.0138547
0.0137808
0.013705
0.0136272
0.0135476
0.0134659
0.0133821
0.0132962
0.0132082
0.013118
0.0130255
0.0129307
0.0128334
0.0127338
0.0126316
0.0125268
0.0124193
0.012309
0.0121959
0.0120798
0.0119606
0.0118382
0.0117125
0.0115833
0.0114505
0.0113138
0.0111732
0.0110284
0.0108791
0.0107252
0.0105662
0.0104019
0.0102318
0.0100555
0.0098726
0.0096824
0.00948425
0.00927737
0.00906085
0.00883363
0.00859442
0.00834173
0.00807372
0.00778819
0.00748243
0.00715314
0.00679622
0.00640662
0.00597804
0.00550259
0.0049704
0.00436949
0.0036849
0.00289884
0.00199383
0.000974189
9.42128e-05
0.000131784
0.00132633
0.00263293
0.00374748
0.00469629
0.00551733
0.00623973
0.00688438
0.00746631
0.0079964
0.00848277
0.00893153
0.00934746
0.00973431
0.0100951
0.0104324
0.0107483
0.0110445
0.0113226
0.0115841
0.01183
0.0120615
0.0122796
0.0124851
0.012679
0.0128618
0.0130345
0.0131975
0.0133515
0.0134971
0.0136348
0.013765
0.0138882
0.0140048
0.0141152
0.0142198
0.0143189
0.0144128
0.0145018
0.0145861
0.014666
0.0147418
0.0148135
0.0148814
0.0149456
0.0150064
0.015064
0.0151184
0.0151699
0.0152186
0.0152647
0.0153083
0.0153496
0.0153886
0.0154254
0.0154601
0.0154929
0.0155238
0.0155528
0.0155801
0.0156057
0.0156297
0.0156521
0.015673
0.0156925
0.0157105
0.0157272
0.0157425
0.0157565
0.0157693
0.0157809
0.0157913
0.0158005
0.0158086
0.0158156
0.0158216
0.0158265
0.0158303
0.0158332
0.015835
0.0158359
0.0158359
0.0158348
0.0158329
0.01583
0.0158262
0.0158215
0.0158159
0.0158094
0.015802
0.0157938
0.0157846
0.0157746
0.0157636
0.0157518
0.0157391
0.0157255
0.015711
0.0156956
0.0156793
0.0156621
0.015644
0.015625
0.015605
0.015584
0.0155621
0.0155393
0.0155154
0.0154906
0.0154647
0.0154379
0.01541
0.015381
0.015351
0.0153199
0.0152877
0.0152544
0.01522
0.0151844
0.0151476
0.0151097
0.0150705
0.0150301
0.0149884
0.0149455
0.0149013
0.0148557
0.0148089
0.0147606
0.014711
0.0146599
0.0146074
0.0145534
0.014498
0.014441
0.0143824
0.0143223
0.0142606
0.0141972
0.0141322
0.0140655
0.013997
0.0139267
0.0138547
0.0137808
0.013705
0.0136272
0.0135476
0.0134659
0.0133821
0.0132962
0.0132082
0.013118
0.0130255
0.0129306
0.0128334
0.0127338
0.0126316
0.0125267
0.0124193
0.012309
0.0121959
0.0120797
0.0119606
0.0118382
0.0117125
0.0115833
0.0114505
0.0113138
0.0111732
0.0110284
0.0108791
0.0107252
0.0105662
0.0104018
0.0102318
0.0100555
0.00987259
0.00968239
0.00948424
0.00927737
0.00906085
0.00883362
0.00859442
0.00834172
0.00807372
0.00778818
0.00748243
0.00715313
0.00679622
0.00640662
0.00597804
0.00550259
0.0049704
0.00436949
0.0036849
0.00289884
0.00199383
0.000974187
9.42128e-05
0.00013976
0.00141364
0.00283864
0.00407834
0.00514791
0.00608204
0.00690939
0.00765142
0.00832398
0.00893879
0.00950467
0.0100283
0.0105151
0.0109689
0.0113934
0.0117911
0.0121645
0.0125155
0.0128457
0.0131568
0.01345
0.0137266
0.0139875
0.0142339
0.0144667
0.0146866
0.0148945
0.0150911
0.0152771
0.0154532
0.0156199
0.0157777
0.0159273
0.0160691
0.0162035
0.0163309
0.0164519
0.0165667
0.0166756
0.0167791
0.0168773
0.0169705
0.0170591
0.0171431
0.0172229
0.0172986
0.0173705
0.0174388
0.0175036
0.0175652
0.0176237
0.0176792
0.0177319
0.017782
0.0178295
0.0178746
0.0179174
0.0179579
0.0179963
0.0180326
0.018067
0.0180994
0.01813
0.0181589
0.018186
0.0182114
0.0182353
0.0182576
0.0182784
0.0182977
0.0183156
0.0183321
0.0183472
0.018361
0.0183736
0.0183848
0.0183948
0.0184036
0.0184113
0.0184177
0.018423
0.0184271
0.0184301
0.018432
0.0184328
0.0184325
0.0184311
0.0184287
0.0184251
0.0184205
0.0184149
0.0184082
0.0184004
0.0183915
0.0183816
0.0183706
0.0183585
0.0183453
0.0183311
0.0183158
0.0182993
0.0182818
0.0182631
0.0182433
0.0182223
0.0182002
0.0181769
0.0181524
0.0181268
0.0180998
0.0180717
0.0180423
0.0180117
0.0179797
0.0179464
0.0179118
0.0178759
0.0178385
0.0177998
0.0177597
0.0177181
0.017675
0.0176304
0.0175843
0.0175367
0.0174875
0.0174367
0.0173843
0.0173302
0.0172744
0.0172168
0.0171576
0.0170965
0.0170336
0.0169689
0.0169023
0.0168337
0.0167632
0.0166907
0.0166161
0.0165394
0.0164607
0.0163797
0.0162965
0.0162111
0.0161233
0.0160332
0.0159407
0.0158456
0.0157481
0.0156479
0.0155451
0.0154396
0.0153312
0.01522
0.0151058
0.0149886
0.0148682
0.0147446
0.0146177
0.0144873
0.0143534
0.0142157
0.0140742
0.0139288
0.0137791
0.0136252
0.0134667
0.0133035
0.0131352
0.0129617
0.0127827
0.0125977
0.0124065
0.0122086
0.0120035
0.0117907
0.0115695
0.0113393
0.0110991
0.0108481
0.010585
0.0103087
0.0100174
0.00970955
0.00938278
0.00903453
0.00866165
0.00826033
0.00782596
0.00735293
0.00683441
0.00626208
0.00562586
0.00491366
0.00411147
0.00320372
0.00217801
0.00104908
9.99522e-05
0.00013976
0.00141365
0.00283866
0.00407837
0.00514794
0.00608208
0.00690943
0.00765146
0.00832402
0.00893883
0.00950471
0.0100284
0.0105151
0.010969
0.0113934
0.0117912
0.0121645
0.0125155
0.0128458
0.0131568
0.01345
0.0137266
0.0139876
0.014234
0.0144667
0.0146866
0.0148945
0.0150912
0.0152772
0.0154532
0.0156199
0.0157777
0.0159273
0.0160691
0.0162035
0.016331
0.0164519
0.0165667
0.0166756
0.0167791
0.0168773
0.0169705
0.0170591
0.0171431
0.0172229
0.0172987
0.0173706
0.0174388
0.0175036
0.0175652
0.0176237
0.0176792
0.017732
0.017782
0.0178295
0.0178746
0.0179174
0.0179579
0.0179963
0.0180326
0.018067
0.0180994
0.01813
0.0181589
0.018186
0.0182114
0.0182353
0.0182576
0.0182784
0.0182977
0.0183156
0.0183321
0.0183472
0.018361
0.0183736
0.0183848
0.0183948
0.0184036
0.0184113
0.0184177
0.018423
0.0184271
0.0184301
0.018432
0.0184328
0.0184325
0.0184311
0.0184287
0.0184251
0.0184205
0.0184149
0.0184082
0.0184004
0.0183915
0.0183816
0.0183706
0.0183585
0.0183453
0.0183311
0.0183158
0.0182993
0.0182818
0.0182631
0.0182433
0.0182223
0.0182002
0.0181769
0.0181524
0.0181267
0.0180998
0.0180717
0.0180423
0.0180116
0.0179797
0.0179464
0.0179118
0.0178759
0.0178385
0.0177998
0.0177597
0.0177181
0.017675
0.0176304
0.0175843
0.0175367
0.0174875
0.0174367
0.0173843
0.0173302
0.0172744
0.0172168
0.0171576
0.0170965
0.0170336
0.0169689
0.0169023
0.0168337
0.0167632