/*--------------------------------*- C++ -*----------------------------------*\
  =========                 |
  \\      /  F ield         | OpenFOAM: The Open Source CFD Toolbox
   \\    /   O peration     | Website:  https://openfoam.org
    \\  /    A nd           | Version:  8
     \\/     M anipulation  |
\*---------------------------------------------------------------------------*/
FoamFile
{
    version     2.0;
    format      ascii;
    class       volScalarField;
    location    "4100";
    object      k;
}
// * * * * * * * * * * * * * * * * * * * * * * * * * * * * * * * * * * * * * //

dimensions      [0 2 -2 0 0 0 0];

internalField   nonuniform List<scalar> 
48000
(
0.0308296
0.0798586
0.122443
0.159558
0.194341
0.226391
0.256206
0.284205
0.311107
0.33718
0.362248
0.386508
0.410019
0.432834
0.45499
0.476517
0.497433
0.517751
0.537479
0.55662
0.575175
0.593144
0.610526
0.627317
0.643514
0.659115
0.674118
0.688522
0.702325
0.715528
0.728133
0.740143
0.75156
0.762389
0.772638
0.782313
0.791422
0.799974
0.80798
0.81545
0.822396
0.828829
0.83476
0.840203
0.845239
0.849875
0.854073
0.857838
0.861185
0.864131
0.866692
0.868886
0.870727
0.872232
0.873416
0.874294
0.874882
0.875192
0.87524
0.875038
0.8746
0.873938
0.873065
0.871991
0.870729
0.869288
0.867678
0.865911
0.863993
0.861935
0.859745
0.857429
0.854996
0.852453
0.849805
0.847059
0.84422
0.841294
0.838286
0.8352
0.832039
0.828809
0.825513
0.822153
0.818733
0.815255
0.811721
0.808135
0.804498
0.800811
0.797076
0.793294
0.789466
0.785594
0.781678
0.777718
0.773715
0.76967
0.765582
0.761451
0.757278
0.753063
0.748804
0.744503
0.740157
0.735768
0.731333
0.726854
0.722328
0.717755
0.713135
0.708467
0.703749
0.698981
0.694162
0.689291
0.684368
0.67939
0.674359
0.669271
0.664127
0.658926
0.653666
0.648348
0.642969
0.63753
0.63203
0.626467
0.620841
0.615152
0.609399
0.603581
0.597698
0.59175
0.585736
0.579655
0.573509
0.567296
0.561016
0.55467
0.548257
0.541778
0.535232
0.528621
0.521944
0.515201
0.508394
0.501523
0.494589
0.487591
0.480531
0.473411
0.466229
0.458988
0.451689
0.444332
0.436918
0.429449
0.421925
0.414348
0.406719
0.399038
0.391306
0.383525
0.375695
0.367817
0.359891
0.351919
0.3439
0.335834
0.327722
0.319563
0.311357
0.303101
0.294796
0.286438
0.278026
0.269557
0.261028
0.252441
0.243802
0.235154
0.226432
0.217594
0.208634
0.199529
0.190256
0.180788
0.171092
0.161121
0.150819
0.140153
0.12909
0.117434
0.105
0.0915163
0.0765351
0.0592128
0.0374929
0.0230803
0.0308301
0.0798591
0.122443
0.159559
0.194342
0.226392
0.256207
0.284206
0.311108
0.33718
0.362249
0.386508
0.41002
0.432834
0.454991
0.476518
0.497434
0.517752
0.537479
0.55662
0.575176
0.593145
0.610526
0.627317
0.643514
0.659115
0.674119
0.688522
0.702325
0.715529
0.728134
0.740143
0.75156
0.76239
0.772638
0.782313
0.791422
0.799974
0.80798
0.81545
0.822396
0.828829
0.83476
0.840203
0.845239
0.849876
0.854073
0.857838
0.861185
0.864131
0.866692
0.868886
0.870727
0.872232
0.873416
0.874294
0.874882
0.875192
0.87524
0.875038
0.8746
0.873938
0.873065
0.871991
0.870729
0.869288
0.867678
0.865911
0.863993
0.861935
0.859745
0.857429
0.854996
0.852453
0.849805
0.847059
0.84422
0.841294
0.838286
0.8352
0.832039
0.828809
0.825513
0.822153
0.818732
0.815255
0.811721
0.808135
0.804498
0.800811
0.797075
0.793294
0.789466
0.785594
0.781677
0.777718
0.773715
0.76967
0.765582
0.761451
0.757278
0.753063
0.748804
0.744503
0.740157
0.735768
0.731333
0.726854
0.722328
0.717755
0.713135
0.708467
0.703749
0.698981
0.694162
0.689291
0.684368
0.67939
0.674359
0.669271
0.664127
0.658926
0.653666
0.648348
0.642969
0.63753
0.632029
0.626467
0.620841
0.615152
0.609399
0.603581
0.597698
0.59175
0.585736
0.579655
0.573509
0.567296
0.561016
0.55467
0.548257
0.541778
0.535232
0.528621
0.521944
0.515201
0.508394
0.501523
0.494588
0.487591
0.480531
0.473411
0.466229
0.458988
0.451689
0.444332
0.436918
0.429449
0.421925
0.414348
0.406719
0.399038
0.391306
0.383525
0.375695
0.367817
0.359891
0.351919
0.3439
0.335834
0.327722
0.319563
0.311357
0.303101
0.294796
0.286438
0.278026
0.269557
0.261028
0.252441
0.243802
0.235155
0.226432
0.217594
0.208634
0.199529
0.190256
0.180789
0.171092
0.161121
0.150819
0.140153
0.12909
0.117434
0.105
0.0915163
0.0765351
0.0592125
0.0374931
0.0230792
0.0813403
0.204883
0.291559
0.367893
0.437947
0.503616
0.565996
0.625357
0.682361
0.737398
0.790698
0.842447
0.892777
0.941783
0.989531
1.03607
1.08141
1.12559
1.1686
1.21044
1.25109
1.29056
1.32881
1.36585
1.40164
1.43618
1.46946
1.50145
1.53216
1.56157
1.58968
1.61649
1.64201
1.66623
1.68917
1.71083
1.73124
1.75041
1.76835
1.7851
1.80067
1.81508
1.82838
1.84057
1.8517
1.86181
1.87094
1.8791
1.88634
1.8927
1.8982
1.90288
1.90677
1.90992
1.91236
1.91412
1.91523
1.91572
1.91563
1.91499
1.91382
1.91216
1.91003
1.90746
1.90447
1.90108
1.89732
1.89322
1.88879
1.88404
1.87901
1.87371
1.86814
1.86234
1.85631
1.85007
1.84362
1.83699
1.83018
1.8232
1.81606
1.80878
1.80135
1.79379
1.7861
1.77828
1.77035
1.76231
1.75416
1.74591
1.73755
1.7291
1.72055
1.71191
1.70318
1.69436
1.68545
1.67645
1.66736
1.65818
1.64892
1.63956
1.63012
1.62059
1.61097
1.60125
1.59144
1.58154
1.57155
1.56145
1.55126
1.54096
1.53057
1.52007
1.50946
1.49874
1.48792
1.47698
1.46593
1.45476
1.44347
1.43206
1.42053
1.40888
1.3971
1.3852
1.37316
1.361
1.3487
1.33627
1.32371
1.31101
1.29818
1.2852
1.27209
1.25885
1.24546
1.23193
1.21826
1.20446
1.19051
1.17643
1.16221
1.14785
1.13335
1.11872
1.10396
1.08906
1.07403
1.05886
1.04357
1.02816
1.01261
0.996947
0.98116
0.965255
0.949234
0.933098
0.91685
0.900493
0.884028
0.867458
0.850785
0.834011
0.817138
0.800166
0.783098
0.765934
0.748675
0.731322
0.713873
0.696329
0.678686
0.660944
0.643097
0.625143
0.607075
0.588886
0.570569
0.552113
0.533508
0.514741
0.49578
0.476584
0.457157
0.437453
0.417426
0.397027
0.376189
0.354829
0.332842
0.310086
0.286412
0.261609
0.235363
0.207227
0.176516
0.142034
0.100787
0.0390602
0.081341
0.204884
0.29156
0.367893
0.437948
0.503616
0.565996
0.625358
0.682361
0.737398
0.790698
0.842447
0.892778
0.941783
0.989531
1.03607
1.08141
1.12559
1.1686
1.21044
1.25109
1.29056
1.32881
1.36585
1.40164
1.43618
1.46946
1.50145
1.53216
1.56157
1.58968
1.61649
1.64201
1.66623
1.68917
1.71083
1.73124
1.75041
1.76835
1.7851
1.80067
1.81508
1.82837
1.84057
1.8517
1.86181
1.87094
1.8791
1.88634
1.8927
1.89819
1.90288
1.90677
1.90992
1.91236
1.91412
1.91523
1.91572
1.91563
1.91499
1.91382
1.91216
1.91003
1.90746
1.90446
1.90108
1.89732
1.89322
1.88879
1.88404
1.87901
1.8737
1.86814
1.86234
1.85631
1.85007
1.84362
1.83699
1.83018
1.8232
1.81606
1.80878
1.80135
1.79379
1.7861
1.77828
1.77035
1.76231
1.75416
1.74591
1.73755
1.7291
1.72055
1.71191
1.70318
1.69436
1.68545
1.67644
1.66736
1.65818
1.64891
1.63956
1.63012
1.62059
1.61097
1.60125
1.59144
1.58154
1.57155
1.56145
1.55126
1.54096
1.53057
1.52007
1.50946
1.49874
1.48792
1.47698
1.46593
1.45476
1.44347
1.43206
1.42053
1.40888
1.3971
1.3852
1.37316
1.361
1.3487
1.33627
1.32371
1.31101
1.29818
1.2852
1.27209
1.25884
1.24546
1.23193
1.21826
1.20446
1.19051
1.17643
1.16221
1.14785
1.13335
1.11872
1.10396
1.08906
1.07402
1.05886
1.04357
1.02815
1.01261
0.996946
0.98116
0.965255
0.949233
0.933097
0.91685
0.900493
0.884028
0.867458
0.850785
0.834011
0.817137
0.800166
0.783097
0.765934
0.748675
0.731322
0.713873
0.696328
0.678686
0.660943
0.643097
0.625143
0.607075
0.588886
0.570569
0.552113
0.533508
0.51474
0.49578
0.476583
0.457157
0.437452
0.417426
0.397027
0.376188
0.354829
0.332842
0.310085
0.286411
0.261609
0.235363
0.207227
0.176516
0.142034
0.100786
0.0390592
0.123073
0.292226
0.400734
0.493533
0.578638
0.658981
0.735752
0.809545
0.880804
0.949849
1.0169
1.08213
1.14566
1.20759
1.26797
1.32686
1.38427
1.44023
1.49473
1.54776
1.59932
1.64939
1.69794
1.74496
1.79042
1.83431
1.87661
1.91729
1.95635
1.99378
2.02957
2.06371
2.09621
2.12707
2.15629
2.18391
2.20992
2.23435
2.25722
2.27856
2.2984
2.31677
2.3337
2.34922
2.36339
2.37625
2.38784
2.3982
2.40737
2.4154
2.42232
2.42819
2.43305
2.43695
2.43993
2.44203
2.44329
2.44376
2.44348
2.44248
2.44081
2.43849
2.43558
2.43209
2.42806
2.42353
2.41853
2.41307
2.40719
2.40092
2.39428
2.38729
2.37996
2.37234
2.36442
2.35623
2.34779
2.33911
2.33021
2.32109
2.31177
2.30227
2.29259
2.28274
2.27273
2.26257
2.25226
2.24181
2.23123
2.22053
2.20969
2.19874
2.18767
2.17649
2.1652
2.15379
2.14227
2.13065
2.11892
2.10708
2.09514
2.08308
2.07092
2.05865
2.04627
2.03378
2.02117
2.00845
1.99561
1.98265
1.96957
1.95637
1.94304
1.92959
1.916
1.90228
1.88843
1.87444
1.86031
1.84603
1.83161
1.81704
1.80233
1.78746
1.77243
1.75725
1.74191
1.72641
1.71075
1.69492
1.67893
1.66277
1.64645
1.62995
1.61328
1.59645
1.57944
1.56226
1.54491
1.52738
1.50969
1.49182
1.47378
1.45558
1.4372
1.41866
1.39995
1.38107
1.36204
1.34284
1.32349
1.30398
1.28431
1.26449
1.24453
1.22442
1.20416
1.18377
1.16324
1.14257
1.12177
1.10084
1.07979
1.05861
1.03731
1.01589
0.994356
0.972701
0.95093
0.929043
0.90704
0.884919
0.86268
0.840318
0.81783
0.795211
0.772453
0.749549
0.726489
0.703259
0.679846
0.65623
0.632384
0.608276
0.583876
0.559138
0.534021
0.50847
0.48241
0.455752
0.428382
0.400157
0.370888
0.340363
0.308249
0.274059
0.236994
0.195422
0.144429
0.0616236
0.123074
0.292227
0.400734
0.493533
0.578638
0.658981
0.735752
0.809544
0.880804
0.949849
1.0169
1.08213
1.14566
1.20759
1.26797
1.32686
1.38427
1.44023
1.49473
1.54776
1.59932
1.64939
1.69794
1.74496
1.79042
1.83431
1.87661
1.91729
1.95635
1.99378
2.02956
2.06371
2.0962
2.12706
2.15629
2.18391
2.20992
2.23435
2.25722
2.27856
2.2984
2.31677
2.33369
2.34922
2.36339
2.37625
2.38784
2.3982
2.40737
2.41539
2.42232
2.42819
2.43305
2.43695
2.43993
2.44203
2.44329
2.44376
2.44348
2.44248
2.4408
2.43849
2.43557
2.43209
2.42806
2.42353
2.41853
2.41307
2.40719
2.40092
2.39428
2.38728
2.37996
2.37234
2.36442
2.35623
2.34779
2.33911
2.33021
2.32109
2.31177
2.30227
2.29259
2.28274
2.27273
2.26257
2.25226
2.24181
2.23123
2.22053
2.20969
2.19874
2.18767
2.17649
2.16519
2.15379
2.14227
2.13065
2.11892
2.10708
2.09514
2.08308
2.07092
2.05865
2.04627
2.03377
2.02117
2.00845
1.99561
1.98265
1.96957
1.95637
1.94304
1.92959
1.916
1.90228
1.88843
1.87444
1.8603
1.84603
1.83161
1.81704
1.80233
1.78746
1.77243
1.75725
1.74191
1.72641
1.71075
1.69492
1.67893
1.66277
1.64645
1.62995
1.61328
1.59645
1.57944
1.56226
1.5449
1.52738
1.50969
1.49182
1.47378
1.45557
1.4372
1.41866
1.39995
1.38107
1.36204
1.34284
1.32349
1.30398
1.28431
1.26449
1.24453
1.22442
1.20416
1.18377
1.16324
1.14257
1.12177
1.10084
1.07979
1.05861
1.03731
1.01589
0.994355
0.9727
0.950929
0.929043
0.907039
0.884919
0.862679
0.840317
0.817829
0.79521
0.772453
0.749549
0.726488
0.703259
0.679846
0.65623
0.632383
0.608276
0.583876
0.559137
0.534021
0.50847
0.48241
0.455751
0.428382
0.400157
0.370888
0.340363
0.308249
0.274059
0.236994
0.195422
0.144429
0.0616237
0.157761
0.366489
0.492696
0.597268
0.6928
0.783096
0.869645
0.95316
1.03406
1.11261
1.18902
1.26342
1.33593
1.40661
1.47554
1.54275
1.60826
1.6721
1.73426
1.79474
1.85353
1.9106
1.96595
2.01955
2.07138
2.12142
2.16965
2.21605
2.26061
2.30332
2.34416
2.38314
2.42025
2.4555
2.4889
2.52046
2.5502
2.57813
2.60429
2.6287
2.65139
2.67241
2.69178
2.70954
2.72575
2.74046
2.7537
2.76553
2.77599
2.78513
2.793
2.79966
2.80515
2.80952
2.81284
2.81513
2.81646
2.81687
2.8164
2.81511
2.81304
2.81022
2.80671
2.80253
2.79773
2.79234
2.7864
2.77995
2.773
2.7656
2.75777
2.74953
2.74092
2.73195
2.72265
2.71303
2.70313
2.69295
2.68251
2.67183
2.66092
2.6498
2.63847
2.62695
2.61525
2.60338
2.59135
2.57915
2.56681
2.55432
2.54169
2.52892
2.51603
2.503
2.48985
2.47658
2.46319
2.44967
2.43604
2.42228
2.40841
2.39441
2.3803
2.36606
2.3517
2.33722
2.32261
2.30787
2.293
2.278
2.26287
2.24759
2.23218
2.21662
2.20092
2.18507
2.16907
2.15292
2.13661
2.12014
2.10351
2.08671
2.06975
2.05261
2.03531
2.01782
2.00016
1.98232
1.9643
1.9461
1.92771
1.90913
1.89036
1.87141
1.85226
1.83292
1.8134
1.79367
1.77376
1.75365
1.73335
1.71286
1.69218
1.67131
1.65025
1.629
1.60757
1.58595
1.56415
1.54217
1.52001
1.49767
1.47517
1.45249
1.42965
1.40665
1.38348
1.36016
1.33668
1.31305
1.28928
1.26536
1.2413
1.2171
1.19276
1.16829
1.14369
1.11896
1.09409
1.0691
1.04398
1.01873
0.993341
0.96782
0.942161
0.916356
0.890399
0.864282
0.837993
0.81152
0.784847
0.757952
0.730812
0.703395
0.675669
0.64759
0.619112
0.590172
0.560699
0.530612
0.499796
0.468109
0.435363
0.401323
0.365648
0.327788
0.286758
0.240361
0.18174
0.0800526
0.157762
0.366489
0.492696
0.597268
0.6928
0.783096
0.869645
0.95316
1.03406
1.11261
1.18902
1.26342
1.33593
1.40661
1.47554
1.54275
1.60826
1.6721
1.73426
1.79474
1.85353
1.9106
1.96595
2.01955
2.07138
2.12142
2.16965
2.21605
2.26061
2.30332
2.34416
2.38314
2.42025
2.4555
2.4889
2.52046
2.5502
2.57813
2.60429
2.6287
2.65139
2.67241
2.69178
2.70954
2.72575
2.74046
2.7537
2.76553
2.77599
2.78513
2.793
2.79966
2.80515
2.80952
2.81283
2.81513
2.81646
2.81687
2.8164
2.81511
2.81304
2.81022
2.8067
2.80253
2.79773
2.79234
2.7864
2.77995
2.773
2.7656
2.75777
2.74953
2.74092
2.73195
2.72265
2.71303
2.70313
2.69295
2.68251
2.67183
2.66092
2.6498
2.63847
2.62695
2.61525
2.60338
2.59134
2.57915
2.56681
2.55432
2.54169
2.52892
2.51603
2.503
2.48985
2.47658
2.46319
2.44967
2.43604
2.42228
2.40841
2.39441
2.3803
2.36606
2.3517
2.33722
2.32261
2.30787
2.293
2.278
2.26286
2.24759
2.23218
2.21662
2.20092
2.18507
2.16907
2.15292
2.13661
2.12014
2.10351
2.08671
2.06975
2.05261
2.0353
2.01782
2.00016
1.98232
1.9643
1.9461
1.9277
1.90913
1.89036
1.87141
1.85226
1.83292
1.81339
1.79367
1.77376
1.75365
1.73335
1.71286
1.69218
1.67131
1.65025
1.629
1.60757
1.58595
1.56415
1.54217
1.52001
1.49767
1.47517
1.45249
1.42965
1.40665
1.38348
1.36016
1.33668
1.31305
1.28928
1.26536
1.2413
1.2171
1.19276
1.16829
1.14369
1.11896
1.09409
1.0691
1.04398
1.01873
0.99334
0.96782
0.94216
0.916355
0.890399
0.864281
0.837993
0.81152
0.784846
0.757952
0.730811
0.703395
0.675669
0.64759
0.619111
0.590172
0.560698
0.530612
0.499796
0.468109
0.435363
0.401323
0.365648
0.327787
0.286758
0.240361
0.18174
0.0800527
0.189106
0.433263
0.576417
0.692131
0.79686
0.895547
0.990119
1.08146
1.17004
1.25611
1.33988
1.42145
1.50093
1.57838
1.65386
1.72741
1.79906
1.86882
1.9367
2.00271
2.06683
2.12905
2.18938
2.24777
2.30423
2.35873
2.41126
2.46179
2.51033
2.55685
2.60135
2.64383
2.68429
2.72273
2.75916
2.7936
2.82606
2.85657
2.88514
2.91181
2.93662
2.9596
2.98078
3.00022
3.01795
3.03404
3.04852
3.06146
3.07289
3.08287
3.09146
3.09871
3.10468
3.10942
3.11298
3.11542
3.1168
3.11715
3.11654
3.11502
3.11262
3.10941
3.10542
3.10069
3.09528
3.08921
3.08253
3.07528
3.06748
3.05917
3.05039
3.04116
3.03151
3.02147
3.01106
3.00031
2.98923
2.97784
2.96618
2.95424
2.94205
2.92962
2.91698
2.90412
2.89106
2.87781
2.86438
2.85077
2.83701
2.82308
2.80901
2.79478
2.78042
2.76591
2.75127
2.73649
2.72158
2.70654
2.69138
2.67608
2.66065
2.6451
2.62941
2.61359
2.59764
2.58156
2.56534
2.54898
2.53249
2.51585
2.49906
2.48213
2.46505
2.44781
2.43042
2.41286
2.39515
2.37727
2.35922
2.34099
2.3226
2.30402
2.28527
2.26633
2.2472
2.22789
2.20838
2.18868
2.16879
2.14869
2.1284
2.10791
2.08721
2.0663
2.04519
2.02388
2.00235
1.98062
1.95868
1.93654
1.91418
1.89162
1.86885
1.84588
1.8227
1.79932
1.77573
1.75195
1.72797
1.7038
1.67943
1.65488
1.63013
1.60521
1.5801
1.55482
1.52936
1.50373
1.47794
1.45198
1.42586
1.39958
1.37315
1.34657
1.31984
1.29297
1.26595
1.23879
1.21148
1.18404
1.15646
1.12874
1.10087
1.07286
1.0447
1.01638
0.987901
0.959252
0.930424
0.901401
0.872169
0.842708
0.812994
0.782998
0.752688
0.722023
0.690955
0.659427
0.627369
0.594694
0.561289
0.527015
0.491686
0.455031
0.416678
0.375977
0.331707
0.281065
0.215399
0.0963899
0.189106
0.433263
0.576417
0.692131
0.79686
0.895546
0.990119
1.08146
1.17003
1.25611
1.33988
1.42145
1.50093
1.57838
1.65386
1.72741
1.79906
1.86882
1.9367
2.00271
2.06683
2.12905
2.18937
2.24777
2.30423
2.35873
2.41125
2.46179
2.51032
2.55685
2.60135
2.64383
2.68429
2.72273
2.75916
2.7936
2.82606
2.85656
2.88514
2.91181
2.93662
2.95959
2.98078
3.00022
3.01795
3.03404
3.04852
3.06145
3.07289
3.08287
3.09146
3.09871
3.10468
3.10942
3.11298
3.11542
3.1168
3.11715
3.11654
3.11502
3.11262
3.10941
3.10541
3.10069
3.09527
3.08921
3.08253
3.07527
3.06748
3.05917
3.05039
3.04116
3.03151
3.02147
3.01106
3.00031
2.98923
2.97784
2.96617
2.95424
2.94205
2.92962
2.91698
2.90412
2.89106
2.87781
2.86438
2.85077
2.83701
2.82308
2.80901
2.79478
2.78041
2.76591
2.75127
2.73649
2.72158
2.70654
2.69138
2.67608
2.66065
2.6451
2.62941
2.61359
2.59764
2.58156
2.56534
2.54898
2.53249
2.51585
2.49906
2.48213
2.46505
2.44781
2.43041
2.41286
2.39515
2.37727
2.35922
2.34099
2.3226
2.30402
2.28527
2.26633
2.2472
2.22789
2.20838
2.18868
2.16879
2.14869
2.1284
2.1079
2.08721
2.0663
2.04519
2.02388
2.00235
1.98062
1.95868
1.93654
1.91418
1.89162
1.86885
1.84588
1.8227
1.79932
1.77573
1.75195
1.72797
1.7038
1.67943
1.65488
1.63013
1.60521
1.5801
1.55482
1.52936
1.50373
1.47794
1.45198
1.42586
1.39958
1.37315
1.34657
1.31984
1.29297
1.26595
1.23879
1.21148
1.18404
1.15646
1.12874
1.10087
1.07286
1.04469
1.01638
0.9879
0.959252
0.930423
0.901401
0.872169
0.842708
0.812994
0.782998
0.752688
0.722022
0.690955
0.659427
0.627369
0.594693
0.561289
0.527015
0.491686
0.455031
0.416678
0.375977
0.331707
0.281065
0.215399
0.0963899
0.217893
0.495962
0.655454
0.782214
0.895801
1.00229
1.10411
1.20234
1.29755
1.39005
1.48001
1.56757
1.65281
1.73579
1.81658
1.89522
1.97174
2.04616
2.1185
2.18878
2.25699
2.32313
2.38721
2.44921
2.50913
2.56695
2.62266
2.67626
2.72773
2.77707
2.82428
2.86935
2.91228
2.95309
2.99178
3.02836
3.06286
3.0953
3.12569
3.15408
3.18049
3.20497
3.22754
3.24827
3.26718
3.28434
3.2998
3.3136
3.3258
3.33645
3.34561
3.35334
3.3597
3.36473
3.36851
3.37108
3.37249
3.37282
3.3721
3.3704
3.36776
3.36423
3.35986
3.3547
3.34879
3.34218
3.33491
3.32701
3.31852
3.30948
3.29993
3.28989
3.27939
3.26847
3.25715
3.24546
3.23341
3.22103
3.20835
3.19537
3.18212
3.16862
3.15487
3.14089
3.1267
3.11231
3.09772
3.08294
3.06799
3.05287
3.03758
3.02214
3.00654
2.99079
2.9749
2.95886
2.94269
2.92637
2.90992
2.89333
2.8766
2.85974
2.84273
2.82559
2.80831
2.79088
2.77331
2.7556
2.73774
2.71972
2.70155
2.68323
2.66474
2.6461
2.62728
2.6083
2.58915
2.56982
2.55031
2.53062
2.51075
2.49069
2.47043
2.44998
2.42934
2.40849
2.38744
2.36619
2.34473
2.32306
2.30117
2.27908
2.25676
2.23423
2.21149
2.18852
2.16533
2.14192
2.1183
2.09445
2.07038
2.04609
2.02158
1.99685
1.97191
1.94675
1.92138
1.89579
1.86999
1.84399
1.81778
1.79137
1.76477
1.73796
1.71096
1.68378
1.6564
1.62885
1.60111
1.5732
1.54512
1.51687
1.48845
1.45987
1.43113
1.40224
1.37319
1.34399
1.31463
1.28513
1.25547
1.22567
1.19571
1.16559
1.13532
1.10488
1.07428
1.04349
1.01252
0.981351
0.949964
0.918343
0.886466
0.854308
0.821834
0.789009
0.755786
0.722108
0.687907
0.653097
0.617565
0.581163
0.543688
0.50484
0.464183
0.420956
0.373677
0.318969
0.246553
0.111359
0.217894
0.495963
0.655454
0.782214
0.895801
1.00229
1.1041
1.20234
1.29755
1.39005
1.48001
1.56757
1.6528
1.73579
1.81658
1.89522
1.97174
2.04616
2.1185
2.18878
2.25699
2.32313
2.38721
2.44921
2.50913
2.56695
2.62266
2.67626
2.72773
2.77707
2.82427
2.86934
2.91228
2.95309
2.99178
3.02836
3.06286
3.0953
3.12569
3.15408
3.18049
3.20497
3.22754
3.24827
3.26718
3.28434
3.2998
3.3136
3.3258
3.33645
3.34561
3.35334
3.3597
3.36473
3.36851
3.37107
3.37249
3.37282
3.3721
3.3704
3.36776
3.36423
3.35986
3.3547
3.34879
3.34218
3.33491
3.32701
3.31852
3.30948
3.29993
3.28989
3.27939
3.26847
3.25715
3.24545
3.23341
3.22103
3.20835
3.19537
3.18212
3.16862
3.15487
3.14089
3.1267
3.11231
3.09772
3.08294
3.06799
3.05287
3.03758
3.02214
3.00654
2.99079
2.9749
2.95886
2.94269
2.92637
2.90992
2.89333
2.8766
2.85974
2.84273
2.82559
2.80831
2.79088
2.77331
2.7556
2.73774
2.71972
2.70155
2.68323
2.66474
2.6461
2.62728
2.6083
2.58915
2.56982
2.55031
2.53062
2.51075
2.49069
2.47043
2.44998
2.42934
2.40849
2.38744
2.36619
2.34473
2.32306
2.30117
2.27908
2.25676
2.23423
2.21149
2.18852
2.16533
2.14192
2.1183
2.09445
2.07038
2.04609
2.02158
1.99685
1.97191
1.94675
1.92138
1.89579
1.86999
1.84399
1.81778
1.79137
1.76476
1.73796
1.71096
1.68378
1.6564
1.62885
1.60111
1.5732
1.54512
1.51687
1.48845
1.45987
1.43113
1.40224
1.37319
1.34399
1.31463
1.28513
1.25547
1.22567
1.19571
1.16559
1.13532
1.10488
1.07428
1.04349
1.01252
0.98135
0.949963
0.918343
0.886466
0.854307
0.821834
0.789009
0.755786
0.722108
0.687907
0.653097
0.617565
0.581163
0.543688
0.50484
0.464183
0.420956
0.373677
0.318969
0.246553
0.111359
0.245068
0.55591
0.731529
0.869325
0.991677
1.10573
1.21439
1.31899
1.42021
1.51841
1.61381
1.70654
1.79669
1.88434
1.96956
2.05237
2.13285
2.21101
2.28688
2.3605
2.43188
2.50102
2.56795
2.63266
2.69515
2.75543
2.81349
2.86933
2.92296
2.97436
3.02354
3.0705
3.11525
3.15779
3.19814
3.23631
3.27232
3.30619
3.33795
3.36763
3.39526
3.42087
3.44452
3.46623
3.48606
3.50406
3.52028
3.53477
3.54758
3.55877
3.5684
3.57652
3.5832
3.58849
3.59245
3.59513
3.59661
3.59692
3.59614
3.5943
3.59148
3.58771
3.58306
3.57756
3.57126
3.56421
3.55646
3.54804
3.539
3.52937
3.51919
3.50848
3.4973
3.48565
3.47358
3.46111
3.44826
3.43506
3.42153
3.40769
3.39355
3.37915
3.36448
3.34957
3.33443
3.31907
3.3035
3.28774
3.27178
3.25565
3.23934
3.22286
3.20622
3.18943
3.17247
3.15537
3.13812
3.12072
3.10317
3.08548
3.06764
3.04966
3.03154
3.01326
2.99484
2.97627
2.95755
2.93868
2.91965
2.90046
2.88111
2.86159
2.84191
2.82206
2.80203
2.78183
2.76145
2.74088
2.72013
2.69918
2.67804
2.65671
2.63517
2.61343
2.59149
2.56933
2.54696
2.52438
2.50158
2.47856
2.45532
2.43185
2.40815
2.38423
2.36008
2.33571
2.3111
2.28625
2.26118
2.23588
2.21034
2.18457
2.15857
2.13235
2.10589
2.07921
2.0523
2.02517
1.99781
1.97024
1.94245
1.91445
1.88623
1.85781
1.82919
1.80036
1.77134
1.74212
1.71271
1.68311
1.65333
1.62337
1.59323
1.56292
1.53244
1.50179
1.47097
1.43999
1.40884
1.37754
1.34607
1.31444
1.28265
1.2507
1.21857
1.18628
1.1538
1.12114
1.08829
1.05523
1.02195
0.988436
0.954662
0.920606
0.886238
0.851521
0.81641
0.780851
0.744775
0.708092
0.670686
0.632399
0.593006
0.552174
0.50938
0.46374
0.413521
0.354817
0.275862
0.12534
0.245069
0.55591
0.731529
0.869324
0.991677
1.10573
1.21439
1.31899
1.42021
1.51841
1.61381
1.70654
1.79669
1.88434
1.96955
2.05237
2.13285
2.21101
2.28688
2.3605
2.43188
2.50102
2.56795
2.63266
2.69515
2.75543
2.81349
2.86933
2.92296
2.97436
3.02354
3.0705
3.11525
3.15779
3.19814
3.23631
3.27232
3.30619
3.33795
3.36763
3.39526
3.42087
3.44452
3.46623
3.48606
3.50406
3.52028
3.53477
3.54758
3.55877
3.5684
3.57652
3.5832
3.58849
3.59244
3.59513
3.59661
3.59692
3.59614
3.5943
3.59148
3.58771
3.58305
3.57755
3.57126
3.56421
3.55646
3.54804
3.539
3.52937
3.51918
3.50848
3.49729
3.48565
3.47358
3.46111
3.44826
3.43506
3.42153
3.40769
3.39355
3.37915
3.36448
3.34957
3.33443
3.31907
3.3035
3.28774
3.27178
3.25565
3.23934
3.22286
3.20622
3.18942
3.17247
3.15537
3.13812
3.12071
3.10317
3.08548
3.06764
3.04966
3.03153
3.01326
2.99484
2.97627
2.95755
2.93868
2.91964
2.90046
2.88111
2.86159
2.84191
2.82206
2.80203
2.78183
2.76145
2.74088
2.72013
2.69918
2.67804
2.65671
2.63517
2.61343
2.59149
2.56933
2.54696
2.52438
2.50158
2.47856
2.45531
2.43185
2.40815
2.38423
2.36008
2.33571
2.3111
2.28625
2.26118
2.23588
2.21034
2.18457
2.15857
2.13235
2.10589
2.07921
2.0523
2.02517
1.99781
1.97024
1.94245
1.91445
1.88623
1.85781
1.82919
1.80036
1.77134
1.74212
1.71271
1.68311
1.65333
1.62337
1.59323
1.56292
1.53244
1.50179
1.47097
1.43999
1.40884
1.37754
1.34607
1.31444
1.28265
1.2507
1.21857
1.18628
1.1538
1.12114
1.08829
1.05523
1.02195
0.988436
0.954662
0.920606
0.886238
0.851521
0.81641
0.780851
0.744775
0.708092
0.670686
0.632399
0.593006
0.552174
0.50938
0.46374
0.413521
0.354817
0.275862
0.12534
0.271833
0.614074
0.805653
0.954455
1.08553
1.20701
1.32227
1.4329
1.5397
1.64311
1.74338
1.84067
1.9351
2.02675
2.11569
2.20199
2.28569
2.36687
2.44555
2.52177
2.59558
2.667
2.73605
2.80275
2.86712
2.92917
2.98891
3.04634
3.10148
3.15433
3.20489
3.25318
3.2992
3.34297
3.38449
3.42379
3.46088
3.49578
3.52853
3.55915
3.58767
3.61414
3.63858
3.66104
3.68157
3.70022
3.71703
3.73205
3.74535
3.75698
3.76698
3.77543
3.78238
3.78789
3.79201
3.79481
3.79635
3.79668
3.79586
3.79394
3.79099
3.78705
3.78217
3.77641
3.76982
3.76244
3.75431
3.74548
3.736
3.72589
3.7152
3.70396
3.69221
3.67998
3.6673
3.65419
3.64068
3.6268
3.61257
3.59801
3.58314
3.56798
3.55255
3.53686
3.52092
3.50475
3.48836
3.47177
3.45497
3.43798
3.4208
3.40345
3.38593
3.36824
3.35038
3.33237
3.3142
3.29587
3.2774
3.25876
3.23998
3.22105
3.20196
3.18272
3.16332
3.14377
3.12406
3.10419
3.08416
3.06396
3.04359
3.02306
3.00234
2.98146
2.96039
2.93913
2.91769
2.89606
2.87423
2.8522
2.82998
2.80754
2.7849
2.76205
2.73898
2.71569
2.69219
2.66845
2.6445
2.62031
2.59589
2.57124
2.54635
2.52123
2.49587
2.47027
2.44443
2.41835
2.39202
2.36545
2.33865
2.3116
2.28431
2.25678
2.22901
2.201
2.17275
2.14428
2.11557
2.08662
2.05746
2.02806
1.99845
1.96861
1.93856
1.9083
1.87782
1.84714
1.81626
1.78518
1.7539
1.72243
1.69077
1.65892
1.62689
1.59468
1.56229
1.52973
1.49699
1.46408
1.43099
1.39773
1.3643
1.33069
1.2969
1.26294
1.22878
1.19443
1.15988
1.12512
1.09013
1.0549
1.01942
0.983645
0.947562
0.911131
0.874309
0.837041
0.799255
0.760858
0.721725
0.681684
0.640484
0.597751
0.552884
0.504867
0.451739
0.389083
0.30376
0.138576
0.271834
0.614074
0.805653
0.954454
1.08553
1.20701
1.32227
1.4329
1.5397
1.6431
1.74338
1.84067
1.9351
2.02675
2.11569
2.20199
2.28569
2.36687
2.44554
2.52177
2.59558
2.667
2.73605
2.80275
2.86712
2.92917
2.98891
3.04634
3.10148
3.15433
3.20489
3.25318
3.2992
3.34297
3.38449
3.42379
3.46088
3.49578
3.52853
3.55915
3.58767
3.61414
3.63858
3.66104
3.68157
3.70022
3.71703
3.73205
3.74535
3.75697
3.76698
3.77543
3.78238
3.78788
3.79201
3.79481
3.79635
3.79668
3.79586
3.79394
3.79099
3.78705
3.78217
3.77641
3.76982
3.76244
3.75431
3.74548
3.736
3.72589
3.7152
3.70396
3.69221
3.67998
3.6673
3.65419
3.64068
3.6268
3.61257
3.59801
3.58314
3.56798
3.55255
3.53686
3.52092
3.50475
3.48836
3.47177
3.45497
3.43798
3.4208
3.40345
3.38593
3.36824
3.35038
3.33237
3.3142
3.29587
3.2774
3.25876
3.23998
3.22105
3.20196
3.18272
3.16332
3.14377
3.12406
3.10419
3.08416
3.06396
3.04359
3.02306
3.00234
2.98146
2.96039
2.93913
2.91769
2.89606
2.87423
2.8522
2.82997
2.80754
2.7849
2.76205
2.73898
2.71569
2.69218
2.66845
2.6445
2.62031
2.59589
2.57124
2.54635
2.52123
2.49587
2.47027
2.44443
2.41835
2.39202
2.36545
2.33865
2.3116
2.28431
2.25678
2.22901
2.201
2.17275
2.14428
2.11556
2.08662
2.05746
2.02806
1.99845
1.96861
1.93856
1.90829
1.87782
1.84714
1.81626
1.78518
1.7539
1.72243
1.69077
1.65892
1.62689
1.59468
1.56229
1.52973
1.49699
1.46408
1.43099
1.39773
1.3643
1.33069
1.2969
1.26294
1.22878
1.19443
1.15988
1.12512
1.09013
1.0549
1.01942
0.983645
0.947562
0.911131
0.874309
0.837041
0.799255
0.760858
0.721725
0.681684
0.640484
0.597751
0.552884
0.504867
0.451739
0.389083
0.30376
0.138576
0.298313
0.671174
0.87848
1.03822
1.17797
1.30678
1.42846
1.54485
1.6569
1.76511
1.86981
1.97118
2.06937
2.16446
2.25657
2.34576
2.43211
2.5157
2.59657
2.6748
2.75043
2.82352
2.8941
2.9622
3.02786
3.09111
3.15197
3.21045
3.26658
3.32036
3.37182
3.42096
3.46781
3.51237
3.55465
3.59469
3.6325
3.6681
3.70152
3.73279
3.76194
3.789
3.81401
3.83702
3.85806
3.87719
3.89444
3.90988
3.92356
3.93552
3.94583
3.95454
3.96172
3.96741
3.97168
3.9746
3.9762
3.97656
3.97574
3.97378
3.97074
3.96669
3.96166
3.95571
3.9489
3.94126
3.93285
3.92371
3.91388
3.9034
3.89231
3.88065
3.86846
3.85575
3.84257
3.82895
3.81491
3.80048
3.78568
3.77053
3.75506
3.73928
3.72321
3.70687
3.69028
3.67343
3.65636
3.63907
3.62156
3.60385
3.58595
3.56787
3.5496
3.53115
3.51254
3.49375
3.47481
3.4557
3.43643
3.417
3.39741
3.37766
3.35775
3.33768
3.31746
3.29706
3.27651
3.25579
3.23489
3.21383
3.19259
3.17118
3.14958
3.1278
3.10583
3.08367
3.06132
3.03877
3.01601
2.99305
2.96989
2.94651
2.92291
2.89909
2.87506
2.85079
2.8263
2.80157
2.77662
2.75142
2.72598
2.70031
2.67439
2.64822
2.6218
2.59514
2.56823
2.54107
2.51365
2.48599
2.45807
2.42991
2.40149
2.37282
2.3439
2.31473
2.28532
2.25566
2.22576
2.19562
2.16523
2.13461
2.10376
2.07268
2.04137
2.00983
1.97807
1.94609
1.9139
1.88149
1.84888
1.81606
1.78304
1.74981
1.71639
1.68278
1.64897
1.61498
1.5808
1.54643
1.51187
1.47713
1.4422
1.40709
1.37178
1.33628
1.30059
1.26469
1.22858
1.19225
1.15569
1.11888
1.08181
1.04445
1.00678
0.968761
0.930346
0.891481
0.85209
0.812074
0.771299
0.729573
0.686619
0.642017
0.595095
0.544696
0.488649
0.422063
0.330509
0.151304
0.298314
0.671175
0.87848
1.03822
1.17797
1.30678
1.42846
1.54485
1.6569
1.76511
1.86981
1.97118
2.06937
2.16446
2.25657
2.34576
2.43211
2.5157
2.59657
2.6748
2.75043
2.82352
2.89409
2.9622
3.02786
3.09111
3.15197
3.21045
3.26658
3.32036
3.37182
3.42096
3.46781
3.51236
3.55465
3.59469
3.6325
3.6681
3.70152
3.73279
3.76194
3.789
3.81401
3.83702
3.85806
3.87719
3.89444
3.90988
3.92356
3.93552
3.94583
3.95454
3.96172
3.96741
3.97168
3.9746
3.9762
3.97656
3.97574
3.97378
3.97074
3.96669
3.96166
3.95571
3.9489
3.94126
3.93285
3.92371
3.91388
3.9034
3.89231
3.88065
3.86846
3.85575
3.84257
3.82895
3.81491
3.80048
3.78568
3.77053
3.75506
3.73928
3.72321
3.70687
3.69027
3.67343
3.65636
3.63906
3.62156
3.60385
3.58595
3.56786
3.5496
3.53115
3.51254
3.49375
3.47481
3.4557
3.43643
3.41699
3.39741
3.37766
3.35775
3.33768
3.31745
3.29706
3.27651
3.25578
3.23489
3.21383
3.19259
3.17118
3.14958
3.1278
3.10583
3.08367
3.06132
3.03877
3.01601
2.99305
2.96988
2.9465
2.92291
2.89909
2.87505
2.85079
2.8263
2.80157
2.77661
2.75142
2.72598
2.70031
2.67438
2.64822
2.6218
2.59514
2.56823
2.54107
2.51365
2.48599
2.45807
2.42991
2.40149
2.37282
2.3439
2.31473
2.28532
2.25566
2.22576
2.19562
2.16523
2.13461
2.10376
2.07268
2.04137
2.00983
1.97807
1.94609
1.9139
1.88149
1.84888
1.81606
1.78304
1.74981
1.71639
1.68278
1.64897
1.61498
1.5808
1.54643
1.51187
1.47713
1.4422
1.40709
1.37178
1.33628
1.30059
1.26469
1.22858
1.19225
1.15569
1.11888
1.08181
1.04445
1.00678
0.968761
0.930346
0.891481
0.85209
0.812074
0.771299
0.729573
0.686619
0.642017
0.595095
0.544697