/*--------------------------------*- C++ -*----------------------------------*\
  =========                 |
  \\      /  F ield         | OpenFOAM: The Open Source CFD Toolbox
   \\    /   O peration     | Website:  https://openfoam.org
    \\  /    A nd           | Version:  8
     \\/     M anipulation  |
\*---------------------------------------------------------------------------*/
FoamFile
{
    version     2.0;
    format      ascii;
    class       volScalarField;
    location    "1600";
    object      alphat;
}
// * * * * * * * * * * * * * * * * * * * * * * * * * * * * * * * * * * * * * //

dimensions      [1 -1 -1 0 0 0 0];

internalField   nonuniform List<scalar> 
46000
(
3.14161e-08
1.62245e-07
3.49632e-07
5.45405e-07
7.40439e-07
9.33554e-07
1.12509e-06
1.31506e-06
1.50068e-06
1.68136e-06
1.85685e-06
2.02666e-06
2.19048e-06
2.34842e-06
2.50012e-06
2.64533e-06
2.78425e-06
2.91693e-06
3.04344e-06
3.16387e-06
3.27833e-06
3.3871e-06
3.49248e-06
3.59327e-06
3.68894e-06
3.77962e-06
3.86549e-06
3.94672e-06
4.0235e-06
4.09609e-06
4.1645e-06
4.2288e-06
4.28925e-06
4.34591e-06
4.39884e-06
4.44814e-06
4.49388e-06
4.53614e-06
4.57497e-06
4.61042e-06
4.64253e-06
4.67134e-06
4.69687e-06
4.71914e-06
4.73816e-06
4.75394e-06
4.76649e-06
4.77581e-06
4.78192e-06
4.78483e-06
4.78455e-06
4.7811e-06
4.77453e-06
4.76486e-06
4.75215e-06
4.73646e-06
4.71785e-06
4.69641e-06
4.67223e-06
4.6454e-06
4.61604e-06
4.58436e-06
4.55121e-06
4.51667e-06
4.48019e-06
4.44187e-06
4.40188e-06
4.3604e-06
4.31762e-06
4.27372e-06
4.2289e-06
4.18336e-06
4.13729e-06
4.09088e-06
4.04433e-06
3.99782e-06
3.95155e-06
3.9057e-06
3.86043e-06
3.81592e-06
3.77233e-06
3.72982e-06
3.68853e-06
3.64859e-06
3.61015e-06
3.5733e-06
3.53818e-06
3.50487e-06
3.47347e-06
3.44407e-06
3.41673e-06
3.39152e-06
3.3685e-06
3.3477e-06
3.32918e-06
3.31296e-06
3.29907e-06
3.2875e-06
3.27829e-06
3.27142e-06
3.26689e-06
3.2647e-06
3.26483e-06
3.26725e-06
3.27195e-06
3.27889e-06
3.28805e-06
3.29936e-06
3.31283e-06
3.3284e-06
3.34605e-06
3.36574e-06
3.38742e-06
3.41106e-06
3.43662e-06
3.46405e-06
3.49332e-06
3.52439e-06
3.55722e-06
3.59177e-06
3.62802e-06
3.66592e-06
3.70544e-06
3.74655e-06
3.78922e-06
3.83343e-06
3.87914e-06
3.92631e-06
3.97494e-06
4.02498e-06
4.07641e-06
4.12919e-06
4.1833e-06
4.23869e-06
4.29533e-06
4.35316e-06
4.41215e-06
4.47223e-06
4.53334e-06
4.59539e-06
4.6583e-06
4.72196e-06
4.78626e-06
4.85106e-06
4.9162e-06
4.98152e-06
5.04681e-06
5.11185e-06
5.17638e-06
5.24014e-06
5.3028e-06
5.36403e-06
5.42345e-06
5.48065e-06
5.53519e-06
5.58659e-06
5.63435e-06
5.67791e-06
5.7167e-06
5.75014e-06
5.77758e-06
5.79839e-06
5.81191e-06
5.81748e-06
5.81445e-06
5.80216e-06
5.78e-06
5.74752e-06
5.70604e-06
5.65418e-06
5.59067e-06
5.515e-06
5.42691e-06
5.3262e-06
5.21284e-06
5.08685e-06
4.94842e-06
4.79783e-06
4.63552e-06
4.46203e-06
4.27804e-06
4.08437e-06
3.88192e-06
3.67173e-06
3.45491e-06
3.23264e-06
3.00615e-06
2.77669e-06
2.54548e-06
2.31367e-06
2.08211e-06
1.84955e-06
1.62073e-06
1.39288e-06
1.16467e-06
9.34639e-07
7.07075e-07
4.70954e-07
2.28629e-07
4.47648e-08
3.14189e-08
1.62255e-07
3.49648e-07
5.45424e-07
7.4046e-07
9.33576e-07
1.12512e-06
1.31508e-06
1.5007e-06
1.68139e-06
1.85688e-06
2.02669e-06
2.19051e-06
2.34844e-06
2.50015e-06
2.64535e-06
2.78427e-06
2.91696e-06
3.04347e-06
3.1639e-06
3.27836e-06
3.38712e-06
3.4925e-06
3.59329e-06
3.68896e-06
3.77964e-06
3.86551e-06
3.94674e-06
4.02352e-06
4.09612e-06
4.16452e-06
4.22883e-06
4.28928e-06
4.34594e-06
4.39887e-06
4.44817e-06
4.49391e-06
4.53617e-06
4.575e-06
4.61045e-06
4.64257e-06
4.67138e-06
4.69691e-06
4.71918e-06
4.7382e-06
4.75398e-06
4.76653e-06
4.77586e-06
4.78197e-06
4.78488e-06
4.7846e-06
4.78115e-06
4.77458e-06
4.76491e-06
4.7522e-06
4.73651e-06
4.7179e-06
4.69646e-06
4.67228e-06
4.64545e-06
4.61609e-06
4.58441e-06
4.55126e-06
4.51672e-06
4.48024e-06
4.44191e-06
4.40192e-06
4.36044e-06
4.31766e-06
4.27376e-06
4.22894e-06
4.18339e-06
4.13732e-06
4.09091e-06
4.04435e-06
3.99785e-06
3.95157e-06
3.90572e-06
3.86045e-06
3.81594e-06
3.77235e-06
3.72983e-06
3.68854e-06
3.6486e-06
3.61015e-06
3.57331e-06
3.53818e-06
3.50487e-06
3.47347e-06
3.44406e-06
3.41672e-06
3.39151e-06
3.36849e-06
3.3477e-06
3.32917e-06
3.31295e-06
3.29905e-06
3.28749e-06
3.27828e-06
3.27141e-06
3.26688e-06
3.26468e-06
3.26481e-06
3.26723e-06
3.27192e-06
3.27887e-06
3.28802e-06
3.29934e-06
3.3128e-06
3.32838e-06
3.34603e-06
3.36571e-06
3.38739e-06
3.41103e-06
3.43659e-06
3.46402e-06
3.49329e-06
3.52435e-06
3.55718e-06
3.59174e-06
3.62798e-06
3.66588e-06
3.7054e-06
3.74652e-06
3.78919e-06
3.83339e-06
3.8791e-06
3.92628e-06
3.9749e-06
4.02494e-06
4.07637e-06
4.12915e-06
4.18326e-06
4.23865e-06
4.29529e-06
4.35313e-06
4.41211e-06
4.47219e-06
4.5333e-06
4.59535e-06
4.65826e-06
4.72192e-06
4.78622e-06
4.85102e-06
4.91616e-06
4.98148e-06
5.04677e-06
5.11181e-06
5.17634e-06
5.2401e-06
5.30276e-06
5.36399e-06
5.42341e-06
5.48061e-06
5.53515e-06
5.58656e-06
5.63431e-06
5.67788e-06
5.71667e-06
5.7501e-06
5.77755e-06
5.79836e-06
5.81188e-06
5.81746e-06
5.81443e-06
5.80214e-06
5.77998e-06
5.7475e-06
5.70602e-06
5.65416e-06
5.59065e-06
5.51499e-06
5.42689e-06
5.32619e-06
5.21283e-06
5.08684e-06
4.94841e-06
4.79783e-06
4.63552e-06
4.46203e-06
4.27805e-06
4.08437e-06
3.88193e-06
3.67174e-06
3.45492e-06
3.23265e-06
3.00616e-06
2.77669e-06
2.54549e-06
2.31368e-06
2.08212e-06
1.84956e-06
1.62073e-06
1.39289e-06
1.16467e-06
9.34643e-07
7.07084e-07
4.70961e-07
2.28633e-07
4.47657e-08
1.51155e-07
7.41635e-06
1.64128e-05
2.2925e-05
2.80677e-05
3.23956e-05
3.61621e-05
3.94331e-05
4.23618e-05
4.50182e-05
4.74483e-05
4.96818e-05
5.17416e-05
5.36459e-05
5.54112e-05
5.70508e-05
5.85742e-05
5.99905e-05
6.13079e-05
6.25333e-05
6.3672e-05
6.47252e-05
6.56824e-05
6.65616e-05
6.73754e-05
6.81312e-05
6.88346e-05
6.94899e-05
7.01011e-05
7.06712e-05
7.12039e-05
7.17022e-05
7.21682e-05
7.26033e-05
7.30093e-05
7.33874e-05
7.37387e-05
7.40639e-05
7.43641e-05
7.46397e-05
7.48913e-05
7.51194e-05
7.53243e-05
7.55061e-05
7.56651e-05
7.58013e-05
7.59148e-05
7.60057e-05
7.60738e-05
7.61193e-05
7.61422e-05
7.61424e-05
7.61201e-05
7.60754e-05
7.60083e-05
7.59192e-05
7.58083e-05
7.56757e-05
7.55219e-05
7.53469e-05
7.51505e-05
7.4931e-05
7.46829e-05
7.44127e-05
7.41248e-05
7.38212e-05
7.35036e-05
7.31731e-05
7.28309e-05
7.24784e-05
7.21167e-05
7.17473e-05
7.13713e-05
7.09904e-05
7.06057e-05
7.02188e-05
6.9831e-05
6.94438e-05
6.90587e-05
6.86769e-05
6.83e-05
6.79292e-05
6.75659e-05
6.72115e-05
6.6867e-05
6.65338e-05
6.6213e-05
6.59057e-05
6.56128e-05
6.53353e-05
6.5074e-05
6.48298e-05
6.46034e-05
6.43953e-05
6.4206e-05
6.40361e-05
6.38858e-05
6.37553e-05
6.36449e-05
6.35547e-05
6.34846e-05
6.34346e-05
6.34045e-05
6.33941e-05
6.34032e-05
6.34315e-05
6.34786e-05
6.35443e-05
6.36279e-05
6.37292e-05
6.38476e-05
6.39826e-05
6.41336e-05
6.43003e-05
6.44819e-05
6.46782e-05
6.48884e-05
6.51121e-05
6.53489e-05
6.55981e-05
6.58593e-05
6.61321e-05
6.6416e-05
6.67106e-05
6.70154e-05
6.733e-05
6.7654e-05
6.79871e-05
6.83288e-05
6.86787e-05
6.90365e-05
6.94018e-05
6.97741e-05
7.01529e-05
7.05379e-05
7.09286e-05
7.13244e-05
7.17247e-05
7.21289e-05
7.25363e-05
7.29461e-05
7.33575e-05
7.37695e-05
7.41811e-05
7.4591e-05
7.49981e-05
7.54009e-05
7.57979e-05
7.61874e-05
7.65676e-05
7.69364e-05
7.72917e-05
7.76312e-05
7.79524e-05
7.82527e-05
7.85293e-05
7.87792e-05
7.89993e-05
7.91863e-05
7.93369e-05
7.94475e-05
7.95146e-05
7.95345e-05
7.95033e-05
7.94172e-05
7.92722e-05
7.90639e-05
7.8786e-05
7.84268e-05
7.79814e-05
7.74512e-05
7.68351e-05
7.61313e-05
7.53376e-05
7.4452e-05
7.34726e-05
7.23979e-05
7.12268e-05
6.99582e-05
6.85918e-05
6.71273e-05
6.55646e-05
6.39039e-05
6.21455e-05
6.02895e-05
5.8336e-05
5.62842e-05
5.41327e-05
5.18784e-05
4.95159e-05
4.70369e-05
4.44305e-05
4.16441e-05
3.86086e-05
3.51973e-05
3.11448e-05
2.58198e-05
1.87599e-05
8.6604e-06
2.00782e-07
1.51167e-07
7.41707e-06
1.64141e-05
2.29265e-05
2.80692e-05
3.23972e-05
3.61635e-05
3.94345e-05
4.23632e-05
4.50196e-05
4.74498e-05
4.96832e-05
5.1743e-05
5.36473e-05
5.54127e-05
5.70522e-05
5.85757e-05
5.99921e-05
6.13095e-05
6.25349e-05
6.36736e-05
6.47268e-05
6.56842e-05
6.65634e-05
6.73772e-05
6.81331e-05
6.88365e-05
6.94919e-05
7.01032e-05
7.06734e-05
7.12061e-05
7.17046e-05
7.21706e-05
7.26058e-05
7.30119e-05
7.33901e-05
7.37414e-05
7.40668e-05
7.4367e-05
7.46427e-05
7.48944e-05
7.51226e-05
7.53275e-05
7.55095e-05
7.56685e-05
7.58048e-05
7.59184e-05
7.60093e-05
7.60775e-05
7.6123e-05
7.61459e-05
7.61462e-05
7.61239e-05
7.60792e-05
7.60122e-05
7.59231e-05
7.58121e-05
7.56796e-05
7.55258e-05
7.53508e-05
7.51544e-05
7.49348e-05
7.46866e-05
7.44164e-05
7.41284e-05
7.38248e-05
7.35072e-05
7.31766e-05
7.28344e-05
7.24817e-05
7.212e-05
7.17505e-05
7.13745e-05
7.09934e-05
7.06086e-05
7.02216e-05
6.98338e-05
6.94465e-05
6.90613e-05
6.86794e-05
6.83024e-05
6.79315e-05
6.75682e-05
6.72136e-05
6.6869e-05
6.65358e-05
6.62148e-05
6.59074e-05
6.56144e-05
6.53368e-05
6.50755e-05
6.48312e-05
6.46046e-05
6.43964e-05
6.42071e-05
6.4037e-05
6.38866e-05
6.37561e-05
6.36456e-05
6.35554e-05
6.34852e-05
6.3435e-05
6.34049e-05
6.33944e-05
6.34035e-05
6.34317e-05
6.34787e-05
6.35443e-05
6.36279e-05
6.37291e-05
6.38474e-05
6.39824e-05
6.41334e-05
6.43e-05
6.44816e-05
6.46778e-05
6.4888e-05
6.51117e-05
6.53484e-05
6.55976e-05
6.58588e-05
6.61315e-05
6.64154e-05
6.67099e-05
6.70147e-05
6.73293e-05
6.76533e-05
6.79864e-05
6.83281e-05
6.8678e-05
6.90358e-05
6.9401e-05
6.97732e-05
7.01521e-05
7.05371e-05
7.09278e-05
7.13235e-05
7.17238e-05
7.2128e-05
7.25354e-05
7.29452e-05
7.33566e-05
7.37686e-05
7.41801e-05
7.45901e-05
7.49972e-05
7.54e-05
7.57969e-05
7.61864e-05
7.65665e-05
7.69353e-05
7.72906e-05
7.76301e-05
7.79514e-05
7.82517e-05
7.85283e-05
7.87781e-05
7.89982e-05
7.91852e-05
7.93358e-05
7.94465e-05
7.95135e-05
7.95334e-05
7.95022e-05
7.94161e-05
7.92712e-05
7.90629e-05
7.8785e-05
7.84259e-05
7.79805e-05
7.74503e-05
7.68343e-05
7.61305e-05
7.53369e-05
7.44513e-05
7.34719e-05
7.23972e-05
7.12261e-05
6.99576e-05
6.85912e-05
6.71267e-05
6.5564e-05
6.39034e-05
6.2145e-05
6.02891e-05
5.83355e-05
5.62838e-05
5.41323e-05
5.1878e-05
4.95156e-05
4.70366e-05
4.44302e-05
4.16438e-05
3.86084e-05
3.51971e-05
3.11447e-05
2.58196e-05
1.87598e-05
8.66038e-06
2.00781e-07
3.29914e-07
1.6131e-05
3.85211e-05
5.56509e-05
6.90693e-05
8.01312e-05
8.95093e-05
9.76413e-05
0.000104832
0.000111267
0.00011708
0.000122366
0.000127196
0.000131623
0.000135692
0.000139438
0.000142893
0.000146082
0.000149029
0.000151752
0.000154267
0.000156584
0.000158702
0.000160647
0.000162441
0.000164101
0.000165641
0.000167071
0.000168401
0.000169639
0.000170792
0.000171866
0.000172866
0.000173797
0.000174662
0.000175464
0.000176206
0.000176888
0.000177513
0.000178083
0.000178598
0.00017906
0.000179469
0.000179828
0.000180136
0.000180395
0.000180605
0.000180768
0.000180883
0.000180952
0.000180975
0.000180952
0.000180886
0.000180775
0.000180621
0.000180425
0.000180187
0.000179909
0.000179589
0.00017923
0.000178829
0.000178386
0.000177896
0.000177365
0.000176798
0.000176202
0.000175578
0.000174929
0.000174258
0.000173566
0.000172857
0.000172132
0.000171394
0.000170645
0.000169888
0.000169125
0.000168359
0.000167593
0.000166828
0.000166068
0.000165314
0.00016457
0.000163838
0.000163119
0.000162417
0.000161733
0.00016107
0.000160429
0.000159813
0.000159222
0.000158659
0.000158124
0.00015762
0.000157147
0.000156706
0.000156298
0.000155924
0.000155583
0.000155276
0.000155003
0.000154765
0.000154561
0.00015439
0.000154252
0.000154148
0.000154075
0.000154035
0.000154025
0.000154046
0.000154096
0.000154175
0.000154282
0.000154416
0.000154576
0.000154762
0.000154973
0.000155207
0.000155464
0.000155744
0.000156046
0.000156368
0.00015671
0.000157073
0.000157454
0.000157853
0.00015827
0.000158704
0.000159155
0.000159622
0.000160105
0.000160602
0.000161113
0.000161637
0.000162175
0.000162724
0.000163284
0.000163853
0.000164432
0.000165018
0.00016561
0.000166207
0.000166807
0.000167408
0.000168007
0.000168604
0.000169194
0.000169776
0.000170347
0.000170902
0.000171439
0.000171954
0.000172443
0.000172902
0.000173325
0.000173708
0.000174047
0.000174335
0.000174568
0.000174738
0.000174842
0.000174872
0.000174822
0.000174685
0.000174457
0.000174129
0.000173694
0.000173145
0.000172472
0.000171662
0.000170703
0.000169596
0.000168337
0.000166923
0.00016535
0.000163615
0.000161712
0.000159639
0.000157392
0.000154966
0.000152358
0.000149564
0.000146579
0.000143399
0.000140016
0.000136424
0.000132613
0.00012857
0.000124279
0.000119716
0.000114848
0.000109626
0.000103973
9.77526e-05
9.07494e-05
8.25825e-05
7.25754e-05
5.95597e-05
4.19182e-05
1.80789e-05
4.33976e-07
3.29932e-07
1.61322e-05
3.8524e-05
5.56546e-05
6.90733e-05
8.01353e-05
8.95133e-05
9.76452e-05
0.000104836
0.000111271
0.000117083
0.00012237
0.0001272
0.000131627
0.000135696
0.000139442
0.000142897
0.000146086
0.000149033
0.000151756
0.000154271
0.000156587
0.000158706
0.000160651
0.000162445
0.000164105
0.000165645
0.000167075
0.000168406
0.000169644
0.000170797
0.000171871
0.000172871
0.000173802
0.000174667
0.000175469
0.000176211
0.000176894
0.000177519
0.000178089
0.000178604
0.000179066
0.000179476
0.000179834
0.000180143
0.000180402
0.000180612
0.000180775
0.00018089
0.000180959
0.000180982
0.00018096
0.000180893
0.000180783
0.000180629
0.000180433
0.000180195
0.000179916
0.000179597
0.000179237
0.000178836
0.000178393
0.000177903
0.000177372
0.000176805
0.000176209
0.000175584
0.000174935
0.000174264
0.000173572
0.000172863
0.000172138
0.000171399
0.00017065
0.000169893
0.00016913
0.000168364
0.000167597
0.000166832
0.000166072
0.000165318
0.000164574
0.000163841
0.000163122
0.00016242
0.000161736
0.000161072
0.000160431
0.000159815
0.000159224
0.00015866
0.000158126
0.000157621
0.000157148
0.000156707
0.000156299
0.000155924
0.000155583
0.000155276
0.000155003
0.000154765
0.00015456
0.000154389
0.000154251
0.000154147
0.000154074
0.000154033
0.000154023
0.000154044
0.000154094
0.000154173
0.00015428
0.000154414
0.000154574
0.00015476
0.00015497
0.000155205
0.000155462
0.000155742
0.000156043
0.000156365
0.000156708
0.00015707
0.000157451
0.00015785
0.000158267
0.000158701
0.000159152
0.000159619
0.000160102
0.000160599
0.00016111
0.000161634
0.000162171
0.00016272
0.00016328
0.00016385
0.000164429
0.000165015
0.000165607
0.000166204
0.000166804
0.000167404
0.000168004
0.000168601
0.000169191
0.000169773
0.000170343
0.000170899
0.000171436
0.000171951
0.00017244
0.000172898
0.000173322
0.000173705
0.000174044
0.000174332
0.000174564
0.000174735
0.000174839
0.000174869
0.000174819
0.000174683
0.000174454
0.000174126
0.000173691
0.000173143
0.00017247
0.000171659
0.000170701
0.000169594
0.000168335
0.000166921
0.000165348
0.000163613
0.000161711
0.000159638
0.00015739
0.000154965
0.000152357
0.000149563
0.000146578
0.000143398
0.000140015
0.000136423
0.000132612
0.00012857
0.000124279
0.000119716
0.000114848
0.000109625
0.000103972
9.77524e-05
9.07493e-05
8.25824e-05
7.25753e-05
5.95596e-05
4.19182e-05
1.8079e-05
4.33973e-07
5.14737e-07
2.23914e-05
5.51417e-05
8.2005e-05
0.000103681
0.000121712
0.000137081
0.000150447
0.000162255
0.000172807
0.000182315
0.000190936
0.000198789
0.000205967
0.000212546
0.000218587
0.000224144
0.000229262
0.000233981
0.000238335
0.000242352
0.000246053
0.000249459
0.000252595
0.000255491
0.000258171
0.000260656
0.000262963
0.000265107
0.0002671
0.000268953
0.000270677
0.000272277
0.000273762
0.000275137
0.000276408
0.000277578
0.000278649
0.000279626
0.000280509
0.000281302
0.000282007
0.000282626
0.000283162
0.000283615
0.000283988
0.000284284
0.000284503
0.000284648
0.00028472
0.000284722
0.000284655
0.00028452
0.00028432
0.000284055
0.000283728
0.000283341
0.000282893
0.000282388
0.000281824
0.000281204
0.000280525
0.000279788
0.000278996
0.000278156
0.000277273
0.00027635
0.000275392
0.000274402
0.000273384
0.00027234
0.000271274
0.000270189
0.000269089
0.000267976
0.000266855
0.000265728
0.000264599
0.000263472
0.000262349
0.000261234
0.000260131
0.000259041
0.000257969
0.000256917
0.000255888
0.000254885
0.00025391
0.000252965
0.000252053
0.000251175
0.000250334
0.00024953
0.000248764
0.000248039
0.000247355
0.000246712
0.000246111
0.000245552
0.000245035
0.00024456
0.000244127
0.000243735
0.000243383
0.000243072
0.0002428
0.000242567
0.000242372
0.000242214
0.000242093
0.000242007
0.000241956
0.000241938
0.000241954
0.000242002
0.00024208
0.00024219
0.000242329
0.000242498
0.000242695
0.00024292
0.000243172
0.000243451
0.000243756
0.000244086
0.000244442
0.000244822
0.000245227
0.000245655
0.000246105
0.000246578
0.000247072
0.000247586
0.00024812
0.000248673
0.000249242
0.000249828
0.000250427
0.000251039
0.000251662
0.000252293
0.00025293
0.00025357
0.00025421
0.000254847
0.000255477
0.000256097
0.000256701
0.000257286
0.000257846
0.000258376
0.000258871
0.000259324
0.00025973
0.000260081
0.00026037
0.000260591
0.000260735
0.000260796
0.000260765
0.000260634
0.000260395
0.000260039
0.000259558
0.000258943
0.000258185
0.000257275
0.0002562
0.000254946
0.000253504
0.000251866
0.000250029
0.000247985
0.00024573
0.000243257
0.000240559
0.00023763
0.000234462
0.000231047
0.000227377
0.000223441
0.000219229
0.000214726
0.000209918
0.000204784
0.000199303
0.000193442
0.000187164
0.000180418
0.00017313
0.0001652
0.000156474
0.000146718
0.000135567
0.00012244
0.000106415
8.60625e-05
5.93402e-05
2.51502e-05
6.86997e-07
5.14758e-07
2.23927e-05
5.51453e-05
8.20099e-05
0.000103687
0.000121718
0.000137087
0.000150453
0.000162261
0.000172813
0.000182321
0.000190942
0.000198795
0.000205973
0.000212552
0.000218593
0.00022415
0.000229268
0.000233987
0.000238341
0.000242358
0.00024606
0.000249465
0.000252601
0.000255497
0.000258178
0.000260662
0.00026297
0.000265113
0.000267107
0.000268961
0.000270684
0.000272285
0.00027377
0.000275145
0.000276416
0.000277586
0.000278658
0.000279634
0.000280518
0.000281311
0.000282016
0.000282636
0.000283171
0.000283624
0.000283998
0.000284294
0.000284513
0.000284658
0.00028473
0.000284732
0.000284665
0.00028453
0.00028433
0.000284065
0.000283738
0.000283351
0.000282903
0.000282398
0.000281834
0.000281213
0.000280535
0.000279797
0.000279005
0.000278165
0.000277282
0.000276359
0.000275401
0.00027441
0.000273392
0.000272347
0.000271281
0.000270196
0.000269095
0.000267982
0.000266861
0.000265734
0.000264605
0.000263477
0.000262354
0.000261239
0.000260135
0.000259045
0.000257973
0.000256921
0.000255891
0.000254888
0.000253912
0.000252967
0.000252055
0.000251176
0.000250335
0.00024953
0.000248765
0.000248039
0.000247355
0.000246712
0.00024611
0.000245551
0.000245034
0.000244559
0.000244125
0.000243732
0.000243381
0.000243069
0.000242797
0.000242564
0.000242369
0.000242211
0.00024209
0.000242004
0.000241952
0.000241935
0.00024195
0.000241997
0.000242076
0.000242186
0.000242325
0.000242493
0.00024269
0.000242915
0.000243167
0.000243446
0.000243751
0.000244081
0.000244437
0.000244817
0.000245222
0.00024565
0.0002461
0.000246573
0.000247067
0.000247581
0.000248115
0.000248668
0.000249237
0.000249823
0.000250422
0.000251034
0.000251657
0.000252288
0.000252925
0.000253565
0.000254205
0.000254842
0.000255472
0.000256092
0.000256696
0.000257281
0.000257841
0.000258372
0.000258866
0.00025932
0.000259725
0.000260076
0.000260365
0.000260586
0.000260731
0.000260791
0.00026076
0.000260629
0.00026039
0.000260035
0.000259554
0.000258939
0.000258182
0.000257271
0.000256196
0.000254943
0.000253501
0.000251863
0.000250026
0.000247983
0.000245728
0.000243255
0.000240557
0.000237628
0.000234461
0.000231046
0.000227376
0.00022344
0.000219228
0.000214725
0.000209917
0.000204784
0.000199302
0.000193442
0.000187164
0.000180418
0.00017313
0.0001652
0.000156474
0.000146718
0.000135567
0.00012244
0.000106416
8.60628e-05
5.93404e-05
2.51504e-05
6.86993e-07
6.98304e-07
2.72796e-05
6.79078e-05
0.000102827
0.0001318
0.000156242
0.000177278
0.000195683
0.000211993
0.00022659
0.000239752
0.000251686
0.000262556
0.000272487
0.000281586
0.000289939
0.00029762
0.000304694
0.000311215
0.000317231
0.000322785
0.000327911
0.000332641
0.000337009
0.000341048
0.00034479
0.000348261
0.000351483
0.000354476
0.000357258
0.000359843
0.000362243
0.000364469
0.000366531
0.000368436
0.00037019
0.000371801
0.000373273
0.00037461
0.000375814
0.000376891
0.000377843
0.000378673
0.000379386
0.000379984
0.00038047
0.000380848
0.00038112
0.00038129
0.00038136
0.000381334
0.000381215
0.000381005
0.000380707
0.000380324
0.000379858
0.000379312
0.000378689
0.00037799
0.000377218
0.000376373
0.000375457
0.000374471
0.00037342
0.000372309
0.000371143
0.000369927
0.000368667
0.000367367
0.00036603
0.000364662
0.000363266
0.000361846
0.000360407
0.000358953
0.000357487
0.000356015
0.00035454
0.000353066
0.000351597
0.000350137
0.00034869
0.00034726
0.00034585
0.000344463
0.000343103
0.000341773
0.000340476
0.000339213
0.000337988
0.000336802
0.000335658
0.000334556
0.000333498
0.000332486
0.00033152
0.0003306
0.000329726
0.000328899
0.000328119
0.000327385
0.000326696
0.000326053
0.000325455
0.0003249
0.000324389
0.00032392
0.000323493
0.000323106
0.00032276
0.000322452
0.000322183
0.000321951
0.000321756
0.000321597
0.000321474
0.000321385
0.000321331
0.000321311
0.000321325
0.000321372
0.000321452
0.000321564
0.000321708
0.000321885
0.000322093
0.000322332
0.000322602
0.000322902
0.000323232
0.000323592
0.000323979
0.000324394
0.000324836
0.000325302
0.000325793
0.000326305
0.000326838
0.000327388
0.000327954
0.000328533
0.000329121
0.000329716
0.000330312
0.000330908
0.000331497
0.000332075
0.000332636
0.000333175
0.000333685
0.00033416
0.000334594
0.000334978
0.000335304
0.000335566
0.000335754
0.00033586
0.000335874
0.000335788
0.000335592
0.000335277
0.000334831
0.000334247
0.000333513
0.000332619
0.000331555
0.000330309
0.00032887
0.000327221
0.000325353
0.000323256
0.000320923
0.000318346
0.000315515
0.000312422
0.000309058
0.000305411
0.00030147
0.000297222
0.000292653
0.000287745
0.000282481
0.000276835
0.000270783
0.000264292
0.000257322
0.000249825
0.000241738
0.00023298
0.000223442
0.00021297
0.000201346
0.000188248
0.000173198
0.000155475
0.000134001
0.000107208
7.30605e-05
3.09802e-05
9.5393e-07
6.98326e-07
2.7281e-05
6.79116e-05
0.000102832
0.000131806
0.000156249
0.000177286
0.000195691
0.000212002
0.000226599
0.00023976
0.000251695
0.000262564
0.000272496
0.000281595
0.000289948
0.000297629
0.000304703
0.000311224
0.000317241
0.000322794
0.00032792
0.000332651
0.000337019
0.000341058
0.0003448
0.000348271
0.000351493
0.000354487
0.000357269
0.000359854
0.000362254
0.00036448
0.000366542
0.000368447
0.000370202
0.000371813
0.000373285
0.000374622
0.000375827
0.000376903
0.000377855
0.000378686
0.000379399
0.000379997
0.000380483
0.000380861
0.000381133
0.000381303
0.000381373
0.000381347
0.000381228
0.000381018
0.00038072
0.000380337
0.000379871
0.000379325
0.000378702
0.000378003
0.00037723
0.000376385
0.000375469
0.000374483
0.000373431
0.00037232
0.000371154
0.000369938
0.000368678
0.000367377
0.00036604
0.000364672
0.000363275
0.000361855
0.000360416
0.000358961
0.000357495
0.000356022
0.000354547
0.000353072
0.000351603
0.000350143
0.000348696
0.000347265
0.000345855
0.000344468
0.000343107
0.000341777
0.000340479
0.000339216
0.00033799
0.000336804
0.000335659
0.000334557
0.000333499
0.000332487
0.00033152
0.000330599
0.000329726
0.000328898
0.000328118
0.000327383
0.000326695
0.000326051
0.000325452
0.000324898
0.000324386
0.000323917
0.000323489
0.000323103
0.000322756
0.000322448
0.000322178
0.000321946
0.000321751
0.000321592
0.000321469
0.00032138
0.000321326
0.000321306
0.00032132
0.000321367
0.000321446
0.000321558
0.000321703
0.000321879
0.000322087
0.000322326
0.000322596
0.000322896
0.000323227
0.000323586
0.000323973
0.000324388
0.00032483
0.000325296
0.000325787
0.000326299
0.000326832
0.000327382
0.000327948
0.000328527
0.000329115
0.00032971
0.000330307
0.000330902
0.000331491
0.000332069
0.00033263
0.000333169
0.000333679
0.000334155
0.000334588
0.000334972
0.000335299
0.000335561
0.000335749
0.000335854
0.000335869
0.000335783
0.000335587
0.000335271
0.000334826
0.000334242
0.000333508
0.000332614
0.00033155
0.000330304
0.000328866
0.000327217
0.000325349
0.000323253
0.00032092
0.000318343
0.000315512
0.00031242
0.000309056
0.000305409
0.000301468
0.000297221
0.000292652
0.000287745
0.00028248
0.000276835
0.000270783
0.000264292
0.000257322
0.000249825
0.000241739
0.000232981
0.000223442
0.000212971
0.000201347
0.000188249
0.000173199
0.000155476
0.000134002
0.000107209
7.3061e-05
3.09806e-05
9.53923e-07
8.83298e-07
3.14001e-05
7.82949e-05
0.00011983
0.000155059
0.000185206
0.000211388
0.00023443
0.000254928
0.000273319
0.000289929
0.000305008
0.000318754
0.000331323
0.000342846
0.000353431
0.000363171
0.000372146
0.000380425
0.00038807
0.000395133
0.000401663
0.0004077
0.000413284
0.000418456
0.000423251
0.000427701
0.000431833
0.000435671
0.000439237
0.000442548
0.00044562
0.000448466
0.000451098
0.000453527
0.000455759
0.000457805
0.000459669
0.000461358
0.000462876
0.000464229
0.000465421
0.000466457
0.000467341
0.000468078
0.000468672
0.000469127
0.000469448
0.000469638
0.000469703
0.000469646
0.000469472
0.000469183
0.000468785
0.000468281
0.000467675
0.000466969
0.000466169
0.000465277
0.000464295
0.000463227
0.000462075
0.000460844
0.000459535
0.000458156
0.000456713
0.000455211
0.000453657
0.000452054
0.000450409
0.000448726
0.000447011
0.000445269
0.000443504
0.000441722
0.000439927
0.000438125
0.00043632
0.000434517
0.000432721
0.000430936
0.000429166
0.000427415
0.000425688
0.000423989
0.00042232
0.000420685
0.000419087
0.000417528
0.000416012
0.00041454
0.000413114
0.000411736
0.000410406
0.000409125
0.000407894
0.000406713
0.000405583
0.000404502
0.00040347
0.000402488
0.000401554
0.000400667
0.000399827
0.000399032
0.000398282
0.000397576
0.000396913
0.000396292
0.000395712
0.000395173
0.000394673
0.000394212
0.000393789
0.000393405
0.000393058
0.000392748
0.000392475
0.000392239
0.00039204
0.000391878
0.000391752
0.000391663
0.00039161
0.000391595
0.000391615
0.000391673
0.000391767
0.000391897
0.000392062
0.000392263
0.000392498
0.000392767
0.000393069
0.000393402
0.000393765
0.000394155
0.000394571
0.000395011
0.00039547
0.000395948
0.000396438
0.000396938
0.000397444
0.00039795
0.000398451
0.000398941
0.000399414
0.000399863
0.000400282
0.000400663
0.000400997
0.000401277
0.000401493
0.000401636
0.000401697
0.000401665
0.000401532
0.000401285
0.000400915
0.000400412
0.000399763
0.000398958
0.000397985
0.000396834
0.000395492
0.000393947
0.000392187
0.000390196
0.000387962
0.000385474
0.000382722
0.000379695
0.000376383
0.000372772
0.00036885
0.000364603
0.000360013
0.000355064
0.000349732
0.000343996
0.000337826
0.000331189
0.000324049
0.000316358
0.000308063
0.000299095
0.000289371
0.00027878
0.000267179
0.000254371
0.000240083
0.000223924
0.000205331
0.000183482
0.000157194
0.000124819
8.43673e-05
3.57598e-05
1.23241e-06
8.83323e-07
3.14015e-05
7.82987e-05
0.000119836
0.000155066
0.000185214
0.000211398
0.00023444
0.000254938
0.000273329
0.000289939
0.000305019
0.000318765
0.000331334
0.000342858
0.000353443
0.000363183
0.000372159
0.000380438
0.000388083
0.000395147
0.000401676
0.000407713
0.000413298
0.00041847
0.000423265
0.000427715
0.000431847
0.000435686
0.000439252
0.000442563
0.000445635
0.000448481
0.000451114
0.000453542
0.000455775
0.000457821
0.000459685
0.000461374
0.000462893
0.000464246
0.000465438
0.000466473
0.000467358
0.000468094
0.000468688
0.000469143
0.000469464
0.000469655
0.00046972
0.000469663
0.000469488
0.0004692
0.000468801
0.000468297
0.000467691
0.000466985
0.000466185
0.000465292
0.00046431
0.000463242
0.00046209
0.000460858
0.000459549
0.00045817
0.000456727
0.000455225
0.000453669
0.000452066
0.000450421
0.000448738
0.000447022
0.00044528
0.000443515
0.000441732
0.000439937
0.000438135
0.000436329
0.000434526
0.000432729
0.000430943
0.000429173
0.000427422
0.000425695
0.000423995
0.000422325
0.00042069
0.000419091
0.000417533
0.000416016
0.000414544
0.000413117
0.000411738
0.000410408
0.000409127
0.000407895
0.000406714
0.000405583
0.000404502
0.00040347
0.000402487
0.000401553
0.000400665
0.000399825
0.00039903
0.00039828
0.000397574
0.00039691
0.000396289
0.000395709
0.000395169
0.000394669
0.000394208
0.000393785
0.0003934
0.000393053
0.000392743
0.00039247
0.000392234
0.000392035
0.000391872
0.000391747
0.000391657
0.000391605
0.000391589
0.00039161
0.000391667
0.000391761
0.000391891
0.000392056
0.000392257
0.000392492
0.000392761
0.000393063
0.000393396
0.000393759
0.000394149
0.000394565
0.000395005
0.000395464
0.000395941
0.000396432
0.000396932
0.000397438
0.000397944
0.000398444
0.000398935
0.000399408
0.000399857
0.000400276
0.000400657
0.000400991
0.000401271
0.000401487
0.00040163
0.000401691
0.00040166
0.000401526
0.00040128
0.00040091
0.000400406
0.000399758
0.000398953
0.00039798
0.000396829
0.000395487
0.000393943
0.000392184
0.000390192
0.000387958
0.000385471
0.000382719
0.000379693
0.00037638
0.00037277
0.000368849
0.000364602
0.000360012
0.000355063
0.000349732
0.000343995
0.000337826
0.00033119
0.000324049
0.000316359
0.000308064
0.000299096
0.000289372
0.000278781
0.00026718
0.000254373
0.000240085
0.000223926
0.000205332
0.000183483
0.000157195
0.00012482
8.43681e-05
3.57603e-05
1.2324e-06
1.07477e-06
3.50074e-05
8.71116e-05
0.000134242
0.00017487
0.000210039
0.000240819
0.000268048
0.000292358
0.000314226
0.000334014
0.000352006
0.000368426
0.000383458
0.000397253
0.000409937
0.000421619
0.000432393
0.000442341
0.000451536
0.000460041
0.000467913
0.000475201
0.000481953
0.000488212
0.000494019
0.000499411
0.000504419
0.000509071
0.000513391
0.000517401
0.000521118
0.000524559
0.000527737
0.000530666
0.000533354
0.000535812
0.000538049
0.00054007
0.000541884
0.000543495
0.000544911
0.000546136
0.000547178
0.000548041
0.000548731
0.000549253
0.000549613
0.000549817
0.000549869
0.000549775
0.00054954
0.000549169
0.000548667
0.00054804
0.000547291
0.000546425
0.000545448
0.000544362
0.000543173
0.000541885
0.000540501
0.000539026
0.000537465
0.000535824