/*--------------------------------*- C++ -*----------------------------------*\
  =========                 |
  \\      /  F ield         | OpenFOAM: The Open Source CFD Toolbox
   \\    /   O peration     | Website:  https://openfoam.org
    \\  /    A nd           | Version:  8
     \\/     M anipulation  |
\*---------------------------------------------------------------------------*/
FoamFile
{
    version     2.0;
    format      ascii;
    class       volScalarField;
    location    "1600";
    object      epsilon;
}
// * * * * * * * * * * * * * * * * * * * * * * * * * * * * * * * * * * * * * //

dimensions      [0 2 -3 0 0 0 0];

internalField   nonuniform List<scalar> 
46000
(
0.573819
2.66807
5.74076
8.94382
12.1295
15.28
18.402
21.4958
24.5165
27.4552
30.3082
33.0671
35.7279
38.2928
40.755
43.1113
45.3652
47.5175
49.5693
51.5222
53.3779
55.1409
56.8471
58.4803
60.0305
61.4995
62.8903
64.2056
65.4485
66.623
67.7304
68.7705
69.7478
70.6636
71.5187
72.3147
73.0529
73.7343
74.3599
74.9306
75.447
75.9096
76.3189
76.6753
76.9789
77.23
77.4287
77.5751
77.6695
77.7121
77.7032
77.6431
77.5325
77.3721
77.1625
76.9048
76.6003
76.2501
75.8558
75.4189
74.9414
74.4267
73.8887
73.3282
72.7365
72.1154
71.4677
70.7961
70.1037
69.3937
68.669
67.933
67.1886
66.4391
65.6876
64.9371
64.1906
63.4512
62.7215
62.0044
61.3024
60.6181
59.9537
59.3115
58.6936
58.1019
57.5382
57.0041
56.5011
56.0305
55.5936
55.1913
54.8246
54.4942
54.2007
53.9446
53.7262
53.5458
53.4036
53.2994
53.2332
53.2051
53.2145
53.2613
53.345
53.4652
53.6214
53.8126
54.0388
54.2992
54.5934
54.9206
55.2803
55.6718
56.0945
56.5476
57.0306
57.5429
58.0838
58.6528
59.2493
59.8727
60.5225
61.1982
61.8994
62.6255
63.376
64.1506
64.9487
65.77
66.6138
67.4798
68.3675
69.2761
70.2051
71.1538
72.1212
73.1066
74.1088
75.1265
76.1584
77.2026
78.2574
79.3206
80.3895
81.4615
82.5332
83.601
84.6609
85.7083
86.7381
87.7449
88.7225
89.6642
90.5628
91.4106
92.1992
92.9197
93.5629
94.1189
94.5775
94.9282
95.1604
95.2631
95.2257
95.0374
94.6881
94.1705
93.5058
92.6715
91.647
90.4238
88.9972
87.3642
85.5237
83.4764
81.2247
78.7735
76.1293
73.301
70.2996
67.1379
63.8309
60.3951
56.8485
53.2102
49.5004
45.7391
41.9465
38.1413
34.3373
30.5142
26.7491
22.9979
19.2379
15.4455
11.69
7.79151
3.78581
0.823569
0.573858
2.66821
5.741
8.94411
12.1298
15.2803
18.4024
21.4961
24.5169
27.4556
30.3085
33.0675
35.7283
38.2931
40.7553
43.1116
45.3655
47.5178
49.5696
51.5224
53.3782
55.1412
56.8473
58.4805
60.0307
61.4998
62.8906
64.206
65.4489
66.6234
67.7308
68.7709
69.7482
70.6641
71.5192
72.3152
73.0534
73.7349
74.3605
74.9312
75.4476
75.9102
76.3196
76.676
76.9796
77.2307
77.4294
77.5759
77.6703
77.7129
77.704
77.644
77.5334
77.3729
77.1633
76.9057
76.6011
76.2509
75.8566
75.4197
74.9422
74.4274
73.8895
73.329
72.7373
72.1162
71.4683
70.7967
70.1044
69.3943
68.6696
67.9335
67.1891
66.4396
65.688
64.9375
64.191
63.4515
62.7218
62.0047
61.3027
60.6183
59.9539
59.3117
58.6937
58.102
57.5382
57.0041
56.5011
56.0305
55.5936
55.1913
54.8246
54.4941
54.2006
53.9444
53.726
53.5456
53.4034
53.2992
53.233
53.2048
53.2143
53.261
53.3447
53.4649
53.621
53.8123
54.0384
54.2988
54.593
54.9202
55.2799
55.6714
56.094
56.5472
57.0302
57.5424
58.0833
58.6523
59.2488
59.8722
60.522
61.1977
61.8989
62.6249
63.3755
64.1501
64.9482
65.7694
66.6133
67.4793
68.3669
69.2755
70.2045
71.1532
72.1207
73.106
74.1082
75.1259
76.1578
77.202
78.2568
79.32
80.3889
81.4609
82.5326
83.6004
84.6603
85.7077
86.7375
87.7443
88.7218
89.6636
90.5622
91.41
92.1986
92.9192
93.5623
94.1183
94.577
94.9277
95.1599
95.2627
95.2252
95.0369
94.6877
94.1701
93.5054
92.6711
91.6466
90.4235
88.9969
87.364
85.5235
83.4762
81.2246
78.7734
76.1292
73.3009
70.2995
67.1379
63.8309
60.3951
56.8485
53.2103
49.5004
45.7392
41.9465
38.1413
34.3373
30.5142
26.7492
22.9979
19.2379
15.4455
11.69
7.79153
3.78583
0.823571
2.96572
2.47039
3.50897
4.7218
5.95805
7.19098
8.41625
9.63547
10.837
12.0157
13.1702
14.2952
15.3881
16.4491
17.4765
18.4691
19.4264
20.3481
21.234
22.0839
22.8987
23.6805
24.4373
25.1655
25.8617
26.5251
27.1557
27.754
28.3205
28.8561
29.3612
29.8362
30.2825
30.6998
31.0882
31.4484
31.7811
32.0869
32.3661
32.6192
32.8467
33.0486
33.2254
33.3773
33.5044
33.6068
33.6848
33.7384
33.7677
33.7729
33.7543
33.712
33.6464
33.5578
33.4467
33.3136
33.1591
32.984
32.7891
32.5753
32.3441
32.0974
31.8394
31.57
31.2878
30.9933
30.6875
30.3717
30.0472
29.7155
29.378
29.0362
28.6915
28.3455
27.9995
27.6549
27.3132
26.9756
26.6434
26.3179
26.0002
25.6915
25.3927
25.1049
24.829
24.5658
24.3161
24.0806
23.86
23.6549
23.4658
23.293
23.1371
22.9984
22.8771
22.7734
22.6876
22.6197
22.5699
22.5381
22.5243
22.5286
22.5508
22.5908
22.6486
22.7239
22.8165
22.9262
23.0528
23.1962
23.356
23.5321
23.7241
23.9319
24.1551
24.3936
24.6469
24.915
25.1975
25.4941
25.8047
26.129
26.4667
26.8177
27.1817
27.5585
27.9478
28.3496
28.7635
29.1894
29.627
30.0762
30.5367
31.0081
31.4903
31.9829
32.4856
32.9979
33.5193
34.0493
34.5873
35.1325
35.6841
36.241
36.8021
37.3662
37.9318
38.4971
39.0604
39.6195
40.1721
40.7156
41.247
41.7631
42.2607
42.7358
43.1845
43.6024
43.9849
44.3272
44.6242
44.8706
45.061
45.19
45.252
45.2417
45.1545
44.987
44.7416
44.4119
43.99
43.4709
42.8511
42.1284
41.3017
40.3707
39.3363
38.2005
36.9663
35.6379
34.2206
32.7207
31.1456
29.5035
27.8034
26.0549
24.268
22.4528
20.6194
18.7772
16.9343
15.0958
13.2749
11.4691
9.69106
7.96475
6.31998
4.7616
3.44869
3.99595
2.9659
2.47033
3.50881
4.72159
5.95779
7.19068
8.41593
9.63512
10.8366
12.0153
13.1697
14.2947
15.3876
16.4486
17.4759
18.4684
19.4257
20.3474
21.2332
22.0832
22.8979
23.6797
24.4364
25.1645
25.8607
26.524
27.1546
27.7528
28.3193
28.8549
29.3599
29.8349
30.2811
30.6983
31.0866
31.4468
31.7795
32.0852
32.3644
32.6174
32.8448
33.0467
33.2235
33.3753
33.5023
33.6047
33.6827
33.7362
33.7655
33.7707
33.7521
33.7098
33.6441
33.5555
33.4444
33.3113
33.1568
32.9817
32.7868
32.573
32.3418
32.0951
31.8371
31.5678
31.2856
30.9912
30.6854
30.3696
30.0451
29.7135
29.376
29.0342
28.6896
28.3436
27.9977
27.6531
27.3115
26.9739
26.6418
26.3163
25.9987
25.69
25.3913
25.1035
24.8276
24.5645
24.3149
24.0794
23.8589
23.6538
23.4647
23.292
23.1362
22.9975
22.8762
22.7726
22.6868
22.619
22.5691
22.5374
22.5236
22.528
22.5502
22.5903
22.648
22.7233
22.816
22.9257
23.0524
23.1958
23.3556
23.5317
23.7238
23.9316
24.1548
24.3933
24.6467
24.9147
25.1972
25.4939
25.8045
26.1288
26.4665
26.8175
27.1815
27.5583
27.9477
28.3495
28.7634
29.1893
29.627
30.0761
30.5366
31.0081
31.4903
31.9829
32.4856
32.9979
33.5193
34.0494
34.5874
35.1326
35.6841
36.241
36.8022
37.3663
37.9319
38.4973
39.0606
39.6197
40.1723
40.7158
41.2472
41.7634
42.2609
42.7361
43.1848
43.6027
43.9852
44.3275
44.6245
44.871
45.0614
45.1904
45.2524
45.2422
45.1549
44.9875
44.7421
44.4124
43.9905
43.4713
42.8516
42.1289
41.3022
40.3712
39.3368
38.201
36.9667
35.6383
34.221
32.7211
31.146
29.5039
27.8038
26.0553
24.2683
22.4531
20.6197
18.7774
16.9345
15.096
13.275
11.4693
9.69118
7.96484
6.32005
4.76164
3.44869
3.99593
6.34784
3.62445
3.86771
4.52
5.28009
6.08003
6.89719
7.72033
8.54195
9.35494
10.1564
10.9433
11.7134
12.4652
13.1974
13.9087
14.5983
15.2656
15.91
16.5313
17.1298
17.7062
18.2627
18.7983
19.3117
19.8021
20.2692
20.7129
21.1334
21.5309
21.9057
22.258
22.5883
22.8967
23.1837
23.4491
23.6934
23.9169
24.1201
24.3033
24.4668
24.6109
24.7359
24.842
24.9293
24.998
25.0483
25.0803
25.094
25.0897
25.0675
25.0277
24.9704
24.896
24.8048
24.6972
24.5738
24.435
24.2817
24.1145
23.9344
23.7429
23.5414
23.3307
23.1107
22.8819
22.645
22.401
22.1508
21.8956
21.6364
21.3743
21.1104
20.8459
20.5818
20.3192
20.0591
19.8026
19.5506
19.3041
19.064
18.8311
18.6062
18.3901
18.1834
17.9869
17.8011
17.6266
17.464
17.3135
17.1758
17.0511
16.9397
16.842
16.7582
16.6884
16.6328
16.5915
16.5647
16.5525
16.5547
16.5714
16.6027
16.6483
16.7084
16.7827
16.8712
16.9737
17.0902
17.2204
17.3642
17.5215
17.6921
17.8757
18.0723
18.2816
18.5035
18.7378
18.9842
19.2426
19.5128
19.7947
20.0879
20.3925
20.7081
21.0347
21.372
21.7198
22.0781
22.4466
22.8252
23.2136
23.6117
24.0193
24.436
24.8618
25.2962
25.7389
26.1897
26.6479
27.1131
27.5848
28.0622
28.5447
29.0312
29.5208
30.0123
30.5044
30.9956
31.4842
31.9684
32.4461
32.9149
33.3723
33.8155
34.2414
34.6469
35.0283
35.382
35.7039
35.9898
36.2355
36.4365
36.5882
36.6861
36.7259
36.7036
36.616
36.461
36.2347
35.9324
35.5502
35.0854
34.536
33.9007
33.1793
32.3725
31.4817
30.5094
29.459
28.3348
27.1421
25.8868
24.5758
23.2165
21.8167
20.3848
18.9294
17.4592
15.9832
14.5102
13.0492
11.6116
10.2086
8.85762
7.58421
6.43082
5.49346
5.14547
8.52268
6.34812
3.6243
3.86744
4.51969
5.27975
6.07968
6.89682
7.71995
8.54154
9.35452
10.156
10.9428
11.7129
12.4647
13.1968
13.9082
14.5978
15.265
15.9094
16.5307
17.1291
17.7055
18.262
18.7976
19.3109
19.8013
20.2684
20.7121
21.1326
21.53
21.9048
22.257
22.5873
22.8957
23.1826
23.448
23.6922
23.9157
24.1188
24.302
24.4654
24.6095
24.7345
24.8405
24.9278
24.9965
25.0468
25.0787
25.0924
25.0881
25.0659
25.026
24.9688
24.8943
24.8031
24.6956
24.5721
24.4334
24.28
24.1128
23.9328
23.7413
23.5398
23.3291
23.1091
22.8804
22.6435
22.3995
22.1494
21.8942
21.6351
21.373
21.1092
20.8447
20.5806
20.3181
20.058
19.8016
19.5496
19.3032
19.0631
18.8302
18.6053
18.3892
18.1826
17.9862
17.8004
17.626
17.4633
17.313
17.1752
17.0506
16.9393
16.8416
16.7577
16.688
16.6324
16.5912
16.5644
16.5522
16.5544
16.5712
16.6025
16.6482
16.7082
16.7826
16.8711
16.9737
17.0901
17.2203
17.3642
17.5215
17.6921
17.8757
18.0724
18.2817
18.5036
18.7379
18.9843
19.2427
19.513
19.7948
20.0881
20.3927
20.7083
21.0349
21.3722
21.72
22.0783
22.4469
22.8254
23.2139
23.612
24.0195
24.4363
24.8621
25.2965
25.7393
26.19
26.6482
27.1135
27.5852
28.0626
28.5451
29.0316
29.5212
30.0127
30.5048
30.996
31.4847
31.9689
32.4466
32.9154
33.3728
33.816
34.242
34.6474
35.0289
35.3825
35.7044
35.9904
36.2361
36.4371
36.5888
36.6867
36.7265
36.7042
36.6165
36.4616
36.2353
35.9329
35.5507
35.0859
34.5364
33.9012
33.1798
32.3729
31.4821
30.5098
29.4593
28.3351
27.1424
25.8871
24.5761
23.2167
21.8169
20.385
18.9296
17.4594
15.9834
14.5103
13.0494
11.6117
10.2087
8.85769
7.58426
6.43086
5.49347
5.14544
8.52266
9.77056
4.9331
4.60692
4.94246
5.46634
6.06806
6.7073
7.36484
8.03012
8.69594
9.35763
10.0117
10.6554
11.2868
11.9044
12.5067
13.0928
13.6618
14.2131
14.7465
15.2617
15.759
16.239
16.7012
17.1449
17.5694
17.9743
18.3594
18.7247
19.07
19.3955
19.7012
19.9874
20.2541
20.5016
20.7301
20.9396
21.1303
21.3025
21.4567
21.593
21.7118
21.8134
21.8979
21.9658
22.0171
22.052
22.0708
22.0737
22.0608
22.0323
21.9886
21.9298
21.8562
21.7683
21.6664
21.5509
21.4224
21.2815
21.1289
20.9655
20.792
20.6096
20.4189
20.2204
20.0146
19.8021
19.5837
19.3603
19.1327
18.9019
18.6689
18.4347
18.2
17.966
17.7336
17.5036
17.277
17.0546
16.8372
16.6257
16.4207
16.2231
16.0334
15.8523
15.6804
15.5183
15.3664
15.2252
15.0951
14.9766
14.8699
14.7753
14.6932
14.6238
14.5672
14.5236
14.4933
14.4762
14.4724
14.482
14.5051
14.5415
14.5914
14.6546
14.7311
14.8209
14.9237
15.0397
15.1686
15.3103
15.4647
15.6318
15.8112
16.0029
16.2068
16.4227
16.6504
16.8898
17.1406
17.4029
17.6763
17.9607
18.2561
18.5621
18.8787
19.2057
19.5429
19.8902
20.2475
20.6144
20.991
21.3769
21.772
22.1761
22.5888
23.01
23.4393
23.8764
24.3208
24.7721
25.2298
25.6931
26.1615
26.634
27.1098
27.5876
28.0665
28.5448
29.0212
29.4937
29.9606
30.4197
30.8685
31.3046
31.725
32.1268
32.5066
32.8609
33.1862
33.4785
33.7337
33.9478
34.1165
34.2357
34.3013
34.3095
34.2569
34.1407
33.9571
33.7026
33.3741
32.9691
32.4858
31.9233
31.2812
30.5601
29.7614
28.8873
27.941
26.9261
25.8476
24.7106
23.5212
22.2861
21.0125
19.7079
18.3805
17.0388
15.6919
14.3499
13.0241
11.7282
10.4794
9.30129
8.22932
7.32585
6.73933
7.0942
13.3825
9.77086
4.9329
4.60661
4.94212
5.46598
6.06769
6.70692
7.36445
8.02972
8.69554
9.35721
10.0112
10.655
11.2864
11.9039
12.5062
13.0923
13.6613
14.2126
14.7459
15.2611
15.7584
16.2384
16.7006
17.1442
17.5687
17.9736
18.3587
18.7239
19.0692
19.3946
19.7004
19.9865
20.2532
20.5007
20.7291
20.9386
21.1293
21.3015
21.4556
21.5919
21.7107
21.8122
21.8968
21.9646
22.0159
22.0508
22.0696
22.0724
22.0595
22.0311
21.9873
21.9285
21.855
21.767
21.6651
21.5496
21.4212
21.2803
21.1277
20.9642
20.7908
20.6084
20.4178
20.2193
20.0135
19.801
19.5826
19.3592
19.1317
18.901
18.668
18.4338
18.1992
17.9652
17.7328
17.5028
17.2763
17.0539
16.8365
16.625
16.4201
16.2225
16.0328
15.8518
15.6799
15.5178
15.3659
15.2248
15.0947
14.9762
14.8696
14.775
14.693
14.6235
14.567
14.5234
14.4931
14.476
14.4723
14.4819
14.505
14.5415
14.5914
14.6546
14.7311
14.8209
14.9238
15.0397
15.1686
15.3104
15.4648
15.6319
15.8113
16.0031
16.207
16.4229
16.6506
16.8899
17.1408
17.4031
17.6765
17.961
18.2563
18.5624
18.879
19.206
19.5432
19.8905
20.2478
20.6148
20.9913
21.3772
21.7724
22.1764
22.5892
23.0104
23.4397
23.8768
24.3212
24.7726
25.2302
25.6936
26.1619
26.6345
27.1102
27.5881
28.0669
28.5453
29.0217
29.4943
29.9612
30.4202
30.8691
31.3051
31.7256
32.1273
32.5071
32.8615
33.1868
33.479
33.7343
33.9483
34.1171
34.2363
34.3019
34.3101
34.2575
34.1412
33.9576
33.7031
33.3746
32.9695
32.4862
31.9237
31.2815
30.5604
29.7617
28.8876
27.9412
26.9264
25.8478
24.7108
23.5214
22.2863
21.0127
19.7081
18.3806
17.0389
15.692
14.3499
13.0241
11.7282
10.4794
9.3013
8.22933
7.32584
6.73931
7.09413
13.3824
13.125
6.28613
5.4808
5.58039
5.94462
6.42068
6.95355
7.5173
8.09758
8.68535
9.27454
9.86082
10.441
11.0125
11.5736
12.1226
12.6586
13.1804
13.6876
14.1794
14.6558
15.1166
15.5619
15.9913
16.404
16.7996
17.1776
17.5377
17.8795
18.2029
18.5078
18.794
19.0617
19.3107
19.5412
19.7532
19.9469
20.1224
20.2797
20.4191
20.541
20.6458
20.7336
20.8049
20.8599
20.899
20.9223
20.9303
20.9231
20.9011
20.8645
20.8138
20.7491
20.6709
20.5795
20.4754
20.359
20.2309
20.0916
19.9418
19.7822
19.6135
19.4366
19.2523
19.0608
18.8629
18.6591
18.4502
18.237
18.0201
17.8006
17.5792
17.3568
17.1344
16.9127
16.6926
16.475
16.2606
16.0504
15.8449
15.6451
15.4516
15.265
15.086
14.9152
14.7532
14.6005
14.4575
14.3248
14.2026
14.0915
13.9918
13.9037
13.8275
13.7635
13.712
13.673
13.6467
13.6332
13.6326
13.645
13.6704
13.7089
13.7604
13.8249
13.9025
13.993
14.0964
14.2126
14.3416
14.4832
14.6374
14.8041
14.9831
15.1743
15.3776
15.5929
15.8199
16.0587
16.3089
16.5706
16.8435
17.1275
17.4224
17.7281
18.0445
18.3713
18.7085
19.0558
19.4132
19.7804
20.1573
20.5437
20.9393
21.344
21.7575
22.1796
22.6098
23.0479
23.4934
23.9459
24.4048
24.8695
25.3394
25.8135
26.2909
26.7707
27.2515
27.7321
28.2109
28.6862
29.156
29.6184
30.071
30.5112
30.9364
31.3435
31.7295
32.0908
32.424
32.7253
32.9909
33.2167
33.3989
33.5333
33.6162
33.6437
33.6124
33.5193
33.361
33.1343
32.8366
32.4657
32.02
31.4988
30.9017
30.2294
29.4831
28.6648
27.7774
26.8243
25.8096
24.7382
23.6155
22.4474
21.2404
20.0016
18.7387
17.4602
16.1757
14.8961
13.6348
12.4082
11.2377
10.1534
9.20128
8.46642
8.15955
9.14328
18.4854
13.1254
6.28588
5.48047
5.58003
5.94425
6.4203
6.95316
7.51691
8.09718
8.68494
9.27412
9.86038
10.4405
11.012
11.5731
12.1221
12.6581
13.1799
13.687
14.1789
14.6552
15.116
15.5613
15.9906
16.4033
16.7989
17.1769
17.5369
17.8787
18.2021
18.507
18.7932
19.0608
19.3098
19.5403
19.7523
19.946
20.1214
20.2787
20.4181
20.54
20.6448
20.7326
20.8039
20.8589
20.8979
20.9213
20.9292
20.922
20.9
20.8634
20.8127
20.748
20.6698
20.5784
20.4743
20.3579
20.2298
20.0905
19.9407
19.7811
19.6125
19.4357
19.2513
19.0599
18.862
18.6582
18.4494
18.2361
18.0193
17.7998
17.5784
17.3561
17.1337
16.912
16.6919
16.4743
16.26
16.0498
15.8444
15.6446
15.4511
15.2645
15.0856
14.9148
14.7528
14.6001
14.4572
14.3244
14.2024
14.0913
13.9915
13.9035
13.8273
13.7634
13.7118
13.6728
13.6466
13.6331
13.6325
13.645
13.6704
13.7089
13.7604
13.8249
13.9025
13.993
14.0964
14.2127
14.3417
14.4833
14.6375
14.8042
14.9832
15.1744
15.3778
15.593
15.8201
16.0588
16.3091
16.5708
16.8437
17.1277
17.4226
17.7283
18.0447
18.3716
18.7088
19.0561
19.4135
19.7807
20.1576
20.544
20.9397
21.3444
21.7579
22.1799
22.6102
23.0482
23.4938
23.9463
24.4052
24.8699
25.3398
25.8139
26.2914
26.7711
27.252
27.7326
28.2114
28.6866
29.1565
29.6189
30.0715
30.5117
30.9369
31.344
31.73
32.0913
32.4245
32.7258
32.9914
33.2173
33.3994
33.5338
33.6167
33.6442
33.6129
33.5198
33.3614
33.1347
32.837
32.466
32.0204
31.4991
30.902
30.2296
29.4833
28.665
27.7776
26.8244
25.8098
24.7383
23.6156
22.4475
21.2404
20.0016
18.7387
17.4602
16.1757
14.8961
13.6348
12.4082
11.2377
10.1533
9.20123
8.46637
8.15949
9.14315
18.4853
16.4777
7.68437
6.44358
6.34446
6.58336
6.96761
7.42751
7.93033
8.45797
8.99929
9.54681
10.0953
10.6409
11.1807
11.7125
12.2346
12.7458
13.245
13.7314
14.2045
14.6638
15.1092
15.5404
15.957
16.3583
16.7438
17.1129
17.4651
17.8
18.1172
18.4164
18.6974
18.96
19.204
19.4294
19.6361
19.8241
19.9935
20.1443
20.2768
20.3911
20.4878
20.567
20.6293
20.675
20.7044
20.7179
20.7161
20.6991
20.6675
20.6217
20.562
20.4889
20.4027
20.3041
20.1934
20.0712
19.9379
19.7943
19.6408
19.4782
19.3073
19.1286
18.943
18.7509
18.5528
18.3495
18.1415
17.9296
17.7145
17.4971
17.2781
17.0583
16.8386
16.6198
16.4026
16.188
15.9766
15.7692
15.5665
15.3694
15.1783
14.9941
14.8173
14.6484
14.4881
14.3369
14.1952
14.0635
13.9422
13.8317
13.7323
13.6444
13.5683
13.5042
13.4523
13.4127
13.3858
13.3715
13.37
13.3813
13.4056
13.4429
13.4931
13.5563
13.6325
13.7217
13.8238
13.9387
14.0665
14.207
14.3601
14.5258
14.704
14.8945
15.0973
15.3122
15.5391
15.7779
16.0284
16.2905
16.5641
16.849
17.1451
17.4523
17.7703
18.0991
18.4385
18.7883
19.1484
19.5186
19.8987
20.2886
20.6879
21.0965
21.5142
21.9406
22.3753
22.8182
23.2686
23.7262
24.1903
24.6604
25.1358
25.6155
26.0986
26.5842
27.0709
27.5574
28.0421
28.5235
28.9995
29.468
29.9269
30.3736
30.8053
31.2192
31.6121
31.9808
32.3217
32.6313
32.9057
33.1413
33.334
33.4802
33.576
33.6178
33.6024
33.5265
33.3871
33.1815
32.9072
32.5624
32.1458
31.6566
31.0947
30.4606
29.7555
28.9811
28.14
27.235
26.27
25.2489
24.1765
23.0579
21.8991
20.7064
19.4871
18.2497
17.004
15.7618
14.538
13.3515
12.2278
11.2029
10.3344
9.73115
9.67025
11.2772
23.7894
16.478
7.68408
6.44321
6.34407
6.58297
6.96721
7.42711
7.92991
8.45755
8.99885
9.54636
10.0948
10.6404
11.1802
11.712
12.2341
12.7453
13.2444
13.7308
14.2038
14.6632
15.1085
15.5397
15.9563
16.3576
16.7431
17.1121
17.4643
17.7992
18.1164
18.4156
18.6966
18.9592
19.2032
19.4285
19.6352
19.8231
19.9925
20.1434
20.2758
20.3902
20.4868
20.566
20.6283
20.6739
20.7033
20.7169
20.715
20.6981
20.6665
20.6206
20.561
20.4878
20.4017
20.3031
20.1924
20.0702
19.9369
19.7933
19.6399
19.4773
19.3064
19.1277
18.9421
18.75
18.552
18.3487
18.1407
17.9288
17.7138
17.4964
17.2774
17.0576
16.838
16.6191
16.402
16.1874
15.976
15.7687
15.566
15.3689
15.1779
14.9937
14.8169
14.6481
14.4878
14.3366
14.1949
14.0632
13.9419
13.8314
13.7321
13.6442
13.5681
13.504
13.4521
13.4126
13.3857
13.3714
13.3699
13.3813
13.4055
13.4428
13.493
13.5563
13.6325
13.7217
13.8238
13.9387
14.0665
14.207
14.3602
14.5259
14.7041
14.8946
15.0974
15.3123
15.5392
15.778
16.0286
16.2907
16.5643
16.8492
17.1453
17.4525
17.7705
18.0993
18.4387
18.7886
19.1487
19.5189
19.899
20.2888
20.6882
21.0968
21.5145
21.9409
22.3757
22.8185
23.2689
23.7265
24.1907
24.6608
25.1361
25.6159
26.099
26.5846
27.0713
27.5578
28.0426
28.5239
28.9999
29.4685
29.9274
30.374
30.8057
31.2196
31.6126
31.9812
32.3222
32.6317
32.9062
33.1417
33.3345
33.4806
33.5764
33.6182
33.6027
33.5269
33.3875
33.1818
32.9075
32.5627
32.1461
31.6569
31.0949
30.4608
29.7556
28.9813
28.1401
27.2351
26.27
25.2489
24.1765
23.058
21.8991
20.7064
19.4871
18.2497
17.0039
15.7618
14.5379
13.3515
12.2277
11.2028
10.3343
9.73105
9.67015
11.277
23.7893
19.9294
9.15229
7.48898
7.20902
7.34084
7.65212
8.05788
8.51836
9.01172
9.52459
10.0481
10.5761
11.104
11.6286
12.1472
12.6581
13.1598
13.6511
14.1312
14.5995
15.0555
15.4988
15.9291
16.3457
16.7481
17.1356
17.5075
17.8631
18.2019
18.5234
18.827
19.1123
19.3789
19.6264
19.8547
20.0635
20.2528
20.4224
20.5726
20.7032
20.8147
20.9073
20.9814
21.0376
21.0761
21.0977
21.1027
21.0916
21.065
21.0234
20.9674
20.8974
20.8139
20.7176
20.609
20.4886
20.357
20.2148
20.0626
19.901
19.7308
19.5526
19.367
19.1749
18.9766
18.7728
18.5641
18.3511
18.1344
17.9149
17.6933
17.4702
17.2466
17.0232
16.8007
16.5799
16.3616
16.1466
15.9356
15.7293
15.5284
15.3335
15.1454
14.9645
14.7915
14.627
14.4714
14.3252
14.189
14.063
13.9478
13.8438
13.7511
13.6702
13.6013
13.5445
13.5001
13.4683
13.4491
13.4428
13.4493
13.4689
13.5015
13.5472
13.6059
13.6778
13.7628
13.8608
13.9718
14.0959
14.2329
14.3827
14.5453
14.7206
14.9085
15.1088
15.3216
15.5467
15.7839
16.0331
16.2942
16.5671
16.8517
17.1477
17.4552
17.7738
18.1035
18.4441
18.7955
19.1574
19.5298
19.9124
20.305
20.7074
21.1194
21.5407
21.9709
22.4098
22.8569
23.3119
23.7742
24.2432
24.7182
25.1987
25.6835
26.172
26.6628
27.1548
27.6467
28.1368
28.6234
29.1047
29.5785
30.0426
30.4944
30.9314
31.3505
31.7489
32.1231
32.4699
32.7857
33.0669
33.3099
33.5109
33.6663
33.7725
33.8262
33.8242
33.7633
33.641
33.4547
33.2023
32.8823
32.4935
32.0352
31.5074
30.9106
30.2458
29.5144
28.7185
27.8606
26.9436
25.971
24.9466
23.8748
22.7605
21.6096
20.4287
19.2261
18.0116
16.7979
15.6011
14.4423
13.3507
12.3684
11.5644
11.0723
11.2367
13.4597
29.1071
19.9298
9.15194
7.48857
7.20861
7.34042
7.65169
8.05745
8.51791
9.01127
9.52412
10.0476
10.5756
11.1035
11.628
12.1467
12.6576
13.1592
13.6505
14.1306
14.5988
15.0548
15.4981
15.9283
16.345
16.7474
17.1348
17.5066
17.8623
18.2011
18.5225
18.8261
19.1114
19.3779
19.6255
19.8537
20.0625
20.2518
20.4214
20.5716
20.7022
20.8136
20.9062
20.9804
21.0365
21.0751
21.0966
21.1016
21.0906
21.064
21.0224
20.9663
20.8963
20.8129
20.7166
20.608
20.4876
20.356
20.2138
20.0617
19.9001
19.7299
19.5517
19.3662
19.174
18.9758
18.772
18.5633
18.3503
18.1337
17.9142
17.6926
17.4696
17.246
17.0225
16.8001
16.5793
16.3611
16.1461
15.9351
15.7288
15.5279
15.3331
15.1449
14.9641
14.7911
14.6266
14.471
14.3249
14.1887
14.0627
13.9476
13.8435
13.7509
13.67
13.6011
13.5443
13.4999
13.4681
13.449
13.4426
13.4492
13.4688
13.5014
13.5471
13.6059
13.6778
13.7627
13.8608
13.9718
14.0959
14.2329
14.3827
14.5453
14.7206
14.9085
15.1089
15.3217
15.5467
15.784
16.0332
16.2943
16.5673
16.8518
17.1479
17.4553
17.7739
18.1037
18.4443
18.7957
19.1576
19.53
19.9126
20.3052
20.7077
21.1196
21.5409
21.9712
22.41
22.8572
23.3122
23.7744
24.2434
24.7185
25.1989
25.6839
26.1723
26.6631
27.1552
27.647
28.1371
28.6237
29.105
29.5788
30.0429
30.4948
30.9317
31.3509
31.7492
32.1235
32.4703
32.7861
33.0673
33.3103
33.5113
33.6666
33.7729
33.8265
33.8245
33.7636
33.6413
33.4549
33.2026
32.8825
32.4937
32.0354
31.5076
30.9107
30.2459
29.5144
28.7185
27.8606
26.9436
25.971
24.9466
23.8747
22.7605
21.6095
20.4287
19.226
18.0116
16.7978
15.601
14.4422
13.3505
12.3683
11.5643
11.0721
11.2366
13.4595
29.1071
23.5205
10.7054
8.61939
8.16612
8.20202
8.45217
8.81587
9.24616
9.71734
10.2138
10.7252
11.2444
11.7663
12.2871
12.804
13.3148
13.818
14.3123
14.7967
15.2707
15.7335
16.1848
16.6241
17.0507
17.4638
17.8625
18.2463
18.6142
18.9655
19.2994
19.6152
19.9123
20.19
20.4478
20.6854
20.9022
21.0983
21.2733
21.4272
21.5602
21.6724
21.7641
21.8359
21.8882
21.9215
21.9365
21.9338
21.914
21.8778
21.8258
21.7587
21.6772
21.5819
21.4735
21.3526
21.2199
21.076
20.9217
20.7575
20.5841
20.4023
20.2127
20.0161
19.813
19.6041
19.3899
19.1709
18.9479
18.7215
18.4924
18.2613
18.029
17.7961
17.5635
17.3319
17.102
16.8747
16.6506
16.4305
16.215
16.0049
15.8008
15.6033
15.4131
15.2307
15.0567
14.8916
14.7359
14.5901
14.4547
14.3301
14.2166
14.1146
14.0243
13.946
13.88
13.8265
13.7856
13.7576
13.7424
13.7403
13.7514
13.7756
13.8131
13.8639
13.9279
14.0053
14.096
14.1999
14.317
14.4474
14.5908
14.7473
14.9167
15.0991
15.2942
15.502
15.7224
15.9552
16.2005
16.4579
16.7275
17.009
17.3024
17.6075
17.9242
18.2522
18.5915
18.942
19.3033
19.6754
20.058
20.4509
20.854
21.2669
21.6893
22.121
22.5615
23.0106
23.4676
23.9321
24.4035
24.8811
25.3642
25.8518
26.343
26.8366
27.3314
27.826
28.3188
28.8081
29.292
29.7683
30.2349
30.6893
31.1288
31.5505
31.9516
32.3288
32.6789
32.9984
33.2841
33.5322
33.7395
33.9023
34.0175
34.0818
34.0922
34.046
33.9408
33.7744
33.545
33.2512
32.8921
32.4672
31.9764
31.42
30.7989
30.1142
29.3675
28.5605
27.6957
26.7754
25.8027
24.781
23.7143
22.6076
21.4669
20.3
19.1168
17.9303
16.7577
15.6223
14.5564
13.6085
12.8585
12.4645
12.8377
15.6475
34.3694
23.5209
10.705
8.61895
8.16567
8.20157
8.45171
8.81541
9.24568
9.71685
10.2133
10.7247
11.2439
11.7658
12.2865
12.8034
13.3142
13.8173
14.3116
14.796
15.2699
15.7327
16.184
16.6233
17.0498
17.4629
17.8617
18.2454
18.6132
18.9645
19.2984
19.6142
19.9113
20.189
20.4468
20.6843
20.9012
21.0972
21.2722
21.4262
21.5591
21.6713
21.763
21.8348
21.8871
21.9204
21.9355
21.9327
21.9129
21.8767
21.8248
21.7577
21.6762
21.5809
21.4725
21.3516
21.2189
21.075
20.9207
20.7565
20.5832
20.4014
20.2118
20.0152
19.8122
19.6033
19.3891
19.1701
18.9472
18.7208
18.4917
18.2606
18.0283
17.7954
17.5628
17.3313
17.1014
16.8741
16.65
16.4299
16.2145
16.0044
15.8003
15.6028
15.4127
15.2303
15.0563
14.8912
14.7356
14.5898
14.4544
14.3298
14.2163
14.1143
14.024
13.9458
13.8798
13.8263
13.7854
13.7574
13.7423
13.7402
13.7512
13.7755
13.813
13.8638
13.9279
14.0052
14.0959
14.1998
14.317
14.4473
14.5908
14.7473
14.9167
15.0991
15.2942
15.502
15.7224
15.9553
16.2005
16.458
16.7276
17.0091
17.3025
17.6076
17.9243
18.2523
18.5917
18.9421
19.3034
19.6755
20.0581
20.4511
20.8541
21.267
21.6895
22.1211
22.5617
23.0107
23.4678
23.9323
24.4037
24.8814
25.3644
25.852
26.3432
26.8368
27.3316
27.8262
28.319
28.8083
29.2922
29.7686
30.2352
30.6896
31.129
31.5508
31.9519
32.3291
32.6791
32.9987
33.2843
33.5325
33.7397
33.9026
34.0177
34.082
34.0924
34.0462
33.941
33.7745
33.5451
33.2513
32.8922
32.4673
31.9764
31.42
30.7989
30.1142
29.3674
28.5605
27.6956
26.7754
25.8026
24.7809
23.7142
22.6075
21.4668
20.2998
19.1166
17.9301
16.7576
15.6221
14.5563
13.6083
12.8583
12.4643
12.8375
15.6472
34.3694
27.2944
12.3585
9.84206
9.21711
9.16321
9.35995
9.69004
10.0989
10.5569
11.0459
11.5544
12.074
12.5991
13.1254
13.6496
14.1695
14.6833
15.1897
15.6875
16.1761
16.6547
17.1228
17.5798
18.0248
18.4569
18.8752
19.2788
19.6667
20.038
20.3915
20.7265
21.042
21.3371
21.6112
21.8636
22.0937
22.3013
22.4861
22.6479
22.7867
22.9028
22.9964
23.0681
23.1185
23.1481
23.1576
23.1479
23.1197
23.0737
23.0108
22.9319
22.8376
22.7289
22.6065
22.4712
22.3237
22.1649
21.9954
21.816
21.6274
21.4304
21.2257
21.014
20.796
20.5722
20.3432
20.1096
19.8721
19.6312
19.3877
19.1423
18.8956
18.6485
18.4017
18.1559
17.9118
17.6703
17.4319
17.1975
16.9677
16.7433
16.5248
16.3129
16.1083
15.9114
15.723
15.5434
15.3733
15.2131
15.0634
14.9246
14.7969
14.6809
14.5767
14.4846
14.4049
14.3379
14.2836
14.2424
14.2142
14.1994
14.1978
14.2097
14.2351
14.274
14.3264
14.3924
14.472
14.5651
14.6717
14.7917
14.9252
15.072
15.2321
15.4054
15.5918
15.7912
16.0035
16.2286
16.4664
16.7168
16.9796
17.2548
17.5421
17.8415
18.1528
18.4758
18.8105
19.1566
19.5139
19.8823
20.2615
20.6514
21.0517
21.4621
21.8823
22.3119
22.7507
23.1982
23.6539
24.1172
24.5875
25.0641
25.5463
26.033
26.5234
27.0162
27.5102
28.004
28.496
28.9844
29.4673
29.9428
30.4084
30.8619
31.3005
31.7216
32.1223
32.4995
32.85
33.1708
33.4585
33.7098
33.9215
34.0904
34.2135
34.2878
34.3107
34.2797
34.1927
34.0478
33.8436
33.579
33.253
32.8654
32.416
31.905
31.333
30.7008
30.0092
29.2595
28.4531
27.5917
26.6771
25.7117
24.6986
23.6418
22.5465
21.4199
20.2718
19.1154
17.9687
16.8568
15.8154
14.8984
14.1969
13.8931
14.463
17.8367
39.5848
27.2948
12.358
9.84157
9.21661
9.16272
9.35945
9.68952
10.0984
10.5563
11.0454
11.5538
12.0734
12.5985
13.1247
13.6489
14.1688
14.6826
15.1889
15.6867
16.1752
16.6538
17.1219
17.5788
18.0238
18.4559
18.8742
19.2778
19.6657
20.0369
20.3905
20.7254
21.0409
21.336
21.6101
21.8624
22.0926
22.3002
22.4849
22.6467
22.7855
22.9016
22.9952
23.067
23.1173
23.1469
23.1565
23.1467
23.1185
23.0725
23.0097
22.9307
22.8365
22.7278
22.6054
22.4701
22.3227
22.1639
21.9944
21.815
21.6264
21.4294
21.2248
21.0131
20.7951
20.5713
20.3424
20.1088
19.8712
19.6304
19.3869
19.1415
18.8949
18.6478
18.401
18.1552
17.9112
17.6696
17.4313
17.1969
16.9672
16.7427
16.5243
16.3124
16.1078
15.911
15.7225
15.543
15.3729
15.2127
15.0631
14.9242
14.7966
14.6805
14.5763
14.4843
14.4046
14.3376
14.2834
14.2421
14.214
14.1991
14.1976
14.2095
14.2349
14.2738
14.3263
14.3923
14.4718
14.5649
14.6716
14.7916
14.9251
15.0719
15.232
15.4053
15.5917
15.7911
16.0034
16.2286
16.4664
16.7168
16.9796
17.2548
17.5421
17.8415
18.1528
18.4759
18.8105
19.1566
19.5139
19.8823
20.2616
20.6515
21.0517
21.4621
21.8823
22.312
22.7508
23.1983
23.654
24.1173
24.5876
25.0643
25.5464
26.0332
26.5236
27.0164
27.5104
28.0042
28.4962
28.9846
29.4675
29.943
30.4086
30.8621
31.3007
31.7218
32.1225
32.4997
32.8503
33.171
33.4587
33.71
33.9217
34.0906
34.2136
34.2879
34.3108
34.2798
34.1928
34.0479
33.8437
33.579
33.2531
32.8654
32.416
31.905
31.333
30.7007
30.0091
29.2594
28.453
27.5915
26.6769
25.7116
24.6985
23.6416
22.5463
21.4198
20.2717
19.1152
17.9685
16.8566
15.8151
14.8981
14.1967
13.8928
14.4627
17.8363
39.5849
31.3053
14.1311
11.1648
10.3669
10.2263
10.3748
10.6775
11.0718
11.5239
12.0132
12.5264
13.0545
13.5909
14.1308
14.6708
15.2082
15.7411
16.268
16.7877
17.2994
17.8022
18.2955
18.7785
19.2501
19.7093
20.1551
20.5862
21.0016
21.3999
21.78
22.1407
22.4809
22.7994
23.0953
23.3677
23.6161
23.8397
24.0383
24.2115
24.3595
24.4823
24.5803
24.654
24.704
24.7311
24.7361
24.7198
24.6832
24.6272
24.5529
24.4611
24.3528
24.229
24.0907
23.9388
23.7741
23.5975
23.4099
23.2121
23.0049
22.7891
22.5654
22.3348
22.0977
21.8548
21.6067
21.354
21.0973
20.8372
20.5746
20.31
20.0442
19.7779
19.5118
19.2467
18.9833
18.7224
18.4646
18.2107
17.9615
17.7175
17.4795
17.248
17.0238
16.8074
16.5994
16.4003
16.2107
16.0313
15.8623
15.7043
15.5577
15.4227
15.2998
15.1892
15.0912
15.006
14.9339
14.8749
14.8294
14.7973
14.7789
14.7741
14.7831
14.8059
14.8426
14.8931
14.9575
15.0358
15.1278
15.2337
15.3532
15.4865
15.6333
15.7937
15.9675