/*--------------------------------*- C++ -*----------------------------------*\
  =========                 |
  \\      /  F ield         | OpenFOAM: The Open Source CFD Toolbox
   \\    /   O peration     | Website:  https://openfoam.org
    \\  /    A nd           | Version:  8
     \\/     M anipulation  |
\*---------------------------------------------------------------------------*/
FoamFile
{
    version     2.0;
    format      ascii;
    class       volScalarField;
    location    "1600";
    object      k;
}
// * * * * * * * * * * * * * * * * * * * * * * * * * * * * * * * * * * * * * //

dimensions      [0 2 -2 0 0 0 0];

internalField   nonuniform List<scalar> 
46000
(
0.000455468
0.00223061
0.00479945
0.00747702
0.0101399
0.0127731
0.0153823
0.017968
0.0204927
0.022949
0.0253337
0.0276401
0.0298647
0.032009
0.0340681
0.0360389
0.0379242
0.0397248
0.0414416
0.0430759
0.0446293
0.0461054
0.0475349
0.0489028
0.0502014
0.0514324
0.0525981
0.0537009
0.0547432
0.0557287
0.0566577
0.0575308
0.0583515
0.0591207
0.0598392
0.0605083
0.0611291
0.0617023
0.0622289
0.0627095
0.0631446
0.0635346
0.0638801
0.0641811
0.0644379
0.0646506
0.0648194
0.0649443
0.0650256
0.0650633
0.0650578
0.0650093
0.0649184
0.0647856
0.0646115
0.0643971
0.0641432
0.0638509
0.0635216
0.0631564
0.0627571
0.0623264
0.0618761
0.0614068
0.0609113
0.060391
0.0598482
0.0592854
0.0587051
0.0581098
0.0575022
0.0568848
0.0562605
0.0556317
0.0550011
0.0543713
0.0537448
0.053124
0.0525114
0.0519091
0.0513195
0.0507445
0.0501862
0.0496464
0.0491268
0.0486292
0.0481549
0.0477054
0.0472818
0.0468854
0.0465171
0.0461777
0.0458681
0.0455889
0.0453405
0.0451234
0.0449379
0.0447841
0.0446623
0.0445723
0.0445142
0.0444878
0.044493
0.0445293
0.0445966
0.0446945
0.0448224
0.0449797
0.0451662
0.0453814
0.0456248
0.045896
0.0461942
0.0465191
0.04687
0.0472465
0.047648
0.0480739
0.0485238
0.0489972
0.0494935
0.0500124
0.0505534
0.051116
0.0516999
0.0523046
0.0529297
0.0535749
0.0542398
0.054924
0.055627
0.0563486
0.0570881
0.0578452
0.0586193
0.0594097
0.0602158
0.0610368
0.0618718
0.0627197
0.0635794
0.0644494
0.065328
0.0662136
0.067104
0.0679968
0.0688893
0.0697785
0.0706609
0.0715329
0.0723901
0.073228
0.0740414
0.0748248
0.0755722
0.076277
0.0769324
0.077531
0.0780649
0.078526
0.0789058
0.0791956
0.0793864
0.0794693
0.0794352
0.0792752
0.0789811
0.0785466
0.0779895
0.077291
0.0764339
0.0754113
0.0742191
0.072855
0.0713181
0.0696088
0.0677293
0.0656836
0.0634772
0.0611176
0.0586137
0.0559765
0.0532184
0.050353
0.0473954
0.0443617
0.0412684
0.0381324
0.0349703
0.0317978
0.0286265
0.0254391
0.0223004
0.019173
0.0160383
0.0128766
0.00974606
0.00649575
0.00315616
0.000651632
0.000455503
0.00223074
0.00479966
0.00747726
0.0101401
0.0127734
0.0153827
0.0179683
0.020493
0.0229493
0.025334
0.0276404
0.029865
0.0320094
0.0340685
0.0360392
0.0379245
0.0397251
0.0414419
0.0430762
0.0446296
0.0461057
0.0475351
0.048903
0.0502017
0.0514326
0.0525983
0.0537011
0.0547435
0.055729
0.056658
0.0575311
0.0583519
0.0591211
0.0598396
0.0605087
0.0611295
0.0617028
0.0622294
0.0627099
0.0631451
0.0635352
0.0638806
0.0641817
0.0644385
0.0646512
0.06482
0.064945
0.0650262
0.065064
0.0650585
0.06501
0.0649191
0.0647863
0.0646122
0.0643978
0.0641439
0.0638516
0.0635223
0.0631571
0.0627577
0.0623271
0.0618767
0.0614074
0.0609119
0.0603916
0.0598488
0.059286
0.0587056
0.0581103
0.0575026
0.0568853
0.0562609
0.0556321
0.0550015
0.0543716
0.0537451
0.0531243
0.0525116
0.0519093
0.0513197
0.0507447
0.0501863
0.0496465
0.0491269
0.0486293
0.0481549
0.0477054
0.0472818
0.0468854
0.046517
0.0461777
0.045868
0.0455888
0.0453404
0.0451233
0.0449377
0.044784
0.0446622
0.0445722
0.044514
0.0444876
0.0444927
0.0445291
0.0445964
0.0446942
0.0448221
0.0449794
0.0451659
0.0453811
0.0456245
0.0458956
0.0461939
0.0465187
0.0468696
0.0472461
0.0476476
0.0480735
0.0485234
0.0489967
0.0494931
0.050012
0.0505529
0.0511156
0.0516994
0.0523041
0.0529292
0.0535744
0.0542393
0.0549235
0.0556266
0.0563481
0.0570876
0.0578447
0.0586188
0.0594092
0.0602153
0.0610363
0.0618713
0.0627192
0.0635789
0.0644488
0.0653275
0.0662131
0.0671035
0.0679963
0.0688888
0.069778
0.0706604
0.0715324
0.0723896
0.0732275
0.0740409
0.0748243
0.0755717
0.0762765
0.0769319
0.0775305
0.0780644
0.0785255
0.0789054
0.0791952
0.079386
0.0794689
0.0794348
0.0792749
0.0789808
0.0785463
0.0779892
0.0772907
0.0764337
0.0754111
0.074219
0.0728549
0.0713179
0.0696086
0.0677292
0.0656835
0.0634772
0.0611175
0.0586137
0.0559766
0.0532184
0.050353
0.0473955
0.0443618
0.0412684
0.0381324
0.0349704
0.0317979
0.0286265
0.0254392
0.0223005
0.019173
0.0160384
0.0128766
0.00974613
0.00649581
0.0031562
0.00065164
0.00226115
0.0144423
0.025581
0.0350438
0.0435304
0.0513525
0.0586727
0.0655353
0.0720167
0.0781563
0.083989
0.0895248
0.0947784
0.0997683
0.104507
0.109004
0.113271
0.117317
0.121149
0.124778
0.12821
0.131455
0.134524
0.137427
0.140167
0.142752
0.145187
0.14748
0.149637
0.151664
0.153566
0.155351
0.157022
0.158582
0.160034
0.16138
0.162625
0.163771
0.16482
0.165774
0.166636
0.167406
0.168085
0.168675
0.169176
0.16959
0.169915
0.170154
0.170305
0.17037
0.17035
0.170244
0.170053
0.16978
0.169423
0.168987
0.168471
0.167878
0.16721
0.166471
0.165662
0.164787
0.163851
0.16286
0.161816
0.160722
0.159582
0.158401
0.157183
0.155934
0.154659
0.153362
0.152049
0.150725
0.149396
0.148067
0.146743
0.145428
0.144129
0.14285
0.141596
0.14037
0.139179
0.138025
0.136913
0.135847
0.134829
0.133864
0.132954
0.132102
0.13131
0.130581
0.129917
0.129319
0.128789
0.128328
0.127937
0.127616
0.127366
0.127188
0.12708
0.127043
0.127077
0.127181
0.127354
0.127595
0.127904
0.128279
0.128719
0.129223
0.129789
0.130416
0.131104
0.131849
0.132651
0.133509
0.13442
0.135383
0.136398
0.137461
0.138573
0.139731
0.140935
0.142182
0.143472
0.144803
0.146175
0.147586
0.149034
0.150519
0.152039
0.153594
0.155181
0.1568
0.158449
0.160127
0.161831
0.163561
0.165314
0.167087
0.168878
0.170685
0.172503
0.17433
0.17616
0.17799
0.179815
0.181628
0.183423
0.185193
0.186931
0.188627
0.190273
0.191858
0.193371
0.194802
0.196136
0.197362
0.198464
0.199429
0.200241
0.200884
0.201341
0.201596
0.201633
0.201435
0.200986
0.20027
0.199279
0.19799
0.19639
0.194464
0.192201
0.189594
0.186635
0.18332
0.179647
0.175617
0.171233
0.1665
0.161427
0.156025
0.150307
0.144288
0.137986
0.131419
0.124606
0.117565
0.110314
0.102867
0.095231
0.087404
0.079367
0.0710461
0.0623676
0.0531971
0.0431565
0.0319395
0.0184755
0.00302937
0.00226131
0.0144428
0.0255815
0.0350442
0.0435306
0.0513526
0.0586728
0.0655353
0.0720167
0.0781562
0.0839888
0.0895246
0.0947782
0.0997679
0.104506
0.109004
0.113271
0.117316
0.121149
0.124777
0.128209
0.131454
0.134524
0.137426
0.140167
0.142751
0.145186
0.147479
0.149636
0.151663
0.153566
0.15535
0.157021
0.158581
0.160033
0.161379
0.162624
0.16377
0.164819
0.165773
0.166634
0.167404
0.168084
0.168674
0.169175
0.169588
0.169914
0.170152
0.170304
0.170369
0.170348
0.170242
0.170052
0.169778
0.169422
0.168985
0.168469
0.167876
0.167209
0.166469
0.16566
0.164785
0.163849
0.162858
0.161814
0.16072
0.15958
0.158399
0.157182
0.155933
0.154657
0.15336
0.152047
0.150724
0.149395
0.148065
0.146741
0.145427
0.144128
0.142848
0.141594
0.140369
0.139177
0.138024
0.136911
0.135845
0.134827
0.133862
0.132952
0.1321
0.131309
0.13058
0.129916
0.129318
0.128788
0.128327
0.127936
0.127615
0.127365
0.127186
0.127079
0.127042
0.127076
0.12718
0.127353
0.127594
0.127903
0.128277
0.128718
0.129221
0.129788
0.130415
0.131102
0.131848
0.13265
0.133508
0.134419
0.135382
0.136396
0.13746
0.138572
0.13973
0.140933
0.142181
0.143471
0.144802
0.146174
0.147584
0.149033
0.150518
0.152038
0.153593
0.15518
0.156799
0.158448
0.160126
0.16183
0.16356
0.165313
0.167086
0.168877
0.170684
0.172502
0.174329
0.176159
0.17799
0.179814
0.181627
0.183422
0.185192
0.18693
0.188626
0.190272
0.191857
0.193371
0.194801
0.196136
0.197361
0.198464
0.199429
0.20024
0.200883
0.201341
0.201596
0.201633
0.201435
0.200985
0.20027
0.199278
0.19799
0.19639
0.194464
0.192201
0.189594
0.186635
0.18332
0.179648
0.175618
0.171233
0.1665
0.161427
0.156025
0.150307
0.144289
0.137987
0.13142
0.124606
0.117565
0.110314
0.102867
0.0952313
0.0874043
0.0793673
0.0710463
0.0623679
0.0531972
0.0431566
0.0319396
0.0184755
0.00302935
0.00487148
0.0257219
0.0410327
0.053286
0.0641309
0.0740949
0.0833804
0.0921112
0.100371
0.108195
0.115624
0.122684
0.129395
0.135776
0.141841
0.147603
0.153076
0.15827
0.163196
0.167865
0.172289
0.176477
0.180442
0.184193
0.187737
0.191082
0.194236
0.197205
0.199998
0.20262
0.205079
0.207381
0.209531
0.211533
0.213394
0.215114
0.216697
0.218147
0.219466
0.220659
0.221727
0.222673
0.223499
0.224207
0.224798
0.225273
0.225635
0.225883
0.226019
0.226045
0.225961
0.225768
0.225469
0.225064
0.224556
0.223947
0.223239
0.222435
0.221538
0.220552
0.21948
0.218328
0.217099
0.215801
0.214437
0.213012
0.21153
0.209997
0.208419
0.206802
0.205153
0.203477
0.201783
0.200076
0.198362
0.196649
0.194944
0.193252
0.191579
0.189934
0.18832
0.186744
0.185213
0.18373
0.182302
0.180932
0.179627
0.178389
0.177223
0.176133
0.175122
0.174192
0.173346
0.172587
0.171917
0.171336
0.170847
0.17045
0.170146
0.169935
0.169817
0.169793
0.169861
0.170021
0.170271
0.170611
0.17104
0.171556
0.172157
0.172843
0.17361
0.174457
0.175383
0.176385
0.177462
0.178611
0.17983
0.181117
0.182471
0.18389
0.18537
0.186912
0.188512
0.190169
0.191881
0.193646
0.195463
0.19733
0.199246
0.201208
0.203216
0.205266
0.207359
0.209491
0.211661
0.213867
0.216107
0.218377
0.220676
0.223
0.225346
0.227711
0.230089
0.232477
0.234868
0.237258
0.239639
0.242004
0.244346
0.246655
0.248921
0.251134
0.253281
0.255352
0.257331
0.259204
0.260955
0.262569
0.264027
0.265311
0.266402
0.26728
0.267925
0.268317
0.268435
0.268258
0.267765
0.26694
0.265764
0.264214
0.262273
0.259924
0.257154
0.25395
0.250303
0.246207
0.241657
0.236653
0.231197
0.225292
0.218948
0.212173
0.20498
0.197386
0.189405
0.181056
0.172357
0.163326
0.153979
0.144328
0.13438
0.12413
0.113557
0.102609
0.0911919
0.079118
0.0660096
0.0511913
0.0325421
0.00648983
0.00487171
0.0257223
0.0410329
0.053286
0.0641307
0.0740946
0.08338
0.0921107
0.10037
0.108194
0.115623
0.122683
0.129395
0.135775
0.14184
0.147602
0.153075
0.158269
0.163195
0.167864
0.172288
0.176476
0.180441
0.184192
0.187736
0.191081
0.194234
0.197204
0.199996
0.202619
0.205078
0.207379
0.209529
0.211531
0.213392
0.215112
0.216695
0.218144
0.219464
0.220657
0.221725
0.222671
0.223497
0.224204
0.224795
0.225271
0.225632
0.22588
0.226017
0.226042
0.225958
0.225765
0.225466
0.225061
0.224553
0.223944
0.223236
0.222432
0.221535
0.220549
0.219477
0.218325
0.217097
0.215799
0.214434
0.213009
0.211527
0.209994
0.208416
0.206799
0.20515
0.203475
0.20178
0.200073
0.19836
0.196647
0.194941
0.193249
0.191577
0.189931
0.188318
0.186742
0.18521
0.183728
0.1823
0.18093
0.179625
0.178387
0.177221
0.176131
0.17512
0.17419
0.173344
0.172585
0.171915
0.171334
0.170845
0.170448
0.170144
0.169933
0.169816
0.169791
0.169859
0.170019
0.17027
0.17061
0.171039
0.171555
0.172156
0.172841
0.173609
0.174456
0.175382
0.176384
0.177461
0.17861
0.179829
0.181116
0.18247
0.183889
0.185369
0.186911
0.188511
0.190168
0.19188
0.193645
0.195462
0.197329
0.199245
0.201207
0.203215
0.205266
0.207358
0.20949
0.21166
0.213866
0.216106
0.218376
0.220675
0.222999
0.225346
0.22771
0.230088
0.232476
0.234868
0.237257
0.239638
0.242004
0.244345
0.246654
0.24892
0.251133
0.253281
0.255351
0.25733
0.259203
0.260955
0.262568
0.264026
0.26531
0.266402
0.26728
0.267925
0.268317
0.268435
0.268258
0.267766
0.26694
0.265764
0.264214
0.262273
0.259924
0.257154
0.25395
0.250303
0.246207
0.241658
0.236654
0.231197
0.225293
0.218948
0.212173
0.204981
0.197386
0.189405
0.181056
0.172358
0.163327
0.153979
0.144329
0.13438
0.12413
0.113557
0.102609
0.0911922
0.0791182
0.0660098
0.0511913
0.032542
0.0064898
0.00753219
0.0352836
0.0534839
0.0675302
0.0798276
0.0910997
0.101619
0.11153
0.120921
0.129842
0.13833
0.146412
0.154108
0.161437
0.168413
0.175051
0.181365
0.187366
0.193067
0.198479
0.203614
0.208485
0.213102
0.217476
0.221614
0.225524
0.229214
0.232691
0.235963
0.239035
0.241914
0.244605
0.247116
0.24945
0.251611
0.253605
0.255434
0.257101
0.258609
0.259963
0.261165
0.262219
0.263128
0.263894
0.264521
0.265009
0.265362
0.265582
0.26567
0.265629
0.265461
0.265167
0.264751
0.264215
0.26356
0.262791
0.261911
0.260922
0.259829
0.258637
0.257349
0.255971
0.25451
0.25297
0.251356
0.249675
0.24793
0.24613
0.244281
0.242388
0.24046
0.238504
0.236528
0.234538
0.232542
0.230548
0.228564
0.226596
0.224652
0.222739
0.220865
0.219035
0.217257
0.215536
0.213878
0.212289
0.210775
0.20934
0.207989
0.206725
0.205554
0.204478
0.203501
0.202625
0.201852
0.201184
0.200624
0.200171
0.199828
0.199593
0.199468
0.199452
0.199544
0.199744
0.200051
0.200462
0.200978
0.201596
0.202315
0.203132
0.204045
0.205053
0.206153
0.207343
0.20862
0.209983
0.211428
0.212953
0.214556
0.216235
0.217988
0.219811
0.221704
0.223663
0.225687
0.227773
0.22992
0.232125
0.234386
0.236703
0.239071
0.24149
0.243958
0.246471
0.249028
0.251627
0.254264
0.256937
0.259642
0.262376
0.265135
0.267914
0.270709
0.273514
0.276322
0.279128
0.281923
0.284698
0.287446
0.290154
0.292813
0.295409
0.297929
0.30036
0.302684
0.304886
0.306948
0.30885
0.310574
0.312098
0.3134
0.314459
0.315252
0.315755
0.315946
0.3158
0.315297
0.314414
0.313131
0.311424
0.309273
0.306661
0.303572
0.299992
0.295911
0.291321
0.286217
0.280596
0.274459
0.267809
0.260652
0.252996
0.244854
0.236238
0.227161
0.217641
0.207692
0.19733
0.18657
0.175424
0.163898
0.15199
0.139686
0.126944
0.113675
0.0996954
0.0846018
0.0673862
0.045013
0.010218
0.00753246
0.0352839
0.0534838
0.0675298
0.0798271
0.0910991
0.101619
0.11153
0.12092
0.129841
0.138329
0.146411
0.154107
0.161436
0.168412
0.17505
0.181364
0.187365
0.193065
0.198478
0.203613
0.208483
0.213101
0.217474
0.221613
0.225523
0.229213
0.23269
0.235961
0.239033
0.241912
0.244604
0.247114
0.249448
0.251609
0.253603
0.255432
0.257098
0.258607
0.25996
0.261162
0.262216
0.263125
0.263892
0.264518
0.265006
0.265359
0.265579
0.265667
0.265626
0.265458
0.265165
0.264748
0.264212
0.263557
0.262788
0.261908
0.260919
0.259826
0.258634
0.257346
0.255968
0.254507
0.252967
0.251353
0.249672
0.247928
0.246127
0.244278
0.242385
0.240458
0.238502
0.236525
0.234535
0.232539
0.230545
0.228561
0.226593
0.22465
0.222737
0.220863
0.219033
0.217254
0.215533
0.213876
0.212287
0.210773
0.209338
0.207987
0.206724
0.205552
0.204477
0.203499
0.202623
0.20185
0.201183
0.200622
0.20017
0.199826
0.199592
0.199467
0.199451
0.199543
0.199743
0.200049
0.200461
0.200977
0.201595
0.202314
0.203131
0.204044
0.205052
0.206152
0.207342
0.208619
0.209982
0.211427
0.212952
0.214556
0.216235
0.217987
0.219811
0.221703
0.223662
0.225686
0.227772
0.229919
0.232124
0.234386
0.236702
0.239071
0.24149
0.243957
0.246471
0.249028
0.251626
0.254263
0.256936
0.259641
0.262375
0.265134
0.267914
0.270708
0.273513
0.276322
0.279127
0.281922
0.284698
0.287445
0.290154
0.292812
0.295409
0.297929
0.300359
0.302684
0.304886
0.306948
0.30885
0.310574
0.312098
0.3134
0.314459
0.315252
0.315755
0.315946
0.3158
0.315297
0.314415
0.313131
0.311424
0.309273
0.306661
0.303572
0.299992
0.295912
0.291322
0.286218
0.280597
0.274459
0.267809
0.260652
0.252997
0.244855
0.236238
0.227162
0.217641
0.207692
0.197331
0.186571
0.175424
0.163898
0.151991
0.139687
0.126944
0.113675
0.0996956
0.0846019
0.0673862
0.045013
0.010218
0.0101515
0.0438973
0.0646515
0.0802532
0.0937533
0.106062
0.117548
0.128386
0.138671
0.148459
0.157789
0.166686
0.175173
0.183265
0.19098
0.198332
0.205333
0.211998
0.218339
0.224369
0.230101
0.235545
0.240715
0.24562
0.250267
0.254665
0.25882
0.262739
0.266429
0.269895
0.273144
0.27618
0.279008
0.281633
0.284059
0.28629
0.288329
0.29018
0.291846
0.29333
0.294637
0.295771
0.296734
0.297532
0.298168
0.298645
0.298966
0.299135
0.299155
0.299029
0.29876
0.298352
0.297807
0.29713
0.296325
0.295393
0.294341
0.293172
0.29189
0.290502
0.289011
0.287425
0.285749
0.283989
0.282151
0.280241
0.278265
0.276229
0.274141
0.272009
0.26984
0.267641
0.265422
0.263189
0.260951
0.258717
0.256495
0.254291
0.252115
0.249975
0.247877
0.245829
0.243839
0.241913
0.240057
0.238278
0.236582
0.234974
0.23346
0.232043
0.230729
0.229521
0.228423
0.227437
0.226567
0.225815
0.225182
0.22467
0.224279
0.224011
0.223864
0.223839
0.223935
0.224152
0.224488
0.224942
0.225513
0.226198
0.226996
0.227905
0.228922
0.230044
0.23127
0.232598
0.234023
0.235544
0.237158
0.238862
0.240655
0.242532
0.244492
0.246531
0.248649
0.250841
0.253106
0.255441
0.257845
0.260314
0.262846
0.265439
0.268091
0.2708
0.273563
0.276377
0.27924
0.282149
0.2851
0.288092
0.291119
0.294178
0.297264
0.300372
0.303497
0.306632
0.309771
0.312906
0.316028
0.319128
0.322196
0.32522
0.328187
0.331085
0.333898
0.33661
0.339205
0.341664
0.343968
0.346096
0.348026
0.349737
0.351205
0.352406
0.353315
0.353908
0.354161
0.354048
0.353545
0.352631
0.351281
0.349472
0.347184
0.344398
0.341098
0.33727
0.332902
0.327986
0.322514
0.316484
0.309893
0.302745
0.295042
0.28679
0.277997
0.268673
0.258829
0.248474
0.237623
0.226286
0.214475
0.202201
0.189471
0.176285
0.162633
0.148479
0.133736
0.118206
0.101431
0.0822069
0.0566682
0.0141386
0.0101518
0.0438975
0.0646513
0.0802527
0.0937527
0.106061
0.117547
0.128385
0.13867
0.148458
0.157788
0.166686
0.175172
0.183265
0.190979
0.198331
0.205332
0.211997
0.218338
0.224368
0.230099
0.235544
0.240714
0.245619
0.250266
0.254663
0.258818
0.262737
0.266427
0.269893
0.273142
0.276178
0.279006
0.281631
0.284057
0.286287
0.288327
0.290178
0.291844
0.293328
0.294635
0.295768
0.296732
0.29753
0.298165
0.298642
0.298963
0.299132
0.299152
0.299026
0.298757
0.298349
0.297805
0.297128
0.296322
0.295391
0.294338
0.293169
0.291888
0.290499
0.289009
0.287422
0.285746
0.283986
0.282148
0.280238
0.278262
0.276227
0.274139
0.272007
0.269837
0.267639
0.265419
0.263187
0.260949
0.258715
0.256492
0.254289
0.252113
0.249973
0.247875
0.245828
0.243837
0.241911
0.240055
0.238277
0.236581
0.234973
0.233458
0.232042
0.230727
0.22952
0.228421
0.227436
0.226566
0.225814
0.225181
0.224669
0.224278
0.224009
0.223863
0.223838
0.223934
0.224151
0.224487
0.224941
0.225512
0.226197
0.226995
0.227904
0.228921
0.230044
0.23127
0.232597
0.234022
0.235543
0.237157
0.238862
0.240654
0.242531
0.244491
0.246531
0.248648
0.250841
0.253106
0.255441
0.257844
0.260313
0.262845
0.265439
0.268091
0.2708
0.273562
0.276377
0.279239
0.282148
0.2851
0.288091
0.291118
0.294177
0.297263
0.300372
0.303497
0.306632
0.309771
0.312906
0.316028
0.319128
0.322196
0.32522
0.328187
0.331085
0.333898
0.33661
0.339205
0.341664
0.343968
0.346096
0.348026
0.349737
0.351205
0.352406
0.353315
0.353909
0.354161
0.354048
0.353546
0.352632
0.351281
0.349472
0.347184
0.344398
0.341099
0.337271
0.332903
0.327986
0.322514
0.316484
0.309894
0.302745
0.295042
0.28679
0.277998
0.268674
0.258829
0.248475
0.237623
0.226286
0.214476
0.202202
0.189471
0.176285
0.162633
0.148479
0.133736
0.118207
0.101431
0.0822069
0.0566682
0.0141385
0.0127767
0.0520109
0.075191
0.0922853
0.106916
0.12019
0.132555
0.144221
0.155299
0.165853
0.175924
0.18554
0.194723
0.203491
0.21186
0.219845
0.227461
0.234721
0.241639
0.248229
0.254503
0.260473
0.266152
0.271548
0.27667
0.281524
0.286117
0.290455
0.294543
0.298386
0.301989
0.305356
0.308491
0.311397
0.314077
0.316536
0.318777
0.320802
0.322616
0.324221
0.325621
0.326823
0.32783
0.328647
0.329278
0.32973
0.330005
0.330109
0.330047
0.329822
0.32944
0.328905
0.328221
0.327393
0.326426
0.325325
0.324094
0.322739
0.321266
0.31968
0.317986
0.316193
0.314305
0.31233
0.310274
0.308143
0.305943
0.303682
0.301368
0.299008
0.296609
0.294182
0.291733
0.289272
0.286807
0.284347
0.2819
0.279475
0.27708
0.274723
0.272414
0.270159
0.267966
0.265842
0.263795
0.261831
0.259957
0.258178
0.2565
0.254928
0.253467
0.252121
0.250895
0.249791
0.248812
0.247961
0.24724
0.24665
0.246191
0.245866
0.245673
0.245612
0.245684
0.245887
0.24622
0.246682
0.247271
0.247985
0.248823
0.249781
0.250858
0.25205
0.253356
0.254772
0.256296
0.257925
0.259656
0.261486
0.263413
0.265433
0.267543
0.269742
0.272026
0.274392
0.276838
0.279362
0.28196
0.28463
0.28737
0.290177
0.293049
0.295982
0.298975
0.302024
0.305126
0.308279
0.311478
0.31472
0.318002
0.321317
0.324662
0.328031
0.331417
0.334814
0.338214
0.34161
0.34499
0.348347
0.351667
0.354939
0.358149
0.361282
0.364324
0.367257
0.370061
0.37272
0.37521
0.377512
0.379602
0.381457
0.383051
0.384362
0.385362
0.386027
0.38633
0.386248
0.385754
0.384826
0.383439
0.38157
0.3792
0.376309
0.372881
0.368902
0.36436
0.359244
0.353548
0.347267
0.340397
0.332937
0.324887
0.31625
0.307029
0.297229
0.286853
0.275908
0.264401
0.252338
0.239726
0.226572
0.212882
0.198657
0.183888
0.168538
0.152515
0.135599
0.117261
0.0961087
0.0675714
0.0182189
0.012777
0.052011
0.0751907
0.0922848
0.106916
0.120189
0.132554
0.144221
0.155298
0.165852
0.175923
0.185539
0.194722
0.20349
0.211859
0.219844
0.22746
0.23472
0.241638
0.248228
0.254501
0.260472
0.266151
0.271547
0.276668
0.281522
0.286115
0.290453
0.294541
0.298385
0.301988
0.305354
0.308489
0.311395
0.314075
0.316534
0.318775
0.3208
0.322614
0.324218
0.325619
0.326821
0.327827
0.328644
0.329276
0.329727
0.330003
0.330107
0.330044
0.32982
0.329437
0.328902
0.328218
0.327391
0.326424
0.325322
0.324092
0.322737
0.321263
0.319677
0.317984
0.31619
0.314303
0.312328
0.310271
0.30814
0.305941
0.30368
0.301366
0.299005
0.296607
0.29418
0.291731
0.28927
0.286805
0.284345
0.281898
0.279473
0.277078
0.274722
0.272412
0.270157
0.267964
0.265841
0.263794
0.26183
0.259955
0.258176
0.256498
0.254927
0.253466
0.25212
0.250893
0.24979
0.248811
0.24796
0.247239
0.246649
0.246191
0.245865
0.245672
0.245611
0.245683
0.245886
0.246219
0.246681
0.24727
0.247985
0.248822
0.24978
0.250857
0.252049
0.253355
0.254772
0.256296
0.257925
0.259656
0.261486
0.263412
0.265432
0.267543
0.269742
0.272025
0.274392
0.276838
0.279361
0.281959
0.28463
0.28737
0.290177
0.293048
0.295982
0.298975
0.302024
0.305126
0.308279
0.311478
0.31472
0.318001
0.321317
0.324662
0.32803
0.331417
0.334814
0.338214
0.34161
0.34499
0.348346
0.351667
0.354939
0.358149
0.361283
0.364324
0.367257
0.370062
0.37272
0.37521
0.377512
0.379602
0.381457
0.383052
0.384362
0.385362
0.386027
0.386331
0.386248
0.385754
0.384826
0.383439
0.38157
0.3792
0.376309
0.372881
0.368902
0.36436
0.359245
0.353549
0.347267
0.340397
0.332937
0.324887
0.316251
0.30703
0.297229
0.286853
0.275909
0.264401
0.252338
0.239726
0.226572
0.212882
0.198658
0.183888
0.168538
0.152515
0.135599
0.117261
0.0961086
0.0675714
0.0182188
0.0154842
0.0598774
0.0854291
0.104035
0.119804
0.134038
0.147263
0.159728
0.171561
0.182839
0.193608
0.203899
0.213736
0.223138
0.232122
0.240705
0.248901
0.256727
0.264195
0.27132
0.278116
0.284595
0.290769
0.296646
0.302233
0.307538
0.312565
0.317321
0.321808
0.326031
0.329992
0.333694
0.33714
0.340332
0.343273
0.345965
0.34841
0.350613
0.352576
0.354303
0.355798
0.357066
0.358113
0.358945
0.359568
0.359987
0.360209
0.36024
0.360086
0.359753
0.359247
0.358573
0.357739
0.35675
0.355611
0.354329
0.352911
0.351361
0.349687
0.347895
0.345991
0.343984
0.341879
0.339684
0.337405
0.335049
0.332623
0.330135
0.327592
0.325002
0.322374
0.319716
0.317038
0.314347
0.311654
0.308966
0.306293
0.303644
0.301027
0.298452
0.295926
0.293459
0.291057
0.288729
0.286482
0.284323
0.282259
0.280297
0.278441
0.276699
0.275074
0.273573
0.272199
0.270955
0.269845
0.26887
0.268034
0.267338
0.266783
0.266369
0.266097
0.265967
0.265978
0.26613
0.266422
0.266852
0.267418
0.268118
0.268951
0.269914
0.271004
0.272219
0.273556
0.275012
0.276585
0.27827
0.280066
0.281969
0.283976
0.286084
0.288291
0.290592
0.292986
0.29547
0.29804
0.300694
0.303429
0.306242
0.30913
0.312092
0.315123
0.318222
0.321385
0.324608
0.327889
0.331225
0.334611
0.338043
0.341517
0.345027
0.348569
0.352136
0.355722
0.359319
0.362919
0.366514
0.370092
0.373643
0.377155
0.380616
0.384009
0.387321
0.390535
0.393632
0.396594
0.399401
0.40203
0.40446
0.406667
0.408628
0.410316
0.411708
0.412776
0.413496
0.413842
0.413788
0.41331
0.412384
0.410987
0.409095
0.406691
0.403755
0.400271
0.396226
0.391606
0.386402
0.380604
0.374206
0.367201
0.359587
0.351357
0.342511
0.333045
0.322957
0.312244
0.300906
0.28894
0.276348
0.26313
0.249287
0.234822
0.219734
0.204009
0.187607
0.170424
0.152212
0.132373
0.109336
0.0779813
0.0223142
0.0154845
0.0598775
0.0854288
0.104035
0.119803
0.134037
0.147263
0.159727
0.17156
0.182838
0.193607
0.203898
0.213735
0.223137
0.232121
0.240704
0.2489
0.256726
0.264194
0.271319
0.278115
0.284594
0.290767
0.296644
0.302232
0.307536
0.312564
0.317319
0.321807
0.326029
0.32999
0.333693
0.337138
0.34033
0.343271
0.345963
0.348408
0.350611
0.352574
0.354301
0.355796
0.357064
0.358111
0.358943
0.359565
0.359985
0.360207
0.360238
0.360084
0.35975
0.359244
0.358571
0.357737
0.356747
0.355609
0.354327
0.352908
0.351359
0.349685
0.347892
0.345989
0.343981
0.341877
0.339682
0.337403
0.335047
0.332621
0.330133
0.32759
0.325
0.322372
0.319714
0.317036
0.314345
0.311652
0.308964
0.306291
0.303642
0.301026
0.29845
0.295925
0.293457
0.291056
0.288728
0.286481
0.284322
0.282258
0.280296
0.27844
0.276697
0.275073
0.273572
0.272198
0.270954
0.269844
0.26887
0.268033
0.267337
0.266782
0.266368
0.266096
0.265966
0.265978
0.26613
0.266421
0.266851
0.267417
0.268118
0.268951
0.269913
0.271004
0.272219
0.273556
0.275012
0.276584
0.27827
0.280065
0.281968
0.283976
0.286084
0.28829
0.290592
0.292986
0.295469
0.29804
0.300693
0.303428
0.306241
0.30913
0.312092
0.315123
0.318222
0.321384
0.324608
0.327889
0.331225
0.334611
0.338043
0.341516
0.345027
0.348569
0.352136
0.355722
0.359319
0.362919
0.366514
0.370092
0.373643
0.377155
0.380616
0.384009
0.387322
0.390535
0.393633
0.396594
0.399401
0.40203
0.40446
0.406667
0.408628
0.410316
0.411708
0.412776
0.413496
0.413842
0.413788
0.41331
0.412385
0.410987
0.409096
0.406691
0.403755
0.400272
0.396226
0.391606
0.386402
0.380604
0.374206
0.367202
0.359587
0.351358
0.342511
0.333045
0.322957
0.312244
0.300906
0.288941
0.276348
0.26313
0.249287
0.234823
0.219734
0.204009
0.187607
0.170424
0.152212
0.132373
0.109336
0.0779812
0.0223141
0.0183044
0.0676767
0.0956051
0.11575
0.132696
0.147917
0.162018
0.175285
0.187873
0.199868
0.211324
0.222278
0.232757
0.242781
0.252371
0.261542
0.270312
0.278697
0.286712
0.294372
0.301691
0.308681
0.315356
0.32172
0.327782
0.333548
0.339022
0.344208
0.349108
0.353725
0.358059
0.362112
0.365884
0.369377
0.372592
0.375529
0.378192
0.380583
0.382705
0.384561
0.386156
0.387496
0.388586
0.389435
0.390048
0.390434
0.390599
0.390552
0.3903
0.389851
0.389213
0.388392
0.387397
0.386236
0.384914
0.383441
0.381822
0.380065
0.378179
0.376169
0.374043
0.37181
0.369476
0.36705
0.364537
0.361946
0.359282
0.356555
0.353773
0.350943
0.348074
0.345175
0.342256
0.339324
0.33639
0.333463
0.330552
0.327665
0.324813
0.322004
0.319247
0.316551
0.313923
0.311373
0.308907
0.306533
0.304258
0.302089
0.300032
0.298094
0.296281
0.294596
0.293045
0.291631
0.290357
0.289227
0.288241
0.287404
0.286714
0.286175
0.285785
0.285545
0.285455
0.285513
0.28572
0.286072
0.28657
0.28721
0.287991
0.28891
0.289964
0.291152
0.292469
0.293914
0.295482
0.297172
0.298979
0.300901
0.302934
0.305076
0.307323
0.309673
0.312121
0.314665
0.317303
0.32003
0.322845
0.325744
0.328724
0.331782
0.334916
0.338121
0.341396
0.344736
0.348138
0.351598
0.355112
0.358676
0.362284
0.365931
0.369612
0.373319
0.377046
0.380785
0.384527
0.388263
0.391981
0.39567
0.399318
0.402911
0.406434
0.409871
0.413204
0.416416
0.419486
0.422394
0.425117
0.427634
0.429921
0.431953
0.433705
0.435152
0.436269
0.43703
0.437411
0.437385
0.436931
0.436024
0.434641
0.432761
0.430368
0.427442
0.423968
0.419933
0.415323
0.410128
0.404337
0.397941
0.390932
0.3833
0.375037
0.366134
0.35658
0.346367
0.335484
0.32392
0.311665
0.29871
0.28505
0.270677
0.255588
0.239777
0.223223
0.205879
0.187626
0.168184
0.146887
0.122
0.0878987
0.0263712
0.0183047
0.0676768
0.0956047
0.115749
0.132695
0.147916
0.162017
0.175284
0.187872
0.199867
0.211323
0.222278
0.232756
0.24278
0.252369
0.261541
0.270311
0.278696
0.286711
0.294371
0.30169
0.30868
0.315354
0.321719
0.327781
0.333547
0.339021
0.344207
0.349107
0.353723
0.358057
0.36211
0.365882
0.369375
0.37259
0.375527
0.378191
0.380581
0.382703
0.384559
0.386154
0.387494
0.388584
0.389432
0.390046
0.390431
0.390597
0.39055
0.390298
0.389849
0.38921
0.38839
0.387395
0.386234
0.384912
0.383439
0.38182
0.380063
0.378177
0.376167
0.374041
0.371808
0.369474
0.367048
0.364535
0.361944
0.35928
0.356553
0.353771
0.350941
0.348072
0.345174
0.342254
0.339323
0.336389
0.333462
0.33055
0.327664
0.324812
0.322003
0.319246
0.31655
0.313922
0.311371
0.308905
0.306531
0.304257
0.302087
0.300031
0.298093
0.29628
0.294595
0.293044
0.29163
0.290356
0.289226
0.288241
0.287403
0.286714
0.286174
0.285784
0.285544
0.285454
0.285513
0.285719
0.286072
0.286569
0.287209
0.28799
0.288909
0.289964
0.291151
0.292469
0.293913
0.295482
0.297171
0.298979
0.300901
0.302934
0.305076
0.307323
0.309672
0.312121
0.314665
0.317302
0.32003
0.322845
0.325743
0.328723
0.331782
0.334915
0.338121
0.341396
0.344736
0.348138
0.351598
0.355112
0.358675
0.362284
0.365931
0.369612
0.373319
0.377046
0.380785
0.384527
0.388263
0.391981
0.39567
0.399318
0.402911
0.406434
0.409871
0.413204
0.416416
0.419486
0.422394
0.425117
0.427634
0.429921
0.431953
0.433705
0.435152
0.436269
0.437031
0.437411
0.437386
0.436931
0.436024
0.434641
0.432762
0.430368
0.427442
0.423968
0.419933
0.415323
0.410128
0.404337
0.397942
0.390932
0.3833
0.375037
0.366134
0.356581
0.346368
0.335484
0.32392
0.311665
0.298711
0.28505
0.270677
0.255589
0.239777
0.223223
0.205879
0.187626
0.168184
0.146887
0.122
0.0878986
0.0263712
0.0212706
0.0755654
0.105895
0.127616
0.145785
0.162035
0.177044
0.191141
0.204502
0.21723
0.229386
0.241013
0.252143
0.262799
0.273002
0.282773
0.292128
0.301086
0.309662
0.317873
0.325732
0.333253
0.340447
0.34732
0.353879
0.360128
0.366072
0.371711
0.377047
0.382081
0.386811
0.391236
0.395357
0.399171
0.40268