/*--------------------------------*- C++ -*----------------------------------*\
  =========                 |
  \\      /  F ield         | OpenFOAM: The Open Source CFD Toolbox
   \\    /   O peration     | Website:  https://openfoam.org
    \\  /    A nd           | Version:  8
     \\/     M anipulation  |
\*---------------------------------------------------------------------------*/
FoamFile
{
    version     2.0;
    format      ascii;
    class       volScalarField;
    location    "1600";
    object      nut;
}
// * * * * * * * * * * * * * * * * * * * * * * * * * * * * * * * * * * * * * //

dimensions      [0 2 -1 0 0 0 0];

internalField   nonuniform List<scalar> 
46000
(
3.25374e-08
1.67839e-07
3.61124e-07
5.62569e-07
7.62892e-07
9.60976e-07
1.15723e-06
1.35172e-06
1.54164e-06
1.72641e-06
1.90581e-06
2.07934e-06
2.24673e-06
2.40808e-06
2.56306e-06
2.7114e-06
2.85333e-06
2.9889e-06
3.11819e-06
3.24129e-06
3.35831e-06
3.46955e-06
3.57733e-06
3.68044e-06
3.77836e-06
3.87119e-06
3.95912e-06
4.04233e-06
4.12101e-06
4.19542e-06
4.26557e-06
4.33153e-06
4.39355e-06
4.4517e-06
4.50603e-06
4.55665e-06
4.60363e-06
4.64703e-06
4.68692e-06
4.72334e-06
4.75634e-06
4.78594e-06
4.81217e-06
4.83505e-06
4.8546e-06
4.87082e-06
4.88372e-06
4.89331e-06
4.89959e-06
4.90259e-06
4.90233e-06
4.89881e-06
4.89209e-06
4.8822e-06
4.86918e-06
4.85312e-06
4.83407e-06
4.81212e-06
4.78736e-06
4.75989e-06
4.72984e-06
4.69741e-06
4.66348e-06
4.62811e-06
4.59077e-06
4.55154e-06
4.51061e-06
4.46816e-06
4.42438e-06
4.37947e-06
4.33361e-06
4.28702e-06
4.23988e-06
4.19241e-06
4.14479e-06
4.09722e-06
4.04989e-06
4.00299e-06
3.95669e-06
3.91117e-06
3.8666e-06
3.82312e-06
3.7809e-06
3.74006e-06
3.70075e-06
3.66308e-06
3.62717e-06
3.59311e-06
3.56102e-06
3.53096e-06
3.50302e-06
3.47726e-06
3.45373e-06
3.43249e-06
3.41358e-06
3.39702e-06
3.38284e-06
3.37105e-06
3.36167e-06
3.35468e-06
3.35009e-06
3.3479e-06
3.34808e-06
3.35061e-06
3.35546e-06
3.36263e-06
3.37206e-06
3.3837e-06
3.39754e-06
3.41354e-06
3.43167e-06
3.45188e-06
3.47414e-06
3.4984e-06
3.52463e-06
3.55277e-06
3.5828e-06
3.61468e-06
3.64835e-06
3.6838e-06
3.72097e-06
3.75984e-06
3.80037e-06
3.84253e-06
3.88629e-06
3.93161e-06
3.97847e-06
4.02684e-06
4.07669e-06
4.12799e-06
4.18071e-06
4.23481e-06
4.29027e-06
4.34704e-06
4.40509e-06
4.46436e-06
4.52481e-06
4.58638e-06
4.64899e-06
4.71257e-06
4.77703e-06
4.84225e-06
4.90813e-06
4.97452e-06
5.04127e-06
5.10819e-06
5.17508e-06
5.24172e-06
5.30785e-06
5.37318e-06
5.4374e-06
5.50015e-06
5.56107e-06
5.61972e-06
5.67566e-06
5.7284e-06
5.77742e-06
5.82217e-06
5.86206e-06
5.89647e-06
5.92478e-06
5.94633e-06
5.96044e-06
5.96645e-06
5.96367e-06
5.95146e-06
5.92916e-06
5.89634e-06
5.85432e-06
5.80169e-06
5.73716e-06
5.66021e-06
5.57055e-06
5.468e-06
5.35248e-06
5.22404e-06
5.08285e-06
4.9292e-06
4.7635e-06
4.58632e-06
4.39834e-06
4.20036e-06
3.99332e-06
3.77826e-06
3.55629e-06
3.32861e-06
3.09648e-06
2.86116e-06
2.62389e-06
2.38585e-06
2.14789e-06
1.90873e-06
1.67324e-06
1.43858e-06
1.20338e-06
9.66148e-07
7.31285e-07
4.87393e-07
2.36811e-07
4.64032e-08
3.25403e-08
1.67849e-07
3.6114e-07
5.62588e-07
7.62913e-07
9.60998e-07
1.15726e-06
1.35175e-06
1.54167e-06
1.72644e-06
1.90584e-06
2.07937e-06
2.24675e-06
2.40811e-06
2.56309e-06
2.71143e-06
2.85336e-06
2.98893e-06
3.11822e-06
3.24131e-06
3.35834e-06
3.46957e-06
3.57735e-06
3.68046e-06
3.77838e-06
3.87121e-06
3.95914e-06
4.04235e-06
4.12103e-06
4.19545e-06
4.26559e-06
4.33155e-06
4.39358e-06
4.45173e-06
4.50606e-06
4.55668e-06
4.60366e-06
4.64707e-06
4.68696e-06
4.72338e-06
4.75638e-06
4.78598e-06
4.81221e-06
4.8351e-06
4.85464e-06
4.87086e-06
4.88377e-06
4.89336e-06
4.89965e-06
4.90265e-06
4.90238e-06
4.89887e-06
4.89214e-06
4.88225e-06
4.86924e-06
4.85317e-06
4.83412e-06
4.81217e-06
4.78741e-06
4.75995e-06
4.72989e-06
4.69746e-06
4.66353e-06
4.62816e-06
4.59081e-06
4.55159e-06
4.51066e-06
4.4682e-06
4.42442e-06
4.3795e-06
4.33365e-06
4.28705e-06
4.23991e-06
4.19243e-06
4.14481e-06
4.09724e-06
4.04991e-06
4.00301e-06
3.95671e-06
3.91119e-06
3.86661e-06
3.82313e-06
3.78091e-06
3.74007e-06
3.70075e-06
3.66308e-06
3.62717e-06
3.59311e-06
3.56102e-06
3.53096e-06
3.50301e-06
3.47725e-06
3.45373e-06
3.43249e-06
3.41357e-06
3.39701e-06
3.38283e-06
3.37104e-06
3.36165e-06
3.35467e-06
3.35007e-06
3.34788e-06
3.34806e-06
3.35059e-06
3.35544e-06
3.3626e-06
3.37203e-06
3.38367e-06
3.39751e-06
3.41351e-06
3.43164e-06
3.45185e-06
3.47411e-06
3.49837e-06
3.5246e-06
3.55274e-06
3.58277e-06
3.61464e-06
3.64832e-06
3.68376e-06
3.72094e-06
3.7598e-06
3.80034e-06
3.8425e-06
3.88625e-06
3.93158e-06
3.97844e-06
4.02681e-06
4.07666e-06
4.12795e-06
4.18067e-06
4.23477e-06
4.29023e-06
4.347e-06
4.40505e-06
4.46432e-06
4.52477e-06
4.58634e-06
4.64895e-06
4.71253e-06
4.77699e-06
4.84221e-06
4.90809e-06
4.97448e-06
5.04123e-06
5.10815e-06
5.17504e-06
5.24168e-06
5.30781e-06
5.37314e-06
5.43736e-06
5.50012e-06
5.56103e-06
5.61968e-06
5.67563e-06
5.72837e-06
5.77739e-06
5.82214e-06
5.86203e-06
5.89644e-06
5.92475e-06
5.9463e-06
5.96042e-06
5.96642e-06
5.96365e-06
5.95143e-06
5.92914e-06
5.89632e-06
5.8543e-06
5.80167e-06
5.73714e-06
5.6602e-06
5.57054e-06
5.46799e-06
5.35247e-06
5.22404e-06
5.08285e-06
4.9292e-06
4.7635e-06
4.58632e-06
4.39834e-06
4.20037e-06
3.99333e-06
3.77826e-06
3.55629e-06
3.32862e-06
3.09649e-06
2.86117e-06
2.6239e-06
2.38586e-06
2.1479e-06
1.90874e-06
1.67325e-06
1.43859e-06
1.20339e-06
9.66153e-07
7.31294e-07
4.874e-07
2.36816e-07
4.64041e-08
1.55157e-07
7.5989e-06
1.67842e-05
2.34077e-05
2.86236e-05
3.30048e-05
3.68126e-05
4.01163e-05
4.30725e-05
4.57533e-05
4.82054e-05
5.04592e-05
5.25382e-05
5.44609e-05
5.62441e-05
5.79011e-05
5.94417e-05
6.08749e-05
6.22091e-05
6.34511e-05
6.46062e-05
6.56757e-05
6.66487e-05
6.75433e-05
6.83723e-05
6.91432e-05
6.98614e-05
7.05313e-05
7.11568e-05
7.1741e-05
7.22873e-05
7.27989e-05
7.32777e-05
7.37252e-05
7.41431e-05
7.45325e-05
7.48944e-05
7.52297e-05
7.55392e-05
7.58234e-05
7.6083e-05
7.63183e-05
7.65297e-05
7.67173e-05
7.68813e-05
7.70219e-05
7.7139e-05
7.72328e-05
7.73032e-05
7.73504e-05
7.73743e-05
7.73749e-05
7.73525e-05
7.73071e-05
7.72389e-05
7.71481e-05
7.7035e-05
7.68999e-05
7.67431e-05
7.65648e-05
7.63646e-05
7.6141e-05
7.58883e-05
7.56131e-05
7.532e-05
7.5011e-05
7.46878e-05
7.43515e-05
7.40035e-05
7.3645e-05
7.32773e-05
7.29017e-05
7.25197e-05
7.21325e-05
7.17418e-05
7.13488e-05
7.0955e-05
7.05619e-05
7.01709e-05
6.97835e-05
6.9401e-05
6.90248e-05
6.86563e-05
6.82968e-05
6.79475e-05
6.76097e-05
6.72846e-05
6.69731e-05
6.66764e-05
6.63954e-05
6.61309e-05
6.58838e-05
6.56548e-05
6.54444e-05
6.52532e-05
6.50817e-05
6.49301e-05
6.47987e-05
6.46878e-05
6.45975e-05
6.45275e-05
6.4478e-05
6.44488e-05
6.44397e-05
6.44504e-05
6.44806e-05
6.45299e-05
6.45982e-05
6.46848e-05
6.47893e-05
6.49112e-05
6.505e-05
6.52051e-05
6.53762e-05
6.55626e-05
6.57637e-05
6.59791e-05
6.62083e-05
6.64507e-05
6.67058e-05
6.69731e-05
6.72522e-05
6.75426e-05
6.78438e-05
6.81554e-05
6.84771e-05
6.88082e-05
6.91486e-05
6.94977e-05
6.98552e-05
7.02207e-05
7.05937e-05
7.09739e-05
7.13608e-05
7.17538e-05
7.21526e-05
7.25566e-05
7.29652e-05
7.33777e-05
7.37934e-05
7.42116e-05
7.46314e-05
7.50518e-05
7.54718e-05
7.58902e-05
7.63056e-05
7.67168e-05
7.71221e-05
7.75198e-05
7.79081e-05
7.8285e-05
7.86483e-05
7.89956e-05
7.93246e-05
7.96325e-05
7.99164e-05
8.01735e-05
8.04006e-05
8.05944e-05
8.07514e-05
8.08683e-05
8.09412e-05
8.09666e-05
8.09406e-05
8.08593e-05
8.07186e-05
8.0514e-05
8.02394e-05
7.98825e-05
7.94386e-05
7.8909e-05
7.82927e-05
7.75878e-05
7.67921e-05
7.59034e-05
7.49198e-05
7.38398e-05
7.26621e-05
7.13857e-05
7.00099e-05
6.85344e-05
6.6959e-05
6.52837e-05
6.35086e-05
6.16335e-05
5.96582e-05
5.75818e-05
5.54024e-05
5.31164e-05
5.0718e-05
4.81983e-05
4.55458e-05
4.27064e-05
3.9609e-05
3.61235e-05
3.19776e-05
2.65228e-05
1.92818e-05
8.90803e-06
2.06694e-07
1.55169e-07
7.59963e-06
1.67855e-05
2.34092e-05
2.86251e-05
3.30064e-05
3.68141e-05
4.01177e-05
4.3074e-05
4.57547e-05
4.82068e-05
5.04607e-05
5.25397e-05
5.44624e-05
5.62456e-05
5.79026e-05
5.94432e-05
6.08765e-05
6.22106e-05
6.34527e-05
6.46079e-05
6.56774e-05
6.66505e-05
6.75452e-05
6.83742e-05
6.91451e-05
6.98634e-05
7.05334e-05
7.11589e-05
7.17432e-05
7.22896e-05
7.28013e-05
7.32802e-05
7.37278e-05
7.41457e-05
7.45352e-05
7.48972e-05
7.52325e-05
7.55421e-05
7.58265e-05
7.60861e-05
7.63215e-05
7.6533e-05
7.67207e-05
7.68848e-05
7.70254e-05
7.71426e-05
7.72364e-05
7.73069e-05
7.73541e-05
7.73781e-05
7.73788e-05
7.73564e-05
7.7311e-05
7.72428e-05
7.7152e-05
7.7039e-05
7.69039e-05
7.67471e-05
7.65687e-05
7.63686e-05
7.61449e-05
7.58921e-05
7.56169e-05
7.53237e-05
7.50147e-05
7.46914e-05
7.43551e-05
7.4007e-05
7.36484e-05
7.32806e-05
7.2905e-05
7.25228e-05
7.21356e-05
7.17448e-05
7.13517e-05
7.09578e-05
7.05646e-05
7.01736e-05
6.9786e-05
6.94034e-05
6.90271e-05
6.86585e-05
6.82989e-05
6.79496e-05
6.76117e-05
6.72864e-05
6.69749e-05
6.66781e-05
6.6397e-05
6.61324e-05
6.58852e-05
6.5656e-05
6.54456e-05
6.52543e-05
6.50826e-05
6.4931e-05
6.47995e-05
6.46885e-05
6.45981e-05
6.45281e-05
6.44785e-05
6.44492e-05
6.444e-05
6.44506e-05
6.44807e-05
6.453e-05
6.45982e-05
6.46847e-05
6.47892e-05
6.4911e-05
6.50498e-05
6.52049e-05
6.53759e-05
6.55622e-05
6.57633e-05
6.59787e-05
6.62078e-05
6.64502e-05
6.67053e-05
6.69726e-05
6.72516e-05
6.7542e-05
6.78432e-05
6.81548e-05
6.84764e-05
6.88075e-05
6.91479e-05
6.9497e-05
6.98545e-05
7.02199e-05
7.05929e-05
7.09731e-05
7.13599e-05
7.1753e-05
7.21518e-05
7.25557e-05
7.29643e-05
7.33768e-05
7.37925e-05
7.42107e-05
7.46305e-05
7.50509e-05
7.54708e-05
7.58892e-05
7.63047e-05
7.67158e-05
7.71211e-05
7.75188e-05
7.79071e-05
7.82839e-05
7.86472e-05
7.89946e-05
7.93235e-05
7.96314e-05
7.99154e-05
8.01724e-05
8.03995e-05
8.05933e-05
8.07503e-05
8.08672e-05
8.09401e-05
8.09655e-05
8.09395e-05
8.08582e-05
8.07175e-05
8.0513e-05
8.02384e-05
7.98816e-05
7.94377e-05
7.89081e-05
7.82918e-05
7.7587e-05
7.67913e-05
7.59026e-05
7.49191e-05
7.38391e-05
7.26615e-05
7.13851e-05
7.00093e-05
6.85338e-05
6.69585e-05
6.52832e-05
6.35081e-05
6.16331e-05
5.96578e-05
5.75814e-05
5.5402e-05
5.3116e-05
5.07176e-05
4.81979e-05
4.55455e-05
4.27061e-05
3.96087e-05
3.61233e-05
3.19774e-05
2.65226e-05
1.92816e-05
8.90801e-06
2.06692e-07
3.36463e-07
1.64288e-05
3.91787e-05
5.65368e-05
7.01028e-05
8.12667e-05
9.0719e-05
9.8908e-05
0.000106145
0.000112619
0.000118467
0.000123785
0.000128646
0.000133103
0.000137201
0.000140977
0.000144461
0.00014768
0.000150657
0.000153411
0.000155957
0.000158305
0.000160455
0.000162431
0.000164257
0.000165948
0.000167519
0.000168981
0.000170342
0.000171611
0.000172794
0.000173898
0.000174926
0.000175884
0.000176776
0.000177604
0.000178369
0.000179075
0.000179721
0.00018031
0.000180843
0.000181322
0.000181746
0.000182118
0.000182438
0.000182707
0.000182926
0.000183095
0.000183216
0.000183289
0.000183314
0.000183294
0.000183227
0.000183116
0.00018296
0.000182761
0.000182519
0.000182236
0.000181911
0.000181545
0.000181138
0.000180687
0.000180189
0.000179649
0.000179073
0.000178467
0.000177833
0.000177174
0.000176492
0.00017579
0.00017507
0.000174334
0.000173586
0.000172826
0.000172059
0.000171286
0.00017051
0.000169733
0.000168958
0.000168188
0.000167425
0.000166672
0.000165931
0.000165204
0.000164494
0.000163802
0.000163132
0.000162484
0.000161861
0.000161264
0.000160696
0.000160157
0.000159648
0.000159171
0.000158727
0.000158317
0.00015794
0.000157597
0.00015729
0.000157017
0.000156778
0.000156575
0.000156405
0.00015627
0.000156167
0.000156098
0.000156061
0.000156055
0.00015608
0.000156135
0.00015622
0.000156333
0.000156473
0.00015664
0.000156833
0.000157052
0.000157294
0.00015756
0.000157848
0.000158159
0.00015849
0.000158843
0.000159215
0.000159606
0.000160016
0.000160444
0.00016089
0.000161352
0.00016183
0.000162324
0.000162833
0.000163356
0.000163893
0.000164442
0.000165004
0.000165576
0.000166159
0.00016675
0.000167349
0.000167954
0.000168564
0.000169176
0.00016979
0.000170403
0.000171012
0.000171615
0.00017221
0.000172793
0.000173361
0.000173911
0.000174439
0.00017494
0.000175411
0.000175847
0.000176242
0.000176593
0.000176893
0.000177137
0.000177319
0.000177434
0.000177475
0.000177436
0.00017731
0.000177092
0.000176774
0.000176349
0.00017581
0.000175145
0.000174343
0.000173392
0.000172291
0.000171038
0.000169629
0.000168061
0.000166328
0.000164428
0.000162355
0.000160107
0.000157679
0.000155067
0.000152266
0.000149272
0.000146079
0.000142681
0.000139068
0.000135232
0.000131158
0.000126829
0.000122219
0.000117295
0.000112005
0.000106269
9.99485e-05
9.28209e-05
8.44963e-05
7.42819e-05
6.09804e-05
4.29327e-05
1.85228e-05
4.44768e-07
3.36481e-07
1.643e-05
3.91816e-05
5.65405e-05
7.01069e-05
8.12708e-05
9.0723e-05
9.89119e-05
0.000106149
0.000112623
0.000118471
0.000123789
0.00012865
0.000133107
0.000137205
0.000140981
0.000144465
0.000147684
0.000150661
0.000153415
0.000155961
0.000158309
0.000160459
0.000162435
0.000164261
0.000165952
0.000167523
0.000168985
0.000170346
0.000171615
0.000172798
0.000173902
0.000174931
0.000175889
0.000176781
0.000177609
0.000178375
0.00017908
0.000179727
0.000180316
0.00018085
0.000181328
0.000181753
0.000182125
0.000182445
0.000182714
0.000182933
0.000183102
0.000183223
0.000183296
0.000183322
0.000183301
0.000183235
0.000183123
0.000182968
0.000182769
0.000182527
0.000182244
0.000181919
0.000181553
0.000181145
0.000180694
0.000180196
0.000179656
0.00017908
0.000178474
0.00017784
0.00017718
0.000176499
0.000175796
0.000175076
0.00017434
0.000173591
0.000172832
0.000172064
0.000171291
0.000170514
0.000169737
0.000168963
0.000168192
0.000167429
0.000166676
0.000165934
0.000165207
0.000164497
0.000163805
0.000163134
0.000162486
0.000161863
0.000161266
0.000160697
0.000160158
0.000159649
0.000159172
0.000158728
0.000158317
0.00015794
0.000157597
0.000157289
0.000157016
0.000156778
0.000156574
0.000156404
0.000156269
0.000156166
0.000156096
0.000156059
0.000156053
0.000156078
0.000156134
0.000156218
0.000156331
0.000156471
0.000156638
0.000156831
0.000157049
0.000157291
0.000157557
0.000157846
0.000158156
0.000158488
0.00015884
0.000159212
0.000159603
0.000160013
0.000160441
0.000160887
0.000161349
0.000161827
0.000162321
0.00016283
0.000163353
0.00016389
0.000164439
0.000165001
0.000165573
0.000166155
0.000166747
0.000167346
0.000167951
0.00016856
0.000169173
0.000169787
0.000170399
0.000171009
0.000171612
0.000172207
0.00017279
0.000173358
0.000173908
0.000174436
0.000174937
0.000175408
0.000175843
0.000176239
0.00017659
0.00017689
0.000177134
0.000177316
0.000177431
0.000177472
0.000177433
0.000177307
0.000177089
0.000176771
0.000176346
0.000175807
0.000175143
0.000174341
0.00017339
0.000172289
0.000171036
0.000169627
0.000168059
0.000166326
0.000164426
0.000162354
0.000160105
0.000157677
0.000155065
0.000152265
0.000149271
0.000146078
0.00014268
0.000139068
0.000135231
0.000131157
0.000126828
0.000122219
0.000117295
0.000112004
0.000106269
9.99483e-05
9.28207e-05
8.44962e-05
7.42818e-05
6.09803e-05
4.29327e-05
1.85229e-05
4.44765e-07
5.22595e-07
2.27127e-05
5.58828e-05
8.30414e-05
0.000104918
0.000123091
0.000138563
0.000152008
0.000163879
0.000174483
0.000184038
0.000192702
0.000200596
0.000207814
0.000214431
0.000220512
0.000226109
0.000231268
0.00023603
0.000240427
0.000244488
0.000248235
0.000251686
0.000254869
0.000257812
0.000260539
0.000263072
0.000265426
0.000267618
0.000269658
0.000271558
0.000273327
0.000274972
0.0002765
0.000277917
0.000279227
0.000280435
0.000281542
0.000282552
0.000283467
0.000284289
0.00028502
0.000285663
0.000286219
0.000286691
0.000287081
0.00028739
0.000287621
0.000287775
0.000287855
0.000287861
0.000287797
0.000287663
0.000287462
0.000287196
0.000286865
0.000286473
0.000286019
0.000285506
0.000284934
0.000284304
0.000283615
0.000282867
0.000282063
0.00028121
0.000280314
0.000279378
0.000278406
0.000277402
0.000276369
0.000275311
0.00027423
0.000273131
0.000272016
0.00027089
0.000269754
0.000268614
0.000267472
0.000266331
0.000265196
0.000264068
0.000262953
0.000261852
0.000260768
0.000259706
0.000258667
0.000257654
0.00025667
0.000255717
0.000254797
0.000253912
0.000253064
0.000252254
0.000251484
0.000250754
0.000250066
0.000249421
0.000248817
0.000248257
0.000247739
0.000247264
0.000246831
0.000246439
0.00024609
0.000245781
0.000245512
0.000245283
0.000245092
0.00024494
0.000244824
0.000244744
0.0002447
0.00024469
0.000244713
0.000244769
0.000244856
0.000244975
0.000245124
0.000245303
0.00024551
0.000245746
0.000246009
0.0002463
0.000246617
0.00024696
0.000247328
0.000247722
0.000248139
0.000248581
0.000249045
0.000249532
0.00025004
0.000250569
0.000251117
0.000251684
0.000252268
0.000252869
0.000253483
0.000254111
0.000254749
0.000255395
0.000256047
0.000256703
0.000257358
0.000258011
0.000258656
0.000259291
0.000259911
0.000260511
0.000261087
0.000261633
0.000262143
0.000262612
0.000263033
0.000263399
0.000263703
0.000263939
0.000264099
0.000264175
0.000264159
0.000264044
0.00026382
0.000263479
0.000263014
0.000262414
0.000261672
0.000260776
0.000259716
0.000258477
0.000257048
0.000255424
0.0002536
0.000251569
0.000249326
0.000246864
0.000244177
0.000241257
0.000238096
0.000234687
0.00023102
0.000227085
0.00022287
0.000218361
0.000213541
0.00020839
0.000202883
0.000196988
0.000190666
0.000183861
0.0001765
0.000168477
0.000159635
0.000149733
0.000138398
0.000125034
0.0001087
8.79313e-05
6.06411e-05
2.57049e-05
7.02167e-07
5.22616e-07
2.2714e-05
5.58864e-05
8.30463e-05
0.000104924
0.000123097
0.000138569
0.000152014
0.000163885
0.00017449
0.000184044
0.000192708
0.000200602
0.00020782
0.000214437
0.000220518
0.000226115
0.000231274
0.000236036
0.000240433
0.000244494
0.000248241
0.000251692
0.000254875
0.000257818
0.000260546
0.000263078
0.000265433
0.000267625
0.000269665
0.000271565
0.000273334
0.000274979
0.000276507
0.000277924
0.000279235
0.000280443
0.000281551
0.000282561
0.000283476
0.000284298
0.000285029
0.000285672
0.000286229
0.000286701
0.000287091
0.0002874
0.000287631
0.000287785
0.000287865
0.000287871
0.000287807
0.000287674
0.000287473
0.000287206
0.000286876
0.000286483
0.000286029
0.000285516
0.000284944
0.000284314
0.000283625
0.000282876
0.000282072
0.000281219
0.000280323
0.000279386
0.000278414
0.00027741
0.000276377
0.000275318
0.000274238
0.000273138
0.000272023
0.000270896
0.000269761
0.00026862
0.000267477
0.000266336
0.000265201
0.000264073
0.000262957
0.000261856
0.000260772
0.000259709
0.00025867
0.000257657
0.000256672
0.000255719
0.000254799
0.000253913
0.000253065
0.000252255
0.000251484
0.000250754
0.000250066
0.00024942
0.000248816
0.000248256
0.000247737
0.000247262
0.000246829
0.000246437
0.000246087
0.000245778
0.00024551
0.00024528
0.000245089
0.000244936
0.00024482
0.000244741
0.000244696
0.000244686
0.000244709
0.000244764
0.000244852
0.000244971
0.00024512
0.000245298
0.000245506
0.000245741
0.000246005
0.000246295
0.000246612
0.000246955
0.000247324
0.000247717
0.000248134
0.000248576
0.00024904
0.000249526
0.000250035
0.000250563
0.000251112
0.000251679
0.000252263
0.000252864
0.000253478
0.000254106
0.000254744
0.00025539
0.000256042
0.000256698
0.000257353
0.000258006
0.000258651
0.000259286
0.000259906
0.000260506
0.000261082
0.000261628
0.000262138
0.000262607
0.000263028
0.000263394
0.000263699
0.000263935
0.000264095
0.000264171
0.000264155
0.000264039
0.000263816
0.000263475
0.00026301
0.00026241
0.000261668
0.000260772
0.000259712
0.000258473
0.000257045
0.000255421
0.000253597
0.000251567
0.000249324
0.000246862
0.000244175
0.000241255
0.000238094
0.000234686
0.000231019
0.000227084
0.000222869
0.00021836
0.00021354
0.000208389
0.000202882
0.000196988
0.000190665
0.000183861
0.0001765
0.000168477
0.000159635
0.000149734
0.000138398
0.000125035
0.0001087
8.79316e-05
6.06413e-05
2.57051e-05
7.02163e-07
7.06651e-07
2.75889e-05
6.86366e-05
0.000103873
0.000133073
0.000157681
0.00017884
0.000197339
0.000213726
0.000228386
0.000241603
0.000253589
0.000264506
0.000274485
0.00028363
0.000292031
0.000299761
0.000306885
0.000313458
0.000319529
0.000325138
0.000330321
0.00033511
0.000339537
0.000343638
0.000347441
0.000350974
0.000354258
0.000357314
0.000360157
0.000362803
0.000365263
0.000367548
0.000369667
0.000371627
0.000373435
0.000375097
0.000376617
0.000377998
0.000379245
0.00038036
0.000381348
0.000382211
0.000382952
0.000383576
0.000384085
0.000384481
0.00038477
0.000384953
0.000385034
0.000385015
0.000384901
0.000384693
0.000384396
0.000384011
0.000383541
0.00038299
0.00038236
0.000381652
0.000380869
0.000380013
0.000379085
0.000378085
0.00037702
0.000375893
0.000374711
0.00037348
0.000372203
0.000370885
0.000369532
0.000368146
0.000366733
0.000365296
0.000363839
0.000362368
0.000360886
0.000359397
0.000357906
0.000356416
0.000354932
0.000353457
0.000351996
0.000350552
0.000349129
0.00034773
0.000346358
0.000345017
0.000343708
0.000342436
0.000341202
0.000340007
0.000338855
0.000337747
0.000336683
0.000335666
0.000334695
0.000333771
0.000332895
0.000332066
0.000331284
0.000330549
0.000329861
0.000329218
0.000328622
0.000328069
0.000327561
0.000327096
0.000326673
0.000326292
0.000325951
0.000325649
0.000325387
0.000325163
0.000324976
0.000324826
0.000324711
0.000324633
0.000324589
0.00032458
0.000324605
0.000324663
0.000324755
0.000324879
0.000325037
0.000325226
0.000325448
0.000325701
0.000325985
0.0003263
0.000326644
0.000327019
0.000327422
0.000327852
0.000328309
0.000328792
0.000329298
0.000329826
0.000330375
0.000330942
0.000331525
0.00033212
0.000332725
0.000333337
0.000333951
0.000334563
0.000335169
0.000335764
0.000336343
0.000336899
0.000337427
0.00033792
0.000338371
0.000338772
0.000339117
0.000339397
0.000339603
0.000339727
0.00033976
0.000339692
0.000339515
0.000339219
0.000338793
0.000338228
0.000337514
0.000336641
0.000335597
0.000334372
0.000332954
0.000331326
0.000329479
0.000327404
0.000325092
0.000322535
0.000319725
0.000316652
0.000313307
0.000309678
0.000305754
0.000301521
0.000296964
0.000292066
0.000286806
0.000281161
0.000275103
0.000268597
0.000261604
0.000254071
0.000245934
0.000237109
0.000227482
0.000216897
0.000205128
0.000191845
0.00017656
0.000158536
0.000136671
0.000109365
7.45407e-05
3.16097e-05
9.73256e-07
7.06673e-07
2.75903e-05
6.86404e-05
0.000103878
0.00013308
0.000157688
0.000178848
0.000197348
0.000213734
0.000228395
0.000241612
0.000253597
0.000264514
0.000274493
0.000283639
0.00029204
0.00029977
0.000306894
0.000313468
0.000319538
0.000325147
0.000330331
0.00033512
0.000339547
0.000343648
0.000347451
0.000350984
0.000354268
0.000357324
0.000360168
0.000362814
0.000365274
0.00036756
0.000369678
0.000371639
0.000373447
0.000375109
0.000376629
0.00037801
0.000379257
0.000380373
0.00038136
0.000382223
0.000382965
0.000383589
0.000384098
0.000384495
0.000384783
0.000384966
0.000385047
0.000385029
0.000384914
0.000384707
0.000384409
0.000384024
0.000383555
0.000383003
0.000382373
0.000381665
0.000380882
0.000380025
0.000379097
0.000378097
0.000377031
0.000375904
0.000374722
0.00037349
0.000372213
0.000370896
0.000369542
0.000368156
0.000366742
0.000365304
0.000363848
0.000362376
0.000360894
0.000359404
0.000357913
0.000356422
0.000354938
0.000353463
0.000352001
0.000350557
0.000349134
0.000347734
0.000346362
0.00034502
0.000343711
0.000342439
0.000341204
0.000340009
0.000338857
0.000337748
0.000336684
0.000335666
0.000334695
0.000333771
0.000332894
0.000332065
0.000331282
0.000330547
0.000329859
0.000329216
0.000328619
0.000328067
0.000327558
0.000327093
0.00032667
0.000326288
0.000325947
0.000325645
0.000325383
0.000325158
0.000324971
0.000324821
0.000324706
0.000324628
0.000324584
0.000324574
0.000324599
0.000324657
0.000324749
0.000324874
0.000325031
0.00032522
0.000325442
0.000325695
0.000325979
0.000326294
0.000326638
0.000327013
0.000327415
0.000327846
0.000328303
0.000328786
0.000329292
0.00032982
0.000330369
0.000330936
0.000331519
0.000332114
0.000332719
0.000333331
0.000333945
0.000334557
0.000335163
0.000335758
0.000336337
0.000336893
0.000337421
0.000337914
0.000338365
0.000338766
0.000339111
0.000339391
0.000339597
0.000339721
0.000339754
0.000339687
0.00033951
0.000339214
0.000338788
0.000338223
0.00033751
0.000336636
0.000335592
0.000334368
0.00033295
0.000331323
0.000329476
0.0003274
0.000325089
0.000322532
0.000319722
0.00031665
0.000313305
0.000309676
0.000305752
0.00030152
0.000296963
0.000292065
0.000286806
0.000281161
0.000275103
0.000268597
0.000261604
0.000254071
0.000245934
0.00023711
0.000227483
0.000216898
0.000205128
0.000191846
0.000176561
0.000158537
0.000136672
0.000109366
7.45412e-05
3.161e-05
9.7325e-07
8.91624e-07
3.16827e-05
7.89673e-05
0.000120813
0.000156273
0.000186594
0.000212908
0.000236054
0.000256635
0.000275095
0.000291766
0.000306902
0.000320701
0.000333323
0.000344898
0.000355537
0.000365333
0.000374365
0.000382704
0.000390411
0.000397539
0.000404135
0.000410241
0.000415896
0.00042114
0.000426009
0.000430532
0.000434739
0.000438652
0.000442292
0.000445677
0.000448822
0.000451739
0.000454441
0.000456936
0.000459234
0.000461341
0.000463264
0.000465009
0.000466579
0.00046798
0.000469216
0.000470292
0.000471212
0.000471981
0.000472603
0.000473083
0.000473425
0.000473633
0.000473711
0.000473665
0.000473497
0.000473213
0.000472817
0.000472311
0.000471702
0.000470991
0.000470183
0.000469281
0.000468288
0.000467207
0.000466042
0.000464794
0.00046347
0.000462074
0.000460613
0.000459092
0.000457519
0.000455897
0.000454232
0.00045253
0.000450795
0.000449033
0.000447249
0.000445448
0.000443635
0.000441814
0.000439991
0.00043817
0.000436357
0.000434555
0.000432769
0.000431004
0.000429262
0.000427549
0.000425867
0.000424219
0.00042261
0.00042104
0.000419514
0.000418033
0.000416599
0.000415213
0.000413876
0.00041259
0.000411354
0.000410169
0.000409035
0.000407952
0.000406919
0.000405935
0.000405001
0.000404115
0.000403276
0.000402484
0.000401737
0.000401035
0.000400377
0.000399761
0.000399187
0.000398653
0.000398161
0.000397707
0.000397293
0.000396917
0.00039658
0.00039628
0.000396018
0.000395793
0.000395605
0.000395454
0.000395341
0.000395264
0.000395225
0.000395223
0.000395258
0.000395329
0.000395438
0.000395583
0.000395763
0.00039598
0.000396231
0.000396516
0.000396834
0.000397183
0.000397563
0.00039797
0.000398403
0.00039886
0.000399337
0.000399832
0.00040034
0.000400858
0.000401382
0.000401906
0.000402425
0.000402933
0.000403425
0.000403894
0.000404332
0.000404731
0.000405085
0.000405384
0.00040562
0.000405784
0.000405865
0.000405855
0.000405743
0.000405518
0.000405171
0.00040469
0.000404065
0.000403284
0.000402336
0.00040121
0.000399895
0.000398377
0.000396645
0.000394681
0.000392475
0.000390016
0.000387293
0.000384296
0.000381013
0.000377432
0.000373539
0.000369319
0.000364756
0.000359831
0.000354521
0.000348802
0.000342645
0.000336016
0.000328875
0.000321174
0.000312857
0.000303854
0.000294075
0.00028341
0.000271709
0.00025877
0.000244313
0.000227939
0.00020907
0.000186869
0.00016013
0.000127171
8.59666e-05
3.64392e-05
1.25575e-06
8.91649e-07
3.16841e-05
7.89712e-05
0.000120819
0.000156281
0.000186602
0.000212918
0.000236063
0.000256645
0.000275105
0.000291777
0.000306913
0.000320712
0.000333334
0.00034491
0.000355549
0.000365345
0.000374378
0.000382717
0.000390424
0.000397553
0.000404149
0.000410255
0.00041591
0.000421155
0.000426023
0.000430547
0.000434754
0.000438667
0.000442307
0.000445692
0.000448837
0.000451755
0.000454457
0.000456952
0.00045925
0.000461357
0.00046328
0.000465025
0.000466595
0.000467996
0.000469232
0.000470308
0.000471229
0.000471998
0.00047262
0.0004731
0.000473441
0.000473649
0.000473728
0.000473681
0.000473514
0.00047323
0.000472833
0.000472328
0.000471718
0.000471007
0.000470198
0.000469296
0.000468303
0.000467222
0.000466056
0.000464809
0.000463484
0.000462088
0.000460626
0.000459106
0.000457532
0.000455909
0.000454244
0.000452542
0.000450807
0.000449044
0.00044726
0.000445458
0.000443644
0.000441823
0.00044
0.000438179
0.000436365
0.000434563
0.000432777
0.000431011
0.000429269
0.000427555
0.000425872
0.000424224
0.000422614
0.000421045
0.000419518
0.000418036
0.000416602
0.000415215
0.000413878
0.000412591
0.000411355
0.00041017
0.000409036
0.000407952
0.000406918
0.000405935
0.000405
0.000404114
0.000403275
0.000402482
0.000401735
0.000401033
0.000400374
0.000399758
0.000399183
0.00039865
0.000398157
0.000397703
0.000397289
0.000396913
0.000396575
0.000396275
0.000396013
0.000395788
0.0003956
0.000395449
0.000395335
0.000395259
0.00039522
0.000395217
0.000395252
0.000395324
0.000395432
0.000395577
0.000395757
0.000395974
0.000396225
0.00039651
0.000396828
0.000397177
0.000397556
0.000397964
0.000398397
0.000398854
0.000399331
0.000399826
0.000400334
0.000400852
0.000401376
0.0004019
0.000402419
0.000402927
0.000403419
0.000403888
0.000404326
0.000404725
0.000405079
0.000405378
0.000405614
0.000405778
0.000405859
0.000405849
0.000405737
0.000405513
0.000405166
0.000404685
0.00040406
0.000403279
0.000402332
0.000401206
0.00039989
0.000398373
0.000396641
0.000394677
0.000392472
0.000390013
0.000387291
0.000384294
0.000381011
0.00037743
0.000373537
0.000369318
0.000364755
0.00035983
0.00035452
0.000348802
0.000342645
0.000336016
0.000328875
0.000321175
0.000312858
0.000303854
0.000294076
0.000283411
0.00027171
0.000258772
0.000244315
0.000227941
0.000209072
0.000186871
0.000160131
0.000127172
8.59674e-05
3.64398e-05
1.25574e-06
1.08274e-06
3.52564e-05
8.77065e-05
0.000135123
0.000175971
0.000211309
0.000242221
0.000269554
0.00029395
0.00031589
0.000335741
0.000353792
0.000370268
0.000385356
0.000399206
0.000411948
0.00042369
0.000434527
0.000444541
0.000453804
0.00046238
0.000470326
0.000477692
0.000484522
0.000490863
0.000496753
0.000502229
0.000507321
0.000512058
0.000516463
0.000520557
0.000524357
0.00052788
0.000531138
0.000534144
0.000536907
0.000539436
0.000541741
0.000543826
0.0005457
0.000547368
0.000548835
0.000550108
0.000551192
0.000552093
0.000552817
0.000553368
0.000553754
0.000553978
0.000554047
0.000553967
0.000553741
0.000553377
0.000552878
0.00055225
0.000551498
0.000550628
0.000549642
0.000548547
0.000547347
0.000546045
0.000544646
0.000543155
0.000541576
0.000539917