/*--------------------------------*- C++ -*----------------------------------*\
  =========                 |
  \\      /  F ield         | OpenFOAM: The Open Source CFD Toolbox
   \\    /   O peration     | Website:  https://openfoam.org
    \\  /    A nd           | Version:  8
     \\/     M anipulation  |
\*---------------------------------------------------------------------------*/
FoamFile
{
    version     2.0;
    format      ascii;
    class       surfaceScalarField;
    location    "1600";
    object      phi;
}
// * * * * * * * * * * * * * * * * * * * * * * * * * * * * * * * * * * * * * //

dimensions      [1 0 -1 0 0 0 0];

internalField   nonuniform List<scalar> 
114370
(
-1.21962e-10
6.95547e-14
1.21893e-10
-3.86292e-10
4.51724e-14
2.63088e-10
-6.83349e-10
2.81258e-14
2.96087e-10
-9.28394e-10
1.94717e-14
2.44252e-10
-1.08711e-09
1.44141e-14
1.57993e-10
-1.15523e-09
1.0926e-14
6.74535e-11
-1.14128e-09
8.3258e-15
-1.45838e-11
-1.05891e-09
6.18564e-15
-8.29684e-11
-9.23048e-10
4.58364e-15
-1.36433e-10
-7.47998e-10
3.53546e-15
-1.75588e-10
-5.46679e-10
2.80823e-15
-2.0183e-10
-3.30463e-10
2.36288e-15
-2.16702e-10
-1.09306e-10
2.23325e-15
-2.21618e-10
1.081e-10
2.19685e-15
-2.17845e-10
3.143e-10
2.14217e-15
-2.06617e-10
5.03097e-10
2.13825e-15
-1.89193e-10
6.69366e-10
2.24279e-15
-1.66644e-10
8.08924e-10
2.42889e-15
-1.39912e-10
9.18451e-10
2.55475e-15
-1.09864e-10
9.95431e-10
2.47984e-15
-7.73004e-11
1.03809e-09
2.16687e-15
-4.29651e-11
1.04536e-09
1.67004e-15
-7.55755e-12
1.01671e-09
1.10544e-15
2.83645e-11
9.52113e-10
5.42742e-16
6.43375e-11
8.52006e-10
-5.07179e-17
9.98559e-11
7.17319e-10
-6.72785e-16
1.34449e-10
5.49392e-10
-1.31002e-15
1.67699e-10
3.49935e-10
-1.93814e-15
1.99239e-10
1.20981e-10
-2.5268e-15
2.28746e-10
-1.35152e-10
-3.0756e-15
2.55934e-10
-4.15773e-10
-3.46789e-15
2.80432e-10
-7.17986e-10
-3.67112e-15
3.02035e-10
-1.03894e-09
-3.73471e-15
3.20791e-10
-1.37581e-09
-3.57064e-15
3.36704e-10
-1.72563e-09
-3.19494e-15
3.49672e-10
-2.0854e-09
-2.64968e-15
3.59631e-10
-2.45216e-09
-1.97516e-15
3.66628e-10
-2.82298e-09
-1.20695e-15
3.70696e-10
-3.19501e-09
-3.92318e-16
3.71912e-10
-3.56552e-09
4.19302e-16
3.70391e-10
-3.9319e-09
1.20059e-15
3.66273e-10
-4.29173e-09
1.91901e-15
3.59719e-10
-4.64275e-09
2.55289e-15
3.5091e-10
-4.9829e-09
3.09441e-15
3.4004e-10
-5.31032e-09
3.53751e-15
3.27312e-10
-5.62336e-09
3.8774e-15
3.12935e-10
-5.92058e-09
4.11626e-15
2.97117e-10
-6.20075e-09
4.25495e-15
2.80068e-10
-6.46285e-09
4.29997e-15
2.61991e-10
-6.70605e-09
4.26521e-15
2.43083e-10
-6.92969e-09
4.16237e-15
2.23531e-10
-7.13332e-09
3.99925e-15
2.03513e-10
-7.31663e-09
3.79537e-15
1.83194e-10
-7.47947e-09
3.56374e-15
1.62727e-10
-7.62184e-09
3.31477e-15
1.42251e-10
-7.74386e-09
3.05625e-15
1.21893e-10
-7.84575e-09
2.79557e-15
1.01764e-10
-7.92785e-09
2.53446e-15
8.19659e-11
-7.99057e-09
2.27942e-15
6.25856e-11
-8.03441e-09
2.03045e-15
4.37009e-11
-8.05994e-09
1.78712e-15
2.53815e-11
-8.06778e-09
1.54641e-15
7.69415e-12
-8.05862e-09
1.32311e-15
-9.31387e-12
-8.03312e-09
1.11534e-15
-2.56563e-11
-7.99195e-09
9.20138e-16
-4.13344e-11
-7.93581e-09
7.44884e-16
-5.63131e-11
-7.86541e-09
5.97382e-16
-7.05755e-11
-7.78148e-09
4.81101e-16
-8.41143e-11
-7.68474e-09
4.02112e-16
-9.69306e-11
-7.57591e-09
3.62149e-16
-1.09032e-10
-7.45569e-09
3.62079e-16
-1.20429e-10
-7.32476e-09
3.97567e-16
-1.31138e-10
-7.1838e-09
4.66876e-16
-1.41179e-10
-7.03346e-09
5.68707e-16
-1.5057e-10
-6.87437e-09
6.95253e-16
-1.59335e-10
-6.70712e-09
8.39144e-16
-1.67499e-10
-6.53229e-09
9.94741e-16
-1.75085e-10
-6.35043e-09
1.15727e-15
-1.82121e-10
-6.16207e-09
1.3172e-15
-1.88632e-10
-5.96771e-09
1.47192e-15
-1.94645e-10
-5.76782e-09
1.6171e-15
-2.00185e-10
-5.56285e-09
1.74623e-15
-2.05278e-10
-5.35321e-09
1.85844e-15
-2.0995e-10
-5.13931e-09
1.9494e-15
-2.14225e-10
-4.92152e-09
2.01651e-15
-2.18128e-10
-4.70018e-09
2.06279e-15
-2.21683e-10
-4.47562e-09
2.08349e-15
-2.24913e-10
-4.24815e-09
2.08771e-15
-2.27838e-10
-4.01804e-09
2.07674e-15
-2.30481e-10
-3.78557e-09
2.05623e-15
-2.32859e-10
-3.55098e-09
2.02878e-15
-2.34991e-10
-3.31449e-09
1.99309e-15
-2.36893e-10
-3.07633e-09
1.95436e-15
-2.38582e-10
-2.83669e-09
1.92777e-15
-2.40065e-10
-2.59576e-09
1.92373e-15
-2.41364e-10
-2.35372e-09
1.934e-15
-2.42484e-10
-2.11077e-09
1.96335e-15
-2.43413e-10
-1.86701e-09
2.02218e-15
-2.44221e-10
-1.6226e-09
2.11961e-15
-2.44887e-10
-1.37779e-09
2.25174e-15
-2.45293e-10
-1.13269e-09
2.39645e-15
-2.45597e-10
-8.87336e-10
2.56327e-15
-2.45858e-10
-6.41899e-10
2.77519e-15
-2.4595e-10
-3.96526e-10
3.03698e-15
-2.45893e-10
-1.51332e-10
3.32349e-15
-2.45724e-10
9.34913e-11
3.56968e-15
-2.4536e-10
3.37692e-10
3.7812e-15
-2.44743e-10
5.81104e-10
4.01747e-15
-2.43957e-10
8.23593e-10
4.26242e-15
-2.43036e-10
1.06503e-09
4.51823e-15
-2.41984e-10
1.30528e-09
4.7528e-15
-2.40804e-10
1.54423e-09
4.9336e-15
-2.395e-10
1.78176e-09
5.05457e-15
-2.38074e-10
2.01774e-09
5.12654e-15
-2.36531e-10
2.25206e-09
5.15558e-15
-2.34877e-10
2.48463e-09
5.14126e-15
-2.33118e-10
2.71534e-09
5.08142e-15
-2.31261e-10
2.9441e-09
4.98342e-15
-2.29315e-10
3.17084e-09
4.8503e-15
-2.27288e-10
3.39549e-09
4.68986e-15
-2.2519e-10
3.61797e-09
4.51251e-15
-2.23031e-10
3.83825e-09
4.31999e-15
-2.20822e-10
4.05628e-09
4.11663e-15
-2.18574e-10
4.27203e-09
3.9085e-15
-2.16299e-10
4.4855e-09
3.70429e-15
-2.14009e-10
4.69668e-09
3.50788e-15
-2.11717e-10
4.90557e-09
3.32926e-15
-2.09435e-10
5.11221e-09
3.1758e-15
-2.07176e-10
5.31663e-09
3.05269e-15
-2.04953e-10
5.51888e-09
2.96558e-15
-2.02778e-10
5.71901e-09
2.9188e-15
-2.00662e-10
5.9171e-09
2.91278e-15
-1.98618e-10
6.11323e-09
2.94666e-15
-1.96656e-10
6.30749e-09
3.02045e-15
-1.94786e-10
6.49998e-09
3.13066e-15
-1.93017e-10
6.69081e-09
3.2773e-15
-1.91356e-10
6.8801e-09
3.45517e-15
-1.89809e-10
7.06796e-09
3.6621e-15
-1.88379e-10
7.25451e-09
3.89548e-15
-1.87067e-10
7.43987e-09
4.15098e-15
-1.85874e-10
7.62415e-09
4.42599e-15
-1.84793e-10
7.80745e-09
4.71185e-15
-1.83816e-10
7.98987e-09
5.00898e-15
-1.8293e-10
8.17148e-09
5.31175e-15
-1.82119e-10
8.35234e-09
5.61843e-15
-1.8136e-10
8.53246e-09
5.92728e-15
-1.80623e-10
8.71183e-09
6.23657e-15
-1.79874e-10
8.8904e-09
6.54152e-15
-1.79072e-10
9.06807e-09
6.8417e-15
-1.78165e-10
9.24467e-09
7.13191e-15
-1.77095e-10
9.41997e-09
7.41085e-15
-1.75795e-10
9.59367e-09
7.67677e-15
-1.74188e-10
9.76537e-09
7.92492e-15
-1.72187e-10
9.93457e-09
8.15312e-15
-1.69694e-10
1.01007e-08
8.36397e-15
-1.666e-10
1.0263e-08
8.55792e-15
-1.62787e-10
1.04206e-08
8.73928e-15
-1.58126e-10
1.05726e-08
8.90764e-15
-1.52477e-10
1.07178e-08
9.0695e-15
-1.45691e-10
1.0855e-08
9.22614e-15
-1.37612e-10
1.09826e-08
9.37932e-15
-1.28074e-10
1.1099e-08
9.53207e-15
-1.16909e-10
1.12025e-08
9.68958e-15
-1.03945e-10
1.1291e-08
9.8575e-15
-8.90146e-11
1.13625e-08
1.00467e-14
-7.19561e-11
1.14146e-08
1.02632e-14
-5.26274e-11
1.1445e-08
1.05161e-14
-3.09117e-11
1.14513e-08
1.07933e-14
-6.74901e-12
1.14307e-08
1.11815e-14
2.00676e-11
1.13804e-08
1.17016e-14
4.98697e-11
1.12971e-08
1.22667e-14
8.28095e-11
1.11777e-08
1.28996e-14
1.18913e-10
1.1019e-08
1.35853e-14
1.58171e-10
1.08179e-08
1.43062e-14
2.00527e-10
1.05716e-08
1.50422e-14
2.45873e-10
1.0277e-08
1.57743e-14
2.94036e-10
9.93167e-09
1.64965e-14
3.44765e-10
9.5334e-09
1.72173e-14
3.97717e-10
9.08038e-09
1.79542e-14
4.52445e-10
8.57141e-09
1.87292e-14
5.0838e-10
8.00599e-09
1.95641e-14
5.64818e-10
7.38448e-09
2.04641e-14
6.20893e-10
6.70829e-09
2.14191e-14
6.75559e-10
5.98008e-09
2.24109e-14
7.27559e-10
5.20401e-09
2.34114e-14
7.75385e-10
4.38609e-09
2.44163e-14
8.17229e-10
3.53445e-09
2.54467e-14
8.50911e-10
2.65992e-09
2.65534e-14
8.73778e-10
1.77657e-09
2.77859e-14
8.82563e-10
9.02628e-10
2.91441e-14
8.7312e-10
6.14159e-11
3.05466e-14
8.40357e-10
-7.14839e-10
3.14039e-14
7.75365e-10
-1.38553e-09
3.22956e-14
6.69777e-10
-1.90251e-09
3.42437e-14
5.1606e-10
-2.20815e-09
3.69183e-14
3.04701e-10
-2.2391e-09
3.99264e-14
2.99806e-11
-1.94588e-09
4.2429e-14
-2.9424e-10
-1.3369e-09
4.37099e-14
-6.10068e-10
-5.62745e-10
3.99559e-14
-7.75344e-10
1.56373e-14
-5.6404e-10
-1.22144e-10
1.21739e-10
-3.86401e-10
2.62932e-10
-6.83412e-10
2.95964e-10
-9.28432e-10
2.4414e-10
-1.08713e-09
1.57884e-10
-1.15523e-09
6.7347e-11
-1.14126e-09
-1.46878e-11
-1.05888e-09
-8.30692e-11
-9.22994e-10
-1.36531e-10
-7.47929e-10
-1.75683e-10
-5.46597e-10
-2.01922e-10
-3.30369e-10
-2.16791e-10
-1.09201e-10
-2.21704e-10
1.08214e-10
-2.17927e-10
3.14423e-10
-2.06695e-10
5.03228e-10
-1.89266e-10
6.69504e-10
-1.66713e-10
8.09067e-10
-1.39977e-10
9.18599e-10
-1.09925e-10
9.95582e-10
-7.73589e-11
1.03824e-09
-4.30209e-11
1.04551e-09
-7.61079e-12
1.01687e-09
2.83132e-11
9.52272e-10
6.42875e-11
8.52167e-10
9.98067e-11
7.1748e-10
1.344e-10
5.49554e-10
1.67651e-10
3.50099e-10
1.9919e-10
1.21147e-10
2.28697e-10
-1.34984e-10
2.55885e-10
-4.15601e-10
2.80384e-10
-7.17811e-10
3.01989e-10
-1.03877e-09
3.20747e-10
-1.37563e-09
3.36663e-10
-1.72545e-09
3.49634e-10
-2.08522e-09
3.59596e-10
-2.45198e-09
3.66598e-10
-2.8228e-09
3.70669e-10
-3.19484e-09
3.71887e-10
-3.56535e-09
3.70369e-10
-3.93174e-09
3.66252e-10
-4.29157e-09
3.597e-10
-4.64259e-09
3.50892e-10
-4.98274e-09
3.40023e-10
-5.31016e-09
3.27296e-10
-5.6232e-09
3.12919e-10
-5.92042e-09
2.97101e-10
-6.2006e-09
2.80052e-10
-6.4627e-09
2.61975e-10
-6.70589e-09
2.43066e-10
-6.92953e-09
2.23514e-10
-7.13316e-09
2.03495e-10
-7.31647e-09
1.83175e-10
-7.47931e-09
1.62707e-10
-7.62169e-09
1.4223e-10
-7.7437e-09
1.21871e-10
-7.8456e-09
1.01741e-10
-7.92769e-09
8.19421e-11
-7.99041e-09
6.25607e-11
-8.03425e-09
4.3675e-11
-8.05978e-09
2.53542e-11
-8.06762e-09
7.66552e-12
-8.05846e-09
-9.34397e-12
-8.03297e-09
-2.5688e-11
-7.9918e-09
-4.13676e-11
-7.93565e-09
-5.63479e-11
-7.86526e-09
-7.06117e-11
-7.78132e-09
-8.4152e-11
-7.68458e-09
-9.69696e-11
-7.57575e-09
-1.09072e-10
-7.45553e-09
-1.20471e-10
-7.3246e-09
-1.31181e-10
-7.18365e-09
-1.41222e-10
-7.03331e-09
-1.50615e-10
-6.87421e-09
-1.59381e-10
-6.70696e-09
-1.67545e-10
-6.53213e-09
-1.75133e-10
-6.35027e-09
-1.8217e-10
-6.16192e-09
-1.88682e-10
-5.96756e-09
-1.94696e-10
-5.76767e-09
-2.00237e-10
-5.5627e-09
-2.05332e-10
-5.35306e-09
-2.10005e-10
-5.13917e-09
-2.14282e-10
-4.92137e-09
-2.18187e-10
-4.70004e-09
-2.21743e-10
-4.47548e-09
-2.24974e-10
-4.24801e-09
-2.27902e-10
-4.01791e-09
-2.30546e-10
-3.78544e-09
-2.32926e-10
-3.55085e-09
-2.3506e-10
-3.31436e-09
-2.36963e-10
-3.0762e-09
-2.38654e-10
-2.83656e-09
-2.40139e-10
-2.59564e-09
-2.4144e-10
-2.3536e-09
-2.42562e-10
-2.11065e-09
-2.43492e-10
-1.8669e-09
-2.44302e-10
-1.62249e-09
-2.4497e-10
-1.37768e-09
-2.45377e-10
-1.13258e-09
-2.45682e-10
-8.87228e-10
-2.45944e-10
-6.41791e-10
-2.46037e-10
-3.96421e-10
-2.4598e-10
-1.51228e-10
-2.45812e-10
9.35937e-11
-2.45447e-10
3.37793e-10
-2.4483e-10
5.81203e-10
-2.44043e-10
8.2369e-10
-2.43121e-10
1.06512e-09
-2.42069e-10
1.30538e-09
-2.40889e-10
1.54432e-09
-2.39584e-10
1.78184e-09
-2.38158e-10
2.01782e-09
-2.36615e-10
2.25214e-09
-2.34961e-10
2.48471e-09
-2.33202e-10
2.71542e-09
-2.31346e-10
2.94418e-09
-2.294e-10
3.17091e-09
-2.27373e-10
3.39555e-09
-2.25275e-10
3.61804e-09
-2.23117e-10
3.83831e-09
-2.20908e-10
4.05634e-09
-2.1866e-10
4.27209e-09
-2.16385e-10
4.48556e-09
-2.14096e-10
4.69673e-09
-2.11804e-10
4.90563e-09
-2.09522e-10
5.11226e-09
-2.07264e-10
5.31668e-09
-2.0504e-10
5.51893e-09
-2.02865e-10
5.71906e-09
-2.0075e-10
5.91714e-09
-1.98705e-10
6.11327e-09
-1.96743e-10
6.30753e-09
-1.94873e-10
6.50002e-09
-1.93103e-10
6.69085e-09
-1.91441e-10
6.88014e-09
-1.89893e-10
7.068e-09
-1.88462e-10
7.25455e-09
-1.8715e-10
7.43991e-09
-1.85955e-10
7.62418e-09
-1.84873e-10
7.80749e-09
-1.83895e-10
7.98991e-09
-1.83009e-10
8.17152e-09
-1.82197e-10
8.35237e-09
-1.81436e-10
8.53249e-09
-1.80698e-10
8.71186e-09
-1.79949e-10
8.89043e-09
-1.79145e-10
9.06809e-09
-1.78238e-10
9.24469e-09
-1.77167e-10
9.41999e-09
-1.75867e-10
9.59369e-09
-1.74259e-10
9.76539e-09
-1.72257e-10
9.93459e-09
-1.69763e-10
1.01007e-08
-1.66669e-10
1.0263e-08
-1.62856e-10
1.04206e-08
-1.58195e-10
1.05726e-08
-1.52546e-10
1.07179e-08
-1.4576e-10
1.0855e-08
-1.3768e-10
1.09826e-08
-1.28142e-10
1.1099e-08
-1.16977e-10
1.12025e-08
-1.04013e-10
1.1291e-08
-8.90828e-11
1.13625e-08
-7.20243e-11
1.14146e-08
-5.26958e-11
1.14451e-08
-3.09803e-11
1.14513e-08
-6.81766e-12
1.14308e-08
1.99986e-11
1.13804e-08
4.98e-11
1.12971e-08
8.27394e-11
1.11777e-08
1.18843e-10
1.1019e-08
1.581e-10
1.0818e-08
2.00456e-10
1.05716e-08
2.45803e-10
1.0277e-08
2.93966e-10
9.93171e-09
3.44695e-10
9.53344e-09
3.97647e-10
9.08042e-09
4.52375e-10
8.57145e-09
5.08311e-10
8.00603e-09
5.64749e-10
7.38452e-09
6.20823e-10
6.70832e-09
6.75489e-10
5.9801e-09
7.27487e-10
5.20404e-09
7.75311e-10
4.38611e-09
8.17153e-10
3.53447e-09
8.50832e-10
2.65993e-09
8.73697e-10
1.77658e-09
8.8248e-10
9.02636e-10
8.73034e-10
6.14189e-11
8.40267e-10
-7.14838e-10
7.75273e-10
-1.38552e-09
6.69683e-10
-1.90251e-09
5.15963e-10
-2.20815e-09
3.046e-10
-2.23911e-09
2.9875e-11
-1.94589e-09
-2.94349e-10
-1.33693e-09
-6.10181e-10
-5.62838e-10
-7.75473e-10
-5.64189e-10
-2.59879e-10
4.58901e-14
3.80558e-10
-5.736e-10
9.88598e-15
5.74993e-10
-7.9951e-10
5.51451e-17
5.20845e-10
-9.22419e-10
-2.8058e-15
3.66257e-10
-9.49383e-10
-3.82724e-15
1.84159e-10
-8.92088e-10
-4.31679e-15
9.43079e-12
-7.64595e-10
-4.56691e-15
-1.42749e-10
-5.81414e-10
-4.72024e-15
-2.66777e-10
-3.56237e-10
-4.83251e-15
-3.62197e-10
-1.01776e-10
-4.83941e-15
-4.30601e-10
1.70322e-10
-4.75706e-15
-4.74449e-10
4.49557e-10
-4.61987e-15
-4.96429e-10
7.26752e-10
-4.44106e-15
-4.99279e-10
9.93936e-10
-4.24494e-15
-4.8547e-10
1.24421e-09
-4.01199e-15
-4.57304e-10
1.47162e-09
-3.74429e-15
-4.16997e-10
1.67116e-09
-3.46039e-15
-3.66549e-10
1.83867e-09
-3.19531e-15
-3.0778e-10
1.97085e-09
-2.99145e-15
-2.42377e-10
2.06514e-09
-2.87038e-15
-1.71908e-10
2.11971e-09
-2.819e-15
-9.78307e-11
2.13336e-09
-2.8089e-15
-2.15034e-11
2.10558e-09
-2.81868e-15
5.58748e-11
2.03642e-09
-2.84321e-15
1.33241e-10
1.92646e-09
-2.88973e-15
2.0957e-10
1.77676e-09
-2.96205e-15
2.83906e-10
1.58885e-09
-3.06125e-15
3.55389e-10
1.36462e-09
-3.17519e-15
4.2325e-10
1.10635e-09
-3.27905e-15
4.86812e-10
8.16607e-10
-3.33684e-15
5.45482e-10
4.98175e-10
-3.31833e-15
5.98678e-10
1.54035e-10
-3.22871e-15
6.46001e-10
-2.12555e-10
-3.08414e-15
6.87216e-10
-5.98063e-10
-2.86425e-15
7.22056e-10
-9.99031e-10
-2.58526e-15
7.50493e-10
-1.41213e-09
-2.27017e-15
7.72588e-10
-1.834e-09
-1.91626e-15
7.88362e-10
-2.26134e-09
-1.54932e-15
7.97909e-10
-2.69093e-09
-1.18952e-15
8.01385e-10
-3.11968e-09
-8.43151e-16
7.99017e-10
-3.54461e-09
-5.13346e-16
7.91091e-10
-3.96294e-09
-2.04665e-16
7.77937e-10
-4.37207e-09
7.08591e-17
7.59926e-10
-4.7696e-09
3.10296e-16
7.3746e-10
-5.15336e-09
5.1321e-16
7.10959e-10
-5.5214e-09
6.7906e-16
6.80857e-10
-5.87198e-09
8.09469e-16
6.4759e-10
-6.20362e-09
9.06171e-16
6.11596e-10
-6.51505e-09
9.73068e-16
5.73301e-10
-6.8052e-09
1.01265e-15
5.3312e-10
-7.07325e-09
1.03002e-15
4.91451e-10
-7.31853e-09
1.02875e-15
4.4867e-10
-7.54058e-09
1.01383e-15
4.05128e-10
-7.73914e-09
9.8861e-16
3.61152e-10
-7.91406e-09
9.55157e-16
3.17041e-10
-8.06538e-09
9.17156e-16
2.73068e-10
-8.19323e-09
8.75582e-16
2.29475e-10
-8.29789e-09
8.30759e-16
1.8648e-10
-8.37972e-09
7.83445e-16
1.44272e-10
-8.4392e-09
7.33532e-16
1.03017e-10
-8.47683e-09
6.81018e-16
6.28551e-11
-8.49321e-09
6.27961e-16
2.39065e-11
-8.48897e-09
5.72606e-16
-1.37282e-11
-8.46481e-09
5.1608e-16
-4.99863e-11
-8.42151e-09
4.6281e-16
-8.48265e-11
-8.3598e-09
4.103e-16
-1.18207e-10
-8.28048e-09
3.61692e-16
-1.50099e-10
-8.18431e-09
3.17637e-16
-1.80491e-10
-8.07207e-09
2.80627e-16
-2.09383e-10
-7.94454e-09
2.49794e-16
-2.36787e-10
-7.80247e-09
2.26007e-16
-2.62721e-10
-7.64664e-09
2.07639e-16
-2.87215e-10
-7.47776e-09
1.95449e-16
-3.10302e-10
-7.29656e-09
1.88136e-16
-3.32021e-10
-7.10375e-09
1.83531e-16
-3.52415e-10
-6.89999e-09
1.80769e-16
-3.7153e-10
-6.68595e-09
1.78114e-16
-3.89413e-10
-6.46225e-09
1.73832e-16
-4.06114e-10
-6.2295e-09
1.65863e-16
-4.21683e-10
-5.98829e-09
1.54207e-16
-4.36171e-10
-5.73917e-09
1.37238e-16
-4.49627e-10
-5.48268e-09
1.1539e-16
-4.62101e-10
-5.21934e-09
8.6602e-17
-4.73641e-10
-4.94962e-09
5.09834e-17
-4.84297e-10
-4.674e-09
8.20827e-18
-4.94113e-10
-4.39293e-09
-4.13983e-17
-5.03136e-10
-4.10682e-09
-9.84871e-17
-5.11409e-10
-3.81608e-09
-1.6089e-16
-5.18974e-10
-3.5211e-09
-2.27197e-16
-5.25868e-10
-3.22225e-09
-2.94914e-16
-5.32129e-10
-2.91989e-09
-3.648e-16
-5.37791e-10
-2.61434e-09
-4.36096e-16
-5.42884e-10
-2.30593e-09
-5.05874e-16
-5.4744e-10
-1.99498e-09
-5.70233e-16
-5.51477e-10
-1.68178e-09
-6.26136e-16
-5.55033e-10
-1.36662e-09
-6.79764e-16
-5.58128e-10
-1.04978e-09
-7.30466e-16
-5.60739e-10
-7.31551e-10
-7.67072e-16
-5.62953e-10
-4.12169e-10
-7.82755e-16
-5.64779e-10
-9.1822e-11
-7.82391e-16
-5.6616e-10
2.29125e-10
-7.73674e-16
-5.67072e-10
5.50253e-10
-7.52904e-16
-5.67522e-10
8.7133e-10
-7.18253e-16
-5.67571e-10
1.19211e-09
-6.74061e-16
-5.67224e-10
1.51232e-09
-6.20218e-16
-5.66497e-10
1.83173e-09
-5.7147e-16
-5.65333e-10
2.15013e-09
-5.2196e-16
-5.63705e-10
2.46729e-09
-4.72011e-16
-5.61685e-10
2.78299e-09
-4.26392e-16
-5.59308e-10
3.09702e-09
-3.76213e-16
-5.56589e-10
3.40919e-09
-3.29496e-16
-5.53538e-10
3.71928e-09
-2.9459e-16
-5.5017e-10
4.02713e-09
-2.68784e-16
-5.46495e-10
4.33255e-09
-2.53812e-16
-5.4253e-10
4.63539e-09
-2.48049e-16
-5.38291e-10
4.93549e-09
-2.54314e-16
-5.33796e-10
5.23272e-09
-2.74235e-16
-5.29065e-10
5.52695e-09
-3.04125e-16
-5.24118e-10
5.81806e-09
-3.43985e-16
-5.18979e-10
6.10597e-09
-3.91864e-16
-5.13671e-10
6.39058e-09
-4.47545e-16
-5.08219e-10
6.67184e-09
-5.08319e-16
-5.02649e-10
6.94968e-09
-5.72557e-16
-4.9699e-10
7.22408e-09
-6.38202e-16
-4.91267e-10
7.49502e-09
-7.04819e-16
-4.85511e-10
7.76248e-09
-7.69589e-16
-4.7975e-10
8.02649e-09
-8.31105e-16
-4.74013e-10
8.28708e-09
-8.88607e-16
-4.68328e-10
8.54429e-09
-9.4123e-16
-4.62726e-10
8.79819e-09
-9.87023e-16
-4.57232e-10
9.04884e-09
-1.02555e-15
-4.51875e-10
9.29634e-09
-1.05573e-15
-4.4668e-10
9.5408e-09
-1.07659e-15
-4.4167e-10
9.78233e-09
-1.08833e-15
-4.36867e-10
1.0021e-08
-1.09173e-15
-4.3229e-10
1.02571e-08
-1.08754e-15
-4.27954e-10
1.04906e-08
-1.07695e-15
-4.23872e-10
1.07217e-08
-1.0604e-15
-4.20052e-10
1.09506e-08
-1.03961e-15
-4.16494e-10
1.11774e-08
-1.01515e-15
-4.13196e-10
1.14022e-08
-9.8916e-16
-4.10146e-10
1.16252e-08
-9.61437e-16
-4.07324e-10
1.18464e-08
-9.32846e-16
-4.04702e-10
1.2066e-08
-9.03603e-16
-4.02242e-10
1.2284e-08
-8.75117e-16
-3.99894e-10
1.25005e-08
-8.48689e-16
-3.97594e-10
1.27153e-08
-8.24752e-16
-3.95266e-10
1.29285e-08
-8.0526e-16
-3.92819e-10
1.314e-08
-7.90536e-16
-3.90145e-10
1.33495e-08
-7.82533e-16
-3.87118e-10
1.35568e-08
-7.81685e-16
-3.83592e-10
1.37615e-08
-7.88426e-16
-3.79404e-10
1.39632e-08
-8.03405e-16
-3.74367e-10
1.41612e-08
-8.26406e-16
-3.68274e-10
1.4355e-08
-8.5732e-16
-3.60897e-10
1.45437e-08
-8.95932e-16
-3.51985e-10
1.47263e-08
-9.42458e-16
-3.41265e-10
1.49018e-08
-9.9538e-16
-3.28445e-10
1.50688e-08
-1.05481e-15
-3.13213e-10
1.52259e-08
-1.12031e-15
-2.95239e-10
1.53715e-08
-1.19004e-15
-2.7418e-10
1.55038e-08
-1.26281e-15
-2.4968e-10
1.56207e-08
-1.33568e-15
-2.2138e-10
1.57201e-08
-1.40661e-15
-1.88917e-10
1.57996e-08
-1.47212e-15
-1.51939e-10
1.58566e-08
-1.53047e-15
-1.1011e-10
1.58883e-08
-1.57776e-15
-6.31125e-11
1.58917e-08
-1.609e-15
-1.06727e-11
1.58637e-08
-1.62885e-15
4.75592e-11
1.5801e-08
-1.63765e-15
1.11983e-10
1.57004e-08
-1.63063e-15
1.82861e-10
1.55585e-08
-1.61516e-15
2.60326e-10
1.53717e-08
-1.5998e-15
3.44415e-10
1.51366e-08
-1.58987e-15
4.3506e-10
1.48499e-08
-1.59132e-15
5.32077e-10
1.45082e-08
-1.60688e-15
6.35142e-10
1.41086e-08
-1.63589e-15
7.43777e-10
1.36484e-08
-1.6713e-15
8.57316e-10
1.31254e-08
-1.70553e-15
9.7488e-10
1.25378e-08
-1.73261e-15
1.09535e-09
1.18846e-08
-1.74939e-15
1.21733e-09
1.11657e-08
-1.76077e-15
1.3391e-09
1.03821e-08
-1.77659e-15
1.45858e-09
9.53565e-09
-1.8113e-15
1.57327e-09
8.63017e-09
-1.87572e-15
1.68015e-09
7.67102e-09
-1.97181e-15
1.77563e-09
6.66577e-09
-2.08667e-15
1.85539e-09
5.62456e-09
-2.19591e-15
1.91419e-09
4.56062e-09
-2.29096e-15
1.94567e-09
3.49096e-09
-2.39034e-15
1.9419e-09
2.43722e-09
-2.54609e-15
1.89318e-09
1.42544e-09
-2.65043e-15
1.78621e-09
4.87801e-10
-2.51575e-15
1.60645e-09
-3.34991e-10
-2.07851e-15
1.33785e-09
-9.93904e-10
-1.30552e-15
9.62564e-10
-1.43366e-09
-2.38641e-16
4.6862e-10
-1.58999e-09
1.09972e-15
-1.39123e-10
-1.39093e-09
2.32781e-15
-8.10526e-10
-7.74074e-10
-4.50398e-16
-1.3939e-09
-2.48443e-14
-1.33927e-09
-2.60055e-10
3.80476e-10
-5.73671e-10
5.74918e-10
-7.9953e-10
5.20793e-10
-9.22412e-10
3.66211e-10
-9.49356e-10
1.84112e-10
-8.92044e-10
9.38383e-12
-7.64537e-10
-1.42796e-10
-5.81342e-10
-2.66822e-10
-3.56154e-10
-3.62241e-10
-1.01683e-10
-4.30643e-10
1.70425e-10
-4.74488e-10
4.49669e-10
-4.96466e-10
7.26872e-10
-4.99314e-10
9.94064e-10
-4.85502e-10
1.24434e-09
-4.57334e-10
1.47176e-09
-4.17025e-10
1.67131e-09
-3.66573e-10
1.83883e-09
-3.07802e-10
1.97101e-09
-2.42398e-10
2.06531e-09
-1.71927e-10
2.11988e-09
-9.78479e-11
2.13354e-09
-2.15196e-11
2.10576e-09
5.58592e-11
2.0366e-09
1.33226e-10
1.92664e-09
2.09554e-10
1.77695e-09
2.83889e-10
1.58903e-09
3.55371e-10
1.36481e-09
4.23232e-10
1.10654e-09
4.86792e-10
8.16792e-10
5.45461e-10
4.98359e-10
5.98657e-10
1.54218e-10
6.4598e-10
-2.12373e-10
6.87197e-10
-5.97883e-10
7.22039e-10
-9.98853e-10
7.50478e-10
-1.41195e-09
7.72576e-10
-1.83382e-09
7.88353e-10
-2.26116e-09
7.97903e-10
-2.69076e-09
8.01381e-10
-3.11951e-09
7.99015e-10
-3.54444e-09
7.91089e-10
-3.96277e-09
7.77936e-10
-4.3719e-09
7.59926e-10
-4.76943e-09
7.37461e-10
-5.15319e-09
7.1096e-10
-5.52122e-09
6.80857e-10
-5.8718e-09
6.47591e-10
-6.20344e-09
6.11596e-10
-6.51486e-09
5.73301e-10
-6.80502e-09
5.3312e-10
-7.07306e-09
4.91451e-10
-7.31833e-09
4.48669e-10
-7.54039e-09
4.05126e-10
-7.73894e-09
3.6115e-10
-7.91387e-09
3.17039e-10
-8.06518e-09
2.73065e-10
-8.19303e-09
2.29472e-10
-8.29769e-09
1.86476e-10
-8.37952e-09
1.44267e-10
-8.43899e-09
1.03011e-10
-8.47663e-09
6.28485e-11
-8.49301e-09
2.38991e-11
-8.48877e-09
-1.37365e-11
-8.46461e-09
-4.99957e-11
-8.42131e-09
-8.48369e-11
-8.35961e-09
-1.18218e-10
-8.28028e-09
-1.50111e-10
-8.18411e-09
-1.80504e-10
-8.07188e-09
-2.09397e-10
-7.94434e-09
-2.36801e-10
-7.80228e-09
-2.62735e-10
-7.64645e-09
-2.87229e-10
-7.47757e-09
-3.10317e-10
-7.29638e-09
-3.32036e-10
-7.10356e-09
-3.5243e-10
-6.89981e-09
-3.71544e-10
-6.68577e-09
-3.89427e-10
-6.46207e-09
-4.06128e-10
-6.22933e-09
-4.21697e-10
-5.98812e-09
-4.36185e-10
-5.739e-09
-4.49641e-10
-5.48252e-09
-4.62115e-10
-5.21917e-09
-4.73656e-10
-4.94946e-09
-4.84312e-10
-4.67384e-09
-4.94129e-10
-4.39277e-09
-5.03152e-10
-4.10666e-09
-5.11425e-10
-3.81593e-09
-5.1899e-10
-3.52095e-09
-5.25885e-10
-3.22211e-09
-5.32146e-10
-2.91974e-09
-5.37809e-10
-2.61419e-09
-5.42902e-10
-2.30579e-09
-5.47459e-10
-1.99484e-09
-5.51497e-10
-1.68165e-09
-5.55053e-10
-1.36649e-09
-5.58149e-10
-1.04966e-09
-5.6076e-10
-7.31429e-10
-5.62975e-10
-4.12051e-10
-5.64801e-10
-9.17067e-11
-5.66182e-10
2.29237e-10
-5.67094e-10
5.50362e-10
-5.67545e-10
8.71437e-10
-5.67593e-10
1.19221e-09
-5.67246e-10
1.51243e-09
-5.66518e-10
1.83183e-09
-5.65353e-10
2.15023e-09
-5.63725e-10
2.46739e-09
-5.61704e-10
2.78309e-09
-5.59326e-10
3.09712e-09
-5.56605e-10
3.40928e-09
-5.53554e-10
3.71937e-09
-5.50185e-10
4.02722e-09
-5.4651e-10
4.33264e-09
-5.42545e-10
4.63548e-09
-5.38306e-10
4.93558e-09
-5.33811e-10
5.2328e-09
-5.29079e-10
5.52703e-09
-5.24133e-10
5.81814e-09
-5.18994e-10
6.10605e-09
-5.13686e-10
6.39066e-09
-5.08235e-10
6.67191e-09
-5.02666e-10
6.94976e-09
-4.97006e-10
7.22415e-09
-4.91285e-10
7.49509e-09
-4.85529e-10
7.76255e-09
-4.79769e-10
8.02656e-09
-4.74032e-10
8.28715e-09
-4.68349e-10
8.54435e-09
-4.62746e-10
8.79825e-09
-4.57253e-10
9.0489e-09
-4.51896e-10
9.2964e-09
-4.46701e-10
9.54086e-09
-4.41691e-10
9.78238e-09
-4.36887e-10
1.00211e-08
-4.3231e-10
1.02571e-08
-4.27974e-10
1.04907e-08
-4.23892e-10
1.07218e-08
-4.20071e-10
1.09507e-08
-4.16513e-10
1.11774e-08
-4.13214e-10
1.14023e-08
-4.10162e-10
1.16252e-08
-4.0734e-10
1.18465e-08
-4.04718e-10
1.20661e-08
-4.02257e-10
1.22841e-08
-3.99907e-10
1.25005e-08
-3.97607e-10
1.27154e-08
-3.95279e-10
1.29286e-08
-3.92832e-10
1.314e-08
-3.90157e-10
1.33495e-08
-3.87129e-10
1.35568e-08
-3.83603e-10
1.37615e-08
-3.79414e-10
1.39632e-08
-3.74377e-10
1.41613e-08
-3.68284e-10
1.4355e-08
-3.60907e-10
1.45437e-08
-3.51995e-10
1.47264e-08
-3.41276e-10
1.49018e-08
-3.28456e-10
1.50688e-08
-3.13224e-10
1.5226e-08
-2.9525e-10
1.53716e-08
-2.74191e-10
1.55038e-08
-2.49691e-10
1.56208e-08
-2.2139e-10
1.57202e-08
-1.88928e-10
1.57996e-08
-1.5195e-10
1.58566e-08
-1.10121e-10
1.58883e-08
-6.3124e-11
1.58917e-08
-1.06846e-11
1.58637e-08
4.75469e-11
1.58011e-08
1.1197e-10
1.57005e-08
1.82848e-10
1.55586e-08
2.60314e-10
1.53718e-08
3.44404e-10
1.51367e-08
4.3505e-10
1.48499e-08
5.32067e-10
1.45083e-08
6.35135e-10
1.41087e-08
7.43771e-10
1.36485e-08
8.57311e-10
1.31254e-08
9.74878e-10
1.25378e-08
1.09535e-09
1.18847e-08
1.21733e-09
1.11658e-08
1.3391e-09
1.03821e-08
1.45858e-09
9.53569e-09
1.57327e-09
8.6302e-09
1.68015e-09
7.67105e-09
1.77563e-09
6.6658e-09
1.85539e-09
5.62458e-09
1.91419e-09
4.56064e-09
1.94567e-09
3.49098e-09
1.94191e-09
2.43724e-09
1.89319e-09
1.42545e-09
1.78621e-09
4.87804e-10
1.60646e-09
-3.3499e-10
1.33785e-09
-9.93905e-10
9.62566e-10
-1.43366e-09
4.68618e-10
-1.59e-09
-1.39129e-10
-1.39095e-09
-8.10536e-10
-7.74164e-10
-1.39392e-09
-1.33931e-09
-2.8354e-10
3.16607e-14
6.63155e-10
-5.02602e-10
1.14984e-15
7.92888e-10
-5.95456e-10
-1.85628e-15
6.13184e-10
-5.95881e-10
-2.34654e-15
3.66338e-10
-5.25074e-10
-2.27367e-15
1.13073e-10
-3.96164e-10
-2.0593e-15
-1.19718e-10
-2.19862e-10
-1.89048e-15
-3.19261e-10
-5.86194e-12
-1.81657e-15
-4.80965e-10
2.36433e-10
-1.71743e-15
-6.04664e-10
4.97938e-10
-1.55488e-15
-6.92262e-10
7.7009e-10
-1.43105e-15
-7.46745e-10
1.04491e-09
-1.36165e-15
-7.71384e-10
1.31506e-09
-1.28364e-15
-7.69548e-10
1.57392e-09
-1.18064e-15
-7.44442e-10
1.81562e-09
-1.07206e-15
-6.99111e-10
2.03497e-09
-9.75519e-16
-6.36458e-10
2.22752e-09
-8.93692e-16
-5.5919e-10
2.38949e-09
-8.26039e-16
-4.69839e-10
2.5178e-09
-7.79774e-16
-3.70776e-10
2.61004e-09
-7.62978e-16
-2.6423e-10
2.66443e-09
-7.75488e-16
-1.5229e-10
2.67976e-09
-8.12047e-16
-3.69072e-11
2.65543e-09
-8.62949e-16
8.01308e-11
2.59142e-09
-9.24735e-16
1.97196e-10
2.48816e-09
-9.97191e-16
3.12761e-10
2.3466e-09
-1.07755e-15
4.25409e-10
2.16808e-09
-1.17027e-15
5.33851e-10
1.95435e-09
-1.26884e-15
6.36929e-10
1.7075e-09
-1.35853e-15
7.33616e-10
1.42991e-09
-1.42642e-15
8.23019e-10
1.12419e-09
-1.45242e-15
9.04351e-10
7.93152e-10
-1.42617e-15
9.76997e-10
4.39818e-10
-1.35293e-15
1.04051e-09
6.73133e-11
-1.23834e-15
1.09452e-09
-3.2107e-10
-1.09486e-15
1.13884e-09
-7.21949e-10
-9.28335e-16
1.17343e-09
-1.13205e-09
-7.42022e-16
1.19843e-09
-1.5482e-09
-5.52287e-16
1.21403e-09
-1.96729e-09
-3.66121e-16
1.22044e-09
-2.3863e-09
-1.89432e-16
1.218e-09
-2.80235e-09
-2.34117e-17
1.20711e-09
-3.21271e-09
1.29879e-16
1.18826e-09
-3.6148e-09
2.67947e-16
1.162e-09
-4.00627e-09
3.88135e-16
1.1289e-09
-4.38494e-09
4.90442e-16
1.0896e-09
-4.74884e-09
5.76331e-16
1.04473e-09
-5.09622e-09
6.47049e-16
9.94938e-10
-5.42553e-09
7.02432e-16
9.40884e-10
-5.73547e-09
7.45298e-16
8.83202e-10
-6.02489e-09
7.77708e-16
8.22515e-10
-6.29289e-09
8.01721e-16
7.59421e-10
-6.53874e-09
8.18366e-16
6.94489e-10
-6.7619e-09
8.29161e-16
6.28252e-10
-6.96199e-09
8.3584e-16
5.61208e-10
-7.1388e-09
8.39379e-16
4.93814e-10
-7.29225e-09
8.40536e-16
4.26488e-10
-7.42242e-09
8.39365e-16
3.59604e-10
-7.52948e-09
8.36624e-16
2.935e-10
-7.61371e-09
8.31989e-16
2.28468e-10
-7.67551e-09
8.25404e-16
1.64767e-10
-7.71531e-09
8.17412e-16
1.02615e-10
-7.73364e-09
8.09421e-16
4.21976e-11
-7.73109e-09
8.00562e-16
-1.63286e-11
-7.70828e-09
7.91814e-16
-7.28386e-11
-7.66592e-09
7.84314e-16
-1.27242e-10
-7.6047e-09
7.77682e-16
-1.79474e-10
-7.52536e-09
7.72621e-16
-2.29488e-10
-7.42865e-09
7.69296e-16
-2.77262e-10
-7.3153e-09
7.6803e-16
-3.22789e-10
-7.18606e-09
7.68389e-16
-3.6608e-10
-7.04168e-09
7.70808e-16
-4.07159e-10
-6.8829e-09
7.7431e-16
-4.4606e-10
-6.71044e-09
7.79546e-16
-4.82829e-10
-6.52501e-09
7.85703e-16
-5.17518e-10
-6.32731e-09
7.92565e-16
-5.50187e-10
-6.11801e-09
7.99372e-16
-5.80898e-10
-5.89778e-09
8.06179e-16
-6.0972e-10
-5.66725e-09
8.12011e-16
-6.36721e-10
-5.42704e-09
8.16379e-16
-6.61973e-10
-5.17775e-09
8.1912e-16
-6.85547e-10
-4.91994e-09
8.19422e-16
-7.07515e-10
-4.65418e-09
8.18153e-16
-7.27948e-10
-4.381e-09
8.14552e-16
-7.46916e-10
-4.1009e-09
8.09325e-16
-7.64488e-10
-3.81438e-09
8.01442e-16
-7.80731e-10
-3.5219e-09
7.91499e-16
-7.95712e-10
-3.22392e-09
7.78357e-16
-8.09492e-10
-2.92087e-09
7.62829e-16
-8.22131e-10
-2.61315e-09
7.46163e-16
-8.33687e-10
-2.30118e-09
7.289e-16
-8.44211e-10
-1.98533e-09
7.12559e-16
-8.53755e-10
-1.66596e-09
6.96814e-16
-8.6236e-10
-1.34344e-09
6.81448e-16
-8.70079e-10
-1.0181e-09
6.69009e-16
-8.7694e-10
-6.90267e-10
6.60853e-16
-8.82983e-10
-3.60264e-10
6.54756e-16
-8.88254e-10
-2.83753e-11
6.50556e-16
-8.92753e-10
3.05002e-10
6.51237e-16
-8.96458e-10
6.39478e-10
6.59945e-16
-8.99384e-10
9.74765e-10
6.76622e-16
-9.01578e-10
1.31057e-09
7.01754e-16
-9.03012e-10
1.64662e-09
7.36861e-16
-9.037e-10
1.98261e-09
7.75004e-16
-9.03698e-10
2.31827e-09
8.16725e-16
-9.0302e-10
2.65331e-09
8.62566e-16
-9.01678e-10
2.9875e-09
9.0212e-16
-8.99658e-10
3.32062e-09
9.32189e-16
-8.96966e-10
3.65244e-09
9.5684e-16
-8.93647e-10
3.98273e-09
9.76668e-16
-8.89735e-10
4.31125e-09
9.9276e-16
-8.85255e-10
4.6378e-09
1.00501e-15
-8.80229e-10
4.96217e-09
1.01352e-15
-8.74683e-10
5.28416e-09
1.01883e-15
-8.68639e-10
5.60361e-09
1.02106e-15
-8.62124e-10
5.92034e-09
1.01972e-15
-8.55167e-10
6.2342e-09
1.01312e-15
-8.47798e-10
6.54503e-09
1.00148e-15
-8.40051e-10
6.85273e-09
9.8518e-16
-8.3196e-10
7.15716e-09
9.63789e-16
-8.23562e-10
7.45824e-09
9.38605e-16
-8.14895e-10
7.75587e-09
9.09901e-16
-8.06e-10
8.04999e-09
8.78379e-16
-7.96919e-10
8.34055e-09
8.45071e-16
-7.87694e-10