/*--------------------------------*- C++ -*----------------------------------*\
  =========                 |
  \\      /  F ield         | OpenFOAM: The Open Source CFD Toolbox
   \\    /   O peration     | Website:  https://openfoam.org
    \\  /    A nd           | Version:  8
     \\/     M anipulation  |
\*---------------------------------------------------------------------------*/
FoamFile
{
    version     2.0;
    format      ascii;
    class       volScalarField;
    location    "1600";
    object      T;
}
// * * * * * * * * * * * * * * * * * * * * * * * * * * * * * * * * * * * * * //

dimensions      [0 0 0 1 0 0 0];

internalField   nonuniform List<scalar> 
46000
(
311.487
311.11
310.608
310.17
309.81
309.512
309.259
309.042
308.857
308.698
308.562
308.445
308.345
308.259
308.185
308.123
308.07
308.027
307.991
307.962
307.939
307.921
307.906
307.896
307.888
307.884
307.883
307.884
307.887
307.892
307.898
307.905
307.913
307.921
307.93
307.938
307.947
307.955
307.962
307.969
307.976
307.982
307.987
307.991
307.995
307.999
308.001
308.004
308.006
308.007
308.008
308.01
308.01
308.011
308.012
308.013
308.014
308.015
308.016
308.018
308.02
308.022
308.024
308.026
308.029
308.032
308.035
308.039
308.044
308.049
308.054
308.06
308.066
308.072
308.079
308.086
308.094
308.102
308.11
308.118
308.126
308.135
308.143
308.152
308.161
308.169
308.178
308.186
308.195
308.203
308.211
308.219
308.227
308.234
308.241
308.248
308.255
308.261
308.267
308.273
308.278
308.283
308.288
308.293
308.297
308.301
308.304
308.308
308.311
308.313
308.316
308.318
308.32
308.322
308.323
308.325
308.326
308.326
308.327
308.327
308.327
308.327
308.327
308.326
308.325
308.324
308.323
308.322
308.32
308.318
308.316
308.314
308.311
308.308
308.306
308.303
308.299
308.296
308.292
308.289
308.285
308.281
308.277
308.273
308.27
308.266
308.262
308.259
308.256
308.254
308.251
308.25
308.249
308.249
308.25
308.252
308.255
308.259
308.265
308.273
308.282
308.293
308.307
308.323
308.341
308.362
308.386
308.413
308.443
308.475
308.511
308.551
308.595
308.644
308.697
308.754
308.816
308.883
308.956
309.034
309.117
309.205
309.299
309.398
309.502
309.611
309.724
309.841
309.961
310.084
310.208
310.335
310.461
310.59
310.724
310.871
311.035
311.243
311.518
311.769
311.487
311.11
310.608
310.17
309.81
309.512
309.259
309.042
308.857
308.698
308.562
308.445
308.345
308.259
308.185
308.123
308.07
308.027
307.991
307.962
307.939
307.921
307.906
307.896
307.888
307.884
307.883
307.884
307.887
307.892
307.898
307.905
307.913
307.921
307.93
307.938
307.947
307.955
307.962
307.969
307.976
307.982
307.987
307.991
307.995
307.999
308.001
308.004
308.006
308.007
308.008
308.009
308.01
308.011
308.012
308.013
308.014
308.015
308.016
308.018
308.02
308.022
308.024
308.026
308.029
308.032
308.035
308.039
308.044
308.049
308.054
308.06
308.066
308.072
308.079
308.086
308.094
308.102
308.11
308.118
308.126
308.135
308.143
308.152
308.161
308.169
308.178
308.186
308.195
308.203
308.211
308.219
308.227
308.234
308.241
308.248
308.255
308.261
308.267
308.273
308.278
308.283
308.288
308.293
308.297
308.301
308.304
308.308
308.311
308.313
308.316
308.318
308.32
308.322
308.323
308.325
308.326
308.326
308.327
308.327
308.327
308.327
308.327
308.326
308.325
308.324
308.323
308.322
308.32
308.318
308.316
308.314
308.311
308.309
308.306
308.303
308.299
308.296
308.292
308.289
308.285
308.281
308.277
308.273
308.27
308.266
308.262
308.259
308.256
308.254
308.252
308.25
308.249
308.249
308.25
308.252
308.255
308.259
308.265
308.273
308.282
308.293
308.307
308.323
308.341
308.362
308.386
308.413
308.443
308.475
308.511
308.551
308.595
308.644
308.697
308.754
308.816
308.883
308.956
309.034
309.117
309.205
309.299
309.398
309.502
309.611
309.724
309.841
309.961
310.084
310.208
310.335
310.461
310.59
310.724
310.871
311.035
311.243
311.518
311.769
308.597
308.008
307.376
306.873
306.474
306.153
305.89
305.677
305.501
305.355
305.235
305.136
305.055
304.989
304.936
304.895
304.865
304.843
304.829
304.822
304.82
304.824
304.833
304.845
304.86
304.879
304.899
304.922
304.946
304.97
304.996
305.022
305.047
305.073
305.097
305.121
305.144
305.165
305.185
305.204
305.221
305.236
305.25
305.262
305.273
305.282
305.29
305.296
305.301
305.305
305.308
305.31
305.311
305.311
305.311
305.31
305.308
305.306
305.304
305.302
305.3
305.297
305.295
305.292
305.289
305.287
305.285
305.283
305.281
305.28
305.279
305.279
305.278
305.278
305.279
305.279
305.28
305.282
305.284
305.286
305.288
305.291
305.294
305.297
305.301
305.304
305.309
305.313
305.318
305.322
305.327
305.333
305.338
305.344
305.349
305.355
305.361
305.368
305.374
305.381
305.387
305.394
305.401
305.408
305.416
305.423
305.431
305.438
305.446
305.454
305.462
305.47
305.478
305.486
305.494
305.502
305.51
305.519
305.527
305.535
305.543
305.552
305.56
305.568
305.576
305.584
305.591
305.599
305.607
305.614
305.621
305.628
305.635
305.642
305.648
305.655
305.661
305.667
305.673
305.679
305.684
305.69
305.695
305.701
305.706
305.712
305.717
305.723
305.729
305.736
305.742
305.75
305.757
305.766
305.775
305.786
305.797
305.81
305.824
305.839
305.856
305.875
305.896
305.919
305.945
305.973
306.004
306.037
306.074
306.114
306.158
306.206
306.257
306.313
306.374
306.439
306.509
306.585
306.666
306.752
306.844
306.942
307.045
307.154
307.269
307.388
307.512
307.639
307.769
307.9
308.032
308.163
308.291
308.419
308.547
308.681
308.835
309.021
309.266
309.534
308.597
308.007
307.376
306.873
306.473
306.152
305.89
305.677
305.501
305.355
305.235
305.136
305.054
304.989
304.936
304.895
304.865
304.843
304.829
304.821
304.82
304.824
304.833
304.845
304.86
304.879
304.899
304.922
304.946
304.97
304.996
305.022
305.047
305.073
305.097
305.121
305.144
305.165
305.185
305.204
305.221
305.236
305.25
305.262
305.273
305.282
305.29
305.296
305.301
305.305
305.308
305.31
305.311
305.311
305.311
305.31
305.308
305.306
305.304
305.302
305.3
305.297
305.295
305.292
305.289
305.287
305.285
305.283
305.282
305.28
305.279
305.279
305.278
305.278
305.279
305.279
305.28
305.282
305.284
305.286
305.288
305.291
305.294
305.297
305.301
305.305
305.309
305.313
305.318
305.322
305.327
305.333
305.338
305.344
305.349
305.355
305.361
305.368
305.374
305.381
305.387
305.394
305.401
305.408
305.416
305.423
305.431
305.438
305.446
305.454
305.462
305.47
305.478
305.486
305.494
305.502
305.511
305.519
305.527
305.535
305.543
305.552
305.56
305.568
305.576
305.584
305.592
305.599
305.607
305.614
305.621
305.628
305.635
305.642
305.648
305.655
305.661
305.667
305.673
305.679
305.684
305.69
305.695
305.701
305.706
305.712
305.717
305.723
305.729
305.736
305.742
305.75
305.758
305.766
305.775
305.786
305.797
305.81
305.824
305.839
305.856
305.875
305.896
305.919
305.945
305.973
306.004
306.037
306.074
306.114
306.158
306.206
306.257
306.313
306.374
306.439
306.509
306.585
306.665
306.752
306.844
306.942
307.045
307.154
307.269
307.388
307.512
307.639
307.769
307.9
308.032
308.163
308.291
308.419
308.547
308.681
308.835
309.021
309.266
309.534
306.488
306.042
305.594
305.223
304.914
304.657
304.445
304.269
304.123
304.002
303.903
303.823
303.758
303.706
303.667
303.638
303.618
303.607
303.603
303.605
303.612
303.625
303.641
303.661
303.684
303.71
303.738
303.767
303.798
303.829
303.861
303.893
303.925
303.956
303.986
304.016
304.043
304.07
304.095
304.118
304.139
304.159
304.176
304.192
304.206
304.218
304.228
304.237
304.244
304.25
304.255
304.258
304.26
304.261
304.261
304.26
304.259
304.257
304.255
304.252
304.249
304.245
304.242
304.238
304.234
304.231
304.227
304.224
304.22
304.217
304.214
304.212
304.209
304.207
304.206
304.204
304.203
304.203
304.202
304.202
304.203
304.204
304.205
304.206
304.208
304.21
304.212
304.215
304.218
304.222
304.226
304.23
304.234
304.239
304.244
304.249
304.255
304.261
304.267
304.274
304.281
304.288
304.295
304.303
304.311
304.319
304.327
304.336
304.345
304.354
304.363
304.373
304.382
304.392
304.402
304.412
304.422
304.433
304.443
304.454
304.464
304.475
304.485
304.496
304.506
304.517
304.527
304.537
304.548
304.558
304.568
304.578
304.587
304.597
304.606
304.616
304.625
304.634
304.643
304.651
304.66
304.668
304.677
304.685
304.694
304.702
304.711
304.719
304.728
304.738
304.747
304.758
304.768
304.78
304.792
304.805
304.819
304.835
304.851
304.87
304.889
304.911
304.934
304.96
304.988
305.018
305.052
305.088
305.127
305.169
305.215
305.264
305.318
305.376
305.438
305.504
305.576
305.653
305.735
305.822
305.915
306.013
306.116
306.224
306.338
306.455
306.577
306.701
306.827
306.954
307.08
307.204
307.323
307.439
307.55
307.658
307.766
307.877
307.988
308.088
306.488
306.041
305.594
305.223
304.914
304.657
304.445
304.269
304.123
304.002
303.903
303.823
303.758
303.706
303.667
303.638
303.618
303.607
303.603
303.605
303.612
303.625
303.641
303.661
303.684
303.71
303.738
303.767
303.798
303.829
303.861
303.893
303.925
303.956
303.986
304.016
304.043
304.07
304.095
304.118
304.139
304.159
304.176
304.192
304.206
304.218
304.228
304.237
304.244
304.25
304.255
304.258
304.26
304.261
304.261
304.26
304.259
304.257
304.255
304.252
304.249
304.245
304.242
304.238
304.234
304.231
304.227
304.224
304.22
304.217
304.214
304.212
304.209
304.207
304.206
304.204
304.203
304.203
304.202
304.202
304.203
304.204
304.205
304.206
304.208
304.21
304.212
304.215
304.218
304.222
304.226
304.23
304.234
304.239
304.244
304.249
304.255
304.261
304.267
304.274
304.281
304.288
304.295
304.303
304.311
304.319
304.327
304.336
304.345
304.354
304.363
304.373
304.382
304.392
304.402
304.412
304.422
304.433
304.443
304.454
304.464
304.475
304.485
304.496
304.506
304.517
304.527
304.537
304.548
304.558
304.568
304.578
304.587
304.597
304.606
304.616
304.625
304.634
304.643
304.651
304.66
304.668
304.677
304.685
304.694
304.702
304.711
304.719
304.728
304.738
304.748
304.758
304.768
304.78
304.792
304.805
304.819
304.835
304.851
304.87
304.889
304.911
304.934
304.96
304.988
305.018
305.052
305.088
305.127
305.169
305.215
305.264
305.318
305.376
305.438
305.504
305.576
305.653
305.735
305.822
305.914
306.013
306.116
306.224
306.338
306.455
306.577
306.701
306.827
306.954
307.08
307.204
307.323
307.439
307.55
307.658
307.766
307.877
307.988
308.088
305.012
304.716
304.42
304.16
303.931
303.733
303.565
303.422
303.303
303.204
303.122
303.055
303.002
302.961
302.931
302.91
302.897
302.892
302.893
302.9
302.912
302.929
302.95
302.974
303.001
303.03
303.061
303.094
303.128
303.162
303.197
303.232
303.267
303.3
303.334
303.365
303.396
303.425
303.452
303.478
303.502
303.523
303.543
303.561
303.577
303.591
303.603
303.613
303.622
303.629
303.635
303.639
303.642
303.644
303.645
303.645
303.644
303.643
303.641
303.638
303.635
303.632
303.628
303.624
303.62
303.616
303.612
303.608
303.604
303.6
303.597
303.594
303.591
303.588
303.585
303.583
303.581
303.58
303.579
303.578
303.577
303.577
303.578
303.578
303.579
303.581
303.582
303.584
303.587
303.59
303.593
303.596
303.6
303.605
303.609
303.614
303.62
303.625
303.631
303.638
303.644
303.651
303.659
303.666
303.674
303.682
303.691
303.7
303.709
303.718
303.728
303.738
303.748
303.758
303.768
303.779
303.79
303.8
303.811
303.823
303.834
303.845
303.856
303.868
303.879
303.89
303.901
303.913
303.924
303.935
303.946
303.957
303.967
303.978
303.988
303.999
304.009
304.019
304.029
304.039
304.048
304.058
304.068
304.077
304.087
304.097
304.107
304.117
304.127
304.138
304.149
304.161
304.173
304.185
304.199
304.214
304.229
304.246
304.264
304.284
304.305
304.328
304.353
304.38
304.409
304.441
304.475
304.513
304.553
304.596
304.643
304.694
304.749
304.807
304.871
304.938
305.01
305.087
305.169
305.257
305.349
305.446
305.549
305.656
305.767
305.882
306
306.121
306.243
306.364
306.484
306.601
306.713
306.818
306.916
307.006
307.084
307.151
307.193
307.201
305.012
304.716
304.42
304.16
303.931
303.733
303.565
303.422
303.303
303.203
303.122
303.055
303.002
302.961
302.931
302.91
302.897
302.892
302.893
302.9
302.912
302.929
302.95
302.974
303.001
303.03
303.061
303.094
303.128
303.162
303.197
303.232
303.267
303.3
303.333
303.365
303.396
303.425
303.452
303.478
303.502
303.523
303.543
303.561
303.577
303.591
303.603
303.613
303.622
303.629
303.635
303.639
303.642
303.644
303.645
303.645
303.644
303.643
303.641
303.638
303.635
303.632
303.628
303.624
303.62
303.616
303.612
303.608
303.604
303.6
303.597
303.594
303.591
303.588
303.585
303.583
303.581
303.58
303.579
303.578
303.577
303.577
303.578
303.578
303.579
303.581
303.582
303.584
303.587
303.59
303.593
303.596
303.6
303.605
303.609
303.614
303.62
303.625
303.631
303.638
303.644
303.651
303.659
303.666
303.674
303.682
303.691
303.7
303.709
303.718
303.728
303.738
303.748
303.758
303.768
303.779
303.79
303.8
303.811
303.823
303.834
303.845
303.856
303.868
303.879
303.89
303.901
303.913
303.924
303.935
303.946
303.957
303.967
303.978
303.988
303.999
304.009
304.019
304.029
304.039
304.048
304.058
304.068
304.077
304.087
304.097
304.107
304.117
304.127
304.138
304.149
304.161
304.173
304.185
304.199
304.214
304.229
304.246
304.264
304.284
304.305
304.328
304.353
304.38
304.409
304.441
304.475
304.513
304.553
304.596
304.643
304.694
304.749
304.807
304.87
304.938
305.01
305.087
305.169
305.257
305.349
305.446
305.549
305.656
305.767
305.882
306
306.121
306.243
306.364
306.484
306.601
306.713
306.818
306.916
307.006
307.084
307.151
307.193
307.201
303.937
303.737
303.54
303.358
303.191
303.041
302.911
302.798
302.702
302.621
302.554
302.5
302.458
302.426
302.403
302.388
302.381
302.38
302.386
302.397
302.413
302.432
302.456
302.482
302.512
302.543
302.577
302.611
302.647
302.683
302.72
302.756
302.793
302.828
302.863
302.896
302.929
302.959
302.988
303.015
303.04
303.064
303.085
303.104
303.122
303.137
303.15
303.162
303.172
303.18
303.187
303.192
303.196
303.199
303.201
303.201
303.201
303.2
303.198
303.196
303.193
303.19
303.186
303.183
303.179
303.174
303.17
303.166
303.162
303.158
303.154
303.151
303.148
303.144
303.142
303.139
303.137
303.135
303.133
303.132
303.131
303.131
303.13
303.131
303.131
303.132
303.133
303.135
303.137
303.14
303.142
303.146
303.149
303.153
303.157
303.162
303.167
303.172
303.178
303.184
303.191
303.198
303.205
303.212
303.22
303.228
303.236
303.245
303.254
303.263
303.273
303.283
303.292
303.303
303.313
303.324
303.334
303.345
303.356
303.368
303.379
303.39
303.402
303.413
303.425
303.436
303.448
303.459
303.471
303.482
303.493
303.504
303.515
303.526
303.537
303.548
303.559
303.569
303.58
303.59
303.601
303.611
303.621
303.631
303.642
303.652
303.663
303.674
303.685
303.696
303.708
303.721
303.734
303.747
303.762
303.778
303.794
303.812
303.831
303.852
303.874
303.898
303.924
303.952
303.982
304.015
304.05
304.089
304.13
304.175
304.223
304.274
304.33
304.389
304.453
304.521
304.593
304.671
304.753
304.84
304.931
305.028
305.129
305.234
305.343
305.455
305.57
305.687
305.804
305.921
306.035
306.146
306.25
306.348
306.436
306.513
306.575
306.619
306.637
306.619
303.937
303.737
303.539
303.358
303.191
303.041
302.911
302.798
302.702
302.621
302.554
302.5
302.458
302.426
302.403
302.388
302.381
302.38
302.386
302.397
302.413
302.432
302.456
302.482
302.512
302.543
302.577
302.611
302.647
302.683
302.72
302.756
302.793
302.828
302.863
302.896
302.928
302.959
302.988
303.015
303.04
303.064
303.085
303.104
303.122
303.137
303.15
303.162
303.172
303.18
303.187
303.192
303.196
303.199
303.201
303.201
303.201
303.2
303.198
303.196
303.193
303.19
303.186
303.183
303.179
303.174
303.17
303.166
303.162
303.158
303.154
303.151
303.148
303.144
303.142
303.139
303.137
303.135
303.133
303.132
303.131
303.131
303.13
303.131
303.131
303.132
303.133
303.135
303.137
303.14
303.142
303.146
303.149
303.153
303.157
303.162
303.167
303.172
303.178
303.184
303.191
303.198
303.205
303.212
303.22
303.228
303.236
303.245
303.254
303.263
303.273
303.283
303.292
303.303
303.313
303.324
303.334
303.345
303.356
303.368
303.379
303.39
303.402
303.413
303.425
303.436
303.448
303.459
303.471
303.482
303.493
303.504
303.515
303.526
303.537
303.548
303.559
303.569
303.58
303.59
303.601
303.611
303.621
303.631
303.642
303.652
303.663
303.674
303.685
303.696
303.708
303.721
303.734
303.747
303.762
303.778
303.794
303.812
303.831
303.852
303.874
303.898
303.924
303.952
303.982
304.015
304.05
304.089
304.13
304.175
304.223
304.274
304.33
304.389
304.453
304.521
304.593
304.671
304.753
304.84
304.931
305.028
305.129
305.234
305.343
305.455
305.57
305.687
305.804
305.921
306.035
306.146
306.25
306.348
306.436
306.513
306.575
306.619
306.637
306.619
303.113
302.973
302.838
302.711
302.59
302.479
302.38
302.292
302.216
302.152
302.099
302.057
302.024
302
301.983
301.974
301.972
301.976
301.985
301.999
302.017
302.04
302.065
302.094
302.125
302.158
302.192
302.228
302.265
302.303
302.34
302.378
302.415
302.452
302.487
302.522
302.555
302.587
302.617
302.645
302.671
302.696
302.718
302.738
302.757
302.773
302.788
302.8
302.811
302.82
302.828
302.834
302.839
302.842
302.844
302.846
302.846
302.845
302.844
302.842
302.84
302.837
302.833
302.83
302.826
302.822
302.818
302.814
302.81
302.806
302.802
302.798
302.795
302.791
302.788
302.786
302.783
302.781
302.779
302.778
302.777
302.776
302.775
302.775
302.775
302.776
302.777
302.779
302.78
302.783
302.785
302.788
302.791
302.795
302.799
302.803
302.808
302.813
302.819
302.825
302.831
302.837
302.844
302.851
302.859
302.867
302.875
302.883
302.892
302.901
302.91
302.92
302.93
302.94
302.95
302.96
302.971
302.982
302.993
303.004
303.015
303.026
303.037
303.049
303.06
303.072
303.083
303.095
303.106
303.117
303.129
303.14
303.151
303.162
303.173
303.184
303.195
303.206
303.217
303.228
303.238
303.249
303.26
303.27
303.281
303.292
303.303
303.314
303.326
303.338
303.351
303.364
303.378
303.392
303.407
303.424
303.441
303.46
303.48
303.501
303.524
303.549
303.576
303.605
303.636
303.67
303.706
303.746
303.788
303.833
303.882
303.935
303.991
304.051
304.115
304.184
304.257
304.334
304.416
304.502
304.593
304.689
304.788
304.891
304.998
305.108
305.22
305.333
305.446
305.558
305.667
305.772
305.871
305.962
306.043
306.112
306.166
306.201
306.215
306.197
303.113
302.973
302.838
302.711
302.59
302.479
302.38
302.292
302.216
302.152
302.099
302.057
302.024
302
301.983
301.974
301.972
301.976
301.985
301.999
302.017
302.04
302.065
302.094
302.125
302.158
302.192
302.228
302.265
302.303
302.34
302.378
302.415
302.452
302.487
302.522
302.555
302.587
302.617
302.645
302.671
302.696
302.718
302.738
302.757
302.773
302.788
302.8
302.811
302.82
302.828
302.834
302.839
302.842
302.844
302.846
302.846
302.845
302.844
302.842
302.84
302.837
302.833
302.83
302.826
302.822
302.818
302.814
302.81
302.806
302.802
302.798
302.795
302.791
302.788
302.786
302.783
302.781
302.779
302.778
302.776
302.776
302.775
302.775
302.775
302.776
302.777
302.779
302.78
302.783
302.785
302.788
302.791
302.795
302.799
302.803
302.808
302.813
302.819
302.825
302.831
302.837
302.844
302.851
302.859
302.867
302.875
302.883
302.892
302.901
302.91
302.92
302.93
302.94
302.95
302.96
302.971
302.982
302.993
303.004
303.015
303.026
303.037
303.049
303.06
303.072
303.083
303.095
303.106
303.117
303.129
303.14
303.151
303.162
303.173
303.184
303.195
303.206
303.217
303.228
303.238
303.249
303.259
303.27
303.281
303.292
303.303
303.314
303.326
303.338
303.351
303.364
303.378
303.392
303.407
303.424
303.441
303.46
303.48
303.501
303.524
303.549
303.576
303.605
303.636
303.67
303.706
303.746
303.788
303.833
303.882
303.935
303.991
304.051
304.115
304.184
304.257
304.334
304.416
304.502
304.593
304.689
304.788
304.891
304.998
305.108
305.22
305.333
305.446
305.558
305.667
305.772
305.871
305.962
306.043
306.112
306.166
306.201
306.215
306.197
302.453
302.354
302.261
302.172
302.085
302.004
301.93
301.863
301.805
301.756
301.715
301.683
301.658
301.641
301.631
301.627
301.629
301.637
301.649
301.666
301.686
301.711
301.738
301.768
301.8
301.834
301.87
301.907
301.944
301.983
302.021
302.059
302.097
302.134
302.17
302.206
302.239
302.272
302.302
302.331
302.358
302.383
302.406
302.427
302.447
302.464
302.479
302.492
302.504
302.514
302.522
302.529
302.535
302.539
302.541
302.543
302.544
302.544
302.543
302.542
302.539
302.537
302.534
302.53
302.527
302.523
302.519
302.515
302.511
302.507
302.503
302.499
302.496
302.492
302.489
302.486
302.484
302.482
302.48
302.478
302.477
302.476
302.475
302.475
302.475
302.476
302.476
302.478
302.479
302.481
302.484
302.486
302.489
302.493
302.497
302.501
302.505
302.51
302.515
302.521
302.527
302.533
302.54
302.547
302.554
302.561
302.569
302.578
302.586
302.595
302.604
302.613
302.622
302.632
302.642
302.652
302.663
302.673
302.684
302.694
302.705
302.716
302.728
302.739
302.75
302.761
302.773
302.784
302.795
302.807
302.818
302.829
302.84
302.851
302.863
302.874
302.885
302.896
302.906
302.917
302.928
302.939
302.95
302.961
302.972
302.983
302.995
303.007
303.019
303.031
303.044
303.058
303.072
303.088
303.104
303.121
303.139
303.158
303.179
303.201
303.225
303.251
303.279
303.309
303.341
303.376
303.413
303.453
303.496
303.543
303.592
303.646
303.702
303.763
303.828
303.897
303.97
304.047
304.129
304.215
304.305
304.4
304.498
304.599
304.704
304.811
304.92
305.029
305.138
305.246
305.351
305.451
305.545
305.631
305.708
305.772
305.823
305.856
305.871
305.862
302.453
302.354
302.261
302.172
302.085
302.004
301.93
301.863
301.805
301.756
301.715
301.683
301.658
301.641
301.631
301.627
301.629
301.637
301.649
301.666
301.686
301.711
301.738
301.768
301.8
301.834
301.87
301.907
301.944
301.983
302.021
302.059
302.097
302.134
302.17
302.206
302.239
302.272
302.302
302.331
302.358
302.383
302.406
302.427
302.447
302.464
302.479
302.492
302.504
302.514
302.522
302.529
302.535
302.539
302.541
302.543
302.544
302.544
302.543
302.542
302.539
302.537
302.534
302.53
302.527
302.523
302.519
302.515
302.511
302.507
302.503
302.499
302.496
302.492
302.489
302.486
302.484
302.482
302.48
302.478
302.477
302.476
302.475
302.475
302.475
302.476
302.476
302.478
302.479
302.481
302.484
302.486
302.489
302.493
302.497
302.501
302.505
302.51
302.515
302.521
302.527
302.533
302.54
302.547
302.554
302.561
302.569
302.578
302.586
302.595
302.604
302.613
302.622
302.632
302.642
302.652
302.662
302.673
302.684
302.694
302.705
302.716
302.728
302.739
302.75
302.761
302.773
302.784
302.795
302.807
302.818
302.829
302.84
302.851
302.863
302.874
302.885
302.896
302.906
302.917
302.928
302.939
302.95
302.961
302.972
302.983
302.995
303.007
303.019
303.031
303.044
303.058
303.072
303.088
303.104
303.121
303.139
303.158
303.179
303.201
303.225
303.251
303.279
303.309
303.341
303.376
303.413
303.453
303.496
303.543
303.592
303.646
303.702
303.763
303.828
303.897
303.97
304.047
304.129
304.215
304.305
304.4
304.498
304.599
304.704
304.811
304.92
305.029
305.138
305.246
305.351
305.451
305.545
305.631
305.708
305.772
305.823
305.856
305.871
305.862
301.909
301.839
301.775
301.713
301.652
301.594
301.539
301.49
301.447
301.41
301.381
301.357
301.341
301.33
301.325
301.326
301.332
301.343
301.358
301.377
301.4
301.425
301.454
301.485
301.518
301.553
301.59
301.627
301.665
301.704
301.743
301.781
301.819
301.857
301.893
301.929
301.963
301.995
302.026
302.055
302.083
302.108
302.132
302.154
302.173
302.191
302.207
302.221
302.233
302.244
302.253
302.26
302.266
302.27
302.274
302.276
302.277
302.278
302.277
302.276
302.274
302.272
302.269
302.266
302.263
302.259
302.255
302.251
302.247
302.243
302.24
302.236
302.233
302.229
302.226
302.223
302.221
302.218
302.216
302.215
302.213
302.212
302.211
302.211
302.211
302.211
302.212
302.213
302.215
302.216
302.219
302.221
302.224
302.227
302.231
302.235
302.239
302.244
302.249
302.254
302.26
302.266
302.272
302.279
302.286
302.293
302.301
302.309
302.317
302.325
302.334
302.343
302.352
302.362
302.371
302.381
302.391
302.401
302.412
302.422
302.433
302.444
302.454
302.465
302.476
302.487
302.499
302.51
302.521
302.532
302.543
302.554
302.565
302.577
302.588
302.599
302.61
302.621
302.632
302.643
302.654
302.665
302.676
302.687
302.698
302.71
302.722
302.734
302.747
302.76
302.773
302.787
302.802
302.818
302.835
302.852
302.871
302.891
302.913
302.936
302.961
302.987
303.016
303.047
303.08
303.116
303.154
303.195
303.239
303.286
303.337
303.391
303.449
303.51
303.575
303.645
303.718
303.796
303.877
303.963
304.052
304.145
304.242
304.342
304.445
304.549
304.655
304.761
304.867
304.971
305.072
305.169
305.259
305.342
305.415
305.477
305.527
305.562
305.58
305.582
301.909
301.839
301.775
301.713
301.652
301.594
301.539
301.49
301.447
301.41
301.381
301.357
301.341
301.33
301.325
301.326
301.332
301.343
301.358
301.377
301.4
301.425
301.454
301.485
301.518
301.553
301.59
301.627
301.665
301.704
301.743
301.781
301.819
301.857
301.893
301.929
301.963
301.995
302.026
302.055
302.083
302.108
302.132
302.154
302.173
302.191
302.207
302.221
302.233
302.244
302.253
302.26
302.266
302.27
302.274
302.276
302.277
302.278
302.277
302.276
302.274
302.272
302.269
302.266
302.263
302.259
302.255
302.251
302.247
302.243
302.24
302.236
302.233
302.229
302.226
302.223
302.221
302.218
302.216
302.215
302.213
302.212
302.211
302.211
302.211
302.211
302.212
302.213
302.215
302.216
302.219
302.221
302.224
302.227
302.231
302.235
302.239
302.244
302.249
302.254
302.26
302.266
302.272
302.279
302.286
302.293
302.301
302.309
302.317
302.325
302.334
302.343
302.352
302.362
302.371
302.381
302.391
302.401
302.412
302.422
302.433
302.444
302.454
302.465
302.476
302.487
302.499
302.51
302.521
302.532
302.543
302.554
302.565
302.577
302.588
302.599
302.61
302.621
302.632
302.642
302.653
302.665
302.676
302.687
302.698
302.71
302.722
302.734
302.747
302.76
302.773
302.787
302.802
302.818
302.835
302.852
302.871
302.891
302.913
302.936
302.961
302.987
303.016
303.047
303.08
303.116
303.154
303.195
303.239
303.286
303.337
303.391
303.449
303.51
303.575
303.645
303.718
303.796
303.877
303.963
304.052
304.145
304.242
304.342
304.445
304.549
304.655
304.761
304.867
304.971
305.072
305.169
305.259
305.342
305.415
305.477
305.527
305.562
305.58
305.582
301.452
301.403
301.36
301.318
301.276
301.235
301.197
301.162
301.131
301.105
301.084
301.069
301.059
301.054
301.055
301.06
301.069
301.083
301.1
301.121
301.146
301.173
301.202
301.234
301.268
301.304
301.34
301.378
301.417
301.455
301.494
301.533
301.571
301.608
301.645
301.68
301.714
301.747
301.778
301.807
301.835
301.861
301.885
301.907
301.927
301.945
301.961
301.975
301.988
301.999
302.008
302.016
302.023
302.028
302.031
302.034
302.036
302.036
302.036
302.036
302.034
302.032
302.029
302.027
302.023
302.02
302.016
302.013
302.009
302.005
302.001
301.998
301.994
301.991
301.988
301.985
301.983
301.98
301.978
301.976
301.975
301.974
301.973
301.973
301.973
301.973
301.974
301.975
301.976
301.978
301.98
301.982
301.985
301.988
301.992
301.995
302
302.004
302.009
302.014
302.02
302.025
302.031
302.038
302.045
302.052
302.059
302.066
302.074
302.082
302.091
302.1
302.108
302.117
302.127
302.136
302.146
302.156
302.166
302.176
302.187
302.197
302.208
302.218
302.229
302.24
302.251
302.262
302.273
302.284
302.295
302.306
302.317
302.328
302.339
302.35
302.361
302.371
302.382
302.394
302.405
302.416
302.427
302.439
302.45
302.462
302.474
302.487
302.5
302.513
302.527
302.542
302.557
302.574
302.591
302.609
302.629
302.65
302.672
302.696
302.722
302.749
302.779
302.811
302.845
302.881
302.921
302.963
303.008
303.056
303.107
303.162
303.221
303.283
303.349
303.418
303.492
303.569
303.651
303.736
303.825
303.917
304.013
304.111
304.212
304.314
304.417
304.521
304.624
304.724
304.822
304.915
305.003
305.083
305.155
305.216
305.266
305.303
305.327
305.336
301.452
301.403
301.36
301.318
301.276
301.235
301.197
301.162
301.131
301.105
301.084
301.069
301.059
301.054
301.055
301.06
301.069
301.083
301.1
301.121
301.146
301.173
301.202
301.234
301.268
301.304
301.34
301.378
301.416
301.455
301.494
301.533
301.571
301.608
301.645
301.68
301.714
301.747
301.778
301.807
301.835
301.861
301.885
301.907
301.927
301.945
301.961
301.975
301.988
301.999
302.008
302.016
302.023
302.028
302.031
302.034
302.036
302.036
302.036
302.036
302.034
302.032
302.029
302.027
302.023
302.02
302.016
302.013
302.009
302.005
302.001
301.998
301.994
301.991
301.988
301.985
301.983
301.98
301.978
301.976
301.975
301.974
301.973
301.973
301.973
301.973
301.974
301.975
301.976
301.978
301.98
301.982
301.985
301.988
301.992
301.995
302
302.004
302.009
302.014
302.02
302.025
302.031
302.038
302.045
302.052
302.059
302.066
302.074
302.082
302.091
302.099
302.108
302.117
302.127
302.136
302.146
302.156
302.166
302.176
302.187
302.197
302.208
302.218
302.229
302.24
302.251
302.262
302.273
302.284
302.295
302.306
302.317
302.328
302.339
302.35
302.361
302.371
302.382
302.394
302.405
302.416
302.427
302.439
302.45
302.462
302.474
302.487
302.5
302.513
302.527
302.542
302.557
302.574
302.591
302.609
302.629
302.65
302.672
302.696
302.722
302.749
302.779
302.811
302.845
302.881
302.921
302.963
303.008
303.056
303.107
303.162
303.221
303.283
303.349
303.418
303.492
303.569
303.651
303.736
303.825
303.917
304.013
304.111
304.212
304.314
304.417
304.521
304.624
304.724
304.822
304.915
305.003
305.083
305.155
305.216
305.266
305.303
305.327
305.336
301.063
301.03
301.002
300.975
300.947
300.92
300.894
300.87
300.849
300.832
300.82
300.811
300.807
300.807
300.812
300.82
300.833
300.849
300.869
300.891
300.917
300.945
300.976
301.008
301.043
301.078
301.115
301.153
301.191
301.23
301.269
301.307
301.345
301.382
301.419
301.454
301.488
301.52
301.551
301.581
301.608
301.634
301.658
301.68
301.7
301.719
301.735
301.75
301.763
301.774
301.784
301.792
301.799
301.804
301.808
301.811
301.813
301.814
301.814
301.814
301.813
301.811
301.809
301.806
301.803
301.8
301.796
301.793
301.789
301.785
301.782
301.778
301.775
301.772
301.769
301.766
301.763
301.761
301.759
301.757
301.756
301.755
301.754
301.754
301.754
301.754
301.754
301.755
301.757
301.758
301.76
301.763
301.765
301.768
301.772
301.775
301.779
301.784
301.788
301.793
301.799
301.804
301.81
301.816
301.823
301.83
301.837
301.844
301.852
301.86
301.868
301.876