/*--------------------------------*- C++ -*----------------------------------*\
  =========                 |
  \\      /  F ield         | OpenFOAM: The Open Source CFD Toolbox
   \\    /   O peration     | Website:  https://openfoam.org
    \\  /    A nd           | Version:  8
     \\/     M anipulation  |
\*---------------------------------------------------------------------------*/
FoamFile
{
    version     2.0;
    format      ascii;
    class       volVectorField;
    location    "1600";
    object      U;
}
// * * * * * * * * * * * * * * * * * * * * * * * * * * * * * * * * * * * * * //

dimensions      [0 1 -1 0 0 0 0];

internalField   nonuniform List<vector> 
46000
(
(-0.000236851 8.00759e-07 0.000252835)
(-0.00184834 5.18539e-07 0.000844241)
(-0.00425106 3.30733e-07 0.00124549)
(-0.00646415 2.28261e-07 0.00118698)
(-0.00805849 1.64272e-07 0.000884084)
(-0.00892654 1.19059e-07 0.000511671)
(-0.00910796 8.42887e-08 0.000149632)
(-0.00869834 5.61512e-08 -0.000166497)
(-0.0078157 3.62259e-08 -0.000423067)
(-0.00657596 2.37027e-08 -0.000618539)
(-0.00508544 1.53529e-08 -0.000757389)
(-0.00343873 1.08585e-08 -0.000845674)
(-0.00171976 1.09639e-08 -0.000888212)
(2.51851e-06 1.2709e-08 -0.000889113)
(0.00166266 1.4257e-08 -0.000853319)
(0.00320841 1.59469e-08 -0.000787561)
(0.00459716 1.81363e-08 -0.000697341)
(0.00579256 2.07237e-08 -0.000587019)
(0.00676578 2.22261e-08 -0.000460598)
(0.00749435 2.10732e-08 -0.000321791)
(0.00796197 1.67197e-08 -0.000174074)
(0.00815684 9.57675e-09 -2.06676e-05)
(0.00807486 1.05794e-09 0.000135923)
(0.00771253 -7.90915e-09 0.000293686)
(0.00707159 -1.7637e-08 0.000450333)
(0.00615768 -2.78564e-08 0.000603691)
(0.00497959 -3.83317e-08 0.000751822)
(0.00354929 -4.86119e-08 0.000893025)
(0.00188151 -5.80299e-08 0.0010258)
(-6.86706e-06 -6.64311e-08 0.00114824)
(-0.00209859 -7.19761e-08 0.00125705)
(-0.00436663 -7.38959e-08 0.00135106)
(-0.00679331 -7.30325e-08 0.001432)
(-0.00935469 -6.83546e-08 0.00150085)
(-0.0120281 -6.00771e-08 0.00155686)
(-0.0147911 -4.89885e-08 0.00159902)
(-0.0176198 -3.58499e-08 0.0016277)
(-0.0204915 -2.13284e-08 0.00164306)
(-0.0233837 -6.23966e-09 0.00164557)
(-0.0262745 8.58723e-09 0.0016358)
(-0.0291432 2.26601e-08 0.00161446)
(-0.0319701 3.55068e-08 0.00158233)
(-0.0347369 4.68913e-08 0.0015403)
(-0.0374269 5.66314e-08 0.0014893)
(-0.0400249 6.46596e-08 0.00143028)
(-0.042517 7.09216e-08 0.00136423)
(-0.0448914 7.54242e-08 0.00129212)
(-0.0471377 7.82213e-08 0.00121489)
(-0.049247 7.94139e-08 0.00113349)
(-0.0512122 7.92649e-08 0.00104881)
(-0.0530276 7.79496e-08 0.000961667)
(-0.0546888 7.56769e-08 0.000872869)
(-0.056193 7.27301e-08 0.000783137)
(-0.0575384 6.93518e-08 0.000693142)
(-0.0587245 6.57038e-08 0.000603486)
(-0.0597516 6.19009e-08 0.000514713)
(-0.0606213 5.8071e-08 0.000427302)
(-0.0613357 5.42276e-08 0.000341677)
(-0.0618977 5.04651e-08 0.000258213)
(-0.062311 4.67431e-08 0.000177242)
(-0.0625796 4.31088e-08 9.90665e-05)
(-0.0627083 3.95016e-08 2.39574e-05)
(-0.0627021 3.61247e-08 -4.78806e-05)
(-0.0625664 3.29891e-08 -0.000116592)
(-0.0623064 3.00557e-08 -0.000182282)
(-0.0619272 2.74189e-08 -0.000244793)
(-0.0614345 2.52001e-08 -0.000304044)
(-0.0608339 2.34735e-08 -0.000360005)
(-0.060131 2.23199e-08 -0.000412694)
(-0.0593313 2.17798e-08 -0.000462156)
(-0.0584405 2.18869e-08 -0.00050846)
(-0.0574639 2.25537e-08 -0.000551693)
(-0.0564068 2.37869e-08 -0.000591952)
(-0.0552743 2.55326e-08 -0.000629344)
(-0.0540713 2.76897e-08 -0.000663986)
(-0.0528027 3.01503e-08 -0.000696001)
(-0.0514729 3.282e-08 -0.000725515)
(-0.0500864 3.56315e-08 -0.000752658)
(-0.0486473 3.84229e-08 -0.000777562)
(-0.0471597 4.11739e-08 -0.000800356)
(-0.0456271 4.37901e-08 -0.000821171)
(-0.0440534 4.61839e-08 -0.000840136)
(-0.0424417 4.83283e-08 -0.000857377)
(-0.0407952 5.01557e-08 -0.000873019)
(-0.0391171 5.16189e-08 -0.000887183)
(-0.0374099 5.27719e-08 -0.00089999)
(-0.0356764 5.35202e-08 -0.000911552)
(-0.033919 5.40121e-08 -0.00092198)
(-0.03214 5.42544e-08 -0.000931376)
(-0.0303415 5.43347e-08 -0.000939835)
(-0.0285254 5.42801e-08 -0.000947452)
(-0.0266937 5.41512e-08 -0.000954296)
(-0.024848 5.40155e-08 -0.000960466)
(-0.02299 5.41024e-08 -0.000965984)
(-0.0211212 5.45737e-08 -0.00097097)
(-0.0192429 5.53351e-08 -0.000975436)
(-0.0173567 5.64675e-08 -0.000979268)
(-0.0154639 5.81262e-08 -0.000982917)
(-0.013565 6.04798e-08 -0.000986145)
(-0.0116624 6.34407e-08 -0.000988098)
(-0.00975668 6.66918e-08 -0.000990441)
(-0.00784912 7.03613e-08 -0.000993614)
(-0.00593998 7.47393e-08 -0.000996204)
(-0.0040305 7.97652e-08 -0.000998399)
(-0.00212326 8.51014e-08 -0.00100039)
(-0.000216246 8.96147e-08 -0.00100083)
(0.00168664 9.33119e-08 -0.000998644)
(0.00358302 9.73267e-08 -0.0009951)
(0.00547327 1.01423e-07 -0.000991147)
(0.00735581 1.05438e-07 -0.000986826)
(0.00922967 1.08994e-07 -0.000982129)
(0.0110939 1.11693e-07 -0.000977053)
(0.0129474 1.13441e-07 -0.000971602)
(0.0147894 1.14339e-07 -0.000965782)
(0.016619 1.14461e-07 -0.000959605)
(0.0184352 1.13861e-07 -0.000953088)
(0.0202374 1.12491e-07 -0.000946251)
(0.0220248 1.10481e-07 -0.000939117)
(0.0237967 1.07903e-07 -0.000931716)
(0.0255525 1.0486e-07 -0.000924076)
(0.0272917 1.015e-07 -0.000916233)
(0.0290139 9.78827e-08 -0.000908224)
(0.0307187 9.40433e-08 -0.00090009)
(0.0324059 9.00959e-08 -0.000891872)
(0.0340752 8.6162e-08 -0.000883616)
(0.0357267 8.23024e-08 -0.00087537)
(0.0373604 7.86655e-08 -0.000867181)
(0.0389764 7.53795e-08 -0.000859099)
(0.0405748 7.25457e-08 -0.000851174)
(0.0421562 7.0245e-08 -0.000843454)
(0.0437207 6.85313e-08 -0.000835988)
(0.0452691 6.74317e-08 -0.000828821)
(0.0468018 6.69395e-08 -0.000821998)
(0.0483195 6.7041e-08 -0.000815559)
(0.0498231 6.76891e-08 -0.000809542)
(0.0513132 6.88771e-08 -0.000803977)
(0.0527908 7.05373e-08 -0.00079889)
(0.0542568 7.26226e-08 -0.000794298)
(0.0557121 7.50789e-08 -0.000790209)
(0.0571577 7.78591e-08 -0.000786618)
(0.0585944 8.08888e-08 -0.000783508)
(0.0600231 8.40399e-08 -0.000780845)
(0.0614445 8.7326e-08 -0.000778576)
(0.0628594 9.06187e-08 -0.000776629)
(0.0642683 9.39249e-08 -0.000774909)
(0.0656714 9.72041e-08 -0.000773295)
(0.0670688 1.00423e-07 -0.000771636)
(0.0684604 1.0354e-07 -0.000769751)
(0.0698454 1.06529e-07 -0.000767424)
(0.071223 1.09329e-07 -0.000764399)
(0.0725916 1.11921e-07 -0.00076038)
(0.0739493 1.14229e-07 -0.000755027)
(0.0752932 1.1622e-07 -0.000747954)
(0.07662 1.17841e-07 -0.000738729)
(0.0779256 1.19131e-07 -0.00072687)
(0.0792049 1.20098e-07 -0.000711844)
(0.0804518 1.20816e-07 -0.000693072)
(0.0816592 1.21332e-07 -0.000669929)
(0.082819 1.21733e-07 -0.000641744)
(0.0839218 1.22061e-07 -0.000607813)
(0.0849569 1.22363e-07 -0.000567396)
(0.0859124 1.22672e-07 -0.000519737)
(0.086775 1.23043e-07 -0.000464074)
(0.0875302 1.23563e-07 -0.000399667)
(0.088162 1.24361e-07 -0.000325833)
(0.0886532 1.25518e-07 -0.000242009)
(0.0889862 1.27162e-07 -0.000147812)
(0.08914 1.29119e-07 -4.29558e-05)
(0.0890989 1.32601e-07 7.34661e-05)
(0.0888382 1.37875e-07 0.000203016)
(0.0883339 1.43753e-07 0.000346591)
(0.0875618 1.50518e-07 0.000504263)
(0.0864971 1.58044e-07 0.000675849)
(0.0851153 1.66128e-07 0.000860962)
(0.0833924 1.74554e-07 0.00105897)
(0.0813053 1.83134e-07 0.00126893)
(0.0788328 1.91761e-07 0.00148955)
(0.0759557 2.00488e-07 0.00171911)
(0.0726578 2.09493e-07 0.00195537)
(0.0689268 2.18938e-07 0.00219553)
(0.0647554 2.29021e-07 0.00243616)
(0.060142 2.39769e-07 0.00267307)
(0.0550926 2.51109e-07 0.00290123)
(0.049622 2.6292e-07 0.00311464)
(0.0437558 2.75061e-07 0.00330613)
(0.0375322 2.87627e-07 0.0034672)
(0.0310052 3.00937e-07 0.00358763)
(0.024247 3.15494e-07 0.00365509)
(0.0173543 3.31659e-07 0.00365442)
(0.0104455 3.49194e-07 0.00356698)
(0.00370909 3.67139e-07 0.00336767)
(-0.00272317 3.78915e-07 0.00299611)
(-0.00844894 3.92112e-07 0.00242229)
(-0.0132059 4.19357e-07 0.00163962)
(-0.0165465 4.56484e-07 0.0006224)
(-0.0179893 4.98295e-07 -0.000636853)
(-0.01702 5.34559e-07 -0.00200576)
(-0.0133891 5.55159e-07 -0.00308651)
(-0.00754843 5.09419e-07 -0.00306372)
(-0.00167422 2.07428e-07 -0.00176498)
(-0.000237596 8.00757e-07 0.000252163)
(-0.0018494 5.18535e-07 0.000843458)
(-0.00425161 3.30729e-07 0.00124482)
(-0.00646451 2.28259e-07 0.00118634)
(-0.0080587 1.64271e-07 0.000883431)
(-0.00892658 1.19057e-07 0.000511011)
(-0.00910785 8.42878e-08 0.000148972)
(-0.0086981 5.61507e-08 -0.000167149)
(-0.00781532 3.62256e-08 -0.000423712)
(-0.00657546 2.37025e-08 -0.000619174)
(-0.00508484 1.53528e-08 -0.00075801)
(-0.00343804 1.08585e-08 -0.000846279)
(-0.00171899 1.09638e-08 -0.000888797)
(3.37627e-06 1.27088e-08 -0.000889676)
(0.00166359 1.42568e-08 -0.000853856)
(0.0032094 1.59467e-08 -0.000788071)
(0.0045982 1.8136e-08 -0.000697826)
(0.00579365 2.07234e-08 -0.00058748)
(0.0067669 2.22258e-08 -0.000461036)
(0.00749551 2.1073e-08 -0.000322209)
(0.00796315 1.67195e-08 -0.000174473)
(0.00815805 9.57663e-09 -2.10505e-05)
(0.00807608 1.05793e-09 0.000135553)
(0.00771377 -7.90905e-09 0.000293323)
(0.00707283 -1.76367e-08 0.000449974)
(0.00615893 -2.7856e-08 0.000603335)
(0.00498085 -3.83312e-08 0.000751467)
(0.00355056 -4.86112e-08 0.000892668)
(0.00188279 -5.80291e-08 0.00102544)
(-5.56812e-06 -6.64304e-08 0.00114789)
(-0.00209727 -7.19755e-08 0.00125669)
(-0.00436529 -7.38953e-08 0.00135071)
(-0.00679194 -7.30319e-08 0.00143166)
(-0.00935329 -6.8354e-08 0.00150053)
(-0.0120267 -6.00766e-08 0.00155656)
(-0.0147896 -4.8988e-08 0.00159873)
(-0.0176184 -3.58495e-08 0.00162743)
(-0.0204901 -2.13282e-08 0.00164281)
(-0.0233823 -6.2396e-09 0.00164533)
(-0.0262731 8.58714e-09 0.00163557)
(-0.0291418 2.26598e-08 0.00161424)
(-0.0319688 3.55064e-08 0.00158212)
(-0.0347356 4.68908e-08 0.00154009)
(-0.0374257 5.66307e-08 0.00148909)
(-0.0400236 6.46587e-08 0.00143007)
(-0.0425158 7.09207e-08 0.00136402)
(-0.0448902 7.54233e-08 0.0012919)
(-0.0471364 7.82203e-08 0.00121467)
(-0.0492458 7.94128e-08 0.00113326)
(-0.051211 7.92638e-08 0.00104857)
(-0.0530263 7.79485e-08 0.000961421)
(-0.0546876 7.56758e-08 0.000872613)
(-0.0561918 7.2729e-08 0.000782872)
(-0.0575372 6.93508e-08 0.000692866)
(-0.0587232 6.57029e-08 0.000603199)
(-0.0597504 6.19e-08 0.000514415)
(-0.0606201 5.80701e-08 0.000426992)
(-0.0613345 5.42268e-08 0.000341356)
(-0.0618965 5.04644e-08 0.00025788)
(-0.0623098 4.67425e-08 0.000176896)
(-0.0625784 4.31082e-08 9.87075e-05)
(-0.0627071 3.9501e-08 2.3584e-05)
(-0.0627009 3.61242e-08 -4.82686e-05)
(-0.0625652 3.29886e-08 -0.000116995)
(-0.0623051 3.00553e-08 -0.0001827)
(-0.061926 2.74186e-08 -0.000245227)
(-0.0614333 2.51998e-08 -0.000304492)
(-0.0608327 2.34732e-08 -0.000360468)
(-0.0601297 2.23196e-08 -0.000413171)
(-0.0593301 2.17795e-08 -0.000462647)
(-0.0584393 2.18866e-08 -0.000508964)
(-0.0574627 2.25534e-08 -0.000552209)
(-0.0564056 2.37866e-08 -0.00059248)
(-0.0552731 2.55323e-08 -0.000629884)
(-0.0540701 2.76893e-08 -0.000664538)
(-0.0528014 3.01499e-08 -0.000696565)
(-0.0514717 3.28197e-08 -0.000726091)
(-0.0500852 3.56311e-08 -0.000753247)
(-0.0486461 3.84225e-08 -0.000778163)
(-0.0471585 4.11735e-08 -0.000800971)
(-0.0456259 4.37897e-08 -0.000821799)
(-0.0440522 4.61835e-08 -0.000840778)
(-0.0424405 4.83278e-08 -0.000858034)
(-0.0407941 5.01553e-08 -0.000873691)
(-0.0391159 5.16185e-08 -0.000887873)
(-0.0374088 5.27715e-08 -0.000900696)
(-0.0356753 5.35198e-08 -0.000912275)
(-0.0339179 5.40117e-08 -0.00092272)
(-0.0321389 5.4254e-08 -0.000932133)
(-0.0303404 5.43344e-08 -0.00094061)
(-0.0285244 5.42798e-08 -0.000948246)
(-0.0266927 5.41509e-08 -0.000955108)
(-0.024847 5.40152e-08 -0.000961297)
(-0.022989 5.41021e-08 -0.000966833)
(-0.0211202 5.45735e-08 -0.000971837)
(-0.019242 5.53349e-08 -0.000976321)
(-0.0173558 5.64673e-08 -0.00098017)
(-0.015463 5.8126e-08 -0.000983836)
(-0.0135642 6.04796e-08 -0.000987079)
(-0.0116615 6.34405e-08 -0.000989047)
(-0.00975581 6.66917e-08 -0.000991405)
(-0.00784826 7.03612e-08 -0.000994591)
(-0.00593913 7.47392e-08 -0.000997193)
(-0.00402967 7.97651e-08 -0.000999397)
(-0.00212244 8.51014e-08 -0.0010014)
(-0.000215441 8.96144e-08 -0.00100184)
(0.00168743 9.33115e-08 -0.00099965)
(0.0035838 9.73263e-08 -0.000996103)
(0.00547404 1.01422e-07 -0.000992148)
(0.00735657 1.05437e-07 -0.000987825)
(0.0092304 1.08994e-07 -0.000983126)
(0.0110946 1.11693e-07 -0.000978048)
(0.0129481 1.13441e-07 -0.000972596)
(0.0147901 1.14339e-07 -0.000966775)
(0.0166196 1.14461e-07 -0.000960598)
(0.0184359 1.13861e-07 -0.000954081)
(0.020238 1.12491e-07 -0.000947244)
(0.0220254 1.1048e-07 -0.000940112)
(0.0237972 1.07903e-07 -0.00093271)
(0.025553 1.0486e-07 -0.000925071)
(0.0272922 1.01499e-07 -0.000917228)
(0.0290144 9.78827e-08 -0.000909219)
(0.0307192 9.40433e-08 -0.000901084)
(0.0324063 9.00959e-08 -0.000892867)
(0.0340757 8.6162e-08 -0.000884612)
(0.0357272 8.23024e-08 -0.000876366)
(0.0373608 7.86656e-08 -0.000868176)
(0.0389768 7.53796e-08 -0.000860093)
(0.0405752 7.25458e-08 -0.000852165)
(0.0421565 7.0245e-08 -0.000844442)
(0.0437211 6.85314e-08 -0.00083697)
(0.0452694 6.74318e-08 -0.000829797)
(0.0468021 6.69396e-08 -0.000822967)
(0.0483199 6.70411e-08 -0.00081652)
(0.0498234 6.76893e-08 -0.000810494)
(0.0513135 6.88772e-08 -0.00080492)
(0.0527912 7.05374e-08 -0.000799823)
(0.0542572 7.26227e-08 -0.000795221)
(0.0557125 7.50791e-08 -0.00079112)
(0.057158 7.78593e-08 -0.000787516)
(0.0585947 8.0889e-08 -0.000784392)
(0.0600233 8.40401e-08 -0.000781714)
(0.0614448 8.73262e-08 -0.000779431)
(0.0628597 9.06189e-08 -0.000777469)
(0.0642685 9.39251e-08 -0.000775735)
(0.0656716 9.72043e-08 -0.000774106)
(0.067069 1.00423e-07 -0.000772433)
(0.0684606 1.0354e-07 -0.000770534)
(0.0698456 1.06529e-07 -0.000768193)
(0.0712232 1.0933e-07 -0.000765153)
(0.0725918 1.11921e-07 -0.000761119)
(0.0739494 1.14229e-07 -0.000755752)
(0.0752933 1.16221e-07 -0.000748666)
(0.0766202 1.17841e-07 -0.000739428)
(0.0779258 1.19132e-07 -0.000727556)
(0.079205 1.20098e-07 -0.000712519)
(0.0804519 1.20816e-07 -0.000693737)
(0.0816594 1.21332e-07 -0.000670582)
(0.0828192 1.21734e-07 -0.000642388)
(0.0839219 1.22062e-07 -0.000608445)
(0.084957 1.22364e-07 -0.000568017)
(0.0859125 1.22673e-07 -0.000520347)
(0.0867752 1.23044e-07 -0.000464673)
(0.0875303 1.23564e-07 -0.000400255)
(0.0881621 1.24362e-07 -0.000326412)
(0.0886534 1.25519e-07 -0.000242579)
(0.0889863 1.27163e-07 -0.000148373)
(0.0891402 1.29119e-07 -4.35068e-05)
(0.0890991 1.32601e-07 7.29232e-05)
(0.0888383 1.37875e-07 0.000202479)
(0.0883341 1.43753e-07 0.000346062)
(0.087562 1.50519e-07 0.000503742)
(0.0864974 1.58044e-07 0.000675337)
(0.0851156 1.66128e-07 0.000860459)
(0.0833927 1.74554e-07 0.00105847)
(0.0813056 1.83135e-07 0.00126845)
(0.0788331 1.91761e-07 0.00148908)
(0.075956 2.00489e-07 0.00171865)
(0.0726581 2.09494e-07 0.00195491)
(0.0689271 2.18939e-07 0.00219509)
(0.0647556 2.29021e-07 0.00243573)
(0.0601422 2.39769e-07 0.00267265)
(0.0550928 2.51109e-07 0.00290081)
(0.0496222 2.62921e-07 0.00311421)
(0.043756 2.75061e-07 0.00330571)
(0.0375324 2.87627e-07 0.00346677)
(0.0310054 3.00938e-07 0.00358719)
(0.0242472 3.15495e-07 0.00365465)
(0.0173544 3.31659e-07 0.00365396)
(0.0104456 3.49195e-07 0.00356651)
(0.00370913 3.6714e-07 0.00336719)
(-0.00272315 3.78916e-07 0.00299562)
(-0.00844893 3.92113e-07 0.0024218)
(-0.0132059 4.19358e-07 0.00163912)
(-0.0165465 4.56485e-07 0.00062189)
(-0.0179893 4.98295e-07 -0.000637375)
(-0.01702 5.34559e-07 -0.00200627)
(-0.0133893 5.55159e-07 -0.00308702)
(-0.00754887 5.09417e-07 -0.00306425)
(-0.00167451 2.07428e-07 -0.00176548)
(-0.000778794 5.36212e-07 0.00193196)
(-0.00339753 1.21104e-07 0.00361542)
(-0.00552711 1.22277e-08 0.00368333)
(-0.00686215 -2.34665e-08 0.00283272)
(-0.00741691 -3.80683e-08 0.00166975)
(-0.00726665 -4.58732e-08 0.000508395)
(-0.00651829 -5.06877e-08 -0.000518941)
(-0.00528863 -5.40221e-08 -0.00136173)
(-0.00368538 -5.64075e-08 -0.00201309)
(-0.00181219 -5.72412e-08 -0.00248421)
(0.000239288 -5.67295e-08 -0.00279254)
(0.00238186 -5.52249e-08 -0.00295687)
(0.00454043 -5.28724e-08 -0.00299614)
(0.00665006 -5.01431e-08 -0.00292689)
(0.00865351 -4.69833e-08 -0.00276449)
(0.0105018 -4.35247e-08 -0.00252425)
(0.0121531 -3.9984e-08 -0.00221952)
(0.0135723 -3.66996e-08 -0.00186216)
(0.0147309 -3.41404e-08 -0.00146306)
(0.0156065 -3.2593e-08 -0.00103225)
(0.0161823 -3.19704e-08 -0.000579067)
(0.0164468 -3.19788e-08 -0.000112207)
(0.0163935 -3.23673e-08 0.000361006)
(0.0160205 -3.30316e-08 0.000834294)
(0.0153303 -3.39965e-08 0.00130125)
(0.0143293 -3.52739e-08 0.00175593)
(0.0130273 -3.69005e-08 0.00219298)
(0.0114376 -3.87462e-08 0.00260769)
(0.00957619 -4.04755e-08 0.00299588)
(0.00746181 -4.1646e-08 0.00335381)
(0.00511485 -4.19318e-08 0.00367719)
(0.0025581 -4.12811e-08 0.00396362)
(-0.000185545 -3.98723e-08 0.00421244)
(-0.00308961 -3.73844e-08 0.00442216)
(-0.00612521 -3.39689e-08 0.00459258)
(-0.00926817 -2.99865e-08 0.00472425)
(-0.0124918 -2.54068e-08 0.00481726)
(-0.0157706 -2.05455e-08 0.00487198)
(-0.0190794 -1.56731e-08 0.00488942)
(-0.0223937 -1.09102e-08 0.00487105)
(-0.0256899 -6.33682e-09 0.00481869)
(-0.0289458 -2.04012e-09 0.00473443)
(-0.0321407 1.82939e-09 0.00462061)
(-0.035255 5.20473e-09 0.00447975)
(-0.0382712 8.06069e-09 0.00431447)
(-0.0411732 1.03771e-08 0.00412747)
(-0.043947 1.21639e-08 0.00392149)
(-0.0465799 1.34344e-08 0.00369923)
(-0.0490615 1.42404e-08 0.00346332)
(-0.0513825 1.46269e-08 0.00321633)
(-0.0535359 1.46759e-08 0.0029607)
(-0.0555158 1.44424e-08 0.00269873)
(-0.0573179 1.4005e-08 0.00243259)
(-0.0589396 1.34206e-08 0.00216425)
(-0.0603791 1.27226e-08 0.00189555)
(-0.0616361 1.19628e-08 0.00162812)
(-0.0627114 1.11529e-08 0.00136343)
(-0.0636066 1.03046e-08 0.0011028)
(-0.0643242 9.41796e-09 0.000847365)
(-0.0648674 8.49455e-09 0.000598121)
(-0.0652401 7.53607e-09 0.000355939)
(-0.0654466 6.57924e-09 0.000121586)
(-0.0654915 5.58868e-09 -0.000104345)
(-0.06538 4.58342e-09 -0.000321683)
(-0.065118 3.62839e-09 -0.000530286)
(-0.0647113 2.69343e-09 -0.00072985)
(-0.0641658 1.82033e-09 -0.000920196)
(-0.0634875 1.02076e-09 -0.00110125)
(-0.0626824 3.33172e-10 -0.00127303)
(-0.0617566 -2.52484e-10 -0.00143562)
(-0.0607158 -7.17823e-10 -0.00158917)
(-0.0595661 -1.08458e-09 -0.00173386)
(-0.0583131 -1.34606e-09 -0.00186992)
(-0.0569625 -1.51898e-09 -0.00199761)
(-0.0555197 -1.63509e-09 -0.00211721)
(-0.0539901 -1.71111e-09 -0.00222902)
(-0.0523788 -1.77544e-09 -0.00233335)
(-0.0506906 -1.85985e-09 -0.00243052)
(-0.0489305 -1.99108e-09 -0.00252084)
(-0.047103 -2.17747e-09 -0.00260465)
(-0.0452124 -2.44913e-09 -0.00268227)
(-0.043263 -2.80271e-09 -0.002754)
(-0.0412588 -3.26161e-09 -0.00282017)
(-0.0392037 -3.8342e-09 -0.00288107)
(-0.0371013 -4.5255e-09 -0.002937)
(-0.0349552 -5.33718e-09 -0.00298827)
(-0.0327686 -6.2793e-09 -0.00303513)
(-0.0305448 -7.3251e-09 -0.00307786)
(-0.0282869 -8.45621e-09 -0.0031167)
(-0.0259976 -9.6325e-09 -0.00315189)
(-0.0236798 -1.08557e-08 -0.00318364)
(-0.0213362 -1.20989e-08 -0.00321215)
(-0.0189692 -1.33205e-08 -0.00323762)
(-0.0165814 -1.44736e-08 -0.00326016)
(-0.0141751 -1.55181e-08 -0.00327998)
(-0.0117525 -1.65142e-08 -0.00329718)
(-0.00931582 -1.74451e-08 -0.00331164)
(-0.00686713 -1.81838e-08 -0.00332421)
(-0.00440863 -1.86334e-08 -0.00333483)
(-0.00194263 -1.88572e-08 -0.00334274)
(0.000531535 -1.89488e-08 -0.00334813)
(0.00300717 -1.88129e-08 -0.00335117)
(0.00548371 -1.8426e-08 -0.00335194)
(0.00795908 -1.78936e-08 -0.00335051)
(0.0104311 -1.72275e-08 -0.00334711)
(0.012898 -1.6573e-08 -0.00334092)
(0.015358 -1.58315e-08 -0.0033314)
(0.0178094 -1.50179e-08 -0.00331945)
(0.0202506 -1.42377e-08 -0.0033055)
(0.0226798 -1.34022e-08 -0.00328962)
(0.0250954 -1.26267e-08 -0.00327188)
(0.027496 -1.20384e-08 -0.00325234)
(0.02988 -1.16122e-08 -0.00323106)
(0.0322461 -1.13731e-08 -0.00320812)
(0.034593 -1.13096e-08 -0.00318361)
(0.0369194 -1.1445e-08 -0.00315762)
(0.0392243 -1.17944e-08 -0.00313027)
(0.0415067 -1.23228e-08 -0.00310169)
(0.0437655 -1.3015e-08 -0.00307199)
(0.0460001 -1.3841e-08 -0.00304131)
(0.0482096 -1.47891e-08 -0.00300981)
(0.0503936 -1.58141e-08 -0.00297763)
(0.0525515 -1.68944e-08 -0.00294493)
(0.0546831 -1.79964e-08 -0.00291188)
(0.056788 -1.91084e-08 -0.00287864)
(0.0588663 -2.01836e-08 -0.00284539)
(0.0609179 -2.12036e-08 -0.0028123)
(0.062943 -2.2155e-08 -0.00277953)
(0.0649419 -2.30144e-08 -0.00274727)
(0.066915 -2.37551e-08 -0.00271567)
(0.0688628 -2.43686e-08 -0.00268491)
(0.0707861 -2.48366e-08 -0.00265512)
(0.0726854 -2.51422e-08 -0.00262647)
(0.0745617 -2.52906e-08 -0.00259906)
(0.0764158 -2.52916e-08 -0.00257303)
(0.0782489 -2.51622e-08 -0.00254847)
(0.0800619 -2.49105e-08 -0.00252545)
(0.0818559 -2.45517e-08 -0.00250403)
(0.0836321 -2.41159e-08 -0.00248422)
(0.0853916 -2.36081e-08 -0.00246599)
(0.0871353 -2.30635e-08 -0.0024493)
(0.0888645 -2.24854e-08 -0.00243401)
(0.0905799 -2.18837e-08 -0.00241998)
(0.0922824 -2.1267e-08 -0.00240697)
(0.0939726 -2.06486e-08 -0.00239467)
(0.0956507 -2.00535e-08 -0.00238273)
(0.0973169 -1.94902e-08 -0.00237068)
(0.0989709 -1.89821e-08 -0.00235798)
(0.100612 -1.85425e-08 -0.00234396)
(0.102239 -1.81967e-08 -0.00232788)
(0.10385 -1.79547e-08 -0.00230885)
(0.105444 -1.78282e-08 -0.00228588)
(0.107015 -1.78272e-08 -0.00225784)
(0.108562 -1.79501e-08 -0.00222347)
(0.110079 -1.81953e-08 -0.00218137)
(0.111561 -1.85627e-08 -0.00213001)
(0.113 -1.9044e-08 -0.00206772)
(0.114389 -1.96158e-08 -0.00199271)
(0.115719 -2.02748e-08 -0.00190305)
(0.116979 -2.10127e-08 -0.00179673)
(0.118157 -2.18044e-08 -0.00167162)
(0.11924 -2.26365e-08 -0.00152554)
(0.120214 -2.34688e-08 -0.00135627)
(0.121063 -2.42746e-08 -0.00116159)
(0.121768 -2.50071e-08 -0.000939363)
(0.12231 -2.56444e-08 -0.000687601)
(0.12267 -2.61229e-08 -0.000404514)
(0.122824 -2.63772e-08 -8.88316e-05)
(0.122749 -2.64724e-08 0.000261874)
(0.12242 -2.64106e-08 0.000650982)
(0.121812 -2.61313e-08 0.00108034)
(0.120899 -2.57299e-08 0.00155067)
(0.119655 -2.53004e-08 0.00206211)
(0.118051 -2.48945e-08 0.00261423)
(0.116061 -2.45795e-08 0.00320591)
(0.11366 -2.43806e-08 0.00383519)
(0.110822 -2.43012e-08 0.00449914)
(0.107526 -2.42693e-08 0.0051937)
(0.103751 -2.42227e-08 0.00591348)
(0.0994811 -2.41129e-08 0.00665156)
(0.0947057 -2.39229e-08 0.00739928)
(0.0894188 -2.37149e-08 0.00814596)
(0.0836222 -2.35896e-08 0.00887858)
(0.0773263 -2.36901e-08 0.00958138)
(0.0705519 -2.40906e-08 0.0102353)
(0.0633327 -2.4788e-08 0.0108176)
(0.0557174 -2.56715e-08 0.0113002)
(0.0477727 -2.65546e-08 0.0116494)
(0.039588 -2.74302e-08 0.0118232)
(0.0312775 -2.85427e-08 0.0117681)
(0.0229937 -3.04043e-08 0.0114188)
(0.0149134 -3.15772e-08 0.0106729)
(0.00727249 -2.96223e-08 0.00942451)
(0.000336142 -2.36652e-08 0.00756416)
(-0.00553376 -1.33835e-08 0.00496233)
(-0.00991784 8.4943e-10 0.00154672)
(-0.0123752 1.94411e-08 -0.00258502)
(-0.0123241 3.77143e-08 -0.00689078)
(-0.00934552 6.39895e-09 -0.00990837)
(-0.00286184 -2.89313e-07 -0.00794519)
(-0.00077966 5.36208e-07 0.0019311)
(-0.00339838 1.211e-07 0.00361462)
(-0.00552735 1.22272e-08 0.00368278)
(-0.00686217 -2.34655e-08 0.00283223)
(-0.00741677 -3.80669e-08 0.00166927)
(-0.00726637 -4.58717e-08 0.000507917)
(-0.00651789 -5.06862e-08 -0.000519412)
(-0.00528812 -5.40206e-08 -0.00136219)
(-0.00368478 -5.64061e-08 -0.00201354)
(-0.0018115 -5.72398e-08 -0.00248464)
(0.000240046 -5.67282e-08 -0.00279295)
(0.00238269 -5.52236e-08 -0.00295726)
(0.00454132 -5.28711e-08 -0.00299651)
(0.00665101 -5.0142e-08 -0.00292723)
(0.00865453 -4.69823e-08 -0.00276481)
(0.0105029 -4.35238e-08 -0.00252455)
(0.0121542 -3.99831e-08 -0.00221979)
(0.0135734 -3.66989e-08 -0.00186241)
(0.0147321 -3.41397e-08 -0.00146328)
(0.0156077 -3.25923e-08 -0.00103246)
(0.0161836 -3.19698e-08 -0.000579259)
(0.0164481 -3.19781e-08 -0.000112387)
(0.0163948 -3.23666e-08 0.000360833)
(0.0160218 -3.30308e-08 0.000834124)
(0.0153317 -3.39958e-08 0.00130108)
(0.0143307 -3.52731e-08 0.00175575)
(0.0130287 -3.68997e-08 0.0021928)
(0.0114391 -3.87453e-08 0.0026075)
(0.00957762 -4.04745e-08 0.00299568)
(0.00746324 -4.16449e-08 0.0033536)
(0.00511627 -4.19308e-08 0.00367698)
(0.00255951 -4.128e-08 0.00396342)
(-0.000184141 -3.98712e-08 0.00421225)
(-0.00308822 -3.73834e-08 0.00442199)
(-0.00612383 -3.3968e-08 0.00459242)
(-0.00926681 -2.99857e-08 0.00472411)
(-0.0124905 -2.54061e-08 0.00481715)
(-0.0157693 -2.05449e-08 0.00487189)
(-0.0190781 -1.56727e-08 0.00488935)
(-0.0223923 -1.09098e-08 0.004871)
(-0.0256886 -6.33663e-09 0.00481865)
(-0.0289445 -2.04006e-09 0.0047344)
(-0.0321393 1.82933e-09 0.00462058)
(-0.0352537 5.20456e-09 0.00447972)
(-0.0382698 8.06042e-09 0.00431444)
(-0.0411719 1.03768e-08 0.00412745)
(-0.0439456 1.21635e-08 0.00392146)
(-0.0465785 1.3434e-08 0.00369919)
(-0.04906 1.42399e-08 0.00346328)
(-0.0513811 1.46264e-08 0.00321629)
(-0.0535344 1.46753e-08 0.00296065)
(-0.0555143 1.44418e-08 0.00269868)
(-0.0573165 1.40045e-08 0.00243253)
(-0.0589381 1.34201e-08 0.00216419)
(-0.0603776 1.27221e-08 0.00189548)
(-0.0616346 1.19624e-08 0.00162804)
(-0.0627099 1.11525e-08 0.00136335)
(-0.0636051 1.03043e-08 0.00110271)
(-0.0643227 9.41761e-09 0.000847268)
(-0.0648659 8.49423e-09 0.000598016)
(-0.0652385 7.53579e-09 0.000355825)
(-0.065445 6.57899e-09 0.000121464)
(-0.06549 5.58848e-09 -0.000104478)
(-0.0653785 4.58326e-09 -0.000321826)
(-0.0651165 3.62826e-09 -0.00053044)
(-0.0647098 2.69334e-09 -0.000730014)
(-0.0641643 1.82027e-09 -0.00092037)
(-0.063486 1.02073e-09 -0.00110143)
(-0.0626809 3.33161e-10 -0.00127322)
(-0.0617551 -2.52476e-10 -0.00143582)
(-0.0607143 -7.17799e-10 -0.00158937)
(-0.0595646 -1.08454e-09 -0.00173406)
(-0.0583116 -1.34601e-09 -0.00187013)
(-0.0569611 -1.51893e-09 -0.00199782)
(-0.0555183 -1.63504e-09 -0.00211743)
(-0.0539887 -1.71106e-09 -0.00222924)
(-0.0523774 -1.77539e-09 -0.00233357)
(-0.0506893 -1.8598e-09 -0.00243074)
(-0.0489292 -1.99102e-09 -0.00252107)
(-0.0471016 -2.17742e-09 -0.00260488)
(-0.0452111 -2.44907e-09 -0.0026825)
(-0.0432617 -2.80265e-09 -0.00275423)
(-0.0412576 -3.26154e-09 -0.0028204)
(-0.0392025 -3.83412e-09 -0.00288131)
(-0.0371001 -4.5254e-09 -0.00293725)
(-0.034954 -5.33708e-09 -0.00298852)
(-0.0327674 -6.27918e-09 -0.00303539)
(-0.0305436 -7.32497e-09 -0.00307813)
(-0.0282857 -8.45607e-09 -0.00311698)
(-0.0259964 -9.63236e-09 -0.00315217)
(-0.0236787 -1.08555e-08 -0.00318394)
(-0.0213351 -1.20988e-08 -0.00321245)
(-0.0189682 -1.33203e-08 -0.00323794)
(-0.0165804 -1.44735e-08 -0.00326048)
(-0.0141741 -1.5518e-08 -0.00328031)
(-0.0117515 -1.6514e-08 -0.00329751)
(-0.00931485 -1.7445e-08 -0.00331199)
(-0.00686618 -1.81837e-08 -0.00332456)
(-0.0044077 -1.86332e-08 -0.00333519)
(-0.00194173 -1.88571e-08 -0.0033431)
(0.000532412 -1.89488e-08 -0.0033485)
(0.00300803 -1.88128e-08 -0.00335154)
(0.00548455 -1.84259e-08 -0.00335231)
(0.0079599 -1.78936e-08 -0.00335088)
(0.0104319 -1.72275e-08 -0.00334748)
(0.0128988 -1.6573e-08 -0.00334128)
(0.0153588 -1.58315e-08 -0.00333176)
(0.0178102 -1.5018e-08 -0.0033198)
(0.0202513 -1.42378e-08 -0.00330584)
(0.0226805 -1.34022e-08 -0.00328995)
(0.0250961 -1.26267e-08 -0.00327221)
(0.0274967 -1.20384e-08 -0.00325266)
(0.0298807 -1.16122e-08 -0.00323138)
(0.0322468 -1.13732e-08 -0.00320843)
(0.0345937 -1.13097e-08 -0.00318392)
(0.0369201 -1.14451e-08 -0.00315793)
(0.039225 -1.17945e-08 -0.00313059)
(0.0415073 -1.23228e-08 -0.003102)
(0.0437662 -1.30151e-08 -0.00307231)
(0.0460007 -1.38411e-08 -0.00304163)
(0.0482102 -1.47892e-08 -0.00301013)
(0.0503942 -1.58143e-08 -0.00297796)
(0.0525521 -1.68945e-08 -0.00294526)
(0.0546836 -1.79965e-08 -0.00291221)
(0.0567886 -1.91085e-08 -0.00287898)
(0.0588668 -2.01838e-08 -0.00284574)
(0.0609184 -2.12038e-08 -0.00281265)
(0.0629435 -2.21552e-08 -0.00277989)
(0.0649424 -2.30147e-08 -0.00274763)
(0.0669155 -2.37553e-08 -0.00271603)
(0.0688633 -2.43689e-08 -0.00268527)
(0.0707865 -2.48368e-08 -0.00265548)
(0.0726858 -2.51425e-08 -0.00262682)
(0.0745621 -2.52908e-08 -0.00259941)
(0.0764163 -2.52919e-08 -0.00257338)
(0.0782493 -2.51624e-08 -0.00254882)
(0.0800623 -2.49108e-08 -0.00252579)
(0.0818563 -2.4552e-08 -0.00250436)
(0.0836325 -2.41162e-08 -0.00248454)
(0.0853919 -2.36084e-08 -0.00246631)
(0.0871357 -2.30638e-08 -0.00244961)
(0.0888648 -2.24856e-08 -0.00243431)
(0.0905803 -2.1884e-08 -0.00242027)
(0.0922828 -2.12672e-08 -0.00240725)
(0.0939729 -2.06488e-08 -0.00239495)
(0.095651 -2.00537e-08 -0.002383)
(0.0973172 -1.94904e-08 -0.00237094)
(0.0989712 -1.89823e-08 -0.00235823)
(0.100612 -1.85427e-08 -0.00234421)
(0.102239 -1.81969e-08 -0.00232812)
(0.103851 -1.79549e-08 -0.00230909)
(0.105444 -1.78284e-08 -0.00228612)
(0.107016 -1.78274e-08 -0.00225807)
(0.108563 -1.79503e-08 -0.0022237)
(0.11008 -1.81955e-08 -0.00218159)
(0.111561 -1.85629e-08 -0.00213023)
(0.113001 -1.90442e-08 -0.00206794)
(0.11439 -1.9616e-08 -0.00199293)
(0.115719 -2.02751e-08 -0.00190327)
(0.116979 -2.1013e-08 -0.00179695)
(0.118157 -2.18046e-08 -0.00167184)
(0.119241 -2.26367e-08 -0.00152575)
(0.120215 -2.34691e-08 -0.00135648)
(0.121063 -2.42749e-08 -0.0011618)
(0.121768 -2.50073e-08 -0.000939573)
(0.122311 -2.56446e-08 -0.000687812)
(0.12267 -2.61231e-08 -0.000404726)
(0.122824 -2.63774e-08 -8.9044e-05)
(0.122749 -2.64726e-08 0.00026166)
(0.122421 -2.64108e-08 0.000650765)
(0.121813 -2.61315e-08 0.00108013)
(0.1209 -2.57302e-08 0.00155045)
(0.119655 -2.53006e-08 0.0020619)
(0.118051 -2.48947e-08 0.00261403)
(0.116061 -2.45797e-08 0.00320571)
(0.11366 -2.43808e-08 0.00383501)
(0.110822 -2.43014e-08 0.00449897)
(0.107526 -2.42695e-08 0.00519355)
(0.103751 -2.42229e-08 0.00591334)
(0.0994815 -2.41131e-08 0.00665143)
(0.094706 -2.39231e-08 0.00739917)
(0.0894192 -2.3715e-08 0.00814586)
(0.0836225 -2.35898e-08 0.00887848)
(0.0773266 -2.36903e-08 0.00958128)
(0.0705522 -2.40907e-08 0.0102352)
(0.063333 -2.47881e-08 0.0108175)
(0.0557176 -2.56717e-08 0.0113001)
(0.0477729 -2.65547e-08 0.0116493)
(0.0395882 -2.74304e-08 0.0118231)
(0.0312777 -2.85428e-08 0.011768)
(0.0229938 -3.04044e-08 0.0114187)
(0.0149135 -3.15773e-08 0.0106728)
(0.00727253 -2.96225e-08 0.0094244)
(0.000336152 -2.36653e-08 0.00756403)
(-0.00553377 -1.33836e-08 0.00496216)
(-0.00991786 8.49433e-10 0.0015465)