/*--------------------------------*- C++ -*----------------------------------*\
  =========                 |
  \\      /  F ield         | OpenFOAM: The Open Source CFD Toolbox
   \\    /   O peration     | Website:  https://openfoam.org
    \\  /    A nd           | Version:  8
     \\/     M anipulation  |
\*---------------------------------------------------------------------------*/
FoamFile
{
    version     2.0;
    format      ascii;
    class       volScalarField;
    location    "1400";
    object      alphat;
}
// * * * * * * * * * * * * * * * * * * * * * * * * * * * * * * * * * * * * * //

dimensions      [1 -1 -1 0 0 0 0];

internalField   nonuniform List<scalar> 
48000
(
0.000145901
4.52397e-05
6.10542e-05
7.10238e-05
7.84149e-05
8.44846e-05
8.98196e-05
9.45941e-05
9.89326e-05
0.000102941
0.000106683
0.000110203
0.000113537
0.000116709
0.00011974
0.000122646
0.000125438
0.000128127
0.00013072
0.000133223
0.000135642
0.000137981
0.000140244
0.000142433
0.000144551
0.000146601
0.000148584
0.000150502
0.000152357
0.00015415
0.000155883
0.000157557
0.000159173
0.000160733
0.000162237
0.000163687
0.000165084
0.000166428
0.000167722
0.000168966
0.000170161
0.000171309
0.00017241
0.000173466
0.000174477
0.000175445
0.00017637
0.000177254
0.000178097
0.000178901
0.000179667
0.000180395
0.000181086
0.000181741
0.00018236
0.000182945
0.0001835
0.000184025
0.000184518
0.00018498
0.000185413
0.000185815
0.000186189
0.000186535
0.000186853
0.000187144
0.00018741
0.000187649
0.000187864
0.000188053
0.000188219
0.000188362
0.000188481
0.000188578
0.000188653
0.000188706
0.000188738
0.000188749
0.00018874
0.00018871
0.000188661
0.000188593
0.000188505
0.000188399
0.000188274
0.000188131
0.000187971
0.000187793
0.000187597
0.000187384
0.000187155
0.000186909
0.000186646
0.000186367
0.000186073
0.000185762
0.000185436
0.000185094
0.000184737
0.000184364
0.000183977
0.000183574
0.000183157
0.000182725
0.000182278
0.000181817
0.000181341
0.000180851
0.000180346
0.000179827
0.000179294
0.000178746
0.000178184
0.000177608
0.000177018
0.000176413
0.000175794
0.00017516
0.000174512
0.00017385
0.000173173
0.000172482
0.000171775
0.000171054
0.000170318
0.000169567
0.000168801
0.000168019
0.000167222
0.00016641
0.000165582
0.000164738
0.000163878
0.000163002
0.000162109
0.0001612
0.000160274
0.000159331
0.000158371
0.000157394
0.000156399
0.000155387
0.000154357
0.000153308
0.000152241
0.000151156
0.000150052
0.000148929
0.000147787
0.000146626
0.000145445
0.000144244
0.000143023
0.000141782
0.00014052
0.000139238
0.000137935
0.000136611
0.000135265
0.000133898
0.000132509
0.000131098
0.000129664
0.000128208
0.000126729
0.000125226
0.0001237
0.000122149
0.000120574
0.000118974
0.000117349
0.000115697
0.000114018
0.000112312
0.000110577
0.000108812
0.000107016
0.000105187
0.000103324
0.000101424
9.94859e-05
9.75054e-05
9.54796e-05
9.34049e-05
9.12797e-05
8.91003e-05
8.68794e-05
8.45786e-05
8.21786e-05
7.96624e-05
7.70029e-05
7.41653e-05
7.11007e-05
6.77568e-05
6.40765e-05
5.98485e-05
5.47248e-05
4.74314e-05
3.79367e-05
0.000148397
0.000145556
4.52333e-05
6.10232e-05
7.10157e-05
7.84146e-05
8.44856e-05
8.98208e-05
9.45952e-05
9.89337e-05
0.000102942
0.000106684
0.000110204
0.000113537
0.00011671
0.000119741
0.000122647
0.000125439
0.000128127
0.00013072
0.000133224
0.000135643
0.000137981
0.000140244
0.000142433
0.000144551
0.000146601
0.000148584
0.000150502
0.000152357
0.000154151
0.000155884
0.000157557
0.000159174
0.000160733
0.000162237
0.000163687
0.000165084
0.000166428
0.000167722
0.000168966
0.000170161
0.000171309
0.00017241
0.000173466
0.000174477
0.000175445
0.00017637
0.000177254
0.000178097
0.000178901
0.000179667
0.000180395
0.000181086
0.000181741
0.00018236
0.000182945
0.0001835
0.000184025
0.000184518
0.00018498
0.000185413
0.000185815
0.000186189
0.000186535
0.000186853
0.000187144
0.000187409
0.000187649
0.000187863
0.000188053
0.000188219
0.000188362
0.000188481
0.000188578
0.000188653
0.000188706
0.000188738
0.000188749
0.00018874
0.00018871
0.000188661
0.000188593
0.000188505
0.000188399
0.000188274
0.000188131
0.000187971
0.000187792
0.000187597
0.000187384
0.000187155
0.000186909
0.000186646
0.000186367
0.000186072
0.000185762
0.000185436
0.000185094
0.000184737
0.000184364
0.000183977
0.000183574
0.000183157
0.000182725
0.000182278
0.000181817
0.000181341
0.000180851
0.000180346
0.000179827
0.000179294
0.000178746
0.000178184
0.000177608
0.000177018
0.000176413
0.000175794
0.00017516
0.000174512
0.00017385
0.000173173
0.000172481
0.000171775
0.000171054
0.000170318
0.000169567
0.000168801
0.000168019
0.000167222
0.00016641
0.000165582
0.000164738
0.000163878
0.000163001
0.000162109
0.0001612
0.000160274
0.000159331
0.000158371
0.000157394
0.000156399
0.000155387
0.000154356
0.000153308
0.000152241
0.000151156
0.000150052
0.000148929
0.000147787
0.000146626
0.000145445
0.000144244
0.000143023
0.000141782
0.00014052
0.000139238
0.000137935
0.000136611
0.000135265
0.000133898
0.000132509
0.000131098
0.000129664
0.000128208
0.000126729
0.000125226
0.0001237
0.000122149
0.000120574
0.000118974
0.000117349
0.000115697
0.000114018
0.000112312
0.000110577
0.000108812
0.000107016
0.000105187
0.000103324
0.000101424
9.94859e-05
9.75054e-05
9.54796e-05
9.3405e-05
9.12797e-05
8.91004e-05
8.68794e-05
8.45787e-05
8.21787e-05
7.96625e-05
7.7003e-05
7.41654e-05
7.11008e-05
6.77571e-05
6.40774e-05
5.98551e-05
5.477e-05
4.7636e-05
3.83899e-05
0.000149989
3.09119e-05
0.00029535
0.000507994
0.000644377
0.000744487
0.00082536
0.000893819
0.000953708
0.00100724
0.0010558
0.00110037
0.00114166
0.00118019
0.00121639
0.00125055
0.00128294
0.00131373
0.00134311
0.00137118
0.00139807
0.00142387
0.00144864
0.00147245
0.00149536
0.00151742
0.00153866
0.00155913
0.00157885
0.00159785
0.00161617
0.00163382
0.00165083
0.00166722
0.00168302
0.00169823
0.00171287
0.00172697
0.00174054
0.0017536
0.00176615
0.00177822
0.00178981
0.00180095
0.00181163
0.00182189
0.00183171
0.00184113
0.00185014
0.00185877
0.00186701
0.00187488
0.00188239
0.00188954
0.00189634
0.0019028
0.00190888
0.00191451
0.00191979
0.00192478
0.00192947
0.00193389
0.00193803
0.0019419
0.00194551
0.00194886
0.00195196
0.00195481
0.00195743
0.0019598
0.00196194
0.00196385
0.00196554
0.00196701
0.00196825
0.00196928
0.0019701
0.00197071
0.00197112
0.00197132
0.00197133
0.00197114
0.00197075
0.00197017
0.00196941
0.00196845
0.00196732
0.001966
0.0019645
0.00196282
0.00196097
0.00195894
0.00195674
0.00195437
0.00195183
0.00194912
0.00194625
0.00194321
0.00194001
0.00193665
0.00193313
0.00192944
0.0019256
0.0019216
0.00191745
0.00191313
0.00190867
0.00190404
0.00189926
0.00189433
0.00188925
0.00188401
0.00187861
0.00187307
0.00186736
0.00186151
0.0018555
0.00184933
0.00184301
0.00183653
0.0018299
0.00182311
0.00181616
0.00180905
0.00180178
0.00179435
0.00178675
0.00177899
0.00177107
0.00176297
0.00175471
0.00174628
0.00173768
0.00172891
0.00171996
0.00171083
0.00170152
0.00169204
0.00168237
0.00167251
0.00166248
0.00165225
0.00164183
0.00163122
0.00162042
0.00160942
0.00159822
0.00158683
0.00157523
0.00156342
0.00155141
0.00153919
0.00152676
0.00151412
0.00150126
0.00148819
0.00147489
0.00146137
0.00144763
0.00143365
0.00141945
0.00140502
0.00139035
0.00137543
0.00136028
0.00134488
0.00132923
0.00131332
0.00129715
0.00128071
0.001264
0.00124701
0.00122973
0.00121215
0.00119426
0.00117604
0.00115749
0.00113858
0.00111929
0.00109959
0.00107947
0.00105887
0.00103776
0.00101607
0.000993724
0.000970615
0.000946588
0.000921435
0.000895118
0.000867496
0.00083832
0.000807206
0.000773601
0.000736563
0.00069429
0.000644376
0.000584217
0.000507329
0.000400334
0.000246673
0.000175972
3.09141e-05
0.000295402
0.000508072
0.000644412
0.000744536
0.000825418
0.000893879
0.000953767
0.0010073
0.00105586
0.00110042
0.00114171
0.00118025
0.00121644
0.0012506
0.00128298
0.00131378
0.00134315
0.00137123
0.00139812
0.00142391
0.00144868
0.00147249
0.0014954
0.00151746
0.0015387
0.00155916
0.00157888
0.00159788
0.0016162
0.00163385
0.00165086
0.00166725
0.00168305
0.00169826
0.0017129
0.001727
0.00174057
0.00175362
0.00176618
0.00177824
0.00178984
0.00180097
0.00181166
0.00182191
0.00183174
0.00184115
0.00185017
0.00185879
0.00186703
0.0018749
0.00188241
0.00188956
0.00189636
0.00190281
0.0019089
0.00191453
0.00191981
0.0019248
0.00192949
0.0019339
0.00193804
0.00194191
0.00194552
0.00194888
0.00195198
0.00195483
0.00195744
0.00195982
0.00196196
0.00196387
0.00196556
0.00196702
0.00196827
0.0019693
0.00197012
0.00197073
0.00197113
0.00197134
0.00197134
0.00197115
0.00197076
0.00197019
0.00196942
0.00196847
0.00196733
0.00196601
0.00196451
0.00196283
0.00196098
0.00195895
0.00195675
0.00195438
0.00195184
0.00194913
0.00194626
0.00194322
0.00194002
0.00193666
0.00193314
0.00192945
0.00192561
0.00192161
0.00191746
0.00191315
0.00190868
0.00190405
0.00189928
0.00189434
0.00188926
0.00188402
0.00187862
0.00187308
0.00186738
0.00186152
0.00185551
0.00184934
0.00184302
0.00183655
0.00182991
0.00182312
0.00181617
0.00180906
0.00180179
0.00179436
0.00178676
0.001779
0.00177108
0.00176298
0.00175472
0.00174629
0.00173769
0.00172892
0.00171997
0.00171084
0.00170153
0.00169205
0.00168238
0.00167252
0.00166249
0.00165226
0.00164184
0.00163123
0.00162043
0.00160943
0.00159823
0.00158684
0.00157524
0.00156343
0.00155142
0.0015392
0.00152677
0.00151413
0.00150127
0.00148819
0.0014749
0.00146138
0.00144763
0.00143366
0.00141946
0.00140503
0.00139035
0.00137544
0.00136029
0.00134489
0.00132923
0.00131333
0.00129716
0.00128072
0.00126401
0.00124702
0.00122974
0.00121216
0.00119426
0.00117605
0.0011575
0.00113859
0.0011193
0.0010996
0.00107948
0.00105888
0.00103776
0.00101608
0.000993733
0.000970624
0.000946597
0.000921444
0.000895127
0.000867505
0.000838328
0.000807215
0.000773609
0.000736573
0.000694312
0.000644462
0.000584623
0.000509146
0.000407147
0.000262674
0.000191868
5.23671e-05
0.000481402
0.000869596
0.00116221
0.00139363
0.00158507
0.00174862
0.0018917
0.00201908
0.00213401
0.00223882
0.00233521
0.00242449
0.00250767
0.00258556
0.00265879
0.00272789
0.00279329
0.00285534
0.00291434
0.00297054
0.00302417
0.0030754
0.00312439
0.0031713
0.00321623
0.00325931
0.00330063
0.00334028
0.00337834
0.00341489
0.00344999
0.00348371
0.00351611
0.00354724
0.00357714
0.00360588
0.00363349
0.00366001
0.00368549
0.00370996
0.00373346
0.00375602
0.00377768
0.00379845
0.00381838
0.00383749
0.0038558
0.00387334
0.00389013
0.00390618
0.00392153
0.00393617
0.00395014
0.00396342
0.00397602
0.0039879
0.00399905
0.0040096
0.00401958
0.00402901
0.0040379
0.00404626
0.00405411
0.00406145
0.0040683
0.00407466
0.00408054
0.00408595
0.0040909
0.00409539
0.00409944
0.00410305
0.00410622
0.00410896
0.00411128
0.00411318
0.00411467
0.00411575
0.00411643
0.00411672
0.00411661
0.00411611
0.00411523
0.00411396
0.00411232
0.00411031
0.00410793
0.00410519
0.00410209
0.00409862
0.0040948
0.00409063
0.00408611
0.00408125
0.00407604
0.00407049
0.0040646
0.00405838
0.00405182
0.00404493
0.00403771
0.00403015
0.00402227
0.00401407
0.00400554
0.00399668
0.0039875
0.00397799
0.00396817
0.00395802
0.00394754
0.00393674
0.00392562
0.00391417
0.0039024
0.0038903
0.00387787
0.00386512
0.00385203
0.00383861
0.00382485
0.00381076
0.00379633
0.00378155
0.00376643
0.00375097
0.00373515
0.00371898
0.00370245
0.00368557
0.00366831
0.0036507
0.00363271
0.00361434
0.0035956
0.00357647
0.00355696
0.00353706
0.00351676
0.00349605
0.00347495
0.00345343
0.0034315
0.00340915
0.00338638
0.00336318
0.00333954
0.00331546
0.00329094
0.00326597
0.00324054
0.00321464
0.00318828
0.00316144
0.00313412
0.00310631
0.003078
0.00304918
0.00301985
0.00298999
0.0029596
0.00292866
0.00289716
0.00286509
0.00283244
0.00279918
0.00276531
0.00273079
0.00269561
0.00265974
0.00262315
0.00258582
0.00254769
0.00250873
0.00246889
0.00242812
0.00238633
0.00234346
0.0022994
0.00225405
0.00220727
0.00215888
0.00210867
0.00205636
0.00200162
0.00194405
0.00188322
0.00181856
0.00174921
0.00167402
0.0015914
0.00149895
0.00139308
0.00126846
0.0011183
0.000930292
0.000683005
0.000345723
3.22517e-05
5.23437e-05
0.000481451
0.000869661
0.00116229
0.00139374
0.0015852
0.00174876
0.00189183
0.00201921
0.00213414
0.00223894
0.00233533
0.0024246
0.00250778
0.00258567
0.0026589
0.00272799
0.00279339
0.00285543
0.00291443
0.00297063
0.00302425
0.00307547
0.00312447
0.00317137
0.0032163
0.00325937
0.00330069
0.00334034
0.0033784
0.00341494
0.00345004
0.00348376
0.00351615
0.00354728
0.00357718
0.00360591
0.00363352
0.00366004
0.00368552
0.00370999
0.00373349
0.00375605
0.0037777
0.00379848
0.0038184
0.00383751
0.00385582
0.00387336
0.00389014
0.0039062
0.00392154
0.00393619
0.00395015
0.00396344
0.00397603
0.00398791
0.00399905
0.00400961
0.00401959
0.00402902
0.00403791
0.00404627
0.00405411
0.00406145
0.0040683
0.00407466
0.00408054
0.00408595
0.0040909
0.0040954
0.00409944
0.00410305
0.00410622
0.00410896
0.00411128
0.00411318
0.00411467
0.00411575
0.00411643
0.00411672
0.00411661
0.00411611
0.00411522
0.00411396
0.00411232
0.00411031
0.00410793
0.00410519
0.00410208
0.00409862
0.0040948
0.00409063
0.00408611
0.00408125
0.00407604
0.00407049
0.0040646
0.00405838
0.00405182
0.00404493
0.0040377
0.00403015
0.00402227
0.00401406
0.00400553
0.00399668
0.0039875
0.00397799
0.00396816
0.00395801
0.00394754
0.00393674
0.00392562
0.00391417
0.0039024
0.0038903
0.00387787
0.00386511
0.00385202
0.0038386
0.00382485
0.00381075
0.00379632
0.00378155
0.00376643
0.00375096
0.00373514
0.00371897
0.00370245
0.00368556
0.00366831
0.00365069
0.0036327
0.00361434
0.00359559
0.00357647
0.00355695
0.00353705
0.00351675
0.00349605
0.00347494
0.00345343
0.0034315
0.00340915
0.00338637
0.00336317
0.00333953
0.00331546
0.00329093
0.00326596
0.00324053
0.00321464
0.00318827
0.00316143
0.00313411
0.0031063
0.00307799
0.00304917
0.00301984
0.00298998
0.00295959
0.00292865
0.00289716
0.00286509
0.00283243
0.00279918
0.0027653
0.00273078
0.0026956
0.00265973
0.00262315
0.00258581
0.00254768
0.00250873
0.00246889
0.00242811
0.00238633
0.00234345
0.0022994
0.00225405
0.00220726
0.00215887
0.00210866
0.00205636
0.00200162
0.00194404
0.00188322
0.00181855
0.00174921
0.00167402
0.0015914
0.00149895
0.0013931
0.00126862
0.00111924
0.000935327
0.000707232
0.000440436
0.000292408
6.05935e-05
0.000582732
0.00111079
0.00153736
0.00188831
0.00218508
0.00244188
0.00266817
0.00287047
0.00305338
0.0032203
0.00337378
0.0035158
0.00364791
0.00377135
0.00388713
0.00399608
0.00409888
0.00419613
0.00428831
0.00437583
0.00445907
0.00453833
0.0046139
0.00468602
0.0047549
0.00482073
0.0048837
0.00494396
0.00500165
0.00505691
0.00510986
0.00516061
0.00520926
0.00525592
0.00530067
0.00534359
0.00538477
0.00542428
0.00546219
0.00549857
0.00553347
0.00556695
0.00559908
0.00562989
0.00565944
0.00568777
0.00571493
0.00574095
0.00576587
0.00578971
0.00581253
0.00583432
0.00585513
0.00587497
0.00589384
0.00591173
0.00592867
0.00594468
0.00595988
0.00597427
0.00598788
0.00600073
0.00601283
0.0060242
0.00603486
0.00604481
0.00605408
0.00606266
0.00607058
0.00607784
0.00608445
0.00609042
0.00609577
0.00610049
0.0061046
0.0061081
0.00611101
0.00611332
0.00611505
0.0061162
0.00611677
0.00611678
0.00611623
0.00611513
0.00611347
0.00611127
0.00610853
0.00610526
0.00610145
0.00609712
0.00609227
0.0060869
0.00608102
0.00607463
0.00606773
0.00606033
0.00605243
0.00604404
0.00603514
0.00602576
0.00601589
0.00600553
0.00599469
0.00598336
0.00597155
0.00595925
0.00594648
0.00593323
0.00591949
0.00590528
0.00589058
0.00587541
0.00585975
0.00584361
0.00582698
0.00580987
0.00579226
0.00577417
0.00575558
0.0057365
0.00571692
0.00569683
0.00567624
0.00565513
0.00563351
0.00561138
0.00558871
0.00556552
0.0055418
0.00551753
0.00549272
0.00546736
0.00544144
0.00541496
0.00538791
0.00536028
0.00533207
0.00530327
0.00527387
0.00524387
0.00521326
0.00518203
0.00515017
0.00511767
0.00508453
0.00505073
0.00501627
0.00498114
0.00494533
0.00490882
0.00487161
0.00483368
0.00479503
0.00475564
0.0047155
0.00467459
0.0046329
0.00459041
0.00454711
0.00450297
0.00445798
0.00441211
0.00436534
0.00431765
0.004269
0.00421935
0.00416869
0.00411696
0.00406411
0.00401011
0.00395489
0.00389839
0.00384053
0.00378123
0.0037204
0.00365792
0.00359367
0.00352749
0.0034592
0.0033886
0.00331542
0.00323936
0.00316004
0.003077
0.00298966
0.00289734
0.00279919
0.00269411
0.00258065
0.00245688
0.00232017
0.00216689
0.00199204
0.00178884
0.001548
0.00125657
0.00089701
0.000458074
4.76642e-05
6.05887e-05
0.000582771
0.00111088
0.00153749
0.00188847
0.00218526
0.00244207
0.00266837
0.00287066
0.00305357
0.00322049
0.00337396
0.00351598
0.00364808
0.00377151
0.00388729
0.00399623
0.00409903
0.00419627
0.00428844
0.00437596
0.00445919
0.00453845
0.00461401
0.00468612
0.004755
0.00482083
0.00488379
0.00494404
0.00500173
0.00505699
0.00510993
0.00516067
0.00520932
0.00525597
0.00530072
0.00534364
0.00538481
0.00542432
0.00546223
0.0054986
0.0055335
0.00556698
0.0055991
0.00562991
0.00565946
0.00568779
0.00571495
0.00574096
0.00576588
0.00578972
0.00581253
0.00583433
0.00585514
0.00587497
0.00589384
0.00591174
0.00592867
0.00594468
0.00595987
0.00597427
0.00598788
0.00600072
0.00601282
0.0060242
0.00603485
0.0060448
0.00605407
0.00606265
0.00607057
0.00607783
0.00608444
0.00609041
0.00609576
0.00610048
0.00610459
0.00610809
0.00611099
0.00611331
0.00611503
0.00611618
0.00611676
0.00611677
0.00611622
0.00611511
0.00611346
0.00611126
0.00610852
0.00610524
0.00610144
0.00609711
0.00609226
0.00608689
0.00608101
0.00607461
0.00606772
0.00606032
0.00605242
0.00604402
0.00603513
0.00602574
0.00601587
0.00600551
0.00599467
0.00598334
0.00597153
0.00595924
0.00594646
0.00593321
0.00591947
0.00590526
0.00589056
0.00587539
0.00585973
0.00584359
0.00582696
0.00580985
0.00579224
0.00577415
0.00575556
0.00573648
0.0057169
0.00569681
0.00567622
0.00565511
0.00563349
0.00561136
0.00558869
0.0055655
0.00554178
0.00551751
0.0054927
0.00546734
0.00544142
0.00541494
0.00538789
0.00536026
0.00533205
0.00530325
0.00527385
0.00524385
0.00521324
0.005182
0.00515014
0.00511765
0.0050845
0.00505071
0.00501625
0.00498112
0.0049453
0.0049088
0.00487159
0.00483366
0.00479501
0.00475562
0.00471548
0.00467457
0.00463288
0.00459039
0.00454709
0.00450295
0.00445796
0.00441209
0.00436532
0.00431763
0.00426898
0.00421933
0.00416867
0.00411694
0.00406409
0.00401009
0.00395487
0.00389837
0.00384051
0.00378122
0.00372038
0.00365791
0.00359365
0.00352747
0.00345919
0.00338858
0.00331541
0.00323935
0.00316003
0.00307698
0.00298965
0.00289732
0.00279917
0.0026941
0.00258064
0.00245687
0.00232015
0.00216687
0.00199203
0.00178883
0.00154812
0.00125751
0.000901525
0.000470992
4.95361e-05
6.65609e-05
0.000653336
0.00128569
0.00181959
0.0022709
0.00265927
0.0029993
0.00330139
0.00357302
0.00381969
0.00404551
0.00425363
0.00444652
0.00462614
0.00479408
0.00495162
0.00509984
0.00523965
0.00537181
0.00549696
0.00561568
0.00572844
0.00583568
0.00593777
0.00603506
0.00612783
0.00621637
0.00630092
0.0063817
0.00645891
0.00653276
0.0066034
0.00667101
0.00673573
0.00679771
0.00685707
0.00691394
0.00696843
0.00702065
0.00707071
0.00711869
0.00716469
0.00720879
0.00725106
0.00729159
0.00733043
0.00736767
0.00740334
0.00743752
0.00747025
0.00750158
0.00753155
0.00756021
0.00758758
0.0076137
0.00763859
0.00766226
0.00768474
0.00770604
0.00772627
0.00774546
0.00776364
0.00778084
0.00779707
0.00781237
0.00782675
0.00784022
0.0078528
0.00786452
0.00787538
0.00788539
0.00789458
0.00790295
0.00791051
0.00791727
0.00792324
0.00792844
0.00793288
0.00793655
0.00793947
0.00794165
0.0079431
0.00794382
0.00794382
0.00794311
0.00794169
0.00793957
0.00793676
0.00793326
0.00792908
0.00792422
0.00791869
0.0079125
0.00790564
0.00789813
0.00788996
0.00788115
0.00787169
0.0078616
0.00785086
0.00783949
0.00782749
0.00781486
0.0078016
0.00778771
0.00777321
0.00775808
0.00774232
0.00772595
0.00770895
0.00769133
0.00767309
0.00765423
0.00763474
0.00761462
0.00759388
0.0075725
0.00755049
0.00752784
0.00750455
0.00748062
0.00745603
0.0074308
0.0074049
0.00737834
0.0073511
0.00732319
0.0072946
0.00726532
0.00723534
0.00720465
0.00717325
0.00714114
0.00710829
0.00707471
0.00704038
0.00700529
0.00696944
0.00693281
0.0068954
0.00685719
0.00681818
0.00677834
0.00673768
0.00669617
0.00665381
0.00661058
0.00656646
0.00652145
0.00647553
0.00642868
0.00638089
0.00633214
0.00628241
0.00623167
0.00617992
0.00612713
0.00607327
0.00601832
0.00596225
0.00590503
0.00584664
0.00578703
0.00572616
0.005664
0.00560049
0.00553559
0.00546925
0.00540139
0.00533194
0.00526084
0.00518798
0.00511328
0.00503661
0.00495785
0.00487685
0.00479344
0.00470742
0.00461857
0.00452661
0.00443124
0.00433206
0.00422862
0.00412038
0.00400667
0.00388667
0.0037594
0.0036236
0.00347771
0.00331972
0.00314704
0.00295625
0.00274291
0.00250117
0.00222335
0.00189944
0.00151716
0.00106218
0.000529923
5.32531e-05
6.65616e-05
0.000653383
0.00128579
0.00181975
0.0022711
0.00265949
0.00299953
0.00330163
0.00357327
0.00381994
0.00404575
0.00425387
0.00444675
0.00462637
0.00479429
0.00495183
0.00510005
0.00523985
0.005372
0.00549714
0.00561585
0.0057286
0.00583583
0.00593792
0.0060352
0.00612797
0.0062165
0.00630104
0.00638181
0.00645902
0.00653286
0.0066035
0.0066711
0.00673581
0.00679778
0.00685714
0.006914
0.00696849
0.00702071
0.00707076
0.00711874
0.00716473
0.00720882
0.00725109
0.00729162
0.00733046
0.00736769
0.00740336
0.00743754
0.00747026
0.00750159
0.00753156
0.00756022
0.00758759
0.00761371
0.00763859
0.00766226
0.00768474
0.00770604
0.00772626
0.00774545
0.00776363
0.00778083
0.00779706
0.00781236
0.00782673
0.00784021
0.00785279
0.00786451
0.00787537
0.00788538
0.00789456
0.00790293
0.00791049
0.00791725
0.00792323
0.00792843
0.00793286
0.00793653
0.00793945
0.00794163
0.00794308
0.0079438
0.0079438
0.00794309
0.00794167
0.00793955
0.00793674
0.00793324
0.00792906
0.0079242
0.00791867
0.00791247
0.00790562
0.00789811
0.00788994
0.00788113
0.00787167
0.00786157
0.00785084
0.00783947
0.00782747
0.00781483
0.00780158
0.00778769
0.00777318
0.00775805
0.0077423
0.00772592
0.00770893
0.00769131
0.00767307
0.0076542
0.00763471
0.0076146
0.00759385
0.00757248
0.00755047
0.00752782
0.00750453
0.00748059
0.00745601
0.00743077
0.00740487
0.00737831
0.00735108
0.00732317
0.00729457
0.00726529
0.00723531
0.00720462
0.00717323
0.00714111
0.00710826
0.00707468
0.00704035
0.00700526
0.00696941
0.00693278
0.00689537
0.00685716
0.00681815
0.00677831
0.00673765
0.00669614
0.00665378
0.00661055
0.00656644
0.00652143
0.0064755
0.00642866
0.00638086
0.00633211
0.00628238
0.00623164
0.00617989
0.0061271
0.00607324
0.00601829
0.00596222
0.00590501
0.00584661
0.005787
0.00572613
0.00566397
0.00560046
0.00553557
0.00546922
0.00540136
0.00533191
0.00526081
0.00518795
0.00511325
0.00503658
0.00495782
0.00487682
0.00479341
0.00470739
0.00461854
0.00452659
0.00443121
0.00433203
0.0042286
0.00412036
0.00400665
0.00388665
0.00375938
0.00362358
0.00347769
0.00331971
0.00314702
0.00295624
0.0027429
0.00250116
0.00222333
0.00189938
0.00151713
0.00106269
0.000531642
5.33861e-05
7.16411e-05
0.00070987
0.00142326
0.00204304
0.00257719
0.00304314
0.00345516
0.00382397
0.00415756
0.00446191
0.00474161
0.00500021
0.00524053
0.0054648
0.00567485
0.00587219
0.00605807
0.00623355
0.00639952
0.00655676
0.00670593
0.00684763
0.00698236
0.0071106
0.00723274
0.00734916
0.0074602
0.00756616
0.00766732
0.00776394
0.00785626
0.00794451
0.00802888
0.00810957
0.00818677
0.00826065
0.00833135
0.00839904
0.00846385
0.00852592
0.00858536
0.00864231
0.00869686
0.00874912
0.00879918
0.00884714
0.00889309
0.0089371
0.00897924
0.00901958
0.0090582
0.00909513
0.00913045
0.00916419
0.0091964
0.00922712
0.00925638
0.00928421
0.00931064
0.00933573
0.00935956
0.00938216
0.00940356
0.0094238
0.0094429
0.00946088
0.00947776
0.00949357
0.00950833
0.00952206
0.00953476
0.00954647
0.00955719
0.00956693
0.00957571
0.00958355
0.00959046
0.00959644
0.00960151
0.00960567
0.00960895
0.00961134
0.00961286
0.00961351
0.00961331
0.00961225
0.00961036
0.00960763
0.00960408
0.00959971
0.00959453
0.00958854
0.00958174
0.00957416
0.00956578
0.00955662
0.00954668
0.00953597
0.00952449
0.00951224
0.00949922
0.00948545
0.00947091
0.00945563
0.00943959
0.00942279
0.00940525
0.00938696
0.00936792
0.00934813
0.00932759
0.00930631
0.00928426
0.00926147
0.00923792
0.00921361
0.00918854
0.0091627
0.00913609
0.00910871
0.00908054
0.00905159
0.00902185
0.00899132
0.00895997
0.00892782
0.00889484
0.00886103
0.00882639
0.0087909
0.00875456
0.00871735
0.00867926
0.00864028
0.00860041
0.00855963
0.00851792
0.00847528
0.00843168
0.00838713
0.0083416
0.00829508
0.00824755
0.008199
0.00814941
0.00809877
0.00804705
0.00799424
0.00794032
0.00788526
0.00782905
0.00777167
0.00771308
0.00765326
0.0075922
0.00752984
0.00746618
0.00740117
0.00733478
0.00726696
0.00719769
0.00712691
0.00705457
0.00698062
0.00690501
0.00682766
0.00674851
0.00666748
0.00658448
0.00649942
0.00641218
0.00632265
0.0062307
0.00613615
0.00603885
0.0059386
0.00583515
0.00572825
0.00561759
0.00550281
0.00538349
0.00525913
0.00512912
0.00499276
0.00484918
0.00469733
0.00453593
0.0043634
0.00417776
0.00397655
0.00375665
0.00351409
0.00324384
0.00293953
0.00259316
0.0021948
0.00173287
0.00119593
0.000585676
5.74262e-05
7.16428e-05
0.000709923
0.00142338
0.00204321
0.00257741
0.00304339
0.00345543
0.00382425
0.00415784
0.00446219
0.00474189
0.00500049
0.0052408
0.00546506
0.00567511
0.00587244
0.00605831
0.00623378
0.00639974
0.00655697
0.00670614
0.00684782
0.00698255
0.00711078
0.00723291
0.00734933
0.00746035
0.0075663
0.00766746
0.00776407
0.00785638
0.00794462
0.00802899
0.00810967
0.00818687
0.00826073
0.00833143
0.00839912
0.00846392
0.00852598
0.00858542
0.00864236
0.00869691
0.00874916
0.00879922
0.00884718
0.00889312
0.00893713
0.00897926
0.00901961
0.00905821
0.00909515
0.00913046
0.0091642
0.00919641
0.00922713
0.00925638
0.00928421
0.00931064
0.00933573
0.00935955
0.00938215
0.00940356
0.00942379
0.00944289
0.00946087
0.00947775
0.00949356
0.00950832
0.00952204
0.00953475
0.00954645
0.00955717
0.00956691
0.0095757
0.00958354
0.00959044
0.00959642
0.00960149
0.00960565
0.00960893
0.00961132
0.00961283
0.00961349
0.00961328
0.00961223
0.00961034
0.00960761
0.00960406
0.00959969
0.0095945
0.00958851
0.00958172
0.00957413
0.00956576
0.0095566
0.00954666
0.00953595
0.00952446
0.00951221
0.0094992
0.00948542
0.00947089
0.0094556
0.00943956
0.00942277
0.00940523
0.00938694
0.0093679
0.00934811
0.00932757
0.00930628
0.00928424
0.00926144
0.00923789
0.00921358
0.00918851
0.00916267
0.00913606
0.00910868
0.00908051
0.00905157
0.00902183
0.00899129
0.00895994
0.00892779
0.00889481
0.00886101
0.00882636
0.00879087
0.00875453
0.00871732
0.00867923
0.00864025
0.00860038
0.0085596
0.00851789
0.00847524
0.00843165
0.0083871
0.00834157
0.00829505
0.00824752
0.00819897
0.00814938
0.00809874
0.00804702
0.00799421
0.00794029
0.00788523
0.00782902
0.00777163
0.00771305
0.00765323
0.00759216
0.00752981
0.00746615
0.00740114
0.00733475
0.00726693
0.00719766
0.00712687
0.00705454
0.00698059
0.00690497
0.00682763
0.00674848
0.00666745
0.00658445
0.00649939
0.00641215
0.00632262
0.00623067
0.00613612
0.00603883
0.00593857
0.00583512
0.00572822
0.00561757
0.00550279
0.00538347
0.0052591
0.0051291
0.00499274
0.00484916
0.00469731
0.00453591
0.00436338
0.00417774
0.00397654
0.00375663
0.00351407
0.00324383
0.00293953
0.00259315
0.00219479
0.00173285
0.00119596
0.00058589
5.74385e-05
7.62484e-05
0.000758552
0.00153796
0.00222781
0.00283063
0.00336199
0.00383567
0.00426243
0.00465049
0.00500613
0.00533424
0.00563862
0.00592231
0.00618775
0.00643693
0.00667149
0.00689282
0.00710207
0.00730024
0.00748819
0.00766667
0.00783632
0.00799773
0.00815141
0.00829784
0.00843743
0.00857057
0.00869761
0.00881889
0.00893469
0.00904531
0.009151
0.00925201
0.00934857
0.0094409
0.0095292
0.00961366
0.00969447
0.0097718
0.0098458
0.00991664
0.00998444
0.0100494
0.0101115
0.010171
0.010228
0.0102826
0.0103348
0.0103848
0.0104326
0.0104784
0.0105222
0.010564
0.010604
0.0106422
0.0106786
0.0107133
0.0107463
0.0107777
0.0108076
0.0108359
0.0108628
0.0108883
0.0109124
0.0109352
0.0109567
0.0109769
0.0109958
0.0110136
0.0110301
0.0110454
0.0110595
0.0110726
0.0110844
0.0110952
0.0111049
0.0111135
0.011121
0.0111274
0.0111329
0.0111372
0.0111406
0.011143
0.0111443
0.0111447
0.0111441
0.0111425
0.0111399
0.0111364
0.011132
0.0111266
0.0111203
0.0111131
0.0111049
0.0110958
0.0110859
0.011075
0.0110632
0.0110506
0.0110371
0.0110227
0.0110074
0.0109912
0.0109742
0.0109563
0.0109375
0.0109179
0.0108974
0.010876
0.0108538
0.0108307
0.0108067
0.0107819
0.0107562
0.0107296
0.0107022
0.0106739
0.0106446
0.0106145
0.0105835
0.0105516
0.0105188
0.0104851
0.0104504
0.0104148
0.0103783
0.0103408
0.0103024
0.010263
0.0102226
0.0101812
0.0101388
0.0100953
0.0100509
0.0100054
0.00995878
0.00991113
0.00986238
0.00981252
0.00976153
0.00970939
0.00965609
0.00960161
0.00954592
0.00948901
0.00943085
0.00937141
0.00931069
0.00924864
0.00918525
0.00912049
0.00905432
0.00898672
0.00891765
0.00884708
0.00877497
0.00870127
0.00862596
0.00854898
0.00847028
0.0083898
0.0083075
0.00822331
0.00813715
0.00804896
0.00795865
0.00786612
0.00777129
0.00767404
0.00757425
0.00747178
0.00736648
0.00725817
0.00714666
0.00703174
0.00691314
0.00679059
0.00666376
0.00653225
0.00639563
0.00625337
0.00610485
0.00594935
0.00578599
0.00561373
0.0054313
0.00523717
0.00502948
0.0048059
0.00456362
0.00429909
0.00400795
0.00368478
0.00332292
0.00291426
0.00244917
0.00191698
0.00130876
0.000632434
6.10696e-05
7.62504e-05
0.000758607
0.00153808
0.00222799
0.00283085
0.00336225
0.00383595
0.00426273
0.00465079
0.00500644
0.00533455
0.00563893
0.00592261
0.00618804
0.00643721
0.00667177
0.00689309
0.00710233
0.0073005
0.00748844
0.0076669
0.00783654
0.00799794
0.00815161
0.00829803
0.00843761
0.00857074
0.00869778
0.00881904
0.00893484
0.00904545
0.00915113
0.00925213
0.00934869
0.00944101
0.0095293
0.00961376
0.00969456
0.00977188
0.00984588
0.00991671
0.00998451
0.0100494
0.0101116
0.0101711
0.010228
0.0102826
0.0103348
0.0103848
0.0104326
0.0104784
0.0105222
0.010564