/*--------------------------------*- C++ -*----------------------------------*\
  =========                 |
  \\      /  F ield         | OpenFOAM: The Open Source CFD Toolbox
   \\    /   O peration     | Website:  https://openfoam.org
    \\  /    A nd           | Version:  8
     \\/     M anipulation  |
\*---------------------------------------------------------------------------*/
FoamFile
{
    version     2.0;
    format      ascii;
    class       volScalarField;
    location    "1400";
    object      k;
}
// * * * * * * * * * * * * * * * * * * * * * * * * * * * * * * * * * * * * * //

dimensions      [0 2 -2 0 0 0 0];

internalField   nonuniform List<scalar> 
48000
(
0.0191926
0.0227675
0.0355987
0.0470394
0.0571565
0.0663173
0.074957
0.0831324
0.0909331
0.0984518
0.105739
0.112834
0.119764
0.126552
0.133213
0.139758
0.146196
0.152533
0.158771
0.164913
0.170958
0.176908
0.18276
0.188514
0.194166
0.199715
0.205159
0.210495
0.21572
0.220833
0.22583
0.230711
0.235473
0.240115
0.244636
0.249033
0.253307
0.257457
0.261481
0.265381
0.269155
0.272805
0.27633
0.279731
0.283008
0.286163
0.289197
0.29211
0.294904
0.29758
0.30014
0.302584
0.304914
0.307131
0.309236
0.31123
0.313128
0.314928
0.316625
0.318221
0.319717
0.321114
0.322415
0.32362
0.324732
0.325753
0.326683
0.327526
0.328281
0.328952
0.329539
0.330044
0.330468
0.330814
0.331082
0.331274
0.331392
0.331437
0.331409
0.331311
0.331143
0.330908
0.330605
0.330237
0.329805
0.329309
0.328751
0.328132
0.327453
0.326714
0.325918
0.325065
0.324155
0.323191
0.322172
0.3211
0.319976
0.3188
0.317573
0.316296
0.31497
0.313596
0.312173
0.310704
0.309188
0.307627
0.30602
0.304369
0.302674
0.300936
0.299155
0.297331
0.295466
0.293559
0.291611
0.289623
0.287594
0.285525
0.283418
0.281271
0.279085
0.27686
0.274598
0.272298
0.269959
0.267584
0.265171
0.262722
0.260235
0.257713
0.255154
0.252559
0.249929
0.247263
0.244562
0.241826
0.239056
0.236251
0.233413
0.230541
0.227636
0.224698
0.221727
0.218725
0.215691
0.212626
0.209531
0.206406
0.203251
0.200068
0.196858
0.193619
0.190355
0.187065
0.18375
0.180411
0.177049
0.173665
0.170259
0.166834
0.163389
0.159927
0.156447
0.152951
0.149441
0.145917
0.14238
0.138833
0.135274
0.131707
0.128131
0.124548
0.120959
0.117364
0.113764
0.11016
0.106552
0.102941
0.0993254
0.0957057
0.092081
0.0884503
0.084812
0.0811653
0.0775122
0.0738553
0.0702186
0.0665481
0.0628243
0.0590355
0.055159
0.051168
0.0470262
0.0427069
0.0381952
0.0333361
0.0279936
0.0221235
0.0196883
0.0186088
0.0191667
0.0227631
0.0355945
0.0470397
0.0571585
0.0663195
0.0749593
0.0831347
0.0909353
0.098454
0.105741
0.112836
0.119766
0.126554
0.133215
0.13976
0.146198
0.152534
0.158772
0.164914
0.17096
0.176909
0.182762
0.188515
0.194167
0.199716
0.20516
0.210496
0.215721
0.220833
0.225831
0.230712
0.235474
0.240116
0.244636
0.249034
0.253308
0.257457
0.261481
0.265381
0.269155
0.272805
0.27633
0.279731
0.283008
0.286163
0.289197
0.29211
0.294904
0.29758
0.300139
0.302583
0.304913
0.307131
0.309236
0.31123
0.313128
0.314927
0.316625
0.318221
0.319717
0.321114
0.322414
0.32362
0.324732
0.325752
0.326683
0.327525
0.328281
0.328951
0.329538
0.330043
0.330468
0.330813
0.331082
0.331274
0.331392
0.331436
0.331409
0.33131
0.331143
0.330907
0.330605
0.330237
0.329804
0.329309
0.328751
0.328131
0.327452
0.326714
0.325918
0.325064
0.324155
0.32319
0.322172
0.3211
0.319975
0.318799
0.317572
0.316296
0.31497
0.313595
0.312173
0.310703
0.309188
0.307626
0.30602
0.304369
0.302674
0.300935
0.299154
0.297331
0.295465
0.293558
0.291611
0.289622
0.287593
0.285525
0.283417
0.28127
0.279084
0.27686
0.274598
0.272297
0.269959
0.267583
0.265171
0.262721
0.260235
0.257712
0.255154
0.252559
0.249929
0.247263
0.244562
0.241826
0.239056
0.236251
0.233413
0.230541
0.227635
0.224697
0.221727
0.218724
0.21569
0.212626
0.20953
0.206405
0.203251
0.200068
0.196857
0.193619
0.190355
0.187065
0.18375
0.180411
0.177049
0.173664
0.170259
0.166834
0.163389
0.159926
0.156447
0.152951
0.149441
0.145917
0.14238
0.138832
0.135274
0.131707
0.128131
0.124548
0.120959
0.117364
0.113764
0.11016
0.106552
0.102941
0.0993253
0.0957056
0.092081
0.0884503
0.084812
0.0811653
0.0775122
0.0738553
0.0702186
0.0665481
0.0628244
0.0590355
0.055159
0.0511681
0.0470262
0.0427069
0.038195
0.0333352
0.0279908
0.0221161
0.019665
0.0186253
0.0239521
0.0588954
0.0851596
0.107507
0.127823
0.146705
0.164546
0.18158
0.197973
0.21385
0.229303
0.244401
0.259196
0.273727
0.288022
0.3021
0.315977
0.32966
0.343155
0.356464
0.369585
0.382517
0.395256
0.407796
0.420132
0.432259
0.444168
0.455855
0.467313
0.478536
0.489518
0.500254
0.510738
0.520966
0.530935
0.540641
0.550081
0.559253
0.568155
0.576785
0.585144
0.59323
0.601044
0.608587
0.615859
0.622862
0.629597
0.636067
0.642274
0.648221
0.653909
0.659342
0.664522
0.669453
0.674137
0.678574
0.682763
0.686722
0.690454
0.693962
0.697249
0.70032
0.703178
0.705826
0.708268
0.710509
0.712551
0.714399
0.716055
0.717525
0.71881
0.719915
0.720842
0.721596
0.72218
0.722596
0.722847
0.722938
0.722871
0.722648
0.722273
0.721748
0.721076
0.72026
0.719303
0.718207
0.716974
0.715607
0.714108
0.71248
0.710725
0.708844
0.706841
0.704718
0.702475
0.700116
0.697642
0.695056
0.692358
0.689551
0.686637
0.683616
0.680492
0.677264
0.673936
0.670507
0.666981
0.663357
0.659637
0.655823
0.651916
0.647916
0.643825
0.639644
0.635374
0.631016
0.62657
0.622038
0.617421
0.612718
0.607931
0.603061
0.598108
0.593073
0.587956
0.582759
0.577481
0.572123
0.566686
0.561171
0.555578
0.549907
0.544159
0.538336
0.532436
0.526462
0.520414
0.514292
0.508097
0.501831
0.495494
0.489086
0.48261
0.476065
0.469454
0.462776
0.456035
0.44923
0.442363
0.435436
0.428451
0.421408
0.41431
0.407158
0.399955
0.392702
0.385402
0.378056
0.370667
0.363237
0.355768
0.348263
0.340725
0.333155
0.325557
0.317932
0.310284
0.302615
0.294928
0.287224
0.279506
0.271777
0.264038
0.25629
0.248537
0.240777
0.233014
0.225245
0.217472
0.209694
0.201907
0.19411
0.186298
0.178467
0.170609
0.162717
0.154776
0.146762
0.138649
0.130427
0.12205
0.113472
0.104627
0.095421
0.0857456
0.0754501
0.0642698
0.0517574
0.0373773
0.0256345
0.023948
0.0588969
0.085161
0.107509
0.127825
0.146707
0.164547
0.181581
0.197975
0.213851
0.229304
0.244402
0.259197
0.273728
0.288022
0.302101
0.315977
0.32966
0.343155
0.356464
0.369585
0.382517
0.395256
0.407796
0.420132
0.432258
0.444168
0.455855
0.467313
0.478535
0.489517
0.500253
0.510737
0.520965
0.530934
0.54064
0.55008
0.559252
0.568154
0.576784
0.585142
0.593229
0.601043
0.608585
0.615857
0.62286
0.629596
0.636066
0.642273
0.648219
0.653907
0.65934
0.66452
0.669451
0.674135
0.678572
0.682761
0.68672
0.690452
0.69396
0.697247
0.700318
0.703176
0.705824
0.708266
0.710507
0.712549
0.714397
0.716053
0.717523
0.718808
0.719913
0.72084
0.721594
0.722177
0.722594
0.722845
0.722936
0.722868
0.722646
0.72227
0.721746
0.721074
0.720258
0.719301
0.718205
0.716972
0.715605
0.714106
0.712478
0.710722
0.708842
0.706839
0.704716
0.702473
0.700114
0.69764
0.695054
0.692356
0.689549
0.686635
0.683614
0.68049
0.677262
0.673934
0.670505
0.666979
0.663355
0.659635
0.655821
0.651914
0.647914
0.643823
0.639642
0.635372
0.631014
0.626568
0.622036
0.617419
0.612716
0.607929
0.603059
0.598106
0.593071
0.587954
0.582757
0.577479
0.572121
0.566685
0.561169
0.555576
0.549905
0.544158
0.538334
0.532435
0.52646
0.520412
0.51429
0.508096
0.501829
0.495492
0.489085
0.482608
0.476064
0.469452
0.462775
0.456033
0.449228
0.442362
0.435435
0.428449
0.421406
0.414308
0.407157
0.399954
0.392701
0.3854
0.378054
0.370665
0.363235
0.355767
0.348262
0.340724
0.333154
0.325556
0.317931
0.310283
0.302614
0.294927
0.287223
0.279505
0.271776
0.264037
0.256289
0.248536
0.240777
0.233013
0.225245
0.217472
0.209693
0.201906
0.194109
0.186298
0.178466
0.170609
0.162716
0.154776
0.146761
0.138649
0.130426
0.12205
0.113472
0.104627
0.0954216
0.0857485
0.0754614
0.0643102
0.0518909
0.0377824
0.0263518
0.0354957
0.0852459
0.117196
0.144102
0.168708
0.191822
0.213835
0.234981
0.255425
0.27529
0.29467
0.313636
0.332246
0.35054
0.36855
0.386299
0.403803
0.421071
0.438109
0.454918
0.471498
0.487846
0.503955
0.519819
0.535432
0.550786
0.565872
0.580682
0.595208
0.609442
0.623377
0.637005
0.65032
0.663315
0.675987
0.688329
0.700339
0.712012
0.723346
0.734339
0.74499
0.755298
0.765262
0.774884
0.784164
0.793104
0.801705
0.80997
0.817901
0.825501
0.832773
0.839721
0.846348
0.852658
0.858654
0.864339
0.869718
0.874794
0.879579
0.884078
0.888295
0.892234
0.895901
0.8993
0.902435
0.905312
0.907935
0.910308
0.912437
0.914325
0.915978
0.917399
0.918593
0.919565
0.920318
0.920857
0.921185
0.921306
0.921225
0.920945
0.92047
0.919804
0.918949
0.917909
0.916689
0.91529
0.913717
0.911972
0.910058
0.907979
0.905737
0.903336
0.900777
0.898065
0.8952
0.892187
0.889027
0.885723
0.882277
0.878691
0.874968
0.87111
0.867119
0.862997
0.858746
0.854368
0.849864
0.845236
0.840487
0.835617
0.830628
0.825522
0.820299
0.814962
0.809512
0.803949
0.798276
0.792492
0.7866
0.7806
0.774493
0.76828
0.761963
0.755541
0.749015
0.742387
0.735658
0.728828
0.721897
0.714867
0.707738
0.700512
0.693189
0.685769
0.678254
0.670645
0.662942
0.655146
0.64726
0.639282
0.631216
0.623061
0.61482
0.606493
0.598082
0.589589
0.581015
0.572362
0.563632
0.554827
0.545949
0.536999
0.527981
0.518896
0.509747
0.500537
0.491268
0.481943
0.472564
0.463136
0.45366
0.444141
0.43458
0.424982
0.415349
0.405684
0.395992
0.386275
0.376536
0.366778
0.357004
0.347217
0.337419
0.327612
0.317799
0.30798
0.298156
0.288328
0.278496
0.268657
0.25881
0.248952
0.239076
0.229178
0.219247
0.209274
0.199242
0.189129
0.178911
0.168558
0.158024
0.14727
0.136227
0.1248
0.11286
0.100249
0.0866668
0.0714746
0.0525229
0.0233355
0.035494
0.0852473
0.117199
0.144104
0.168709
0.191823
0.213835
0.234981
0.255425
0.27529
0.294669
0.313636
0.332245
0.350539
0.368549
0.386299
0.403802
0.42107
0.438108
0.454917
0.471497
0.487844
0.503953
0.519818
0.535431
0.550785
0.56587
0.58068
0.595206
0.60944
0.623375
0.637003
0.650318
0.663313
0.675985
0.688327
0.700336
0.712009
0.723344
0.734337
0.744987
0.755295
0.76526
0.774882
0.784162
0.793101
0.801703
0.809967
0.817898
0.825498
0.83277
0.839718
0.846345
0.852655
0.858651
0.864337
0.869715
0.874791
0.879576
0.884075
0.888292
0.892232
0.895898
0.899297
0.902432
0.905309
0.907932
0.910305
0.912434
0.914322
0.915975
0.917396
0.918591
0.919562
0.920315
0.920854
0.921182
0.921304
0.921223
0.920943
0.920468
0.919801
0.918946
0.917907
0.916686
0.915287
0.913714
0.911969
0.910055
0.907976
0.905735
0.903333
0.900775
0.898062
0.895198
0.892184
0.889024
0.88572
0.882274
0.878689
0.874966
0.871108
0.867117
0.862995
0.858744
0.854365
0.849861
0.845234
0.840484
0.835614
0.830626
0.825519
0.820297
0.81496
0.80951
0.803947
0.798273
0.79249
0.786598
0.780598
0.774491
0.768278
0.76196
0.755538
0.749013
0.742385
0.735656
0.728825
0.721895
0.714865
0.707736
0.70051
0.693187
0.685767
0.678252
0.670643
0.66294
0.655145
0.647258
0.63928
0.631214
0.623059
0.614818
0.606491
0.59808
0.589587
0.581013
0.572361
0.563631
0.554825
0.545947
0.536997
0.527979
0.518894
0.509745
0.500535
0.491266
0.481941
0.472563
0.463135
0.453659
0.444139
0.434579
0.42498
0.415347
0.405683
0.395991
0.386273
0.376534
0.366776
0.357003
0.347215
0.337418
0.327611
0.317798
0.307979
0.298155
0.288327
0.278495
0.268656
0.25881
0.248951
0.239075
0.229177
0.219246
0.209273
0.199241
0.189128
0.178911
0.168557
0.158024
0.14727
0.136227
0.124801
0.112865
0.100267
0.0867336
0.0717513
0.0539595
0.0311695
0.0461137
0.107
0.14405
0.17445
0.202033
0.227957
0.252714
0.276567
0.299688
0.322198
0.344189
0.365731
0.386881
0.40768
0.428162
0.448349
0.468259
0.487903
0.507286
0.52641
0.545275
0.563877
0.582211
0.60027
0.618046
0.635531
0.652715
0.66959
0.686146
0.702375
0.718268
0.733817
0.749015
0.763854
0.77833
0.792435
0.806166
0.819519
0.83249
0.845077
0.857277
0.869091
0.880516
0.891554
0.902205
0.912471
0.922352
0.931852
0.940972
0.949717
0.958089
0.966091
0.973728
0.981004
0.987922
0.994487
1.0007
1.00658
1.01211
1.01732
1.0222
1.02677
1.03102
1.03496
1.03861
1.04195
1.045
1.04777
1.05025
1.05245
1.05439
1.05606
1.05746
1.05861
1.05951
1.06016
1.06056
1.06073
1.06066
1.06037
1.05985
1.0591
1.05814
1.05697
1.05559
1.054
1.05221
1.05022
1.04804
1.04566
1.0431
1.04035
1.03742
1.03431
1.03103
1.02758
1.02395
1.02016
1.01621
1.01209
1.00781
1.00338
0.998799
0.994064
0.989178
0.984146
0.97897
0.97365
0.968189
0.96259
0.956853
0.950981
0.944975
0.938836
0.932567
0.926169
0.919642
0.91299
0.906211
0.899309
0.892283
0.885136
0.877868
0.87048
0.862973
0.855349
0.847608
0.83975
0.831778
0.823692
0.815493
0.807181
0.798759
0.790226
0.781584
0.772834
0.763978
0.755015
0.745948
0.736777
0.727505
0.718133
0.708661
0.699092
0.689428
0.67967
0.66982
0.659881
0.649854
0.639741
0.629546
0.61927
0.608917
0.598488
0.587987
0.577417
0.566781
0.556082
0.545323
0.534508
0.523641
0.512724
0.501761
0.490756
0.479714
0.468636
0.457528
0.446392
0.435232
0.424052
0.412854
0.401642
0.390419
0.379186
0.367947
0.356701
0.345452
0.334198
0.322939
0.311675
0.300402
0.289118
0.277816
0.266491
0.255134
0.243731
0.23227
0.220728
0.209082
0.197302
0.185347
0.17317
0.160703
0.14785
0.134486
0.120405
0.105245
0.0881734
0.0665749
0.0294026
0.0461146
0.107003
0.144052
0.174451
0.202033
0.227957
0.252713
0.276567
0.299688
0.322198
0.344188
0.36573
0.38688
0.407679
0.428161
0.448348
0.468258
0.487901
0.507284
0.526409
0.545274
0.563876
0.58221
0.600268
0.618044
0.635529
0.652713
0.669588
0.686144
0.702373
0.718266
0.733815
0.749013
0.763852
0.778327
0.792433
0.806164
0.819517
0.832488
0.845074
0.857275
0.869088
0.880514
0.891552
0.902203
0.912468
0.92235
0.931849
0.94097
0.949714
0.958086
0.966089
0.973726
0.981001
0.987919
0.994484
1.0007
1.00657
1.01211
1.01732
1.0222
1.02677
1.03102
1.03496
1.0386
1.04195
1.045
1.04776
1.05025
1.05245
1.05439
1.05605
1.05746
1.05861
1.0595
1.06015
1.06056
1.06073
1.06066
1.06037
1.05984
1.0591
1.05814
1.05697
1.05558
1.054
1.05221
1.05022
1.04803
1.04566
1.04309
1.04035
1.03742
1.03431
1.03103
1.02757
1.02395
1.02016
1.0162
1.01209
1.00781
1.00338
0.998797
0.994061
0.989176
0.984144
0.978967
0.973648
0.968187
0.962588
0.956851
0.950979
0.944973
0.938834
0.932565
0.926167
0.91964
0.912988
0.906209
0.899307
0.892281
0.885134
0.877866
0.870478
0.862971
0.855347
0.847606
0.839748
0.831776
0.82369
0.815491
0.80718
0.798757
0.790224
0.781582
0.772833
0.763976
0.755013
0.745946
0.736776
0.727504
0.718131
0.708659
0.699091
0.689426
0.679668
0.669819
0.659879
0.649852
0.63974
0.629544
0.619269
0.608915
0.598487
0.587986
0.577416
0.56678
0.556081
0.545322
0.534507
0.523639
0.512722
0.50176
0.490755
0.479712
0.468635
0.457526
0.446391
0.435231
0.424051
0.412853
0.401641
0.390418
0.379185
0.367946
0.356701
0.345451
0.334197
0.322939
0.311674
0.300402
0.289117
0.277816
0.266491
0.255133
0.243731
0.232269
0.220727
0.209082
0.197301
0.185347
0.17317
0.160703
0.147851
0.134489
0.120415
0.105279
0.0882731
0.0668648
0.0297511
0.0554269
0.126807
0.168726
0.202348
0.232524
0.260774
0.287733
0.313721
0.338931
0.363492
0.387498
0.411021
0.434116
0.456827
0.479186
0.501218
0.522943
0.54437
0.565509
0.586361
0.606927
0.627203
0.647186
0.666869
0.686243
0.705301
0.724033
0.742431
0.760484
0.778185
0.795524
0.812493
0.829083
0.845289
0.861103
0.876519
0.891532
0.906138
0.920334
0.934115
0.947481
0.96043
0.97296
0.985072
0.996766
1.00804
1.01891
1.02935
1.03939
1.04902
1.05825
1.06707
1.0755
1.08353
1.09118
1.09844
1.10532
1.11183
1.11797
1.12375
1.12917
1.13425
1.13898
1.14337
1.14744
1.15117
1.15458
1.15768
1.16047
1.16295
1.16513
1.16702
1.16862
1.16993
1.17097
1.17174
1.17223
1.17246
1.17244
1.17215
1.17162
1.17085
1.16983
1.16858
1.1671
1.16538
1.16345
1.16129
1.15892
1.15633
1.15354
1.15054
1.14734
1.14395
1.14036
1.13657
1.1326
1.12845
1.12411
1.11959
1.1149
1.11003
1.105
1.09979
1.09442
1.08889
1.0832
1.07734
1.07133
1.06517
1.05885
1.05239
1.04577
1.03901
1.03211
1.02506
1.01786
1.01053
1.00306
0.995453
0.987708
0.979828
0.971814
0.963668
0.955391
0.946983
0.938446
0.92978
0.920988
0.91207
0.903027
0.89386
0.884571
0.87516
0.865629
0.855979
0.846211
0.836327
0.826327
0.816215
0.80599
0.795655
0.785211
0.774661
0.764006
0.753248
0.74239
0.731434
0.720381
0.709236
0.698
0.686676
0.675267
0.663776
0.652207
0.640562
0.628846
0.61706
0.605211
0.5933
0.581332
0.56931
0.557239
0.545123
0.532965
0.520769
0.50854
0.496281
0.483996
0.471689
0.459363
0.447021
0.434666
0.422301
0.409927
0.397548
0.385163
0.372773
0.360378
0.347977
0.335567
0.323145
0.310707
0.298244
0.28575
0.273212
0.260617
0.247945
0.235175
0.222275
0.20921
0.195928
0.182364
0.168418
0.153942
0.138686
0.122205
0.103449
0.0791917
0.0356064
0.0554291
0.126809
0.168727
0.202349
0.232524
0.260774
0.287732
0.31372
0.33893
0.363491
0.387497
0.41102
0.434115
0.456825
0.479184
0.501217
0.522941
0.544369
0.565507
0.586359
0.606925
0.627202
0.647185
0.666867
0.686241
0.705299
0.724031
0.742429
0.760482
0.778183
0.795522
0.812491
0.829081
0.845287
0.861101
0.876517
0.89153
0.906136
0.920332
0.934113
0.947479
0.960428
0.972958
0.98507
0.996764
1.00804
1.0189
1.02935
1.03939
1.04902
1.05824
1.06707
1.0755
1.08353
1.09118
1.09844
1.10532
1.11183
1.11797
1.12375
1.12917
1.13425
1.13898
1.14337
1.14743
1.15117
1.15458
1.15768
1.16046
1.16295
1.16513
1.16702
1.16862
1.16993
1.17097
1.17173
1.17223
1.17246
1.17243
1.17215
1.17162
1.17085
1.16983
1.16858
1.16709
1.16538
1.16344
1.16129
1.15892
1.15633
1.15354
1.15054
1.14734
1.14395
1.14035
1.13657
1.1326
1.12845
1.12411
1.11959
1.1149
1.11003
1.105
1.09979
1.09442
1.08889
1.08319
1.07734
1.07133
1.06517
1.05885
1.05239
1.04577
1.03901
1.0321
1.02505
1.01786
1.01053
1.00306
0.995451
0.987706
0.979826
0.971813
0.963667
0.955389
0.946981
0.938444
0.929779
0.920987
0.912069
0.903026
0.893859
0.88457
0.875159
0.865628
0.855978
0.84621
0.836325
0.826326
0.816213
0.805989
0.795654
0.78521
0.77466
0.764005
0.753247
0.742389
0.731432
0.72038
0.709234
0.697998
0.686674
0.675266
0.663775
0.652206
0.640561
0.628844
0.617059
0.60521
0.593299
0.581331
0.569309
0.557238
0.545122
0.532964
0.520768
0.508539
0.49628
0.483995
0.471688
0.459362
0.44702
0.434665
0.4223
0.409927
0.397547
0.385162
0.372773
0.360378
0.347976
0.335567
0.323145
0.310706
0.298244
0.28575
0.273212
0.260617
0.247945
0.235174
0.222275
0.209209
0.195928
0.182364
0.168418
0.153943
0.138689
0.122215
0.103474
0.0792435
0.0356264
0.0641851
0.145478
0.192191
0.228974
0.261627
0.292021
0.320944
0.348791
0.375788
0.40208
0.42777
0.452933
0.477627
0.501898
0.525779
0.549299
0.572476
0.595324
0.617852
0.640066
0.661965
0.68355
0.704815
0.725757
0.746367
0.766638
0.786562
0.806131
0.825335
0.844165
0.862613
0.880672
0.898332
0.915588
0.932431
0.948858
0.964861
0.980437
0.995582
1.01029
1.02457
1.0384
1.0518
1.06476
1.07727
1.08935
1.10099
1.1122
1.12297
1.13332
1.14323
1.15272
1.1618
1.17045
1.1787
1.18653
1.19397
1.20101
1.20765
1.21391
1.21979
1.2253
1.23045
1.23523
1.23966
1.24373
1.24746
1.25086
1.25392
1.25665
1.25906
1.26116
1.26295
1.26443
1.26561
1.26649
1.26709
1.2674
1.26743
1.26719
1.26668
1.2659
1.26487
1.26358
1.26203
1.26024
1.25821
1.25594
1.25344
1.2507
1.24775
1.24456
1.24116
1.23755
1.23372
1.22969
1.22546
1.22102
1.21638
1.21155
1.20653
1.20132
1.19593
1.19035
1.1846
1.17866
1.17255
1.16627
1.15982
1.1532
1.14642
1.13947
1.13237
1.1251
1.11767
1.11009
1.10236
1.09447
1.08643
1.07824
1.06991
1.06143
1.0528
1.04403
1.03511
1.02606
1.01687
1.00753
0.998063
0.988457
0.978715
0.968839
0.958831
0.948692
0.938423
0.928025
0.9175
0.90685
0.896076
0.885179
0.874162
0.863026
0.851773
0.840405
0.828925
0.817334
0.805636
0.793831
0.781924
0.769917
0.757813
0.745614
0.733325
0.720948
0.708486
0.695944
0.683325
0.670633
0.657871
0.645044
0.632155
0.619209
0.60621
0.593162
0.580069
0.566935
0.553765
0.540563
0.527331
0.514075
0.500798
0.487502
0.474192
0.460869
0.447535
0.434194
0.420845
0.407489
0.394127
0.380756
0.367376
0.353982
0.340571
0.327136
0.31367
0.300161
0.286596
0.272959
0.259227
0.245372
0.231356
0.217129
0.202619
0.187717
0.172256
0.155943
0.138228
0.117859
0.0910081
0.0412902
0.0641878
0.145481
0.192192
0.228974
0.261627
0.292021
0.320943
0.34879
0.375787
0.402079
0.427769
0.452932
0.477626
0.501896
0.525778
0.549297
0.572474
0.595322
0.617851
0.640064
0.661964
0.683548
0.704814
0.725755
0.746365
0.766636
0.786561
0.806129
0.825333
0.844163
0.862612
0.88067
0.89833
0.915586
0.93243
0.948856
0.964859
0.980435
0.99558
1.01029
1.02457
1.0384
1.0518
1.06475
1.07727
1.08935
1.10099
1.1122
1.12297
1.13331
1.14323
1.15272
1.16179
1.17045
1.17869
1.18653
1.19397
1.201
1.20765
1.21391
1.21979
1.2253
1.23045
1.23523
1.23965
1.24373
1.24746
1.25086
1.25392
1.25665
1.25906
1.26116
1.26294
1.26442
1.2656
1.26649
1.26709
1.2674
1.26743
1.26719
1.26668
1.2659
1.26486
1.26357
1.26203
1.26024
1.25821
1.25594
1.25344
1.2507
1.24774
1.24456
1.24116
1.23755
1.23372
1.22969
1.22545
1.22102
1.21638
1.21155
1.20653
1.20132
1.19593
1.19035
1.18459
1.17866
1.17255
1.16627
1.15982
1.1532
1.14642
1.13947
1.13236
1.1251
1.11767
1.11009
1.10235
1.09447
1.08643
1.07824
1.06991
1.06142
1.0528
1.04403
1.03511
1.02606
1.01687
1.00753
0.998062
0.988455
0.978714
0.968838
0.95883
0.948691
0.938422
0.928024
0.917499
0.906849
0.896075
0.885178
0.874161
0.863025
0.851772
0.840404
0.828924
0.817333
0.805634
0.79383
0.781923
0.769916
0.757812
0.745613
0.733324
0.720947
0.708486
0.695943
0.683324
0.670632
0.65787
0.645043
0.632154
0.619208
0.606209
0.593161
0.580068
0.566935
0.553765
0.540562
0.527331
0.514075
0.500797
0.487502
0.474191
0.460868
0.447535
0.434193
0.420844
0.407489
0.394126
0.380756
0.367375
0.353982
0.340571
0.327136
0.313669
0.30016
0.286596
0.272959
0.259227
0.245372
0.231356
0.217129
0.202619
0.187718
0.172257
0.155944
0.138231
0.117865
0.0910175
0.0412919
0.0726959
0.163516
0.214934
0.254862
0.289961
0.322429
0.353207
0.382769
0.411383
0.439217
0.466386
0.492973
0.519042
0.544642
0.569808
0.594573
0.618956
0.642975
0.66664
0.689959
0.712935
0.735568
0.757856
0.779796
0.801382
0.822608
0.843466
0.86395
0.88405
0.90376
0.923071
0.941976
0.960467
0.978538
0.996182
1.01339
1.03017
1.0465
1.06239
1.07783
1.09282
1.10735
1.12144
1.13507
1.14824
1.16096
1.17323
1.18504
1.19641
1.20734
1.21782
1.22786
1.23746
1.24663
1.25537
1.26369
1.27159
1.27908
1.28616
1.29283
1.29911
1.305
1.3105
1.31562
1.32037
1.32475
1.32877
1.33243
1.33574
1.33871
1.34134
1.34363
1.3456
1.34724
1.34856
1.34957
1.35028
1.35068
1.35079
1.35061
1.35014
1.34938
1.34836
1.34705
1.34549
1.34366
1.34157
1.33923
1.33663
1.3338
1.33072
1.32741
1.32386
1.32008
1.31608
1.31185
1.30741
1.30275
1.29788
1.29281
1.28753
1.28204
1.27636
1.27049
1.26442
1.25816
1.25171
1.24508
1.23827
1.23128
1.22411
1.21677
1.20925
1.20156
1.19371
1.18569
1.1775
1.16915
1.16063
1.15196
1.14313
1.13414
1.125
1.11571
1.10626
1.09666
1.08691
1.07701
1.06697
1.05678
1.04644
1.03597
1.02535
1.01459
1.00369
0.992661
0.981492
0.97019
0.958755
0.94719
0.935497
0.923677
0.911734
0.899668
0.887482
0.87518
0.862762
0.850233
0.837594
0.824849
0.812001
0.799053
0.786009
0.772871
0.759644
0.746332
0.732937
0.719465
0.705918
0.692302
0.67862
0.664877
0.651077
0.637225
0.623323
0.609378
0.595393
0.581371
0.567318
0.553236
0.539129
0.525001
0.510855
0.496693
0.482517
0.468329
0.454131
0.439923
0.425705
0.411476
0.397234
0.382976
0.368699
0.354397
0.340061
0.325684
0.311251
0.296747
0.282151
0.267433
0.252556
0.237465
0.222082
0.206286
0.189885
0.17254
0.153603
0.131628
0.102245
0.0466851
0.0726989
0.163519
0.214935
0.254862
0.28996
0.322428
0.353207
0.382768
0.411381
0.439215
0.466385
0.492972
0.519041
0.54464
0.569807
0.594571
0.618955
0.642973
0.666639
0.689958
0.712934
0.735567
0.757855
0.779795
0.801381
0.822606
0.843465
0.863948
0.884049
0.903758
0.923069
0.941974
0.960465
0.978536
0.99618
1.01339
1.03017
1.0465
1.06239
1.07783
1.09282
1.10735
1.12144
1.13506
1.14824
1.16096
1.17323
1.18504
1.19641
1.20733
1.21781
1.22785
1.23746
1.24663
1.25537
1.26369
1.27159
1.27908
1.28616
1.29283
1.29911
1.30499
1.3105
1.31562
1.32037
1.32475
1.32877
1.33243
1.33574
1.33871
1.34134
1.34363
1.34559
1.34724
1.34856
1.34957
1.35028
1.35068
1.35079
1.3506
1.35013
1.34938
1.34835
1.34705
1.34549
1.34366
1.34157
1.33923
1.33663
1.3338
1.33072
1.3274
1.32386
1.32008
1.31608
1.31185
1.30741
1.30275
1.29788
1.29281
1.28753
1.28204
1.27636
1.27049
1.26442
1.25816
1.25171
1.24508
1.23827
1.23128
1.22411
1.21677
1.20925
1.20156
1.19371
1.18568
1.1775
1.16915
1.16063
1.15196
1.14313
1.13414
1.125
1.1157
1.10626
1.09666
1.08691
1.07701
1.06697
1.05678
1.04644
1.03597
1.02535
1.01459
1.00369
0.99266
0.981491
0.970189
0.958754
0.947189
0.935496
0.923676
0.911733
0.899667
0.887481
0.875179
0.862761
0.850232
0.837593
0.824848
0.812
0.799052
0.786008
0.77287
0.759644
0.746331
0.732936
0.719464
0.705917
0.692301
0.67862
0.664877
0.651077
0.637224
0.623323
0.609377
0.595392
0.58137
0.567317
0.553235
0.539129
0.525001
0.510854
0.496692
0.482516
0.468329
0.454131
0.439923
0.425704
0.411475
0.397233
0.382976
0.368699
0.354396
0.340061
0.325684
0.311251
0.296747
0.282151
0.267433
0.252556
0.237465
0.222082
0.206286
0.189885
0.172541
0.153604
0.13163
0.102247
0.0466854
0.0809835
0.181168
0.237244
0.280316
0.317861
0.35238
0.384962
0.416161
0.44629
0.475547
0.504062
0.531929
0.559218
0.585983
0.612267
0.638102
0.663513
0.688519
0.713135
0.73737
0.76123
0.784717
0.807832
0.830574
0.852937
0.874919
0.896514
0.917715
0.938516
0.95891
0.978891
0.998451
1.01759
1.03629
1.05455
1.07237
1.08974
1.10666
1.12313
1.13914
1.15468
1.16977
1.18439
1.19855
1.21224
1.22547
1.23824
1.25055
1.2624
1.27379
1.28473
1.29522
1.30526
1.31486
1.32402
1.33274
1.34104
1.3489
1.35635
1.36338
1.36999
1.37621
1.38202
1.38745
1.39248
1.39714
1.40141
1.40532
1.40886
1.41204
1.41487
1.41735
1.41949
1.42129
1.42275
1.42389
1.42471
1.42522
1.42541
1.4253
1.42488
1.42417
1.42317
1.42189
1.42032
1.41848
1.41636
1.41398
1.41133
1.40843
1.40527
1.40186
1.39821
1.39431
1.39017
1.3858
1.3812
1.37638
1.37133
1.36606
1.36057
1.35487
1.34896
1.34284
1.33652
1.33
1.32327
1.31636
1.30925
1.30195
1.29446
1.28679
1.27893
1.27089
1.26268
1.25428
1.24572
1.23698
1.22806
1.21898
1.20973
1.20032
1.19074
1.18099
1.17109
1.16103
1.1508
1.14042
1.12989
1.1192
1.10836
1.09737
1.08623
1.07494
1.0635
1.05192
1.0402
1.02833
1.01633
1.00419
0.99191
0.9795
0.966959
0.954289
0.941493
0.928574
0.915533
0.902375
0.889101
0.875716
0.862222
0.848622
0.834921
0.821122
0.807228
0.793243
0.779172
0.765018
0.750786
0.736479
0.722103
0.707661
0.693158
0.678597
0.663984
0.649323
0.634617
0.619871
0.605089
0.590274
0.575429
0.560559
0.545666
0.530752
0.51582
0.500871
0.485907
0.470928
0.455934
0.440924
0.425898
0.410851
0.395782
0.380683
0.365549
0.35037
0.335135
0.319827
0.304424
0.288898
0.273208
0.257295
0.241071
0.224402
0.20707
0.18869
0.168527
0.144932
0.113026
0.0518381
0.0809867
0.18117
0.237245
0.280316
0.31786
0.352379
0.384961
0.41616
0.446289
0.475546
0.50406
0.531927
0.559216
0.585982
0.612266
0.6381
0.663511
0.688518
0.713134
0.737369
0.761229
0.784716
0.807831
0.830572
0.852936
0.874918
0.896512
0.917713
0.938514
0.958909
0.978889
0.99845
1.01758
1.03628
1.05455
1.07237
1.08974
1.10666
1.12313
1.13913
1.15468
1.16977
1.18439
1.19854
1.21224
1.22547
1.23824
1.25055
1.2624
1.27379
1.28473
1.29522
1.30526
1.31486
1.32402
1.33274
1.34103
1.3489
1.35635
1.36337
1.36999
1.37621
1.38202
1.38744
1.39248
1.39713
1.40141
1.40532
1.40886
1.41204
1.41487
1.41735
1.41949
1.42128
1.42275
1.42389
1.42471
1.42522
1.42541
1.4253
1.42488
1.42417
1.42317
1.42189
1.42032
1.41848
1.41636
1.41398
1.41133
1.40843
1.40527
1.40186
1.39821
1.39431
1.39017
1.3858
1.3812
1.37638
1.37133
1.36605
1.36057
1.35487
1.34896
1.34284
1.33652
1.32999
1.32327
1.31636
1.30925
1.30195
1.29446
1.28679
1.27893
1.27089
1.26268
1.25428
1.24572
1.23697
1.22806
1.21898
1.20973
1.20032
1.19074
1.18099
1.17109
1.16103
1.1508
1.14042
1.12989
1.1192
1.10836
1.09737
1.08623
1.07494
1.0635
1.05192
1.0402
1.02833
1.01633
1.00419
0.991909
0.979499
0.966958
0.954288
0.941492
0.928573
0.915533
0.902374
0.889101
0.875715
0.862221
0.848622
0.83492
0.821121
0.807227
0.793242
0.779171
0.765017
0.750785
0.736479
0.722102
0.70766
0.693157
0.678597
0.663984
0.649322
0.634617
0.619871
0.605088
0.590273
0.575429
0.560559
0.545665
0.530752
0.515819
0.500871
0.485906
0.470927
0.455933
0.440924
0.425897
0.410851
0.395781
0.380683
0.365549
0.35037
0.335135
0.319827
0.304424
0.288898
0.273208
0.257295
0.241071
0.224403
0.20707
0.18869
0.168527
0.144933
0.113027
0.0518382
0.0891485
0.198595
0.25931
0.30554
0.345542
0.382111
0.416474
0.449266
0.480849
0.51145
0.541218
0.570262
0.59866
0.626473
0.653748
0.680522
0.706826
0.732681
0.758104
0.783109
0.807703
0.831893
0.855681
0.879069
0.902054
0.924635
0.946808
0.968569
0.989913
1.01083
1.03133
1.05139
1.07101
1.09019
1.10893
1.12721
1.14503
1.1624
1.17931
1.19575
1.21172
1.22723
1.24226
1.25683
1.27093
1.28456
1.29773
1.31042
1.32265
1.33442
1.34573
1.35659
1.36698
1.37693
1.38643
1.39549
1.40411
1.4123
1.42005
1.42738
1.43429
1.44079
1.44688
1.45256
1.45785
1.46274
1.46725
1.47138
1.47513
1.47851
1.48152
1.48418
1.48648
1.48843
1.49003
1.4913
1.49224
1.49285
1.49313
1.4931
1.49275
1.4921
1.49114
1.48989
1.48834
1.48651
1.48439
1.48199
1.47932
1.47637
1.47316
1.46969
1.46596
1.46198
1.45775
1.45327
1.44855
1.4436
1.43841
1.43299
1.42734
1.42146
1.41537
1.40906
1.40253
1.3958
1.38885
1.3817
1.37435
1.36679
1.35904
1.3511
1.34296
1.33463
1.32611
1.31741
1.30852
1.29945
1.2902
1.28077
1.27117
1.26139
1.25144
1.24131
1.23102
1.22056
1.20993
1.19914
1.18818
1.17707
1.16579
1.15435
1.14276
1.13101
1.11911
1.10706
1.09485
1.0825
1.07001
1.05736
1.04458
1.03166
1.0186
1.0054
0.992074
0.978617
0.965033
0.951326
0.937498
0.923552
0.909493
0.895322
0.881045
0.866665
0.852185
0.837609
0.822942
0.808188
0.793351
0.778434
0.763443
0.748381
0.733253
0.718064
0.702817
0.687516
0.672166
0.656771
0.641334
0.625858
0.610348
0.594806
0.579235
0.563638
0.548016
0.53237
0.516703
0.501015
0.485306
0.469574
0.45382
0.438039
0.42223
0.406386
0.390501
0.374568
0.358572
0.342499
0.326326
0.310023
0.293544