/*--------------------------------*- C++ -*----------------------------------*\
  =========                 |
  \\      /  F ield         | OpenFOAM: The Open Source CFD Toolbox
   \\    /   O peration     | Website:  https://openfoam.org
    \\  /    A nd           | Version:  8
     \\/     M anipulation  |
\*---------------------------------------------------------------------------*/
FoamFile
{
    version     2.0;
    format      ascii;
    class       volScalarField;
    location    "1400";
    object      nut;
}
// * * * * * * * * * * * * * * * * * * * * * * * * * * * * * * * * * * * * * //

dimensions      [0 2 -1 0 0 0 0];

internalField   nonuniform List<scalar> 
48000
(
0.000145098
4.49907e-05
6.07181e-05
7.06328e-05
7.79832e-05
8.40195e-05
8.93252e-05
9.40734e-05
9.8388e-05
0.000102375
0.000106095
0.000109596
0.000112912
0.000116066
0.000119081
0.000121971
0.000124748
0.000127421
0.00013
0.000132489
0.000134895
0.000137221
0.000139471
0.000141648
0.000143755
0.000145793
0.000147765
0.000149673
0.000151518
0.000153301
0.000155025
0.000156689
0.000158296
0.000159847
0.000161343
0.000162785
0.000164174
0.000165511
0.000166798
0.000168035
0.000169223
0.000170365
0.00017146
0.00017251
0.000173515
0.000174477
0.000175398
0.000176277
0.000177115
0.000177915
0.000178676
0.0001794
0.000180087
0.000180739
0.000181355
0.000181936
0.000182488
0.00018301
0.0001835
0.00018396
0.00018439
0.00018479
0.000185162
0.000185506
0.000185822
0.000186112
0.000186376
0.000186614
0.000186827
0.000187016
0.000187181
0.000187322
0.000187441
0.000187538
0.000187612
0.000187665
0.000187696
0.000187707
0.000187698
0.000187669
0.00018762
0.000187552
0.000187465
0.000187359
0.000187235
0.000187093
0.000186933
0.000186756
0.000186562
0.00018635
0.000186122
0.000185877
0.000185616
0.000185339
0.000185046
0.000184737
0.000184412
0.000184072
0.000183717
0.000183347
0.000182962
0.000182561
0.000182146
0.000181717
0.000181272
0.000180814
0.00018034
0.000179853
0.000179351
0.000178835
0.000178304
0.00017776
0.000177201
0.000176628
0.000176041
0.000175439
0.000174824
0.000174194
0.000173549
0.000172891
0.000172217
0.00017153
0.000170827
0.00017011
0.000169378
0.000168631
0.000167869
0.000167092
0.0001663
0.000165492
0.000164668
0.000163829
0.000162973
0.000162102
0.000161214
0.00016031
0.000159389
0.000158452
0.000157497
0.000156525
0.000155536
0.000154529
0.000153505
0.000152462
0.000151401
0.000150322
0.000149224
0.000148107
0.000146972
0.000145817
0.000144642
0.000143448
0.000142234
0.000141
0.000139745
0.00013847
0.000137174
0.000135857
0.000134519
0.000133159
0.000131778
0.000130374
0.000128949
0.0001275
0.000126029
0.000124535
0.000123017
0.000121475
0.000119909
0.000118318
0.000116701
0.000115058
0.000113389
0.000111692
0.000109966
0.000108211
0.000106425
0.000104606
0.000102754
0.000100865
9.89368e-05
9.69673e-05
9.49527e-05
9.28895e-05
9.07759e-05
8.86086e-05
8.63999e-05
8.41118e-05
8.17251e-05
7.92228e-05
7.6578e-05
7.3756e-05
7.07083e-05
6.73829e-05
6.37229e-05
5.95182e-05
5.44228e-05
4.71696e-05
3.77273e-05
0.000147578
0.000144755
4.49843e-05
6.06873e-05
7.06248e-05
7.79829e-05
8.40205e-05
8.93263e-05
9.40745e-05
9.83891e-05
0.000102376
0.000106096
0.000109597
0.000112912
0.000116067
0.000119082
0.000121971
0.000124748
0.000127422
0.00013
0.00013249
0.000134896
0.000137222
0.000139472
0.000141649
0.000143755
0.000145793
0.000147766
0.000149673
0.000151518
0.000153301
0.000155025
0.000156689
0.000158297
0.000159847
0.000161343
0.000162785
0.000164174
0.000165511
0.000166798
0.000168035
0.000169223
0.000170365
0.00017146
0.000172509
0.000173515
0.000174477
0.000175398
0.000176276
0.000177115
0.000177915
0.000178676
0.0001794
0.000180087
0.000180738
0.000181355
0.000181936
0.000182488
0.00018301
0.0001835
0.00018396
0.00018439
0.00018479
0.000185162
0.000185506
0.000185822
0.000186112
0.000186376
0.000186614
0.000186827
0.000187016
0.000187181
0.000187322
0.000187441
0.000187537
0.000187612
0.000187665
0.000187696
0.000187707
0.000187698
0.000187669
0.00018762
0.000187552
0.000187465
0.000187359
0.000187235
0.000187093
0.000186933
0.000186756
0.000186562
0.00018635
0.000186122
0.000185877
0.000185616
0.000185339
0.000185046
0.000184737
0.000184412
0.000184072
0.000183717
0.000183347
0.000182961
0.000182561
0.000182146
0.000181716
0.000181272
0.000180813
0.00018034
0.000179853
0.000179351
0.000178835
0.000178304
0.00017776
0.000177201
0.000176628
0.000176041
0.000175439
0.000174824
0.000174194
0.000173549
0.00017289
0.000172217
0.00017153
0.000170827
0.00017011
0.000169378
0.000168631
0.000167869
0.000167092
0.000166299
0.000165491
0.000164668
0.000163829
0.000162973
0.000162102
0.000161214
0.00016031
0.000159389
0.000158452
0.000157497
0.000156525
0.000155536
0.000154529
0.000153505
0.000152462
0.000151401
0.000150322
0.000149224
0.000148107
0.000146971
0.000145816
0.000144642
0.000143448
0.000142234
0.000140999
0.000139745
0.00013847
0.000137174
0.000135857
0.000134519
0.000133159
0.000131778
0.000130374
0.000128949
0.0001275
0.000126029
0.000124535
0.000123017
0.000121475
0.000119909
0.000118318
0.000116701
0.000115058
0.000113389
0.000111692
0.000109966
0.000108211
0.000106425
0.000104606
0.000102754
0.000100865
9.89368e-05
9.69673e-05
9.49527e-05
9.28895e-05
9.0776e-05
8.86087e-05
8.63999e-05
8.41119e-05
8.17252e-05
7.92229e-05
7.65781e-05
7.37561e-05
7.07084e-05
6.73831e-05
6.37237e-05
5.95247e-05
5.44677e-05
4.73731e-05
3.8178e-05
0.000149162
3.07417e-05
0.000293725
0.000505198
0.00064083
0.000740389
0.000820817
0.000888899
0.000948458
0.0010017
0.00104999
0.00109431
0.00113537
0.0011737
0.00120969
0.00124367
0.00127587
0.0013065
0.00133571
0.00136363
0.00139038
0.00141603
0.00144066
0.00146434
0.00148713
0.00150906
0.00153019
0.00155054
0.00157015
0.00158905
0.00160726
0.00162482
0.00164174
0.00165804
0.00167374
0.00168887
0.00170343
0.00171746
0.00173095
0.00174393
0.00175642
0.00176842
0.00177995
0.00179102
0.00180165
0.00181184
0.00182161
0.00183098
0.00183994
0.00184852
0.00185672
0.00186454
0.00187201
0.00187912
0.00188588
0.0018923
0.00189835
0.00190395
0.00190921
0.00191416
0.00191883
0.00192322
0.00192733
0.00193118
0.00193477
0.00193811
0.00194119
0.00194403
0.00194663
0.00194899
0.00195112
0.00195302
0.0019547
0.00195615
0.00195739
0.00195842
0.00195923
0.00195984
0.00196024
0.00196045
0.00196045
0.00196026
0.00195987
0.0019593
0.00195854
0.00195759
0.00195646
0.00195515
0.00195366
0.00195199
0.00195014
0.00194813
0.00194594
0.00194358
0.00194106
0.00193836
0.00193551
0.00193249
0.0019293
0.00192596
0.00192246
0.00191879
0.00191497
0.001911
0.00190686
0.00190258
0.00189813
0.00189353
0.00188878
0.00188388
0.00187882
0.00187361
0.00186825
0.00186273
0.00185706
0.00185124
0.00184526
0.00183913
0.00183284
0.0018264
0.0018198
0.00181305
0.00180614
0.00179906
0.00179183
0.00178444
0.00177689
0.00176917
0.00176129
0.00175325
0.00174503
0.00173665
0.00172809
0.00171936
0.00171046
0.00170139
0.00169213
0.0016827
0.00167308
0.00166328
0.0016533
0.00164313
0.00163277
0.00162222
0.00161148
0.00160054
0.0015894
0.00157807
0.00156653
0.0015548
0.00154285
0.0015307
0.00151834
0.00150576
0.00149298
0.00147997
0.00146675
0.0014533
0.00143964
0.00142574
0.00141162
0.00139726
0.00138267
0.00136784
0.00135277
0.00133746
0.00132189
0.00130607
0.00128999
0.00127364
0.00125702
0.00124013
0.00122294
0.00120546
0.00118766
0.00116955
0.0011511
0.00113229
0.00111311
0.00109353
0.00107351
0.00105303
0.00103203
0.00101046
0.00098824
0.000965258
0.000941364
0.000916349
0.000890178
0.000862708
0.000833693
0.000802752
0.000769332
0.000732498
0.000690459
0.00064082
0.000580992
0.000504529
0.000398124
0.000245312
0.000175001
3.0744e-05
0.000293776
0.000505276
0.000640865
0.000740437
0.000820874
0.000888959
0.000948517
0.00100175
0.00105005
0.00109437
0.00113542
0.00117375
0.00120974
0.00124372
0.00127592
0.00130655
0.00133576
0.00136368
0.00139042
0.00141607
0.0014407
0.00146438
0.00148717
0.0015091
0.00153022
0.00155057
0.00157018
0.00158908
0.0016073
0.00162485
0.00164177
0.00165807
0.00167377
0.0016889
0.00170346
0.00171748
0.00173098
0.00174396
0.00175644
0.00176844
0.00177997
0.00179104
0.00180167
0.00181186
0.00182164
0.001831
0.00183996
0.00184854
0.00185674
0.00186456
0.00187203
0.00187914
0.0018859
0.00189232
0.00189837
0.00190397
0.00190922
0.00191418
0.00191885
0.00192324
0.00192735
0.0019312
0.00193479
0.00193812
0.00194121
0.00194405
0.00194664
0.001949
0.00195113
0.00195303
0.00195471
0.00195617
0.00195741
0.00195843
0.00195925
0.00195985
0.00196026
0.00196046
0.00196046
0.00196027
0.00195989
0.00195931
0.00195855
0.0019576
0.00195647
0.00195516
0.00195367
0.001952
0.00195016
0.00194814
0.00194595
0.00194359
0.00194107
0.00193838
0.00193552
0.0019325
0.00192932
0.00192597
0.00192247
0.00191881
0.00191499
0.00191101
0.00190688
0.00190259
0.00189814
0.00189355
0.00188879
0.00188389
0.00187883
0.00187362
0.00186826
0.00186274
0.00185707
0.00185125
0.00184527
0.00183914
0.00183285
0.00182641
0.00181981
0.00181306
0.00180615
0.00179908
0.00179185
0.00178445
0.0017769
0.00176918
0.0017613
0.00175326
0.00174504
0.00173666
0.0017281
0.00171937
0.00171047
0.0017014
0.00169214
0.00168271
0.00167309
0.00166329
0.00165331
0.00164314
0.00163278
0.00162223
0.00161149
0.00160055
0.00158941
0.00157808
0.00156654
0.0015548
0.00154286
0.00153071
0.00151835
0.00150577
0.00149299
0.00147998
0.00146676
0.00145331
0.00143965
0.00142575
0.00141163
0.00139727
0.00138268
0.00136785
0.00135278
0.00133746
0.0013219
0.00130608
0.00129
0.00127365
0.00125703
0.00124013
0.00122295
0.00120547
0.00118767
0.00116956
0.00115111
0.0011323
0.00111312
0.00109353
0.00107352
0.00105304
0.00103204
0.00101047
0.000988249
0.000965267
0.000941373
0.000916358
0.000890187
0.000862717
0.000833702
0.00080276
0.00076934
0.000732508
0.00069048
0.000640905
0.000581396
0.000506336
0.0004049
0.000261225
0.00019081
5.20788e-05
0.000478752
0.000864809
0.00115582
0.00138596
0.00157634
0.001739
0.00188129
0.00200797
0.00212226
0.00222649
0.00232235
0.00241114
0.00249386
0.00257132
0.00264415
0.00271287
0.00277791
0.00283961
0.00289829
0.00295418
0.00300751
0.00305846
0.00310718
0.00315383
0.00319852
0.00324135
0.00328245
0.00332188
0.00335973
0.00339608
0.00343098
0.00346452
0.00349673
0.00352769
0.00355743
0.003586
0.00361346
0.00363984
0.00366517
0.00368951
0.00371288
0.00373532
0.00375685
0.00377751
0.00379733
0.00381633
0.00383454
0.00385198
0.00386867
0.00388464
0.0038999
0.00391447
0.00392835
0.00394156
0.00395409
0.0039659
0.00397699
0.00398748
0.00399741
0.00400679
0.00401563
0.00402394
0.00403174
0.00403904
0.00404585
0.00405217
0.00405802
0.00406341
0.00406833
0.0040728
0.00407682
0.00408041
0.00408356
0.00408629
0.0040886
0.00409049
0.00409197
0.00409304
0.00409372
0.004094
0.00409389
0.00409339
0.00409252
0.00409126
0.00408963
0.00408763
0.00408526
0.00408254
0.00407945
0.004076
0.00407221
0.00406806
0.00406357
0.00405873
0.00405355
0.00404803
0.00404217
0.00403598
0.00402946
0.00402261
0.00401542
0.00400791
0.00400008
0.00399192
0.00398343
0.00397462
0.00396549
0.00395604
0.00394627
0.00393617
0.00392576
0.00391502
0.00390396
0.00389257
0.00388086
0.00386883
0.00385647
0.00384379
0.00383077
0.00381742
0.00380374
0.00378973
0.00377538
0.00376068
0.00374565
0.00373027
0.00371454
0.00369846
0.00368202
0.00366523
0.00364807
0.00363055
0.00361266
0.0035944
0.00357576
0.00355674
0.00353733
0.00351754
0.00349735
0.00347676
0.00345577
0.00343437
0.00341257
0.00339034
0.00336769
0.00334462
0.00332111
0.00329717
0.00327278
0.00324794
0.00322265
0.0031969
0.00317069
0.00314399
0.00311682
0.00308916
0.00306101
0.00303235
0.00300318
0.00297349
0.00294326
0.0029125
0.00288117
0.00284928
0.00281681
0.00278374
0.00275005
0.00271572
0.00268073
0.00264506
0.00260868
0.00257154
0.00253363
0.00249489
0.00245527
0.00241472
0.00237316
0.00233052
0.00228671
0.00224161
0.00219509
0.00214696
0.00209703
0.00204501
0.00199057
0.00193332
0.00187283
0.00180852
0.00173956
0.00166479
0.00158262
0.00149068
0.00138539
0.00126146
0.00111213
0.000925158
0.000679236
0.000343815
3.20737e-05
5.20555e-05
0.000478801
0.000864874
0.00115589
0.00138607
0.00157647
0.00173913
0.00188142
0.0020081
0.00212239
0.00222662
0.00232247
0.00241126
0.00249398
0.00257143
0.00264426
0.00271297
0.002778
0.00283971
0.00289838
0.00295427
0.00300759
0.00305854
0.00310726
0.0031539
0.00319858
0.00324142
0.00328251
0.00332193
0.00335978
0.00339613
0.00343103
0.00346456
0.00349678
0.00352773
0.00355747
0.00358604
0.00361349
0.00363987
0.0036652
0.00368954
0.00371291
0.00373534
0.00375687
0.00377753
0.00379735
0.00381635
0.00383456
0.003852
0.00386869
0.00388465
0.00389991
0.00391448
0.00392836
0.00394157
0.0039541
0.00396591
0.003977
0.00398749
0.00399742
0.00400679
0.00401563
0.00402395
0.00403175
0.00403905
0.00404585
0.00405218
0.00405803
0.00406341
0.00406833
0.0040728
0.00407682
0.00408041
0.00408356
0.00408629
0.0040886
0.00409049
0.00409197
0.00409304
0.00409372
0.004094
0.00409389
0.00409339
0.00409252
0.00409126
0.00408963
0.00408763
0.00408526
0.00408253
0.00407945
0.004076
0.0040722
0.00406806
0.00406356
0.00405872
0.00405354
0.00404803
0.00404217
0.00403598
0.00402946
0.0040226
0.00401542
0.00400791
0.00400007
0.00399191
0.00398343
0.00397462
0.00396549
0.00395604
0.00394626
0.00393617
0.00392575
0.00391501
0.00390395
0.00389257
0.00388086
0.00386883
0.00385647
0.00384378
0.00383077
0.00381742
0.00380374
0.00378972
0.00377537
0.00376068
0.00374564
0.00373026
0.00371453
0.00369845
0.00368201
0.00366522
0.00364806
0.00363054
0.00361265
0.00359439
0.00357575
0.00355673
0.00353732
0.00351753
0.00349734
0.00347675
0.00345576
0.00343437
0.00341256
0.00339033
0.00336769
0.00334461
0.0033211
0.00329716
0.00327277
0.00324794
0.00322265
0.0031969
0.00317068
0.00314399
0.00311682
0.00308916
0.003061
0.00303234
0.00300317
0.00297348
0.00294326
0.00291249
0.00288117
0.00284928
0.0028168
0.00278373
0.00275004
0.00271571
0.00268073
0.00264506
0.00260867
0.00257154
0.00253362
0.00249488
0.00245526
0.00241471
0.00237316
0.00233052
0.00228671
0.00224161
0.00219508
0.00214696
0.00209702
0.00204501
0.00199057
0.00193331
0.00187282
0.00180852
0.00173955
0.00166478
0.00158262
0.00149068
0.00138541
0.00126162
0.00111306
0.000930165
0.000703329
0.000438005
0.000290795
6.026e-05
0.000579525
0.00110468
0.0015289
0.00187791
0.00217305
0.00242844
0.00265349
0.00285466
0.00303657
0.00320257
0.00335521
0.00349644
0.00362782
0.00375058
0.00386573
0.00397407
0.00407631
0.00417302
0.00426469
0.00435173
0.00443451
0.00451334
0.00458849
0.00466021
0.00472871
0.00479418
0.0048568
0.00491672
0.0049741
0.00502905
0.00508171
0.00513217
0.00518056
0.00522695
0.00527145
0.00531414
0.00535509
0.00539438
0.00543208
0.00546826
0.00550296
0.00553626
0.00556821
0.00559885
0.00562824
0.00565641
0.00568342
0.00570929
0.00573407
0.00575778
0.00578047
0.00580215
0.00582284
0.00584257
0.00586133
0.00587913
0.00589596
0.00591189
0.005927
0.00594131
0.00595485
0.00596762
0.00597966
0.00599097
0.00600156
0.00601146
0.00602067
0.00602921
0.00603708
0.0060443
0.00605088
0.00605682
0.00606213
0.00606683
0.00607091
0.0060744
0.00607729
0.00607959
0.0060813
0.00608245
0.00608302
0.00608303
0.00608248
0.00608138
0.00607973
0.00607755
0.00607482
0.00607157
0.00606778
0.00606348
0.00605865
0.00605331
0.00604746
0.00604111
0.00603425
0.00602689
0.00601903
0.00601068
0.00600184
0.00599251
0.00598269
0.00597239
0.0059616
0.00595034
0.00593859
0.00592637
0.00591366
0.00590048
0.00588682
0.00587269
0.00585807
0.00584298
0.00582741
0.00581136
0.00579482
0.0057778
0.0057603
0.0057423
0.00572382
0.00570484
0.00568537
0.00566539
0.00564491
0.00562392
0.00560242
0.00558041
0.00555787
0.00553481
0.00551121
0.00548708
0.00546241
0.00543719
0.00541141
0.00538507
0.00535817
0.0053307
0.00530264
0.005274
0.00524477
0.00521493
0.00518449
0.00515343
0.00512174
0.00508942
0.00505646
0.00502286
0.00498859
0.00495365
0.00491803
0.00488173
0.00484472
0.00480701
0.00476857
0.0047294
0.00468948
0.00464879
0.00460733
0.00456508
0.00452202
0.00447812
0.00443338
0.00438776
0.00434125
0.00429382
0.00424544
0.00419607
0.00414568
0.00409424
0.00404168
0.00398798
0.00393306
0.00387687
0.00381934
0.00376037
0.00369987
0.00363774
0.00357384
0.00350802
0.00344011
0.0033699
0.00329713
0.00322149
0.0031426
0.00306002
0.00297316
0.00288135
0.00278374
0.00267924
0.00256641
0.00244332
0.00230736
0.00215493
0.00198105
0.00177896
0.00153945
0.00124963
0.000892059
0.000455546
4.74011e-05
6.02552e-05
0.000579563
0.00110476
0.00152903
0.00187807
0.00217323
0.00242863
0.00265368
0.00285486
0.00303676
0.00320276
0.00335539
0.00349662
0.003628
0.00375075
0.00386588
0.00397423
0.00407646
0.00417316
0.00426482
0.00435186
0.00443463
0.00451346
0.0045886
0.00466031
0.0047288
0.00479427
0.00485689
0.00491681
0.00497417
0.00502912
0.00508177
0.00513224
0.00518062
0.00522701
0.0052715
0.00531419
0.00535513
0.00539442
0.00543212
0.00546829
0.00550299
0.00553629
0.00556823
0.00559887
0.00562826
0.00565643
0.00568343
0.0057093
0.00573408
0.00575779
0.00578048
0.00580215
0.00582285
0.00584257
0.00586133
0.00587913
0.00589596
0.00591189
0.005927
0.00594131
0.00595484
0.00596762
0.00597965
0.00599096
0.00600156
0.00601145
0.00602066
0.0060292
0.00603707
0.00604429
0.00605087
0.00605681
0.00606212
0.00606682
0.0060709
0.00607439
0.00607727
0.00607957
0.00608129
0.00608243
0.006083
0.00608301
0.00608247
0.00608137
0.00607972
0.00607753
0.00607481
0.00607155
0.00606777
0.00606346
0.00605864
0.0060533
0.00604745
0.00604109
0.00603423
0.00602687
0.00601901
0.00601066
0.00600182
0.00599249
0.00598267
0.00597237
0.00596159
0.00595032
0.00593857
0.00592635
0.00591365
0.00590046
0.00588681
0.00587267
0.00585806
0.00584296
0.00582739
0.00581134
0.0057948
0.00577778
0.00576028
0.00574228
0.0057238
0.00570482
0.00568535
0.00566537
0.00564489
0.0056239
0.0056024
0.00558039
0.00555785
0.00553479
0.00551119
0.00548706
0.00546239
0.00543716
0.00541139
0.00538505
0.00535815
0.00533068
0.00530262
0.00527398
0.00524475
0.00521491
0.00518447
0.00515341
0.00512172
0.0050894
0.00505644
0.00502283
0.00498856
0.00495363
0.00491801
0.00488171
0.0048447
0.00480699
0.00476855
0.00472938
0.00468946
0.00464877
0.00460731
0.00456506
0.00452199
0.0044781
0.00443336
0.00438774
0.00434123
0.0042938
0.00424542
0.00419605
0.00414566
0.00409421
0.00404166
0.00398796
0.00393304
0.00387685
0.00381932
0.00376035
0.00369985
0.00363772
0.00357382
0.003508
0.0034401
0.00336988
0.00329711
0.00322147
0.00314259
0.00306
0.00297315
0.00288133
0.00278372
0.00267923
0.0025664
0.00244331
0.00230735
0.00215492
0.00198104
0.00177896
0.00153958
0.00125057
0.000896549
0.000468393
4.92627e-05
6.61945e-05
0.00064974
0.00127861
0.00180958
0.0022584
0.00264463
0.00298279
0.00328322
0.00355336
0.00379867
0.00402324
0.00423022
0.00442204
0.00460067
0.00476768
0.00492436
0.00507176
0.0052108
0.00534223
0.00546669
0.00558475
0.00569689
0.00580354
0.00590507
0.00600182
0.00609408
0.00618213
0.00626621
0.00634654
0.00642333
0.00649676
0.00656702
0.00663425
0.00669862
0.00676025
0.00681928
0.00687583
0.00693002
0.00698196
0.00703173
0.00707945
0.00712519
0.00716904
0.00721108
0.00725138
0.00729002
0.00732704
0.00736252
0.0073965
0.00742905
0.00746021
0.00749002
0.00751851
0.00754573
0.00757171
0.00759646
0.00762
0.00764235
0.00766353
0.00768364
0.00770273
0.00772081
0.00773791
0.00775406
0.00776927
0.00778356
0.00779696
0.00780948
0.00782113
0.00783193
0.00784188
0.00785102
0.00785934
0.00786686
0.00787358
0.00787952
0.00788469
0.0078891
0.00789275
0.00789566
0.00789783
0.00789927
0.00789998
0.00789998
0.00789927
0.00789786
0.00789576
0.00789296
0.00788948
0.00788532
0.00788049
0.00787499
0.00786883
0.00786201
0.00785454
0.00784642
0.00783766
0.00782825
0.00781821
0.00780753
0.00779623
0.00778429
0.00777173
0.00775854
0.00774474
0.00773031
0.00771526
0.00769959
0.00768331
0.00766641
0.00764889
0.00763075
0.00761199
0.0075926
0.0075726
0.00755197
0.00753071
0.00750882
0.0074863
0.00746314
0.00743933
0.00741489
0.00738979
0.00736403
0.00733762
0.00731053
0.00728278
0.00725434
0.00722522
0.0071954
0.00716489
0.00713367
0.00710172
0.00706906
0.00703566
0.00700152
0.00696663
0.00693098
0.00689455
0.00685735
0.00681935
0.00678055
0.00674093
0.00670049
0.00665922
0.00661709
0.0065741
0.00653023
0.00648546
0.0064398
0.00639321
0.00634568
0.00629719
0.00624773
0.00619728
0.00614582
0.00609331
0.00603975
0.00598511
0.00592935
0.00587245
0.00581437
0.00575509
0.00569456
0.00563274
0.00556958
0.00550504
0.00543906
0.00537158
0.00530252
0.0052318
0.00515935
0.00508506
0.00500881
0.00493048
0.00484993
0.00476698
0.00468144
0.00459308
0.00450163
0.00440678
0.00430815
0.00420529
0.00409764
0.00398456
0.00386522
0.00373865
0.0036036
0.00345852
0.0033014
0.00312967
0.00293994
0.00272778
0.00248737
0.00221108
0.00188895
0.00150879
0.00105632
0.000526999
5.29592e-05
6.61953e-05
0.000649787
0.00127872
0.00180974
0.0022586
0.00264485
0.00298302
0.00328346
0.0035536
0.00379891
0.00402348
0.00423045
0.00442227
0.0046009
0.0047679
0.00492456
0.00507196
0.00521099
0.00534241
0.00546687
0.00558492
0.00569705
0.00580369
0.00590522
0.00600195
0.00609421
0.00618225
0.00626632
0.00634665
0.00642343
0.00649686
0.00656711
0.00663434
0.00669869
0.00676032
0.00681935
0.0068759
0.00693008
0.00698201
0.00703178
0.00707949
0.00712523
0.00716908
0.00721112
0.00725141
0.00729004
0.00732706
0.00736254
0.00739652
0.00742907
0.00746022
0.00749003
0.00751852
0.00754574
0.00757171
0.00759646
0.00762
0.00764235
0.00766353
0.00768364
0.00770272
0.0077208
0.0077379
0.00775405
0.00776926
0.00778355
0.00779695
0.00780946
0.00782111
0.00783191
0.00784187
0.007851
0.00785932
0.00786684
0.00787356
0.00787951
0.00788468
0.00788908
0.00789274
0.00789564
0.00789781
0.00789925
0.00789996
0.00789996
0.00789925
0.00789784
0.00789573
0.00789294
0.00788946
0.0078853
0.00788047
0.00787497
0.00786881
0.00786199
0.00785452
0.0078464
0.00783763
0.00782823
0.00781819
0.00780751
0.0077962
0.00778427
0.00777171
0.00775852
0.00774471
0.00773028
0.00771524
0.00769957
0.00768329
0.00766638
0.00764886
0.00763072
0.00761196
0.00759258
0.00757257
0.00755194
0.00753069
0.0075088
0.00748627
0.00746311
0.00743931
0.00741486
0.00738976
0.00736401
0.00733759
0.00731051
0.00728275
0.00725431
0.00722519
0.00719538
0.00716486
0.00713364
0.0071017
0.00706903
0.00703563
0.00700149
0.0069666
0.00693095
0.00689452
0.00685732
0.00681932
0.00678052
0.00674091
0.00670047
0.00665919
0.00661706
0.00657407
0.0065302
0.00648543
0.00643977
0.00639318
0.00634565
0.00629716
0.00624771
0.00619725
0.00614579
0.00609329
0.00603972
0.00598508
0.00592932
0.00587242
0.00581434
0.00575506
0.00569453
0.00563271
0.00556956
0.00550502
0.00543903
0.00537155
0.00530249
0.00523178
0.00515932
0.00508503
0.00500878
0.00493046
0.0048499
0.00476696
0.00468141
0.00459305
0.00450161
0.00440676
0.00430813
0.00420526
0.00409762
0.00398454
0.0038652
0.00373863
0.00360358
0.0034585
0.00330138
0.00312965
0.00293992
0.00272776
0.00248735
0.00221106
0.0018889
0.00150876
0.00105682
0.000528708
5.30914e-05
7.12468e-05
0.000705963
0.00141542
0.00203179
0.00256301
0.00302639
0.00343615
0.00380293
0.00413467
0.00443735
0.00471551
0.00497269
0.00521168
0.00543471
0.00564361
0.00583986
0.00602472
0.00619923
0.00636428
0.00652065
0.006669
0.00680992
0.00694391
0.00707143
0.0071929
0.00730868
0.0074191
0.00752448
0.00762508
0.00772117
0.00781298
0.00790073
0.00798464
0.00806489
0.00814166
0.00821512
0.00828543
0.00835275
0.0084172
0.00847892
0.00853804
0.00859466
0.00864891
0.00870088
0.00875067
0.00879836
0.00884405
0.00888781
0.00892972
0.00896984
0.00900824
0.00904497
0.00908009
0.00911365
0.00914568
0.00917623
0.00920532
0.00923299
0.00925928
0.00928423
0.00930792
0.0093304
0.00935168
0.00937181
0.0093908
0.00940868
0.00942547
0.00944119
0.00945587
0.00946952
0.00948215
0.00949379
0.00950445
0.00951414
0.00952288
0.00953067
0.00953754
0.00954348
0.00954852
0.00955267
0.00955592
0.0095583
0.00955981
0.00956046
0.00956025
0.00955921
0.00955732
0.00955461
0.00955108
0.00954673
0.00954158
0.00953562
0.00952887
0.00952132
0.00951299
0.00950388
0.009494
0.00948334
0.00947192
0.00945974
0.0094468
0.0094331
0.00941865
0.00940344
0.00938749
0.00937079
0.00935335
0.00933516
0.00931622
0.00929654
0.00927612
0.00925495
0.00923303
0.00921036
0.00918694
0.00916276
0.00913783
0.00911213
0.00908567
0.00905844
0.00903043
0.00900164
0.00897206
0.00894169
0.00891052
0.00887855
0.00884575
0.00881213
0.00877768
0.00874239
0.00870624
0.00866924
0.00863136
0.0085926
0.00855295
0.00851239
0.00847091
0.0084285
0.00838515
0.00834084
0.00829556
0.0082493
0.00820203
0.00815375
0.00810444
0.00805407
0.00800264
0.00795012
0.0078965
0.00784174
0.00778584
0.00772877
0.00767051
0.00761103
0.0075503
0.00748829
0.00742498
0.00736032
0.0072943
0.00722686
0.00715797
0.00708757
0.00701563
0.0069421
0.0068669
0.00678998
0.00671126
0.00663068
0.00654814
0.00646355
0.00637679
0.00628776
0.00619631
0.00610229
0.00600553
0.00590582
0.00580295
0.00569664
0.00558659
0.00547245
0.00535378
0.0052301
0.00510082
0.00496521
0.00482242
0.00467141
0.0045109
0.00433932
0.00415471
0.00395461
0.00373592
0.00349469
0.00322594
0.00292331
0.00257885
0.00218268
0.00172331
0.00118933
0.000582444
5.71092e-05
7.12485e-05
0.000706016
0.00141554
0.00203197
0.00256322
0.00302664
0.00343641
0.0038032
0.00413495
0.00443763
0.00471578
0.00497296
0.00521195
0.00543498
0.00564387
0.00584011
0.00602496
0.00619946
0.0063645
0.00652086
0.00666921
0.00681011
0.00694409
0.00707161
0.00719307
0.00730884
0.00741926
0.00752462
0.00762522
0.00772129
0.0078131
0.00790084
0.00798474
0.00806499
0.00814175
0.00821521
0.00828551
0.00835282
0.00841727
0.00847898
0.00853809
0.00859472
0.00864896
0.00870092
0.00875071
0.0087984
0.00884408
0.00888784
0.00892975
0.00896986
0.00900826
0.00904499
0.00908011
0.00911366
0.00914569
0.00917623
0.00920532
0.009233
0.00925928
0.00928423
0.00930792
0.00933039
0.00935168
0.0093718
0.00939079
0.00940867
0.00942546
0.00944118
0.00945586
0.0094695
0.00948214
0.00949378
0.00950443
0.00951412
0.00952286
0.00953065
0.00953752
0.00954346
0.0095485
0.00955265
0.0095559
0.00955828
0.00955979
0.00956044
0.00956023
0.00955919
0.0095573
0.00955459
0.00955106
0.00954671
0.00954155
0.0095356
0.00952884
0.0095213
0.00951297
0.00950386
0.00949397
0.00948332
0.0094719
0.00945971
0.00944677
0.00943307
0.00941862
0.00940342
0.00938747
0.00937077
0.00935332
0.00933513
0.0093162
0.00929652
0.00927609
0.00925492
0.009233
0.00921033
0.00918691
0.00916273
0.0091378
0.0091121
0.00908564
0.00905841
0.0090304
0.00900161
0.00897204
0.00894167
0.0089105
0.00887852
0.00884572
0.0088121
0.00877765
0.00874236
0.00870621
0.00866921
0.00863133
0.00859257
0.00855292
0.00851236
0.00847088
0.00842847
0.00838512
0.00834081
0.00829553
0.00824927
0.008202
0.00815372
0.00810441
0.00805404
0.00800261
0.00795009
0.00789646
0.00784171
0.00778581
0.00772874
0.00767048
0.00761099
0.00755026
0.00748826
0.00742494
0.00736029
0.00729427
0.00722683
0.00715793
0.00708754
0.0070156
0.00694206
0.00686687
0.00678995
0.00671123
0.00663065
0.00654811
0.00646352
0.00637676
0.00628773
0.00619628
0.00610226
0.0060055
0.00590579
0.00580292
0.00569661
0.00558656
0.00547242
0.00535376
0.00523008
0.00510079
0.00496519
0.0048224
0.00467139
0.00451088
0.0043393
0.00415469
0.00395459
0.0037359
0.00349468
0.00322592
0.0029233
0.00257884
0.00218267
0.00172328
0.00118936
0.000582657
5.71215e-05
7.58287e-05
0.000754377
0.00152949
0.00221555
0.00281505
0.00334349
0.00381456
0.00423897
0.00462489
0.00497858
0.00530488
0.00560758
0.00588971
0.00615368
0.00640149
0.00663476
0.00685487
0.00706297
0.00726005
0.00744696
0.00762445
0.00779316
0.00795368
0.00810651
0.00825213
0.00839095
0.00852336
0.0086497
0.0087703
0.00888547
0.00899547
0.00910058
0.00920103
0.00929705
0.00938887
0.00947668
0.00956068
0.00964104
0.00971794
0.00979153
0.00986197
0.0099294
0.00999396
0.0100558
0.0101149
0.0101716
0.0102259
0.0102778
0.0103275
0.0103751
0.0104206
0.0104641
0.0105057
0.0105455
0.0105835
0.0106197
0.0106542
0.010687
0.0107183
0.0107479
0.0107761
0.0108029
0.0108282
0.0108522
0.0108749
0.0108962
0.0109163
0.0109352
0.0109528
0.0109692
0.0109844
0.0109985
0.0110115
0.0110233
0.011034
0.0110436
0.0110521
0.0110596
0.011066
0.0110714
0.0110758
0.0110791
0.0110815
0.0110828
0.0110832
0.0110826
0.011081
0.0110785
0.011075
0.0110706
0.0110652
0.0110589
0.0110517
0.0110436
0.0110346
0.0110247
0.0110139
0.0110022
0.0109896
0.0109762
0.0109618
0.0109466
0.0109305
0.0109136
0.0108958
0.0108771
0.0108576
0.0108372
0.010816
0.0107939
0.0107709
0.0107471
0.0107224
0.0106968
0.0106704
0.0106431
0.0106149
0.0105859
0.010556
0.0105251
0.0104934
0.0104608
0.0104272
0.0103928
0.0103574
0.010321
0.0102838
0.0102455
0.0102063
0.0101661
0.010125
0.0100828
0.0100396
0.0099954
0.00995014
0.00990382
0.00985643
0.00980795
0.00975836
0.00970766
0.00965581
0.0096028
0.00954862
0.00949324
0.00943664
0.0093788
0.0093197
0.0092593
0.0091976
0.00913456
0.00907015
0.00900435
0.00893712
0.00886843
0.00879825
0.00872654
0.00865325
0.00857835
0.0085018
0.00842353
0.0083435
0.00826165
0.00817792
0.00809224
0.00800454
0.00791472
0.00782271
0.00772841
0.00763169
0.00753245
0.00743055
0.00732582
0.00721811
0.00710722
0.00699293
0.00687499
0.00675312
0.00662698
0.0064962
0.00636033
0.00621885
0.00607116
0.00591651
0.00575406
0.00558275
0.00540133
0.00520827
0.00500172
0.00477938
0.00453843
0.00427536
0.00398583
0.00366445
0.00330459
0.00289818
0.00243565
0.0019064
0.00130153
0.000628944
6.07326e-05
7.58307e-05
0.000754432
0.00152962
0.00221573
0.00281527
0.00334375
0.00381484
0.00423926
0.00462519
0.00497888
0.00530518
0.00560789
0.00589001
0.00615398
0.00640177
0.00663504
0.00685514
0.00706323
0.0072603
0.0074472
0.00762468
0.00779338
0.00795389
0.00810672
0.00825233
0.00839114
0.00852353
0.00864986
0.00877046
0.00888561
0.00899561
0.00910071
0.00920115
0.00929717
0.00938898
0.00947678
0.00956077
0.00964113
0.00971802
0.0097916
0.00986204
0.00992946
0.00999402
0.0100558
0.010115
0.0101717
0.0102259
0.0102778
0.0103275
0.0103751
0.0104206
0.0104641
0.0105058
0.0105455
0.0105835
0.0106197
0.0106542