/*--------------------------------*- C++ -*----------------------------------*\
  =========                 |
  \\      /  F ield         | OpenFOAM: The Open Source CFD Toolbox
   \\    /   O peration     | Website:  https://openfoam.org
    \\  /    A nd           | Version:  8
     \\/     M anipulation  |
\*---------------------------------------------------------------------------*/
FoamFile
{
    version     2.0;
    format      ascii;
    class       surfaceScalarField;
    location    "1400";
    object      phi;
}
// * * * * * * * * * * * * * * * * * * * * * * * * * * * * * * * * * * * * * //

dimensions      [1 0 -1 0 0 0 0];

internalField   nonuniform List<scalar> 
119360
(
-1.77932e-07
-6.33815e-12
1.7794e-07
-2.8947e-07
-5.01359e-12
1.11563e-07
-3.08204e-07
-2.54912e-12
1.87523e-08
-2.56511e-07
-2.66082e-12
-5.16708e-08
-1.60518e-07
-3.88385e-12
-9.59696e-08
-3.77481e-08
-4.73711e-12
-1.22744e-07
1.00012e-07
-4.96055e-12
-1.37733e-07
2.44951e-07
-4.64015e-12
-1.44911e-07
3.92322e-07
-4.39057e-12
-1.47344e-07
5.39208e-07
-4.14905e-12
-1.46859e-07
6.83779e-07
-3.78323e-12
-1.44545e-07
8.24905e-07
-3.43201e-12
-1.41099e-07
9.61897e-07
-3.11788e-12
-1.36967e-07
1.09436e-06
-2.78886e-12
-1.32434e-07
1.22207e-06
-2.49255e-12
-1.27689e-07
1.34495e-06
-2.26823e-12
-1.22853e-07
1.46298e-06
-2.05568e-12
-1.18006e-07
1.57619e-06
-1.81207e-12
-1.13196e-07
1.68467e-06
-1.60137e-12
-1.08455e-07
1.78849e-06
-1.50109e-12
-1.03801e-07
1.88775e-06
-1.49191e-12
-9.92455e-08
1.98257e-06
-1.49005e-12
-9.4792e-08
2.07303e-06
-1.45136e-12
-9.04422e-08
2.15924e-06
-1.39923e-12
-8.61958e-08
2.24131e-06
-1.35643e-12
-8.20516e-08
2.31934e-06
-1.29909e-12
-7.80077e-08
2.39342e-06
-1.18751e-12
-7.40623e-08
2.46366e-06
-1.02709e-12
-7.02137e-08
2.53014e-06
-8.75347e-13
-6.64606e-08
2.59296e-06
-7.90554e-13
-6.28023e-08
2.65222e-06
-7.80202e-13
-5.92383e-08
2.708e-06
-8.04044e-13
-5.57684e-08
2.76042e-06
-8.19254e-13
-5.23923e-08
2.80954e-06
-8.18228e-13
-4.91101e-08
2.85549e-06
-8.25722e-13
-4.59222e-08
2.89833e-06
-8.63442e-13
-4.28288e-08
2.93818e-06
-9.22034e-13
-3.98305e-08
2.97513e-06
-9.61947e-13
-3.69274e-08
3.00927e-06
-9.44267e-13
-3.41196e-08
3.0407e-06
-8.60195e-13
-3.1407e-08
3.06951e-06
-7.38348e-13
-2.87896e-08
3.0958e-06
-6.26882e-13
-2.62671e-08
3.11966e-06
-5.63683e-13
-2.38393e-08
3.14119e-06
-5.56023e-13
-2.15056e-08
3.16047e-06
-5.81447e-13
-1.92652e-08
3.17761e-06
-6.06594e-13
-1.71168e-08
3.19269e-06
-6.10174e-13
-1.50593e-08
3.2058e-06
-5.92078e-13
-1.30909e-08
3.21703e-06
-5.69096e-13
-1.121e-08
3.22646e-06
-5.60687e-13
-9.41476e-09
3.23418e-06
-5.73149e-13
-7.70325e-09
3.24028e-06
-5.95798e-13
-6.07327e-09
3.24482e-06
-6.08621e-13
-4.52245e-09
3.24788e-06
-5.93522e-13
-3.04825e-09
3.24955e-06
-5.46421e-13
-1.64798e-09
3.24989e-06
-4.79558e-13
-3.18138e-10
3.24896e-06
-4.14332e-13
9.42854e-10
3.24684e-06
-3.71422e-13
2.13539e-09
3.2436e-06
-3.59543e-13
3.26218e-09
3.23929e-06
-3.72921e-13
4.32654e-09
3.23397e-06
-3.94155e-13
5.33142e-09
3.22771e-06
-4.03425e-13
6.2796e-09
3.22055e-06
-3.87882e-13
7.17377e-09
3.21255e-06
-3.4697e-13
8.0165e-09
3.20375e-06
-2.92792e-13
8.81028e-09
3.19421e-06
-2.4458e-13
9.55747e-09
3.18397e-06
-2.20905e-13
1.02603e-08
3.17306e-06
-2.33312e-13
1.09211e-08
3.16153e-06
-2.81801e-13
1.15418e-08
3.14942e-06
-3.56186e-13
1.21247e-08
3.13676e-06
-4.38842e-13
1.26717e-08
3.12359e-06
-5.11118e-13
1.3185e-08
3.10994e-06
-5.59218e-13
1.36664e-08
3.09583e-06
-5.77037e-13
1.4118e-08
3.08131e-06
-5.67906e-13
1.45415e-08
3.06638e-06
-5.42593e-13
1.49385e-08
3.05109e-06
-5.15115e-13
1.53107e-08
3.03544e-06
-4.99905e-13
1.56596e-08
3.01947e-06
-5.0751e-13
1.59866e-08
3.00319e-06
-5.42565e-13
1.6293e-08
2.98663e-06
-6.02795e-13
1.65801e-08
2.96979e-06
-6.81121e-13
1.68492e-08
2.95271e-06
-7.66581e-13
1.71014e-08
2.93539e-06
-8.47294e-13
1.7338e-08
2.91785e-06
-9.12991e-13
1.75599e-08
2.9001e-06
-9.56068e-13
1.77684e-08
2.88215e-06
-9.72888e-13
1.79645e-08
2.86403e-06
-9.63229e-13
1.8149e-08
2.84572e-06
-9.3045e-13
1.83229e-08
2.82726e-06
-8.79935e-13
1.8487e-08
2.80864e-06
-8.17957e-13
1.86421e-08
2.78988e-06
-7.50955e-13
1.87889e-08
2.77097e-06
-6.84286e-13
1.89281e-08
2.75194e-06
-6.22585e-13
1.90604e-08
2.73278e-06
-5.68406e-13
1.91863e-08
2.71349e-06
-5.23137e-13
1.93064e-08
2.69409e-06
-4.865e-13
1.94213e-08
2.67459e-06
-4.57828e-13
1.95315e-08
2.65497e-06
-4.36123e-13
1.96375e-08
2.63525e-06
-4.19775e-13
1.97399e-08
2.61543e-06
-4.07702e-13
1.9839e-08
2.59551e-06
-3.98348e-13
1.99355e-08
2.5755e-06
-3.90771e-13
2.00298e-08
2.5554e-06
-3.83804e-13
2.01222e-08
2.5352e-06
-3.76921e-13
2.02133e-08
2.51492e-06
-3.68649e-13
2.03034e-08
2.49454e-06
-3.58824e-13
2.03931e-08
2.47407e-06
-3.46473e-13
2.04826e-08
2.45352e-06
-3.31374e-13
2.05725e-08
2.43287e-06
-3.12861e-13
2.06632e-08
2.41213e-06
-2.90878e-13
2.07551e-08
2.39129e-06
-2.65232e-13
2.08486e-08
2.37036e-06
-2.36283e-13
2.09442e-08
2.34933e-06
-2.04892e-13
2.10424e-08
2.3282e-06
-1.72612e-13
2.11436e-08
2.30696e-06
-1.42136e-13
2.12484e-08
2.28562e-06
-1.16684e-13
2.13572e-08
2.26416e-06
-9.992e-14
2.14704e-08
2.24258e-06
-9.57567e-14
2.15887e-08
2.22088e-06
-1.0747e-13
2.17124e-08
2.19905e-06
-1.36807e-13
2.18422e-08
2.17708e-06
-1.8352e-13
2.19783e-08
2.15496e-06
-2.43389e-13
2.21214e-08
2.1327e-06
-3.10585e-13
2.22718e-08
2.11028e-06
-3.75394e-13
2.24302e-08
2.08769e-06
-4.28435e-13
2.2597e-08
2.06492e-06
-4.60243e-13
2.27727e-08
2.04198e-06
-4.65183e-13
2.29579e-08
2.01883e-06
-4.4148e-13
2.3153e-08
1.99548e-06
-3.93741e-13
2.33586e-08
1.97192e-06
-3.30791e-13
2.35752e-08
1.94813e-06
-2.65343e-13
2.38031e-08
1.92409e-06
-2.09804e-13
2.40428e-08
1.89981e-06
-1.74277e-13
2.42946e-08
1.87526e-06
-1.63453e-13
2.45591e-08
1.85043e-06
-1.75693e-13
2.48366e-08
1.82532e-06
-2.04503e-13
2.51276e-08
1.79989e-06
-2.40391e-13
2.54324e-08
1.77415e-06
-2.75446e-13
2.57515e-08
1.74807e-06
-3.04035e-13
2.60855e-08
1.72165e-06
-3.25184e-13
2.64346e-08
1.69486e-06
-3.41116e-13
2.67993e-08
1.66769e-06
-3.55077e-13
2.71801e-08
1.64012e-06
-3.68566e-13
2.75772e-08
1.61214e-06
-3.78586e-13
2.79912e-08
1.58373e-06
-3.81639e-13
2.84224e-08
1.55486e-06
-3.72924e-13
2.88712e-08
1.52554e-06
-3.52413e-13
2.9338e-08
1.49572e-06
-3.24712e-13
2.98232e-08
1.46541e-06
-2.98178e-13
3.03271e-08
1.43457e-06
-2.80193e-13
3.085e-08
1.40319e-06
-2.74281e-13
3.13923e-08
1.37124e-06
-2.76584e-13
3.19542e-08
1.33872e-06
-2.79526e-13
3.25359e-08
1.30559e-06
-2.74225e-13
3.31377e-08
1.27184e-06
-2.59626e-13
3.37597e-08
1.23745e-06
-2.39947e-13
3.4402e-08
1.2024e-06
-2.24432e-13
3.50643e-08
1.16666e-06
-2.18658e-13
3.57465e-08
1.13022e-06
-2.226e-13
3.64482e-08
1.09306e-06
-2.27596e-13
3.71687e-08
1.05517e-06
-2.25236e-13
3.79072e-08
1.01651e-06
-2.11664e-13
3.86628e-08
9.77088e-07
-1.9118e-13
3.94339e-08
9.36878e-07
-1.6992e-13
4.02187e-08
8.95873e-07
-1.48825e-13
4.1015e-08
8.54062e-07
-1.21958e-13
4.182e-08
8.1144e-07
-8.29892e-14
4.26304e-08
7.68006e-07
-3.2363e-14
4.34421e-08
7.23764e-07
2.38143e-14
4.42501e-08
6.78723e-07
7.87703e-14
4.50487e-08
6.32899e-07
1.35059e-13
4.58309e-08
5.86316e-07
2.01117e-13
4.65885e-08
5.3901e-07
2.775e-13
4.73117e-08
4.91025e-07
3.48721e-13
4.79891e-08
4.42421e-07
4.01068e-13
4.86071e-08
3.93273e-07
4.42757e-13
4.91497e-08
3.43675e-07
4.99156e-13
4.95982e-08
2.93744e-07
5.82534e-13
4.99304e-08
2.43622e-07
6.69853e-13
5.01199e-08
1.93483e-07
7.30638e-13
5.01351e-08
1.43539e-07
7.86093e-13
4.99384e-08
9.40491e-08
8.90621e-13
4.94836e-08
4.53293e-08
1.05438e-12
4.87117e-08
-2.23489e-09
1.20398e-12
4.75542e-08
-4.81284e-08
1.28964e-12
4.58813e-08
-9.17357e-08
1.39988e-12
4.35935e-08
-1.32361e-07
1.62009e-12
4.06099e-08
-1.69168e-07
1.86606e-12
3.67887e-08
-2.01125e-07
2.06196e-12
3.19366e-08
-2.26952e-07
2.2477e-12
2.58037e-08
-2.4509e-07
2.22355e-12
1.81133e-08
-2.5365e-07
1.45955e-12
8.53136e-09
-2.50439e-07
-3.48832e-13
-3.24219e-09
-2.33168e-07
-3.8537e-12
-1.73018e-08
-1.99852e-07
-1.0539e-11
-3.33441e-08
-1.49693e-07
-1.56528e-11
-5.019e-08
-8.7033e-08
1.85818e-11
-6.27288e-08
-2.94897e-08
7.97558e-11
-5.76681e-08
2.64603e-10
-2.97981e-08
-1.77946e-07
1.7795e-07
-2.89478e-07
1.11554e-07
-3.08204e-07
1.87443e-08
-2.56505e-07
-5.16778e-08
-1.60508e-07
-9.59758e-08
-3.77371e-08
-1.22748e-07
1.00023e-07
-1.37736e-07
2.4496e-07
-1.44914e-07
3.92329e-07
-1.47347e-07
5.39213e-07
-1.46861e-07
6.83783e-07
-1.44547e-07
8.24907e-07
-1.41101e-07
9.61898e-07
-1.36968e-07
1.09436e-06
-1.32435e-07
1.22207e-06
-1.2769e-07
1.34494e-06
-1.22854e-07
1.46297e-06
-1.18006e-07
1.57619e-06
-1.13196e-07
1.68466e-06
-1.08455e-07
1.78848e-06
-1.03801e-07
1.88775e-06
-9.92452e-08
1.98256e-06
-9.47914e-08
2.07302e-06
-9.04415e-08
2.15923e-06
-8.6195e-08
2.2413e-06
-8.20507e-08
2.31933e-06
-7.80067e-08
2.39341e-06
-7.40611e-08
2.46365e-06
-7.02123e-08
2.53013e-06
-6.64591e-08
2.59295e-06
-6.28008e-08
2.65221e-06
-5.92369e-08
2.708e-06
-5.57669e-08
2.76041e-06
-5.23907e-08
2.80954e-06
-4.91085e-08
2.85548e-06
-4.59205e-08
2.89833e-06
-4.28271e-08
2.93818e-06
-3.98288e-08
2.97512e-06
-3.69256e-08
3.00926e-06
-3.41177e-08
3.04069e-06
-3.1405e-08
3.0695e-06
-2.87875e-08
3.09579e-06
-2.6265e-08
3.11965e-06
-2.38373e-08
3.14118e-06
-2.15037e-08
3.16047e-06
-1.92633e-08
3.1776e-06
-1.7115e-08
3.19268e-06
-1.50574e-08
3.20579e-06
-1.3089e-08
3.21702e-06
-1.12081e-08
3.22645e-06
-9.41293e-09
3.23418e-06
-7.70147e-09
3.24027e-06
-6.07152e-09
3.24481e-06
-4.5207e-09
3.24788e-06
-3.04648e-09
3.24954e-06
-1.64619e-09
3.24988e-06
-3.16348e-10
3.24896e-06
9.44615e-10
3.24684e-06
2.1371e-09
3.24359e-06
3.26383e-09
3.23928e-06
4.32813e-09
3.23397e-06
5.33298e-09
3.2277e-06
6.28116e-09
3.22055e-06
7.17533e-09
3.21254e-06
8.01807e-09
3.20375e-06
8.81184e-09
3.19421e-06
9.55899e-09
3.18396e-06
1.02618e-08
3.17305e-06
1.09225e-08
3.16153e-06
1.15432e-08
3.14941e-06
1.2126e-08
3.13676e-06
1.2673e-08
3.12359e-06
1.31863e-08
3.10993e-06
1.36678e-08
3.09583e-06
1.41194e-08
3.0813e-06
1.45429e-08
3.06638e-06
1.494e-08
3.05108e-06
1.53122e-08
3.03544e-06
1.56611e-08
3.01947e-06
1.59881e-08
3.00319e-06
1.62945e-08
2.98662e-06
1.65817e-08
2.96979e-06
1.68508e-08
2.95271e-06
1.71031e-08
2.93538e-06
1.73398e-08
2.91784e-06
1.75619e-08
2.90009e-06
1.77705e-08
2.88215e-06
1.79667e-08
2.86402e-06
1.81513e-08
2.84572e-06
1.83253e-08
2.82726e-06
1.84895e-08
2.80864e-06
1.86446e-08
2.78988e-06
1.87914e-08
2.77097e-06
1.89306e-08
2.75194e-06
1.90628e-08
2.73277e-06
1.91886e-08
2.71349e-06
1.93087e-08
2.69409e-06
1.94235e-08
2.67458e-06
1.95336e-08
2.65497e-06
1.96395e-08
2.63525e-06
1.97418e-08
2.61543e-06
1.98409e-08
2.59551e-06
1.99373e-08
2.5755e-06
2.00315e-08
2.5554e-06
2.01239e-08
2.5352e-06
2.02149e-08
2.51491e-06
2.0305e-08
2.49454e-06
2.03946e-08
2.47407e-06
2.04841e-08
2.45351e-06
2.0574e-08
2.43287e-06
2.06647e-08
2.41212e-06
2.07565e-08
2.39129e-06
2.085e-08
2.37036e-06
2.09456e-08
2.34933e-06
2.10437e-08
2.3282e-06
2.11449e-08
2.30696e-06
2.12496e-08
2.28562e-06
2.13583e-08
2.26416e-06
2.14715e-08
2.24258e-06
2.15897e-08
2.22088e-06
2.17133e-08
2.19904e-06
2.18429e-08
2.17708e-06
2.1979e-08
2.15496e-06
2.21221e-08
2.1327e-06
2.22725e-08
2.11028e-06
2.24309e-08
2.08769e-06
2.25978e-08
2.06492e-06
2.27736e-08
2.04197e-06
2.29588e-08
2.01883e-06
2.31541e-08
1.99548e-06
2.33597e-08
1.97192e-06
2.35763e-08
1.94813e-06
2.38042e-08
1.92409e-06
2.40438e-08
1.89981e-06
2.42957e-08
1.87526e-06
2.45601e-08
1.85043e-06
2.48375e-08
1.82531e-06
2.51284e-08
1.79989e-06
2.54333e-08
1.77415e-06
2.57524e-08
1.74807e-06
2.60863e-08
1.72165e-06
2.64355e-08
1.69486e-06
2.68002e-08
1.66769e-06
2.7181e-08
1.64012e-06
2.75782e-08
1.61214e-06
2.79922e-08
1.58372e-06
2.84234e-08
1.55486e-06
2.88722e-08
1.52554e-06
2.93391e-08
1.49572e-06
2.98243e-08
1.46541e-06
3.03282e-08
1.43457e-06
3.08511e-08
1.40319e-06
3.13934e-08
1.37124e-06
3.19553e-08
1.33872e-06
3.2537e-08
1.30559e-06
3.31388e-08
1.27184e-06
3.37608e-08
1.23745e-06
3.44031e-08
1.2024e-06
3.50654e-08
1.16666e-06
3.57475e-08
1.13022e-06
3.64492e-08
1.09306e-06
3.71697e-08
1.05517e-06
3.79082e-08
1.01651e-06
3.86638e-08
9.77088e-07
3.94349e-08
9.36879e-07
4.02197e-08
8.95873e-07
4.1016e-08
8.54062e-07
4.1821e-08
8.11441e-07
4.26313e-08
7.68007e-07
4.3443e-08
7.23765e-07
4.4251e-08
6.78724e-07
4.50495e-08
6.329e-07
4.58316e-08
5.86317e-07
4.65891e-08
5.39011e-07
4.73122e-08
4.91026e-07
4.79895e-08
4.42422e-07
4.86073e-08
3.93274e-07
4.91499e-08
3.43676e-07
4.95983e-08
2.93745e-07
4.99304e-08
2.43623e-07
5.01196e-08
1.93485e-07
5.01347e-08
1.43541e-07
4.99379e-08
9.40516e-08
4.94831e-08
4.5332e-08
4.8711e-08
-2.23208e-09
4.75532e-08
-4.8125e-08
4.58801e-08
-9.17315e-08
4.35923e-08
-1.32356e-07
4.06085e-08
-1.69162e-07
3.67869e-08
-2.01119e-07
3.19346e-08
-2.26945e-07
2.58017e-08
-2.45084e-07
1.81114e-08
-2.53645e-07
8.52969e-09
-2.50438e-07
-3.24414e-09
-2.3318e-07
-1.73064e-08
-1.99884e-07
-3.33574e-08
-1.49723e-07
-5.02345e-08
-8.69306e-08
-6.28338e-08
-2.9111e-08
-5.77892e-08
-2.89004e-08
-8.89523e-08
-1.44497e-12
2.66927e-07
-7.87099e-08
-9.03366e-13
1.01343e-07
-3.17576e-08
-3.3841e-13
-2.81786e-08
3.89764e-08
-3.00662e-13
-1.22384e-07
1.2855e-07
-3.59871e-13
-1.85522e-07
2.31974e-07
-3.63177e-13
-2.26145e-07
3.44808e-07
-3.26307e-13
-2.50544e-07
4.63538e-07
-3.20757e-13
-2.6362e-07
5.85355e-07
-3.10892e-13
-2.69139e-07
7.08155e-07
-2.70661e-13
-2.69636e-07
8.30427e-07
-2.29153e-13
-2.66796e-07
9.51108e-07
-1.92933e-13
-2.61759e-07
1.06945e-06
-1.47498e-13
-2.55291e-07
1.18495e-06
-1.06295e-13
-2.47913e-07
1.29726e-06
-8.50418e-14
-2.3998e-07
1.40616e-06
-6.485e-14
-2.31733e-07
1.51151e-06
-2.57427e-14
-2.23333e-07
1.61322e-06
1.6487e-14
-2.14892e-07
1.71127e-06
3.29319e-14
-2.06483e-07
1.80564e-06
2.20307e-14
-1.98152e-07
1.89634e-06
7.54203e-15
-1.89933e-07
1.98341e-06
5.6475e-15
-1.81843e-07
2.06688e-06
1.0449e-14
-1.73894e-07
2.14679e-06
1.21211e-14
-1.66094e-07
2.2232e-06
1.47091e-14
-1.58447e-07
2.29617e-06
3.11472e-14
-1.50954e-07
2.36574e-06
6.43705e-14
-1.43618e-07
2.43198e-06
1.003e-13
-1.36437e-07
2.49496e-06
1.20256e-13
-1.29415e-07
2.55472e-06
1.18306e-13
-1.22551e-07
2.61135e-06
1.04727e-13
-1.15847e-07
2.6649e-06
9.44846e-14
-1.09305e-07
2.71545e-06
9.31799e-14
-1.02925e-07
2.76307e-06
9.44149e-14
-9.67107e-08
2.80783e-06
8.8711e-14
-9.06627e-08
2.8498e-06
7.45556e-14
-8.47832e-08
2.88906e-06
6.10801e-14
-7.90737e-08
2.92569e-06
6.06567e-14
-7.35359e-08
2.95976e-06
7.88226e-14
-6.81709e-08
2.99136e-06
1.09652e-13
-6.29797e-08
3.02055e-06
1.39399e-13
-5.79627e-08
3.04742e-06
1.55802e-13
-5.31201e-08
3.07205e-06
1.54949e-13
-4.84518e-08
3.09452e-06
1.42674e-13
-4.3957e-08
3.11491e-06
1.29136e-13
-3.96345e-08
3.13329e-06
1.2237e-13
-3.54827e-08
3.14975e-06
1.23911e-13
-3.14996e-08
3.16436e-06
1.29281e-13
-2.76828e-08
3.1772e-06
1.32084e-13
-2.40295e-08
3.18834e-06
1.2899e-13
-2.05366e-08
3.19785e-06
1.2144e-13
-1.72006e-08
3.20581e-06
1.14709e-13
-1.40177e-08
3.21229e-06
1.14112e-13
-1.09838e-08
3.21735e-06
1.22009e-13
-8.09448e-09
3.22107e-06
1.36108e-13
-5.34522e-09
3.2235e-06
1.50867e-13
-2.73107e-09
3.2247e-06
1.60186e-13
-2.47666e-10
3.22475e-06
1.60804e-13
2.10791e-09
3.22369e-06
1.53601e-13
4.3394e-09
3.22157e-06
1.42887e-13
6.45221e-09
3.21847e-06
1.34283e-13
8.4516e-09
3.21442e-06
1.31896e-13
1.03425e-08
3.20948e-06
1.36684e-13
1.21299e-08
3.20369e-06
1.46148e-13
1.38184e-08
3.1971e-06
1.55301e-13
1.54126e-08
3.18976e-06
1.59006e-13
1.6917e-08
3.18169e-06
1.53843e-13
1.83359e-08
3.17295e-06
1.39299e-13
1.96737e-08
3.16357e-06
1.17976e-13
2.09343e-08
3.15359e-06
9.4467e-14
2.21219e-08
3.14303e-06
7.39139e-14
2.32403e-08
3.13193e-06
6.0494e-14
2.42933e-08
3.12033e-06
5.59421e-14
2.52844e-08
3.10824e-06
5.97723e-14
2.62172e-08
3.0957e-06
6.92646e-14
2.7095e-08
3.08274e-06
8.07554e-14
2.7921e-08
3.06936e-06
9.0338e-14
2.86983e-08
3.05561e-06
9.54033e-14
2.94298e-08
3.04149e-06
9.4751e-14
3.01183e-08
3.02703e-06
8.88668e-14
3.07665e-08
3.01225e-06
7.96866e-14
3.13769e-08
2.99716e-06
6.99791e-14
3.19519e-08
2.98178e-06
6.24989e-14
3.24939e-08
2.96613e-06
5.95776e-14
3.3005e-08
2.95022e-06
6.25336e-14
3.34873e-08
2.93407e-06
7.16443e-14
3.39429e-08
2.91768e-06
8.62507e-14
3.43735e-08
2.90106e-06
1.04701e-13
3.47809e-08
2.88424e-06
1.25171e-13
3.51668e-08
2.86722e-06
1.45668e-13
3.55328e-08
2.85e-06
1.64327e-13
3.58804e-08
2.8326e-06
1.79953e-13
3.62111e-08
2.81503e-06
1.91639e-13
3.65261e-08
2.79728e-06
1.99195e-13
3.68268e-08
2.77937e-06
2.02671e-13
3.71145e-08
2.76131e-06
2.02748e-13
3.73902e-08
2.7431e-06
2e-13
3.76552e-08
2.72474e-06
1.95073e-13
3.79105e-08
2.70623e-06
1.88856e-13
3.81572e-08
2.6876e-06
1.81855e-13
3.83962e-08
2.66882e-06
1.74576e-13
3.86286e-08
2.64992e-06
1.67491e-13
3.88553e-08
2.63089e-06
1.60934e-13
3.90771e-08
2.61173e-06
1.55154e-13
3.92951e-08
2.59245e-06
1.50408e-13
3.951e-08
2.57305e-06
1.46716e-13
3.97228e-08
2.55352e-06
1.441e-13
3.99343e-08
2.53387e-06
1.42456e-13
4.01454e-08
2.5141e-06
1.4154e-13
4.03568e-08
2.4942e-06
1.41151e-13
4.05695e-08
2.47419e-06
1.40929e-13
4.07843e-08
2.45405e-06
1.40575e-13
4.10022e-08
2.43378e-06
1.3977e-13
4.12238e-08
2.41338e-06
1.38202e-13
4.14503e-08
2.39285e-06
1.35593e-13
4.16825e-08
2.37219e-06
1.31596e-13
4.19213e-08
2.35139e-06
1.25892e-13
4.21678e-08
2.33045e-06
1.18267e-13
4.24228e-08
2.30936e-06
1.08427e-13
4.26874e-08
2.28812e-06
9.65894e-14
4.29626e-08
2.26672e-06
8.30447e-14
4.32494e-08
2.24515e-06
6.86396e-14
4.35487e-08
2.22342e-06
5.46854e-14
4.38615e-08
2.20151e-06
4.2695e-14
4.41888e-08
2.17942e-06
3.44377e-14
4.45316e-08
2.15713e-06
3.13916e-14
4.48907e-08
2.13464e-06
3.43059e-14
4.52671e-08
2.11195e-06
4.31114e-14
4.56617e-08
2.08904e-06
5.65936e-14
4.60755e-08
2.06589e-06
7.23588e-14
4.65092e-08
2.04252e-06
8.75064e-14
4.69639e-08
2.01889e-06
9.91707e-14
4.74403e-08
1.995e-06
1.05131e-13
4.79393e-08
1.97084e-06
1.04479e-13
4.84618e-08
1.9464e-06
9.78176e-14
4.90087e-08
1.92166e-06
8.71317e-14
4.95807e-08
1.89662e-06
7.50094e-14
5.01787e-08
1.87126e-06
6.40668e-14
5.08036e-08
1.84556e-06
5.60038e-14
5.1456e-08
1.81952e-06
5.12576e-14
5.21369e-08
1.79311e-06
4.91204e-14
5.28468e-08
1.76634e-06
4.84196e-14
5.35867e-08
1.73917e-06
4.8142e-14
5.43571e-08
1.71159e-06
4.81976e-14
5.51588e-08
1.6836e-06
4.91759e-14
5.59924e-08
1.65518e-06
5.19723e-14
5.68587e-08
1.6263e-06
5.69891e-14
5.77582e-08
1.59695e-06
6.33937e-14
5.86916e-08
1.56713e-06
6.94236e-14
5.96594e-08
1.5368e-06
7.29347e-14
6.06622e-08
1.50596e-06
7.28376e-14
6.17005e-08
1.47459e-06
6.96943e-14
6.27746e-08
1.44267e-06
6.55656e-14
6.38849e-08
1.41018e-06
6.28456e-14
6.50316e-08
1.37711e-06
6.27554e-14
6.62148e-08
1.34345e-06
6.46358e-14
6.74344e-08
1.30917e-06
6.63913e-14
6.86902e-08
1.27426e-06
6.59403e-14
6.99815e-08
1.23871e-06
6.29496e-14
7.13076e-08
1.2025e-06
5.90639e-14
7.26674e-08
1.16561e-06
5.6552e-14
7.40591e-08
1.12805e-06
5.65728e-14
7.54807e-08
1.08979e-06
5.83908e-14
7.69297e-08
1.05083e-06
5.98202e-14
7.84027e-08
1.01116e-06
5.99312e-14
7.98956e-08
9.70781e-07
5.96606e-14
8.14035e-08
9.29688e-07
6.08957e-14
8.29204e-08
8.87886e-07
6.42056e-14
8.44393e-08
8.45384e-07
6.77028e-14
8.59516e-08
8.02193e-07
6.90698e-14
8.74472e-08
7.58333e-07
6.81677e-14
8.89143e-08
7.1383e-07
6.76542e-14
9.0339e-08
6.68718e-07
6.92502e-14
9.17049e-08
6.2304e-07
7.01314e-14
9.29931e-08
5.7685e-07
6.53783e-14
9.41811e-08
5.30216e-07
5.4956e-14
9.5243e-08
4.83217e-07
4.54914e-14
9.61485e-08
4.35953e-07
4.30281e-14
9.6862e-08
3.88539e-07
4.34791e-14
9.73421e-08
3.41115e-07
3.67206e-14
9.75399e-08
2.93848e-07
2.29539e-14
9.7398e-08
2.46933e-07
1.7264e-14
9.68481e-08
2.006e-07
2.74919e-14
9.58086e-08
1.55125e-07
3.7137e-14
9.41787e-08
1.10827e-07
2.79637e-14
9.18413e-08
6.80711e-08
1.70142e-14
8.86254e-08
2.72801e-08
3.21826e-14
8.4371e-08
-1.10405e-08
5.59552e-14
7.89149e-08
-4.62903e-08
5.50532e-14
7.20206e-08
-7.77969e-08
5.59414e-14
6.34233e-08
-1.04822e-07
9.11771e-14
5.28065e-08
-1.26549e-07
8.90538e-14
3.9815e-08
-1.42115e-07
-6.78485e-14
2.40692e-08
-1.50644e-07
-5.25038e-13
5.25476e-09
-1.51288e-07
-1.75876e-12
-1.66928e-08
-1.43361e-07
-5.08259e-12
-4.13096e-08
-1.26387e-07
-1.37599e-11
-6.72008e-08
-9.92579e-08
-3.59138e-11
-8.98704e-08
-5.8932e-08
-7.49646e-11
-9.7967e-08
-3.93188e-11
-8.87383e-08
-8.89483e-08
2.66927e-07
-7.87058e-08
1.01328e-07
-3.17507e-08
-2.81931e-08
3.89831e-08
-1.22395e-07
1.28555e-07
-1.85531e-07
2.31977e-07
-2.26152e-07
3.4481e-07
-2.50551e-07
4.63539e-07
-2.63626e-07
5.85355e-07
-2.69144e-07
7.08153e-07
-2.69641e-07
8.30425e-07
-2.66801e-07
9.51105e-07
-2.61762e-07
1.06945e-06
-2.55294e-07
1.18495e-06
-2.47916e-07
1.29726e-06
-2.39983e-07
1.40616e-06
-2.31735e-07
1.5115e-06
-2.23336e-07
1.61322e-06
-2.14894e-07
1.71126e-06
-2.06485e-07
1.80563e-06
-1.98154e-07
1.89633e-06
-1.89934e-07
1.9834e-06
-1.81844e-07
2.06687e-06
-1.73896e-07
2.14678e-06
-1.66096e-07
2.2232e-06
-1.58448e-07
2.29616e-06
-1.50955e-07
2.36573e-06
-1.43619e-07
2.43198e-06
-1.36438e-07
2.49495e-06
-1.29416e-07
2.55472e-06
-1.22552e-07
2.61134e-06
-1.15848e-07
2.6649e-06
-1.09306e-07
2.71545e-06
-1.02926e-07
2.76306e-06
-9.67113e-08
2.80782e-06
-9.06632e-08
2.8498e-06
-8.47837e-08
2.88906e-06
-7.90742e-08
2.92568e-06
-7.35364e-08
2.95976e-06
-6.81713e-08
2.99135e-06
-6.29801e-08
3.02054e-06
-5.7963e-08
3.04741e-06
-5.31205e-08
3.07205e-06
-4.84522e-08
3.09452e-06
-4.39573e-08
3.1149e-06
-3.96348e-08
3.13329e-06
-3.5483e-08
3.14975e-06
-3.14999e-08
3.16436e-06
-2.76831e-08
3.17719e-06
-2.40298e-08
3.18833e-06
-2.05369e-08
3.19785e-06
-1.72009e-08
3.20581e-06
-1.4018e-08
3.21229e-06
-1.0984e-08
3.21735e-06
-8.09475e-09
3.22106e-06
-5.34549e-09
3.22349e-06
-2.73134e-09
3.2247e-06
-2.47925e-10
3.22474e-06
2.10765e-09
3.22368e-06
4.33915e-09
3.22157e-06
6.45197e-09
3.21846e-06
8.45136e-09
3.21442e-06
1.03423e-08
3.20947e-06
1.21297e-08
3.20369e-06
1.38182e-08
3.1971e-06
1.54124e-08
3.18975e-06
1.69168e-08
3.18169e-06
1.83357e-08
3.17295e-06
1.96735e-08
3.16357e-06
2.09341e-08
3.15358e-06
2.21217e-08
3.14303e-06
2.32401e-08
3.13193e-06
2.4293e-08
3.12033e-06
2.52841e-08
3.10824e-06
2.62169e-08
3.0957e-06
2.70947e-08
3.08273e-06
2.79208e-08
3.06936e-06
2.86981e-08
3.0556e-06
2.94296e-08
3.04148e-06
3.01181e-08
3.02703e-06
3.07663e-08
3.01224e-06
3.13767e-08
2.99716e-06
3.19517e-08
2.98178e-06
3.24937e-08
2.96613e-06
3.30048e-08
2.95022e-06
3.34872e-08
2.93406e-06
3.39427e-08
2.91767e-06
3.43733e-08
2.90106e-06
3.47807e-08
2.88424e-06
3.51666e-08
2.86722e-06
3.55326e-08
2.85e-06
3.58802e-08
2.8326e-06
3.62109e-08
2.81502e-06
3.65259e-08
2.79728e-06
3.68266e-08
2.77937e-06
3.71142e-08
2.76131e-06
3.739e-08
2.74309e-06
3.7655e-08
2.72473e-06
3.79103e-08
2.70623e-06
3.81569e-08
2.68759e-06
3.8396e-08
2.66882e-06
3.86283e-08
2.64992e-06
3.8855e-08
2.63089e-06
3.90769e-08
2.61173e-06
3.92948e-08
2.59245e-06
3.95098e-08
2.57304e-06
3.97226e-08
2.55352e-06
3.99341e-08
2.53387e-06
4.01452e-08
2.5141e-06
4.03566e-08
2.4942e-06
4.05694e-08
2.47419e-06
4.07842e-08
2.45404e-06
4.1002e-08
2.43378e-06
4.12237e-08
2.41338e-06
4.14502e-08
2.39285e-06
4.16824e-08
2.37219e-06
4.19212e-08
2.35139e-06
4.21676e-08
2.33045e-06
4.24226e-08
2.30936e-06
4.26872e-08
2.28811e-06
4.29624e-08
2.26671e-06
4.32492e-08
2.24515e-06
4.35485e-08
2.22342e-06
4.38613e-08
2.20151e-06
4.41886e-08
2.17941e-06
4.45314e-08
2.15713e-06
4.48906e-08
2.13464e-06
4.5267e-08
2.11195e-06
4.56616e-08
2.08904e-06
4.60754e-08
2.06589e-06
4.65091e-08
2.04251e-06
4.69637e-08
2.01889e-06
4.74401e-08
1.995e-06
4.79391e-08
1.97084e-06
4.84617e-08
1.9464e-06
4.90085e-08
1.92166e-06
4.95805e-08
1.89662e-06
5.01786e-08
1.87126e-06
5.08034e-08
1.84556e-06
5.14559e-08
1.81952e-06
5.21367e-08
1.79311e-06
5.28467e-08
1.76634e-06
5.35865e-08
1.73917e-06
5.43569e-08
1.71159e-06
5.51586e-08
1.6836e-06
5.59923e-08
1.65517e-06
5.68586e-08
1.6263e-06
5.77581e-08
1.59695e-06
5.86915e-08
1.56713e-06
5.96593e-08
1.5368e-06
6.06621e-08
1.50596e-06
6.17003e-08
1.47459e-06
6.27744e-08
1.44267e-06
6.38847e-08
1.41018e-06
6.50314e-08
1.37711e-06
6.62146e-08
1.34345e-06
6.74343e-08
1.30917e-06
6.869e-08
1.27426e-06
6.99814e-08
1.23871e-06
7.13075e-08
1.2025e-06
7.26672e-08
1.16561e-06
7.40589e-08
1.12805e-06
7.54806e-08
1.08979e-06
7.69296e-08
1.05083e-06
7.84025e-08
1.01116e-06
7.98955e-08
9.70781e-07
8.14034e-08
9.29688e-07
8.29203e-08
8.87886e-07
8.44392e-08
8.45384e-07
8.59515e-08
8.02193e-07
8.74471e-08
7.58333e-07
8.89142e-08
7.1383e-07
9.03389e-08
6.68718e-07
9.17049e-08
6.2304e-07
9.2993e-08
5.76851e-07
9.4181e-08
5.30216e-07
9.5243e-08
4.83218e-07
9.61485e-08
4.35953e-07
9.6862e-08
3.88539e-07
9.73421e-08
3.41116e-07
9.75399e-08
2.93849e-07
9.7398e-08
2.46933e-07
9.68482e-08
2.00601e-07
9.58087e-08
1.55126e-07
9.41788e-08
1.10828e-07
9.18414e-08
6.80723e-08
8.86256e-08
2.72815e-08
8.43712e-08
-1.10389e-08
7.89152e-08
-4.62883e-08
7.20209e-08
-7.77942e-08
6.34236e-08
-1.04819e-07
5.28067e-08
-1.26545e-07
3.98151e-08
-1.42111e-07
2.40695e-08
-1.50639e-07
5.25524e-09
-1.51288e-07
-1.66925e-08
-1.43378e-07
-4.131e-08
-1.26466e-07
-6.72044e-08
-9.95167e-08
-8.98627e-08
-5.96879e-08
-9.77429e-08
-8.86631e-08
3.57112e-09
-7.35339e-13
2.6337e-07
6.41587e-08
-3.80291e-13
4.07386e-08
1.3857e-07
-1.74676e-13
-1.0259e-07
2.18826e-07
-2.3643e-13
-2.02638e-07
3.05455e-07
-1.7547e-13
-2.72149e-07
3.98165e-07
-7.55324e-14
-3.18853e-07
4.961e-07
-2.5713e-14
-3.48477e-07
5.98063e-07
-7.34701e-15
-3.65581e-07
7.02664e-07
1.38088e-14
-3.73738e-07
8.08608e-07
3.33966e-14
-3.75578e-07
9.14808e-07
4.45676e-14
-3.72994e-07
1.02039e-06
5.46459e-14
-3.6734e-07
1.12469e-06
6.55431e-14
-3.59581e-07
1.22717e-06
7.08996e-14
-3.50398e-07
1.32747e-06
7.37929e-14
-3.40276e-07
1.4253e-06
8.37673e-14
-3.29558e-07
1.52046e-06
9.8762e-14
-3.18484e-07
1.61279e-06
1.06016e-13
-3.07223e-07
1.7022e-06
9.95111e-14
-2.95895e-07
1.78864e-06
8.59871e-14
-2.84581e-07
1.87204e-06
7.4628e-14
-2.73338e-07
1.95241e-06
6.73246e-14
-2.62205e-07
2.02973e-06
6.10171e-14
-2.51209e-07
2.104e-06
5.52854e-14
-2.40369e-07
2.17526e-06
5.44874e-14
-2.29697e-07
2.24351e-06
6.22901e-14
-2.19204e-07
2.30879e-06
7.58451e-14
-2.08897e-07
2.37114e-06
8.67287e-14
-1.98781e-07
2.43059e-06
8.79429e-14
-1.88862e-07
2.48719e-06
8.00984e-14
-1.79145e-07
2.54098e-06
6.9964e-14
-1.69634e-07
2.59201e-06
6.36565e-14
-1.60333e-07
2.64034e-06
6.12972e-14
-1.51248e-07
2.68601e-06
5.79873e-14
-1.42383e-07
2.7291e-06
5.0063e-14
-1.33742e-07
2.76965e-06
3.92556e-14
-1.25329e-07
2.80772e-06
3.19662e-14
-1.17147e-07
2.84339e-06
3.38639e-14
-1.092e-07
2.87672e-06
4.51916e-14
-1.0149e-07
2.90776e-06
6.05577e-14
-9.40205e-08
2.9366e-06
7.26278e-14
-8.6792e-08
2.96329e-06
7.67078e-14
-7.98058e-08
2.9879e-06
7.31203e-14
-7.30622e-08
3.01051e-06
6.61467e-14
-6.65607e-08
3.03118e-06
6.06926e-14
-6.03003e-08
3.04998e-06
5.94089e-14
-5.42794e-08
3.06698e-06
6.16293e-14
-4.84955e-08
3.08225e-06
6.4606e-14
-4.29458e-08
3.09585e-06
6.5678e-14
-3.76267e-08
3.10785e-06
6.40993e-14
-3.25341e-08
3.11832e-06
6.12994e-14
-2.76634e-08
3.12731e-06
5.99879e-14
-2.30098e-08
3.1349e-06
6.22777e-14
-1.85677e-08
3.14114e-06
6.8474e-14
-1.43315e-08
3.1461e-06
7.68284e-14
-1.02948e-08
3.14982e-06
8.43536e-14
-6.45153e-09
3.15237e-06
8.83885e-14
-2.79546e-09
3.1538e-06
8.78784e-14
6.79105e-10
3.15417e-06
8.37532e-14
3.97746e-09
3.15352e-06
7.84796e-14
7.10591e-09
3.1519e-06
7.47985e-14
1.00717e-08
3.14937e-06
7.43821e-14
1.28816e-08
3.14596e-06
7.72582e-14
1.55424e-08
3.14172e-06
8.16332e-14
1.80607e-08
3.13669e-06
8.48632e-14
2.04431e-08
3.13091e-06
8.43774e-14
2.26956e-08
3.12443e-06
7.8691e-14
2.48246e-08
3.11727e-06
6.81507e-14
2.68361e-08
3.10947e-06
5.45158e-14
2.87359e-08
3.10107e-06
4.05061e-14
3.05296e-08
3.09209e-06
2.8991e-14
3.22228e-08
3.08256e-06
2.20139e-14
3.38208e-08
3.07252e-06
2.03659e-14
3.53288e-08
3.06199e-06
2.35057e-14
3.67517e-08
3.05099e-06
2.98062e-14
3.80943e-08
3.03955e-06
3.71788e-14
3.93611e-08
3.0277e-06
4.35799e-14
4.05567e-08
3.01545e-06
4.76461e-14
4.16851e-08
3.00282e-06
4.87944e-14
4.27503e-08
2.98983e-06
4.73546e-14
4.37564e-08
2.97651e-06
4.43743e-14
4.47068e-08
2.96286e-06
4.12033e-14
4.56051e-08
2.9489e-06
3.91979e-14
4.64547e-08
2.93465e-06
3.93332e-14
4.72587e-08
2.92012e-06
4.21192e-14
4.80201e-08
2.90532e-06
4.7587e-14
4.87418e-08
2.89027e-06
5.51781e-14
4.94265e-08
2.87498e-06
6.4105e-14
5.00767e-08
2.85946e-06
7.33615e-14
5.0695e-08
2.84371e-06
8.20525e-14
5.12835e-08
2.82775e-06
8.93938e-14
5.18446e-08
2.81159e-06
9.48478e-14
5.23803e-08
2.79523e-06
9.81437e-14
5.28925e-08
2.77868e-06
9.92817e-14
5.33833e-08
2.76194e-06
9.85393e-14
5.38544e-08
2.74503e-06
9.61904e-14
5.43075e-08
2.72794e-06
9.27487e-14
5.47443e-08
2.71069e-06
8.87207e-14
5.51664e-08
2.69328e-06
8.4547e-14
5.55753e-08
2.67571e-06
8.06889e-14
5.59726e-08
2.65798e-06
7.74901e-14
5.63595e-08
2.6401e-06
7.5287e-14
5.67376e-08
2.62207e-06
7.42947e-14
5.71082e-08
2.6039e-06
7.45584e-14
5.74727e-08
2.58558e-06
7.59636e-14
5.78323e-08
2.56712e-06
7.82083e-14
5.81883e-08
2.54851e-06
8.08763e-14
5.8542e-08
2.52977e-06
8.33916e-14
5.88947e-08
2.51088e-06
8.52617e-14
5.92476e-08
2.49185e-06
8.58827e-14
5.96021e-08
2.47268e-06
8.50084e-14
5.99594e-08
2.45336e-06
8.24202e-14
6.03209e-08
2.4339e-06
7.82117e-14
6.06877e-08
2.41429e-06
7.26745e-14
6.10614e-08
2.39453e-06
6.62491e-14
6.14432e-08
2.37462e-06
5.94073e-14
6.18345e-08
2.35455e-06
5.26246e-14
6.22368e-08
2.33433e-06
4.62651e-14
6.26514e-08
2.31394e-06
4.05613e-14
6.30799e-08
2.29338e-06
3.56208e-14
6.35236e-08
2.27264e-06
3.14783e-14
6.3984e-08
2.25173e-06
2.81858e-14
6.44625e-08
2.23063e-06
2.58404e-14
6.49606e-08
2.20934e-06
2.47094e-14
6.54795e-08
2.18786e-06
2.50425e-14
6.60209e-08
2.16616e-06
2.71137e-14
6.65859e-08
2.14426e-06
3.09926e-14
6.7176e-08
2.12213e-06
3.64153e-14
6.77924e-08
2.09977e-06
4.27644e-14
6.84366e-08
2.07717e-06
4.90025e-14
6.91097e-08
2.05432e-06
5.39777e-14
6.98131e-08
2.03122e-06
5.66144e-14
7.05481e-08
2.00784e-06
5.62259e-14
7.13158e-08
1.98419e-06
5.27009e-14
7.21176e-08
1.96024e-06
4.67022e-14
7.29546e-08
1.936e-06
3.94476e-14
7.3828e-08
1.91144e-06
3.23734e-14
7.47389e-08
1.88656e-06
2.67668e-14
7.56886e-08
1.86133e-06
2.33667e-14
7.6678e-08
1.83577e-06
2.21975e-14
7.77083e-08
1.80983e-06
2.27075e-14