/*--------------------------------*- C++ -*----------------------------------*\
  =========                 |
  \\      /  F ield         | OpenFOAM: The Open Source CFD Toolbox
   \\    /   O peration     | Website:  https://openfoam.org
    \\  /    A nd           | Version:  8
     \\/     M anipulation  |
\*---------------------------------------------------------------------------*/
FoamFile
{
    version     2.0;
    format      ascii;
    class       volVectorField;
    location    "1400";
    object      U;
}
// * * * * * * * * * * * * * * * * * * * * * * * * * * * * * * * * * * * * * //

dimensions      [0 1 -1 0 0 0 0];

internalField   nonuniform List<vector> 
48000
(
(-0.0093751 -5.26591e-07 0.0116817)
(-0.0163207 -5.8743e-07 0.00815724)
(-0.0223729 -4.53608e-07 0.00158442)
(-0.0199798 -4.67117e-07 -0.00299585)
(-0.0147335 -5.7045e-07 -0.00580262)
(-0.00705491 -6.37811e-07 -0.00747904)
(0.00206499 -6.48495e-07 -0.00837794)
(0.0118274 -5.97256e-07 -0.00872155)
(0.0218909 -5.53098e-07 -0.00876326)
(0.0320153 -5.18366e-07 -0.00864109)
(0.0420304 -4.74757e-07 -0.00842308)
(0.0518406 -4.31794e-07 -0.00815056)
(0.061386 -3.92792e-07 -0.007849)
(0.0706307 -3.53774e-07 -0.00753415)
(0.0795551 -3.18472e-07 -0.00721581)
(0.0881493 -2.90138e-07 -0.00689995)
(0.0964105 -2.63167e-07 -0.00659012)
(0.10434 -2.33131e-07 -0.00628831)
(0.111941 -2.05547e-07 -0.00599551)
(0.11922 -1.88056e-07 -0.00571209)
(0.126183 -1.79794e-07 -0.00543805)
(0.132837 -1.73607e-07 -0.00517315)
(0.139189 -1.65452e-07 -0.00491703)
(0.145246 -1.57141e-07 -0.00466929)
(0.151015 -1.50352e-07 -0.00442952)
(0.156504 -1.42665e-07 -0.00419734)
(0.161719 -1.30326e-07 -0.0039724)
(0.166666 -1.13555e-07 -0.00375437)
(0.171353 -9.71798e-08 -0.00354298)
(0.175785 -8.62338e-08 -0.00333802)
(0.17997 -8.15851e-08 -0.00313931)
(0.183914 -8.01079e-08 -0.00294671)
(0.187623 -7.84099e-08 -0.00276009)
(0.191103 -7.59999e-08 -0.00257935)
(0.194362 -7.50366e-08 -0.00240441)
(0.197405 -7.73667e-08 -0.00223522)
(0.200239 -8.21067e-08 -0.00207173)
(0.202871 -8.56894e-08 -0.00191388)
(0.205307 -8.45396e-08 -0.00176162)
(0.207554 -7.77207e-08 -0.0016149)
(0.209618 -6.75439e-08 -0.00147367)
(0.211505 -5.80296e-08 -0.00133786)
(0.213223 -5.22692e-08 -0.00120743)
(0.214778 -5.06892e-08 -0.00108229)
(0.216176 -5.1325e-08 -0.000962383)
(0.217423 -5.15268e-08 -0.000847613)
(0.218526 -4.99392e-08 -0.000737886)
(0.219491 -4.70761e-08 -0.000633098)
(0.220324 -4.46966e-08 -0.00053314)
(0.221031 -4.44568e-08 -0.000437896)
(0.221618 -4.65926e-08 -0.000347243)
(0.22209 -4.9745e-08 -0.000261051)
(0.222453 -5.19076e-08 -0.000179183)
(0.222712 -5.14583e-08 -0.000101494)
(0.222873 -4.80965e-08 -2.78296e-05)
(0.222941 -4.29644e-08 4.21025e-05)
(0.222919 -3.78132e-08 0.000108383)
(0.222813 -3.42191e-08 0.000170905)
(0.222628 -3.26544e-08 0.000229825)
(0.222368 -3.25478e-08 0.000285374)
(0.222037 -3.25402e-08 0.000337731)
(0.221639 -3.13599e-08 0.000387053)
(0.221177 -2.84779e-08 0.000433484)
(0.220657 -2.43204e-08 0.000477163)
(0.22008 -2.01591e-08 0.000518223)
(0.21945 -1.74978e-08 0.000556793)
(0.21877 -1.74521e-08 0.000592998)
(0.218044 -2.03875e-08 0.000626963)
(0.217274 -2.56682e-08 0.000658808)
(0.216462 -3.20301e-08 0.000688652)
(0.215612 -3.78971e-08 0.000716607)
(0.214726 -4.19099e-08 0.000742784)
(0.213805 -4.33795e-08 0.000767287)
(0.212853 -4.23401e-08 0.000790214)
(0.21187 -3.95951e-08 0.000811658)
(0.210859 -3.63894e-08 0.000831708)
(0.209822 -3.39947e-08 0.000850446)
(0.20876 -3.3515e-08 0.000867952)
(0.207675 -3.55176e-08 0.000884303)
(0.206568 -4.00215e-08 0.000899573)
(0.205441 -4.64596e-08 0.000913832)
(0.204295 -5.39675e-08 0.000927149)
(0.203131 -6.14829e-08 0.000939591)
(0.20195 -6.80009e-08 0.000951219)
(0.200753 -7.2798e-08 0.000962093)
(0.199542 -7.54327e-08 0.000972269)
(0.198317 -7.58591e-08 0.0009818)
(0.197079 -7.42486e-08 0.000990733)
(0.195828 -7.1062e-08 0.000999115)
(0.194566 -6.68321e-08 0.00100699)
(0.193293 -6.20959e-08 0.00101439)
(0.19201 -5.73178e-08 0.00102137)
(0.190717 -5.28405e-08 0.00102795)
(0.189415 -4.88886e-08 0.00103418)
(0.188103 -4.5523e-08 0.00104008)
(0.186784 -4.2759e-08 0.00104569)
(0.185456 -4.04518e-08 0.00105103)
(0.184121 -3.84987e-08 0.00105614)
(0.182778 -3.68159e-08 0.00106105)
(0.181428 -3.53082e-08 0.00106578)
(0.180071 -3.39529e-08 0.00107036)
(0.178708 -3.27041e-08 0.00107482)
(0.177338 -3.15734e-08 0.00107917)
(0.175961 -3.05568e-08 0.00108344)
(0.174579 -2.96507e-08 0.00108766)
(0.17319 -2.87636e-08 0.00109185)
(0.171795 -2.7888e-08 0.00109602)
(0.170393 -2.68829e-08 0.00110021)
(0.168986 -2.56798e-08 0.00110442)
(0.167572 -2.4134e-08 0.00110869)
(0.166152 -2.21847e-08 0.00111305)
(0.164726 -1.97557e-08 0.0011175)
(0.163293 -1.68546e-08 0.00112208)
(0.161854 -1.35728e-08 0.00112682)
(0.160408 -1.00739e-08 0.00113174)
(0.158954 -6.70453e-09 0.00113686)
(0.157493 -3.84149e-09 0.00114222)
(0.156025 -1.8998e-09 0.00114783)
(0.154549 -1.31349e-09 0.00115373)
(0.153064 -2.38332e-09 0.00115994)
(0.151571 -5.25778e-09 0.00116648)
(0.150068 -9.85311e-09 0.00117339)
(0.148556 -1.56439e-08 0.00118069)
(0.147034 -2.20363e-08 0.00118841)
(0.145501 -2.80593e-08 0.00119658)
(0.143957 -3.28374e-08 0.00120522)
(0.142402 -3.55748e-08 0.00121437)
(0.140834 -3.58793e-08 0.00122406)
(0.139253 -3.37473e-08 0.00123431)
(0.137658 -2.97269e-08 0.00124515)
(0.136049 -2.46671e-08 0.0012566)
(0.134424 -1.97329e-08 0.0012687)
(0.132784 -1.58495e-08 0.00128147)
(0.131126 -1.3706e-08 0.00129494)
(0.129451 -1.34928e-08 0.00130912)
(0.127758 -1.48406e-08 0.00132405)
(0.126045 -1.71402e-08 0.00133976)
(0.124311 -1.96263e-08 0.00135627)
(0.122556 -2.18725e-08 0.00137361)
(0.120779 -2.36734e-08 0.0013918)
(0.118978 -2.52001e-08 0.00141088)
(0.117153 -2.67725e-08 0.00143086)
(0.115302 -2.86266e-08 0.00145178)
(0.113425 -3.06634e-08 0.00147366)
(0.11152 -3.23577e-08 0.00149654)
(0.109586 -3.32524e-08 0.00152043)
(0.107621 -3.29249e-08 0.00154537)
(0.105626 -3.15163e-08 0.00157138)
(0.103597 -2.9605e-08 0.00159851)
(0.101535 -2.80174e-08 0.00162677)
(0.0994378 -2.72331e-08 0.0016562)
(0.0973039 -2.72788e-08 0.00168681)
(0.0951322 -2.75263e-08 0.00171865)
(0.0929212 -2.71989e-08 0.00175173)
(0.0906697 -2.57978e-08 0.00178609)
(0.0883762 -2.36581e-08 0.00182175)
(0.0860394 -2.16365e-08 0.00185871)
(0.0836578 -2.06657e-08 0.001897)
(0.0812301 -2.09702e-08 0.00193662)
(0.0787549 -2.20781e-08 0.00197756)
(0.076231 -2.28891e-08 0.00201982)
(0.073657 -2.27101e-08 0.00206338)
(0.0710318 -2.16365e-08 0.00210821)
(0.0683542 -2.04448e-08 0.00215424)
(0.0656232 -1.9691e-08 0.00220141)
(0.0628379 -1.90057e-08 0.00224963)
(0.0599977 -1.73077e-08 0.00229877)
(0.0571021 -1.39497e-08 0.00234867)
(0.0541508 -9.38102e-09 0.00239915)
(0.0511438 -4.72097e-09 0.00244996)
(0.0480817 -6.70073e-10 0.00250081)
(0.0449652 3.4189e-09 0.00255133)
(0.0417957 8.82517e-09 0.0026011)
(0.0385754 1.55183e-08 0.00264959)
(0.0353067 2.14804e-08 0.00269617)
(0.0319934 2.52724e-08 0.0027401)
(0.0286401 2.82116e-08 0.00278046)
(0.0252524 3.34275e-08 0.00281618)
(0.0218375 4.18948e-08 0.00284596)
(0.0184043 5.04763e-08 0.00286823)
(0.0149635 5.59892e-08 0.0028811)
(0.0115282 6.14488e-08 0.00288227)
(0.00811466 7.2703e-08 0.0028689)
(0.00474099 8.95843e-08 0.00283726)
(0.00143942 1.03686e-07 0.00278198)
(-0.00178513 1.12016e-07 0.00268659)
(-0.00485605 1.25502e-07 0.00254648)
(-0.00775708 1.51368e-07 0.00236486)
(-0.0104258 1.79359e-07 0.00213411)
(-0.0128004 2.03991e-07 0.00184135)
(-0.0148026 2.3151e-07 0.00146987)
(-0.0163351 2.37876e-07 0.00100118)
(-0.0172811 1.68827e-07 0.000411857)
(-0.0175005 3.13713e-09 -0.000320194)
(-0.0168307 -3.23219e-07 -0.00120478)
(-0.0150967 -9.52944e-07 -0.00223025)
(-0.0124059 -1.30678e-06 -0.00332614)
(-0.00808723 2.26568e-06 -0.0042253)
(-0.00343438 8.24891e-06 -0.00360795)
(-0.00144018 2.79029e-05 -0.00148023)
(-0.00937629 -5.26929e-07 0.0116811)
(-0.0163223 -5.87632e-07 0.00815618)
(-0.0223732 -4.53725e-07 0.00158373)
(-0.0199793 -4.67115e-07 -0.00299634)
(-0.0147327 -5.70428e-07 -0.00580314)
(-0.00705411 -6.37785e-07 -0.00747951)
(0.00206579 -6.48468e-07 -0.00837833)
(0.0118281 -5.97231e-07 -0.00872193)
(0.0218914 -5.53077e-07 -0.00876365)
(0.0320157 -5.18349e-07 -0.00864144)
(0.0420307 -4.74742e-07 -0.0084234)
(0.0518408 -4.31783e-07 -0.00815085)
(0.061386 -3.92782e-07 -0.00784925)
(0.0706307 -3.53766e-07 -0.00753438)
(0.079555 -3.18466e-07 -0.00721601)
(0.0881492 -2.90133e-07 -0.00690013)
(0.0964103 -2.63162e-07 -0.00659028)
(0.10434 -2.33127e-07 -0.00628844)
(0.111941 -2.05544e-07 -0.00599561)
(0.11922 -1.88054e-07 -0.00571218)
(0.126183 -1.79792e-07 -0.00543813)
(0.132836 -1.73605e-07 -0.00517322)
(0.139188 -1.6545e-07 -0.00491708)
(0.145245 -1.57139e-07 -0.00466933)
(0.151015 -1.50351e-07 -0.00442956)
(0.156503 -1.42664e-07 -0.00419737)
(0.161718 -1.30325e-07 -0.00397241)
(0.166665 -1.13554e-07 -0.00375436)
(0.171352 -9.7179e-08 -0.00354296)
(0.175785 -8.62331e-08 -0.003338)
(0.17997 -8.15845e-08 -0.00313929)
(0.183913 -8.01073e-08 -0.00294668)
(0.187622 -7.84093e-08 -0.00276005)
(0.191103 -7.59994e-08 -0.0025793)
(0.194361 -7.50361e-08 -0.00240436)
(0.197404 -7.73662e-08 -0.00223517)
(0.200239 -8.21062e-08 -0.00207168)
(0.202871 -8.56889e-08 -0.00191382)
(0.205307 -8.45391e-08 -0.00176156)
(0.207553 -7.77203e-08 -0.00161484)
(0.209617 -6.75436e-08 -0.0014736)
(0.211505 -5.80293e-08 -0.00133779)
(0.213223 -5.22689e-08 -0.00120735)
(0.214777 -5.0689e-08 -0.00108222)
(0.216175 -5.13248e-08 -0.000962312)
(0.217423 -5.15266e-08 -0.000847543)
(0.218526 -4.9939e-08 -0.000737816)
(0.219491 -4.70759e-08 -0.000633029)
(0.220324 -4.46964e-08 -0.000533072)
(0.221031 -4.44566e-08 -0.000437832)
(0.221617 -4.65925e-08 -0.000347183)
(0.222089 -4.97449e-08 -0.000260994)
(0.222453 -5.19074e-08 -0.000179126)
(0.222712 -5.14581e-08 -0.000101437)
(0.222873 -4.80964e-08 -2.7772e-05)
(0.22294 -4.29642e-08 4.21607e-05)
(0.222919 -3.78131e-08 0.000108441)
(0.222813 -3.4219e-08 0.000170963)
(0.222628 -3.26543e-08 0.000229882)
(0.222368 -3.25477e-08 0.000285429)
(0.222036 -3.25401e-08 0.000337785)
(0.221638 -3.13599e-08 0.000387106)
(0.221177 -2.84778e-08 0.000433536)
(0.220656 -2.43203e-08 0.000477215)
(0.220079 -2.0159e-08 0.000518274)
(0.219449 -1.74978e-08 0.000556843)
(0.21877 -1.74521e-08 0.000593049)
(0.218044 -2.03875e-08 0.000627015)
(0.217273 -2.56681e-08 0.00065886)
(0.216462 -3.203e-08 0.000688704)
(0.215612 -3.7897e-08 0.00071666)
(0.214725 -4.19098e-08 0.000742837)
(0.213805 -4.33794e-08 0.000767339)
(0.212852 -4.234e-08 0.000790265)
(0.21187 -3.9595e-08 0.000811707)
(0.210859 -3.63893e-08 0.000831755)
(0.209822 -3.39946e-08 0.000850491)
(0.20876 -3.35149e-08 0.000867996)
(0.207675 -3.55175e-08 0.000884346)
(0.206568 -4.00214e-08 0.000899616)
(0.205441 -4.64595e-08 0.000913876)
(0.204295 -5.39673e-08 0.000927196)
(0.20313 -6.14828e-08 0.00093964)
(0.20195 -6.80008e-08 0.000951272)
(0.200753 -7.27979e-08 0.00096215)
(0.199542 -7.54325e-08 0.000972329)
(0.198317 -7.58589e-08 0.000981862)
(0.197079 -7.42484e-08 0.000990798)
(0.195828 -7.10618e-08 0.000999181)
(0.194566 -6.6832e-08 0.00100706)
(0.193293 -6.20958e-08 0.00101446)
(0.19201 -5.73177e-08 0.00102144)
(0.190717 -5.28404e-08 0.00102802)
(0.189414 -4.88885e-08 0.00103424)
(0.188103 -4.55229e-08 0.00104014)
(0.186784 -4.27589e-08 0.00104575)
(0.185456 -4.04517e-08 0.00105109)
(0.184121 -3.84986e-08 0.0010562)
(0.182778 -3.68158e-08 0.00106111)
(0.181428 -3.53082e-08 0.00106583)
(0.180071 -3.39528e-08 0.00107041)
(0.178708 -3.2704e-08 0.00107486)
(0.177338 -3.15733e-08 0.00107921)
(0.175961 -3.05568e-08 0.00108349)
(0.174579 -2.96506e-08 0.0010877)
(0.17319 -2.87636e-08 0.00109189)
(0.171795 -2.78879e-08 0.00109606)
(0.170393 -2.68828e-08 0.00110024)
(0.168986 -2.56797e-08 0.00110446)
(0.167572 -2.4134e-08 0.00110873)
(0.166152 -2.21847e-08 0.00111308)
(0.164726 -1.97557e-08 0.00111753)
(0.163293 -1.68546e-08 0.00112212)
(0.161854 -1.35727e-08 0.00112686)
(0.160408 -1.00739e-08 0.00113177)
(0.158954 -6.70451e-09 0.00113689)
(0.157493 -3.84148e-09 0.00114225)
(0.156025 -1.8998e-09 0.00114786)
(0.154549 -1.31349e-09 0.00115375)
(0.153064 -2.38332e-09 0.00115995)
(0.151571 -5.25777e-09 0.00116649)
(0.150068 -9.85309e-09 0.0011734)
(0.148556 -1.56439e-08 0.0011807)
(0.147034 -2.20362e-08 0.00118842)
(0.145501 -2.80592e-08 0.00119658)
(0.143957 -3.28373e-08 0.00120523)
(0.142402 -3.55747e-08 0.00121438)
(0.140834 -3.58793e-08 0.00122407)
(0.139253 -3.37472e-08 0.00123432)
(0.137658 -2.97268e-08 0.00124516)
(0.136049 -2.4667e-08 0.00125662)
(0.134424 -1.97328e-08 0.00126872)
(0.132784 -1.58495e-08 0.00128149)
(0.131126 -1.3706e-08 0.00129496)
(0.129451 -1.34928e-08 0.00130914)
(0.127758 -1.48406e-08 0.00132407)
(0.126045 -1.71401e-08 0.00133978)
(0.124311 -1.96262e-08 0.00135629)
(0.122556 -2.18725e-08 0.00137363)
(0.120779 -2.36733e-08 0.00139183)
(0.118978 -2.52e-08 0.0014109)
(0.117153 -2.67724e-08 0.00143089)
(0.115302 -2.86265e-08 0.00145181)
(0.113425 -3.06634e-08 0.00147369)
(0.11152 -3.23576e-08 0.00149656)
(0.109586 -3.32523e-08 0.00152046)
(0.107621 -3.29249e-08 0.0015454)
(0.105626 -3.15162e-08 0.00157142)
(0.103597 -2.9605e-08 0.00159855)
(0.101535 -2.80173e-08 0.00162681)
(0.0994378 -2.72331e-08 0.00165624)
(0.0973039 -2.72787e-08 0.00168686)
(0.0951322 -2.75262e-08 0.0017187)
(0.0929212 -2.71988e-08 0.00175179)
(0.0906697 -2.57977e-08 0.00178615)
(0.0883762 -2.36581e-08 0.0018218)
(0.0860394 -2.16364e-08 0.00185877)
(0.0836578 -2.06656e-08 0.00189706)
(0.0812301 -2.09702e-08 0.00193667)
(0.0787549 -2.20781e-08 0.00197762)
(0.076231 -2.2889e-08 0.00201988)
(0.073657 -2.27101e-08 0.00206344)
(0.0710318 -2.16364e-08 0.00210826)
(0.0683542 -2.04448e-08 0.0021543)
(0.0656232 -1.96909e-08 0.00220147)
(0.062838 -1.90056e-08 0.00224969)
(0.0599978 -1.73076e-08 0.00229883)
(0.0571021 -1.39497e-08 0.00234874)
(0.0541508 -9.38099e-09 0.00239922)
(0.0511439 -4.72095e-09 0.00245003)
(0.0480817 -6.70071e-10 0.00250087)
(0.0449652 3.41888e-09 0.0025514)
(0.0417958 8.82514e-09 0.00260117)
(0.0385754 1.55182e-08 0.00264966)
(0.0353068 2.14803e-08 0.00269624)
(0.0319935 2.52723e-08 0.00274016)
(0.0286402 2.82115e-08 0.00278052)
(0.0252525 3.34274e-08 0.00281624)
(0.0218376 4.18946e-08 0.00284601)
(0.0184044 5.04761e-08 0.00286828)
(0.0149636 5.5989e-08 0.00288115)
(0.0115283 6.14485e-08 0.00288232)
(0.00811481 7.27026e-08 0.00286895)
(0.00474115 8.95838e-08 0.00283731)
(0.0014396 1.03686e-07 0.00278202)
(-0.00178492 1.12016e-07 0.00268663)
(-0.00485579 1.25501e-07 0.00254653)
(-0.00775678 1.51367e-07 0.0023649)
(-0.0104255 1.79358e-07 0.00213414)
(-0.0128 2.03991e-07 0.00184138)
(-0.0148021 2.3151e-07 0.0014699)
(-0.0163347 2.37875e-07 0.00100122)
(-0.0172806 1.68828e-07 0.000411955)
(-0.0175 3.13719e-09 -0.000320068)
(-0.0168305 -3.23248e-07 -0.00120468)
(-0.0150968 -9.53349e-07 -0.00223005)
(-0.0124054 -1.30927e-06 -0.00332559)
(-0.00809309 2.2905e-06 -0.00422111)
(-0.00342254 8.40206e-06 -0.00359818)
(-0.00145201 2.87598e-05 -0.00145134)
(-0.00620133 -1.98165e-07 0.0179521)
(-0.0063006 -1.49127e-07 0.00961326)
(-0.00427854 -7.82616e-08 0.00048689)
(-6.63137e-05 -6.34738e-08 -0.00660355)
(0.00548834 -6.50705e-08 -0.0113002)
(0.0121874 -6.48167e-08 -0.0142598)
(0.01967 -6.07621e-08 -0.0159817)
(0.0276608 -5.91726e-08 -0.0168589)
(0.0359489 -5.7583e-08 -0.0171983)
(0.0443664 -5.2683e-08 -0.0171948)
(0.0527912 -4.67911e-08 -0.0169713)
(0.0611373 -4.13685e-08 -0.0166081)
(0.0693443 -3.55137e-08 -0.0161574)
(0.0773705 -3.03291e-08 -0.0156538)
(0.0851874 -2.71005e-08 -0.01512)
(0.0927763 -2.4009e-08 -0.014571)
(0.100125 -1.90928e-08 -0.0140167)
(0.107227 -1.36702e-08 -0.0134638)
(0.114078 -1.04254e-08 -0.0129162)
(0.120676 -9.7525e-09 -0.0123767)
(0.127022 -9.71255e-09 -0.0118467)
(0.133118 -8.88353e-09 -0.0113271)
(0.138965 -7.69471e-09 -0.0108184)
(0.144568 -6.92756e-09 -0.0103207)
(0.149928 -6.16136e-09 -0.00983403)
(0.155049 -4.20728e-09 -0.00935836)
(0.159936 -7.54072e-10 -0.00889358)
(0.164593 3.01323e-09 -0.0084396)
(0.169023 5.47939e-09 -0.00799636)
(0.173231 6.09615e-09 -0.00756383)
(0.177221 5.68684e-09 -0.00714199)
(0.180998 5.46314e-09 -0.00673085)
(0.184567 5.85337e-09 -0.00633046)
(0.187932 6.27215e-09 -0.00594088)
(0.191099 5.90568e-09 -0.00556216)
(0.194072 4.67781e-09 -0.00519437)
(0.196856 3.44423e-09 -0.00483759)
(0.199457 3.32523e-09 -0.00449187)
(0.20188 4.82148e-09 -0.00415726)
(0.204131 7.41992e-09 -0.00383378)
(0.206214 9.94603e-09 -0.00352144)
(0.208135 1.1388e-08 -0.00322023)
(0.2099 1.1487e-08 -0.00293011)
(0.211513 1.07817e-08 -0.00265101)
(0.212982 1.01116e-08 -0.00238284)
(0.21431 1.00345e-08 -0.00212549)
(0.215503 1.05303e-08 -0.00187881)
(0.216567 1.10985e-08 -0.00164264)
(0.217507 1.11899e-08 -0.00141679)
(0.218328 1.06074e-08 -0.00120105)
(0.219035 9.61556e-09 -0.000995186)
(0.219633 8.76367e-09 -0.000798948)
(0.220127 8.54093e-09 -0.00061207)
(0.220521 9.11676e-09 -0.000434264)
(0.220821 1.02418e-08 -0.000265226)
(0.221031 1.14306e-08 -0.000104627)
(0.221154 1.21987e-08 4.77819e-05)
(0.221196 1.23386e-08 0.000192153)
(0.22116 1.19664e-08 0.000328752)
(0.22105 1.14429e-08 0.000457946)
(0.22087 1.11602e-08 0.00058007)
(0.220624 1.13334e-08 0.000695443)
(0.220315 1.19102e-08 0.000804371)
(0.219946 1.26003e-08 0.000907151)
(0.219521 1.29971e-08 0.00100407)
(0.219042 1.2762e-08 0.00109542)
(0.218513 1.17712e-08 0.00118146)
(0.217936 1.01436e-08 0.00126248)
(0.217314 8.21235e-09 0.00133871)
(0.216649 6.39819e-09 0.00141043)
(0.215944 5.07992e-09 0.00147788)
(0.215201 4.49074e-09 0.00154128)
(0.214422 4.62589e-09 0.00160087)
(0.213609 5.30453e-09 0.00165686)
(0.212764 6.20969e-09 0.00170945)
(0.211889 7.01016e-09 0.00175886)
(0.210985 7.41657e-09 0.00180527)
(0.210054 7.30045e-09 0.00184885)
(0.209098 6.6732e-09 0.00188979)
(0.208117 5.6776e-09 0.00192824)
(0.207114 4.55636e-09 0.00196438)
(0.206089 3.57314e-09 0.00199834)
(0.205044 2.95541e-09 0.00203028)
(0.20398 2.86118e-09 0.00206033)
(0.202897 3.33898e-09 0.00208862)
(0.201797 4.34219e-09 0.00211528)
(0.20068 5.75943e-09 0.00214041)
(0.199548 7.40701e-09 0.00216413)
(0.198401 9.12026e-09 0.00218654)
(0.19724 1.07279e-08 0.00220773)
(0.196066 1.21013e-08 0.00222781)
(0.194878 1.3175e-08 0.00224686)
(0.193678 1.39136e-08 0.00226497)
(0.192467 1.4339e-08 0.0022822)
(0.191244 1.44846e-08 0.00229865)
(0.19001 1.44285e-08 0.00231437)
(0.188765 1.4221e-08 0.00232945)
(0.187511 1.39126e-08 0.00234395)
(0.186247 1.35614e-08 0.00235793)
(0.184973 1.31845e-08 0.00237145)
(0.183689 1.27999e-08 0.00238458)
(0.182397 1.24211e-08 0.00239737)
(0.181096 1.20537e-08 0.00240987)
(0.179786 1.17025e-08 0.00242215)
(0.178468 1.13865e-08 0.00243424)
(0.177141 1.11057e-08 0.00244622)
(0.175806 1.08773e-08 0.00245812)
(0.174462 1.07031e-08 0.00247001)
(0.17311 1.05841e-08 0.00248193)
(0.17175 1.05203e-08 0.00249394)
(0.170381 1.04975e-08 0.00250608)
(0.169004 1.04956e-08 0.00251842)
(0.167618 1.04908e-08 0.00253101)
(0.166224 1.04413e-08 0.0025439)
(0.16482 1.03128e-08 0.00255716)
(0.163408 1.00511e-08 0.00257083)
(0.161986 9.60661e-09 0.00258498)
(0.160554 8.94415e-09 0.00259966)
(0.159113 8.03232e-09 0.00261494)
(0.157661 6.89014e-09 0.00263087)
(0.156199 5.55761e-09 0.00264752)
(0.154725 4.13371e-09 0.00266494)
(0.153241 2.76405e-09 0.00268319)
(0.151744 1.60475e-09 0.00270234)
(0.150235 8.27123e-10 0.00272245)
(0.148713 5.5681e-10 0.00274357)
(0.147178 8.47111e-10 0.00276576)
(0.145629 1.6552e-09 0.00278908)
(0.144065 2.84876e-09 0.00281359)
(0.142485 4.18701e-09 0.00283934)
(0.14089 5.41103e-09 0.0028664)
(0.139278 6.28765e-09 0.0028948)
(0.137649 6.66456e-09 0.00292461)
(0.136001 6.51227e-09 0.00295589)
(0.134335 5.93167e-09 0.00298867)
(0.132648 5.11692e-09 0.00302302)
(0.130942 4.27933e-09 0.00305899)
(0.129213 3.59498e-09 0.00309662)
(0.127462 3.14097e-09 0.00313597)
(0.125688 2.88588e-09 0.00317709)
(0.12389 2.73169e-09 0.00322002)
(0.122066 2.58131e-09 0.00326482)
(0.120216 2.39856e-09 0.00331152)
(0.118339 2.24532e-09 0.00336018)
(0.116434 2.23294e-09 0.00341084)
(0.114499 2.45186e-09 0.00346354)
(0.112534 2.91349e-09 0.00351834)
(0.110538 3.48457e-09 0.00357527)
(0.108509 3.97285e-09 0.00363438)
(0.106446 4.20128e-09 0.0036957)
(0.104349 4.13466e-09 0.00375927)
(0.102216 3.90242e-09 0.00382513)
(0.100045 3.73014e-09 0.00389329)
(0.0978368 3.80057e-09 0.00396379)
(0.095589 4.10705e-09 0.00403664)
(0.0933007 4.46684e-09 0.00411185)
(0.0909709 4.63055e-09 0.0041894)
(0.0885985 4.45542e-09 0.00426927)
(0.0861824 4.03757e-09 0.00435144)
(0.0837216 3.64828e-09 0.00443584)
(0.0812152 3.51313e-09 0.00452239)
(0.0786624 3.64448e-09 0.00461098)
(0.0760623 3.8415e-09 0.00470146)
(0.0734144 3.85863e-09 0.00479365)
(0.070718 3.70063e-09 0.00488731)
(0.0679729 3.61592e-09 0.00498217)
(0.0651789 3.85863e-09 0.00507787)
(0.0623361 4.40212e-09 0.00517399)
(0.0594449 4.89706e-09 0.00527003)
(0.056506 5.04268e-09 0.00536538)
(0.0535204 4.91324e-09 0.00545931)
(0.0504897 4.92561e-09 0.00555099)
(0.047416 5.27968e-09 0.00563941)
(0.0443017 5.5757e-09 0.0057234)
(0.0411504 5.21211e-09 0.00580156)
(0.037966 4.28314e-09 0.00587227)
(0.0347537 3.63877e-09 0.00593362)
(0.0315194 3.91479e-09 0.00598337)
(0.0282706 4.48873e-09 0.00601888)
(0.0250159 4.19938e-09 0.006037)
(0.0217659 3.23044e-09 0.00603404)
(0.0185326 3.29136e-09 0.00600554)
(0.0153309 4.93228e-09 0.00594612)
(0.0121776 6.1011e-09 0.00584887)
(0.00909395 5.23876e-09 0.00570598)
(0.00610148 4.81425e-09 0.00550344)
(0.00322952 7.67159e-09 0.0052303)
(0.000507379 1.12637e-08 0.0048774)
(-0.00202667 1.21108e-08 0.00442773)
(-0.00432692 1.36166e-08 0.00386223)
(-0.00634714 1.93807e-08 0.00315668)
(-0.00803292 2.30661e-08 0.00228302)
(-0.00932617 1.32758e-08 0.00121007)
(-0.0101672 -2.86492e-08 -8.85809e-05)
(-0.0104962 -1.51247e-07 -0.00161711)
(-0.0102527 -4.79419e-07 -0.00333113)
(-0.00941513 -1.33785e-06 -0.0050963)
(-0.00797566 -3.55336e-06 -0.00641114)
(-0.00534176 -7.5201e-06 -0.00614451)
(-0.00329859 -4.8089e-06 -0.00420358)
(-0.0062007 -1.98223e-07 0.0179528)
(-0.00630064 -1.4916e-07 0.00961229)
(-0.0042781 -7.82902e-08 0.000485845)
(-6.57685e-05 -6.34799e-08 -0.00660439)
(0.00548874 -6.50678e-08 -0.0113009)
(0.0121877 -6.48125e-08 -0.0142605)
(0.0196702 -6.07583e-08 -0.0159822)
(0.0276609 -5.91692e-08 -0.0168594)
(0.0359489 -5.758e-08 -0.0171987)
(0.0443664 -5.26804e-08 -0.0171952)
(0.0527911 -4.67889e-08 -0.0169716)
(0.0611371 -4.13667e-08 -0.0166084)
(0.0693441 -3.55123e-08 -0.0161577)
(0.0773702 -3.0328e-08 -0.0156541)
(0.085187 -2.70995e-08 -0.0151202)
(0.0927759 -2.40082e-08 -0.0145712)
(0.100125 -1.90922e-08 -0.0140169)
(0.107226 -1.36698e-08 -0.013464)
(0.114077 -1.04251e-08 -0.0129164)
(0.120675 -9.75224e-09 -0.0123768)
(0.127022 -9.7123e-09 -0.0118468)
(0.133117 -8.88331e-09 -0.0113272)
(0.138965 -7.69454e-09 -0.0108185)
(0.144567 -6.92741e-09 -0.0103208)
(0.149927 -6.16123e-09 -0.00983411)
(0.155049 -4.20719e-09 -0.00935843)
(0.159936 -7.54058e-10 -0.00889364)
(0.164592 3.01318e-09 -0.00843966)
(0.169022 5.47929e-09 -0.00799641)
(0.17323 6.09604e-09 -0.00756387)
(0.177221 5.68675e-09 -0.00714202)
(0.180998 5.46306e-09 -0.00673088)
(0.184567 5.85328e-09 -0.00633049)
(0.187932 6.27206e-09 -0.0059409)
(0.191098 5.9056e-09 -0.00556217)
(0.194071 4.67775e-09 -0.00519439)
(0.196856 3.44419e-09 -0.00483761)
(0.199457 3.32519e-09 -0.00449189)
(0.20188 4.82142e-09 -0.00415727)
(0.20413 7.41984e-09 -0.00383379)
(0.206213 9.94592e-09 -0.00352145)
(0.208134 1.13879e-08 -0.00322024)
(0.209899 1.14869e-08 -0.00293011)
(0.211513 1.07816e-08 -0.00265101)
(0.212981 1.01115e-08 -0.00238284)
(0.214309 1.00344e-08 -0.00212549)
(0.215503 1.05302e-08 -0.00187882)
(0.216567 1.10984e-08 -0.00164265)
(0.217507 1.11898e-08 -0.0014168)
(0.218328 1.06073e-08 -0.00120105)
(0.219034 9.61549e-09 -0.00099519)
(0.219632 8.7636e-09 -0.000798952)
(0.220126 8.54087e-09 -0.000612074)
(0.220521 9.11669e-09 -0.000434268)
(0.220821 1.02417e-08 -0.000265229)
(0.22103 1.14305e-08 -0.000104631)
(0.221154 1.21986e-08 4.77788e-05)
(0.221196 1.23385e-08 0.00019215)
(0.22116 1.19663e-08 0.00032875)
(0.22105 1.14428e-08 0.000457943)
(0.22087 1.11601e-08 0.000580068)
(0.220624 1.13333e-08 0.000695441)
(0.220314 1.19101e-08 0.000804369)
(0.219946 1.26002e-08 0.000907149)
(0.21952 1.29971e-08 0.00100407)
(0.219042 1.2762e-08 0.00109542)
(0.218513 1.17711e-08 0.00118146)
(0.217936 1.01435e-08 0.00126247)
(0.217314 8.2123e-09 0.00133871)
(0.216649 6.39815e-09 0.00141043)
(0.215944 5.0799e-09 0.00147787)
(0.215201 4.49072e-09 0.00154128)
(0.214422 4.62587e-09 0.00160086)
(0.213609 5.3045e-09 0.00165685)
(0.212764 6.20966e-09 0.00170945)
(0.211889 7.01012e-09 0.00175886)
(0.210985 7.41654e-09 0.00180526)
(0.210054 7.30041e-09 0.00184884)
(0.209097 6.67317e-09 0.00188978)
(0.208117 5.67757e-09 0.00192824)
(0.207114 4.55634e-09 0.00196437)
(0.206089 3.57312e-09 0.00199834)
(0.205044 2.9554e-09 0.00203028)
(0.203979 2.86117e-09 0.00206033)
(0.202897 3.33897e-09 0.00208862)
(0.201797 4.34217e-09 0.00211528)
(0.20068 5.7594e-09 0.00214041)
(0.199548 7.40698e-09 0.00216413)
(0.198401 9.12022e-09 0.00218654)
(0.19724 1.07278e-08 0.00220774)
(0.196065 1.21013e-08 0.00222782)
(0.194878 1.31749e-08 0.00224686)
(0.193678 1.39135e-08 0.00226497)
(0.192466 1.4339e-08 0.0022822)
(0.191244 1.44846e-08 0.00229865)
(0.19001 1.44284e-08 0.00231437)
(0.188765 1.42209e-08 0.00232945)
(0.187511 1.39125e-08 0.00234395)
(0.186246 1.35613e-08 0.00235793)
(0.184973 1.31844e-08 0.00237145)
(0.183689 1.27999e-08 0.00238458)
(0.182397 1.24211e-08 0.00239736)
(0.181096 1.20537e-08 0.00240987)
(0.179786 1.17024e-08 0.00242214)
(0.178468 1.13864e-08 0.00243424)
(0.177141 1.11057e-08 0.00244621)
(0.175806 1.08772e-08 0.00245812)
(0.174462 1.07031e-08 0.00247001)
(0.17311 1.05841e-08 0.00248193)
(0.17175 1.05203e-08 0.00249393)
(0.170381 1.04975e-08 0.00250608)
(0.169004 1.04956e-08 0.00251842)
(0.167618 1.04908e-08 0.00253101)
(0.166224 1.04413e-08 0.0025439)
(0.16482 1.03128e-08 0.00255716)
(0.163408 1.00511e-08 0.00257083)
(0.161986 9.60657e-09 0.00258498)
(0.160554 8.94411e-09 0.00259966)
(0.159113 8.03229e-09 0.00261493)
(0.157661 6.89012e-09 0.00263086)
(0.156199 5.55759e-09 0.00264751)
(0.154725 4.13369e-09 0.00266493)
(0.153241 2.76404e-09 0.00268318)
(0.151744 1.60475e-09 0.00270233)
(0.150235 8.2712e-10 0.00272244)
(0.148713 5.56808e-10 0.00274356)
(0.147178 8.47108e-10 0.00276575)
(0.145629 1.65519e-09 0.00278907)
(0.144065 2.84875e-09 0.00281358)
(0.142485 4.18699e-09 0.00283934)
(0.14089 5.41101e-09 0.00286639)
(0.139278 6.28763e-09 0.0028948)
(0.137649 6.66454e-09 0.00292461)
(0.136001 6.51225e-09 0.00295588)
(0.134335 5.93165e-09 0.00298867)
(0.132648 5.11691e-09 0.00302302)
(0.130941 4.27932e-09 0.00305898)
(0.129213 3.59497e-09 0.00309662)
(0.127462 3.14096e-09 0.00313597)
(0.125688 2.88587e-09 0.00317709)
(0.12389 2.73168e-09 0.00322002)
(0.122066 2.5813e-09 0.00326481)
(0.120216 2.39855e-09 0.00331151)
(0.118339 2.24531e-09 0.00336017)
(0.116434 2.23294e-09 0.00341083)
(0.114499 2.45185e-09 0.00346354)
(0.112534 2.91348e-09 0.00351834)
(0.110538 3.48456e-09 0.00357527)
(0.108509 3.97283e-09 0.00363438)
(0.106446 4.20127e-09 0.0036957)
(0.104349 4.13464e-09 0.00375927)
(0.102216 3.9024e-09 0.00382513)
(0.100045 3.73012e-09 0.00389329)
(0.0978368 3.80056e-09 0.00396379)
(0.095589 4.10704e-09 0.00403664)
(0.0933007 4.46682e-09 0.00411185)
(0.0909709 4.63053e-09 0.0041894)
(0.0885985 4.4554e-09 0.00426927)
(0.0861824 4.03756e-09 0.00435144)
(0.0837216 3.64827e-09 0.00443584)
(0.0812152 3.51311e-09 0.00452239)
(0.0786624 3.64446e-09 0.00461098)
(0.0760623 3.84148e-09 0.00470146)
(0.0734144 3.85862e-09 0.00479365)
(0.070718 3.70062e-09 0.00488731)
(0.0679729 3.61591e-09 0.00498217)
(0.0651789 3.85862e-09 0.00507787)
(0.0623361 4.4021e-09 0.005174)
(0.0594449 4.89704e-09 0.00527003)
(0.056506 5.04266e-09 0.00536538)
(0.0535204 4.91322e-09 0.00545932)
(0.0504898 4.92559e-09 0.005551)
(0.047416 5.27966e-09 0.00563942)
(0.0443018 5.57567e-09 0.0057234)
(0.0411504 5.21208e-09 0.00580156)
(0.037966 4.28312e-09 0.00587227)
(0.0347537 3.63875e-09 0.00593363)
(0.0315194 3.91477e-09 0.00598338)
(0.0282706 4.48871e-09 0.00601888)
(0.025016 4.19936e-09 0.00603701)
(0.0217659 3.23042e-09 0.00603405)
(0.0185327 3.29134e-09 0.00600555)
(0.015331 4.93225e-09 0.00594613)
(0.0121777 6.10106e-09 0.00584888)
(0.00909401 5.23873e-09 0.00570598)
(0.00610156 4.81422e-09 0.00550346)
(0.0032296 7.67154e-09 0.00523031)
(0.000507479 1.12636e-08 0.00487741)
(-0.00202655 1.21108e-08 0.00442774)
(-0.00432676 1.36165e-08 0.00386224)
(-0.00634693 1.93806e-08 0.0031567)
(-0.00803267 2.3066e-08 0.00228305)
(-0.00932586 1.32758e-08 0.00121012)
(-0.0101669 -2.86496e-08 -8.85036e-05)
(-0.0104959 -1.5126e-07 -0.00161703)
(-0.0102527 -4.79575e-07 -0.00333107)
(-0.00941663 -1.339e-06 -0.0050964)
(-0.00798195 -3.55353e-06 -0.00641039)
(-0.00535956 -7.52214e-06 -0.00612271)
(-0.00343243 -5.00572e-06 -0.0040738)
(-0.000845087 -2.23484e-07 0.0231228)
(0.00206975 -1.07574e-07 0.006292)
(0.00681861 -5.69022e-08 -0.00492254)
(0.0121487 -4.54374e-08 -0.0128005)
(0.0178725 -3.22116e-08 -0.0181937)
(0.0240376 -2.00026e-08 -0.0217515)
(0.0305946 -1.40195e-08 -0.0239587)
(0.0374722 -1.17952e-08 -0.0251969)
(0.0445787 -9.41659e-09 -0.0257607)
(0.0518188 -6.89712e-09 -0.0258606)
(0.0591101 -4.98588e-09 -0.0256436)
(0.0663856 -3.26452e-09 -0.0252121)
(0.0735927 -1.68404e-09 -0.0246372)
(0.0806912 -7.99819e-10 -0.0239681)
(0.0876509 -1.87823e-10 -0.023239)
(0.0944492 1.11902e-09 -0.0224737)
(0.10107 2.97364e-09 -0.0216886)
(0.107502 4.24859e-09 -0.0208948)
(0.113736 4.32376e-09 -0.0201001)
(0.119767 3.66697e-09 -0.0193097)
(0.125591 3.06491e-09 -0.0185271)
(0.131208 2.74365e-09 -0.0177546)
(0.136615 2.44666e-09 -0.0169936)
(0.141814 2.11017e-09 -0.0162452)
(0.146804 2.15632e-09 -0.01551)
(0.151588 2.98297e-09 -0.0147884)
(0.156166 4.36548e-09 -0.0140807)
(0.160543 5.53621e-09 -0.0133873)
(0.164719 5.8679e-09 -0.0127082)
(0.168697 5.44385e-09 -0.0120437)
(0.172482 4.85941e-09 -0.0113941)
(0.176076 4.58528e-09 -0.0107595)
(0.179482 4.54433e-09 -0.0101402)
(0.182705 4.28352e-09 -0.00953638)
(0.185748 3.53728e-09 -0.00894833)