/*--------------------------------*- C++ -*----------------------------------*\
  =========                 |
  \\      /  F ield         | OpenFOAM: The Open Source CFD Toolbox
   \\    /   O peration     | Website:  https://openfoam.org
    \\  /    A nd           | Version:  8
     \\/     M anipulation  |
\*---------------------------------------------------------------------------*/
FoamFile
{
    version     2.0;
    format      ascii;
    class       volScalarField;
    location    "4600";
    object      epsilon;
}
// * * * * * * * * * * * * * * * * * * * * * * * * * * * * * * * * * * * * * //

dimensions      [0 2 -3 0 0 0 0];

internalField   nonuniform List<scalar> 
48000
(
1.74715
6.81631
12.9502
19.2573
25.8545
32.5059
39.1398
45.7288
52.3431
59.0636
65.7695
72.4879
79.2065
85.9158
92.6063
99.2679
105.89
112.462
118.971
125.407
131.757
138.01
144.154
150.178
156.071
161.823
167.425
172.866
178.14
183.237
188.152
192.879
197.412
201.748
205.883
209.815
213.542
217.063
220.378
223.487
226.393
229.096
231.599
233.903
236.013
237.974
239.763
241.371
242.802
244.061
245.154
246.087
246.867
247.5
247.992
248.349
248.578
248.684
248.674
248.554
248.329
248.005
247.588
247.083
246.495
245.829
245.089
244.281
243.409
242.477
241.489
240.448
239.359
238.224
237.046
235.83
234.576
233.289
231.97
230.622
229.247
227.846
226.422
224.975
223.509
222.023
220.519
218.999
217.463
215.913
214.348
212.77
211.179
209.577
207.962
206.337
204.7
203.053
201.396
199.728
198.05
196.361
194.663
192.955
191.236
189.508
187.769
186.02
184.26
182.49
180.708
178.916
177.113
175.299
173.473
171.635
169.786
167.925
166.052
164.166
162.268
160.358
158.436
156.5
154.553
152.592
150.619
148.633
146.635
144.624
142.601
140.566
138.519
136.459
134.388
132.306
130.213
128.109
125.994
123.87
121.736
119.593
117.441
115.282
113.115
110.941
108.76
106.574
104.383
102.188
99.9897
97.7883
95.585
93.3804
91.1755
88.971
86.7678
84.5667
82.3686
80.1743
77.9847
75.8007
73.6231
71.4527
69.2904
67.1369
64.9931
62.8598
60.7377
58.6274
56.5297
54.4453
52.3746
50.3182
48.2766
46.2502
44.2393
42.2446
40.2666
38.3075
36.3738
34.4674
32.5747
30.6933
28.8231
26.9621
25.1091
23.2624
21.4193
19.5769
17.7314
15.8886
14.0461
12.1874
10.3035
8.38291
6.41001
4.36405
2.22032
0.225081
1.74718
6.81636
12.9502
19.2574
25.8546
32.5061
39.1399
45.7289
52.3432
59.0637
65.7696
72.488
79.2067
85.916
92.6064
99.268
105.89
112.462
118.971
125.407
131.757
138.01
144.154
150.178
156.071
161.824
167.425
172.866
178.14
183.237
188.152
192.879
197.412
201.748
205.883
209.815
213.542
217.063
220.378
223.488
226.393
229.096
231.599
233.903
236.013
237.974
239.763
241.371
242.802
244.061
245.154
246.087
246.867
247.5
247.992
248.349
248.578
248.684
248.674
248.554
248.329
248.005
247.588
247.083
246.495
245.829
245.089
244.281
243.409
242.477
241.489
240.448
239.359
238.224
237.046
235.83
234.576
233.289
231.97
230.622
229.247
227.846
226.422
224.975
223.509
222.023
220.519
218.999
217.463
215.913
214.348
212.77
211.179
209.577
207.962
206.337
204.7
203.053
201.396
199.728
198.05
196.361
194.663
192.955
191.236
189.508
187.769
186.02
184.26
182.49
180.708
178.916
177.113
175.299
173.473
171.635
169.786
167.925
166.052
164.166
162.268
160.358
158.436
156.5
154.553
152.592
150.619
148.633
146.635
144.624
142.601
140.566
138.519
136.459
134.388
132.306
130.213
128.109
125.994
123.87
121.736
119.593
117.441
115.282
113.115
110.941
108.76
106.574
104.383
102.188
99.9897
97.7883
95.585
93.3804
91.1755
88.971
86.7678
84.5667
82.3686
80.1743
77.9847
75.8007
73.6231
71.4527
69.2904
67.1369
64.9931
62.8598
60.7377
58.6274
56.5297
54.4453
52.3746
50.3182
48.2766
46.2502
44.2394
42.2446
40.2666
38.3075
36.3738
34.4674
32.5747
30.6933
28.8231
26.9621
25.1092
23.2624
21.4193
19.5769
17.7314
15.8886
14.0461
12.1874
10.3035
8.38293
6.41005
4.36411
2.22024
0.225075
8.16113
6.96818
8.90163
11.26
13.8186
16.4799
19.2055
21.9506
24.725
27.536
30.3725
33.2325
36.1125
39.0086
41.9166
44.8317
47.7488
50.6624
53.5667
56.4554
59.3224
62.1612
64.9653
67.7284
70.4442
73.1066
75.7097
78.2479
80.7159
83.109
85.4225
87.6526
89.7956
91.8484
93.8083
95.6733
97.4416
99.112
100.684
102.157
103.531
104.806
105.984
107.067
108.057
108.966
109.788
110.524
111.173
111.737
112.22
112.624
112.951
113.206
113.39
113.508
113.563
113.558
113.495
113.379
113.211
112.996
112.735
112.432
112.089
111.71
111.295
110.849
110.373
109.869
109.339
108.785
108.21
107.614
107
106.368
105.721
105.06
104.385
103.698
103.001
102.293
101.577
100.851
100.119
99.3793
98.6334
97.8818
97.1249
96.3631
95.5969
94.8265
94.0523
93.2745
92.4933
91.7089
90.9215
90.1311
89.3378
88.5417
87.7429
86.9414
86.1371
85.3301
84.5202
83.7076
82.892
82.0735
81.252
80.4274
79.5996
78.7686
77.9341
77.0962
76.2548
75.4097
74.5609
73.7083
72.8518
71.9913
71.1268
70.2581
69.3854
68.5084
67.6272
66.7418
65.852
64.958
64.0597
63.1572
62.2505
61.3396
60.4246
59.5056
58.5826
57.6558
56.7253
55.7913
54.8538
53.913
52.9691
52.0224
51.073
50.1211
49.1671
48.211
47.2533
46.2941
45.3338
44.3726
43.411
42.4491
41.4873
40.526
39.5655
38.6062
37.6483
36.6923
35.7386
34.7874
33.8392
32.8943
31.9531
31.0159
30.083
29.1549
28.2317
27.3139
26.4018
25.4956
24.5956
23.702
22.8152
21.9353
21.0624
20.1969
19.3388
18.4883
17.6457
16.8116
15.9866
15.1705
14.3614
13.5588
12.7631
11.9734
11.1894
10.4105
9.63628
8.86633
8.10078
7.34168
6.58814
5.83783
5.09036
4.34756
3.61642
2.91999
2.34812
2.73069
8.1612
6.96817
8.90159
11.2599
13.8185
16.4798
19.2054
21.9505
24.7249
27.536
30.3724
33.2324
36.1124
39.0085
41.9165
44.8316
47.7487
50.6623
53.5665
56.4553
59.3223
62.161
64.9651
67.7283
70.4441
73.1064
75.7095
78.2477
80.7158
83.1088
85.4224
87.6524
89.7954
91.8482
93.8081
95.6731
97.4414
99.1118
100.684
102.156
103.53
104.806
105.984
107.066
108.057
108.965
109.788
110.524
111.173
111.737
112.22
112.623
112.951
113.205
113.39
113.508
113.563
113.557
113.495
113.378
113.211
112.995
112.735
112.432
112.089
111.709
111.295
110.849
110.372
109.868
109.339
108.785
108.21
107.614
107
106.368
105.721
105.06
104.385
103.698
103.001
102.293
101.576
100.851
100.119
99.3791
98.6332
97.8816
97.1247
96.3629
95.5967
94.8263
94.0521
93.2743
92.4931
91.7087
90.9213
90.1309
89.3376
88.5416
87.7428
86.9412
86.1369
85.3299
84.5201
83.7074
82.8919
82.0734
81.2519
80.4273
79.5995
78.7684
77.934
77.0961
76.2546
75.4096
74.5608
73.7081
72.8516
71.9911
71.1266
70.258
69.3852
68.5083
67.6271
66.7416
65.8519
64.9579
64.0596
63.1571
62.2504
61.3395
60.4245
59.5055
58.5825
57.6557
56.7252
55.7911
54.8536
53.9129
52.969
52.0223
51.0729
50.1211
49.167
48.2109
47.2532
46.294
45.3337
44.3725
43.4109
42.449
41.4872
40.5259
39.5654
38.6061
37.6482
36.6923
35.7385
34.7874
33.8392
32.8943
31.953
31.0158
30.083
29.1548
28.2317
27.3139
26.4017
25.4955
24.5955
23.702
22.8152
21.9352
21.0624
20.1968
19.3387
18.4883
17.6457
16.8116
15.9865
15.1705
14.3613
13.5587
12.763
11.9733
11.1893
10.4105
9.63626
8.86631
8.10076
7.34166
6.58813
5.83781
5.09035
4.34756
3.61643
2.91999
2.34813
2.73082
15.2107
9.34255
9.85457
11.2393
12.9254
14.7653
16.6992
18.6937
20.7354
22.8168
24.9311
27.0734
29.2395
31.4256
33.6277
35.8419
38.0639
40.2893
42.5133
44.7311
46.9374
49.1273
51.2953
53.4362
55.5447
57.6157
59.6441
61.6251
63.5542
65.4271
67.2396
68.9882
70.6696
72.2809
73.8194
75.2831
76.6703
77.9796
79.2101
80.3612
81.4329
82.4253
83.3391
84.1757
84.9371
85.6266
86.2446
86.7916
87.2686
87.6772
88.0193
88.2973
88.5134
88.6703
88.7705
88.8167
88.8115
88.7574
88.6573
88.5135
88.3288
88.1055
87.8461
87.553
87.2283
86.8743
86.4931
86.0867
85.6569
85.2057
84.7347
84.2455
83.7398
83.2188
82.6841
82.1367
81.578
81.009
80.4308
79.8441
79.2501
78.6493
78.0426
77.4306
76.8139
76.193
75.5685
74.9408
74.3102
73.6772
73.042
72.4049
71.7661
71.1259
70.4843
69.8415
69.1976
68.5528
67.907
67.2604
66.6129
65.9645
65.3153
64.6652
64.0141
63.3621
62.7091
62.055
61.3998
60.7433
60.0856
59.4265
58.766
58.1039
57.4402
56.7749
56.1078
55.4388
54.7679
54.0951
53.4202
52.7433
52.0642
51.3829
50.6994
50.0136
49.3256
48.6353
47.9428
47.2479
46.5509
45.8516
45.1501
44.4465
43.7409
43.0333
42.3238
41.6124
40.8994
40.1848
39.4687
38.7514
38.0329
37.3134
36.5931
35.8721
35.1507
34.4291
33.7075
32.9861
32.265
31.5447
30.8253
30.107
29.3901
28.6748
27.9615
27.2504
26.5417
25.8357
25.1327
24.4329
23.7366
23.044
22.3554
21.6711
20.9912
20.3161
19.6459
18.9808
18.321
17.6667
17.0182
16.3755
15.7388
15.1083
14.4841
13.8664
13.2553
12.6509
12.0536
11.4632
10.8793
10.3017
9.73047
9.16528
8.60667
8.05449
7.50886
6.97015
6.4391
5.91702
5.40552
4.90616
4.4231
3.96515
3.55222
3.23748
3.22532
5.36949
15.2108
9.34252
9.85451
11.2393
12.9253
14.7653
16.6991
18.6937
20.7353
22.8167
24.931
27.0733
29.2394
31.4255
33.6276
35.8418
38.0638
40.2892
42.5132
44.731
46.9373
49.1272
51.2952
53.4361
55.5446
57.6155
59.644
61.625
63.5541
65.427
67.2395
68.9881
70.6695
72.2807
73.8193
75.283
76.6702
77.9795
79.21
80.3611
81.4328
82.4252
83.339
84.1756
84.937
85.6265
86.2445
86.7915
87.2685
87.677
88.0192
88.2971
88.5133
88.6702
88.7704
88.8166
88.8114
88.7573
88.6572
88.5134
88.3287
88.1054
87.846
87.5528
87.2282
86.8742
86.493
86.0866
85.6568
85.2056
84.7346
84.2454
83.7397
83.2187
82.684
82.1366
81.5779
81.0089
80.4307
79.8441
79.25
78.6492
78.0425
77.4305
76.8138
76.1929
75.5684
74.9407
74.3102
73.6771
73.0419
72.4048
71.766
71.1258
70.4842
69.8414
69.1976
68.5527
67.907
67.2603
66.6128
65.9644
65.3152
64.6651
64.0141
63.3621
62.709
62.055
61.3997
60.7433
60.0855
59.4265
58.7659
58.1038
57.4402
56.7748
56.1077
55.4387
54.7679
54.095
53.4202
52.7432
52.0641
51.3828
50.6993
50.0136
49.3256
48.6353
47.9427
47.2479
46.5508
45.8515
45.1501
44.4465
43.7409
43.0332
42.3237
41.6124
40.8994
40.1848
39.4687
38.7513
38.0328
37.3133
36.593
35.8721
35.1507
34.4291
33.7075
32.986
32.265
31.5447
30.8252
30.1069
29.39
28.6748
27.9615
27.2504
26.5417
25.8357
25.1326
24.4329
23.7365
23.044
22.3554
21.6711
20.9912
20.3161
19.6458
18.9807
18.321
17.6667
17.0182
16.3755
15.7388
15.1083
14.4841
13.8664
13.2552
12.6509
12.0536
11.4632
10.8792
10.3017
9.73046
9.16527
8.60666
8.05448
7.50885
6.97015
6.43909
5.91702
5.40551
4.90616
4.4231
3.96515
3.55223
3.23748
3.22532
5.36943
22.0488
12.1344
11.6265
12.433
13.6831
15.1539
16.7566
18.4469
20.2002
22.0017
23.8413
25.7114
27.6066
29.5219
31.4531
33.396
35.3466
37.3008
39.2545
41.2033
43.1428
45.0684
46.9755
48.8596
50.716
52.5402
54.3277
56.0741
57.7754
59.4276
61.0271
62.5703
64.0544
65.4764
66.834
68.125
69.3478
70.501
71.5837
72.5951
73.535
74.4036
75.2012
75.9288
76.5878
77.1799
77.7061
78.1675
78.5652
78.9008
79.1761
79.3931
79.5539
79.6609
79.7163
79.7226
79.682
79.5972
79.4704
79.3041
79.1006
78.8622
78.5912
78.2896
77.9598
77.6035
77.2229
76.8198
76.3959
75.953
75.4927
75.0164
74.5256
74.0217
73.5059
72.9794
72.4433
71.8986
71.3462
70.7871
70.2219
69.6516
69.0766
68.4978
67.9155
67.3303
66.7427
66.1531
65.5617
64.9691
64.3753
63.7807
63.1855
62.5898
61.9938
61.3977
60.8014
60.2052
59.6089
59.0128
58.4168
57.8208
57.2249
56.6291
56.0334
55.4376
54.8417
54.2457
53.6496
53.0531
52.4564
51.8592
51.2615
50.6633
50.0645
49.465
48.8646
48.2634
47.6613
47.0582
46.4541
45.8488
45.2425
44.6349
44.0261
43.416
42.8047
42.192
41.5781
40.9629
40.3464
39.7286
39.1097
38.4895
37.8682
37.2458
36.6224
35.9981
35.3729
34.7471
34.1205
33.4935
32.8661
32.2384
31.6107
30.983
30.3555
29.7284
29.1019
28.4761
27.8513
27.2276
26.6053
25.9845
25.3655
24.7484
24.1336
23.5212
22.9114
22.3045
21.7006
21.1001
20.5031
19.9098
19.3204
18.7352
18.1543
17.578
17.0064
16.4397
15.8781
15.3218
14.7709
14.2255
13.6859
13.1521
12.6244
12.1028
11.5874
11.0786
10.5763
10.0806
9.59156
9.1092
8.63364
8.16504
7.70375
7.25008
6.80478
6.36872
5.94316
5.53004
5.13222
4.75403
4.40318
4.09451
3.86002
3.78389
4.19187
7.94741
22.0489
12.1344
11.6264
12.433
13.683
15.1538
16.7566
18.4468
20.2001
22.0016
23.8412
25.7114
27.6065
29.5218
31.453
33.3959
35.3465
37.3008
39.2544
41.2032
43.1427
45.0683
46.9754
48.8595
50.7159
52.5401
54.3276
56.074
57.7753
59.4275
61.027
62.5702
64.0543
65.4763
66.8339
68.1249
69.3477
70.5009
71.5836
72.595
73.5349
74.4035
75.2011
75.9287
76.5877
77.1798
77.7061
78.1674
78.5651
78.9007
79.176
79.393
79.5539
79.6608
79.7162
79.7225
79.682
79.5971
79.4704
79.304
79.1005
78.8622
78.5911
78.2896
77.9597
77.6035
77.2229
76.8198
76.3959
75.953
75.4926
75.0164
74.5256
74.0217
73.5059
72.9794
72.4432
71.8985
71.3462
70.787
70.2219
69.6515
69.0766
68.4977
67.9154
67.3303
66.7427
66.153
65.5617
64.969
64.3753
63.7807
63.1854
62.5898
61.9938
61.3976
60.8014
60.2051
59.6089
59.0128
58.4167
57.8208
57.2249
56.6291
56.0333
55.4375
54.8417
54.2457
53.6495
53.0531
52.4563
51.8592
51.2615
50.6633
50.0645
49.4649
48.8646
48.2634
47.6613
47.0582
46.4541
45.8488
45.2424
44.6349
44.026
43.416
42.8046
42.192
41.5781
40.9629
40.3464
39.7286
39.1096
38.4895
37.8682
37.2458
36.6224
35.9981
35.3729
34.747
34.1205
33.4935
32.8661
32.2384
31.6107
30.983
30.3555
29.7284
29.1019
28.4761
27.8513
27.2276
26.6053
25.9845
25.3655
24.7484
24.1336
23.5212
22.9114
22.3045
21.7006
21.1001
20.503
19.9097
19.3204
18.7352
18.1543
17.578
17.0064
16.4397
15.8781
15.3218
14.7709
14.2255
13.6859
13.1521
12.6244
12.1028
11.5874
11.0786
10.5763
10.0806
9.59156
9.1092
8.63364
8.16504
7.70375
7.25008
6.80477
6.36872
5.94316
5.53004
5.13222
4.75403
4.40318
4.09451
3.86002
3.78389
4.19187
7.94739
28.9278
15.1596
13.7465
14.1035
15.0563
16.2997
17.7137
19.2387
20.8412
22.5
24.2013
25.935
27.6935
29.4711
31.2627
33.0638
34.8705
36.6788
38.4847
40.2845
42.0741
43.8495
45.6068
47.3419
49.0506
50.7291
52.3732
53.9792
55.5434
57.0621
58.532
59.95
61.3133
62.6192
63.8655
65.0501
66.1714
67.2281
68.2192
69.1439
70.002
70.7934
71.5184
72.1777
72.7723
73.3034
73.772
74.1793
74.5266
74.8154
75.0473
75.2242
75.3482
75.4213
75.4457
75.4236
75.3574
75.2492
75.1014
74.9162
74.6958
74.4425
74.1583
73.8454
73.5057
73.1413
72.7539
72.3455
71.9176
71.4719
71.01
70.5334
70.0433
69.5412
69.0282
68.5055
67.9741
67.4351
66.8892
66.3375
65.7806
65.2192
64.6541
64.0858
63.5149
62.9417
62.3669
61.7907
61.2135
60.6357
60.0574
59.479
58.9006
58.3223
57.7445
57.167
56.5901
56.0139
55.4382
54.8633
54.2891
53.7156
53.1428
52.5707
51.9993
51.4284
50.8581
50.2883
49.7189
49.1499
48.5811
48.0126
47.4443
46.876
46.3077
45.7393
45.1708
44.6021
44.0331
43.4637
42.894
42.3237
41.753
41.1817
40.6099
40.0374
39.4642
38.8904
38.316
37.7408
37.1651
36.5886
36.0116
35.4339
34.8557
34.2771
33.698
33.1185
32.5387
31.9588
31.3787
30.7986
30.2187
29.639
29.0596
28.4807
27.9025
27.3251
26.7486
26.1733
25.5992
25.0266
24.4556
23.8865
23.3194
22.7544
22.1919
21.6319
21.0748
20.5206
19.9696
19.4219
18.8779
18.3376
17.8012
17.2689
16.741
16.2176
15.6988
15.1848
14.6759
14.1721
13.6737
13.1807
12.6934
12.2118
11.7362
11.2667
10.8034
10.3466
9.89644
9.45303
9.01658
8.58729
8.16546
7.75148
7.34587
6.94933
6.56284
6.1877
5.82577
5.47988
5.15406
4.85474
4.59292
4.38914
4.2872
4.40233
5.18144
10.4986
28.9279
15.1595
13.7464
14.1034
15.0562
16.2997
17.7136
19.2386
20.8411
22.4999
24.2012
25.9349
27.6934
29.471
31.2626
33.0637
34.8704
36.6787
38.4846
40.2844
42.074
43.8494
45.6067
47.3418
49.0505
50.729
52.3731
53.9791
55.5433
57.062
58.5319
59.9499
61.3132
62.6191
63.8654
65.05
66.1713
67.228
68.2191
69.1439
70.0019
70.7933
71.5183
72.1777
72.7722
73.3033
73.7719
74.1792
74.5265
74.8153
75.0472
75.2242
75.3481
75.4212
75.4457
75.4236
75.3573
75.2492
75.1013
74.9161
74.6958
74.4424
74.1582
73.8453
73.5057
73.1412
72.7539
72.3454
71.9175
71.4719
71.01
70.5333
70.0433
69.5412
69.0282
68.5055
67.9741
67.435
66.8892
66.3374
65.7805
65.2192
64.6541
64.0858
63.5148
62.9417
62.3669
61.7907
61.2135
60.6357
60.0574
59.479
58.9005
58.3223
57.7444
57.167
56.5901
56.0138
55.4382
54.8633
54.2891
53.7156
53.1428
52.5707
51.9992
51.4284
50.8581
50.2883
49.7189
49.1498
48.5811
48.0126
47.4443
46.876
46.3077
45.7393
45.1708
44.6021
44.0331
43.4637
42.894
42.3237
41.753
41.1817
40.6098
40.0373
39.4642
38.8904
38.316
37.7408
37.165
36.5886
36.0116
35.4339
34.8557
34.2771
33.6979
33.1185
32.5387
31.9587
31.3787
30.7986
30.2187
29.6389
29.0596
28.4807
27.9025
27.3251
26.7486
26.1733
25.5992
25.0266
24.4556
23.8865
23.3194
22.7544
22.1919
21.6319
21.0748
20.5206
19.9696
19.4219
18.8779
18.3375
17.8012
17.2689
16.741
16.2176
15.6988
15.1848
14.6759
14.1721
13.6737
13.1807
12.6934
12.2118
11.7362
11.2667
10.8034
10.3466
9.89644
9.45303
9.01657
8.58729
8.16546
7.75148
7.34587
6.94933
6.56284
6.1877
5.82577
5.47988
5.15406
4.85474
4.59292
4.38914
4.2872
4.40233
5.18145
10.4986
35.7583
18.3152
16.0697
16.0485
16.7716
17.8532
19.142
20.5634
22.075
23.6503
25.2714
26.9258
28.6042
30.2995
32.0061
33.719
35.4341
37.1476
38.8558
40.5551
42.2421
43.9133
45.5651
47.194
48.7965
50.3691
51.9083
53.4108
54.8731
56.2923
57.6651
58.9889
60.261
61.479
62.6408
63.7446
64.7887
65.7718
66.6931
67.5517
68.3472
69.0797
69.7492
70.3562
70.9016
71.3862
71.8111
72.1773
72.4862
72.7392
72.9378
73.0838
73.1791
73.2257
73.2256
73.1809
73.0938
72.9664
72.8009
72.5994
72.3642
72.0972
71.8005
71.4762
71.1262
70.7524
70.3566
69.9405
69.5058
69.0541
68.587
68.1057
67.6118
67.1064
66.5907
66.0659
65.533
64.993
64.4468
63.8951
63.3389
62.7787
62.2152
61.649
61.0807
60.5106
59.9393
59.3671
58.7944
58.2215
57.6486
57.076
56.5039
55.9323
55.3616
54.7918
54.2229
53.6551
53.0885
52.5229
51.9585
51.3953
50.8332
50.2723
49.7124
49.1536
48.5958
48.0389
47.4829
46.9278
46.3734
45.8196
45.2665
44.7139
44.1618
43.61
43.0586
42.5074
41.9564
41.4056
40.8547
40.3039
39.7531
39.2021
38.6511
38.0999
37.5485
36.9968
36.445
35.893
35.3407
34.7883
34.2357
33.6829
33.13
32.577
32.024
31.471
30.9182
30.3655
29.8131
29.2611
28.7095
28.1585
27.6082
27.0587
26.5102
25.9627
25.4164
24.8716
24.3282
23.7865
23.2467
22.7089
22.1732
21.64
21.1092
20.5812
20.056
19.5339
19.015
18.4996
17.9877
17.4797
16.9755
16.4755
15.9798
15.4886
15.002
14.5202
14.0434
13.5717
13.1053
12.6443
12.189
11.7394
11.2959
10.8585
10.4274
10.003
9.58533
9.17476
8.77156
8.37609
7.9888
7.61026
7.24121
6.88262
6.53579
6.20246
5.88509
5.58719
5.31399
5.07378
4.8807
4.76082
4.76959
5.05321
6.17929
13.0343
35.7584
18.3151
16.0696
16.0484
16.7715
17.8531
19.1419
20.5633
22.0749
23.6502
25.2713
26.9257
28.6041
30.2995
32.006
33.7189
35.434
37.1475
38.8557
40.555
42.242
43.9132
45.565
47.1939
48.7964
50.369
51.9083
53.4107
54.873
56.2922
57.665
58.9888
60.2609
61.4789
62.6407
63.7445
64.7886
65.7717
66.693
67.5516
68.3472
69.0796
69.7491
70.3562
70.9015
71.3861
71.811
72.1773
72.4861
72.7391
72.9377
73.0837
73.1791
73.2257
73.2256
73.1809
73.0938
72.9664
72.8009
72.5994
72.3641
72.0971
71.8005
71.4762
71.1262
70.7524
70.3566
69.9405
69.5058
69.0541
68.5869
68.1057
67.6117
67.1063
66.5907
66.0659
65.533
64.993
64.4467
63.8951
63.3389
62.7787
62.2152
61.649
61.0806
60.5106
59.9393
59.3671
58.7944
58.2215
57.6486
57.076
56.5038
55.9323
55.3616
54.7918
54.2229
53.6551
53.0884
52.5229
51.9585
51.3953
50.8332
50.2722
49.7124
49.1536
48.5958
48.0389
47.4829
46.9278
46.3733
45.8196
45.2665
44.7139
44.1618
43.61
43.0586
42.5074
41.9564
41.4056
40.8547
40.3039
39.7531
39.2021
38.6511
38.0998
37.5484
36.9968
36.445
35.893
35.3407
34.7883
34.2357
33.6829
33.13
32.577
32.024
31.471
30.9182
30.3655
29.8131
29.2611
28.7095
28.1585
27.6082
27.0587
26.5102
25.9627
25.4164
24.8716
24.3282
23.7865
23.2467
22.7089
22.1732
21.64
21.1092
20.5812
20.056
19.5339
19.015
18.4996
17.9877
17.4797
16.9755
16.4755
15.9798
15.4886
15.002
14.5202
14.0434
13.5717
13.1053
12.6443
12.189
11.7394
11.2959
10.8585
10.4274
10.003
9.58533
9.17476
8.77156
8.37609
7.9888
7.61026
7.24121
6.88262
6.53579
6.20246
5.88509
5.58719
5.31399
5.07378
4.8807
4.76082
4.76959
5.05321
6.17931
13.0343
42.6267
21.572
18.5434
18.1876
18.7208
19.6776
20.876
22.2267
23.6789
25.2006
26.7707
28.374
29.9996
31.6394
33.2868
34.9367
36.5848
38.2273
39.8608
41.482
43.0879
44.6755
46.2417
47.7837
49.2983
50.7826
52.2337
53.6487
55.0246
56.3587
57.6484
58.8912
60.0847
61.2268
62.3156
63.3492
64.3264
65.2457
66.1064
66.9076
67.6489
68.3302
68.9516
69.5135
70.0163
70.461
70.8484
71.1796
71.4557
71.6781
71.8484
71.9681
72.039
72.0629
72.0418
71.9777
71.8727
71.7286
71.5477
71.332
71.0835
70.8043
70.4963
70.1615
69.8017
69.4189
69.0147
68.5908
68.1489
67.6906
67.2172
66.7302
66.231
65.7208
65.2007
64.6719
64.1353
63.5921
63.0429
62.4887
61.9302
61.3681
60.803
60.2356
59.6663
59.0957
58.5241
57.9519
57.3796
56.8074
56.2355
55.6642
55.0937
54.5241
53.9557
53.3885
52.8226
52.258
51.695
51.1334
50.5732
50.0146
49.4575
48.9018
48.3476
47.7947
47.2432
46.693
46.1441
45.5963
45.0496
44.5039
43.9592
43.4154
42.8724
42.3301
41.7886
41.2476
40.7072
40.1673
39.6277
39.0886
38.5497
38.0112
37.4729
36.9347
36.3968
35.859
35.3213
34.7837
34.2463
33.7091
33.1719
32.635
32.0982
31.5617
31.0255
30.4897
29.9542
29.4192
28.8848
28.351
27.8179
27.2857
26.7544
26.2241
25.695
25.1671
24.6407
24.1159
23.5927
23.0714
22.552
22.0348
21.5199
21.0074
20.4976
19.9905
19.4863
18.9853
18.4876
17.9932
17.5025
17.0156
16.5326
16.0538
15.5792
15.109
14.6434
14.1827
13.7268
13.2761
12.8306
12.3907
11.9563
11.5278
11.1054
10.6892
10.2795
9.87664
9.48084
9.09247
8.71193
8.3397
7.97638
7.62272
7.27965
6.94842
6.63062
6.32843
6.04483
5.78412
5.55266
5.3605
5.2246
5.17661
5.28365
5.72283
7.18229
15.5615
42.6268
21.5719
18.5433
18.1875
18.7207
19.6775
20.8759
22.2266
23.6788
25.2005
26.7706
28.3739
29.9995
31.6393
33.2867
34.9366
36.5847
38.2272
39.8607
41.4819
43.0878
44.6754
46.2416
47.7836
49.2982
50.7825
52.2336
53.6486
55.0245
56.3586
57.6483
58.8911
60.0846
61.2267
62.3155
63.3492
64.3263
65.2457
66.1063
66.9075
67.6488
68.3302
68.9516
69.5134
70.0163
70.4609
70.8484
71.1795
71.4557
71.6781
71.8483
71.968
72.0389
72.0629
72.0418
71.9777
71.8726
71.7286
71.5477
71.332
71.0835
70.8043
70.4963
70.1615
69.8017
69.4189
69.0146
68.5908
68.1489
67.6905
67.2172
66.7302
66.231
65.7208
65.2007
64.6719
64.1353
63.592
63.0429
62.4886
61.9301
61.368
60.803
60.2356
59.6663
59.0956
58.5241
57.9519
57.3796
56.8073
56.2355
55.6642
55.0937
54.5241
53.9557
53.3885
52.8226
52.258
51.695
51.1333
50.5732
50.0146
49.4575
48.9018
48.3476
47.7947
47.2432
46.693
46.144
45.5962
45.0496
44.5039
43.9592
43.4154
42.8724
42.3301
41.7886
41.2476
40.7072
40.1672
39.6277
39.0886
38.5497
38.0112
37.4728
36.9347
36.3968
35.8589
35.3213
34.7837
34.2463
33.709
33.1719
32.635
32.0982
31.5617
31.0255
30.4897
29.9542
29.4192
28.8848
28.351
27.8179
27.2857
26.7544
26.2241
25.695
25.1671
24.6407
24.1159
23.5927
23.0714
22.552
22.0348
21.5199
21.0074
20.4976
19.9905
19.4863
18.9853
18.4876
17.9932
17.5025
17.0156
16.5326
16.0538
15.5792
15.109
14.6434
14.1827
13.7268
13.2761
12.8306
12.3907
11.9563
11.5278
11.1054
10.6892
10.2795
9.87664
9.48084
9.09247
8.71193
8.3397
7.97638
7.62272
7.27966
6.94842
6.63062
6.32843
6.04483
5.78412
5.55266
5.3605
5.2246
5.17661
5.28365
5.72284
7.18231
15.5615
49.7091
24.9302
21.1466
20.4836
20.8522
21.7072
22.8364
24.1358
25.5463
27.0312
28.5658
30.1327
31.7196
33.3171
34.9182
36.5174
38.1101
39.6928
41.2623
42.8156
44.3502
45.8636
47.3531
48.8165
50.2513
51.655
53.0252
54.3595
55.6554
56.9107
58.123
59.2903
60.4104
61.4815
62.5019
63.4699
64.3842
65.2437
66.0475
66.7949
67.4854
68.1189
68.6953
69.215
69.6783
70.086
70.4388
70.7377
70.9838
71.1784
71.3228
71.4185
71.4673
71.4708
71.4309
71.3494
71.2282
71.0693
70.8746
70.6462
70.3859
70.0958
69.7776
69.4334
69.0648
68.6738
68.2619
67.8309
67.3823
66.9176
66.4383
65.9458
65.4414
64.9262
64.4016
63.8684
63.3278
62.7807
62.228
61.6704
61.1089
60.5439
59.9762
59.4064
58.835
58.2624
57.6891
57.1155
56.5419
55.9686
55.3959
54.8241
54.2532
53.6836
53.1153
52.5485
51.9832
51.4196
50.8577
50.2975
49.739
49.1823
48.6273
48.0741
47.5226
46.9727
46.4245
45.8778
45.3326
44.7889
44.2466
43.7055
43.1657
42.6271
42.0896
41.5532
41.0176
40.483
39.9492
39.4162
38.8839
38.3523
37.8212
37.2907
36.7608
36.2313
35.7022
35.1736
34.6454
34.1177
33.5903
33.0633
32.5367
32.0106
31.4849
30.9597
30.4351
29.911
29.3876
28.8648
28.3428
27.8217
27.3015
26.7823
26.2642
25.7473
25.2317
24.7176
24.205
23.6941
23.185
22.6778
22.1727
21.6698
21.1693
20.6713
20.1759
19.6834
19.1938
18.7073
18.2242
17.7444
17.2682
16.7958
16.3273
15.8629
15.4027
14.9469
14.4957
14.0493
13.6077
13.1713
12.7401
12.3144
11.8943
11.4802
11.0722
10.6706
10.2757
9.88783
9.5073
9.13458
8.77016
8.41464
8.06876
7.73343
7.40979
7.0993
6.8039
6.52613
6.26953
6.03914
5.84243
5.69117
5.6052
5.62161
5.81918
6.40606
8.191
18.0862
49.7092
24.9301
21.1466
20.4835
20.8521
21.7071
22.8363
24.1357
25.5462
27.0311
28.5657
30.1326
31.7195
33.317
34.9181
36.5173
38.11
39.6927
41.2622
42.8155
44.3501
45.8635
47.353
48.8164
50.2512
51.6549
53.0251
54.3594
55.6553
56.9106
58.123
59.2902
60.4104
61.4815
62.5018
63.4698
64.3841
65.2436
66.0474
66.7948
67.4853
68.1188
68.6953
69.2149
69.6782
70.0859
70.4387
70.7377
70.9838
71.1783
71.3227
71.4185
71.4673
71.4708
71.4308
71.3493
71.2281
71.0692
70.8746
70.6461
70.3859
70.0957
69.7776
69.4333
69.0648
68.6737
68.2619
67.8308
67.3822
66.9176
66.4383
65.9458
65.4414
64.9262
64.4015
63.8684
63.3278
62.7807
62.228
61.6704
61.1088
60.5439
59.9762
59.4064
58.835
58.2624
57.6891
57.1155
56.5419
55.9686
55.3959
54.8241
54.2532
53.6836
53.1153
52.5485
51.9832
51.4196
50.8577
50.2975
49.739
49.1823
48.6273
48.0741
47.5226
46.9727
46.4245
45.8778
45.3326
44.7889
44.2465
43.7055
43.1657
42.6271
42.0896
41.5531
41.0176
40.483
39.9492
39.4162
38.8839
38.3523
37.8212
37.2907
36.7608
36.2313
35.7022
35.1736
34.6454
34.1177
33.5903
33.0633
32.5367
32.0106
31.4849
30.9597
30.4351
29.911
29.3876
28.8648
28.3428
27.8217
27.3015
26.7823
26.2642
25.7473
25.2317
24.7176
24.205
23.6941
23.185
22.6778
22.1727
21.6698
21.1693
20.6713
20.1759
19.6834
19.1938
18.7073
18.2242
17.7444
17.2682
16.7958
16.3273
15.8629
15.4027
14.9469
14.4957
14.0493
13.6077
13.1713
12.7401
12.3144
11.8943
11.4802
11.0722
10.6706
10.2757
9.88783
9.5073
9.13458
8.77016
8.41464
8.06876
7.73343
7.40979
7.09931
6.8039
6.52613
6.26953
6.03914
5.84243
5.69117
5.6052
5.62161
5.81919
6.40607
8.19102
18.0862
57.095
28.4137
23.875
22.9191
23.1388
23.907
24.9804
26.2402
27.6196
29.0769
30.5843
32.1224
33.6772
35.2387
36.7991
38.3527
39.895
41.4225
42.9321
44.4215
45.8885
47.331
48.7471
50.135
51.4927
52.8184
54.1101
55.3659
56.584
57.7624
58.8992
59.9926
61.0409
62.0425
62.9957
63.8994
64.7521
65.553
66.3011
66.9958
67.6366
68.2232
68.7558
69.2343
69.6592
70.031
70.3505
70.6184
70.8357
71.0037
71.1235
71.1967
71.2246
71.209
71.1514
71.0537
70.9177
70.7452
70.538
70.298
70.0272
69.7273
69.4001
69.0475
68.6712
68.273
67.8544
67.4171
66.9627
66.4926
66.0082
65.5108
65.0018
64.4824
63.9536
63.4166
62.8723
62.3217
61.7657
61.2051
60.6406
60.0729
59.5026
58.9303
58.3566
57.7819
57.2066
56.6312
56.056
55.4812
54.9073
54.3343
53.7625
53.1921
52.6232
52.056
51.4905
50.9268
50.365
49.8052
49.2473
48.6913
48.1373
47.5852
47.0351
46.4868
45.9403
45.3957
44.8527
44.3115
43.7718
43.2337
42.697
42.1618
41.6279
41.0953
40.5638
40.0335
39.5042
38.976
38.4487
37.9222
37.3967
36.8719
36.3478
35.8245
35.3018
34.7798
34.2584
33.7377
33.2176
32.6981
32.1792
31.6609
31.1434
30.6264
30.1103
29.5948
29.0802
28.5665
28.0536
27.5418
27.031
26.5214
26.013
25.506
25.0004
24.4963
23.9938
23.4931
22.9943
22.4974
22.0027
21.5103
21.0202
20.5326
20.0478
19.5657
19.0865
18.6105
18.1377
17.6683
17.2025
16.7404
16.2821
15.8278
15.3778
14.9321
14.4909
14.0544
13.6228
13.1962
12.7749
12.3591
11.949
11.5449
11.147
10.7556
10.3711
9.99383
9.62422
9.2628
8.91014
8.56698
8.23416
7.91276
7.6041
7.3099
7.03236
6.77445
6.5402
6.33541
6.16864
6.05339
6.01244
6.0882
6.37146
7.10187
9.20988
20.6276
57.0952
28.4136
23.8749
22.919
23.1387
23.9069
24.9803
26.2401
27.6196
29.0768
30.5842
32.1223
33.6771
35.2386
36.799
38.3526
39.8949
41.4224
42.932
44.4214
45.8884
47.3309
48.747
50.1349
51.4926
52.8183
54.11
55.3658
56.5839
57.7623
58.8991
59.9925
61.0408
62.0424
62.9957
63.8993
64.7521
65.5529
66.301
66.9957
67.6365
68.2232
68.7557
69.2342
69.6591
70.031
70.3504
70.6183
70.8357
71.0036
71.1235
71.1966
71.2246
71.2089
71.1514
71.0537
70.9177
70.7451
70.538
70.298
70.0272
69.7272
69.4001
69.0475
68.6712
68.2729
67.8544
67.4171
66.9627
66.4925
66.0081
65.5108
65.0018
64.4823
63.9536
63.4166
62.8723
62.3217
61.7657
61.2051
60.6406
60.0728
59.5026
58.9303
58.3566
57.7819
57.2066
56.6312
56.056
55.4812
54.9072
54.3343
53.7625
53.1921
52.6232
52.056
51.4905
50.9268
50.365
49.8052
49.2472
48.6913
48.1373
47.5852
47.035
46.4868
45.9403
45.3957
44.8527
44.3115
43.7718
43.2337
42.697
42.1618
41.6279
41.0952
40.5638
40.0335
39.5042
38.976
38.4487
37.9222
37.3966
36.8718
36.3478
35.8245
35.3018
34.7798
34.2584
33.7377
33.2176
32.6981
32.1792
31.6609
31.1433
30.6264
30.1103
29.5948
29.0802
28.5665
28.0536
27.5418
27.031
26.5214
26.013
25.506
25.0003
24.4963
23.9938
23.4931
22.9943
22.4974
22.0027
21.5103
21.0202
20.5326
20.0478
19.5657
19.0865
18.6105
18.1377
17.6683
17.2025
16.7404
16.2821
15.8278
15.3778
14.9321
14.4909
14.0544
13.6228
13.1962
12.7749
12.3591
11.949
11.5449
11.147
10.7556
10.3711
9.99383
9.62422
9.2628
8.91014
8.56698
8.23416
7.91276
7.60411
7.3099
7.03237
6.77445
6.5402
6.33541
6.16864
6.05339
6.01244
6.0882
6.37146
7.10188
9.2099
20.6276
64.6852
32.0155
26.7238
25.4848
25.5662
26.2573
27.2833
28.5107
29.8649
31.2994
32.7833
34.2955
35.8207
37.348
38.8692
40.3783
41.871
43.3437
44.794
46.2198
47.6193
48.9911
50.3337
51.6459
52.9264
54.1739
55.3869
56.5641
57.704
58.8052
59.8662
60.8855
61.8617
62.7934
63.6794
64.5184
65.3094
66.0513
66.7436
67.3854
67.9763
68.5162
69.0048
69.4423
69.8289
70.1651
70.4515
70.6888
70.8779
71.0199
71.1158
71.1669
71.1747
71.1407
71.0664
70.9534
70.8034
70.6181
70.3993
70.1488
69.8683
69.5596
69.2245
68.8646
68.4816
68.0772
67.6529
67.2105
66.7512
66.2766
65.788
65.2868
64.7741
64.2512
63.7193
63.1792
62.6321
62.0788
61.5203
60.9572
60.3904
59.8205
59.2482
58.674
58.0985
57.5221
56.9453
56.3684
55.7918
55.2158
54.6407
54.0668
53.4941
52.923
52.3535
51.7858
51.22
50.6562
50.0944
49.5347
48.977
48.4215
47.8681
47.3168
46.7675
46.2203
45.6751
45.1319
44.5906
44.0511
43.5134
42.9775
42.4431
41.9104