/*--------------------------------*- C++ -*----------------------------------*\
  =========                 |
  \\      /  F ield         | OpenFOAM: The Open Source CFD Toolbox
   \\    /   O peration     | Website:  https://openfoam.org
    \\  /    A nd           | Version:  8
     \\/     M anipulation  |
\*---------------------------------------------------------------------------*/
FoamFile
{
    version     2.0;
    format      ascii;
    class       surfaceScalarField;
    location    "4600";
    object      phi;
}
// * * * * * * * * * * * * * * * * * * * * * * * * * * * * * * * * * * * * * //

dimensions      [1 0 -1 0 0 0 0];

internalField   nonuniform List<scalar> 
119360
(
-3.49946e-07
2.09143e-12
3.49944e-07
-6.41946e-07
2.63397e-13
2.91959e-07
-7.96994e-07
2.40972e-13
1.55037e-07
-8.20745e-07
1.19958e-13
2.37417e-08
-7.44093e-07
4.47962e-14
-7.6661e-08
-5.96531e-07
-9.63232e-15
-1.47569e-07
-4.00464e-07
-4.51038e-14
-1.96075e-07
-1.72195e-07
-6.84739e-14
-2.28277e-07
7.64429e-08
-8.79583e-14
-2.48645e-07
3.36523e-07
-1.00254e-13
-2.60088e-07
6.01647e-07
-9.83942e-14
-2.65131e-07
8.67539e-07
-8.99286e-14
-2.65898e-07
1.13104e-06
-7.86875e-14
-2.63512e-07
1.38985e-06
-6.61142e-14
-2.58815e-07
1.64224e-06
-5.29857e-14
-2.52398e-07
1.88693e-06
-3.99961e-14
-2.44695e-07
2.12296e-06
-2.75615e-14
-2.36031e-07
2.34961e-06
-1.59319e-14
-2.26659e-07
2.56638e-06
-5.357e-15
-2.16772e-07
2.7729e-06
4.21871e-15
-2.06528e-07
2.96895e-06
1.27813e-14
-1.96052e-07
3.15439e-06
2.03864e-14
-1.85445e-07
3.32917e-06
2.72559e-14
-1.74794e-07
3.49334e-06
3.31263e-14
-1.64168e-07
3.64696e-06
3.82611e-14
-1.53627e-07
3.79017e-06
4.27159e-14
-1.43221e-07
3.92316e-06
4.64074e-14
-1.32991e-07
4.04613e-06
4.94467e-14
-1.22974e-07
4.15932e-06
5.19169e-14
-1.132e-07
4.26301e-06
5.38043e-14
-1.03695e-07
4.35749e-06
5.52754e-14
-9.44792e-08
4.44305e-06
5.61775e-14
-8.55703e-08
4.52003e-06
5.67326e-14
-7.69824e-08
4.58875e-06
5.68298e-14
-6.87264e-08
4.64955e-06
5.65939e-14
-6.08107e-08
4.70279e-06
5.59971e-14
-5.3241e-08
4.74881e-06
5.50812e-14
-4.60208e-08
4.78795e-06
5.39849e-14
-3.91517e-08
4.82058e-06
5.27221e-14
-3.26332e-08
4.84704e-06
5.10567e-14
-2.64633e-08
4.86767e-06
4.94608e-14
-2.06387e-08
4.88282e-06
4.75873e-14
-1.51545e-08
4.89282e-06
4.56861e-14
-1.00051e-08
4.898e-06
4.366e-14
-5.18339e-09
4.89868e-06
4.15228e-14
-6.79932e-10
4.89516e-06
3.94412e-14
3.51426e-09
4.88775e-06
3.73179e-14
7.40791e-09
4.87673e-06
3.52362e-14
1.10119e-08
4.86239e-06
3.3113e-14
1.43373e-08
4.84499e-06
3.10868e-14
1.73952e-08
4.82479e-06
2.90746e-14
2.01968e-08
4.80203e-06
2.71456e-14
2.27534e-08
4.77695e-06
2.53137e-14
2.50766e-08
4.74977e-06
2.35374e-14
2.71782e-08
4.7207e-06
2.1886e-14
2.90697e-08
4.68993e-06
2.03456e-14
3.07627e-08
4.65766e-06
1.89162e-14
3.22689e-08
4.62406e-06
1.76255e-14
3.35995e-08
4.58929e-06
1.64598e-14
3.47656e-08
4.55351e-06
1.53358e-14
3.57782e-08
4.51686e-06
1.43505e-14
3.66478e-08
4.47947e-06
1.35178e-14
3.73846e-08
4.44147e-06
1.28656e-14
3.79985e-08
4.40296e-06
1.22966e-14
3.84992e-08
4.36406e-06
1.18386e-14
3.88956e-08
4.32487e-06
1.1464e-14
3.91966e-08
4.28545e-06
1.12697e-14
3.94105e-08
4.2459e-06
1.11587e-14
3.95453e-08
4.20629e-06
1.11309e-14
3.96084e-08
4.16668e-06
1.1242e-14
3.96069e-08
4.12713e-06
1.14224e-14
3.95476e-08
4.08769e-06
1.17139e-14
3.94366e-08
4.04841e-06
1.20747e-14
3.928e-08
4.00932e-06
1.25188e-14
3.90832e-08
3.97047e-06
1.30045e-14
3.88514e-08
3.93188e-06
1.35596e-14
3.85892e-08
3.89357e-06
1.42119e-14
3.83012e-08
3.85558e-06
1.48642e-14
3.79915e-08
3.81791e-06
1.56275e-14
3.76637e-08
3.78059e-06
1.64046e-14
3.73215e-08
3.74362e-06
1.7265e-14
3.69679e-08
3.70701e-06
1.81394e-14
3.6606e-08
3.67077e-06
1.90275e-14
3.62384e-08
3.6349e-06
1.9999e-14
3.58674e-08
3.5994e-06
2.08872e-14
3.54955e-08
3.56427e-06
2.18586e-14
3.51245e-08
3.52952e-06
2.27884e-14
3.47563e-08
3.49512e-06
2.37737e-14
3.43926e-08
3.46108e-06
2.47729e-14
3.40348e-08
3.4274e-06
2.57305e-14
3.36844e-08
3.39405e-06
2.68268e-14
3.33424e-08
3.36104e-06
2.78954e-14
3.30101e-08
3.32835e-06
2.88391e-14
3.26884e-08
3.29597e-06
2.99355e-14
3.23782e-08
3.26388e-06
3.09208e-14
3.20802e-08
3.23209e-06
3.18367e-14
3.17953e-08
3.20056e-06
3.28498e-14
3.1524e-08
3.16929e-06
3.38906e-14
3.1267e-08
3.13826e-06
3.48343e-14
3.10246e-08
3.10746e-06
3.57224e-14
3.07975e-08
3.07687e-06
3.668e-14
3.05861e-08
3.04648e-06
3.76237e-14
3.03906e-08
3.01627e-06
3.85951e-14
3.02116e-08
2.98621e-06
3.9511e-14
3.00492e-08
2.95631e-06
4.0427e-14
2.99038e-08
2.92653e-06
4.13151e-14
2.97757e-08
2.89686e-06
4.22311e-14
2.96651e-08
2.86729e-06
4.31192e-14
2.95722e-08
2.83779e-06
4.39935e-14
2.94972e-08
2.80834e-06
4.47984e-14
2.94404e-08
2.77894e-06
4.56727e-14
2.94019e-08
2.74955e-06
4.65747e-14
2.93818e-08
2.72017e-06
4.74351e-14
2.93804e-08
2.69077e-06
4.82123e-14
2.93978e-08
2.66133e-06
4.90449e-14
2.94341e-08
2.63184e-06
4.98776e-14
2.94894e-08
2.60227e-06
5.06964e-14
2.95638e-08
2.57261e-06
5.1529e-14
2.96575e-08
2.54284e-06
5.22507e-14
2.97704e-08
2.51293e-06
5.30972e-14
2.99028e-08
2.48288e-06
5.38882e-14
3.00545e-08
2.45265e-06
5.4596e-14
3.02257e-08
2.42223e-06
5.54147e-14
3.04164e-08
2.3916e-06
5.61919e-14
3.06265e-08
2.36074e-06
5.69274e-14
3.08561e-08
2.32963e-06
5.76629e-14
3.11051e-08
2.29825e-06
5.8329e-14
3.13734e-08
2.26659e-06
5.90923e-14
3.16609e-08
2.23462e-06
5.98278e-14
3.19676e-08
2.20232e-06
6.05355e-14
3.22932e-08
2.16968e-06
6.12849e-14
3.26376e-08
2.13668e-06
6.19649e-14
3.30006e-08
2.10329e-06
6.27004e-14
3.33819e-08
2.06951e-06
6.34221e-14
3.37812e-08
2.0353e-06
6.40604e-14
3.41982e-08
2.00067e-06
6.48098e-14
3.46326e-08
1.96558e-06
6.55592e-14
3.50839e-08
1.93002e-06
6.62531e-14
3.55516e-08
1.89399e-06
6.68914e-14
3.60352e-08
1.85745e-06
6.76131e-14
3.65343e-08
1.8204e-06
6.81682e-14
3.7048e-08
1.78282e-06
6.88898e-14
3.75759e-08
1.74469e-06
6.95282e-14
3.8117e-08
1.70602e-06
7.02498e-14
3.86706e-08
1.66678e-06
7.09159e-14
3.92358e-08
1.62696e-06
7.15543e-14
3.98116e-08
1.58656e-06
7.21927e-14
4.0397e-08
1.54557e-06
7.2831e-14
4.09908e-08
1.50397e-06
7.34694e-14
4.15919e-08
1.46177e-06
7.408e-14
4.21988e-08
1.41895e-06
7.47461e-14
4.28101e-08
1.37553e-06
7.53845e-14
4.34243e-08
1.33148e-06
7.62172e-14
4.40397e-08
1.28682e-06
7.70776e-14
4.46546e-08
1.24155e-06
7.81323e-14
4.52668e-08
1.19567e-06
7.9298e-14
4.58745e-08
1.14919e-06
8.07135e-14
4.64751e-08
1.10212e-06
8.23511e-14
4.70664e-08
1.05447e-06
8.41552e-14
4.76455e-08
1.00625e-06
8.63756e-14
4.82096e-08
9.57494e-07
8.86238e-14
4.87556e-08
9.08209e-07
9.11218e-14
4.92799e-08
8.58425e-07
9.37031e-14
4.97788e-08
8.08172e-07
9.62288e-14
5.02481e-08
7.57483e-07
9.87268e-14
5.06834e-08
7.06398e-07
1.00836e-13
5.10796e-08
6.54961e-07
1.02529e-13
5.14312e-08
6.03223e-07
1.03667e-13
5.17321e-08
5.51242e-07
1.03862e-13
5.19754e-08
4.99082e-07
1.03695e-13
5.21538e-08
4.46817e-07
1.0289e-13
5.22586e-08
3.9453e-07
1.01502e-13
5.22805e-08
3.42315e-07
1.00059e-13
5.22087e-08
2.90278e-07
9.86713e-14
5.20313e-08
2.38536e-07
9.78941e-14
5.17345e-08
1.87227e-07
9.79496e-14
5.13028e-08
1.36502e-07
9.89766e-14
5.07182e-08
8.6536e-08
1.00697e-13
4.99593e-08
3.75287e-08
1.02751e-13
4.90004e-08
-1.02872e-08
1.03473e-13
4.78088e-08
-5.66269e-08
1.01142e-13
4.63325e-08
-1.01172e-07
9.63676e-14
4.45377e-08
-1.43579e-07
9.00115e-14
4.23998e-08
-1.83459e-07
8.27118e-14
3.98731e-08
-2.20358e-07
7.7355e-14
3.68911e-08
-2.53741e-07
7.78546e-14
3.33757e-08
-2.82991e-07
8.8818e-14
2.92429e-08
-3.07382e-07
1.14464e-13
2.43841e-08
-3.26066e-07
1.5421e-13
1.86763e-08
-3.38045e-07
2.0256e-13
1.19719e-08
-3.42154e-07
2.46137e-13
4.10004e-09
-3.37064e-07
2.6501e-13
-5.09834e-09
-3.21315e-07
2.42639e-13
-1.57596e-08
-2.93346e-07
1.80245e-13
-2.79805e-08
-2.51697e-07
1.10856e-13
-4.16606e-08
-1.95554e-07
9.92541e-14
-5.61548e-08
-1.26075e-07
1.80134e-13
-6.949e-08
-4.93967e-08
2.3237e-13
-7.66931e-08
1.08205e-08
7.07211e-14
-6.02384e-08
-6.3527e-13
1.07888e-08
-3.49956e-07
3.49935e-07
-6.41946e-07
2.91956e-07
-7.96993e-07
1.55034e-07
-8.20744e-07
2.37398e-08
-7.44091e-07
-7.66627e-08
-5.96529e-07
-1.47571e-07
-4.00462e-07
-1.96076e-07
-1.72192e-07
-2.28279e-07
7.6445e-08
-2.48646e-07
3.36525e-07
-2.60089e-07
6.01649e-07
-2.65132e-07
8.6754e-07
-2.659e-07
1.13105e-06
-2.63513e-07
1.38985e-06
-2.58816e-07
1.64225e-06
-2.52399e-07
1.88693e-06
-2.44696e-07
2.12296e-06
-2.36032e-07
2.34961e-06
-2.26659e-07
2.56638e-06
-2.16773e-07
2.7729e-06
-2.06529e-07
2.96895e-06
-1.96052e-07
3.15439e-06
-1.85446e-07
3.32917e-06
-1.74795e-07
3.49334e-06
-1.64169e-07
3.64696e-06
-1.53628e-07
3.79017e-06
-1.43221e-07
3.92316e-06
-1.32992e-07
4.04613e-06
-1.22975e-07
4.15932e-06
-1.13201e-07
4.26301e-06
-1.03696e-07
4.35749e-06
-9.44799e-08
4.44305e-06
-8.5571e-08
4.52003e-06
-7.6983e-08
4.58875e-06
-6.87271e-08
4.64955e-06
-6.08114e-08
4.70279e-06
-5.32416e-08
4.74881e-06
-4.60215e-08
4.78795e-06
-3.91523e-08
4.82058e-06
-3.26338e-08
4.84704e-06
-2.6464e-08
4.86767e-06
-2.06393e-08
4.88282e-06
-1.51551e-08
4.89282e-06
-1.00057e-08
4.898e-06
-5.18398e-09
4.89868e-06
-6.80518e-10
4.89516e-06
3.51368e-09
4.88775e-06
7.40734e-09
4.87673e-06
1.10113e-08
4.86239e-06
1.43367e-08
4.84499e-06
1.73946e-08
4.82479e-06
2.01962e-08
4.80203e-06
2.27528e-08
4.77695e-06
2.50761e-08
4.74977e-06
2.71776e-08
4.7207e-06
2.90691e-08
4.68993e-06
3.07622e-08
4.65766e-06
3.22684e-08
4.62406e-06
3.3599e-08
4.58929e-06
3.47651e-08
4.55351e-06
3.57777e-08
4.51685e-06
3.66473e-08
4.47947e-06
3.73841e-08
4.44146e-06
3.79981e-08
4.40296e-06
3.84987e-08
4.36406e-06
3.88951e-08
4.32486e-06
3.91961e-08
4.28545e-06
3.94101e-08
4.2459e-06
3.95448e-08
4.20629e-06
3.96079e-08
4.16668e-06
3.96064e-08
4.12713e-06
3.95471e-08
4.08769e-06
3.94362e-08
4.04841e-06
3.92796e-08
4.00932e-06
3.90828e-08
3.97047e-06
3.88509e-08
3.93188e-06
3.85888e-08
3.89357e-06
3.83008e-08
3.85558e-06
3.79911e-08
3.81791e-06
3.76633e-08
3.78059e-06
3.73211e-08
3.74362e-06
3.69675e-08
3.70701e-06
3.66056e-08
3.67077e-06
3.6238e-08
3.6349e-06
3.58671e-08
3.5994e-06
3.54951e-08
3.56427e-06
3.51241e-08
3.52951e-06
3.47559e-08
3.49512e-06
3.43922e-08
3.46108e-06
3.40344e-08
3.4274e-06
3.3684e-08
3.39405e-06
3.3342e-08
3.36104e-06
3.30097e-08
3.32835e-06
3.2688e-08
3.29597e-06
3.23778e-08
3.26388e-06
3.20799e-08
3.23209e-06
3.17949e-08
3.20056e-06
3.15236e-08
3.16929e-06
3.12666e-08
3.13826e-06
3.10243e-08
3.10746e-06
3.07972e-08
3.07687e-06
3.05857e-08
3.04648e-06
3.03903e-08
3.01627e-06
3.02112e-08
2.98621e-06
3.00488e-08
2.95631e-06
2.99034e-08
2.92653e-06
2.97753e-08
2.89686e-06
2.96647e-08
2.86729e-06
2.95718e-08
2.83779e-06
2.94968e-08
2.80834e-06
2.944e-08
2.77894e-06
2.94015e-08
2.74955e-06
2.93814e-08
2.72017e-06
2.938e-08
2.69077e-06
2.93974e-08
2.66133e-06
2.94337e-08
2.63184e-06
2.9489e-08
2.60227e-06
2.95634e-08
2.57261e-06
2.9657e-08
2.54284e-06
2.977e-08
2.51293e-06
2.99023e-08
2.48288e-06
3.00541e-08
2.45265e-06
3.02253e-08
2.42223e-06
3.04159e-08
2.3916e-06
3.06261e-08
2.36074e-06
3.08556e-08
2.32963e-06
3.11046e-08
2.29825e-06
3.13729e-08
2.26659e-06
3.16605e-08
2.23462e-06
3.19671e-08
2.20232e-06
3.22927e-08
2.16968e-06
3.26371e-08
2.13668e-06
3.30001e-08
2.10329e-06
3.33814e-08
2.06951e-06
3.37807e-08
2.0353e-06
3.41977e-08
2.00067e-06
3.46321e-08
1.96558e-06
3.50833e-08
1.93002e-06
3.5551e-08
1.89399e-06
3.60347e-08
1.85745e-06
3.65337e-08
1.8204e-06
3.70475e-08
1.78282e-06
3.75753e-08
1.74469e-06
3.81164e-08
1.70602e-06
3.867e-08
1.66678e-06
3.92352e-08
1.62696e-06
3.9811e-08
1.58656e-06
4.03964e-08
1.54557e-06
4.09902e-08
1.50397e-06
4.15912e-08
1.46177e-06
4.21981e-08
1.41895e-06
4.28095e-08
1.37553e-06
4.34237e-08
1.33148e-06
4.40391e-08
1.28682e-06
4.46539e-08
1.24155e-06
4.52662e-08
1.19567e-06
4.58738e-08
1.14919e-06
4.64744e-08
1.10212e-06
4.70657e-08
1.05447e-06
4.76448e-08
1.00626e-06
4.82089e-08
9.57495e-07
4.87549e-08
9.08209e-07
4.92792e-08
8.58425e-07
4.9778e-08
8.08172e-07
5.02474e-08
7.57483e-07
5.06826e-08
7.06398e-07
5.10788e-08
6.54961e-07
5.14304e-08
6.03223e-07
5.17312e-08
5.51242e-07
5.19746e-08
4.99082e-07
5.21529e-08
4.46817e-07
5.22578e-08
3.94531e-07
5.22796e-08
3.42316e-07
5.22078e-08
2.90278e-07
5.20304e-08
2.38537e-07
5.17336e-08
1.87227e-07
5.13019e-08
1.36502e-07
5.07172e-08
8.65363e-08
4.99583e-08
3.75289e-08
4.89994e-08
-1.0287e-08
4.78078e-08
-5.66267e-08
4.63315e-08
-1.01172e-07
4.45367e-08
-1.43579e-07
4.23988e-08
-1.83459e-07
3.98721e-08
-2.20357e-07
3.68901e-08
-2.5374e-07
3.33747e-08
-2.8299e-07
2.92418e-08
-3.07382e-07
2.43831e-08
-3.26065e-07
1.86752e-08
-3.38045e-07
1.19708e-08
-3.42154e-07
4.09882e-09
-3.37065e-07
-5.09969e-09
-3.21316e-07
-1.57611e-08
-2.93346e-07
-2.79822e-08
-2.51697e-07
-4.16623e-08
-1.95554e-07
-5.61564e-08
-1.26077e-07
-6.94911e-08
-4.94003e-08
-7.66948e-08
1.08151e-08
-6.02421e-08
1.07776e-08
-2.67174e-07
2.03717e-13
6.17079e-07
-3.38723e-07
1.43473e-14
3.63488e-07
-3.27712e-07
2.52147e-14
1.44016e-07
-2.61966e-07
-1.03474e-15
-4.20126e-08
-1.5105e-07
-1.02008e-14
-1.87586e-07
-3.09164e-09
-1.71465e-14
-2.95535e-07
1.73747e-07
-2.24547e-14
-3.72921e-07
3.71846e-07
-2.6389e-14
-4.26383e-07
5.84906e-07
-2.91437e-14
-4.61712e-07
8.07808e-07
-3.03094e-14
-4.82996e-07
1.03639e-06
-2.98236e-14
-4.9372e-07
1.26722e-06
-2.88383e-14
-4.96733e-07
1.4976e-06
-2.74748e-14
-4.939e-07
1.72542e-06
-2.59031e-14
-4.86642e-07
1.94902e-06
-2.42273e-14
-4.76001e-07
2.16709e-06
-2.25342e-14
-4.62769e-07
2.37861e-06
-2.09001e-14
-4.47555e-07
2.58278e-06
-1.93457e-14
-4.30837e-07
2.779e-06
-1.78851e-14
-4.12995e-07
2.9668e-06
-1.6532e-14
-3.94333e-07
3.14584e-06
-1.5283e-14
-3.75103e-07
3.3159e-06
-1.41554e-14
-3.55511e-07
3.47683e-06
-1.31076e-14
-3.35727e-07
3.62855e-06
-1.21639e-14
-3.15898e-07
3.77106e-06
-1.1293e-14
-2.96144e-07
3.90441e-06
-1.05089e-14
-2.76569e-07
4.02868e-06
-9.81501e-15
-2.57263e-07
4.144e-06
-9.21825e-15
-2.38301e-07
4.25054e-06
-8.68047e-15
-2.19746e-07
4.34849e-06
-8.21208e-15
-2.01654e-07
4.43808e-06
-7.80961e-15
-1.8407e-07
4.51954e-06
-7.46959e-15
-1.67032e-07
4.59312e-06
-7.17467e-15
-1.50572e-07
4.6591e-06
-6.96302e-15
-1.34715e-07
4.71777e-06
-6.79647e-15
-1.19481e-07
4.76941e-06
-6.67156e-15
-1.04885e-07
4.81432e-06
-6.58828e-15
-9.09354e-08
4.8528e-06
-6.54663e-15
-7.76396e-08
4.88516e-06
-6.52927e-15
-6.49992e-08
4.91171e-06
-6.53967e-15
-5.3013e-08
4.93274e-06
-6.57782e-15
-4.16765e-08
4.94857e-06
-6.64025e-15
-3.09827e-08
4.95948e-06
-6.70616e-15
-2.09219e-08
4.96577e-06
-6.78941e-15
-1.14821e-08
4.96774e-06
-6.86226e-15
-2.64915e-09
4.96566e-06
-6.95939e-15
5.59248e-09
4.9598e-06
-7.08427e-15
1.32597e-08
4.95044e-06
-7.18834e-15
2.03715e-08
4.93783e-06
-7.27854e-15
2.69472e-08
4.92221e-06
-7.36526e-15
3.30071e-08
4.90383e-06
-7.44851e-15
3.85721e-08
4.88292e-06
-7.52136e-15
4.36634e-08
4.85969e-06
-7.58727e-15
4.83025e-08
4.83435e-06
-7.63236e-15
5.25115e-08
4.80711e-06
-7.67398e-15
5.63122e-08
4.77814e-06
-7.70519e-15
5.97265e-08
4.74763e-06
-7.726e-15
6.27762e-08
4.71574e-06
-7.71211e-15
6.54827e-08
4.68264e-06
-7.69475e-15
6.78672e-08
4.64846e-06
-7.67046e-15
6.99504e-08
4.61335e-06
-7.63575e-15
7.17525e-08
4.57744e-06
-7.5837e-15
7.32931e-08
4.54085e-06
-7.52818e-15
7.45911e-08
4.50368e-06
-7.45878e-15
7.56649e-08
4.46604e-06
-7.37551e-15
7.65322e-08
4.42802e-06
-7.28182e-15
7.72097e-08
4.38972e-06
-7.18467e-15
7.77136e-08
4.3512e-06
-7.07711e-15
7.80594e-08
4.31254e-06
-6.96261e-15
7.82614e-08
4.27382e-06
-6.85159e-15
7.83337e-08
4.23507e-06
-6.73709e-15
7.82892e-08
4.19637e-06
-6.60525e-15
7.81401e-08
4.15774e-06
-6.46993e-15
7.78982e-08
4.11925e-06
-6.3485e-15
7.7574e-08
4.08092e-06
-6.23053e-15
7.71778e-08
4.04279e-06
-6.09175e-15
7.67189e-08
4.00488e-06
-5.9842e-15
7.62061e-08
3.96722e-06
-5.86623e-15
7.56475e-08
3.92983e-06
-5.7448e-15
7.50506e-08
3.89273e-06
-5.62684e-15
7.44223e-08
3.85593e-06
-5.52276e-15
7.3769e-08
3.81944e-06
-5.4152e-15
7.30966e-08
3.78326e-06
-5.31459e-15
7.24103e-08
3.74741e-06
-5.22439e-15
7.17152e-08
3.71189e-06
-5.13418e-15
7.10158e-08
3.67669e-06
-5.07173e-15
7.0316e-08
3.64183e-06
-4.99541e-15
6.96197e-08
3.60729e-06
-4.94337e-15
6.89301e-08
3.57307e-06
-4.88786e-15
6.82505e-08
3.53917e-06
-4.82888e-15
6.75835e-08
3.50558e-06
-4.78725e-15
6.69316e-08
3.47229e-06
-4.73175e-15
6.62972e-08
3.43929e-06
-4.70053e-15
6.56823e-08
3.40658e-06
-4.68318e-15
6.50887e-08
3.37414e-06
-4.67625e-15
6.4518e-08
3.34196e-06
-4.66585e-15
6.39719e-08
3.31003e-06
-4.65545e-15
6.34516e-08
3.27834e-06
-4.65892e-15
6.29584e-08
3.24687e-06
-4.67627e-15
6.24933e-08
3.2156e-06
-4.69016e-15
6.20574e-08
3.18454e-06
-4.71098e-15
6.16516e-08
3.15365e-06
-4.73181e-15
6.12767e-08
3.12292e-06
-4.76304e-15
6.09334e-08
3.09235e-06
-4.7908e-15
6.06225e-08
3.0619e-06
-4.83591e-15
6.03445e-08
3.03158e-06
-4.87408e-15
6.01e-08
3.00135e-06
-4.91572e-15
5.98895e-08
2.97121e-06
-4.9539e-15
5.97136e-08
2.94113e-06
-5.00595e-15
5.95726e-08
2.9111e-06
-5.0684e-15
5.94669e-08
2.8811e-06
-5.12739e-15
5.9397e-08
2.85112e-06
-5.16209e-15
5.93632e-08
2.82113e-06
-5.23149e-15
5.93657e-08
2.79112e-06
-5.30089e-15
5.94049e-08
2.76107e-06
-5.36335e-15
5.9481e-08
2.73096e-06
-5.41193e-15
5.95943e-08
2.70078e-06
-5.46745e-15
5.97449e-08
2.6705e-06
-5.55072e-15
5.9933e-08
2.64011e-06
-5.60971e-15
6.01588e-08
2.60959e-06
-5.67217e-15
6.04223e-08
2.57891e-06
-5.7381e-15
6.07237e-08
2.54807e-06
-5.81096e-15
6.10629e-08
2.51705e-06
-5.88036e-15
6.144e-08
2.48582e-06
-5.94629e-15
6.1855e-08
2.45436e-06
-6.00181e-15
6.23077e-08
2.42267e-06
-6.08161e-15
6.27981e-08
2.39071e-06
-6.15101e-15
6.33258e-08
2.35848e-06
-6.22735e-15
6.38908e-08
2.32595e-06
-6.27593e-15
6.44928e-08
2.29311e-06
-6.3592e-15
6.51313e-08
2.25994e-06
-6.41819e-15
6.5806e-08
2.22642e-06
-6.49105e-15
6.65163e-08
2.19253e-06
-6.56045e-15
6.72618e-08
2.15827e-06
-6.61597e-15
6.80418e-08
2.12361e-06
-6.68537e-15
6.88556e-08
2.08854e-06
-6.74435e-15
6.97024e-08
2.05304e-06
-6.81375e-15
7.05813e-08
2.01709e-06
-6.87274e-15
7.14913e-08
1.98069e-06
-6.94907e-15
7.24314e-08
1.94382e-06
-7.015e-15
7.34002e-08
1.90647e-06
-7.0948e-15
7.43966e-08
1.86862e-06
-7.14338e-15
7.54191e-08
1.83027e-06
-7.22665e-15
7.64661e-08
1.7914e-06
-7.29952e-15
7.75359e-08
1.75201e-06
-7.37932e-15
7.86267e-08
1.71208e-06
-7.45565e-15
7.97364e-08
1.67161e-06
-7.53199e-15
8.08629e-08
1.63059e-06
-7.60832e-15
8.2004e-08
1.58902e-06
-7.68118e-15
8.3157e-08
1.5469e-06
-7.77833e-15
8.43192e-08
1.50422e-06
-7.85813e-15
8.54878e-08
1.46098e-06
-7.93447e-15
8.66596e-08
1.41718e-06
-7.99345e-15
8.78311e-08
1.37283e-06
-8.03509e-15
8.89988e-08
1.32794e-06
-8.10448e-15
9.01587e-08
1.2825e-06
-8.13224e-15
9.13066e-08
1.23653e-06
-8.14613e-15
9.24379e-08
1.19005e-06
-8.15654e-15
9.35476e-08
1.14306e-06
-8.17389e-15
9.46304e-08
1.09558e-06
-8.15655e-15
9.56806e-08
1.04764e-06
-8.16696e-15
9.66918e-08
9.99261e-07
-8.20166e-15
9.76573e-08
9.50466e-07
-8.27105e-15
9.85695e-08
9.01288e-07
-8.36473e-15
9.94205e-08
8.51765e-07
-8.5382e-15
1.00201e-07
8.01938e-07
-8.79841e-15
1.00903e-07
7.51851e-07
-9.13148e-15
1.01513e-07
7.01556e-07
-9.56864e-15
1.02021e-07
6.51111e-07
-1.01029e-14
1.02415e-07
6.00582e-07
-1.06719e-14
1.02678e-07
5.50039e-07
-1.12617e-14
1.02796e-07
4.99564e-07
-1.18307e-14
1.0275e-07
4.49246e-07
-1.23095e-14
1.02521e-07
3.99186e-07
-1.26495e-14
1.02086e-07
3.49496e-07
-1.28507e-14
1.01419e-07
3.00301e-07
-1.28369e-14
1.00492e-07
2.51742e-07
-1.26634e-14
9.92714e-08
2.03976e-07
-1.24136e-14
9.77194e-08
1.57179e-07
-1.21777e-14
9.57908e-08
1.1155e-07
-1.21985e-14
9.34319e-08
6.73047e-08
-1.24552e-14
9.05716e-08
2.46862e-08
-1.30381e-14
8.71499e-08
-1.60254e-08
-1.3961e-14
8.31051e-08
-5.45077e-08
-1.49532e-14
7.83491e-08
-9.04088e-08
-1.54112e-14
7.27859e-08
-1.23343e-07
-1.45994e-14
6.6304e-08
-1.52879e-07
-1.17197e-14
5.87724e-08
-1.78536e-07
-6.3282e-15
5.0034e-08
-1.99784e-07
1.08948e-15
3.99177e-08
-2.16053e-07
8.70145e-15
2.82331e-08
-2.26744e-07
1.3177e-14
1.47826e-08
-2.31243e-07
1.01656e-14
-6.08184e-10
-2.28974e-07
-3.15712e-15
-1.80382e-08
-2.19498e-07
-2.36269e-14
-3.74662e-08
-2.02644e-07
-3.64985e-14
-5.85253e-08
-1.78685e-07
-1.55847e-14
-8.01247e-08
-1.48472e-07
5.03764e-14
-9.97166e-08
-1.13236e-07
4.0426e-14
-1.11946e-07
-6.95083e-08
-1.05693e-13
-1.03993e-07
-1.48215e-12
-5.87496e-08
-2.67176e-07
6.17077e-07
-3.38723e-07
3.63486e-07
-3.27712e-07
1.44014e-07
-2.61965e-07
-4.20136e-08
-1.51048e-07
-1.87586e-07
-3.09053e-09
-2.95535e-07
1.73748e-07
-3.72921e-07
3.71847e-07
-4.26383e-07
5.84907e-07
-4.61712e-07
8.07809e-07
-4.82996e-07
1.03639e-06
-4.93721e-07
1.26722e-06
-4.96733e-07
1.4976e-06
-4.939e-07
1.72542e-06
-4.86642e-07
1.94902e-06
-4.76001e-07
2.16709e-06
-4.62769e-07
2.37861e-06
-4.47555e-07
2.58278e-06
-4.30837e-07
2.779e-06
-4.12995e-07
2.9668e-06
-3.94333e-07
3.14584e-06
-3.75103e-07
3.3159e-06
-3.55511e-07
3.47683e-06
-3.35727e-07
3.62855e-06
-3.15898e-07
3.77106e-06
-2.96144e-07
3.90441e-06
-2.76569e-07
4.02868e-06
-2.57263e-07
4.144e-06
-2.38301e-07
4.25054e-06
-2.19746e-07
4.34849e-06
-2.01654e-07
4.43808e-06
-1.8407e-07
4.51953e-06
-1.67032e-07
4.59312e-06
-1.50572e-07
4.6591e-06
-1.34715e-07
4.71777e-06
-1.19481e-07
4.76941e-06
-1.04885e-07
4.81432e-06
-9.09354e-08
4.8528e-06
-7.76396e-08
4.88516e-06
-6.49992e-08
4.91171e-06
-5.3013e-08
4.93274e-06
-4.16765e-08
4.94857e-06
-3.09827e-08
4.95948e-06
-2.09219e-08
4.96577e-06
-1.14822e-08
4.96774e-06
-2.64919e-09
4.96566e-06
5.59243e-09
4.9598e-06
1.32597e-08
4.95044e-06
2.03714e-08
4.93782e-06
2.69471e-08
4.92221e-06
3.30071e-08
4.90383e-06
3.8572e-08
4.88292e-06
4.36633e-08
4.85969e-06
4.83025e-08
4.83435e-06
5.25114e-08
4.8071e-06
5.63121e-08
4.77814e-06
5.97264e-08
4.74763e-06
6.27761e-08
4.71574e-06
6.54826e-08
4.68264e-06
6.78671e-08
4.64846e-06
6.99503e-08
4.61335e-06
7.17524e-08
4.57744e-06
7.32929e-08
4.54085e-06
7.4591e-08
4.50368e-06
7.56648e-08
4.46604e-06
7.65321e-08
4.42802e-06
7.72096e-08
4.38972e-06
7.77135e-08
4.3512e-06
7.80592e-08
4.31254e-06
7.82613e-08
4.27381e-06
7.83336e-08
4.23507e-06
7.8289e-08
4.19636e-06
7.814e-08
4.15774e-06
7.7898e-08
4.11925e-06
7.75739e-08
4.08092e-06
7.71777e-08
4.04279e-06
7.67188e-08
4.00488e-06
7.6206e-08
3.96722e-06
7.56474e-08
3.92983e-06
7.50505e-08
3.89273e-06
7.44222e-08
3.85593e-06
7.37689e-08
3.81943e-06
7.30965e-08
3.78326e-06
7.24102e-08
3.74741e-06
7.17151e-08
3.71189e-06
7.10157e-08
3.67669e-06
7.03159e-08
3.64183e-06
6.96196e-08
3.60729e-06
6.893e-08
3.57307e-06
6.82504e-08
3.53917e-06
6.75834e-08
3.50558e-06
6.69316e-08
3.47229e-06
6.62971e-08
3.43929e-06
6.56822e-08
3.40658e-06
6.50886e-08
3.37414e-06
6.4518e-08
3.34196e-06
6.39718e-08
3.31003e-06
6.34515e-08
3.27834e-06
6.29583e-08
3.24686e-06
6.24932e-08
3.2156e-06
6.20574e-08
3.18453e-06
6.16515e-08
3.15365e-06
6.12766e-08
3.12292e-06
6.09334e-08
3.09235e-06
6.06224e-08
3.0619e-06
6.03444e-08
3.03158e-06
6.00999e-08
3.00135e-06
5.98895e-08
2.97121e-06
5.97135e-08
2.94113e-06
5.95725e-08
2.9111e-06
5.94669e-08
2.8811e-06
5.9397e-08
2.85112e-06
5.93631e-08
2.82113e-06
5.93656e-08
2.79112e-06
5.94048e-08
2.76107e-06
5.9481e-08
2.73096e-06
5.95942e-08
2.70078e-06
5.97448e-08
2.6705e-06
5.99329e-08
2.64011e-06
6.01587e-08
2.60959e-06
6.04222e-08
2.57891e-06
6.07236e-08
2.54807e-06
6.10629e-08
2.51705e-06
6.144e-08
2.48582e-06
6.18549e-08
2.45436e-06
6.23076e-08
2.42267e-06
6.2798e-08
2.39071e-06
6.33258e-08
2.35848e-06
6.38908e-08
2.32595e-06
6.44927e-08
2.29311e-06
6.51312e-08
2.25994e-06
6.58059e-08
2.22642e-06
6.65162e-08
2.19253e-06
6.72617e-08
2.15827e-06
6.80417e-08
2.12361e-06
6.88555e-08
2.08854e-06
6.97023e-08
2.05304e-06
7.05812e-08
2.01709e-06
7.14913e-08
1.98069e-06
7.24313e-08
1.94382e-06
7.34002e-08
1.90647e-06
7.43966e-08
1.86862e-06
7.5419e-08
1.83027e-06
7.6466e-08
1.7914e-06
7.75358e-08
1.75201e-06
7.86266e-08
1.71208e-06
7.97363e-08
1.67161e-06
8.08629e-08
1.63059e-06
8.20039e-08
1.58902e-06
8.31569e-08
1.5469e-06
8.43192e-08
1.50422e-06
8.54877e-08
1.46098e-06
8.66595e-08
1.41718e-06
8.78311e-08
1.37283e-06
8.89988e-08
1.32794e-06
9.01587e-08
1.2825e-06
9.13065e-08
1.23653e-06
9.24378e-08
1.19005e-06
9.35475e-08
1.14306e-06
9.46303e-08
1.09558e-06
9.56805e-08
1.04764e-06
9.66917e-08
9.99261e-07
9.76572e-08
9.50466e-07
9.85694e-08
9.01289e-07
9.94205e-08
8.51766e-07
1.00201e-07
8.01938e-07
1.00902e-07
7.51851e-07
1.01513e-07
7.01556e-07
1.02021e-07
6.51112e-07
1.02414e-07
6.00582e-07
1.02678e-07
5.50039e-07
1.02796e-07
4.99564e-07
1.0275e-07
4.49246e-07
1.02521e-07
3.99186e-07
1.02085e-07
3.49496e-07
1.01419e-07
3.00301e-07
1.00492e-07
2.51742e-07
9.92713e-08
2.03976e-07
9.77193e-08
1.5718e-07
9.57907e-08
1.1155e-07
9.34318e-08
6.73048e-08
9.05715e-08
2.46864e-08
8.71498e-08
-1.60253e-08
8.3105e-08
-5.45076e-08
7.8349e-08
-9.04087e-08
7.27858e-08
-1.23343e-07
6.63039e-08
-1.52879e-07
5.87723e-08
-1.78536e-07
5.00339e-08
-1.99784e-07
3.99176e-08
-2.16053e-07
2.8233e-08
-2.26744e-07
1.47825e-08
-2.31243e-07
-6.08333e-10
-2.28974e-07
-1.80383e-08
-2.19498e-07
-3.74664e-08
-2.02644e-07
-5.85255e-08
-1.78685e-07
-8.01249e-08
-1.48472e-07
-9.9717e-08
-1.13238e-07
-1.11946e-07
-6.95141e-08
-1.03993e-07
-5.87488e-08
-1.12088e-07
3.02304e-13
7.29156e-07
-8.66847e-08
1.74144e-14
3.38074e-07
-6.2266e-09
3.35208e-14
6.35548e-08
1.01955e-07
2.12116e-14
-1.50196e-07
2.31494e-07
1.95395e-14
-3.17126e-07
3.80161e-07
1.82143e-14
-4.44203e-07
5.45468e-07
1.69966e-14
-5.3823e-07
7.24538e-07
1.57511e-14
-6.05455e-07
9.14208e-07
1.4398e-14
-6.51383e-07
1.11162e-06
1.29825e-14
-6.80408e-07
1.31409e-06
1.1737e-14
-6.96196e-07
1.5191e-06
1.05852e-14
-7.0174e-07
1.72449e-06
9.64843e-15
-6.99295e-07
1.92846e-06
8.88169e-15
-6.90614e-07
2.12952e-06
8.26935e-15
-6.77052e-07
2.32642e-06
7.76977e-15
-6.5967e-07
2.51817e-06
7.376e-15
-6.39306e-07
2.70396e-06
7.04815e-15
-6.16631e-07
2.88315e-06
6.78795e-15
-5.92186e-07
3.05523e-06
6.56071e-15
-5.66417e-07
3.21982e-06
6.37511e-15
-5.39689e-07
3.37661e-06
6.21552e-15
-5.12308e-07
3.52542e-06
6.08022e-15
-4.84532e-07
3.6661e-06
5.94666e-15
-4.56579e-07
3.79859e-06
5.83218e-15
-4.28635e-07
3.92287e-06
5.73331e-15
-4.00857e-07
4.03899e-06
5.6327e-15
-3.73383e-07
4.14702e-06
5.55118e-15
-3.46329e-07
4.24707e-06
5.46099e-15
-3.19795e-07
4.33928e-06
5.37773e-15
-2.93866e-07
4.42382e-06
5.29794e-15
-2.68615e-07
4.50089e-06
5.21121e-15
-2.44103e-07
4.5707e-06
5.12101e-15
-2.20379e-07
4.63347e-06
5.03776e-15
-1.97487e-07
4.68944e-06
4.94582e-15
-1.75458e-07
4.73887e-06
4.8591e-15
-1.54318e-07
4.78202e-06
4.75849e-15
-1.34085e-07
4.81915e-06
4.65962e-15
-1.14771e-07
4.85054e-06
4.55728e-15
-9.63829e-08
4.87644e-06
4.45147e-15
-7.89215e-08
4.89715e-06
4.34566e-15
-6.23831e-08
4.91293e-06
4.2572e-15
-4.67599e-08
4.92404e-06
4.15485e-15
-3.20402e-08
4.93077e-06
4.05598e-15
-1.82089e-08
4.93337e-06
3.95191e-15
-5.24754e-09
4.93209e-06
3.85477e-15
6.86433e-09
4.9272e-06
3.75416e-15
1.81497e-08
4.91894e-06
3.6657e-15
2.86339e-08
4.90754e-06
3.57897e-15
3.83436e-08
4.89324e-06
3.50091e-15
4.7307e-08
4.87626e-06
3.42112e-15
5.55531e-08
4.85681e-06
3.36041e-15
6.31117e-08
4.8351e-06
3.2945e-15
7.00134e-08
4.81132e-06
3.23379e-15
7.6289e-08
4.78566e-06
3.18176e-15
8.19697e-08
4.7583e-06
3.13319e-15
8.70865e-08
4.72941e-06
3.09503e-15
9.16704e-08
4.69914e-06
3.06381e-15
9.57522e-08
4.66764e-06
3.03433e-15
9.93621e-08
4.63506e-06
3.00831e-15
1.0253e-07
4.60153e-06
2.9875e-15
1.05284e-07
4.56717e-06
2.97536e-15
1.07653e-07
4.53209e-06
2.96669e-15
1.09665e-07
4.49641e-06
2.95975e-15
1.11346e-07
4.46022e-06
2.95629e-15
1.12721e-07
4.42362e-06
2.96323e-15
1.13814e-07
4.38668e-06
2.96323e-15
1.1465e-07
4.34949e-06
2.96323e-15
1.1525e-07
4.31211e-06
2.97364e-15
1.15637e-07
4.27462e-06
2.98059e-15
1.15828e-07
4.23706e-06
2.99273e-15
1.15845e-07
4.19949e-06
3.00834e-15
1.15705e-07
4.16197e-06
3.02222e-15
1.15425e-07
4.12452e-06
3.03784e-15
1.1502e-07
4.08719e-06
3.04131e-15
1.14505e-07
4.05002e-06
3.05692e-15
1.13895e-07
4.01302e-06
3.06212e-15
1.13203e-07
3.97623e-06
3.07427e-15
1.12439e-07
3.93966e-06
3.08467e-15
1.11616e-07
3.90334e-06
3.09682e-15
1.10743e-07
3.86728e-06
3.10376e-15
1.09831e-07
3.83149e-06
3.10722e-15
1.08887e-07
3.79598e-06
3.10896e-15
1.0792e-07
3.76075e-06
3.1211e-15
1.06937e-07
3.72582e-06
3.12283e-15
1.05946e-07
3.69119e-06
3.11589e-15
1.04951e-07
3.65685e-06
3.10895e-15
1.03959e-07
3.6228e-06
3.10027e-15
1.02975e-07
3.58905e-06
3.09507e-15
1.02003e-07
3.55559e-06
3.07945e-15
1.01048e-07
3.5224e-06
3.07424e-15
1.00113e-07
3.4895e-06
3.06036e-15
9.92023e-08
3.45686e-06
3.04995e-15
9.83186e-08
3.42449e-06
3.03087e-15
9.74648e-08
3.39236e-06
3.01698e-15
9.66434e-08
3.36047e-06
2.99443e-15
9.58569e-08
3.32882e-06
2.98402e-15
9.51072e-08
3.29738e-06
2.96667e-15
9.43964e-08
3.26615e-06
2.95278e-15
9.3726e-08
3.23511e-06
2.92329e-15
9.30977e-08
3.20424e-06
2.90767e-15
9.25128e-08
3.17355e-06
2.88859e-15
9.19727e-08
3.143e-06
2.86256e-15
9.14785e-08
3.11259e-06
2.84521e-15
9.10312e-08
3.0823e-06
2.82612e-15
9.06319e-08
3.05212e-06
2.80704e-15
9.02814e-08
3.02203e-06
2.78969e-15
8.99806e-08
2.99201e-06
2.77754e-15
8.97301e-08
2.96206e-06
2.76712e-15
8.95306e-08
2.93214e-06
2.7411e-15
8.93828e-08
2.90225e-06
2.73242e-15
8.92873e-08
2.87237e-06
2.72721e-15
8.92445e-08
2.84248e-06
2.71333e-15
8.92549e-08
2.81256e-06
2.70292e-15
8.93189e-08
2.78261e-06
2.69424e-15
8.94369e-08
2.75259e-06
2.6925e-15
8.96093e-08
2.7225e-06
2.6977e-15
8.98363e-08
2.69231e-06
2.69943e-15
9.01181e-08
2.66202e-06
2.70116e-15
9.0455e-08
2.63159e-06
2.70289e-15
9.0847e-08
2.60102e-06
2.70982e-15
9.12943e-08
2.57029e-06
2.72023e-15
9.17969e-08
2.53937e-06
2.7341e-15
9.23547e-08
2.50826e-06
2.74971e-15
9.29676e-08
2.47693e-06
2.77052e-15
9.36356e-08
2.44537e-06
2.79307e-15
9.43582e-08
2.41356e-06
2.81041e-15
9.51353e-08
2.38148e-06
2.83643e-15
9.59664e-08
2.34912e-06
2.86765e-15
9.68511e-08
2.31646e-06
2.90234e-15
9.77887e-08
2.28349e-06
2.94223e-15
9.87786e-08
2.25019e-06
2.97345e-15
9.98201e-08
2.21654e-06
3.01855e-15
1.00912e-07
2.18252e-06
3.07059e-15
1.02054e-07
2.14813e-06
3.11396e-15
1.03244e-07
2.11335e-06
3.16599e-15
1.04482e-07
2.07817e-06
3.2163e-15
1.05765e-07
2.04257e-06
3.2718e-15
1.07093e-07
2.00654e-06
3.32731e-15
1.08463e-07
1.97006e-06
3.38976e-15
1.09874e-07
1.93313e-06