/*--------------------------------*- C++ -*----------------------------------*\
  =========                 |
  \\      /  F ield         | OpenFOAM: The Open Source CFD Toolbox
   \\    /   O peration     | Website:  https://openfoam.org
    \\  /    A nd           | Version:  8
     \\/     M anipulation  |
\*---------------------------------------------------------------------------*/
FoamFile
{
    version     2.0;
    format      ascii;
    class       volScalarField;
    location    "4900";
    object      alphat;
}
// * * * * * * * * * * * * * * * * * * * * * * * * * * * * * * * * * * * * * //

dimensions      [1 -1 -1 0 0 0 0];

internalField   nonuniform List<scalar> 
48000
(
5.52792e-05
9.66095e-05
0.00011967
0.000136582
0.000150643
0.00016259
0.000172972
0.000182183
0.000190559
0.00019839
0.000205631
0.000212409
0.000218782
0.000224798
0.000230495
0.000235901
0.000241043
0.000245939
0.000250607
0.000255058
0.000259306
0.000263359
0.000267226
0.000270913
0.000274429
0.000277778
0.000280965
0.000283996
0.000286875
0.000289606
0.000292193
0.000294641
0.000296953
0.000299133
0.000301185
0.000303112
0.000304917
0.000306605
0.000308179
0.000309643
0.000310999
0.000312251
0.000313403
0.000314457
0.000315417
0.000316294
0.000317099
0.000317822
0.000318463
0.000319025
0.000319513
0.000319929
0.000320276
0.000320558
0.000320777
0.000320937
0.00032104
0.000321089
0.000321087
0.000321037
0.00032094
0.000320799
0.000320617
0.000320396
0.000320137
0.000319844
0.000319517
0.000319159
0.000318771
0.000318355
0.000317913
0.000317445
0.000316955
0.000316442
0.000315908
0.000315355
0.000314783
0.000314193
0.000313587
0.000312965
0.000312328
0.000311676
0.000311012
0.000310334
0.000309644
0.000308942
0.000308229
0.000307505
0.00030677
0.000306025
0.00030527
0.000304505
0.000303731
0.000302947
0.000302154
0.000301352
0.000300541
0.00029972
0.00029889
0.00029805
0.000297202
0.000296343
0.000295476
0.000294598
0.000293711
0.000292813
0.000291905
0.000290986
0.000290056
0.000289116
0.000288164
0.0002872
0.000286224
0.000285236
0.000284235
0.000283221
0.000282194
0.000281153
0.000280098
0.000279028
0.000277944
0.000276844
0.000275729
0.000274598
0.00027345
0.000272285
0.000271103
0.000269904
0.000268686
0.00026745
0.000266195
0.000264921
0.000263627
0.000262313
0.000260978
0.000259623
0.000258246
0.000256848
0.000255427
0.000253984
0.000252518
0.000251028
0.000249515
0.000247978
0.000246416
0.000244829
0.000243217
0.000241579
0.000239915
0.000238225
0.000236507
0.000234763
0.00023299
0.000231189
0.000229359
0.0002275
0.000225611
0.000223692
0.000221742
0.000219761
0.000217747
0.000215701
0.000213621
0.000211507
0.000209358
0.000207173
0.00020495
0.000202689
0.000200389
0.000198048
0.000195664
0.000193236
0.000190761
0.000188238
0.000185664
0.000183036
0.000180351
0.000177606
0.000174797
0.000171923
0.000168993
0.000165994
0.000162903
0.00015971
0.000156403
0.000152966
0.000149382
0.00014563
0.000141681
0.000137499
0.000133037
0.000128265
0.000123103
0.000117414
0.000111021
0.000103641
9.47721e-05
8.34514e-05
6.75623e-05
5.4488e-05
5.52795e-05
9.66097e-05
0.00011967
0.000136582
0.000150644
0.00016259
0.000172973
0.000182183
0.000190559
0.000198391
0.000205631
0.000212409
0.000218783
0.000224798
0.000230495
0.000235901
0.000241043
0.000245939
0.000250607
0.000255058
0.000259306
0.000263359
0.000267226
0.000270913
0.000274429
0.000277778
0.000280965
0.000283996
0.000286875
0.000289606
0.000292193
0.000294641
0.000296953
0.000299133
0.000301185
0.000303112
0.000304917
0.000306605
0.000308179
0.000309643
0.000310999
0.000312251
0.000313403
0.000314457
0.000315417
0.000316294
0.000317099
0.000317822
0.000318463
0.000319025
0.000319513
0.000319929
0.000320276
0.000320558
0.000320777
0.000320937
0.00032104
0.000321089
0.000321087
0.000321037
0.00032094
0.000320799
0.000320617
0.000320396
0.000320137
0.000319844
0.000319517
0.000319159
0.000318771
0.000318355
0.000317913
0.000317445
0.000316955
0.000316442
0.000315908
0.000315355
0.000314783
0.000314193
0.000313587
0.000312965
0.000312328
0.000311676
0.000311012
0.000310334
0.000309644
0.000308942
0.000308229
0.000307505
0.00030677
0.000306025
0.00030527
0.000304505
0.000303731
0.000302947
0.000302154
0.000301352
0.00030054
0.00029972
0.00029889
0.00029805
0.000297202
0.000296343
0.000295476
0.000294598
0.000293711
0.000292813
0.000291905
0.000290986
0.000290056
0.000289116
0.000288164
0.0002872
0.000286224
0.000285236
0.000284235
0.000283221
0.000282194
0.000281153
0.000280098
0.000279028
0.000277944
0.000276844
0.000275729
0.000274598
0.00027345
0.000272285
0.000271103
0.000269904
0.000268686
0.00026745
0.000266195
0.000264921
0.000263627
0.000262313
0.000260978
0.000259623
0.000258246
0.000256848
0.000255427
0.000253984
0.000252518
0.000251028
0.000249515
0.000247978
0.000246416
0.000244829
0.000243217
0.000241579
0.000239915
0.000238225
0.000236507
0.000234763
0.00023299
0.000231189
0.000229359
0.0002275
0.000225611
0.000223692
0.000221742
0.000219761
0.000217747
0.000215701
0.000213621
0.000211507
0.000209358
0.000207173
0.00020495
0.000202689
0.000200389
0.000198048
0.000195664
0.000193236
0.000190761
0.000188238
0.000185664
0.000183036
0.000180351
0.000177606
0.000174797
0.000171923
0.000168993
0.000165994
0.000162903
0.00015971
0.000156403
0.000152966
0.000149382
0.00014563
0.000141681
0.000137499
0.000133037
0.000128265
0.000123103
0.000117414
0.000111021
0.000103641
9.47726e-05
8.34528e-05
6.7558e-05
5.44892e-05
8.42282e-05
0.000625112
0.000988989
0.00124284
0.00143495
0.00159001
0.00172274
0.00183954
0.00194396
0.00203806
0.00212422
0.00220368
0.00227741
0.00234617
0.00241054
0.00247099
0.00252789
0.00258156
0.00263226
0.0026802
0.0027256
0.00276859
0.00280934
0.00284797
0.00288459
0.0029193
0.0029522
0.00298336
0.00301287
0.0030408
0.00306722
0.00309218
0.00311574
0.00313796
0.00315889
0.00317858
0.00319708
0.00321442
0.00323066
0.00324583
0.00325998
0.00327313
0.00328532
0.00329657
0.00330687
0.0033161
0.00332428
0.00333161
0.00333819
0.00334407
0.00334931
0.00335393
0.00335796
0.00336143
0.00336436
0.00336678
0.00336871
0.00337017
0.00337118
0.00337177
0.00337195
0.00337173
0.00337115
0.0033702
0.00336892
0.00336731
0.0033654
0.00336318
0.00336068
0.00335792
0.00335489
0.00335162
0.00334811
0.00334437
0.00334042
0.00333626
0.0033319
0.00332736
0.00332262
0.00331772
0.00331264
0.0033074
0.00330199
0.00329644
0.00329074
0.00328489
0.0032789
0.00327277
0.00326651
0.00326012
0.0032536
0.00324695
0.00324017
0.00323326
0.00322623
0.00321908
0.0032118
0.0032044
0.00319688
0.00318923
0.00318145
0.00317354
0.00316551
0.00315735
0.00314906
0.00314063
0.00313207
0.00312337
0.00311453
0.00310554
0.00309642
0.00308714
0.00307771
0.00306813
0.00305838
0.00304848
0.00303842
0.00302818
0.00301778
0.00300719
0.00299643
0.00298549
0.00297436
0.00296304
0.00295152
0.00293981
0.00292789
0.00291577
0.00290343
0.00289089
0.00287812
0.00286513
0.00285191
0.00283846
0.00282478
0.00281085
0.00279668
0.00278227
0.0027676
0.00275268
0.00273749
0.00272204
0.00270632
0.00269033
0.00267406
0.0026575
0.00264066
0.00262353
0.0026061
0.00258837
0.00257034
0.00255199
0.00253333
0.00251434
0.00249503
0.00247538
0.0024554
0.00243506
0.00241437
0.00239332
0.0023719
0.0023501
0.00232791
0.00230531
0.00228231
0.00225889
0.00223503
0.00221071
0.00218592
0.00216065
0.00213487
0.00210855
0.00208167
0.0020542
0.00202611
0.00199734
0.00196787
0.00193761
0.0019065
0.00187442
0.0018412
0.00180677
0.00177111
0.00173414
0.0016957
0.00165561
0.00161362
0.00156943
0.0015226
0.00147258
0.00141843
0.00135848
0.00129174
0.00121637
0.00112921
0.00102498
0.000894157
0.000717605
0.000451475
5.91788e-05
8.42284e-05
0.000625116
0.000988995
0.00124284
0.00143496
0.00159002
0.00172275
0.00183954
0.00194396
0.00203806
0.00212423
0.00220369
0.00227742
0.00234618
0.00241054
0.00247099
0.00252789
0.00258156
0.00263226
0.00268021
0.0027256
0.0027686
0.00280935
0.00284797
0.00288459
0.0029193
0.0029522
0.00298337
0.00301288
0.00304081
0.00306722
0.00309218
0.00311574
0.00313796
0.00315889
0.00317858
0.00319708
0.00321442
0.00323066
0.00324584
0.00325998
0.00327313
0.00328532
0.00329657
0.00330687
0.0033161
0.00332428
0.00333161
0.00333819
0.00334408
0.00334931
0.00335393
0.00335796
0.00336143
0.00336436
0.00336678
0.00336871
0.00337017
0.00337119
0.00337177
0.00337195
0.00337174
0.00337115
0.00337021
0.00336893
0.00336732
0.0033654
0.00336319
0.00336069
0.00335792
0.00335489
0.00335162
0.00334811
0.00334438
0.00334042
0.00333627
0.00333191
0.00332736
0.00332263
0.00331772
0.00331264
0.0033074
0.003302
0.00329644
0.00329074
0.00328489
0.0032789
0.00327278
0.00326652
0.00326012
0.0032536
0.00324695
0.00324017
0.00323327
0.00322624
0.00321908
0.00321181
0.00320441
0.00319688
0.00318923
0.00318145
0.00317355
0.00316552
0.00315735
0.00314906
0.00314063
0.00313207
0.00312337
0.00311453
0.00310555
0.00309642
0.00308714
0.00307771
0.00306813
0.00305839
0.00304849
0.00303842
0.00302818
0.00301778
0.0030072
0.00299644
0.00298549
0.00297436
0.00296304
0.00295152
0.00293981
0.00292789
0.00291577
0.00290344
0.00289089
0.00287812
0.00286513
0.00285191
0.00283846
0.00282478
0.00281085
0.00279669
0.00278227
0.0027676
0.00275268
0.00273749
0.00272204
0.00270632
0.00269033
0.00267406
0.00265751
0.00264067
0.00262353
0.00260611
0.00258838
0.00257034
0.00255199
0.00253333
0.00251435
0.00249503
0.00247539
0.0024554
0.00243506
0.00241437
0.00239332
0.0023719
0.0023501
0.00232791
0.00230532
0.00228232
0.00225889
0.00223503
0.00221071
0.00218593
0.00216065
0.00213487
0.00210855
0.00208167
0.0020542
0.00202611
0.00199735
0.00196787
0.00193762
0.0019065
0.00187442
0.0018412
0.00180677
0.00177112
0.00173414
0.0016957
0.00165561
0.00161362
0.00156943
0.00152261
0.00147258
0.00141843
0.00135848
0.00129174
0.00121637
0.00112921
0.00102498
0.000894149
0.000717581
0.000451483
5.91881e-05
0.000103682
0.000949075
0.00168899
0.00224368
0.00267989
0.00304048
0.00334942
0.00362074
0.00386289
0.00408142
0.00428054
0.00446327
0.00463187
0.00478815
0.0049335
0.00506908
0.00519585
0.0053146
0.00542602
0.0055307
0.00562916
0.00572184
0.00580915
0.00589145
0.00596906
0.00604228
0.00611136
0.00617655
0.00623808
0.00629614
0.00635093
0.00640261
0.00645135
0.0064973
0.0065406
0.00658137
0.00661974
0.00665582
0.00668972
0.00672152
0.00675133
0.00677922
0.00680526
0.00682951
0.00685196
0.00687259
0.00689147
0.00690876
0.00692462
0.00693914
0.00695242
0.00696452
0.0069755
0.00698541
0.00699431
0.00700224
0.00700924
0.00701535
0.0070206
0.00702504
0.00702869
0.00703159
0.00703377
0.00703526
0.00703608
0.00703626
0.00703583
0.0070348
0.0070332
0.00703106
0.00702839
0.00702521
0.00702153
0.00701739
0.00701279
0.00700774
0.00700227
0.00699638
0.00699009
0.0069834
0.00697634
0.00696891
0.00696112
0.00695297
0.00694448
0.00693566
0.0069265
0.00691701
0.0069072
0.00689708
0.00688664
0.00687589
0.00686483
0.00685346
0.00684179
0.00682981
0.00681753
0.00680494
0.00679204
0.00677884
0.00676532
0.0067515
0.00673735
0.00672289
0.0067081
0.00669299
0.00667755
0.00666177
0.00664565
0.00662918
0.00661236
0.00659519
0.00657765
0.00655974
0.00654146
0.00652279
0.00650373
0.00648427
0.00646441
0.00644413
0.00642343
0.0064023
0.00638074
0.00635873
0.00633626
0.00631333
0.00628993
0.00626605
0.00624168
0.00621681
0.00619144
0.00616555
0.00613913
0.00611217
0.00608468
0.00605662
0.006028
0.00599881
0.00596903
0.00593865
0.00590767
0.00587607
0.00584385
0.00581098
0.00577747
0.00574329
0.00570844
0.00567291
0.00563667
0.00559973
0.00556205
0.00552364
0.00548447
0.00544453
0.0054038
0.00536226
0.0053199
0.0052767
0.00523263
0.00518768
0.00514181
0.005095
0.00504723
0.00499847
0.00494867
0.00489781
0.00484585
0.00479273
0.00473842
0.00468286
0.00462599
0.00456773
0.00450803
0.00444678
0.00438389
0.00431925
0.00425272
0.00418414
0.00411331
0.00404001
0.00396394
0.00388488
0.00380256
0.00371662
0.00362659
0.0035319
0.00343186
0.00332553
0.00321171
0.00308879
0.00295454
0.00280585
0.00263887
0.00244886
0.00222809
0.00196474
0.00164009
0.00122374
0.000671476
7.33141e-05
0.000103682
0.00094908
0.001689
0.00224369
0.0026799
0.00304049
0.00334944
0.00362075
0.0038629
0.00408143
0.00428055
0.00446328
0.00463189
0.00478816
0.00493351
0.00506909
0.00519586
0.00531461
0.00542603
0.00553071
0.00562917
0.00572185
0.00580916
0.00589146
0.00596907
0.00604228
0.00611136
0.00617656
0.00623808
0.00629615
0.00635093
0.00640262
0.00645136
0.00649731
0.0065406
0.00658138
0.00661975
0.00665583
0.00668972
0.00672153
0.00675134
0.00677923
0.00680527
0.00682951
0.00685197
0.00687259
0.00689147
0.00690876
0.00692462
0.00693914
0.00695242
0.00696452
0.0069755
0.00698541
0.00699431
0.00700224
0.00700924
0.00701535
0.0070206
0.00702504
0.0070287
0.0070316
0.00703378
0.00703526
0.00703608
0.00703626
0.00703583
0.0070348
0.00703321
0.00703106
0.00702839
0.00702521
0.00702154
0.00701739
0.00701279
0.00700774
0.00700227
0.00699638
0.00699009
0.00698341
0.00697634
0.00696891
0.00696112
0.00695297
0.00694448
0.00693566
0.0069265
0.00691701
0.0069072
0.00689708
0.00688664
0.00687589
0.00686483
0.00685346
0.00684179
0.00682981
0.00681753
0.00680494
0.00679205
0.00677884
0.00676532
0.0067515
0.00673735
0.00672289
0.0067081
0.00669299
0.00667755
0.00666177
0.00664565
0.00662918
0.00661237
0.00659519
0.00657765
0.00655974
0.00654146
0.00652279
0.00650373
0.00648427
0.00646441
0.00644413
0.00642343
0.0064023
0.00638074
0.00635873
0.00633626
0.00631333
0.00628993
0.00626605
0.00624168
0.00621682
0.00619144
0.00616555
0.00613913
0.00611218
0.00608468
0.00605662
0.006028
0.00599881
0.00596903
0.00593865
0.00590767
0.00587607
0.00584385
0.00581098
0.00577747
0.00574329
0.00570844
0.00567291
0.00563667
0.00559973
0.00556205
0.00552364
0.00548447
0.00544453
0.0054038
0.00536226
0.0053199
0.0052767
0.00523263
0.00518768
0.00514181
0.005095
0.00504723
0.00499847
0.00494867
0.00489781
0.00484585
0.00479273
0.00473842
0.00468286
0.00462599
0.00456773
0.00450803
0.00444678
0.00438389
0.00431925
0.00425272
0.00418414
0.00411331
0.00404001
0.00396394
0.00388488
0.00380256
0.00371662
0.00362659
0.0035319
0.00343186
0.00332553
0.00321171
0.00308879
0.00295454
0.00280585
0.00263887
0.00244886
0.00222809
0.00196474
0.00164009
0.00122374
0.000671491
7.33138e-05
0.000117316
0.00114946
0.00216439
0.00297131
0.00362932
0.00418378
0.00466331
0.00508624
0.00546467
0.00580694
0.00611909
0.00640561
0.00666995
0.00691479
0.00714231
0.00735427
0.00755216
0.00773723
0.00791057
0.0080731
0.00822567
0.008369
0.00850375
0.00863051
0.00874983
0.00886218
0.00896803
0.00906777
0.00916178
0.00925042
0.009334
0.00941282
0.00948716
0.00955726
0.00962336
0.00968569
0.00974445
0.00979982
0.00985198
0.00990109
0.00994729
0.00999072
0.0100315
0.0100697
0.0101054
0.0101387
0.0101697
0.0101984
0.0102252
0.01025
0.0102731
0.0102945
0.0103144
0.0103327
0.0103495
0.010365
0.0103792
0.0103922
0.0104039
0.0104144
0.0104239
0.0104323
0.0104396
0.010446
0.0104514
0.0104559
0.0104595
0.0104622
0.0104641
0.0104652
0.0104656
0.0104652
0.010464
0.0104622
0.0104597
0.0104565
0.0104526
0.0104482
0.0104431
0.0104374
0.0104311
0.0104243
0.0104169
0.0104089
0.0104004
0.0103913
0.0103817
0.0103716
0.010361
0.0103499
0.0103382
0.0103261
0.0103134
0.0103003
0.0102866
0.0102724
0.0102578
0.0102426
0.0102269
0.0102108
0.0101941
0.0101769
0.0101591
0.0101409
0.0101221
0.0101027
0.0100829
0.0100624
0.0100414
0.0100199
0.00999775
0.00997503
0.00995171
0.00992779
0.00990326
0.00987809
0.00985229
0.00982584
0.00979874
0.00977095
0.00974249
0.00971333
0.00968346
0.00965287
0.00962154
0.00958947
0.00955663
0.00952302
0.00948861
0.0094534
0.00941737
0.00938051
0.00934279
0.00930421
0.00926475
0.00922439
0.00918311
0.0091409
0.00909775
0.00905362
0.00900852
0.00896241
0.00891527
0.0088671
0.00881786
0.00876755
0.00871612
0.00866357
0.00860987
0.008555
0.00849892
0.00844162
0.00838307
0.00832323
0.00826208
0.00819959
0.00813571
0.00807042
0.00800366
0.00793541
0.00786562
0.00779423
0.00772121
0.00764648
0.00756998
0.00749166
0.00741144
0.00732924
0.00724496
0.00715851
0.00706977
0.00697864
0.00688496
0.00678858
0.00668931
0.00658696
0.00648129
0.00637201
0.0062588
0.00614128
0.00601901
0.00589153
0.00575827
0.00561856
0.00547157
0.00531626
0.00515134
0.00497518
0.00478575
0.00458039
0.00435564
0.00410692
0.00382826
0.00351224
0.00314814
0.00272082
0.00220888
0.00158322
0.000817182
8.35205e-05
0.000117316
0.00114947
0.0021644
0.00297133
0.00362934
0.0041838
0.00466333
0.00508625
0.00546468
0.00580695
0.0061191
0.00640563
0.00666997
0.00691481
0.00714232
0.00735429
0.00755218
0.00773725
0.00791058
0.00807312
0.00822568
0.00836901
0.00850376
0.00863052
0.00874984
0.00886219
0.00896804
0.00906778
0.00916179
0.00925043
0.00933401
0.00941283
0.00948716
0.00955727
0.00962337
0.0096857
0.00974446
0.00979983
0.00985198
0.00990109
0.00994729
0.00999073
0.0100315
0.0100697
0.0101054
0.0101387
0.0101697
0.0101984
0.0102252
0.01025
0.0102731
0.0102945
0.0103144
0.0103327
0.0103495
0.010365
0.0103792
0.0103922
0.0104039
0.0104144
0.0104239
0.0104323
0.0104396
0.010446
0.0104514
0.0104559
0.0104595
0.0104622
0.0104641
0.0104652
0.0104656
0.0104652
0.010464
0.0104622
0.0104597
0.0104565
0.0104526
0.0104482
0.0104431
0.0104374
0.0104311
0.0104243
0.0104169
0.0104089
0.0104004
0.0103913
0.0103817
0.0103716
0.010361
0.0103499
0.0103382
0.0103261
0.0103134
0.0103003
0.0102866
0.0102724
0.0102578
0.0102426
0.0102269
0.0102108
0.0101941
0.0101769
0.0101591
0.0101409
0.0101221
0.0101027
0.0100829
0.0100624
0.0100414
0.0100199
0.00999775
0.00997503
0.00995171
0.00992779
0.00990326
0.00987809
0.00985229
0.00982584
0.00979873
0.00977095
0.00974249
0.00971333
0.00968346
0.00965287
0.00962154
0.00958947
0.00955663
0.00952302
0.00948861
0.0094534
0.00941737
0.00938051
0.00934279
0.00930421
0.00926475
0.00922438
0.00918311
0.0091409
0.00909774
0.00905362
0.00900851
0.0089624
0.00891527
0.0088671
0.00881786
0.00876754
0.00871612
0.00866357
0.00860987
0.008555
0.00849892
0.00844162
0.00838307
0.00832323
0.00826208
0.00819959
0.00813571
0.00807041
0.00800366
0.00793541
0.00786562
0.00779423
0.0077212
0.00764647
0.00756998
0.00749166
0.00741144
0.00732923
0.00724495
0.0071585
0.00706977
0.00697864
0.00688496
0.00678857
0.00668931
0.00658696
0.00648129
0.00637201
0.0062588
0.00614128
0.00601901
0.00589153
0.00575827
0.00561856
0.00547157
0.00531626
0.00515134
0.00497518
0.00478575
0.00458039
0.00435563
0.00410692
0.00382826
0.00351224
0.00314814
0.00272082
0.00220888
0.00158322
0.000817184
8.35203e-05
0.000128423
0.00128544
0.0025053
0.0035167
0.00436237
0.00508557
0.00571668
0.00627648
0.00677941
0.00723572
0.00765293
0.00803667
0.00839131
0.00872028
0.00902633
0.00931175
0.00957843
0.009828
0.0100618
0.0102812
0.0104871
0.0106806
0.0108625
0.0110336
0.0111947
0.0113463
0.0114892
0.0116238
0.0117507
0.0118703
0.0119832
0.0120896
0.0121901
0.0122849
0.0123744
0.0124588
0.0125386
0.0126139
0.012685
0.0127521
0.0128154
0.0128751
0.0129314
0.0129844
0.0130343
0.0130811
0.013125
0.0131662
0.0132049
0.0132411
0.0132751
0.013307
0.0133368
0.0133647
0.0133908
0.0134151
0.0134378
0.0134589
0.0134784
0.0134965
0.0135131
0.0135284
0.0135424
0.0135551
0.0135666
0.0135769
0.0135861
0.0135942
0.0136013
0.0136073
0.0136123
0.0136164
0.0136195
0.0136216
0.0136229
0.0136233
0.0136229
0.0136216
0.0136195
0.0136167
0.013613
0.0136086
0.0136034
0.0135974
0.0135908
0.0135833
0.0135752
0.0135664
0.0135568
0.0135466
0.0135356
0.013524
0.0135116
0.0134986
0.0134848
0.0134704
0.0134553
0.0134394
0.0134229
0.0134056
0.0133877
0.013369
0.0133495
0.0133294
0.0133085
0.0132868
0.0132644
0.0132412
0.0132172
0.0131924
0.0131669
0.0131405
0.0131132
0.0130852
0.0130562
0.0130264
0.0129957
0.0129641
0.0129316
0.0128981
0.0128637
0.0128284
0.012792
0.0127546
0.0127162
0.0126768
0.0126363
0.0125947
0.0125521
0.0125083
0.0124633
0.0124172
0.01237
0.0123215
0.0122717
0.0122208
0.0121685
0.012115
0.0120601
0.0120039
0.0119463
0.0118872
0.0118268
0.0117649
0.0117015
0.0116366
0.0115701
0.011502
0.0114323
0.0113609
0.0112878
0.011213
0.0111364
0.011058
0.0109777
0.0108955
0.0108113
0.0107251
0.0106367
0.0105463
0.0104536
0.0103585
0.0102612
0.0101613
0.0100589
0.00995383
0.00984599
0.00973526
0.0096215
0.00950456
0.00938428
0.00926046
0.00913291
0.00900138
0.00886561
0.00872529
0.00858008
0.00842955
0.00827325
0.00811063
0.00794108
0.00776386
0.00757814
0.00738291
0.00717694
0.00695874
0.00672647
0.00647788
0.00621012
0.00591964
0.00560194
0.00525132
0.00486042
0.00441993
0.00391785
0.00333812
0.00266013
0.00185996
0.000928164
9.164e-05
0.000128423
0.00128544
0.00250532
0.00351671
0.00436239
0.00508559
0.0057167
0.0062765
0.00677943
0.00723574
0.00765295
0.00803669
0.00839133
0.0087203
0.00902635
0.00931177
0.00957845
0.00982802
0.0100619
0.0102812
0.0104871
0.0106806
0.0108625
0.0110337
0.0111947
0.0113464
0.0114892
0.0116238
0.0117507
0.0118703
0.0119832
0.0120896
0.0121901
0.0122849
0.0123744
0.0124589
0.0125386
0.0126139
0.012685
0.0127521
0.0128154
0.0128751
0.0129314
0.0129844
0.0130343
0.0130811
0.013125
0.0131662
0.0132049
0.0132411
0.0132751
0.013307
0.0133368
0.0133647
0.0133908
0.0134151
0.0134378
0.0134589
0.0134784
0.0134965
0.0135131
0.0135284
0.0135424
0.0135551
0.0135666
0.0135769
0.0135861
0.0135942
0.0136013
0.0136073
0.0136123
0.0136164
0.0136195
0.0136216
0.0136229
0.0136233
0.0136229
0.0136216
0.0136195
0.0136167
0.013613
0.0136086
0.0136034
0.0135974
0.0135908
0.0135833
0.0135752
0.0135664
0.0135568
0.0135466
0.0135356
0.013524
0.0135116
0.0134986
0.0134848
0.0134704
0.0134553
0.0134394
0.0134229
0.0134056
0.0133877
0.013369
0.0133495
0.0133294
0.0133085
0.0132868
0.0132644
0.0132412
0.0132172
0.0131924
0.0131669
0.0131405
0.0131132
0.0130852
0.0130562
0.0130264
0.0129957
0.0129641
0.0129316
0.0128981
0.0128637
0.0128284
0.012792
0.0127546
0.0127162
0.0126768
0.0126363
0.0125947
0.0125521
0.0125083
0.0124633
0.0124172
0.01237
0.0123215
0.0122717
0.0122208
0.0121685
0.012115
0.0120601
0.0120039
0.0119463
0.0118872
0.0118268
0.0117649
0.0117015
0.0116366
0.0115701
0.011502
0.0114323
0.0113609
0.0112878
0.011213
0.0111364
0.011058
0.0109777
0.0108955
0.0108113
0.0107251
0.0106367
0.0105463
0.0104535
0.0103585
0.0102612
0.0101613
0.0100589
0.00995383
0.00984599
0.00973526
0.0096215
0.00950456
0.00938427
0.00926046
0.00913291
0.00900138
0.00886561
0.00872529
0.00858007
0.00842955
0.00827325
0.00811063
0.00794108
0.00776386
0.00757814
0.00738291
0.00717694
0.00695874
0.00672647
0.00647787
0.00621012
0.00591964
0.00560194
0.00525131
0.00486042
0.00441993
0.00391785
0.00333812
0.00266013
0.00185996
0.000928163
9.164e-05
0.000137813
0.00139276
0.00276934
0.00394508
0.0049465
0.00581308
0.00657529
0.00725516
0.00786855
0.008427
0.00893912
0.00941142
0.00984894
0.0102557
0.0106349
0.0109892
0.0113209
0.0116317
0.0119235
0.0121975
0.0124551
0.0126974
0.0129254
0.0131402
0.0133424
0.0135331
0.0137128
0.0138823
0.0140421
0.014193
0.0143354
0.0144699
0.0145969
0.0147169
0.0148302
0.0149374
0.0150387
0.0151346
0.0152252
0.0153109
0.0153919
0.0154686
0.015541
0.0156095
0.0156742
0.0157352
0.0157928
0.0158472
0.0158985
0.0159469
0.0159926
0.0160356
0.0160763
0.0161146
0.0161507
0.0161847
0.0162166
0.0162467
0.0162749
0.0163013
0.0163261
0.0163492
0.0163707
0.0163907
0.0164093
0.0164265
0.0164422
0.0164567
0.0164699
0.0164818
0.0164926
0.0165021
0.0165105
0.0165178
0.0165241
0.0165292
0.0165333
0.0165364
0.0165385
0.0165396
0.0165397
0.0165389
0.0165372
0.0165345
0.0165309
0.0165264
0.016521
0.0165147
0.0165075
0.0164994
0.0164904
0.0164806
0.0164698
0.0164582
0.0164457
0.0164324
0.0164181
0.0164029
0.0163868
0.0163699
0.016352
0.0163332
0.0163134
0.0162927
0.0162711
0.0162484
0.0162249
0.0162003
0.0161747
0.0161481
0.0161204
0.0160918
0.016062
0.0160312
0.0159992
0.0159662
0.015932
0.0158966
0.0158601
0.0158223
0.0157834
0.0157432
0.0157017
0.0156589
0.0156149
0.0155695
0.0155227
0.0154746
0.015425
0.015374
0.0153215
0.0152676
0.0152121
0.0151551
0.0150964
0.0150362
0.0149743
0.0149108
0.0148455
0.0147785
0.0147097
0.0146391
0.0145667
0.0144923
0.014416
0.0143377
0.0142574
0.0141751
0.0140906
0.014004
0.0139151
0.0138239
0.0137305
0.0136346
0.0135363
0.0134355
0.013332
0.0132259
0.0131171
0.0130054
0.0128907
0.0127731
0.0126522
0.0125282
0.0124007
0.0122697
0.0121351
0.0119966
0.011854
0.0117073
0.0115561
0.0114002
0.0112393
0.0110731
0.0109012
0.0107233
0.0105389
0.0103473
0.0101481
0.00994051
0.00972368
0.00949668
0.00925839
0.00900747
0.00874234
0.00846107
0.00816135
0.00784036
0.00749462
0.00711987
0.00671082
0.00626091
0.00576193
0.00520368
0.00457375
0.00385645
0.00303331
0.00208608
0.00101924
9.84899e-05
0.000137813
0.00139277
0.00276935
0.00394509
0.00494652
0.0058131
0.00657531
0.00725518
0.00786857
0.00842703
0.00893914
0.00941144
0.00984897
0.0102557
0.0106349
0.0109892
0.0113209
0.0116317
0.0119235
0.0121975
0.0124551
0.0126974
0.0129254
0.0131402
0.0133425
0.0135331
0.0137128
0.0138823
0.0140421
0.014193
0.0143354
0.0144699
0.0145969
0.0147169
0.0148303
0.0149374
0.0150388
0.0151346
0.0152252
0.0153109
0.0153919
0.0154686
0.015541
0.0156095
0.0156742
0.0157353
0.0157929
0.0158472
0.0158985
0.0159469
0.0159926
0.0160356
0.0160763
0.0161146
0.0161507
0.0161847
0.0162166
0.0162467
0.0162749
0.0163013
0.0163261
0.0163492
0.0163707
0.0163907
0.0164093
0.0164265
0.0164422
0.0164567
0.0164699
0.0164818
0.0164926
0.0165021
0.0165105
0.0165179
0.0165241
0.0165292
0.0165333
0.0165364
0.0165385
0.0165396
0.0165397
0.0165389
0.0165372
0.0165345
0.0165309
0.0165264
0.016521
0.0165147
0.0165075
0.0164994
0.0164904
0.0164806
0.0164698
0.0164582
0.0164457
0.0164324
0.0164181
0.0164029
0.0163868
0.0163699
0.016352
0.0163331
0.0163134
0.0162927
0.0162711
0.0162484
0.0162249
0.0162003
0.0161747
0.0161481
0.0161204
0.0160918
0.016062
0.0160312
0.0159992
0.0159662
0.015932
0.0158966
0.0158601
0.0158223
0.0157834
0.0157432
0.0157017
0.0156589
0.0156149
0.0155695
0.0155227
0.0154746
0.015425
0.015374
0.0153215
0.0152676
0.0152121
0.0151551
0.0150964
0.0150362
0.0149743
0.0149108
0.0148455
0.0147785
0.0147097
0.0146391
0.0145667
0.0144923
0.014416
0.0143377
0.0142574
0.0141751
0.0140906
0.0140039
0.0139151
0.0138239
0.0137305
0.0136346
0.0135363
0.0134355
0.013332
0.0132259
0.0131171
0.0130054
0.0128907
0.012773
0.0126522
0.0125282
0.0124007
0.0122697
0.0121351
0.0119966
0.011854
0.0117073
0.0115561
0.0114002
0.0112393
0.0110731
0.0109012
0.0107233
0.0105389
0.0103473
0.0101481
0.00994051
0.00972368
0.00949668
0.00925839
0.00900747
0.00874233
0.00846107
0.00816135
0.00784036
0.00749462
0.00711986
0.00671082
0.00626091
0.00576193
0.00520368
0.00457375
0.00385645
0.00303331
0.00208608
0.00101923
9.84899e-05
0.000146111
0.00148445
0.00298684
0.00429632
0.00542706
0.0064148
0.00728943
0.00807349
0.0087837
0.00943249
0.0100292
0.0105811
0.0110936
0.0115712
0.0120176
0.0124355
0.0128276
0.0131959
0.0135421
0.013868
0.0141749
0.014464
0.0147366
0.0149936
0.0152361
0.015465
0.015681
0.0158849
0.0160776
0.0162596
0.0164316
0.0165942
0.0167479
0.0168934
0.017031
0.0171612
0.0172845
0.0174013
0.0175119
0.0176167
0.017716
0.0178101
0.0178992
0.0179837
0.0180638
0.0181396
0.0182114
0.0182795
0.0183439
0.018405
0.0184629
0.0185178
0.0185697
0.018619
0.0186657
0.0187099
0.0187518
0.0187914
0.0188289
0.0188643
0.0188977
0.0189293
0.018959
0.0189869
0.0190132
0.0190378
0.0190608
0.0190823
0.0191023
0.0191208
0.019138
0.0191538
0.0191682
0.0191813
0.0191932
0.0192038
0.0192132
0.0192214
0.0192285
0.0192344
0.0192391
0.0192427
0.0192452
0.0192466
0.0192469
0.0192462
0.0192443
0.0192414
0.0192374
0.0192324
0.0192263
0.0192192
0.019211
0.0192017
0.0191914
0.01918
0.0191675
0.019154
0.0191393
0.0191236
0.0191068
0.0190888
0.0190697
0.0190495
0.0190281
0.0190055
0.0189817
0.0189568
0.0189306
0.0189032
0.0188745
0.0188445
0.0188133
0.0187807
0.0187468
0.0187115
0.0186749
0.0186368
0.0185973
0.0185563
0.0185139
0.0184699
0.0184244
0.0183773
0.0183286
0.0182783
0.0182264
0.0181727
0.0181173
0.0180602
0.0180013
0.0179405
0.0178779
0.0178134
0.0177469
0.0176785
0.017608
0.0175355
0.017461
0.0173842
0.0173053
0.0172241
0.0171407
0.0170549
0.0169668
0.0168762
0.0167831
0.0166875
0.0165892
0.0164883
0.0163846
0.0162781
0.0161688
0.0160564
0.015941
0.0158225
0.0157008
0.0155758
0.0154473
0.0153153
0.0151796
0.0150402
0.0148968
0.0147494
0.0145977
0.0144417
0.014281
0.0141156
0.0139451
0.0137693
0.013588
0.0134007
0.0132073
0.0130072
0.0128
0.0125852
0.0123622
0.0121304
0.0118889
0.0116371
0.0113737
0.0110976
0.0108075
0.0105018
0.0101784
0.00983523
0.00946941
0.00907768
0.00865606
0.00819976
0.00770292
0.00715844
0.00655767
0.00589013
0.00514333
0.0043026
0.003352
0.00227841
0.00109731
0.00010448
0.000146112
0.00148446
0.00298685
0.00429633
0.00542707
0.00641482
0.00728945
0.00807352
0.00878373
0.00943251
0.0100292
0.0105811
0.0110936
0.0115712
0.0120176
0.0124355
0.0128276
0.0131959
0.0135421
0.013868
0.0141749
0.014464
0.0147366
0.0149937
0.0152361
0.015465
0.015681
0.015885
0.0160776
0.0162596
0.0164316
0.0165942
0.016748
0.0168934
0.017031
0.0171613
0.0172846
0.0174013
0.0175119
0.0176167
0.017716
0.0178101
0.0178993
0.0179837
0.0180638
0.0181396
0.0182115
0.0182795
0.0183439
0.018405
0.0184629
0.0185178
0.0185698
0.018619
0.0186657
0.0187099
0.0187518
0.0187914
0.0188289
0.0188643
0.0188977
0.0189293
0.018959
0.0189869
0.0190132
0.0190378
0.0190608
0.0190823
0.0191023
0.0191208
0.019138
0.0191538
0.0191682
0.0191813
0.0191932
0.0192038
0.0192132
0.0192214
0.0192285
0.0192344
0.0192391
0.0192427
0.0192452
0.0192466
0.0192469
0.0192462
0.0192443
0.0192414
0.0192374
0.0192324
0.0192263
0.0192192
0.019211
0.0192017
0.0191914
0.01918
0.0191675
0.019154
0.0191393
0.0191236
0.0191068
0.0190888
0.0190697
0.0190495
0.0190281
0.0190055
0.0189817
0.0189568
0.0189306
0.0189032
0.0188745
0.0188445
0.0188133
0.0187807
0.0187468
0.0187115
0.0186749
0.0186368
0.0185973
0.0185563
0.0185139
0.0184699
0.0184244
0.0183773
0.0183286
0.0182783
0.0182264
0.0181727
0.0181173
0.0180602
0.0180013
0.0179405
0.0178779
0.0178134
0.0177469
0.0176785
0.017608
0.0175355
0.017461
0.0173842
0.0173053
0.0172241
0.0171407
0.0170549
0.0169668
0.0168762
0.0167831