/*--------------------------------*- C++ -*----------------------------------*\
  =========                 |
  \\      /  F ield         | OpenFOAM: The Open Source CFD Toolbox
   \\    /   O peration     | Website:  https://openfoam.org
    \\  /    A nd           | Version:  8
     \\/     M anipulation  |
\*---------------------------------------------------------------------------*/
FoamFile
{
    version     2.0;
    format      ascii;
    class       volScalarField;
    location    "4900";
    object      k;
}
// * * * * * * * * * * * * * * * * * * * * * * * * * * * * * * * * * * * * * //

dimensions      [0 2 -2 0 0 0 0];

internalField   nonuniform List<scalar> 
48000
(
0.0332408
0.0870413
0.133553
0.173968
0.211635
0.246533
0.279023
0.30953
0.338645
0.367053
0.394333
0.420759
0.446387
0.471273
0.495459
0.518975
0.541844
0.564081
0.585693
0.606685
0.627059
0.646813
0.665945
0.684452
0.702329
0.719573
0.736181
0.752148
0.767473
0.782154
0.796192
0.809587
0.822341
0.834458
0.845941
0.856798
0.867035
0.87666
0.885681
0.89411
0.901958
0.909234
0.915953
0.922125
0.927763
0.932925
0.937679
0.941957
0.94576
0.949103
0.952004
0.954482
0.956553
0.958236
0.959546
0.960502
0.961119
0.961413
0.9614
0.961097
0.960517
0.959675
0.958585
0.957262
0.955717
0.953964
0.952015
0.949881
0.947573
0.945102
0.942477
0.93971
0.936807
0.933778
0.930631
0.927373
0.924012
0.920553
0.917004
0.913369
0.909655
0.905865
0.902005
0.898079
0.89409
0.890042
0.885938
0.88178
0.877572
0.873316
0.869012
0.864664
0.860273
0.855839
0.851365
0.84685
0.842295
0.837701
0.833068
0.828396
0.823685
0.818935
0.814146
0.809318
0.804449
0.799539
0.794588
0.789594
0.784558
0.779478
0.774353
0.769182
0.763964
0.758698
0.753383
0.748018
0.742602
0.737134
0.731612
0.726035
0.720403
0.714714
0.708967
0.703161
0.697295
0.691368
0.685379
0.679328
0.673213
0.667033
0.660788
0.654477
0.648099
0.641654
0.635142
0.628562
0.621913
0.615195
0.608408
0.601553
0.594628
0.587634
0.580571
0.573439
0.566238
0.558969
0.551632
0.544228
0.536756
0.529218
0.521615
0.513947
0.506214
0.498418
0.490559
0.482639
0.474658
0.466617
0.458517
0.450359
0.442144
0.433873
0.425546
0.417165
0.40873
0.400242
0.3917
0.383106
0.374459
0.36576
0.357007
0.348201
0.33934
0.330423
0.321448
0.312413
0.303314
0.29415
0.284919
0.275626
0.266311
0.256943
0.247464
0.237858
0.228108
0.218193
0.20809
0.197767
0.187186
0.176298
0.165042
0.153414
0.141314
0.128554
0.114937
0.100165
0.0837522
0.0648073
0.0412286
0.0210861
0.0332412
0.0870416
0.133553
0.173969
0.211635
0.246533
0.279024
0.30953
0.338646
0.367053
0.394333
0.420759
0.446388
0.471274
0.495459
0.518976
0.541845
0.564081
0.585693
0.606685
0.627059
0.646813
0.665945
0.684452
0.70233
0.719574
0.736181
0.752148
0.767473
0.782154
0.796192
0.809587
0.822341
0.834458
0.845942
0.856798
0.867035
0.87666
0.885681
0.89411
0.901958
0.909235
0.915953
0.922125
0.927763
0.932925
0.937679
0.941957
0.94576
0.949103
0.952004
0.954482
0.956553
0.958236
0.959546
0.960502
0.961119
0.961413
0.9614
0.961097
0.960517
0.959675
0.958585
0.957262
0.955717
0.953964
0.952015
0.949881
0.947573
0.945102
0.942477
0.939709
0.936807
0.933778
0.930631
0.927373
0.924012
0.920553
0.917004
0.913369
0.909655
0.905865
0.902005
0.898079
0.89409
0.890042
0.885938
0.88178
0.877572
0.873315
0.869012
0.864664
0.860273
0.855839
0.851365
0.84685
0.842295
0.837701
0.833068
0.828396
0.823685
0.818935
0.814146
0.809317
0.804449
0.799539
0.794588
0.789594
0.784558
0.779478
0.774353
0.769182
0.763964
0.758698
0.753383
0.748018
0.742602
0.737134
0.731612
0.726035
0.720403
0.714714
0.708967
0.703161
0.697295
0.691368
0.685379
0.679328
0.673212
0.667033
0.660788
0.654477
0.648099
0.641654
0.635142
0.628561
0.621913
0.615195
0.608408
0.601553
0.594628
0.587634
0.580571
0.573439
0.566238
0.558969
0.551632
0.544228
0.536756
0.529218
0.521615
0.513947
0.506214
0.498418
0.490559
0.482639
0.474658
0.466617
0.458517
0.450359
0.442144
0.433873
0.425546
0.417165
0.40873
0.400242
0.3917
0.383106
0.374459
0.36576
0.357007
0.348201
0.33934
0.330423
0.321448
0.312413
0.303314
0.29415
0.284919
0.275626
0.266311
0.256943
0.247464
0.237858
0.228108
0.218193
0.20809
0.197767
0.187186
0.176298
0.165042
0.153414
0.141314
0.128554
0.114937
0.100165
0.0837525
0.0648078
0.0412275
0.0210851
0.0890248
0.223975
0.318321
0.401252
0.477515
0.548858
0.616674
0.681245
0.743213
0.803058
0.861029
0.917333
0.972118
1.02549
1.07752
1.12827
1.17777
1.22603
1.27305
1.31885
1.36341
1.40671
1.44874
1.48949
1.52893
1.56705
1.60382
1.63924
1.6733
1.70597
1.73725
1.76714
1.79564
1.82274
1.84845
1.87278
1.89574
1.91734
1.9376
1.95654
1.97418
1.99054
2.00565
2.01954
2.03223
2.04375
2.05416
2.06349
2.07176
2.07902
2.0853
2.09064
2.09507
2.09863
2.10137
2.10332
2.10451
2.10498
2.10477
2.10392
2.10244
2.10039
2.09778
2.09466
2.09104
2.08696
2.08245
2.07753
2.07222
2.06655
2.06055
2.05423
2.04761
2.04072
2.03357
2.02617
2.01855
2.01072
2.0027
1.99449
1.9861
1.97756
1.96886
1.96003
1.95106
1.94196
1.93275
1.92342
1.91399
1.90446
1.89483
1.8851
1.87529
1.86539
1.85541
1.84534
1.83519
1.82496
1.81465
1.80426
1.7938
1.78325
1.77262
1.76191
1.75112
1.74025
1.72929
1.71824
1.70711
1.69589
1.68457
1.67316
1.66165
1.65005
1.63834
1.62653
1.61461
1.60259
1.59045
1.5782
1.56584
1.55336
1.54075
1.52803
1.51518
1.5022
1.48909
1.47585
1.46248
1.44898
1.43534
1.42156
1.40764
1.39359
1.37939
1.36505
1.35056
1.33594
1.32117
1.30625
1.29119
1.27599
1.26064
1.24515
1.22952
1.21375
1.19783
1.18178
1.16559
1.14925
1.13279
1.11619
1.09945
1.08259
1.06559
1.04847
1.03123
1.01386
0.99637
0.978761
0.961036
0.943196
0.925242
0.907176
0.889001
0.870716
0.852322
0.833821
0.815213
0.796496
0.77767
0.758734
0.739685
0.72052
0.701234
0.681822
0.662277
0.642592
0.622758
0.602763
0.582598
0.562236
0.541639
0.520795
0.499678
0.478241
0.456441
0.434218
0.411499
0.388196
0.36419
0.339323
0.313455
0.286335
0.257623
0.226834
0.19323
0.155529
0.110486
0.042881
0.0890252
0.223976
0.318321
0.401253
0.477515
0.548858
0.616674
0.681245
0.743213
0.803058
0.861029
0.917333
0.972118
1.02549
1.07752
1.12827
1.17777
1.22602
1.27305
1.31885
1.36341
1.40671
1.44874
1.48949
1.52893
1.56705
1.60382
1.63924
1.6733
1.70597
1.73725
1.76714
1.79564
1.82274
1.84845
1.87278
1.89574
1.91734
1.9376
1.95654
1.97418
1.99054
2.00565
2.01954
2.03223
2.04375
2.05416
2.06349
2.07176
2.07902
2.0853
2.09064
2.09507
2.09863
2.10137
2.10332
2.10451
2.10498
2.10477
2.10392
2.10244
2.10039
2.09778
2.09466
2.09104
2.08696
2.08245
2.07752
2.07222
2.06655
2.06055
2.05423
2.04761
2.04072
2.03357
2.02617
2.01855
2.01072
2.0027
1.99449
1.9861
1.97756
1.96886
1.96003
1.95106
1.94196
1.93275
1.92342
1.91399
1.90446
1.89483
1.8851
1.87529
1.86539
1.85541
1.84534
1.83519
1.82496
1.81465
1.80426
1.7938
1.78325
1.77262
1.76191
1.75112
1.74025
1.72929
1.71824
1.70711
1.69589
1.68457
1.67316
1.66165
1.65005
1.63834
1.62653
1.61461
1.60259
1.59045
1.5782
1.56584
1.55336
1.54075
1.52803
1.51518
1.5022
1.48909
1.47585
1.46248
1.44898
1.43534
1.42156
1.40764
1.39358
1.37939
1.36505
1.35056
1.33594
1.32116
1.30625
1.29119
1.27599
1.26064
1.24515
1.22952
1.21375
1.19783
1.18178
1.16558
1.14925
1.13279
1.11619
1.09945
1.08259
1.06559
1.04847
1.03123
1.01386
0.996369
0.978761
0.961036
0.943195
0.925241
0.907176
0.889
0.870715
0.852322
0.833821
0.815212
0.796496
0.77767
0.758734
0.739685
0.720519
0.701233
0.681821
0.662277
0.642592
0.622757
0.602763
0.582597
0.562236
0.541639
0.520795
0.499677
0.478241
0.456441
0.434217
0.411499
0.388195
0.36419
0.339322
0.313455
0.286335
0.257623
0.226834
0.19323
0.15553
0.110486
0.0428823
0.134896
0.319556
0.437577
0.538407
0.630875
0.7181
0.80144
0.881556
0.958931
1.03392
1.10678
1.17769
1.24679
1.31418
1.37995
1.44413
1.50676
1.56786
1.62743
1.68547
1.74195
1.79687
1.85021
1.90193
1.95201
2.00044
2.04718
2.09222
2.13554
2.17712
2.21695
2.25502
2.29133
2.32587
2.35866
2.38969
2.41898
2.44655
2.4724
2.49658
2.51909
2.53997
2.55926
2.57698
2.59318
2.60789
2.62116
2.63305
2.64358
2.65281
2.66077
2.66752
2.67311
2.67758
2.68097
2.68335
2.68475
2.68522
2.68481
2.68356
2.68152
2.67872
2.67521
2.67103
2.66621
2.6608
2.65482
2.64832
2.64132
2.63386
2.62596
2.61766
2.60898
2.59994
2.59057
2.5809
2.57093
2.5607
2.55021
2.53949
2.52856
2.51742
2.50609
2.49458
2.48291
2.47108
2.4591
2.44699
2.43474
2.42237
2.40988
2.39727
2.38456
2.37174
2.35881
2.34579
2.33267
2.31945
2.30614
2.29272
2.27922
2.26562
2.25192
2.23812
2.22423
2.21023
2.19614
2.18194
2.16763
2.15321
2.13868
2.12404
2.10928
2.09441
2.0794
2.06428
2.04902
2.03363
2.01811
2.00244
1.98664
1.97069
1.9546
1.93835
1.92196
1.9054
1.88869
1.87182
1.85478
1.83758
1.82022
1.80268
1.78497
1.76709
1.74904
1.73082
1.71241
1.69383
1.67508
1.65615
1.63703
1.61775
1.59828
1.57864
1.55883
1.53884
1.51867
1.49834
1.47783
1.45715
1.43631
1.4153
1.39413
1.3728
1.35131
1.32966
1.30786
1.28591
1.26381
1.24157
1.21918
1.19665
1.17398
1.15117
1.12823
1.10516
1.08195
1.05861
1.03514
1.01154
0.987804
0.963933
0.939924
0.915774
0.891476
0.867025
0.842414
0.817631
0.792666
0.767504
0.742129
0.716515
0.690634
0.664454
0.637935
0.611032
0.583706
0.555885
0.527491
0.498424
0.46856
0.437741
0.405772
0.372412
0.337298
0.2999
0.25935
0.213876
0.158107
0.0673963
0.134896
0.319556
0.437577
0.538407
0.630875
0.7181
0.80144
0.881556
0.95893
1.03392
1.10678
1.17769
1.24679
1.31418
1.37995
1.44413
1.50676
1.56786
1.62743
1.68547
1.74195
1.79687
1.85021
1.90193
1.95201
2.00044
2.04718
2.09222
2.13554
2.17712
2.21695
2.25502
2.29133
2.32587
2.35866
2.38969
2.41898
2.44654
2.4724
2.49657
2.51909
2.53997
2.55926
2.57698
2.59318
2.60789
2.62116
2.63305
2.64358
2.6528
2.66077
2.66752
2.67311
2.67757
2.68097
2.68335
2.68475
2.68522
2.68481
2.68356
2.68152
2.67872
2.67521
2.67102
2.66621
2.66079
2.65482
2.64832
2.64132
2.63386
2.62596
2.61766
2.60898
2.59994
2.59057
2.58089
2.57093
2.5607
2.55021
2.53949
2.52856
2.51742
2.50609
2.49458
2.48291
2.47108
2.4591
2.44699
2.43474
2.42237
2.40988
2.39727
2.38456
2.37174
2.35881
2.34579
2.33267
2.31945
2.30613
2.29272
2.27922
2.26562
2.25192
2.23812
2.22423
2.21023
2.19614
2.18194
2.16763
2.15321
2.13868
2.12404
2.10928
2.0944
2.0794
2.06427
2.04902
2.03363
2.01811
2.00244
1.98664
1.97069
1.9546
1.93835
1.92196
1.9054
1.88869
1.87182
1.85478
1.83758
1.82022
1.80268
1.78497
1.76709
1.74904
1.73081
1.71241
1.69383
1.67508
1.65614
1.63703
1.61775
1.59828
1.57864
1.55883
1.53884
1.51867
1.49834
1.47783
1.45715
1.43631
1.4153
1.39413
1.3728
1.35131
1.32966
1.30786
1.28591
1.26381
1.24157
1.21918
1.19665
1.17398
1.15117
1.12823
1.10516
1.08195
1.05861
1.03514
1.01154
0.987804
0.963933
0.939924
0.915773
0.891476
0.867025
0.842413
0.817631
0.792665
0.767504
0.742129
0.716515
0.690634
0.664453
0.637935
0.611032
0.583706
0.555885
0.527491
0.498424
0.46856
0.437741
0.405772
0.372412
0.337298
0.2999
0.25935
0.213876
0.158107
0.0673959
0.172706
0.400655
0.537828
0.651406
0.75505
0.852961
0.946801
1.03736
1.12512
1.21037
1.29333
1.37417
1.453
1.52991
1.60496
1.67821
1.74968
1.81939
1.88734
1.95353
2.01795
2.08057
2.14137
2.20034
2.25745
2.31267
2.36598
2.41736
2.46678
2.51424
2.55971
2.60318
2.64466
2.68413
2.72161
2.75709
2.79059
2.82214
2.85173
2.87941
2.90519
2.92912
2.95122
2.97153
2.99009
3.00696
3.02217
3.03579
3.04785
3.05841
3.06752
3.07523
3.08159
3.08666
3.09049
3.09314
3.09466
3.09511
3.09452
3.09297
3.09049
3.08714
3.08296
3.078
3.07231
3.06592
3.05887
3.05121
3.04298
3.03421
3.02493
3.01519
3.005
2.9944
2.98341
2.97207
2.96039
2.94841
2.93613
2.92359
2.91079
2.89776
2.88451
2.87106
2.85742
2.8436
2.82961
2.81547
2.80118
2.78674
2.77217
2.75748
2.74266
2.72772
2.71267
2.69751
2.68224
2.66686
2.65137
2.63578
2.62008
2.60428
2.58837
2.57236
2.55623
2.54
2.52365
2.50719
2.49061
2.47391
2.45708
2.44013
2.42306
2.40585
2.3885
2.37101
2.35338
2.33561
2.31768
2.29961
2.28137
2.26297
2.24441
2.22569
2.20679
2.18772
2.16848
2.14905
2.12944
2.10965
2.08968
2.06951
2.04916
2.02861
2.00787
1.98693
1.9658
1.94447
1.92294
1.90121
1.87929
1.85717
1.83485
1.81233
1.78962
1.76671
1.74361
1.72031
1.69682
1.67315
1.64929
1.62524
1.60101
1.5766
1.55201
1.52725
1.50232
1.47722
1.45195
1.42652
1.40093
1.37518
1.34927
1.32321
1.297
1.27065
1.24414
1.21748
1.19068
1.16373
1.13663
1.10939
1.08199
1.05443
1.02671
0.998818
0.970752
0.942498
0.914045
0.885376
0.856474
0.827315
0.79787
0.768107
0.737988
0.707467
0.676491
0.64499
0.612896
0.580108
0.546503
0.511926
0.47617
0.438988
0.399997
0.3586
0.313723
0.262969
0.198843
0.0875307
0.172706
0.400655
0.537828
0.651406
0.75505
0.852961
0.946801
1.03736
1.12512
1.21037
1.29333
1.37417
1.453
1.52991
1.60496
1.67821
1.74968
1.81939
1.88734
1.95353
2.01795
2.08057
2.14137
2.20034
2.25745
2.31267
2.36598
2.41736
2.46678
2.51424
2.55971
2.60318
2.64466
2.68413
2.72161
2.75709
2.79059
2.82213
2.85173
2.87941
2.90519
2.92912
2.95121
2.97153
2.99009
3.00696
3.02217
3.03579
3.04785
3.05841
3.06752
3.07522
3.08159
3.08666
3.09049
3.09314
3.09466
3.0951
3.09452
3.09297
3.09049
3.08714
3.08296
3.078
3.07231
3.06591
3.05887
3.05121
3.04298
3.03421
3.02493
3.01519
3.005
2.9944
2.98341
2.97207
2.96039
2.94841
2.93613
2.92358
2.91079
2.89776
2.88451
2.87106
2.85742
2.8436
2.82961
2.81547
2.80117
2.78674
2.77217
2.75748
2.74266
2.72772
2.71267
2.69751
2.68223
2.66685
2.65137
2.63578
2.62008
2.60428
2.58837
2.57236
2.55623
2.54
2.52365
2.50719
2.49061
2.47391
2.45708
2.44013
2.42306
2.40585
2.3885
2.37101
2.35338
2.33561
2.31768
2.2996
2.28137
2.26297
2.24441
2.22569
2.20679
2.18772
2.16848
2.14905
2.12944
2.10965
2.08968
2.06951
2.04916
2.02861
2.00787
1.98693
1.9658
1.94447
1.92294
1.90121
1.87929
1.85717
1.83485
1.81233
1.78962
1.76671
1.74361
1.72031
1.69682
1.67315
1.64929
1.62524
1.60101
1.5766
1.55201
1.52725
1.50232
1.47722
1.45195
1.42652
1.40093
1.37518
1.34927
1.32321
1.297
1.27064
1.24414
1.21748
1.19068
1.16373
1.13663
1.10939
1.08199
1.05443
1.02671
0.998818
0.970751
0.942498
0.914044
0.885376
0.856474
0.827314
0.79787
0.768107
0.737988
0.707467
0.676491
0.64499
0.612896
0.580108
0.546503
0.511926
0.47617
0.438988
0.399997
0.3586
0.313723
0.262969
0.198843
0.0875305
0.206959
0.473454
0.628986
0.754487
0.867966
0.974853
1.07728
1.17624
1.27225
1.36561
1.45652
1.54512
1.63152
1.71579
1.79799
1.87816
1.95635
2.03255
2.10678
2.17904
2.24933
2.31763
2.38393
2.4482
2.51042
2.57058
2.62866
2.68463
2.73847
2.79018
2.83973
2.88712
2.93234
2.9754
3.01629
3.05502
3.09161
3.12606
3.15841
3.18867
3.21688
3.24306
3.26726
3.2895
3.30985
3.32834
3.34502
3.35995
3.37318
3.38476
3.39474
3.40318
3.41015
3.41569
3.41987
3.42274
3.42436
3.42479
3.42409
3.42231
3.41951
3.41573
3.41104
3.40548
3.3991
3.39194
3.38406
3.3755
3.3663
3.3565
3.34613
3.33524
3.32385
3.31201
3.29974
3.28707
3.27403
3.26065
3.24694
3.23293
3.21865
3.2041
3.18932
3.1743
3.15908
3.14366
3.12806
3.11228
3.09634
3.08024
3.064
3.04762
3.0311
3.01446
2.99769
2.9808
2.9638
2.94667
2.92944
2.91209
2.89463
2.87705
2.85936
2.84156
2.82363
2.8056
2.78744
2.76915
2.75075
2.73221
2.71354
2.69474
2.6758
2.65672
2.63749
2.61812
2.59859
2.5789
2.55906
2.53905
2.51887
2.49851
2.47799
2.45728
2.43639
2.41532
2.39405
2.3726
2.35095
2.3291
2.30705
2.28479
2.26233
2.23967
2.2168
2.19371
2.17042
2.14691
2.12319
2.09925
2.07511
2.05074
2.02617
2.00138
1.97638
1.95117
1.92575
1.90012
1.87429
1.84825
1.82201
1.79557
1.76893
1.74209
1.71507
1.68785
1.66045
1.63287
1.6051
1.57716
1.54904
1.52076
1.4923
1.46368
1.43489
1.40594
1.37683
1.34756
1.31813
1.28854
1.25879
1.22888
1.1988
1.16855
1.13813
1.10753
1.07675
1.04576
1.01456
0.983143
0.951476
0.919543
0.887318
0.854767
0.821855
0.788537
0.75476
0.720461
0.685564
0.64997
0.613558
0.57618
0.537622
0.4976
0.4557
0.411214
0.362807
0.307421
0.235597
0.105376
0.206959
0.473454
0.628986
0.754487
0.867965
0.974853
1.07728
1.17624
1.27225
1.36561
1.45652
1.54512
1.63152
1.71579
1.79799
1.87816
1.95634
2.03255
2.10678
2.17904
2.24933
2.31763
2.38392
2.4482
2.51042
2.57058
2.62866
2.68463
2.73847
2.79018
2.83973
2.88712
2.93234
2.9754
3.01629
3.05502
3.09161
3.12606
3.15841
3.18867
3.21688
3.24306
3.26725
3.2895
3.30985
3.32834
3.34502
3.35995
3.37318
3.38475
3.39474
3.40318
3.41015
3.41569
3.41987
3.42274
3.42436
3.42479
3.42409
3.42231
3.41951
3.41573
3.41104
3.40548
3.3991
3.39194
3.38406
3.3755
3.3663
3.35649
3.34613
3.33524
3.32385
3.31201
3.29974
3.28707
3.27403
3.26065
3.24694
3.23293
3.21865
3.2041
3.18931
3.1743
3.15908
3.14366
3.12806
3.11228
3.09634
3.08024
3.064
3.04762
3.0311
3.01446
2.99769
2.9808
2.9638
2.94667
2.92944
2.91209
2.89463
2.87705
2.85936
2.84155
2.82363
2.8056
2.78744
2.76915
2.75075
2.73221
2.71354
2.69474
2.6758
2.65672
2.63749
2.61812
2.59859
2.5789
2.55906
2.53904
2.51887
2.49851
2.47799
2.45728
2.43639
2.41532
2.39405
2.3726
2.35095
2.3291
2.30705
2.28479
2.26233
2.23967
2.2168
2.19371
2.17042
2.14691
2.12319
2.09925
2.07511
2.05074
2.02617
2.00138
1.97638
1.95117
1.92575
1.90012
1.87429
1.84825
1.82201
1.79557
1.76893
1.74209
1.71507
1.68785
1.66045
1.63287
1.6051
1.57716
1.54904
1.52076
1.4923
1.46368
1.43489
1.40594
1.37683
1.34756
1.31813
1.28854
1.25879
1.22888
1.1988
1.16855
1.13813
1.10753
1.07675
1.04576
1.01456
0.983142
0.951476
0.919543
0.887317
0.854767
0.821855
0.788537
0.75476
0.720461
0.685564
0.64997
0.613558
0.57618
0.537622
0.4976
0.4557
0.411214
0.362807
0.307421
0.235597
0.105376
0.238329
0.541538
0.714773
0.852126
0.975075
1.0903
1.20048
1.30682
1.40996
1.51023
1.60784
1.70293
1.79559
1.8859
1.97391
2.05966
2.14319
2.22453
2.30368
2.38066
2.45547
2.52811
2.59857
2.66684
2.73291
2.79676
2.85838
2.91776
2.97487
3.02972
3.08229
3.13258
3.18058
3.22629
3.26972
3.31087
3.34976
3.3864
3.42082
3.45303
3.48308
3.51099
3.53679
3.56053
3.58226
3.60201
3.61985
3.63581
3.64997
3.66236
3.67305
3.6821
3.68957
3.69551
3.69998
3.70306
3.70479
3.70524
3.70447
3.70253
3.69949
3.6954
3.69031
3.68429
3.67738
3.66963
3.66109
3.65181
3.64184
3.63121
3.61996
3.60815
3.5958
3.58295
3.56963
3.55588
3.54173
3.52719
3.51231
3.4971
3.48158
3.46579
3.44973
3.43342
3.41688
3.40013
3.38318
3.36605
3.34873
3.33125
3.31361
3.29582
3.27788
3.25981
3.2416
3.22327
3.20481
3.18622
3.16752
3.14869
3.12975
3.11068
3.09149
3.07218
3.05275
3.0332
3.01352
2.9937
2.97376
2.95368
2.93347
2.91311
2.8926
2.87195
2.85114
2.83018
2.80905
2.78776
2.7663
2.74467
2.72286
2.70087
2.67869
2.65633
2.63377
2.61102
2.58806
2.56491
2.54154
2.51797
2.49419
2.47019
2.44597
2.42154
2.39688
2.37201
2.34691
2.32158
2.29603
2.27025
2.24425
2.21802
2.19156
2.16488
2.13797
2.11084
2.08348
2.05591
2.02811
2.0001
1.97187
1.94343
1.91478
1.88592
1.85686
1.82759
1.79812
1.76846
1.73861
1.70856
1.67833
1.64791
1.61732
1.58654
1.55559
1.52446
1.49316
1.46169
1.43004
1.39823
1.36624
1.33409
1.30175
1.26924
1.23654
1.20365
1.17057
1.13728
1.10377
1.07003
1.03603
1.00177
0.967211
0.932325
0.897079
0.861429
0.825324
0.788704
0.751492
0.713592
0.674881
0.635198
0.594316
0.551915
0.50752
0.46029
0.408612
0.348794
0.269603
0.121717
0.23833
0.541538
0.714773
0.852126
0.975075
1.0903
1.20048
1.30682
1.40996
1.51023
1.60784
1.70293
1.79559
1.8859
1.97391
2.05966
2.14319
2.22453
2.30368
2.38066
2.45547
2.52811
2.59857
2.66684
2.73291
2.79676
2.85838
2.91776
2.97487
3.02972
3.08229
3.13258
3.18058
3.22629
3.26972
3.31087
3.34976
3.3864
3.42082
3.45303
3.48308
3.51098
3.53679
3.56053
3.58226
3.60201
3.61985
3.63581
3.64997
3.66236
3.67305
3.6821
3.68957
3.69551
3.69998
3.70306
3.70479
3.70524
3.70447
3.70253
3.69949
3.6954
3.69031
3.68429
3.67738
3.66963
3.66109
3.65181
3.64184
3.63121
3.61996
3.60815
3.5958
3.58295
3.56963
3.55588
3.54173
3.52719
3.51231
3.4971
3.48158
3.46579
3.44973
3.43342
3.41688
3.40013
3.38318
3.36605
3.34873
3.33125
3.31361
3.29582
3.27788
3.25981
3.2416
3.22327
3.20481
3.18622
3.16752
3.14869
3.12975
3.11068
3.09149
3.07218
3.05275
3.0332
3.01352
2.9937
2.97376
2.95368
2.93346
2.91311
2.8926
2.87195
2.85114
2.83018
2.80905
2.78776
2.7663
2.74467
2.72286
2.70087
2.67869
2.65633
2.63377
2.61102
2.58806
2.56491
2.54154
2.51797
2.49419
2.47019
2.44597
2.42154
2.39688
2.37201
2.34691
2.32158
2.29603
2.27025
2.24425
2.21802
2.19156
2.16488
2.13797
2.11084
2.08348
2.05591
2.02811
2.0001
1.97187
1.94343
1.91478
1.88592
1.85685
1.82759
1.79812
1.76846
1.73861
1.70856
1.67833
1.64791
1.61731
1.58654
1.55559
1.52446
1.49316
1.46169
1.43004
1.39823
1.36624
1.33408
1.30175
1.26924
1.23654
1.20365
1.17057
1.13728
1.10377
1.07003
1.03603
1.00177
0.967211
0.932325
0.897078
0.861428
0.825324
0.788704
0.751492
0.713592
0.674881
0.635198
0.594316
0.551915
0.50752
0.46029
0.408612
0.348794
0.269603
0.121717
0.267896
0.606637
0.797164
0.946325
1.07864
1.20194
1.31943
1.4326
1.54219
1.64862
1.75211
1.85281
1.95083
2.04624
2.1391
2.22945
2.31735
2.40282
2.48589
2.56659
2.64492
2.7209
2.79454
2.86583
2.93477
3.00137
3.06561
3.12749
3.18701
3.24416
3.29894
3.35134
3.40136
3.44902
3.4943
3.53724
3.57783
3.6161
3.65206
3.68575
3.71718
3.7464
3.77344
3.79833
3.82113
3.84188
3.86062
3.87742
3.89232
3.90538
3.91666
3.92621
3.9341
3.94039
3.94514
3.94841
3.95026
3.95076
3.94997
3.94794
3.94474
3.94043
3.93506
3.92869
3.92138
3.91317
3.90412
3.89428
3.88369
3.8724
3.86046
3.8479
3.83477
3.82111
3.80694
3.7923
3.77723
3.76175
3.7459
3.72969
3.71315
3.69631
3.67919
3.6618
3.64417
3.6263
3.60822
3.58994
3.57146
3.55281
3.53399
3.51501
3.49587
3.47658
3.45716
3.43759
3.41789
3.39806
3.37811
3.35802
3.33781
3.31747
3.297
3.27641
3.25569
3.23484
3.21385
3.19273
3.17147
3.15007
3.12853
3.10684
3.08499
3.06299
3.04083
3.01851
2.99602
2.97335
2.95051
2.92749
2.90428
2.88089
2.8573
2.83351
2.80953
2.78533
2.76093
2.73632
2.71149
2.68644
2.66117
2.63568
2.60996
2.58401
2.55783
2.53142
2.50477
2.47789
2.45077
2.42341
2.39582
2.36799
2.33992
2.31161
2.28307
2.25429
2.22527
2.19603
2.16655
2.13684
2.1069
2.07674
2.04636
2.01575
1.98493
1.95389
1.92265
1.89119
1.85953
1.82766
1.7956
1.76334
1.73088
1.69824
1.6654
1.63238
1.59917
1.56578
1.5322
1.49845
1.46451
1.43038
1.39607
1.36157
1.32687
1.29198
1.25688
1.22157
1.18603
1.15025
1.11421
1.0779
1.0413
1.00437
0.967078
0.929389
0.89125
0.852602
0.813367
0.773449
0.732717
0.690999
0.648047
0.603499
0.556787
0.506937
0.452069
0.387901
0.301576
0.136973
0.267896
0.606638
0.797164
0.946325
1.07864
1.20194
1.31943
1.4326
1.54219
1.64862
1.75211
1.85281
1.95083
2.04624
2.1391
2.22945
2.31735
2.40282
2.48589
2.56659
2.64492
2.7209
2.79454
2.86583
2.93477
3.00137
3.06561
3.12749
3.18701
3.24416
3.29894
3.35134
3.40136
3.44901
3.4943
3.53724
3.57783
3.6161
3.65206
3.68575
3.71718
3.7464
3.77344
3.79833
3.82113
3.84188
3.86062
3.87742
3.89232
3.90538
3.91666
3.92621
3.9341
3.94039
3.94514
3.94841
3.95026
3.95076
3.94997
3.94794
3.94474
3.94043
3.93506
3.92869
3.92138
3.91317
3.90412
3.89428
3.88369
3.8724
3.86046
3.8479
3.83477
3.82111
3.80694
3.7923
3.77723
3.76175
3.74589
3.72969
3.71315
3.69631
3.67919
3.6618
3.64417
3.6263
3.60822
3.58994
3.57146
3.55281
3.53399
3.51501
3.49587
3.47658
3.45716
3.43759
3.41789
3.39806
3.37811
3.35802
3.33781
3.31747
3.297
3.27641
3.25569
3.23484
3.21385
3.19273
3.17147
3.15007
3.12853
3.10684
3.08499
3.06299
3.04083
3.01851
2.99602
2.97335
2.95051
2.92749
2.90428
2.88089
2.8573
2.83351
2.80953
2.78533
2.76093
2.73632
2.71149
2.68644
2.66117
2.63568
2.60996
2.58401
2.55783
2.53142
2.50477
2.47789
2.45077
2.42341
2.39582
2.36799
2.33992
2.31161
2.28307
2.25429
2.22527
2.19603
2.16655
2.13684
2.1069
2.07674
2.04636
2.01575
1.98493
1.95389
1.92265
1.89119
1.85953
1.82766
1.7956
1.76334
1.73088
1.69823
1.6654
1.63238
1.59917
1.56578
1.5322
1.49845
1.46451
1.43038
1.39607
1.36157
1.32687
1.29198
1.25688
1.22157
1.18602
1.15025
1.11421
1.0779
1.0413
1.00437
0.967078
0.929389
0.89125
0.852602
0.813367
0.773449
0.732717
0.690999
0.648047
0.603499
0.556787
0.506937
0.452069
0.387901
0.301577
0.136973
0.296636
0.669523
0.877215
1.03816
1.17979
1.31102
1.43558
1.5552
1.67079
1.78283
1.8916
1.99727
2.09996
2.19975
2.29672
2.39092
2.48241
2.57123
2.65743
2.74105
2.82211
2.90064
2.97666
3.05019
3.12124
3.18982
3.25594
3.3196
3.38082
3.43958
3.4959
3.54978
3.60123
3.65025
3.69685
3.74104
3.78285
3.82228
3.85936
3.89411
3.92657
3.95676
3.98472
4.01049
4.03411
4.05563
4.07508
4.09254
4.10804
4.12164
4.1334
4.14338
4.15164
4.15824
4.16324
4.1667
4.16869
4.16927
4.1685
4.16644
4.16315
4.1587
4.15314
4.14652
4.13892
4.13037
4.12093
4.11066
4.0996
4.08781
4.07531
4.06217
4.04842
4.03409
4.01924
4.00389
3.98807
3.97182
3.95517
3.93814
3.92076
3.90306
3.88505
3.86677
3.84821
3.82941
3.81038
3.79114
3.77169
3.75205
3.73223
3.71223
3.69208
3.67176
3.6513
3.63068
3.60993
3.58904
3.56801
3.54685
3.52555
3.50412
3.48256
3.46087
3.43904
3.41707
3.39497
3.37272
3.35033
3.32779
3.3051
3.28226
3.25926
3.2361
3.21277
3.18928
3.16561
3.14175
3.11772
3.0935
3.06909
3.04448
3.01967
2.99465
2.96943
2.94399
2.91834
2.89247
2.86637
2.84005
2.81349
2.78671
2.75968
2.73242
2.70492
2.67718
2.64919
2.62096
2.59248
2.56375
2.53478
2.50556
2.47609
2.44637
2.4164
2.38619
2.35573
2.32502
2.29408
2.26289
2.23146
2.1998
2.1679
2.13576
2.1034
2.07081
2.038
2.00496
1.97171
1.93824
1.90455
1.87066
1.83656
1.80226
1.76775
1.73304
1.69814
1.66303
1.62774
1.59224
1.55655
1.52066
1.48458
1.44829
1.4118
1.37511
1.33819
1.30105
1.26368
1.22607
1.18819
1.15004
1.11159
1.07281
1.03367
0.994136
0.954156
0.913668
0.872593
0.830829
0.788239
0.744631
0.699733
0.653134
0.604177
0.551757
0.493728
0.425259
0.331985
0.151403
0.296637
0.669523
0.877215
1.03816
1.17979
1.31102
1.43557
1.5552
1.67079
1.78283
1.8916
1.99727
2.09996
2.19975
2.29672
2.39092
2.48241
2.57123
2.65743
2.74105
2.82211
2.90064
2.97666
3.05019
3.12124
3.18982
3.25594
3.3196
3.38082
3.43958
3.4959
3.54978
3.60123
3.65025
3.69685
3.74104
3.78285
3.82228
3.85936
3.89411
3.92657
3.95676
3.98472
4.01049
4.03411
4.05563
4.07508
4.09254
4.10804
4.12164
4.1334
4.14338
4.15164
4.15824
4.16324
4.1667
4.16869
4.16927
4.1685
4.16644
4.16315
4.1587
4.15314
4.14652
4.13892
4.13037
4.12093
4.11066
4.0996
4.08781
4.07531
4.06217
4.04842
4.03409
4.01924
4.00389
3.98807
3.97182
3.95517
3.93814
3.92076
3.90306
3.88505
3.86677
3.84821
3.82941
3.81038
3.79114
3.77169
3.75205
3.73223
3.71223
3.69208
3.67176
3.65129
3.63068
3.60993
3.58904
3.56801
3.54685
3.52555
3.50412
3.48256
3.46087
3.43904
3.41707
3.39497
3.37272
3.35033
3.32779
3.3051
3.28226
3.25926
3.2361
3.21277
3.18928
3.1656
3.14175
3.11772
3.0935
3.06909
3.04448
3.01967
2.99465
2.96943
2.94399
2.91834
2.89247
2.86637
2.84005
2.81349
2.78671
2.75968
2.73242
2.70492
2.67718
2.64919
2.62096
2.59248
2.56375
2.53478
2.50556
2.47609
2.44637
2.4164
2.38619
2.35573
2.32502
2.29408
2.26289
2.23146
2.1998
2.1679
2.13576
2.1034
2.07081
2.038
2.00496
1.97171
1.93824
1.90455
1.87066
1.83656
1.80226
1.76775
1.73304
1.69814
1.66303
1.62773
1.59224
1.55655
1.52066
1.48458
1.44829
1.4118
1.37511
1.33819
1.30105
1.26368
1.22607
1.18819
1.15004
1.11159
1.07281
1.03367
0.994136
0.954156
0.913668
0.872593
0.830829
0.788239
0.744631
0.699733
0.653134
0.604177
0.551757
0.493728
0.425259
0.331985
0.151403
0.325231
0.731102
0.955666
1.1283
1.27919
1.41824
1.54967
1.67547
1.7967
1.91394
2.02751
2.13763
2.24443
2.34802
2.44848
2.5459
2.64034
2.73187
2.82055
2.90642
2.98954
3.06996
3.14771
3.22283
3.29535
3.36529
3.43267
3.49751
3.55983
3.61964
3.67696
3.73179
3.78415
3.83404
3.88149
3.92651
3.96912
4.00932
4.04716
4.08265
4.11581
4.14669
4.17531
4.20171
4.22594
4.24803
4.26803
4.286
4.30197
4.31601
4.32817
4.33851
4.34709
4.35396
4.3592
4.36285
4.36499
4.36567
4.36496
4.36292
4.3596
4.35508
4.3494
4.34264
4.33483
4.32605
4.31634
4.30576
4.29435
4.28217
4.26926
4.25567
4.24143
4.2266
4.2112
4.19528
4.17887
4.162
4.1447
4.12701
4.10895
4.09054
4.07181
4.05278
4.03347
4.0139
3.99408
3.97404
3.95377
3.93331
3.91265
3.8918
3.87079
3.8496
3.82826
3.80676
3.78511
3.76332
3.74138
3.7193
3.69708
3.67472
3.65222
3.62959
3.60681
3.58389
3.56082
3.53761
3.51424
3.49073
3.46706
3.44323
3.41923
3.39507
3.37074
3.34623
3.32154
3.29666
3.2716
3.24634
3.22088
3.19522
3.16936
3.14328
3.11699
3.09047
3.06374
3.03677
3.00958
2.98215
2.95448
2.92657
2.89841
2.87001
2.84136
2.81246
2.78331
2.7539
2.72424
2.69432
2.66414
2.6337
2.60301
2.57205
2.54084
2.50937
2.47764
2.44566
2.41342
2.38093
2.34819
2.31519
2.28196
2.24847
2.21474
2.18077
2.14657
2.11213
2.07745
2.04255
2.00742
1.97207
1.93649
1.9007
1.86469
1.82846
1.79203
1.75538
1.71852
1.68145
1.64417
1.60668
1.56898
1.53106
1.49293
1.45458
1.416
1.37719
1.33814
1.29884
1.25927
1.21941
1.17925
1.13877
1.09792
1.05668
1.01498
0.972779
0.92998
0.886476
0.842119
0.7967
0.749913
0.701299
0.650122
0.595127
0.533932
0.461196
0.361154
0.165256
0.325231
0.731102
0.955666
1.1283
1.27919
1.41824
1.54967
1.67547
1.7967
1.91394
2.02751
2.13763
2.24443
2.34802
2.44848
2.5459
2.64034
2.73187
2.82055
2.90642
2.98954
3.06996
3.14771
3.22283
3.29535
3.36529
3.43267
3.49751
3.55983
3.61964
3.67696
3.73179
3.78415
3.83404
3.88149
3.92651
3.96912
4.00932
4.04716
4.08265
4.11581
4.14669
4.17531
4.20171
4.22594
4.24803
4.26803
4.286
4.30197
4.31601
4.32817
4.33851
4.34709
4.35396
4.3592
4.36285
4.36499
4.36567
4.36496
4.36291
4.3596
4.35508
4.3494
4.34264
4.33483
4.32605
4.31634
4.30576
4.29435
4.28217
4.26926
4.25566
4.24143
4.2266
4.2112
4.19528
4.17887
4.162
4.1447
4.12701
4.10895
4.09054
4.07181
4.05278
4.03347
4.0139
3.99408
3.97404
3.95377
3.93331
3.91264
3.8918
3.87078
3.8496
3.82826
3.80676
3.78511
3.76332
3.74138
3.7193
3.69708
3.67472
3.65222
3.62959
3.60681
3.58389
3.56082
3.53761
3.51424
3.49073
3.46706
3.44323
3.41923
3.39507
3.37074
3.34623
3.32154
3.29666
3.2716
3.24634
3.22088
3.19522
3.16936
3.14328
3.11699
3.09047
3.06374
3.03677
3.00958
2.98215
2.95448
2.92657
2.89841
2.87001
2.84136
2.81246
2.78331
2.7539
2.72424
2.69432
2.66414
2.6337
2.60301
2.57205
2.54084
2.50937
2.47764
2.44566
2.41342
2.38093
2.34819
2.31519
2.28195
2.24847
2.21474
2.18077
2.14657
2.11213
2.07745
2.04255
2.00742
1.97207
1.93649
1.9007
1.86469
1.82846
1.79203
1.75538
1.71852
1.68145
1.64417
1.60668
1.56898
1.53106
1.49293
1.45458
1.416
1.37719
1.33814
1.29884
1.25927
1.21941
1.17925
1.13877
1.09792
1.05668
1.01498
0.972779
0.92998
0.886476
0.842119
0.7967
0.749913
0.701299
0.650122
0.595127
0.533932
0.461197
0.361154
0.165256