/*--------------------------------*- C++ -*----------------------------------*\
  =========                 |
  \\      /  F ield         | OpenFOAM: The Open Source CFD Toolbox
   \\    /   O peration     | Website:  https://openfoam.org
    \\  /    A nd           | Version:  8
     \\/     M anipulation  |
\*---------------------------------------------------------------------------*/
FoamFile
{
    version     2.0;
    format      ascii;
    class       surfaceScalarField;
    location    "4900";
    object      phi;
}
// * * * * * * * * * * * * * * * * * * * * * * * * * * * * * * * * * * * * * //

dimensions      [1 0 -1 0 0 0 0];

internalField   nonuniform List<scalar> 
119360
(
-3.46863e-07
1.6651e-12
3.46861e-07
-6.41943e-07
2.0611e-13
2.95047e-07
-8.01916e-07
1.93121e-13
1.59963e-07
-8.30906e-07
9.51446e-14
2.89828e-08
-7.59086e-07
3.53316e-14
-7.18276e-08
-6.156e-07
-8.46658e-15
-1.43493e-07
-4.22861e-07
-3.67772e-14
-1.92745e-07
-1.97195e-07
-5.51513e-14
-2.25672e-07
4.95916e-08
-7.01947e-14
-2.46793e-07
3.08527e-07
-8.00756e-14
-2.58941e-07
5.73081e-07
-7.86322e-14
-2.64561e-07
8.38928e-07
-7.1721e-14
-2.65852e-07
1.10286e-06
-6.24506e-14
-2.63938e-07
1.36253e-06
-5.19589e-14
-2.5967e-07
1.61617e-06
-4.10509e-14
-2.53646e-07
1.86246e-06
-3.02262e-14
-2.46302e-07
2.10043e-06
-1.98178e-14
-2.37968e-07
2.32932e-06
-1.00755e-14
-2.28897e-07
2.5486e-06
-1.08269e-15
-2.19285e-07
2.75788e-06
7.03585e-15
-2.0929e-07
2.95692e-06
1.43634e-14
-1.99038e-07
3.14554e-06
2.09276e-14
-1.88632e-07
3.32369e-06
2.67979e-14
-1.78156e-07
3.49137e-06
3.19605e-14
-1.67682e-07
3.64864e-06
3.64847e-14
-1.5727e-07
3.7956e-06
4.03427e-14
-1.46969e-07
3.93242e-06
4.36179e-14
-1.36822e-07
4.05928e-06
4.64073e-14
-1.26866e-07
4.17641e-06
4.86972e-14
-1.1713e-07
4.28404e-06
5.05152e-14
-1.07642e-07
4.38246e-06
5.18753e-14
-9.84218e-08
4.47194e-06
5.29022e-14
-8.94887e-08
4.5528e-06
5.34851e-14
-8.08573e-08
4.62533e-06
5.36933e-14
-7.25394e-08
4.68987e-06
5.35962e-14
-6.45443e-08
4.74675e-06
5.32631e-14
-5.68787e-08
4.79629e-06
5.25831e-14
-4.95474e-08
4.83884e-06
5.17089e-14
-4.2553e-08
4.87473e-06
5.06958e-14
-3.58964e-08
4.9043e-06
4.93913e-14
-2.95768e-08
4.92789e-06
4.80313e-14
-2.3592e-08
4.94582e-06
4.64631e-14
-1.79386e-08
4.95843e-06
4.47978e-14
-1.2612e-08
4.96604e-06
4.2966e-14
-7.6067e-09
4.96895e-06
4.10925e-14
-2.91552e-09
4.96747e-06
3.9219e-14
1.4701e-09
4.96191e-06
3.73039e-14
5.5583e-09
4.95255e-06
3.53055e-14
9.35782e-09
4.93967e-06
3.33904e-14
1.28787e-08
4.92353e-06
3.15169e-14
1.61312e-08
4.9044e-06
2.95602e-14
1.91254e-08
4.88253e-06
2.77561e-14
2.18717e-08
4.85814e-06
2.60075e-14
2.43808e-08
4.83148e-06
2.43005e-14
2.66634e-08
4.80274e-06
2.25381e-14
2.87304e-08
4.77215e-06
2.10254e-14
3.05928e-08
4.73988e-06
1.95683e-14
3.22614e-08
4.70613e-06
1.81666e-14
3.3747e-08
4.67107e-06
1.68483e-14
3.50603e-08
4.63485e-06
1.5627e-14
3.62119e-08
4.59764e-06
1.45862e-14
3.7212e-08
4.55957e-06
1.36426e-14
3.80706e-08
4.52076e-06
1.28099e-14
3.87975e-08
4.48136e-06
1.20883e-14
3.94022e-08
4.44146e-06
1.14777e-14
3.98938e-08
4.40118e-06
1.09642e-14
4.02811e-08
4.3606e-06
1.05895e-14
4.05726e-08
4.31982e-06
1.03536e-14
4.07764e-08
4.27892e-06
1.02426e-14
4.09002e-08
4.23797e-06
1.01316e-14
4.09513e-08
4.19703e-06
1.01455e-14
4.09368e-08
4.15616e-06
1.02427e-14
4.08632e-08
4.11542e-06
1.04647e-14
4.07369e-08
4.07486e-06
1.07839e-14
4.05636e-08
4.03451e-06
1.11864e-14
4.0349e-08
3.99441e-06
1.15889e-14
4.00982e-08
3.95459e-06
1.21162e-14
3.9816e-08
3.91508e-06
1.27546e-14
3.95069e-08
3.8759e-06
1.34208e-14
3.91752e-08
3.83707e-06
1.40869e-14
3.88247e-08
3.79861e-06
1.48086e-14
3.8459e-08
3.76053e-06
1.55996e-14
3.80815e-08
3.72283e-06
1.65155e-14
3.76952e-08
3.68553e-06
1.74037e-14
3.7303e-08
3.64862e-06
1.83197e-14
3.69073e-08
3.6121e-06
1.92772e-14
3.65107e-08
3.57599e-06
2.02209e-14
3.61152e-08
3.54026e-06
2.13173e-14
3.57228e-08
3.50492e-06
2.23581e-14
3.53352e-08
3.46997e-06
2.33018e-14
3.49542e-08
3.43538e-06
2.43426e-14
3.45812e-08
3.40116e-06
2.53835e-14
3.42174e-08
3.3673e-06
2.64104e-14
3.38642e-08
3.33377e-06
2.74651e-14
3.35225e-08
3.30058e-06
2.85198e-14
3.31933e-08
3.2677e-06
2.94774e-14
3.28776e-08
3.23512e-06
3.05321e-14
3.25761e-08
3.20283e-06
3.15313e-14
3.22894e-08
3.1708e-06
3.25999e-14
3.20183e-08
3.13904e-06
3.35575e-14
3.17633e-08
3.10751e-06
3.45428e-14
3.15248e-08
3.07621e-06
3.55697e-14
3.13034e-08
3.0451e-06
3.65134e-14
3.10995e-08
3.01419e-06
3.74432e-14
3.09133e-08
2.98344e-06
3.83869e-14
3.07453e-08
2.95284e-06
3.92889e-14
3.05957e-08
2.92238e-06
4.01355e-14
3.04647e-08
2.89202e-06
4.10098e-14
3.03527e-08
2.86176e-06
4.18147e-14
3.02598e-08
2.83157e-06
4.26612e-14
3.01862e-08
2.80143e-06
4.34522e-14
3.0132e-08
2.77133e-06
4.4271e-14
3.00975e-08
2.74125e-06
4.5062e-14
3.00828e-08
2.71116e-06
4.57559e-14
3.00879e-08
2.68104e-06
4.64775e-14
3.01129e-08
2.65088e-06
4.71159e-14
3.0158e-08
2.62066e-06
4.78375e-14
3.02232e-08
2.59034e-06
4.85175e-14
3.03086e-08
2.55993e-06
4.91559e-14
3.04142e-08
2.52938e-06
4.98359e-14
3.05399e-08
2.4987e-06
5.0391e-14
3.0686e-08
2.46784e-06
5.08628e-14
3.08522e-08
2.4368e-06
5.14318e-14
3.10386e-08
2.40555e-06
5.18898e-14
3.12451e-08
2.37408e-06
5.23477e-14
3.14716e-08
2.34236e-06
5.29306e-14
3.17181e-08
2.31037e-06
5.32775e-14
3.19844e-08
2.27809e-06
5.36522e-14
3.22704e-08
2.24552e-06
5.40963e-14
3.25759e-08
2.21261e-06
5.45126e-14
3.29007e-08
2.17936e-06
5.49428e-14
3.32445e-08
2.14575e-06
5.53036e-14
3.36072e-08
2.11176e-06
5.56228e-14
3.39883e-08
2.07737e-06
5.59975e-14
3.43875e-08
2.04256e-06
5.63999e-14
3.48045e-08
2.00732e-06
5.67607e-14
3.52388e-08
1.97163e-06
5.7177e-14
3.569e-08
1.93547e-06
5.75934e-14
3.61575e-08
1.89882e-06
5.80374e-14
3.66408e-08
1.86168e-06
5.84538e-14
3.71392e-08
1.82403e-06
5.89256e-14
3.7652e-08
1.78584e-06
5.95085e-14
3.81786e-08
1.74712e-06
5.9897e-14
3.8718e-08
1.70785e-06
6.02578e-14
3.92695e-08
1.66801e-06
6.07297e-14
3.98321e-08
1.6276e-06
6.10905e-14
4.04047e-08
1.58661e-06
6.13403e-14
4.09862e-08
1.54503e-06
6.16178e-14
4.15755e-08
1.50286e-06
6.18121e-14
4.21713e-08
1.46008e-06
6.19231e-14
4.27721e-08
1.4167e-06
6.19509e-14
4.33766e-08
1.37272e-06
6.18953e-14
4.3983e-08
1.32812e-06
6.17843e-14
4.45897e-08
1.28292e-06
6.16178e-14
4.51948e-08
1.23712e-06
6.14235e-14
4.57963e-08
1.19073e-06
6.12569e-14
4.6392e-08
1.14374e-06
6.11181e-14
4.69796e-08
1.09618e-06
6.10071e-14
4.75566e-08
1.04806e-06
6.10071e-14
4.81203e-08
9.99386e-07
6.14789e-14
4.86676e-08
9.50186e-07
6.22561e-14
4.91954e-08
9.00482e-07
6.33941e-14
4.97001e-08
8.50299e-07
6.52537e-14
5.0178e-08
7.9967e-07
6.76129e-14
5.06248e-08
7.4863e-07
7.09991e-14
5.10359e-08
6.97219e-07
7.53012e-14
5.14064e-08
6.45483e-07
8.08523e-14
5.17307e-08
5.93476e-07
8.76246e-14
5.20025e-08
5.41256e-07
9.55905e-14
5.22151e-08
4.8889e-07
1.04944e-13
5.23609e-08
4.36453e-07
1.1513e-13
5.24313e-08
3.84031e-07
1.25594e-13
5.24169e-08
3.31719e-07
1.35586e-13
5.23069e-08
2.79624e-07
1.43885e-13
5.20893e-08
2.27867e-07
1.48881e-13
5.17503e-08
1.76587e-07
1.48493e-13
5.12743e-08
1.25937e-07
1.40443e-13
5.06431e-08
7.60951e-08
1.22902e-13
4.9835e-08
2.72633e-08
9.40362e-14
4.88248e-08
-2.03183e-08
5.24028e-14
4.75746e-08
-6.6363e-08
-6.10361e-16
4.60378e-08
-1.10554e-07
-5.9591e-14
4.41845e-08
-1.52549e-07
-1.17933e-13
4.19884e-08
-1.91957e-07
-1.65562e-13
3.94024e-08
-2.28319e-07
-1.87766e-13
3.63571e-08
-2.61102e-07
-1.66727e-13
3.27784e-08
-2.89687e-07
-8.40714e-14
2.85811e-08
-3.1335e-07
7.06659e-14
2.36591e-08
-3.31244e-07
2.88381e-13
1.78906e-08
-3.42379e-07
5.27412e-13
1.11297e-08
-3.45594e-07
7.07101e-13
3.20867e-09
-3.39578e-07
7.23588e-13
-6.02407e-09
-3.22889e-07
5.06484e-13
-1.67001e-08
-2.93992e-07
1.0153e-13
-2.89103e-08
-2.51467e-07
-2.83662e-13
-4.25382e-08
-1.94562e-07
-3.72813e-13
-5.69158e-08
-1.24539e-07
-1.20459e-13
-7.00325e-08
-4.77623e-08
2.05948e-14
-7.67888e-08
1.10759e-08
-4.21552e-13
-5.88564e-08
-1.93157e-12
1.10536e-08
-3.46872e-07
3.46854e-07
-6.41944e-07
2.95044e-07
-8.01915e-07
1.59961e-07
-8.30905e-07
2.89812e-08
-7.59084e-07
-7.1829e-08
-6.15598e-07
-1.43494e-07
-4.22859e-07
-1.92746e-07
-1.97193e-07
-2.25673e-07
4.95934e-08
-2.46794e-07
3.08528e-07
-2.58942e-07
5.73083e-07
-2.64562e-07
8.3893e-07
-2.65853e-07
1.10286e-06
-2.63939e-07
1.36253e-06
-2.59671e-07
1.61617e-06
-2.53647e-07
1.86246e-06
-2.46303e-07
2.10043e-06
-2.37969e-07
2.32932e-06
-2.28897e-07
2.5486e-06
-2.19286e-07
2.75788e-06
-2.09291e-07
2.95692e-06
-1.99039e-07
3.14554e-06
-1.88632e-07
3.32369e-06
-1.78157e-07
3.49137e-06
-1.67683e-07
3.64864e-06
-1.57271e-07
3.7956e-06
-1.4697e-07
3.93242e-06
-1.36823e-07
4.05928e-06
-1.26866e-07
4.17641e-06
-1.17131e-07
4.28404e-06
-1.07642e-07
4.38246e-06
-9.84224e-08
4.47194e-06
-8.94893e-08
4.5528e-06
-8.08579e-08
4.62533e-06
-7.254e-08
4.68987e-06
-6.45448e-08
4.74674e-06
-5.68793e-08
4.79629e-06
-4.9548e-08
4.83884e-06
-4.25536e-08
4.87473e-06
-3.58969e-08
4.9043e-06
-2.95773e-08
4.92789e-06
-2.35925e-08
4.94582e-06
-1.79391e-08
4.95843e-06
-1.26125e-08
4.96603e-06
-7.60722e-09
4.96895e-06
-2.91604e-09
4.96747e-06
1.46959e-09
4.96191e-06
5.5578e-09
4.95255e-06
9.35732e-09
4.93967e-06
1.28782e-08
4.92353e-06
1.61307e-08
4.9044e-06
1.91249e-08
4.88253e-06
2.18712e-08
4.85814e-06
2.43803e-08
4.83148e-06
2.66629e-08
4.80274e-06
2.87299e-08
4.77215e-06
3.05923e-08
4.73988e-06
3.22609e-08
4.70613e-06
3.37465e-08
4.67107e-06
3.50599e-08
4.63485e-06
3.62115e-08
4.59764e-06
3.72115e-08
4.55956e-06
3.80702e-08
4.52076e-06
3.87971e-08
4.48136e-06
3.94018e-08
4.44146e-06
3.98934e-08
4.40118e-06
4.02807e-08
4.3606e-06
4.05722e-08
4.31982e-06
4.0776e-08
4.27892e-06
4.08998e-08
4.23797e-06
4.09509e-08
4.19703e-06
4.09364e-08
4.15616e-06
4.08628e-08
4.11542e-06
4.07365e-08
4.07486e-06
4.05632e-08
4.03451e-06
4.03486e-08
3.9944e-06
4.00978e-08
3.95459e-06
3.98156e-08
3.91508e-06
3.95065e-08
3.8759e-06
3.91748e-08
3.83707e-06
3.88243e-08
3.79861e-06
3.84586e-08
3.76053e-06
3.80811e-08
3.72283e-06
3.76949e-08
3.68552e-06
3.73026e-08
3.64861e-06
3.6907e-08
3.6121e-06
3.65103e-08
3.57598e-06
3.61148e-08
3.54026e-06
3.57224e-08
3.50492e-06
3.53349e-08
3.46997e-06
3.49539e-08
3.43538e-06
3.45808e-08
3.40116e-06
3.42171e-08
3.3673e-06
3.38638e-08
3.33377e-06
3.35221e-08
3.30058e-06
3.3193e-08
3.2677e-06
3.28772e-08
3.23512e-06
3.25757e-08
3.20283e-06
3.22891e-08
3.1708e-06
3.2018e-08
3.13904e-06
3.17629e-08
3.10751e-06
3.15245e-08
3.07621e-06
3.13031e-08
3.0451e-06
3.10991e-08
3.01419e-06
3.09129e-08
2.98344e-06
3.07449e-08
2.95284e-06
3.05953e-08
2.92237e-06
3.04644e-08
2.89202e-06
3.03523e-08
2.86176e-06
3.02594e-08
2.83157e-06
3.01858e-08
2.80143e-06
3.01317e-08
2.77133e-06
3.00972e-08
2.74125e-06
3.00824e-08
2.71116e-06
3.00875e-08
2.68104e-06
3.01125e-08
2.65088e-06
3.01576e-08
2.62066e-06
3.02228e-08
2.59034e-06
3.03082e-08
2.55993e-06
3.04138e-08
2.52938e-06
3.05395e-08
2.4987e-06
3.06856e-08
2.46784e-06
3.08518e-08
2.4368e-06
3.10381e-08
2.40555e-06
3.12446e-08
2.37408e-06
3.14712e-08
2.34236e-06
3.17177e-08
2.31037e-06
3.1984e-08
2.27809e-06
3.227e-08
2.24552e-06
3.25755e-08
2.21261e-06
3.29002e-08
2.17936e-06
3.32441e-08
2.14575e-06
3.36067e-08
2.11176e-06
3.39878e-08
2.07737e-06
3.43871e-08
2.04256e-06
3.48041e-08
2.00732e-06
3.52384e-08
1.97163e-06
3.56895e-08
1.93547e-06
3.6157e-08
1.89882e-06
3.66403e-08
1.86168e-06
3.71387e-08
1.82403e-06
3.76515e-08
1.78584e-06
3.81781e-08
1.74712e-06
3.87175e-08
1.70785e-06
3.9269e-08
1.66801e-06
3.98316e-08
1.6276e-06
4.04041e-08
1.58661e-06
4.09857e-08
1.54503e-06
4.1575e-08
1.50286e-06
4.21707e-08
1.46008e-06
4.27716e-08
1.4167e-06
4.3376e-08
1.37272e-06
4.39825e-08
1.32812e-06
4.45891e-08
1.28292e-06
4.51942e-08
1.23712e-06
4.57957e-08
1.19073e-06
4.63914e-08
1.14374e-06
4.69791e-08
1.09618e-06
4.7556e-08
1.04806e-06
4.81197e-08
9.99386e-07
4.8667e-08
9.50186e-07
4.91947e-08
9.00482e-07
4.96995e-08
8.503e-07
5.01773e-08
7.9967e-07
5.06241e-08
7.4863e-07
5.10353e-08
6.97219e-07
5.14058e-08
6.45483e-07
5.173e-08
5.93476e-07
5.20018e-08
5.41256e-07
5.22144e-08
4.8889e-07
5.23602e-08
4.36454e-07
5.24306e-08
3.84031e-07
5.24162e-08
3.31719e-07
5.23061e-08
2.79624e-07
5.20885e-08
2.27867e-07
5.17495e-08
1.76587e-07
5.12734e-08
1.25937e-07
5.06422e-08
7.60953e-08
4.98341e-08
2.72635e-08
4.88239e-08
-2.03182e-08
4.75736e-08
-6.63629e-08
4.60369e-08
-1.10554e-07
4.41836e-08
-1.52549e-07
4.19876e-08
-1.91957e-07
3.94016e-08
-2.28319e-07
3.63563e-08
-2.61102e-07
3.27777e-08
-2.89687e-07
2.85804e-08
-3.13349e-07
2.36584e-08
-3.31244e-07
1.78899e-08
-3.42378e-07
1.11289e-08
-3.45594e-07
3.20768e-09
-3.39579e-07
-6.02538e-09
-3.2289e-07
-1.67018e-08
-2.93993e-07
-2.89123e-08
-2.51467e-07
-4.254e-08
-1.94563e-07
-5.69169e-08
-1.24541e-07
-7.00328e-08
-4.77662e-08
-7.67895e-08
1.1071e-08
-5.8859e-08
1.10469e-08
-2.70819e-07
1.56144e-13
6.17649e-07
-3.45114e-07
1.33203e-14
3.69325e-07
-3.37038e-07
2.18285e-14
1.51879e-07
-2.74211e-07
5.46766e-17
-3.38511e-08
-1.65989e-07
-7.34893e-15
-1.80057e-07
-2.04513e-08
-1.3004e-14
-2.89036e-07
1.54387e-07
-1.73616e-14
-3.67589e-07
3.50959e-07
-2.05742e-14
-4.2225e-07
5.62931e-07
-2.28779e-14
-4.58771e-07
7.85175e-07
-2.39326e-14
-4.8119e-07
1.01353e-06
-2.35717e-14
-4.92925e-07
1.24455e-06
-2.28431e-14
-4.96872e-07
1.4755e-06
-2.17814e-14
-4.94896e-07
1.70426e-06
-2.05463e-14
-4.88429e-07
1.92912e-06
-1.92417e-14
-4.78518e-07
2.14878e-06
-1.79129e-14
-4.6596e-07
2.36217e-06
-1.66153e-14
-4.51368e-07
2.56849e-06
-1.5401e-14
-4.35221e-07
2.7671e-06
-1.42561e-14
-4.17901e-07
2.95752e-06
-1.31909e-14
-3.99716e-07
3.1394e-06
-1.22195e-14
-3.80916e-07
3.31247e-06
-1.13243e-14
-3.61708e-07
3.47657e-06
-1.04917e-14
-3.42263e-07
3.63161e-06
-9.74224e-15
-3.22727e-07
3.77756e-06
-9.06568e-15
-3.03223e-07
3.91444e-06
-8.45157e-15
-2.83853e-07
4.04232e-06
-7.92421e-15
-2.64709e-07
4.16132e-06
-7.44541e-15
-2.45864e-07
4.27157e-06
-7.02906e-15
-2.27385e-07
4.37325e-06
-6.66129e-15
-2.09327e-07
4.46656e-06
-6.34556e-15
-1.91737e-07
4.55172e-06
-6.07146e-15
-1.74654e-07
4.62897e-06
-5.85634e-15
-1.58111e-07
4.69856e-06
-5.7002e-15
-1.42136e-07
4.76076e-06
-5.57529e-15
-1.2675e-07
4.81585e-06
-5.48507e-15
-1.11969e-07
4.8641e-06
-5.42608e-15
-9.78057e-08
4.90581e-06
-5.40178e-15
-8.42684e-08
4.94127e-06
-5.38789e-15
-7.13613e-08
4.97078e-06
-5.4087e-15
-5.90857e-08
4.99462e-06
-5.45726e-15
-4.74397e-08
5.0131e-06
-5.50582e-15
-3.64186e-08
5.0265e-06
-5.5856e-15
-2.60153e-08
5.03511e-06
-5.65498e-15
-1.62206e-08
5.03921e-06
-5.7417e-15
-7.02282e-09
5.03909e-06
-5.83537e-15
1.59108e-09
5.03501e-06
-5.94985e-15
9.63581e-09
5.02723e-06
-6.06433e-15
1.71276e-08
5.01603e-06
-6.14064e-15
2.40839e-08
5.00163e-06
-6.2343e-15
3.05228e-08
4.98429e-06
-6.30715e-15
3.64631e-08
4.96424e-06
-6.39041e-15
4.19241e-08
4.94169e-06
-6.44591e-15
4.69256e-08
4.91686e-06
-6.51181e-15
5.14879e-08
4.88996e-06
-6.56731e-15
5.56314e-08
4.86117e-06
-6.59506e-15
5.93766e-08
4.83068e-06
-6.63321e-15
6.27441e-08
4.79867e-06
-6.64361e-15
6.57543e-08
4.7653e-06
-6.6436e-15
6.84275e-08
4.73073e-06
-6.62971e-15
7.07836e-08
4.6951e-06
-6.61582e-15
7.28422e-08
4.65854e-06
-6.58459e-15
7.46226e-08
4.62119e-06
-6.53601e-15
7.61435e-08
4.58317e-06
-6.49436e-15
7.7423e-08
4.54458e-06
-6.43884e-15
7.84787e-08
4.50553e-06
-6.36945e-15
7.93276e-08
4.46612e-06
-6.2827e-15
7.9986e-08
4.42642e-06
-6.20637e-15
8.04697e-08
4.38653e-06
-6.09881e-15
8.07935e-08
4.3465e-06
-6.019e-15
8.09718e-08
4.30642e-06
-5.93226e-15
8.10183e-08
4.26633e-06
-5.84205e-15
8.09457e-08
4.2263e-06
-5.72755e-15
8.07663e-08
4.18637e-06
-5.61999e-15
8.04917e-08
4.14659e-06
-5.51243e-15
8.01325e-08
4.10698e-06
-5.41182e-15
7.96992e-08
4.0676e-06
-5.30773e-15
7.92011e-08
4.02845e-06
-5.20364e-15
7.86471e-08
3.98958e-06
-5.12731e-15
7.80456e-08
3.951e-06
-5.03016e-15
7.74043e-08
3.91272e-06
-4.9573e-15
7.67303e-08
3.87477e-06
-4.87403e-15
7.60303e-08
3.83716e-06
-4.7873e-15
7.53104e-08
3.79988e-06
-4.72485e-15
7.45762e-08
3.76295e-06
-4.64852e-15
7.38329e-08
3.72638e-06
-4.58954e-15
7.30852e-08
3.69015e-06
-4.53402e-15
7.23376e-08
3.65428e-06
-4.47851e-15
7.15939e-08
3.61875e-06
-4.44035e-15
7.08579e-08
3.58357e-06
-4.40913e-15
7.01327e-08
3.54873e-06
-4.38484e-15
6.94215e-08
3.51422e-06
-4.36403e-15
6.87268e-08
3.48003e-06
-4.36403e-15
6.80513e-08
3.44615e-06
-4.35363e-15
6.73971e-08
3.41258e-06
-4.36057e-15
6.67662e-08
3.37929e-06
-4.37792e-15
6.61605e-08
3.34629e-06
-4.38486e-15
6.55815e-08
3.31354e-06
-4.39874e-15
6.50308e-08
3.28105e-06
-4.4265e-15
6.45096e-08
3.24879e-06
-4.45773e-15
6.40192e-08
3.21675e-06
-4.49243e-15
6.35605e-08
3.18492e-06
-4.5306e-15
6.31347e-08
3.15327e-06
-4.58265e-15
6.27425e-08
3.1218e-06
-4.6347e-15
6.23846e-08
3.09048e-06
-4.67633e-15
6.20619e-08
3.0593e-06
-4.73185e-15
6.17748e-08
3.02824e-06
-4.79084e-15
6.1524e-08
2.99728e-06
-4.84636e-15
6.13099e-08
2.9664e-06
-4.91575e-15
6.11331e-08
2.93559e-06
-4.98168e-15
6.09938e-08
2.90483e-06
-5.0476e-15
6.08925e-08
2.8741e-06
-5.11006e-15
6.08293e-08
2.84337e-06
-5.16558e-15
6.08048e-08
2.81264e-06
-5.23844e-15
6.08189e-08
2.78188e-06
-5.30784e-15
6.0872e-08
2.75107e-06
-5.37376e-15
6.09642e-08
2.72019e-06
-5.43969e-15
6.10956e-08
2.68923e-06
-5.51603e-15
6.12663e-08
2.65817e-06
-5.57848e-15
6.14764e-08
2.62698e-06
-5.64441e-15
6.17259e-08
2.59565e-06
-5.69646e-15
6.20148e-08
2.56416e-06
-5.75892e-15
6.23431e-08
2.53248e-06
-5.81097e-15
6.27105e-08
2.50061e-06
-5.87689e-15
6.31171e-08
2.46851e-06
-5.92894e-15
6.35625e-08
2.43618e-06
-5.99487e-15
6.40467e-08
2.40359e-06
-6.04345e-15
6.45692e-08
2.37073e-06
-6.09897e-15
6.51298e-08
2.33758e-06
-6.14408e-15
6.57281e-08
2.30411e-06
-6.18918e-15
6.63636e-08
2.27032e-06
-6.22042e-15
6.70357e-08
2.23618e-06
-6.24471e-15
6.7744e-08
2.20167e-06
-6.30023e-15
6.84877e-08
2.16679e-06
-6.32799e-15
6.92662e-08
2.13152e-06
-6.34187e-15
7.00785e-08
2.09583e-06
-6.37658e-15
7.09238e-08
2.05971e-06
-6.40434e-15
7.1801e-08
2.02316e-06
-6.40434e-15
7.27091e-08
1.98615e-06
-6.43211e-15
7.36469e-08
1.94867e-06
-6.43558e-15
7.46131e-08
1.91072e-06
-6.43559e-15
7.56062e-08
1.87227e-06
-6.44253e-15
7.66247e-08
1.83331e-06
-6.47723e-15
7.7667e-08
1.79385e-06
-6.51193e-15
7.87312e-08
1.75386e-06
-6.53622e-15
7.98153e-08
1.71335e-06
-6.56399e-15
8.09173e-08
1.67229e-06
-6.61603e-15
8.20349e-08
1.6307e-06
-6.65767e-15
8.31657e-08
1.58856e-06
-6.7236e-15
8.43071e-08
1.54587e-06
-6.78605e-15
8.54561e-08
1.50264e-06
-6.85198e-15
8.66099e-08
1.45885e-06
-6.93525e-15
8.77652e-08
1.41452e-06
-6.99423e-15
8.89184e-08
1.36964e-06
-7.04281e-15
9.00659e-08
1.32423e-06
-7.12261e-15
9.12035e-08
1.27829e-06
-7.17813e-15
9.23271e-08
1.23184e-06
-7.19895e-15
9.34318e-08
1.18488e-06
-7.21283e-15
9.45127e-08
1.13743e-06
-7.2163e-15
9.55644e-08
1.08951e-06
-7.16773e-15
9.65809e-08
1.04115e-06
-7.06018e-15
9.75559e-08
9.92363e-07
-6.93182e-15
9.84826e-08
9.43184e-07
-6.7757e-15
9.93533e-08
8.93645e-07
-6.571e-15
1.0016e-07
8.43783e-07
-6.32814e-15
1.00894e-07
7.93641e-07
-6.01243e-15
1.01544e-07
7.43265e-07
-5.65508e-15
1.02102e-07
6.9271e-07
-5.25956e-15
1.02554e-07
6.42033e-07
-4.86405e-15
1.02887e-07
5.91302e-07
-4.46853e-15
1.03088e-07
5.40589e-07
-4.14241e-15
1.03139e-07
4.89977e-07
-4.01751e-15
1.03024e-07
4.39557e-07
-4.15629e-15
1.02722e-07
3.89432e-07
-4.69753e-15
1.0221e-07
3.39714e-07
-5.84245e-15
1.01462e-07
2.90531e-07
-7.76452e-15
1.00451e-07
2.42026e-07
-1.05956e-14
9.91431e-08
1.94356e-07
-1.4412e-14
9.7499e-08
1.477e-07
-1.91929e-14
9.54745e-08
1.02256e-07
-2.47162e-14
9.30122e-08
5.82429e-08
-3.04616e-14
9.00456e-08
1.59035e-08
-3.57907e-14
8.65185e-08
-2.44776e-08
-3.96904e-14
8.23646e-08
-6.25776e-08
-4.06341e-14
7.74981e-08
-9.80484e-08
-3.64291e-14
7.1824e-08
-1.30504e-07
-2.44456e-14
6.52307e-08
-1.59513e-07
-2.19953e-15
5.7587e-08
-1.84597e-07
3.08712e-14
4.87393e-08
-2.05231e-07
7.07976e-14
3.85192e-08
-2.20846e-07
1.05992e-13
2.67395e-08
-2.30854e-07
1.16504e-13
1.32082e-08
-2.34648e-07
8.029e-14
-2.23933e-09
-2.31667e-07
-9.11761e-15
-1.96926e-08
-2.21489e-07
-1.18051e-13
-3.90991e-08
-2.03967e-07
-1.63286e-13
-6.00701e-08
-1.79407e-07
-6.08818e-14
-8.14855e-08
-1.48693e-07
1.40207e-13
-1.00757e-07
-1.13039e-07
1.73778e-13
-1.12456e-07
-6.82348e-08
-3.59159e-14
-1.03681e-07
-1.54765e-12
-5.72032e-08
-2.70821e-07
6.17647e-07
-3.45114e-07
3.69323e-07
-3.37038e-07
1.51878e-07
-2.7421e-07
-3.38519e-08
-1.65988e-07
-1.80057e-07
-2.04503e-08
-2.89036e-07
1.54388e-07
-3.6759e-07
3.5096e-07
-4.2225e-07
5.62932e-07
-4.58771e-07
7.85175e-07
-4.8119e-07
1.01353e-06
-4.92925e-07
1.24455e-06
-4.96872e-07
1.4755e-06
-4.94896e-07
1.70426e-06
-4.88429e-07
1.92912e-06
-4.78518e-07
2.14878e-06
-4.6596e-07
2.36217e-06
-4.51368e-07
2.56849e-06
-4.35221e-07
2.7671e-06
-4.17901e-07
2.95752e-06
-3.99716e-07
3.1394e-06
-3.80916e-07
3.31247e-06
-3.61708e-07
3.47657e-06
-3.42263e-07
3.63161e-06
-3.22727e-07
3.77756e-06
-3.03223e-07
3.91444e-06
-2.83853e-07
4.04232e-06
-2.64709e-07
4.16132e-06
-2.45864e-07
4.27157e-06
-2.27385e-07
4.37325e-06
-2.09327e-07
4.46656e-06
-1.91737e-07
4.55172e-06
-1.74654e-07
4.62897e-06
-1.58111e-07
4.69856e-06
-1.42136e-07
4.76076e-06
-1.2675e-07
4.81585e-06
-1.11969e-07
4.8641e-06
-9.78057e-08
4.90581e-06
-8.42684e-08
4.94127e-06
-7.13613e-08
4.97078e-06
-5.90857e-08
4.99462e-06
-4.74397e-08
5.0131e-06
-3.64186e-08
5.0265e-06
-2.60153e-08
5.03511e-06
-1.62206e-08
5.03921e-06
-7.02284e-09
5.03909e-06
1.59106e-09
5.03501e-06
9.63578e-09
5.02723e-06
1.71276e-08
5.01603e-06
2.40839e-08
5.00163e-06
3.05228e-08
4.98429e-06
3.6463e-08
4.96423e-06
4.1924e-08
4.94169e-06
4.69255e-08
4.91686e-06
5.14878e-08
4.88995e-06
5.56313e-08
4.86117e-06
5.93765e-08
4.83068e-06
6.2744e-08
4.79867e-06
6.57542e-08
4.7653e-06
6.84274e-08
4.73073e-06
7.07835e-08
4.69509e-06
7.28421e-08
4.65854e-06
7.46226e-08
4.62119e-06
7.61434e-08
4.58317e-06
7.74229e-08
4.54458e-06
7.84786e-08
4.50553e-06
7.93275e-08
4.46612e-06
7.99859e-08
4.42642e-06
8.04696e-08
4.38652e-06
8.07934e-08
4.3465e-06
8.09717e-08
4.30642e-06
8.10182e-08
4.26633e-06
8.09456e-08
4.2263e-06
8.07662e-08
4.18637e-06
8.04915e-08
4.14659e-06
8.01324e-08
4.10698e-06
7.96991e-08
4.06759e-06
7.92009e-08
4.02845e-06
7.8647e-08
3.98958e-06
7.80455e-08
3.951e-06
7.74042e-08
3.91272e-06
7.67302e-08
3.87477e-06
7.60302e-08
3.83716e-06
7.53103e-08
3.79988e-06
7.45761e-08
3.76295e-06
7.38328e-08
3.72638e-06
7.30851e-08
3.69015e-06
7.23375e-08
3.65428e-06
7.15938e-08
3.61875e-06
7.08578e-08
3.58357e-06
7.01326e-08
3.54873e-06
6.94214e-08
3.51422e-06
6.87268e-08
3.48003e-06
6.80512e-08
3.44615e-06
6.7397e-08
3.41258e-06
6.67662e-08
3.37929e-06
6.61604e-08
3.34629e-06
6.55814e-08
3.31354e-06
6.50307e-08
3.28105e-06
6.45095e-08
3.24879e-06
6.40191e-08
3.21675e-06
6.35605e-08
3.18492e-06
6.31346e-08
3.15327e-06
6.27424e-08
3.1218e-06
6.23845e-08
3.09048e-06
6.20618e-08
3.0593e-06
6.17747e-08
3.02824e-06
6.15239e-08
2.99728e-06
6.13099e-08
2.9664e-06
6.1133e-08
2.93559e-06
6.09937e-08
2.90483e-06
6.08924e-08
2.8741e-06
6.08293e-08
2.84337e-06
6.08047e-08
2.81264e-06
6.08188e-08
2.78188e-06
6.08719e-08
2.75107e-06
6.09641e-08
2.72019e-06
6.10955e-08
2.68923e-06
6.12663e-08
2.65817e-06
6.14764e-08
2.62698e-06
6.17259e-08
2.59565e-06
6.20148e-08
2.56415e-06
6.2343e-08
2.53248e-06
6.27104e-08
2.50061e-06
6.3117e-08
2.46851e-06
6.35625e-08
2.43618e-06
6.40466e-08
2.40359e-06
6.45691e-08
2.37073e-06
6.51297e-08
2.33758e-06
6.5728e-08
2.30411e-06
6.63635e-08
2.27032e-06
6.70357e-08
2.23618e-06
6.7744e-08
2.20167e-06
6.84877e-08
2.16679e-06
6.92661e-08
2.13152e-06
7.00784e-08
2.09583e-06
7.09237e-08
2.05971e-06
7.18009e-08
2.02316e-06
7.27091e-08
1.98615e-06
7.36469e-08
1.94867e-06
7.4613e-08
1.91072e-06
7.56062e-08
1.87227e-06
7.66247e-08
1.83331e-06
7.76669e-08
1.79385e-06
7.87311e-08
1.75386e-06
7.98152e-08
1.71335e-06
8.09172e-08
1.67229e-06
8.20349e-08
1.6307e-06
8.31656e-08
1.58856e-06
8.4307e-08
1.54587e-06
8.5456e-08
1.50264e-06
8.66098e-08
1.45885e-06
8.77651e-08
1.41452e-06
8.89183e-08
1.36964e-06
9.00658e-08
1.32423e-06
9.12035e-08
1.2783e-06
9.2327e-08
1.23184e-06
9.34317e-08
1.18488e-06
9.45126e-08
1.13743e-06
9.55643e-08
1.08951e-06
9.65808e-08
1.04115e-06
9.75558e-08
9.92363e-07
9.84825e-08
9.43184e-07
9.93532e-08
8.93645e-07
1.0016e-07
8.43783e-07
1.00894e-07
7.93641e-07
1.01544e-07
7.43266e-07
1.02102e-07
6.9271e-07
1.02554e-07
6.42033e-07
1.02887e-07
5.91302e-07
1.03088e-07
5.40589e-07
1.03139e-07
4.89977e-07
1.03024e-07
4.39557e-07
1.02721e-07
3.89432e-07
1.02209e-07
3.39714e-07
1.01462e-07
2.90532e-07
1.00451e-07
2.42026e-07
9.9143e-08
1.94356e-07
9.74989e-08
1.477e-07
9.54744e-08
1.02256e-07
9.30122e-08
5.8243e-08
9.00455e-08
1.59036e-08
8.65185e-08
-2.44774e-08
8.23645e-08
-6.25775e-08
7.7498e-08
-9.80483e-08
7.18239e-08
-1.30504e-07
6.52306e-08
-1.59513e-07
5.75869e-08
-1.84597e-07
4.87392e-08
-2.0523e-07
3.85191e-08
-2.20846e-07
2.67393e-08
-2.30854e-07
1.32081e-08
-2.34649e-07
-2.2395e-09
-2.31667e-07
-1.96928e-08
-2.21489e-07
-3.90992e-08
-2.03967e-07
-6.00702e-08
-1.79407e-07
-8.14857e-08
-1.48694e-07
-1.00757e-07
-1.13041e-07
-1.12457e-07
-6.82406e-08
-1.03682e-07
-5.72029e-08
-1.1732e-07
2.43407e-13
7.3496e-07
-9.511e-08
1.56936e-14
3.47106e-07
-1.7013e-08
2.86081e-14
7.37797e-08
8.9227e-08
1.81169e-14
-1.40093e-07
2.17088e-07
1.66841e-14
-3.07919e-07
3.64306e-07
1.55463e-14
-4.36255e-07
5.2843e-07
1.45194e-14
-5.31714e-07
7.06608e-07
1.34578e-14
-6.0043e-07
8.9568e-07
1.23198e-14
-6.47843e-07
1.09279e-06
1.1168e-14
-6.78301e-07
1.2953e-06
1.01168e-14
-6.95432e-07
1.50066e-06
9.1488e-15
-7.02236e-07
1.70673e-06
8.35431e-15
-7.00967e-07
1.91168e-06
7.70207e-15
-6.93384e-07
2.11401e-06
7.1886e-15
-6.80845e-07
2.31246e-06
6.76361e-15
-6.64414e-07
2.50603e-06
6.42188e-15
-6.44933e-07
2.69388e-06
6.1374e-15
-6.23072e-07
2.87535e-06
5.91189e-15
-5.99377e-07
3.04993e-06
5.71761e-15
-5.74292e-07
3.21719e-06
5.54762e-15
-5.48183e-07
3.37684e-06
5.41232e-15
-5.21357e-07
3.52865e-06
5.2961e-15
-4.94072e-07
3.67247e-06
5.17815e-15
-4.66546e-07
3.80821e-06
5.09316e-15
-4.38963e-07
3.93584e-06
5.00296e-15
-4.11485e-07
4.05537e-06
4.92144e-15
-3.84246e-07
4.16687e-06
4.84685e-15
-3.57365e-07
4.27043e-06
4.76359e-15
-3.30942e-07
4.36617e-06
4.69421e-15
-3.05065e-07
4.45424e-06
4.62483e-15
-2.79807e-07
4.53481e-06
4.55371e-15
-2.5523e-07
4.60809e-06
4.47739e-15
-2.31389e-07
4.67428e-06
4.39934e-15
-2.08326e-07
4.7336e-06
4.32128e-15
-1.86077e-07
4.7863e-06
4.24496e-15
-1.6467e-07
4.83262e-06
4.16864e-15
-1.44127e-07
4.87282e-06
4.08191e-15
-1.24463e-07
4.90714e-06
4.00039e-15
-1.05688e-07
4.93586e-06
3.90846e-15
-8.7806e-08
4.95924e-06
3.82346e-15
-7.08176e-08
4.97754e-06
3.74194e-15
-5.47185e-08
4.99102e-06
3.66041e-15
-3.95006e-08
4.99995e-06
3.57889e-15
-2.51526e-08
5.00459e-06
3.48348e-15
-1.166e-08
5.00519e-06
3.40543e-15
9.94601e-10
5.00199e-06
3.32911e-15
1.28304e-08
4.99525e-06
3.24932e-15
2.38692e-08
4.9852e-06
3.1834e-15
3.41345e-08
4.97207e-06
3.11402e-15
4.36513e-08
4.95608e-06
3.04984e-15
5.24458e-08
4.93746e-06
2.99954e-15
6.05449e-08
4.91641e-06
2.94924e-15
6.79765e-08
4.89313e-06
2.89894e-15
7.47692e-08
4.86781e-06
2.86425e-15
8.09518e-08
4.84063e-06
2.82262e-15
8.65535e-08
4.81177e-06
2.79661e-15
9.16034e-08
4.78139e-06
2.76712e-15
9.61309e-08
4.74966e-06
2.74978e-15
1.00165e-07
4.7167e-06
2.73591e-15
1.03734e-07
4.68268e-06
2.72897e-15
1.06866e-07
4.64771e-06
2.73071e-15
1.09588e-07
4.61193e-06
2.73072e-15
1.11929e-07
4.57544e-06
2.72205e-15
1.13914e-07
4.53835e-06
2.72379e-15
1.15567e-07
4.50076e-06
2.7394e-15
1.16915e-07
4.46276e-06
2.74808e-15
1.17981e-07
4.42445e-06
2.75849e-15
1.18787e-07
4.38589e-06
2.77931e-15
1.19355e-07
4.34715e-06
2.78972e-15
1.19706e-07
4.30831e-06
2.79493e-15
1.1986e-07
4.26942e-06
2.81922e-15
1.19835e-07
4.23053e-06
2.83136e-15
1.19651e-07
4.1917e-06
2.85565e-15
1.19322e-07
4.15297e-06
2.87126e-15
1.18866e-07
4.11437e-06
2.87647e-15
1.18298e-07
4.07594e-06
2.89208e-15
1.17631e-07
4.03771e-06
2.90423e-15
1.16878e-07
3.9997e-06
2.90423e-15
1.16052e-07
3.96194e-06
2.91117e-15
1.15164e-07
3.92445e-06
2.91464e-15
1.14224e-07
3.88723e-06
2.92331e-15
1.13244e-07
3.85031e-06
2.92678e-15
1.12231e-07
3.8137e-06
2.92158e-15
1.11194e-07
3.77739e-06
2.91811e-15
1.10141e-07
3.74139e-06
2.91464e-15
1.09078e-07
3.70572e-06
2.90596e-15
1.08014e-07
3.67036e-06
2.89382e-15
1.06952e-07
3.63532e-06
2.87994e-15
1.059e-07
3.60059e-06
2.85912e-15
1.04862e-07
3.56617e-06
2.84003e-15
1.03842e-07
3.53205e-06
2.81922e-15
1.02844e-07
3.49823e-06
2.80187e-15
1.01873e-07
3.46469e-06
2.77411e-15
1.00932e-07
3.43143e-06
2.74462e-15
1.00023e-07
3.39844e-06
2.71339e-15
9.91497e-08
3.36571e-06
2.68737e-15
9.83147e-08
3.33322e-06
2.66134e-15
9.752e-08
3.30096e-06
2.63185e-15
9.67676e-08
3.26892e-06
2.59715e-15
9.60595e-08
3.23708e-06
2.56766e-15
9.53972e-08
3.20544e-06
2.53643e-15
9.47823e-08
3.17396e-06
2.5052e-15
9.4216e-08
3.14265e-06
2.47224e-15
9.36996e-08
3.11147e-06
2.43927e-15
9.32342e-08
3.08043e-06
2.41325e-15
9.28207e-08
3.04949e-06
2.38376e-15
9.246e-08
3.01865e-06
2.35426e-15
9.21528e-08
2.98788e-06
2.32997e-15
9.18999e-08
2.95717e-06
2.30221e-15
9.17018e-08
2.92651e-06
2.2866e-15
9.15591e-08
2.89586e-06
2.26924e-15
9.14723e-08
2.86522e-06
2.25189e-15
9.14418e-08
2.83457e-06
2.23628e-15
9.14679e-08
2.8039e-06
2.21892e-15
9.15509e-08
2.77317e-06
2.20678e-15
9.16911e-08
2.74237e-06
2.20157e-15
9.18886e-08
2.7115e-06
2.19463e-15
9.21435e-08
2.68052e-06
2.19289e-15
9.2456e-08
2.64942e-06
2.19288e-15
9.2826e-08
2.61818e-06
2.19982e-15
9.32535e-08
2.58678e-06
2.20849e-15
9.37384e-08
2.55521e-06
2.22063e-15
9.42805e-08
2.52345e-06
2.23624e-15
9.48796e-08
2.49147e-06
2.25531e-15
9.55353e-08
2.45927e-06
2.27613e-15
9.62473e-08
2.42683e-06
2.30388e-15
9.7015e-08
2.39412e-06
2.33163e-15
9.78381e-08
2.36113e-06
2.36632e-15
9.87157e-08
2.32785e-06
2.40448e-15
9.96472e-08
2.29425e-06
2.45305e-15
1.00632e-07
2.26032e-06
2.50162e-15
1.01668e-07
2.22605e-06
2.54672e-15
1.02756e-07
2.19143e-06
2.60222e-15
1.03894e-07
2.15642e-06
2.656e-15
1.0508e-07
2.12103e-06
2.71671e-15
1.06314e-07
2.08524e-06
2.78089e-15
1.07593e-07
2.04903e-06
2.85028e-15
1.08916e-07
2.0124e-06
2.92834e-15
1.10281e-07
1.97532e-06
3.00986e-15
1.11687e-07
1.9378e-06
3.08445e-15