/*--------------------------------*- C++ -*----------------------------------*\
  =========                 |
  \\      /  F ield         | OpenFOAM: The Open Source CFD Toolbox
   \\    /   O peration     | Website:  https://openfoam.org
    \\  /    A nd           | Version:  8
     \\/     M anipulation  |
\*---------------------------------------------------------------------------*/
FoamFile
{
    version     2.0;
    format      ascii;
    class       volVectorField;
    location    "4900";
    object      U;
}
// * * * * * * * * * * * * * * * * * * * * * * * * * * * * * * * * * * * * * //

dimensions      [0 1 -1 0 0 0 0];

internalField   nonuniform List<vector> 
48000
(
(-0.0156141 2.25394e-07 0.017185)
(-0.0363012 2.79454e-08 0.018717)
(-0.0516537 2.63236e-08 0.0106402)
(-0.0578505 1.29828e-08 0.00222194)
(-0.0557569 4.85037e-09 -0.00414276)
(-0.0479954 -1.12332e-09 -0.0085823)
(-0.0361812 -4.98013e-09 -0.0116065)
(-0.0216375 -7.48915e-09 -0.0136437)
(-0.00534631 -9.54129e-09 -0.0149523)
(0.0122291 -1.08815e-08 -0.015611)
(0.0301772 -1.0672e-08 -0.0157853)
(0.0484355 -9.70877e-09 -0.0157114)
(0.0666429 -8.42189e-09 -0.0154645)
(0.0846305 -6.9789e-09 -0.0150959)
(0.102258 -5.46357e-09 -0.0146409)
(0.119421 -3.96728e-09 -0.0141245)
(0.136042 -2.52811e-09 -0.0135651)
(0.152063 -1.1765e-09 -0.0129762)
(0.16744 6.85014e-11 -0.0123682)
(0.182143 1.19547e-09 -0.0117489)
(0.196149 2.21584e-09 -0.0111245)
(0.209446 3.12389e-09 -0.0105)
(0.222025 3.94057e-09 -0.00987924)
(0.233884 4.66016e-09 -0.00926535)
(0.245027 5.29217e-09 -0.00866092)
(0.255458 5.83282e-09 -0.00806806)
(0.265187 6.2916e-09 -0.0074885)
(0.274226 6.68376e-09 -0.00692368)
(0.28259 7.00738e-09 -0.00637476)
(0.290293 7.26247e-09 -0.00584271)
(0.297355 7.45855e-09 -0.00532829)
(0.303794 7.60133e-09 -0.00483211)
(0.30963 7.68699e-09 -0.00435464)
(0.314885 7.72507e-09 -0.00389621)
(0.319581 7.71746e-09 -0.00345706)
(0.323739 7.67558e-09 -0.00303731)
(0.327383 7.58611e-09 -0.00263698)
(0.330535 7.47569e-09 -0.00225603)
(0.333219 7.33292e-09 -0.00189432)
(0.335459 7.15398e-09 -0.00155166)
(0.337276 6.96932e-09 -0.0012278)
(0.338694 6.75231e-09 -0.000922439)
(0.339736 6.52577e-09 -0.000635232)
(0.340424 6.2764e-09 -0.000365803)
(0.340779 6.01369e-09 -0.00011354)
(0.340823 5.75289e-09 0.000122276)
(0.340577 5.48638e-09 0.000341791)
(0.34006 5.21036e-09 0.000545284)
(0.339293 4.94194e-09 0.00073356)
(0.338293 4.67924e-09 0.000907285)
(0.33708 4.40321e-09 0.00106705)
(0.335669 4.14812e-09 0.00121345)
(0.334079 3.89875e-09 0.00134706)
(0.332324 3.65318e-09 0.00146848)
(0.330421 3.40951e-09 0.0015783)
(0.328383 3.18869e-09 0.00167713)
(0.326224 2.9831e-09 0.00176556)
(0.323957 2.77751e-09 0.00184417)
(0.321594 2.58714e-09 0.00191355)
(0.319147 2.41011e-09 0.00197425)
(0.316626 2.25211e-09 0.00202685)
(0.314042 2.10933e-09 0.00207188)
(0.311403 1.98179e-09 0.00210986)
(0.308719 1.86567e-09 0.0021413)
(0.305998 1.76668e-09 0.0021667)
(0.303247 1.68102e-09 0.00218652)
(0.300472 1.61249e-09 0.00220123)
(0.297681 1.5649e-09 0.00221126)
(0.294878 1.52683e-09 0.00221702)
(0.29207 1.49638e-09 0.00221891)
(0.28926 1.48115e-09 0.00221729)
(0.286454 1.47925e-09 0.00221254)
(0.283654 1.49067e-09 0.00220497)
(0.280865 1.51351e-09 0.00219491)
(0.27809 1.54968e-09 0.00218266)
(0.27533 1.58586e-09 0.00216848)
(0.272589 1.63916e-09 0.00215265)
(0.269868 1.70579e-09 0.0021354)
(0.267169 1.77813e-09 0.00211695)
(0.264494 1.84856e-09 0.00209753)
(0.261843 1.93613e-09 0.00207731)
(0.259218 2.0237e-09 0.00205648)
(0.256619 2.12649e-09 0.00203521)
(0.254047 2.23119e-09 0.00201364)
(0.251502 2.3397e-09 0.00199191)
(0.248984 2.45772e-09 0.00197015)
(0.246493 2.57004e-09 0.00194847)
(0.244029 2.69758e-09 0.00192699)
(0.241592 2.82512e-09 0.00190579)
(0.239182 2.94125e-09 0.00188497)
(0.236797 3.07069e-09 0.00186459)
(0.234438 3.19823e-09 0.00184474)
(0.232103 3.32768e-09 0.00182548)
(0.229792 3.46093e-09 0.00180686)
(0.227504 3.59038e-09 0.00178894)
(0.225239 3.71411e-09 0.00177177)
(0.222994 3.84737e-09 0.00175538)
(0.22077 3.97491e-09 0.00173981)
(0.218564 4.11387e-09 0.00172511)
(0.216377 4.2376e-09 0.00171129)
(0.214207 4.36895e-09 0.00169839)
(0.212053 4.49649e-09 0.00168643)
(0.209913 4.62404e-09 0.00167544)
(0.207786 4.74967e-09 0.00166543)
(0.205672 4.87341e-09 0.00165642)
(0.203568 4.99524e-09 0.00164843)
(0.201475 5.11135e-09 0.00164148)
(0.199389 5.23509e-09 0.00163557)
(0.197311 5.3455e-09 0.00163072)
(0.195238 5.46733e-09 0.00162694)
(0.19317 5.57583e-09 0.00162425)
(0.191104 5.69385e-09 0.00162264)
(0.189041 5.80616e-09 0.00162214)
(0.186977 5.91276e-09 0.00162274)
(0.184913 6.01746e-09 0.00162445)
(0.182846 6.11454e-09 0.00162729)
(0.180776 6.22114e-09 0.00163126)
(0.1787 6.32584e-09 0.00163635)
(0.176618 6.42102e-09 0.00164258)
(0.174528 6.52571e-09 0.00164995)
(0.172428 6.61518e-09 0.00165847)
(0.170318 6.69704e-09 0.00166812)
(0.168196 6.78841e-09 0.00167893)
(0.16606 6.87216e-09 0.00169088)
(0.16391 6.95021e-09 0.00170397)
(0.161743 7.04348e-09 0.0017182)
(0.159558 7.11582e-09 0.00173357)
(0.157355 7.18625e-09 0.00175008)
(0.155131 7.26049e-09 0.00176772)
(0.152886 7.33473e-09 0.00178648)
(0.150618 7.41087e-09 0.00180635)
(0.148325 7.4813e-09 0.00182732)
(0.146008 7.54602e-09 0.00184938)
(0.143663 7.61265e-09 0.00187251)
(0.14129 7.68689e-09 0.00189671)
(0.138888 7.75161e-09 0.00192194)
(0.136456 7.82394e-09 0.00194819)
(0.133992 7.89628e-09 0.00197544)
(0.131496 7.96861e-09 0.00200366)
(0.128966 8.04095e-09 0.00203281)
(0.126401 8.1209e-09 0.00206288)
(0.1238 8.21227e-09 0.00209382)
(0.121163 8.27699e-09 0.00212559)
(0.118489 8.34552e-09 0.00215816)
(0.115776 8.43308e-09 0.00219147)
(0.113025 8.50542e-09 0.00222548)
(0.110233 8.56633e-09 0.00226013)
(0.107402 8.63486e-09 0.00229536)
(0.10453 8.69958e-09 0.00233111)
(0.101617 8.74527e-09 0.00236731)
(0.0986624 8.79476e-09 0.00240388)
(0.0956663 8.82902e-09 0.00244074)
(0.0926287 8.86329e-09 0.0024778)
(0.0895494 8.88232e-09 0.00251496)
(0.0864287 8.90516e-09 0.00255212)
(0.083267 8.91658e-09 0.00258917)
(0.0800646 8.9242e-09 0.00262598)
(0.0768222 8.93562e-09 0.00266241)
(0.0735406 8.95465e-09 0.00269831)
(0.0702209 9.00034e-09 0.00273354)
(0.0668643 9.06887e-09 0.0027679)
(0.0634722 9.17166e-09 0.0028012)
(0.0600464 9.33537e-09 0.00283324)
(0.0565887 9.54096e-09 0.00286377)
(0.0531016 9.85315e-09 0.00289254)
(0.0495875 1.02491e-08 0.00291925)
(0.0460496 1.07821e-08 0.00294359)
(0.042491 1.14408e-08 0.00296519)
(0.0389158 1.22327e-08 0.00298367)
(0.0353281 1.31807e-08 0.00299856)
(0.0317329 1.42391e-08 0.00300936)
(0.0281355 1.53432e-08 0.0030155)
(0.0245422 1.64511e-08 0.00301633)
(0.02096 1.74333e-08 0.00301112)
(0.0173966 1.81491e-08 0.00299902)
(0.0138608 1.84308e-08 0.00297909)
(0.0103627 1.80768e-08 0.00295018)
(0.00691329 1.69765e-08 0.00291096)
(0.00352733 1.49777e-08 0.00285974)
(0.000216146 1.19585e-08 0.00279181)
(-0.00300153 8.05613e-09 0.00270164)
(-0.00609913 3.81107e-09 0.00258987)
(-0.00906127 -2.36013e-10 0.00245813)
(-0.0118597 -3.38078e-09 0.00230384)
(-0.0144662 -4.62194e-09 0.00212236)
(-0.0168468 -2.78305e-09 0.00190899)
(-0.0189623 3.3009e-09 0.00165841)
(-0.0207668 1.42391e-08 0.00136379)
(-0.0222066 2.92548e-08 0.00101712)
(-0.023219 4.53822e-08 0.000608471)
(-0.0237314 5.69866e-08 0.000125948)
(-0.0236567 5.69638e-08 -0.000441661)
(-0.0229007 4.08592e-08 -0.00110544)
(-0.0213613 1.25106e-08 -0.00187599)
(-0.0189327 -1.35994e-08 -0.00275317)
(-0.0155306 -1.96605e-08 -0.00370321)
(-0.0111483 -4.88085e-09 -0.00460287)
(-0.00608698 -1.69039e-09 -0.00507073)
(-0.0004976 -3.38991e-08 -0.00340645)
(0.0012705 -1.35045e-07 0.00169837)
(-0.0156148 2.25392e-07 0.0171843)
(-0.0363014 2.79453e-08 0.0187168)
(-0.0516537 2.63236e-08 0.0106401)
(-0.0578504 1.29828e-08 0.0022218)
(-0.0557568 4.85035e-09 -0.00414289)
(-0.0479952 -1.12332e-09 -0.00858243)
(-0.0361811 -4.98012e-09 -0.0116067)
(-0.0216374 -7.48914e-09 -0.0136438)
(-0.00534619 -9.54128e-09 -0.0149524)
(0.0122293 -1.08814e-08 -0.0156111)
(0.0301773 -1.0672e-08 -0.0157854)
(0.0484356 -9.70876e-09 -0.0157115)
(0.066643 -8.42187e-09 -0.0154646)
(0.0846306 -6.97889e-09 -0.015096)
(0.102258 -5.46356e-09 -0.014641)
(0.119421 -3.96728e-09 -0.0141246)
(0.136042 -2.5281e-09 -0.0135652)
(0.152063 -1.1765e-09 -0.0129763)
(0.16744 6.85013e-11 -0.0123682)
(0.182143 1.19547e-09 -0.011749)
(0.196149 2.21584e-09 -0.0111246)
(0.209446 3.12389e-09 -0.0105001)
(0.222025 3.94056e-09 -0.00987932)
(0.233884 4.66015e-09 -0.00926543)
(0.245027 5.29217e-09 -0.008661)
(0.255458 5.83281e-09 -0.00806814)
(0.265187 6.2916e-09 -0.00748858)
(0.274226 6.68375e-09 -0.00692375)
(0.28259 7.00738e-09 -0.00637484)
(0.290293 7.26247e-09 -0.00584278)
(0.297355 7.45855e-09 -0.00532836)
(0.303794 7.60132e-09 -0.00483218)
(0.30963 7.68699e-09 -0.00435471)
(0.314885 7.72506e-09 -0.00389628)
(0.319581 7.71745e-09 -0.00345713)
(0.323739 7.67557e-09 -0.00303738)
(0.327383 7.5861e-09 -0.00263705)
(0.330535 7.47569e-09 -0.0022561)
(0.333219 7.33292e-09 -0.00189439)
(0.335459 7.15397e-09 -0.00155173)
(0.337276 6.96932e-09 -0.00122787)
(0.338694 6.75231e-09 -0.000922503)
(0.339736 6.52577e-09 -0.000635295)
(0.340424 6.27639e-09 -0.000365865)
(0.340779 6.01369e-09 -0.000113601)
(0.340823 5.75289e-09 0.000122215)
(0.340577 5.48638e-09 0.000341731)
(0.34006 5.21035e-09 0.000545224)
(0.339293 4.94194e-09 0.000733501)
(0.338293 4.67924e-09 0.000907227)
(0.33708 4.40321e-09 0.001067)
(0.335669 4.14812e-09 0.00121339)
(0.334079 3.89875e-09 0.001347)
(0.332324 3.65318e-09 0.00146842)
(0.330421 3.40951e-09 0.00157825)
(0.328383 3.18869e-09 0.00167708)
(0.326224 2.9831e-09 0.00176551)
(0.323957 2.77751e-09 0.00184412)
(0.321594 2.58714e-09 0.00191349)
(0.319147 2.41011e-09 0.0019742)
(0.316626 2.2521e-09 0.0020268)
(0.314042 2.10933e-09 0.00207183)
(0.311403 1.98179e-09 0.00210981)
(0.308719 1.86567e-09 0.00214125)
(0.305998 1.76668e-09 0.00216665)
(0.303247 1.68102e-09 0.00218648)
(0.300472 1.61249e-09 0.00220119)
(0.297681 1.5649e-09 0.00221121)
(0.294878 1.52683e-09 0.00221697)
(0.29207 1.49638e-09 0.00221886)
(0.28926 1.48115e-09 0.00221725)
(0.286454 1.47925e-09 0.00221249)
(0.283654 1.49067e-09 0.00220493)
(0.280865 1.51351e-09 0.00219487)
(0.27809 1.54968e-09 0.00218261)
(0.27533 1.58585e-09 0.00216844)
(0.272589 1.63916e-09 0.00215261)
(0.269868 1.70579e-09 0.00213536)
(0.267169 1.77812e-09 0.00211691)
(0.264494 1.84856e-09 0.00209749)
(0.261843 1.93613e-09 0.00207727)
(0.259218 2.0237e-09 0.00205644)
(0.256619 2.12649e-09 0.00203517)
(0.254047 2.23119e-09 0.0020136)
(0.251501 2.3397e-09 0.00199187)
(0.248984 2.45772e-09 0.00197011)
(0.246493 2.57004e-09 0.00194844)
(0.244029 2.69758e-09 0.00192695)
(0.241592 2.82512e-09 0.00190575)
(0.239182 2.94124e-09 0.00188493)
(0.236797 3.07069e-09 0.00186456)
(0.234438 3.19823e-09 0.0018447)
(0.232103 3.32768e-09 0.00182544)
(0.229792 3.46093e-09 0.00180682)
(0.227504 3.59038e-09 0.0017889)
(0.225239 3.71411e-09 0.00177173)
(0.222994 3.84736e-09 0.00175534)
(0.22077 3.97491e-09 0.00173978)
(0.218564 4.11387e-09 0.00172507)
(0.216377 4.2376e-09 0.00171125)
(0.214207 4.36895e-09 0.00169835)
(0.212053 4.49649e-09 0.0016864)
(0.209913 4.62403e-09 0.0016754)
(0.207786 4.74967e-09 0.00166539)
(0.205672 4.8734e-09 0.00165638)
(0.203568 4.99523e-09 0.0016484)
(0.201475 5.11135e-09 0.00164144)
(0.199389 5.23509e-09 0.00163553)
(0.197311 5.34549e-09 0.00163068)
(0.195238 5.46732e-09 0.00162691)
(0.19317 5.57583e-09 0.00162421)
(0.191104 5.69385e-09 0.0016226)
(0.189041 5.80616e-09 0.0016221)
(0.186977 5.91276e-09 0.0016227)
(0.184913 6.01746e-09 0.00162442)
(0.182846 6.11454e-09 0.00162725)
(0.180776 6.22114e-09 0.00163122)
(0.1787 6.32584e-09 0.00163631)
(0.176618 6.42102e-09 0.00164254)
(0.174528 6.52571e-09 0.00164991)
(0.172428 6.61518e-09 0.00165843)
(0.170318 6.69703e-09 0.00166808)
(0.168196 6.7884e-09 0.00167889)
(0.16606 6.87216e-09 0.00169083)
(0.16391 6.95021e-09 0.00170392)
(0.161743 7.04348e-09 0.00171816)
(0.159558 7.11582e-09 0.00173353)
(0.157355 7.18625e-09 0.00175004)
(0.155131 7.26049e-09 0.00176767)
(0.152886 7.33473e-09 0.00178643)
(0.150618 7.41087e-09 0.0018063)
(0.148325 7.4813e-09 0.00182727)
(0.146008 7.54602e-09 0.00184933)
(0.143663 7.61264e-09 0.00187246)
(0.14129 7.68688e-09 0.00189666)
(0.138888 7.7516e-09 0.00192189)
(0.136456 7.82394e-09 0.00194814)
(0.133992 7.89627e-09 0.00197539)
(0.131496 7.96861e-09 0.0020036)
(0.128966 8.04094e-09 0.00203276)
(0.126401 8.12089e-09 0.00206283)
(0.1238 8.21227e-09 0.00209376)
(0.121163 8.27699e-09 0.00212554)
(0.118489 8.34552e-09 0.0021581)
(0.115776 8.43308e-09 0.00219141)
(0.113025 8.50542e-09 0.00222542)
(0.110233 8.56633e-09 0.00226007)
(0.107402 8.63486e-09 0.0022953)
(0.10453 8.69958e-09 0.00233105)
(0.101617 8.74526e-09 0.00236725)
(0.0986624 8.79476e-09 0.00240382)
(0.0956664 8.82902e-09 0.00244068)
(0.0926287 8.86328e-09 0.00247774)
(0.0895494 8.88232e-09 0.0025149)
(0.0864287 8.90516e-09 0.00255206)
(0.083267 8.91658e-09 0.00258911)
(0.0800646 8.92419e-09 0.00262591)
(0.0768222 8.93561e-09 0.00266234)
(0.0735407 8.95465e-09 0.00269825)
(0.070221 9.00033e-09 0.00273347)
(0.0668643 9.06886e-09 0.00276783)
(0.0634722 9.17166e-09 0.00280113)
(0.0600464 9.33537e-09 0.00283317)
(0.0565887 9.54096e-09 0.0028637)
(0.0531016 9.85315e-09 0.00289246)
(0.0495875 1.02491e-08 0.00291918)
(0.0460496 1.07821e-08 0.00294351)
(0.0424911 1.14408e-08 0.00296512)
(0.0389158 1.22327e-08 0.00298359)
(0.0353281 1.31807e-08 0.00299848)
(0.0317329 1.42391e-08 0.00300928)
(0.0281355 1.53432e-08 0.00301541)
(0.0245423 1.64511e-08 0.00301624)
(0.02096 1.74333e-08 0.00301103)
(0.0173966 1.81491e-08 0.00299894)
(0.0138608 1.84308e-08 0.002979)
(0.0103627 1.80767e-08 0.00295009)
(0.00691331 1.69765e-08 0.00291087)
(0.00352735 1.49777e-08 0.00285964)
(0.000216161 1.19585e-08 0.00279171)
(-0.00300152 8.05613e-09 0.00270154)
(-0.00609912 3.81107e-09 0.00258977)
(-0.00906125 -2.36013e-10 0.00245802)
(-0.0118597 -3.38078e-09 0.00230374)
(-0.0144662 -4.62194e-09 0.00212225)
(-0.0168468 -2.78305e-09 0.00190888)
(-0.0189623 3.3009e-09 0.0016583)
(-0.0207667 1.42391e-08 0.00136367)
(-0.0222066 2.92548e-08 0.001017)
(-0.023219 4.53822e-08 0.000608348)
(-0.0237314 5.69866e-08 0.00012582)
(-0.0236567 5.69638e-08 -0.000441794)
(-0.0229007 4.08592e-08 -0.00110558)
(-0.0213613 1.25106e-08 -0.00187613)
(-0.0189327 -1.35994e-08 -0.00275333)
(-0.0155307 -1.96605e-08 -0.00370338)
(-0.0111484 -4.88082e-09 -0.00460306)
(-0.00608714 -1.69038e-09 -0.00507095)
(-0.000497843 -3.39e-08 -0.00340679)
(0.00127033 -1.35055e-07 0.00169783)
(-0.0154738 2.10838e-08 0.0410258)
(-0.0230266 1.89573e-09 0.0288054)
(-0.0243142 3.0419e-09 0.0144542)
(-0.0218197 6.17548e-11 0.00115392)
(-0.0157684 -9.49067e-10 -0.00943924)
(-0.00694733 -1.7267e-09 -0.0172328)
(0.00418363 -2.3273e-09 -0.022754)
(0.0170315 -2.77179e-09 -0.0265231)
(0.0311308 -3.09351e-09 -0.0289981)
(0.0461046 -3.24199e-09 -0.030466)
(0.0616145 -3.19725e-09 -0.0311875)
(0.0774203 -3.10111e-09 -0.0313962)
(0.093302 -2.95833e-09 -0.0312209)
(0.109099 -2.79413e-09 -0.0307614)
(0.12468 -2.61852e-09 -0.0300876)
(0.139944 -2.43957e-09 -0.0292518)
(0.15481 -2.2649e-09 -0.0282933)
(0.169215 -2.10166e-09 -0.0272426)
(0.183111 -1.94746e-09 -0.0261236)
(0.196459 -1.80516e-09 -0.0249554)
(0.209232 -1.67428e-09 -0.0237534)
(0.221408 -1.55482e-09 -0.02253)
(0.232973 -1.44441e-09 -0.0212959)
(0.243918 -1.34494e-09 -0.0200596)
(0.25424 -1.25452e-09 -0.0188285)
(0.263938 -1.17266e-09 -0.0176089)
(0.273016 -1.10365e-09 -0.0164058)
(0.28148 -1.0394e-09 -0.0152239)
(0.289339 -9.84188e-10 -0.0140669)
(0.296604 -9.36594e-10 -0.012938)
(0.303287 -8.95664e-10 -0.01184)
(0.309403 -8.60444e-10 -0.0107752)
(0.314969 -8.32839e-10 -0.00974533)
(0.32 -8.12373e-10 -0.00875203)
(0.324515 -7.97618e-10 -0.00779644)
(0.328532 -7.87146e-10 -0.00687947)
(0.332071 -7.80005e-10 -0.00600175)
(0.335151 -7.781e-10 -0.00516367)
(0.337793 -7.77622e-10 -0.00436539)
(0.340016 -7.8238e-10 -0.00360691)
(0.34184 -7.89992e-10 -0.002888)
(0.343286 -7.98081e-10 -0.00220831)
(0.344374 -8.09501e-10 -0.00156733)
(0.345124 -8.19969e-10 -0.00096442)
(0.345555 -8.32341e-10 -0.000398839)
(0.345687 -8.46141e-10 0.000130278)
(0.345538 -8.6232e-10 0.000623973)
(0.345127 -8.78023e-10 0.00108336)
(0.344472 -8.89919e-10 0.00150951)
(0.343589 -9.03719e-10 0.00190357)
(0.342497 -9.13711e-10 0.00226675)
(0.341211 -9.25131e-10 0.00260026)
(0.339746 -9.33696e-10 0.00290534)
(0.338117 -9.42736e-10 0.00318329)
(0.33634 -9.50349e-10 0.00343537)
(0.334427 -9.54155e-10 0.00366289)
(0.332391 -9.58436e-10 0.00386713)
(0.330245 -9.59862e-10 0.00404936)
(0.328 -9.60336e-10 0.00421086)
(0.325667 -9.58431e-10 0.00435287)
(0.323257 -9.56526e-10 0.00447661)
(0.320779 -9.51289e-10 0.00458327)
(0.318243 -9.44625e-10 0.00467403)
(0.315656 -9.38436e-10 0.00474999)
(0.313027 -9.29868e-10 0.00481227)
(0.310362 -9.19873e-10 0.00486191)
(0.30767 -9.0845e-10 0.00489991)
(0.304956 -8.96551e-10 0.00492726)
(0.302225 -8.82272e-10 0.00494487)
(0.299483 -8.69897e-10 0.00495363)
(0.296735 -8.57998e-10 0.00495437)
(0.293984 -8.42768e-10 0.0049479)
(0.291236 -8.27062e-10 0.00493495)
(0.288493 -8.11356e-10 0.00491625)
(0.285758 -7.96126e-10 0.00489246)
(0.283035 -7.8042e-10 0.00486419)
(0.280326 -7.65666e-10 0.00483204)
(0.277632 -7.4996e-10 0.00479655)
(0.274956 -7.37586e-10 0.00475823)
(0.2723 -7.22356e-10 0.00471755)
(0.269664 -7.10934e-10 0.00467494)
(0.26705 -6.98084e-10 0.00463082)
(0.264458 -6.84758e-10 0.00458555)
(0.26189 -6.73812e-10 0.00453948)
(0.259345 -6.60962e-10 0.00449293)
(0.256824 -6.51444e-10 0.00444617)
(0.254327 -6.41926e-10 0.00439948)
(0.251855 -6.32407e-10 0.00435309)
(0.249406 -6.25269e-10 0.00430723)
(0.246982 -6.18606e-10 0.0042621)
(0.244581 -6.12895e-10 0.00421787)
(0.242202 -6.07184e-10 0.0041747)
(0.239846 -6.04805e-10 0.00413276)
(0.237512 -6.00998e-10 0.00409216)
(0.235199 -5.98619e-10 0.00405304)
(0.232907 -5.98143e-10 0.0040155)
(0.230634 -5.97668e-10 0.00397963)
(0.228379 -5.97192e-10 0.00394553)
(0.226142 -5.98145e-10 0.00391327)
(0.223922 -6.00525e-10 0.00388292)
(0.221717 -6.01477e-10 0.00385455)
(0.219527 -6.04333e-10 0.00382822)
(0.21735 -6.09093e-10 0.00380397)
(0.215186 -6.129e-10 0.00378185)
(0.213033 -6.16708e-10 0.0037619)
(0.21089 -6.21944e-10 0.00374417)
(0.208756 -6.27656e-10 0.00372867)
(0.206629 -6.3194e-10 0.00371544)
(0.204509 -6.39555e-10 0.00370451)
(0.202394 -6.45266e-10 0.0036959)
(0.200283 -6.52882e-10 0.00368963)
(0.198174 -6.59069e-10 0.00368573)
(0.196067 -6.65257e-10 0.00368419)
(0.19396 -6.72872e-10 0.00368505)
(0.191851 -6.80488e-10 0.00368832)
(0.18974 -6.87151e-10 0.00369399)
(0.187625 -6.94291e-10 0.00370209)
(0.185505 -7.03334e-10 0.00371262)
(0.183378 -7.09997e-10 0.00372558)
(0.181244 -7.17137e-10 0.00374097)
(0.1791 -7.238e-10 0.0037588)
(0.176946 -7.31416e-10 0.00377906)
(0.17478 -7.37603e-10 0.00380175)
(0.172601 -7.45219e-10 0.00382686)
(0.170408 -7.51882e-10 0.00385437)
(0.168199 -7.59974e-10 0.00388429)
(0.165973 -7.66161e-10 0.00391659)
(0.163729 -7.73777e-10 0.00395125)
(0.161465 -7.79488e-10 0.00398826)
(0.159181 -7.86152e-10 0.00402757)
(0.156874 -7.90436e-10 0.00406918)
(0.154545 -7.95672e-10 0.00411303)
(0.152191 -8.02335e-10 0.0041591)
(0.149812 -8.06619e-10 0.00420734)
(0.147407 -8.10427e-10 0.00425769)
(0.144973 -8.16139e-10 0.00431012)
(0.142511 -8.20899e-10 0.00436456)
(0.14002 -8.22803e-10 0.00442094)
(0.137497 -8.27563e-10 0.00447919)
(0.134943 -8.30419e-10 0.00453925)
(0.132356 -8.32324e-10 0.00460101)
(0.129736 -8.3518e-10 0.00466439)
(0.127082 -8.40416e-10 0.00472929)
(0.124393 -8.46603e-10 0.00479561)
(0.121669 -8.50411e-10 0.00486322)
(0.118908 -8.54219e-10 0.004932)
(0.116111 -8.61358e-10 0.00500181)
(0.113277 -8.67546e-10 0.00507251)
(0.110406 -8.76113e-10 0.00514393)
(0.107497 -8.8468e-10 0.00521592)
(0.10455 -8.94674e-10 0.00528828)
(0.101566 -9.06097e-10 0.00536083)
(0.0985443 -9.15139e-10 0.00543334)
(0.0954851 -9.24182e-10 0.00550559)
(0.0923889 -9.37032e-10 0.00557734)
(0.0892561 -9.4893e-10 0.00564832)
(0.0860874 -9.57021e-10 0.00571824)
(0.0828837 -9.65588e-10 0.00578681)
(0.079646 -9.73679e-10 0.00585368)
(0.0763753 -9.76059e-10 0.0059185)
(0.0730732 -9.75108e-10 0.00598087)
(0.0697412 -9.71301e-10 0.00604037)
(0.0663811 -9.63687e-10 0.00609654)
(0.0629952 -9.52266e-10 0.00614887)
(0.0595859 -9.35133e-10 0.0061968)
(0.0561557 -9.09435e-10 0.00623972)
(0.0527079 -8.7755e-10 0.00627697)
(0.0492457 -8.37574e-10 0.00630781)
(0.0457732 -7.98551e-10 0.0063314)
(0.0422945 -7.57623e-10 0.00634685)
(0.0388144 -7.21455e-10 0.00635313)
(0.0353382 -7.03371e-10 0.0063491)
(0.031872 -7.09082e-10 0.0063335)
(0.0284222 -7.52865e-10 0.00630487)
(0.0249963 -8.55661e-10 0.00626159)
(0.0216025 -1.02889e-09 0.0062018)
(0.01825 -1.28207e-09 0.00612336)
(0.014949 -1.62187e-09 0.0060237)
(0.0117112 -2.03781e-09 0.00589987)
(0.00854936 -2.50419e-09 0.00574757)
(0.0054776 -2.96582e-09 0.00556159)
(0.00251228 -3.36843e-09 0.00533877)
(-0.000329938 -3.64065e-09 0.00507539)
(-0.00302689 -3.68158e-09 0.0047657)
(-0.0055559 -3.34654e-09 0.00440309)
(-0.00789226 -2.47659e-09 0.0039797)
(-0.0100078 -9.22288e-10 0.00348606)
(-0.0118713 1.33159e-09 0.00291088)
(-0.0134483 3.97952e-09 0.00224152)
(-0.0147013 6.2058e-09 0.00146342)
(-0.0155901 6.62269e-09 0.000560837)
(-0.0160739 3.75299e-09 -0.000480272)
(-0.0161104 -2.71073e-09 -0.00166925)
(-0.015665 -1.02652e-08 -0.00300666)
(-0.0147156 -1.32016e-08 -0.00446644)
(-0.0132647 -6.40756e-09 -0.00595872)
(-0.0113568 5.82699e-09 -0.00725273)
(-0.00904608 7.249e-09 -0.00783)
(-0.00629424 -3.63211e-09 -0.00641216)
(-0.00367373 -1.29505e-07 -0.000973457)
(-0.0154741 2.10837e-08 0.0410256)
(-0.0230267 1.89572e-09 0.0288052)
(-0.0243142 3.04188e-09 0.0144541)
(-0.0218196 6.17545e-11 0.00115384)
(-0.0157683 -9.49063e-10 -0.00943931)
(-0.00694726 -1.72669e-09 -0.0172329)
(0.0041837 -2.32729e-09 -0.022754)
(0.0170315 -2.77179e-09 -0.0265232)
(0.0311309 -3.0935e-09 -0.0289981)
(0.0461047 -3.24198e-09 -0.030466)
(0.0616145 -3.19724e-09 -0.0311875)
(0.0774203 -3.1011e-09 -0.0313962)
(0.0933021 -2.95832e-09 -0.031221)
(0.109099 -2.79413e-09 -0.0307614)
(0.12468 -2.61851e-09 -0.0300876)
(0.139944 -2.43956e-09 -0.0292518)
(0.15481 -2.2649e-09 -0.0282933)
(0.169215 -2.10166e-09 -0.0272426)
(0.183111 -1.94746e-09 -0.0261237)
(0.196459 -1.80516e-09 -0.0249554)
(0.209232 -1.67428e-09 -0.0237534)
(0.221408 -1.55482e-09 -0.0225301)
(0.232972 -1.44441e-09 -0.0212959)
(0.243918 -1.34494e-09 -0.0200596)
(0.25424 -1.25451e-09 -0.0188286)
(0.263938 -1.17265e-09 -0.0176089)
(0.273016 -1.10365e-09 -0.0164058)
(0.28148 -1.03939e-09 -0.0152239)
(0.289339 -9.84187e-10 -0.0140669)
(0.296604 -9.36593e-10 -0.012938)
(0.303287 -8.95663e-10 -0.01184)
(0.309403 -8.60443e-10 -0.0107752)
(0.314969 -8.32839e-10 -0.00974534)
(0.32 -8.12372e-10 -0.00875204)
(0.324515 -7.97617e-10 -0.00779645)
(0.328532 -7.87145e-10 -0.00687948)
(0.332071 -7.80005e-10 -0.00600176)
(0.335151 -7.78099e-10 -0.00516368)
(0.337793 -7.77622e-10 -0.0043654)
(0.340016 -7.82379e-10 -0.00360692)
(0.34184 -7.89992e-10 -0.00288801)
(0.343286 -7.9808e-10 -0.00220832)
(0.344374 -8.095e-10 -0.00156733)
(0.345124 -8.19969e-10 -0.00096443)
(0.345555 -8.32341e-10 -0.00039885)
(0.345687 -8.4614e-10 0.000130267)
(0.345538 -8.62319e-10 0.000623962)
(0.345127 -8.78023e-10 0.00108334)
(0.344472 -8.89919e-10 0.0015095)
(0.343589 -9.03718e-10 0.00190356)
(0.342497 -9.13711e-10 0.00226674)
(0.34121 -9.25131e-10 0.00260024)
(0.339746 -9.33695e-10 0.00290533)
(0.338117 -9.42736e-10 0.00318328)
(0.33634 -9.50348e-10 0.00343536)
(0.334427 -9.54154e-10 0.00366288)
(0.332391 -9.58435e-10 0.00386711)
(0.330245 -9.59861e-10 0.00404935)
(0.328 -9.60336e-10 0.00421085)
(0.325667 -9.5843e-10 0.00435285)
(0.323257 -9.56525e-10 0.00447659)
(0.320779 -9.51288e-10 0.00458326)
(0.318243 -9.44624e-10 0.00467401)
(0.315656 -9.38436e-10 0.00474998)
(0.313027 -9.29868e-10 0.00481226)
(0.310362 -9.19872e-10 0.00486189)
(0.30767 -9.08449e-10 0.0048999)
(0.304955 -8.9655e-10 0.00492725)
(0.302225 -8.82271e-10 0.00494486)
(0.299483 -8.69896e-10 0.00495361)
(0.296734 -8.57997e-10 0.00495436)
(0.293984 -8.42767e-10 0.00494788)
(0.291236 -8.27061e-10 0.00493494)
(0.288493 -8.11355e-10 0.00491624)
(0.285758 -7.96125e-10 0.00489244)
(0.283035 -7.80419e-10 0.00486418)
(0.280326 -7.65665e-10 0.00483203)
(0.277632 -7.4996e-10 0.00479654)
(0.274956 -7.37585e-10 0.00475822)
(0.2723 -7.22356e-10 0.00471754)
(0.269664 -7.10933e-10 0.00467493)
(0.26705 -6.98084e-10 0.00463081)
(0.264458 -6.84758e-10 0.00458554)
(0.261889 -6.73811e-10 0.00453947)
(0.259345 -6.60962e-10 0.00449292)
(0.256824 -6.51443e-10 0.00444616)
(0.254327 -6.41925e-10 0.00439947)
(0.251855 -6.32407e-10 0.00435308)
(0.249406 -6.25268e-10 0.00430722)
(0.246982 -6.18606e-10 0.00426209)
(0.244581 -6.12895e-10 0.00421785)
(0.242202 -6.07184e-10 0.00417469)
(0.239846 -6.04805e-10 0.00413275)
(0.237512 -6.00998e-10 0.00409215)
(0.235199 -5.98618e-10 0.00405303)
(0.232907 -5.98143e-10 0.00401549)
(0.230634 -5.97667e-10 0.00397962)
(0.228379 -5.97192e-10 0.00394552)
(0.226142 -5.98144e-10 0.00391326)
(0.223922 -6.00524e-10 0.00388291)
(0.221717 -6.01476e-10 0.00385454)
(0.219527 -6.04333e-10 0.00382821)
(0.21735 -6.09092e-10 0.00380396)
(0.215186 -6.129e-10 0.00378184)
(0.213033 -6.16708e-10 0.00376189)
(0.21089 -6.21944e-10 0.00374416)
(0.208756 -6.27655e-10 0.00372866)
(0.206629 -6.31939e-10 0.00371543)
(0.204509 -6.39554e-10 0.0037045)
(0.202394 -6.45266e-10 0.00369589)
(0.200283 -6.52881e-10 0.00368962)
(0.198174 -6.59069e-10 0.00368572)
(0.196067 -6.65256e-10 0.00368418)
(0.19396 -6.72872e-10 0.00368504)
(0.191851 -6.80487e-10 0.00368831)
(0.18974 -6.87151e-10 0.00369398)
(0.187625 -6.9429e-10 0.00370208)
(0.185505 -7.03333e-10 0.00371261)
(0.183378 -7.09997e-10 0.00372557)
(0.181244 -7.17136e-10 0.00374096)
(0.1791 -7.238e-10 0.00375879)
(0.176946 -7.31415e-10 0.00377905)
(0.17478 -7.37603e-10 0.00380174)
(0.172601 -7.45218e-10 0.00382684)
(0.170408 -7.51882e-10 0.00385436)
(0.168199 -7.59973e-10 0.00388428)
(0.165973 -7.66161e-10 0.00391658)
(0.163729 -7.73776e-10 0.00395124)
(0.161465 -7.79488e-10 0.00398824)
(0.159181 -7.86151e-10 0.00402756)
(0.156874 -7.90435e-10 0.00406917)
(0.154545 -7.95671e-10 0.00411302)
(0.152191 -8.02335e-10 0.00415909)
(0.149812 -8.06619e-10 0.00420732)
(0.147407 -8.10427e-10 0.00425768)
(0.144973 -8.16139e-10 0.00431011)
(0.142511 -8.20898e-10 0.00436455)
(0.14002 -8.22803e-10 0.00442093)
(0.137497 -8.27563e-10 0.00447918)
(0.134943 -8.30419e-10 0.00453923)
(0.132356 -8.32323e-10 0.004601)
(0.129736 -8.3518e-10 0.00466438)
(0.127082 -8.40415e-10 0.00472928)
(0.124393 -8.46603e-10 0.00479559)
(0.121669 -8.50411e-10 0.0048632)
(0.118908 -8.54219e-10 0.00493198)
(0.116111 -8.61358e-10 0.00500179)
(0.113277 -8.67545e-10 0.00507249)
(0.110406 -8.76112e-10 0.00514392)
(0.107497 -8.84679e-10 0.00521591)
(0.10455 -8.94674e-10 0.00528827)
(0.101566 -9.06096e-10 0.00536081)
(0.0985443 -9.15139e-10 0.00543332)
(0.0954851 -9.24182e-10 0.00550558)
(0.0923889 -9.37032e-10 0.00557732)
(0.0892561 -9.4893e-10 0.0056483)
(0.0860874 -9.57021e-10 0.00571823)
(0.0828837 -9.65587e-10 0.00578679)
(0.079646 -9.73678e-10 0.00585367)
(0.0763753 -9.76058e-10 0.00591848)
(0.0730732 -9.75107e-10 0.00598086)
(0.0697412 -9.713e-10 0.00604036)
(0.0663812 -9.63686e-10 0.00609652)
(0.0629952 -9.52265e-10 0.00614885)
(0.0595859 -9.35133e-10 0.00619678)
(0.0561557 -9.09434e-10 0.00623971)
(0.0527079 -8.77549e-10 0.00627696)
(0.0492458 -8.37574e-10 0.00630779)
(0.0457732 -7.9855e-10 0.00633138)
(0.0422945 -7.57623e-10 0.00634683)
(0.0388144 -7.21454e-10 0.00635311)
(0.0353382 -7.0337e-10 0.00634908)
(0.031872 -7.09081e-10 0.00633348)
(0.0284222 -7.52865e-10 0.00630485)
(0.0249963 -8.5566e-10 0.00626157)
(0.0216025 -1.02889e-09 0.00620178)
(0.01825 -1.28207e-09 0.00612335)
(0.014949 -1.62186e-09 0.00602368)
(0.0117112 -2.0378e-09 0.00589985)
(0.00854937 -2.50419e-09 0.00574755)
(0.0054776 -2.96582e-09 0.00556157)
(0.00251229 -3.36843e-09 0.00533875)
(-0.000329929 -3.64065e-09 0.00507537)
(-0.00302689 -3.68157e-09 0.00476568)
(-0.00555589 -3.34654e-09 0.00440307)
(-0.00789226 -2.47659e-09 0.00397968)
(-0.0100078 -9.22287e-10 0.00348603)
(-0.0118713 1.33159e-09 0.00291085)
(-0.0134483 3.97952e-09 0.00224149)
(-0.0147013 6.20579e-09 0.0014634)
(-0.0155901 6.62268e-09 0.000560808)
(-0.0160739 3.75299e-09 -0.000480302)
(-0.0161104 -2.71073e-09 -0.00166928)
(-0.015665 -1.02652e-08 -0.00300669)
(-0.0147156 -1.32015e-08 -0.00446647)
(-0.0132647 -6.40754e-09 -0.00595876)
(-0.0113569 5.82695e-09 -0.00725279)
(-0.00904614 7.24893e-09 -0.00783008)
(-0.00629439 -3.63212e-09 -0.00641229)
(-0.00367406 -1.29509e-07 -0.000973696)
(-0.00742986 3.31453e-08 0.0563212)
(-0.00867247 2.19464e-09 0.0298193)
(-0.00435003 3.94427e-09 0.00975247)
(0.00205736 2.508e-09 -0.00643436)
(0.0101541 2.3148e-09 -0.0191373)
(0.0196276 2.15776e-09 -0.0287547)
(0.0303539 2.01499e-09 -0.0358132)
(0.0421452 1.86794e-09 -0.04082)
(0.0547906 1.71042e-09 -0.0442231)
(0.068081 1.54956e-09 -0.0463697)
(0.0818286 1.40346e-09 -0.0475456)
(0.0958555 1.26973e-09 -0.0479852)
(0.109998 1.15884e-09 -0.0478582)
(0.124121 1.0677e-09 -0.0472944)
(0.138112 9.95605e-10 -0.046392)
(0.151875 9.35165e-10 -0.0452267)
(0.165334 8.86623e-10 -0.0438574)
(0.178426 8.46409e-10 -0.0423308)
(0.191102 8.1381e-10 -0.0406842)
(0.20332 7.85494e-10 -0.0389478)
(0.215048 7.60986e-10 -0.0371464)
(0.226264 7.40761e-10 -0.0353006)
(0.236948 7.22677e-10 -0.0334277)
(0.247088 7.05783e-10 -0.031542)
(0.256676 6.91983e-10 -0.029656)
(0.265708 6.7842e-10 -0.0277801)
(0.274183 6.65571e-10 -0.0259233)
(0.282105 6.54388e-10 -0.0240932)
(0.289478 6.42015e-10 -0.0222966)
(0.29631 6.31546e-10 -0.0205391)
(0.30261 6.20839e-10 -0.0188254)
(0.308391 6.10132e-10 -0.0171596)
(0.313663 5.98711e-10 -0.0155452)
(0.318442 5.8729e-10 -0.0139848)
(0.322742 5.75869e-10 -0.0124808)
(0.32658 5.64686e-10 -0.0110348)
(0.329971 5.53265e-10 -0.00964837)
(0.332934 5.41368e-10 -0.00832224)
(0.335485 5.29471e-10 -0.00705701)
(0.337642 5.16384e-10 -0.00585287)
(0.339424 5.04487e-10 -0.00470973)
(0.340849 4.93066e-10 -0.00362722)