/*--------------------------------*- C++ -*----------------------------------*\
  =========                 |
  \\      /  F ield         | OpenFOAM: The Open Source CFD Toolbox
   \\    /   O peration     | Website:  https://openfoam.org
    \\  /    A nd           | Version:  8
     \\/     M anipulation  |
\*---------------------------------------------------------------------------*/
FoamFile
{
    version     2.0;
    format      ascii;
    class       volScalarField;
    location    "2400";
    object      alphat;
}
// * * * * * * * * * * * * * * * * * * * * * * * * * * * * * * * * * * * * * //

dimensions      [1 -1 -1 0 0 0 0];

internalField   nonuniform List<scalar> 
46000
(
2.14156e-07
1.06664e-06
2.16235e-06
3.2241e-06
4.24139e-06
5.23346e-06
6.20311e-06
7.15647e-06
8.0971e-06
9.03006e-06
9.95547e-06
1.08731e-05
1.17851e-05
1.26921e-05
1.35942e-05
1.44913e-05
1.53832e-05
1.62694e-05
1.71495e-05
1.80228e-05
1.88887e-05
1.97463e-05
2.0595e-05
2.14337e-05
2.22617e-05
2.30779e-05
2.38813e-05
2.46709e-05
2.54457e-05
2.62046e-05
2.69464e-05
2.76702e-05
2.83747e-05
2.9059e-05
2.97218e-05
3.03622e-05
3.0979e-05
3.15712e-05
3.21379e-05
3.2678e-05
3.31906e-05
3.36749e-05
3.413e-05
3.45553e-05
3.49499e-05
3.53133e-05
3.5645e-05
3.59445e-05
3.62114e-05
3.64454e-05
3.66464e-05
3.68142e-05
3.69487e-05
3.70502e-05
3.71187e-05
3.71545e-05
3.7158e-05
3.71295e-05
3.70696e-05
3.6979e-05
3.68584e-05
3.67089e-05
3.65327e-05
3.63312e-05
3.61032e-05
3.58495e-05
3.55711e-05
3.52691e-05
3.49446e-05
3.45989e-05
3.42331e-05
3.38486e-05
3.34467e-05
3.30285e-05
3.25954e-05
3.21487e-05
3.16897e-05
3.12197e-05
3.074e-05
3.02518e-05
2.97563e-05
2.92549e-05
2.87486e-05
2.82386e-05
2.77261e-05
2.72121e-05
2.66977e-05
2.61838e-05
2.56714e-05
2.51614e-05
2.46547e-05
2.41521e-05
2.36543e-05
2.3162e-05
2.2676e-05
2.21968e-05
2.1725e-05
2.12611e-05
2.08056e-05
2.03588e-05
1.99212e-05
1.94931e-05
1.90748e-05
1.86664e-05
1.82683e-05
1.78805e-05
1.75032e-05
1.71365e-05
1.67804e-05
1.64349e-05
1.61001e-05
1.57758e-05
1.54621e-05
1.51587e-05
1.48656e-05
1.45827e-05
1.43097e-05
1.40465e-05
1.37929e-05
1.35487e-05
1.33135e-05
1.30873e-05
1.28696e-05
1.26603e-05
1.24589e-05
1.22654e-05
1.20792e-05
1.19002e-05
1.1728e-05
1.15623e-05
1.14027e-05
1.12488e-05
1.11005e-05
1.09574e-05
1.0819e-05
1.0685e-05
1.05549e-05
1.04284e-05
1.03051e-05
1.01846e-05
1.00666e-05
9.95075e-06
9.83655e-06
9.72369e-06
9.61178e-06
9.50045e-06
9.38934e-06
9.27807e-06
9.1663e-06
9.05365e-06
8.9398e-06
8.8244e-06
8.70713e-06
8.58768e-06
8.46574e-06
8.34104e-06
8.2133e-06
8.08227e-06
7.94774e-06
7.80949e-06
7.66733e-06
7.52111e-06
7.37066e-06
7.2159e-06
7.05742e-06
6.89598e-06
6.73044e-06
6.56062e-06
6.38656e-06
6.20832e-06
6.02605e-06
5.83988e-06
5.65001e-06
5.45665e-06
5.26004e-06
5.06046e-06
4.85819e-06
4.65354e-06
4.44685e-06
4.23845e-06
4.02869e-06
3.81793e-06
3.60652e-06
3.3948e-06
3.1831e-06
2.97171e-06
2.76085e-06
2.55034e-06
2.34046e-06
2.1321e-06
1.92426e-06
1.71685e-06
1.50924e-06
1.30029e-06
1.09083e-06
8.79233e-07
6.60352e-07
4.31569e-07
2.02754e-07
3.87161e-08
2.1418e-07
1.06674e-06
2.16247e-06
3.22424e-06
4.24153e-06
5.23361e-06
6.20326e-06
7.15662e-06
8.09725e-06
9.0302e-06
9.95562e-06
1.08732e-05
1.17853e-05
1.26923e-05
1.35944e-05
1.44915e-05
1.53833e-05
1.62696e-05
1.71496e-05
1.80229e-05
1.88888e-05
1.97464e-05
2.05951e-05
2.14339e-05
2.22618e-05
2.3078e-05
2.38814e-05
2.4671e-05
2.54458e-05
2.62047e-05
2.69465e-05
2.76703e-05
2.83748e-05
2.90591e-05
2.97219e-05
3.03623e-05
3.09791e-05
3.15713e-05
3.2138e-05
3.26781e-05
3.31907e-05
3.3675e-05
3.41301e-05
3.45553e-05
3.495e-05
3.53134e-05
3.56451e-05
3.59446e-05
3.62115e-05
3.64455e-05
3.66464e-05
3.68142e-05
3.69488e-05
3.70503e-05
3.71188e-05
3.71546e-05
3.7158e-05
3.71296e-05
3.70697e-05
3.69791e-05
3.68584e-05
3.67089e-05
3.65327e-05
3.63312e-05
3.61032e-05
3.58496e-05
3.55711e-05
3.52691e-05
3.49446e-05
3.45989e-05
3.42332e-05
3.38487e-05
3.34467e-05
3.30285e-05
3.25954e-05
3.21487e-05
3.16897e-05
3.12197e-05
3.074e-05
3.02518e-05
2.97564e-05
2.92549e-05
2.87486e-05
2.82386e-05
2.77261e-05
2.72121e-05
2.66977e-05
2.61838e-05
2.56714e-05
2.51614e-05
2.46547e-05
2.41521e-05
2.36543e-05
2.3162e-05
2.2676e-05
2.21968e-05
2.1725e-05
2.12611e-05
2.08056e-05
2.03588e-05
1.99212e-05
1.94931e-05
1.90747e-05
1.86664e-05
1.82683e-05
1.78805e-05
1.75032e-05
1.71365e-05
1.67804e-05
1.64349e-05
1.61001e-05
1.57758e-05
1.5462e-05
1.51587e-05
1.48656e-05
1.45827e-05
1.43097e-05
1.40465e-05
1.37929e-05
1.35487e-05
1.33135e-05
1.30872e-05
1.28696e-05
1.26602e-05
1.24589e-05
1.22653e-05
1.20792e-05
1.19002e-05
1.17279e-05
1.15623e-05
1.14026e-05
1.12487e-05
1.11005e-05
1.09574e-05
1.0819e-05
1.06849e-05
1.05548e-05
1.04283e-05
1.0305e-05
1.01846e-05
1.00666e-05
9.95071e-06
9.83651e-06
9.72365e-06
9.61174e-06
9.50042e-06
9.3893e-06
9.27804e-06
9.16626e-06
9.05362e-06
8.93976e-06
8.82437e-06
8.7071e-06
8.58765e-06
8.46571e-06
8.341e-06
8.21326e-06
8.08224e-06
7.94771e-06
7.80946e-06
7.6673e-06
7.52108e-06
7.37064e-06
7.21588e-06
7.05739e-06
6.89595e-06
6.73041e-06
6.5606e-06
6.38653e-06
6.2083e-06
6.02602e-06
5.83986e-06
5.64999e-06
5.45663e-06
5.26003e-06
5.06044e-06
4.85817e-06
4.65353e-06
4.44683e-06
4.23843e-06
4.02868e-06
3.81792e-06
3.60651e-06
3.3948e-06
3.1831e-06
2.97171e-06
2.76085e-06
2.55034e-06
2.34046e-06
2.1321e-06
1.92426e-06
1.71685e-06
1.50924e-06
1.30029e-06
1.09084e-06
8.7924e-07
6.60358e-07
4.31574e-07
2.02757e-07
3.87168e-08
9.74963e-07
2.27224e-05
4.26136e-05
5.61634e-05
6.65327e-05
7.49864e-05
8.22482e-05
8.87085e-05
9.45802e-05
0.0001
0.000105064
0.000109837
0.000114362
0.000118673
0.000122795
0.000126749
0.00013055
0.000134212
0.000137744
0.000141155
0.000144452
0.000147641
0.000150726
0.000153712
0.000156602
0.000159397
0.000162101
0.000164715
0.000167241
0.000169679
0.00017203
0.000174295
0.000176474
0.000178567
0.000180575
0.000182497
0.000184333
0.000186083
0.000187747
0.000189324
0.000190814
0.000192217
0.000193532
0.000194759
0.000195898
0.000196948
0.000197909
0.000198782
0.000199566
0.000200261
0.000200867
0.000201385
0.000201816
0.000202158
0.000202414
0.000202583
0.000202667
0.000202667
0.000202582
0.000202415
0.000202166
0.000201834
0.000201417
0.000200917
0.000200341
0.000199692
0.000198973
0.000198186
0.000197334
0.000196419
0.000195443
0.000194409
0.00019332
0.000192177
0.000190985
0.000189745
0.00018846
0.000187134
0.000185768
0.000184365
0.000182929
0.000181462
0.000179967
0.000178447
0.000176904
0.000175341
0.000173762
0.000172167
0.000170561
0.000168946
0.000167324
0.000165697
0.000164069
0.000162441
0.000160816
0.000159196
0.000157583
0.000155978
0.000154385
0.000152805
0.000151239
0.00014969
0.000148158
0.000146646
0.000145155
0.000143685
0.000142239
0.000140818
0.000139422
0.000138052
0.000136709
0.000135394
0.000134108
0.00013285
0.000131621
0.000130422
0.000129253
0.000128113
0.000127003
0.000125923
0.000124871
0.000123849
0.000122856
0.00012189
0.000120952
0.000120041
0.000119156
0.000118296
0.000117461
0.000116649
0.000115861
0.000115093
0.000114345
0.000113615
0.000112901
0.000112203
0.000111519
0.000110848
0.000110187
0.000109536
0.000108891
0.000108253
0.000107618
0.000106986
0.000106353
0.000105719
0.000105082
0.000104439
0.000103788
0.000103129
0.000102458
0.000101775
0.000101076
0.000100361
9.96268e-05
9.88725e-05
9.80961e-05
9.72958e-05
9.64698e-05
9.56167e-05
9.47346e-05
9.38219e-05
9.28764e-05
9.18947e-05
9.08677e-05
8.9798e-05
8.86874e-05
8.75364e-05
8.63447e-05
8.51115e-05
8.38361e-05
8.2518e-05
8.11563e-05
7.97504e-05
7.82997e-05
7.68033e-05
7.52606e-05
7.36707e-05
7.20326e-05
7.03452e-05
6.86071e-05
6.68165e-05
6.49713e-05
6.30688e-05
6.11053e-05
5.90765e-05
5.69766e-05
5.47993e-05
5.25324e-05
5.01554e-05
4.76444e-05
4.4967e-05
4.20684e-05
3.8853e-05
3.51253e-05
3.07284e-05
2.53548e-05
1.83042e-05
8.35174e-06
1.79839e-07
9.75036e-07
2.27246e-05
4.26171e-05
5.61672e-05
6.65367e-05
7.49905e-05
8.22524e-05
8.87127e-05
9.45844e-05
0.000100004
0.000105068
0.000109841
0.000114367
0.000118678
0.0001228
0.000126754
0.000130555
0.000134216
0.000137748
0.00014116
0.000144457
0.000147646
0.000150732
0.000153717
0.000156607
0.000159403
0.000162107
0.000164721
0.000167246
0.000169684
0.000172035
0.0001743
0.00017648
0.000178573
0.000180581
0.000182503
0.000184339
0.000186089
0.000187753
0.00018933
0.000190821
0.000192223
0.000193538
0.000194765
0.000195904
0.000196954
0.000197916
0.000198788
0.000199572
0.000200267
0.000200874
0.000201392
0.000201822
0.000202165
0.00020242
0.00020259
0.000202674
0.000202673
0.000202589
0.000202421
0.000202172
0.00020184
0.000201423
0.000200923
0.000200347
0.000199698
0.000198979
0.000198192
0.00019734
0.000196425
0.000195449
0.000194415
0.000193325
0.000192183
0.00019099
0.00018975
0.000188466
0.000187139
0.000185773
0.00018437
0.000182934
0.000181467
0.000179972
0.000178452
0.000176909
0.000175346
0.000173766
0.000172172
0.000170566
0.00016895
0.000167328
0.000165702
0.000164073
0.000162445
0.00016082
0.0001592
0.000157586
0.000155982
0.000154389
0.000152808
0.000151242
0.000149693
0.000148161
0.000146649
0.000145158
0.000143688
0.000142242
0.000140821
0.000139425
0.000138055
0.000136712
0.000135397
0.00013411
0.000132852
0.000131624
0.000130425
0.000129255
0.000128115
0.000127005
0.000125925
0.000124873
0.000123851
0.000122857
0.000121892
0.000120954
0.000120042
0.000119157
0.000118297
0.000117462
0.000116651
0.000115862
0.000115094
0.000114346
0.000113616
0.000112902
0.000112204
0.00011152
0.000110849
0.000110188
0.000109536
0.000108892
0.000108253
0.000107619
0.000106986
0.000106354
0.00010572
0.000105082
0.000104439
0.000103789
0.000103129
0.000102458
0.000101775
0.000101076
0.000100361
9.96269e-05
9.88726e-05
9.80961e-05
9.72957e-05
9.64698e-05
9.56166e-05
9.47345e-05
9.38218e-05
9.28763e-05
9.18946e-05
9.08676e-05
8.97979e-05
8.86874e-05
8.75364e-05
8.63446e-05
8.51114e-05
8.3836e-05
8.25179e-05
8.11562e-05
7.97504e-05
7.82996e-05
7.68032e-05
7.52605e-05
7.36706e-05
7.20326e-05
7.03452e-05
6.8607e-05
6.68165e-05
6.49713e-05
6.30688e-05
6.11053e-05
5.90765e-05
5.69767e-05
5.47993e-05
5.25325e-05
5.01555e-05
4.76445e-05
4.49671e-05
4.20685e-05
3.88531e-05
3.51253e-05
3.07284e-05
2.53547e-05
1.83041e-05
8.35166e-06
1.79838e-07
2.0175e-06
4.14635e-05
8.52549e-05
0.000117797
0.000142862
0.000163097
0.000180105
0.000194854
0.000207946
0.000219771
0.000230597
0.000240612
0.00024995
0.000258713
0.000266977
0.000274804
0.000282241
0.000289326
0.000296091
0.000302561
0.000308758
0.0003147
0.000320401
0.000325874
0.00033113
0.000336178
0.000341026
0.000345681
0.000350148
0.000354433
0.00035854
0.000362473
0.000366236
0.00036983
0.000373259
0.000376525
0.00037963
0.000382576
0.000385364
0.000387995
0.000390472
0.000392794
0.000394965
0.000396983
0.000398851
0.000400569
0.000402139
0.000403561
0.000404836
0.000405966
0.000406952
0.000407794
0.000408495
0.000409055
0.000409475
0.000409758
0.000409905
0.000409917
0.000409796
0.000409542
0.000409157
0.000408639
0.000407988
0.000407206
0.000406301
0.000405278
0.000404142
0.000402897
0.000401546
0.000400093
0.000398541
0.000396895
0.000395158
0.000393333
0.000391425
0.000389437
0.000387374
0.000385238
0.000383035
0.000380768
0.000378442
0.00037606
0.000373627
0.000371146
0.000368622
0.00036606
0.000363462
0.000360834
0.000358178
0.0003555
0.000352803
0.000350091
0.000347368
0.000344638
0.000341904
0.000339169
0.000336438
0.000333714
0.000331
0.000328299
0.000325614
0.000322948
0.000320304
0.000317685
0.000315093
0.00031253
0.000309999
0.000307501
0.000305039
0.000302615
0.000300229
0.000297883
0.000295579
0.000293317
0.000291099
0.000288924
0.000286794
0.000284708
0.000282668
0.000280672
0.000278721
0.000276814
0.000274951
0.000273131
0.000271353
0.000269616
0.00026792
0.000266263
0.000264644
0.00026306
0.000261509
0.000259989
0.000258498
0.000257032
0.000255591
0.000254171
0.00025277
0.000251385
0.000250013
0.000248652
0.000247298
0.000245948
0.000244599
0.000243249
0.000241892
0.000240527
0.00023915
0.000237757
0.000236346
0.000234912
0.000233453
0.000231965
0.000230445
0.00022889
0.000227296
0.000225661
0.000223982
0.000222254
0.000220476
0.000218644
0.000216756
0.000214808
0.000212796
0.000210715
0.000208555
0.000206313
0.000203992
0.000201592
0.000199113
0.000196553
0.000193911
0.000191184
0.000188371
0.000185468
0.000182473
0.000179384
0.000176195
0.000172905
0.000169506
0.000165995
0.000162364
0.000158606
0.000154711
0.000150668
0.000146462
0.000142076
0.000137487
0.000132665
0.000127572
0.000122148
0.000116319
0.000109967
0.000102919
9.49169e-05
8.55592e-05
7.42306e-05
6.01052e-05
4.16729e-05
1.75644e-05
3.89548e-07
2.0176e-06
4.14668e-05
8.52618e-05
0.000117806
0.000142872
0.000163107
0.000180115
0.000194863
0.000207956
0.000219781
0.000230607
0.000240621
0.00024996
0.000258722
0.000266987
0.000274814
0.00028225
0.000289335
0.0002961
0.000302571
0.000308768
0.000314709
0.000320411
0.000325884
0.00033114
0.000336188
0.000341036
0.000345691
0.000350158
0.000354443
0.00035855
0.000362483
0.000366245
0.00036984
0.000373269
0.000376535
0.00037964
0.000382586
0.000385374
0.000388005
0.000390482
0.000392805
0.000394975
0.000396993
0.000398861
0.000400579
0.000402149
0.000403571
0.000404846
0.000405976
0.000406962
0.000407804
0.000408505
0.000409064
0.000409485
0.000409768
0.000409915
0.000409927
0.000409805
0.000409552
0.000409166
0.000408649
0.000407998
0.000407216
0.00040631
0.000405287
0.000404151
0.000402906
0.000401555
0.000400101
0.00039855
0.000396904
0.000395166
0.000393341
0.000391433
0.000389445
0.000387381
0.000385246
0.000383043
0.000380776
0.000378449
0.000376067
0.000373634
0.000371153
0.000368629
0.000366066
0.000363468
0.00036084
0.000358184
0.000355506
0.000352809
0.000350097
0.000347374
0.000344643
0.000341909
0.000339174
0.000336443
0.000333719
0.000331005
0.000328303
0.000325618
0.000322952
0.000320308
0.000317689
0.000315097
0.000312534
0.000310002
0.000307505
0.000305043
0.000302618
0.000300232
0.000297886
0.000295582
0.00029332
0.000291101
0.000288926
0.000286796
0.00028471
0.00028267
0.000280674
0.000278723
0.000276816
0.000274952
0.000273132
0.000271354
0.000269617
0.000267921
0.000266264
0.000264645
0.000263061
0.00026151
0.00025999
0.000258498
0.000257033
0.000255591
0.000254171
0.00025277
0.000251385
0.000250013
0.000248652
0.000247298
0.000245948
0.000244599
0.000243248
0.000241892
0.000240526
0.000239149
0.000237756
0.000236345
0.000234911
0.000233452
0.000231964
0.000230444
0.000228889
0.000227295
0.00022566
0.00022398
0.000222253
0.000220475
0.000218643
0.000216755
0.000214807
0.000212795
0.000210713
0.000208554
0.000206312
0.000203991
0.000201591
0.000199112
0.000196552
0.00019391
0.000191183
0.000188369
0.000185467
0.000182472
0.000179383
0.000176194
0.000172904
0.000169505
0.000165994
0.000162363
0.000158605
0.000154711
0.000150667
0.000146461
0.000142075
0.000137486
0.000132665
0.000127571
0.000122148
0.000116319
0.000109967
0.000102918
9.49168e-05
8.55591e-05
7.42305e-05
6.01051e-05
4.16729e-05
1.75643e-05
3.89546e-07
3.06139e-06
5.44827e-05
0.000116564
0.000166508
0.000206508
0.000239442
0.000267313
0.00029146
0.000312789
0.000331925
0.000349311
0.000365268
0.000380035
0.000393791
0.000406677
0.000418801
0.00043025
0.000441094
0.000451391
0.000461188
0.000470524
0.000479432
0.000487939
0.000496069
0.000503842
0.000511276
0.000518385
0.000525183
0.00053168
0.000537887
0.000543813
0.000549466
0.000554852
0.000559979
0.000564851
0.000569474
0.000573852
0.000577991
0.000581893
0.000585563
0.000589005
0.000592221
0.000595214
0.000597989
0.000600546
0.00060289
0.000605023
0.000606948
0.000608667
0.000610182
0.000611497
0.000612614
0.000613535
0.000614263
0.000614801
0.000615151
0.000615315
0.000615297
0.000615098
0.00061472
0.000614165
0.000613434
0.000612528
0.00061145
0.000610207
0.000608806
0.000607253
0.000605552
0.000603709
0.000601729
0.000599616
0.000597376
0.000595012
0.000592531
0.000589936
0.000587233
0.000584428
0.000581524
0.000578527
0.000575443
0.000572276
0.000569032
0.000565717
0.000562335
0.000558892
0.000555394
0.000551845
0.000548251
0.000544618
0.00054095
0.000537252
0.000533531
0.00052979
0.000526035
0.00052227
0.000518501
0.000514733
0.000510968
0.000507213
0.00050347
0.000499745
0.000496041
0.000492362
0.000488712
0.000485093
0.00048151
0.000477964
0.000474459
0.000470998
0.000467582
0.000464214
0.000460895
0.000457628
0.000454413
0.000451253
0.000448146
0.000445095
0.0004421
0.000439161
0.000436277
0.000433449
0.000430676
0.000427956
0.000425291
0.000422677
0.000420114
0.000417601
0.000415135
0.000412715
0.000410336
0.000407996
0.000405691
0.00040342
0.000401177
0.000398962
0.000396769
0.000394595
0.000392437
0.00039029
0.000388151
0.000386015
0.000383878
0.000381736
0.000379584
0.000377418
0.000375234
0.000373026
0.000370791
0.000368523
0.000366219
0.000363874
0.000361483
0.000359043
0.000356548
0.000353995
0.00035138
0.000348699
0.000345948
0.000343122
0.000340218
0.000337232
0.000334159
0.000330995
0.000327733
0.000324366
0.000320887
0.000317298
0.000313597
0.000309783
0.000305852
0.000301802
0.000297629
0.000293329
0.000288897
0.000284328
0.000279614
0.000274749
0.000269724
0.000264529
0.000259152
0.000253579
0.000247794
0.000241777
0.000235505
0.000228948
0.00022207
0.000214826
0.000207157
0.000198985
0.000190207
0.00018068
0.000170204
0.000158495
0.000145148
0.000129568
0.000110898
8.7968e-05
5.9198e-05
2.42426e-05
6.10368e-07
3.06151e-06
5.44864e-05
0.000116572
0.000166519
0.000206521
0.000239456
0.000267328
0.000291475
0.000312804
0.00033194
0.000349326
0.000365283
0.000380049
0.000393806
0.000406691
0.000418815
0.000430264
0.000441108
0.000451405
0.000461202
0.000470538
0.000479446
0.000487953
0.000496083
0.000503856
0.00051129
0.000518399
0.000525196
0.000531694
0.000537901
0.000543827
0.000549479
0.000554866
0.000559992
0.000564864
0.000569487
0.000573865
0.000578004
0.000581906
0.000585577
0.000589018
0.000592234
0.000595227
0.000598002
0.000600559
0.000602903
0.000605036
0.000606961
0.000608679
0.000610195
0.000611509
0.000612626
0.000613547
0.000614275
0.000614813
0.000615163
0.000615327
0.000615309
0.000615109
0.000614732
0.000614177
0.000613446
0.00061254
0.000611461
0.000610218
0.000608817
0.000607263
0.000605562
0.000603719
0.000601739
0.000599626
0.000597385
0.000595022
0.00059254
0.000589945
0.000587242
0.000584436
0.000581532
0.000578535
0.000575451
0.000572284
0.00056904
0.000565725
0.000562343
0.0005589
0.000555401
0.000551852
0.000548258
0.000544624
0.000540956
0.000537258
0.000533537
0.000529796
0.00052604
0.000522276
0.000518507
0.000514738
0.000510973
0.000507217
0.000503475
0.00049975
0.000496046
0.000492366
0.000488716
0.000485097
0.000481513
0.000477967
0.000474462
0.000471001
0.000467585
0.000464216
0.000460898
0.00045763
0.000454416
0.000451255
0.000448148
0.000445097
0.000442102
0.000439162
0.000436278
0.00043345
0.000430677
0.000427957
0.000425291
0.000422677
0.000420115
0.000417601
0.000415136
0.000412715
0.000410336
0.000407996
0.000405691
0.000403419
0.000401177
0.000398961
0.000396768
0.000394594
0.000392436
0.000390289
0.00038815
0.000386014
0.000383877
0.000381735
0.000379583
0.000377417
0.000375232
0.000373024
0.000370789
0.000368521
0.000366217
0.000363872
0.000361481
0.00035904
0.000356546
0.000353993
0.000351378
0.000348697
0.000345945
0.000343119
0.000340216
0.00033723
0.000334157
0.000330993
0.000327731
0.000324364
0.000320885
0.000317296
0.000313595
0.00030978
0.00030585
0.0003018
0.000297627
0.000293327
0.000288895
0.000284326
0.000279612
0.000274747
0.000269722
0.000264527
0.00025915
0.000253578
0.000247793
0.000241776
0.000235504
0.000228946
0.000222069
0.000214825
0.000207156
0.000198985
0.000190206
0.000180679
0.000170203
0.000158495
0.000145147
0.000129568
0.000110898
8.7968e-05
5.9198e-05
2.42425e-05
6.10366e-07
4.09204e-06
6.47494e-05
0.000140926
0.000205492
0.000259004
0.000303985
0.000342499
0.000376057
0.000405754
0.000432381
0.000456524
0.00047862
0.000499
0.00051792
0.000535579
0.000552136
0.000567718
0.000582429
0.000596352
0.000609558
0.000622104
0.00063404
0.000645407
0.000656239
0.000666568
0.000676419
0.000685815
0.000694776
0.000703318
0.000711458
0.000719208
0.000726582
0.00073359
0.000740242
0.000746546
0.000752513
0.000758148
0.00076346
0.000768454
0.000773138
0.000777516
0.000781596
0.000785381
0.000788878
0.00079209
0.000795024
0.000797683
0.000800072
0.000802195
0.000804057
0.000805662
0.000807014
0.000808118
0.000808977
0.000809595
0.000809976
0.000810124
0.000810043
0.000809737
0.000809208
0.000808459
0.000807495
0.000806316
0.000804928
0.000803338
0.000801553
0.000799579
0.000797424
0.000795093
0.000792593
0.000789929
0.000787108
0.000784135
0.000781017
0.000777759
0.000774368
0.00077085
0.000767211
0.000763457
0.000759594
0.00075563
0.00075157
0.000747421
0.00074319
0.000738882
0.000734505
0.000730064
0.000725567
0.000721019
0.000716427
0.000711798
0.000707137
0.00070245
0.000697745
0.000693025
0.000688298
0.000683569
0.000678843
0.000674126
0.000669422
0.000664738
0.000660077
0.000655444
0.000650843
0.000646279
0.000641755
0.000637275
0.000632842
0.00062846
0.00062413
0.000619856
0.000615639
0.000611482
0.000607386
0.000603352
0.000599382
0.000595475
0.000591633
0.000587856
0.000584142
0.000580492
0.000576906
0.00057338
0.000569916
0.00056651
0.000563162
0.000559869
0.000556629
0.000553437
0.00055029
0.000547185
0.000544118
0.000541085
0.000538081
0.000535104
0.000532148
0.000529209
0.000526282
0.000523363
0.000520445
0.000517525
0.000514597
0.000511655
0.000508695
0.00050571
0.000502696
0.000499646
0.000496556
0.00049342
0.000490233
0.000486989
0.000483682
0.000480309
0.000476864
0.000473342
0.000469738
0.000466047
0.000462265
0.000458387
0.000454409
0.000450325
0.00044613
0.000441819
0.000437386
0.000432823
0.000428124
0.000423287
0.000418308
0.000413185
0.000407914
0.000402489
0.000396904
0.000391154
0.00038523
0.000379123
0.000372823
0.000366319
0.000359596
0.000352638
0.000345426
0.000337938
0.000330149
0.000322026
0.000313534
0.000304626
0.000295247
0.000285327
0.000274777
0.000263483
0.000251293
0.000238006
0.000223348
0.000206948
0.000188294
0.000166678
0.000141133
0.000110372
7.29782e-05
2.96073e-05
8.33808e-07
4.09218e-06
6.47531e-05
0.000140935
0.000205505
0.00025902
0.000304003
0.000342517
0.000376076
0.000405773
0.0004324
0.000456544
0.000478639
0.000499019
0.000517939
0.000535598
0.000552155
0.000567737
0.000582448
0.000596371
0.000609577
0.000622123
0.000634058
0.000645425
0.000656258
0.000666586
0.000676437
0.000685833
0.000694793
0.000703336
0.000711475
0.000719226
0.000726599
0.000733607
0.000740259
0.000746563
0.00075253
0.000758165
0.000763476
0.000768471
0.000773154
0.000777533
0.000781612
0.000785397
0.000788893
0.000792106
0.000795039
0.000797698
0.000800087
0.00080221
0.000804072
0.000805677
0.000807029
0.000808132
0.000808991
0.000809609
0.00080999
0.000810138
0.000810057
0.00080975
0.000809221
0.000808472
0.000807507
0.000806329
0.000804941
0.00080335
0.000801565
0.000799591
0.000797436
0.000795105
0.000792604
0.00078994
0.000787119
0.000784146
0.000781028
0.00077777
0.000774378
0.00077086
0.00076722
0.000763466
0.000759603
0.000755639
0.000751579
0.00074743
0.000743198
0.00073889
0.000734512
0.000730072
0.000725574
0.000721026
0.000716434
0.000711805
0.000707143
0.000702457
0.000697751
0.000693031
0.000688304
0.000683574
0.000678848
0.000674131
0.000669427
0.000664743
0.000660081
0.000655448
0.000650847
0.000646283
0.000641759
0.000637279
0.000632846
0.000628463
0.000624133
0.000619859
0.000615642
0.000611485
0.000607388
0.000603354
0.000599384
0.000595477
0.000591635
0.000587857
0.000584144
0.000580494
0.000576907
0.000573381
0.000569917
0.000566511
0.000563163
0.00055987
0.000556629
0.000553437
0.00055029
0.000547185
0.000544117
0.000541084
0.000538081
0.000535103
0.000532147
0.000529208
0.000526281
0.000523361
0.000520444
0.000517524
0.000514595
0.000511654
0.000508693
0.000505708
0.000502694
0.000499644
0.000496554
0.000493418
0.00049023
0.000486986
0.00048368
0.000480306
0.000476861
0.000473339
0.000469735
0.000466044
0.000462262
0.000458384
0.000454406
0.000450322
0.000446127
0.000441816
0.000437383
0.00043282
0.000428121
0.000423284
0.000418305
0.000413182
0.000407911
0.000402486
0.000396901
0.000391151
0.000385227
0.000379121
0.000372821
0.000366317
0.000359593
0.000352635
0.000345424
0.000337936
0.000330147
0.000322025
0.000313532
0.000304625
0.000295246
0.000285326
0.000274776
0.000263482
0.000251292
0.000238005
0.000223348
0.000206948
0.000188294
0.000166678
0.000141133
0.000110372
7.29783e-05
2.96072e-05
8.33807e-07
5.12265e-06
7.33466e-05
0.000160954
0.000237859
0.000303248
0.000359175
0.000407607
0.000450103
0.000487857
0.000521772
0.000552534
0.000580672
0.000606595
0.000630624
0.000653013
0.000673966
0.000693647
0.000712192
0.00072971
0.000746295
0.000762022
0.000776957
0.000791154
0.000804661
0.000817518
0.000829758
0.000841414
0.00085251
0.000863071
0.000873116
0.000882665
0.000891733
0.000900336
0.000908487
0.000916198
0.000923482
0.000930347
0.000936805
0.000942865
0.000948535
0.000953824
0.00095874
0.000963289
0.00096748
0.00097132
0.000974815
0.000977972
0.000980798
0.000983298
0.000985479
0.000987348
0.000988909
0.000990168
0.000991132
0.000991806
0.000992195
0.000992305
0.00099214
0.000991707
0.000991009
0.000990052
0.000988839
0.000987377
0.00098567
0.000983725
0.000981551
0.000979156
0.000976547
0.000973731
0.000970717
0.00096751
0.000964119
0.000960549
0.00095681
0.000952907
0.000948848
0.00094464
0.000940291
0.000935808
0.000931198
0.000926469
0.000921629
0.000916684
0.000911643
0.000906514
0.000901302
0.000896017
0.000890666
0.000885255
0.000879793
0.000874287
0.000868743
0.00086317
0.000857574
0.000851961
0.00084634
0.000840715
0.000835094
0.000829482
0.000823886
0.000818311
0.000812763
0.000807247
0.000801768
0.00079633
0.000790938
0.000785596
0.000780308
0.000775077
0.000769907
0.000764799
0.000759757
0.000754782
0.000749876
0.00074504
0.000740276
0.000735584
0.000730964
0.000726416
0.00072194
0.000717534
0.000713198
0.000708931
0.000704729
0.000700592
0.000696518
0.000692502
0.000688542
0.000684633
0.000680771
0.000676952
0.000673171
0.000669424
0.000665707
0.000662013
0.000658338
0.000654676
0.000651021
0.000647369
0.000643712
0.000640046
0.000636363
0.000632658
0.000628925
0.000625157
0.000621347
0.00061749
0.000613579
0.000609609
0.000605572
0.000601464
0.000597278
0.000593008
0.000588648
0.000584194
0.000579639
0.000574979
0.000570207
0.00056532
0.00056031
0.000555174
0.000549904
0.000544496
0.000538942
0.000533236
0.000527371
0.000521341
0.000515144
0.000508773
0.000502222
0.000495484
0.000488552
0.000481415
0.000474064
0.000466485
0.000458664
0.000450585
0.000442228
0.00043357
0.000424585
0.000415244
0.00040551
0.00039534
0.000384684
0.000373481
0.000361655
0.000349115
0.000335742
0.000321389
0.000305863
0.000288913
0.000270209
0.000249312
0.000225638
0.000198413
0.000166627
0.000129031
8.4431e-05
3.4203e-05
1.05935e-06
5.12279e-06
7.33502e-05
0.000160963
0.000237872
0.000303265
0.000359195
0.000407628
0.000450125
0.00048788
0.000521795
0.000552557
0.000580696
0.000606619
0.000630648
0.000653036
0.000673989
0.00069367
0.000712215
0.000729733
0.000746318
0.000762045
0.00077698
0.000791177
0.000804683
0.00081754
0.00082978
0.000841435
0.000852532
0.000863092
0.000873137
0.000882686
0.000891754
0.000900356
0.000908507
0.000916218
0.000923502
0.000930367
0.000936825
0.000942885
0.000948555
0.000953843
0.000958759
0.000963308
0.000967499
0.000971338
0.000974833
0.00097799
0.000980816
0.000983316
0.000985497
0.000987365
0.000988925
0.000990185
0.000991148
0.000991822
0.000992211
0.00099232
0.000992156
0.000991722
0.000991024
0.000990066
0.000988854
0.000987392
0.000985684
0.000983739
0.000981565
0.000979169
0.00097656
0.000973744
0.000970729
0.000967522
0.000964131
0.000960561
0.000956821
0.000952918
0.000948859
0.000944651
0.000940302
0.000935818
0.000931208
0.000926479
0.000921638
0.000916694
0.000911653
0.000906522
0.000901311
0.000896025
0.000890674
0.000885263
0.000879801
0.000874294
0.000868751
0.000863177
0.000857581
0.000851968
0.000846346
0.000840721
0.0008351
0.000829488
0.000823892
0.000818317
0.000812768
0.000807252
0.000801773
0.000796335
0.000790943
0.000785601
0.000780313
0.000775081
0.000769911
0.000764803
0.00075976
0.000754785
0.000749879
0.000745043
0.000740279
0.000735587
0.000730967
0.000726419
0.000721942
0.000717536
0.0007132
0.000708932
0.000704731
0.000700594
0.000696519
0.000692503
0.000688542
0.000684633
0.000680771
0.000676952
0.000673171
0.000669424
0.000665707
0.000662012
0.000658337
0.000654675
0.000651021
0.000647368
0.000643711
0.000640045
0.000636362
0.000632657
0.000628923
0.000625155
0.000621345
0.000617488
0.000613577
0.000609607
0.00060557
0.000601461
0.000597275
0.000593005
0.000588646
0.000584191
0.000579636
0.000574976
0.000570204
0.000565317
0.000560307
0.000555171
0.000549901
0.000544493
0.000538939
0.000533233
0.000527368
0.000521338
0.000515141
0.00050877
0.000502219
0.000495481
0.000488549
0.000481413
0.000474061
0.000466483
0.000458662
0.000450583
0.000442225
0.000433568
0.000424583
0.000415242
0.000405508
0.000395338
0.000384682
0.000373479
0.000361654
0.000349113
0.000335741
0.000321388
0.000305862
0.000288913
0.000270209
0.000249312
0.000225638
0.000198413
0.000166627
0.000129031
8.44311e-05
3.42029e-05
1.05935e-06
6.15544e-06
8.0939e-05
0.00017815
0.00026562
0.000341423
0.00040716
0.000464645
0.000515422
0.000560728
0.000601533
0.000638598
0.000672519
0.000703767
0.000732718
0.000759673
0.000784876
0.000808526
0.000830785
0.000851789
0.000871651
0.000890465
0.000908311
0.000925258
0.000941362
0.000956674
0.000971238
0.00098509
0.000998263
0.00101079
0.00102269
0.00103398
0.0010447
0.00105485
0.00106446
0.00107354
0.00108211
0.00109017
0.00109774
0.00110484
0.00111146
0.00111763
0.00112336
0.00112865
0.00113351
0.00113795
0.00114198
0.00114562
0.00114886
0.00115171
0.00115419
0.0011563
0.00115805
0.00115945
0.0011605
0.00116122
0.0011616
0.00116165
0.00116139
0.00116082
0.00115994
0.00115877
0.0011573
0.00115555
0.00115351
0.00115121
0.00114865
0.00114583