/*--------------------------------*- C++ -*----------------------------------*\
  =========                 |
  \\      /  F ield         | OpenFOAM: The Open Source CFD Toolbox
   \\    /   O peration     | Website:  https://openfoam.org
    \\  /    A nd           | Version:  8
     \\/     M anipulation  |
\*---------------------------------------------------------------------------*/
FoamFile
{
    version     2.0;
    format      ascii;
    class       volScalarField;
    location    "2400";
    object      epsilon;
}
// * * * * * * * * * * * * * * * * * * * * * * * * * * * * * * * * * * * * * //

dimensions      [0 2 -3 0 0 0 0];

internalField   nonuniform List<scalar> 
46000
(
3.895
17.4864
35.3807
52.6787
69.2262
85.3446
101.083
116.546
131.791
146.904
161.886
176.736
191.49
206.157
220.74
235.239
249.649
263.964
278.178
292.279
306.258
320.103
333.8
347.337
360.697
373.866
386.828
399.566
412.064
424.304
436.268
447.94
459.302
470.334
481.021
491.345
501.288
510.834
519.967
528.671
536.931
544.734
552.066
558.915
565.27
571.122
576.461
581.28
585.574
589.337
592.567
595.262
597.421
599.046
600.14
600.706
600.751
600.281
599.305
597.832
595.877
593.456
590.604
587.345
583.659
579.559
575.06
570.182
564.941
559.359
553.454
547.247
540.758
534.009
527.019
519.811
512.405
504.821
497.081
489.204
481.211
473.121
464.953
456.727
448.459
440.167
431.868
423.578
415.313
407.087
398.913
390.805
382.775
374.835
366.995
359.265
351.654
344.171
336.823
329.616
322.557
315.651
308.902
302.315
295.893
289.637
283.551
277.635
271.891
266.319
260.917
255.687
250.626
245.733
241.006
236.443
232.041
227.797
223.708
219.769
215.978
212.33
208.821
205.447
202.202
199.082
196.083
193.199
190.424
187.756
185.185
182.707
180.321
178.017
175.789
173.632
171.539
169.503
167.52
165.583
163.685
161.821
159.985
158.17
156.371
154.58
152.793
151.004
149.205
147.393
145.561
143.703
141.815
139.891
137.927
135.917
133.858
131.745
129.574
127.343
125.047
122.685
120.254
117.752
115.189
112.577
109.897
107.147
104.327
101.437
98.4816
95.4613
92.3795
89.2396
86.0456
82.8016
79.5124
76.183
72.8186
69.4248
66.0073
62.5717
59.1237
55.669
52.2127
48.7597
45.3136
41.8715
38.4375
35.0269
31.6229
28.2241
24.8202
21.3927
17.9544
14.4792
10.8818
7.11783
3.34771
0.710413
3.89535
17.4877
35.3826
52.6808
69.2285
85.3469
101.086
116.548
131.794
146.906
161.889
176.739
191.492
206.159
220.742
235.241
249.651
263.966
278.18
292.281
306.26
320.105
333.802
347.339
360.699
373.868
386.83
399.568
412.066
424.305
436.27
447.942
459.303
470.336
481.023
491.347
501.29
510.836
519.968
528.672
536.933
544.735
552.067
558.916
565.272
571.123
576.462
581.281
585.575
589.338
592.568
595.263
597.422
599.047
600.141
600.707
600.752
600.282
599.305
597.833
595.877
593.456
590.605
587.345
583.66
579.559
575.061
570.182
564.942
559.359
553.454
547.247
540.759
534.009
527.02
519.811
512.405
504.821
497.081
489.204
481.211
473.121
464.953
456.727
448.459
440.167
431.868
423.578
415.313
407.086
398.913
390.805
382.775
374.835
366.995
359.265
351.654
344.171
336.822
329.616
322.557
315.65
308.902
302.315
295.892
289.637
283.551
277.635
271.891
266.318
260.917
255.687
250.626
245.733
241.006
236.443
232.041
227.796
223.707
219.769
215.978
212.33
208.821
205.446
202.201
199.082
196.082
193.198
190.424
187.755
185.184
182.706
180.32
178.016
175.789
173.631
171.538
169.503
167.52
165.582
163.685
161.821
159.984
158.17
156.37
154.58
152.793
151.003
149.205
147.392
145.56
143.703
141.815
139.891
137.926
135.917
133.857
131.744
129.574
127.342
125.047
122.685
120.254
117.752
115.188
112.576
109.896
107.146
104.326
101.437
98.4813
95.461
92.3792
89.2394
86.0453
82.8014
79.5122
76.1828
72.8184
69.4247
66.0071
62.5716
59.1236
55.6689
52.2126
48.7596
45.3136
41.8715
38.4375
35.027
31.6229
28.2242
24.8203
21.3927
17.9546
14.4793
10.8819
7.11792
3.34776
0.710428
18.9513
16.2496
21.7892
28.2063
34.8108
41.4961
48.2097
54.9463
61.6882
68.4464
75.222
82.0134
88.8233
95.6513
102.495
109.352
116.216
123.084
129.948
136.803
143.641
150.453
157.232
163.969
170.654
177.277
183.829
190.298
196.675
202.947
209.104
215.134
221.026
226.768
232.349
237.757
242.982
248.011
252.834
257.44
261.82
265.965
269.864
273.51
276.894
280.011
282.854
285.416
287.695
289.686
291.386
292.795
293.91
294.732
295.263
295.505
295.46
295.132
294.528
293.653
292.516
291.127
289.503
287.653
285.575
283.275
280.762
278.046
275.138
272.049
268.791
265.377
261.817
258.124
254.31
250.388
246.37
242.267
238.092
233.855
229.568
225.243
220.889
216.517
212.137
207.758
203.39
199.04
194.717
190.428
186.18
181.981
177.836
173.751
169.731
165.781
161.904
158.106
154.388
150.754
147.207
143.748
140.38
137.103
133.919
130.827
127.83
124.926
122.116
119.398
116.773
114.239
111.796
109.441
107.174
104.992
102.894
100.879
98.9429
97.0848
95.3021
93.5926
91.9538
90.3833
88.8784
87.4365
86.055
84.7309
83.4614
82.2453
81.0798
79.9617
78.8884
77.8565
76.863
75.9048
74.9791
74.0829
73.2133
72.3673
71.542
70.7345
69.942
69.1614
68.3899
67.6246
66.8627
66.1014
65.3379
64.5695
63.7934
63.0072
62.2082
61.3939
60.5621
59.7104
58.8367
57.9391
57.0156
56.0646
55.0846
54.0743
53.0329
51.9604
50.8601
49.7331
48.5756
47.3859
46.1637
44.9093
43.6233
42.3068
40.961
39.5876
38.1882
36.765
35.3201
33.8561
32.3753
30.8807
29.3748
27.8606
26.3408
24.8183
23.2957
21.7754
20.2594
18.7491
17.2461
15.7526
14.2654
12.7901
11.3273
9.87611
8.44413
7.02667
5.61571
4.23264
3.03988
3.56853
18.9527
16.2491
21.7881
28.2049
34.8091
41.4941
48.2075
54.9439
61.6855
68.4435
75.2188
82.01
88.8196
95.6473
102.491
109.347
116.212
123.079
129.943
136.798
143.635
150.447
157.226
163.962
170.647
177.27
183.821
190.29
196.666
202.938
209.095
215.125
221.017
226.759
232.34
237.748
242.971
248
252.823
257.429
261.809
265.953
269.852
273.498
276.883
279.999
282.842
285.404
287.683
289.674
291.374
292.782
293.898
294.72
295.251
295.492
295.447
295.12
294.516
293.641
292.504
291.115
289.491
287.641
285.563
283.263
280.75
278.034
275.126
272.038
268.78
265.366
261.806
258.113
254.3
250.378
246.36
242.257
238.082
233.846
229.559
225.234
220.88
216.509
212.129
207.75
203.381
199.032
194.709
190.42
186.173
181.974
177.829
173.744
169.725
165.774
161.898
158.1
154.382
150.749
147.202
143.743
140.375
137.098
133.914
130.823
127.825
124.922
122.111
119.394
116.769
114.236
111.792
109.438
107.17
104.989
102.891
100.876
98.9398
97.0818
95.2993
93.5899
91.9512
90.3807
88.8759
87.4341
86.0526
84.7287
83.4592
82.2432
81.0778
79.9598
78.8865
77.8547
76.8612
75.9032
74.9775
74.0814
73.2118
72.3659
71.5407
70.7333
69.9407
69.1602
68.3887
67.6235
66.8617
66.1004
65.337
64.5686
63.7926
63.0064
62.2074
61.3932
60.5614
59.7098
58.8362
57.9385
57.0151
56.0641
55.0841
54.0739
53.0325
51.96
50.8597
49.7327
48.5752
47.3856
46.1634
44.909
43.6231
42.3065
40.9608
39.5873
38.188
36.7648
35.3199
33.8559
32.3752
30.8805
29.3747
27.8605
26.3407
24.8182
23.2956
21.7753
20.2593
18.749
17.246
15.7526
14.2653
12.79
11.3273
9.87605
8.4441
7.02665
5.6157
4.23263
3.03988
3.56851
38.5436
22.8244
23.7854
27.053
31.0312
35.3372
39.8233
44.4277
49.1159
53.8709
58.6819
63.5408
68.4421
73.3812
78.3531
83.3531
88.376
93.4166
98.4691
103.528
108.586
113.637
118.675
123.691
128.679
133.63
138.536
143.389
148.179
152.899
157.54
162.091
166.544
170.89
175.118
179.221
183.188
187.012
190.682
194.19
197.529
200.69
203.666
206.45
209.036
211.418
213.589
215.547
217.287
218.806
220.102
221.172
222.016
222.635
223.028
223.197
223.144
222.874
222.388
221.694
220.797
219.704
218.424
216.964
215.328
213.521
211.55
209.423
207.148
204.734
202.19
199.525
196.75
193.873
190.905
187.854
184.731
181.544
178.304
175.018
171.697
168.348
164.979
161.6
158.216
154.837
151.468
148.117
144.789
141.49
138.227
135.003
131.824
128.694
125.617
122.596
119.634
116.735
113.901
111.133
108.434
105.805
103.248
100.763
98.3512
96.0125
93.7473
91.5556
89.4369
87.391
85.4171
83.5144
81.6819
79.9186
78.2232
76.5943
75.0304
73.5301
72.0917
70.7134
69.3934
68.13
66.9212
65.765
64.6595
63.6026
62.5922
61.626
60.7033
59.8218
58.9792
58.1734
57.4019
56.6626
55.9532
55.2714
54.615
53.9818
53.3695
52.7759
52.1988
51.6361
51.0854
50.5446
50.0115
49.484
48.9597
48.4367
47.9128
47.3858
46.8537
46.3145
45.7662
45.2069
44.6347
44.0478
43.4446
42.8234
42.1827
41.5213
40.8378
40.1314
39.4012
38.6473
37.87
37.0698
36.2454
35.3958
34.5207
33.6203
32.695
31.7453
30.7724
29.7772
28.7612
27.726
26.6732
25.6047
24.5226
23.4291
22.3263
21.2166
20.1023
18.9857
17.8691
16.7549
15.645
14.5416
13.4468
12.3627
11.2911
10.2354
9.19881
8.18699
7.20958
6.27821
5.41737
4.70359
4.47801
7.61928
38.5455
22.8233
23.7836
27.0509
31.029
35.3348
39.8208
44.4251
49.1131
53.8681
58.6789
63.5376
68.4388
73.3777
78.3495
83.3493
88.372
93.4124
98.4648
103.523
108.581
113.633
118.67
123.686
128.673
133.624
138.53
143.383
148.173
152.893
157.533
162.085
166.537
170.883
175.111
179.214
183.181
187.004
190.674
194.183
197.521
200.682
203.658
206.442
209.028
211.409
213.581
215.539
217.279
218.798
220.093
221.164
222.008
222.626
223.019
223.188
223.136
222.865
222.38
221.686
220.789
219.696
218.416
216.956
215.321
213.514
211.543
209.415
207.14
204.726
202.182
199.518
196.743
193.866
190.898
187.848
184.725
181.538
178.298
175.012
171.691
168.342
164.974
161.594
158.211
154.832
151.463
148.112
144.784
141.486
138.223
134.999
131.82
128.69
125.613
122.592
119.631
116.732
113.897
111.13
108.431
105.802
103.245
100.76
98.3485
96.0099
93.7448
91.5531
89.4346
87.3888
85.4149
83.5123
81.68
79.9167
78.2213
76.5925
75.0287
73.5285
72.0901
70.7119
69.392
68.1286
66.9199
65.7638
64.6583
63.6015
62.5911
61.625
60.7023
59.8208
58.9783
58.1725
57.4011
56.6619
55.9525
55.2707
54.6144
53.9812
53.3689
52.7754
52.1983
51.6356
51.085
50.5442
50.0111
49.4836
48.9594
48.4364
47.9125
47.3856
46.8535
46.3143
45.7661
45.2068
44.6346
44.0477
43.4445
42.8233
42.1827
41.5212
40.8378
40.1313
39.4012
38.6473
37.87
37.0698
36.2454
35.3958
34.5208
33.6203
32.695
31.7454
30.7724
29.7772
28.7612
27.726
26.6732
25.6047
24.5227
23.4291
22.3264
21.2166
20.1023
18.9857
17.8692
16.7549
15.645
14.5416
13.4468
12.3627
11.2911
10.2354
9.1988
8.18697
7.20957
6.27821
5.41737
4.7036
4.47802
7.61924
57.9036
30.2033
27.8717
29.2699
31.8381
34.949
38.3677
41.9854
45.7436
49.6085
53.5584
57.5786
61.6582
65.7886
69.9627
74.1739
78.4159
82.6827
86.9683
91.2666
95.5714
99.8763
104.175
108.46
112.725
116.963
121.166
125.326
129.436
133.488
137.474
141.385
145.214
148.952
152.59
156.122
159.538
162.831
165.992
169.014
171.891
174.614
177.178
179.576
181.803
183.853
185.722
187.405
188.899
190.202
191.31
192.223
192.94
193.46
193.785
193.915
193.852
193.599
193.16
192.538
191.74
190.77
189.635
188.341
186.892
185.295
183.555
181.679
179.675
177.549
175.311
172.968
170.528
168.001
165.393
162.715
159.973
157.177
154.335
151.453
148.541
145.605
142.653
139.692
136.729
133.77
130.821
127.888
124.976
122.091
119.237
116.419
113.641
110.906
108.218
105.58
102.995
100.466
97.9932
95.58
93.2277
90.9375
88.7103
86.547
84.4482
82.4141
80.4448
78.5403
76.7004
74.9245
73.2121
71.5625
69.9748
68.448
66.9811
65.5727
64.2216
62.9265
61.6859
60.4983
59.3621
58.2756
57.2373
56.2454
55.2981
54.3937
53.5303
52.707
51.9219
51.173
50.4585
49.7765
49.1249
48.5018
47.9053
47.3334
46.7842
46.2558
45.7461
45.2533
44.7754
44.3106
43.8568
43.4122
42.9748
42.5428
42.1142
41.6871
41.2596
40.83
40.3964
39.957
39.51
39.0538
38.5866
38.107
37.6133
37.1041
36.5782
36.0342
35.4712
34.8882
34.2846
33.6599
33.014
32.3469
31.658
30.9468
30.2129
29.4566
28.6781
27.878
27.057
26.2161
25.3566
24.4796
23.5868
22.6797
21.7601
20.83
19.8913
18.9462
17.9967
17.045
16.0935
15.1443
14.2
13.2628
12.3356
11.4213
10.5233
9.64631
8.79614
7.98139
7.21524
6.52021
5.94488
5.62048
6.10061
11.8292
57.9058
30.2019
27.8697
29.2677
31.8357
34.9465
38.3652
41.9827
45.7409
49.6057
53.5555
57.5756
61.6551
65.7855
69.9595
74.1705
78.4124
82.6791
86.9645
91.2627
95.5674
99.8723
104.171
108.456
112.721
116.958
121.161
125.321
129.431
133.483
137.469
141.38
145.209
148.946
152.585
156.116
159.532
162.825
165.986
169.009
171.885
174.608
177.172
179.57
181.797
183.847
185.715
187.399
188.893
190.195
191.304
192.217
192.934
193.454
193.779
193.908
193.846
193.593
193.154
192.532
191.734
190.764
189.629
188.335
186.887
185.29
183.55
181.674
179.669
177.544
175.306
172.963
170.523
167.996
165.389
162.71
159.969
157.173
154.33
151.449
148.537
145.601
142.65
139.689
136.726
133.767
130.818
127.885
124.973
122.088
119.234
116.416
113.638
110.903
108.215
105.578
102.993
100.463
97.991
95.578
93.2257
90.9355
88.7085
86.5452
84.4465
82.4124
80.4432
78.5388
76.6989
74.9231
73.2108
71.5613
69.9736
68.4469
66.9799
65.5716
64.2206
62.9255
61.685
60.4974
59.3612
58.2748
57.2366
56.2447
55.2975
54.393
53.5297
52.7064
51.9213
51.1725
50.458
49.776
49.1245
48.5014
47.905
47.3331
46.7839
46.2555
45.7458
45.2531
44.7752
44.3104
43.8566
43.4121
42.9747
42.5427
42.1141
41.687
41.2596
40.83
40.3964
39.957
39.51
39.0538
38.5867
38.107
37.6133
37.1042
36.5783
36.0343
35.4713
34.8883
34.2847
33.66
33.0141
32.3471
31.6581
30.9469
30.213
29.4567
28.6782
27.8781
27.0571
26.2163
25.3567
24.4797
23.5868
22.6798
21.7602
20.8301
19.8914
18.9462
17.9967
17.0451
16.0935
15.1444
14.2
13.2629
12.3356
11.4213
10.5233
9.64633
8.79615
7.98139
7.21524
6.52021
5.94488
5.62049
6.10064
11.8292
76.8944
37.8247
32.6551
32.5971
34.1571
36.4687
39.2072
42.2207
45.427
48.7772
52.24
55.7939
59.4231
63.1158
66.8619
70.653
74.4817
78.3407
82.2234
86.1233
90.0336
93.9479
97.8595
101.762
105.648
109.51
113.342
117.136
120.885
124.582
128.218
131.786
135.278
138.687
142.005
145.224
148.337
151.337
154.215
156.966
159.583
162.059
164.388
166.565
168.584
170.441
172.131
173.651
174.998
176.169
177.162
177.976
178.609
179.063
179.337
179.433
179.352
179.097
178.671
178.077
177.321
176.408
175.342
174.129
172.773
171.281
169.658
167.911
166.045
164.069
161.989
159.813
157.548
155.203
152.784
150.3
147.758
145.166
142.531
139.861
137.162
134.442
131.707
128.964
126.219
123.477
120.745
118.028
115.331
112.658
110.015
107.404
104.831
102.297
99.8077
97.3643
94.97
92.6268
90.3368
88.1018
85.9231
83.802
81.7394
79.7361
77.7926
75.9092
74.0859
72.3229
70.6197
68.9761
67.3915
65.8652
64.3964
62.9843
61.6278
60.3258
59.0771
57.8805
56.7347
55.6382
54.5896
53.5874
52.63
51.7159
50.8435
50.0111
49.2178
48.4618
47.7414
47.055
46.4006
45.7767
45.1813
44.6127
44.0691
43.5486
43.0496
42.5702
42.1087
41.6632
41.2319
40.8131
40.4049
40.0057
39.6136
39.2268
38.8436
38.4623
38.081
37.6981
37.3119
36.9207
36.5228
36.1168
35.7011
35.2742
34.8346
34.3811
33.9124
33.4275
32.9252
32.4047
31.8655
31.3068
30.7286
30.1305
29.5121
28.8731
28.2134
27.5331
26.8324
26.1118
25.372
24.6138
23.8383
23.0467
22.2402
21.4204
20.5889
19.7474
18.8976
18.0416
17.1814
16.3192
15.457
14.5975
13.7431
12.8967
12.0615
11.2414
10.441
9.66631
8.9254
8.22991
7.59802
7.06175
6.68837
6.66396
7.758
16.0612
76.8969
37.8229
32.6529
32.5947
34.1546
36.4661
39.2047
42.2181
45.4243
48.7745
52.2372
55.791
59.4202
63.1127
66.8588
70.6499
74.4784
78.3374
82.22
86.1197
90.03
93.9442
97.8557
101.758
105.644
109.506
113.338
117.132
120.881
124.578
128.213
131.781
135.274
138.683
142
145.219
148.332
151.332
154.21
156.961
159.578
162.054
164.383
166.56
168.579
170.436
172.126
173.646
174.993
176.164
177.157
177.971
178.604
179.058
179.332
179.428
179.347
179.092
178.666
178.073
177.317
176.403
175.337
174.124
172.769
171.277
169.654
167.907
166.041
164.065
161.985
159.809
157.544
155.199
152.781
150.297
147.755
145.163
142.528
139.858
137.159
134.439
131.704
128.961
126.216
123.475
120.743
118.026
115.329
112.656
110.013
107.402
104.829
102.295
99.8058
97.3625
94.9682
92.6251
90.3352
88.1002
85.9216
83.8006
81.7381
79.7348
77.7913
75.908
74.0848
72.3218
70.6187
68.9751
67.3905
65.8643
64.3955
62.9834
61.627
60.325
59.0764
57.8798
56.734
55.6376
54.589
53.5868
52.6295
51.7154
50.843
50.0107
49.2173
48.4614
47.741
47.0546
46.4003
45.7764
45.181
44.6124
44.0688
43.5484
43.0494
42.5701
42.1085
41.663
41.2318
40.813
40.4049
40.0056
39.6135
39.2268
38.8436
38.4622
38.081
37.6981
37.3119
36.9207
36.5229
36.1169
35.7012
35.2742
34.8347
34.3812
33.9125
33.4276
32.9253
32.4049
31.8656
31.307
30.7287
30.1306
29.5122
28.8733
28.2136
27.5332
26.8325
26.1119
25.3721
24.6139
23.8384
23.0468
22.2403
21.4205
20.589
19.7474
18.8977
18.0417
17.1815
16.3192
15.4571
14.5975
13.7431
12.8967
12.0616
11.2414
10.441
9.66633
8.92541
8.22992
7.59802
7.06175
6.68837
6.66397
7.75805
16.0612
95.805
45.6548
37.8389
36.512
37.2524
38.9507
41.1921
43.7818
46.6147
49.6277
52.7801
56.044
59.3991
62.8299
66.324
69.8708
73.4614
77.0874
80.7412
84.4154
88.103
91.7969
95.4902
99.1758
102.847
106.496
110.116
113.7
117.241
120.73
124.162
127.527
130.82
134.032
137.156
140.184
143.111
145.929
148.63
151.209
153.66
155.976
158.152
160.183
162.063
163.79
165.358
166.765
168.007
169.083
169.99
170.728
171.296
171.693
171.921
171.981
171.875
171.604
171.173
170.583
169.84
168.948
167.912
166.737
165.427
163.988
162.426
160.747
158.956
157.061
155.068
152.985
150.818
148.574
146.262
143.888
141.459
138.982
136.465
133.914
131.337
128.739
126.126
123.506
120.884
118.265
115.655
113.058
110.481
107.926
105.399
102.903
100.443
98.0198
95.6383
93.3007
91.0095
88.7668
86.5747
84.4347
82.3483
80.3166
78.3406
76.4209
74.5582
72.7528
71.0047
69.3139
67.6804
66.1036
64.5832
63.1184
61.7087
60.3531
59.0507
57.8005
56.6014
55.4522
54.3515
53.2982
52.2909
51.328
50.4083
49.5301
48.692
47.8929
47.1314
46.4058
45.7146
45.056
44.4283
43.83
43.2593
42.7145
42.1939
41.6958
41.2185
40.7603
40.3195
39.8944
39.4833
39.0844
38.6961
38.3167
37.9444
37.5776
37.2147
36.8538
36.4935
36.1319
35.7677
35.399
35.0246
34.6427
34.252
33.8511
33.4386
33.0134
32.5743
32.1201
31.65
31.1632
30.659
30.1368
29.5963
29.0373
28.4594
27.8624
27.2461
26.6108
25.9566
25.284
24.5937
23.8862
23.1626
22.424
21.6714
20.9063
20.13
19.3442
18.5505
17.7507
16.9467
16.1408
15.335
14.5319
13.7344
12.9455
12.1691
11.4097
10.673
9.96646
9.30007
8.68853
8.15501
7.74072
7.53254
7.76775
9.43288
20.3166
95.8076
45.6528
37.8365
36.5095
37.2498
38.9482
41.1895
43.7792
46.612
49.6249
52.7773
56.0412
59.3962
62.827
66.321
69.8678
73.4583
77.0842
80.7379
84.4121
88.0996
91.7934
95.4866
99.1721
102.843
106.492
110.112
113.696
117.237
120.726
124.158
127.523
130.816
134.027
137.151
140.18
143.107
145.924
148.626
151.205
153.656
155.972
158.148
160.178
162.059
163.785
165.354
166.76
168.003
169.078
169.986
170.723
171.291
171.689
171.917
171.977
171.871
171.6
171.168
170.579
169.836
168.944
167.908
166.733
165.423
163.985
162.423
160.743
158.953
157.058
155.065
152.981
150.815
148.571
146.259
143.885
141.456
138.98
136.463
133.912
131.334
128.736
126.124
123.504
120.881
118.263
115.652
113.056
110.479
107.924
105.397
102.902
100.441
98.0182
95.6367
93.2992
91.008
88.7655
86.5734
84.4335
82.3471
80.3154
78.3394
76.4199
74.5572
72.7518
71.0037
69.313
67.6795
66.1028
64.5824
63.1177
61.708
60.3524
59.0501
57.7999
56.6008
55.4516
54.351
53.2977
52.2904
51.3276
50.4078
49.5297
48.6916
47.8925
47.1311
46.4055
45.7143
45.0557
44.428
43.8297
43.259
42.7142
42.1937
41.6956
41.2183
40.7602
40.3194
39.8943
39.4832
39.0843
38.696
38.3166
37.9444
37.5776
37.2146
36.8538
36.4935
36.132
35.7677
35.3991
35.0246
34.6427
34.2521
33.8512
33.4387
33.0135
32.5744
32.1202
31.6501
31.1633
30.6591
30.1369
29.5964
29.0374
28.4595
27.8625
27.2462
26.6109
25.9567
25.2842
24.5938
23.8863
23.1627
22.4241
21.6715
20.9064
20.1301
19.3442
18.5505
17.7507
16.9468
16.1408
15.335
14.532
13.7344
12.9455
12.1691
11.4098
10.6731
9.96647
9.30008
8.68853
8.155
7.74071
7.53253
7.76776
9.43294
20.3166
114.693
53.6879
43.3303
40.8414
40.8692
42.0608
43.91
46.1801
48.7425
51.5207
54.4647
57.5405
60.7232
63.9939
67.3376
70.7417
74.1955
77.6895
81.2149
84.7636
88.3277
91.8995
95.4717
99.0368
102.587
106.116
109.616
113.079
116.499
119.867
123.176
126.419
129.59
132.679
135.681
138.588
141.394
144.092
146.675
149.137
151.474
153.678
155.745
157.67
159.449
161.078
162.553
163.872
165.031
166.03
166.866
167.538
168.047
168.392
168.574
168.595
168.456
168.16
167.709
167.107
166.357
165.465
164.435
163.27
161.978
160.561
159.026
157.379
155.626
153.772
151.825
149.791
147.677
145.49
143.236
140.923
138.558
136.146
133.696
131.212
128.703
126.174
123.631
121.08
118.526
115.976
113.433
110.904
108.393
105.903
103.44
101.006
98.6055
96.2416
93.9172
91.635
89.3973
87.2064
85.064
82.9718
80.9312
78.9433
77.0092
75.1296
73.305
71.5357
69.822
68.1638
66.561
65.0132
63.5202
62.0812
60.6956
59.3627
58.0815
56.8511
55.6705
54.5384
53.4538
52.4153
51.4217
50.4716
49.5636
48.6962
47.8684
47.079
46.3263
45.6088
44.925
44.2732
43.6518
43.0592
42.4938
41.9539
41.4379
40.9441
40.4708
40.0165
39.5795
39.158
38.7505
38.3553
37.9707
37.5951
37.2269
36.8643
36.5059
36.1499
35.7947
35.4389
35.0809
34.7191
34.3521
33.9785
33.5968
33.2059
32.8043
32.3911
31.965
31.5251
31.0705
30.6004
30.1143
29.6116
29.0919
28.555
28.0007
27.4286
26.8389
26.2315
25.6068
24.9651
24.3069
23.633
22.9441
22.2412
21.5253
20.7976
20.0594
19.312
18.5571
17.7962
17.0313
16.2644
15.4976
14.7338
13.9757
13.2269
12.4916
11.7751
11.084
10.427
9.81619
9.26911
8.81392
8.50108
8.43751
8.91361
11.1364
24.6345
114.695
53.6856
43.3277
40.8388
40.8666
42.0581
43.9074
46.1774
48.7398
51.5179
54.462
57.5377
60.7204
63.991
67.3346
70.7386
74.1924
77.6863
81.2117
84.7603
88.3243
91.8961
95.4682
99.0333
102.584
106.113
109.612
113.076
116.495
119.863
123.172
126.416
129.586
132.675
135.677
138.584
141.39
144.088
146.671
149.133
151.47
153.674
155.741
157.666
159.445
161.074
162.549
163.868
165.027
166.026
166.862
167.534
168.043
168.388
168.57
168.591
168.452
168.156
167.705
167.103
166.354
165.462
164.431
163.267
161.974
160.558
159.023
157.376
155.623
153.769
151.822
149.788
147.674
145.487
143.234
140.921
138.555
136.144
133.693
131.21
128.701
126.172
123.629
121.078
118.524
115.974
113.432
110.902
108.391
105.901
103.438
101.004
98.604
96.2402
93.9159
91.6337
89.3961
87.2052
85.0628
82.9706
80.9301
78.9423
77.0083
75.1287
73.3041
71.5348
69.8211
68.163
66.5602
65.0125
63.5194
62.0805
60.6949
59.3621
58.0809
56.8506
55.6699
54.5379
53.4533
52.4148
51.4213
50.4711
49.5631
48.6958
47.8681
47.0786
46.326
45.6085
44.9247
44.2729
43.6515
43.059
42.4935
41.9537
41.4377
40.9439
40.4707
40.0164
39.5793
39.1579
38.7504
38.3552
37.9707
37.5951
37.2268
36.8643
36.5058
36.1498
35.7947
35.4389
35.0809
34.7191
34.3521
33.9785
33.5969
33.2059
32.8044
32.3911
31.965
31.5251
31.0705
30.6005
30.1144
29.6117
29.092
28.5551
28.0008
27.4287
26.839
26.2316
25.6069
24.9652
24.307
23.6331
22.9442
22.2413
21.5254
20.7977
20.0595
19.3121
18.5571
17.7963
17.0314
16.2644
15.4977
14.7338
13.9757
13.2269
12.4916
11.7751
11.084
10.427
9.81618
9.2691
8.81391
8.50107
8.4375
8.91362
11.1364
24.6344
133.75
61.9789
49.1187
45.5266
44.907
45.6595
47.185
49.2034
51.5633
54.1742
56.9773
59.9323
63.0099
66.1878
69.4484
72.7769
76.1611
79.5899
83.0535
86.5427
90.0488
93.5634
97.0786
100.586
104.079
107.549
110.988
114.388
117.743
121.045
124.286
127.459
130.556
133.571
136.497
139.326
142.052
144.669
147.171
149.551
151.805
153.927
155.912
157.756
159.456
161.006
162.405
163.65
164.739
165.669
166.441
167.053
167.505
167.797
167.931
167.908
167.73
167.399
166.919
166.291
165.522
164.613
163.571
162.399
161.103
159.687
158.157
156.518
154.776
152.937
151.008
148.995
146.904
144.743
142.517
140.233
137.898
135.519
133.101
130.652
128.177
125.682
123.173
120.657
118.137
115.62
113.111
110.614
108.134
105.675
103.24
100.835
98.4612
96.1228
93.8226
91.563
89.3467
87.1755
85.0515
82.9763
80.9512
78.9774
77.056
75.1877
73.373
71.6124
69.906
68.254
66.6562
65.1123
63.622
62.1848
60.8
59.467
58.1848
56.9526
55.7694
54.634
53.5455
52.5024
51.5036
50.5478
49.6336
48.7599
47.9256
47.1292
46.3692
45.6442
44.9525
44.2926
43.6629
43.0619
42.488
41.9395
41.4148
40.9123
40.4304
39.9675
39.5219
39.092
38.6762
38.2728
37.8802
37.4969
37.1211
36.7514
36.3861
36.0237
35.6626
35.3012
34.9382
34.5721
34.2015
33.8249
33.4411
33.0489
32.6471
32.2346
31.8103
31.3735
30.9232
30.4587
29.9795
29.4851
28.9752
28.4495
27.9078
27.3499
26.7759
26.1858
25.5799
24.9585
24.3221
23.6713
23.0067
22.3292
21.6397
20.9392
20.2288
19.5097
18.7834
18.0514
17.3154
16.5774
15.8397
15.1049
14.376
13.657
12.9525
12.2682
11.6118
10.9932
10.4262
9.93155
9.54218
9.31793
9.38607
10.0927
12.8631
28.97
133.752
61.9763
49.116
45.5239
44.9044
45.6568
47.1823
49.2007
51.5606
54.1714
56.9745
59.9295
63.0071
66.1849
69.4454
72.7739
76.158
79.5868
83.0503
86.5395
90.0455
93.5601
97.0752
100.583
104.075
107.545
110.984
114.385
117.74
121.041
124.282
127.455
130.553
133.568
136.493
139.322
142.049
144.666
147.167
149.548
151.801
153.923
155.908
157.753
159.452
161.003
162.402
163.647
164.735
165.666
166.437
167.049
167.501
167.794
167.928
167.905
167.727
167.396
166.915
166.288
165.518
164.61
163.568
162.396
161.1
159.684
158.154
156.515
154.773
152.934
151.005
148.992
146.902
144.74
142.514
140.231
137.896
135.517
133.099
130.65
128.175
125.68
123.171
120.655
118.135
115.619
113.11
110.613
108.132
105.673
103.239
100.833
98.4599
96.1215
93.8213
91.5618
89.3455
87.1744
85.0504
82.9752
80.9502
78.9765
77.0551
75.1868
73.3721
71.6116
69.9052
68.2532
66.6554
65.1116
63.6213
62.1841
60.7994
59.4664
58.1842
56.9521
55.7688
54.6335
53.5449
52.5019
51.5032
50.5474
49.6332
48.7595
47.9252
47.1288
46.3689
45.6438
44.9521
44.2923
43.6627
43.0617
42.4877
41.9393
41.4146
40.9121
40.4303
39.9673
39.5217
39.0918
38.676
38.2727
37.8801
37.4968
37.1211
36.7513
36.386
36.0236
35.6625
35.3012
34.9382
34.5721
34.2015
33.8249
33.4411
33.0489
32.6471
32.2346
31.8104
31.3735
30.9232
30.4587
29.9796
29.4852
28.9753
28.4496
27.9078
27.35
26.7759
26.1859
25.58
24.9586
24.3222
23.6713
23.0068
22.3293
21.6397
20.9392
20.2288
19.5098
18.7835
18.0515
17.3155
16.5775
15.8397
15.1049
14.3761
13.657
12.9525
12.2682
11.6118
10.9932
10.4262
9.93154
9.54217
9.31791
9.38606
10.0927
12.8632
28.9699
153.125
70.562
55.217
50.5542
49.3289
49.688
50.9373
52.7527
54.959
57.4518
60.1633
63.0468
66.0687
69.2032
72.43
75.7323
79.096
82.5087
85.9591
89.4372
92.9331
96.4379
99.9428
103.439
106.919
110.373
113.795
117.175
120.507
123.782
126.992
130.132
133.192
136.166
139.047
141.829
144.504
147.068
149.513
151.834
154.027
156.086
158.007
159.786
161.42
162.905
164.238
165.418
166.442
167.309
168.02
168.572
168.967
169.205
169.288
169.216
168.992
168.619
168.099
167.437
166.635
165.698
164.63
163.436
162.12
160.688
159.145
157.495
155.746
153.902
151.971
149.957
147.868
145.71
143.489
141.211
138.884
136.512
134.103
131.663
129.198
126.713
124.214
121.706
119.196
116.688
114.187
111.697
109.223
106.769
104.34
101.938
99.5666
97.2297
94.9297
92.6694
90.451
88.2767
86.1484
84.0677
82.0361
80.0548
78.1247
76.2467
74.4214
72.6492
70.9304
69.2651
67.6532
66.0945
64.5887
63.1354
61.7339
60.3836
59.0837
57.8334
56.6316
55.4774
54.3696
53.3072
52.2887
51.3131
50.379
49.4855
48.6314
47.8152
47.0353
46.2904
45.5788
44.8991
44.2497
43.6291
43.0356
42.4677
41.9238
41.4022
40.9015
40.4198
39.9558
39.5077
39.0739
38.6528
38.2429
37.8425
37.45
37.064
36.6828
36.3049
35.9288
35.5531
35.1764
34.7971
34.414
34.0259
33.6313
33.2293
32.8186
32.3984
31.9675
31.5253
31.0709
30.6038
30.1234
29.6292
29.1211
28.5987
28.062
27.5107
26.9449
26.3647
25.7703
25.1621
24.5403
23.9056
23.2584
22.5995
21.9297
21.2497
20.5605
19.8633
19.1592
18.4496
17.7362
17.0208
16.3057
15.5935
14.8875
14.1918
13.5113
12.8524
12.2236
11.636
11.1053
10.655
10.323
10.1786
10.3696
11.2978
14.6067
33.2998
153.127
70.5591
55.2141
50.5514
49.3261
49.6853
50.9346
52.7499
54.9563
57.449
60.1604
63.044
66.0658
69.2002
72.4269
75.7292
79.0929
82.5055
85.9559
89.4339
92.9298
96.4346
99.9394
103.436
106.915
110.37
113.791
117.171
120.503
123.778
126.989
130.128
133.188
136.162
139.044
141.825
144.501
147.064
149.509
151.831
154.023
156.083
158.004
159.783
161.416
162.901
164.234
165.414
166.438
167.306
168.016
168.569
168.964
169.202
169.284
169.213
168.989
168.616
168.096
167.434
166.632
165.695
164.627
163.433
162.117
160.685
159.142
157.493
155.743
153.9
151.968
149.955
147.866
145.708
143.487
141.209
138.882
136.51
134.101
131.661
129.196
126.711
124.212
121.705
119.194
116.686
114.185
111.695
109.222
106.768
104.338
101.936
99.5654
97.2285
94.9286
92.6682
90.4499
88.2757
86.1474
84.0667
82.0351
80.0538
78.1238
76.2458
74.4205
72.6484
70.9296
69.2643
67.6524
66.0938
64.588
63.1347
61.7333
60.383
59.0831
57.8328
56.6311
55.4769
54.3691
53.3067
52.2883
51.3126
50.3785
49.4851
48.631
47.8148
47.0349
46.29
45.5785
44.8988
44.2494
43.6288
43.0353
42.4674
41.9235
41.402
40.9012
40.4196
39.9556
39.5075
39.0737
38.6526
38.2427
37.8423
37.4499
37.0639
36.6827
36.3048
35.9288
35.5531
35.1763
34.7971
34.414
34.0258
33.6313
33.2293
32.8186
32.3984
31.9675
31.5253
31.0709
30.6038
30.1234
29.6293
29.1211
28.5988
28.062
27.5107
26.9449
26.3647
25.7704
25.1621
24.5404
23.9056
23.2585
22.5996
21.9297
21.2497
20.5606
19.8633
19.1592
18.4497
17.7362
17.0208
16.3057
15.5935
14.8875
14.1918
13.5113
12.8524
12.2236
11.636
11.1053
10.6549
10.323
10.1786
10.3696
11.2978
14.6068
33.2998
173.021
79.5118
61.657
55.9347
54.1287
54.1261
55.1343
56.7834
58.874
61.287
63.9456
66.7968
69.8021
72.9325
76.1648
79.4801
82.8625
86.298
89.774
93.2793
96.8031
100.335
103.867
107.388
110.89
114.364
117.801
121.194
124.534
127.813
131.023
134.157
137.207
140.166
143.027
145.784
148.43
150.959
153.367
155.646
157.794
159.804
161.674
163.399
164.976
166.403
167.677
168.796
169.76
170.567
171.217
171.71
172.046
172.227
172.253
172.128
171.852
171.429
170.862
170.155
169.31
168.333
167.228
165.999
164.651
163.189
161.618
159.943
158.17
156.306
154.355
152.324
150.219
148.046
145.811
143.521
141.182
138.8
136.381
133.931
131.455
128.96
126.452
123.934
121.413
118.894
116.381
113.879
111.393
108.925
106.481
104.063
101.676
99.3213
97.0029
94.7232
92.4846
90.289
88.1385
86.0347
83.9792
81.973
80.0173
78.1129
76.2605
74.4606
72.7134
71.0191
69.3778
67.7892
66.2532
64.7692
63.3367
61.9552
60.6239
59.342