/*--------------------------------*- C++ -*----------------------------------*\
  =========                 |
  \\      /  F ield         | OpenFOAM: The Open Source CFD Toolbox
   \\    /   O peration     | Website:  https://openfoam.org
    \\  /    A nd           | Version:  8
     \\/     M anipulation  |
\*---------------------------------------------------------------------------*/
FoamFile
{
    version     2.0;
    format      ascii;
    class       volScalarField;
    location    "2400";
    object      k;
}
// * * * * * * * * * * * * * * * * * * * * * * * * * * * * * * * * * * * * * //

dimensions      [0 2 -2 0 0 0 0];

internalField   nonuniform List<scalar> 
46000
(
0.00309559
0.0146215
0.029581
0.0440408
0.0578728
0.071346
0.084502
0.0974268
0.11017
0.122803
0.135327
0.14774
0.160072
0.172332
0.184523
0.196642
0.208688
0.220654
0.232535
0.244323
0.256009
0.267582
0.279032
0.290347
0.301515
0.312524
0.323359
0.334007
0.344454
0.354686
0.364688
0.374445
0.383942
0.393164
0.402098
0.410728
0.419039
0.427019
0.434653
0.441929
0.448834
0.455356
0.461485
0.467211
0.472523
0.477415
0.481878
0.485907
0.489496
0.492642
0.495342
0.497595
0.499401
0.50076
0.501674
0.502148
0.502186
0.501794
0.500979
0.499749
0.498115
0.496092
0.49371
0.490986
0.487906
0.48448
0.480721
0.476644
0.472264
0.467599
0.462664
0.457477
0.452054
0.446413
0.440571
0.434547
0.428357
0.422018
0.415549
0.408966
0.402285
0.395523
0.388696
0.38182
0.374909
0.367978
0.361041
0.354112
0.347203
0.340326
0.333494
0.326716
0.320004
0.313366
0.306812
0.30035
0.293987
0.287731
0.281587
0.275562
0.26966
0.263886
0.258243
0.252735
0.247365
0.242135
0.237045
0.232099
0.227295
0.222635
0.218118
0.213744
0.209511
0.205419
0.201466
0.197649
0.193967
0.190416
0.186996
0.183701
0.180529
0.177477
0.174542
0.171718
0.169003
0.166393
0.163883
0.161469
0.159147
0.156914
0.154762
0.152688
0.15069
0.148762
0.146897
0.145091
0.143338
0.141634
0.139974
0.138351
0.136763
0.135202
0.133664
0.132145
0.130638
0.129139
0.127643
0.126145
0.12464
0.123123
0.121589
0.120034
0.118454
0.116845
0.115201
0.11352
0.111797
0.11003
0.108215
0.106349
0.10443
0.102455
0.100423
0.0983312
0.0961888
0.0940057
0.0917664
0.0894685
0.0871122
0.0846985
0.0822292
0.0797062
0.077132
0.0745095
0.0718419
0.0691327
0.0663859
0.0636056
0.0607963
0.0579625
0.0551089
0.0522404
0.0493616
0.0464772
0.0435916
0.0407087
0.0378317
0.034958
0.0320912
0.0292438
0.0264019
0.0235644
0.0207225
0.0178609
0.0149904
0.0120889
0.00908529
0.00594267
0.00279494
0.000562874
0.0030959
0.0146227
0.0295827
0.0440426
0.0578748
0.0713479
0.0845039
0.0974287
0.110172
0.122805
0.135329
0.147742
0.160074
0.172334
0.184525
0.196644
0.208689
0.220656
0.232537
0.244325
0.25601
0.267584
0.279034
0.290349
0.301517
0.312525
0.323361
0.334009
0.344456
0.354688
0.364689
0.374446
0.383943
0.393166
0.402099
0.410729
0.419041
0.42702
0.434654
0.44193
0.448835
0.455358
0.461486
0.467212
0.472524
0.477416
0.481879
0.485908
0.489497
0.492643
0.495343
0.497596
0.499402
0.50076
0.501675
0.502149
0.502187
0.501795
0.50098
0.49975
0.498116
0.496093
0.493711
0.490987
0.487907
0.48448
0.480721
0.476644
0.472265
0.467599
0.462664
0.457477
0.452054
0.446413
0.440572
0.434547
0.428357
0.422019
0.415549
0.408966
0.402285
0.395523
0.388696
0.38182
0.374909
0.367978
0.361041
0.354112
0.347203
0.340326
0.333494
0.326716
0.320003
0.313366
0.306812
0.300349
0.293987
0.28773
0.281587
0.275561
0.269659
0.263885
0.258243
0.252735
0.247365
0.242134
0.237045
0.232098
0.227295
0.222635
0.218118
0.213743
0.209511
0.205419
0.201465
0.197648
0.193966
0.190416
0.186995
0.1837
0.180529
0.177477
0.174541
0.171718
0.169003
0.166392
0.163882
0.161469
0.159147
0.156913
0.154761
0.152687
0.15069
0.148761
0.146896
0.14509
0.143338
0.141634
0.139973
0.138351
0.136762
0.135201
0.133664
0.132144
0.130637
0.129139
0.127642
0.126144
0.124639
0.123122
0.121589
0.120034
0.118454
0.116844
0.115201
0.113519
0.111797
0.110029
0.108214
0.106348
0.104429
0.102455
0.100422
0.0983309
0.0961884
0.0940054
0.0917661
0.0894682
0.0871118
0.0846982
0.0822289
0.079706
0.0771318
0.0745093
0.0718417
0.0691325
0.0663857
0.0636054
0.0607961
0.0579623
0.0551088
0.0522403
0.0493615
0.0464771
0.0435915
0.0407087
0.0378317
0.034958
0.0320912
0.0292438
0.0264019
0.0235644
0.0207226
0.0178609
0.0149905
0.012089
0.00908538
0.00594275
0.00279499
0.000562885
0.0144951
0.0647417
0.102596
0.133939
0.161884
0.187577
0.211687
0.234645
0.256668
0.27795
0.29862
0.318766
0.338456
0.357739
0.376652
0.39522
0.413463
0.431393
0.44902
0.466347
0.483377
0.500107
0.516536
0.532658
0.548465
0.56395
0.579104
0.593915
0.608374
0.622467
0.636182
0.649505
0.662424
0.674925
0.686994
0.698616
0.709779
0.720468
0.730671
0.740374
0.749565
0.758233
0.766366
0.773955
0.780991
0.787465
0.79337
0.7987
0.803451
0.807619
0.811201
0.814197
0.816608
0.818435
0.819681
0.820351
0.820451
0.819988
0.818971
0.81741
0.815317
0.812705
0.809593
0.805996
0.801924
0.79739
0.792412
0.787007
0.781194
0.774992
0.768422
0.761503
0.754257
0.746704
0.738866
0.730765
0.722423
0.713859
0.705097
0.696157
0.68706
0.677827
0.668479
0.659035
0.649515
0.639938
0.630322
0.620685
0.611045
0.601418
0.591819
0.582265
0.572769
0.563345
0.554006
0.544765
0.535632
0.526619
0.517736
0.508991
0.500393
0.491949
0.483667
0.475553
0.467611
0.459848
0.452266
0.444869
0.437661
0.430642
0.423815
0.41718
0.410738
0.404489
0.398431
0.392564
0.386886
0.381394
0.376086
0.370959
0.36601
0.361234
0.356627
0.352186
0.347904
0.343777
0.3398
0.335967
0.33227
0.328709
0.325276
0.321962
0.318762
0.315667
0.31267
0.309763
0.306938
0.304188
0.301505
0.29888
0.296307
0.293775
0.291278
0.288806
0.286352
0.283907
0.281462
0.279009
0.276541
0.274047
0.271521
0.268954
0.266339
0.263666
0.260929
0.25812
0.255231
0.252257
0.249191
0.246025
0.242755
0.239374
0.235878
0.232262
0.22852
0.224659
0.220671
0.216553
0.212302
0.207917
0.203398
0.198746
0.19396
0.189042
0.183996
0.178823
0.173526
0.168108
0.162574
0.156927
0.151171
0.145309
0.139346
0.133283
0.127123
0.120865
0.114509
0.108049
0.101478
0.0947801
0.0879228
0.080893
0.0736456
0.0660989
0.058126
0.0496064
0.0402958
0.029736
0.0170315
0.00270937
0.0144962
0.0647439
0.102597
0.13394
0.161885
0.187577
0.211687
0.234646
0.256668
0.27795
0.298619
0.318765
0.338456
0.357739
0.376651
0.395219
0.413462
0.431392
0.449019
0.466346
0.483375
0.500106
0.516534
0.532656
0.548463
0.563948
0.579102
0.593913
0.608371
0.622464
0.636179
0.649503
0.662422
0.674922
0.686991
0.698613
0.709776
0.720465
0.730667
0.74037
0.749561
0.758229
0.766363
0.773952
0.780987
0.787461
0.793366
0.798696
0.803447
0.807614
0.811197
0.814193
0.816604
0.81843
0.819676
0.820346
0.820446
0.819984
0.818967
0.817406
0.815312
0.812701
0.809588
0.805991
0.801919
0.797386
0.792408
0.787003
0.78119
0.774988
0.768417
0.761499
0.754252
0.7467
0.738862
0.730761
0.722418
0.713855
0.705093
0.696153
0.687056
0.677823
0.668475
0.659031
0.649511
0.639934
0.630318
0.620681
0.611041
0.601414
0.591815
0.582261
0.572765
0.563341
0.554002
0.544761
0.535629
0.526616
0.517732
0.508987
0.500389
0.491946
0.483664
0.475549
0.467608
0.459844
0.452263
0.444866
0.437657
0.430639
0.423812
0.417177
0.410735
0.404486
0.398428
0.392561
0.386883
0.381391
0.376084
0.370957
0.366007
0.361231
0.356625
0.352183
0.347901
0.343775
0.339798
0.335964
0.332268
0.328706
0.325273
0.32196
0.31876
0.315665
0.312668
0.309761
0.306936
0.304186
0.301503
0.298879
0.296305
0.293773
0.291276
0.288804
0.28635
0.283905
0.28146
0.279008
0.276539
0.274046
0.27152
0.268953
0.266337
0.263664
0.260927
0.258118
0.25523
0.252256
0.249189
0.246024
0.242754
0.239373
0.235877
0.232261
0.228519
0.224658
0.220671
0.216552
0.212301
0.207917
0.203398
0.198745
0.193959
0.189042
0.183995
0.178822
0.173525
0.168108
0.162574
0.156927
0.151171
0.145309
0.139346
0.133283
0.127122
0.120865
0.114508
0.108049
0.101478
0.0947799
0.0879226
0.0808928
0.0736455
0.0660988
0.0581259
0.0496063
0.0402957
0.0297359
0.0170314
0.00270935
0.0296499
0.103402
0.151306
0.189618
0.223584
0.254869
0.284261
0.312237
0.339092
0.365031
0.3902
0.414706
0.438627
0.462025
0.484942
0.507412
0.52946
0.551101
0.572349
0.59321
0.613687
0.633781
0.653488
0.672803
0.69172
0.710231
0.728324
0.745989
0.763213
0.779984
0.796288
0.812109
0.827434
0.842247
0.856532
0.870276
0.883463
0.896077
0.908105
0.919533
0.930347
0.940535
0.950084
0.958986
0.967228
0.974803
0.981704
0.987924
0.993459
0.998305
1.00246
1.00592
1.0087
1.01078
1.01218
1.01291
1.01296
1.01235
1.01109
1.00919
1.00666
1.00353
0.999793
0.995485
0.990616
0.985202
0.979263
0.972819
0.965893
0.958505
0.95068
0.94244
0.93381
0.924814
0.915476
0.905823
0.895878
0.885667
0.875215
0.864546
0.853684
0.842655
0.831482
0.820189
0.808798
0.797331
0.785811
0.77426
0.762696
0.75114
0.739611
0.728128
0.716707
0.705365
0.694118
0.68298
0.671966
0.661089
0.650361
0.639793
0.629395
0.619178
0.609149
0.599317
0.589689
0.58027
0.571067
0.562083
0.553322
0.544788
0.536482
0.528407
0.520562
0.512948
0.505565
0.498411
0.491484
0.484783
0.478304
0.472044
0.466
0.460166
0.454538
0.449111
0.443879
0.438835
0.433974
0.429288
0.424776
0.420427
0.416234
0.412189
0.408281
0.404504
0.400846
0.3973
0.393855
0.390503
0.387234
0.384037
0.380903
0.377822
0.374783
0.371777
0.368793
0.36582
0.362849
0.359868
0.356868
0.353838
0.350768
0.347648
0.344467
0.341217
0.337887
0.334467
0.33095
0.327326
0.323587
0.319725
0.315732
0.311602
0.307328
0.302905
0.298327
0.293592
0.288696
0.283635
0.278406
0.273005
0.267433
0.261688
0.255771
0.249683
0.243425
0.237
0.230409
0.223657
0.216746
0.20968
0.202461
0.195095
0.187582
0.179925
0.172125
0.164181
0.156089
0.147844
0.139434
0.130842
0.122041
0.112996
0.103648
0.0939188
0.083692
0.0727594
0.060831
0.047209
0.0299136
0.00581268
0.0296514
0.103403
0.151307
0.189618
0.223584
0.254868
0.28426
0.312236
0.33909
0.365029
0.390198
0.414703
0.438625
0.462022
0.484939
0.507409
0.529457
0.551098
0.572346
0.593207
0.613684
0.633777
0.653484
0.672799
0.691716
0.710226
0.728319
0.745984
0.763209
0.779979
0.796283
0.812104
0.827428
0.842241
0.856527
0.870271
0.883457
0.896071
0.908099
0.919527
0.930341
0.940529
0.950078
0.958979
0.967222
0.974797
0.981698
0.987918
0.993453
0.998298
1.00245
1.00592
1.00869
1.01077
1.01218
1.0129
1.01295
1.01234
1.01108
1.00918
1.00666
1.00352
0.999787
0.995478
0.990609
0.985195
0.979256
0.972813
0.965886
0.958498
0.950673
0.942433
0.933803
0.924807
0.91547
0.905817
0.895872
0.885661
0.875208
0.864539
0.853678
0.842649
0.831476
0.820183
0.808791
0.797325
0.785806
0.774254
0.76269
0.751134
0.739606
0.728122
0.716701
0.705359
0.694112
0.682975
0.671961
0.661084
0.650356
0.639788
0.62939
0.619173
0.609144
0.599313
0.589684
0.580266
0.571062
0.562079
0.553318
0.544784
0.536478
0.528403
0.520558
0.512944
0.505561
0.498407
0.49148
0.484779
0.478301
0.472041
0.465996
0.460163
0.454535
0.449108
0.443875
0.438832
0.433971
0.429286
0.424773
0.420424
0.416232
0.412186
0.408279
0.404501
0.400844
0.397298
0.393853
0.390501
0.387232
0.384035
0.380901
0.37782
0.374782
0.371775
0.368791
0.365819
0.362847
0.359867
0.356867
0.353837
0.350767
0.347647
0.344466
0.341215
0.337885
0.334466
0.330949
0.327325
0.323586
0.319724
0.315731
0.311601
0.307327
0.302904
0.298326
0.293591
0.288696
0.283635
0.278405
0.273005
0.267432
0.261688
0.255771
0.249682
0.243425
0.236999
0.230409
0.223656
0.216745
0.209679
0.202461
0.195094
0.187581
0.179925
0.172125
0.16418
0.156089
0.147844
0.139434
0.130842
0.122041
0.112996
0.103648
0.0939187
0.0836919
0.0727594
0.0608309
0.0472089
0.0299135
0.00581266
0.044691
0.136149
0.191269
0.23422
0.271992
0.306799
0.339592
0.370884
0.400987
0.430114
0.458412
0.48599
0.512928
0.539288
0.565114
0.59044
0.615291
0.639684
0.66363
0.687135
0.710203
0.732832
0.755019
0.776757
0.798037
0.818851
0.839185
0.859028
0.878365
0.897182
0.915463
0.933191
0.950352
0.966927
0.982901
0.998257
1.01298
1.02705
1.04045
1.05318
1.06521
1.07653
1.08713
1.097
1.10612
1.1145
1.12212
1.12897
1.13506
1.14037
1.14491
1.14867
1.15167
1.15389
1.15535
1.15606
1.15601
1.15523
1.15372
1.1515
1.14858
1.14498
1.14072
1.13581
1.13028
1.12414
1.11741
1.11012
1.10229
1.09395
1.08512
1.07582
1.06609
1.05595
1.04542
1.03454
1.02333
1.01183
1.00005
0.988022
0.975781
0.963349
0.950754
0.938021
0.925176
0.912243
0.899248
0.886214
0.873164
0.860119
0.847102
0.834133
0.821231
0.808415
0.795702
0.78311
0.770655
0.758351
0.746211
0.73425
0.722478
0.710908
0.699548
0.688408
0.677496
0.666818
0.656382
0.646193
0.636254
0.62657
0.617143
0.607976
0.599069
0.590422
0.582036
0.573909
0.566039
0.558424
0.551061
0.543946
0.537075
0.530443
0.524045
0.517875
0.511926
0.506192
0.500665
0.495343
0.490216
0.485275
0.480511
0.475914
0.471476
0.467185
0.463032
0.459006
0.455097
0.451294
0.447585
0.44396
0.440407
0.436916
0.433474
0.430069
0.42669
0.423326
0.419964
0.416593
0.4132
0.409774
0.406304
0.402778
0.399185
0.395513
0.391752
0.38789
0.383919
0.379827
0.375606
0.371247
0.36674
0.362079
0.357256
0.352265
0.3471
0.341756
0.33623
0.330517
0.324612
0.318514
0.31222
0.30573
0.299042
0.292158
0.285079
0.277807
0.270343
0.26269
0.254851
0.246829
0.238627
0.230247
0.221692
0.212963
0.20406
0.194982
0.185725
0.176284
0.166646
0.156796
0.146709
0.136349
0.125661
0.114565
0.102931
0.0905376
0.0770079
0.0614335
0.0409638
0.00905204
0.0446927
0.13615
0.191269
0.23422
0.271991
0.306797
0.33959
0.370882
0.400985
0.430111
0.458409
0.485987
0.512925
0.539285
0.565111
0.590437
0.615287
0.63968
0.663626
0.687131
0.710199
0.732828
0.755015
0.776752
0.798033
0.818846
0.83918
0.859023
0.87836
0.897177
0.915457
0.933186
0.950346
0.966921
0.982895
0.998251
1.01297
1.02704
1.04045
1.05317
1.0652
1.07652
1.08712
1.09699
1.10612
1.11449
1.12211
1.12897
1.13505
1.14036
1.1449
1.14867
1.15166
1.15388
1.15535
1.15605
1.15601
1.15523
1.15372
1.1515
1.14858
1.14498
1.14071
1.13581
1.13027
1.12413
1.1174
1.11011
1.10229
1.09394
1.08511
1.07581
1.06608
1.05594
1.04541
1.03453
1.02333
1.01182
1.00004
0.988016
0.975775
0.963343
0.950748
0.938015
0.92517
0.912238
0.899243
0.886208
0.873158
0.860114
0.847097
0.834127
0.821225
0.808409
0.795697
0.783105
0.77065
0.758346
0.746207
0.734245
0.722474
0.710903
0.699543
0.688403
0.677491
0.666814
0.656378
0.646189
0.63625
0.626566
0.61714
0.607972
0.599065
0.590418
0.582032
0.573905
0.566035
0.558421
0.551058
0.543943
0.537072
0.53044
0.524042
0.517872
0.511923
0.506189
0.500663
0.49534
0.490213
0.485272
0.480508
0.475912
0.471474
0.467183
0.46303
0.459004
0.455095
0.451292
0.447583
0.443958
0.440406
0.436914
0.433472
0.430067
0.426689
0.423324
0.419962
0.416591
0.413199
0.409773
0.406303
0.402777
0.399184
0.395512
0.39175
0.387889
0.383918
0.379826
0.375605
0.371246
0.366739
0.362078
0.357255
0.352264
0.347099
0.341756
0.33623
0.330516
0.324612
0.318513
0.312219
0.305729
0.299042
0.292158
0.285079
0.277806
0.270342
0.26269
0.254851
0.246829
0.238627
0.230247
0.221692
0.212962
0.20406
0.194982
0.185725
0.176284
0.166646
0.156796
0.146709
0.136349
0.125661
0.114565
0.102931
0.0905376
0.0770079
0.0614335
0.0409638
0.00905202
0.0594769
0.165928
0.227428
0.274351
0.315251
0.352851
0.388296
0.42217
0.454817
0.486457
0.517242
0.547281
0.576652
0.605415
0.633613
0.661279
0.688434
0.715095
0.741271
0.766966
0.792183
0.816917
0.841163
0.864913
0.888156
0.910881
0.933075
0.954722
0.975806
0.996312
1.01622
1.03552
1.05418
1.0722
1.08954
1.10621
1.12217
1.13741
1.15191
1.16567
1.17865
1.19086
1.20228
1.21289
1.22269
1.23167
1.23982
1.24714
1.25361
1.25925
1.26404
1.26799
1.2711
1.27338
1.27483
1.27546
1.27528
1.27429
1.27252
1.26998
1.26669
1.26266
1.25791
1.25246
1.24633
1.23955
1.23214
1.22411
1.2155
1.20634
1.19665
1.18645
1.17578
1.16467
1.15314
1.14123
1.12896
1.11637
1.10348
1.09032
1.07693
1.06333
1.04955
1.03562
1.02157
1.00741
0.993194
0.978929
0.964645
0.950365
0.936113
0.921911
0.90778
0.893741
0.879814
0.866015
0.852363
0.838874
0.825563
0.812444
0.799531
0.786835
0.774368
0.762139
0.750158
0.738431
0.726968
0.715772
0.704849
0.694204
0.68384
0.673758
0.66396
0.654446
0.645217
0.636272
0.627607
0.619222
0.611112
0.603274
0.595704
0.588395
0.581342
0.574539
0.56798
0.561656
0.555564
0.549695
0.54404
0.538589
0.533333
0.528261
0.523363
0.518627
0.514043
0.509599
0.505285
0.501086
0.496993
0.492993
0.489072
0.48522
0.481422
0.477667
0.473941
0.470232
0.466527
0.462812
0.459075
0.455304
0.451485
0.447606
0.443655
0.43962
0.435489
0.43125
0.426893
0.422406
0.41778
0.413005
0.408072
0.402973
0.3977
0.392246
0.386604
0.380771
0.374741
0.368508
0.36207
0.355422
0.348564
0.341492
0.334207
0.326709
0.318998
0.311075
0.302941
0.2946
0.286052
0.2773
0.268346
0.259192
0.249839
0.240289
0.23054
0.220592
0.21044
0.200079
0.189499
0.178684
0.167613
0.156249
0.144543
0.13241
0.119714
0.106212
0.0914197
0.0742083
0.0510025
0.0123154
0.0594789
0.165928
0.227427
0.27435
0.315249
0.352849
0.388294
0.422168
0.454814
0.486454
0.51724
0.547278
0.576649
0.605412
0.63361
0.661275
0.68843
0.715091
0.741267
0.766962
0.792179
0.816913
0.841158
0.864908
0.888152
0.910877
0.93307
0.954717
0.975801
0.996307
1.01622
1.03551
1.05418
1.07219
1.08954
1.1062
1.12216
1.1374
1.15191
1.16566
1.17865
1.19086
1.20227
1.21289
1.22269
1.23167
1.23982
1.24713
1.25361
1.25924
1.26403
1.26798
1.2711
1.27337
1.27482
1.27545
1.27527
1.27429
1.27252
1.26998
1.26668
1.26265
1.2579
1.25245
1.24633
1.23954
1.23213
1.22411
1.2155
1.20633
1.19664
1.18645
1.17578
1.16467
1.15314
1.14123
1.12896
1.11636
1.10347
1.09032
1.07693
1.06332
1.04954
1.03561
1.02156
1.00741
0.993189
0.978924
0.96464
0.95036
0.936108
0.921906
0.907776
0.893737
0.879809
0.86601
0.852359
0.83887
0.825559
0.81244
0.799527
0.786831
0.774364
0.762135
0.750154
0.738428
0.726964
0.715768
0.704846
0.694201
0.683836
0.673754
0.663957
0.654443
0.645214
0.636269
0.627605
0.619219
0.61111
0.603272
0.595701
0.588392
0.58134
0.574537
0.567977
0.561653
0.555561
0.549693
0.544038
0.538587
0.533331
0.528259
0.523361
0.518625
0.514041
0.509598
0.505283
0.501085
0.496992
0.492991
0.489071
0.485218
0.481421
0.477666
0.47394
0.470231
0.466525
0.462811
0.459074
0.455303
0.451484
0.447605
0.443655
0.439619
0.435488
0.431249
0.426892
0.422405
0.41778
0.413005
0.408072
0.402973
0.397699
0.392245
0.386604
0.380771
0.37474
0.368508
0.362069
0.355422
0.348563
0.341492
0.334207
0.326709
0.318997
0.311074
0.302941
0.2946
0.286052
0.2773
0.268346
0.259192
0.249839
0.240288
0.23054
0.220591
0.21044
0.200079
0.189499
0.178684
0.167612
0.156249
0.144543
0.13241
0.119714
0.106213
0.0914198
0.0742084
0.0510025
0.0123154
0.0742209
0.19387
0.261441
0.312174
0.356005
0.396139
0.433931
0.470061
0.504915
0.538734
0.571678
0.603856
0.635348
0.666212
0.696488
0.726207
0.755389
0.784046
0.812187
0.839813
0.866923
0.893511
0.91957
0.94509
0.970058
0.994459
1.01828
1.0415
1.0641
1.08608
1.10739
1.12804
1.14799
1.16724
1.18575
1.20351
1.22051
1.23673
1.25215
1.26674
1.28051
1.29344
1.3055
1.3167
1.32703
1.33646
1.34501
1.35265
1.3594
1.36525
1.37019
1.37423
1.37738
1.37964
1.38101
1.38151
1.38115
1.37993
1.37788
1.37501
1.37134
1.36689
1.36167
1.35571
1.34903
1.34166
1.33361
1.32492
1.31561
1.30571
1.29525
1.28425
1.27276
1.26079
1.24838
1.23556
1.22236
1.20882
1.19496
1.18082
1.16642
1.15181
1.137
1.12203
1.10692
1.09172
1.07643
1.0611
1.04575
1.0304
1.01508
0.999804
0.984607
0.969506
0.954522
0.939675
0.924982
0.910461
0.896129
0.882001
0.868091
0.854411
0.840975
0.827792
0.814872
0.802224
0.789856
0.777773
0.765982
0.754487
0.743291
0.732397
0.721807
0.711522
0.70154
0.691862
0.682485
0.673407
0.664624
0.656133
0.647928
0.640004
0.632355
0.624975
0.617855
0.610992
0.604378
0.598003
0.591858
0.585933
0.580217
0.574699
0.569368
0.564212
0.55922
0.554379
0.549677
0.545101
0.540639
0.536277
0.532002
0.5278
0.523658
0.519563
0.5155
0.511457
0.507418
0.503371
0.499302
0.495197
0.491042
0.486826
0.482533
0.478153
0.473672
0.469079
0.464361
0.459508
0.45451
0.449355
0.444036
0.438543
0.432868
0.427004
0.420944
0.414684
0.408218
0.401541
0.394648
0.387537
0.380205
0.37265
0.36487
0.356866
0.348637
0.340183
0.331505
0.322605
0.313482
0.304139
0.294575
0.284793
0.274793
0.264573
0.254134
0.243473
0.232587
0.22147
0.210112
0.1985
0.186612
0.174414
0.161855
0.148845
0.135237
0.120754
0.104831
0.0861185
0.0604039
0.015601
0.0742229
0.193871
0.26144
0.312172
0.356002
0.396137
0.433929
0.470058
0.504913
0.538732
0.571675
0.603853
0.635345
0.666209
0.696485
0.726204
0.755385
0.784042
0.812183
0.839809
0.866919
0.893507
0.919566
0.945086
0.970053
0.994454
1.01827
1.04149
1.0641
1.08607
1.10739
1.12803
1.14799
1.16723
1.18574
1.20351
1.22051
1.23672
1.25214
1.26674
1.28051
1.29343
1.3055
1.3167
1.32702
1.33646
1.345
1.35265
1.3594
1.36524
1.37018
1.37423
1.37738
1.37963
1.38101
1.38151
1.38114
1.37993
1.37788
1.37501
1.37134
1.36688
1.36166
1.3557
1.34903
1.34165
1.33361
1.32492
1.31561
1.30571
1.29524
1.28425
1.27275
1.26078
1.24837
1.23556
1.22236
1.20882
1.19496
1.18081
1.16642
1.1518
1.13699
1.12202
1.10692
1.09171
1.07643
1.0611
1.04574
1.03039
1.01507
0.9998
0.984603
0.969502
0.954519
0.939671
0.924978
0.910458
0.896126
0.881998
0.868087
0.854408
0.840971
0.827788
0.814869
0.802221
0.789852
0.77777
0.765979
0.754484
0.743288
0.732395
0.721805
0.711519
0.701538
0.691859
0.682483
0.673405
0.664622
0.656131
0.647926
0.640002
0.632353
0.624973
0.617853
0.61099
0.604376
0.598002
0.591857
0.585931
0.580215
0.574697
0.569366
0.564211
0.559218
0.554378
0.549676
0.5451
0.540638
0.536275
0.532
0.527799
0.523657
0.519562
0.515499
0.511456
0.507417
0.50337
0.499301
0.495196
0.491042
0.486825
0.482533
0.478152
0.473671
0.469078
0.464361
0.459508
0.454509
0.449355
0.444035
0.438542
0.432867
0.427003
0.420944
0.414684
0.408218
0.40154
0.394648
0.387537
0.380205
0.372649
0.36487
0.356866
0.348636
0.340183
0.331505
0.322604
0.313482
0.304138
0.294575
0.284793
0.274792
0.264573
0.254134
0.243473
0.232587
0.22147
0.210112
0.1985
0.186612
0.174414
0.161855
0.148845
0.135237
0.120754
0.104831
0.0861187
0.060404
0.015601
0.0889631
0.220712
0.294159
0.348699
0.395444
0.438056
0.478098
0.516356
0.55327
0.589109
0.624046
0.658196
0.691642
0.72444
0.75663
0.788241
0.819288
0.849784
0.879733
0.909135
0.937985
0.966276
0.993996
1.02113
1.04768
1.0736
1.0989
1.12354
1.14752
1.17081
1.19338
1.21523
1.23633
1.25665
1.27618
1.29491
1.3128
1.32985
1.34604
1.36135
1.37576
1.38927
1.40186
1.41353
1.42425
1.43403
1.44286
1.45074
1.45766
1.46362
1.46863
1.47269
1.4758
1.47797
1.47922
1.47954
1.47895
1.47747
1.47511
1.47189
1.46783
1.46295
1.45727
1.45081
1.4436
1.43566
1.42702
1.4177
1.40774
1.39716
1.38599
1.37426
1.362
1.34925
1.33604
1.32241
1.30837
1.29397
1.27924
1.26421
1.24892
1.23339
1.21767
1.20176
1.18572
1.16957
1.15334
1.13706
1.12075
1.10444
1.08816
1.07193
1.05578
1.03973
1.0238
1.00801
0.992386
0.976938
0.961687
0.946648
0.931838
0.91727
0.902955
0.888907
0.875134
0.861647
0.848453
0.83556
0.822973
0.810698
0.798737
0.787095
0.775772
0.76477
0.754089
0.743728
0.733685
0.723957
0.714541
0.705433
0.696628
0.68812
0.679902
0.671968
0.664314
0.656931
0.649812
0.642945
0.636322
0.629932
0.623763
0.617805
0.612045
0.606471
0.601071
0.595831
0.590739
0.585782
0.580945
0.576215
0.571578
0.56702
0.562526
0.558082
0.553674
0.549287
0.544906
0.540518
0.536109
0.531663
0.527167
0.522607
0.51797
0.513243
0.508413
0.503467
0.498394
0.493182
0.487821
0.4823
0.476611
0.470743
0.46469
0.458444
0.451999
0.445348
0.438487
0.43141
0.424113
0.416593
0.408847
0.400872
0.392666
0.38423
0.37556
0.366657
0.357521
0.348151
0.338546
0.328708
0.318634
0.308325
0.297779
0.286996
0.275973
0.264707
0.253194
0.241428
0.2294
0.217097
0.204496
0.191564
0.178244
0.164443
0.149993
0.134581
0.117565
0.0973935
0.0693116
0.0189379
0.0889652
0.220713
0.294158
0.348697
0.395442
0.438053
0.478095
0.516353
0.553267
0.589106
0.624043
0.658193
0.691639
0.724437
0.756627
0.788237
0.819285
0.849781
0.87973
0.909131
0.937981
0.966272
0.993992
1.02113
1.04767
1.0736
1.09889
1.12354
1.14752
1.1708
1.19338
1.21522
1.23632
1.25665
1.27618
1.2949
1.3128
1.32985
1.34604
1.36134
1.37576
1.38927
1.40186
1.41352
1.42425
1.43403
1.44286
1.45073
1.45765
1.46362
1.46863
1.47269
1.4758
1.47797
1.47921
1.47953
1.47895
1.47746
1.47511
1.47189
1.46783
1.46295
1.45727
1.45081
1.4436
1.43566
1.42702
1.4177
1.40773
1.39715
1.38598
1.37425
1.362
1.34925
1.33604
1.3224
1.30837
1.29397
1.27924
1.26421
1.24892
1.23339
1.21766
1.20176
1.18572
1.16957
1.15334
1.13705
1.12074
1.10444
1.08816
1.07193
1.05578
1.03973
1.0238
1.00801
0.992382
0.976934
0.961683
0.946645
0.931835
0.917267
0.902952
0.888904
0.875131
0.861644
0.848451
0.835557
0.822971
0.810695
0.798735
0.787092
0.77577
0.764768
0.754087
0.743726
0.733683
0.723955
0.714539
0.705431
0.696626
0.688118
0.6799
0.671967
0.664312
0.656929
0.64981
0.642944
0.636321
0.629931
0.623762
0.617804
0.612044
0.60647
0.60107
0.59583
0.590738
0.585781
0.580944
0.576214
0.571577
0.567019
0.562525
0.558081
0.553673
0.549286
0.544905
0.540518
0.536108
0.531662
0.527166
0.522607
0.51797
0.513242
0.508412
0.503466
0.498393
0.493182
0.48782
0.4823
0.47661
0.470743
0.46469
0.458444
0.451998
0.445348
0.438486
0.43141
0.424113
0.416593
0.408846
0.400872
0.392666
0.384229
0.37556
0.366657
0.357521
0.348151
0.338546
0.328708
0.318634
0.308325
0.297779
0.286996
0.275973
0.264707
0.253194
0.241428
0.2294
0.217097
0.204496
0.191564
0.178244
0.164443
0.149993
0.134582
0.117565
0.0973937
0.0693118
0.0189379
0.103851
0.246965
0.326162
0.384546
0.434261
0.479384
0.521682
0.562047
0.60098
0.638782
0.675644
0.711692
0.747012
0.781661
0.815681
0.849096
0.881922
0.914169
0.945837
0.976924
1.00742
1.03732
1.06661
1.09528
1.12329
1.15065
1.17732
1.20329
1.22854
1.25304
1.27677
1.29972
1.32185
1.34315
1.3636
1.38317
1.40186
1.41963
1.43649
1.4524
1.46736
1.48135
1.49436
1.50639
1.51742
1.52745
1.53648
1.5445
1.55151
1.55751
1.56252
1.56652
1.56953
1.57156
1.57262
1.57271
1.57186
1.57008
1.56738
1.56379
1.55932
1.554
1.54786
1.5409
1.53316
1.52467
1.51545
1.50553
1.49494
1.48371
1.47186
1.45945
1.44648
1.43301
1.41905
1.40465
1.38984
1.37466
1.35912
1.34328
1.32717
1.31081
1.29423
1.27748
1.26059
1.24357
1.22647
1.20932
1.19214
1.17496
1.1578
1.1407
1.12368
1.10675
1.08995
1.0733
1.05681
1.04051
1.02441
1.00853
0.992891
0.977498
0.962368
0.947514
0.932947
0.918675
0.904708
0.891054
0.877718
0.864706
0.852022
0.839669
0.827649
0.815964
0.804613
0.793596
0.78291
0.772555
0.762525
0.752816
0.743424
0.734343
0.725566
0.717087
0.708902
0.701002
0.693376
0.686017
0.678912
0.672051
0.665422
0.659014
0.652815
0.64681
0.640989
0.635336
0.629838
0.624482
0.619254
0.614137
0.609119
0.604185
0.599318
0.594506
0.589731
0.584981
0.580239
0.575491
0.570721
0.565916
0.561062
0.556143
0.551147
0.546059
0.540868
0.53556
0.530124
0.524548
0.518822
0.512935
0.506879
0.500644
0.494222
0.487607
0.480792
0.473771
0.46654
0.459092
0.451424
0.443531
0.435411
0.427062
0.418479
0.409662
0.400608
0.391316
0.381784
0.37201
0.361993
0.35173
0.341218
0.330457
0.319443
0.308173
0.296643
0.284849
0.272787
0.260449
0.247826
0.234903
0.221657
0.208053
0.194029
0.17948
0.164222
0.147904
0.129807
0.108211
0.0778331
0.0222913
0.103853
0.246965
0.326161
0.384544
0.434258
0.479381
0.521679
0.562044
0.600977
0.638779
0.675641
0.711689
0.747008
0.781658
0.815677
0.849092
0.881919
0.914165
0.945834
0.976921
1.00742
1.03732
1.06661
1.09527
1.12329
1.15065
1.17732
1.20329
1.22854
1.25304
1.27677
1.29971
1.32184
1.34314
1.36359
1.38317
1.40185
1.41963
1.43648
1.45239
1.46735
1.48134
1.49435
1.50638
1.51741
1.52744
1.53647
1.54449
1.5515
1.55751
1.56251
1.56651
1.56953
1.57156
1.57261
1.57271
1.57186
1.57007
1.56738
1.56378
1.55932
1.554
1.54785
1.5409
1.53316
1.52467
1.51545
1.50553
1.49493
1.4837
1.47186
1.45944
1.44648
1.433
1.41905
1.40465
1.38984
1.37465
1.35912
1.34328
1.32716
1.3108
1.29423
1.27748
1.26058
1.24357
1.22647
1.20932
1.19213
1.17495
1.1578
1.1407
1.12367
1.10675
1.08995
1.0733
1.05681
1.04051
1.02441
1.00853
0.992888
0.977495
0.962366
0.947512
0.932944
0.918673
0.904706
0.891051
0.877716
0.864703
0.852019
0.839667
0.827647
0.815962
0.804611
0.793594
0.782909
0.772553
0.762523
0.752814
0.743423
0.734341
0.725564
0.717086
0.708901
0.701
0.693375
0.686015
0.67891
0.67205
0.665421
0.659013
0.652813
0.646809
0.640988
0.635335
0.629837
0.624481
0.619253
0.614136
0.609118
0.604184
0.599317
0.594505
0.589731
0.58498
0.580238
0.57549
0.570721
0.565916
0.561061
0.556143
0.551146
0.546059
0.540867
0.53556
0.530124
0.524548
0.518822
0.512935
0.506878
0.500643
0.494222
0.487607
0.480792
0.473771
0.466539
0.459092
0.451423
0.443531
0.435411
0.427061
0.418479
0.409662
0.400608
0.391316
0.381784
0.37201
0.361993
0.351729
0.341218
0.330457
0.319443
0.308173
0.296643
0.284849
0.272787
0.260449
0.247826
0.234903
0.221657
0.208053
0.194029
0.179481
0.164222
0.147904
0.129807
0.108211
0.0778333
0.0222913
0.118999
0.272929
0.357857
0.420155
0.472928
0.520643
0.565257
0.60777
0.648744
0.688515
0.727297
0.765228
0.802399
0.838873
0.87469
0.909874
0.944441
0.978397
1.01174
1.04447
1.07657
1.10803
1.13883
1.16896
1.1984
1.22712
1.25511
1.28234
1.30879
1.33444
1.35925
1.38322
1.40631
1.42851
1.44979
1.47014
1.48953
1.50795
1.52539
1.54182
1.55724
1.57163
1.58498
1.59729
1.60855
1.61875
1.6279
1.63599
1.64302
1.649
1.65393
1.65782
1.66067
1.66251
1.66333
1.66315
1.66199
1.65987
1.6568
1.65281
1.64792
1.64214
1.63551
1.62805
1.61979
1.61074
1.60095
1.59044
1.57923
1.56737
1.55488
1.5418
1.52816
1.51399
1.49933
1.48421
1.46867
1.45274
1.43646
1.41985
1.40296
1.38582
1.36847
1.35092
1.33323
1.31541
1.29751
1.27954
1.26154
1.24355
1.22558
1.20766
1.18982
1.17208
1.15447
1.13701
1.11971
1.10261
1.08571
1.06904
1.05261
1.03644
1.02054
1.00492
0.989593
0.974573
0.959866
0.945481
0.931425
0.917702
0.904318
0.891276
0.878578
0.866226
0.85422
0.842558
0.83124
0.820263
0.809624
0.799318
0.78934
0.779684
0.770343
0.761315
0.752592
0.744164
0.736022
0.728155
0.720554
0.713206
0.7061
0.699223
0.692564
0.686108
0.679842
0.673752
0.667825
0.662045
0.656398
0.650869
0.645443
0.640104
0.634838
0.629629
0.624461
0.61932
0.614189
0.609053
0.603898
0.598709
0.593471
0.58817
0.582793
0.577324
0.571753
0.566066
0.560252
0.554299