/*--------------------------------*- C++ -*----------------------------------*\
  =========                 |
  \\      /  F ield         | OpenFOAM: The Open Source CFD Toolbox
   \\    /   O peration     | Website:  https://openfoam.org
    \\  /    A nd           | Version:  8
     \\/     M anipulation  |
\*---------------------------------------------------------------------------*/
FoamFile
{
    version     2.0;
    format      ascii;
    class       volScalarField;
    location    "2400";
    object      nut;
}
// * * * * * * * * * * * * * * * * * * * * * * * * * * * * * * * * * * * * * //

dimensions      [0 2 -1 0 0 0 0];

internalField   nonuniform List<scalar> 
46000
(
2.21422e-07
1.10034e-06
2.22588e-06
3.31374e-06
4.35433e-06
5.36791e-06
6.35764e-06
7.32998e-06
8.28869e-06
9.23904e-06
1.01812e-05
1.11151e-05
1.20428e-05
1.29652e-05
1.38823e-05
1.4794e-05
1.57002e-05
1.66005e-05
1.74944e-05
1.83812e-05
1.92603e-05
2.0131e-05
2.09925e-05
2.18437e-05
2.2684e-05
2.35122e-05
2.43273e-05
2.51285e-05
2.59144e-05
2.66842e-05
2.74367e-05
2.81707e-05
2.88852e-05
2.95791e-05
3.02511e-05
3.09004e-05
3.15257e-05
3.2126e-05
3.27004e-05
3.32477e-05
3.37672e-05
3.42579e-05
3.4719e-05
3.51497e-05
3.55494e-05
3.59174e-05
3.62532e-05
3.65563e-05
3.68264e-05
3.70631e-05
3.72663e-05
3.74358e-05
3.75716e-05
3.76739e-05
3.77428e-05
3.77785e-05
3.77814e-05
3.77519e-05
3.76907e-05
3.75982e-05
3.74753e-05
3.73232e-05
3.71441e-05
3.69392e-05
3.67076e-05
3.64499e-05
3.61672e-05
3.58605e-05
3.55312e-05
3.51802e-05
3.48091e-05
3.44189e-05
3.4011e-05
3.35867e-05
3.31473e-05
3.26942e-05
3.22285e-05
3.17518e-05
3.12651e-05
3.07699e-05
3.02674e-05
2.97587e-05
2.92451e-05
2.87279e-05
2.8208e-05
2.76866e-05
2.71647e-05
2.66434e-05
2.61237e-05
2.56063e-05
2.50923e-05
2.45824e-05
2.40773e-05
2.35779e-05
2.30848e-05
2.25986e-05
2.21198e-05
2.16491e-05
2.11868e-05
2.07335e-05
2.02894e-05
1.98549e-05
1.94303e-05
1.90158e-05
1.86117e-05
1.8218e-05
1.7835e-05
1.74628e-05
1.71012e-05
1.67505e-05
1.64105e-05
1.60813e-05
1.57627e-05
1.54547e-05
1.51571e-05
1.48698e-05
1.45926e-05
1.43253e-05
1.40677e-05
1.38197e-05
1.35809e-05
1.33511e-05
1.313e-05
1.29174e-05
1.2713e-05
1.25164e-05
1.23273e-05
1.21455e-05
1.19706e-05
1.18024e-05
1.16403e-05
1.1484e-05
1.13336e-05
1.11883e-05
1.10478e-05
1.09117e-05
1.07796e-05
1.06512e-05
1.05261e-05
1.04039e-05
1.02841e-05
1.01665e-05
1.00507e-05
9.93614e-06
9.8226e-06
9.70966e-06
9.59693e-06
9.48405e-06
9.37065e-06
9.25636e-06
9.14085e-06
9.02376e-06
8.90476e-06
8.78354e-06
8.65978e-06
8.5332e-06
8.40351e-06
8.27048e-06
8.13386e-06
7.99343e-06
7.84902e-06
7.70043e-06
7.54753e-06
7.39021e-06
7.22905e-06
7.06486e-06
6.89644e-06
6.72363e-06
6.54644e-06
6.36496e-06
6.1793e-06
5.98963e-06
5.79611e-06
5.59897e-06
5.39845e-06
5.19482e-06
4.98838e-06
4.77942e-06
4.56829e-06
4.35533e-06
4.1409e-06
3.92534e-06
3.70902e-06
3.49228e-06
3.27546e-06
3.05884e-06
2.84267e-06
2.62674e-06
2.41134e-06
2.1974e-06
1.98386e-06
1.77065e-06
1.55712e-06
1.3421e-06
1.12641e-06
9.08384e-07
6.82685e-07
4.46538e-07
2.10011e-07
4.01378e-08
2.21447e-07
1.10044e-06
2.22601e-06
3.31388e-06
4.35448e-06
5.36806e-06
6.35779e-06
7.33013e-06
8.28884e-06
9.23919e-06
1.01814e-05
1.11152e-05
1.2043e-05
1.29653e-05
1.38824e-05
1.47942e-05
1.57004e-05
1.66007e-05
1.74945e-05
1.83813e-05
1.92605e-05
2.01312e-05
2.09926e-05
2.18439e-05
2.26841e-05
2.35123e-05
2.43275e-05
2.51286e-05
2.59146e-05
2.66843e-05
2.74368e-05
2.81708e-05
2.88853e-05
2.95792e-05
3.02512e-05
3.09005e-05
3.15258e-05
3.21261e-05
3.27005e-05
3.32478e-05
3.37673e-05
3.4258e-05
3.47191e-05
3.51498e-05
3.55495e-05
3.59175e-05
3.62533e-05
3.65564e-05
3.68265e-05
3.70632e-05
3.72663e-05
3.74359e-05
3.75717e-05
3.7674e-05
3.77428e-05
3.77785e-05
3.77814e-05
3.7752e-05
3.76907e-05
3.75982e-05
3.74754e-05
3.73233e-05
3.71441e-05
3.69393e-05
3.67076e-05
3.645e-05
3.61672e-05
3.58606e-05
3.55312e-05
3.51803e-05
3.48091e-05
3.44189e-05
3.4011e-05
3.35867e-05
3.31473e-05
3.26942e-05
3.22286e-05
3.17518e-05
3.12651e-05
3.07699e-05
3.02674e-05
2.97587e-05
2.92452e-05
2.87279e-05
2.8208e-05
2.76866e-05
2.71647e-05
2.66434e-05
2.61237e-05
2.56063e-05
2.50923e-05
2.45823e-05
2.40773e-05
2.35779e-05
2.30848e-05
2.25986e-05
2.21198e-05
2.16491e-05
2.11868e-05
2.07334e-05
2.02893e-05
1.98548e-05
1.94302e-05
1.90158e-05
1.86116e-05
1.8218e-05
1.7835e-05
1.74627e-05
1.71012e-05
1.67505e-05
1.64105e-05
1.60813e-05
1.57627e-05
1.54546e-05
1.5157e-05
1.48697e-05
1.45925e-05
1.43253e-05
1.40677e-05
1.38197e-05
1.35809e-05
1.33511e-05
1.313e-05
1.29174e-05
1.27129e-05
1.25164e-05
1.23273e-05
1.21455e-05
1.19706e-05
1.18024e-05
1.16403e-05
1.1484e-05
1.13335e-05
1.11882e-05
1.10477e-05
1.09116e-05
1.07796e-05
1.06512e-05
1.05261e-05
1.04038e-05
1.02841e-05
1.01665e-05
1.00506e-05
9.9361e-06
9.82256e-06
9.70962e-06
9.59689e-06
9.48401e-06
9.37061e-06
9.25633e-06
9.14081e-06
9.02372e-06
8.90473e-06
8.7835e-06
8.65974e-06
8.53316e-06
8.40348e-06
8.27045e-06
8.13383e-06
7.9934e-06
7.84899e-06
7.7004e-06
7.5475e-06
7.39018e-06
7.22902e-06
7.06483e-06
6.89641e-06
6.72361e-06
6.54642e-06
6.36494e-06
6.17928e-06
5.9896e-06
5.79609e-06
5.59895e-06
5.39844e-06
5.19481e-06
4.98836e-06
4.77941e-06
4.56828e-06
4.35532e-06
4.14089e-06
3.92533e-06
3.70901e-06
3.49228e-06
3.27545e-06
3.05884e-06
2.84267e-06
2.62674e-06
2.41134e-06
2.1974e-06
1.98386e-06
1.77066e-06
1.55712e-06
1.3421e-06
1.12642e-06
9.08391e-07
6.82691e-07
4.46544e-07
2.10014e-07
4.01385e-08
9.97808e-07
2.3215e-05
4.34769e-05
5.72413e-05
6.77539e-05
7.6312e-05
8.36558e-05
9.01837e-05
9.61132e-05
0.000101584
0.000106693
0.000111507
0.00011607
0.000120416
0.000124572
0.000128557
0.000132388
0.000136078
0.000139638
0.000143075
0.000146398
0.000149612
0.000152722
0.000155732
0.000158644
0.000161462
0.000164188
0.000166823
0.00016937
0.000171827
0.000174198
0.000176481
0.000178678
0.000180789
0.000182813
0.000184751
0.000186602
0.000188366
0.000190043
0.000191632
0.000193133
0.000194547
0.000195871
0.000197107
0.000198253
0.00019931
0.000200278
0.000201155
0.000201943
0.000202641
0.00020325
0.000203769
0.0002042
0.000204542
0.000204796
0.000204964
0.000205045
0.000205041
0.000204952
0.00020478
0.000204525
0.000204186
0.000203762
0.000203254
0.00020267
0.000202012
0.000201283
0.000200486
0.000199623
0.000198696
0.000197709
0.000196663
0.000195562
0.000194407
0.000193201
0.000191948
0.00019065
0.00018931
0.00018793
0.000186513
0.000185063
0.000183582
0.000182072
0.000180537
0.00017898
0.000177403
0.000175808
0.000174199
0.000172578
0.000170948
0.000169312
0.000167671
0.000166028
0.000164385
0.000162746
0.000161111
0.000159484
0.000157866
0.000156259
0.000154665
0.000153086
0.000151524
0.000149979
0.000148454
0.000146951
0.000145469
0.000144012
0.000142578
0.000141171
0.00013979
0.000138437
0.000137112
0.000135815
0.000134547
0.000133309
0.000132101
0.000130923
0.000129775
0.000128657
0.000127569
0.00012651
0.000125481
0.000124481
0.000123509
0.000122565
0.000121648
0.000120757
0.000119893
0.000119053
0.000118237
0.000117444
0.000116673
0.000115921
0.000115188
0.000114472
0.000113771
0.000113085
0.000112411
0.000111749
0.000111095
0.00011045
0.00010981
0.000109174
0.00010854
0.000107907
0.000107273
0.000106635
0.000105991
0.00010534
0.000104681
0.00010401
0.000103326
0.000102627
0.000101912
0.000101178
0.000100423
9.96466e-05
9.88458e-05
9.80194e-05
9.71655e-05
9.62826e-05
9.53687e-05
9.44219e-05
9.34385e-05
9.24092e-05
9.13367e-05
9.0223e-05
8.90682e-05
8.78721e-05
8.66339e-05
8.5353e-05
8.40286e-05
8.26599e-05
8.12461e-05
7.97866e-05
7.82804e-05
7.67269e-05
7.51249e-05
7.34735e-05
7.17714e-05
7.00171e-05
6.82087e-05
6.63439e-05
6.44198e-05
6.24327e-05
6.03779e-05
5.82495e-05
5.60409e-05
5.37396e-05
5.13244e-05
4.87709e-05
4.60459e-05
4.30931e-05
3.98148e-05
3.60105e-05
3.15187e-05
2.6023e-05
1.88016e-05
8.58795e-06
1.85135e-07
9.97881e-07
2.32172e-05
4.34804e-05
5.72451e-05
6.77579e-05
7.63162e-05
8.366e-05
9.01879e-05
9.61175e-05
0.000101588
0.000106697
0.000111511
0.000116075
0.000120421
0.000124576
0.000128562
0.000132393
0.000136083
0.000139642
0.00014308
0.000146403
0.000149618
0.000152727
0.000155737
0.00015865
0.000161468
0.000164194
0.000166829
0.000169375
0.000171833
0.000174203
0.000176487
0.000178684
0.000180795
0.000182819
0.000184757
0.000186608
0.000188372
0.000190049
0.000191638
0.00019314
0.000194553
0.000195878
0.000197113
0.00019826
0.000199317
0.000200284
0.000201162
0.000201949
0.000202648
0.000203256
0.000203776
0.000204206
0.000204549
0.000204803
0.00020497
0.000205052
0.000205047
0.000204959
0.000204786
0.000204531
0.000204192
0.000203768
0.000203261
0.000202676
0.000202018
0.000201289
0.000200492
0.000199629
0.000198702
0.000197715
0.000196669
0.000195567
0.000194412
0.000193207
0.000191954
0.000190656
0.000189315
0.000187935
0.000186519
0.000185068
0.000183587
0.000182077
0.000180542
0.000178985
0.000177407
0.000175813
0.000174204
0.000172583
0.000170953
0.000169316
0.000167675
0.000166032
0.00016439
0.00016275
0.000161115
0.000159488
0.00015787
0.000156263
0.000154669
0.00015309
0.000151527
0.000149983
0.000148458
0.000146954
0.000145472
0.000144015
0.000142581
0.000141174
0.000139793
0.00013844
0.000137114
0.000135817
0.00013455
0.000133312
0.000132104
0.000130925
0.000129777
0.000128659
0.000127571
0.000126512
0.000125483
0.000124482
0.00012351
0.000122566
0.000121649
0.000120759
0.000119894
0.000119054
0.000118239
0.000117446
0.000116674
0.000115922
0.000115189
0.000114473
0.000113772
0.000113086
0.000112412
0.000111749
0.000111096
0.00011045
0.00010981
0.000109175
0.000108541
0.000107908
0.000107273
0.000106635
0.000105991
0.000105341
0.000104681
0.00010401
0.000103326
0.000102628
0.000101912
0.000101178
0.000100423
9.96466e-05
9.88458e-05
9.80193e-05
9.71655e-05
9.62825e-05
9.53686e-05
9.44218e-05
9.34383e-05
9.24091e-05
9.13367e-05
9.02229e-05
8.90681e-05
8.7872e-05
8.66339e-05
8.5353e-05
8.40285e-05
8.26598e-05
8.12461e-05
7.97865e-05
7.82804e-05
7.67268e-05
7.51249e-05
7.34735e-05
7.17714e-05
7.00171e-05
6.82087e-05
6.63439e-05
6.44198e-05
6.24328e-05
6.03779e-05
5.82496e-05
5.60409e-05
5.37397e-05
5.13245e-05
4.8771e-05
4.6046e-05
4.30933e-05
3.9815e-05
3.60105e-05
3.15187e-05
2.60229e-05
1.88016e-05
8.58786e-06
1.85134e-07
2.05275e-06
4.21598e-05
8.66256e-05
0.000119615
0.000144986
0.000165441
0.000182616
0.000197496
0.000210696
0.000222611
0.000233514
0.000243596
0.000252994
0.000261811
0.000270126
0.000277999
0.000285479
0.000292605
0.000299409
0.000305917
0.00031215
0.000318126
0.000323861
0.000329367
0.000334655
0.000339733
0.000344612
0.000349295
0.000353791
0.000358103
0.000362237
0.000366195
0.000369981
0.000373599
0.00037705
0.000380336
0.000383461
0.000386425
0.00038923
0.000391877
0.000394368
0.000396703
0.000398885
0.000400914
0.00040279
0.000404516
0.000406092
0.000407518
0.000408797
0.000409929
0.000410916
0.000411758
0.000412456
0.000413014
0.00041343
0.000413708
0.000413849
0.000413853
0.000413723
0.00041346
0.000413065
0.000412536
0.000411873
0.000411078
0.000410159
0.000409121
0.000407969
0.000406708
0.000405341
0.000403871
0.000402302
0.000400638
0.000398882
0.000397039
0.000395112
0.000393105
0.000391022
0.000388867
0.000386644
0.000384357
0.00038201
0.000379608
0.000377155
0.000374654
0.00037211
0.000369527
0.000366909
0.00036426
0.000361585
0.000358887
0.00035617
0.000353438
0.000350696
0.000347946
0.000345192
0.000342439
0.00033969
0.000336947
0.000334215
0.000331496
0.000328793
0.000326111
0.00032345
0.000320814
0.000318206
0.000315628
0.000313082
0.000310569
0.000308093
0.000305655
0.000303255
0.000300897
0.00029858
0.000296306
0.000294076
0.000291891
0.00028975
0.000287655
0.000285605
0.0002836
0.000281641
0.000279726
0.000277856
0.000276029
0.000274245
0.000272502
0.000270801
0.000269139
0.000267516
0.000265928
0.000264374
0.000262852
0.000261358
0.000259891
0.000258448
0.000257027
0.000255625
0.000254241
0.000252869
0.000251509
0.000250156
0.000248808
0.000247461
0.000246112
0.000244758
0.000243396
0.000242022
0.000240633
0.000239225
0.000237796
0.000236341
0.000234858
0.000233342
0.000231792
0.000230203
0.000228573
0.000226899
0.000225176
0.000223403
0.000221577
0.000219694
0.000217751
0.000215743
0.000213666
0.00021151
0.000209272
0.000206953
0.000204556
0.000202078
0.000199518
0.000196876
0.000194147
0.000191331
0.000188424
0.000185424
0.000182327
0.00017913
0.000175828
0.000172416
0.000168888
0.000165238
0.000161457
0.000157536
0.000153461
0.00014922
0.000144792
0.000140156
0.000135281
0.000130125
0.00012463
0.000118718
0.00011227
0.000105107
9.6967e-05
8.74381e-05
7.58901e-05
6.14757e-05
4.26444e-05
1.79843e-05
3.991e-07
2.05286e-06
4.21632e-05
8.66327e-05
0.000119624
0.000144996
0.000165451
0.000182626
0.000197506
0.000210706
0.000222621
0.000233524
0.000243605
0.000253004
0.000261821
0.000270135
0.000278008
0.000285488
0.000292614
0.000299418
0.000305926
0.000312159
0.000318136
0.000323871
0.000329376
0.000334664
0.000339743
0.000344621
0.000349305
0.000353801
0.000358113
0.000362246
0.000366205
0.000369991
0.000373609
0.00037706
0.000380346
0.000383471
0.000386435
0.00038924
0.000391887
0.000394378
0.000396714
0.000398895
0.000400924
0.000402801
0.000404526
0.000406102
0.000407529
0.000408807
0.000409939
0.000410926
0.000411768
0.000412467
0.000413024
0.00041344
0.000413718
0.000413859
0.000413863
0.000413733
0.00041347
0.000413074
0.000412545
0.000411882
0.000411087
0.000410168
0.00040913
0.000407978
0.000406717
0.00040535
0.000403879
0.00040231
0.000400646
0.000398891
0.000397047
0.00039512
0.000393113
0.00039103
0.000388874
0.000386651
0.000384364
0.000382018
0.000379615
0.000377162
0.00037466
0.000372116
0.000369533
0.000366915
0.000364266
0.000361591
0.000358893
0.000356176
0.000353444
0.000350701
0.000347951
0.000345198
0.000342444
0.000339695
0.000336952
0.000334219
0.0003315
0.000328798
0.000326115
0.000323454
0.000320818
0.00031821
0.000315632
0.000313085
0.000310573
0.000308096
0.000305658
0.000303258
0.0003009
0.000298583
0.000296309
0.000294079
0.000291893
0.000289753
0.000287657
0.000285607
0.000283602
0.000281643
0.000279728
0.000277857
0.00027603
0.000274246
0.000272504
0.000270802
0.00026914
0.000267517
0.000265929
0.000264375
0.000262852
0.000261358
0.000259891
0.000258448
0.000257027
0.000255626
0.000254241
0.000252869
0.000251509
0.000250156
0.000248807
0.000247461
0.000246112
0.000244758
0.000243396
0.000242022
0.000240632
0.000239225
0.000237795
0.00023634
0.000234857
0.000233341
0.000231791
0.000230202
0.000228572
0.000226897
0.000225175
0.000223402
0.000221576
0.000219693
0.000217749
0.000215742
0.000213665
0.000211509
0.00020927
0.000206952
0.000204555
0.000202077
0.000199517
0.000196874
0.000194146
0.00019133
0.000188423
0.000185423
0.000182326
0.000179129
0.000175827
0.000172415
0.000168887
0.000165237
0.000161456
0.000157535
0.000153461
0.000149219
0.000144792
0.000140155
0.00013528
0.000130124
0.00012463
0.000118718
0.000112269
0.000105107
9.69669e-05
8.7438e-05
7.58901e-05
6.14756e-05
4.26443e-05
1.79842e-05
3.99098e-07
3.10439e-06
5.52352e-05
0.000118132
0.000168683
0.000209126
0.000242391
0.000270516
0.000294863
0.000316354
0.000335624
0.000353123
0.000369178
0.00038403
0.000397862
0.000410816
0.000423003
0.00043451
0.000445409
0.000455757
0.000465603
0.000474985
0.000483938
0.000492488
0.00050066
0.000508473
0.000515946
0.000523093
0.000529928
0.000536461
0.000542702
0.000548661
0.000554345
0.000559762
0.000564917
0.000569816
0.000574464
0.000578867
0.000583028
0.000586951
0.00059064
0.000594098
0.000597329
0.000600336
0.000603121
0.000605689
0.00060804
0.000610179
0.000612108
0.000613829
0.000615345
0.000616659
0.000617773
0.00061869
0.000619413
0.000619943
0.000620284
0.000620439
0.000620409
0.000620197
0.000619806
0.000619236
0.000618489
0.000617566
0.00061647
0.000615207
0.000613786
0.000612212
0.00061049
0.000608625
0.000606622
0.000604487
0.000602223
0.000599836
0.00059733
0.000594711
0.000591984
0.000589153
0.000586224
0.000583202
0.000580093
0.000576901
0.000573632
0.000570291
0.000566884
0.000563417
0.000559893
0.00055632
0.000552701
0.000549043
0.000545351
0.00054163
0.000537885
0.000534121
0.000530343
0.000526556
0.000522764
0.000518974
0.000515188
0.000511411
0.000507649
0.000503903
0.00050018
0.000496482
0.000492813
0.000489176
0.000485575
0.000482012
0.000478491
0.000475014
0.000471583
0.0004682
0.000464868
0.000461587
0.00045836
0.000455187
0.000452069
0.000449007
0.000446002
0.000443053
0.000440161
0.000437324
0.000434544
0.000431818
0.000429146
0.000426527
0.000423959
0.000421442
0.000418973
0.000416549
0.000414168
0.000411826
0.000409521
0.000407249
0.000405007
0.000402792
0.000400601
0.000398429
0.000396274
0.00039413
0.000391995
0.000389863
0.000387731
0.000385594
0.000383448
0.000381289
0.000379111
0.000376911
0.000374683
0.000372424
0.000370128
0.000367792
0.000365411
0.00036298
0.000360496
0.000357954
0.00035535
0.00035268
0.000349939
0.000347125
0.000344233
0.000341259
0.000338198
0.000335045
0.000331794
0.000328438
0.000324969
0.00032139
0.000317698
0.000313891
0.000309968
0.000305924
0.000301756
0.000297459
0.000293029
0.000288459
0.000283742
0.000278872
0.000273838
0.00026863
0.000263237
0.000257643
0.000251831
0.000245782
0.000239471
0.000232867
0.000225934
0.000218624
0.000210878
0.000202616
0.000193732
0.000184079
0.000173454
0.000161567
0.000148003
0.000132155
0.000113146
8.97778e-05
6.04338e-05
2.47554e-05
6.23417e-07
3.10451e-06
5.52389e-05
0.00011814
0.000168694
0.00020914
0.000242405
0.000270531
0.000294878
0.00031637
0.00033564
0.000353138
0.000369193
0.000384045
0.000397877
0.000410831
0.000423017
0.000434524
0.000445423
0.000455771
0.000465617
0.000474999
0.000483952
0.000492502
0.000500674
0.000508487
0.00051596
0.000523107
0.000529941
0.000536474
0.000542716
0.000548675
0.000554359
0.000559775
0.00056493
0.00056983
0.000574478
0.00057888
0.000583041
0.000586964
0.000590653
0.000594111
0.000597342
0.000600349
0.000603134
0.000605702
0.000608053
0.000610192
0.000612121
0.000613842
0.000615358
0.000616672
0.000617786
0.000618703
0.000619425
0.000619955
0.000620296
0.000620451
0.000620421
0.000620209
0.000619817
0.000619247
0.0006185
0.000617577
0.000616481
0.000615218
0.000613797
0.000612222
0.0006105
0.000608635
0.000606632
0.000604497
0.000602233
0.000599845
0.000597339
0.00059472
0.000591993
0.000589162
0.000586233
0.000583211
0.000580101
0.000576909
0.00057364
0.000570299
0.000566892
0.000563424
0.0005599
0.000556327
0.000552708
0.00054905
0.000545358
0.000541636
0.000537891
0.000534126
0.000530348
0.000526561
0.00052277
0.000518979
0.000515193
0.000511416
0.000507653
0.000503908
0.000500184
0.000496486
0.000492817
0.00048918
0.000485578
0.000482016
0.000478494
0.000475017
0.000471586
0.000468203
0.00046487
0.00046159
0.000458362
0.000455189
0.000452071
0.000449009
0.000446004
0.000443055
0.000440162
0.000437326
0.000434545
0.000431819
0.000429147
0.000426527
0.000423959
0.000421442
0.000418973
0.000416549
0.000414168
0.000411826
0.000409521
0.000407249
0.000405007
0.000402792
0.0004006
0.000398428
0.000396273
0.000394129
0.000391993
0.000389862
0.00038773
0.000385593
0.000383447
0.000381287
0.000379109
0.000376909
0.000374681
0.000372422
0.000370126
0.00036779
0.000365409
0.000362978
0.000360494
0.000357952
0.000355347
0.000352677
0.000349937
0.000347123
0.00034423
0.000341256
0.000338195
0.000335042
0.000331791
0.000328435
0.000324967
0.000321387
0.000317695
0.000313889
0.000309966
0.000305922
0.000301754
0.000297457
0.000293027
0.000288457
0.00028374
0.00027887
0.000273836
0.000268628
0.000263235
0.000257641
0.00025183
0.000245781
0.000239469
0.000232866
0.000225932
0.000218623
0.000210877
0.000202615
0.000193731
0.000184078
0.000173454
0.000161567
0.000148003
0.000132155
0.000113146
8.97778e-05
6.04338e-05
2.47553e-05
6.23416e-07
4.14042e-06
6.55095e-05
0.000142554
0.000207815
0.000261863
0.00030726
0.0003461
0.00037992
0.000409828
0.000436631
0.000460922
0.000483144
0.000503634
0.000522651
0.000540397
0.000557033
0.000572687
0.000587465
0.000601451
0.000614716
0.000627319
0.000639309
0.000650728
0.000661611
0.000671988
0.000681886
0.000691328
0.000700332
0.000708917
0.000717097
0.000724887
0.000732298
0.000739342
0.000746027
0.000752364
0.00075836
0.000764023
0.000769361
0.000774379
0.000779084
0.000783482
0.000787578
0.000791378
0.000794887
0.00079811
0.000801051
0.000803716
0.000806108
0.000808233
0.000810094
0.000811697
0.000813044
0.000814141
0.000814991
0.000815599
0.000815968
0.000816103
0.000816007
0.000815684
0.000815137
0.000814369
0.000813383
0.000812184
0.000810773
0.000809158
0.000807348
0.000805349
0.000803168
0.00080081
0.000798282
0.000795591
0.000792741
0.00078974
0.000786592
0.000783305
0.000779885
0.000776337
0.000772668
0.000768884
0.000764992
0.000760999
0.000756909
0.000752731
0.00074847
0.000744134
0.000739728
0.000735259
0.000730734
0.000726158
0.000721539
0.000716883
0.000712195
0.000707483
0.000702752
0.000698007
0.000693256
0.000688502
0.000683753
0.000679013
0.000674287
0.000669581
0.000664899
0.000660246
0.000655626
0.000651042
0.0006465
0.000642003
0.000637553
0.000633154
0.000628809
0.00062452
0.000620289
0.000616119
0.00061201
0.000607964
0.000603983
0.000600066
0.000596215
0.000592429
0.000588707
0.000585051
0.000581457
0.000577927
0.000574457
0.000571048
0.000567697
0.000564402
0.00056116
0.000557967
0.00055482
0.000551716
0.00054865
0.000545619
0.000542618
0.000539644
0.000536693
0.000533759
0.000530838
0.000527925
0.000525015
0.000522102
0.000519183
0.00051625
0.0005133
0.000510325
0.000507322
0.000504285
0.000501207
0.000498084
0.00049491
0.00049168
0.000488389
0.000485031
0.000481602
0.000478096
0.000474509
0.000470836
0.000467071
0.000463212
0.000459251
0.000455186
0.00045101
0.000446718
0.000442303
0.000437758
0.000433077
0.000428257
0.000423295
0.000418187
0.00041293
0.000407518
0.000401945
0.000396205
0.000390288
0.000384186
0.000377888
0.000371382
0.000364653
0.000357684
0.000350456
0.000342946
0.000335127
0.000326967
0.000318428
0.000309463
0.000300015
0.000290011
0.000279362
0.00026795
0.00025562
0.000242166
0.00022731
0.000210672
0.000191729
0.000169759
0.000143774
0.000112461
7.4373e-05
3.01769e-05
8.49893e-07
4.14056e-06
6.55132e-05
0.000142563
0.000207828
0.000261879
0.000307278
0.000346119
0.000379939
0.000409848
0.000436651
0.000460942
0.000483164
0.000503654
0.00052267
0.000540416
0.000557052
0.000572706
0.000587484
0.00060147
0.000614735
0.000627338
0.000639328
0.000650746
0.000661629
0.000672007
0.000681904
0.000691346
0.00070035
0.000708935
0.000717115
0.000724905
0.000732316
0.000739359
0.000746044
0.000752381
0.000758377
0.00076404
0.000769377
0.000774395
0.0007791
0.000783498
0.000787594
0.000791394
0.000794903
0.000798126
0.000801067
0.000803731
0.000806124
0.000808248
0.000810109
0.000811712
0.000813059
0.000814156
0.000815006
0.000815613
0.000815982
0.000816117
0.000816021
0.000815697
0.00081515
0.000814382
0.000813396
0.000812196
0.000810785
0.000809171
0.00080736
0.000805361
0.000803179
0.000800821
0.000798293
0.000795602
0.000792752
0.00078975
0.000786603
0.000783316
0.000779895
0.000776347
0.000772678
0.000768894
0.000765001
0.000761007
0.000756918
0.00075274
0.000748479
0.000744142
0.000739736
0.000735267
0.000730741
0.000726166
0.000721546
0.00071689
0.000712202
0.000707489
0.000702758
0.000698013
0.000693261
0.000688508
0.000683758
0.000679018
0.000674292
0.000669586
0.000664904
0.00066025
0.00065563
0.000651046
0.000646504
0.000642006
0.000637556
0.000633157
0.000628812
0.000624523
0.000620292
0.000616121
0.000612012
0.000607967
0.000603985
0.000600068
0.000596217
0.00059243
0.000588709
0.000585052
0.000581458
0.000577928
0.000574458
0.000571049
0.000567697
0.000564402
0.00056116
0.000557967
0.00055482
0.000551715
0.000548649
0.000545618
0.000542618
0.000539644
0.000536692
0.000533758
0.000530836
0.000527923
0.000525013
0.000522101
0.000519181
0.000516248
0.000513298
0.000510323
0.00050732
0.000504282
0.000501204
0.000498081
0.000494907
0.000491677
0.000488386
0.000485028
0.000481599
0.000478093
0.000474506
0.000470833
0.000467068
0.000463208
0.000459248
0.000455183
0.000451007
0.000446715
0.000442299
0.000437755
0.000433073
0.000428254
0.000423292
0.000418185
0.000412927
0.000407516
0.000401943
0.000396202
0.000390285
0.000384184
0.000377886
0.00037138
0.00036465
0.000357682
0.000350454
0.000342944
0.000335125
0.000326966
0.000318426
0.000309461
0.000300013
0.00029001
0.000279361
0.000267949
0.000255619
0.000242165
0.00022731
0.000210672
0.000191728
0.000169759
0.000143774
0.000112461
7.4373e-05
3.01768e-05
8.49892e-07
5.17495e-06
7.40931e-05
0.000162574
0.000240215
0.000306196
0.000362595
0.000411406
0.000454211
0.000492217
0.000526342
0.000557282
0.000585572
0.000611627
0.000635771
0.000658263
0.000679309
0.000699076
0.000717699
0.000735291
0.000751944
0.000767737
0.000782735
0.000796992
0.000810557
0.000823469
0.000835763
0.000847471
0.000858617
0.000869226
0.000879318
0.000888911
0.000898022
0.000906666
0.000914855
0.000922603
0.00092992
0.000936817
0.000943304
0.000949391
0.000955085
0.000960395
0.000965329
0.000969895
0.000974099
0.00097795
0.000981453
0.000984615
0.000987444
0.000989945
0.000992124
0.000993988
0.000995542
0.000996793
0.000997746
0.000998406
0.000998781
0.000998873
0.00099869
0.000998237
0.000997517
0.000996536
0.0009953
0.000993812
0.000992077
0.000990104
0.000987901
0.000985476
0.000982836
0.000979989
0.000976943
0.000973704
0.000970279
0.000966677
0.000962904
0.000958968
0.000954875
0.000950634
0.000946252
0.000941735
0.000937092
0.00093233
0.000927457
0.000922479
0.000917406
0.000912244
0.000907001
0.000901685
0.000896303
0.000890862
0.00088537
0.000879835
0.000874263
0.000868662
0.000863038
0.000857399
0.000851751
0.000846101
0.000840456
0.00083482
0.000829201
0.000823604
0.000818034
0.000812497
0.000806998
0.000801541
0.000796131
0.000790771
0.000785466
0.00078022
0.000775034
0.000769912
0.000764856
0.000759869
0.000754952
0.000750105
0.000745332
0.000740631
0.000736003
0.000731448
0.000726965
0.000722554
0.000718214
0.000713942
0.000709738
0.0007056
0.000701524
0.000697509
0.000693549
0.000689642
0.000685783
0.000681967
0.000678191
0.000674449
0.000670737
0.00066705
0.000663383
0.000659729
0.000656084
0.000652442
0.000648797
0.000645142
0.000641472
0.00063778
0.000634061
0.000630308
0.000626514
0.000622674
0.000618781
0.000614828
0.000610811
0.000606722
0.000602557
0.000598308
0.000593971
0.000589539
0.000585008
0.000580371
0.000575624
0.000570761
0.000565777
0.000560667
0.000555423
0.000550041
0.000544513
0.000538833
0.000532993
0.000526989
0.000520816
0.000514468
0.000507939
0.000501221
0.000494308
0.000487187
0.00047985
0.000472281
0.000464467
0.00045639
0.00044803
0.000439363
0.000430364
0.000420999
0.000411232
0.00040102
0.00039031
0.00037904
0.000367132
0.000354491
0.000340999
0.000326502
0.000310805
0.000293652
0.000274705
0.000253517
0.000229492
0.000201842
0.000169538
0.000131305
8.59292e-05
3.4812e-05
1.0782e-06
5.17509e-06
7.40968e-05
0.000162583
0.000240229
0.000306213
0.000362615
0.000411427
0.000454233
0.00049224
0.000526366
0.000557306
0.000585596
0.00061165
0.000635795
0.000658287
0.000679333
0.000699099
0.000717722
0.000735314
0.000751967
0.00076776
0.000782757
0.000797014
0.000810579
0.000823491
0.000835785
0.000847492
0.000858639
0.000869247
0.000879339
0.000888932
0.000898043
0.000906686
0.000914876
0.000922623
0.00092994
0.000936837
0.000943324
0.00094941
0.000955104
0.000960414
0.000965348
0.000969913
0.000974118
0.000977968
0.000981471
0.000984633
0.000987462
0.000989962
0.000992141
0.000994005
0.000995559
0.000996809
0.000997762
0.000998423
0.000998797
0.000998889
0.000998706
0.000998252
0.000997532
0.000996551
0.000995314
0.000993826
0.000992091
0.000990118
0.000987915
0.000985489
0.000982849
0.000980002
0.000976955
0.000973716
0.000970292
0.000966689
0.000962916
0.000958979
0.000954887
0.000950645
0.000946262
0.000941745
0.000937102
0.00093234
0.000927466
0.000922489
0.000917415
0.000912253
0.00090701
0.000901694
0.000896311
0.00089087
0.000885378
0.000879843
0.00087427
0.000868669
0.000863045
0.000857406
0.000851758
0.000846108
0.000840462
0.000834826
0.000829207
0.000823609
0.000818039
0.000812502
0.000807003
0.000801546
0.000796135
0.000790776
0.000785471
0.000780224
0.000775038
0.000769916
0.00076486
0.000759872
0.000754955
0.000750108
0.000745334
0.000740633
0.000736005
0.00073145
0.000726967
0.000722556
0.000718215
0.000713944
0.00070974
0.000705601
0.000701525
0.00069751
0.00069355
0.000689642
0.000685783
0.000681967
0.000678191
0.000674449
0.000670737
0.00066705
0.000663382
0.000659729
0.000656083
0.000652441
0.000648795
0.000645141
0.00064147
0.000637779
0.000634059
0.000630306
0.000626512
0.000622672
0.000618778
0.000614826
0.000610808
0.00060672
0.000602554
0.000598305
0.000593968
0.000589536
0.000585005
0.000580368
0.000575621
0.000570758
0.000565774
0.000560663
0.00055542
0.000550038
0.00054451
0.00053883
0.00053299
0.000526986
0.000520813
0.000514465
0.000507936
0.000501218
0.000494305
0.000487185
0.000479847
0.000472279
0.000464465
0.000456388
0.000448028
0.000439361
0.000430361
0.000420997
0.00041123
0.000401018
0.000390309
0.000379038
0.00036713
0.00035449
0.000340997
0.000326501
0.000310804
0.000293651
0.000274704
0.000253516
0.000229492
0.000201842
0.000169538
0.000131305
8.59293e-05
3.48119e-05
1.0782e-06
6.2105e-06
8.16618e-05
0.000179728
0.000267944
0.000344363
0.000410605
0.000468503
0.000519621
0.000565209
0.000606251
0.000643517
0.000677609
0.000709007
0.000738089
0.000765161
0.000790469
0.000814214
0.000836561
0.000857647
0.000877587
0.000896474
0.00091439
0.000931403
0.000947571
0.000962945
0.000977568
0.000991477
0.00100471
0.00101728
0.00102923
0.00104058
0.00105134
0.00106154
0.0010712
0.00108032
0.00108892
0.00109701
0.00110462
0.00111174
0.00111839
0.00112459
0.00113033
0.00113564
0.00114051
0.00114497
0.00114901
0.00115265
0.00115589
0.00115875
0.00116122
0.00116333
0.00116507
0.00116646
0.0011675
0.00116819
0.00116856
0.00116859
0.00116831
0.00116771
0.00116681
0.00116561
0.00116411
0.00116233
0.00116027
0.00115793
0.00115534
0.00115248
0.00114939
0.00114606