/*--------------------------------*- C++ -*----------------------------------*\
  =========                 |
  \\      /  F ield         | OpenFOAM: The Open Source CFD Toolbox
   \\    /   O peration     | Website:  https://openfoam.org
    \\  /    A nd           | Version:  8
     \\/     M anipulation  |
\*---------------------------------------------------------------------------*/
FoamFile
{
    version     2.0;
    format      ascii;
    class       surfaceScalarField;
    location    "2400";
    object      phi;
}
// * * * * * * * * * * * * * * * * * * * * * * * * * * * * * * * * * * * * * //

dimensions      [1 0 -1 0 0 0 0];

internalField   nonuniform List<scalar> 
114370
(
2.31153e-10
1.03087e-13
-2.31255e-10
5.52497e-10
5.72682e-14
-3.23172e-10
8.11174e-10
3.61905e-14
-2.59861e-10
9.45123e-10
2.57049e-14
-1.34866e-10
9.55756e-10
1.88797e-14
-1.14394e-11
8.61948e-10
1.45667e-14
9.30734e-11
6.84896e-10
1.17332e-14
1.76373e-10
4.42813e-10
9.90939e-15
2.41448e-10
1.50153e-10
8.8069e-15
2.92065e-10
-1.81945e-10
8.15505e-15
3.31536e-10
-5.45011e-10
7.77689e-15
3.62536e-10
-9.3282e-10
7.59262e-15
3.87308e-10
-1.34086e-09
7.49904e-15
4.0757e-10
-1.76582e-09
7.40831e-15
4.24506e-10
-2.20523e-09
7.29896e-15
4.38987e-10
-2.65727e-09
7.1686e-15
4.5164e-10
-3.12057e-09
7.03392e-15
4.62911e-10
-3.59404e-09
6.90468e-15
4.73109e-10
-4.07683e-09
6.78499e-15
4.82436e-10
-4.56818e-09
6.67508e-15
4.9102e-10
-5.06743e-09
6.5719e-15
4.98928e-10
-5.57391e-09
6.47047e-15
5.0618e-10
-6.08697e-09
6.36579e-15
5.12767e-10
-6.6059e-09
6.25852e-15
5.18653e-10
-7.12995e-09
6.14606e-15
5.23785e-10
-7.65831e-09
6.02948e-15
5.28102e-10
-8.19009e-09
5.90923e-15
5.31534e-10
-8.72434e-09
5.78617e-15
5.34011e-10
-9.26003e-09
5.66029e-15
5.35463e-10
-9.79607e-09
5.53312e-15
5.35824e-10
-1.03313e-08
5.40227e-15
5.35034e-10
-1.08646e-08
5.27099e-15
5.33039e-10
-1.13946e-08
5.13993e-15
5.29797e-10
-1.192e-08
5.01019e-15
5.25272e-10
-1.24396e-08
4.88174e-15
5.19442e-10
-1.29521e-08
4.75482e-15
5.12292e-10
-1.34561e-08
4.63008e-15
5.03821e-10
-1.39503e-08
4.50686e-15
4.94037e-10
-1.44334e-08
4.38624e-15
4.8296e-10
-1.49042e-08
4.2678e-15
4.70617e-10
-1.53614e-08
4.15207e-15
4.57048e-10
-1.58039e-08
4.03883e-15
4.423e-10
-1.62304e-08
3.92842e-15
4.26428e-10
-1.66401e-08
3.82062e-15
4.09495e-10
-1.70318e-08
3.71553e-15
3.91568e-10
-1.74046e-08
3.6138e-15
3.72722e-10
-1.77578e-08
3.51555e-15
3.53034e-10
-1.80905e-08
3.42098e-15
3.32587e-10
-1.84021e-08
3.32978e-15
3.11463e-10
-1.8692e-08
3.24129e-15
2.8975e-10
-1.89597e-08
3.15746e-15
2.67534e-10
-1.92047e-08
3.07765e-15
2.449e-10
-1.94268e-08
3.00131e-15
2.21936e-10
-1.96256e-08
2.9292e-15
1.98725e-10
-1.98011e-08
2.86164e-15
1.75352e-10
-1.99531e-08
2.79755e-15
1.51896e-10
-2.00817e-08
2.73759e-15
1.28437e-10
-2.01869e-08
2.68066e-15
1.05049e-10
-2.02688e-08
2.6284e-15
8.1806e-11
-2.03277e-08
2.57938e-15
5.87779e-11
-2.03639e-08
2.53525e-15
3.60298e-11
-2.03776e-08
2.49188e-15
1.36219e-11
-2.03694e-08
2.45675e-15
-8.39489e-12
-2.03395e-08
2.429e-15
-2.99886e-11
-2.02885e-08
2.4021e-15
-5.11264e-11
-2.02169e-08
2.37847e-15
-7.17656e-11
-2.01252e-08
2.35862e-15
-9.18642e-11
-2.00139e-08
2.34138e-15
-1.11384e-10
-1.98838e-08
2.32794e-15
-1.30291e-10
-1.97354e-08
2.31764e-15
-1.4856e-10
-1.95693e-08
2.31146e-15
-1.66167e-10
-1.93864e-08
2.30636e-15
-1.83094e-10
-1.91872e-08
2.3043e-15
-1.99325e-10
-1.89725e-08
2.30582e-15
-2.14849e-10
-1.8743e-08
2.31026e-15
-2.29658e-10
-1.84994e-08
2.31698e-15
-2.43745e-10
-1.82425e-08
2.32588e-15
-2.57108e-10
-1.79729e-08
2.33693e-15
-2.69745e-10
-1.76914e-08
2.35049e-15
-2.81658e-10
-1.73987e-08
2.3661e-15
-2.9285e-10
-1.70956e-08
2.38388e-15
-3.03328e-10
-1.67827e-08
2.40318e-15
-3.13097e-10
-1.64607e-08
2.42443e-15
-3.22168e-10
-1.61303e-08
2.44655e-15
-3.3055e-10
-1.57922e-08
2.47106e-15
-3.38255e-10
-1.54471e-08
2.49708e-15
-3.45295e-10
-1.50956e-08
2.52375e-15
-3.51685e-10
-1.47384e-08
2.55151e-15
-3.57439e-10
-1.4376e-08
2.58078e-15
-3.62573e-10
-1.40091e-08
2.61114e-15
-3.67104e-10
-1.36383e-08
2.64237e-15
-3.71048e-10
-1.32641e-08
2.67446e-15
-3.74424e-10
-1.2887e-08
2.70807e-15
-3.7725e-10
-1.25077e-08
2.74168e-15
-3.79545e-10
-1.21266e-08
2.77595e-15
-3.81329e-10
-1.17442e-08
2.81086e-15
-3.8262e-10
-1.1361e-08
2.84599e-15
-3.83439e-10
-1.09774e-08
2.88263e-15
-3.83807e-10
-1.05939e-08
2.9195e-15
-3.83743e-10
-1.02109e-08
2.95593e-15
-3.83268e-10
-9.82869e-09
2.99453e-15
-3.82403e-10
-9.44776e-09
3.03377e-15
-3.81169e-10
-9.06842e-09
3.07194e-15
-3.79586e-10
-8.691e-09
3.11205e-15
-3.77675e-10
-8.3158e-09
3.15217e-15
-3.75456e-10
-7.9431e-09
3.19359e-15
-3.72951e-10
-7.57318e-09
3.23609e-15
-3.70179e-10
-7.20629e-09
3.27859e-15
-3.67161e-10
-6.84264e-09
3.3213e-15
-3.63916e-10
-6.48245e-09
3.36597e-15
-3.60465e-10
-6.1259e-09
3.40956e-15
-3.56825e-10
-5.77316e-09
3.45509e-15
-3.53017e-10
-5.42438e-09
3.50301e-15
-3.49059e-10
-5.0797e-09
3.55072e-15
-3.44968e-10
-4.73923e-09
3.5995e-15
-3.40763e-10
-4.40307e-09
3.64937e-15
-3.36459e-10
-4.07129e-09
3.69968e-15
-3.32075e-10
-3.74397e-09
3.75389e-15
-3.27624e-10
-3.42115e-09
3.80679e-15
-3.23124e-10
-3.10287e-09
3.86317e-15
-3.18587e-10
-2.78915e-09
3.92236e-15
-3.14029e-10
-2.48001e-09
3.98373e-15
-3.09463e-10
-2.17543e-09
4.04704e-15
-3.049e-10
-1.8754e-09
4.11057e-15
-3.00353e-10
-1.5799e-09
4.17475e-15
-2.95835e-10
-1.28887e-09
4.23828e-15
-2.91358e-10
-1.00227e-09
4.30181e-15
-2.86934e-10
-7.2004e-10
4.37163e-15
-2.82577e-10
-4.42051e-10
4.4395e-15
-2.78334e-10
-1.68203e-10
4.5052e-15
-2.74198e-10
1.01481e-10
4.54422e-15
-2.70038e-10
3.66916e-10
4.5542e-15
-2.65793e-10
6.28092e-10
4.57307e-15
-2.61535e-10
8.85041e-10
4.60473e-15
-2.57311e-10
1.13779e-09
4.64268e-15
-2.5311e-10
1.38634e-09
4.68584e-15
-2.48923e-10
1.63071e-09
4.73073e-15
-2.44732e-10
1.87086e-09
4.77887e-15
-2.40521e-10
2.10676e-09
4.83005e-15
-2.36268e-10
2.33833e-09
4.88622e-15
-2.3195e-10
2.5655e-09
4.94607e-15
-2.27541e-10
2.78813e-09
5.00766e-15
-2.23012e-10
3.00608e-09
5.07012e-15
-2.18333e-10
3.21916e-09
5.13366e-15
-2.13469e-10
3.42716e-09
5.19828e-15
-2.08384e-10
3.62981e-09
5.26334e-15
-2.03038e-10
3.8268e-09
5.32905e-15
-1.97391e-10
4.0178e-09
5.39541e-15
-1.91397e-10
4.20241e-09
5.46394e-15
-1.85013e-10
4.3802e-09
5.53312e-15
-1.7819e-10
4.55067e-09
5.60316e-15
-1.7088e-10
4.7133e-09
5.67234e-15
-1.63035e-10
4.86749e-09
5.74217e-15
-1.54604e-10
5.0126e-09
5.812e-15
-1.45539e-10
5.14797e-09
5.88226e-15
-1.35791e-10
5.27286e-09
5.95426e-15
-1.25314e-10
5.38649e-09
6.0256e-15
-1.14065e-10
5.48806e-09
6.09781e-15
-1.02002e-10
5.57671e-09
6.17284e-15
-8.90906e-11
5.65156e-09
6.24766e-15
-7.52998e-11
5.71172e-09
6.32485e-15
-6.06078e-11
5.75626e-09
6.40205e-15
-4.50034e-11
5.78429e-09
6.48185e-15
-2.849e-11
5.79492e-09
6.53042e-15
-1.1092e-11
5.78724e-09
6.62309e-15
7.19725e-12
5.76034e-09
6.75967e-15
2.64215e-11
5.71328e-09
6.87329e-15
4.65736e-11
5.64519e-09
6.9895e-15
6.75979e-11
5.55526e-09
7.11308e-15
8.94275e-11
5.44278e-09
7.2449e-15
1.1198e-10
5.3071e-09
7.38755e-15
1.35158e-10
5.14774e-09
7.54408e-15
1.58844e-10
4.96431e-09
7.71145e-15
1.82899e-10
4.7566e-09
7.89485e-15
2.07162e-10
4.52461e-09
8.0943e-15
2.31445e-10
4.26852e-09
8.31326e-15
2.55533e-10
3.98877e-09
8.55129e-15
2.79177e-10
3.68609e-09
8.81317e-15
3.02095e-10
3.36154e-09
9.10149e-15
3.23965e-10
3.01651e-09
9.418e-15
3.44419e-10
2.65285e-09
9.76226e-15
3.63039e-10
2.27287e-09
1.0139e-14
3.79348e-10
1.87943e-09
1.05453e-14
3.92795e-10
1.47602e-09
1.09845e-14
4.02747e-10
1.06687e-09
1.14519e-14
4.08467e-10
6.57084e-10
1.19406e-14
4.09082e-10
2.52792e-10
1.24293e-14
4.0357e-10
-1.38505e-10
1.28143e-14
3.90552e-10
-5.07495e-10
1.29839e-14
3.68227e-10
-8.43198e-10
1.30533e-14
3.34925e-10
-1.13294e-09
1.31058e-14
2.88954e-10
-1.36175e-09
1.31207e-14
2.28002e-10
-1.51196e-09
1.31517e-14
1.49378e-10
-1.56388e-09
1.32482e-14
5.10678e-11
-1.49826e-09
1.33628e-14
-6.65029e-11
-1.30129e-09
1.35113e-14
-1.97884e-10
-9.75227e-10
1.37996e-14
-3.27036e-10
-5.63239e-10
1.41507e-14
-4.13033e-10
-1.83685e-10
1.63969e-14
-3.80718e-10
8.39436e-15
-1.84967e-10
2.30862e-10
-2.31502e-10
5.52348e-10
-3.23361e-10
8.11098e-10
-2.59984e-10
9.45078e-10
-1.34968e-10
9.55728e-10
-1.15351e-11
8.61931e-10
9.29825e-11
6.84886e-10
1.76287e-10
4.42809e-10
2.41365e-10
1.50152e-10
2.91985e-10
-1.81942e-10
3.3146e-10
-5.45004e-10
3.62464e-10
-9.32809e-10
3.87241e-10
-1.34085e-09
4.07506e-10
-1.7658e-09
4.24445e-10
-2.20521e-09
4.38929e-10
-2.65725e-09
4.51585e-10
-3.12054e-09
4.62859e-10
-3.59401e-09
4.73059e-10
-4.07679e-09
4.82389e-10
-4.56814e-09
4.90975e-10
-5.06739e-09
4.98885e-10
-5.57387e-09
5.0614e-10
-6.08692e-09
5.12728e-10
-6.60585e-09
5.18615e-10
-7.1299e-09
5.2375e-10
-7.65825e-09
5.28068e-10
-8.19003e-09
5.31502e-10
-8.72428e-09
5.3398e-10
-9.25997e-09
5.35434e-10
-9.79601e-09
5.35796e-10
-1.03312e-08
5.35007e-10
-1.08645e-08
5.33013e-10
-1.13945e-08
5.29772e-10
-1.19199e-08
5.25248e-10
-1.24396e-08
5.19419e-10
-1.2952e-08
5.1227e-10
-1.3456e-08
5.03799e-10
-1.39502e-08
4.94016e-10
-1.44334e-08
4.82939e-10
-1.49041e-08
4.70597e-10
-1.53613e-08
4.57029e-10
-1.58038e-08
4.42281e-10
-1.62304e-08
4.2641e-10
-1.664e-08
4.09476e-10
-1.70317e-08
3.9155e-10
-1.74046e-08
3.72704e-10
-1.77577e-08
3.53016e-10
-1.80905e-08
3.32569e-10
-1.8402e-08
3.11446e-10
-1.86919e-08
2.89733e-10
-1.89596e-08
2.67516e-10
-1.92046e-08
2.44882e-10
-1.94267e-08
2.21918e-10
-1.96255e-08
1.98707e-10
-1.9801e-08
1.75334e-10
-1.9953e-08
1.51878e-10
-2.00816e-08
1.28418e-10
-2.01868e-08
1.0503e-10
-2.02687e-08
8.1787e-11
-2.03276e-08
5.87587e-11
-2.03638e-08
3.60103e-11
-2.03775e-08
1.36022e-11
-2.03693e-08
-8.41493e-12
-2.03394e-08
-3.0009e-11
-2.02884e-08
-5.11471e-11
-2.02168e-08
-7.17866e-11
-2.01251e-08
-9.18856e-11
-2.00138e-08
-1.11405e-10
-1.98837e-08
-1.30313e-10
-1.97353e-08
-1.48582e-10
-1.95693e-08
-1.6619e-10
-1.93863e-08
-1.83117e-10
-1.91871e-08
-1.99349e-10
-1.89724e-08
-2.14873e-10
-1.87429e-08
-2.29682e-10
-1.84994e-08
-2.4377e-10
-1.82424e-08
-2.57133e-10
-1.79728e-08
-2.6977e-10
-1.76913e-08
-2.81684e-10
-1.73987e-08
-2.92876e-10
-1.70955e-08
-3.03354e-10
-1.67826e-08
-3.13125e-10
-1.64606e-08
-3.22196e-10
-1.61302e-08
-3.30578e-10
-1.57922e-08
-3.38283e-10
-1.54471e-08
-3.45324e-10
-1.50956e-08
-3.51714e-10
-1.47383e-08
-3.57469e-10
-1.43759e-08
-3.62604e-10
-1.4009e-08
-3.67135e-10
-1.36382e-08
-3.7108e-10
-1.3264e-08
-3.74456e-10
-1.2887e-08
-3.77283e-10
-1.25076e-08
-3.79578e-10
-1.21265e-08
-3.81362e-10
-1.17441e-08
-3.82654e-10
-1.13609e-08
-3.83474e-10
-1.09773e-08
-3.83842e-10
-1.05938e-08
-3.83778e-10
-1.02108e-08
-3.83304e-10
-9.82862e-09
-3.8244e-10
-9.4477e-09
-3.81206e-10
-9.06836e-09
-3.79623e-10
-8.69093e-09
-3.77713e-10
-8.31573e-09
-3.75495e-10
-7.94304e-09
-3.72991e-10
-7.57312e-09
-3.70219e-10
-7.20623e-09
-3.67202e-10
-6.84258e-09
-3.63958e-10
-6.48239e-09
-3.60507e-10
-6.12584e-09
-3.56868e-10
-5.7731e-09
-3.5306e-10
-5.42432e-09
-3.49102e-10
-5.07964e-09
-3.45012e-10
-4.73917e-09
-3.40807e-10
-4.40301e-09
-3.36505e-10
-4.07123e-09
-3.3212e-10
-3.74391e-09
-3.27671e-10
-3.42109e-09
-3.23171e-10
-3.10281e-09
-3.18635e-10
-2.7891e-09
-3.14078e-10
-2.47995e-09
-3.09512e-10
-2.17537e-09
-3.04949e-10
-1.87535e-09
-3.00404e-10
-1.57984e-09
-2.95886e-10
-1.28882e-09
-2.91409e-10
-1.00222e-09
-2.86986e-10
-7.19987e-10
-2.82629e-10
-4.41999e-10
-2.78388e-10
-1.68151e-10
-2.74253e-10
1.01532e-10
-2.70093e-10
3.66967e-10
-2.65848e-10
6.28142e-10
-2.61591e-10
8.85091e-10
-2.57366e-10
1.13784e-09
-2.53166e-10
1.38639e-09
-2.48979e-10
1.63076e-09
-2.44789e-10
1.87091e-09
-2.40578e-10
2.1068e-09
-2.36326e-10
2.33838e-09
-2.32008e-10
2.56554e-09
-2.276e-10
2.78818e-09
-2.23071e-10
3.00613e-09
-2.18393e-10
3.21921e-09
-2.13529e-10
3.4272e-09
-2.08444e-10
3.62985e-09
-2.03099e-10
3.82685e-09
-1.97452e-10
4.01785e-09
-1.9146e-10
4.20246e-09
-1.85076e-10
4.38024e-09
-1.78253e-10
4.55072e-09
-1.70945e-10
4.71334e-09
-1.631e-10
4.86753e-09
-1.54669e-10
5.01265e-09
-1.45605e-10
5.14801e-09
-1.35858e-10
5.2729e-09
-1.25382e-10
5.38653e-09
-1.14133e-10
5.4881e-09
-1.02071e-10
5.57675e-09
-8.91606e-11
5.6516e-09
-7.53706e-11
5.71176e-09
-6.06795e-11
5.7563e-09
-4.5076e-11
5.78433e-09
-2.85634e-11
5.79495e-09
-1.1166e-11
5.78728e-09
7.12228e-12
5.76038e-09
2.63453e-11
5.71332e-09
4.64963e-11
5.64523e-09
6.75195e-11
5.5553e-09
8.9348e-11
5.44281e-09
1.119e-10
5.30714e-09
1.35077e-10
5.14777e-09
1.58761e-10
4.96434e-09
1.82815e-10
4.75664e-09
2.07077e-10
4.52464e-09
2.31359e-10
4.26855e-09
2.55445e-10
3.9888e-09
2.79088e-10
3.68613e-09
3.02004e-10
3.36157e-09
3.23872e-10
3.01654e-09
3.44324e-10
2.65288e-09
3.62943e-10
2.2729e-09
3.79249e-10
1.87945e-09
3.92694e-10
1.47604e-09
4.02644e-10
1.06689e-09
4.08361e-10
6.57103e-10
4.08974e-10
2.52807e-10
4.03459e-10
-1.38492e-10
3.90439e-10
-5.07484e-10
3.68111e-10
-8.43189e-10
3.34808e-10
-1.13294e-09
2.88833e-10
-1.36175e-09
2.27878e-10
-1.51196e-09
1.4925e-10
-1.56389e-09
5.09338e-11
-1.49827e-09
-6.66437e-11
-1.30132e-09
-1.98033e-10
-9.7527e-10
-3.27197e-10
-5.63309e-10
-4.13208e-10
-1.83797e-10
-3.8091e-10
-1.85146e-10
3.21157e-10
5.84209e-14
-5.54193e-10
5.26686e-10
7.51911e-15
-5.30866e-10
5.96346e-10
2.4171e-15
-3.3065e-10
5.64129e-10
-1.60273e-16
-1.03539e-10
4.47946e-10
-1.71979e-15
1.0396e-10
2.61633e-10
-2.51017e-15
2.78676e-10
1.70985e-11
-2.90999e-15
4.20253e-10
-2.75238e-10
-3.03328e-15
5.33176e-10
-6.06578e-10
-2.97448e-15
6.22834e-10
-9.69861e-10
-2.81741e-15
6.94283e-10
-1.35949e-09
-2.61195e-15
7.51665e-10
-1.77106e-09
-2.39606e-15
7.98399e-10
-2.20109e-09
-2.19007e-15
8.37154e-10
-2.64692e-09
-2.00168e-15
8.69906e-10
-3.10647e-09
-1.83035e-15
8.98135e-10
-3.57814e-09
-1.67382e-15
9.22929e-10
-4.06067e-09
-1.52762e-15
9.4507e-10
-4.55302e-09
-1.39004e-15
9.65108e-10
-5.05433e-09
-1.26075e-15
9.83412e-10
-5.56384e-09
-1.14034e-15
1.00021e-09
-6.08084e-09
-1.02924e-15
1.01563e-09
-6.60466e-09
-9.2937e-16
1.0297e-09
-7.13459e-09
-8.39953e-16
1.04242e-09
-7.66991e-09
-7.60614e-16
1.0537e-09
-8.20984e-09
-6.90813e-16
1.06346e-09
-8.75356e-09
-6.2903e-16
1.07158e-09
-9.30018e-09
-5.74616e-16
1.07792e-09
-9.84875e-09
-5.26325e-16
1.08235e-09
-1.03982e-08
-4.83396e-16
1.08473e-09
-1.09476e-08
-4.44747e-16
1.08496e-09
-1.14957e-08
-4.10106e-16
1.08289e-09
-1.20413e-08
-3.78443e-16
1.07844e-09
-1.25832e-08
-3.49488e-16
1.07153e-09
-1.31202e-08
-3.22644e-16
1.06207e-09
-1.36509e-08
-2.9764e-16
1.05004e-09
-1.41742e-08
-2.74368e-16
1.03539e-09
-1.46887e-08
-2.52774e-16
1.01814e-09
-1.51931e-08
-2.32804e-16
9.98284e-10
-1.56862e-08
-2.14349e-16
9.75869e-10
-1.61667e-08
-1.97518e-16
9.50949e-10
-1.66334e-08
-1.8204e-16
9.23598e-10
-1.70852e-08
-1.67861e-16
8.93906e-10
-1.75209e-08
-1.55307e-16
8.6198e-10
-1.79394e-08
-1.44268e-16
8.27941e-10
-1.83399e-08
-1.34529e-16
7.91922e-10
-1.87214e-08
-1.26198e-16
7.54065e-10
-1.90831e-08
-1.18895e-16
7.14524e-10
-1.94241e-08
-1.12892e-16
6.73457e-10
-1.97438e-08
-1.07971e-16
6.31029e-10
-2.00416e-08
-1.04188e-16
5.87406e-10
-2.03169e-08
-1.01054e-16
5.42759e-10
-2.05694e-08
-9.92208e-17
4.97258e-10
-2.07987e-08
-9.81452e-17
4.51072e-10
-2.10045e-08
-9.78818e-17
4.04367e-10
-2.11866e-08
-9.83767e-17
3.57307e-10
-2.13448e-08
-9.95756e-17
3.10051e-10
-2.14793e-08
-1.01208e-16
2.62752e-10
-2.15899e-08
-1.03544e-16
2.15559e-10
-2.16769e-08
-1.06422e-16
1.68612e-10
-2.17403e-08
-1.09787e-16
1.22047e-10
-2.17804e-08
-1.1326e-16
7.59881e-11
-2.17975e-08
-1.16354e-16
3.05522e-11
-2.17918e-08
-1.20695e-16
-1.41569e-11
-2.17639e-08
-1.26065e-16
-5.80509e-11
-2.17141e-08
-1.30676e-16
-1.01046e-10
-2.1643e-08
-1.35612e-16
-1.43058e-10
-2.1551e-08
-1.40765e-16
-1.8401e-10
-2.14387e-08
-1.46026e-16
-2.23832e-10
-2.13067e-08
-1.51667e-16
-2.62463e-10
-2.11556e-08
-1.57633e-16
-2.99851e-10
-2.09859e-08
-1.63707e-16
-3.35949e-10
-2.07985e-08
-1.70377e-16
-3.70721e-10
-2.05938e-08
-1.77102e-16
-4.04135e-10
-2.03727e-08
-1.83935e-16
-4.36169e-10
-2.01357e-08
-1.90931e-16
-4.66802e-10
-1.98836e-08
-1.98199e-16
-4.96023e-10
-1.9617e-08
-2.05628e-16
-5.23823e-10
-1.93368e-08
-2.13167e-16
-5.50201e-10
-1.90434e-08
-2.20759e-16
-5.75157e-10
-1.87378e-08
-2.28623e-16
-5.98698e-10
-1.84205e-08
-2.36216e-16
-6.20832e-10
-1.80922e-08
-2.44405e-16
-6.41573e-10
-1.77536e-08
-2.52486e-16
-6.60937e-10
-1.74054e-08
-2.60512e-16
-6.78941e-10
-1.70482e-08
-2.68756e-16
-6.95608e-10
-1.66828e-08
-2.77e-16
-7.10961e-10
-1.63096e-08
-2.85623e-16
-7.25027e-10
-1.59294e-08
-2.94246e-16
-7.37831e-10
-1.55428e-08
-3.02761e-16
-7.49404e-10
-1.51504e-08
-3.11547e-16
-7.59777e-10
-1.47526e-08
-3.20387e-16
-7.68981e-10
-1.43502e-08
-3.2939e-16
-7.7705e-10
-1.39437e-08
-3.38339e-16
-7.84018e-10
-1.35336e-08
-3.47504e-16
-7.8992e-10
-1.31203e-08
-3.56886e-16
-7.94792e-10
-1.27045e-08
-3.66377e-16
-7.98671e-10
-1.22866e-08
-3.75759e-16
-8.01593e-10
-1.1867e-08
-3.85141e-16
-8.03597e-10
-1.14463e-08
-3.9474e-16
-8.0472e-10
-1.10248e-08
-4.04231e-16
-8.05e-10
-1.0603e-08
-4.1383e-16
-8.04477e-10
-1.01812e-08
-4.2332e-16
-8.03188e-10
-9.7599e-09
-4.33244e-16
-8.01172e-10
-9.33937e-09
-4.42788e-16
-7.98468e-10
-8.91998e-09
-4.52495e-16
-7.95114e-10
-8.50205e-09
-4.62038e-16
-7.91148e-10
-8.08589e-09
-4.71582e-16
-7.8661e-10
-7.67179e-09
-4.8118e-16
-7.81535e-10
-7.26002e-09
-4.90669e-16
-7.75963e-10
-6.85084e-09
-5.00049e-16
-7.69931e-10
-6.44448e-09
-5.09592e-16
-7.63473e-10
-6.04116e-09
-5.19026e-16
-7.56628e-10
-5.64108e-09
-5.28027e-16
-7.4943e-10
-5.24443e-09
-5.37135e-16
-7.41914e-10
-4.85138e-09
-5.4608e-16
-7.34113e-10
-4.46208e-09
-5.55026e-16
-7.26063e-10
-4.07667e-09
-5.64025e-16
-7.17793e-10
-3.69526e-09
-5.7221e-16
-7.09337e-10
-3.31798e-09
-5.8045e-16
-7.00725e-10
-2.9449e-09
-5.88417e-16
-6.91986e-10
-2.5761e-09
-5.95897e-16
-6.83148e-10
-2.21165e-09
-6.03214e-16
-6.7424e-10
-1.85159e-09
-6.10747e-16
-6.65287e-10
-1.49596e-09
-6.18226e-16
-6.56317e-10
-1.14478e-09
-6.26463e-16
-6.47356e-10
-7.98045e-10
-6.34916e-16
-6.38432e-10
-4.55753e-10
-6.42882e-16
-6.29571e-10
-1.17865e-10
-6.49979e-16
-6.20814e-10
2.15547e-10
-6.5881e-16
-6.121e-10
5.44352e-10
-6.68506e-16
-6.03361e-10
8.68543e-10
-6.76303e-16
-5.9459e-10
1.18815e-09
-6.80414e-16
-5.85759e-10
1.50315e-09
-6.7878e-16
-5.76909e-10
1.81354e-09
-6.74e-16
-5.68067e-10
2.11928e-09
-6.6819e-16
-5.59221e-10
2.42034e-09
-6.61838e-16
-5.5035e-10
2.71666e-09
-6.55214e-16
-5.41425e-10
3.00817e-09
-6.48047e-16
-5.32412e-10
3.29479e-09
-6.39471e-16
-5.23269e-10
3.57641e-09
-6.29539e-16
-5.13951e-10
3.85289e-09
-6.19173e-16
-5.04407e-10
4.12407e-09
-6.08861e-16
-4.94578e-10
4.38974e-09
-5.97953e-16
-4.84402e-10
4.64969e-09
-5.8764e-16
-4.73809e-10
4.90363e-09
-5.76786e-16
-4.62725e-10
5.15126e-09
-5.66256e-16
-4.5107e-10
5.39222e-09
-5.55076e-16
-4.38758e-10
5.62612e-09
-5.4357e-16
-4.25699e-10
5.85249e-09
-5.32282e-16
-4.118e-10
6.07085e-09
-5.20885e-16
-3.96963e-10
6.28063e-09
-5.0938e-16
-3.81087e-10
6.48124e-09
-4.97984e-16
-3.64071e-10
6.67202e-09
-4.86589e-16
-3.45811e-10
6.85226e-09
-4.75627e-16
-3.26205e-10
7.02118e-09
-4.64341e-16
-3.05151e-10
7.17797e-09
-4.5349e-16
-2.82551e-10
7.32177e-09
-4.42532e-16
-2.58311e-10
7.45166e-09
-4.31466e-16
-2.32346e-10
7.56668e-09
-4.20618e-16
-2.04574e-10
7.66585e-09
-4.09555e-16
-1.74929e-10
7.74813e-09
-3.98386e-16
-1.43355e-10
7.81246e-09
-3.86784e-16
-1.09813e-10
7.85778e-09
-3.74533e-16
-7.4285e-11
7.88297e-09
-3.59678e-16
-3.67692e-11
7.88694e-09
-3.4686e-16
2.72911e-12
7.86864e-09
-3.36237e-16
4.42223e-11
7.82702e-09
-3.22044e-16
8.76858e-11
7.76107e-09
-3.06772e-16
1.33032e-10
7.66983e-09
-2.90962e-16
1.80144e-10
7.55241e-09
-2.74941e-16
2.2887e-10
7.40801e-09
-2.58383e-16
2.7902e-10
7.23594e-09
-2.41071e-16
3.30365e-10
7.03565e-09
-2.23441e-16
3.82631e-10
6.80675e-09
-2.04841e-16
4.35494e-10
6.54904e-09
-1.85597e-16
4.88577e-10
6.26254e-09
-1.65386e-16
5.41444e-10
5.94753e-09
-1.44314e-16
5.93594e-10
5.60456e-09
-1.22058e-16
6.44451e-10
5.23454e-09
-9.82928e-17
6.93362e-10
4.83874e-09
-7.41021e-17
7.3958e-10
4.41887e-09
-4.86186e-17
7.82252e-10
3.97714e-09
-2.33597e-17
8.20409e-10
3.51631e-09
1.24173e-18
8.52936e-10
3.0398e-09
2.50786e-17
8.78556e-10
2.55175e-09
4.76108e-17
8.95788e-10
2.05718e-09
6.56966e-17
9.02901e-10
1.56212e-09
7.1858e-17
8.97864e-10
1.07367e-09
6.66395e-17
8.78204e-10
6.00155e-10
6.60959e-17
8.40928e-10
1.51368e-10
6.36253e-17
7.82877e-10
-2.60865e-10
3.31138e-17
7.00328e-10
-6.22806e-10
-1.43543e-17
5.89056e-10
-9.19221e-10
-6.0442e-17
4.44874e-10
-1.1333e-09
-1.09719e-16
2.64189e-10
-1.24664e-09
-1.49585e-16
4.5819e-11
-1.24056e-09
-1.75085e-16
-2.05056e-10
-1.09858e-09
-1.3678e-16
-4.70212e-10
-8.07975e-10
9.91979e-17
-7.05015e-10
-3.79929e-10
1.92946e-15
-8.10468e-10
-5.74832e-15
-5.66078e-10
3.20935e-10
-5.54305e-10
5.26619e-10
-5.30903e-10
5.96315e-10
-3.30656e-10
5.64112e-10
-1.03542e-10
4.47938e-10
1.03955e-10
2.61631e-10
2.78669e-10
1.71016e-11
4.20245e-10
-2.75231e-10
5.33167e-10
-6.06567e-10
6.22825e-10
-9.69845e-10
6.94273e-10
-1.35947e-09
7.51655e-10
-1.77104e-09
7.98391e-10
-2.20106e-09
8.37146e-10
-2.64689e-09
8.69898e-10
-3.10644e-09
8.98128e-10
-3.57811e-09
9.22922e-10
-4.06063e-09
9.45063e-10
-4.55297e-09
9.65101e-10
-5.05428e-09
9.83406e-10
-5.56378e-09
1.00021e-09
-6.08079e-09
1.01562e-09
-6.6046e-09
1.0297e-09
-7.13453e-09
1.04241e-09
-7.66984e-09
1.0537e-09
-8.20977e-09
1.06346e-09
-8.75349e-09
1.07157e-09
-9.30011e-09
1.07791e-09
-9.84867e-09
1.08234e-09
-1.03982e-08
1.08473e-09
-1.09475e-08
1.08495e-09
-1.14956e-08
1.08289e-09
-1.20412e-08
1.07844e-09
-1.25831e-08
1.07153e-09
-1.31201e-08
1.06207e-09
-1.36509e-08
1.05004e-09
-1.41741e-08
1.03539e-09
-1.46886e-08
1.01814e-09
-1.5193e-08
9.98283e-10
-1.56861e-08
9.75869e-10
-1.61666e-08
9.50949e-10
-1.66333e-08
9.23598e-10
-1.70851e-08
8.93906e-10
-1.75208e-08
8.6198e-10
-1.79393e-08
8.27941e-10
-1.83398e-08
7.91921e-10
-1.87213e-08
7.54065e-10
-1.9083e-08
7.14523e-10
-1.9424e-08
6.73456e-10
-1.97437e-08
6.31027e-10
-2.00415e-08
5.87405e-10
-2.03168e-08
5.42758e-10
-2.05693e-08
4.97257e-10
-2.07986e-08
4.5107e-10
-2.10044e-08
4.04365e-10
-2.11864e-08
3.57305e-10
-2.13447e-08
3.10049e-10
-2.14792e-08
2.6275e-10
-2.15898e-08
2.15556e-10
-2.16768e-08
1.6861e-10
-2.17402e-08
1.22044e-10
-2.17803e-08
7.59852e-11
-2.17974e-08
3.05492e-11
-2.17917e-08
-1.41601e-11
-2.17638e-08
-5.80542e-11
-2.1714e-08
-1.01049e-10
-2.16429e-08
-1.43061e-10
-2.15509e-08
-1.84013e-10
-2.14386e-08
-2.23836e-10
-2.13066e-08
-2.62467e-10
-2.11555e-08
-2.99854e-10
-2.09858e-08
-3.35953e-10
-2.07984e-08
-3.70725e-10
-2.05937e-08
-4.0414e-10
-2.03726e-08
-4.36173e-10
-2.01356e-08
-4.66806e-10
-1.98835e-08
-4.96027e-10
-1.96169e-08
-5.23828e-10
-1.93367e-08
-5.50206e-10
-1.90433e-08
-5.75162e-10
-1.87377e-08
-5.98703e-10
-1.84204e-08
-6.20837e-10
-1.80921e-08
-6.41578e-10
-1.77535e-08
-6.60941e-10
-1.74053e-08
-6.78946e-10
-1.70481e-08
-6.95613e-10
-1.66827e-08
-7.10967e-10
-1.63095e-08
-7.25032e-10
-1.59294e-08
-7.37836e-10
-1.55427e-08
-7.4941e-10
-1.51503e-08
-7.59782e-10
-1.47526e-08
-7.68987e-10
-1.43502e-08
-7.77056e-10
-1.39436e-08
-7.84024e-10
-1.35335e-08
-7.89926e-10
-1.31202e-08
-7.94798e-10
-1.27044e-08
-7.98676e-10
-1.22865e-08
-8.01599e-10
-1.1867e-08
-8.03603e-10
-1.14462e-08
-8.04726e-10
-1.10247e-08
-8.05006e-10
-1.06029e-08
-8.04483e-10
-1.01812e-08
-8.03194e-10
-9.75983e-09
-8.01178e-10
-9.3393e-09
-7.98474e-10
-8.91991e-09
-7.9512e-10
-8.50198e-09
-7.91155e-10
-8.08582e-09
-7.86616e-10
-7.67173e-09
-7.81542e-10
-7.25996e-09
-7.7597e-10
-6.85078e-09
-7.69938e-10
-6.44441e-09
-7.6348e-10
-6.04109e-09
-7.56635e-10
-5.64102e-09
-7.49437e-10
-5.24437e-09
-7.41921e-10
-4.85132e-09
-7.34121e-10
-4.46202e-09
-7.2607e-10
-4.07661e-09
-7.17801e-10
-3.69521e-09
-7.09345e-10
-3.31792e-09
-7.00733e-10
-2.94484e-09
-6.91994e-10
-2.57605e-09
-6.83156e-10
-2.2116e-09
-6.74248e-10
-1.85154e-09
-6.65296e-10
-1.49591e-09
-6.56325e-10
-1.14473e-09
-6.47364e-10
-7.97995e-10
-6.38441e-10
-4.55704e-10
-6.29579e-10
-1.17816e-10
-6.20823e-10
2.15595e-10
-6.12109e-10
5.44399e-10
-6.03369e-10
8.68589e-10
-5.94598e-10
1.18819e-09
-5.85767e-10
1.5032e-09
-5.76918e-10
1.81359e-09
-5.68076e-10
2.11933e-09
-5.5923e-10
2.42038e-09
-5.50359e-10
2.7167e-09
-5.41434e-10
3.00821e-09
-5.32421e-10
3.29483e-09
-5.23279e-10
3.57645e-09
-5.13961e-10
3.85293e-09
-5.04417e-10
4.12411e-09
-4.94588e-10
4.38978e-09
-4.84412e-10
4.64973e-09
-4.73819e-10
4.90367e-09
-4.62735e-10
5.1513e-09
-4.5108e-10
5.39226e-09
-4.38768e-10
5.62616e-09
-4.2571e-10
5.85253e-09
-4.11811e-10
6.07089e-09
-3.96974e-10
6.28067e-09
-3.81099e-10
6.48128e-09
-3.64083e-10
6.67206e-09
-3.45823e-10
6.85229e-09
-3.26217e-10
7.02122e-09
-3.05163e-10
7.17801e-09
-2.82563e-10
7.32181e-09
-2.58324e-10
7.4517e-09
-2.32358e-10
7.56672e-09
-2.04587e-10
7.66589e-09
-1.74942e-10
7.74817e-09
-1.43368e-10
7.8125e-09
-1.09827e-10
7.85782e-09
-7.42985e-11
7.883e-09
-3.67828e-11
7.88698e-09
2.71544e-12
7.86868e-09
4.42084e-11
7.82706e-09
8.76717e-11
7.76111e-09
1.33018e-10
7.66987e-09
1.8013e-10
7.55245e-09
2.28855e-10
7.40805e-09
2.79006e-10
7.23598e-09
3.30351e-10
7.03569e-09
3.82616e-10
6.80679e-09
4.35479e-10
6.54908e-09
4.88562e-10
6.26258e-09
5.41429e-10
5.94756e-09
5.93579e-10
5.60459e-09
6.44437e-10
5.23457e-09
6.93347e-10
4.83877e-09
7.39565e-10
4.4189e-09
7.82237e-10
3.97717e-09
8.20393e-10
3.51634e-09
8.52921e-10
3.03982e-09
8.78541e-10
2.55177e-09
8.95772e-10
2.0572e-09
9.02885e-10
1.56213e-09
8.97848e-10
1.07369e-09
8.78187e-10
6.00169e-10
8.4091e-10
1.51381e-10
7.82858e-10
-2.60854e-10
7.00307e-10
-6.22798e-10
5.89033e-10
-9.19216e-10
4.44848e-10
-1.1333e-09
2.64161e-10
-1.24665e-09
4.57852e-11
-1.24057e-09
-2.05096e-10
-1.0986e-09
-4.70262e-10
-8.08035e-10
-7.05078e-10
-3.8006e-10
-8.10547e-10
-5.66154e-10
2.49351e-10
4.00302e-14
-8.04696e-10
3.15089e-10
2.76083e-15
-5.97791e-10
2.6448e-10
1.87841e-15
-2.80436e-10
1.42778e-10
6.38765e-16
1.78892e-11
-3.30611e-11
-2.00116e-16
2.79577e-10
-2.54833e-10
-6.3532e-16
5.00256e-10
-5.16878e-10
-8.59001e-16
6.82129e-10
-8.14211e-10
-9.22346e-16
8.30354e-10
-1.14227e-09
-8.95077e-16
9.50748e-10
-1.49693e-09
-8.35748e-16
1.04881e-09
-1.87463e-09
-7.70059e-16
1.12925e-09
-2.27234e-09
-7.01456e-16
1.19599e-09
-2.68748e-09
-6.30673e-16
1.25218e-09
-3.11792e-09
-5.60207e-16
1.30024e-09
-3.56193e-09
-4.92824e-16
1.34205e-09
-4.01808e-09
-4.3015e-16
1.37899e-09
-4.4852e-09
-3.72134e-16
1.41209e-09
-4.96226e-09
-3.19317e-16
1.44208e-09
-5.4484e-09
-2.71294e-16
1.46946e-09
-5.94281e-09
-2.28255e-16
1.49455e-09
-6.44476e-09
-1.90444e-16
1.5175e-09
-6.95351e-09
-1.58051e-16
1.53838e-09
-7.46832e-09
-1.31185e-16
1.55716e-09
-7.98845e-09
-1.09223e-16
1.57376e-09
-8.51309e-09
-9.18657e-17
1.58803e-09
-9.0414e-09
-7.81384e-17
1.59982e-09
-9.5725e-09
-6.74175e-17
1.60895e-09
-1.01054e-08
-5.90798e-17
1.61523e-09
-1.06392e-08
-5.23122e-17
1.61846e-09
-1.11728e-08
-4.67623e-17
1.61848e-09
-1.17051e-08
-4.20778e-17
1.61511e-09
-1.22349e-08
-3.78522e-17
1.60823e-09
-1.27611e-08
-3.37875e-17
1.5977e-09
-1.32825e-08
-2.96126e-17
1.58343e-09
-1.37979e-08
-2.51649e-17
1.56535e-09
-1.4306e-08
-2.06072e-17
1.54343e-09
-1.48056e-08
-1.57227e-17
1.51767e-09
-1.52954e-08
-1.05927e-17
1.48807e-09
-1.57743e-08
-5.19021e-18
1.4547e-09
-1.6241e-08
2.6788e-19
1.41764e-09
-1.66944e-08
6.02544e-18
1.37698e-09
-1.71334e-08
1.18385e-17
1.33286e-09
-1.75569e-08
1.77611e-17
1.28544e-09
-1.79639e-08
2.37119e-17
1.23488e-09
-1.83534e-08
2.96909e-17
1.18139e-09
-1.87246e-08
3.55896e-17
1.12516e-09
-1.90765e-08
4.15705e-17
1.06642e-09
-1.94085e-08
4.74981e-17
1.0054e-09
-1.97198e-08
5.3318e-17
9.42342e-10
-2.001e-08
5.8949e-17
8.77483e-10
-2.02783e-08
6.46619e-17
8.11075e-10
-2.05245e-08
7.01045e-17
7.43365e-10
-2.0748e-08
7.55205e-17
6.74602e-10
-2.09487e-08
8.06931e-17
6.0503e-10
-2.11264e-08
8.57848e-17
5.34889e-10
-2.12808e-08
9.06601e-17
4.64412e-10
-2.14119e-08
9.54546e-17
3.93826e-10
-2.15197e-08
1.0006e-16
3.23348e-10
-2.16043e-08
1.04502e-16
2.53185e-10
-2.16658e-08
1.08728e-16
1.83534e-10
-2.17045e-08
1.12684e-16
1.1458e-10
-2.17204e-08
1.16748e-16
4.6494e-11
-2.17141e-08
1.20541e-16
-2.0567e-11
-2.16857e-08
1.24199e-16
-8.64579e-11
-2.16358e-08
1.27775e-16
-1.51044e-10
-2.15646e-08
1.31108e-16
-2.14203e-10
-2.14729e-08
1.3417e-16
-2.7582e-10
-2.1361e-08
1.37042e-16
-3.35795e-10
-2.12294e-08
1.39589e-16
-3.94036e-10
-2.10789e-08
1.41973e-16
-4.50463e-10
-2.09098e-08
1.44059e-16
-5.05011e-10
-2.0723e-08
1.4582e-16
-5.5762e-10
-2.05189e-08
1.47391e-16
-6.08243e-10
-2.02983e-08
1.48854e-16
-6.56843e-10
-2.00618e-08
1.50073e-16
-7.0339e-10
-1.981e-08
1.51048e-16
-7.47864e-10
-1.95436e-08
1.51941e-16
-7.9025e-10
-1.92633e-08
1.52618e-16
-8.30542e-10
-1.89698e-08
1.53105e-16
-8.68742e-10
-1.86636e-08
1.53538e-16
-9.04854e-10
-1.83456e-08
1.53862e-16
-9.38892e-10
-1.80164e-08
1.54078e-16
-9.70871e-10
-1.76766e-08
1.54239e-16
-1.00081e-09
-1.73268e-08
1.54401e-16
-1.02875e-09
-1.69678e-08
1.54319e-16
-1.0547e-09
-1.66001e-08
1.54426e-16
-1.0787e-09
-1.62244e-08
1.54073e-16
-1.10079e-09
-1.58413e-08
1.53855e-16
-1.12101e-09
-1.54513e-08
1.53718e-16
-1.13939e-09
-1.50552e-08
1.53473e-16
-1.15599e-09
-1.46534e-08
1.53093e-16
-1.17084e-09
-1.42465e-08
1.52767e-16
-1.184e-09
-1.38351e-08
1.52468e-16
-1.19551e-09
-1.34196e-08
1.52196e-16
-1.20542e-09
-1.30007e-08
1.51788e-16
-1.21379e-09
-1.25787e-08
1.51381e-16
-1.22066e-09
-1.21543e-08
1.51109e-16
-1.2261e-09
-1.17278e-08
1.50919e-16
-1.23014e-09
-1.12997e-08
1.50729e-16
-1.23285e-09
-1.08705e-08
1.5043e-16
-1.23429e-09
-1.04406e-08
1.50403e-16
-1.2345e-09
-1.00103e-08
1.50457e-16
-1.23354e-09
-9.58004e-09
1.50538e-16
-1.23147e-09
-9.15023e-09
1.50701e-16
-1.22834e-09
-8.72119e-09
1.50945e-16
-1.22421e-09
-8.29327e-09
1.51406e-16
-1.21913e-09
-7.86679e-09
1.51894e-16
-1.21316e-09
-7.44203e-09
1.52491e-16
-1.20636e-09
-7.01929e-09
1.53332e-16
-1.19877e-09
-6.59885e-09
1.54309e-16
-1.19045e-09
-6.18093e-09
1.55475e-16
-1.18145e-09
-5.7658e-09
1.56669e-16
-1.17183e-09
-5.35366e-09
1.58189e-16
-1.16164e-09
-4.94471e-09
1.59735e-16
-1.15093e-09
-4.53915e-09
1.61689e-16
-1.13975e-09
-4.13714e-09
1.63534e-16
-1.12814e-09
-3.73884e-09
1.65868e-16
-1.11617e-09
-3.34439e-09
1.68608e-16
-1.10386e-09
-2.95391e-09