/*--------------------------------*- C++ -*----------------------------------*\
  =========                 |
  \\      /  F ield         | OpenFOAM: The Open Source CFD Toolbox
   \\    /   O peration     | Website:  https://openfoam.org
    \\  /    A nd           | Version:  8
     \\/     M anipulation  |
\*---------------------------------------------------------------------------*/
FoamFile
{
    version     2.0;
    format      ascii;
    class       volScalarField;
    location    "2400";
    object      T;
}
// * * * * * * * * * * * * * * * * * * * * * * * * * * * * * * * * * * * * * //

dimensions      [0 0 0 1 0 0 0];

internalField   nonuniform List<scalar> 
46000
(
310.939
310.208
309.514
309.017
308.646
308.349
308.102
307.89
307.705
307.54
307.391
307.256
307.134
307.021
306.917
306.821
306.731
306.649
306.572
306.5
306.433
306.37
306.312
306.257
306.205
306.157
306.112
306.069
306.029
305.992
305.956
305.922
305.891
305.861
305.833
305.806
305.78
305.757
305.734
305.712
305.692
305.673
305.655
305.638
305.622
305.606
305.592
305.579
305.567
305.555
305.545
305.535
305.526
305.518
305.511
305.505
305.5
305.496
305.492
305.49
305.488
305.487
305.487
305.487
305.488
305.491
305.494
305.498
305.503
305.508
305.515
305.523
305.531
305.54
305.55
305.561
305.573
305.585
305.599
305.613
305.628
305.643
305.66
305.677
305.694
305.712
305.731
305.751
305.771
305.792
305.813
305.835
305.857
305.879
305.903
305.926
305.95
305.974
305.998
306.023
306.048
306.073
306.099
306.124
306.15
306.176
306.202
306.228
306.254
306.28
306.306
306.332
306.358
306.384
306.41
306.435
306.461
306.486
306.512
306.537
306.562
306.587
306.612
306.636
306.661
306.685
306.71
306.734
306.758
306.782
306.806
306.83
306.854
306.878
306.902
306.926
306.95
306.974
306.999
307.024
307.049
307.075
307.101
307.127
307.154
307.182
307.21
307.239
307.269
307.3
307.331
307.364
307.398
307.433
307.469
307.506
307.545
307.585
307.627
307.671
307.716
307.763
307.811
307.862
307.914
307.968
308.024
308.081
308.141
308.203
308.267
308.334
308.402
308.473
308.546
308.622
308.699
308.779
308.862
308.946
309.032
309.121
309.212
309.304
309.399
309.495
309.594
309.695
309.799
309.905
310.014
310.129
310.251
310.383
310.529
310.697
310.905
311.175
311.518
311.807
310.939
310.208
309.514
309.017
308.646
308.349
308.102
307.89
307.705
307.54
307.391
307.256
307.133
307.021
306.917
306.821
306.731
306.649
306.572
306.5
306.433
306.37
306.312
306.257
306.205
306.157
306.112
306.069
306.029
305.992
305.956
305.922
305.891
305.861
305.833
305.806
305.78
305.757
305.734
305.712
305.692
305.673
305.655
305.638
305.622
305.606
305.592
305.579
305.567
305.555
305.545
305.535
305.526
305.518
305.511
305.505
305.5
305.496
305.492
305.49
305.488
305.487
305.487
305.487
305.488
305.491
305.494
305.498
305.503
305.508
305.515
305.523
305.531
305.54
305.55
305.561
305.573
305.585
305.599
305.613
305.628
305.643
305.66
305.677
305.694
305.712
305.731
305.751
305.771
305.792
305.813
305.835
305.857
305.879
305.903
305.926
305.95
305.974
305.998
306.023
306.048
306.073
306.099
306.124
306.15
306.176
306.202
306.228
306.254
306.28
306.306
306.332
306.358
306.384
306.41
306.435
306.461
306.486
306.512
306.537
306.562
306.587
306.612
306.636
306.661
306.685
306.71
306.734
306.758
306.782
306.806
306.83
306.854
306.878
306.902
306.926
306.95
306.974
306.999
307.024
307.049
307.075
307.101
307.127
307.154
307.182
307.21
307.239
307.269
307.3
307.331
307.364
307.398
307.433
307.469
307.506
307.545
307.585
307.627
307.671
307.716
307.763
307.811
307.862
307.914
307.968
308.024
308.081
308.141
308.203
308.267
308.334
308.402
308.473
308.546
308.622
308.7
308.779
308.862
308.946
309.032
309.121
309.212
309.304
309.399
309.495
309.594
309.695
309.799
309.905
310.014
310.129
310.251
310.383
310.529
310.697
310.904
311.175
311.518
311.807
307.631
307.073
306.619
306.276
306.008
305.79
305.609
305.453
305.316
305.196
305.089
304.992
304.905
304.825
304.753
304.687
304.627
304.572
304.521
304.475
304.432
304.392
304.356
304.323
304.292
304.263
304.237
304.212
304.189
304.168
304.148
304.13
304.112
304.096
304.081
304.066
304.052
304.039
304.026
304.014
304.002
303.991
303.981
303.97
303.96
303.951
303.941
303.932
303.924
303.915
303.907
303.899
303.892
303.885
303.878
303.872
303.866
303.86
303.854
303.849
303.845
303.84
303.837
303.833
303.83
303.827
303.825
303.823
303.822
303.821
303.821
303.821
303.821
303.823
303.824
303.826
303.829
303.832
303.835
303.839
303.844
303.849
303.854
303.86
303.866
303.873
303.88
303.888
303.896
303.904
303.913
303.923
303.932
303.942
303.953
303.963
303.974
303.986
303.998
304.01
304.022
304.035
304.047
304.061
304.074
304.088
304.102
304.116
304.13
304.145
304.16
304.175
304.19
304.205
304.221
304.236
304.252
304.268
304.285
304.301
304.318
304.334
304.351
304.369
304.386
304.404
304.421
304.439
304.458
304.476
304.495
304.514
304.533
304.553
304.573
304.593
304.614
304.636
304.657
304.68
304.703
304.726
304.75
304.775
304.801
304.827
304.854
304.882
304.912
304.942
304.973
305.005
305.039
305.074
305.11
305.148
305.187
305.227
305.269
305.313
305.359
305.407
305.456
305.507
305.561
305.616
305.673
305.732
305.794
305.858
305.924
305.993
306.063
306.137
306.212
306.29
306.37
306.452
306.537
306.624
306.713
306.804
306.896
306.991
307.087
307.185
307.284
307.385
307.488
307.592
307.699
307.81
307.927
308.053
308.194
308.358
308.559
308.819
309.168
309.536
307.631
307.073
306.619
306.276
306.008
305.79
305.609
305.453
305.316
305.196
305.089
304.992
304.905
304.825
304.753
304.687
304.627
304.572
304.521
304.475
304.432
304.392
304.356
304.323
304.292
304.263
304.237
304.212
304.189
304.168
304.148
304.13
304.112
304.096
304.081
304.066
304.052
304.039
304.026
304.014
304.002
303.991
303.981
303.97
303.96
303.951
303.941
303.932
303.924
303.915
303.907
303.899
303.892
303.885
303.878
303.872
303.866
303.86
303.854
303.849
303.845
303.841
303.837
303.833
303.83
303.827
303.825
303.823
303.822
303.821
303.821
303.821
303.822
303.823
303.824
303.826
303.829
303.832
303.835
303.839
303.844
303.849
303.854
303.86
303.866
303.873
303.88
303.888
303.896
303.904
303.913
303.923
303.932
303.942
303.953
303.963
303.974
303.986
303.998
304.01
304.022
304.035
304.048
304.061
304.074
304.088
304.102
304.116
304.13
304.145
304.16
304.175
304.19
304.205
304.221
304.236
304.252
304.268
304.285
304.301
304.318
304.335
304.351
304.369
304.386
304.404
304.421
304.439
304.458
304.476
304.495
304.514
304.533
304.553
304.573
304.593
304.614
304.636
304.657
304.68
304.703
304.726
304.75
304.775
304.801
304.827
304.854
304.883
304.912
304.942
304.973
305.005
305.039
305.074
305.11
305.148
305.187
305.227
305.269
305.313
305.359
305.407
305.456
305.507
305.561
305.616
305.673
305.733
305.794
305.858
305.924
305.993
306.063
306.137
306.212
306.29
306.37
306.452
306.537
306.624
306.713
306.804
306.896
306.991
307.087
307.185
307.284
307.385
307.488
307.592
307.699
307.81
307.927
308.053
308.194
308.358
308.559
308.819
309.168
309.536
305.725
305.505
305.275
305.066
304.883
304.724
304.584
304.46
304.35
304.252
304.163
304.083
304.011
303.945
303.885
303.831
303.781
303.735
303.694
303.656
303.622
303.59
303.561
303.535
303.511
303.488
303.468
303.449
303.432
303.416
303.401
303.387
303.375
303.362
303.351
303.34
303.33
303.32
303.311
303.302
303.293
303.285
303.276
303.268
303.26
303.252
303.245
303.237
303.23
303.223
303.216
303.209
303.202
303.195
303.189
303.182
303.176
303.17
303.164
303.159
303.154
303.149
303.144
303.139
303.135
303.131
303.127
303.124
303.121
303.118
303.116
303.114
303.112
303.111
303.11
303.11
303.11
303.11
303.111
303.112
303.114
303.116
303.118
303.121
303.124
303.127
303.131
303.136
303.14
303.145
303.151
303.156
303.162
303.169
303.176
303.183
303.19
303.198
303.206
303.215
303.223
303.233
303.242
303.252
303.261
303.272
303.282
303.293
303.304
303.315
303.327
303.339
303.351
303.363
303.375
303.388
303.401
303.415
303.428
303.442
303.456
303.47
303.485
303.5
303.515
303.53
303.546
303.562
303.579
303.595
303.613
303.63
303.648
303.666
303.685
303.704
303.724
303.744
303.765
303.786
303.808
303.831
303.854
303.879
303.904
303.929
303.956
303.984
304.013
304.042
304.073
304.105
304.139
304.173
304.209
304.247
304.285
304.326
304.368
304.412
304.457
304.504
304.554
304.605
304.658
304.713
304.77
304.829
304.89
304.954
305.019
305.087
305.158
305.23
305.305
305.382
305.461
305.542
305.625
305.71
305.797
305.886
305.976
306.067
306.16
306.254
306.349
306.444
306.541
306.638
306.736
306.837
306.94
307.048
307.163
307.289
307.431
307.593
307.783
307.978
305.725
305.505
305.275
305.066
304.883
304.724
304.584
304.46
304.35
304.252
304.163
304.083
304.011
303.945
303.885
303.83
303.781
303.735
303.694
303.656
303.622
303.59
303.561
303.535
303.511
303.488
303.468
303.449
303.432
303.416
303.401
303.387
303.375
303.362
303.351
303.34
303.33
303.32
303.311
303.302
303.293
303.285
303.276
303.268
303.26
303.253
303.245
303.237
303.23
303.223
303.216
303.209
303.202
303.195
303.189
303.182
303.176
303.17
303.164
303.159
303.154
303.149
303.144
303.139
303.135
303.131
303.127
303.124
303.121
303.118
303.116
303.114
303.112
303.111
303.11
303.11
303.11
303.11
303.111
303.112
303.114
303.116
303.118
303.121
303.124
303.127
303.131
303.136
303.14
303.145
303.151
303.156
303.162
303.169
303.176
303.183
303.19
303.198
303.206
303.215
303.223
303.233
303.242
303.252
303.261
303.272
303.282
303.293
303.304
303.315
303.327
303.339
303.351
303.363
303.375
303.388
303.401
303.415
303.428
303.442
303.456
303.47
303.485
303.5
303.515
303.53
303.546
303.562
303.579
303.595
303.613
303.63
303.648
303.666
303.685
303.704
303.724
303.744
303.765
303.786
303.808
303.831
303.854
303.879
303.904
303.929
303.956
303.984
304.013
304.042
304.073
304.105
304.139
304.173
304.209
304.247
304.285
304.326
304.368
304.412
304.457
304.504
304.554
304.605
304.658
304.713
304.77
304.829
304.89
304.954
305.019
305.087
305.158
305.23
305.305
305.382
305.461
305.542
305.625
305.71
305.797
305.886
305.976
306.067
306.16
306.254
306.349
306.444
306.541
306.638
306.736
306.837
306.94
307.048
307.163
307.289
307.431
307.593
307.783
307.978
304.617
304.541
304.425
304.298
304.173
304.055
303.947
303.847
303.757
303.674
303.599
303.53
303.468
303.411
303.359
303.311
303.268
303.229
303.193
303.16
303.131
303.104
303.079
303.056
303.036
303.017
303
302.985
302.97
302.957
302.945
302.934
302.924
302.914
302.905
302.896
302.888
302.88
302.872
302.865
302.858
302.851
302.844
302.837
302.83
302.823
302.817
302.81
302.803
302.797
302.79
302.784
302.777
302.771
302.765
302.759
302.753
302.747
302.741
302.735
302.73
302.724
302.719
302.714
302.709
302.705
302.7
302.696
302.692
302.689
302.686
302.683
302.68
302.678
302.676
302.675
302.673
302.673
302.672
302.672
302.672
302.673
302.674
302.675
302.677
302.679
302.681
302.684
302.687
302.69
302.694
302.698
302.703
302.708
302.713
302.718
302.724
302.73
302.737
302.744
302.751
302.758
302.766
302.774
302.782
302.791
302.8
302.809
302.818
302.828
302.838
302.848
302.859
302.87
302.881
302.893
302.904
302.916
302.929
302.941
302.954
302.967
302.981
302.994
303.009
303.023
303.038
303.053
303.068
303.084
303.101
303.117
303.134
303.152
303.17
303.189
303.208
303.227
303.248
303.268
303.29
303.312
303.335
303.359
303.384
303.409
303.435
303.463
303.491
303.521
303.551
303.583
303.616
303.651
303.686
303.723
303.762
303.802
303.844
303.888
303.933
303.98
304.029
304.08
304.132
304.187
304.244
304.302
304.363
304.426
304.491
304.559
304.628
304.7
304.774
304.85
304.927
305.007
305.089
305.172
305.257
305.344
305.432
305.52
305.61
305.7
305.791
305.882
305.973
306.064
306.155
306.247
306.338
306.431
306.525
306.622
306.72
306.816
306.905
306.977
304.617
304.541
304.425
304.298
304.173
304.055
303.947
303.847
303.757
303.674
303.599
303.53
303.468
303.411
303.359
303.311
303.268
303.229
303.193
303.16
303.131
303.103
303.079
303.056
303.036
303.017
303
302.985
302.97
302.957
302.945
302.934
302.924
302.914
302.905
302.896
302.888
302.88
302.872
302.865
302.858
302.851
302.844
302.837
302.83
302.823
302.817
302.81
302.803
302.797
302.79
302.784
302.777
302.771
302.765
302.759
302.753
302.747
302.741
302.735
302.73
302.724
302.719
302.714
302.709
302.705
302.7
302.696
302.692
302.689
302.686
302.683
302.68
302.678
302.676
302.675
302.673
302.673
302.672
302.672
302.672
302.673
302.674
302.675
302.677
302.679
302.681
302.684
302.687
302.69
302.694
302.698
302.703
302.708
302.713
302.718
302.724
302.73
302.737
302.744
302.751
302.758
302.766
302.774
302.782
302.791
302.8
302.809
302.818
302.828
302.838
302.849
302.859
302.87
302.881
302.893
302.904
302.916
302.929
302.941
302.954
302.967
302.981
302.994
303.009
303.023
303.038
303.053
303.068
303.084
303.101
303.117
303.134
303.152
303.17
303.189
303.208
303.227
303.248
303.268
303.29
303.312
303.335
303.359
303.384
303.409
303.435
303.463
303.491
303.521
303.551
303.583
303.616
303.651
303.686
303.723
303.762
303.802
303.844
303.888
303.933
303.98
304.029
304.08
304.132
304.187
304.244
304.302
304.363
304.426
304.491
304.559
304.628
304.7
304.774
304.85
304.927
305.007
305.089
305.172
305.257
305.344
305.432
305.52
305.61
305.7
305.791
305.882
305.973
306.064
306.155
306.247
306.338
306.431
306.525
306.622
306.72
306.816
306.905
306.977
303.895
303.868
303.806
303.726
303.64
303.553
303.469
303.389
303.314
303.245
303.181
303.121
303.067
303.017
302.972
302.93
302.892
302.858
302.826
302.797
302.771
302.747
302.726
302.706
302.689
302.673
302.658
302.645
302.633
302.621
302.611
302.602
302.593
302.585
302.577
302.57
302.563
302.557
302.55
302.544
302.538
302.532
302.526
302.52
302.514
302.508
302.502
302.496
302.49
302.484
302.478
302.472
302.466
302.46
302.454
302.448
302.442
302.436
302.43
302.424
302.419
302.413
302.408
302.403
302.398
302.393
302.388
302.384
302.38
302.376
302.372
302.368
302.365
302.363
302.36
302.358
302.356
302.354
302.353
302.352
302.352
302.351
302.351
302.352
302.353
302.354
302.355
302.357
302.359
302.362
302.364
302.368
302.371
302.375
302.379
302.384
302.389
302.394
302.399
302.405
302.411
302.418
302.424
302.431
302.439
302.446
302.454
302.463
302.471
302.48
302.489
302.499
302.508
302.518
302.529
302.539
302.55
302.562
302.573
302.585
302.597
302.609
302.622
302.635
302.649
302.663
302.677
302.691
302.706
302.722
302.737
302.753
302.77
302.787
302.805
302.823
302.841
302.861
302.881
302.901
302.922
302.944
302.967
302.99
303.014
303.04
303.066
303.093
303.121
303.15
303.181
303.212
303.245
303.279
303.315
303.352
303.39
303.43
303.472
303.515
303.56
303.607
303.655
303.706
303.758
303.812
303.868
303.927
303.987
304.05
304.114
304.181
304.249
304.32
304.393
304.468
304.544
304.623
304.703
304.785
304.868
304.952
305.037
305.123
305.21
305.297
305.384
305.471
305.557
305.642
305.727
305.81
305.892
305.972
306.049
306.124
306.193
306.251
306.292
306.309
303.895
303.868
303.806
303.726
303.64
303.553
303.469
303.389
303.314
303.245
303.181
303.121
303.067
303.017
302.972
302.93
302.892
302.858
302.826
302.797
302.771
302.747
302.726
302.706
302.689
302.673
302.658
302.645
302.633
302.621
302.611
302.602
302.593
302.585
302.577
302.57
302.563
302.557
302.55
302.544
302.538
302.532
302.526
302.52
302.514
302.508
302.502
302.496
302.49
302.484
302.478
302.472
302.466
302.46
302.454
302.448
302.442
302.436
302.43
302.425
302.419
302.413
302.408
302.403
302.398
302.393
302.388
302.384
302.38
302.376
302.372
302.368
302.365
302.363
302.36
302.358
302.356
302.354
302.353
302.352
302.352
302.351
302.351
302.352
302.353
302.354
302.355
302.357
302.359
302.362
302.364
302.368
302.371
302.375
302.379
302.384
302.389
302.394
302.399
302.405
302.411
302.418
302.424
302.431
302.439
302.446
302.454
302.463
302.471
302.48
302.489
302.499
302.508
302.518
302.529
302.539
302.55
302.562
302.573
302.585
302.597
302.609
302.622
302.635
302.649
302.663
302.677
302.691
302.706
302.722
302.737
302.753
302.77
302.787
302.805
302.823
302.841
302.861
302.881
302.901
302.922
302.944
302.967
302.99
303.014
303.04
303.066
303.093
303.121
303.15
303.181
303.212
303.245
303.279
303.315
303.352
303.39
303.43
303.472
303.515
303.56
303.607
303.655
303.705
303.758
303.812
303.868
303.927
303.987
304.05
304.114
304.181
304.249
304.32
304.393
304.468
304.544
304.623
304.703
304.785
304.868
304.952
305.037
305.123
305.21
305.297
305.384
305.471
305.557
305.642
305.727
305.81
305.892
305.972
306.049
306.124
306.193
306.251
306.292
306.308
303.369
303.359
303.322
303.27
303.209
303.144
303.078
303.014
302.953
302.895
302.84
302.789
302.742
302.699
302.659
302.622
302.588
302.558
302.53
302.504
302.481
302.46
302.442
302.424
302.409
302.395
302.382
302.371
302.36
302.351
302.342
302.334
302.327
302.32
302.314
302.308
302.302
302.296
302.291
302.286
302.281
302.275
302.27
302.265
302.26
302.254
302.249
302.244
302.238
302.232
302.227
302.221
302.215
302.21
302.204
302.198
302.192
302.186
302.181
302.175
302.169
302.164
302.158
302.153
302.148
302.143
302.138
302.133
302.129
302.124
302.12
302.117
302.113
302.11
302.107
302.104
302.102
302.1
302.098
302.096
302.095
302.094
302.094
302.094
302.094
302.095
302.095
302.097
302.098
302.1
302.102
302.105
302.107
302.111
302.114
302.118
302.122
302.127
302.131
302.137
302.142
302.148
302.154
302.16
302.167
302.174
302.181
302.189
302.197
302.205
302.214
302.222
302.232
302.241
302.251
302.261
302.271
302.282
302.293
302.304
302.316
302.328
302.34
302.353
302.366
302.379
302.393
302.407
302.421
302.436
302.451
302.467
302.483
302.5
302.517
302.535
302.553
302.572
302.592
302.612
302.633
302.655
302.677
302.7
302.724
302.749
302.775
302.802
302.83
302.859
302.889
302.92
302.953
302.987
303.022
303.059
303.097
303.137
303.178
303.221
303.266
303.312
303.36
303.41
303.462
303.516
303.572
303.63
303.69
303.752
303.816
303.881
303.949
304.019
304.091
304.164
304.24
304.317
304.395
304.475
304.556
304.639
304.722
304.805
304.889
304.972
305.056
305.138
305.22
305.3
305.379
305.455
305.528
305.598
305.664
305.723
305.774
305.812
305.831
305.827
303.369
303.359
303.322
303.27
303.209
303.144
303.078
303.014
302.953
302.894
302.84
302.789
302.742
302.699
302.659
302.622
302.588
302.558
302.53
302.504
302.481
302.46
302.441
302.424
302.409
302.395
302.382
302.371
302.36
302.351
302.342
302.334
302.327
302.32
302.314
302.308
302.302
302.296
302.291
302.286
302.281
302.275
302.27
302.265
302.26
302.254
302.249
302.244
302.238
302.232
302.227
302.221
302.215
302.21
302.204
302.198
302.192
302.186
302.181
302.175
302.169
302.164
302.158
302.153
302.148
302.143
302.138
302.133
302.129
302.124
302.12
302.117
302.113
302.11
302.107
302.104
302.102
302.1
302.098
302.096
302.095
302.094
302.094
302.094
302.094
302.095
302.095
302.097
302.098
302.1
302.102
302.105
302.107
302.111
302.114
302.118
302.122
302.127
302.131
302.137
302.142
302.148
302.154
302.16
302.167
302.174
302.181
302.189
302.197
302.205
302.214
302.222
302.232
302.241
302.251
302.261
302.271
302.282
302.293
302.304
302.316
302.328
302.34
302.353
302.366
302.379
302.393
302.407
302.421
302.436
302.451
302.467
302.483
302.5
302.517
302.535
302.553
302.572
302.592
302.612
302.633
302.655
302.677
302.7
302.724
302.749
302.775
302.802
302.83
302.859
302.889
302.92
302.953
302.987
303.022
303.059
303.097
303.137
303.178
303.221
303.266
303.312
303.36
303.41
303.462
303.516
303.572
303.63
303.69
303.752
303.816
303.881
303.949
304.019
304.091
304.164
304.24
304.317
304.395
304.475
304.556
304.639
304.722
304.805
304.889
304.972
305.056
305.138
305.22
305.3
305.379
305.455
305.528
305.598
305.664
305.723
305.774
305.812
305.831
305.827
302.955
302.95
302.927
302.891
302.846
302.797
302.745
302.693
302.643
302.594
302.548
302.504
302.463
302.426
302.391
302.358
302.329
302.302
302.277
302.255
302.234
302.216
302.199
302.184
302.171
302.159
302.148
302.138
302.129
302.121
302.113
302.107
302.101
302.095
302.089
302.084
302.08
302.075
302.07
302.066
302.061
302.057
302.052
302.048
302.043
302.038
302.033
302.028
302.023
302.018
302.013
302.007
302.002
301.996
301.991
301.985
301.98
301.974
301.968
301.963
301.957
301.951
301.946
301.94
301.935
301.93
301.925
301.92
301.916
301.911
301.907
301.903
301.899
301.896
301.892
301.889
301.887
301.884
301.882
301.88
301.879
301.877
301.876
301.876
301.876
301.876
301.876
301.877
301.878
301.879
301.881
301.883
301.885
301.888
301.891
301.894
301.898
301.902
301.906
301.911
301.916
301.921
301.927
301.932
301.939
301.945
301.952
301.959
301.967
301.974
301.982
301.991
301.999
302.008
302.018
302.027
302.037
302.048
302.058
302.069
302.08
302.092
302.104
302.116
302.129
302.142
302.155
302.169
302.183
302.197
302.212
302.228
302.244
302.26
302.277
302.295
302.313
302.331
302.351
302.371
302.391
302.413
302.435
302.458
302.482
302.506
302.532
302.559
302.586
302.615
302.645
302.676
302.709
302.742
302.778
302.814
302.852
302.892
302.933
302.975
303.02
303.066
303.114
303.164
303.215
303.269
303.324
303.381
303.441
303.502
303.565
303.63
303.697
303.766
303.837
303.909
303.983
304.059
304.136
304.214
304.293
304.373
304.454
304.535
304.616
304.696
304.776
304.855
304.933
305.008
305.082
305.152
305.218
305.28
305.337
305.386
305.426
305.453
305.464
305.455
302.955
302.95
302.927
302.891
302.846
302.797
302.745
302.693
302.643
302.594
302.548
302.504
302.463
302.426
302.391
302.358
302.329
302.302
302.277
302.255
302.234
302.216
302.199
302.184
302.171
302.159
302.148
302.138
302.129
302.121
302.113
302.107
302.101
302.095
302.089
302.084
302.08
302.075
302.07
302.066
302.061
302.057
302.052
302.048
302.043
302.038
302.033
302.028
302.023
302.018
302.013
302.007
302.002
301.996
301.991
301.985
301.98
301.974
301.968
301.963
301.957
301.951
301.946
301.94
301.935
301.93
301.925
301.92
301.916
301.911
301.907
301.903
301.899
301.896
301.892
301.889
301.887
301.884
301.882
301.88
301.879
301.877
301.876
301.876
301.876
301.876
301.876
301.877
301.878
301.879
301.881
301.883
301.885
301.888
301.891
301.894
301.898
301.902
301.906
301.911
301.916
301.921
301.927
301.932
301.939
301.945
301.952
301.959
301.967
301.974
301.982
301.991
301.999
302.008
302.018
302.027
302.037
302.048
302.058
302.069
302.08
302.092
302.104
302.116
302.129
302.142
302.155
302.169
302.183
302.197
302.212
302.228
302.244
302.26
302.277
302.295
302.313
302.331
302.351
302.371
302.391
302.413
302.435
302.458
302.482
302.506
302.532
302.559
302.586
302.615
302.645
302.676
302.709
302.742
302.778
302.814
302.852
302.891
302.933
302.975
303.02
303.066
303.114
303.164
303.215
303.269
303.324
303.381
303.441
303.502
303.565
303.63
303.697
303.766
303.837
303.909
303.983
304.059
304.136
304.214
304.293
304.373
304.454
304.535
304.616
304.697
304.776
304.855
304.933
305.008
305.082
305.152
305.218
305.28
305.337
305.386
305.425
305.453
305.464
305.455
302.612
302.608
302.592
302.566
302.532
302.494
302.453
302.411
302.369
302.328
302.289
302.252
302.217
302.184
302.153
302.125
302.099
302.075
302.054
302.034
302.016
302
301.985
301.972
301.96
301.95
301.94
301.932
301.924
301.918
301.911
301.906
301.901
301.896
301.891
301.887
301.883
301.879
301.875
301.872
301.868
301.864
301.86
301.856
301.852
301.847
301.843
301.838
301.834
301.829
301.824
301.819
301.814
301.808
301.803
301.798
301.792
301.787
301.781
301.775
301.77
301.764
301.759
301.753
301.748
301.743
301.738
301.733
301.728
301.724
301.719
301.715
301.711
301.707
301.704
301.7
301.697
301.695
301.692
301.69
301.688
301.687
301.685
301.684
301.684
301.684
301.684
301.684
301.685
301.685
301.687
301.688
301.69
301.693
301.695
301.698
301.701
301.705
301.709
301.713
301.718
301.723
301.728
301.733
301.739
301.745
301.752
301.758
301.766
301.773
301.781
301.789
301.797
301.806
301.815
301.824
301.833
301.843
301.854
301.864
301.875
301.886
301.898
301.91
301.922
301.935
301.948
301.961
301.975
301.99
302.004
302.02
302.035
302.052
302.068
302.086
302.103
302.122
302.141
302.161
302.181
302.202
302.224
302.247
302.271
302.295
302.321
302.347
302.375
302.404
302.433
302.464
302.497
302.53
302.565
302.601
302.639
302.678
302.719
302.762
302.806
302.852
302.899
302.949
303
303.053
303.108
303.165
303.224
303.284
303.347
303.411
303.478
303.546
303.615
303.687
303.759
303.834
303.909
303.985
304.063
304.141
304.219
304.298
304.376
304.454
304.53
304.606
304.68
304.751
304.82
304.885
304.946
305.002
305.052
305.094
305.128
305.15
305.158
305.15
302.612
302.608
302.592
302.566
302.532
302.494
302.453
302.411
302.369
302.328
302.289
302.252
302.217
302.184
302.153
302.125
302.099
302.075
302.054
302.034
302.016
302
301.985
301.972
301.96
301.95
301.94
301.932
301.924
301.917
301.911
301.906
301.901
301.896
301.891
301.887
301.883
301.879
301.875
301.872
301.868
301.864
301.86
301.856
301.852
301.847
301.843
301.838
301.834
301.829
301.824
301.819
301.814
301.808
301.803
301.798
301.792
301.787
301.781
301.775
301.77
301.764
301.759
301.753
301.748
301.743
301.738
301.733
301.728
301.724
301.719
301.715
301.711
301.707
301.704
301.7
301.697
301.695
301.692
301.69
301.688
301.687
301.685
301.684
301.684
301.684
301.684
301.684
301.685
301.685
301.687
301.688
301.69
301.693
301.695
301.698
301.701
301.705
301.709
301.713
301.718
301.723
301.728
301.733
301.739
301.745
301.752
301.758
301.766
301.773
301.781
301.789
301.797
301.806
301.815
301.824
301.833
301.843
301.854
301.864
301.875
301.886
301.898
301.91
301.922
301.935
301.948
301.961
301.975
301.99
302.004
302.02
302.035
302.052
302.068
302.086
302.103
302.122
302.141
302.161
302.181
302.202
302.224
302.247
302.271
302.295
302.321
302.347
302.375
302.404
302.433
302.464
302.497
302.53
302.565
302.601
302.639
302.678
302.719
302.762
302.806
302.852
302.899
302.949
303
303.053
303.108
303.165
303.224
303.284
303.347
303.411
303.478
303.546
303.615
303.687
303.759
303.834
303.909
303.985
304.063
304.141
304.219
304.298
304.376
304.454
304.53
304.606
304.68
304.751
304.82
304.885
304.946
305.002
305.052
305.094
305.128
305.15
305.158
305.15
302.318
302.314
302.301
302.281
302.255
302.225
302.192
302.157
302.123
302.089
302.055
302.024
301.993
301.965
301.938
301.914
301.891
301.87
301.851
301.834
301.818
301.804
301.791
301.78
301.77
301.761
301.753
301.746
301.739
301.734
301.728
301.724
301.72
301.716
301.712
301.709
301.705
301.702
301.699
301.696
301.693
301.689
301.686
301.682
301.679
301.675
301.671
301.667
301.662
301.658
301.653
301.648
301.643
301.638
301.633
301.628
301.623
301.617
301.612
301.606
301.601
301.595
301.59
301.584
301.579
301.574
301.569
301.564
301.559
301.554
301.55
301.545
301.541
301.537
301.534
301.53
301.527
301.524
301.521
301.519
301.517
301.515
301.513
301.512
301.511
301.511
301.51
301.51
301.511
301.511
301.512
301.514
301.515
301.517
301.52
301.522
301.525
301.528
301.532
301.536
301.54
301.545
301.549
301.555
301.56
301.566
301.572
301.578
301.585
301.592
301.6
301.607
301.615
301.624
301.633
301.642
301.651
301.66
301.67
301.681
301.691
301.702
301.714
301.726
301.738
301.75
301.763
301.776
301.79
301.804
301.819
301.834
301.849
301.865
301.882
301.899
301.916
301.935
301.954
301.973
301.993
302.015
302.036
302.059
302.083
302.107
302.132
302.159
302.186
302.215
302.244
302.275
302.307
302.341
302.375
302.412
302.449
302.488
302.529
302.571
302.615
302.661
302.708
302.757
302.808
302.861
302.915
302.972
303.03
303.09
303.152
303.216
303.281
303.348
303.417
303.487
303.558
303.631
303.705
303.78
303.856
303.932
304.008
304.084
304.16
304.235
304.309
304.381
304.452
304.52
304.584
304.645
304.702
304.754
304.799
304.837
304.867
304.886
304.895
304.89
302.318
302.314
302.301
302.281
302.255
302.225
302.192
302.157
302.123
302.089
302.055
302.024
301.993
301.965
301.938
301.914
301.891
301.87
301.851
301.834
301.818
301.804
301.791
301.78
301.77
301.761
301.753
301.746
301.739
301.734
301.728
301.724
301.72
301.716
301.712
301.709
301.705
301.702
301.699
301.696
301.693
301.689
301.686
301.682
301.679
301.675
301.671
301.667
301.662
301.658
301.653
301.648
301.643
301.638
301.633
301.628
301.623
301.617
301.612
301.606
301.601
301.595
301.59
301.584
301.579
301.574
301.569
301.564
301.559
301.554
301.55
301.545
301.541
301.537
301.534
301.53
301.527
301.524
301.521
301.519
301.517
301.515
301.513
301.512
301.511
301.511
301.51
301.51
301.511
301.511
301.512
301.514
301.515
301.517
301.52
301.522
301.525
301.528
301.532
301.536
301.54
301.545
301.549
301.555
301.56
301.566
301.572
301.578
301.585
301.592
301.6
301.607
301.615
301.624
301.633
301.642
301.651
301.66
301.67
301.681
301.691
301.702
301.714
301.726
301.738
301.75
301.763
301.776
301.79
301.804
301.819
301.834
301.849
301.865
301.882
301.899
301.916
301.935
301.954
301.973
301.993
302.015
302.036
302.059
302.083
302.107
302.132
302.159
302.186
302.215
302.244
302.275
302.307
302.341
302.375
302.412
302.449
302.488
302.529
302.571
302.615
302.661
302.708
302.757
302.808
302.861
302.915
302.972
303.03
303.09
303.152
303.216
303.281
303.348
303.417
303.487
303.558
303.631
303.705
303.78
303.856
303.932
304.008
304.084
304.16
304.235
304.309
304.381
304.452
304.52
304.584
304.645
304.702
304.754
304.799
304.837
304.867
304.886
304.895
304.89
302.058
302.054
302.044
302.027
302.006
301.982
301.955
301.927
301.898
301.869
301.841
301.814
301.788
301.764
301.741
301.719
301.699
301.681
301.665
301.65
301.636
301.624
301.613
301.603
301.594
301.587
301.58
301.574
301.569
301.564
301.56
301.556
301.553
301.55
301.547
301.544
301.541
301.539
301.536
301.534
301.531
301.528
301.525
301.522
301.519
301.516
301.512
301.508
301.504
301.5
301.496
301.491
301.486
301.482
301.477
301.472
301.466
301.461
301.456
301.45
301.445
301.44
301.434
301.429
301.423
301.418
301.413
301.408
301.403
301.398
301.394
301.389
301.385
301.381
301.377
301.374
301.37
301.367
301.364
301.362
301.359
301.357
301.355
301.354
301.353
301.352
301.351
301.351
301.351
301.352
301.352
301.353
301.355
301.356
301.358
301.361
301.363
301.366
301.37
301.373
301.377
301.382
301.386
301.391
301.396
301.402
301.408
301.414
301.42
301.427
301.434
301.442
301.45
301.458
301.466
301.475
301.484
301.493
301.503