/*--------------------------------*- C++ -*----------------------------------*\
  =========                 |
  \\      /  F ield         | OpenFOAM: The Open Source CFD Toolbox
   \\    /   O peration     | Website:  https://openfoam.org
    \\  /    A nd           | Version:  8
     \\/     M anipulation  |
\*---------------------------------------------------------------------------*/
FoamFile
{
    version     2.0;
    format      ascii;
    class       volVectorField;
    location    "2400";
    object      U;
}
// * * * * * * * * * * * * * * * * * * * * * * * * * * * * * * * * * * * * * //

dimensions      [0 1 -1 0 0 0 0];

internalField   nonuniform List<vector> 
46000
(
(0.000684851 1.49931e-06 -0.000718536)
(0.0031059 8.33519e-07 -0.00151827)
(0.00553391 5.21326e-07 -0.00148108)
(0.00708068 3.70075e-07 -0.000893499)
(0.00760539 2.70918e-07 -0.000243322)
(0.00723551 2.09333e-07 0.000322824)
(0.00614209 1.70385e-07 0.000777315)
(0.0044809 1.46178e-07 0.00113292)
(0.00238128 1.31996e-07 0.00140978)
(-6.21048e-05 1.2389e-07 0.00162449)
(-0.00277216 1.19396e-07 0.00179017)
(-0.00569071 1.1745e-07 0.00192012)
(-0.0087802 1.16735e-07 0.00202515)
(-0.0120097 1.16051e-07 0.00211196)
(-0.0153576 1.15116e-07 0.00218538)
(-0.0188079 1.13819e-07 0.00224891)
(-0.0223484 1.12327e-07 0.00230503)
(-0.02597 1.10724e-07 0.00235546)
(-0.0296654 1.09067e-07 0.00240134)
(-0.0334286 1.07372e-07 0.00244339)
(-0.0372543 1.05646e-07 0.00248199)
(-0.0411376 1.03863e-07 0.0025173)
(-0.0450733 1.01994e-07 0.00254927)
(-0.0490564 1.00083e-07 0.00257776)
(-0.0530814 9.8111e-08 0.0026025)
(-0.0571422 9.61135e-08 0.00262319)
(-0.0612323 9.4074e-08 0.00263949)
(-0.0653448 9.20292e-08 0.00265103)
(-0.0694719 8.99825e-08 0.00265749)
(-0.0736056 8.79369e-08 0.00265853)
(-0.0777373 8.58557e-08 0.00265386)
(-0.0818578 8.37956e-08 0.00264322)
(-0.0859578 8.17431e-08 0.00262641)
(-0.0900275 7.97117e-08 0.00260326)
(-0.0940569 7.76979e-08 0.00257367)
(-0.098036 7.5705e-08 0.00253759)
(-0.101954 7.37295e-08 0.00249502)
(-0.105802 7.17748e-08 0.00244602)
(-0.109569 6.98441e-08 0.00239071)
(-0.113246 6.79391e-08 0.00232924)
(-0.116822 6.60665e-08 0.00226182)
(-0.120289 6.42211e-08 0.0021887)
(-0.123638 6.24131e-08 0.00211016)
(-0.12686 6.06339e-08 0.00202653)
(-0.129947 5.88936e-08 0.00193816)
(-0.132892 5.71922e-08 0.00184541)
(-0.135689 5.5543e-08 0.00174869)
(-0.138331 5.39444e-08 0.0016484)
(-0.140812 5.23929e-08 0.00154495)
(-0.143128 5.08885e-08 0.00143877)
(-0.145275 4.9453e-08 0.00133028)
(-0.147249 4.80746e-08 0.00121991)
(-0.149047 4.67533e-08 0.00110806)
(-0.150668 4.54991e-08 0.000995161)
(-0.152108 4.43138e-08 0.000881598)
(-0.153369 4.31871e-08 0.00076776)
(-0.154448 4.21342e-08 0.000654024)
(-0.155348 4.11283e-08 0.000540751)
(-0.156067 4.01978e-08 0.000428289)
(-0.156609 3.93243e-08 0.00031696)
(-0.156974 3.85263e-08 0.00020703)
(-0.157165 3.77517e-08 9.86634e-05)
(-0.157185 3.70994e-08 -7.89797e-06)
(-0.157038 3.65609e-08 -0.000112227)
(-0.156726 3.60525e-08 -0.000214135)
(-0.156253 3.55911e-08 -0.00031362)
(-0.155623 3.519e-08 -0.000410513)
(-0.154841 3.48408e-08 -0.000504631)
(-0.153911 3.45536e-08 -0.000595817)
(-0.152838 3.4315e-08 -0.000683941)
(-0.151628 3.41468e-08 -0.0007689)
(-0.150284 3.40037e-08 -0.000850608)
(-0.148812 3.39176e-08 -0.000928997)
(-0.147219 3.38851e-08 -0.00100402)
(-0.145509 3.39045e-08 -0.00107562)
(-0.143687 3.39675e-08 -0.00114379)
(-0.14176 3.40675e-08 -0.00120851)
(-0.139733 3.42127e-08 -0.00126978)
(-0.137611 3.43998e-08 -0.00132759)
(-0.135401 3.46271e-08 -0.00138197)
(-0.133107 3.48864e-08 -0.00143294)
(-0.130734 3.51792e-08 -0.00148052)
(-0.12829 3.55056e-08 -0.00152476)
(-0.125778 3.58556e-08 -0.0015657)
(-0.123204 3.62391e-08 -0.0016034)
(-0.120573 3.66562e-08 -0.0016379)
(-0.11789 3.70734e-08 -0.00166927)
(-0.11516 3.75243e-08 -0.00169757)
(-0.112389 3.79987e-08 -0.00172288)
(-0.10958 3.84866e-08 -0.00174527)
(-0.106738 3.90014e-08 -0.00176481)
(-0.103867 3.95197e-08 -0.00178158)
(-0.100973 4.00682e-08 -0.00179568)
(-0.0980581 4.06169e-08 -0.00180718)
(-0.0951276 4.11858e-08 -0.00181618)
(-0.092185 4.17649e-08 -0.00182277)
(-0.089234 4.23441e-08 -0.00182703)
(-0.0862782 4.29503e-08 -0.00182908)
(-0.0833209 4.35565e-08 -0.00182899)
(-0.0803654 4.41596e-08 -0.00182687)
(-0.0774147 4.47963e-08 -0.00182283)
(-0.0744718 4.54398e-08 -0.00181695)
(-0.0715394 4.607e-08 -0.00180935)
(-0.0686202 4.67272e-08 -0.00180011)
(-0.0657166 4.73878e-08 -0.00178936)
(-0.0628309 4.8062e-08 -0.00177718)
(-0.0599651 4.8753e-08 -0.00176367)
(-0.0571214 4.94475e-08 -0.00174895)
(-0.0543016 5.01421e-08 -0.0017331)
(-0.0515072 5.0867e-08 -0.00171623)
(-0.0487399 5.15786e-08 -0.00169843)
(-0.0460009 5.23239e-08 -0.0016798)
(-0.0432917 5.30961e-08 -0.00166044)
(-0.0406131 5.38684e-08 -0.00164043)
(-0.0379663 5.46542e-08 -0.00161987)
(-0.0353521 5.54703e-08 -0.00159884)
(-0.032771 5.62899e-08 -0.00157742)
(-0.0302238 5.71599e-08 -0.0015557)
(-0.0277109 5.80233e-08 -0.00153376)
(-0.0252326 5.89204e-08 -0.00151166)
(-0.0227891 5.98713e-08 -0.00148949)
(-0.0203807 6.08424e-08 -0.00146729)
(-0.0180072 6.18405e-08 -0.00144515)
(-0.0156687 6.28589e-08 -0.00142311)
(-0.0133649 6.39009e-08 -0.00140124)
(-0.0110957 6.49464e-08 -0.0013796)
(-0.00886059 6.59954e-08 -0.00135821)
(-0.00665943 6.71184e-08 -0.00133716)
(-0.00449081 6.82012e-08 -0.00131713)
(-0.00235518 6.92774e-08 -0.00129811)
(-0.000250334 6.99575e-08 -0.00127829)
(0.00182264 7.01776e-08 -0.00125654)
(0.00386153 7.05557e-08 -0.00123399)
(0.00586859 7.11555e-08 -0.0012117)
(0.0078432 7.18294e-08 -0.0011897)
(0.00978563 7.26008e-08 -0.0011679)
(0.0116959 7.34093e-08 -0.00114623)
(0.013574 7.42852e-08 -0.0011246)
(0.0154195 7.52049e-08 -0.0011029)
(0.0172322 7.62089e-08 -0.00108102)
(0.0190114 7.72669e-08 -0.00105883)
(0.0207563 7.8352e-08 -0.00103619)
(0.0224658 7.94677e-08 -0.00101296)
(0.0241387 8.06206e-08 -0.00098897)
(0.0257735 8.18008e-08 -0.000964045)
(0.0273681 8.29981e-08 -0.000937999)
(0.0289205 8.42261e-08 -0.000910636)
(0.0304282 8.54646e-08 -0.00088175)
(0.0318882 8.67405e-08 -0.000851127)
(0.0332975 8.80336e-08 -0.000818545)
(0.0346524 8.93542e-08 -0.000783781)
(0.035949 9.06686e-08 -0.000746607)
(0.0371828 9.20072e-08 -0.000706796)
(0.0383493 9.33496e-08 -0.000664126)
(0.0394432 9.47197e-08 -0.000618378)
(0.040459 9.61039e-08 -0.000569347)
(0.041391 9.74989e-08 -0.00051684)
(0.042233 9.89183e-08 -0.000460683)
(0.0429785 1.00372e-07 -0.000400727)
(0.0436207 1.01834e-07 -0.000336857)
(0.0441527 1.03336e-07 -0.000269)
(0.0445674 1.0484e-07 -0.000197148)
(0.0448577 1.06379e-07 -0.000121382)
(0.0450164 1.07419e-07 -4.18711e-05)
(0.0450365 1.09153e-07 4.14827e-05)
(0.0449118 1.11571e-07 0.000128866)
(0.0446336 1.13612e-07 0.00022017)
(0.0441955 1.15682e-07 0.000315145)
(0.0435907 1.17855e-07 0.000413423)
(0.0428131 1.2015e-07 0.000514563)
(0.0418574 1.22589e-07 0.00061805)
(0.0407189 1.25219e-07 0.000723282)
(0.0393942 1.28005e-07 0.00082956)
(0.0378807 1.31017e-07 0.000936079)
(0.0361773 1.34267e-07 0.00104191)
(0.0342846 1.37796e-07 0.001146)
(0.0322048 1.41612e-07 0.00124714)
(0.0299421 1.45788e-07 0.00134396)
(0.0275032 1.50353e-07 0.00143494)
(0.0248974 1.55327e-07 0.00151831)
(0.0221372 1.60717e-07 0.00159212)
(0.0192384 1.66571e-07 0.00165411)
(0.0162207 1.72814e-07 0.00170175)
(0.0131088 1.79482e-07 0.00173212)
(0.00993245 1.8646e-07 0.00174183)
(0.0067274 1.93625e-07 0.00172698)
(0.00353867 2.00716e-07 0.00168292)
(0.000416481 2.06145e-07 0.00160164)
(-0.00257681 2.08217e-07 0.00147242)
(-0.0053505 2.08991e-07 0.00129046)
(-0.00782454 2.09822e-07 0.00105313)
(-0.00988528 2.1015e-07 0.000751699)
(-0.0114061 2.10537e-07 0.000374305)
(-0.0122389 2.11518e-07 -8.44567e-05)
(-0.0122229 2.12255e-07 -0.000613093)
(-0.0112165 2.13265e-07 -0.00117142)
(-0.00914671 2.16632e-07 -0.00165483)
(-0.0061324 2.21536e-07 -0.00181214)
(-0.00274424 2.57605e-07 -0.00128092)
(-0.000375398 1.30321e-07 -0.000398248)
(0.000683354 1.4993e-06 -0.000719898)
(0.00310406 8.33504e-07 -0.00151966)
(0.00553312 5.21314e-07 -0.00148209)
(0.00708027 3.70066e-07 -0.000894369)
(0.00760512 2.70912e-07 -0.00024414)
(0.00723535 2.09329e-07 0.000322047)
(0.00614199 1.70382e-07 0.000776574)
(0.00448085 1.46175e-07 0.00113221)
(0.00238127 1.31993e-07 0.0014091)
(-6.20889e-05 1.23888e-07 0.00162383)
(-0.00277212 1.19393e-07 0.00178955)
(-0.00569063 1.17448e-07 0.00191953)
(-0.0087801 1.16733e-07 0.00202459)
(-0.0120096 1.16049e-07 0.00211142)
(-0.0153575 1.15114e-07 0.00218487)
(-0.0188077 1.13817e-07 0.00224843)
(-0.0223482 1.12325e-07 0.00230457)
(-0.0259697 1.10722e-07 0.00235502)
(-0.0296651 1.09065e-07 0.00240092)
(-0.0334283 1.07371e-07 0.00244298)
(-0.037254 1.05645e-07 0.0024816)
(-0.0411372 1.03861e-07 0.00251693)
(-0.045073 1.01992e-07 0.00254892)
(-0.0490561 1.00082e-07 0.00257742)
(-0.053081 9.81097e-08 0.00260218)
(-0.0571417 9.61123e-08 0.00262288)
(-0.0612319 9.40728e-08 0.00263919)
(-0.0653443 9.20281e-08 0.00265075)
(-0.0694714 8.99813e-08 0.00265722)
(-0.0736051 8.79358e-08 0.00265827)
(-0.0777367 8.58546e-08 0.00265361)
(-0.0818573 8.37945e-08 0.00264298)
(-0.0859573 8.17422e-08 0.00262618)
(-0.0900269 7.97108e-08 0.00260304)
(-0.0940563 7.7697e-08 0.00257345)
(-0.0980354 7.57041e-08 0.00253738)
(-0.101954 7.37286e-08 0.00249482)
(-0.105802 7.17739e-08 0.00244582)
(-0.109569 6.98433e-08 0.00239052)
(-0.113245 6.79384e-08 0.00232905)
(-0.116822 6.60658e-08 0.00226163)
(-0.120288 6.42204e-08 0.00218851)
(-0.123637 6.24124e-08 0.00210998)
(-0.126859 6.06333e-08 0.00202635)
(-0.129946 5.8893e-08 0.00193798)
(-0.132892 5.71916e-08 0.00184524)
(-0.135688 5.55425e-08 0.00174852)
(-0.13833 5.39438e-08 0.00164822)
(-0.140811 5.23923e-08 0.00154477)
(-0.143128 5.0888e-08 0.00143859)
(-0.145275 4.94525e-08 0.00133011)
(-0.147248 4.80741e-08 0.00121973)
(-0.149047 4.67528e-08 0.00110789)
(-0.150667 4.54987e-08 0.000994982)
(-0.152108 4.43133e-08 0.000881416)
(-0.153368 4.31867e-08 0.000767577)
(-0.154448 4.21338e-08 0.000653838)
(-0.155347 4.11279e-08 0.000540563)
(-0.156066 4.01974e-08 0.000428098)
(-0.156608 3.9324e-08 0.000316767)
(-0.156973 3.85259e-08 0.000206833)
(-0.157164 3.77513e-08 9.84641e-05)
(-0.157185 3.7099e-08 -8.10039e-06)
(-0.157037 3.65605e-08 -0.000112432)
(-0.156725 3.60522e-08 -0.000214344)
(-0.156252 3.55907e-08 -0.000313832)
(-0.155623 3.51896e-08 -0.000410729)
(-0.154841 3.48405e-08 -0.000504851)
(-0.153911 3.45533e-08 -0.00059604)
(-0.152838 3.43147e-08 -0.000684168)
(-0.151627 3.41464e-08 -0.000769131)
(-0.150283 3.40034e-08 -0.000850843)
(-0.148812 3.39173e-08 -0.000929237)
(-0.147218 3.38848e-08 -0.00100426)
(-0.145508 3.39042e-08 -0.00107587)
(-0.143687 3.39672e-08 -0.00114405)
(-0.141759 3.40672e-08 -0.00120877)
(-0.139732 3.42123e-08 -0.00127004)
(-0.137611 3.43995e-08 -0.00132786)
(-0.1354 3.46268e-08 -0.00138224)
(-0.133106 3.48861e-08 -0.00143321)
(-0.130734 3.51789e-08 -0.0014808)
(-0.128289 3.55053e-08 -0.00152505)
(-0.125777 3.58553e-08 -0.00156599)
(-0.123203 3.62388e-08 -0.00160369)
(-0.120572 3.66559e-08 -0.0016382)
(-0.11789 3.70731e-08 -0.00166957)
(-0.11516 3.75239e-08 -0.00169788)
(-0.112388 3.79983e-08 -0.0017232)
(-0.109579 3.84862e-08 -0.00174559)
(-0.106737 3.9001e-08 -0.00176513)
(-0.103867 3.95193e-08 -0.00178192)
(-0.100972 4.00679e-08 -0.00179602)
(-0.0980575 4.06166e-08 -0.00180753)
(-0.0951271 4.11855e-08 -0.00181653)
(-0.0921845 4.17646e-08 -0.00182312)
(-0.0892335 4.23438e-08 -0.00182739)
(-0.0862777 4.29499e-08 -0.00182944)
(-0.0833204 4.35562e-08 -0.00182936)
(-0.0803648 4.41592e-08 -0.00182725)
(-0.0774142 4.47959e-08 -0.00182321)
(-0.0744713 4.54394e-08 -0.00181734)
(-0.0715389 4.60697e-08 -0.00180974)
(-0.0686197 4.67268e-08 -0.00180051)
(-0.0657161 4.73875e-08 -0.00178976)
(-0.0628304 4.80616e-08 -0.00177759)
(-0.0599647 4.87527e-08 -0.00176409)
(-0.0571209 4.94472e-08 -0.00174937)
(-0.0543011 5.01418e-08 -0.00173353)
(-0.0515067 5.08667e-08 -0.00171666)
(-0.0487394 5.15783e-08 -0.00169887)
(-0.0460005 5.23236e-08 -0.00168025)
(-0.0432912 5.30958e-08 -0.00166089)
(-0.0406127 5.38681e-08 -0.00164089)
(-0.0379659 5.46539e-08 -0.00162033)
(-0.0353516 5.547e-08 -0.00159931)
(-0.0327706 5.62896e-08 -0.0015779)
(-0.0302234 5.71596e-08 -0.00155619)
(-0.0277105 5.8023e-08 -0.00153425)
(-0.0252322 5.89201e-08 -0.00151216)
(-0.0227887 5.9871e-08 -0.00148999)
(-0.0203802 6.08421e-08 -0.0014678)
(-0.0180068 6.18402e-08 -0.00144567)
(-0.0156682 6.28586e-08 -0.00142364)
(-0.0133645 6.39006e-08 -0.00140177)
(-0.0110953 6.49461e-08 -0.00138013)
(-0.00886017 6.59951e-08 -0.00135875)
(-0.00665902 6.71181e-08 -0.00133771)
(-0.00449041 6.82009e-08 -0.00131769)
(-0.00235478 6.92772e-08 -0.00129867)
(-0.000249937 6.99572e-08 -0.00127886)
(0.00182303 7.01773e-08 -0.00125711)
(0.00386192 7.05553e-08 -0.00123456)
(0.00586898 7.11552e-08 -0.00121228)
(0.00784359 7.18291e-08 -0.00119028)
(0.00978602 7.26005e-08 -0.00116849)
(0.0116963 7.3409e-08 -0.00114683)
(0.0135743 7.42849e-08 -0.0011252)
(0.0154199 7.52047e-08 -0.00110351)
(0.0172326 7.62087e-08 -0.00108163)
(0.0190118 7.72666e-08 -0.00105944)
(0.0207567 7.83518e-08 -0.00103681)
(0.0224662 7.94675e-08 -0.00101359)
(0.0241391 8.06204e-08 -0.000989602)
(0.0257738 8.18006e-08 -0.000964683)
(0.0273684 8.29979e-08 -0.000938644)
(0.0289208 8.42259e-08 -0.000911287)
(0.0304285 8.54644e-08 -0.000882408)
(0.0318886 8.67403e-08 -0.000851792)
(0.0332979 8.80335e-08 -0.000819218)
(0.0346528 8.93541e-08 -0.000784461)
(0.0359493 9.06685e-08 -0.000747295)
(0.0371832 9.2007e-08 -0.000707492)
(0.0383496 9.33495e-08 -0.00066483)
(0.0394435 9.47196e-08 -0.000619091)
(0.0404594 9.61038e-08 -0.000570068)
(0.0413914 9.74988e-08 -0.00051757)
(0.0422333 9.89182e-08 -0.000461422)
(0.0429788 1.00372e-07 -0.000401477)
(0.043621 1.01833e-07 -0.000337616)
(0.044153 1.03336e-07 -0.000269769)
(0.0445677 1.0484e-07 -0.000197927)
(0.044858 1.06378e-07 -0.000122172)
(0.0450167 1.07419e-07 -4.26701e-05)
(0.0450368 1.09153e-07 4.06726e-05)
(0.0449121 1.11571e-07 0.000128042)
(0.0446339 1.13612e-07 0.000219334)
(0.0441958 1.15682e-07 0.000314297)
(0.043591 1.17855e-07 0.000412561)
(0.0428134 1.2015e-07 0.000513689)
(0.0418576 1.22589e-07 0.000617162)
(0.0407192 1.25219e-07 0.00072238)
(0.0393944 1.28005e-07 0.000828645)
(0.037881 1.31017e-07 0.000935149)
(0.0361776 1.34267e-07 0.00104097)
(0.0342849 1.37796e-07 0.00114504)
(0.032205 1.41612e-07 0.00124616)
(0.0299423 1.45788e-07 0.00134297)
(0.0275034 1.50353e-07 0.00143392)
(0.0248977 1.55327e-07 0.00151728)
(0.0221374 1.60717e-07 0.00159107)
(0.0192386 1.66571e-07 0.00165304)
(0.0162209 1.72814e-07 0.00170066)
(0.013109 1.79482e-07 0.001731)
(0.00993262 1.8646e-07 0.00174069)
(0.00672756 1.93625e-07 0.00172582)
(0.0035388 2.00715e-07 0.00168172)
(0.000416589 2.06144e-07 0.00160043)
(-0.00257672 2.08217e-07 0.00147119)
(-0.00535043 2.08991e-07 0.00128922)
(-0.00782448 2.09822e-07 0.00105186)
(-0.00988525 2.1015e-07 0.00075041)
(-0.0114061 2.10537e-07 0.000372983)
(-0.0122389 2.11518e-07 -8.582e-05)
(-0.012223 2.12254e-07 -0.0006145)
(-0.0112167 2.13264e-07 -0.00117288)
(-0.00914698 2.16631e-07 -0.00165635)
(-0.00613279 2.21534e-07 -0.00181371)
(-0.0027451 2.57602e-07 -0.00128248)
(-0.00037606 1.3032e-07 -0.000399461)
(0.00141865 8.44274e-07 -0.00327419)
(0.00361863 1.09544e-07 -0.00385036)
(0.0045389 3.29293e-08 -0.00275355)
(0.0046593 -3.62024e-09 -0.00122895)
(0.00405249 -2.64238e-08 0.000218626)
(0.00285811 -3.7524e-08 0.00143928)
(0.00117388 -4.27798e-08 0.00241777)
(-0.000915617 -4.42648e-08 0.0031872)
(-0.00333351 -4.33297e-08 0.00378866)
(-0.00602049 -4.10249e-08 0.00426042)
(-0.00892793 -3.80011e-08 0.00463306)
(-0.0120177 -3.47973e-08 0.00493212)
(-0.0152601 -3.17144e-08 0.00517716)
(-0.0186317 -2.88823e-08 0.00538211)
(-0.0221149 -2.63015e-08 0.00555732)
(-0.0256957 -2.39631e-08 0.00571025)
(-0.0293634 -2.18178e-08 0.00584622)
(-0.0331094 -1.98436e-08 0.00596893)
(-0.0369267 -1.80277e-08 0.00608086)
(-0.0408091 -1.63685e-08 0.00618352)
(-0.0447512 -1.48615e-08 0.00627774)
(-0.0487478 -1.35125e-08 0.00636377)
(-0.0527937 -1.23072e-08 0.00644149)
(-0.0568834 -1.1233e-08 0.00651048)
(-0.0610113 -1.02782e-08 0.00657011)
(-0.0651714 -9.4219e-09 0.00661962)
(-0.0693569 -8.65656e-09 0.0066582)
(-0.0735609 -7.96714e-09 0.00668497)
(-0.0777759 -7.34194e-09 0.0066991)
(-0.0819938 -6.77012e-09 0.00669979)
(-0.0862061 -6.25082e-09 0.00668631)
(-0.090404 -5.77403e-09 0.00665804)
(-0.0945782 -5.33307e-09 0.00661443)
(-0.0987192 -4.92627e-09 0.00655508)
(-0.102817 -4.54863e-09 0.0064797)
(-0.106863 -4.19846e-09 0.00638814)
(-0.110845 -3.87744e-09 0.00628038)
(-0.114756 -3.58306e-09 0.00615652)
(-0.118583 -3.31531e-09 0.0060168)
(-0.122319 -3.07086e-09 0.00586158)
(-0.125954 -2.84887e-09 0.00569132)
(-0.129478 -2.64769e-09 0.00550661)
(-0.132882 -2.47147e-09 0.00530813)
(-0.13616 -2.31853e-09 0.00509662)
(-0.139302 -2.1839e-09 0.00487294)
(-0.142301 -2.07006e-09 0.00463797)
(-0.145151 -1.97202e-09 0.00439268)
(-0.147845 -1.89062e-09 0.00413806)
(-0.150379 -1.82501e-09 0.00387514)
(-0.152746 -1.77271e-09 0.00360496)
(-0.154943 -1.73205e-09 0.00332858)
(-0.156966 -1.70718e-09 0.00304707)
(-0.158812 -1.6923e-09 0.00276147)
(-0.160479 -1.68822e-09 0.00247281)
(-0.161964 -1.69411e-09 0.00218212)
(-0.163267 -1.70749e-09 0.00189037)
(-0.164388 -1.72918e-09 0.00159853)
(-0.165325 -1.75669e-09 0.00130752)
(-0.166081 -1.79169e-09 0.00101821)
(-0.166655 -1.83333e-09 0.000731454)
(-0.167049 -1.87497e-09 0.000448052)
(-0.167266 -1.91078e-09 0.000168761)
(-0.167307 -1.96491e-09 -0.000105797)
(-0.167176 -2.03484e-09 -0.000375238)
(-0.166875 -2.09061e-09 -0.00063911)
(-0.166409 -2.15138e-09 -0.000896841)
(-0.165781 -2.21548e-09 -0.00114793)
(-0.164995 -2.28041e-09 -0.00139193)
(-0.164055 -2.34867e-09 -0.00162845)
(-0.162967 -2.42276e-09 -0.00185717)
(-0.161735 -2.49851e-09 -0.00207781)
(-0.160364 -2.58093e-09 -0.00229014)
(-0.158858 -2.66418e-09 -0.00249399)
(-0.157224 -2.74827e-09 -0.00268919)
(-0.155465 -2.83486e-09 -0.00287566)
(-0.153588 -2.92478e-09 -0.0030533)
(-0.151598 -3.01471e-09 -0.00322209)
(-0.1495 -3.10965e-09 -0.00338201)
(-0.147299 -3.20126e-09 -0.00353308)
(-0.145001 -3.2987e-09 -0.00367533)
(-0.142611 -3.39365e-09 -0.00380884)
(-0.140134 -3.49611e-09 -0.00393368)
(-0.137576 -3.59691e-09 -0.00404997)
(-0.134942 -3.69855e-09 -0.00415781)
(-0.132236 -3.80353e-09 -0.00425736)
(-0.129465 -3.90935e-09 -0.00434877)
(-0.126632 -4.02017e-09 -0.00443219)
(-0.123742 -4.1335e-09 -0.00450781)
(-0.120801 -4.24518e-09 -0.00457581)
(-0.117813 -4.35937e-09 -0.0046364)
(-0.114782 -4.47773e-09 -0.00468977)
(-0.111713 -4.5986e-09 -0.00473613)
(-0.10861 -4.71948e-09 -0.00477572)
(-0.105478 -4.84371e-09 -0.00480874)
(-0.10232 -4.97128e-09 -0.00483544)
(-0.0991394 -5.09969e-09 -0.00485603)
(-0.0959412 -5.22894e-09 -0.00487077)
(-0.0927287 -5.35822e-09 -0.00487989)
(-0.0895052 -5.49166e-09 -0.00488363)
(-0.0862741 -5.62595e-09 -0.00488224)
(-0.0830387 -5.76026e-09 -0.00487595)
(-0.0798022 -5.89375e-09 -0.00486502)
(-0.0765674 -6.03391e-09 -0.0048497)
(-0.0733371 -6.16992e-09 -0.00483022)
(-0.0701141 -6.30928e-09 -0.00480682)
(-0.066901 -6.44448e-09 -0.00477977)
(-0.0637 -6.58303e-09 -0.00474929)
(-0.0605136 -6.72076e-09 -0.00471562)
(-0.0573438 -6.85767e-09 -0.00467901)
(-0.0541927 -6.99376e-09 -0.00463968)
(-0.0510622 -7.1307e-09 -0.00459786)
(-0.047954 -7.26848e-09 -0.00455379)
(-0.0448696 -7.39962e-09 -0.00450769)
(-0.0418107 -7.53243e-09 -0.00445977)
(-0.0387786 -7.66358e-09 -0.00441024)
(-0.0357744 -7.79308e-09 -0.00435931)
(-0.0327993 -7.9226e-09 -0.00430719)
(-0.0298544 -8.04545e-09 -0.00425406)
(-0.0269404 -8.16832e-09 -0.00420012)
(-0.0240582 -8.28787e-09 -0.00414555)
(-0.0212083 -8.40243e-09 -0.00409052)
(-0.0183913 -8.517e-09 -0.00403519)
(-0.0156077 -8.63325e-09 -0.00397974)
(-0.0128578 -8.74784e-09 -0.00392431)
(-0.0101416 -8.87161e-09 -0.00386907)
(-0.00745948 -8.99622e-09 -0.00381419)
(-0.0048112 -9.12002e-09 -0.00375986)
(-0.00219694 -9.23382e-09 -0.00370652)
(0.000384432 -9.37098e-09 -0.00365384)
(0.00293048 -9.52311e-09 -0.00360132)
(0.00544131 -9.64857e-09 -0.00354845)
(0.00791715 -9.7157e-09 -0.00349475)
(0.010358 -9.69697e-09 -0.0034408)
(0.0127637 -9.63903e-09 -0.00338708)
(0.0151341 -9.56275e-09 -0.00333349)
(0.0174689 -9.47646e-09 -0.00327991)
(0.0197679 -9.38265e-09 -0.00322614)
(0.0220304 -9.27967e-09 -0.00317198)
(0.0242561 -9.15999e-09 -0.00311715)
(0.0264441 -9.02363e-09 -0.00306138)
(0.0285934 -8.88225e-09 -0.00300433)
(0.030703 -8.74169e-09 -0.00294565)
(0.0327714 -8.59195e-09 -0.00288495)
(0.0347971 -8.44805e-09 -0.0028218)
(0.0367781 -8.2983e-09 -0.00275572)
(0.0387122 -8.15521e-09 -0.00268623)
(0.0405968 -8.00211e-09 -0.0026128)
(0.042429 -7.84734e-09 -0.00253487)
(0.0442056 -7.69757e-09 -0.00245186)
(0.045923 -7.54614e-09 -0.00236316)
(0.0475771 -7.39637e-09 -0.00226815)
(0.0491634 -7.24828e-09 -0.0021662)
(0.0506771 -7.10186e-09 -0.00205667)
(0.0521129 -6.96213e-09 -0.00193893)
(0.0534652 -6.81907e-09 -0.00181234)
(0.0547278 -6.6827e-09 -0.0016763)
(0.0558942 -6.54468e-09 -0.00153024)
(0.0569576 -6.40834e-09 -0.0013736)
(0.0579107 -6.2737e-09 -0.00120592)
(0.058746 -6.13907e-09 -0.00102676)
(0.0594557 -6.0028e-09 -0.000835797)
(0.0600316 -5.8632e-09 -0.000632823)
(0.0604655 -5.71358e-09 -0.000417767)
(0.0607491 -5.5221e-09 -0.000190743)
(0.0608735 -5.36369e-09 4.82613e-05)
(0.0608305 -5.24081e-09 0.000299576)
(0.0606119 -5.06282e-09 0.000563143)
(0.0602097 -4.86981e-09 0.000838349)
(0.059616 -4.67014e-09 0.00112445)
(0.0588236 -4.46548e-09 0.00142048)
(0.0578259 -4.25081e-09 0.00172526)
(0.0566168 -4.02611e-09 0.00203738)
(0.0551914 -3.79641e-09 0.00235512)
(0.0535459 -3.55166e-09 0.00267651)
(0.0516776 -3.29519e-09 0.00299918)
(0.0495857 -3.01863e-09 0.00332045)
(0.047271 -2.72698e-09 0.0036372)
(0.0447365 -2.4152e-09 0.00394583)
(0.0419875 -2.07488e-09 0.00424225)
(0.0390321 -1.72781e-09 0.00452179)
(0.0358816 -1.36223e-09 0.00477907)
(0.0325506 -9.99931e-10 0.00500794)
(0.0290582 -6.49302e-10 0.00520133)
(0.0254278 -3.27126e-10 0.00535103)
(0.0216884 -5.1881e-11 0.00544748)
(0.0178752 1.44492e-10 0.00547939)
(0.0140305 1.66111e-10 0.00543338)
(0.0102052 4.31346e-11 0.00529231)
(0.00645818 7.67815e-11 0.00503441)
(0.00286119 1.96681e-10 0.00463837)
(-0.00050689 -5.14918e-11 0.00407939)
(-0.00354113 -5.90228e-10 0.0033278)
(-0.00613053 -1.26292e-09 0.00235321)
(-0.00815019 -2.22175e-09 0.00112929)
(-0.00946379 -3.21383e-09 -0.000348836)
(-0.00991992 -4.06112e-09 -0.00202844)
(-0.00937267 -4.00066e-09 -0.0037434)
(-0.00770877 -1.02237e-09 -0.00507634)
(-0.00489172 2.70983e-08 -0.00517239)
(-0.00119671 -9.61248e-08 -0.00289735)
(0.0014172 8.44255e-07 -0.00327576)
(0.00361765 1.09538e-07 -0.00385113)
(0.00453859 3.29273e-08 -0.0027539)
(0.00465914 -3.62004e-09 -0.0012292)
(0.0040524 -2.64225e-08 0.000218389)
(0.00285807 -3.75223e-08 0.00143905)
(0.00117389 -4.2778e-08 0.00241754)
(-0.000915574 -4.4263e-08 0.00318697)
(-0.00333343 -4.33281e-08 0.00378845)
(-0.00602039 -4.10234e-08 0.00426021)
(-0.00892779 -3.79998e-08 0.00463287)
(-0.0120175 -3.47961e-08 0.00493193)
(-0.0152599 -3.17134e-08 0.00517698)
(-0.0186315 -2.88814e-08 0.00538195)
(-0.0221146 -2.63007e-08 0.00555716)
(-0.0256954 -2.39624e-08 0.0057101)
(-0.0293631 -2.18172e-08 0.00584607)
(-0.0331091 -1.9843e-08 0.00596879)
(-0.0369263 -1.80272e-08 0.00608073)
(-0.0408087 -1.6368e-08 0.0061834)
(-0.0447508 -1.48611e-08 0.00627762)
(-0.0487474 -1.35121e-08 0.00636366)
(-0.0527932 -1.23068e-08 0.00644139)
(-0.0568829 -1.12327e-08 0.00651038)
(-0.0610108 -1.02779e-08 0.00657001)
(-0.0651708 -9.42164e-09 0.00661954)
(-0.0693563 -8.65632e-09 0.00665811)
(-0.0735603 -7.96692e-09 0.00668489)
(-0.0777753 -7.34175e-09 0.00669902)
(-0.0819931 -6.76994e-09 0.00669972)
(-0.0862054 -6.25065e-09 0.00668625)
(-0.0904033 -5.77388e-09 0.00665797)
(-0.0945775 -5.33293e-09 0.00661437)
(-0.0987185 -4.92614e-09 0.00655502)
(-0.102817 -4.54851e-09 0.00647965)
(-0.106862 -4.19835e-09 0.00638809)
(-0.110845 -3.87734e-09 0.00628033)
(-0.114755 -3.58296e-09 0.00615647)
(-0.118583 -3.31522e-09 0.00601675)
(-0.122319 -3.07078e-09 0.00586153)
(-0.125953 -2.8488e-09 0.00569128)
(-0.129477 -2.64762e-09 0.00550657)
(-0.132882 -2.4714e-09 0.00530808)
(-0.136159 -2.31847e-09 0.00509658)
(-0.139301 -2.18385e-09 0.00487289)
(-0.1423 -2.07001e-09 0.00463793)
(-0.14515 -1.97197e-09 0.00439264)
(-0.147845 -1.89057e-09 0.00413801)
(-0.150378 -1.82497e-09 0.00387509)
(-0.152745 -1.77267e-09 0.00360491)
(-0.154942 -1.732e-09 0.00332854)
(-0.156965 -1.70714e-09 0.00304702)
(-0.158811 -1.69225e-09 0.00276142)
(-0.160478 -1.68817e-09 0.00247276)
(-0.161963 -1.69407e-09 0.00218206)
(-0.163267 -1.70745e-09 0.00189032)
(-0.164387 -1.72914e-09 0.00159848)
(-0.165325 -1.75665e-09 0.00130746)
(-0.16608 -1.79164e-09 0.00101815)
(-0.166654 -1.83329e-09 0.000731395)
(-0.167048 -1.87493e-09 0.000447991)
(-0.167265 -1.91074e-09 0.000168699)
(-0.167306 -1.96487e-09 -0.000105861)
(-0.167175 -2.03479e-09 -0.000375303)
(-0.166874 -2.09056e-09 -0.000639176)
(-0.166408 -2.15133e-09 -0.000896908)
(-0.16578 -2.21543e-09 -0.001148)
(-0.164994 -2.28036e-09 -0.001392)
(-0.164055 -2.34862e-09 -0.00162852)
(-0.162967 -2.4227e-09 -0.00185724)
(-0.161734 -2.49845e-09 -0.00207788)
(-0.160363 -2.58087e-09 -0.00229022)
(-0.158857 -2.66412e-09 -0.00249406)
(-0.157223 -2.74821e-09 -0.00268927)
(-0.155464 -2.83479e-09 -0.00287574)
(-0.153587 -2.92472e-09 -0.00305338)
(-0.151597 -3.01465e-09 -0.00322217)
(-0.149499 -3.10958e-09 -0.0033821)
(-0.147298 -3.20119e-09 -0.00353316)
(-0.145 -3.29863e-09 -0.00367542)
(-0.14261 -3.39358e-09 -0.00380893)
(-0.140133 -3.49603e-09 -0.00393377)
(-0.137575 -3.59683e-09 -0.00405006)
(-0.134941 -3.69847e-09 -0.00415791)
(-0.132236 -3.80345e-09 -0.00425746)
(-0.129464 -3.90927e-09 -0.00434886)
(-0.126631 -4.02009e-09 -0.00443229)
(-0.123741 -4.13342e-09 -0.00450791)
(-0.1208 -4.2451e-09 -0.00457591)
(-0.117812 -4.35929e-09 -0.0046365)
(-0.114781 -4.47765e-09 -0.00468987)
(-0.111713 -4.59851e-09 -0.00473624)
(-0.10861 -4.7194e-09 -0.00477582)
(-0.105477 -4.84362e-09 -0.00480885)
(-0.102319 -4.97118e-09 -0.00483554)
(-0.0991388 -5.09959e-09 -0.00485614)
(-0.0959406 -5.22885e-09 -0.00487088)
(-0.0927281 -5.35812e-09 -0.00488)
(-0.0895046 -5.49157e-09 -0.00488374)
(-0.0862735 -5.62586e-09 -0.00488235)
(-0.0830382 -5.76016e-09 -0.00487607)
(-0.0798016 -5.89365e-09 -0.00486514)
(-0.0765668 -6.03381e-09 -0.00484982)
(-0.0733366 -6.16982e-09 -0.00483034)
(-0.0701136 -6.30918e-09 -0.00480695)
(-0.0669004 -6.44438e-09 -0.00477989)
(-0.0636995 -6.58293e-09 -0.00474941)
(-0.0605131 -6.72066e-09 -0.00471575)
(-0.0573433 -6.85757e-09 -0.00467914)
(-0.0541923 -6.99366e-09 -0.00463981)
(-0.0510617 -7.1306e-09 -0.004598)
(-0.0479535 -7.26838e-09 -0.00455393)
(-0.0448692 -7.39952e-09 -0.00450782)
(-0.0418102 -7.53233e-09 -0.0044599)
(-0.0387781 -7.66348e-09 -0.00441038)
(-0.0357739 -7.79299e-09 -0.00435945)
(-0.0327989 -7.9225e-09 -0.00430733)
(-0.0298539 -8.04536e-09 -0.00425421)
(-0.02694 -8.16823e-09 -0.00420027)
(-0.0240577 -8.28778e-09 -0.0041457)
(-0.0212079 -8.40234e-09 -0.00409067)
(-0.0183909 -8.51691e-09 -0.00403534)
(-0.0156073 -8.63316e-09 -0.00397989)
(-0.0128573 -8.74775e-09 -0.00392446)
(-0.0101412 -8.87152e-09 -0.00386922)
(-0.00745909 -8.99614e-09 -0.00381434)
(-0.00481082 -9.11994e-09 -0.00376002)
(-0.00219656 -9.23375e-09 -0.00370668)
(0.000384804 -9.3709e-09 -0.003654)
(0.00293084 -9.52303e-09 -0.00360148)
(0.00544167 -9.6485e-09 -0.00354862)
(0.00791751 -9.71564e-09 -0.00349491)
(0.0103583 -9.6969e-09 -0.00344097)
(0.012764 -9.63897e-09 -0.00338725)
(0.0151344 -9.5627e-09 -0.00333366)
(0.0174693 -9.47641e-09 -0.00328008)
(0.0197682 -9.3826e-09 -0.00322632)
(0.0220308 -9.27962e-09 -0.00317215)
(0.0242564 -9.15995e-09 -0.00311733)
(0.0264444 -9.02359e-09 -0.00306156)
(0.0285937 -8.88221e-09 -0.00300451)
(0.0307033 -8.74166e-09 -0.00294584)
(0.0327718 -8.59193e-09 -0.00288514)
(0.0347974 -8.44803e-09 -0.00282198)
(0.0367784 -8.29828e-09 -0.00275591)
(0.0387125 -8.1552e-09 -0.00268643)
(0.0405971 -8.0021e-09 -0.002613)
(0.0424293 -7.84733e-09 -0.00253507)
(0.0442059 -7.69757e-09 -0.00245206)
(0.0459233 -7.54613e-09 -0.00236336)
(0.0475774 -7.39637e-09 -0.00226836)
(0.0491637 -7.24828e-09 -0.00216641)
(0.0506774 -7.10186e-09 -0.00205688)
(0.0521132 -6.96213e-09 -0.00193914)
(0.0534655 -6.81907e-09 -0.00181256)
(0.0547281 -6.68271e-09 -0.00167652)
(0.0558945 -6.54469e-09 -0.00153046)
(0.0569579 -6.40835e-09 -0.00137383)
(0.057911 -6.27371e-09 -0.00120615)
(0.0587463 -6.13908e-09 -0.00102699)
(0.059456 -6.00281e-09 -0.000836033)
(0.0600319 -5.86321e-09 -0.000633063)
(0.0604658 -5.71359e-09 -0.00041801)
(0.0607494 -5.52211e-09 -0.000190987)
(0.0608738 -5.3637e-09 4.80133e-05)
(0.0608308 -5.24082e-09 0.000299323)
(0.0606122 -5.06282e-09 0.000562885)
(0.06021 -4.86982e-09 0.000838087)
(0.0596163 -4.67015e-09 0.00112418)
(0.0588239 -4.46549e-09 0.00142021)
(0.0578262 -4.25082e-09 0.00172499)
(0.0566171 -4.02612e-09 0.0020371)
(0.0551917 -3.79642e-09 0.00235484)
(0.0535461 -3.55167e-09 0.00267622)
(0.0516779 -3.2952e-09 0.0029989)
(0.049586 -3.01863e-09 0.00332016)
(0.0472713 -2.72698e-09 0.0036369)
(0.0447368 -2.4152e-09 0.00394552)
(0.0419878 -2.07488e-09 0.00424195)
(0.0390324 -1.72781e-09 0.00452147)
(0.0358818 -1.36223e-09 0.00477875)
(0.0325508 -9.99932e-10 0.00500761)
(0.0290584 -6.49303e-10 0.00520099)
(0.025428 -3.27126e-10 0.00535069)
(0.0216886 -5.18811e-11 0.00544713)
(0.0178753 1.44492e-10 0.00547903)
(0.0140307 1.66111e-10 0.00543301)
(0.0102054 4.31346e-11 0.00529193)
(0.00645829 7.67815e-11 0.00503402)
(0.00286129 1.96681e-10 0.00463796)
(-0.000506799 -5.14918e-11 0.00407897)
(-0.00354106 -5.90228e-10 0.00332735)
(-0.00613048 -1.26292e-09 0.00235273)
(-0.00815016 -2.22175e-09 0.00112876)
(-0.00946381 -3.21383e-09 -0.000349426)
(-0.00991998 -4.06112e-09 -0.00202911)
(-0.00937281 -4.00066e-09 -0.00374419)
(-0.00770904 -1.02237e-09 -0.0050773)
(-0.00489252 2.70983e-08 -0.0051736)
(-0.00119769 -9.61246e-08 -0.00289863)
(0.00132627 5.68707e-07 -0.00576935)
(0.00248955 3.72807e-08 -0.00480233)
(0.00237255 2.36205e-08 -0.00263409)
(0.00168439 6.81466e-09 -0.000454841)