/*--------------------------------*- C++ -*----------------------------------*\
  =========                 |
  \\      /  F ield         | OpenFOAM: The Open Source CFD Toolbox
   \\    /   O peration     | Website:  https://openfoam.org
    \\  /    A nd           | Version:  8
     \\/     M anipulation  |
\*---------------------------------------------------------------------------*/
FoamFile
{
    version     2.0;
    format      ascii;
    class       volScalarField;
    location    "2800";
    object      alphat;
}
// * * * * * * * * * * * * * * * * * * * * * * * * * * * * * * * * * * * * * //

dimensions      [1 -1 -1 0 0 0 0];

internalField   nonuniform List<scalar> 
46000
(
4.3718e-07
2.07048e-06
4.04544e-06
5.91933e-06
7.69988e-06
9.42883e-06
1.11212e-05
1.27824e-05
1.44221e-05
1.60446e-05
1.76593e-05
1.92609e-05
2.08507e-05
2.2432e-05
2.40054e-05
2.55709e-05
2.7128e-05
2.86759e-05
3.02136e-05
3.17399e-05
3.32536e-05
3.4753e-05
3.62368e-05
3.77031e-05
3.91503e-05
4.05765e-05
4.19799e-05
4.33587e-05
4.47109e-05
4.60345e-05
4.73278e-05
4.85887e-05
4.98154e-05
5.10061e-05
5.21589e-05
5.3272e-05
5.43438e-05
5.53726e-05
5.63569e-05
5.72951e-05
5.81859e-05
5.9028e-05
5.98201e-05
6.05613e-05
6.12505e-05
6.18868e-05
6.24696e-05
6.29983e-05
6.34724e-05
6.38915e-05
6.42556e-05
6.45644e-05
6.48181e-05
6.50169e-05
6.51612e-05
6.52513e-05
6.5288e-05
6.5272e-05
6.5204e-05
6.50853e-05
6.4917e-05
6.4701e-05
6.44405e-05
6.41359e-05
6.37872e-05
6.33954e-05
6.29621e-05
6.2489e-05
6.19777e-05
6.14302e-05
6.08482e-05
6.02337e-05
5.95886e-05
5.89148e-05
5.82143e-05
5.74891e-05
5.67411e-05
5.59724e-05
5.51848e-05
5.43803e-05
5.35608e-05
5.27283e-05
5.18844e-05
5.10311e-05
5.01701e-05
4.93031e-05
4.84317e-05
4.75575e-05
4.66822e-05
4.58071e-05
4.49336e-05
4.40631e-05
4.31969e-05
4.23361e-05
4.14819e-05
4.06354e-05
3.97975e-05
3.89691e-05
3.81511e-05
3.73443e-05
3.65494e-05
3.57669e-05
3.49976e-05
3.42418e-05
3.35e-05
3.27726e-05
3.20599e-05
3.13622e-05
3.06797e-05
3.00125e-05
2.93608e-05
2.87245e-05
2.81037e-05
2.74984e-05
2.69085e-05
2.63337e-05
2.57741e-05
2.52294e-05
2.46994e-05
2.41838e-05
2.36823e-05
2.31947e-05
2.27205e-05
2.22596e-05
2.18114e-05
2.13756e-05
2.09518e-05
2.05396e-05
2.01385e-05
1.97482e-05
1.93681e-05
1.89978e-05
1.86369e-05
1.82848e-05
1.79412e-05
1.76055e-05
1.72773e-05
1.69561e-05
1.66413e-05
1.63333e-05
1.60311e-05
1.57342e-05
1.5442e-05
1.51542e-05
1.48704e-05
1.459e-05
1.43128e-05
1.40382e-05
1.3766e-05
1.34957e-05
1.3227e-05
1.29596e-05
1.26932e-05
1.24275e-05
1.21622e-05
1.1897e-05
1.16318e-05
1.13663e-05
1.11003e-05
1.08338e-05
1.05665e-05
1.02983e-05
1.00291e-05
9.75905e-06
9.48948e-06
9.21945e-06
8.94855e-06
8.67675e-06
8.40406e-06
8.13057e-06
7.85636e-06
7.58157e-06
7.30633e-06
7.03077e-06
6.75507e-06
6.4794e-06
6.20393e-06
5.92885e-06
5.65434e-06
5.38057e-06
5.10773e-06
4.83597e-06
4.56543e-06
4.29623e-06
4.02844e-06
3.76186e-06
3.49624e-06
3.23269e-06
2.97022e-06
2.7086e-06
2.44756e-06
2.18628e-06
1.92381e-06
1.66013e-06
1.39483e-06
1.12357e-06
8.42661e-07
5.49923e-07
2.57703e-07
4.91661e-08
4.37213e-07
2.0706e-06
4.04559e-06
5.91949e-06
7.70005e-06
9.429e-06
1.11213e-05
1.27825e-05
1.44223e-05
1.60447e-05
1.76594e-05
1.92611e-05
2.08508e-05
2.24321e-05
2.40055e-05
2.5571e-05
2.71281e-05
2.8676e-05
3.02137e-05
3.174e-05
3.32537e-05
3.47531e-05
3.62369e-05
3.77032e-05
3.91504e-05
4.05766e-05
4.198e-05
4.33588e-05
4.47109e-05
4.60346e-05
4.73278e-05
4.85887e-05
4.98155e-05
5.10061e-05
5.21589e-05
5.3272e-05
5.43438e-05
5.53727e-05
5.63569e-05
5.72951e-05
5.81859e-05
5.9028e-05
5.98201e-05
6.05613e-05
6.12504e-05
6.18868e-05
6.24696e-05
6.29983e-05
6.34724e-05
6.38915e-05
6.42555e-05
6.45643e-05
6.48181e-05
6.50169e-05
6.51611e-05
6.52513e-05
6.5288e-05
6.52719e-05
6.5204e-05
6.50852e-05
6.49169e-05
6.4701e-05
6.44404e-05
6.41359e-05
6.37871e-05
6.33953e-05
6.2962e-05
6.24889e-05
6.19776e-05
6.14301e-05
6.08481e-05
6.02336e-05
5.95885e-05
5.89147e-05
5.82142e-05
5.7489e-05
5.6741e-05
5.59723e-05
5.51847e-05
5.43802e-05
5.35607e-05
5.27282e-05
5.18843e-05
5.1031e-05
5.017e-05
4.9303e-05
4.84316e-05
4.75575e-05
4.66821e-05
4.5807e-05
4.49335e-05
4.4063e-05
4.31968e-05
4.2336e-05
4.14818e-05
4.06353e-05
3.97974e-05
3.8969e-05
3.81511e-05
3.73442e-05
3.65493e-05
3.57668e-05
3.49975e-05
3.42417e-05
3.34999e-05
3.27725e-05
3.20599e-05
3.13622e-05
3.06796e-05
3.00125e-05
2.93607e-05
2.87245e-05
2.81037e-05
2.74983e-05
2.69084e-05
2.63337e-05
2.57741e-05
2.52293e-05
2.46993e-05
2.41837e-05
2.36822e-05
2.31946e-05
2.27205e-05
2.22595e-05
2.18113e-05
2.13755e-05
2.09518e-05
2.05395e-05
2.01385e-05
1.97481e-05
1.9368e-05
1.89978e-05
1.86368e-05
1.82848e-05
1.79411e-05
1.76054e-05
1.72772e-05
1.6956e-05
1.66412e-05
1.63332e-05
1.6031e-05
1.57341e-05
1.5442e-05
1.51542e-05
1.48703e-05
1.459e-05
1.43127e-05
1.40381e-05
1.37659e-05
1.34956e-05
1.3227e-05
1.29596e-05
1.26932e-05
1.24274e-05
1.21621e-05
1.1897e-05
1.16317e-05
1.13662e-05
1.11003e-05
1.08337e-05
1.05664e-05
1.02983e-05
1.00291e-05
9.75901e-06
9.48944e-06
9.21941e-06
8.94852e-06
8.67671e-06
8.40403e-06
8.13053e-06
7.85633e-06
7.58154e-06
7.3063e-06
7.03075e-06
6.75505e-06
6.47938e-06
6.20391e-06
5.92883e-06
5.65432e-06
5.38056e-06
5.10771e-06
4.83595e-06
4.56542e-06
4.29622e-06
4.02843e-06
3.76185e-06
3.49624e-06
3.23269e-06
2.97021e-06
2.70859e-06
2.44756e-06
2.18628e-06
1.92381e-06
1.66013e-06
1.39484e-06
1.12358e-06
8.42665e-07
5.49926e-07
2.57705e-07
4.91667e-08
1.8937e-06
3.18028e-05
5.71859e-05
7.45133e-05
8.78033e-05
9.87154e-05
0.000108054
0.000116363
0.000123941
0.000130955
0.000137525
0.000143741
0.00014966
0.000155323
0.000160759
0.000165993
0.000171044
0.000175926
0.000180652
0.00018523
0.00018967
0.000193976
0.000198153
0.000202206
0.000206137
0.000209949
0.000213643
0.00021722
0.000220683
0.00022403
0.000227262
0.00023038
0.000233384
0.000236272
0.000239045
0.000241702
0.000244243
0.000246667
0.000248974
0.000251163
0.000253234
0.000255186
0.000257019
0.000258733
0.000260327
0.000261801
0.000263155
0.000264389
0.000265504
0.000266499
0.000267375
0.000268134
0.000268774
0.000269298
0.000269706
0.000269999
0.000270179
0.000270247
0.000270204
0.000270052
0.000269791
0.000269423
0.000268945
0.000268362
0.00026768
0.000266901
0.00026603
0.000265069
0.000264021
0.000262888
0.000261675
0.000260384
0.000259018
0.000257581
0.000256076
0.000254505
0.000252874
0.000251184
0.000249439
0.000247643
0.000245799
0.00024391
0.00024198
0.000240011
0.000238009
0.000235974
0.000233912
0.000231825
0.000229715
0.000227587
0.000225443
0.000223287
0.00022112
0.000218946
0.000216768
0.000214587
0.000212407
0.00021023
0.000208059
0.000205895
0.00020374
0.000201598
0.000199469
0.000197355
0.000195258
0.00019318
0.000191122
0.000189086
0.000187072
0.000185082
0.000183117
0.000181178
0.000179265
0.00017738
0.000175522
0.000173692
0.000171891
0.000170119
0.000168375
0.000166661
0.000164975
0.000163318
0.00016169
0.000160089
0.000158516
0.00015697
0.00015545
0.000153956
0.000152487
0.000151041
0.000149619
0.000148218
0.000146838
0.000145478
0.000144137
0.000142813
0.000141506
0.000140214
0.000138936
0.00013767
0.000136413
0.000135165
0.000133925
0.00013269
0.00013146
0.000130232
0.000129005
0.000127778
0.000126549
0.000125316
0.000124078
0.000122833
0.00012158
0.000120318
0.000119044
0.000117758
0.000116459
0.000115144
0.000113813
0.000112464
0.000111095
0.000109707
0.000108295
0.000106858
0.000105382
0.000103881
0.000102353
0.000100798
9.92144e-05
9.76026e-05
9.59612e-05
9.42895e-05
9.25866e-05
9.08514e-05
8.9083e-05
8.72802e-05
8.54416e-05
8.35656e-05
8.16506e-05
7.96944e-05
7.76944e-05
7.56477e-05
7.35506e-05
7.13985e-05
6.91861e-05
6.69074e-05
6.45538e-05
6.21094e-05
5.95588e-05
5.68814e-05
5.40486e-05
5.10166e-05
4.77192e-05
4.40285e-05
3.98103e-05
3.49005e-05
2.8911e-05
2.10671e-05
9.88488e-06
2.30432e-07
1.8938e-06
3.1805e-05
5.71892e-05
7.4517e-05
8.78071e-05
9.87193e-05
0.000108058
0.000116367
0.000123945
0.000130959
0.000137529
0.000143745
0.000149664
0.000155327
0.000160763
0.000165997
0.000171048
0.00017593
0.000180656
0.000185235
0.000189674
0.000193981
0.000198158
0.000202211
0.000206142
0.000209954
0.000213648
0.000217226
0.000220688
0.000224035
0.000227268
0.000230386
0.000233389
0.000236278
0.000239051
0.000241708
0.000244249
0.000246673
0.00024898
0.000251169
0.00025324
0.000255192
0.000257025
0.000258739
0.000260333
0.000261807
0.000263161
0.000264395
0.00026551
0.000266505
0.000267382
0.00026814
0.00026878
0.000269304
0.000269712
0.000270006
0.000270186
0.000270253
0.00027021
0.000270058
0.000269797
0.000269429
0.000268951
0.000268368
0.000267686
0.000266907
0.000266036
0.000265075
0.000264026
0.000262894
0.000261681
0.00026039
0.000259024
0.000257587
0.000256081
0.000254511
0.000252879
0.000251189
0.000249444
0.000247648
0.000245804
0.000243915
0.000241985
0.000240016
0.000238013
0.000235979
0.000233917
0.000231829
0.00022972
0.000227592
0.000225448
0.000223291
0.000221124
0.00021895
0.000216772
0.000214591
0.000212411
0.000210234
0.000208063
0.000205899
0.000203744
0.000201601
0.000199472
0.000197358
0.000195262
0.000193184
0.000191126
0.000189089
0.000187075
0.000185085
0.00018312
0.000181181
0.000179268
0.000177382
0.000175524
0.000173695
0.000171893
0.000170121
0.000168378
0.000166663
0.000164977
0.00016332
0.000161692
0.000160091
0.000158518
0.000156972
0.000155452
0.000153958
0.000152489
0.000151043
0.00014962
0.00014822
0.00014684
0.00014548
0.000144138
0.000142814
0.000141507
0.000140215
0.000138937
0.000137671
0.000136414
0.000135166
0.000133926
0.000132691
0.000131461
0.000130233
0.000129006
0.000127779
0.000126549
0.000125316
0.000124078
0.000122834
0.000121581
0.000120318
0.000119045
0.000117759
0.000116459
0.000115144
0.000113813
0.000112464
0.000111096
0.000109707
0.000108296
0.000106858
0.000105382
0.000103881
0.000102353
0.000100798
9.92147e-05
9.76028e-05
9.59614e-05
9.42897e-05
9.25868e-05
9.08516e-05
8.90832e-05
8.72804e-05
8.54418e-05
8.35658e-05
8.16508e-05
7.96946e-05
7.76946e-05
7.56479e-05
7.35507e-05
7.13987e-05
6.91863e-05
6.69076e-05
6.4554e-05
6.21096e-05
5.9559e-05
5.68816e-05
5.40488e-05
5.10168e-05
4.77194e-05
4.40286e-05
3.98104e-05
3.49006e-05
2.89111e-05
2.10672e-05
9.88483e-06
2.30432e-07
3.77923e-06
5.55462e-05
0.000109563
0.000149728
0.000180733
0.000205747
0.000226746
0.000244929
0.000261061
0.000275642
0.000289006
0.000301392
0.000312969
0.000323861
0.000334162
0.000343944
0.000353263
0.000362167
0.000370691
0.000378866
0.000386715
0.00039426
0.000401517
0.000408499
0.00041522
0.000421689
0.000427915
0.000433904
0.000439663
0.000445197
0.000450511
0.000455609
0.000460493
0.000465167
0.000469634
0.000473896
0.000477954
0.000481811
0.000485469
0.000488928
0.000492191
0.000495259
0.000498133
0.000500814
0.000503305
0.000505605
0.000507717
0.000509642
0.000511382
0.000512937
0.000514311
0.000515503
0.000516517
0.000517354
0.000518016
0.000518506
0.000518824
0.000518974
0.000518957
0.000518774
0.000518428
0.000517919
0.000517246
0.000516414
0.000515431
0.000514301
0.00051303
0.000511622
0.000510082
0.000508413
0.00050662
0.000504708
0.000502679
0.000500539
0.000498293
0.000495943
0.000493496
0.000490955
0.000488325
0.000485611
0.000482817
0.000479948
0.000477008
0.000474002
0.000470935
0.000467811
0.000464634
0.00046141
0.000458142
0.000454835
0.000451494
0.000448122
0.000444724
0.000441304
0.000437866
0.000434414
0.000430951
0.000427482
0.00042401
0.000420538
0.00041707
0.000413609
0.000410158
0.00040672
0.000403297
0.000399893
0.00039651
0.000393151
0.000389816
0.000386509
0.000383231
0.000379984
0.000376769
0.000373588
0.000370441
0.00036733
0.000364256
0.000361218
0.000358218
0.000355256
0.000352332
0.000349445
0.000346596
0.000343784
0.000341008
0.000338268
0.000335563
0.000332892
0.000330253
0.000327645
0.000325068
0.000322518
0.000319996
0.000317498
0.000315023
0.000312571
0.000310139
0.000307724
0.000305322
0.000302932
0.00030055
0.000298174
0.000295802
0.000293432
0.00029106
0.000288685
0.000286304
0.000283913
0.00028151
0.000279094
0.00027666
0.000274206
0.000271731
0.000269231
0.000266704
0.000264147
0.000261558
0.000258936
0.000256276
0.000253577
0.000250836
0.000248051
0.000245216
0.000242326
0.000239371
0.000236357
0.000233284
0.000230152
0.000226959
0.000223704
0.000220384
0.000216996
0.000213539
0.000210007
0.000206399
0.00020271
0.000198935
0.000195068
0.000191104
0.000187034
0.00018285
0.000178542
0.000174096
0.000169498
0.000164729
0.000159767
0.000154581
0.000149132
0.00014337
0.000137226
0.000130604
0.000123373
0.000115347
0.000106238
9.56264e-05
8.29723e-05
6.7297e-05
4.696e-05
2.02706e-05
4.97522e-07
3.77937e-06
5.55494e-05
0.000109569
0.000149736
0.000180741
0.000205756
0.000226755
0.000244938
0.00026107
0.000275651
0.000289015
0.000301401
0.000312978
0.00032387
0.00033417
0.000343952
0.000353272
0.000362175
0.0003707
0.000378874
0.000386724
0.000394268
0.000401525
0.000408508
0.000415229
0.000421698
0.000427924
0.000433913
0.000439672
0.000445206
0.00045052
0.000455617
0.000460502
0.000465176
0.000469643
0.000473905
0.000477963
0.00048182
0.000485478
0.000488937
0.0004922
0.000495268
0.000498142
0.000500823
0.000503314
0.000505614
0.000507726
0.000509651
0.000511391
0.000512946
0.000514319
0.000515512
0.000516526
0.000517363
0.000518025
0.000518514
0.000518833
0.000518982
0.000518965
0.000518783
0.000518437
0.000517927
0.000517255
0.000516423
0.000515439
0.000514309
0.000513038
0.00051163
0.00051009
0.000508421
0.000506628
0.000504715
0.000502686
0.000500547
0.0004983
0.00049595
0.000493503
0.000490962
0.000488332
0.000485618
0.000482824
0.000479954
0.000477014
0.000474008
0.000470941
0.000467816
0.00046464
0.000461415
0.000458148
0.000454841
0.000451499
0.000448127
0.000444729
0.000441309
0.000437871
0.000434418
0.000430956
0.000427486
0.000424014
0.000420542
0.000417074
0.000413613
0.000410162
0.000406723
0.000403301
0.000399897
0.000396514
0.000393154
0.000389819
0.000386512
0.000383234
0.000379987
0.000376772
0.00037359
0.000370444
0.000367333
0.000364258
0.000361221
0.000358221
0.000355258
0.000352334
0.000349447
0.000346598
0.000343786
0.00034101
0.00033827
0.000335565
0.000332893
0.000330254
0.000327647
0.000325069
0.000322519
0.000319997
0.000317499
0.000315024
0.000312572
0.000310139
0.000307724
0.000305323
0.000302932
0.00030055
0.000298174
0.000295802
0.000293432
0.000291061
0.000288685
0.000286304
0.000283913
0.00028151
0.000279093
0.00027666
0.000274206
0.000271731
0.000269231
0.000266703
0.000264147
0.000261558
0.000258935
0.000256275
0.000253576
0.000250836
0.00024805
0.000245215
0.000242325
0.00023937
0.000236356
0.000233283
0.000230152
0.000226959
0.000223703
0.000220383
0.000216996
0.000213538
0.000210007
0.000206399
0.000202709
0.000198934
0.000195068
0.000191103
0.000187033
0.00018285
0.000178541
0.000174096
0.000169498
0.000164729
0.000159766
0.000154581
0.000149132
0.00014337
0.000137226
0.000130604
0.000123373
0.000115347
0.000106238
9.56264e-05
8.29723e-05
6.72971e-05
4.696e-05
2.02705e-05
4.97522e-07
5.63302e-06
7.21489e-05
0.000148059
0.000209119
0.000258115
0.000298418
0.000332478
0.000361947
0.00038795
0.000411271
0.000432462
0.000451924
0.000469955
0.000486776
0.000502557
0.000517431
0.000531503
0.000544858
0.000557563
0.000569675
0.000581239
0.000592294
0.000602873
0.000613002
0.000622705
0.000632001
0.000640908
0.000649441
0.000657611
0.000665431
0.000672911
0.000680059
0.000686883
0.00069339
0.000699587
0.00070548
0.000711074
0.000716373
0.000721383
0.000726107
0.000730551
0.000734717
0.000738609
0.000742232
0.000745588
0.00074868
0.000751513
0.00075409
0.000756413
0.000758486
0.000760313
0.000761896
0.000763239
0.000764345
0.000765218
0.00076586
0.000766276
0.000766468
0.000766439
0.000766192
0.00076573
0.000765054
0.000764166
0.000763072
0.000761777
0.000760291
0.000758618
0.000756765
0.000754737
0.00075254
0.000750179
0.00074766
0.000744987
0.000742167
0.000739205
0.000736106
0.000732876
0.00072952
0.000726045
0.000722456
0.000718758
0.000714958
0.00071106
0.000707072
0.000702998
0.000698845
0.000694618
0.000690322
0.000685964
0.000681549
0.000677082
0.000672569
0.000668015
0.000663426
0.000658806
0.000654161
0.000649496
0.000644814
0.000640122
0.000635424
0.000630723
0.000626025
0.000621333
0.000616651
0.000611982
0.000607331
0.0006027
0.000598093
0.000593513
0.000588961
0.000584441
0.000579955
0.000575504
0.000571091
0.000566717
0.000562383
0.000558091
0.000553841
0.000549633
0.000545469
0.000541348
0.00053727
0.000533235
0.000529243
0.000525291
0.00052138
0.000517508
0.000513674
0.000509877
0.000506113
0.000502383
0.000498682
0.00049501
0.000491364
0.000487742
0.000484142
0.00048056
0.000476992
0.000473434
0.000469883
0.000466336
0.000462789
0.000459239
0.000455683
0.000452117
0.000448537
0.000444941
0.000441324
0.000437683
0.000434015
0.000430316
0.000426582
0.00042281
0.000418998
0.00041514
0.000411235
0.000407279
0.000403269
0.0003992
0.000395071
0.000390877
0.000386613
0.000382275
0.000377856
0.000373348
0.000368753
0.000364068
0.000359293
0.000354423
0.000349457
0.000344389
0.000339215
0.00033393
0.000328528
0.000323
0.000317341
0.000311539
0.000305584
0.000299464
0.000293164
0.000286666
0.00027995
0.000272991
0.00026576
0.00025822
0.000250327
0.000242025
0.00023324
0.00022388
0.000213821
0.000202899
0.000190889
0.00017748
0.000162234
0.000144547
0.000123547
9.8013e-05
6.62225e-05
2.76416e-05
7.74704e-07
5.63317e-06
7.21524e-05
0.000148067
0.00020913
0.000258127
0.000298431
0.000332491
0.00036196
0.000387964
0.000411284
0.000432475
0.000451937
0.000469968
0.000486788
0.000502569
0.000517443
0.000531516
0.00054487
0.000557575
0.000569687
0.000581251
0.000592307
0.000602885
0.000613014
0.000622717
0.000632013
0.00064092
0.000649453
0.000657623
0.000665443
0.000672923
0.000680071
0.000686895
0.000693402
0.000699599
0.000705492
0.000711085
0.000716385
0.000721394
0.000726119
0.000730562
0.000734728
0.000738621
0.000742243
0.000745599
0.000748691
0.000751524
0.0007541
0.000756424
0.000758497
0.000760323
0.000761906
0.000763249
0.000764355
0.000765228
0.000765871
0.000766286
0.000766478
0.000766449
0.000766202
0.00076574
0.000765063
0.000764176
0.000763081
0.000761787
0.0007603
0.000758627
0.000756774
0.000754746
0.000752549
0.000750188
0.000747668
0.000744996
0.000742175
0.000739213
0.000736113
0.000732883
0.000729528
0.000726052
0.000722463
0.000718765
0.000714964
0.000711067
0.000707079
0.000703005
0.000698851
0.000694624
0.000690328
0.00068597
0.000681555
0.000677087
0.000672574
0.00066802
0.000663431
0.000658811
0.000654166
0.0006495
0.000644819
0.000640127
0.000635428
0.000630727
0.000626029
0.000621337
0.000616654
0.000611986
0.000607334
0.000602704
0.000598096
0.000593515
0.000588964
0.000584444
0.000579957
0.000575506
0.000571093
0.000566719
0.000562385
0.000558093
0.000553842
0.000549635
0.000545471
0.00054135
0.000537272
0.000533237
0.000529244
0.000525292
0.000521381
0.000517509
0.000513675
0.000509877
0.000506114
0.000502383
0.000498682
0.00049501
0.000491364
0.000487742
0.000484142
0.00048056
0.000476992
0.000473434
0.000469883
0.000466336
0.000462788
0.000459238
0.000455682
0.000452116
0.000448536
0.00044494
0.000441323
0.000437682
0.000434014
0.000430314
0.000426581
0.000422809
0.000418996
0.000415139
0.000411234
0.000407278
0.000403267
0.000399199
0.000395069
0.000390875
0.000386612
0.000382273
0.000377854
0.000373347
0.000368751
0.000364067
0.000359291
0.000354422
0.000349455
0.000344387
0.000339214
0.000333928
0.000328526
0.000322999
0.000317339
0.000311538
0.000305583
0.000299463
0.000293162
0.000286665
0.000279948
0.00027299
0.000265759
0.000258219
0.000250326
0.000242024
0.000233239
0.000223879
0.000213821
0.000202898
0.000190888
0.00017748
0.000162234
0.000144547
0.000123547
9.80131e-05
6.62225e-05
2.76414e-05
7.74705e-07
7.44725e-06
8.53438e-05
0.000178197
0.000256856
0.00032213
0.000376995
0.000423933
0.000464788
0.000500904
0.000533265
0.000562598
0.000589445
0.000614218
0.000637232
0.000658733
0.000678914
0.000697929
0.000715904
0.00073294
0.000749122
0.000764517
0.000779185
0.000793174
0.000806526
0.000819277
0.000831457
0.000843092
0.000854206
0.000864819
0.000874948
0.000884611
0.00089382
0.000902589
0.000910929
0.000918851
0.000926365
0.000933479
0.000940202
0.000946543
0.000952507
0.000958103
0.000963336
0.000968214
0.000972742
0.000976927
0.000980773
0.000984287
0.000987474
0.000990339
0.000992888
0.000995126
0.000997058
0.000998689
0.00100002
0.00100107
0.00100182
0.0010023
0.0010025
0.00100243
0.00100208
0.00100148
0.00100061
0.00099949
0.000998116
0.000996499
0.000994647
0.000992567
0.000990267
0.000987753
0.000985032
0.00098211
0.000978995
0.000975692
0.000972209
0.000968552
0.000964728
0.000960743
0.000956604
0.000952318
0.000947892
0.000943332
0.000938645
0.000933839
0.000928919
0.000923893
0.000918767
0.000913549
0.000908245
0.000902862
0.000897406
0.000891884
0.000886302
0.000880667
0.000874985
0.000869263
0.000863505
0.000857719
0.00085191
0.000846083
0.000840244
0.000834399
0.000828551
0.000822707
0.00081687
0.000811045
0.000805236
0.000799448
0.000793683
0.000787946
0.000782239
0.000776565
0.000770928
0.000765329
0.00075977
0.000754253
0.00074878
0.000743352
0.00073797
0.000732634
0.000727345
0.000722102
0.000716907
0.000711757
0.000706652
0.000701592
0.000696574
0.000691598
0.000686661
0.000681762
0.000676898
0.000672066
0.000667265
0.000662491
0.000657741
0.000653014
0.000648305
0.00064361
0.000638923
0.000634242
0.000629562
0.000624878
0.000620186
0.000615483
0.000610765
0.000606026
0.000601262
0.00059647
0.000591645
0.000586783
0.000581879
0.00057693
0.00057193
0.000566877
0.000561765
0.000556591
0.000551351
0.00054604
0.000540655
0.000535192
0.000529645
0.000524012
0.000518285
0.000512459
0.000506528
0.000500485
0.000494327
0.000488051
0.000481653
0.000475127
0.00046847
0.000461675
0.000454733
0.000447638
0.000440379
0.000432946
0.000425325
0.000417502
0.000409461
0.000401181
0.00039264
0.00038381
0.00037466
0.000365153
0.000355242
0.000344873
0.000333978
0.000322472
0.000310249
0.000297174
0.000283071
0.000267713
0.000250797
0.000231919
0.000210536
0.000185911
0.000157039
0.000122648
8.12624e-05
3.34821e-05
1.05196e-06
7.4474e-06
8.53474e-05
0.000178206
0.000256868
0.000322144
0.000377011
0.00042395
0.000464804
0.000500921
0.000533282
0.000562615
0.000589463
0.000614235
0.000637249
0.00065875
0.00067893
0.000697946
0.000715921
0.000732957
0.000749138
0.000764533
0.000779201
0.00079319
0.000806542
0.000819293
0.000831472
0.000843108
0.000854221
0.000864834
0.000874963
0.000884626
0.000893835
0.000902603
0.000910943
0.000918865
0.000926379
0.000933493
0.000940217
0.000946557
0.000952521
0.000958117
0.00096335
0.000968228
0.000972756
0.00097694
0.000980786
0.0009843
0.000987487
0.000990352
0.000992901
0.000995139
0.00099707
0.000998701
0.00100004
0.00100108
0.00100184
0.00100231
0.00100251
0.00100244
0.0010021
0.00100149
0.00100062
0.000999501
0.000998127
0.000996509
0.000994657
0.000992577
0.000990277
0.000987762
0.000985041
0.000982119
0.000979004
0.000975701
0.000972218
0.000968561
0.000964737
0.000960751
0.000956612
0.000952326
0.0009479
0.000943339
0.000938653
0.000933846
0.000928926
0.0009239
0.000918774
0.000913556
0.000908251
0.000902868
0.000897412
0.00089189
0.000886308
0.000880673
0.000874991
0.000869268
0.00086351
0.000857724
0.000851915
0.000846088
0.000840249
0.000834403
0.000828555
0.00082271
0.000816873
0.000811048
0.00080524
0.000799451
0.000793686
0.000787949
0.000782242
0.000776568
0.00077093
0.000765331
0.000759772
0.000754255
0.000748782
0.000743354
0.000737972
0.000732636
0.000727346
0.000722104
0.000716908
0.000711758
0.000706653
0.000701593
0.000696575
0.000691599
0.000686662
0.000681762
0.000676898
0.000672066
0.000667265
0.000662491
0.000657741
0.000653014
0.000648305
0.000643609
0.000638923
0.000634242
0.000629561
0.000624877
0.000620186
0.000615482
0.000610764
0.000606025
0.000601261
0.000596469
0.000591644
0.000586782
0.000581878
0.000576928
0.000571929
0.000566875
0.000561763
0.000556589
0.000551349
0.000546038
0.000540653
0.00053519
0.000529643
0.000524009
0.000518283
0.000512457
0.000506526
0.000500483
0.000494325
0.000488049
0.00048165
0.000475125
0.000468468
0.000461673
0.000454731
0.000447636
0.000440377
0.000432944
0.000425323
0.000417501
0.000409459
0.000401179
0.000392638
0.000383808
0.000374659
0.000365151
0.000355241
0.000344872
0.000333976
0.000322471
0.000310248
0.000297173
0.000283071
0.000267712
0.000250796
0.000231918
0.000210535
0.000185911
0.000157039
0.000122648
8.12626e-05
3.3482e-05
1.05196e-06
9.24942e-06
9.64744e-05
0.000203037
0.000296577
0.000376232
0.000444394
0.0005034
0.000555139
0.000601066
0.000642293
0.000679673
0.000713857
0.000745352
0.000774555
0.000801779
0.000827273
0.000851239
0.000873841
0.000895213
0.000915465
0.000934691
0.000952968
0.000970363
0.00098693
0.00100272
0.00101777
0.00103212
0.0010458
0.00105884
0.00107126
0.00108308
0.00109433
0.00110502
0.00111517
0.00112479
0.0011339
0.0011425
0.00115062
0.00115826
0.00116543
0.00117215
0.00117842
0.00118425
0.00118965
0.00119463
0.00119919
0.00120335
0.00120712
0.00121049
0.00121348
0.0012161
0.00121834
0.00122023
0.00122176
0.00122294
0.00122379
0.00122429
0.00122447
0.00122433
0.00122387
0.0012231
0.00122203
0.00122065
0.00121899
0.00121704
0.00121481
0.00121232
0.00120957
0.00120657
0.00120332
0.00119985
0.00119615
0.00119222
0.00118809
0.00118376
0.00117923
0.00117451
0.00116961
0.00116454
0.00115931
0.00115392
0.00114838
0.00114271
0.0011369
0.00113096
0.00112491
0.00111875
0.00111249
0.00110614
0.0010997
0.00109318
0.00108659
0.00107994
0.00107323
0.00106647
0.00105967
0.00105283
0.00104597
0.00103908
0.00103217
0.00102526
0.00101834
0.00101142
0.00100451
0.000997609
0.000990725
0.000983861
0.000977021
0.000970211
0.000963432
0.000956689
0.000949984
0.00094332
0.000936699
0.000930124
0.000923595
0.000917114
0.000910682
0.0009043
0.000897968
0.000891685
0.000885452
0.000879267
0.000873129
0.000867038
0.000860991
0.000854986
0.000849021
0.000843094
0.000837202
0.000831342
0.00082551
0.000819704
0.00081392
0.000808154
0.000802402
0.000796659
0.000790919
0.000785178
0.000779431
0.000773673
0.000767898
0.000762103
0.000756283
0.000750431
0.000744544
0.000738616
0.000732642
0.000726618
0.000720537
0.000714396
0.00070819
0.000701913
0.000695562
0.00068913
0.000682614
0.000676009
0.00066931
0.000662511
0.000655608
0.000648596
0.000641468
0.000634217
0.000626837
0.000619321
0.000611662
0.000603857
0.000595899
0.000587781
0.000579496
0.000571035
0.000562387
0.000553541
0.000544485
0.000535202
0.000525675
0.000515884
0.000505806
0.000495414
0.000484676
0.000473557
0.000462012
0.000449991
0.000437433
0.000424264
0.000410393
0.000395711
0.000380079
0.000363325
0.000345228
0.000325508
0.000303801
0.000279638
0.000252404
0.000221303
0.000185305
0.000143162
9.37044e-05
3.84381e-05
1.32912e-06
9.24957e-06
9.6478e-05
0.000203045
0.00029659
0.000376247
0.000444411
0.000503419
0.000555158
0.000601086
0.000642314
0.000679693
0.000713877
0.000745372
0.000774575
0.000801799
0.000827293
0.000851259
0.000873861
0.000895232
0.000915485
0.000934711
0.000952988
0.000970382
0.000986949
0.00100274
0.00101779
0.00103214
0.00104582
0.00105885
0.00107127
0.0010831
0.00109435
0.00110504
0.00111518
0.0011248
0.00113391
0.00114252
0.00115064
0.00115828
0.00116545
0.00117217
0.00117844
0.00118427
0.00118966
0.00119464
0.00119921
0.00120337
0.00120713
0.0012105
0.00121349
0.00121611
0.00121836
0.00122024
0.00122177
0.00122296
0.0012238
0.00122431
0.00122449
0.00122434
0.00122388
0.00122311
0.00122204
0.00122066
0.001219
0.00121705
0.00121482
0.00121233
0.00120958
0.00120658
0.00120333
0.00119986
0.00119616
0.00119223
0.0011881
0.00118377
0.00117924
0.00117452
0.00116962
0.00116455
0.00115932
0.00115393
0.00114839
0.00114271
0.0011369
0.00113097
0.00112492
0.00111876
0.0011125
0.00110614
0.0010997
0.00109318
0.00108659
0.00107994
0.00107323
0.00106647
0.00105967
0.00105284
0.00104597
0.00103908
0.00103218
0.00102526
0.00101834
0.00101143
0.00100451
0.000997613
0.000990729
0.000983865
0.000977025
0.000970214
0.000963435
0.000956692
0.000949987
0.000943323
0.000936702
0.000930126
0.000923597
0.000917116
0.000910685
0.000904302
0.00089797
0.000891687
0.000885453
0.000879268
0.000873131
0.000867039
0.000860992
0.000854987
0.000849022
0.000843095
0.000837203
0.000831342
0.000825511
0.000819704
0.00081392
0.000808154
0.000802402
0.000796659
0.000790919
0.000785178
0.00077943
0.000773672
0.000767898
0.000762103
0.000756282
0.00075043
0.000744543
0.000738615
0.000732641
0.000726616
0.000720536
0.000714395
0.000708189
0.000701912
0.00069556
0.000689128
0.000682612
0.000676007
0.000669308
0.000662509
0.000655607
0.000648594
0.000641466
0.000634215
0.000626835
0.000619319
0.00061166
0.000603855
0.000595897
0.000587779
0.000579494
0.000571033
0.000562385
0.000553539
0.000544483
0.0005352
0.000525673
0.000515882
0.000505804
0.000495412
0.000484675
0.000473555
0.000462011
0.00044999
0.000437432
0.000424262
0.000410392
0.00039571
0.000380078
0.000363324
0.000345227
0.000325507
0.000303801
0.000279638
0.000252404
0.000221303
0.000185305
0.000143162
9.37045e-05
3.84379e-05
1.32912e-06
1.10445e-05
0.00010628
0.000224386
0.000330691
0.000423002
0.000503134
0.000573216
0.000635099
0.000690284
0.000739962
0.000785066
0.000826334
0.000864348
0.000899572
0.000932376
0.00096306
0.000991868
0.001019
0.00104461
0.00106886
0.00109184
0.00111365
0.00113438
0.0011541
0.00117287
0.00119073
0.00120774
0.00122394
0.00123935
0.00125401
0.00126795
0.0012812
0.00129377
0.00130568
0.00131696
0.00132763
0.00133769
0.00134717
0.00135607
0.00136442
0.00137222
0.00137949
0.00138624
0.00139248
0.00139823
0.00140348
0.00140826
0.00141257
0.00141642
0.00141982
0.00142279
0.00142532
0.00142744
0.00142914
0.00143044
0.00143134
0.00143186
0.001432
0.00143177
0.00143118
0.00143023
0.00142893
0.0014273
0.00142533
0.00142303
0.00142043
0.00141752
0.00141432
0.00141083
0.00140707
0.00140304
0.00139876
0.00139422
0.00138945
0.00138445
0.00137923
0.0013738
0.00136816
0.00136233
0.00135632
0.00135013
0.00134377
0.00133725
0.00133059
0.00132378
0.00131684
0.00130978