/*--------------------------------*- C++ -*----------------------------------*\
  =========                 |
  \\      /  F ield         | OpenFOAM: The Open Source CFD Toolbox
   \\    /   O peration     | Website:  https://openfoam.org
    \\  /    A nd           | Version:  8
     \\/     M anipulation  |
\*---------------------------------------------------------------------------*/
FoamFile
{
    version     2.0;
    format      ascii;
    class       volScalarField;
    location    "2800";
    object      epsilon;
}
// * * * * * * * * * * * * * * * * * * * * * * * * * * * * * * * * * * * * * //

dimensions      [0 2 -3 0 0 0 0];

internalField   nonuniform List<scalar> 
46000
(
7.9438
33.9312
66.1563
96.657
125.594
153.66
181.106
208.025
234.58
260.838
286.958
312.853
338.546
364.092
389.502
414.776
439.907
464.883
489.689
514.305
538.712
562.885
586.801
610.432
633.751
656.729
679.336
701.543
723.319
744.634
765.456
785.756
805.503
824.667
843.219
861.132
878.377
894.929
910.762
925.853
940.178
953.719
966.454
978.368
989.444
999.669
1009.03
1017.52
1025.13
1031.86
1037.7
1042.65
1046.71
1049.89
1052.19
1053.62
1054.19
1053.91
1052.79
1050.86
1048.13
1044.63
1040.42
1035.5
1029.86
1023.54
1016.54
1008.91
1000.66
991.831
982.446
972.538
962.137
951.276
939.986
928.297
916.243
903.855
891.164
878.201
864.998
851.583
837.988
824.24
810.368
796.4
782.362
768.279
754.177
740.079
726.007
711.983
698.028
684.161
670.399
656.761
643.261
629.915
616.736
603.737
590.929
578.321
565.925
553.746
541.794
530.073
518.589
507.346
496.347
485.595
475.092
464.838
454.834
445.078
435.57
426.307
417.287
408.508
399.965
391.654
383.572
375.712
368.07
360.64
353.416
346.392
339.561
332.917
326.452
320.161
314.034
308.066
302.248
296.573
291.034
285.623
280.333
275.156
270.082
265.118
260.246
255.46
250.75
246.111
241.534
237.014
232.543
228.116
223.725
219.366
215.032
210.718
206.419
202.131
197.848
193.568
189.285
184.997
180.701
176.395
172.074
167.739
163.387
159.018
154.657
150.287
145.901
141.5
137.082
132.65
128.206
123.75
119.284
114.813
110.337
105.86
101.384
96.9134
92.4498
87.9965
83.5563
79.1318
74.7253
70.3386
65.973
61.6252
57.2909
52.9883
48.7015
44.4263
40.1588
35.885
31.5897
27.2717
22.9251
18.4777
13.8683
9.05922
4.25051
0.901117
7.94436
33.933
66.1588
96.6596
125.596
153.663
181.108
208.028
234.582
260.841
286.96
312.855
338.548
364.094
389.504
414.778
439.909
464.885
489.69
514.307
538.713
562.887
586.802
610.433
633.752
656.73
679.337
701.544
723.32
744.635
765.457
785.756
805.503
824.667
843.22
861.132
878.377
894.929
910.762
925.853
940.178
953.718
966.454
978.367
989.444
999.669
1009.03
1017.52
1025.13
1031.86
1037.7
1042.65
1046.71
1049.89
1052.19
1053.62
1054.19
1053.91
1052.79
1050.86
1048.13
1044.63
1040.42
1035.5
1029.86
1023.54
1016.54
1008.91
1000.66
991.829
982.445
972.536
962.136
951.275
939.984
928.296
916.242
903.854
891.163
878.2
864.996
851.582
837.986
824.239
810.367
796.399
782.36
768.278
754.176
740.077
726.006
711.982
698.027
684.159
670.398
656.759
643.26
629.914
616.735
603.736
590.927
578.32
565.923
553.745
541.793
530.072
518.588
507.345
496.346
485.594
475.091
464.837
454.832
445.077
435.568
426.306
417.286
408.507
399.964
391.653
383.571
375.711
368.069
360.639
353.415
346.391
339.56
332.916
326.451
320.159
314.033
308.065
302.247
296.572
291.033
285.622
280.332
275.155
270.081
265.117
260.245
255.459
250.749
246.11
241.533
237.013
232.542
228.115
223.724
219.365
215.031
210.717
206.419
202.13
197.848
193.567
189.284
184.997
180.701
176.394
172.074
167.739
163.387
159.018
154.656
150.286
145.901
141.499
137.082
132.65
128.205
123.749
119.284
114.812
110.337
105.86
101.384
96.9131
92.4495
87.9963
83.5561
79.1316
74.7251
70.3385
65.9728
61.6251
57.2907
52.9882
48.7014
44.4263
40.1587
35.885
31.5896
27.2717
22.9251
18.4778
13.8684
9.05927
4.25054
0.901127
36.7087
31.4731
41.2948
52.7776
64.6539
76.7138
88.893
101.141
113.466
125.828
138.251
150.724
163.244
175.814
188.43
201.087
213.773
226.479
239.191
251.897
264.579
277.223
289.81
302.322
314.741
327.047
339.218
351.236
363.078
374.723
386.151
397.339
408.267
418.913
429.256
439.276
448.953
458.268
467.203
475.738
483.859
491.548
498.791
505.575
511.887
517.717
523.054
527.89
532.219
536.036
539.336
542.118
544.38
546.125
547.354
548.071
548.282
547.995
547.217
545.961
544.239
542.071
539.479
536.474
533.058
529.242
525.041
520.473
515.554
510.303
504.739
498.881
492.75
486.365
479.746
472.914
465.887
458.687
451.332
443.842
436.235
428.531
420.747
412.9
405.008
397.087
389.153
381.219
373.302
365.413
357.567
349.774
342.047
334.395
326.828
319.356
311.987
304.728
297.585
290.566
283.675
276.917
270.296
263.815
257.478
251.286
245.242
239.346
233.599
228.002
222.554
217.254
212.102
207.096
202.234
197.515
192.936
188.494
184.188
180.013
175.966
172.045
168.246
164.565
160.998
157.542
154.192
150.944
147.795
144.741
141.776
138.898
136.101
133.382
130.737
128.16
125.647
123.198
120.809
118.475
116.193
113.957
111.765
109.611
107.492
105.406
103.347
101.314
99.3032
97.3112
95.3354
93.3731
91.4217
89.4788
87.5421
85.6096
83.6793
81.7496
79.8189
77.8859
75.9496
74.009
72.064
70.1159
68.1707
66.2229
64.2706
62.313
60.3502
58.3825
56.4104
54.4348
52.4566
50.4771
48.4973
46.5187
44.5426
42.5705
40.604
38.6444
36.6933
34.7521
32.8219
30.904
28.9992
27.1076
25.2293
23.3663
21.5155
19.6781
17.8562
16.0463
14.2474
12.4627
10.6906
8.91844
7.14468
5.39964
3.88495
4.56179
36.7105
31.4723
41.2933
52.7756
64.6516
76.7111
88.89
101.137
113.463
125.824
138.246
150.719
163.239
175.809
188.425
201.08
213.766
226.472
239.184
251.889
264.571
277.214
289.801
302.313
314.731
327.036
339.208
351.225
363.067
374.712
386.139
397.327
408.254
418.9
429.243
439.262
448.939
458.254
467.188
475.723
483.844
491.533
498.776
505.559
511.871
517.701
523.037
527.874
532.203
536.019
539.319
542.101
544.363
546.108
547.337
548.054
548.265
547.977
547.2
545.944
544.223
542.054
539.463
536.457
533.041
529.226
525.025
520.457
515.538
510.287
504.723
498.866
492.735
486.35
479.731
472.899
465.873
458.673
451.318
443.828
436.222
428.518
420.734
412.888
404.996
397.075
389.141
381.208
373.291
365.402
357.556
349.764
342.036
334.385
326.819
319.347
311.978
304.719
297.577
290.557
283.667
276.909
270.288
263.808
257.471
251.279
245.235
239.339
233.593
227.996
222.548
217.248
212.096
207.09
202.229
197.51
192.931
188.489
184.183
180.008
175.962
172.041
168.242
164.561
160.994
157.538
154.188
150.941
147.792
144.737
141.773
138.895
136.098
133.379
130.734
128.157
125.644
123.195
120.806
118.473
116.191
113.955
111.763
109.609
107.49
105.404
103.345
101.312
99.3015
97.3096
95.3339
93.3717
91.4203
89.4774
87.5408
85.6083
83.6781
81.7485
79.8179
77.8849
75.9486
74.0081
72.0632
70.115
68.1699
66.2221
64.2698
62.3123
60.3496
58.3818
56.4098
54.4342
52.4561
50.4765
48.4968
46.5182
44.5421
42.5701
40.6036
38.644
36.6929
34.7517
32.8216
30.9037
28.9989
27.1073
25.2291
23.366
21.5153
19.6779
17.856
16.0461
14.2473
12.4626
10.6906
8.91838
7.14464
5.39962
3.88496
4.56178
72.0816
43.3187
44.8127
50.6013
57.7555
65.5605
73.7486
82.1837
90.8054
99.5713
108.461
117.456
126.544
135.716
144.963
154.274
163.639
173.047
182.487
191.946
201.411
210.869
220.305
229.704
239.051
248.33
257.525
266.618
275.594
284.434
293.122
301.641
309.972
318.099
326.005
333.673
341.087
348.231
355.089
361.647
367.891
373.808
379.384
384.61
389.474
393.967
398.08
401.807
405.141
408.078
410.614
412.747
414.476
415.801
416.723
417.247
417.375
417.113
416.469
415.451
414.069
412.335
410.264
407.865
405.144
402.112
398.781
395.162
391.272
387.123
382.731
378.112
373.282
368.255
363.049
357.679
352.161
346.511
340.744
334.876
328.922
322.896
316.813
310.686
304.529
298.355
292.176
286.003
279.849
273.722
267.634
261.594
255.609
249.69
243.842
238.073
232.389
226.796
221.299
215.902
210.61
205.425
200.351
195.39
190.544
185.815
181.204
176.712
172.338
168.082
163.946
159.926
156.024
152.237
148.563
145.002
141.551
138.208
134.971
131.837
128.804
125.868
123.028
120.28
117.621
115.049
112.559
110.149
107.815
105.555
103.365
101.242
99.182
97.1824
95.2396
93.35
91.5125
89.7244
87.9824
86.2833
84.6238
83.0008
81.4111
79.852
78.3206
76.8141
75.3301
73.8659
72.4191
70.9874
69.5686
68.1605
66.7612
65.3686
63.9812
62.5972
61.2152
59.8337
58.4516
57.0678
55.6815
54.292
52.8993
51.5036
50.1063
48.7062
47.3023
45.894
44.4812
43.0642
41.6433
40.2192
38.7924
37.364
35.9348
34.5059
33.0784
31.6536
30.2326
28.8167
27.4073
26.0054
24.6125
23.2295
21.8577
20.4978
19.151
17.8183
16.5003
15.1983
13.914
12.6486
11.4068
10.1927
9.0139
7.88157
6.82712
5.94782
5.67303
9.70348
72.0842
43.3172
44.8103
50.5986
57.7525
65.5573
73.7453
82.1802
90.8018
99.5675
108.457
117.452
126.54
135.712
144.958
154.269
163.634
173.042
182.481
191.94
201.405
210.863
220.298
229.697
239.044
248.323
257.517
266.61
275.586
284.426
293.114
301.632
309.963
318.09
325.996
333.664
341.077
348.221
355.079
361.637
367.881
373.797
379.374
384.599
389.463
393.956
398.069
401.796
405.13
408.067
410.603
412.736
414.465
415.789
416.712
417.236
417.364
417.103
416.459
415.44
414.058
412.325
410.253
407.854
405.134
402.102
398.77
395.152
391.262
387.113
382.722
378.103
373.272
368.246
363.04
357.67
352.152
346.502
340.736
334.868
328.914
322.888
316.805
310.679
304.522
298.348
292.169
285.997
279.842
273.716
267.628
261.588
255.604
249.684
243.837
238.068
232.384
226.791
221.294
215.897
210.605
205.42
200.347
195.386
190.54
185.812
181.201
176.708
172.334
168.079
163.942
159.923
156.021
152.234
148.56
144.999
141.548
138.206
134.969
131.835
128.802
125.866
123.026
120.278
117.619
115.047
112.557
110.147
107.814
105.553
103.363
101.24
99.1806
97.1811
95.2383
93.3487
91.5113
89.7233
87.9813
86.2822
84.6228
82.9998
81.4102
79.8512
78.3198
76.8134
75.3294
73.8652
72.4184
70.9868
69.568
68.16
66.7606
65.3682
63.9808
62.5968
61.2148
59.8333
58.4512
57.0674
55.6811
54.2917
52.899
51.5034
50.1061
48.706
47.3021
45.8938
44.481
43.064
41.6432
40.219
38.7923
37.3638
35.9347
34.5058
33.0783
31.6535
30.2325
28.8166
27.4072
26.0053
24.6124
23.2294
21.8576
20.4977
19.1509
17.8182
16.5002
15.1983
13.9139
12.6486
11.4068
10.1927
9.01387
7.88154
6.8271
5.94781
5.67306
9.70348
106.486
56.6571
52.1801
54.5456
59.1222
64.7397
70.961
77.5776
84.4783
91.5959
98.8879
106.325
113.885
121.551
129.308
137.145
145.047
153.004
161.002
169.03
177.076
185.125
193.166
201.183
209.165
217.095
224.959
232.744
240.432
248.011
255.463
262.774
269.928
276.91
283.706
290.3
296.677
302.825
308.728
314.375
319.752
324.848
329.652
334.153
338.342
342.21
345.751
348.957
351.823
354.345
356.519
358.344
359.817
360.939
361.712
362.137
362.219
361.961
361.37
360.454
359.219
357.676
355.835
353.706
351.296
348.614
345.672
342.48
339.05
335.396
331.53
327.467
323.219
318.802
314.228
309.511
304.667
299.708
294.649
289.502
284.281
278.999
273.668
268.301
262.909
257.504
252.095
246.694
241.311
235.954
230.632
225.353
220.126
214.956
209.851
204.817
199.859
194.982
190.19
185.488
180.878
176.364
171.948
167.633
163.42
159.31
155.304
151.403
147.607
143.916
140.329
136.846
133.466
130.188
127.011
123.932
120.95
118.063
115.269
112.567
109.953
107.425
104.981
102.617
100.333
98.1235
95.9873
93.9214
91.9227
89.9885
88.1159
86.302
84.544
82.8388
81.1835
79.5763
78.0151
76.4971
75.0195
73.5794
72.1742
70.8012
69.4576
68.1411
66.8491
65.5792
64.3293
63.0969
61.8801
60.6768
59.485
58.3028
57.1285
55.9604
54.797
53.6367
52.4783
51.3205
50.1623
49.0028
47.8412
46.6769
45.5096
44.3394
43.1664
41.9903
40.8106
39.6268
38.439
37.2474
36.0521
34.8538
33.653
32.4504
31.2469
30.0435
28.841
27.6407
26.4436
25.2509
24.0638
22.8836
21.7115
20.5488
19.3969
18.257
17.1306
16.0193
14.9249
13.8497
12.7966
11.7695
10.7742
9.8192
8.91977
8.10182
7.42428
7.0513
7.67738
14.9669
106.489
56.655
52.1773
54.5425
59.119
64.7365
70.9576
77.5741
84.4747
91.5922
98.8841
106.321
113.881
121.547
129.304
137.14
145.043
152.999
160.997
169.025
177.07
185.12
193.16
201.178
209.159
217.089
224.953
232.737
240.426
248.004
255.456
262.767
269.921
276.903
283.699
290.292
296.67
302.817
308.721
314.367
319.744
324.84
329.644
334.145
338.334
342.202
345.743
348.949
351.815
354.337
356.511
358.335
359.809
360.931
361.704
362.129
362.211
361.953
361.363
360.446
359.211
357.668
355.828
353.699
351.289
348.607
345.665
342.473
339.043
335.389
331.524
327.46
323.213
318.795
314.221
309.505
304.661
299.702
294.643
289.496
284.276
278.994
273.663
268.296
262.904
257.499
252.091
246.69
241.306
235.949
230.628
225.349
220.122
214.953
209.848
204.814
199.856
194.979
190.187
185.485
180.875
176.361
171.946
167.63
163.417
159.307
155.302
151.401
147.605
143.914
140.327
136.844
133.465
130.187
127.009
123.93
120.948
118.062
115.268
112.565
109.951
107.424
104.979
102.616
100.331
98.1224
95.9863
93.9204
91.9218
89.9876
88.1151
86.3012
84.5432
82.838
81.1828
79.5757
78.0145
76.4965
75.0189
73.5789
72.1737
70.8007
69.4572
68.1407
66.8487
65.5789
64.3289
63.0966
61.8799
60.6766
59.4848
58.3026
57.1283
55.9602
54.7968
53.6365
52.4781
51.3204
50.1622
49.0027
47.8411
46.6768
45.5096
44.3393
43.1664
41.9903
40.8105
39.6268
38.439
37.2474
36.0521
34.8538
33.653
32.4504
31.2469
30.0435
28.841
27.6407
26.4436
25.2509
24.0638
22.8836
21.7115
20.5488
19.3969
18.257
17.1306
16.0193
14.9249
13.8497
12.7965
11.7694
10.7742
9.81919
8.91976
8.10181
7.42427
7.05131
7.67745
14.967
139.98
70.4268
60.8165
60.511
63.2216
67.3536
72.3039
77.7867
83.6468
89.7904
96.1571
102.705
109.404
116.23
123.163
130.188
137.289
144.452
151.665
158.914
166.187
173.469
180.749
188.013
195.247
202.439
209.573
216.637
223.616
230.495
237.261
243.9
250.396
256.737
262.908
268.895
274.686
280.267
285.626
290.75
295.629
300.251
304.606
308.685
312.479
315.981
319.182
322.078
324.664
326.935
328.887
330.52
331.832
332.823
333.495
333.848
333.887
333.616
333.039
332.164
330.997
329.547
327.822
325.831
323.582
321.084
318.347
315.381
312.198
308.809
305.226
301.461
297.528
293.439
289.207
284.844
280.363
275.778
271.101
266.343
261.518
256.637
251.711
246.753
241.771
236.778
231.782
226.794
221.822
216.875
211.96
207.086
202.26
197.487
192.774
188.127
183.551
179.049
174.627
170.287
166.034
161.869
157.795
153.815
149.929
146.138
142.444
138.848
135.348
131.946
128.641
125.432
122.318
119.299
116.373
113.538
110.794
108.138
105.568
103.082
100.679
98.3551
96.1092
93.9386
91.8407
89.8131
87.8532
85.9585
84.1263
82.3539
80.6388
78.9783
77.3696
75.81
74.2976
72.8303
71.4056
70.021
68.6739
67.3617
66.082
64.8322
63.6101
62.4132
61.2393
60.0862
58.9519
57.8341
56.7311
55.6409
54.5616
53.4916
52.4292
51.3729
50.3213
49.2729
48.2266
47.1812
46.1358
45.0896
44.0417
42.9917
41.9392
40.884
39.8261
38.7651
37.7009
36.6332
35.562
34.4874
33.4098
32.3295
31.2471
30.1632
29.0786
27.9942
26.9108
25.8294
24.7513
23.6773
22.6089
21.5472
20.4935
19.4493
18.4161
17.3955
16.3894
15.4
14.4299
13.4823
12.5615
11.6732
10.8257
10.0316
9.3118
8.70447
8.29458
8.31246
9.71756
20.1953
139.983
70.4243
60.8134
60.5078
63.2183
67.3502
72.3005
77.7833
83.6432
89.7868
96.1535
102.701
109.4
116.226
123.159
130.184
137.285
144.448
151.661
158.91
166.182
173.464
180.744
188.008
195.242
202.434
209.568
216.631
223.61
230.489
237.255
243.894
250.39
256.731
262.902
268.889
274.68
280.261
285.62
290.744
295.623
300.245
304.6
308.679
312.473
315.974
319.176
322.072
324.657
326.928
328.881
330.514
331.826
332.817
333.488
333.842
333.881
333.61
333.033
332.158
330.991
329.541
327.816
325.825
323.576
321.078
318.341
315.376
312.192
308.803
305.22
301.456
297.523
293.434
289.202
284.839
280.359
275.774
271.097
266.339
261.514
256.633
251.708
246.749
241.768
236.774
231.779
226.791
221.819
216.871
211.957
207.083
202.257
197.484
192.772
188.125
183.548
179.047
174.625
170.285
166.032
161.867
157.793
153.813
149.927
146.136
142.443
138.846
135.347
131.945
128.64
125.431
122.317
119.298
116.372
113.537
110.793
108.137
105.567
103.081
100.678
98.3542
96.1084
93.9378
91.8399
89.8124
87.8525
85.9578
84.1257
82.3533
80.6383
78.9777
77.3691
75.8095
74.2971
72.8299
71.4052
70.0206
68.6735
67.3614
66.0816
64.8319
63.6098
62.4129
61.2391
60.086
58.9517
57.834
56.731
55.6407
54.5615
53.4915
52.4291
51.3728
50.3212
49.2728
48.2265
47.1812
46.1358
45.0896
44.0417
42.9917
41.9392
40.884
39.8261
38.7651
37.7009
36.6332
35.562
34.4875
33.4098
32.3295
31.2471
30.1632
29.0786
27.9942
26.9108
25.8295
24.7513
23.6774
22.6089
21.5472
20.4935
19.4493
18.4161
17.3955
16.3894
15.4
14.4299
13.4823
12.5615
11.6732
10.8257
10.0316
9.31179
8.70447
8.29458
8.31248
9.71766
20.1954
173.136
84.5344
70.1478
67.5075
68.6912
71.6713
75.6797
80.3535
85.4947
90.9839
96.7436
102.72
108.874
115.176
121.602
128.131
134.746
141.431
148.172
154.953
161.762
168.584
175.407
182.218
189.002
195.746
202.437
209.062
215.606
222.056
228.398
234.619
240.705
246.643
252.42
258.023
263.439
268.657
273.664
278.449
283.002
287.312
291.37
295.167
298.695
301.947
304.917
307.598
309.987
312.08
313.873
315.365
316.556
317.444
318.031
318.32
318.313
318.014
317.428
316.561
315.419
314.01
312.342
310.422
308.259
305.862
303.239
300.402
297.359
294.123
290.705
287.115
283.367
279.471
275.441
271.287
267.023
262.659
258.208
253.682
249.092
244.448
239.763
235.045
230.307
225.557
220.804
216.058
211.328
206.62
201.944
197.306
192.712
188.17
183.684
179.259
174.902
170.616
166.405
162.272
158.22
154.253
150.372
146.579
142.876
139.264
135.744
132.316
128.981
125.737
122.586
119.527
116.558
113.679
110.889
108.186
105.569
103.036
100.585
98.2147
95.9227
93.707
91.5653
89.4956
87.4953
85.5621
83.6937
81.8875
80.1411
78.452
76.8177
75.2356
73.7031
72.218
70.7785
69.3823
68.0269
66.7098
65.4286
64.181
62.9646
61.777
60.616
59.4795
58.3652
57.2711
56.1952
55.1355
54.0902
53.0575
52.0357
51.0232
50.0184
49.0198
48.0262
47.0362
46.0488
45.0627
44.0773
43.0916
42.1049
41.1168
40.1268
39.1346
38.1402
37.1433
36.1438
35.1415
34.1364
33.1287
32.1186
31.1065
30.0928
29.0783
28.0635
27.0492
26.0363
25.0257
24.0185
23.0158
22.0187
21.0285
20.0467
19.0747
18.1142
17.1673
16.2361
15.3234
14.4325
13.5675
12.7339
11.9392
11.1941
10.5149
9.92856
9.485
9.29201
9.6466
11.7715
25.4007
173.139
84.5316
70.1445
67.5041
68.6878
71.6678
75.6763
80.3501
85.4912
90.9803
96.74
102.716
108.871
115.172
121.598
128.127
134.742
141.427
148.167
154.949
161.757
168.58
175.403
182.213
188.997
195.741
202.432
209.057
215.601
222.05
228.393
234.614
240.7
246.638
252.415
258.018
263.434
268.651
273.658
278.443
282.996
287.306
291.364
295.161
298.689
301.941
304.911
307.593
309.982
312.074
313.867
315.36
316.55
317.438
318.026
318.315
318.308
318.009
317.423
316.556
315.414
314.005
312.337
310.417
308.254
305.857
303.235
300.397
297.355
294.119
290.7
287.111
283.363
279.467
275.437
271.283
267.019
262.655
258.205
253.679
249.088
244.445
239.759
235.042
230.304
225.554
220.801
216.056
211.325
206.618
201.942
197.303
192.71
188.167
183.681
179.257
174.9
170.614
166.403
162.27
158.219
154.251
150.371
146.578
142.875
139.263
135.743
132.315
128.979
125.736
122.585
119.526
116.557
113.678
110.888
108.185
105.568
103.035
100.584
98.2139
95.9219
93.7062
91.5647
89.4949
87.4946
85.5615
83.6931
81.887
80.1406
78.4515
76.8172
75.2351
73.7027
72.2176
70.7781
69.3819
68.0265
66.7095
65.4284
64.1808
62.9643
61.7768
60.6158
59.4793
58.365
57.2709
56.195
55.1353
54.0901
53.0574
52.0356
51.0231
50.0183
49.0198
48.0261
47.0362
46.0487
45.0627
44.0773
43.0915
42.1049
41.1168
40.1268
39.1346
38.1402
37.1434
36.1438
35.1415
34.1365
33.1287
32.1186
31.1065
30.0929
29.0783
28.0635
27.0492
26.0363
25.0258
24.0186
23.0158
22.0187
21.0285
20.0467
19.0747
18.1142
17.1673
16.2361
15.3234
14.4325
13.5675
12.7339
11.9392
11.1941
10.5149
9.92855
9.485
9.29201
9.64663
11.7717
25.4008
206.066
98.9599
79.9917
75.1989
75.0457
77.0637
80.3186
84.3693
88.9757
93.9932
99.3274
104.914
110.704
116.663
122.761
128.974
135.283
141.669
148.115
154.606
161.127
167.664
174.203
180.73
187.231
193.694
200.104
206.448
212.712
218.884
224.95
230.896
236.71
242.379
247.891
253.232
258.392
263.358
268.119
272.665
276.986
281.072
284.915
288.505
291.837
294.902
297.696
300.213
302.449
304.4
306.064
307.44
308.527
309.324
309.834
310.058
309.999
309.661
309.049
308.167
307.023
305.623
303.975
302.086
299.965
297.619
295.058
292.291
289.329
286.182
282.86
279.374
275.736
271.958
268.05
264.024
259.892
255.664
251.353
246.969
242.523
238.026
233.488
228.919
224.33
219.728
215.124
210.526
205.942
201.38
196.848
192.351
187.897
183.491
179.139
174.847
170.618
166.457
162.368
158.355
154.419
150.564
146.793
143.106
139.505
135.992
132.567
129.232
125.985
122.827
119.759
116.779
113.886
111.08
108.36
105.725
103.173
100.701
98.3102
95.9969
93.7596
91.5963
89.5049
87.4833
85.5292
83.6403
81.8144
80.049
78.3418
76.6903
75.0922
73.545
72.0462
70.5942
69.1867
67.8214
66.4959
65.2078
63.9548
62.7347
61.5451
60.3838
59.2486
58.1375
57.0484
55.9793
54.9282
53.8934
52.873
51.8653
50.8687
49.8816
48.9026
47.9303
46.9634
46.0007
45.0411
44.0837
43.1275
42.1719
41.2161
40.2597
39.3023
38.3436
37.3833
36.4215
35.4578
34.4922
33.5247
32.5555
31.5848
30.6129
29.6403
28.6675
27.6951
26.7239
25.7546
24.7881
23.8254
22.8675
21.9157
20.9712
20.0355
19.1102
18.1973
17.2989
16.4177
15.5568
14.7202
13.9129
13.1416
12.4153
11.7471
11.1569
10.6778
10.3709
10.3676
11.0303
13.8435
30.6103
206.069
98.9567
79.9882
75.1954
75.0422
77.0603
80.3152
84.3658
88.9722
93.9896
99.3238
104.91
110.7
116.659
122.757
128.97
135.279
141.665
148.111
154.602
161.123
167.659
174.198
180.725
187.227
193.689
200.099
206.443
212.707
218.879
224.945
230.891
236.705
242.374
247.886
253.227
258.386
263.352
268.114
272.66
276.981
281.067
284.909
288.5
291.832
294.897
297.691
300.208
302.444
304.395
306.059
307.435
308.522
309.32
309.829
310.053
309.994
309.657
309.044
308.163
307.019
305.619
303.971
302.082
299.961
297.615
295.054
292.288
289.325
286.178
282.856
279.371
275.733
271.954
268.047
264.021
259.889
255.661
251.35
246.966
242.52
238.023
233.485
228.917
224.327
219.726
215.122
210.524
205.94
201.378
196.845
192.349
187.895
183.489
179.137
174.845
170.616
166.456
162.367
158.353
154.418
150.563
146.791
143.105
139.504
135.991
132.566
129.23
125.984
122.826
119.758
116.778
113.885
111.08
108.36
105.724
103.172
100.701
98.3095
95.9962
93.7589
91.5957
89.5043
87.4827
85.5286
83.6398
81.8139
80.0485
78.3413
76.6899
75.0918
73.5446
72.0459
70.5938
69.1864
67.8211
66.4956
65.2075
63.9546
62.7344
61.5448
60.3835
59.2484
58.1373
57.0482
55.9791
54.9281
53.8933
52.8729
51.8652
50.8686
49.8816
48.9026
47.9302
46.9633
46.0006
45.041
44.0836
43.1275
42.1719
41.2161
40.2597
39.3023
38.3436
37.3833
36.4214
35.4578
34.4922
33.5247
32.5555
31.5848
30.613
29.6403
28.6675
27.6952
26.7239
25.7546
24.7881
23.8254
22.8675
21.9157
20.9712
20.0355
19.1102
18.1973
17.2989
16.4177
15.5568
14.7202
13.9129
13.1416
12.4153
11.7471
11.1569
10.6778
10.3709
10.3676
11.0303
13.8436
30.6104
238.959
113.73
90.2823
83.4523
82.0809
83.2577
85.8799
89.4276
93.6185
98.2824
103.309
108.622
114.165
119.897
125.784
131.798
137.916
144.118
150.384
156.698
163.044
169.407
175.772
182.125
188.451
194.736
200.968
207.133
213.216
219.205
225.087
230.848
236.477
241.96
247.286
252.442
257.417
262.2
266.781
271.149
275.295
279.21
282.886
286.315
289.491
292.406
295.056
297.437
299.543
301.373
302.925
304.196
305.187
305.898
306.331
306.487
306.369
305.982
305.33
304.417
303.251
301.838
300.185
298.299
296.189
293.862
291.327
288.594
285.672
282.571
279.302
275.874
272.3
268.589
264.754
260.804
256.75
252.605
248.378
244.08
239.722
235.314
230.866
226.387
221.887
217.376
212.861
208.351
203.855
199.378
194.93
190.516
186.142
181.815
177.54
173.322
169.165
165.073
161.051
157.101
153.227
149.432
145.716
142.083
138.534
135.069
131.69
128.398
125.193
122.074
119.042
116.096
113.235
110.46
107.768
105.159
102.63
100.182
97.8116
95.5175
93.2979
91.1509
89.0745
87.0665
85.1248
83.2473
81.4316
79.6754
77.9766
76.3326
74.7411
73.1999
71.7067
70.2599
68.857
67.4958
66.1739
64.889
63.6388
62.4212
61.2339
60.0747
58.9416
57.8326
56.7455
55.6785
54.6298
53.5975
52.5799
51.5753
50.5822
49.5992
48.6247
47.6576
46.6965
45.7403
44.7881
43.8388
42.8918
41.9462
41.0014
40.057
39.1126
38.1679
37.2227
36.277
35.3304
34.3831
33.4349
32.4861
31.5368
30.5873
29.6381
28.6896
27.7423
26.7969
25.8542
24.915
23.9801
23.0507
22.1278
21.2128
20.3072
19.4129
18.5317
17.6662
16.8193
15.9946
15.1968
14.4315
13.7067
13.0329
12.4254
11.9079
11.5193
11.3321
11.5026
12.458
15.9517
35.8742
238.961
113.726
90.2786
83.4488
82.0773
83.2542
85.8764
89.4241
93.6149
98.2789
103.305
108.618
114.162
119.893
125.78
131.794
137.912
144.113
150.38
156.694
163.04
169.403
175.768
182.12
188.446
194.732
200.964
207.128
213.211
219.2
225.082
230.844
236.472
241.955
247.281
252.437
257.412
262.195
266.776
271.144
275.29
279.205
282.881
286.31
289.486
292.401
295.052
297.432
299.539
301.369
302.92
304.192
305.183
305.894
306.326
306.482
306.365
305.978
305.326
304.413
303.247
301.834
300.181
298.295
296.185
293.858
291.323
288.59
285.668
282.568
279.298
275.871
272.297
268.586
264.751
260.801
256.748
252.602
248.375
244.078
239.719
235.311
230.863
226.385
221.885
217.373
212.859
208.349
203.853
199.376
194.928
190.514
186.141
181.813
177.538
173.32
169.163
165.072
161.05
157.1
153.226
149.43
145.715
142.082
138.532
135.068
131.689
128.397
125.192
122.073
119.041
116.095
113.235
110.459
107.767
105.158
102.63
100.181
97.8109
95.5168
93.2973
91.1503
89.0739
87.0659
85.1243
83.2468
81.4311
79.675
77.9761
76.3321
74.7407
73.1995
71.7063
70.2595
68.8567
67.4955
66.1736
64.8887
63.6386
62.4209
61.2336
60.0745
58.9414
57.8324
56.7453
55.6783
54.6296
53.5973
52.5797
51.5752
50.5821
49.5991
48.6246
47.6575
46.6964
45.7402
44.788
43.8388
42.8917
41.9461
41.0014
40.057
39.1126
38.1679
37.2227
36.2769
35.3304
34.383
33.4349
32.4861
31.5368
30.5873
29.6381
28.6896
27.7423
26.7969
25.8542
24.915
23.9801
23.0507
22.1278
21.2128
20.3073
19.4129
18.5317
17.6662
16.8193
15.9946
15.1968
14.4315
13.7067
13.0329
12.4254
11.9079
11.5193
11.3321
11.5026
12.458
15.9519
35.8743
272.075
128.929
101.029
92.2235
89.7094
90.1263
92.1992
95.3281
99.1875
103.582
108.384
113.507
118.887
124.474
130.232
136.129
142.138
148.236
154.404
160.621
166.872
173.139
179.407
185.661
191.886
198.068
204.193
210.247
216.217
222.089
227.85
233.488
238.99
244.343
249.537
254.558
259.398
264.044
268.487
272.717
276.726
280.505
284.045
287.341
290.386
293.174
295.7
297.961
299.952
301.672
303.119
304.291
305.19
305.815
306.168
306.251
306.068
305.622
304.918
303.961
302.758
301.313
299.636
297.733
295.611
293.278
290.744
288.017
285.107
282.022
278.775
275.373
271.829
268.152
264.353
260.443
256.432
252.331
248.15
243.9
239.59
235.231
230.833
226.404
221.954
217.492
213.025
208.563
204.113
199.682
195.278
190.906
186.573
182.284
178.045
173.862
169.737
165.676
161.682
157.759
153.909
150.135
146.439
142.824
139.29
135.839
132.472
129.189
125.991
122.878
119.851
116.907
114.048
111.272
108.578
105.965
103.433
100.979
98.6014
96.2994
94.071
91.9143
89.8273
87.808
85.8543
83.9641
82.1352
80.3653
78.6521
76.9935
75.3871
73.8306
72.3222
70.86
69.4416
68.0646
66.7268
65.4259
64.1597
62.9261
61.7229
60.5479
59.3991
58.2746
57.1723
56.0905
55.0272
53.9808
52.9496
51.9319
50.9264
49.9315
48.9459
47.9683
46.9976
46.0328
45.0729
44.1169
43.1641
42.214
41.2658
40.3191
39.3736
38.4291
37.4852
36.542
35.5992
34.6569
33.715
32.7737
31.8332
30.8936
29.9554
29.0189
28.0847
27.1533
26.2254
25.3018
24.3832
23.4708
22.5657
21.6691
20.7827
19.9083
19.0481
18.2047
17.3814
16.5823
15.8125
15.0785
14.3893
13.7569
13.1991
12.7428
12.4332
12.3541
12.6867
13.9253
18.0904
41.1538
272.078
128.925
101.025
92.2199
89.7058
90.1227
92.1956
95.3245
99.1839
103.578
108.381
113.503
118.883
124.471
130.228
136.125
142.134
148.232
154.399
160.617
166.867
173.134
179.402
185.656
191.881
198.063
204.188
210.242
216.212
222.084
227.845
233.483
238.985
244.338
249.532
254.554
259.393
264.04
268.483
272.713
276.721
280.5
284.041
287.337
290.381
293.169
295.696
297.956
299.948
301.668
303.114
304.287
305.186
305.811
306.164
306.247
306.064
305.618
304.914
303.957
302.754
301.31
299.632
297.729
295.607
293.275
290.741
288.014
285.103
282.019
278.772
275.37
271.826
268.149
264.35
260.44
256.429
252.328
248.147
243.897
239.588
235.229
230.83
226.402
221.952
217.49
213.023
208.561
204.111
199.68
195.276
190.904
186.571
182.282
178.044
173.86
169.736
165.675
161.681
157.758
153.908
150.134
146.438
142.823
139.289
135.838
132.471
129.188
125.99
122.878
119.85
116.906
114.047
111.271
108.577
105.965
103.432
100.978
98.6007
96.2988
94.0704
91.9137
89.8267
87.8074
85.8538
83.9636
82.1346
80.3648
78.6517
76.9931
75.3867
73.8301
72.3218
70.8596
69.4412
68.0642
66.7264
65.4256
64.1594
62.9258
61.7226
60.5476
59.3989
58.2743
57.1721
56.0903
55.027
53.9806
52.9494
51.9318
50.9262
49.9313
48.9457
47.9682
46.9975
46.0327
45.0728
44.1168
43.1641
42.2139
41.2657
40.3191
39.3736
38.429
37.4851
36.5419
35.5992
34.6569
33.715
32.7737
31.8331
30.8936
29.9553
29.0189
28.0847
27.1533
26.2254
25.3018
24.3832
23.4708
22.5657
21.6691
20.7827
19.9083
19.0481
18.2047
17.3814
16.5823
15.8124
15.0785
14.3893
13.7569
13.1991
12.7428
12.4331
12.3541
12.6867
13.9254
18.0906
41.1539
305.605
144.588
112.254
101.508
97.9
97.6133
99.1973
101.97
105.561
109.749
114.391
119.387
124.666
130.173
135.864
141.706
147.668
153.725
159.855
166.036
172.251
178.481
184.71
190.922
197.102
203.235
209.306
215.302
221.208
227.011
232.698
238.257
243.675
248.939
254.039
258.964
263.702
268.244
272.579
276.699
280.596
284.261
287.688
290.87
293.8
296.475
298.89
301.041
302.925
304.541
305.887
306.963
307.768
308.305
308.575
308.58
308.324
307.811
307.045
306.031
304.777
303.287
301.569
299.631
297.479
295.122
292.568
289.826
286.905
283.815
280.565
277.164
273.625
269.955
266.166
262.269
258.272
254.188
250.024
245.793
241.503
237.164
232.786
228.377
223.947
219.504
215.056
210.612
206.178
201.762
197.372
193.012
188.69
184.41
180.179
176
171.88
167.82
163.826
159.901
156.047
152.267
148.564
144.938
141.393
137.929