/*--------------------------------*- C++ -*----------------------------------*\
  =========                 |
  \\      /  F ield         | OpenFOAM: The Open Source CFD Toolbox
   \\    /   O peration     | Website:  https://openfoam.org
    \\  /    A nd           | Version:  8
     \\/     M anipulation  |
\*---------------------------------------------------------------------------*/
FoamFile
{
    version     2.0;
    format      ascii;
    class       volScalarField;
    location    "2800";
    object      k;
}
// * * * * * * * * * * * * * * * * * * * * * * * * * * * * * * * * * * * * * //

dimensions      [0 2 -2 0 0 0 0];

internalField   nonuniform List<scalar> 
46000
(
0.00631355
0.0283571
0.055283
0.0807669
0.104944
0.128393
0.151324
0.173816
0.196002
0.217941
0.239764
0.2614
0.282866
0.30421
0.325441
0.346557
0.367554
0.388421
0.409146
0.429713
0.450105
0.470302
0.490283
0.510027
0.529509
0.548707
0.567595
0.586149
0.604343
0.622151
0.639547
0.656507
0.673005
0.689017
0.704517
0.719483
0.733891
0.747719
0.760948
0.773555
0.785524
0.796837
0.807477
0.817431
0.826685
0.835228
0.84305
0.850144
0.856503
0.862124
0.867002
0.871138
0.874533
0.87719
0.879112
0.880307
0.880784
0.880551
0.87962
0.878007
0.875728
0.872807
0.869287
0.865176
0.860471
0.855187
0.849345
0.842968
0.836079
0.828703
0.820863
0.812587
0.803899
0.794827
0.785395
0.775631
0.765562
0.755213
0.744612
0.733783
0.722753
0.711547
0.700189
0.688704
0.677116
0.665447
0.653719
0.641954
0.630173
0.618394
0.606638
0.594922
0.583263
0.571677
0.56018
0.548785
0.537506
0.526356
0.515344
0.504483
0.493782
0.483248
0.47289
0.462714
0.452727
0.442933
0.433337
0.423942
0.414752
0.405767
0.396991
0.388422
0.380062
0.371909
0.363963
0.356222
0.348685
0.341348
0.334208
0.327263
0.320507
0.313938
0.307551
0.301341
0.295303
0.289432
0.283723
0.278169
0.272766
0.267507
0.262386
0.257397
0.252534
0.24779
0.24316
0.238637
0.234214
0.229886
0.225645
0.221495
0.217422
0.213421
0.209484
0.205605
0.20178
0.198001
0.194264
0.190562
0.186892
0.183248
0.179626
0.17602
0.172427
0.168843
0.165263
0.161686
0.158106
0.154523
0.150933
0.147334
0.143724
0.140101
0.136465
0.132815
0.129171
0.125519
0.121855
0.118178
0.114488
0.110786
0.107073
0.10335
0.0996206
0.0958855
0.0921471
0.0884077
0.0846697
0.0809355
0.0772076
0.0734884
0.0697801
0.066085
0.062405
0.0587416
0.0550957
0.0514648
0.0478453
0.0442522
0.0406722
0.037102
0.0335381
0.029969
0.0263818
0.0227759
0.0191458
0.0154316
0.0115821
0.00756582
0.00354986
0.000714307
0.00631401
0.0283587
0.055285
0.0807691
0.104946
0.128396
0.151327
0.173818
0.196004
0.217944
0.239766
0.261402
0.282868
0.304212
0.325442
0.346559
0.367555
0.388423
0.409147
0.429714
0.450106
0.470303
0.490284
0.510028
0.52951
0.548708
0.567596
0.58615
0.604343
0.622151
0.639548
0.656508
0.673006
0.689017
0.704517
0.719483
0.733891
0.747719
0.760948
0.773555
0.785524
0.796837
0.807477
0.817431
0.826685
0.835228
0.84305
0.850144
0.856503
0.862123
0.867002
0.871138
0.874532
0.877189
0.879111
0.880307
0.880783
0.88055
0.879619
0.878006
0.875727
0.872806
0.869286
0.865175
0.86047
0.855186
0.849344
0.842967
0.836078
0.828702
0.820862
0.812586
0.803898
0.794825
0.785394
0.77563
0.765561
0.755212
0.744611
0.733782
0.722752
0.711546
0.700188
0.688703
0.677115
0.665446
0.653718
0.641953
0.630171
0.618393
0.606637
0.594921
0.583262
0.571676
0.560179
0.548784
0.537505
0.526354
0.515343
0.504482
0.49378
0.483247
0.472889
0.462713
0.452726
0.442932
0.433336
0.423941
0.414751
0.405766
0.39699
0.388421
0.380061
0.371908
0.363962
0.356221
0.348684
0.341347
0.334207
0.327262
0.320506
0.313937
0.30755
0.30134
0.295303
0.289432
0.283722
0.278169
0.272765
0.267506
0.262385
0.257396
0.252533
0.247789
0.243159
0.238636
0.234213
0.229886
0.225644
0.221494
0.217422
0.21342
0.209483
0.205605
0.201779
0.198
0.194263
0.190562
0.186892
0.183248
0.179625
0.176019
0.172426
0.168842
0.165263
0.161685
0.158106
0.154522
0.150932
0.147333
0.143723
0.140101
0.136464
0.132814
0.12917
0.125519
0.121855
0.118178
0.114487
0.110785
0.107072
0.10335
0.0996202
0.0958851
0.0921468
0.0884074
0.0846694
0.0809352
0.0772073
0.0734881
0.0697799
0.0660848
0.0624048
0.0587414
0.0550956
0.0514647
0.0478451
0.0442521
0.0406721
0.0371019
0.033538
0.029969
0.0263818
0.0227759
0.0191459
0.0154317
0.0115821
0.00756587
0.00354988
0.000714315
0.028098
0.106536
0.163537
0.210942
0.253344
0.29252
0.329358
0.364492
0.398356
0.431125
0.463028
0.494197
0.524726
0.554691
0.584143
0.613121
0.641647
0.669737
0.6974
0.724636
0.751443
0.777815
0.803741
0.829209
0.854202
0.878705
0.902698
0.926161
0.949075
0.971416
0.993164
1.0143
1.03479
1.05462
1.07377
1.09222
1.10994
1.12691
1.14312
1.15855
1.17317
1.18697
1.19995
1.21207
1.22334
1.23374
1.24326
1.2519
1.25965
1.2665
1.27246
1.27753
1.2817
1.28499
1.28739
1.28892
1.28958
1.28939
1.28836
1.28651
1.28385
1.28041
1.2762
1.27125
1.26558
1.2592
1.25214
1.24442
1.23607
1.22712
1.21759
1.20752
1.19692
1.18584
1.1743
1.16233
1.14997
1.13723
1.12416
1.11078
1.09712
1.08321
1.06908
1.05475
1.04027
1.02564
1.01091
0.996089
0.981208
0.966291
0.95136
0.936438
0.921545
0.906703
0.891929
0.877244
0.862663
0.848202
0.833878
0.819704
0.805692
0.791856
0.778206
0.764752
0.751503
0.738467
0.725652
0.713063
0.700706
0.688585
0.676703
0.665064
0.653669
0.64252
0.631616
0.620957
0.610544
0.600372
0.590442
0.580749
0.57129
0.562062
0.55306
0.544279
0.535713
0.527357
0.519205
0.511251
0.503487
0.495906
0.488502
0.481266
0.474191
0.467269
0.460491
0.453848
0.447332
0.440943
0.43467
0.428503
0.422433
0.41645
0.410545
0.40471
0.398937
0.393215
0.387538
0.381898
0.376285
0.370693
0.365114
0.359541
0.353966
0.348383
0.342785
0.337167
0.331521
0.325844
0.320129
0.314372
0.308569
0.302715
0.296807
0.290841
0.284816
0.278735
0.272592
0.266386
0.260115
0.253777
0.247372
0.2409
0.234361
0.227756
0.221086
0.21435
0.207551
0.200688
0.193761
0.186772
0.17972
0.172604
0.165422
0.158171
0.150846
0.143441
0.135945
0.128347
0.120622
0.112751
0.104712
0.0964558
0.0879182
0.0789997
0.0695911
0.0595297
0.0485116
0.0360165
0.020939
0.00346656
0.0280994
0.106539
0.163539
0.210943
0.253345
0.29252
0.329358
0.364492
0.398356
0.431125
0.463028
0.494196
0.524725
0.55469
0.584142
0.61312
0.641646
0.669736
0.697398
0.724634
0.751441
0.777813
0.803739
0.829206
0.854199
0.878702
0.902695
0.926158
0.949071
0.971413
0.993161
1.01429
1.03479
1.05462
1.07377
1.09221
1.10993
1.12691
1.14312
1.15854
1.17316
1.18697
1.19994
1.21207
1.22334
1.23374
1.24326
1.25189
1.25964
1.2665
1.27246
1.27752
1.2817
1.28498
1.28739
1.28891
1.28958
1.28939
1.28836
1.28651
1.28385
1.2804
1.27619
1.27125
1.26557
1.2592
1.25214
1.24442
1.23607
1.22712
1.21759
1.20751
1.19692
1.18584
1.1743
1.16233
1.14996
1.13723
1.12415
1.11077
1.09711
1.0832
1.06907
1.05475
1.04026
1.02564
1.0109
0.996084
0.981203
0.966286
0.951355
0.936433
0.92154
0.906698
0.891925
0.877239
0.862658
0.848198
0.833873
0.819699
0.805688
0.791852
0.778202
0.764748
0.751499
0.738463
0.725648
0.713059
0.700702
0.688581
0.676699
0.66506
0.653665
0.642516
0.631612
0.620954
0.61054
0.600369
0.590438
0.580746
0.571287
0.562059
0.553057
0.544275
0.53571
0.527354
0.519202
0.511248
0.503484
0.495903
0.488499
0.481263
0.474188
0.467266
0.460488
0.453846
0.44733
0.440941
0.434667
0.428501
0.422431
0.416448
0.410543
0.404708
0.398934
0.393213
0.387536
0.381896
0.376283
0.370691
0.365113
0.359539
0.353964
0.348381
0.342784
0.337165
0.33152
0.325842
0.320128
0.314371
0.308567
0.302714
0.296805
0.29084
0.284814
0.278733
0.272591
0.266385
0.260114
0.253775
0.247371
0.240899
0.23436
0.227755
0.221085
0.214349
0.20755
0.200687
0.193761
0.186772
0.17972
0.172603
0.165421
0.15817
0.150846
0.14344
0.135945
0.128347
0.120621
0.11275
0.104712
0.0964555
0.087918
0.0789995
0.0695909
0.0595295
0.0485115
0.0360164
0.0209389
0.00346656
0.0554705
0.16482
0.235369
0.292302
0.34301
0.389839
0.433969
0.476046
0.516528
0.555705
0.593795
0.630953
0.667294
0.702903
0.737844
0.772161
0.805888
0.839044
0.871642
0.903688
0.935181
0.966117
0.996486
1.02628
1.05547
1.08406
1.11202
1.13932
1.16596
1.1919
1.21712
1.2416
1.26532
1.28825
1.31037
1.33166
1.35209
1.37164
1.3903
1.40804
1.42484
1.44069
1.45557
1.46948
1.48238
1.49429
1.50517
1.51504
1.52389
1.5317
1.53849
1.54424
1.54898
1.55269
1.55538
1.55708
1.55778
1.5575
1.55625
1.55406
1.55094
1.54692
1.54201
1.53625
1.52965
1.52223
1.51403
1.50507
1.49538
1.48499
1.47393
1.46224
1.44994
1.43708
1.42368
1.40977
1.3954
1.38059
1.36539
1.34982
1.33391
1.31771
1.30124
1.28453
1.26763
1.25055
1.23333
1.216
1.19858
1.18112
1.16362
1.14612
1.12864
1.11121
1.09385
1.07657
1.05941
1.04237
1.02549
1.00876
0.992219
0.975869
0.959727
0.943805
0.928114
0.912663
0.897463
0.88252
0.867841
0.853433
0.839299
0.825444
0.81187
0.79858
0.785574
0.772852
0.760415
0.748259
0.736384
0.724787
0.713463
0.702409
0.691619
0.681089
0.670813
0.660783
0.650993
0.641436
0.632103
0.622987
0.614079
0.605371
0.596852
0.588514
0.580346
0.572339
0.56449
0.556787
0.549221
0.541779
0.534451
0.527227
0.520095
0.513045
0.506066
0.49915
0.492284
0.485461
0.478669
0.471899
0.465143
0.458391
0.451634
0.444865
0.438074
0.431255
0.424401
0.417503
0.410556
0.403554
0.396491
0.389362
0.382162
0.374888
0.367536
0.360106
0.352595
0.344997
0.337312
0.329538
0.321673
0.313716
0.305668
0.297527
0.289294
0.280969
0.272552
0.264043
0.255441
0.246747
0.237958
0.229073
0.220088
0.210999
0.201799
0.192479
0.183027
0.173427
0.163655
0.153685
0.143477
0.132976
0.122123
0.110807
0.0988805
0.0861448
0.0722233
0.0563281
0.0361549
0.0074105
0.0554725
0.164821
0.23537
0.292301
0.343009
0.389838
0.433968
0.476045
0.516526
0.555703
0.593793
0.630951
0.667291
0.7029
0.737841
0.772158
0.805884
0.83904
0.871638
0.903684
0.935177
0.966113
0.996482
1.02627
1.05547
1.08405
1.11201
1.13932
1.16595
1.19189
1.21711
1.2416
1.26531
1.28825
1.31037
1.33165
1.35208
1.37164
1.39029
1.40803
1.42483
1.44068
1.45557
1.46947
1.48238
1.49428
1.50517
1.51504
1.52388
1.53169
1.53848
1.54424
1.54897
1.55268
1.55538
1.55707
1.55777
1.55749
1.55625
1.55405
1.55094
1.54691
1.54201
1.53624
1.52964
1.52223
1.51402
1.50506
1.49537
1.48498
1.47393
1.46223
1.44994
1.43707
1.42367
1.40976
1.39539
1.38059
1.36538
1.34981
1.3339
1.3177
1.30123
1.28453
1.26762
1.25054
1.23332
1.21599
1.19858
1.18111
1.16361
1.14611
1.12864
1.1112
1.09384
1.07657
1.0594
1.04237
1.02548
1.00876
0.992213
0.975863
0.959722
0.943799
0.928108
0.912658
0.897457
0.882515
0.867836
0.853428
0.839294
0.825439
0.811865
0.798575
0.785569
0.772848
0.76041
0.748255
0.73638
0.724783
0.713459
0.702405
0.691615
0.681085
0.670809
0.660779
0.650989
0.641432
0.6321
0.622984
0.614076
0.605367
0.596849
0.588511
0.580343
0.572336
0.564487
0.556784
0.549218
0.541776
0.534449
0.527224
0.520092
0.513042
0.506064
0.499147
0.492282
0.485458
0.478667
0.471897
0.465141
0.458389
0.451632
0.444863
0.438073
0.431254
0.424399
0.417501
0.410554
0.403552
0.396489
0.38936
0.382161
0.374887
0.367535
0.360105
0.352593
0.344996
0.337311
0.329537
0.321672
0.313715
0.305667
0.297526
0.289293
0.280968
0.272551
0.264042
0.25544
0.246746
0.237957
0.229072
0.220087
0.210998
0.201798
0.192478
0.183026
0.173426
0.163655
0.153685
0.143476
0.132976
0.122122
0.110807
0.0988803
0.0861447
0.0722232
0.0563281
0.0361549
0.00741051
0.082189
0.214542
0.294905
0.358277
0.414335
0.466121
0.515023
0.561778
0.606845
0.650529
0.693044
0.734548
0.775155
0.814951
0.853998
0.892343
0.930018
0.967044
1.00343
1.03919
1.07431
1.1088
1.14263
1.1758
1.2083
1.24009
1.27117
1.30151
1.33108
1.35986
1.38783
1.41496
1.44123
1.46661
1.49108
1.51461
1.53718
1.55877
1.57935
1.5989
1.61741
1.63486
1.65123
1.66651
1.68068
1.69374
1.70567
1.71647
1.72613
1.73465
1.74204
1.74828
1.75339
1.75738
1.76024
1.76199
1.76265
1.76223
1.76074
1.7582
1.75464
1.75008
1.74454
1.73806
1.73064
1.72233
1.71315
1.70312
1.69229
1.68069
1.66834
1.6553
1.64158
1.62723
1.61228
1.59677
1.58075
1.56423
1.54727
1.52991
1.51216
1.49409
1.47571
1.45707
1.43819
1.41913
1.3999
1.38054
1.36108
1.34156
1.322
1.30243
1.28287
1.26337
1.24393
1.22459
1.20537
1.18629
1.16736
1.14861
1.13006
1.11172
1.09361
1.07573
1.05811
1.04076
1.02368
1.00689
0.990387
0.974184
0.958285
0.942696
0.927419
0.912456
0.89781
0.883481
0.869468
0.855769
0.842384
0.829308
0.816538
0.804069
0.791897
0.780015
0.768417
0.757095
0.746042
0.735251
0.724711
0.714415
0.704353
0.694514
0.684889
0.675466
0.666236
0.657191
0.648323
0.639619
0.631067
0.622656
0.614373
0.606206
0.598144
0.590174
0.582286
0.574467
0.566706
0.558992
0.551315
0.543663
0.536026
0.528394
0.520757
0.513106
0.505431
0.497724
0.489977
0.482182
0.474331
0.466418
0.458436
0.45038
0.442245
0.434025
0.425718
0.41732
0.408829
0.40024
0.39155
0.382758
0.373861
0.364858
0.355749
0.346532
0.337208
0.327774
0.318233
0.308581
0.29882
0.288948
0.278962
0.26886
0.258639
0.248293
0.237814
0.227194
0.21642
0.205474
0.194335
0.182973
0.17135
0.159413
0.14709
0.134272
0.120816
0.106468
0.0907928
0.0727433
0.0490473
0.0114663
0.0821911
0.214544
0.294905
0.358276
0.414334
0.466119
0.51502
0.561775
0.606843
0.650526
0.693042
0.734545
0.775152
0.814947
0.853995
0.89234
0.930014
0.96704
1.00343
1.03919
1.07431
1.10879
1.14263
1.1758
1.20829
1.24009
1.27116
1.3015
1.33107
1.35985
1.38782
1.41496
1.44123
1.46661
1.49107
1.5146
1.53717
1.55876
1.57934
1.5989
1.61741
1.63485
1.65123
1.6665
1.68067
1.69373
1.70566
1.71646
1.72612
1.73465
1.74203
1.74827
1.75339
1.75737
1.76023
1.76199
1.76264
1.76222
1.76073
1.75819
1.75463
1.75007
1.74454
1.73805
1.73064
1.72232
1.71314
1.70312
1.69229
1.68068
1.66834
1.65529
1.64157
1.62722
1.61227
1.59677
1.58074
1.56423
1.54727
1.5299
1.51216
1.49408
1.4757
1.45706
1.43819
1.41912
1.39989
1.38053
1.36107
1.34155
1.32199
1.30242
1.28287
1.26336
1.24393
1.22459
1.20536
1.18628
1.16735
1.14861
1.13005
1.11171
1.0936
1.07573
1.05811
1.04076
1.02368
1.00688
0.990382
0.974179
0.958281
0.942691
0.927414
0.912452
0.897806
0.883477
0.869464
0.855765
0.84238
0.829304
0.816534
0.804066
0.791893
0.780011
0.768413
0.757092
0.746039
0.735247
0.724708
0.714412
0.70435
0.694511
0.684886
0.675463
0.666233
0.657188
0.64832
0.639616
0.631065
0.622654
0.614371
0.606204
0.598142
0.590172
0.582283
0.574464
0.566704
0.55899
0.551313
0.543661
0.536024
0.528392
0.520755
0.513104
0.50543
0.497723
0.489976
0.482181
0.47433
0.466417
0.458435
0.450379
0.442243
0.434024
0.425716
0.417319
0.408828
0.400239
0.391549
0.382757
0.37386
0.364858
0.355748
0.346531
0.337207
0.327774
0.318232
0.308581
0.29882
0.288947
0.278961
0.26886
0.258638
0.248292
0.237814
0.227194
0.216419
0.205474
0.194335
0.182973
0.17135
0.159413
0.14709
0.134272
0.120816
0.106468
0.0907928
0.0727434
0.0490474
0.0114663
0.108246
0.259915
0.348986
0.417893
0.478302
0.534012
0.586653
0.637064
0.685737
0.73299
0.779039
0.824038
0.8681
0.911306
0.953716
0.995373
1.03631
1.07653
1.11606
1.1549
1.19304
1.23048
1.2672
1.30319
1.33843
1.3729
1.40657
1.43942
1.47143
1.50257
1.53282
1.56214
1.59051
1.61791
1.6443
1.66967
1.69398
1.71722
1.73936
1.76038
1.78026
1.79899
1.81654
1.8329
1.84807
1.86202
1.87475
1.88625
1.89653
1.90557
1.91338
1.91996
1.92532
1.92946
1.93239
1.93412
1.93467
1.93406
1.93229
1.92941
1.92541
1.92034
1.91422
1.90707
1.89892
1.8898
1.87975
1.86879
1.85696
1.8443
1.83084
1.81662
1.80167
1.78605
1.76977
1.7529
1.73546
1.71749
1.69904
1.68015
1.66085
1.64119
1.62119
1.60091
1.58038
1.55964
1.53871
1.51764
1.49647
1.47521
1.45391
1.4326
1.41131
1.39006
1.36889
1.34781
1.32686
1.30605
1.28542
1.26497
1.24473
1.22472
1.20495
1.18544
1.1662
1.14725
1.1286
1.11025
1.09221
1.0745
1.05712
1.04007
1.02336
1.00699
0.990965
0.975282
0.959941
0.944942
0.930283
0.91596
0.901969
0.888306
0.874965
0.86194
0.849223
0.836808
0.824686
0.812849
0.801286
0.789988
0.778945
0.768146
0.75758
0.747236
0.737104
0.727176
0.71744
0.707883
0.698492
0.689254
0.680157
0.671186
0.66233
0.653576
0.644912
0.636324
0.6278
0.619329
0.610898
0.602496
0.594111
0.585733
0.577351
0.568955
0.560535
0.552081
0.543585
0.535038
0.526432
0.51776
0.509015
0.500192
0.491283
0.482285
0.473193
0.464005
0.454715
0.44532
0.435816
0.426202
0.416475
0.406633
0.396675
0.386599
0.376406
0.366092
0.355659
0.345105
0.334427
0.323626
0.312698
0.30164
0.290449
0.279117
0.267639
0.256005
0.244201
0.232213
0.220017
0.207587
0.194884
0.181856
0.16843
0.154498
0.139893
0.124324
0.107265
0.0874145
0.0606728
0.0155044
0.108248
0.259916
0.348985
0.417892
0.4783
0.53401
0.586651
0.637061
0.685734
0.732987
0.779036
0.824035
0.868097
0.911303
0.953712
0.995369
1.0363
1.07653
1.11606
1.1549
1.19304
1.23048
1.2672
1.30319
1.33842
1.37289
1.40656
1.43942
1.47143
1.50257
1.53281
1.56213
1.59051
1.6179
1.6443
1.66966
1.69398
1.71721
1.73935
1.76037
1.78026
1.79898
1.81653
1.8329
1.84806
1.86201
1.87474
1.88625
1.89652
1.90557
1.91338
1.91996
1.92531
1.92945
1.93238
1.93411
1.93466
1.93405
1.93229
1.9294
1.92541
1.92033
1.91421
1.90706
1.89891
1.8898
1.87974
1.86878
1.85696
1.84429
1.83083
1.81661
1.80167
1.78604
1.76977
1.75289
1.73545
1.71749
1.69904
1.68014
1.66085
1.64118
1.62119
1.60091
1.58038
1.55963
1.5387
1.51764
1.49646
1.47521
1.45391
1.4326
1.41131
1.39006
1.36888
1.34781
1.32686
1.30605
1.28541
1.26496
1.24473
1.22471
1.20495
1.18544
1.1662
1.14725
1.12859
1.11024
1.09221
1.0745
1.05712
1.04007
1.02336
1.00699
0.990962
0.975278
0.959938
0.944939
0.930279
0.915956
0.901966
0.888303
0.874962
0.861937
0.84922
0.836805
0.824684
0.812846
0.801283
0.789985
0.778942
0.768144
0.757578
0.747233
0.737102
0.727174
0.717438
0.707881
0.69849
0.689252
0.680154
0.671184
0.662329
0.653575
0.64491
0.636322
0.627798
0.619327
0.610896
0.602494
0.59411
0.585732
0.57735
0.568954
0.560534
0.55208
0.543584
0.535037
0.526431
0.517759
0.509014
0.50019
0.491282
0.482284
0.473192
0.464004
0.454714
0.445319
0.435816
0.426201
0.416474
0.406632
0.396674
0.386599
0.376405
0.366092
0.355658
0.345104
0.334427
0.323626
0.312698
0.30164
0.290448
0.279117
0.267639
0.256004
0.244201
0.232212
0.220017
0.207587
0.194884
0.181856
0.16843
0.154498
0.139893
0.124324
0.107265
0.0874147
0.0606729
0.0155044
0.134069
0.302554
0.399813
0.474001
0.53849
0.597747
0.653684
0.707269
0.759055
0.809382
0.858479
0.906498
0.953552
0.999718
1.04505
1.08959
1.13337
1.17639
1.21867
1.2602
1.30097
1.34099
1.38022
1.41866
1.45629
1.49307
1.52899
1.56402
1.59813
1.6313
1.6635
1.69469
1.72485
1.75396
1.78198
1.80889
1.83466
1.85928
1.88271
1.90493
1.92594
1.9457
1.9642
1.98143
1.99737
2.01202
2.02537
2.0374
2.04813
2.05754
2.06564
2.07243
2.07792
2.08211
2.08503
2.08667
2.08705
2.08621
2.08414
2.08088
2.07645
2.07088
2.06419
2.05641
2.04758
2.03772
2.02687
2.01506
2.00233
1.98871
1.97425
1.95898
1.94295
1.9262
1.90876
1.89067
1.87199
1.85275
1.833
1.81277
1.79211
1.77107
1.74967
1.72796
1.70599
1.68378
1.66138
1.63883
1.61616
1.5934
1.5706
1.54778
1.52497
1.50221
1.47953
1.45694
1.43448
1.41218
1.39006
1.36813
1.34642
1.32495
1.30374
1.2828
1.26215
1.2418
1.22177
1.20205
1.18268
1.16364
1.14496
1.12663
1.10866
1.09105
1.0738
1.05692
1.04041
1.02426
1.00847
0.99304
0.977965
0.963239
0.948857
0.934812
0.921096
0.907703
0.894622
0.881846
0.869363
0.857164
0.845237
0.833571
0.822155
0.810977
0.800029
0.7893
0.778775
0.768441
0.758285
0.748294
0.738453
0.728748
0.719167
0.709695
0.70032
0.691028
0.681806
0.672641
0.663521
0.654433
0.645366
0.636307
0.627246
0.618172
0.609074
0.599943
0.590769
0.581544
0.572259
0.562906
0.553479
0.54397
0.534375
0.524688
0.514904
0.505019
0.49503
0.484931
0.47472
0.464394
0.45395
0.443385
0.432699
0.421889
0.410953
0.399891
0.388701
0.377381
0.365929
0.354343
0.34262
0.330756
0.318747
0.306587
0.294269
0.281783
0.269117
0.256255
0.243177
0.229855
0.216251
0.202314
0.187966
0.173094
0.157511
0.140889
0.122579
0.101052
0.0714977
0.01953
0.134071
0.302554
0.399812
0.473999
0.538488
0.597745
0.653681
0.707266
0.759052
0.809379
0.858475
0.906495
0.953549
0.999715
1.04505
1.08959
1.13336
1.17639
1.21866
1.26019
1.30097
1.34098
1.38022
1.41866
1.45628
1.49307
1.52899
1.56402
1.59813
1.6313
1.66349
1.69468
1.72484
1.75395
1.78197
1.80888
1.83466
1.85927
1.8827
1.90493
1.92593
1.94569
1.96419
1.98142
1.99737
2.01202
2.02536
2.0374
2.04812
2.05753
2.06563
2.07242
2.07791
2.08211
2.08502
2.08666
2.08705
2.0862
2.08413
2.08087
2.07644
2.07087
2.06418
2.05641
2.04757
2.03771
2.02686
2.01505
2.00232
1.98871
1.97424
1.95898
1.94295
1.92619
1.90875
1.89067
1.87199
1.85275
1.83299
1.81277
1.79211
1.77106
1.74966
1.72796
1.70598
1.68378
1.66138
1.63883
1.61615
1.5934
1.5706
1.54777
1.52497
1.50221
1.47952
1.45694
1.43448
1.41218
1.39005
1.36812
1.34642
1.32495
1.30374
1.2828
1.26215
1.2418
1.22176
1.20205
1.18267
1.16364
1.14495
1.12662
1.10865
1.09104
1.0738
1.05692
1.04041
1.02426
1.00847
0.993038
0.977962
0.963236
0.948854
0.934809
0.921094
0.9077
0.89462
0.881843
0.869361
0.857161
0.845235
0.833569
0.822153
0.810975
0.800027
0.789298
0.778773
0.768439
0.758284
0.748292
0.738451
0.728746
0.719165
0.709694
0.700319
0.691027
0.681805
0.67264
0.66352
0.654432
0.645364
0.636306
0.627245
0.618171
0.609073
0.599942
0.590768
0.581543
0.572258
0.562905
0.553478
0.54397
0.534374
0.524687
0.514903
0.505018
0.495029
0.48493
0.474719
0.464393
0.453949
0.443385
0.432698
0.421888
0.410953
0.399891
0.3887
0.37738
0.365928
0.354342
0.342619
0.330756
0.318747
0.306587
0.294269
0.281783
0.269117
0.256255
0.243177
0.229855
0.216251
0.202313
0.187966
0.173094
0.157511
0.140889
0.12258
0.101052
0.071498
0.0195301
0.159741
0.343397
0.448592
0.527993
0.596513
0.659209
0.718277
0.774828
0.829487
0.882633
0.93451
0.98528
1.03505
1.08391
1.1319
1.17906
1.22542
1.27097
1.31574
1.3597
1.40286
1.4452
1.4867
1.52735
1.56711
1.60597
1.6439
1.68086
1.71683
1.75179
1.7857
1.81853
1.85025
1.88083
1.91026
1.93849
1.96551
1.99129
2.01581
2.03904
2.06097
2.08157
2.10084
2.11876
2.13532
2.1505
2.16431
2.17673
2.18777
2.19743
2.2057
2.21259
2.21812
2.22228
2.2251
2.22658
2.22675
2.22562
2.22322
2.21956
2.21468
2.20861
2.20136
2.19298
2.18349
2.17292
2.16132
2.14872
2.13515
2.12066
2.10528
2.08906
2.07204
2.05426
2.03576
2.0166
1.9968
1.97642
1.9555
1.93408
1.91221
1.88993
1.86728
1.84431
1.82105
1.79755
1.77385
1.74997
1.72598
1.70189
1.67775
1.65358
1.62943
1.60533
1.5813
1.55737
1.53358
1.50994
1.48649
1.46324
1.44022
1.41745
1.39495
1.37273
1.35081
1.32921
1.30793
1.28699
1.26641
1.24618
1.22631
1.20682
1.18771
1.16897
1.15062
1.13265
1.11507
1.09787
1.08104
1.0646
1.04852
1.03282
1.01748
1.00249
0.987849
0.973547
0.959576
0.945924
0.932583
0.91954
0.906785
0.894306
0.88209
0.870128
0.85841
0.846921
0.835649
0.824578
0.813695
0.802986
0.792436
0.78203
0.771756
0.761598
0.751543
0.741577
0.731686
0.721857
0.712077
0.702332
0.692612
0.682902
0.673193
0.663472
0.65373
0.643956
0.63414
0.624273
0.614348
0.604355
0.594288
0.584141
0.573906
0.563579
0.553155
0.54263
0.531999
0.521258
0.510403
0.499432
0.48834
0.477126
0.465786
0.454319
0.442723
0.430996
0.419134
0.407137
0.395001
0.382722
0.370299
0.357726
0.344998
0.332109
0.319052
0.305817
0.292392
0.278762
0.264905
0.250796
0.236395
0.221648
0.206474
0.190746
0.174257
0.156632
0.137123
0.113984
0.0817825
0.023563
0.159743
0.343397
0.44859
0.527991
0.59651
0.659206
0.718274
0.774825
0.829484
0.88263
0.934507
0.985277
1.03505
1.08391
1.1319
1.17906
1.22541
1.27097
1.31573
1.3597
1.40286
1.4452
1.4867
1.52735
1.56711
1.60597
1.64389
1.68085
1.71683
1.75178
1.78569
1.81852
1.85024
1.88083
1.91025
1.93849
1.96551
1.99128
2.0158
2.03903
2.06096
2.08157
2.10084
2.11876
2.13531
2.1505
2.1643
2.17673
2.18777
2.19742
2.20569
2.21259
2.21811
2.22228
2.22509
2.22658
2.22675
2.22562
2.22321
2.21956
2.21468
2.2086
2.20136
2.19297
2.18348
2.17292
2.16132
2.14871
2.13514
2.12065
2.10528
2.08906
2.07203
2.05425
2.03576
2.01659
1.9968
1.97642
1.9555
1.93408
1.91221
1.88993
1.86728
1.84431
1.82105
1.79755
1.77384
1.74997
1.72597
1.70189
1.67774
1.65358
1.62943
1.60532
1.58129
1.55737
1.53357
1.50994
1.48648
1.46324
1.44022
1.41745
1.39494
1.37273
1.35081
1.3292
1.30793
1.28699
1.2664
1.24617
1.22631
1.20682
1.18771
1.16897
1.15062
1.13265
1.11507
1.09786
1.08104
1.06459
1.04852
1.03282
1.01747
1.00249
0.987847
0.973545
0.959574
0.945922
0.932581
0.919538
0.906783
0.894304
0.882088
0.870126
0.858408
0.84692
0.835647
0.824576
0.813694
0.802984
0.792434
0.782029
0.771755
0.761597
0.751542
0.741576
0.731685
0.721856
0.712076
0.702331
0.69261
0.682901
0.673192
0.663471
0.653729
0.643955
0.634139
0.624272
0.614347
0.604354
0.594287
0.58414
0.573905
0.563579
0.553155
0.542629
0.531999
0.521258
0.510403
0.499431
0.488339
0.477125
0.465786
0.454319
0.442723
0.430995
0.419134
0.407137
0.395
0.382722
0.370298
0.357725
0.344997
0.332109
0.319052
0.305817
0.292392
0.278761
0.264905
0.250796
0.236395
0.221648
0.206473
0.190746
0.174257
0.156632
0.137123
0.113984
0.0817828
0.0235631
0.185405
0.383117
0.496033
0.580685
0.653283
0.719436
0.78161
0.841063
0.898502
0.954349
1.00887
1.06225
1.11459
1.16598
1.21646
1.26608
1.31485
1.36277
1.40985
1.45609
1.50146
1.54595
1.58955
1.63223
1.67396
1.71471
1.75446
1.79319
1.83084
1.86741
1.90285
1.93714
1.97025
2.00214
2.0328
2.06218
2.09027
2.11705
2.14248
2.16656
2.18925
2.21055
2.23044
2.2489
2.26593
2.28152
2.29566
2.30835
2.31959
2.32937
2.33772
2.34462
2.35009
2.35415
2.3568
2.35806
2.35796
2.35651
2.35373
2.34965
2.3443
2.33771
2.3299
2.32092
2.31078
2.29954
2.28722
2.27386
2.2595
2.24418
2.22795
2.21084
2.19291
2.17418
2.15472
2.13456
2.11374
2.09232
2.07034
2.04784
2.02487
2.00147
1.97769
1.95357
1.92916
1.90449
1.8796
1.85454
1.82935
1.80406
1.77871
1.75333
1.72797
1.70265
1.6774
1.65226
1.62726
1.60241
1.57776
1.55331
1.5291
1.50514
1.48146
1.45807
1.435
1.41224
1.38983
1.36777
1.34607
1.32474
1.30379
1.28322
1.26305
1.24327
1.22389
1.2049
1.18632
1.16813
1.15034
1.13294
1.11593
1.0993
1.08305
1.06717
1.05165
1.03648
1.02166
1.00717
0.993008
0.979155
0.965602
0.952337
0.939349
0.926628
0.914161
0.901934
0.889932
0.878142
0.866547
0.855135
0.843889
0.832795
0.821839
0.811005
0.80028
0.789649
0.779098
0.768613
0.758182
0.74779
0.737425
0.727075
0.716727
0.706372
0.695997
0.685593
0.675149
0.664657
0.654109
0.643496
0.632811
0.622047
0.611198
0.600259
0.589225
0.578091
0.566854
0.555507
0.544048
0.532472
0.520777
0.50896
0.497016
0.484944
0.472741
0.460403
0.447928
0.435312
0.422553
0.409645
0.396584
0.383366
0.369986
0.356435
0.342706
0.32879
0.314673
0.300341
0.285773
0.27094
0.255802
0.2403
0.224348
0.207805
0.190438
0.171826
0.151134
0.126396
0.0916369
0.027641
0.185407
0.383117
0.496031
0.580682
0.653281
0.719433
0.781607
0.84106
0.898498
0.954346
1.00887
1.06224
1.11459
1.16597
1.21646
1.26608
1.31484
1.36277
1.40985
1.45608
1.50145
1.54595
1.58955
1.63222
1.67395
1.71471
1.75446
1.79318
1.83084
1.86741
1.90285
1.93714
1.97024
2.00214
2.03279
2.06218
2.09027
2.11704
2.14248
2.16655
2.18925
2.21055
2.23043
2.2489
2.26593
2.28151
2.29565
2.30834
2.31958
2.32937
2.33771
2.34461
2.35009
2.35414
2.3568
2.35806
2.35795
2.3565
2.35372
2.34964
2.34429
2.3377
2.3299
2.32091
2.31078
2.29953
2.28721
2.27385
2.25949
2.24418
2.22795
2.21084
2.1929
2.17418
2.15471
2.13455
2.11374
2.09232
2.07034
2.04784
2.02487
2.00147
1.97769
1.95357
1.92915
1.90448
1.8796
1.85454
1.82934
1.80405
1.7787
1.75333
1.72797
1.70265
1.6774
1.65226
1.62725
1.60241
1.57775
1.55331
1.52909
1.50514
1.48146
1.45807
1.43499
1.41224
1.38983
1.36776
1.34606
1.32474
1.30379
1.28322
1.26305
1.24327
1.22389
1.2049
1.18632
1.16813
1.15034
1.13294
1.11593
1.0993
1.08305
1.06717
1.05165
1.03648
1.02166
1.00717
0.993006
0.979153
0.965601
0.952336
0.939348
0.926627
0.91416
0.901933
0.889931
0.87814
0.866546
0.855133
0.843887
0.832794
0.821837
0.811004
0.800279
0.789648
0.779097
0.768612
0.758181
0.747789
0.737424
0.727074
0.716726
0.706371
0.695996
0.685592
0.675148
0.664657
0.654108
0.643495
0.63281
0.622046
0.611198
0.600259
0.589225
0.578091
0.566853
0.555507
0.544047
0.532472
0.520777
0.508959
0.497016
0.484944
0.472741
0.460403
0.447928
0.435312
0.422552
0.409644
0.396584
0.383366
0.369985
0.356435
0.342706
0.32879
0.314673
0.300341
0.285773
0.27094
0.255801
0.2403
0.224348
0.207805
0.190438
0.171827
0.151134
0.126396
0.0916373
0.0276411
0.211262
0.422229
0.542705
0.632653
0.709416
0.7791
0.844429
0.906803
0.967012
1.02553
1.08265
1.13857
1.1934
1.24724
1.30013
1.3521
1.40318
1.45337
1.50267
1.55106
1.59853
1.64506
1.69063
1.73521
1.77878
1.82131
1.86276
1.90311
1.94232
1.98037
2.01721
2.05282
2.08718
2.12024
2.15198
2.18238
2.21141
2.23904
2.26526
2.29004
2.31337
2.33524
2.35561
2.3745
2.39188
2.40776
2.42212
2.43497
2.4463
2.45613
2.46445
2.47128
2.47662
2.4805
2.48292
2.4839
2.48347
2.48165
2.47846
2.47393
2.46808
2.46096
2.45259
2.443
2.43223
2.42031
2.40729
2.39319
2.37808
2.36197
2.34493
2.32698
2.30819
2.28858
2.26821
2.24712
2.22536
2.20298
2.18002
2.15652
2.13254
2.10812
2.0833
2.05813
2.03265
2.00691
1.98094
1.9548
1.92851
1.90212
1.87567
1.84918
1.82271
1.79628
1.76992
1.74366
1.71754
1.69159
1.66582
1.64027
1.61496
1.58991
1.56514
1.54067
1.51652
1.4927
1.46922
1.44611
1.42337
1.40101
1.37904
1.35747
1.33629
1.31553
1.29517
1.27523
1.25569
1.23657
1.21785
1.19954
1.18163
1.16411
1.14698
1.13024
1.11387
1.09786
1.08221
1.06691
1.05194
1.03729
1.02296
1.00892
0.995171
0.9817
0.968491
0.95553
0.942803
0.930294
0.91799
0.905874
0.893931
0.882147
0.870506
0.858994
0.847595
0.836295
0.82508
0.813936
0.802848
0.791804
0.780791
0.769797
0.758809
0.747816
0.736808
0.725774
0.714704
0.70359
0.692423
0.681195
0.669899
0.658528
0.647076
0.635538
0.623909
0.612184
0.600358
0.588427
0.576387
0.564234
0.551963
0.539572
0.527056
0.514412
0.501637
0.488726
0.475676
0.462483
0.449141
0.435646
0.421992
0.408174
0.394185
0.380018
0.365663
0.35111
0.336346
0.321356
0.306116
0.290597
0.274756
0.258529
0.241821
0.224476
0.206236
0.186636
0.164753
0.138432
0.101182
0.0317345
0.211264
0.422228
0.542703
0.632651
0.709413
0.779097
0.844426
0.9068
0.967009
1.02553
1.08265
1.13856
1.1934
1.24723
1.30012
1.3521
1.40318
1.45337
1.50266
1.55105
1.59852
1.64505
1.69063
1.73521
1.77878
1.82131
1.86276
1.90311
1.94232
1.98036
2.01721
2.05282
2.08717
2.12023
2.15198
2.18238
2.2114
2.23904
2.26526
2.29004
2.31337
2.33523
2.35561
2.37449
2.39188