/*--------------------------------*- C++ -*----------------------------------*\
  =========                 |
  \\      /  F ield         | OpenFOAM: The Open Source CFD Toolbox
   \\    /   O peration     | Website:  https://openfoam.org
    \\  /    A nd           | Version:  8
     \\/     M anipulation  |
\*---------------------------------------------------------------------------*/
FoamFile
{
    version     2.0;
    format      ascii;
    class       volScalarField;
    location    "2800";
    object      nut;
}
// * * * * * * * * * * * * * * * * * * * * * * * * * * * * * * * * * * * * * //

dimensions      [0 2 -1 0 0 0 0];

internalField   nonuniform List<scalar> 
46000
(
4.51607e-07
2.13289e-06
4.15771e-06
6.07402e-06
7.89203e-06
9.65532e-06
1.13796e-05
1.30709e-05
1.47392e-05
1.63889e-05
1.80299e-05
1.96568e-05
2.1271e-05
2.28759e-05
2.44724e-05
2.60602e-05
2.76391e-05
2.92082e-05
3.07666e-05
3.23131e-05
3.38464e-05
3.53651e-05
3.68676e-05
3.83522e-05
3.98172e-05
4.12608e-05
4.26811e-05
4.40762e-05
4.54443e-05
4.67833e-05
4.80914e-05
4.93667e-05
5.06072e-05
5.18112e-05
5.29767e-05
5.4102e-05
5.51854e-05
5.62252e-05
5.72199e-05
5.81679e-05
5.90679e-05
5.99185e-05
6.07186e-05
6.14671e-05
6.21629e-05
6.28053e-05
6.33935e-05
6.39269e-05
6.44051e-05
6.48278e-05
6.51946e-05
6.55057e-05
6.5761e-05
6.59608e-05
6.61054e-05
6.61953e-05
6.62312e-05
6.62138e-05
6.61439e-05
6.60227e-05
6.58514e-05
6.56319e-05
6.53673e-05
6.50583e-05
6.47046e-05
6.43074e-05
6.38683e-05
6.33889e-05
6.2871e-05
6.23164e-05
6.17271e-05
6.11049e-05
6.04517e-05
5.97696e-05
5.90606e-05
5.83265e-05
5.75695e-05
5.67915e-05
5.59944e-05
5.51803e-05
5.4351e-05
5.35085e-05
5.26545e-05
5.1791e-05
5.09197e-05
5.00424e-05
4.91606e-05
4.8276e-05
4.73902e-05
4.65046e-05
4.56206e-05
4.47397e-05
4.3863e-05
4.29918e-05
4.21273e-05
4.12705e-05
4.04224e-05
3.95839e-05
3.87559e-05
3.79392e-05
3.71345e-05
3.63423e-05
3.55634e-05
3.47982e-05
3.40472e-05
3.33107e-05
3.2589e-05
3.18825e-05
3.11913e-05
3.05156e-05
2.98556e-05
2.92111e-05
2.85823e-05
2.79692e-05
2.73716e-05
2.67894e-05
2.62224e-05
2.56706e-05
2.51336e-05
2.46112e-05
2.4103e-05
2.36089e-05
2.31285e-05
2.26614e-05
2.22072e-05
2.17655e-05
2.1336e-05
2.09183e-05
2.05118e-05
2.01161e-05
1.97309e-05
1.93555e-05
1.89897e-05
1.86328e-05
1.82845e-05
1.79442e-05
1.76114e-05
1.72858e-05
1.69667e-05
1.66544e-05
1.63481e-05
1.6047e-05
1.57508e-05
1.5459e-05
1.51712e-05
1.48869e-05
1.46057e-05
1.43272e-05
1.40511e-05
1.3777e-05
1.35044e-05
1.32332e-05
1.29629e-05
1.26933e-05
1.2424e-05
1.21549e-05
1.18857e-05
1.16162e-05
1.13462e-05
1.10755e-05
1.0804e-05
1.05316e-05
1.02581e-05
9.98358e-06
9.70957e-06
9.43502e-06
9.15953e-06
8.88303e-06
8.60558e-06
8.32722e-06
8.04807e-06
7.76823e-06
7.48785e-06
7.20706e-06
6.92603e-06
6.64494e-06
6.36396e-06
6.08326e-06
5.80305e-06
5.52349e-06
5.24477e-06
4.96704e-06
4.69044e-06
4.4151e-06
4.14107e-06
3.86817e-06
3.59613e-06
3.32607e-06
3.057e-06
2.78866e-06
2.5208e-06
2.25254e-06
1.98293e-06
1.7119e-06
1.43906e-06
1.15989e-06
8.70547e-07
5.68675e-07
2.66823e-07
5.09602e-08
4.51642e-07
2.13301e-06
4.15786e-06
6.07419e-06
7.8922e-06
9.65549e-06
1.13798e-05
1.30711e-05
1.47394e-05
1.63891e-05
1.80301e-05
1.9657e-05
2.12711e-05
2.28761e-05
2.44725e-05
2.60603e-05
2.76392e-05
2.92083e-05
3.07667e-05
3.23132e-05
3.38465e-05
3.53652e-05
3.68677e-05
3.83523e-05
3.98173e-05
4.12609e-05
4.26812e-05
4.40763e-05
4.54443e-05
4.67834e-05
4.80915e-05
4.93667e-05
5.06073e-05
5.18112e-05
5.29767e-05
5.4102e-05
5.51854e-05
5.62252e-05
5.72199e-05
5.81679e-05
5.90679e-05
5.99185e-05
6.07186e-05
6.1467e-05
6.21629e-05
6.28053e-05
6.33935e-05
6.39269e-05
6.44051e-05
6.48277e-05
6.51946e-05
6.55056e-05
6.57609e-05
6.59607e-05
6.61054e-05
6.61953e-05
6.62312e-05
6.62137e-05
6.61438e-05
6.60226e-05
6.58513e-05
6.56318e-05
6.53672e-05
6.50582e-05
6.47045e-05
6.43073e-05
6.38682e-05
6.33888e-05
6.28709e-05
6.23163e-05
6.1727e-05
6.11048e-05
6.04516e-05
5.97696e-05
5.90605e-05
5.83264e-05
5.75694e-05
5.67914e-05
5.59943e-05
5.51802e-05
5.43509e-05
5.35084e-05
5.26544e-05
5.17909e-05
5.09197e-05
5.00423e-05
4.91605e-05
4.82759e-05
4.73901e-05
4.65045e-05
4.56205e-05
4.47396e-05
4.38629e-05
4.29918e-05
4.21272e-05
4.12704e-05
4.04223e-05
3.95838e-05
3.87559e-05
3.79391e-05
3.71344e-05
3.63423e-05
3.55633e-05
3.47981e-05
3.40471e-05
3.33106e-05
3.25889e-05
3.18824e-05
3.11912e-05
3.05156e-05
2.98555e-05
2.9211e-05
2.85823e-05
2.79691e-05
2.73715e-05
2.67893e-05
2.62224e-05
2.56705e-05
2.51335e-05
2.46111e-05
2.4103e-05
2.36089e-05
2.31284e-05
2.26613e-05
2.22071e-05
2.17655e-05
2.1336e-05
2.09182e-05
2.05117e-05
2.01161e-05
1.97308e-05
1.93555e-05
1.89896e-05
1.86328e-05
1.82844e-05
1.79441e-05
1.76114e-05
1.72858e-05
1.69666e-05
1.66544e-05
1.6348e-05
1.60469e-05
1.57507e-05
1.54589e-05
1.51711e-05
1.48868e-05
1.46056e-05
1.43272e-05
1.40511e-05
1.37769e-05
1.35044e-05
1.32331e-05
1.29629e-05
1.26932e-05
1.2424e-05
1.21549e-05
1.18857e-05
1.16161e-05
1.13461e-05
1.10754e-05
1.08039e-05
1.05315e-05
1.0258e-05
9.98355e-06
9.70953e-06
9.43498e-06
9.15949e-06
8.883e-06
8.60554e-06
8.32719e-06
8.04804e-06
7.7682e-06
7.48782e-06
7.20703e-06
6.92601e-06
6.64492e-06
6.36393e-06
6.08324e-06
5.80303e-06
5.52348e-06
5.24475e-06
4.96702e-06
4.69043e-06
4.41508e-06
4.14106e-06
3.86816e-06
3.59612e-06
3.32607e-06
3.05699e-06
2.78866e-06
2.5208e-06
2.25254e-06
1.98293e-06
1.71191e-06
1.43907e-06
1.15989e-06
8.70551e-07
5.68678e-07
2.66825e-07
5.09608e-08
1.93564e-06
3.24562e-05
5.82883e-05
7.58782e-05
8.93451e-05
0.000100387
0.000109828
0.00011822
0.000125869
0.000132945
0.00013957
0.000145835
0.000151799
0.000157504
0.000162979
0.000168249
0.000173333
0.000178248
0.000183004
0.000187612
0.000192079
0.000196411
0.000200614
0.000204692
0.000208646
0.00021248
0.000216196
0.000219795
0.000223277
0.000226643
0.000229894
0.000233029
0.000236049
0.000238953
0.000241741
0.000244413
0.000246967
0.000249404
0.000251722
0.000253922
0.000256003
0.000257964
0.000259805
0.000261525
0.000263125
0.000264605
0.000265963
0.000267201
0.000268318
0.000269315
0.000270193
0.000270951
0.000271591
0.000272113
0.000272518
0.000272808
0.000272984
0.000273047
0.000272999
0.00027284
0.000272572
0.000272196
0.00027171
0.000271118
0.000270426
0.000269637
0.000268755
0.000267782
0.000266722
0.000265577
0.000264351
0.000263047
0.000261667
0.000260216
0.000258697
0.000257112
0.000255465
0.00025376
0.000252
0.000250188
0.000248329
0.000246424
0.000244478
0.000242493
0.000240474
0.000238424
0.000236345
0.000234241
0.000232116
0.000229971
0.000227811
0.000225638
0.000223455
0.000221265
0.00021907
0.000216874
0.000214678
0.000212486
0.000210298
0.000208119
0.000205949
0.000203791
0.000201647
0.000199519
0.000197408
0.000195315
0.000193243
0.000191193
0.000189166
0.000187162
0.000185184
0.000183232
0.000181307
0.000179409
0.000177539
0.000175698
0.000173885
0.000172102
0.000170348
0.000168623
0.000166927
0.00016526
0.000163622
0.000162012
0.00016043
0.000158876
0.000157347
0.000155845
0.000154368
0.000152915
0.000151486
0.000150078
0.000148692
0.000147325
0.000145978
0.000144648
0.000143335
0.000142038
0.000140755
0.000139483
0.000138222
0.00013697
0.000135725
0.000134486
0.000133252
0.00013202
0.00013079
0.000129559
0.000128326
0.000127089
0.000125848
0.0001246
0.000123344
0.000122078
0.000120801
0.000119512
0.000118208
0.00011689
0.000115555
0.000114202
0.000112829
0.000111436
0.00011002
0.000108577
0.000107096
0.000105588
0.000104054
0.000102491
0.0001009
9.92803e-05
9.76299e-05
9.59486e-05
9.42352e-05
9.24887e-05
9.07081e-05
8.88921e-05
8.70393e-05
8.5148e-05
8.32163e-05
8.12421e-05
7.92228e-05
7.71551e-05
7.50352e-05
7.28586e-05
7.06197e-05
6.83123e-05
6.59275e-05
6.3449e-05
6.08612e-05
5.8143e-05
5.52649e-05
5.21824e-05
4.88275e-05
4.50694e-05
4.07705e-05
3.57619e-05
2.96449e-05
2.16212e-05
1.01571e-05
2.37086e-07
1.93574e-06
3.24584e-05
5.82917e-05
7.58819e-05
8.93489e-05
0.000100391
0.000109832
0.000118224
0.000125873
0.000132949
0.000139574
0.000145839
0.000151804
0.000157508
0.000162983
0.000168253
0.000173338
0.000178252
0.000183009
0.000187617
0.000192084
0.000196416
0.000200619
0.000204697
0.000208651
0.000212486
0.000216201
0.0002198
0.000223282
0.000226649
0.0002299
0.000233035
0.000236055
0.000238959
0.000241747
0.000244419
0.000246973
0.00024941
0.000251728
0.000253928
0.000256009
0.00025797
0.000259811
0.000261532
0.000263132
0.000264611
0.000265969
0.000267207
0.000268324
0.000269322
0.000270199
0.000270957
0.000271597
0.000272119
0.000272524
0.000272815
0.00027299
0.000273053
0.000273005
0.000272846
0.000272578
0.000272202
0.000271716
0.000271124
0.000270432
0.000269643
0.00026876
0.000267788
0.000266727
0.000265583
0.000264357
0.000263052
0.000261673
0.000260222
0.000258702
0.000257117
0.000255471
0.000253765
0.000252005
0.000250194
0.000248334
0.000246429
0.000244483
0.000242498
0.000240479
0.000238429
0.00023635
0.000234246
0.00023212
0.000229976
0.000227816
0.000225643
0.000223459
0.000221269
0.000219075
0.000216878
0.000214682
0.000212489
0.000210302
0.000208123
0.000205953
0.000203795
0.000201651
0.000199522
0.000197411
0.000195319
0.000193247
0.000191196
0.000189169
0.000187165
0.000185187
0.000183235
0.00018131
0.000179412
0.000177542
0.0001757
0.000173888
0.000172104
0.00017035
0.000168625
0.000166929
0.000165262
0.000163624
0.000162014
0.000160432
0.000158878
0.000157349
0.000155847
0.00015437
0.000152917
0.000151487
0.00015008
0.000148693
0.000147327
0.000145979
0.000144649
0.000143336
0.000142039
0.000140756
0.000139485
0.000138223
0.000136971
0.000135726
0.000134487
0.000133253
0.000132021
0.00013079
0.000129559
0.000128327
0.00012709
0.000125849
0.000124601
0.000123344
0.000122078
0.000120801
0.000119512
0.000118209
0.00011689
0.000115555
0.000114202
0.00011283
0.000111436
0.00011002
0.000108577
0.000107096
0.000105589
0.000104054
0.000102492
0.000100901
9.92805e-05
9.76302e-05
9.59488e-05
9.42354e-05
9.2489e-05
9.07083e-05
8.88923e-05
8.70395e-05
8.51482e-05
8.32165e-05
8.12423e-05
7.9223e-05
7.71553e-05
7.50354e-05
7.28588e-05
7.06199e-05
6.83125e-05
6.59277e-05
6.34492e-05
6.08615e-05
5.81432e-05
5.52652e-05
5.21826e-05
4.88277e-05
4.50695e-05
4.07706e-05
3.5762e-05
2.9645e-05
2.16212e-05
1.0157e-05
2.37085e-07
3.84187e-06
5.64398e-05
0.000111261
0.000151965
0.000183343
0.000208627
0.00022983
0.000248173
0.000264435
0.000279124
0.000292579
0.000305044
0.00031669
0.000327643
0.000337998
0.00034783
0.000357195
0.00036614
0.000374702
0.000382913
0.000390796
0.000398372
0.000405658
0.00041267
0.000419417
0.000425911
0.000432161
0.000438173
0.000443954
0.000449508
0.000454842
0.000459957
0.000464859
0.000469549
0.000474031
0.000478307
0.000482378
0.000486247
0.000489915
0.000493384
0.000496655
0.00049973
0.00050261
0.000505297
0.000507791
0.000510094
0.000512207
0.000514133
0.000515872
0.000517425
0.000518796
0.000519985
0.000520994
0.000521825
0.00052248
0.000522962
0.000523271
0.000523411
0.000523383
0.00052319
0.000522831
0.000522309
0.000521622
0.000520776
0.000519777
0.000518631
0.000517343
0.000515918
0.00051436
0.000512674
0.000510862
0.000508931
0.000506883
0.000504724
0.000502457
0.000500088
0.00049762
0.000495059
0.000492409
0.000489674
0.000486859
0.000483968
0.000481008
0.000477981
0.000474892
0.000471747
0.00046855
0.000465304
0.000462016
0.000458688
0.000455326
0.000451934
0.000448516
0.000445075
0.000441617
0.000438145
0.000434663
0.000431175
0.000427683
0.000424193
0.000420706
0.000417227
0.000413758
0.000410303
0.000406863
0.000403443
0.000400043
0.000396667
0.000393317
0.000389995
0.000386702
0.00038344
0.000380211
0.000377016
0.000373857
0.000370733
0.000367646
0.000364597
0.000361586
0.000358613
0.000355678
0.000352781
0.000349923
0.000347101
0.000344317
0.000341569
0.000338857
0.000336178
0.000333533
0.000330919
0.000328336
0.000325781
0.000323253
0.000320751
0.000318273
0.000315817
0.000313382
0.000310964
0.000308561
0.000306168
0.000303785
0.000301409
0.000299036
0.000296666
0.000294294
0.000291919
0.000289538
0.000287149
0.000284747
0.000282332
0.0002799
0.000277448
0.000274975
0.000272477
0.000269952
0.000267397
0.000264811
0.00026219
0.000259532
0.000256835
0.000254096
0.000251312
0.000248478
0.000245588
0.000242633
0.000239618
0.000236544
0.00023341
0.000230213
0.000226954
0.000223628
0.000220234
0.000216768
0.000213227
0.000209607
0.000205905
0.000202114
0.00019823
0.000194245
0.000190152
0.000185942
0.000181604
0.000177125
0.000172489
0.000167678
0.000162667
0.000157428
0.000151918
0.000146087
0.000139865
0.000133154
0.000125819
0.000117671
0.000108415
9.76227e-05
8.47399e-05
6.87638e-05
4.80105e-05
2.07378e-05
5.09343e-07
3.84201e-06
5.6443e-05
0.000111267
0.000151973
0.000183351
0.000208636
0.000229839
0.000248182
0.000264444
0.000279133
0.000292588
0.000305052
0.000316698
0.000327652
0.000338007
0.000347838
0.000357203
0.000366148
0.000374711
0.000382921
0.000390804
0.000398381
0.000405667
0.000412678
0.000419426
0.00042592
0.00043217
0.000438182
0.000443963
0.000449517
0.000454851
0.000459966
0.000464868
0.000469558
0.00047404
0.000478316
0.000482387
0.000486256
0.000489924
0.000493393
0.000496665
0.000499739
0.000502619
0.000505306
0.0005078
0.000510103
0.000512216
0.000514142
0.000515881
0.000517434
0.000518805
0.000519994
0.000521003
0.000521834
0.000522489
0.00052297
0.00052328
0.00052342
0.000523392
0.000523198
0.00052284
0.000522317
0.000521631
0.000520784
0.000519785
0.000518639
0.000517351
0.000515926
0.000514368
0.000512681
0.00051087
0.000508938
0.000506891
0.000504731
0.000502465
0.000500095
0.000497627
0.000495066
0.000492415
0.00048968
0.000486865
0.000483975
0.000481014
0.000477987
0.000474898
0.000471753
0.000468555
0.00046531
0.000462021
0.000458694
0.000455332
0.000451939
0.000448521
0.000445081
0.000441622
0.00043815
0.000434668
0.000431179
0.000427688
0.000424197
0.000420711
0.000417231
0.000413762
0.000410307
0.000406867
0.000403446
0.000400047
0.000396671
0.00039332
0.000389998
0.000386705
0.000383443
0.000380214
0.000377019
0.000373859
0.000370736
0.000367649
0.000364599
0.000361588
0.000358615
0.00035568
0.000352783
0.000349925
0.000347103
0.000344319
0.000341571
0.000338858
0.00033618
0.000333534
0.00033092
0.000328337
0.000325782
0.000323254
0.000320752
0.000318274
0.000315818
0.000313383
0.000310965
0.000308561
0.000306169
0.000303786
0.000301409
0.000299036
0.000296666
0.000294294
0.000291919
0.000289538
0.000287148
0.000284747
0.000282332
0.000279899
0.000277448
0.000274974
0.000272476
0.000269951
0.000267397
0.00026481
0.000262189
0.000259532
0.000256835
0.000254095
0.000251311
0.000248477
0.000245588
0.000242632
0.000239618
0.000236543
0.000233409
0.000230213
0.000226953
0.000223627
0.000220233
0.000216767
0.000213226
0.000209607
0.000205904
0.000202113
0.000198229
0.000194244
0.000190151
0.000185941
0.000181603
0.000177124
0.000172488
0.000167677
0.000162667
0.000157427
0.000151918
0.000146087
0.000139865
0.000133154
0.000125819
0.000117671
0.000108415
9.76227e-05
8.474e-05
6.87639e-05
4.80105e-05
2.07377e-05
5.09343e-07
5.70923e-06
7.31164e-05
0.000150004
0.000211798
0.000261334
0.000302043
0.000336415
0.00036613
0.000392332
0.000415815
0.000437141
0.000456718
0.000474847
0.000491753
0.000507609
0.00052255
0.000536681
0.000550089
0.000562843
0.000574999
0.000586604
0.000597697
0.000608311
0.000618473
0.000628207
0.000637531
0.000646465
0.000655023
0.000663217
0.000671059
0.000678559
0.000685726
0.000692568
0.000699092
0.000705304
0.00071121
0.000716816
0.000722126
0.000727145
0.000731878
0.000736328
0.000740499
0.000744395
0.00074802
0.000751377
0.000754469
0.0007573
0.000759874
0.000762192
0.00076426
0.00076608
0.000767654
0.000768988
0.000770084
0.000770945
0.000771575
0.000771977
0.000772154
0.000772109
0.000771845
0.000771365
0.00077067
0.000769763
0.000768648
0.000767333
0.000765825
0.00076413
0.000762254
0.000760203
0.000757983
0.000755598
0.000753054
0.000750357
0.000747511
0.000744524
0.0007414
0.000738144
0.000734763
0.000731262
0.000727647
0.000723924
0.000720098
0.000716175
0.000712162
0.000708063
0.000703884
0.000699632
0.000695312
0.000690929
0.000686489
0.000681999
0.000677462
0.000672884
0.000668272
0.000663629
0.000658962
0.000654274
0.000649571
0.000644858
0.000640139
0.000635418
0.0006307
0.000625988
0.000621287
0.0006166
0.000611931
0.000607282
0.000602658
0.000598061
0.000593494
0.000588958
0.000584457
0.000579992
0.000575566
0.000571178
0.000566832
0.000562528
0.000558267
0.000554049
0.000549875
0.000545744
0.000541658
0.000537615
0.000533615
0.000529656
0.000525739
0.000521862
0.000518023
0.000514221
0.000510454
0.00050672
0.000503018
0.000499344
0.000495697
0.000492074
0.000488475
0.000484893
0.000481327
0.000477771
0.000474223
0.000470679
0.000467135
0.00046359
0.000460038
0.000456477
0.000452903
0.000449313
0.000445703
0.000442069
0.000438408
0.000434717
0.000430991
0.000427228
0.000423424
0.000419575
0.000415679
0.000411732
0.000407731
0.000403672
0.000399551
0.000395366
0.00039111
0.00038678
0.000382369
0.000377868
0.000373278
0.000368598
0.000363826
0.000358959
0.000353993
0.000348925
0.000343749
0.000338459
0.00033305
0.000327514
0.000321842
0.000316025
0.000310051
0.000303908
0.000297581
0.00029105
0.000284297
0.000277294
0.000270012
0.000262414
0.000254453
0.000246073
0.0002372
0.000227737
0.00021756
0.0002065
0.000194328
0.000180727
0.000165249
0.000147277
0.000125921
9.9929e-05
6.75398e-05
2.82007e-05
7.90598e-07
5.70938e-06
7.31199e-05
0.000150012
0.000211808
0.000261346
0.000302056
0.000336428
0.000366143
0.000392345
0.000415828
0.000437154
0.000456731
0.00047486
0.000491766
0.000507622
0.000522562
0.000536694
0.000550102
0.000562856
0.000575012
0.000586617
0.00059771
0.000608324
0.000618485
0.000628219
0.000637544
0.000646477
0.000655035
0.000663229
0.000671071
0.000678571
0.000685738
0.00069258
0.000699104
0.000705316
0.000711222
0.000716828
0.000722138
0.000727157
0.000731889
0.000736339
0.00074051
0.000744407
0.000748031
0.000751388
0.00075448
0.000757311
0.000759885
0.000762203
0.000764271
0.00076609
0.000767665
0.000768999
0.000770094
0.000770955
0.000771585
0.000771987
0.000772164
0.000772119
0.000771855
0.000771375
0.00077068
0.000769773
0.000768658
0.000767343
0.000765834
0.000764139
0.000762263
0.000760212
0.000757991
0.000755606
0.000753062
0.000750365
0.000747519
0.000744532
0.000741407
0.000738152
0.000734771
0.00073127
0.000727654
0.000723931
0.000720105
0.000716182
0.000712168
0.000708069
0.000703891
0.000699638
0.000695318
0.000690935
0.000686495
0.000682004
0.000677467
0.00067289
0.000668277
0.000663634
0.000658967
0.000654279
0.000649576
0.000644862
0.000640143
0.000635422
0.000630703
0.000625992
0.00062129
0.000616603
0.000611934
0.000607286
0.000602661
0.000598064
0.000593496
0.000588961
0.00058446
0.000579995
0.000575568
0.000571181
0.000566834
0.00056253
0.000558269
0.000554051
0.000549876
0.000545746
0.000541659
0.000537616
0.000533616
0.000529657
0.00052574
0.000521863
0.000518024
0.000514222
0.000510455
0.000506721
0.000503018
0.000499344
0.000495697
0.000492074
0.000488474
0.000484893
0.000481326
0.000477771
0.000474222
0.000470678
0.000467135
0.000463589
0.000460037
0.000456476
0.000452903
0.000449312
0.000445702
0.000442068
0.000438407
0.000434716
0.00043099
0.000427227
0.000423422
0.000419574
0.000415678
0.000411731
0.000407729
0.00040367
0.00039955
0.000395364
0.000391109
0.000386779
0.000382367
0.000377866
0.000373276
0.000368596
0.000363824
0.000358957
0.000353992
0.000348923
0.000343747
0.000338458
0.000333049
0.000327512
0.000321841
0.000316023
0.00031005
0.000303907
0.000297579
0.000291049
0.000284295
0.000277293
0.000270011
0.000262412
0.000254452
0.000246072
0.000237199
0.000227736
0.000217559
0.000206499
0.000194327
0.000180727
0.000165249
0.000147277
0.000125921
9.99291e-05
6.75399e-05
2.82006e-05
7.90599e-07
7.53352e-06
8.63311e-05
0.000180234
0.00025974
0.000325673
0.000381052
0.000428395
0.000469573
0.000505951
0.000538528
0.00056804
0.000595039
0.00061994
0.000643065
0.000664661
0.000684926
0.000704016
0.000722057
0.000739153
0.000755388
0.000770832
0.000785544
0.000799574
0.000812964
0.000825749
0.000837961
0.000849626
0.000860768
0.000871406
0.00088156
0.000891244
0.000900473
0.00090926
0.000917617
0.000925553
0.00093308
0.000940206
0.000946939
0.000953288
0.000959259
0.000964859
0.000970096
0.000974975
0.000979503
0.000983685
0.000987528
0.000991037
0.000994218
0.000997075
0.000999614
0.00100184
0.00100376
0.00100538
0.0010067
0.00100772
0.00100846
0.00100892
0.0010091
0.00100901
0.00100864
0.00100801
0.00100712
0.00100598
0.00100458
0.00100293
0.00100105
0.000998946
0.000996618
0.000994075
0.000991325
0.000988374
0.00098523
0.000981898
0.000978385
0.000974698
0.000970843
0.000966828
0.000962659
0.000958343
0.000953887
0.000949297
0.000944581
0.000939745
0.000934796
0.000929741
0.000924587
0.000919341
0.000914009
0.000908598
0.000903115
0.000897566
0.000891958
0.000886297
0.00088059
0.000874843
0.000869061
0.000863251
0.000857418
0.000851569
0.000845708
0.000839841
0.000833972
0.000828108
0.000822251
0.000816407
0.00081058
0.000804774
0.000798993
0.000793239
0.000787517
0.000781828
0.000776177
0.000770564
0.000764993
0.000759464
0.00075398
0.000748542
0.00074315
0.000737805
0.000732508
0.000727258
0.000722056
0.0007169
0.000711791
0.000706726
0.000701705
0.000696727
0.000691788
0.000686888
0.000682023
0.000677192
0.000672392
0.00066762
0.000662874
0.000658151
0.000653446
0.000648756
0.000644076
0.000639402
0.000634729
0.000630053
0.000625371
0.000620678
0.000615969
0.000611242
0.00060649
0.00060171
0.000596898
0.00059205
0.00058716
0.000582225
0.00057724
0.000572202
0.000567106
0.000561948
0.000556725
0.000551431
0.000546062
0.000540616
0.000535086
0.000529468
0.000523757
0.000517947
0.000512031
0.000506002
0.000499857
0.000493593
0.000487205
0.000480688
0.000474038
0.000467247
0.000460309
0.000453213
0.000445951
0.000438511
0.00043088
0.000423043
0.000414982
0.000406677
0.000398104
0.000389236
0.000380041
0.00037048
0.000360505
0.000350062
0.000339079
0.000327473
0.000315133
0.000301921
0.00028766
0.000272116
0.000254982
0.000235845
0.000214151
0.000189149
0.000159812
0.000124843
8.27333e-05
3.40936e-05
1.07127e-06
7.53367e-06
8.63347e-05
0.000180243
0.000259752
0.000325687
0.000381068
0.000428411
0.00046959
0.000505968
0.000538545
0.000568058
0.000595056
0.000619957
0.000643082
0.000664678
0.000684943
0.000704033
0.000722074
0.000739169
0.000755404
0.000770848
0.00078556
0.00079959
0.00081298
0.000825765
0.000837977
0.000849642
0.000860783
0.000871422
0.000881575
0.000891259
0.000900488
0.000909275
0.000917631
0.000925568
0.000933095
0.000940221
0.000946954
0.000953302
0.000959273
0.000964873
0.00097011
0.000974989
0.000979516
0.000983699
0.000987542
0.00099105
0.000994231
0.000997088
0.000999627
0.00100185
0.00100377
0.00100539
0.00100671
0.00100774
0.00100848
0.00100893
0.00100911
0.00100902
0.00100865
0.00100802
0.00100713
0.00100599
0.00100459
0.00100294
0.00100106
0.000998956
0.000996628
0.000994085
0.000991335
0.000988384
0.000985239
0.000981907
0.000978393
0.000974706
0.000970852
0.000966837
0.000962667
0.000958351
0.000953895
0.000949305
0.000944588
0.000939752
0.000934803
0.000929748
0.000924594
0.000919347
0.000914015
0.000908604
0.000903121
0.000897572
0.000891964
0.000886303
0.000880595
0.000874848
0.000869066
0.000863256
0.000857423
0.000851574
0.000845712
0.000839845
0.000833976
0.000828112
0.000822255
0.000816411
0.000810584
0.000804778
0.000798996
0.000793242
0.00078752
0.000781831
0.000776179
0.000770567
0.000764995
0.000759466
0.000753982
0.000748544
0.000743152
0.000737807
0.000732509
0.00072726
0.000722057
0.000716901
0.000711792
0.000706727
0.000701706
0.000696727
0.000691789
0.000686888
0.000682023
0.000677192
0.000672392
0.000667621
0.000662874
0.00065815
0.000653446
0.000648756
0.000644076
0.000639401
0.000634728
0.000630053
0.00062537
0.000620677
0.000615968
0.00061124
0.000606489
0.000601709
0.000596897
0.000592048
0.000587158
0.000582223
0.000577239
0.000572201
0.000567105
0.000561947
0.000556723
0.000551429
0.00054606
0.000540614
0.000535084
0.000529466
0.000523755
0.000517945
0.000512029
0.000506
0.000499855
0.00049359
0.000487202
0.000480686
0.000474036
0.000467245
0.000460307
0.000453211
0.00044595
0.00043851
0.000430878
0.000423041
0.00041498
0.000406675
0.000398102
0.000389235
0.00038004
0.000370478
0.000360504
0.00035006
0.000339078
0.000327471
0.000315132
0.00030192
0.000287659
0.000272116
0.000254981
0.000235844
0.000214151
0.000189149
0.000159812
0.000124843
8.27334e-05
3.40935e-05
1.07127e-06
9.34354e-06
9.74571e-05
0.000205089
0.000299536
0.000379925
0.000448676
0.000508158
0.000560282
0.000606526
0.000648015
0.000685613
0.000719981
0.000751633
0.000780971
0.00080831
0.000833906
0.000857961
0.000880641
0.000902082
0.000922397
0.000941679
0.000960007
0.000977448
0.000994058
0.00100988
0.00102497
0.00103935
0.00105306
0.00106613
0.00107857
0.00109042
0.00110169
0.0011124
0.00112256
0.0011322
0.00114132
0.00114994
0.00115806
0.00116571
0.00117289
0.00117961
0.00118588
0.00119171
0.0011971
0.00120208
0.00120664
0.00121079
0.00121454
0.0012179
0.00122088
0.00122348
0.00122571
0.00122758
0.00122909
0.00123025
0.00123108
0.00123156
0.00123171
0.00123155
0.00123106
0.00123026
0.00122916
0.00122775
0.00122606
0.00122408
0.00122182
0.00121929
0.00121651
0.00121348
0.0012102
0.00120669
0.00120295
0.001199
0.00119483
0.00119046
0.0011859
0.00118114
0.00117621
0.00117111
0.00116584
0.00116042
0.00115485
0.00114914
0.0011433
0.00113733
0.00113125
0.00112506
0.00111877
0.00111238
0.00110591
0.00109937
0.00109275
0.00108607
0.00107933
0.00107255
0.00106572
0.00105886
0.00105197
0.00104506
0.00103813
0.0010312
0.00102426
0.00101732
0.00101039
0.00100347
0.000996566
0.000989685
0.000982829
0.000976003
0.00096921
0.000962453
0.000955735
0.00094906
0.000942428
0.000935842
0.000929304
0.000922815
0.000916376
0.000909988
0.00090365
0.000897362
0.000891125
0.000884938
0.000878798
0.000872706
0.000866659
0.000860655
0.000854693
0.000848768
0.00084288
0.000837025
0.000831199
0.000825399
0.000819623
0.000813866
0.000808124
0.000802391
0.000796662
0.000790934
0.0007852
0.000779455
0.000773696
0.000767917
0.000762113
0.000756279
0.00075041
0.000744501
0.000738547
0.000732543
0.000726484
0.000720365
0.000714181
0.000707928
0.000701599
0.000695192
0.0006887
0.000682119
0.000675445
0.000668671
0.000661793
0.000654805
0.000647701
0.000640473
0.000633116
0.000625621
0.000617984
0.000610198
0.000602257
0.000594155
0.000585883
0.000577432
0.000568793
0.000559952
0.000550896
0.000541609
0.000532074
0.000522269
0.000512171
0.000501752
0.00049098
0.000479817
0.00046822
0.000456135
0.000443501
0.000430242
0.000416266
0.000401461
0.000385685
0.000368763
0.00035047
0.00033052
0.000308544
0.000284062
0.00025645
0.000224893
0.000188346
0.000145535
9.52703e-05
3.90835e-05
1.35146e-06
9.3437e-06
9.74607e-05
0.000205098
0.000299549
0.00037994
0.000448693
0.000508176
0.000560302
0.000606546
0.000648036
0.000685634
0.000720002
0.000751654
0.000780991
0.000808331
0.000833926
0.000857981
0.000880661
0.000902102
0.000922417
0.000941699
0.000960027
0.000977467
0.000994077
0.0010099
0.00102499
0.00103937
0.00105308
0.00106615
0.00107859
0.00109044
0.00110171
0.00111242
0.00112258
0.00113222
0.00114134
0.00114995
0.00115808
0.00116573
0.00117291
0.00117962
0.00118589
0.00119172
0.00119712
0.00120209
0.00120665
0.00121081
0.00121456
0.00121792
0.0012209
0.0012235
0.00122573
0.00122759
0.00122911
0.00123027
0.00123109
0.00123157
0.00123173
0.00123156
0.00123107
0.00123027
0.00122917
0.00122777
0.00122607
0.00122409
0.00122183
0.0012193
0.00121652
0.00121349
0.00121021
0.0012067
0.00120296
0.00119901
0.00119484
0.00119047
0.0011859
0.00118115
0.00117622
0.00117112
0.00116585
0.00116043
0.00115486
0.00114915
0.00114331
0.00113734
0.00113126
0.00112507
0.00111877
0.00111239
0.00110592
0.00109937
0.00109276
0.00108608
0.00107934
0.00107255
0.00106573
0.00105887
0.00105198
0.00104507
0.00103814
0.0010312
0.00102426
0.00101732
0.00101039
0.00100347
0.00099657
0.000989689
0.000982833
0.000976007
0.000969213
0.000962456
0.000955739
0.000949063
0.000942431
0.000935845
0.000929307
0.000922818
0.000916379
0.00090999
0.000903652
0.000897364
0.000891127
0.000884939
0.0008788
0.000872707
0.00086666
0.000860656
0.000854694
0.000848769
0.000842881
0.000837025
0.000831199
0.0008254
0.000819623
0.000813866
0.000808124
0.000802391
0.000796662
0.000790933
0.000785199
0.000779455
0.000773696
0.000767916
0.000762112
0.000756278
0.000750409
0.0007445
0.000738546
0.000732542
0.000726483
0.000720364
0.00071418
0.000707926
0.000701598
0.00069519
0.000688698
0.000682117
0.000675443
0.000668669
0.000661791
0.000654803
0.000647699
0.000640471
0.000633114
0.000625619
0.000617982
0.000610196
0.000602255
0.000594153
0.000585881
0.00057743
0.000568791
0.00055995
0.000550894
0.000541607
0.000532072
0.000522267
0.000512169
0.00050175
0.000490978
0.000479816
0.000468218
0.000456134
0.0004435
0.000430241
0.000416265
0.00040146
0.000385684
0.000368762
0.000350469
0.00033052
0.000308544
0.000284062
0.00025645
0.000224894
0.000188347
0.000145535
9.52704e-05
3.90833e-05
1.35146e-06
1.11447e-05
0.000107245
0.000226412
0.000333648
0.000426734
0.000507503
0.000578109
0.000640425
0.000695969
0.000745945
0.0007913
0.00083278
0.000870975
0.000906353
0.000939291
0.000970091
0.000999
0.00102622
0.00105192
0.00107623
0.00109927
0.00112114
0.00114192
0.00116169
0.0011805
0.0011984
0.00121545
0.00123167
0.00124711
0.0012618
0.00127577
0.00128903
0.00130162
0.00131355
0.00132485
0.00133553
0.0013456
0.00135508
0.00136399
0.00137235
0.00138015
0.00138742
0.00139417
0.0014004
0.00140614
0.00141138
0.00141615
0.00142044
0.00142428
0.00142767
0.00143061
0.00143313
0.00143522
0.0014369
0.00143818
0.00143906
0.00143955
0.00143966
0.0014394
0.00143877
0.00143779
0.00143646
0.00143479
0.00143278
0.00143045
0.00142781
0.00142486
0.00142162
0.0014181
0.0014143
0.00141024
0.00140591
0.00140134
0.00139653
0.0013915
0.00138624
0.00138077
0.00137509
0.00136923
0.00136317
0.00135695
0.00135055
0.001344
0.0013373
0.00133046
0.00132348
0.00131639
0.00130918