/*--------------------------------*- C++ -*----------------------------------*\
  =========                 |
  \\      /  F ield         | OpenFOAM: The Open Source CFD Toolbox
   \\    /   O peration     | Website:  https://openfoam.org
    \\  /    A nd           | Version:  8
     \\/     M anipulation  |
\*---------------------------------------------------------------------------*/
FoamFile
{
    version     2.0;
    format      ascii;
    class       surfaceScalarField;
    location    "2800";
    object      phi;
}
// * * * * * * * * * * * * * * * * * * * * * * * * * * * * * * * * * * * * * //

dimensions      [1 0 -1 0 0 0 0];

internalField   nonuniform List<scalar> 
114370
(
3.6649e-10
5.62861e-14
-3.66545e-10
9.24472e-10
2.11067e-14
-5.59101e-10
1.40239e-09
1.14785e-14
-4.78599e-10
1.68464e-09
8.85642e-15
-2.82763e-10
1.76678e-09
8.407e-15
-8.2593e-11
1.67525e-09
8.32856e-15
9.11114e-11
1.44256e-09
8.32474e-15
2.32313e-10
1.09849e-09
8.51164e-15
3.43696e-10
6.67327e-10
8.66871e-15
4.30821e-10
1.68266e-10
8.6374e-15
4.9873e-10
-3.8336e-10
8.44544e-15
5.5131e-10
-9.75443e-10
8.16049e-15
5.91782e-10
-1.5988e-09
7.84305e-15
6.23068e-10
-2.24637e-09
7.49462e-15
6.47298e-10
-2.9126e-09
7.12844e-15
6.65981e-10
-3.59311e-09
6.75858e-15
6.80265e-10
-4.28437e-09
6.38787e-15
6.91018e-10
-4.98348e-09
6.01393e-15
6.98898e-10
-5.6881e-09
5.64931e-15
7.04403e-10
-6.39621e-09
5.31658e-15
7.0791e-10
-7.1061e-09
5.0346e-15
7.09702e-10
-7.81626e-09
4.81009e-15
7.0999e-10
-8.52536e-09
4.6334e-15
7.08929e-10
-9.23215e-09
4.48924e-15
7.06632e-10
-9.93549e-09
4.35907e-15
7.0318e-10
-1.06343e-08
4.2302e-15
6.98629e-10
-1.13274e-08
4.09235e-15
6.93017e-10
-1.20139e-08
3.94397e-15
6.86367e-10
-1.26927e-08
3.78574e-15
6.78697e-10
-1.33629e-08
3.62177e-15
6.70016e-10
-1.40233e-08
3.45552e-15
6.60329e-10
-1.46731e-08
3.29046e-15
6.49642e-10
-1.53111e-08
3.12975e-15
6.37961e-10
-1.59365e-08
2.97294e-15
6.25293e-10
-1.65483e-08
2.82003e-15
6.11647e-10
-1.71454e-08
2.67201e-15
5.97037e-10
-1.7727e-08
2.52887e-15
5.81481e-10
-1.82921e-08
2.39029e-15
5.64998e-10
-1.88398e-08
2.25734e-15
5.47616e-10
-1.93692e-08
2.12906e-15
5.29365e-10
-1.98796e-08
2.00544e-15
5.1028e-10
-2.037e-08
1.8854e-15
4.904e-10
-2.08399e-08
1.76916e-15
4.69769e-10
-2.12884e-08
1.65476e-15
4.48433e-10
-2.17149e-08
1.54296e-15
4.26443e-10
-2.21188e-08
1.43507e-15
4.03853e-10
-2.24996e-08
1.33152e-15
3.80719e-10
-2.28567e-08
1.23415e-15
3.57099e-10
-2.31899e-08
1.14285e-15
3.33054e-10
-2.34986e-08
1.05795e-15
3.08645e-10
-2.37825e-08
9.80745e-16
2.83934e-10
-2.40416e-08
9.10807e-16
2.58985e-10
-2.42755e-08
8.47266e-16
2.33861e-10
-2.44842e-08
7.90556e-16
2.08624e-10
-2.46676e-08
7.40135e-16
1.83337e-10
-2.48257e-08
6.96112e-16
1.58061e-10
-2.49586e-08
6.57293e-16
1.32856e-10
-2.50664e-08
6.23028e-16
1.07782e-10
-2.51494e-08
5.93751e-16
8.28976e-11
-2.52077e-08
5.67726e-16
5.8257e-11
-2.52416e-08
5.45822e-16
3.39117e-11
-2.52516e-08
5.26846e-16
9.90966e-12
-2.5238e-08
5.12859e-16
-1.3706e-11
-2.52011e-08
5.02882e-16
-3.69003e-11
-2.51415e-08
4.95073e-16
-5.96399e-11
-2.50597e-08
4.8965e-16
-8.18892e-11
-2.49561e-08
4.86504e-16
-1.0361e-10
-2.48314e-08
4.86176e-16
-1.24767e-10
-2.46862e-08
4.88235e-16
-1.45328e-10
-2.4521e-08
4.92461e-16
-1.65265e-10
-2.43365e-08
4.98965e-16
-1.84553e-10
-2.41334e-08
5.05903e-16
-2.03171e-10
-2.39123e-08
5.14466e-16
-2.21101e-10
-2.36741e-08
5.24548e-16
-2.38327e-10
-2.34193e-08
5.36581e-16
-2.54837e-10
-2.31487e-08
5.49699e-16
-2.7062e-10
-2.28631e-08
5.6466e-16
-2.85669e-10
-2.25632e-08
5.81681e-16
-2.99979e-10
-2.22498e-08
6.00978e-16
-3.13544e-10
-2.19235e-08
6.21794e-16
-3.26366e-10
-2.15851e-08
6.45537e-16
-3.38443e-10
-2.12354e-08
6.70473e-16
-3.49779e-10
-2.08751e-08
6.97252e-16
-3.60378e-10
-2.05049e-08
7.24573e-16
-3.70245e-10
-2.01256e-08
7.53304e-16
-3.7939e-10
-1.97379e-08
7.8301e-16
-3.87819e-10
-1.93425e-08
8.11958e-16
-3.95545e-10
-1.894e-08
8.40905e-16
-4.02577e-10
-1.85311e-08
8.69528e-16
-4.0893e-10
-1.81166e-08
8.97066e-16
-4.14617e-10
-1.76971e-08
9.23845e-16
-4.19653e-10
-1.72731e-08
9.49866e-16
-4.24053e-10
-1.68454e-08
9.74694e-16
-4.27835e-10
-1.64145e-08
9.99088e-16
-4.31015e-10
-1.59809e-08
1.02294e-15
-4.33613e-10
-1.55454e-08
1.04614e-15
-4.35646e-10
-1.51084e-08
1.06891e-15
-4.37134e-10
-1.46704e-08
1.09049e-15
-4.38096e-10
-1.4232e-08
1.11206e-15
-4.38553e-10
-1.37936e-08
1.13321e-15
-4.38526e-10
-1.33556e-08
1.15446e-15
-4.38035e-10
-1.29187e-08
1.17441e-15
-4.37102e-10
-1.2483e-08
1.1936e-15
-4.35747e-10
-1.20492e-08
1.21203e-15
-4.33992e-10
-1.16174e-08
1.22938e-15
-4.31858e-10
-1.11882e-08
1.2451e-15
-4.29368e-10
-1.07618e-08
1.26093e-15
-4.26541e-10
-1.03385e-08
1.27525e-15
-4.234e-10
-9.91868e-09
1.28761e-15
-4.19966e-10
-9.50256e-09
1.29997e-15
-4.16259e-10
-9.0904e-09
1.31103e-15
-4.12299e-10
-8.68243e-09
1.32014e-15
-4.08108e-10
-8.27887e-09
1.33012e-15
-4.03704e-10
-7.8799e-09
1.33771e-15
-3.99106e-10
-7.48572e-09
1.34487e-15
-3.94334e-10
-7.09646e-09
1.3529e-15
-3.89404e-10
-6.71227e-09
1.3594e-15
-3.84335e-10
-6.33328e-09
1.36613e-15
-3.79142e-10
-5.95959e-09
1.37155e-15
-3.73841e-10
-5.5913e-09
1.37741e-15
-3.68446e-10
-5.22849e-09
1.38305e-15
-3.62971e-10
-4.87121e-09
1.3887e-15
-3.57429e-10
-4.51954e-09
1.39347e-15
-3.51829e-10
-4.17352e-09
1.39781e-15
-3.46184e-10
-3.83318e-09
1.4028e-15
-3.405e-10
-3.49856e-09
1.40845e-15
-3.34785e-10
-3.16968e-09
1.41474e-15
-3.29044e-10
-2.84657e-09
1.42298e-15
-3.23283e-10
-2.52923e-09
1.42949e-15
-3.17503e-10
-2.21769e-09
1.43557e-15
-3.11706e-10
-1.91197e-09
1.44251e-15
-3.05891e-10
-1.61209e-09
1.45358e-15
-3.00056e-10
-1.31807e-09
1.46529e-15
-2.94197e-10
-1.02993e-09
1.47614e-15
-2.88312e-10
-7.47714e-10
1.48439e-15
-2.82397e-10
-4.71432e-10
1.49567e-15
-2.7646e-10
-2.01066e-10
1.50998e-15
-2.70547e-10
6.33323e-11
1.51497e-15
-2.64581e-10
3.2155e-10
1.50999e-15
-2.58401e-10
5.73401e-10
1.51347e-15
-2.52035e-10
8.1875e-10
1.53061e-15
-2.45533e-10
1.05744e-09
1.55316e-15
-2.38875e-10
1.28929e-09
1.57746e-15
-2.32038e-10
1.5141e-09
1.60478e-15
-2.24998e-10
1.73164e-09
1.63688e-15
-2.17727e-10
1.94165e-09
1.67353e-15
-2.10196e-10
2.14384e-09
1.71365e-15
-2.02376e-10
2.33789e-09
1.75615e-15
-1.94237e-10
2.52345e-09
1.80148e-15
-1.8575e-10
2.70014e-09
1.85222e-15
-1.76886e-10
2.86756e-09
1.90643e-15
-1.67615e-10
3.02528e-09
1.96692e-15
-1.5791e-10
3.17282e-09
2.03262e-15
-1.47745e-10
3.30972e-09
2.10049e-15
-1.37095e-10
3.43546e-09
2.17313e-15
-1.25939e-10
3.54951e-09
2.2488e-15
-1.14256e-10
3.65134e-09
2.3288e-15
-1.02032e-10
3.74039e-09
2.41401e-15
-8.92543e-11
3.8161e-09
2.50355e-15
-7.59176e-11
3.87791e-09
2.5996e-15
-6.20209e-11
3.92527e-09
2.69803e-15
-4.75707e-11
3.95763e-09
2.80144e-15
-3.25825e-11
3.97449e-09
2.91049e-15
-1.70821e-11
3.97538e-09
3.01325e-15
-1.11054e-12
3.95982e-09
3.13525e-15
1.53341e-11
3.92735e-09
3.27854e-15
3.22425e-11
3.87756e-09
3.41902e-15
4.95474e-11
3.81014e-09
3.56817e-15
6.71858e-11
3.72481e-09
3.72425e-15
8.50829e-11
3.62141e-09
3.88944e-15
1.03153e-10
3.49986e-09
4.06286e-15
1.21298e-10
3.36019e-09
4.24495e-15
1.39406e-10
3.20257e-09
4.43397e-15
1.57354e-10
3.0273e-09
4.6295e-15
1.75e-10
2.83484e-09
4.83066e-15
1.92186e-10
2.62581e-09
5.03832e-15
2.08737e-10
2.40106e-09
5.24684e-15
2.24457e-10
2.16164e-09
5.45839e-15
2.39127e-10
1.90882e-09
5.68035e-15
2.52503e-10
1.64419e-09
5.91401e-15
2.64311e-10
1.36962e-09
6.16675e-15
2.74245e-10
1.08733e-09
6.44464e-15
2.81957e-10
7.99929e-10
6.74769e-15
2.87052e-10
5.10492e-10
7.07676e-15
2.89079e-10
2.22609e-10
7.41667e-15
2.87514e-10
-5.9492e-11
7.72709e-15
2.8172e-10
-3.30693e-10
7.95471e-15
2.70807e-10
-5.85057e-10
8.14983e-15
2.5396e-10
-8.1585e-10
8.38314e-15
2.30379e-10
-1.01526e-09
8.64726e-15
1.98982e-10
-1.17413e-09
8.95609e-15
1.58437e-10
-1.28193e-09
9.29184e-15
1.07353e-10
-1.32698e-09
9.63459e-15
4.45828e-11
-1.29719e-09
9.94944e-15
-3.0269e-11
-1.18214e-09
1.02655e-14
-1.15554e-10
-9.7683e-10
1.06371e-14
-2.05836e-10
-6.90389e-10
1.10201e-14
-2.87001e-10
-3.65e-10
1.12628e-14
-3.25994e-10
-9.84094e-11
1.17923e-14
-2.67266e-10
5.06044e-15
-9.91563e-11
3.66277e-10
-3.66705e-10
9.24378e-10
-5.59226e-10
1.40235e-09
-4.78674e-10
1.68461e-09
-2.82823e-10
1.76675e-09
-8.26468e-11
1.67523e-09
9.10612e-11
1.44253e-09
2.32265e-10
1.09847e-09
3.43651e-10
6.67307e-10
4.30777e-10
1.68249e-10
4.98687e-10
-3.83373e-10
5.51268e-10
-9.75452e-10
5.91742e-10
-1.5988e-09
6.2303e-10
-2.24637e-09
6.47261e-10
-2.9126e-09
6.65946e-10
-3.59311e-09
6.80232e-10
-4.28435e-09
6.90987e-10
-4.98347e-09
6.98868e-10
-5.68808e-09
7.04375e-10
-6.39618e-09
7.07883e-10
-7.10607e-09
7.09677e-10
-7.81624e-09
7.09966e-10
-8.52533e-09
7.08906e-10
-9.23212e-09
7.06611e-10
-9.93545e-09
7.0316e-10
-1.06342e-08
6.9861e-10
-1.13274e-08
6.92998e-10
-1.20139e-08
6.8635e-10
-1.26927e-08
6.78681e-10
-1.33628e-08
6.7e-10
-1.40233e-08
6.60314e-10
-1.4673e-08
6.49628e-10
-1.53111e-08
6.37948e-10
-1.59365e-08
6.2528e-10
-1.65482e-08
6.11635e-10
-1.71453e-08
5.97025e-10
-1.77269e-08
5.81469e-10
-1.8292e-08
5.64987e-10
-1.88397e-08
5.47605e-10
-1.93691e-08
5.29355e-10
-1.98795e-08
5.1027e-10
-2.037e-08
4.9039e-10
-2.08398e-08
4.69759e-10
-2.12883e-08
4.48423e-10
-2.17148e-08
4.26434e-10
-2.21187e-08
4.03844e-10
-2.24995e-08
3.8071e-10
-2.28567e-08
3.5709e-10
-2.31898e-08
3.33045e-10
-2.34985e-08
3.08636e-10
-2.37825e-08
2.83926e-10
-2.40415e-08
2.58977e-10
-2.42754e-08
2.33853e-10
-2.44841e-08
2.08616e-10
-2.46675e-08
1.83328e-10
-2.48256e-08
1.58052e-10
-2.49585e-08
1.32847e-10
-2.50663e-08
1.07774e-10
-2.51493e-08
8.28889e-11
-2.52076e-08
5.82482e-11
-2.52416e-08
3.39028e-11
-2.52515e-08
9.90057e-12
-2.52379e-08
-1.37152e-11
-2.5201e-08
-3.69097e-11
-2.51414e-08
-5.96495e-11
-2.50596e-08
-8.18989e-11
-2.49561e-08
-1.0362e-10
-2.48314e-08
-1.24778e-10
-2.46861e-08
-1.45339e-10
-2.45209e-08
-1.65275e-10
-2.43364e-08
-1.84564e-10
-2.41333e-08
-2.03182e-10
-2.39122e-08
-2.21112e-10
-2.3674e-08
-2.38338e-10
-2.34192e-08
-2.54849e-10
-2.31487e-08
-2.70632e-10
-2.28631e-08
-2.85681e-10
-2.25632e-08
-2.99991e-10
-2.22497e-08
-3.13557e-10
-2.19234e-08
-3.26378e-10
-2.1585e-08
-3.38456e-10
-2.12353e-08
-3.49792e-10
-2.0875e-08
-3.60391e-10
-2.05049e-08
-3.70259e-10
-2.01256e-08
-3.79403e-10
-1.97378e-08
-3.87833e-10
-1.93424e-08
-3.95559e-10
-1.89399e-08
-4.02592e-10
-1.85311e-08
-4.08945e-10
-1.81166e-08
-4.14632e-10
-1.7697e-08
-4.19668e-10
-1.7273e-08
-4.24069e-10
-1.68453e-08
-4.27851e-10
-1.64144e-08
-4.31032e-10
-1.59809e-08
-4.33629e-10
-1.55454e-08
-4.35662e-10
-1.51083e-08
-4.3715e-10
-1.46703e-08
-4.38113e-10
-1.42319e-08
-4.38571e-10
-1.37935e-08
-4.38544e-10
-1.33556e-08
-4.38053e-10
-1.29186e-08
-4.3712e-10
-1.2483e-08
-4.35765e-10
-1.20491e-08
-4.3401e-10
-1.16174e-08
-4.31877e-10
-1.11881e-08
-4.29387e-10
-1.07617e-08
-4.26561e-10
-1.03385e-08
-4.2342e-10
-9.91863e-09
-4.19986e-10
-9.50251e-09
-4.16279e-10
-9.09035e-09
-4.1232e-10
-8.68238e-09
-4.08129e-10
-8.27882e-09
-4.03725e-10
-7.87986e-09
-3.99128e-10
-7.48567e-09
-3.94356e-10
-7.09641e-09
-3.89426e-10
-6.71223e-09
-3.84357e-10
-6.33324e-09
-3.79165e-10
-5.95955e-09
-3.73864e-10
-5.59126e-09
-3.68469e-10
-5.22844e-09
-3.62995e-10
-4.87117e-09
-3.57452e-10
-4.5195e-09
-3.51853e-10
-4.17348e-09
-3.46208e-10
-3.83314e-09
-3.40524e-10
-3.49852e-09
-3.34809e-10
-3.16964e-09
-3.29069e-10
-2.84653e-09
-3.23309e-10
-2.52919e-09
-3.17529e-10
-2.21765e-09
-3.11732e-10
-1.91193e-09
-3.05917e-10
-1.61205e-09
-3.00082e-10
-1.31803e-09
-2.94224e-10
-1.02989e-09
-2.88339e-10
-7.47674e-10
-2.82425e-10
-4.71393e-10
-2.76488e-10
-2.01028e-10
-2.70575e-10
6.33708e-11
-2.64609e-10
3.21588e-10
-2.58429e-10
5.73439e-10
-2.52064e-10
8.18788e-10
-2.45562e-10
1.05748e-09
-2.38904e-10
1.28933e-09
-2.32068e-10
1.51414e-09
-2.25028e-10
1.73168e-09
-2.17757e-10
1.94169e-09
-2.10226e-10
2.14388e-09
-2.02406e-10
2.33792e-09
-1.94267e-10
2.52348e-09
-1.85781e-10
2.70018e-09
-1.76917e-10
2.8676e-09
-1.67646e-10
3.02531e-09
-1.57942e-10
3.17286e-09
-1.47777e-10
3.30976e-09
-1.37128e-10
3.4355e-09
-1.25971e-10
3.54955e-09
-1.14289e-10
3.65138e-09
-1.02065e-10
3.74043e-09
-8.9288e-11
3.81614e-09
-7.59517e-11
3.87795e-09
-6.20553e-11
3.9253e-09
-4.76055e-11
3.95767e-09
-3.26178e-11
3.97453e-09
-1.71178e-11
3.97542e-09
-1.14666e-12
3.95985e-09
1.52975e-11
3.92738e-09
3.22053e-11
3.8776e-09
4.95097e-11
3.81017e-09
6.71475e-11
3.72485e-09
8.5044e-11
3.62144e-09
1.03113e-10
3.49989e-09
1.21257e-10
3.36022e-09
1.39366e-10
3.2026e-09
1.57312e-10
3.02733e-09
1.74957e-10
2.83487e-09
1.92143e-10
2.62584e-09
2.08693e-10
2.40109e-09
2.24412e-10
2.16166e-09
2.39081e-10
1.90885e-09
2.52456e-10
1.64422e-09
2.64263e-10
1.36964e-09
2.74196e-10
1.08735e-09
2.81906e-10
7.99947e-10
2.87001e-10
5.10508e-10
2.89026e-10
2.22623e-10
2.87459e-10
-5.948e-11
2.81664e-10
-3.30682e-10
2.7075e-10
-5.85048e-10
2.53902e-10
-8.15842e-10
2.30319e-10
-1.01525e-09
1.9892e-10
-1.17412e-09
1.58372e-10
-1.28193e-09
1.07286e-10
-1.32698e-09
4.4513e-11
-1.29719e-09
-3.03421e-11
-1.18214e-09
-1.15631e-10
-9.76839e-10
-2.05918e-10
-6.90406e-10
-2.87088e-10
-3.65035e-10
-3.26087e-10
-9.84725e-11
-2.6737e-10
-9.92586e-11
5.59994e-10
2.95106e-14
-9.27673e-10
9.22424e-10
1.72962e-15
-9.22767e-10
1.08378e-09
-9.93564e-18
-6.40572e-10
1.09371e-09
-9.70733e-16
-2.93191e-10
9.73148e-10
-1.23311e-15
3.75299e-11
7.3981e-10
-1.28025e-15
3.24046e-10
4.10631e-10
-1.24189e-15
5.61115e-10
1.22569e-12
-1.16396e-15
7.52746e-10
-4.74097e-10
-1.12508e-15
9.05806e-10
-1.00289e-09
-1.14446e-15
1.0272e-09
-1.57496e-09
-1.16538e-15
1.12307e-09
-2.18188e-09
-1.15675e-15
1.19842e-09
-2.81665e-09
-1.13385e-15
1.25756e-09
-3.47348e-09
-1.11457e-15
1.30386e-09
-4.14763e-09
-1.1006e-15
1.33988e-09
-4.83522e-09
-1.08944e-15
1.36761e-09
-5.53302e-09
-1.07746e-15
1.3886e-09
-6.23835e-09
-1.06293e-15
1.40401e-09
-6.94893e-09
-1.03966e-15
1.41478e-09
-7.66281e-09
-1.00328e-15
1.4216e-09
-8.3783e-09
-9.51823e-16
1.425e-09
-9.09388e-09
-8.88491e-16
1.4254e-09
-9.8082e-09
-8.18489e-16
1.42309e-09
-1.052e-08
-7.47834e-16
1.41829e-09
-1.12282e-08
-6.8146e-16
1.41117e-09
-1.19315e-08
-6.2148e-16
1.40185e-09
-1.2629e-08
-5.69251e-16
1.3904e-09
-1.33197e-08
-5.24285e-16
1.37687e-09
-1.40024e-08
-4.84846e-16
1.36131e-09
-1.46763e-08
-4.49092e-16
1.34374e-09
-1.53402e-08
-4.16156e-16
1.32417e-09
-1.59933e-08
-3.84952e-16
1.30262e-09
-1.66346e-08
-3.55347e-16
1.27909e-09
-1.7263e-08
-3.278e-16
1.25362e-09
-1.78776e-08
-3.0234e-16
1.22621e-09
-1.84776e-08
-2.78802e-16
1.19689e-09
-1.90619e-08
-2.57242e-16
1.16571e-09
-1.96297e-08
-2.37172e-16
1.13269e-09
-2.01801e-08
-2.18483e-16
1.0979e-09
-2.07122e-08
-2.00634e-16
1.06139e-09
-2.12252e-08
-1.83949e-16
1.02322e-09
-2.17183e-08
-1.67967e-16
9.83485e-10
-2.21909e-08
-1.52745e-16
9.42257e-10
-2.26422e-08
-1.38578e-16
8.9963e-10
-2.30715e-08
-1.25278e-16
8.55703e-10
-2.34783e-08
-1.12438e-16
8.10579e-10
-2.3862e-08
-9.98957e-17
7.64369e-10
-2.42222e-08
-8.77322e-17
7.17186e-10
-2.45583e-08
-7.59748e-17
6.69147e-10
-2.48701e-08
-6.43524e-17
6.20374e-10
-2.51572e-08
-5.3109e-17
5.70988e-10
-2.54194e-08
-4.25157e-17
5.21113e-10
-2.56565e-08
-3.24912e-17
4.70871e-10
-2.58683e-08
-2.32524e-17
4.20387e-10
-2.60548e-08
-1.48806e-17
3.69782e-10
-2.6216e-08
-7.32172e-18
3.19175e-10
-2.63518e-08
-7.11222e-19
2.68686e-10
-2.64625e-08
4.81531e-18
2.18429e-10
-2.65482e-08
9.52891e-18
1.68515e-10
-2.66091e-08
1.30501e-17
1.19052e-10
-2.66454e-08
1.58938e-17
7.01397e-11
-2.66574e-08
1.81684e-17
2.18749e-11
-2.66455e-08
1.92231e-17
-2.56552e-11
-2.66101e-08
1.92211e-17
-7.23716e-11
-2.65516e-08
1.90837e-17
-1.18197e-10
-2.64705e-08
1.84855e-17
-1.63057e-10
-2.63673e-08
1.72911e-17
-2.06881e-10
-2.62425e-08
1.57173e-17
-2.49602e-10
-2.60967e-08
1.37911e-17
-2.91159e-10
-2.59306e-08
1.14042e-17
-3.31499e-10
-2.57446e-08
8.69196e-18
-3.70574e-10
-2.55395e-08
5.38345e-18
-4.08342e-10
-2.53159e-08
1.9394e-18
-4.44765e-10
-2.50745e-08
-1.64018e-18
-4.79814e-10
-2.4816e-08
-5.49084e-18
-5.13462e-10
-2.4541e-08
-9.47705e-18
-5.45688e-10
-2.42502e-08
-1.32736e-17
-5.76476e-10
-2.39445e-08
-1.70701e-17
-6.05814e-10
-2.36244e-08
-2.08125e-17
-6.33694e-10
-2.32908e-08
-2.47717e-17
-6.60113e-10
-2.29442e-08
-2.85141e-17
-6.85072e-10
-2.25855e-08
-3.24463e-17
-7.08574e-10
-2.22153e-08
-3.63786e-17
-7.30628e-10
-2.18344e-08
-4.06903e-17
-7.51243e-10
-2.14435e-08
-4.50563e-17
-7.70434e-10
-2.10432e-08
-4.97747e-17
-7.88217e-10
-2.06342e-08
-5.46015e-17
-8.04611e-10
-2.02173e-08
-5.98621e-17
-8.19639e-10
-1.9793e-08
-6.51226e-17
-8.33323e-10
-1.9362e-08
-7.04374e-17
-8.45691e-10
-1.8925e-08
-7.58064e-17
-8.5677e-10
-1.84825e-08
-8.12567e-17
-8.66589e-10
-1.80353e-08
-8.65715e-17
-8.75181e-10
-1.75839e-08
-9.17236e-17
-8.82578e-10
-1.71288e-08
-9.67131e-17
-8.88814e-10
-1.66706e-08
-1.0154e-16
-8.93924e-10
-1.62099e-08
-1.06096e-16
-8.97946e-10
-1.57472e-08
-1.10489e-16
-9.00915e-10
-1.5283e-08
-1.14828e-16
-9.02872e-10
-1.48178e-08
-1.1895e-16
-9.03853e-10
-1.43521e-08
-1.22692e-16
-9.03899e-10
-1.38863e-08
-1.26488e-16
-9.0305e-10
-1.34208e-08
-1.30447e-16
-9.01345e-10
-1.29561e-08
-1.34461e-16
-8.98825e-10
-1.24925e-08
-1.38311e-16
-8.95531e-10
-1.20305e-08
-1.42107e-16
-8.91503e-10
-1.15704e-08
-1.4574e-16
-8.86782e-10
-1.11126e-08
-1.49536e-16
-8.81408e-10
-1.06572e-08
-1.53277e-16
-8.75421e-10
-1.02048e-08
-1.56856e-16
-8.68859e-10
-9.75547e-09
-1.60163e-16
-8.61763e-10
-9.30955e-09
-1.63579e-16
-8.54171e-10
-8.86728e-09
-1.66723e-16
-8.46119e-10
-8.42889e-09
-1.69542e-16
-8.37645e-10
-7.99459e-09
-1.72198e-16
-8.28783e-10
-7.56458e-09
-1.74475e-16
-8.19569e-10
-7.13903e-09
-1.76426e-16
-8.10034e-10
-6.71812e-09
-1.78051e-16
-8.00211e-10
-6.30199e-09
-1.79513e-16
-7.90129e-10
-5.89078e-09
-1.80976e-16
-7.79817e-10
-5.48461e-09
-1.82004e-16
-7.693e-10
-5.0836e-09
-1.82923e-16
-7.58603e-10
-4.68784e-09
-1.83572e-16
-7.47747e-10
-4.29744e-09
-1.84274e-16
-7.36751e-10
-3.91247e-09
-1.84651e-16
-7.25634e-10
-3.53301e-09
-1.84485e-16
-7.14408e-10
-3.15914e-09
-1.84048e-16
-7.03085e-10
-2.79092e-09
-1.8399e-16
-6.91675e-10
-2.42841e-09
-1.84366e-16
-6.80181e-10
-2.07168e-09
-1.84741e-16
-6.68608e-10
-1.7208e-09
-1.84683e-16
-6.56954e-10
-1.37581e-09
-1.83865e-16
-6.45217e-10
-1.03679e-09
-1.83752e-16
-6.33392e-10
-7.03808e-10
-1.84506e-16
-6.21476e-10
-3.76919e-10
-1.8564e-16
-6.09466e-10
-5.61813e-11
-1.85906e-16
-5.9738e-10
2.58224e-10
-1.86931e-16
-5.85135e-10
5.66079e-10
-1.90014e-16
-5.7262e-10
8.67273e-10
-1.912e-16
-5.5978e-10
1.16166e-09
-1.89677e-16
-5.46604e-10
1.44904e-09
-1.87448e-16
-5.33101e-10
1.7292e-09
-1.85383e-16
-5.1923e-10
2.00193e-09
-1.82179e-16
-5.04948e-10
2.26694e-09
-1.78434e-16
-4.90204e-10
2.52397e-09
-1.74038e-16
-4.74942e-10
2.77269e-09
-1.69318e-16
-4.59107e-10
3.01276e-09
-1.65086e-16
-4.42639e-10
3.24381e-09
-1.608e-16
-4.25478e-10
3.46542e-09
-1.56299e-16
-4.07563e-10
3.67718e-09
-1.51581e-16
-3.88834e-10
3.8786e-09
-1.47135e-16
-3.69233e-10
4.06919e-09
-1.42093e-16
-3.48701e-10
4.24843e-09
-1.37487e-16
-3.27183e-10
4.41575e-09
-1.33044e-16
-3.04628e-10
4.5706e-09
-1.28928e-16
-2.8099e-10
4.71236e-09
-1.25084e-16
-2.56226e-10
4.84043e-09
-1.21675e-16
-2.30304e-10
4.95416e-09
-1.17727e-16
-2.03197e-10
5.05291e-09
-1.14376e-16
-1.74888e-10
5.13605e-09
-1.11136e-16
-1.45372e-10
5.20291e-09
-1.0844e-16
-1.14655e-10
5.25286e-09
-1.05963e-16
-8.27591e-11
5.28527e-09
-1.03652e-16
-4.97199e-11
5.29952e-09
-1.00907e-16
-1.55906e-11
5.29504e-09
-9.87531e-17
1.95845e-11
5.27129e-09
-9.74778e-17
5.57471e-11
5.2278e-09
-9.52319e-17
9.27949e-11
5.16413e-09
-9.35322e-17
1.30605e-10
5.07993e-09
-9.20536e-17
1.69033e-10
4.97491e-09
-9.14467e-17
2.07908e-10
4.84891e-09
-9.16033e-17
2.47035e-10
4.70186e-09
-9.2632e-17
2.86191e-10
4.53381e-09
-9.55087e-17
3.25122e-10
4.34498e-09
-9.95834e-17
3.63545e-10
4.13574e-09
-1.05073e-16
4.01138e-10
3.90663e-09
-1.13061e-16
4.37545e-10
3.65841e-09
-1.23441e-16
4.72367e-10
3.39207e-09
-1.35994e-16
5.05157e-10
3.10883e-09
-1.48879e-16
5.3542e-10
2.81021e-09
-1.61877e-16
5.626e-10
2.49804e-09
-1.73253e-16
5.86074e-10
2.1745e-09
-1.82358e-16
6.05143e-10
1.84217e-09
-1.88755e-16
6.19016e-10
1.50408e-09
-1.95372e-16
6.26792e-10
1.16377e-09
-2.06544e-16
6.27435e-10
8.2535e-10
-2.28126e-16
6.19742e-10
4.93501e-10
-2.51982e-16
6.02243e-10
1.7363e-10
-2.70628e-16
5.73406e-10
-1.27942e-10
-2.85251e-16
5.31513e-10
-4.03916e-10
-2.89442e-16
4.74503e-10
-6.46168e-10
-2.84277e-16
4.0022e-10
-8.45732e-10
-2.8168e-16
3.0643e-10
-9.92799e-10
-2.95093e-16
1.91141e-10
-1.07687e-09
-3.1438e-16
5.32651e-11
-1.08739e-09
-3.08119e-16
-1.05595e-10
-1.015e-09
-2.70248e-16
-2.78844e-10
-8.52931e-10
-2.13024e-16
-4.4974e-10
-5.9872e-10
-1.38978e-16
-5.80982e-10
-2.68919e-10
1.03495e-16
-5.98034e-10
-6.59919e-15
-3.68744e-10
5.59845e-10
-9.27747e-10
9.22364e-10
-9.22805e-10
1.08374e-09
-6.40586e-10
1.09368e-09
-2.93197e-10
9.73121e-10
3.75257e-11
7.39788e-10
3.24042e-10
4.10614e-10
5.61112e-10
1.21333e-12
7.52742e-10
-4.74105e-10
9.05802e-10
-1.0029e-09
1.0272e-09
-1.57496e-09
1.12307e-09
-2.18188e-09
1.19841e-09
-2.81664e-09
1.25756e-09
-3.47347e-09
1.30386e-09
-4.14761e-09
1.33988e-09
-4.8352e-09
1.36761e-09
-5.533e-09
1.38859e-09
-6.23832e-09
1.40401e-09
-6.9489e-09
1.41478e-09
-7.66278e-09
1.42159e-09
-8.37826e-09
1.425e-09
-9.09384e-09
1.4254e-09
-9.80816e-09
1.42308e-09
-1.052e-08
1.41829e-09
-1.12281e-08
1.41117e-09
-1.19315e-08
1.40185e-09
-1.2629e-08
1.3904e-09
-1.33196e-08
1.37687e-09
-1.40024e-08
1.36131e-09
-1.46762e-08
1.34374e-09
-1.53402e-08
1.32417e-09
-1.59932e-08
1.30262e-09
-1.66345e-08
1.27909e-09
-1.72629e-08
1.25362e-09
-1.78776e-08
1.22621e-09
-1.84775e-08
1.19689e-09
-1.90618e-08
1.16571e-09
-1.96296e-08
1.13269e-09
-2.018e-08
1.0979e-09
-2.07121e-08
1.06138e-09
-2.12251e-08
1.02322e-09
-2.17183e-08
9.83484e-10
-2.21908e-08
9.42256e-10
-2.26421e-08
8.99629e-10
-2.30714e-08
8.55701e-10
-2.34782e-08
8.10578e-10
-2.38619e-08
7.64367e-10
-2.42221e-08
7.17184e-10
-2.45582e-08
6.69146e-10
-2.487e-08
6.20373e-10
-2.51571e-08
5.70987e-10
-2.54193e-08
5.21111e-10
-2.56564e-08
4.7087e-10
-2.58682e-08
4.20385e-10
-2.60547e-08
3.6978e-10
-2.62159e-08
3.19174e-10
-2.63518e-08
2.68684e-10
-2.64625e-08
2.18427e-10
-2.65481e-08
1.68513e-10
-2.6609e-08
1.1905e-10
-2.66453e-08
7.01375e-11
-2.66573e-08
2.18726e-11
-2.66454e-08
-2.56575e-11
-2.661e-08
-7.2374e-11
-2.65515e-08
-1.182e-10
-2.64704e-08
-1.6306e-10
-2.63672e-08
-2.06883e-10
-2.62424e-08
-2.49604e-10
-2.60967e-08
-2.91162e-10
-2.59305e-08
-3.31502e-10
-2.57445e-08
-3.70577e-10
-2.55394e-08
-4.08344e-10
-2.53159e-08
-4.44768e-10
-2.50744e-08
-4.79817e-10
-2.48159e-08
-5.13465e-10
-2.45409e-08
-5.45691e-10
-2.42502e-08
-5.76479e-10
-2.39444e-08
-6.05817e-10
-2.36243e-08
-6.33697e-10
-2.32907e-08
-6.60116e-10
-2.29441e-08
-6.85075e-10
-2.25854e-08
-7.08577e-10
-2.22153e-08
-7.30631e-10
-2.18344e-08
-7.51246e-10
-2.14434e-08
-7.70437e-10
-2.10431e-08
-7.8822e-10
-2.06341e-08
-8.04614e-10
-2.02172e-08
-8.19642e-10
-1.97929e-08
-8.33326e-10
-1.93619e-08
-8.45694e-10
-1.89249e-08
-8.56773e-10
-1.84825e-08
-8.66592e-10
-1.80352e-08
-8.75184e-10
-1.75838e-08
-8.82581e-10
-1.71287e-08
-8.88817e-10
-1.66705e-08
-8.93927e-10
-1.62099e-08
-8.97949e-10
-1.57472e-08
-9.00919e-10
-1.5283e-08
-9.02875e-10
-1.48178e-08
-9.03856e-10
-1.4352e-08
-9.03902e-10
-1.38862e-08
-9.03053e-10
-1.34207e-08
-9.01348e-10
-1.2956e-08
-8.98829e-10
-1.24925e-08
-8.95535e-10
-1.20305e-08
-8.91507e-10
-1.15704e-08
-8.86786e-10
-1.11125e-08
-8.81412e-10
-1.06572e-08
-8.75424e-10
-1.02047e-08
-8.68863e-10
-9.75542e-09
-8.61767e-10
-9.3095e-09
-8.54174e-10
-8.86723e-09
-8.46123e-10
-8.42884e-09
-8.37648e-10
-7.99455e-09
-8.28787e-10
-7.56453e-09
-8.19573e-10
-7.13899e-09
-8.10038e-10
-6.71808e-09
-8.00215e-10
-6.30194e-09
-7.90134e-10
-5.89073e-09
-7.79821e-10
-5.48456e-09
-7.69304e-10
-5.08355e-09
-7.58607e-10
-4.6878e-09
-7.47751e-10
-4.2974e-09
-7.36756e-10
-3.91243e-09
-7.25638e-10
-3.53297e-09
-7.14412e-10
-3.1591e-09
-7.0309e-10
-2.79088e-09
-6.91679e-10
-2.42837e-09
-6.80186e-10
-2.07165e-09
-6.68613e-10
-1.72076e-09
-6.56959e-10
-1.37577e-09
-6.45222e-10
-1.03676e-09
-6.33397e-10
-7.03771e-10
-6.21481e-10
-3.76883e-10
-6.09471e-10
-5.61449e-11
-5.97385e-10
2.5826e-10
-5.8514e-10
5.66115e-10
-5.72625e-10
8.67308e-10
-5.59785e-10
1.16169e-09
-5.46609e-10
1.44907e-09
-5.33106e-10
1.72924e-09
-5.19235e-10
2.00196e-09
-5.04953e-10
2.26698e-09
-4.90209e-10
2.524e-09
-4.74948e-10
2.77272e-09
-4.59113e-10
3.01279e-09
-4.42645e-10
3.24384e-09
-4.25484e-10
3.46546e-09
-4.07569e-10
3.67721e-09
-3.88841e-10
3.87863e-09
-3.69239e-10
4.06922e-09
-3.48707e-10
4.24846e-09
-3.27189e-10
4.41579e-09
-3.04634e-10
4.57063e-09
-2.80996e-10
4.7124e-09
-2.56233e-10
4.84046e-09
-2.30311e-10
4.95419e-09
-2.03204e-10
5.05295e-09
-1.74895e-10
5.13608e-09
-1.45379e-10
5.20294e-09
-1.14662e-10
5.2529e-09
-8.27656e-11
5.28531e-09
-4.97263e-11
5.29955e-09
-1.5597e-11
5.29507e-09
1.95782e-11
5.27132e-09
5.57408e-11
5.22783e-09
9.27886e-11
5.16416e-09
1.30599e-10
5.07996e-09
1.69027e-10
4.97494e-09
2.07902e-10
4.84894e-09
2.47029e-10
4.70189e-09
2.86185e-10
4.53384e-09
3.25116e-10
4.34501e-09
3.63539e-10
4.13576e-09
4.01133e-10
3.90666e-09
4.3754e-10
3.65844e-09
4.72361e-10
3.39209e-09
5.05152e-10
3.10885e-09
5.35415e-10
2.81023e-09
5.62594e-10
2.49806e-09
5.86069e-10
2.17452e-09
6.05138e-10
1.84219e-09
6.1901e-10
1.5041e-09
6.26786e-10
1.16379e-09
6.27429e-10
8.25362e-10
6.19736e-10
4.93511e-10
6.02237e-10
1.7364e-10
5.73399e-10
-1.27934e-10
5.31506e-10
-4.03909e-10
4.74495e-10
-6.46162e-10
4.00211e-10
-8.45727e-10
3.06419e-10
-9.92796e-10
1.91129e-10
-1.07687e-09
5.32509e-11
-1.08739e-09
-1.05612e-10
-1.015e-09
-2.78863e-10
-8.52939e-10
-4.49763e-10
-5.98745e-10
-5.8101e-10
-2.68985e-10
-5.9807e-10
-3.68783e-10
4.63064e-10
1.73621e-14
-1.39139e-09
6.203e-10
3.52831e-16
-1.08063e-09
5.92577e-10
4.91869e-16
-6.13052e-10
4.53162e-10
1.0326e-17
-1.5392e-10
2.27819e-10
-1.75382e-16
2.62751e-10
-7.13579e-11
-2.8075e-16
6.23116e-10
-4.36048e-10
-3.12904e-16
9.25708e-10
-8.58525e-10
-2.85351e-16
1.17513e-09
-1.33121e-09
-2.90011e-16
1.37841e-09
-1.8469e-09
-3.39273e-16
1.54282e-09
-2.39899e-09
-3.75924e-16
1.67508e-09
-2.98162e-09
-3.81206e-16
1.78097e-09
-3.58956e-09
-3.81848e-16
1.86543e-09
-4.21824e-09
-3.97502e-16
1.93247e-09
-4.86373e-09
-4.24238e-16
1.98531e-09
-5.52265e-09
-4.49671e-16
2.02648e-09
-6.19213e-09
-4.664e-16
2.05801e-09
-6.86966e-09
-4.73396e-16
2.08149e-09
-7.55308e-09
-4.71689e-16
2.09815e-09
-8.24049e-09
-4.62202e-16
2.10896e-09
-8.93022e-09
-4.45503e-16
2.11468e-09
-9.62074e-09
-4.23165e-16
2.11588e-09
-1.03107e-08
-3.97112e-16
2.11299e-09
-1.09988e-08
-3.69594e-16
2.10634e-09
-1.16838e-08
-3.42591e-16
2.09617e-09
-1.23647e-08
-3.17185e-16
2.08266e-09
-1.30402e-08
-2.93459e-16
2.06594e-09
-1.37095e-08
-2.71386e-16
2.04609e-09
-1.43714e-08
-2.50693e-16
2.02317e-09
-1.50249e-08
-2.30895e-16
1.99724e-09
-1.56691e-08
-2.118e-16
1.96831e-09
-1.63029e-08
-1.9322e-16
1.93641e-09
-1.69254e-08
-1.75533e-16
1.90157e-09
-1.75357e-08
-1.58956e-16
1.86383e-09
-1.81327e-08
-1.43463e-16
1.8232e-09
-1.87156e-08
-1.29163e-16
1.77975e-09
-1.92834e-08
-1.15932e-16
1.73351e-09
-1.98353e-08
-1.03378e-16
1.68455e-09
-2.03704e-08
-9.11617e-17
1.63295e-09
-2.08878e-08
-7.92841e-17
1.5788e-09
-2.13868e-08
-6.71213e-17
1.52219e-09
-2.18666e-08
-5.49987e-17
1.46324e-09
-2.23264e-08
-4.28891e-17
1.40208e-09
-2.27656e-08
-3.07519e-17
1.33883e-09
-2.31836e-08
-1.87769e-17
1.27363e-09
-2.35797e-08
-7.09957e-18
1.20665e-09
-2.39534e-08
4.42905e-18
1.13805e-09
-2.43042e-08
1.57141e-17
1.06798e-09
-2.46317e-08
2.66471e-17
9.9662e-10
-2.49355e-08
3.71875e-17
9.24149e-10
-2.52152e-08
4.76062e-17
8.50745e-10
-2.54707e-08
5.75372e-17
7.76589e-10
-2.57017e-08
6.70078e-17
7.01862e-10
-2.59081e-08
7.59229e-17
6.26744e-10
-2.60898e-08
8.4242e-17
5.51416e-10
-2.62467e-08
9.19649e-17
4.76053e-10
-2.63788e-08
9.88613e-17
4.00829e-10
-2.64863e-08
1.05121e-16
3.25914e-10
-2.65693e-08
1.10784e-16
2.51469e-10
-2.66279e-08
1.15594e-16
1.77653e-10
-2.66624e-08
1.19754e-16
1.04615e-10
-2.66731e-08
1.2329e-16
3.24965e-11
-2.66602e-08
1.26419e-16
-3.85695e-11
-2.66241e-08
1.28953e-16
-1.08457e-10
-2.65653e-08
1.31039e-16
-1.77047e-10
-2.64841e-08
1.32597e-16
-2.44229e-10
-2.63811e-08
1.33694e-16
-3.09897e-10
-2.62568e-08
1.34533e-16
-3.73954e-10
-2.61117e-08
1.34871e-16
-4.36312e-10
-2.59463e-08
1.34898e-16
-4.9689e-10
-2.57613e-08
1.3464e-16
-5.55617e-10
-2.55572e-08
1.34151e-16
-6.1243e-10
-2.53347e-08
1.33473e-16
-6.67273e-10
-2.50944e-08
1.32754e-16
-7.20099e-10
-2.48371e-08
1.31832e-16
-7.70868e-10
-2.45632e-08
1.30801e-16
-8.19547e-10
-2.42736e-08
1.29662e-16
-8.66112e-10
-2.39689e-08
1.28415e-16
-9.10542e-10
-2.36498e-08
1.26923e-16
-9.52825e-10
-2.3317e-08
1.25337e-16
-9.92956e-10
-2.29711e-08
1.23575e-16
-1.03093e-09
-2.2613e-08
1.21595e-16
-1.06676e-09
-2.22432e-08
1.19372e-16
-1.10044e-09
-2.18625e-08
1.16986e-16
-1.13201e-09
-2.14715e-08
1.14302e-16
-1.16146e-09
-2.10709e-08
1.11673e-16
-1.18883e-09
-2.06614e-08
1.08799e-16
-1.21414e-09
-2.02436e-08
1.05952e-16
-1.23743e-09
-1.98182e-08
1.03133e-16
-1.25873e-09
-1.93859e-08
1.0034e-16
-1.27807e-09
-1.89472e-08
9.76564e-17
-1.29549e-09
-1.85028e-08
9.51893e-17
-1.31104e-09
-1.80532e-08
9.28036e-17
-1.32477e-09
-1.75991e-08
9.06619e-17
-1.33671e-09
-1.7141e-08
8.88725e-17
-1.34692e-09
-1.66795e-08
8.71645e-17
-1.35545e-09
-1.62152e-08
8.58632e-17
-1.36235e-09
-1.57484e-08
8.46432e-17
-1.36768e-09
-1.52799e-08
8.36672e-17
-1.37149e-09
-1.48099e-08
8.28539e-17
-1.37383e-09
-1.43391e-08
8.23117e-17
-1.37476e-09
-1.38678e-08
8.20136e-17
-1.37435e-09
-1.33966e-08
8.17968e-17
-1.37264e-09
-1.29257e-08
8.17428e-17
-1.3697e-09
-1.24557e-08
8.18515e-17
-1.36558e-09
-1.19869e-08
8.22313e-17
-1.36035e-09
-1.15197e-08
8.28281e-17
-1.35406e-09
-1.10543e-08
8.35335e-17
-1.34677e-09
-1.05913e-08
8.45371e-17
-1.33853e-09
-1.01307e-08
8.57305e-17
-1.32941e-09
-9.67307e-09
8.73849e-17
-1.31947e-09
-9.21853e-09
8.92021e-17
-1.30875e-09
-8.76738e-09
9.13176e-17
-1.29731e-09
-8.31985e-09
9.37043e-17
-1.28521e-09
-7.87618e-09
9.6579e-17
-1.27249e-09
-7.43658e-09
9.96707e-17
-1.25921e-09
-7.00124e-09
1.03359e-16
-1.24541e-09