/*--------------------------------*- C++ -*----------------------------------*\
  =========                 |
  \\      /  F ield         | OpenFOAM: The Open Source CFD Toolbox
   \\    /   O peration     | Website:  https://openfoam.org
    \\  /    A nd           | Version:  8
     \\/     M anipulation  |
\*---------------------------------------------------------------------------*/
FoamFile
{
    version     2.0;
    format      ascii;
    class       volScalarField;
    location    "2800";
    object      T;
}
// * * * * * * * * * * * * * * * * * * * * * * * * * * * * * * * * * * * * * //

dimensions      [0 0 0 1 0 0 0];

internalField   nonuniform List<scalar> 
46000
(
310.649
309.753
309.001
308.489
308.116
307.819
307.571
307.358
307.171
307.004
306.852
306.714
306.587
306.469
306.36
306.259
306.164
306.075
305.991
305.913
305.839
305.769
305.704
305.642
305.583
305.528
305.476
305.426
305.379
305.335
305.293
305.253
305.215
305.18
305.146
305.114
305.083
305.055
305.027
305.001
304.977
304.954
304.932
304.912
304.893
304.875
304.858
304.842
304.827
304.814
304.801
304.79
304.779
304.77
304.761
304.754
304.747
304.741
304.737
304.733
304.73
304.728
304.726
304.726
304.726
304.727
304.729
304.732
304.736
304.74
304.746
304.752
304.76
304.768
304.776
304.786
304.796
304.808
304.82
304.832
304.846
304.86
304.875
304.891
304.907
304.925
304.942
304.961
304.98
305
305.02
305.041
305.062
305.084
305.107
305.13
305.153
305.177
305.202
305.227
305.252
305.278
305.304
305.33
305.357
305.384
305.412
305.439
305.467
305.496
305.524
305.553
305.582
305.611
305.64
305.669
305.699
305.729
305.759
305.789
305.819
305.849
305.879
305.91
305.941
305.972
306.003
306.034
306.065
306.097
306.129
306.161
306.193
306.225
306.258
306.291
306.325
306.359
306.393
306.428
306.463
306.498
306.534
306.571
306.608
306.646
306.685
306.725
306.765
306.806
306.848
306.891
306.935
306.98
307.026
307.073
307.122
307.171
307.222
307.274
307.328
307.383
307.439
307.497
307.556
307.616
307.678
307.741
307.806
307.872
307.94
308.01
308.081
308.154
308.228
308.304
308.382
308.461
308.542
308.625
308.71
308.796
308.884
308.974
309.066
309.161
309.258
309.358
309.462
309.57
309.684
309.806
309.937
310.082
310.245
310.437
310.678
310.992
311.393
311.735
310.649
309.753
309.001
308.489
308.116
307.819
307.571
307.358
307.171
307.004
306.852
306.713
306.586
306.469
306.36
306.259
306.164
306.075
305.991
305.913
305.839
305.769
305.704
305.642
305.583
305.528
305.476
305.426
305.379
305.335
305.293
305.253
305.215
305.18
305.146
305.114
305.083
305.055
305.027
305.001
304.977
304.954
304.932
304.912
304.893
304.875
304.858
304.842
304.827
304.814
304.801
304.79
304.779
304.77
304.761
304.754
304.747
304.741
304.737
304.733
304.73
304.728
304.726
304.726
304.726
304.727
304.729
304.732
304.736
304.74
304.746
304.752
304.76
304.768
304.776
304.786
304.796
304.808
304.82
304.832
304.846
304.86
304.875
304.891
304.907
304.925
304.942
304.961
304.98
305
305.02
305.041
305.062
305.084
305.107
305.13
305.153
305.177
305.202
305.227
305.252
305.278
305.304
305.33
305.357
305.384
305.412
305.439
305.467
305.496
305.524
305.553
305.582
305.611
305.64
305.669
305.699
305.729
305.759
305.789
305.819
305.849
305.879
305.91
305.941
305.972
306.003
306.034
306.065
306.097
306.129
306.161
306.193
306.225
306.258
306.291
306.325
306.359
306.393
306.428
306.463
306.498
306.534
306.571
306.608
306.646
306.685
306.725
306.765
306.806
306.848
306.891
306.935
306.98
307.026
307.073
307.122
307.171
307.222
307.274
307.328
307.383
307.439
307.497
307.556
307.616
307.678
307.741
307.806
307.872
307.94
308.01
308.081
308.154
308.228
308.304
308.382
308.461
308.542
308.625
308.71
308.796
308.884
308.974
309.066
309.161
309.258
309.358
309.462
309.57
309.684
309.806
309.937
310.082
310.245
310.437
310.678
310.992
311.393
311.735
307.222
306.71
306.304
305.996
305.752
305.552
305.383
305.236
305.105
304.989
304.883
304.786
304.697
304.616
304.54
304.469
304.403
304.342
304.285
304.231
304.181
304.134
304.089
304.048
304.008
303.971
303.937
303.904
303.873
303.843
303.816
303.789
303.764
303.741
303.718
303.697
303.677
303.657
303.639
303.622
303.605
303.589
303.574
303.559
303.546
303.532
303.52
303.508
303.497
303.486
303.476
303.466
303.457
303.448
303.44
303.432
303.425
303.418
303.412
303.406
303.401
303.396
303.392
303.388
303.384
303.381
303.379
303.377
303.376
303.375
303.374
303.374
303.375
303.376
303.377
303.379
303.381
303.384
303.388
303.392
303.396
303.401
303.406
303.412
303.418
303.425
303.432
303.439
303.447
303.456
303.464
303.474
303.483
303.493
303.504
303.515
303.526
303.538
303.55
303.562
303.575
303.588
303.601
303.615
303.629
303.644
303.658
303.673
303.689
303.705
303.721
303.737
303.754
303.771
303.788
303.805
303.823
303.841
303.86
303.879
303.898
303.917
303.937
303.957
303.977
303.998
304.019
304.041
304.063
304.085
304.108
304.131
304.154
304.179
304.203
304.228
304.254
304.28
304.307
304.335
304.363
304.392
304.422
304.452
304.483
304.515
304.548
304.582
304.616
304.652
304.689
304.727
304.766
304.806
304.847
304.889
304.933
304.978
305.025
305.073
305.122
305.173
305.225
305.279
305.334
305.391
305.449
305.509
305.57
305.633
305.697
305.764
305.832
305.901
305.972
306.045
306.119
306.194
306.272
306.35
306.431
306.512
306.595
306.68
306.767
306.855
306.945
307.038
307.134
307.233
307.337
307.447
307.566
307.699
307.85
308.029
308.252
308.542
308.932
309.354
307.222
306.71
306.304
305.996
305.752
305.552
305.382
305.236
305.105
304.989
304.883
304.786
304.697
304.616
304.54
304.469
304.403
304.342
304.285
304.231
304.181
304.134
304.089
304.048
304.008
303.971
303.937
303.904
303.873
303.843
303.816
303.789
303.764
303.741
303.718
303.697
303.677
303.657
303.639
303.622
303.605
303.589
303.574
303.559
303.546
303.532
303.52
303.508
303.497
303.486
303.476
303.466
303.457
303.448
303.44
303.432
303.425
303.418
303.412
303.406
303.401
303.396
303.392
303.388
303.384
303.382
303.379
303.377
303.376
303.375
303.374
303.374
303.375
303.376
303.377
303.379
303.381
303.384
303.388
303.392
303.396
303.401
303.406
303.412
303.418
303.425
303.432
303.439
303.447
303.456
303.464
303.474
303.483
303.493
303.504
303.515
303.526
303.538
303.55
303.562
303.575
303.588
303.601
303.615
303.629
303.644
303.658
303.673
303.689
303.705
303.721
303.737
303.754
303.771
303.788
303.805
303.823
303.841
303.86
303.879
303.898
303.917
303.937
303.957
303.977
303.998
304.019
304.041
304.063
304.085
304.108
304.131
304.154
304.179
304.203
304.228
304.254
304.28
304.307
304.335
304.363
304.392
304.422
304.452
304.483
304.515
304.548
304.582
304.616
304.652
304.689
304.727
304.766
304.806
304.847
304.889
304.933
304.978
305.025
305.073
305.122
305.173
305.225
305.279
305.334
305.391
305.449
305.509
305.57
305.633
305.697
305.764
305.832
305.901
305.972
306.045
306.119
306.194
306.272
306.35
306.431
306.512
306.595
306.68
306.767
306.855
306.945
307.038
307.134
307.233
307.337
307.447
307.566
307.699
307.85
308.029
308.252
308.542
308.932
309.354
305.435
305.277
305.087
304.908
304.745
304.601
304.473
304.357
304.253
304.158
304.071
303.99
303.916
303.847
303.784
303.724
303.669
303.617
303.568
303.523
303.481
303.441
303.403
303.368
303.335
303.304
303.275
303.247
303.221
303.197
303.174
303.152
303.131
303.111
303.092
303.074
303.057
303.041
303.025
303.01
302.996
302.983
302.969
302.957
302.945
302.933
302.922
302.911
302.901
302.891
302.882
302.873
302.864
302.856
302.848
302.84
302.833
302.826
302.819
302.813
302.807
302.802
302.796
302.792
302.787
302.783
302.779
302.776
302.773
302.77
302.768
302.766
302.765
302.764
302.763
302.763
302.763
302.763
302.764
302.765
302.767
302.769
302.772
302.775
302.778
302.782
302.786
302.79
302.795
302.8
302.806
302.812
302.818
302.825
302.832
302.839
302.847
302.855
302.863
302.872
302.881
302.891
302.901
302.911
302.922
302.932
302.944
302.955
302.967
302.979
302.992
303.005
303.018
303.031
303.045
303.06
303.074
303.089
303.104
303.12
303.136
303.152
303.169
303.186
303.203
303.221
303.24
303.258
303.278
303.297
303.318
303.338
303.359
303.381
303.403
303.426
303.45
303.474
303.499
303.524
303.55
303.577
303.605
303.633
303.663
303.693
303.724
303.756
303.789
303.823
303.858
303.895
303.932
303.971
304.01
304.051
304.094
304.137
304.182
304.229
304.276
304.326
304.376
304.428
304.482
304.537
304.594
304.652
304.712
304.773
304.835
304.9
304.965
305.033
305.101
305.172
305.243
305.316
305.39
305.466
305.542
305.62
305.699
305.779
305.861
305.943
306.027
306.113
306.2
306.29
306.383
306.48
306.583
306.694
306.816
306.953
307.11
307.293
307.51
307.736
305.435
305.277
305.087
304.907
304.745
304.601
304.473
304.357
304.253
304.158
304.071
303.99
303.916
303.847
303.784
303.724
303.669
303.617
303.568
303.523
303.481
303.441
303.403
303.368
303.335
303.304
303.275
303.247
303.221
303.197
303.174
303.152
303.131
303.111
303.092
303.074
303.057
303.041
303.025
303.01
302.996
302.983
302.969
302.957
302.945
302.933
302.922
302.911
302.901
302.891
302.882
302.873
302.864
302.856
302.848
302.84
302.833
302.826
302.819
302.813
302.807
302.802
302.796
302.792
302.787
302.783
302.779
302.776
302.773
302.77
302.768
302.766
302.765
302.764
302.763
302.763
302.763
302.763
302.764
302.765
302.767
302.769
302.772
302.775
302.778
302.782
302.786
302.79
302.795
302.8
302.806
302.812
302.818
302.825
302.832
302.839
302.847
302.855
302.863
302.872
302.881
302.891
302.901
302.911
302.922
302.932
302.944
302.955
302.967
302.979
302.992
303.005
303.018
303.031
303.045
303.06
303.074
303.089
303.104
303.12
303.136
303.152
303.169
303.186
303.203
303.221
303.24
303.258
303.278
303.297
303.318
303.338
303.359
303.381
303.403
303.426
303.45
303.474
303.499
303.524
303.55
303.577
303.605
303.633
303.663
303.693
303.724
303.756
303.789
303.823
303.858
303.895
303.932
303.971
304.01
304.051
304.094
304.137
304.182
304.229
304.276
304.326
304.376
304.428
304.482
304.537
304.594
304.652
304.712
304.773
304.835
304.9
304.965
305.033
305.101
305.172
305.243
305.316
305.39
305.466
305.542
305.62
305.699
305.779
305.861
305.943
306.027
306.113
306.2
306.29
306.383
306.481
306.583
306.694
306.816
306.953
307.11
307.293
307.51
307.736
304.45
304.411
304.322
304.215
304.106
304
303.901
303.809
303.722
303.642
303.568
303.499
303.434
303.374
303.318
303.265
303.216
303.17
303.127
303.087
303.049
303.013
302.98
302.949
302.919
302.891
302.865
302.841
302.817
302.795
302.775
302.755
302.736
302.719
302.702
302.686
302.67
302.656
302.642
302.628
302.615
302.603
302.591
302.579
302.568
302.558
302.547
302.537
302.528
302.518
302.509
302.501
302.492
302.484
302.476
302.469
302.461
302.454
302.448
302.441
302.435
302.429
302.424
302.418
302.413
302.409
302.404
302.4
302.397
302.393
302.39
302.388
302.385
302.383
302.381
302.38
302.379
302.378
302.378
302.378
302.379
302.38
302.381
302.382
302.384
302.386
302.389
302.392
302.395
302.399
302.403
302.407
302.412
302.417
302.423
302.428
302.435
302.441
302.448
302.455
302.463
302.471
302.479
302.487
302.496
302.505
302.515
302.525
302.535
302.546
302.557
302.568
302.579
302.591
302.604
302.616
302.629
302.643
302.657
302.671
302.685
302.7
302.715
302.731
302.747
302.764
302.781
302.798
302.816
302.835
302.854
302.873
302.893
302.914
302.935
302.957
302.979
303.002
303.026
303.05
303.075
303.101
303.128
303.156
303.184
303.214
303.244
303.275
303.307
303.34
303.375
303.41
303.447
303.485
303.524
303.564
303.605
303.648
303.692
303.738
303.785
303.833
303.883
303.934
303.987
304.041
304.096
304.153
304.212
304.272
304.333
304.396
304.461
304.526
304.594
304.662
304.732
304.802
304.874
304.948
305.022
305.097
305.173
305.249
305.327
305.405
305.485
305.565
305.646
305.729
305.813
305.899
305.989
306.082
306.18
306.283
306.391
306.502
306.609
306.701
304.45
304.411
304.322
304.215
304.106
304
303.901
303.808
303.722
303.642
303.568
303.499
303.434
303.374
303.318
303.265
303.216
303.17
303.127
303.087
303.049
303.013
302.98
302.949
302.919
302.891
302.865
302.841
302.817
302.795
302.775
302.755
302.736
302.719
302.702
302.686
302.67
302.656
302.642
302.628
302.615
302.603
302.591
302.579
302.568
302.558
302.547
302.537
302.528
302.518
302.509
302.501
302.492
302.484
302.476
302.469
302.461
302.454
302.448
302.441
302.435
302.429
302.424
302.418
302.413
302.409
302.404
302.4
302.397
302.393
302.39
302.388
302.385
302.383
302.381
302.38
302.379
302.378
302.378
302.378
302.379
302.38
302.381
302.382
302.384
302.386
302.389
302.392
302.395
302.399
302.403
302.407
302.412
302.417
302.423
302.428
302.435
302.441
302.448
302.455
302.463
302.471
302.479
302.487
302.496
302.505
302.515
302.525
302.535
302.546
302.557
302.568
302.579
302.591
302.604
302.616
302.629
302.643
302.657
302.671
302.685
302.7
302.715
302.731
302.747
302.764
302.781
302.798
302.816
302.835
302.854
302.873
302.893
302.914
302.935
302.957
302.979
303.002
303.026
303.05
303.075
303.101
303.128
303.156
303.184
303.214
303.244
303.275
303.307
303.34
303.375
303.41
303.447
303.485
303.524
303.564
303.605
303.648
303.692
303.738
303.785
303.833
303.883
303.934
303.987
304.041
304.096
304.153
304.212
304.272
304.333
304.396
304.461
304.526
304.594
304.662
304.732
304.802
304.874
304.948
305.022
305.097
305.173
305.249
305.327
305.405
305.485
305.565
305.646
305.729
305.813
305.899
305.989
306.082
306.18
306.283
306.391
306.501
306.609
306.701
303.817
303.812
303.767
303.701
303.626
303.549
303.471
303.397
303.325
303.258
303.194
303.133
303.077
303.023
302.973
302.926
302.882
302.841
302.802
302.765
302.731
302.698
302.668
302.64
302.613
302.587
302.564
302.541
302.52
302.5
302.481
302.463
302.446
302.429
302.414
302.399
302.385
302.372
302.359
302.346
302.334
302.323
302.311
302.301
302.29
302.28
302.27
302.261
302.252
302.243
302.234
302.226
302.218
302.21
302.202
302.195
302.187
302.18
302.174
302.167
302.161
302.155
302.149
302.144
302.138
302.133
302.129
302.124
302.12
302.116
302.113
302.109
302.106
302.104
302.102
302.1
302.098
302.097
302.096
302.095
302.095
302.095
302.095
302.096
302.097
302.098
302.1
302.102
302.104
302.107
302.11
302.114
302.117
302.122
302.126
302.131
302.136
302.141
302.147
302.154
302.16
302.167
302.174
302.182
302.189
302.198
302.206
302.215
302.224
302.234
302.244
302.254
302.265
302.276
302.287
302.299
302.311
302.323
302.336
302.349
302.363
302.377
302.391
302.406
302.422
302.437
302.454
302.47
302.487
302.505
302.523
302.542
302.561
302.581
302.602
302.623
302.644
302.667
302.69
302.714
302.738
302.763
302.79
302.817
302.844
302.873
302.903
302.933
302.965
302.998
303.032
303.066
303.102
303.14
303.178
303.218
303.258
303.301
303.344
303.389
303.435
303.483
303.532
303.582
303.634
303.688
303.742
303.799
303.856
303.915
303.976
304.037
304.1
304.165
304.231
304.297
304.365
304.434
304.505
304.575
304.647
304.72
304.793
304.867
304.941
305.015
305.09
305.166
305.241
305.317
305.394
305.471
305.549
305.627
305.706
305.784
305.859
305.926
305.978
306.009
303.817
303.812
303.767
303.701
303.626
303.549
303.471
303.397
303.325
303.258
303.194
303.133
303.077
303.023
302.973
302.926
302.882
302.841
302.802
302.765
302.731
302.698
302.668
302.64
302.613
302.587
302.564
302.541
302.52
302.5
302.481
302.463
302.446
302.429
302.414
302.399
302.385
302.372
302.359
302.346
302.334
302.323
302.311
302.301
302.29
302.28
302.27
302.261
302.252
302.243
302.234
302.226
302.218
302.21
302.202
302.195
302.187
302.18
302.174
302.167
302.161
302.155
302.149
302.144
302.138
302.133
302.129
302.124
302.12
302.116
302.113
302.109
302.106
302.104
302.102
302.1
302.098
302.097
302.096
302.095
302.095
302.095
302.095
302.096
302.097
302.098
302.1
302.102
302.104
302.107
302.11
302.114
302.117
302.122
302.126
302.131
302.136
302.141
302.147
302.154
302.16
302.167
302.174
302.182
302.189
302.198
302.206
302.215
302.224
302.234
302.244
302.254
302.265
302.276
302.287
302.299
302.311
302.323
302.336
302.349
302.363
302.377
302.391
302.406
302.422
302.437
302.454
302.47
302.487
302.505
302.523
302.542
302.561
302.581
302.602
302.623
302.644
302.667
302.69
302.714
302.738
302.763
302.79
302.817
302.844
302.873
302.903
302.933
302.965
302.998
303.032
303.066
303.102
303.14
303.178
303.218
303.258
303.301
303.344
303.389
303.435
303.483
303.532
303.582
303.634
303.688
303.742
303.799
303.856
303.915
303.976
304.037
304.101
304.165
304.231
304.297
304.365
304.434
304.505
304.575
304.647
304.72
304.793
304.867
304.941
305.015
305.09
305.166
305.241
305.317
305.394
305.471
305.549
305.627
305.706
305.784
305.859
305.926
305.978
306.009
303.358
303.361
303.336
303.293
303.24
303.181
303.121
303.06
303.001
302.943
302.888
302.836
302.786
302.738
302.694
302.651
302.611
302.574
302.538
302.505
302.474
302.444
302.416
302.39
302.365
302.342
302.32
302.299
302.28
302.261
302.244
302.227
302.211
302.196
302.182
302.168
302.155
302.142
302.13
302.119
302.107
302.097
302.086
302.076
302.066
302.057
302.047
302.038
302.029
302.021
302.012
302.004
301.996
301.989
301.981
301.974
301.967
301.96
301.953
301.946
301.94
301.934
301.928
301.922
301.917
301.912
301.907
301.902
301.898
301.894
301.89
301.886
301.883
301.88
301.877
301.875
301.873
301.871
301.869
301.868
301.867
301.867
301.866
301.867
301.867
301.868
301.869
301.87
301.872
301.874
301.877
301.879
301.883
301.886
301.89
301.894
301.898
301.903
301.908
301.914
301.92
301.926
301.932
301.939
301.946
301.954
301.962
301.97
301.978
301.987
301.996
302.006
302.016
302.026
302.037
302.048
302.059
302.071
302.083
302.096
302.109
302.122
302.136
302.15
302.165
302.18
302.196
302.212
302.228
302.246
302.263
302.281
302.3
302.319
302.339
302.36
302.381
302.403
302.426
302.449
302.473
302.498
302.524
302.55
302.577
302.606
302.635
302.665
302.696
302.729
302.762
302.796
302.832
302.869
302.906
302.946
302.986
303.028
303.071
303.115
303.161
303.208
303.256
303.306
303.357
303.41
303.464
303.519
303.576
303.634
303.693
303.754
303.816
303.879
303.943
304.009
304.075
304.143
304.211
304.28
304.349
304.419
304.49
304.561
304.632
304.703
304.774
304.845
304.915
304.985
305.055
305.124
305.192
305.258
305.322
305.382
305.436
305.479
305.505
305.51
303.358
303.361
303.336
303.293
303.24
303.181
303.121
303.06
303.001
302.943
302.888
302.836
302.786
302.738
302.694
302.651
302.611
302.574
302.538
302.505
302.474
302.444
302.416
302.39
302.365
302.342
302.32
302.299
302.28
302.261
302.244
302.227
302.211
302.196
302.182
302.168
302.155
302.142
302.13
302.119
302.107
302.097
302.086
302.076
302.066
302.057
302.047
302.038
302.029
302.021
302.012
302.004
301.996
301.989
301.981
301.974
301.967
301.96
301.953
301.946
301.94
301.934
301.928
301.922
301.917
301.912
301.907
301.902
301.898
301.894
301.89
301.886
301.883
301.88
301.877
301.875
301.873
301.871
301.869
301.868
301.867
301.867
301.866
301.867
301.867
301.868
301.869
301.87
301.872
301.874
301.877
301.879
301.883
301.886
301.89
301.894
301.898
301.903
301.908
301.914
301.92
301.926
301.932
301.939
301.946
301.954
301.962
301.97
301.978
301.987
301.996
302.006
302.016
302.026
302.037
302.048
302.059
302.071
302.083
302.096
302.109
302.122
302.136
302.15
302.165
302.18
302.196
302.212
302.228
302.246
302.263
302.281
302.3
302.319
302.339
302.36
302.381
302.403
302.426
302.449
302.473
302.498
302.524
302.55
302.577
302.606
302.635
302.665
302.696
302.729
302.762
302.796
302.832
302.869
302.906
302.946
302.986
303.028
303.071
303.115
303.161
303.208
303.256
303.306
303.357
303.41
303.464
303.519
303.576
303.634
303.693
303.754
303.816
303.879
303.943
304.009
304.075
304.143
304.211
304.28
304.349
304.419
304.49
304.561
304.632
304.703
304.774
304.845
304.915
304.985
305.055
305.124
305.192
305.258
305.322
305.382
305.436
305.479
305.505
305.51
302.996
303
302.984
302.954
302.915
302.87
302.822
302.772
302.723
302.674
302.626
302.58
302.536
302.494
302.454
302.416
302.38
302.346
302.314
302.283
302.254
302.227
302.202
302.177
302.155
302.133
302.113
302.094
302.075
302.058
302.042
302.026
302.012
301.998
301.984
301.971
301.959
301.947
301.936
301.925
301.915
301.904
301.894
301.885
301.875
301.866
301.857
301.849
301.84
301.832
301.824
301.816
301.808
301.801
301.793
301.786
301.779
301.772
301.765
301.759
301.752
301.746
301.74
301.735
301.729
301.724
301.719
301.714
301.709
301.705
301.701
301.697
301.693
301.69
301.687
301.684
301.682
301.68
301.678
301.676
301.675
301.674
301.673
301.673
301.673
301.673
301.674
301.675
301.676
301.678
301.68
301.682
301.685
301.687
301.691
301.694
301.698
301.703
301.707
301.712
301.717
301.723
301.729
301.735
301.742
301.749
301.756
301.764
301.772
301.78
301.789
301.798
301.807
301.817
301.827
301.838
301.849
301.86
301.872
301.884
301.896
301.909
301.922
301.936
301.95
301.965
301.98
301.996
302.012
302.029
302.046
302.064
302.082
302.101
302.121
302.141
302.162
302.183
302.205
302.228
302.252
302.276
302.302
302.328
302.355
302.383
302.412
302.441
302.472
302.504
302.537
302.571
302.606
302.643
302.68
302.719
302.759
302.8
302.842
302.886
302.931
302.978
303.026
303.075
303.125
303.177
303.231
303.285
303.341
303.398
303.457
303.516
303.577
303.639
303.702
303.766
303.831
303.897
303.963
304.03
304.098
304.166
304.234
304.302
304.37
304.438
304.505
304.572
304.638
304.703
304.766
304.828
304.888
304.945
304.998
305.046
305.086
305.115
305.129
305.126
302.996
303
302.984
302.954
302.915
302.87
302.822
302.772
302.723
302.674
302.626
302.58
302.536
302.494
302.454
302.416
302.38
302.346
302.314
302.283
302.254
302.227
302.202
302.177
302.155
302.133
302.113
302.094
302.075
302.058
302.042
302.026
302.012
301.998
301.984
301.971
301.959
301.947
301.936
301.925
301.915
301.904
301.894
301.885
301.875
301.866
301.857
301.849
301.84
301.832
301.824
301.816
301.808
301.801
301.793
301.786
301.779
301.772
301.765
301.759
301.752
301.746
301.74
301.735
301.729
301.724
301.719
301.714
301.709
301.705
301.701
301.697
301.693
301.69
301.687
301.684
301.682
301.68
301.678
301.676
301.675
301.674
301.673
301.673
301.673
301.673
301.674
301.675
301.676
301.678
301.68
301.682
301.685
301.687
301.691
301.694
301.698
301.703
301.707
301.712
301.717
301.723
301.729
301.735
301.742
301.749
301.756
301.764
301.772
301.78
301.789
301.798
301.807
301.817
301.827
301.838
301.849
301.86
301.872
301.884
301.896
301.909
301.922
301.936
301.95
301.965
301.98
301.996
302.012
302.029
302.046
302.064
302.082
302.101
302.121
302.141
302.162
302.183
302.205
302.228
302.252
302.276
302.302
302.328
302.355
302.383
302.412
302.441
302.472
302.504
302.537
302.571
302.606
302.643
302.68
302.719
302.759
302.8
302.842
302.886
302.931
302.978
303.026
303.075
303.125
303.177
303.231
303.285
303.341
303.398
303.457
303.516
303.577
303.639
303.702
303.766
303.831
303.897
303.963
304.03
304.098
304.166
304.234
304.302
304.37
304.438
304.505
304.572
304.638
304.703
304.766
304.828
304.888
304.945
304.998
305.046
305.086
305.115
305.129
305.126
302.696
302.698
302.686
302.664
302.634
302.598
302.56
302.519
302.477
302.435
302.394
302.354
302.315
302.278
302.242
302.208
302.175
302.144
302.115
302.087
302.06
302.035
302.012
301.989
301.968
301.949
301.93
301.912
301.895
301.879
301.864
301.849
301.836
301.823
301.81
301.798
301.787
301.775
301.765
301.754
301.744
301.735
301.725
301.716
301.707
301.699
301.69
301.682
301.674
301.666
301.658
301.65
301.642
301.635
301.628
301.621
301.614
301.607
301.6
301.594
301.587
301.581
301.575
301.569
301.564
301.558
301.553
301.548
301.543
301.539
301.535
301.531
301.527
301.523
301.52
301.517
301.514
301.512
301.51
301.508
301.506
301.505
301.504
301.503
301.503
301.503
301.503
301.504
301.505
301.506
301.507
301.509
301.511
301.514
301.517
301.52
301.523
301.527
301.531
301.536
301.541
301.546
301.551
301.557
301.563
301.57
301.577
301.584
301.592
301.6
301.608
301.616
301.625
301.635
301.645
301.655
301.665
301.676
301.687
301.699
301.711
301.724
301.737
301.75
301.764
301.778
301.793
301.808
301.824
301.84
301.857
301.875
301.893
301.911
301.93
301.95
301.971
301.992
302.014
302.037
302.06
302.084
302.109
302.135
302.162
302.189
302.218
302.247
302.278
302.309
302.342
302.376
302.41
302.446
302.484
302.522
302.561
302.602
302.644
302.688
302.732
302.778
302.826
302.874
302.924
302.976
303.028
303.082
303.137
303.193
303.251
303.31
303.369
303.43
303.492
303.555
303.618
303.682
303.747
303.812
303.878
303.943
304.009
304.074
304.14
304.204
304.268
304.331
304.393
304.454
304.512
304.568
304.622
304.671
304.716
304.755
304.787
304.809
304.818
304.812
302.696
302.698
302.686
302.664
302.634
302.598
302.56
302.519
302.477
302.435
302.394
302.354
302.315
302.278
302.242
302.208
302.175
302.144
302.115
302.087
302.06
302.035
302.012
301.989
301.968
301.949
301.93
301.912
301.895
301.879
301.864
301.849
301.836
301.823
301.81
301.798
301.787
301.775
301.765
301.754
301.744
301.735
301.725
301.716
301.707
301.699
301.69
301.682
301.674
301.666
301.658
301.65
301.642
301.635
301.628
301.621
301.614
301.607
301.6
301.594
301.587
301.581
301.575
301.569
301.564
301.558
301.553
301.548
301.543
301.539
301.535
301.531
301.527
301.523
301.52
301.517
301.514
301.512
301.51
301.508
301.506
301.505
301.504
301.503
301.503
301.503
301.503
301.504
301.505
301.506
301.507
301.509
301.511
301.514
301.517
301.52
301.523
301.527
301.531
301.536
301.541
301.546
301.551
301.557
301.563
301.57
301.577
301.584
301.592
301.6
301.608
301.616
301.625
301.635
301.645
301.655
301.665
301.676
301.687
301.699
301.711
301.724
301.737
301.75
301.764
301.778
301.793
301.808
301.824
301.84
301.857
301.875
301.893
301.911
301.93
301.95
301.971
301.992
302.014
302.037
302.06
302.084
302.109
302.135
302.162
302.189
302.218
302.247
302.278
302.309
302.342
302.376
302.41
302.446
302.484
302.522
302.561
302.602
302.644
302.688
302.732
302.778
302.826
302.874
302.924
302.975
303.028
303.082
303.137
303.193
303.251
303.31
303.369
303.43
303.492
303.555
303.618
303.682
303.747
303.812
303.878
303.943
304.009
304.074
304.14
304.204
304.268
304.331
304.393
304.454
304.512
304.568
304.622
304.671
304.716
304.755
304.787
304.809
304.818
304.812
302.437
302.437
302.428
302.41
302.386
302.358
302.326
302.291
302.256
302.22
302.185
302.149
302.115
302.082
302.05
302.019
301.989
301.961
301.934
301.909
301.885
301.862
301.84
301.819
301.8
301.781
301.764
301.747
301.732
301.717
301.703
301.689
301.676
301.664
301.652
301.641
301.63
301.62
301.61
301.6
301.591
301.582
301.573
301.564
301.555
301.547
301.539
301.531
301.523
301.515
301.508
301.5
301.493
301.486
301.478
301.471
301.465
301.458
301.451
301.445
301.439
301.432
301.426
301.421
301.415
301.409
301.404
301.399
301.394
301.389
301.385
301.381
301.377
301.373
301.37
301.366
301.363
301.361
301.358
301.356
301.354
301.353
301.352
301.351
301.35
301.35
301.35
301.35
301.35
301.351
301.352
301.354
301.356
301.358
301.36
301.363
301.366
301.37
301.374
301.378
301.382
301.387
301.392
301.398
301.404
301.41
301.416
301.423
301.43
301.438
301.446
301.454
301.463
301.472
301.481
301.491
301.501
301.512
301.523
301.534
301.546
301.558
301.571
301.584
301.597
301.611
301.626
301.641
301.656
301.672
301.689
301.706
301.724
301.742
301.761
301.78
301.801
301.822
301.843
301.866
301.889
301.913
301.937
301.963
301.989
302.017
302.045
302.074
302.104
302.136
302.168
302.201
302.236
302.272
302.308
302.346
302.386
302.426
302.468
302.511
302.555
302.6
302.647
302.695
302.745
302.795
302.847
302.9
302.955
303.01
303.067
303.125
303.183
303.243
303.304
303.365
303.427
303.49
303.553
303.616
303.68
303.743
303.807
303.87
303.933
303.994
304.055
304.115
304.173
304.229
304.284
304.335
304.383
304.427
304.466
304.5
304.526
304.543
304.55
304.545
302.437
302.437
302.428
302.41
302.386
302.358
302.326
302.291
302.256
302.22
302.185
302.149
302.115
302.082
302.05
302.019
301.989
301.961
301.934
301.909
301.885
301.862
301.84
301.819
301.8
301.781
301.764
301.747
301.732
301.717
301.703
301.689
301.676
301.664
301.652
301.641
301.63
301.62
301.61
301.6
301.591
301.582
301.573
301.564
301.555
301.547
301.539
301.531
301.523
301.515
301.508
301.5
301.493
301.486
301.478
301.471
301.465
301.458
301.451
301.445
301.439
301.432
301.426
301.421
301.415
301.409
301.404
301.399
301.394
301.389
301.385
301.381
301.377
301.373
301.37
301.366
301.363
301.361
301.358
301.356
301.354
301.353
301.352
301.351
301.35
301.35
301.35
301.35
301.35
301.351
301.352
301.354
301.356
301.358
301.36
301.363
301.366
301.37
301.374
301.378
301.382
301.387
301.392
301.398
301.404
301.41
301.416
301.423
301.43
301.438
301.446
301.454
301.463
301.472
301.481
301.491
301.501
301.512
301.523
301.534
301.546
301.558
301.571
301.584
301.597
301.611
301.626
301.641
301.656
301.672
301.689
301.706
301.724
301.742
301.761
301.78
301.801
301.822
301.843
301.866
301.889
301.913
301.937
301.963
301.989
302.017
302.045
302.074
302.104
302.136
302.168
302.201
302.236
302.272
302.308
302.346
302.386
302.426
302.468
302.511
302.555
302.6
302.647
302.695
302.745
302.795
302.847
302.9
302.955
303.01
303.067
303.125
303.183
303.243
303.304
303.365
303.427
303.49
303.553
303.616
303.68
303.743
303.807
303.87
303.933
303.994
304.055
304.115
304.173
304.229
304.284
304.335
304.383
304.427
304.466
304.5
304.526
304.543
304.55
304.545
302.209
302.207
302.199
302.184
302.164
302.14
302.114
302.085
302.054
302.024
301.992
301.961
301.931
301.901
301.873
301.845
301.818
301.792
301.768
301.745
301.723
301.701
301.681
301.663
301.645
301.628
301.611
301.596
301.581
301.568
301.554
301.542
301.53
301.518
301.507
301.497
301.487
301.477
301.467
301.458
301.449
301.441
301.432
301.424
301.416
301.408
301.4
301.392
301.384
301.377
301.37
301.362
301.355
301.348
301.341
301.334
301.328
301.321
301.314
301.308
301.302
301.296
301.29
301.284
301.278
301.273
301.267
301.262
301.257
301.252
301.248
301.243
301.239
301.235
301.232
301.228
301.225
301.222
301.22
301.217
301.215
301.214
301.212
301.211
301.21
301.209
301.209
301.209
301.209
301.21
301.211
301.212
301.214
301.215
301.218
301.22
301.223
301.226
301.23
301.233
301.238
301.242
301.247
301.252
301.258
301.263
301.27
301.276
301.283
301.29
301.298
301.306
301.314
301.323
301.332
301.342