/*--------------------------------*- C++ -*----------------------------------*\
  =========                 |
  \\      /  F ield         | OpenFOAM: The Open Source CFD Toolbox
   \\    /   O peration     | Website:  https://openfoam.org
    \\  /    A nd           | Version:  8
     \\/     M anipulation  |
\*---------------------------------------------------------------------------*/
FoamFile
{
    version     2.0;
    format      ascii;
    class       volVectorField;
    location    "2800";
    object      U;
}
// * * * * * * * * * * * * * * * * * * * * * * * * * * * * * * * * * * * * * //

dimensions      [0 1 -1 0 0 0 0];

internalField   nonuniform List<vector> 
46000
(
(0.00101683 7.5893e-07 -0.00105524)
(0.00505551 2.77356e-07 -0.00274715)
(0.00938864 1.49513e-07 -0.002769)
(0.0123885 1.13437e-07 -0.001786)
(0.0137499 1.0739e-07 -0.000681824)
(0.0136442 1.07152e-07 0.000292459)
(0.0123184 1.08044e-07 0.00108455)
(0.0100268 1.10328e-07 0.00170519)
(0.00697691 1.11847e-07 0.00218726)
(0.00334298 1.10793e-07 0.00256083)
(-0.000755525 1.07204e-07 0.00284505)
(-0.0052006 1.02323e-07 0.00305619)
(-0.00991495 9.74366e-08 0.00321414)
(-0.0148388 9.25708e-08 0.00333302)
(-0.0199228 8.77345e-08 0.00342166)
(-0.0251297 8.30646e-08 0.00348663)
(-0.0304293 7.86641e-08 0.00353289)
(-0.0357974 7.44755e-08 0.00356418)
(-0.0412141 7.05218e-08 0.00358331)
(-0.0466629 6.69094e-08 0.00359239)
(-0.0521298 6.37988e-08 0.003593)
(-0.0576026 6.12362e-08 0.00358632)
(-0.0630705 5.91541e-08 0.0035732)
(-0.0685238 5.74317e-08 0.00355428)
(-0.0739534 5.58863e-08 0.00353)
(-0.0793509 5.43922e-08 0.00350067)
(-0.0847081 5.28273e-08 0.0034665)
(-0.0900169 5.11647e-08 0.00342762)
(-0.0952696 4.9391e-08 0.00338413)
(-0.100459 4.75263e-08 0.00333607)
(-0.105576 4.55822e-08 0.00328348)
(-0.110614 4.36022e-08 0.00322639)
(-0.115566 4.16097e-08 0.00316481)
(-0.120423 3.96128e-08 0.00309879)
(-0.125179 3.76284e-08 0.00302837)
(-0.129825 3.56729e-08 0.00295361)
(-0.134355 3.37615e-08 0.0028746)
(-0.138761 3.19075e-08 0.00279143)
(-0.143036 3.01324e-08 0.00270422)
(-0.147175 2.84313e-08 0.00261312)
(-0.151169 2.68057e-08 0.00251829)
(-0.155013 2.52523e-08 0.00241991)
(-0.158702 2.37676e-08 0.0023182)
(-0.162229 2.23234e-08 0.00221336)
(-0.165589 2.09278e-08 0.00210563)
(-0.168777 1.9586e-08 0.00199527)
(-0.17179 1.82894e-08 0.00188253)
(-0.174623 1.70598e-08 0.00176768)
(-0.177272 1.58904e-08 0.00165101)
(-0.179736 1.47797e-08 0.00153279)
(-0.18201 1.37459e-08 0.00141332)
(-0.184094 1.27806e-08 0.00129287)
(-0.185985 1.18839e-08 0.00117174)
(-0.187683 1.10607e-08 0.00105021)
(-0.189187 1.0311e-08 0.000928565)
(-0.190497 9.63815e-09 0.000807087)
(-0.191612 9.03046e-09 0.000686051)
(-0.192535 8.48456e-09 0.000565725)
(-0.193266 8.00546e-09 0.000446365)
(-0.193806 7.57646e-09 0.000328201)
(-0.194159 7.20756e-09 0.000211396)
(-0.194326 6.87875e-09 9.60294e-05)
(-0.19431 6.62506e-09 -1.75732e-05)
(-0.194115 6.44146e-09 -0.000128961)
(-0.193743 6.29626e-09 -0.000238037)
(-0.193198 6.19112e-09 -0.000344801)
(-0.192485 6.13272e-09 -0.000449121)
(-0.191608 6.1244e-09 -0.000550833)
(-0.19057 6.16783e-09 -0.00064979)
(-0.189377 6.25467e-09 -0.000745861)
(-0.188033 6.38992e-09 -0.000838934)
(-0.186544 6.54689e-09 -0.000928914)
(-0.184914 6.74226e-09 -0.00101572)
(-0.18315 6.96937e-09 -0.00109927)
(-0.181256 7.22822e-09 -0.00117952)
(-0.179239 7.5088e-09 -0.00125642)
(-0.177103 7.81111e-09 -0.00132992)
(-0.174854 8.14017e-09 -0.0014)
(-0.172498 8.49765e-09 -0.00146663)
(-0.170041 8.87687e-09 -0.00152982)
(-0.167488 9.28786e-09 -0.00158955)
(-0.164846 9.71894e-09 -0.00164583)
(-0.162119 1.01751e-08 -0.00169868)
(-0.159313 1.06481e-08 -0.00174811)
(-0.156435 1.11461e-08 -0.00179415)
(-0.153488 1.16693e-08 -0.00183684)
(-0.15048 1.21926e-08 -0.00187621)
(-0.147415 1.27293e-08 -0.00191231)
(-0.144298 1.32677e-08 -0.00194519)
(-0.141135 1.38096e-08 -0.0019749)
(-0.13793 1.43482e-08 -0.0020015)
(-0.134689 1.4887e-08 -0.00202506)
(-0.131416 1.54158e-08 -0.00204565)
(-0.128117 1.59463e-08 -0.00206334)
(-0.124795 1.6477e-08 -0.0020782)
(-0.121455 1.69994e-08 -0.00209032)
(-0.118101 1.75169e-08 -0.00209978)
(-0.114737 1.80245e-08 -0.00210666)
(-0.111368 1.85356e-08 -0.00211105)
(-0.107996 1.90367e-08 -0.00211304)
(-0.104627 1.95395e-08 -0.00211273)
(-0.101262 2.00275e-08 -0.00211021)
(-0.097906 2.04955e-08 -0.00210557)
(-0.0945615 2.09535e-08 -0.00209892)
(-0.0912316 2.13966e-08 -0.00209035)
(-0.0879192 2.18198e-08 -0.00207997)
(-0.0846269 2.22363e-08 -0.00206786)
(-0.0813571 2.26295e-08 -0.00205414)
(-0.0781123 2.29894e-08 -0.00203891)
(-0.0748945 2.33627e-08 -0.00202226)
(-0.0717059 2.3706e-08 -0.00200429)
(-0.0685483 2.40293e-08 -0.0019851)
(-0.0654233 2.43627e-08 -0.00196478)
(-0.0623327 2.46628e-08 -0.00194344)
(-0.0592777 2.49595e-08 -0.00192117)
(-0.0562596 2.5263e-08 -0.00189804)
(-0.0532797 2.55432e-08 -0.00187416)
(-0.0503389 2.58267e-08 -0.00184959)
(-0.0474382 2.60836e-08 -0.00182443)
(-0.0445783 2.63405e-08 -0.00179875)
(-0.0417598 2.66008e-08 -0.00177261)
(-0.0389834 2.68545e-08 -0.00174608)
(-0.0362496 2.70881e-08 -0.00171921)
(-0.0335587 2.73252e-08 -0.00169207)
(-0.0309112 2.75589e-08 -0.0016647)
(-0.0283071 2.77961e-08 -0.00163713)
(-0.0257469 2.80267e-08 -0.0016094)
(-0.0232307 2.82773e-08 -0.00158153)
(-0.0207585 2.84979e-08 -0.00155354)
(-0.0183307 2.87119e-08 -0.00152543)
(-0.0159473 2.8936e-08 -0.0014972)
(-0.0136084 2.91869e-08 -0.00146884)
(-0.0113143 2.94346e-08 -0.00144034)
(-0.00906516 2.96622e-08 -0.00141166)
(-0.00686117 2.98564e-08 -0.00138279)
(-0.00470272 3.00707e-08 -0.00135378)
(-0.00258957 3.03086e-08 -0.0013253)
(-0.000522098 3.03789e-08 -0.00129648)
(0.00150045 3.02648e-08 -0.00126531)
(0.00347289 3.02312e-08 -0.00123238)
(0.00539694 3.03486e-08 -0.00119882)
(0.00727036 3.05332e-08 -0.0011646)
(0.00909207 3.07515e-08 -0.0011296)
(0.0108605 3.10168e-08 -0.00109371)
(0.0125741 3.13393e-08 -0.00105678)
(0.0142308 3.17358e-08 -0.00101869)
(0.0158286 3.21828e-08 -0.000979284)
(0.0173651 3.26635e-08 -0.00093843)
(0.0188377 3.31881e-08 -0.000895986)
(0.0202436 3.37833e-08 -0.000851816)
(0.0215796 3.44225e-08 -0.000805786)
(0.0228427 3.51493e-08 -0.000757769)
(0.0240292 3.59503e-08 -0.000707644)
(0.0251355 3.67818e-08 -0.000655302)
(0.0261577 3.7691e-08 -0.000600648)
(0.0270919 3.86476e-08 -0.0005436)
(0.0279337 3.96584e-08 -0.000484096)
(0.028679 4.07503e-08 -0.000422097)
(0.0293233 4.19099e-08 -0.000357588)
(0.0298624 4.31508e-08 -0.000290585)
(0.0302918 4.44493e-08 -0.000221146)
(0.0306072 4.58158e-08 -0.000149376)
(0.0308045 4.72569e-08 -7.54425e-05)
(0.0308795 4.86078e-08 4.68705e-07)
(0.0308293 5.02446e-08 7.83806e-05)
(0.0306494 5.21927e-08 0.000158204)
(0.0303366 5.40913e-08 0.00023959)
(0.029888 5.60985e-08 0.000322217)
(0.0293011 5.82045e-08 0.000405698)
(0.0285742 6.04395e-08 0.000489591)
(0.0277061 6.27903e-08 0.000573397)
(0.0266967 6.52772e-08 0.000656556)
(0.0255465 6.78598e-08 0.000738442)
(0.0242572 7.05518e-08 0.000818355)
(0.0228317 7.33329e-08 0.000895518)
(0.0212739 7.62034e-08 0.000969067)
(0.0195895 7.91228e-08 0.00103805)
(0.0177856 8.21317e-08 0.00110139)
(0.0158712 8.52977e-08 0.00115793)
(0.0138572 8.86616e-08 0.00120635)
(0.011757 9.22912e-08 0.00124517)
(0.00958616 9.62341e-08 0.00127277)
(0.00736347 1.00443e-07 0.00128728)
(0.00511085 1.04926e-07 0.00128659)
(0.00285419 1.09499e-07 0.00126828)
(0.000624522 1.1363e-07 0.00122884)
(-0.00154677 1.16634e-07 0.00116247)
(-0.00360781 1.19297e-07 0.0010662)
(-0.00551668 1.22619e-07 0.000938611)
(-0.00721392 1.26407e-07 0.000775647)
(-0.00863378 1.30755e-07 0.000571069)
(-0.00969931 1.35402e-07 0.000318963)
(-0.0103227 1.40214e-07 1.57147e-05)
(-0.0104084 1.44741e-07 -0.000337201)
(-0.00986263 1.49272e-07 -0.000726088)
(-0.00861655 1.54428e-07 -0.00111449)
(-0.00666231 1.5965e-07 -0.00141322)
(-0.00415664 1.63347e-07 -0.00142063)
(-0.00160704 1.73831e-07 -0.000868522)
(-0.000119341 7.6239e-08 -0.000124254)
(0.00101569 7.58924e-07 -0.00105629)
(0.0050543 2.77351e-07 -0.00274822)
(0.0093882 1.4951e-07 -0.00276967)
(0.0123883 1.13435e-07 -0.00178653)
(0.0137497 1.07388e-07 -0.000682284)
(0.0136439 1.0715e-07 0.000292042)
(0.0123181 1.08042e-07 0.00108417)
(0.0100266 1.10327e-07 0.00170483)
(0.00697674 1.11845e-07 0.00218692)
(0.00334283 1.10792e-07 0.00256051)
(-0.000755647 1.07202e-07 0.00284475)
(-0.00520069 1.02321e-07 0.00305591)
(-0.009915 9.74354e-08 0.00321387)
(-0.0148388 9.25697e-08 0.00333277)
(-0.0199228 8.77335e-08 0.00342142)
(-0.0251297 8.30636e-08 0.00348641)
(-0.0304293 7.86633e-08 0.00353269)
(-0.0357973 7.44748e-08 0.00356399)
(-0.041214 7.0521e-08 0.00358312)
(-0.0466628 6.69088e-08 0.00359221)
(-0.0521296 6.37982e-08 0.00359283)
(-0.0576023 6.12356e-08 0.00358616)
(-0.0630702 5.91536e-08 0.00357305)
(-0.0685235 5.74312e-08 0.00355414)
(-0.0739532 5.58858e-08 0.00352987)
(-0.0793506 5.43917e-08 0.00350054)
(-0.0847078 5.28268e-08 0.00346638)
(-0.0900166 5.11642e-08 0.00342751)
(-0.0952693 4.93906e-08 0.00338402)
(-0.100458 4.75259e-08 0.00333596)
(-0.105576 4.55819e-08 0.00328338)
(-0.110614 4.36019e-08 0.00322629)
(-0.115565 4.16093e-08 0.00316471)
(-0.120423 3.96125e-08 0.0030987)
(-0.125178 3.76281e-08 0.00302828)
(-0.129824 3.56727e-08 0.00295353)
(-0.134354 3.37613e-08 0.00287451)
(-0.13876 3.19072e-08 0.00279134)
(-0.143036 3.01322e-08 0.00270413)
(-0.147174 2.84311e-08 0.00261303)
(-0.151169 2.68055e-08 0.00251821)
(-0.155013 2.52521e-08 0.00241983)
(-0.158701 2.37675e-08 0.00231812)
(-0.162228 2.23232e-08 0.00221328)
(-0.165588 2.09277e-08 0.00210555)
(-0.168777 1.95858e-08 0.00199519)
(-0.171789 1.82893e-08 0.00188245)
(-0.174622 1.70597e-08 0.00176761)
(-0.177272 1.58903e-08 0.00165093)
(-0.179735 1.47796e-08 0.00153271)
(-0.18201 1.37458e-08 0.00141323)
(-0.184093 1.27805e-08 0.00129278)
(-0.185985 1.18838e-08 0.00117165)
(-0.187683 1.10606e-08 0.00105012)
(-0.189186 1.03109e-08 0.000928477)
(-0.190496 9.63809e-09 0.000806998)
(-0.191612 9.0304e-09 0.00068596)
(-0.192534 8.48451e-09 0.000565632)
(-0.193265 8.00541e-09 0.000446271)
(-0.193806 7.57641e-09 0.000328105)
(-0.194158 7.20752e-09 0.000211298)
(-0.194325 6.87871e-09 9.59291e-05)
(-0.19431 6.62502e-09 -1.76755e-05)
(-0.194114 6.44142e-09 -0.000129066)
(-0.193742 6.29622e-09 -0.000238143)
(-0.193198 6.19108e-09 -0.000344909)
(-0.192485 6.13269e-09 -0.000449231)
(-0.191607 6.12437e-09 -0.000550946)
(-0.190569 6.1678e-09 -0.000649905)
(-0.189376 6.25463e-09 -0.000745978)
(-0.188032 6.38988e-09 -0.000839054)
(-0.186543 6.54685e-09 -0.000929036)
(-0.184914 6.74222e-09 -0.00101584)
(-0.18315 6.96933e-09 -0.0010994)
(-0.181256 7.22818e-09 -0.00117965)
(-0.179238 7.50876e-09 -0.00125655)
(-0.177102 7.81107e-09 -0.00133005)
(-0.174853 8.14013e-09 -0.00140013)
(-0.172498 8.4976e-09 -0.00146677)
(-0.170041 8.87682e-09 -0.00152996)
(-0.167488 9.28781e-09 -0.0015897)
(-0.164845 9.71889e-09 -0.00164598)
(-0.162118 1.01751e-08 -0.00169883)
(-0.159313 1.0648e-08 -0.00174826)
(-0.156434 1.11461e-08 -0.00179431)
(-0.153488 1.16692e-08 -0.001837)
(-0.150479 1.21925e-08 -0.00187637)
(-0.147414 1.27292e-08 -0.00191247)
(-0.144297 1.32676e-08 -0.00194535)
(-0.141134 1.38095e-08 -0.00197506)
(-0.13793 1.43482e-08 -0.00200167)
(-0.134689 1.48869e-08 -0.00202524)
(-0.131416 1.54157e-08 -0.00204583)
(-0.128116 1.59463e-08 -0.00206352)
(-0.124794 1.64769e-08 -0.00207838)
(-0.121454 1.69993e-08 -0.00209051)
(-0.1181 1.75169e-08 -0.00209996)
(-0.114737 1.80244e-08 -0.00210685)
(-0.111367 1.85355e-08 -0.00211124)
(-0.107996 1.90366e-08 -0.00211324)
(-0.104626 1.95394e-08 -0.00211293)
(-0.101262 2.00274e-08 -0.00211041)
(-0.0979056 2.04954e-08 -0.00210578)
(-0.0945611 2.09534e-08 -0.00209913)
(-0.0912313 2.13965e-08 -0.00209056)
(-0.0879188 2.18197e-08 -0.00208018)
(-0.0846265 2.22362e-08 -0.00206808)
(-0.0813567 2.26294e-08 -0.00205437)
(-0.0781119 2.29893e-08 -0.00203913)
(-0.0748942 2.33626e-08 -0.00202248)
(-0.0717055 2.37059e-08 -0.00200452)
(-0.0685479 2.40292e-08 -0.00198533)
(-0.065423 2.43626e-08 -0.00196502)
(-0.0623323 2.46626e-08 -0.00194368)
(-0.0592773 2.49594e-08 -0.00192141)
(-0.0562593 2.52629e-08 -0.00189829)
(-0.0532794 2.55431e-08 -0.00187441)
(-0.0503386 2.58266e-08 -0.00184985)
(-0.0474379 2.60835e-08 -0.00182469)
(-0.0445779 2.63404e-08 -0.00179901)
(-0.0417595 2.66007e-08 -0.00177287)
(-0.0389831 2.68544e-08 -0.00174634)
(-0.0362493 2.7088e-08 -0.00171949)
(-0.0335584 2.73251e-08 -0.00169235)
(-0.0309108 2.75588e-08 -0.00166498)
(-0.0283068 2.7796e-08 -0.00163741)
(-0.0257466 2.80265e-08 -0.00160969)
(-0.0232303 2.82772e-08 -0.00158182)
(-0.0207582 2.84978e-08 -0.00155383)
(-0.0183304 2.87118e-08 -0.00152572)
(-0.015947 2.89359e-08 -0.0014975)
(-0.0136081 2.91868e-08 -0.00146914)
(-0.011314 2.94345e-08 -0.00144064)
(-0.00906485 2.96621e-08 -0.00141197)
(-0.00686087 2.98563e-08 -0.0013831)
(-0.00470241 3.00707e-08 -0.0013541)
(-0.00258927 3.03086e-08 -0.00132562)
(-0.0005218 3.03788e-08 -0.0012968)
(0.00150074 3.02647e-08 -0.00126564)
(0.00347319 3.02311e-08 -0.00123271)
(0.00539723 3.03485e-08 -0.00119915)
(0.00727066 3.05331e-08 -0.00116493)
(0.00909236 3.07514e-08 -0.00112994)
(0.0108608 3.10167e-08 -0.00109405)
(0.0125744 3.13392e-08 -0.00105712)
(0.0142311 3.17357e-08 -0.00101903)
(0.0158289 3.21827e-08 -0.000979629)
(0.0173654 3.26634e-08 -0.000938776)
(0.018838 3.3188e-08 -0.000896335)
(0.0202438 3.37833e-08 -0.000852168)
(0.0215799 3.44225e-08 -0.000806141)
(0.022843 3.51492e-08 -0.000758126)
(0.0240295 3.59502e-08 -0.000708003)
(0.0251358 3.67818e-08 -0.000655665)
(0.026158 3.76909e-08 -0.000601014)
(0.0270921 3.86475e-08 -0.000543969)
(0.027934 3.96583e-08 -0.000484469)
(0.0286793 4.07502e-08 -0.000422473)
(0.0293236 4.19098e-08 -0.000357967)
(0.0298627 4.31507e-08 -0.000290968)
(0.0302921 4.44493e-08 -0.000221533)
(0.0306075 4.58157e-08 -0.000149767)
(0.0308048 4.72569e-08 -7.58375e-05)
(0.0308798 4.86078e-08 6.9717e-08)
(0.0308296 5.02446e-08 7.79771e-05)
(0.0306497 5.21927e-08 0.000157795)
(0.0303369 5.40912e-08 0.000239177)
(0.0298882 5.60985e-08 0.000321798)
(0.0293013 5.82044e-08 0.000405273)
(0.0285744 6.04395e-08 0.00048916)
(0.0277064 6.27903e-08 0.00057296)
(0.026697 6.52771e-08 0.000656113)
(0.0255468 6.78598e-08 0.000737992)
(0.0242575 7.05517e-08 0.000817898)
(0.0228319 7.33329e-08 0.000895054)
(0.0212741 7.62033e-08 0.000968595)
(0.0195897 7.91227e-08 0.00103757)
(0.0177858 8.21316e-08 0.00110091)
(0.0158714 8.52976e-08 0.00115743)
(0.0138574 8.86616e-08 0.00120584)
(0.0117571 9.22911e-08 0.00124466)
(0.00958631 9.6234e-08 0.00127224)
(0.00736361 1.00443e-07 0.00128674)
(0.00511098 1.04926e-07 0.00128604)
(0.00285431 1.09499e-07 0.00126772)
(0.000624622 1.1363e-07 0.00122827)
(-0.00154668 1.16634e-07 0.00116188)
(-0.00360773 1.19297e-07 0.00106561)
(-0.00551661 1.22619e-07 0.000938008)
(-0.00721387 1.26407e-07 0.000775031)
(-0.00863374 1.30755e-07 0.000570438)
(-0.00969928 1.35402e-07 0.000318316)
(-0.0103227 1.40214e-07 1.50476e-05)
(-0.0104084 1.44741e-07 -0.00033789)
(-0.00986265 1.49272e-07 -0.0007268)
(-0.0086166 1.54428e-07 -0.00111523)
(-0.00666241 1.59649e-07 -0.00141399)
(-0.00415681 1.63346e-07 -0.00142142)
(-0.00160749 1.7383e-07 -0.000869311)
(-0.000119684 7.62388e-08 -0.000124881)
(0.00259497 4.0335e-07 -0.00533169)
(0.00623041 2.54527e-08 -0.00657336)
(0.00803233 3.28535e-09 -0.00510306)
(0.00867648 -1.06782e-08 -0.0027802)
(0.0082052 -1.40248e-08 -0.000474052)
(0.0068017 -1.43404e-08 0.00152879)
(0.00459847 -1.33769e-08 0.00316868)
(0.00172311 -1.19874e-08 0.00447536)
(-0.00171245 -1.1118e-08 0.00550454)
(-0.00559837 -1.10684e-08 0.00630954)
(-0.00985202 -1.12619e-08 0.0069359)
(-0.0144005 -1.12458e-08 0.00742043)
(-0.0191857 -1.10622e-08 0.0077957)
(-0.0241586 -1.08771e-08 0.00808602)
(-0.0292793 -1.0713e-08 0.00830926)
(-0.034515 -1.05441e-08 0.00847911)
(-0.0398389 -1.03269e-08 0.00860593)
(-0.0452285 -1.00641e-08 0.00869767)
(-0.0506652 -9.71816e-09 0.00876035)
(-0.0561329 -9.26074e-09 0.00879856)
(-0.0616179 -8.67607e-09 0.00881576)
(-0.0671081 -7.98419e-09 0.00881452)
(-0.0725926 -7.23174e-09 0.00879677)
(-0.0780617 -6.47118e-09 0.0087639)
(-0.0835061 -5.75079e-09 0.00871691)
(-0.0889173 -5.09218e-09 0.00865651)
(-0.0942871 -4.51529e-09 0.00858319)
(-0.0996074 -4.02007e-09 0.00849724)
(-0.104871 -3.59236e-09 0.00839888)
(-0.110069 -3.21797e-09 0.00828824)
(-0.115195 -2.88774e-09 0.0081654)
(-0.12024 -2.59e-09 0.00803042)
(-0.125199 -2.31934e-09 0.00788339)
(-0.130062 -2.07948e-09 0.0077244)
(-0.134823 -1.86418e-09 0.00755356)
(-0.139475 -1.6672e-09 0.00737103)
(-0.14401 -1.48852e-09 0.00717704)
(-0.148422 -1.31776e-09 0.00697183)
(-0.152704 -1.15532e-09 0.00675573)
(-0.156848 -9.9372e-10 0.0065291)
(-0.160849 -8.3836e-10 0.00629236)
(-0.164701 -6.84251e-10 0.00604599)
(-0.168398 -5.36381e-10 0.00579051)
(-0.171933 -3.99322e-10 0.0055265)
(-0.175304 -2.73904e-10 0.00525456)
(-0.178503 -1.5763e-10 0.00497534)
(-0.181528 -5.00847e-11 0.00468953)
(-0.184374 4.79022e-11 0.00439782)
(-0.187037 1.35085e-10 0.00410096)
(-0.189515 2.15619e-10 0.00379968)
(-0.191806 2.88261e-10 0.00349474)
(-0.193906 3.50515e-10 0.00318691)
(-0.195814 4.05292e-10 0.00287694)
(-0.19753 4.50931e-10 0.00256561)
(-0.199051 4.88677e-10 0.00225366)
(-0.200379 5.18947e-10 0.00194184)
(-0.201513 5.40495e-10 0.00163088)
(-0.202454 5.5332e-10 0.00132149)
(-0.203202 5.58255e-10 0.00101438)
(-0.20376 5.5239e-10 0.000710207)
(-0.204128 5.40296e-10 0.000409621)
(-0.20431 5.25712e-10 0.000113249)
(-0.204307 4.95754e-10 -0.000178426)
(-0.204122 4.54586e-10 -0.000465045)
(-0.203759 4.15082e-10 -0.000746154)
(-0.203222 3.73503e-10 -0.00102125)
(-0.202513 3.26526e-10 -0.00128989)
(-0.201637 2.77057e-10 -0.00155164)
(-0.200598 2.25097e-10 -0.00180612)
(-0.199401 1.68152e-10 -0.002053)
(-0.198051 1.09547e-10 -0.00229198)
(-0.196551 4.13855e-11 -0.00252281)
(-0.194907 -2.84376e-11 -0.00274527)
(-0.193125 -1.01585e-10 -0.00295916)
(-0.191208 -1.79719e-10 -0.00316434)
(-0.189164 -2.60762e-10 -0.00336067)
(-0.186996 -3.44716e-10 -0.00354806)
(-0.18471 -4.29503e-10 -0.00372644)
(-0.182313 -5.15955e-10 -0.00389578)
(-0.179808 -6.05734e-10 -0.00405604)
(-0.177203 -6.92608e-10 -0.00420725)
(-0.174501 -7.82394e-10 -0.00434943)
(-0.171709 -8.69277e-10 -0.00448263)
(-0.168833 -9.59488e-10 -0.00460692)
(-0.165877 -1.04763e-09 -0.00472239)
(-0.162846 -1.13619e-09 -0.00482916)
(-0.159747 -1.22558e-09 -0.00492734)
(-0.156584 -1.31706e-09 -0.00501707)
(-0.153362 -1.40689e-09 -0.00509851)
(-0.150087 -1.49588e-09 -0.00517181)
(-0.146762 -1.58447e-09 -0.00523717)
(-0.143394 -1.67557e-09 -0.00529477)
(-0.139987 -1.76209e-09 -0.0053448)
(-0.136546 -1.84863e-09 -0.00538748)
(-0.133074 -1.93267e-09 -0.00542302)
(-0.129576 -2.01423e-09 -0.00545165)
(-0.126057 -2.09414e-09 -0.00547359)
(-0.12252 -2.17239e-09 -0.00548908)
(-0.11897 -2.24981e-09 -0.00549837)
(-0.11541 -2.32475e-09 -0.00550169)
(-0.111844 -2.39554e-09 -0.0054993)
(-0.108276 -2.46883e-09 -0.00549144)
(-0.104709 -2.54296e-09 -0.00547838)
(-0.101145 -2.6171e-09 -0.00546036)
(-0.0975892 -2.68958e-09 -0.00543764)
(-0.0940433 -2.7604e-09 -0.00541047)
(-0.0905104 -2.82957e-09 -0.00537912)
(-0.0869932 -2.89874e-09 -0.00534382)
(-0.0834941 -2.96543e-09 -0.00530484)
(-0.0800155 -3.02879e-09 -0.00526243)
(-0.0765598 -3.08717e-09 -0.00521681)
(-0.0731289 -3.14473e-09 -0.00516825)
(-0.0697248 -3.19647e-09 -0.00511696)
(-0.0663493 -3.24488e-09 -0.00506318)
(-0.0630041 -3.28831e-09 -0.00500713)
(-0.0596909 -3.32425e-09 -0.00494903)
(-0.0564109 -3.35937e-09 -0.00488907)
(-0.0531656 -3.38616e-09 -0.00482746)
(-0.0499561 -3.41296e-09 -0.00476438)
(-0.0467836 -3.43643e-09 -0.00470001)
(-0.043649 -3.45658e-09 -0.00463451)
(-0.0405532 -3.47257e-09 -0.00456802)
(-0.0374971 -3.48522e-09 -0.00450069)
(-0.0344814 -3.49705e-09 -0.00443263)
(-0.0315068 -3.50638e-09 -0.00436395)
(-0.0285739 -3.50822e-09 -0.00429472)
(-0.0256833 -3.50923e-09 -0.00422504)
(-0.0228355 -3.5144e-09 -0.00415493)
(-0.020031 -3.5229e-09 -0.00408444)
(-0.0172702 -3.52974e-09 -0.00401358)
(-0.0145537 -3.53241e-09 -0.00394234)
(-0.011882 -3.53093e-09 -0.0038707)
(-0.00925548 -3.53944e-09 -0.00379863)
(-0.00667469 -3.55712e-09 -0.00372609)
(-0.00414012 -3.57813e-09 -0.00365308)
(-0.00165243 -3.59166e-09 -0.00357988)
(0.000788639 -3.62435e-09 -0.0035061)
(0.00317973 -3.67286e-09 -0.00343079)
(0.00552076 -3.68556e-09 -0.00335308)
(0.00781035 -3.65578e-09 -0.00327307)
(0.0100474 -3.61767e-09 -0.00319118)
(0.0122302 -3.5804e-09 -0.00310714)
(0.0143571 -3.52896e-09 -0.0030207)
(0.0164263 -3.47336e-09 -0.00293153)
(0.0184356 -3.40859e-09 -0.00283928)
(0.0203827 -3.33715e-09 -0.00274361)
(0.0222651 -3.27155e-09 -0.00264413)
(0.0240801 -3.20429e-09 -0.00254048)
(0.0258246 -3.13786e-09 -0.00243227)
(0.0274953 -3.06895e-09 -0.00231913)
(0.0290889 -3.00254e-09 -0.00220069)
(0.0306016 -2.93197e-09 -0.00207658)
(0.0320294 -2.86474e-09 -0.00194646)
(0.0333682 -2.80171e-09 -0.00181002)
(0.0346136 -2.74286e-09 -0.00166695)
(0.0357611 -2.68987e-09 -0.00151701)
(0.0368059 -2.64191e-09 -0.00135997)
(0.0377432 -2.59147e-09 -0.00119568)
(0.0385682 -2.5469e-09 -0.00102402)
(0.0392756 -2.50738e-09 -0.000844969)
(0.0398606 -2.4754e-09 -0.000658564)
(0.0403181 -2.44597e-09 -0.000464957)
(0.0406431 -2.42075e-09 -0.0002644)
(0.0408308 -2.39221e-09 -5.73013e-05)
(0.0408763 -2.37361e-09 0.000156208)
(0.0407756 -2.37442e-09 0.000375909)
(0.0405244 -2.36194e-09 0.00060109)
(0.0401193 -2.35789e-09 0.000830981)
(0.039557 -2.35894e-09 0.00106467)
(0.038835 -2.37345e-09 0.00130112)
(0.0379515 -2.39809e-09 0.0015391)
(0.0369052 -2.43455e-09 0.00177723)
(0.0356961 -2.49287e-09 0.00201394)
(0.0343251 -2.56973e-09 0.00224747)
(0.0327942 -2.66179e-09 0.00247582)
(0.0311069 -2.78751e-09 0.00269677)
(0.0292679 -2.93683e-09 0.00290781)
(0.0272839 -3.10477e-09 0.00310616)
(0.0251631 -3.27623e-09 0.00328868)
(0.0229161 -3.44285e-09 0.00345186)
(0.0205555 -3.59118e-09 0.00359176)
(0.0180968 -3.72458e-09 0.00370389)
(0.0155581 -3.83966e-09 0.00378318)
(0.012961 -3.975e-09 0.00382378)
(0.0103306 -4.17426e-09 0.00381891)
(0.0076966 -4.48115e-09 0.00376049)
(0.00509242 -4.74453e-09 0.00363786)
(0.00255785 -4.8618e-09 0.00344069)
(0.000136737 -4.88486e-09 0.0031579)
(-0.00211745 -4.77816e-09 0.0027751)
(-0.00414378 -4.56498e-09 0.002277)
(-0.00587732 -4.38994e-09 0.00164715)
(-0.00724389 -4.38937e-09 0.000870439)
(-0.00816485 -4.42129e-09 -6.05473e-05)
(-0.00855558 -4.2014e-09 -0.00113051)
(-0.00833616 -3.76327e-09 -0.00228264)
(-0.00743625 -3.18594e-09 -0.00336858)
(-0.00581739 -2.1641e-09 -0.00404807)
(-0.00351261 3.14829e-09 -0.00368884)
(-0.000823017 -9.30376e-08 -0.00170409)
(0.00259398 4.03342e-07 -0.00533262)
(0.00622972 2.54516e-08 -0.00657391)
(0.008032 3.2852e-09 -0.00510331)
(0.0086762 -1.06778e-08 -0.00278035)
(0.00820498 -1.40243e-08 -0.000474169)
(0.00680151 -1.43399e-08 0.00152869)
(0.00459832 -1.33765e-08 0.00316858)
(0.001723 -1.19871e-08 0.00447526)
(-0.00171252 -1.11177e-08 0.00550445)
(-0.00559841 -1.10681e-08 0.00630945)
(-0.00985203 -1.12616e-08 0.00693582)
(-0.0144005 -1.12455e-08 0.00742035)
(-0.0191856 -1.10619e-08 0.00779562)
(-0.0241585 -1.08768e-08 0.00808594)
(-0.0292791 -1.07127e-08 0.00830919)
(-0.0345148 -1.05438e-08 0.00847904)
(-0.0398387 -1.03267e-08 0.00860587)
(-0.0452283 -1.00639e-08 0.00869761)
(-0.0506649 -9.71796e-09 0.00876029)
(-0.0561326 -9.26055e-09 0.00879851)
(-0.0616176 -8.67589e-09 0.0088157)
(-0.0671078 -7.98402e-09 0.00881447)
(-0.0725923 -7.23159e-09 0.00879672)
(-0.0780613 -6.47105e-09 0.00876385)
(-0.0835057 -5.75068e-09 0.00871687)
(-0.0889169 -5.09208e-09 0.00865647)
(-0.0942867 -4.51519e-09 0.00858315)
(-0.099607 -4.01999e-09 0.0084972)
(-0.10487 -3.59229e-09 0.00839885)
(-0.110068 -3.21791e-09 0.0082882)
(-0.115194 -2.88768e-09 0.00816536)
(-0.12024 -2.58995e-09 0.00803039)
(-0.125198 -2.31929e-09 0.00788336)
(-0.130062 -2.07944e-09 0.00772437)
(-0.134823 -1.86414e-09 0.00755353)
(-0.139475 -1.66717e-09 0.00737101)
(-0.14401 -1.4885e-09 0.00717701)
(-0.148422 -1.31774e-09 0.00697181)
(-0.152703 -1.1553e-09 0.00675571)
(-0.156848 -9.93702e-10 0.00652907)
(-0.160849 -8.38344e-10 0.00629234)
(-0.1647 -6.84238e-10 0.00604597)
(-0.168397 -5.36371e-10 0.00579049)
(-0.171933 -3.99315e-10 0.00552648)
(-0.175303 -2.73899e-10 0.00525454)
(-0.178502 -1.57627e-10 0.00497532)
(-0.181527 -5.00837e-11 0.0046895)
(-0.184373 4.79013e-11 0.0043978)
(-0.187036 1.35082e-10 0.00410093)
(-0.189515 2.15616e-10 0.00379965)
(-0.191805 2.88255e-10 0.00349472)
(-0.193905 3.50509e-10 0.00318688)
(-0.195814 4.05285e-10 0.00287692)
(-0.197529 4.50922e-10 0.00256558)
(-0.199051 4.88668e-10 0.00225363)
(-0.200379 5.18938e-10 0.00194181)
(-0.201513 5.40485e-10 0.00163085)
(-0.202453 5.5331e-10 0.00132147)
(-0.203202 5.58245e-10 0.00101435)
(-0.203759 5.5238e-10 0.000710176)
(-0.204128 5.40286e-10 0.000409589)
(-0.204309 5.25703e-10 0.000113217)
(-0.204306 4.95746e-10 -0.000178459)
(-0.204122 4.54578e-10 -0.000465079)
(-0.203759 4.15075e-10 -0.000746189)
(-0.203221 3.73497e-10 -0.00102129)
(-0.202512 3.2652e-10 -0.00128993)
(-0.201636 2.77052e-10 -0.00155167)
(-0.200598 2.25093e-10 -0.00180616)
(-0.199401 1.6815e-10 -0.00205304)
(-0.19805 1.09545e-10 -0.00229202)
(-0.19655 4.13848e-11 -0.00252285)
(-0.194907 -2.84371e-11 -0.00274531)
(-0.193124 -1.01583e-10 -0.0029592)
(-0.191208 -1.79716e-10 -0.00316438)
(-0.189163 -2.60758e-10 -0.00336071)
(-0.186995 -3.44711e-10 -0.0035481)
(-0.18471 -4.29496e-10 -0.00372649)
(-0.182312 -5.15947e-10 -0.00389582)
(-0.179808 -6.05724e-10 -0.00405609)
(-0.177202 -6.92597e-10 -0.0042073)
(-0.174501 -7.82382e-10 -0.00434947)
(-0.171709 -8.69263e-10 -0.00448267)
(-0.168832 -9.59473e-10 -0.00460697)
(-0.165876 -1.04761e-09 -0.00472244)
(-0.162846 -1.13617e-09 -0.00482921)
(-0.159746 -1.22556e-09 -0.00492739)
(-0.156583 -1.31704e-09 -0.00501712)
(-0.153361 -1.40686e-09 -0.00509856)
(-0.150086 -1.49586e-09 -0.00517187)
(-0.146762 -1.58445e-09 -0.00523723)
(-0.143394 -1.67554e-09 -0.00529482)
(-0.139987 -1.76207e-09 -0.00534486)
(-0.136545 -1.8486e-09 -0.00538754)
(-0.133073 -1.93265e-09 -0.00542308)
(-0.129576 -2.0142e-09 -0.00545171)
(-0.126056 -2.09411e-09 -0.00547365)
(-0.12252 -2.17236e-09 -0.00548914)
(-0.11897 -2.24978e-09 -0.00549843)
(-0.11541 -2.32472e-09 -0.00550175)
(-0.111844 -2.39551e-09 -0.00549936)
(-0.108276 -2.4688e-09 -0.0054915)
(-0.104708 -2.54293e-09 -0.00547844)
(-0.101145 -2.61706e-09 -0.00546042)
(-0.0975888 -2.68954e-09 -0.0054377)
(-0.0940429 -2.76037e-09 -0.00541054)
(-0.09051 -2.82953e-09 -0.00537918)
(-0.0869928 -2.89871e-09 -0.00534389)
(-0.0834937 -2.96539e-09 -0.00530491)
(-0.0800152 -3.02876e-09 -0.00526249)
(-0.0765594 -3.08714e-09 -0.00521688)
(-0.0731285 -3.14469e-09 -0.00516832)
(-0.0697244 -3.19643e-09 -0.00511703)
(-0.0663489 -3.24484e-09 -0.00506325)
(-0.0630038 -3.28827e-09 -0.0050072)
(-0.0596905 -3.32421e-09 -0.0049491)
(-0.0564106 -3.35933e-09 -0.00488915)
(-0.0531652 -3.38613e-09 -0.00482754)
(-0.0499558 -3.41293e-09 -0.00476446)
(-0.0467832 -3.4364e-09 -0.00470009)
(-0.0436486 -3.45655e-09 -0.00463459)
(-0.0405529 -3.47253e-09 -0.0045681)
(-0.0374968 -3.48519e-09 -0.00450077)
(-0.0344811 -3.49702e-09 -0.00443271)
(-0.0315065 -3.50635e-09 -0.00436403)
(-0.0285736 -3.50819e-09 -0.00429481)
(-0.025683 -3.5092e-09 -0.00422512)
(-0.0228352 -3.51437e-09 -0.00415501)
(-0.0200307 -3.52287e-09 -0.00408452)
(-0.0172699 -3.52971e-09 -0.00401366)
(-0.0145534 -3.53239e-09 -0.00394242)
(-0.0118817 -3.5309e-09 -0.00387078)
(-0.00925519 -3.53941e-09 -0.00379871)
(-0.00667441 -3.55709e-09 -0.00372618)
(-0.00413984 -3.57811e-09 -0.00365317)
(-0.00165215 -3.59163e-09 -0.00357997)
(0.000788917 -3.62432e-09 -0.00350619)
(0.00318001 -3.67283e-09 -0.00343089)
(0.00552103 -3.68554e-09 -0.00335318)
(0.00781062 -3.65576e-09 -0.00327317)
(0.0100477 -3.61765e-09 -0.00319128)
(0.0122305 -3.58038e-09 -0.00310724)
(0.0143574 -3.52894e-09 -0.0030208)
(0.0164266 -3.47334e-09 -0.00293163)
(0.0184359 -3.40857e-09 -0.00283939)
(0.020383 -3.33713e-09 -0.00274371)
(0.0222654 -3.27154e-09 -0.00264424)
(0.0240803 -3.20427e-09 -0.00254059)
(0.0258248 -3.13785e-09 -0.00243238)
(0.0274956 -3.06893e-09 -0.00231924)
(0.0290892 -3.00253e-09 -0.00220079)
(0.0306018 -2.93196e-09 -0.00207668)
(0.0320296 -2.86474e-09 -0.00194657)
(0.0333684 -2.8017e-09 -0.00181013)
(0.0346138 -2.74285e-09 -0.00166706)
(0.0357613 -2.68986e-09 -0.00151712)
(0.0368062 -2.64191e-09 -0.00136008)
(0.0377435 -2.59147e-09 -0.00119579)
(0.0385684 -2.5469e-09 -0.00102414)
(0.0392759 -2.50737e-09 -0.000845085)
(0.0398609 -2.4754e-09 -0.000658681)
(0.0403183 -2.44597e-09 -0.000465075)
(0.0406434 -2.42075e-09 -0.000264519)
(0.040831 -2.39221e-09 -5.74205e-05)
(0.0408766 -2.37361e-09 0.000156088)
(0.0407758 -2.37441e-09 0.000375787)
(0.0405247 -2.36193e-09 0.000600967)
(0.0401196 -2.35789e-09 0.000830857)
(0.0395573 -2.35893e-09 0.00106455)
(0.0388353 -2.37345e-09 0.00130099)
(0.0379517 -2.39809e-09 0.00153897)
(0.0369054 -2.43454e-09 0.0017771)
(0.0356964 -2.49287e-09 0.00201381)
(0.0343253 -2.56973e-09 0.00224734)
(0.0327945 -2.66179e-09 0.00247569)
(0.0311071 -2.7875e-09 0.00269664)
(0.0292681 -2.93683e-09 0.00290768)
(0.0272841 -3.10477e-09 0.00310602)
(0.0251633 -3.27623e-09 0.00328854)
(0.0229163 -3.44285e-09 0.00345172)
(0.0205557 -3.59118e-09 0.00359161)
(0.018097 -3.72458e-09 0.00370375)
(0.0155583 -3.83965e-09 0.00378303)
(0.0129611 -3.97499e-09 0.00382363)
(0.0103307 -4.17425e-09 0.00381875)
(0.0076967 -4.48115e-09 0.00376032)
(0.00509251 -4.74453e-09 0.00363769)
(0.00255793 -4.86179e-09 0.00344051)
(0.000136806 -4.88485e-09 0.00315771)
(-0.00211739 -4.77815e-09 0.00277491)
(-0.00414373 -4.56497e-09 0.0022768)
(-0.00587728 -4.38993e-09 0.00164693)
(-0.00724386 -4.38937e-09 0.000870199)
(-0.00816483 -4.42129e-09 -6.08112e-05)
(-0.00855558 -4.20139e-09 -0.0011308)
(-0.00833616 -3.76327e-09 -0.00228297)
(-0.00743629 -3.18593e-09 -0.00336897)
(-0.00581749 -2.16409e-09 -0.00404852)
(-0.00351297 3.14829e-09 -0.00368943)
(-0.000823489 -9.30376e-08 -0.00170478)
(0.00249335 2.61192e-07 -0.00980595)
(0.00467472 1.3227e-08 -0.00845079)
(0.00488305 1.24616e-08 -0.00532096)
(0.00420892 4.04337e-09 -0.00199023)
(0.00276994 1.02779e-09 0.00109254)