/*--------------------------------*- C++ -*----------------------------------*\
  =========                 |
  \\      /  F ield         | OpenFOAM: The Open Source CFD Toolbox
   \\    /   O peration     | Website:  https://openfoam.org
    \\  /    A nd           | Version:  8
     \\/     M anipulation  |
\*---------------------------------------------------------------------------*/
FoamFile
{
    version     2.0;
    format      ascii;
    class       volScalarField;
    location    "1200";
    object      alphat;
}
// * * * * * * * * * * * * * * * * * * * * * * * * * * * * * * * * * * * * * //

dimensions      [1 -1 -1 0 0 0 0];

internalField   nonuniform List<scalar> 
46000
(
3.29884e-08
1.64279e-07
3.52561e-07
5.55998e-07
7.67101e-07
9.87712e-07
1.20782e-06
1.42316e-06
1.63058e-06
1.83048e-06
2.01913e-06
2.19625e-06
2.36182e-06
2.5154e-06
2.65664e-06
2.78527e-06
2.90118e-06
3.00433e-06
3.0948e-06
3.17276e-06
3.23849e-06
3.29231e-06
3.33464e-06
3.36592e-06
3.38666e-06
3.39833e-06
3.40468e-06
3.40321e-06
3.39388e-06
3.37724e-06
3.35394e-06
3.32472e-06
3.29029e-06
3.25135e-06
3.20862e-06
3.16274e-06
3.11435e-06
3.06406e-06
3.01242e-06
2.95995e-06
2.90712e-06
2.85436e-06
2.80205e-06
2.75054e-06
2.70012e-06
2.65104e-06
2.60353e-06
2.55776e-06
2.51387e-06
2.472e-06
2.43222e-06
2.39459e-06
2.35917e-06
2.32596e-06
2.29498e-06
2.26623e-06
2.23968e-06
2.21531e-06
2.19306e-06
2.17294e-06
2.15486e-06
2.139e-06
2.12594e-06
2.11482e-06
2.10553e-06
2.09804e-06
2.09232e-06
2.08832e-06
2.08603e-06
2.08541e-06
2.08644e-06
2.0891e-06
2.09336e-06
2.09921e-06
2.10664e-06
2.11561e-06
2.12613e-06
2.13819e-06
2.15176e-06
2.16685e-06
2.18345e-06
2.20155e-06
2.22116e-06
2.24226e-06
2.26487e-06
2.28896e-06
2.31456e-06
2.34165e-06
2.37024e-06
2.40033e-06
2.43192e-06
2.46501e-06
2.4996e-06
2.53569e-06
2.57328e-06
2.61235e-06
2.65292e-06
2.69497e-06
2.73849e-06
2.78348e-06
2.82992e-06
2.8778e-06
2.92711e-06
2.97783e-06
3.02994e-06
3.08342e-06
3.13825e-06
3.19442e-06
3.25188e-06
3.31063e-06
3.37064e-06
3.43188e-06
3.49433e-06
3.55796e-06
3.62276e-06
3.6887e-06
3.75576e-06
3.82392e-06
3.89319e-06
3.96353e-06
4.03494e-06
4.10742e-06
4.18098e-06
4.25561e-06
4.33132e-06
4.40813e-06
4.48606e-06
4.56514e-06
4.64539e-06
4.72685e-06
4.80956e-06
4.89357e-06
4.97892e-06
5.06569e-06
5.15392e-06
5.24367e-06
5.33503e-06
5.42804e-06
5.52278e-06
5.61931e-06
5.7177e-06
5.81801e-06
5.92028e-06
6.02455e-06
6.13085e-06
6.23918e-06
6.34953e-06
6.46185e-06
6.57606e-06
6.69206e-06
6.80969e-06
6.92874e-06
7.04893e-06
7.16995e-06
7.29139e-06
7.41276e-06
7.53349e-06
7.65293e-06
7.77031e-06
7.88477e-06
7.99533e-06
8.10091e-06
8.20032e-06
8.29225e-06
8.37532e-06
8.44801e-06
8.50878e-06
8.55599e-06
8.588e-06
8.60324e-06
8.60061e-06
8.58188e-06
8.54261e-06
8.48063e-06
8.39451e-06
8.28313e-06
8.14562e-06
7.98138e-06
7.79011e-06
7.5718e-06
7.32683e-06
7.05592e-06
6.76021e-06
6.44118e-06
6.10073e-06
5.7411e-06
5.36487e-06
4.9749e-06
4.57425e-06
4.16611e-06
3.75368e-06
3.33971e-06
2.92388e-06
2.5099e-06
2.10233e-06
1.69159e-06
1.27845e-06
8.68559e-07
4.39511e-07
9.07693e-08
3.29847e-08
1.64263e-07
3.52531e-07
5.55958e-07
7.67054e-07
9.87659e-07
1.20776e-06
1.4231e-06
1.63052e-06
1.83041e-06
2.01907e-06
2.19618e-06
2.36175e-06
2.51534e-06
2.65658e-06
2.78522e-06
2.90113e-06
3.00428e-06
3.09476e-06
3.17273e-06
3.23845e-06
3.29228e-06
3.33461e-06
3.36589e-06
3.38664e-06
3.39831e-06
3.40465e-06
3.40319e-06
3.39386e-06
3.37722e-06
3.35393e-06
3.3247e-06
3.29027e-06
3.25134e-06
3.2086e-06
3.16272e-06
3.11433e-06
3.06404e-06
3.0124e-06
2.95993e-06
2.9071e-06
2.85434e-06
2.80203e-06
2.75051e-06
2.70009e-06
2.65101e-06
2.6035e-06
2.55772e-06
2.51384e-06
2.47196e-06
2.43218e-06
2.39456e-06
2.35913e-06
2.32592e-06
2.29495e-06
2.26619e-06
2.23964e-06
2.21527e-06
2.19303e-06
2.1729e-06
2.15482e-06
2.13896e-06
2.1259e-06
2.11478e-06
2.1055e-06
2.098e-06
2.09228e-06
2.08828e-06
2.08599e-06
2.08537e-06
2.0864e-06
2.08906e-06
2.09332e-06
2.09917e-06
2.1066e-06
2.11557e-06
2.12609e-06
2.13814e-06
2.15172e-06
2.16681e-06
2.18341e-06
2.20151e-06
2.22112e-06
2.24222e-06
2.26482e-06
2.28892e-06
2.31452e-06
2.34161e-06
2.3702e-06
2.4003e-06
2.43189e-06
2.46498e-06
2.49957e-06
2.53566e-06
2.57324e-06
2.61232e-06
2.65289e-06
2.69493e-06
2.73846e-06
2.78345e-06
2.82989e-06
2.87777e-06
2.92708e-06
2.9778e-06
3.02991e-06
3.08339e-06
3.13823e-06
3.19439e-06
3.25186e-06
3.31061e-06
3.37062e-06
3.43186e-06
3.49431e-06
3.55794e-06
3.62274e-06
3.68868e-06
3.75574e-06
3.82391e-06
3.89317e-06
3.96351e-06
4.03493e-06
4.10741e-06
4.18097e-06
4.2556e-06
4.33131e-06
4.40813e-06
4.48606e-06
4.56513e-06
4.64538e-06
4.72684e-06
4.80955e-06
4.89356e-06
4.97892e-06
5.06569e-06
5.15392e-06
5.24367e-06
5.33502e-06
5.42804e-06
5.52278e-06
5.61931e-06
5.7177e-06
5.81801e-06
5.92028e-06
6.02455e-06
6.13085e-06
6.23918e-06
6.34953e-06
6.46185e-06
6.57606e-06
6.69206e-06
6.80969e-06
6.92874e-06
7.04893e-06
7.16995e-06
7.29138e-06
7.41275e-06
7.53349e-06
7.65293e-06
7.77031e-06
7.88477e-06
7.99533e-06
8.10091e-06
8.20032e-06
8.29226e-06
8.37532e-06
8.44802e-06
8.50878e-06
8.55599e-06
8.588e-06
8.60325e-06
8.60062e-06
8.58189e-06
8.54262e-06
8.48065e-06
8.39453e-06
8.28315e-06
8.14565e-06
7.98141e-06
7.79014e-06
7.57184e-06
7.32687e-06
7.05596e-06
6.76025e-06
6.44122e-06
6.10077e-06
5.74114e-06
5.36491e-06
4.97493e-06
4.57428e-06
4.16614e-06
3.75371e-06
3.33973e-06
2.9239e-06
2.50991e-06
2.10234e-06
1.6916e-06
1.27846e-06
8.68558e-07
4.39511e-07
9.07687e-08
1.55237e-07
7.18358e-06
1.5875e-05
2.24533e-05
2.78962e-05
3.23638e-05
3.61812e-05
3.95482e-05
4.25407e-05
4.52157e-05
4.7622e-05
4.97835e-05
5.17168e-05
5.34381e-05
5.49618e-05
5.63014e-05
5.74692e-05
5.8477e-05
5.93359e-05
6.00562e-05
6.0648e-05
6.11208e-05
6.14831e-05
6.17423e-05
6.19018e-05
6.19511e-05
6.18882e-05
6.17561e-05
6.15659e-05
6.13267e-05
6.10459e-05
6.07301e-05
6.03848e-05
6.00154e-05
5.96262e-05
5.92215e-05
5.88051e-05
5.83802e-05
5.79499e-05
5.7517e-05
5.7084e-05
5.66531e-05
5.62264e-05
5.58058e-05
5.53929e-05
5.49892e-05
5.45961e-05
5.42148e-05
5.38463e-05
5.34916e-05
5.31516e-05
5.28268e-05
5.25179e-05
5.22254e-05
5.19497e-05
5.16911e-05
5.14497e-05
5.12257e-05
5.10192e-05
5.08297e-05
5.0656e-05
5.04932e-05
5.03416e-05
5.0206e-05
5.0088e-05
4.9988e-05
4.99061e-05
4.98421e-05
4.97959e-05
4.97673e-05
4.97561e-05
4.97621e-05
4.97851e-05
4.98248e-05
4.98811e-05
4.99536e-05
5.00422e-05
5.01467e-05
5.02668e-05
5.04023e-05
5.05529e-05
5.07184e-05
5.08987e-05
5.10935e-05
5.13025e-05
5.15256e-05
5.17624e-05
5.20129e-05
5.22766e-05
5.25535e-05
5.28431e-05
5.31454e-05
5.34599e-05
5.37864e-05
5.41247e-05
5.44743e-05
5.48351e-05
5.52066e-05
5.55886e-05
5.59806e-05
5.63824e-05
5.67935e-05
5.72135e-05
5.76422e-05
5.8079e-05
5.85237e-05
5.89757e-05
5.94348e-05
5.99005e-05
6.03725e-05
6.08504e-05
6.13338e-05
6.18225e-05
6.2316e-05
6.28142e-05
6.33167e-05
6.38233e-05
6.43338e-05
6.4848e-05
6.53657e-05
6.58869e-05
6.64113e-05
6.69391e-05
6.74701e-05
6.80045e-05
6.85421e-05
6.90833e-05
6.96279e-05
7.01763e-05
7.07286e-05
7.1285e-05
7.18458e-05
7.24111e-05
7.29814e-05
7.35568e-05
7.41376e-05
7.47242e-05
7.53168e-05
7.59157e-05
7.6521e-05
7.7133e-05
7.77519e-05
7.83775e-05
7.901e-05
7.96492e-05
8.02947e-05
8.09463e-05
8.16032e-05
8.22648e-05
8.29301e-05
8.35979e-05
8.42665e-05
8.49344e-05
8.55993e-05
8.62589e-05
8.69103e-05
8.75503e-05
8.81755e-05
8.87817e-05
8.93646e-05
8.99193e-05
9.04406e-05
9.09228e-05
9.13598e-05
9.17452e-05
9.20722e-05
9.23336e-05
9.25223e-05
9.26305e-05
9.26506e-05
9.25755e-05
9.23706e-05
9.20374e-05
9.15736e-05
9.09743e-05
9.02342e-05
8.9348e-05
8.83106e-05
8.71179e-05
8.57665e-05
8.42537e-05
8.2578e-05
8.07387e-05
7.87358e-05
7.65703e-05
7.42438e-05
7.17582e-05
6.91154e-05
6.63168e-05
6.3362e-05
6.02478e-05
5.69658e-05
5.35007e-05
4.97923e-05
4.56877e-05
4.08837e-05
3.47316e-05
2.58417e-05
1.27259e-05
3.91071e-07
1.55221e-07
7.18258e-06
1.5873e-05
2.24509e-05
2.78935e-05
3.23611e-05
3.61784e-05
3.95454e-05
4.2538e-05
4.5213e-05
4.76194e-05
4.97809e-05
5.17143e-05
5.34356e-05
5.49594e-05
5.62991e-05
5.74671e-05
5.8475e-05
5.93339e-05
6.00543e-05
6.06462e-05
6.11191e-05
6.14815e-05
6.17408e-05
6.19003e-05
6.19496e-05
6.18868e-05
6.17547e-05
6.15646e-05
6.13254e-05
6.10447e-05
6.07288e-05
6.03836e-05
6.00141e-05
5.9625e-05
5.92203e-05
5.88038e-05
5.83789e-05
5.79486e-05
5.75157e-05
5.70827e-05
5.66518e-05
5.62251e-05
5.58044e-05
5.53915e-05
5.49878e-05
5.45947e-05
5.42134e-05
5.38449e-05
5.34902e-05
5.31501e-05
5.28253e-05
5.25164e-05
5.22239e-05
5.19482e-05
5.16895e-05
5.14481e-05
5.12242e-05
5.10176e-05
5.08281e-05
5.06544e-05
5.04916e-05
5.034e-05
5.02043e-05
5.00864e-05
4.99864e-05
4.99044e-05
4.98404e-05
4.97942e-05
4.97655e-05
4.97543e-05
4.97603e-05
4.97833e-05
4.9823e-05
4.98792e-05
4.99518e-05
5.00404e-05
5.01448e-05
5.02649e-05
5.04004e-05
5.0551e-05
5.07165e-05
5.08968e-05
5.10916e-05
5.13006e-05
5.15236e-05
5.17605e-05
5.20109e-05
5.22747e-05
5.25515e-05
5.28412e-05
5.31434e-05
5.3458e-05
5.37845e-05
5.41228e-05
5.44724e-05
5.48332e-05
5.52047e-05
5.55867e-05
5.59788e-05
5.63805e-05
5.67916e-05
5.72117e-05
5.76404e-05
5.80772e-05
5.85219e-05
5.89739e-05
5.9433e-05
5.98988e-05
6.03708e-05
6.08487e-05
6.13322e-05
6.18208e-05
6.23144e-05
6.28126e-05
6.33151e-05
6.38218e-05
6.43323e-05
6.48465e-05
6.53642e-05
6.58854e-05
6.64099e-05
6.69377e-05
6.74687e-05
6.80031e-05
6.85408e-05
6.90819e-05
6.96266e-05
7.0175e-05
7.07273e-05
7.12838e-05
7.18445e-05
7.24099e-05
7.29801e-05
7.35556e-05
7.41364e-05
7.4723e-05
7.53156e-05
7.59145e-05
7.65199e-05
7.71319e-05
7.77507e-05
7.83764e-05
7.90089e-05
7.96481e-05
8.02936e-05
8.09452e-05
8.16021e-05
8.22638e-05
8.29291e-05
8.35968e-05
8.42655e-05
8.49333e-05
8.55982e-05
8.62578e-05
8.69092e-05
8.75492e-05
8.81744e-05
8.87806e-05
8.93635e-05
8.99182e-05
9.04395e-05
9.09217e-05
9.13587e-05
9.17441e-05
9.20711e-05
9.23326e-05
9.25212e-05
9.26295e-05
9.26497e-05
9.25745e-05
9.23696e-05
9.20365e-05
9.15727e-05
9.09735e-05
9.02335e-05
8.93473e-05
8.83099e-05
8.71173e-05
8.57659e-05
8.42532e-05
8.25776e-05
8.07382e-05
7.87353e-05
7.65699e-05
7.42434e-05
7.17578e-05
6.91151e-05
6.63165e-05
6.33617e-05
6.02475e-05
5.69655e-05
5.35004e-05
4.9792e-05
4.56874e-05
4.08834e-05
3.47313e-05
2.58415e-05
1.2726e-05
3.9107e-07
3.27517e-07
1.56418e-05
3.703e-05
5.34764e-05
6.65407e-05
7.72508e-05
8.63269e-05
9.41959e-05
0.000101106
0.000107204
0.000112596
0.000117354
0.000121538
0.000125196
0.000128372
0.000131107
0.000133439
0.000135402
0.000137029
0.000138352
0.000139401
0.000140201
0.000140779
0.000141154
0.000141342
0.000141348
0.000141171
0.000140871
0.000140472
0.000139993
0.000139451
0.000138859
0.000138228
0.000137568
0.000136887
0.000136191
0.000135487
0.000134779
0.000134072
0.000133368
0.000132671
0.000131983
0.000131306
0.000130642
0.000129993
0.000129359
0.000128742
0.000128144
0.000127564
0.000127004
0.000126464
0.000125946
0.000125449
0.000124975
0.000124524
0.000124095
0.00012369
0.000123308
0.00012295
0.000122614
0.000122299
0.000122
0.000121715
0.000121451
0.000121211
0.000120997
0.000120809
0.000120648
0.000120513
0.000120405
0.000120324
0.00012027
0.000120243
0.000120243
0.000120269
0.000120322
0.000120401
0.000120506
0.000120637
0.000120794
0.000120977
0.000121185
0.000121418
0.000121676
0.000121959
0.000122267
0.000122599
0.000122954
0.000123334
0.000123737
0.000124163
0.000124612
0.000125083
0.000125576
0.00012609
0.000126626
0.000127182
0.000127758
0.000128353
0.000128967
0.000129599
0.000130249
0.000130916
0.000131599
0.000132297
0.000133011
0.000133739
0.00013448
0.000135234
0.000136
0.000136778
0.000137567
0.000138367
0.000139176
0.000139995
0.000140823
0.000141659
0.000142504
0.000143357
0.000144218
0.000145086
0.000145962
0.000146845
0.000147736
0.000148635
0.000149542
0.000150456
0.000151379
0.00015231
0.000153251
0.0001542
0.000155159
0.000156129
0.000157109
0.0001581
0.000159103
0.000160118
0.000161145
0.000162184
0.000163237
0.000164303
0.000165382
0.000166474
0.000167579
0.000168696
0.000169825
0.000170963
0.000172111
0.000173267
0.000174427
0.000175591
0.000176754
0.000177913
0.000179064
0.000180203
0.000181324
0.000182421
0.000183488
0.000184518
0.000185502
0.000186432
0.0001873
0.000188094
0.000188806
0.000189423
0.000189935
0.000190329
0.000190594
0.000190716
0.000190681
0.000190476
0.000190063
0.000189436
0.000188586
0.000187507
0.000186187
0.000184618
0.000182792
0.0001807
0.000178334
0.000175687
0.000172751
0.00016952
0.000165988
0.000162146
0.000157987
0.000153499
0.000148668
0.000143476
0.000137892
0.000131875
0.000125352
0.000118206
0.000110215
0.000100969
8.97168e-05
7.50281e-05
5.43414e-05
2.51691e-05
8.34012e-07
3.2749e-07
1.564e-05
3.70252e-05
5.34698e-05
6.65332e-05
7.72428e-05
8.63188e-05
9.41877e-05
0.000101098
0.000107197
0.000112588
0.000117347
0.000121531
0.000125189
0.000128366
0.000131101
0.000133433
0.000135396
0.000137024
0.000138347
0.000139396
0.000140197
0.000140775
0.00014115
0.000141338
0.000141345
0.000141168
0.000140869
0.00014047
0.000139991
0.000139449
0.000138856
0.000138225
0.000137565
0.000136884
0.000136189
0.000135485
0.000134777
0.000134069
0.000133366
0.000132669
0.00013198
0.000131303
0.000130639
0.00012999
0.000129356
0.000128739
0.00012814
0.00012756
0.000127
0.000126461
0.000125942
0.000125446
0.000124971
0.00012452
0.000124091
0.000123686
0.000123304
0.000122945
0.000122609
0.000122294
0.000121996
0.00012171
0.000121446
0.000121207
0.000120992
0.000120804
0.000120643
0.000120508
0.0001204
0.000120319
0.000120265
0.000120238
0.000120238
0.000120264
0.000120317
0.000120396
0.000120501
0.000120632
0.000120789
0.000120971
0.000121179
0.000121413
0.000121671
0.000121954
0.000122261
0.000122593
0.000122949
0.000123329
0.000123732
0.000124158
0.000124607
0.000125078
0.000125571
0.000126085
0.000126621
0.000127177
0.000127753
0.000128348
0.000128962
0.000129595
0.000130245
0.000130912
0.000131595
0.000132293
0.000133007
0.000133735
0.000134476
0.00013523
0.000135996
0.000136774
0.000137563
0.000138363
0.000139172
0.000139991
0.000140819
0.000141656
0.000142501
0.000143354
0.000144215
0.000145083
0.000145959
0.000146843
0.000147734
0.000148633
0.000149539
0.000150454
0.000151377
0.000152308
0.000153248
0.000154198
0.000155157
0.000156127
0.000157107
0.000158098
0.000159101
0.000160116
0.000161143
0.000162182
0.000163235
0.000164301
0.00016538
0.000166472
0.000167577
0.000168694
0.000169823
0.000170962
0.00017211
0.000173265
0.000174426
0.000175589
0.000176752
0.000177911
0.000179063
0.000180201
0.000181322
0.000182419
0.000183486
0.000184516
0.0001855
0.000186431
0.000187298
0.000188093
0.000188804
0.000189421
0.000189933
0.000190328
0.000190593
0.000190715
0.00019068
0.000190474
0.000190062
0.000189435
0.000188586
0.000187506
0.000186186
0.000184618
0.000182792
0.0001807
0.000178334
0.000175687
0.000172751
0.000169521
0.000165989
0.000162147
0.000157988
0.0001535
0.000148669
0.000143477
0.000137893
0.000131876
0.000125353
0.000118207
0.000110216
0.000100969
8.97173e-05
7.50283e-05
5.43415e-05
2.51695e-05
8.34012e-07
4.99453e-07
2.16726e-05
5.26127e-05
7.75845e-05
9.76302e-05
0.000114295
0.00012851
0.000140839
0.000151635
0.000161131
0.000169489
0.000176833
0.000183259
0.00018885
0.000193678
0.000197809
0.000201307
0.00020423
0.000206632
0.000208566
0.000210081
0.000211222
0.000212031
0.000212544
0.000212792
0.000212798
0.000212581
0.000212197
0.000211678
0.000211053
0.000210344
0.000209571
0.000208752
0.0002079
0.000207026
0.00020614
0.000205249
0.000204359
0.000203475
0.000202602
0.000201741
0.000200896
0.000200068
0.000199258
0.000198469
0.0001977
0.000196952
0.000196226
0.000195522
0.000194841
0.000194181
0.000193545
0.000192931
0.00019234
0.000191772
0.000191227
0.000190705
0.000190205
0.000189728
0.000189272
0.000188836
0.000188417
0.000188014
0.000187631
0.000187271
0.000186936
0.000186628
0.000186347
0.000186094
0.00018587
0.000185675
0.000185511
0.000185376
0.000185272
0.000185198
0.000185156
0.000185144
0.000185164
0.000185216
0.000185299
0.000185414
0.000185561
0.000185741
0.000185952
0.000186195
0.000186471
0.000186779
0.000187118
0.00018749
0.000187894
0.000188329
0.000188795
0.000189293
0.000189821
0.00019038
0.000190968
0.000191586
0.000192232
0.000192907
0.000193609
0.000194338
0.000195092
0.000195872
0.000196677
0.000197504
0.000198355
0.000199227
0.00020012
0.000201033
0.000201966
0.000202917
0.000203886
0.000204871
0.000205873
0.000206891
0.000207924
0.000208972
0.000210034
0.00021111
0.000212199
0.000213302
0.000214419
0.000215548
0.000216691
0.000217848
0.000219018
0.000220203
0.000221402
0.000222615
0.000223844
0.000225088
0.000226349
0.000227626
0.000228921
0.000230234
0.000231566
0.000232916
0.000234286
0.000235676
0.000237086
0.000238516
0.000239966
0.000241435
0.000242924
0.000244431
0.000245954
0.000247493
0.000249045
0.000250608
0.000252178
0.000253751
0.000255324
0.000256891
0.000258447
0.000259985
0.000261498
0.000262977
0.000264413
0.000265798
0.00026712
0.000268367
0.000269528
0.00027059
0.000271538
0.000272359
0.000273037
0.000273557
0.000273902
0.000274057
0.000274002
0.000273719
0.000273177
0.00027236
0.000271255
0.000269849
0.00026813
0.000266083
0.000263696
0.000260956
0.000257849
0.000254361
0.000250478
0.000246184
0.000241461
0.00023629
0.000230645
0.000224497
0.000217807
0.000210526
0.000202583
0.00019388
0.000184266
0.000173505
0.000161209
0.000146732
0.000128993
0.000106197
7.55892e-05
3.46261e-05
1.3184e-06
4.99419e-07
2.16705e-05
5.26064e-05
7.75753e-05
9.76191e-05
0.000114283
0.000128498
0.000140826
0.000151623
0.000161118
0.000169477
0.000176821
0.000183248
0.000188839
0.000193668
0.0001978
0.000201299
0.000204222
0.000206625
0.000208559
0.000210075
0.000211216
0.000212026
0.00021254
0.000212788
0.000212795
0.000212578
0.000212195
0.000211676
0.00021105
0.000210341
0.000209569
0.00020875
0.000207898
0.000207024
0.000206138
0.000205247
0.000204357
0.000203473
0.000202599
0.000201738
0.000200893
0.000200065
0.000199255
0.000198466
0.000197697
0.000196949
0.000196222
0.000195518
0.000194836
0.000194177
0.00019354
0.000192926
0.000192335
0.000191767
0.000191222
0.000190699
0.0001902
0.000189722
0.000189266
0.00018883
0.000188411
0.000188007
0.000187624
0.000187264
0.000186929
0.000186621
0.00018634
0.000186087
0.000185863
0.000185668
0.000185503
0.000185369
0.000185264
0.000185191
0.000185148
0.000185137
0.000185157
0.000185208
0.000185292
0.000185407
0.000185554
0.000185733
0.000185944
0.000186188
0.000186463
0.000186771
0.000187111
0.000187483
0.000187886
0.000188322
0.000188788
0.000189286
0.000189814
0.000190373
0.000190961
0.000191579
0.000192226
0.000192901
0.000193603
0.000194332
0.000195086
0.000195866
0.000196671
0.000197499
0.000198349
0.000199222
0.000200115
0.000201028
0.000201961
0.000202912
0.000203881
0.000204867
0.000205869
0.000206887
0.00020792
0.000208968
0.00021003
0.000211106
0.000212196
0.000213299
0.000214415
0.000215545
0.000216688
0.000217845
0.000219016
0.0002202
0.000221399
0.000222612
0.000223841
0.000225086
0.000226347
0.000227624
0.000228919
0.000230232
0.000231564
0.000232914
0.000234284
0.000235674
0.000237084
0.000238514
0.000239964
0.000241433
0.000242922
0.000244429
0.000245952
0.000247491
0.000249043
0.000250606
0.000252176
0.000253749
0.000255322
0.00025689
0.000258446
0.000259983
0.000261496
0.000262975
0.000264412
0.000265796
0.000267118
0.000268365
0.000269527
0.000270588
0.000271536
0.000272357
0.000273035
0.000273556
0.000273901
0.000274056
0.000274001
0.000273719
0.000273176
0.000272359
0.000271255
0.000269849
0.00026813
0.000266083
0.000263697
0.000260957
0.00025785
0.000254362
0.00025048
0.000246186
0.000241463
0.000236292
0.000230647
0.000224499
0.00021781
0.000210528
0.000202586
0.000193883
0.000184269
0.000173507
0.000161211
0.000146734
0.000128995
0.000106198
7.55899e-05
3.46268e-05
1.3184e-06
6.68537e-07
2.63126e-05
6.41271e-05
9.58268e-05
0.000121867
0.000143773
0.000162574
0.000178931
0.000193274
0.0002059
0.000217018
0.000226791
0.000235347
0.000242794
0.00024923
0.000254742
0.000259412
0.000263319
0.000266535
0.000269132
0.000271174
0.000272724
0.000273839
0.000274569
0.000274961
0.000275054
0.000274882
0.000274501
0.00027395
0.000273265
0.000272474
0.000271603
0.000270674
0.000269704
0.000268707
0.000267695
0.000266677
0.00026566
0.000264652
0.000263656
0.000262675
0.000261713
0.000260772
0.000259852
0.000258954
0.00025808
0.000257229
0.000256401
0.000255597
0.000254816
0.000254058
0.000253322
0.000252608
0.000251916
0.000251246
0.000250596
0.000249967
0.000249357
0.000248767
0.000248195
0.00024764
0.000247101
0.000246576
0.000246069
0.000245583
0.000245118
0.000244677
0.000244261
0.000243871
0.000243509
0.000243176
0.000242872
0.000242598
0.000242356
0.000242145
0.000241968
0.000241823
0.000241713
0.000241637
0.000241597
0.000241592
0.000241624
0.000241692
0.000241798
0.000241941
0.000242123
0.000242343
0.000242601
0.000242899
0.000243235
0.00024361
0.000244024
0.000244477
0.000244968
0.000245498
0.000246066
0.000246671
0.000247313
0.000247992
0.000248706
0.000249456
0.000250239
0.000251056
0.000251905
0.000252785
0.000253697
0.000254637
0.000255607
0.000256603
0.000257627
0.000258676
0.00025975
0.000260848
0.00026197
0.000263113
0.000264279
0.000265466
0.000266673
0.000267901
0.000269149
0.000270417
0.000271704
0.000273011
0.000274338
0.000275685
0.000277051
0.000278438
0.000279846
0.000281275
0.000282726
0.000284199
0.000285695
0.000287215
0.000288759
0.000290327
0.000291921
0.000293542
0.000295188
0.000296862
0.000298562
0.000300289
0.000302042
0.000303822
0.000305627
0.000307455
0.000309306
0.000311177
0.000313065
0.000314967
0.000316878
0.000318795
0.000320712
0.000322622
0.000324519
0.000326394
0.000328239
0.000330043
0.000331795
0.000333485
0.000335099
0.000336624
0.000338044
0.000339345
0.000340511
0.000341524
0.000342367
0.000343021
0.000343468
0.000343688
0.00034366
0.000343363
0.000342766
0.000341851
0.000340601
0.000338999
0.000337027
0.000334668
0.000331904
0.000328716
0.000325084
0.000320986
0.0003164
0.000311299
0.000305653
0.000299425
0.000292573
0.000285047
0.00027678
0.00026769
0.000257664
0.000246548
0.000234116
0.000220033
0.000203776
0.000184525
0.000160983
0.000131141
9.21339e-05
4.1915e-05
1.8423e-06
6.68497e-07
2.63102e-05
6.412e-05
9.5816e-05
0.000121854
0.000143758
0.000162559
0.000178915
0.000193258
0.000205884
0.000217003
0.000226776
0.000235333
0.000242781
0.000249218
0.00025473
0.000259402
0.000263309
0.000266527
0.000269124
0.000271167
0.000272718
0.000273834
0.000274565
0.000274958
0.000275051
0.00027488
0.000274499
0.000273949
0.000273263
0.000272473
0.000271603
0.000270674
0.000269703
0.000268706
0.000267694
0.000266676
0.00026566
0.000264651
0.000263655
0.000262674
0.000261712
0.00026077
0.00025985
0.000258952
0.000258078
0.000257226
0.000256399
0.000255594
0.000254813
0.000254054
0.000253318
0.000252604
0.000251912
0.000251241
0.000250591
0.000249962
0.000249352
0.000248762
0.000248189
0.000247634
0.000247095
0.00024657
0.000246063
0.000245576
0.000245111
0.000244669
0.000244253
0.000243864
0.000243502
0.000243168
0.000242864
0.00024259
0.000242348
0.000242137
0.000241959
0.000241815
0.000241705
0.000241629
0.000241588
0.000241584
0.000241615
0.000241684
0.000241789
0.000241933
0.000242115
0.000242335
0.000242593
0.00024289
0.000243227
0.000243602
0.000244016
0.000244469
0.000244961
0.000245491
0.000246059
0.000246664
0.000247306
0.000247985
0.0002487
0.000249449
0.000250233
0.000251049
0.000251899
0.00025278
0.000253691
0.000254632
0.000255601
0.000256598
0.000257622
0.000258671
0.000259746
0.000260844
0.000261965
0.000263109
0.000264275
0.000265462
0.00026667
0.000267898
0.000269146
0.000270414
0.000271701
0.000273008
0.000274335
0.000275682
0.000277049
0.000278436
0.000279844
0.000281273
0.000282724
0.000284197
0.000285693
0.000287213
0.000288757
0.000290326
0.00029192
0.00029354
0.000295187
0.00029686
0.00029856
0.000300287
0.000302041
0.000303821
0.000305625
0.000307454
0.000309305
0.000311176
0.000313064
0.000314965
0.000316877
0.000318794
0.000320711
0.000322621
0.000324518
0.000326393
0.000328237
0.000330041
0.000331794
0.000333484
0.000335098
0.000336622
0.000338043
0.000339344
0.00034051
0.000341523
0.000342366
0.00034302
0.000343467
0.000343688
0.00034366
0.000343363
0.000342766
0.000341852
0.000340602
0.000339
0.000337029
0.00033467
0.000331906
0.000328718
0.000325086
0.000320989
0.000316403
0.000311302
0.000305656
0.000299428
0.000292577
0.000285051
0.000276784
0.000267694
0.000257668
0.000246552
0.00023412
0.000220037
0.00020378
0.000184528
0.000160986
0.000131143
9.21351e-05
4.19159e-05
1.84231e-06
8.42167e-07
2.99141e-05
7.30678e-05
0.000110233
0.000141316
0.000167724
0.00019052
0.000210423
0.000227923
0.00024336
0.000256983
0.000268983
0.000279514
0.000288705
0.000296671
0.000303518
0.000309342
0.000314238
0.000318293
0.000321591
0.000324212
0.000326233
0.000327722
0.000328746
0.000329361
0.00032962
0.000329571
0.000329268
0.000328761
0.000328089
0.000327288
0.000326387
0.000325411
0.000324381
0.000323314
0.000322224
0.000321122
0.000320017
0.000318916
0.000317825
0.000316747
0.000315687
0.000314645
0.000313624
0.000312626
0.00031165
0.000310697
0.000309767
0.00030886
0.000307975
0.000307113
0.000306272
0.000305451
0.000304651
0.00030387
0.000303107
0.000302363
0.000301635
0.000300923
0.000300227
0.000299545
0.000298876
0.00029822
0.000297579
0.000296955
0.00029635
0.000295765
0.000295202
0.000294663
0.000294149
0.000293662
0.000293203
0.000292774
0.000292375
0.000292008
0.000291674
0.000291374
0.00029111
0.000290882
0.000290691
0.000290539
0.000290426
0.000290353
0.000290321
0.000290332
0.000290385
0.000290481
0.000290621
0.000290806
0.000291036
0.00029131
0.00029163
0.000291996
0.000292407
0.000292864
0.000293366
0.000293913
0.000294504
0.000295139
0.000295818
0.00029654
0.000297303
0.000298107
0.000298952
0.000299835
0.000300757
0.000301716
0.000302711
0.000303741
0.000304805
0.000305902
0.000307031
0.000308191
0.000309381
0.0003106
0.000311848
0.000313124
0.000314427
0.000315758
0.000317115
0.000318498
0.000319907
0.000321342
0.000322803
0.000324291
0.000325805
0.000327345
0.000328913
0.000330509
0.000332133
0.000333786
0.000335468
0.000337181
0.000338924
0.000340699
0.000342506
0.000344345
0.000346218
0.000348124
0.000350064
0.000352036
0.000354042
0.000356079
0.000358147
0.000360245
0.00036237
0.000364519
0.00036669
0.000368878
0.000371078
0.000373286
0.000375495
0.000377697
0.000379885
0.000382049
0.000384179
0.000386265
0.000388292
0.000390249
0.000392121
0.000393893
0.000395549
0.00039707
0.00039844
0.00039964
0.00040065
0.00040145
0.000402018
0.000402334
0.000402377
0.000402116
0.000401529
0.000400593
0.000399287
0.000397591
0.000395483
0.000392941
0.000389942
0.000386462
0.000382473
0.000377946
0.000372847
0.000367138
0.000360775
0.000353707
0.000345872
0.000337195
0.000327586
0.000316929
0.000305071
0.000291808
0.000276851
0.000259782
0.000239975
0.000216482
0.000187858
0.00015195
0.000105859
4.80936e-05
2.37082e-06
8.42121e-07
2.99116e-05
7.30604e-05
0.000110221
0.000141302
0.000167707
0.000190502
0.000210405
0.000227905
0.000243342
0.000256966
0.000268967
0.000279498
0.00028869
0.000296658
0.000303506
0.000309332
0.000314228
0.000318284
0.000321583
0.000324206
0.000326228
0.000327718
0.000328742
0.000329358
0.000329619
0.00032957
0.000329268
0.000328761
0.00032809
0.000327289
0.000326388
0.000325413
0.000324383
0.000323316
0.000322226
0.000321124
0.000320019
0.000318918
0.000317827
0.000316749
0.000315688
0.000314646
0.000313625
0.000312626
0.00031165
0.000310697
0.000309767
0.000308859
0.000307974
0.000307112
0.00030627
0.000305449
0.000304649
0.000303867
0.000303104
0.000302359
0.000301631
0.000300919
0.000300223
0.000299541
0.000298872
0.000298215
0.000297574
0.00029695
0.000296344
0.000295759
0.000295196
0.000294657
0.000294143
0.000293656
0.000293196
0.000292767
0.000292368
0.000292001
0.000291667
0.000291367
0.000291102
0.000290874
0.000290683
0.000290531
0.000290418
0.000290345
0.000290314
0.000290324
0.000290377
0.000290473
0.000290614
0.000290799
0.000291028
0.000291303
0.000291623
0.000291989
0.0002924
0.000292857
0.000293359
0.000293906
0.000294498
0.000295133
0.000295812
0.000296534
0.000297297
0.000298102
0.000298946
0.00029983
0.000300752
0.000301711
0.000302706
0.000303737
0.000304801
0.000305898
0.000307027
0.000308187
0.000309377
0.000310597
0.000311845
0.000313121
0.000314425
0.000315755
0.000317112
0.000318495
0.000319905
0.00032134
0.000322801
0.000324289
0.000325803
0.000327344
0.000328912
0.000330508
0.000332132
0.000333785
0.000335467
0.00033718
0.000338923
0.000340698
0.000342505
0.000344345
0.000346218
0.000348124
0.000350063
0.000352036
0.000354041
0.000356079
0.000358147
0.000360245
0.000362369
0.000364519
0.000366689
0.000368877
0.000371078
0.000373286
0.000375495
0.000377697
0.000379885
0.000382049
0.000384179
0.000386264
0.000388292
0.000390249
0.000392121
0.000393893
0.000395548
0.00039707
0.00039844
0.00039964
0.00040065
0.00040145
0.000402018
0.000402335
0.000402377
0.000402117
0.00040153
0.000400594
0.000399289
0.000397593
0.000395485
0.000392944
0.000389945
0.000386465
0.000382476
0.00037795
0.000372851
0.000367142
0.00036078
0.000353712
0.000345876
0.0003372
0.000327591
0.000316934
0.000305076
0.000291813
0.000276856
0.000259787
0.00023998
0.000216486
0.000187862
0.000151953
0.000105861
4.80948e-05
2.37083e-06
1.01734e-06
3.30069e-05
8.04756e-05
0.000122169
0.00015751
0.000187781
0.000214045
0.000237057
0.000257345
0.000275286
0.000291159
0.000305177
0.000317515
0.000328319
0.000337719
0.000345833
0.000352771
0.000358637
0.000363531
0.000367549
0.000370782
0.000373317
0.000375233
0.000376608
0.000377509
0.000378001
0.000378139
0.000377977
0.000377577
0.00037698
0.000376228
0.000375353
0.000374383
0.000373342
0.00037225
0.000371121
0.00036997
0.000368806
0.000367637
0.00036647
0.00036531
0.000364161
0.000363026
0.000361907
0.000360805
0.000359723
0.000358661
0.000357619
0.000356597
0.000355596
0.000354614
0.000353652
0.000352709
0.000351783
0.000350875
0.000349983
0.000349107
0.000348245
0.000347397
0.000346562
0.000345739
0.000344928
0.000344128
0.00034334