/*--------------------------------*- C++ -*----------------------------------*\
  =========                 |
  \\      /  F ield         | OpenFOAM: The Open Source CFD Toolbox
   \\    /   O peration     | Website:  https://openfoam.org
    \\  /    A nd           | Version:  8
     \\/     M anipulation  |
\*---------------------------------------------------------------------------*/
FoamFile
{
    version     2.0;
    format      ascii;
    class       volScalarField;
    location    "1200";
    object      epsilon;
}
// * * * * * * * * * * * * * * * * * * * * * * * * * * * * * * * * * * * * * //

dimensions      [0 2 -3 0 0 0 0];

internalField   nonuniform List<scalar> 
46000
(
0.607043
2.72177
5.83033
9.17977
12.6485
16.269
19.8757
23.4008
26.7942
30.064
33.1472
36.0421
38.7483
41.2587
43.5676
45.671
47.5668
49.2547
50.7359
52.0132
53.0909
53.9745
54.6705
55.1862
55.5296
55.7245
55.8321
55.8118
55.6629
55.3939
55.0158
54.5404
53.9794
53.3444
52.6467
51.8972
51.1062
50.2837
49.4387
48.5798
47.7147
46.8505
45.9935
45.1492
44.3227
43.5181
42.7391
41.9885
41.2689
40.5822
39.9299
39.3129
38.7321
38.1878
37.6801
37.209
36.7741
36.375
36.0111
35.6817
35.3861
35.1269
34.9138
34.7325
34.5815
34.4601
34.3677
34.3038
34.2679
34.2595
34.2783
34.3238
34.3958
34.4938
34.6176
34.7671
34.9418
35.1418
35.3667
35.6166
35.8912
36.1905
36.5144
36.863
37.2361
37.6338
38.056
38.5028
38.9741
39.4701
39.9906
40.5357
41.1053
41.6995
42.3182
42.9613
43.6288
44.3205
45.0364
45.7762
46.5398
47.3269
48.1374
48.9708
49.827
50.7056
51.6062
52.5285
53.472
54.4364
55.4213
56.4263
57.4509
58.4947
59.5575
60.6388
61.7383
62.8558
63.991
65.1437
66.3138
67.5012
68.7059
69.928
71.1676
72.425
73.7005
74.9945
76.3075
77.6401
78.993
80.3669
81.7626
83.1811
84.6234
86.0904
87.5833
89.1032
90.6511
92.2281
93.8354
95.4738
97.1441
98.847
100.583
102.352
104.154
105.988
107.853
109.747
111.668
113.612
115.576
117.552
119.536
121.519
123.492
125.445
127.364
129.236
131.045
132.773
134.402
135.909
137.272
138.467
139.468
140.249
140.782
141.043
141.012
140.719
140.092
139.094
137.703
135.899
133.668
131.001
127.891
124.339
120.349
115.935
111.112
105.906
100.346
94.4693
88.3164
81.9337
75.3708
68.6796
61.9116
55.1118
48.2756
41.4606
34.746
27.9726
21.1526
14.3818
7.28573
1.67116
0.606967
2.72151
5.82985
9.17913
12.6478
16.2681
19.8748
23.3998
26.7932
30.063
33.1462
36.0411
38.7473
41.2578
43.5667
45.6702
47.5661
49.254
50.7352
52.0126
53.0904
53.974
54.67
55.1858
55.5292
55.7241
55.8318
55.8115
55.6626
55.3936
55.0156
54.5402
53.9791
53.3441
52.6464
51.8969
51.1059
50.2834
49.4384
48.5794
47.7143
46.8501
45.993
45.1488
44.3222
43.5176
42.7386
41.988
41.2684
40.5817
39.9293
39.3124
38.7315
38.1872
37.6795
37.2084
36.7735
36.3744
36.0105
35.6811
35.3855
35.1263
34.9131
34.7319
34.5809
34.4595
34.3671
34.3032
34.2673
34.2589
34.2777
34.3232
34.3951
34.4931
34.617
34.7664
34.9411
35.1411
35.366
35.6158
35.8905
36.1898
36.5137
36.8623
37.2354
37.6331
38.0553
38.5021
38.9734
39.4694
39.9899
40.535
41.1046
41.6988
42.3175
42.9607
43.6282
44.3199
45.0358
45.7756
46.5392
47.3263
48.1368
48.9703
49.8265
50.7051
51.6057
52.528
53.4715
54.4359
55.4208
56.4258
57.4504
58.4943
59.5571
60.6384
61.7379
62.8554
63.9906
65.1433
66.3134
67.5009
68.7056
69.9277
71.1673
72.4247
73.7003
74.9943
76.3073
77.6399
78.9928
80.3667
81.7624
83.1809
84.6232
86.0902
87.5831
89.103
90.6509
92.228
93.8352
95.4736
97.1439
98.8469
100.583
102.352
104.154
105.988
107.853
109.747
111.668
113.612
115.575
117.552
119.536
121.519
123.492
125.445
127.364
129.236
131.045
132.773
134.402
135.909
137.272
138.467
139.468
140.249
140.782
141.043
141.012
140.719
140.092
139.094
137.703
135.899
133.669
131.001
127.891
124.339
120.35
115.935
111.113
105.907
100.347
94.4698
88.3169
81.9341
75.3713
68.68
61.912
55.1122
48.2758
41.4608
34.7462
27.9727
21.1526
14.3818
7.2857
1.67115
3.06468
2.54073
3.66035
4.98571
6.36661
7.79323
9.23204
10.6623
12.0543
13.4084
14.715
15.9692
17.1674
18.305
19.3777
20.3813
21.3119
22.1661
22.9408
23.6336
24.2427
24.7668
25.2056
25.5595
25.8311
26.0284
26.1641
26.2302
26.226
26.1539
26.0179
25.823
25.5748
25.2794
24.9428
24.5714
24.1712
23.7481
23.3078
22.8556
22.3966
21.9351
21.4754
21.0211
20.5753
20.1407
19.7198
19.3143
18.9259
18.5556
18.2045
17.8732
17.5619
17.271
17.0004
16.75
16.5197
16.309
16.1177
15.9453
15.7919
15.6582
15.5455
15.4507
15.3725
15.3103
15.2635
15.2317
15.2146
15.2119
15.2233
15.2486
15.2875
15.3398
15.4053
15.484
15.5757
15.6803
15.7976
15.9277
16.0704
16.2257
16.3936
16.5741
16.7672
16.9728
17.191
17.4217
17.6651
17.9212
18.1898
18.4712
18.7653
19.072
19.3915
19.7237
20.0686
20.4262
20.7965
21.1794
21.5748
21.9828
22.4031
22.8357
23.2805
23.7374
24.2061
24.6866
25.1787
25.6821
26.1968
26.7224
27.2589
27.806
28.3635
28.9313
29.5091
30.0968
30.6943
31.3015
31.9182
32.5443
33.1799
33.8249
34.4794
35.1434
35.8171
36.5005
37.194
37.8978
38.6121
39.3374
40.074
40.8224
41.583
42.3564
43.1431
43.9437
44.7588
45.5889
46.4348
47.2968
48.1754
49.0713
49.9845
50.9154
51.8639
52.83
53.8131
54.8126
55.8273
56.8559
57.8963
58.9461
60.0022
61.061
62.1179
63.1677
64.2044
65.2209
66.2092
67.1606
68.0651
68.9118
69.689
70.384
70.9835
71.4736
71.8403
72.0704
72.1534
72.0901
71.857
71.4359
70.8128
69.9762
68.9175
67.63
66.1103
64.3574
62.3736
60.1645
57.7391
55.1096
52.2915
49.3035
46.1667
42.9044
39.5418
36.1049
32.6198
29.1107
25.5971
22.106
18.6653
15.2735
12.0675
9.14414
6.74411
7.76558
3.06433
2.54073
3.6605
4.98596
6.36695
7.79364
9.23251
10.6628
12.0548
13.409
14.7156
15.9699
17.1681
18.3057
19.3785
20.3821
21.3127
22.1669
22.9416
23.6344
24.2434
24.7675
25.2063
25.5603
25.8318
26.0291
26.1648
26.2309
26.2267
26.1546
26.0185
25.8236
25.5754
25.28
24.9434
24.572
24.1717
23.7486
23.3083
22.8561
22.3971
21.9356
21.4759
21.0215
20.5757
20.1412
19.7202
19.3147
18.9263
18.556
18.2049
17.8736
17.5623
17.2714
17.0008
16.7504
16.52
16.3094
16.1181
15.9457
15.7923
15.6586
15.5459
15.4511
15.3729
15.3107
15.2639
15.2321
15.215
15.2123
15.2237
15.249
15.2879
15.3402
15.4058
15.4845
15.5762
15.6807
15.7981
15.9281
16.0709
16.2262
16.3941
16.5746
16.7677
16.9733
17.1915
17.4223
17.6657
17.9217
18.1904
18.4718
18.7658
19.0726
19.3921
19.7243
20.0693
20.4269
20.7972
21.1801
21.5755
21.9835
22.4038
22.8364
23.2812
23.7381
24.2069
24.6873
25.1794
25.6829
26.1975
26.7232
27.2596
27.8067
28.3643
28.932
29.5099
30.0976
30.6951
31.3023
31.919
32.5451
33.1807
33.8258
34.4802
35.1442
35.8179
36.5014
37.1949
37.8986
38.613
39.3382
40.0748
40.8232
41.5838
42.3572
43.1439
43.9446
44.7596
45.5898
46.4356
47.2976
48.1763
49.0721
49.9854
50.9163
51.8648
52.8309
53.814
54.8135
55.8282
56.8568
57.8972
58.947
60.0032
61.062
62.1189
63.1687
64.2054
65.2219
66.2103
67.1617
68.0662
68.9129
69.6901
70.3852
70.9847
71.4748
71.8415
72.0716
72.1545
72.0913
71.8582
71.4371
70.814
69.9774
68.9186
67.6312
66.1114
64.3584
62.3746
60.1655
57.74
55.1105
52.2924
49.3044
46.1675
42.9052
39.5426
36.1056
32.6204
29.1113
25.5976
22.1065
18.6657
15.2738
12.0678
9.14428
6.74412
7.76557
6.33314
3.66536
4.05196
4.86275
5.79944
6.79302
7.80951
8.83205
9.84644
10.8452
11.8215
12.7701
13.6866
14.5669
15.4068
16.2025
16.9503
17.6464
18.2876
18.8709
19.3934
19.853
20.248
20.5776
20.8421
21.0439
21.1872
21.2707
21.2943
21.2595
21.1689
21.026
20.8351
20.6007
20.3279
20.0218
19.6877
19.3308
18.9561
18.5686
18.1727
17.7728
17.3727
16.9759
16.5854
16.204
15.8338
15.4769
15.1346
14.8083
14.4988
14.2068
13.9328
13.6769
13.4391
13.2196
13.018
12.8341
12.6676
12.5182
12.3858
12.2704
12.1721
12.0896
12.0223
11.9693
11.9301
11.9045
11.892
11.8923
11.9051
11.9302
11.9674
12.0164
12.0771
12.1493
12.233
12.3279
12.4341
12.5514
12.6797
12.8192
12.9696
13.131
13.3034
13.4868
13.6812
13.8866
14.103
14.3305
14.569
14.8186
15.0792
15.351
15.6339
15.9279
16.233
16.5493
16.8766
17.2149
17.5642
17.9245
18.2956
18.6775
19.0701
19.4732
19.8868
20.3107
20.7447
21.1887
21.6424
22.1059
22.5788
23.0609
23.5522
24.0524
24.5613
25.0789
25.6048
26.1391
26.6815
27.232
27.7906
28.3571
28.9316
29.5141
30.1046
30.7033
31.3103
31.9258
32.5499
33.183
33.8254
34.4774
35.1394
35.8118
36.4951
37.1897
37.8961
38.6148
39.3463
40.0911
40.8496
41.6222
42.4092
43.2107
44.0269
44.8577
45.7028
46.5615
47.4332
48.3166
49.2101
50.1119
51.0194
51.9295
52.8386
53.7425
54.6361
55.5135
56.3683
57.193
57.9794
58.7185
59.4003
60.0144
60.5497
60.9944
61.3371
61.5666
61.6728
61.6476
61.4771
61.1485
60.6505
59.9737
59.1108
58.0564
56.8074
55.3633
53.7262
51.9008
49.8947
47.7183
45.3843
42.9083
40.3075
37.6014
34.8108
31.958
29.0664
26.161
23.2689
20.4236
17.667
15.0553
12.695
10.7708
10.0122
16.3464
6.33258
3.66548
4.05231
4.86324
5.80002
6.79368
7.81022
8.8328
9.84723
10.846
11.8223
12.771
13.6875
14.5677
15.4077
16.2034
16.9511
17.6472
18.2884
18.8716
19.3941
19.8537
20.2487
20.5782
20.8427
21.0445
21.1878
21.2712
21.2948
21.26
21.1694
21.0265
20.8356
20.6012
20.3284
20.0223
19.6882
19.3312
18.9566
18.569
18.1732
17.7733
17.3732
16.9763
16.5859
16.2044
15.8343
15.4773
15.1351
14.8087
14.4993
14.2073
13.9332
13.6773
13.4396
13.22
13.0184
12.8345
12.668
12.5187
12.3863
12.2709
12.1725
12.0901
12.0227
11.9697
11.9306
11.905
11.8925
11.8928
11.9057
11.9308
11.9679
12.0169
12.0776
12.1499
12.2335
12.3285
12.4346
12.5519
12.6803
12.8198
12.9702
13.1316
13.3041
13.4875
13.6819
13.8873
14.1037
14.3311
14.5696
14.8192
15.0799
15.3517
15.6346
15.9286
16.2337
16.5499
16.8773
17.2156
17.5649
17.9252
18.2963
18.6782
19.0708
19.474
19.8875
20.3114
20.7454
21.1894
21.6432
22.1066
22.5795
23.0617
23.5529
24.0531
24.5621
25.0796
25.6055
26.1398
26.6822
27.2327
27.7913
28.3578
28.9323
29.5148
30.1053
30.704
31.311
31.9265
32.5506
33.1837
33.8261
34.4781
35.1401
35.8125
36.4958
37.1903
37.8967
38.6155
39.347
40.0918
40.8503
41.6229
42.4098
43.2114
44.0276
44.8584
45.7035
46.5622
47.4339
48.3173
49.2109
50.1126
51.0201
51.9302
52.8394
53.7433
54.6369
55.5143
56.3691
57.1938
57.9802
58.7193
59.4011
60.0153
60.5505
60.9953
61.3379
61.5673
61.6736
61.6484
61.4778
61.1492
60.6511
59.9744
59.1114
58.0569
56.8079
55.3638
53.7266
51.9012
49.8951
47.7186
45.3846
42.9085
40.3077
37.6016
34.811
31.9582
29.0666
26.1611
23.269
20.4237
17.6671
15.0554
12.6951
10.7708
10.0121
16.3464
9.51268
4.95338
4.85035
5.3952
6.127
6.94156
7.79685
8.67046
9.54754
10.418
11.2742
12.1102
12.921
13.7025
14.4508
15.1625
15.8343
16.4629
17.0455
17.5793
18.0617
18.4904
18.8636
19.1801
19.4393
19.6417
19.7885
19.8798
19.9157
19.8975
19.827
19.7069
19.5407
19.3321
19.0855
18.8054
18.4967
18.1641
17.8123
17.4462
17.07
16.6881
16.3042
15.9219
15.5444
15.1744
14.8144
14.4664
14.132
13.8126
13.5093
13.2228
12.9536
12.7022
12.4686
12.2528
12.0548
11.8743
11.711
11.5648
11.4353
11.3224
11.2258
11.1448
11.0788
11.0272
10.9895
10.9653
10.9541
10.9558
10.9699
10.9963
11.0346
11.0846
11.1463
11.2194
11.3038
11.3994
11.506
11.6237
11.7523
11.8918
12.0421
12.2034
12.3754
12.5582
12.7519
12.9565
13.1718
13.3981
13.6352
13.8832
14.1421
14.4119
14.6927
14.9844
15.287
15.6005
15.9248
16.26
16.6059
16.9626
17.3299
17.7078
18.0961
18.4947
18.9035
19.3224
19.7512
20.1897
20.6378
21.0953
21.5619
22.0376
22.5221
23.0152
23.5168
24.0267
24.5447
25.0707
25.6045
26.146
26.6952
27.2519
27.8162
28.388
28.9675
29.5545
30.1494
30.7521
31.363
31.9821
32.6099
33.2466
33.8925
34.5481
35.2138
35.8899
36.577
37.2754
37.9858
38.7084
39.4438
40.1922
40.9541
41.7294
42.5184
43.321
44.1368
44.9654
45.8059
46.6574
47.5182
48.3866
49.2602
50.1361
51.0109
51.8805
52.7401
53.5843
54.4068
55.2007
55.9583
56.671
57.3296
57.9243
58.4446
58.8798
59.2189
59.4513
59.567
59.5558
59.4065
59.1082
58.6514
58.028
57.2314
56.257
55.1023
53.7671
52.2534
50.5656
48.7107
46.6978
44.5383
42.2456
39.8353
37.3243
34.7318
32.0787
29.3885
26.6882
24.0106
21.3973
18.9042
16.6127
14.6602
13.3441
13.7846
25.6514
9.51199
4.95357
4.85081
5.3958
6.12769
6.94231
7.79765
8.67129
9.5484
10.4189
11.2751
12.1111
12.9219
13.7033
14.4517
15.1633
15.835
16.4637
17.0463
17.58
18.0623
18.491
18.8642
19.1806
19.4398
19.6421
19.7889
19.8801
19.9161
19.8979
19.8273
19.7073
19.541
19.3324
19.0857
18.8057
18.497
18.1643
17.8126
17.4465
17.0703
16.6884
16.3045
15.9222
15.5447
15.1747
14.8147
14.4667
14.1323
13.8129
13.5096
13.2231
12.954
12.7025
12.4689
12.2532
12.0552
11.8747
11.7114
11.5652
11.4357
11.3228
11.2262
11.1452
11.0792
11.0276
10.9899
10.9657
10.9546
10.9563
10.9704
10.9967
11.035
11.0851
11.1468
11.2199
11.3043
11.3999
11.5065
11.6242
11.7528
11.8923
12.0427
12.2039
12.3759
12.5588
12.7525
12.957
13.1724
13.3987
13.6358
13.8838
14.1427
14.4126
14.6933
14.985
15.2876
15.6011
15.9254
16.2606
16.6066
16.9632
17.3305
17.7084
18.0967
18.4953
18.9042
19.323
19.7518
20.1903
20.6384
21.0959
21.5625
22.0382
22.5227
23.0158
23.5174
24.0273
24.5453
25.0712
25.605
26.1466
26.6957
27.2525
27.8168
28.3886
28.968
29.5551
30.1499
30.7526
31.3635
31.9826
32.6104
33.2471
33.893
34.5486
35.2143
35.8904
36.5774
37.2759
37.9863
38.7089
39.4443
40.1927
40.9545
41.7299
42.5189
43.3215
44.1373
44.9659
45.8064
46.6579
47.5188
48.3872
49.2608
50.1367
51.0115
51.881
52.7406
53.5848
54.4074
55.2013
55.9589
56.6716
57.3302
57.9249
58.4452
58.8803
59.2194
59.4518
59.5675
59.5563
59.4069
59.1086
58.6518
58.0283
57.2316
56.2572
55.1025
53.7672
52.2534
50.5656
48.7107
46.6977
44.5382
42.2455
39.8351
37.3242
34.7317
32.0785
29.3883
26.6881
24.0105
21.3972
18.9041
16.6126
14.6602
13.344
13.7843
25.6515
12.5879
6.30079
5.8031
6.15336
6.75468
7.46745
8.23694
9.03445
9.84194
10.647
11.4407
12.2161
12.9678
13.6917
14.3842
15.0422
15.6632
16.2446
16.7842
17.2798
17.7293
18.1309
18.4831
18.7845
19.0343
19.2322
19.3783
19.4728
19.5158
19.508
19.4509
19.3465
19.1974
19.007
18.7788
18.5169
18.2256
17.9092
17.5723
17.2193
16.8545
16.4821
16.1059
15.7295
15.3563
14.9891
14.6304
14.2826
13.9474
13.6264
13.3209
13.0316
12.7594
12.5047
12.2677
12.0485
11.8472
11.6636
11.4975
11.3485
11.2166
11.1013
11.0024
10.9193
10.8514
10.7983
10.7595
10.7345
10.7229
10.7245
10.7389
10.7657
10.8049
10.8561
10.9191
10.9938
11.0801
11.1778
11.2868
11.4071
11.5385
11.6811
11.8347
11.9994
12.1751
12.3619
12.5597
12.7685
12.9883
13.2193
13.4612
13.7143
13.9785
14.2537
14.5401
14.8375
15.146
15.4656
15.7961
16.1376
16.4901
16.8533
17.2274
17.6121
18.0073
18.4129
18.8288
19.2549
19.6909
20.1367
20.5921
21.057
21.5311
22.0142
22.5061
23.0067
23.5157
24.033
24.5584
25.0917
25.6328
26.1816
26.7379
27.3017
27.8729
28.4515
29.0376
29.6312
30.2324
30.8413
31.4581
32.0831
32.7164
33.3583
34.0092
34.6695
35.3396
36.0198
36.7106
37.4125
38.1258
38.8511
39.5887
40.339
41.1022
41.8785
42.668
43.4706
44.2859
45.1135
45.9526
46.8021
47.6604
48.5259
49.396
50.2679
51.1383
52.0031
52.8576
53.6964
54.5134
55.3019
56.0543
56.7622
57.4169
58.0086
58.5276
58.9633
59.3053
59.5433
59.6673
59.6669
59.5322
59.2537
58.8228
58.2325
57.4771
56.5525
55.4568
54.1898
52.7535
51.152
49.3912
47.4792
45.4257
43.2423
40.9423
38.5409
36.0553
33.5056
30.9153
28.3136
25.7374
23.2361
20.8779
18.7658
17.0798
16.2375
17.8529
35.6729
12.5872
6.30105
5.80364
6.15403
6.75543
7.46827
8.2378
9.03533
9.84284
10.648
11.4416
12.2169
12.9687
13.6925
14.385
15.043
15.6639
16.2453
16.7848
17.2803
17.7298
18.1314
18.4835
18.7849
19.0346
19.2325
19.3786
19.473
19.516
19.5082
19.451
19.3466
19.1975
19.0071
18.7789
18.517
18.2257
17.9094
17.5725
17.2195
16.8547
16.4822
16.106
15.7297
15.3564
14.9892
14.6306
14.2828
13.9476
13.6267
13.3211
13.0319
12.7596
12.5049
12.2679
12.0488
11.8475
11.6639
11.4977
11.3488
11.2169
11.1016
11.0027
10.9196
10.8518
10.7987
10.7598
10.7348
10.7233
10.7249
10.7392
10.7661
10.8053
10.8565
10.9195
10.9943
11.0806
11.1783
11.2873
11.4076
11.539
11.6815
11.8352
11.9999
12.1756
12.3623
12.5601
12.769
12.9888
13.2198
13.4618
13.7148
13.979
14.2542
14.5406
14.838
15.1465
15.4661
15.7966
16.1382
16.4906
16.8539
17.2279
17.6126
18.0078
18.4134
18.8294
19.2554
19.6914
20.1372
20.5926
21.0575
21.5316
22.0147
22.5066
23.0072
23.5162
24.0335
24.5589
25.0922
25.6332
26.182
26.7383
27.3021
27.8733
28.4519
29.038
29.6316
30.2328
30.8417
31.4585
32.0834
32.7167
33.3587
34.0096
34.6699
35.3399
36.0201
36.7109
37.4128
38.1261
38.8514
39.589
40.3393
41.1025
41.8788
42.6683
43.4709
44.2862
45.1139
45.9529
46.8024
47.6608
48.5262
49.3963
50.2683
51.1387
52.0035
52.858
53.6968
54.5138
55.3023
56.0547
56.7626
57.4173
58.009
58.5279
58.9636
59.3056
59.5436
59.6675
59.6672
59.5324
59.2538
58.823
58.2326
57.4771
56.5525
55.4567
54.1897
52.7534
51.1518
49.391
47.4789
45.4254
43.2419
40.942
38.5406
36.055
33.5052
30.915
28.3132
25.7371
23.2358
20.8776
18.7656
17.0795
16.2372
17.8524
35.673
15.7125
7.71668
6.8511
7.0361
7.53849
8.18076
8.89411
9.64312
10.406
11.1682
11.9191
12.651
13.3583
14.0367
14.6831
15.295
15.8705
16.4078
16.9057
17.3627
17.7776
18.1491
18.4762
18.7577
18.9929
19.1812
19.3223
19.4161
19.4625
19.462
19.4153
19.324
19.1901
19.0161
18.8051
18.5604
18.2858
17.9853
17.663
17.323
16.9694
16.6064
16.2376
15.8669
15.4974
15.1323
14.7742
14.4256
14.0885
13.7645
13.4552
13.1616
12.8845
12.6246
12.3822
12.1577
11.951
11.7621
11.5909
11.4372
11.3006
11.181
11.0779
10.9909
10.9196
10.8633
10.8218
10.7945
10.781
10.7811
10.7943
10.8204
10.8592
10.9104
10.9738
11.0492
11.1365
11.2355
11.3462
11.4685
11.6022
11.7474
11.9039
12.0719
12.2511
12.4417
12.6436
12.8569
13.0815
13.3174
13.5647
13.8234
14.0934
14.3748
14.6675
14.9716
15.287
15.6137
15.9517
16.3009
16.6611
17.0325
17.4148
17.8079
18.2118
18.6263
19.0512
19.4864
19.9317
20.3869
20.8519
21.3264
21.8103
22.3033
22.8052
23.3158
23.835
24.3625
24.8981
25.4418
25.9932
26.5524
27.1191
27.6934
28.275
28.8642
29.4607
30.0647
30.6763
31.2956
31.9227
32.5579
33.2014
33.8534
34.5144
35.1846
35.8645
36.5544
37.2547
37.966
38.6886
39.423
40.1695
40.9285
41.7002
42.4847
43.2822
44.0924
44.9152
45.7498
46.5956
47.4513
48.3156
49.1864
50.0614
50.9378
51.8121
52.6803
53.5377
54.3789
55.198
55.9882
56.7422
57.4518
58.1083
58.7025
59.2249
59.6653
60.0138
60.2605
60.3954
60.409
60.2921
60.0363
59.6341
59.0793
58.3668
57.4934
56.4573
55.2585
53.8987
52.3811
50.7107
48.894
46.9389
44.8546
42.6523
40.3446
37.9469
35.4777
32.9606
30.4259
27.9143
25.4814
23.2071
21.2156
19.7325
19.3029
22.0671
45.7413
15.7117
7.717
6.85172
7.03684
7.5393
8.18162
8.895
9.64403
10.407
11.1691
11.92
12.6519
13.3591
14.0375
14.6839
15.2957
15.8711
16.4084
16.9062
17.3632
17.778
18.1495
18.4765
18.7579
18.9931
19.1813
19.3224
19.4161
19.4626
19.462
19.4153
19.324
19.19
19.016
18.805
18.5603
18.2858
17.9853
17.6629
17.3229
16.9694
16.6063
16.2376
15.8669
15.4974
15.1323
14.7743
14.4257
14.0885
13.7646
13.4553
13.1617
12.8846
12.6247
12.3824
12.1578
11.9511
11.7623
11.5911
11.4373
11.3008
11.1812
11.0781
10.9912
10.9198
10.8636
10.822
10.7947
10.7813
10.7813
10.7946
10.8207
10.8595
10.9107
10.9741
11.0495
11.1368
11.2359
11.3466
11.4688
11.6026
11.7477
11.9043
12.0722
12.2515
12.4421
12.644
12.8573
13.0819
13.3178
13.5651
13.8238
14.0938
14.3752
14.6679
14.972
15.2874
15.6141
15.9521
16.3013
16.6615
17.0329
17.4152
17.8083
18.2122
18.6266
19.0515
19.4867
19.932
20.3873
20.8522
21.3268
21.8106
22.3036
22.8055
23.3162
23.8353
24.3628
24.8984
25.4421
25.9935
26.5527
27.1194
27.6936
28.2753
28.8644
29.4609
30.065
30.6765
31.2958
31.9229
32.5581
33.2016
33.8536
34.5146
35.1848
35.8646
36.5545
37.2549
37.9662
38.6888
39.4232
40.1697
40.9286
41.7003
42.4849
43.2823
44.0926
44.9153
45.75
46.5958
47.4515
48.3158
49.1866
50.0616
50.938
51.8123
52.6805
53.5379
54.3791
55.1982
55.9885
56.7424
57.452
58.1085
58.7027
59.225
59.6655
60.014
60.2606
60.3955
60.409
60.2921
60.0363
59.634
59.0791
58.3666
57.4932
56.457
55.2582
53.8983
52.3807
50.7103
48.8936
46.9384
44.8542
42.6518
40.3441
37.9464
35.4772
32.9601
30.4255
27.9138
25.481
23.2067
21.2152
19.7321
19.3025
22.0665
45.7415
18.8409
9.17874
7.9599
7.99895
8.41899
9.00555
9.67583
10.3876
11.1155
11.8426
12.5569
13.2502
13.9164
14.5515
15.1528
15.7183
16.247
16.7383
17.1915
17.6063
17.9823
18.3191
18.616
18.8726
19.0882
19.2622
19.3942
19.4838
19.5308
19.5351
19.4971
19.4176
19.2982
19.1405
18.947
18.7204
18.4638
18.1807
17.8748
17.5499
17.2098
16.8585
16.4995
16.1366
15.773
15.412
15.0564
14.7086
14.3709
14.0451
13.733
13.4356
13.1542
12.8894
12.6417
12.4116
12.1992
12.0046
11.8278
11.6684
11.5264
11.4015
11.2933
11.2014
11.1254
11.0648
11.0193
10.9883
10.9715
10.9686
10.9791
11.003
11.0398
11.0893
11.1513
11.2257
11.3123
11.411
11.5216
11.644
11.7783
11.9242
12.0819
12.2512
12.4321
12.6247
12.8289
13.0447
13.2721
13.5111
13.7618
14.0242
14.2981
14.5837
14.881
15.1898
15.5102
15.8421
16.1856
16.5404
16.9066
17.284
17.6727
18.0723
18.4829
18.9042
19.3361
19.7785
20.2311
20.6938
21.1664
21.6486
22.1403
22.6412
23.1512
23.67
24.1974
24.7332
25.2773
25.8294
26.3894
26.9572
27.5326
28.1156
28.7061
29.304
29.9095
30.5224
31.143
31.7713
32.4074
33.0516
33.7041
34.3651
35.0351
35.7143
36.4031
37.1019
37.8111
38.5312
39.2625
40.0055
40.7605
41.5278
42.3077
43.1004
43.9057
44.7236
45.5537
46.3954
47.248
48.1101
48.9804
49.8569
50.7371
51.6182
52.4967
53.3686
54.2294
55.0736
55.8953
56.6881
57.4445
58.1568
58.8166
59.4149
59.9427
60.3904
60.7484
61.0073
61.1579
61.1913
61.0994
60.8747
60.5106
60.0017
59.3439
58.5343
57.5713
56.4548
55.186
53.7673
52.2021
50.4951
48.6519
46.6794
44.5857
42.3809
40.0779
37.6935
35.2505
32.7798
30.3247
27.9467
25.7362
23.838
22.5228
22.4591
26.2789
55.626
18.8399
9.17912
7.96057
7.99974
8.41984
9.00645
9.67674
10.3886
11.1165
11.8435
12.5578
13.251
13.9172
14.5523
15.1534
15.7189
16.2476
16.7387
17.1919
17.6066
17.9826
18.3193
18.6162
18.8727
19.0882
19.2622
19.3942
19.4837
19.5307
19.5349
19.4969
19.4174
19.2979
19.1403
18.9467
18.7201
18.4636
18.1805
17.8746
17.5497
17.2096
16.8582
16.4993
16.1364
15.7729
15.4119
15.0562
14.7085
14.3708
14.0451
13.7329
13.4356
13.1541
12.8893
12.6417
12.4116
12.1993
12.0047
11.8278
11.6685
11.5265
11.4015
11.2934
11.2015
11.1255
11.065
11.0194
10.9884
10.9716
10.9687
10.9793
11.0031
11.0399
11.0895
11.1515
11.2259
11.3125
11.4112
11.5218
11.6443
11.7785
11.9245
12.0821
12.2514
12.4324
12.6249
12.8291
13.0449
13.2724
13.5114
13.7621
14.0244
14.2984
14.584
14.8812
15.1901
15.5105
15.8424
16.1858
16.5407
16.9069
17.2843
17.6729
18.0726
18.4831
18.9044
19.3364
19.7787
20.2313
20.694
21.1666
21.6488
22.1405
22.6414
23.1514
23.6702
24.1976
24.7334
25.2774
25.8295
26.3895
26.9573
27.5327
28.1157
28.7062
29.3041
29.9096
30.5225
31.143
31.7713
32.4074
33.0516
33.7041
34.3652
35.0351
35.7143
36.4031
37.1019
37.8111
38.5312
39.2625
40.0055
40.7605
41.5278
42.3077
43.1003
43.9056
44.7235
45.5536
46.3954
47.2479
48.1101
48.9804
49.8569
50.7371
51.6182
52.4967
53.3687
54.2294
55.0736
55.8954
56.6881
57.4445
58.1568
58.8166
59.4149
59.9427
60.3903
60.7483
61.0072
61.1577
61.1911
61.0992
60.8744
60.5103
60.0014
59.3436
58.5339
57.5708
56.4543
55.1855
53.7667
52.2015
50.4945
48.6514
46.6788
44.5851
42.3803
40.0773
37.6929
35.2499
32.7792
30.3241
27.9461
25.7356
23.8374
22.5223
22.4586
26.278
55.6262
22.0125
10.681
9.11468
9.01737
9.3636
9.90148
10.5342
11.2128
11.9085
12.602
13.2804
13.9347
14.5589
15.149
15.7028
16.2193
16.6982
17.1398
17.5446
17.9131
18.2461
18.5437
18.8062
19.0334
19.2252
19.381
19.5004
19.5829
19.6279
19.6351
19.6043
19.5358
19.4303
19.289
19.1136
18.9061
18.669
18.4053
18.118
17.8106
17.4867
17.1497
16.8034
16.4511
16.0963
15.7421
15.3915
15.0469
14.7109
14.3854
14.0722
13.7728
13.4883
13.2196
12.9676
12.7326
12.5149
12.3148
12.1322
11.9671
11.8192
11.6885
11.5745
11.4769
11.3954
11.3294
11.2787
11.2427
11.2212
11.2137
11.22
11.2398
11.2727
11.3187
11.3774
11.4486
11.5323
11.6283
11.7365
11.8568
11.989
12.1332
12.2894
12.4574
12.6373
12.8291
13.0327
13.2481
13.4754
13.7146
13.9656
14.2285
14.5033
14.7899
15.0884
15.3986
15.7207
16.0544
16.3999
16.7569
17.1255
17.5055
17.8968
18.2993
18.7128
19.1373
19.5725
20.0182
20.4743
20.9406
21.4169
21.9029
22.3985
22.9034
23.4174
23.9404
24.472
25.0121
25.5606
26.1171
26.6817
27.254
27.8341
28.4219
29.0172
29.62
30.2304
30.8483
31.4739
32.1073
32.7486
33.3979
34.0556
34.7219
35.3972
36.0816
36.7756
37.4797
38.1941
38.9193
39.6557
40.4037
41.1637
41.9358
42.7204
43.5175
44.3272
45.1492
45.9832
46.8286
47.6844
48.5496
49.4225
50.3012
51.1833
52.066
52.9456
53.8184
54.6797
55.5244
56.3466
57.1399
57.8973
58.6114
59.274
59.8769
60.4111
60.868
61.2386
61.514
61.6859
61.7464
61.6884
61.5052
61.1915
60.7425
60.1547
59.4257
58.554
57.5393
56.382
55.0833
53.645
52.0696
50.3602
48.5207
46.5562
44.4737
42.2833
39.9997
37.644
35.2474
32.8551
30.5332
28.3821
26.5662
25.4007
25.6744
30.5037
65.4447
22.0115
10.6815
9.11541
9.0182
9.36449
9.9024
10.5351
11.2138
11.9094
12.6029
13.2812
13.9355
14.5596
15.1496
15.7034
16.2198
16.6986
17.1401
17.5448
17.9133
18.2462
18.5438
18.8062
19.0334
19.2251
19.3809
19.5002
19.5827
19.6276
19.6348
19.6039
19.5354
19.4299
19.2886
19.1132
18.9057
18.6686
18.4049
18.1176
17.8102
17.4863
17.1493
16.803
16.4508
16.096
15.7418
15.3912
15.0467
14.7106
14.3852
14.072
13.7726
13.4881
13.2195
12.9674
12.7324
12.5148
12.3147
12.1321
11.967
11.8192
11.6884
11.5745
11.4769
11.3954
11.3294
11.2787
11.2427
11.2212
11.2137
11.22
11.2398
11.2728
11.3187
11.3774
11.4487
11.5324
11.6284
11.7366
11.8569
11.9891
12.1334
12.2895
12.4575
12.6374
12.8292
13.0328
13.2483
13.4756
13.7147
13.9658
14.2287
14.5034
14.7901
15.0885
15.3988
15.7208
16.0546
16.4
16.757
17.1256
17.5056
17.8969
18.2994
18.7129
19.1374
19.5726
20.0183
20.4744
20.9407
21.417
21.903
22.3985
22.9034
23.4175
23.9404
24.472
25.0121
25.5606
26.1171
26.6816
27.254
27.8341
28.4218
29.0171
29.6199
30.2303
30.8482
31.4738
32.1072
32.7484
33.3978
34.0555
34.7218
35.397
36.0814
36.7755
37.4795
38.1939
38.9191
39.6555
40.4035
41.1635
41.9356
42.7202
43.5173
44.327
45.149
45.983
46.8284
47.6842
48.5494
49.4223
50.301
51.1831
52.0658
52.9455
53.8182
54.6795
55.5242
56.3464
57.1397
57.8971
58.6112
59.2738
59.8766
60.4109
60.8678
61.2383
61.5137
61.6856
61.7461
61.688
61.5048
61.191
60.742
60.1541
59.4251
58.5534
57.5387
56.3813
55.0826
53.6443
52.0689
50.3595
48.52
46.5555
44.473
42.2826
39.999
37.6433
35.2467
32.8544
30.5325
28.3814
26.5656
25.4
25.6737
30.5027
65.445
25.2435
12.2091
10.3035
10.0752
10.3517
10.8436
11.4402
12.0863
12.7492
13.408
14.0488
14.6619
15.2415
15.7838
16.2874
16.7517
17.1777
17.5664
17.9195
18.2387
18.5252
18.7804
19.0052
19.2
19.3649
19.4997
19.6039
19.677
19.7181
19.7265
19.7017
19.6433
19.5513
19.4264
19.2694
19.0817
18.8652
18.6222
18.3553
18.0675
17.7618
17.4418
17.1105
16.7716
16.4282
16.0834
15.7402
15.4014
15.0693
14.7461
14.4338
14.134
13.848
13.5768
13.3214
13.0823
12.86
12.6547
12.4666
12.2957
12.1418
12.0049
11.8846
11.7806
11.6927
11.6203
11.5632
11.5209
11.4931
11.4795
11.4797
11.4935
11.5206
11.5609
11.614
11.6798
11.7581
11.8489
11.952
12.0673
12.1947
12.3343
12.4859
12.6495
12.8252
13.0128
13.2125
13.4242
13.6479
13.8836
14.1313
14.391
14.6628
14.9466
15.2423
15.55
15.8696
16.201
16.5443
16.8993
17.2659
17.6441
18.0337
18.4345
18.8465
19.2695
19.7033
20.1477
20.6026
21.0677
21.5428
22.0278
22.5224
23.0264
23.5395
24.0616
24.5925
25.1319
25.6797
26.2357
26.7997
27.3716
27.9513
28.5387
29.1337
29.7364
30.3466
30.9645
31.5901
32.2235
32.8648
33.5143
34.1722
34.8387
35.5141
36.1987
36.893
37.5972
38.3118
39.0372
39.7737
40.5217
41.2815
42.0534
42.8376
43.6341
44.443
45.2641
46.0969
46.9408
47.7949
48.658
49.5285
50.4045
51.2837
52.1631
53.0394
53.9086
54.7664
55.6077
56.4269
57.2179
57.974
58.688
59.3525
59.9596
60.5013
60.9693
61.3555
61.652
61.8513
61.9467
61.9319
61.8016
61.5511
61.1766
60.6752
60.0448
59.284
58.3918
57.3678
56.212
54.9242
53.5046
51.9534
50.2713
48.4601
46.5236
44.4685
42.3068
40.0581
37.7526
35.4367
33.1807
31.0937
29.3591
28.334
28.9225
34.6948
74.8255
25.2424
12.2096
10.3043
10.0761
10.3526
10.8445
11.4412
12.0872
12.75
13.4088
14.0495
14.6626
15.2421
15.7844
16.2878
16.7521
17.178
17.5666
17.9197
18.2387
18.5252
18.7804
19.0051
19.1998
19.3646
19.4994
19.6036
19.6766
19.7177
19.7261
19.7012
19.6428
19.5508
19.4258
19.2688
19.0811
18.8646
18.6216
18.3547
18.0669
17.7613
17.4412
17.11
16.7711
16.4277
16.0829
15.7398
15.4009
15.0689
14.7458
14.4335
14.1337
13.8477
13.5765
13.3211
13.082
12.8597
12.6545
12.4664
12.2955
12.1417
12.0047
11.8844
11.7805
11.6925
11.6202
11.563
11.5208
11.493
11.4794
11.4796
11.4934
11.5206
11.5608
11.6139
11.6797
11.7581
11.8489
11.9519
12.0672
12.1947
12.3343
12.4859
12.6495
12.8252
13.0129
13.2125
13.4242
13.6479
13.8836
14.1313
14.3911
14.6628
14.9466
15.2423
15.55
15.8696
16.2011
16.5443
16.8993
17.2659
17.6441
18.0336
18.4345
18.8465
19.2695
19.7033
20.1477
20.6025
21.0676
21.5428
22.0277
22.5223
23.0263
23.5394
24.0615
24.5923
25.1317
25.6795
26.2355
26.7995
27.3714
27.9511
28.5385
29.1335
29.7361
30.3464
30.9642
31.5898
32.2232
32.8645
33.514
34.1719
34.8383
35.5138
36.1984
36.8927
37.5969
38.3115
39.0368
39.7733
40.5213
41.2811
42.053
42.8372
43.6337
44.4427
45.2637
46.0965
46.9404
47.7945
48.6576
49.5281
50.4042
51.2833
52.1627
53.039
53.9083
54.766
55.6073
56.4265
57.2175
57.9736
58.6876
59.3521
59.9592
60.5009
60.9688
61.355
61.6515
61.8508
61.9461
61.9313
61.801
61.5505
61.176
60.6746
60.0441
59.2832
58.391
57.3671
56.2112
54.9235
53.5038
51.9526
50.2705
48.4594
46.5228
44.4677
42.3061
40.0573
37.7518
35.4359
33.1799
31.0929
29.3582
28.3331
28.9216
34.6935
74.8259
28.5864
13.7723
11.5212
11.162
11.3693
11.8155
12.3755
12.9876
13.6161
14.2381
14.8387
15.4082
15.9405
16.4326
16.8834
17.2934
17.6642
17.9981
18.2977
18.5655
18.8039
19.015
19.2004
19.361
19.4973
19.6094
19.697
19.7592
19.7951
19.8037
19.7838
19.7347
19.6557
19.5468
19.4081
19.2405
19.0451
18.8236
18.5781
18.3111
18.0254
17.7238
17.4096
17.0858
16.7557
16.4224
16.0887
15.7575
15.4312
15.1122
14.8025
14.5037
14.2175
13.9449
13.687
13.4446
13.2181
13.0081
12.8146
12.6378
12.4776
12.334
12.2068
12.0957
12.0003
11.9204
11.8556
11.8056
11.77
11.7485
11.7408
11.7466
11.7658
11.798
11.8431
11.9009
11.9713
12.0541
12.1493
12.2567
12.3763
12.508
12.6518
12.8078
12.9757
13.1558
13.3479
13.5521
13.7684
13.9968
14.2373
14.4898
14.7545
15.0312
15.32
15.6207
15.9335
16.2582
16.5948
16.9431
17.3031
17.6747
18.0577
18.4521
18.8576
19.2742
19.7016
20.1396
20.5882