/*--------------------------------*- C++ -*----------------------------------*\
  =========                 |
  \\      /  F ield         | OpenFOAM: The Open Source CFD Toolbox
   \\    /   O peration     | Website:  https://openfoam.org
    \\  /    A nd           | Version:  8
     \\/     M anipulation  |
\*---------------------------------------------------------------------------*/
FoamFile
{
    version     2.0;
    format      ascii;
    class       volScalarField;
    location    "1200";
    object      k;
}
// * * * * * * * * * * * * * * * * * * * * * * * * * * * * * * * * * * * * * //

dimensions      [0 2 -2 0 0 0 0];

internalField   nonuniform List<scalar> 
46000
(
0.000479988
0.00226654
0.0048553
0.00764455
0.0105329
0.0135471
0.0165503
0.0194857
0.0223115
0.025034
0.027602
0.0300129
0.0322667
0.0343575
0.0362806
0.0380327
0.0396121
0.0410183
0.0422526
0.0433171
0.0442156
0.0449525
0.0455334
0.0459641
0.0462516
0.0464154
0.0465067
0.0464915
0.0463691
0.0461469
0.0458339
0.0454398
0.0449744
0.0444473
0.043868
0.0432455
0.0425885
0.0419051
0.0412028
0.0404889
0.0397697
0.0390511
0.0383383
0.0376361
0.0369486
0.0362791
0.0356308
0.0350062
0.0344072
0.0338355
0.0332923
0.0327785
0.0322946
0.0318411
0.0314181
0.0310254
0.0306628
0.03033
0.0300263
0.0297515
0.0295048
0.0292884
0.0291102
0.0289586
0.0288322
0.0287303
0.0286526
0.0285987
0.028568
0.0285603
0.0285751
0.0286123
0.0286714
0.0287522
0.0288546
0.0289782
0.029123
0.0292888
0.0294753
0.0296827
0.0299106
0.0301592
0.0304283
0.0307178
0.0310279
0.0313584
0.0317094
0.0320808
0.0324728
0.0328852
0.0333181
0.0337715
0.0342454
0.0347397
0.0352545
0.0357896
0.0363451
0.0369208
0.0375166
0.0381324
0.038768
0.0394233
0.040098
0.0407919
0.0415048
0.0422364
0.0429864
0.0437544
0.0445403
0.0453435
0.0461639
0.0470011
0.0478546
0.0487243
0.0496097
0.0505107
0.0514269
0.0523582
0.0533042
0.0542649
0.0552402
0.05623
0.0572342
0.058253
0.0592865
0.0603349
0.0613984
0.0624774
0.0635723
0.0646836
0.0658119
0.0669577
0.0681219
0.069305
0.070508
0.0717317
0.072977
0.0742449
0.0755361
0.0768517
0.0781925
0.0795593
0.0809527
0.0823733
0.0838214
0.0852971
0.0868002
0.0883301
0.0898857
0.0914657
0.0930678
0.0946891
0.0963262
0.0979745
0.0996286
0.101282
0.102927
0.104554
0.106154
0.107714
0.109221
0.110661
0.112017
0.113272
0.114407
0.115401
0.116234
0.116882
0.117325
0.117539
0.117511
0.117265
0.116739
0.115905
0.114743
0.113237
0.111375
0.10915
0.106556
0.103594
0.100267
0.0965869
0.0925671
0.0882278
0.0835945
0.0786971
0.0735702
0.0682522
0.0627845
0.0572102
0.0515721
0.0459077
0.0402127
0.0345363
0.0289428
0.0233005
0.0176197
0.011979
0.00606775
0.00132124
0.000479932
0.00226632
0.0048549
0.00764401
0.0105323
0.0135464
0.0165495
0.0194849
0.0223106
0.0250332
0.0276011
0.0300121
0.0322659
0.0343567
0.0362799
0.038032
0.0396114
0.0410177
0.042252
0.0433166
0.0442151
0.0449521
0.045533
0.0459638
0.0462512
0.0464151
0.0465064
0.0464912
0.0463689
0.0461466
0.0458336
0.0454395
0.0449741
0.0444471
0.0438678
0.0432453
0.0425882
0.0419048
0.0412025
0.0404885
0.0397693
0.0390507
0.038338
0.0376357
0.0369482
0.0362787
0.0356304
0.0350058
0.0344068
0.033835
0.0332918
0.032778
0.0322941
0.0318406
0.0314176
0.0310249
0.0306623
0.0303295
0.0300258
0.029751
0.0295043
0.0292878
0.0291097
0.0289581
0.0288317
0.0287298
0.0286521
0.0285981
0.0285675
0.0285597
0.0285746
0.0286117
0.0286708
0.0287517
0.028854
0.0289777
0.0291224
0.0292882
0.0294748
0.0296821
0.02991
0.0301586
0.0304277
0.0307173
0.0310273
0.0313578
0.0317088
0.0320803
0.0324722
0.0328846
0.0333176
0.033771
0.0342449
0.0347392
0.035254
0.0357891
0.0363446
0.0369203
0.0375161
0.0381319
0.0387676
0.0394228
0.0400976
0.0407915
0.0415044
0.042236
0.042986
0.0437541
0.0445399
0.0453432
0.0461636
0.0470007
0.0478543
0.048724
0.0496095
0.0505104
0.0514267
0.0523579
0.053304
0.0542647
0.05524
0.0562298
0.057234
0.0582528
0.0592863
0.0603347
0.0613982
0.0624773
0.0635722
0.0646835
0.0658118
0.0669576
0.0681217
0.0693049
0.0705079
0.0717316
0.072977
0.0742448
0.0755361
0.0768517
0.0781925
0.0795592
0.0809527
0.0823732
0.0838213
0.085297
0.0868001
0.08833
0.0898857
0.0914656
0.0930677
0.0946891
0.0963261
0.0979745
0.0996285
0.101282
0.102927
0.104554
0.106154
0.107714
0.109221
0.110661
0.112017
0.113272
0.114407
0.115401
0.116234
0.116882
0.117325
0.11754
0.117512
0.117265
0.116739
0.115905
0.114743
0.113237
0.111375
0.10915
0.106556
0.103594
0.100268
0.0965874
0.0925676
0.0882283
0.083595
0.0786975
0.0735706
0.0682527
0.0627849
0.0572105
0.0515724
0.045908
0.0402129
0.0345365
0.028943
0.0233006
0.0176197
0.011979
0.00606774
0.00132123
0.00232877
0.0144081
0.0256772
0.0356047
0.0448118
0.0533695
0.0613892
0.0689497
0.076014
0.0826341
0.0888255
0.0945985
0.0999605
0.104917
0.109471
0.113628
0.117393
0.12077
0.123765
0.126386
0.128641
0.130539
0.13209
0.133305
0.134197
0.134775
0.13507
0.13511
0.134905
0.134472
0.133829
0.132996
0.131992
0.130839
0.129557
0.128164
0.126681
0.125124
0.123512
0.121861
0.120186
0.1185
0.116818
0.115149
0.113506
0.111897
0.11033
0.108813
0.107351
0.105949
0.10461
0.103339
0.102138
0.101008
0.0999504
0.0989657
0.0980542
0.0972156
0.0964494
0.0957546
0.0951303
0.0945749
0.0940924
0.0936789
0.0933318
0.0930498
0.0928313
0.0926752
0.0925803
0.0925455
0.0925697
0.0926521
0.0927916
0.0929873
0.0932385
0.0935444
0.0939042
0.0943172
0.0947828
0.0953004
0.0958695
0.0964894
0.0971598
0.09788
0.0986497
0.0994684
0.100336
0.101251
0.102214
0.103225
0.104282
0.105385
0.106535
0.10773
0.108969
0.110253
0.111581
0.112951
0.114364
0.115818
0.117313
0.118848
0.120421
0.122033
0.123682
0.125366
0.127086
0.128839
0.130625
0.132443
0.134292
0.13617
0.138076
0.14001
0.141971
0.143957
0.145967
0.148001
0.150059
0.152139
0.154241
0.156365
0.15851
0.160676
0.162864
0.165072
0.167303
0.169555
0.17183
0.174129
0.176451
0.178799
0.181173
0.183574
0.186004
0.188464
0.190956
0.193481
0.19604
0.198636
0.201268
0.203939
0.206649
0.2094
0.21219
0.215021
0.217891
0.220799
0.223743
0.22672
0.229725
0.232754
0.235801
0.238856
0.24191
0.244952
0.247969
0.250945
0.253862
0.256701
0.259439
0.262052
0.264513
0.266793
0.26886
0.270681
0.27222
0.273442
0.274309
0.274785
0.274841
0.274426
0.2735
0.272024
0.269964
0.267289
0.263974
0.259997
0.255343
0.25
0.243967
0.237245
0.229845
0.221784
0.213085
0.203779
0.193901
0.18349
0.17259
0.161242
0.149486
0.137351
0.124847
0.111955
0.0985652
0.0843616
0.0691299
0.0519196
0.031299
0.0058895
0.00232851
0.0144071
0.0256761
0.0356037
0.0448108
0.0533686
0.0613884
0.068949
0.0760134
0.0826335
0.0888251
0.0945981
0.0999601
0.104916
0.109471
0.113628
0.117393
0.12077
0.123765
0.126386
0.128641
0.130539
0.13209
0.133305
0.134197
0.134775
0.135071
0.13511
0.134906
0.134472
0.133829
0.132996
0.131992
0.13084
0.129557
0.128164
0.126681
0.125124
0.123512
0.121861
0.120186
0.1185
0.116817
0.115149
0.113506
0.111897
0.11033
0.108813
0.107351
0.105948
0.10461
0.103339
0.102138
0.101008
0.09995
0.0989654
0.0980539
0.0972153
0.096449
0.0957543
0.0951299
0.0945745
0.0940921
0.0936785
0.0933315
0.0930494
0.0928309
0.0926748
0.0925799
0.0925451
0.0925694
0.0926517
0.0927912
0.092987
0.0932382
0.093544
0.0939038
0.0943168
0.0947824
0.0953001
0.0958691
0.0964891
0.0971594
0.0978797
0.0986494
0.0994681
0.100335
0.101251
0.102214
0.103224
0.104282
0.105385
0.106535
0.10773
0.108969
0.110253
0.111581
0.112951
0.114364
0.115818
0.117313
0.118848
0.120421
0.122033
0.123682
0.125366
0.127086
0.128839
0.130625
0.132443
0.134292
0.13617
0.138076
0.14001
0.141971
0.143957
0.145967
0.148002
0.150059
0.152139
0.154241
0.156365
0.15851
0.160676
0.162864
0.165073
0.167303
0.169556
0.171831
0.174129
0.176451
0.178799
0.181173
0.183574
0.186004
0.188465
0.190956
0.193481
0.196041
0.198636
0.201269
0.203939
0.20665
0.2094
0.21219
0.215021
0.217891
0.220799
0.223743
0.22672
0.229726
0.232755
0.235801
0.238856
0.241911
0.244953
0.247969
0.250945
0.253862
0.256701
0.259439
0.262052
0.264513
0.266793
0.26886
0.270681
0.272221
0.273443
0.27431
0.274786
0.274841
0.274427
0.273501
0.272025
0.269965
0.26729
0.263975
0.259998
0.255344
0.250002
0.243968
0.237246
0.229846
0.221785
0.213086
0.20378
0.193902
0.183492
0.172591
0.161243
0.149487
0.137352
0.124848
0.111956
0.098566
0.0843622
0.0691303
0.0519198
0.0312991
0.00588949
0.00484601
0.0254534
0.0411382
0.0541165
0.0658842
0.076793
0.0870087
0.0966269
0.105678
0.114183
0.122157
0.129607
0.136539
0.14296
0.148874
0.154288
0.159208
0.16364
0.167592
0.171073
0.174092
0.176662
0.178792
0.180498
0.181793
0.182693
0.183218
0.183404
0.183266
0.182824
0.182101
0.18112
0.179905
0.178483
0.176876
0.175112
0.173213
0.171203
0.169107
0.166944
0.164737
0.162504
0.160263
0.158032
0.155825
0.153655
0.151535
0.149476
0.147485
0.145571
0.14374
0.141997
0.140347
0.138792
0.137334
0.135975
0.134715
0.133555
0.132494
0.131532
0.130666
0.129898
0.129225
0.128648
0.128162
0.127767
0.127459
0.127237
0.127099
0.127044
0.12707
0.127175
0.127359
0.127619
0.127955
0.128366
0.12885
0.129406
0.130033
0.13073
0.131497
0.132332
0.133235
0.134204
0.13524
0.136341
0.137507
0.138737
0.14003
0.141386
0.142804
0.144282
0.145821
0.14742
0.149077
0.150792
0.152564
0.154392
0.156275
0.158212
0.160201
0.162241
0.164332
0.166471
0.168658
0.170891
0.173169
0.175489
0.177851
0.180254
0.182694
0.185172
0.187686
0.190234
0.192815
0.195427
0.19807
0.200742
0.203442
0.20617
0.208925
0.211706
0.214513
0.217345
0.220202
0.223085
0.225994
0.228929
0.231891
0.234881
0.237899
0.240948
0.244027
0.24714
0.250286
0.253469
0.25669
0.25995
0.263252
0.266596
0.269986
0.273422
0.276904
0.280435
0.284014
0.287641
0.291315
0.295035
0.298797
0.302597
0.306431
0.310292
0.314171
0.318059
0.321943
0.325809
0.32964
0.333417
0.337118
0.340719
0.344192
0.347508
0.350632
0.353529
0.35616
0.358485
0.36046
0.36204
0.363182
0.363839
0.363969
0.363516
0.362431
0.36067
0.358191
0.354957
0.350935
0.346098
0.340424
0.333899
0.326515
0.318271
0.309173
0.299236
0.28848
0.276931
0.264621
0.251583
0.237856
0.223475
0.208472
0.192871
0.176677
0.159865
0.142341
0.123884
0.104048
0.0815744
0.0535314
0.0124516
0.0048456
0.0254523
0.0411373
0.0541159
0.0658838
0.0767928
0.0870085
0.0966269
0.105678
0.114183
0.122157
0.129607
0.136539
0.14296
0.148875
0.154289
0.159208
0.16364
0.167592
0.171073
0.174093
0.176662
0.178793
0.180498
0.181793
0.182694
0.183219
0.183404
0.183266
0.182824
0.182101
0.18112
0.179906
0.178483
0.176877
0.175112
0.173213
0.171204
0.169107
0.166944
0.164737
0.162504
0.160264
0.158032
0.155825
0.153656
0.151536
0.149476
0.147485
0.145571
0.14374
0.141997
0.140347
0.138792
0.137334
0.135975
0.134715
0.133555
0.132494
0.131532
0.130666
0.129898
0.129225
0.128648
0.128162
0.127767
0.127459
0.127237
0.127099
0.127044
0.12707
0.127175
0.127359
0.127619
0.127956
0.128366
0.12885
0.129406
0.130033
0.13073
0.131497
0.132332
0.133235
0.134204
0.13524
0.136341
0.137507
0.138737
0.14003
0.141386
0.142804
0.144283
0.145822
0.14742
0.149078
0.150793
0.152565
0.154393
0.156275
0.158212
0.160201
0.162242
0.164332
0.166472
0.168659
0.170892
0.173169
0.17549
0.177852
0.180254
0.182695
0.185173
0.187686
0.190234
0.192815
0.195428
0.19807
0.200743
0.203443
0.206171
0.208926
0.211707
0.214513
0.217346
0.220203
0.223086
0.225995
0.22893
0.231892
0.234882
0.2379
0.240948
0.244028
0.247141
0.250287
0.25347
0.256691
0.259951
0.263252
0.266597
0.269987
0.273422
0.276905
0.280436
0.284015
0.287642
0.291316
0.295036
0.298798
0.302598
0.306432
0.310293
0.314172
0.31806
0.321944
0.325809
0.32964
0.333418
0.337119
0.34072
0.344193
0.347509
0.350633
0.35353
0.356161
0.358486
0.360461
0.362041
0.363183
0.36384
0.36397
0.363517
0.362432
0.360671
0.358192
0.354958
0.350936
0.346099
0.340425
0.333901
0.326516
0.318272
0.309175
0.299238
0.288482
0.276933
0.264622
0.251585
0.237857
0.223476
0.208473
0.192872
0.176678
0.159866
0.142342
0.123885
0.104048
0.0815746
0.0535315
0.0124516
0.00731602
0.034751
0.0535429
0.0685367
0.0818947
0.0942814
0.105922
0.116908
0.127271
0.137027
0.146182
0.154741
0.162708
0.170089
0.176889
0.183117
0.188781
0.193891
0.198459
0.202495
0.206013
0.209025
0.211546
0.21359
0.215175
0.216317
0.217036
0.217363
0.217317
0.216921
0.216197
0.215169
0.213865
0.212309
0.21053
0.208554
0.206409
0.204121
0.201717
0.199222
0.19666
0.194055
0.191429
0.188802
0.186192
0.183617
0.181092
0.178631
0.176245
0.173945
0.171739
0.169634
0.167637
0.165751
0.16398
0.162327
0.160792
0.159376
0.15808
0.156902
0.155843
0.1549
0.154073
0.15336
0.152759
0.152267
0.151881
0.1516
0.15142
0.151341
0.151359
0.151474
0.151683
0.151984
0.152376
0.152858
0.153428
0.154084
0.154825
0.15565
0.156558
0.157548
0.158618
0.159768
0.160997
0.162303
0.163685
0.165144
0.166677
0.168284
0.169965
0.171717
0.17354
0.175433
0.177395
0.179425
0.181522
0.183684
0.18591
0.188199
0.190549
0.19296
0.195428
0.197954
0.200534
0.203168
0.205853
0.208589
0.211372
0.214202
0.217076
0.219993
0.222951
0.225949
0.228984
0.232055
0.235162
0.238302
0.241474
0.244677
0.247911
0.251175
0.254468
0.257789
0.26114
0.264519
0.267927
0.271364
0.274832
0.278332
0.281863
0.285428
0.289029
0.292666
0.296342
0.300058
0.303817
0.30762
0.31147
0.315369
0.319318
0.323318
0.327372
0.33148
0.335642
0.339857
0.344125
0.348444
0.35281
0.357218
0.361663
0.366137
0.37063
0.375131
0.379625
0.384097
0.388527
0.392893
0.397171
0.401332
0.405345
0.409176
0.412788
0.41614
0.419189
0.421889
0.424191
0.426047
0.427405
0.428215
0.428427
0.427981
0.426826
0.424913
0.422198
0.418639
0.4142
0.408851
0.402566
0.395329
0.387127
0.377957
0.367821
0.356727
0.344689
0.331727
0.317864
0.303127
0.287542
0.271139
0.253941
0.23597
0.217232
0.19771
0.177328
0.155886
0.132888
0.106973
0.0735893
0.0195872
0.0073155
0.03475
0.0535423
0.0685365
0.0818946
0.0942815
0.105923
0.116908
0.127271
0.137027
0.146183
0.154742
0.162709
0.170089
0.176889
0.183117
0.188781
0.193892
0.198459
0.202496
0.206013
0.209025
0.211546
0.213591
0.215175
0.216318
0.217037
0.217364
0.217318
0.216922
0.216197
0.21517
0.213865
0.21231
0.21053
0.208554
0.206409
0.204121
0.201717
0.199222
0.19666
0.194056
0.191429
0.188802
0.186192
0.183617
0.181092
0.178631
0.176245
0.173945
0.171739
0.169634
0.167637
0.165751
0.163981
0.162327
0.160792
0.159376
0.15808
0.156902
0.155843
0.1549
0.154073
0.15336
0.152759
0.152267
0.151881
0.1516
0.15142
0.151341
0.15136
0.151474
0.151683
0.151984
0.152377
0.152858
0.153428
0.154084
0.154826
0.155651
0.156559
0.157549
0.158619
0.159769
0.160997
0.162303
0.163686
0.165144
0.166678
0.168285
0.169965
0.171717
0.17354
0.175434
0.177396
0.179426
0.181522
0.183684
0.185911
0.1882
0.19055
0.19296
0.195429
0.197954
0.200535
0.203168
0.205854
0.208589
0.211373
0.214202
0.217077
0.219994
0.222952
0.225949
0.228985
0.232056
0.235163
0.238302
0.241475
0.244678
0.247912
0.251176
0.254468
0.25779
0.26114
0.264519
0.267928
0.271365
0.274833
0.278332
0.281864
0.285429
0.289029
0.292667
0.296342
0.300059
0.303818
0.307621
0.311471
0.31537
0.319318
0.323319
0.327373
0.331481
0.335642
0.339858
0.344126
0.348445
0.352811
0.357219
0.361664
0.366138
0.370631
0.375132
0.379626
0.384098
0.388528
0.392894
0.397172
0.401332
0.405346
0.409177
0.412789
0.416141
0.41919
0.42189
0.424192
0.426048
0.427406
0.428216
0.428428
0.427982
0.426827
0.424915
0.422199
0.41864
0.414201
0.408852
0.402568
0.39533
0.387129
0.377959
0.367822
0.356728
0.34469
0.331728
0.317866
0.303128
0.287544
0.27114
0.253942
0.235971
0.217233
0.197711
0.177328
0.155886
0.132889
0.106973
0.0735893
0.0195873
0.00971824
0.0431116
0.06456
0.0812356
0.0959522
0.109552
0.122324
0.134376
0.145746
0.156447
0.166481
0.175852
0.184562
0.192618
0.200029
0.206806
0.212964
0.218516
0.22348
0.227871
0.231706
0.235003
0.237778
0.24005
0.241837
0.243156
0.244027
0.244478
0.244529
0.244201
0.243518
0.242502
0.241179
0.239576
0.237719
0.235635
0.233354
0.230901
0.228307
0.225597
0.222798
0.219937
0.217038
0.214123
0.211216
0.208335
0.205499
0.202725
0.200027
0.197418
0.194908
0.192507
0.190222
0.18806
0.186026
0.184121
0.18235
0.180713
0.179211
0.177843
0.17661
0.17551
0.174541
0.173703
0.172992
0.172405
0.17194
0.171595
0.171366
0.171252
0.171249
0.171357
0.171572
0.171892
0.172316
0.172842
0.173468
0.174192
0.175013
0.175928
0.176938
0.17804
0.179234
0.180517
0.181889
0.183349
0.184895
0.186526
0.188242
0.19004
0.191921
0.193883
0.195924
0.198044
0.200241
0.202514
0.204861
0.207282
0.209774
0.212337
0.214967
0.217665
0.220427
0.223253
0.22614
0.229086
0.232089
0.235148
0.238261
0.241424
0.244637
0.247898
0.251204
0.254553
0.257944
0.261376
0.264846
0.268353
0.271895
0.275472
0.279083
0.282727
0.286403
0.29011
0.293849
0.29762
0.301423
0.305258
0.309127
0.31303
0.316968
0.320943
0.324957
0.329011
0.333107
0.337248
0.341436
0.345672
0.349959
0.354299
0.358693
0.363145
0.367654
0.372221
0.376848
0.381533
0.386274
0.39107
0.395917
0.400809
0.40574
0.410701
0.415682
0.42067
0.425648
0.4306
0.435504
0.440336
0.445069
0.449673
0.454113
0.458353
0.462352
0.466067
0.469451
0.472455
0.475028
0.477116
0.478666
0.479624
0.479935
0.479539
0.478384
0.476419
0.473599
0.469879
0.465224
0.459601
0.452982
0.445347
0.436682
0.426978
0.416229
0.404439
0.391611
0.377755
0.362882
0.347005
0.33014
0.312301
0.293506
0.273769
0.253096
0.231472
0.208826
0.184949
0.159271
0.130175
0.0920681
0.0272834
0.00971765
0.0431106
0.0645594
0.0812354
0.0959523
0.109552
0.122324
0.134376
0.145747
0.156447
0.166482
0.175852
0.184562
0.192618
0.200029
0.206807
0.212964
0.218517
0.22348
0.227871
0.231707
0.235003
0.237779
0.240051
0.241837
0.243157
0.244028
0.244479
0.244529
0.244202
0.243518
0.242502
0.24118
0.239576
0.237719
0.235636
0.233354
0.230902
0.228307
0.225597
0.222799
0.219937
0.217038
0.214124
0.211216
0.208335
0.2055
0.202725
0.200027
0.197418
0.194908
0.192507
0.190223
0.188061
0.186026
0.184122
0.18235
0.180713
0.179211
0.177844
0.17661
0.17551
0.174541
0.173703
0.172992
0.172405
0.17194
0.171595
0.171366
0.171252
0.17125
0.171357
0.171572
0.171892
0.172317
0.172842
0.173468
0.174192
0.175013
0.175929
0.176939
0.178041
0.179234
0.180518
0.18189
0.183349
0.184895
0.186527
0.188242
0.190041
0.191922
0.193883
0.195925
0.198044
0.200242
0.202514
0.204862
0.207283
0.209775
0.212337
0.214968
0.217665
0.220428
0.223253
0.22614
0.229087
0.23209
0.235149
0.238261
0.241425
0.244638
0.247898
0.251204
0.254554
0.257945
0.261376
0.264846
0.268353
0.271896
0.275473
0.279084
0.282728
0.286403
0.290111
0.29385
0.297621
0.301424
0.305259
0.309127
0.31303
0.316969
0.320944
0.324958
0.329012
0.333108
0.337249
0.341436
0.345672
0.349959
0.354299
0.358694
0.363145
0.367655
0.372222
0.376849
0.381533
0.386275
0.391071
0.395918
0.40081
0.405741
0.410702
0.415683
0.42067
0.425649
0.430601
0.435505
0.440337
0.44507
0.449673
0.454114
0.458354
0.462353
0.466068
0.469452
0.472456
0.475029
0.477117
0.478667
0.479625
0.479936
0.47954
0.478385
0.47642
0.4736
0.469881
0.465225
0.459602
0.452983
0.445349
0.436684
0.426979
0.416231
0.40444
0.391612
0.377756
0.362883
0.347006
0.330141
0.312302
0.293507
0.27377
0.253096
0.231472
0.208827
0.184949
0.159271
0.130175
0.092068
0.0272835
0.0121678
0.0508017
0.0747878
0.0930675
0.109049
0.123736
0.137485
0.150431
0.162621
0.17407
0.184781
0.194757
0.204004
0.21253
0.220349
0.227479
0.23394
0.239753
0.244942
0.249529
0.253537
0.25699
0.259908
0.262313
0.264224
0.265661
0.266644
0.267195
0.267337
0.267089
0.266472
0.265508
0.26422
0.262631
0.260768
0.258656
0.256323
0.253795
0.251102
0.24827
0.245327
0.242302
0.23922
0.236106
0.232984
0.229878
0.226807
0.223791
0.220847
0.217989
0.215232
0.212586
0.21006
0.207664
0.205402
0.203279
0.201299
0.199465
0.197777
0.196235
0.19484
0.193591
0.192486
0.191524
0.190702
0.190017
0.189467
0.189048
0.188758
0.188594
0.188554
0.188635
0.188835
0.189151
0.189581
0.190123
0.190776
0.191536
0.192403
0.193374
0.194448
0.195624
0.1969
0.198274
0.199745
0.201313
0.202975
0.20473
0.206578
0.208516
0.210544
0.212661
0.214864
0.217153
0.219526
0.221981
0.224518
0.227135
0.229829
0.232599
0.235444
0.238362
0.241349
0.244406
0.247529
0.250716
0.253965
0.257275
0.260642
0.264065
0.267541
0.271069
0.274646
0.27827
0.28194
0.285653
0.289408
0.293203
0.297037
0.300909
0.304817
0.30876
0.312739
0.316753
0.3208
0.324882
0.328999
0.333152
0.33734
0.341566
0.34583
0.350134
0.35448
0.358869
0.363304
0.367787
0.37232
0.376906
0.381546
0.386243
0.390999
0.395815
0.400693
0.405634
0.410637
0.415702
0.420828
0.426011
0.431248
0.436532
0.441857
0.447213
0.452588
0.457969
0.463339
0.468679
0.473966
0.479175
0.484276
0.489239
0.494026
0.498599
0.502916
0.50693
0.510595
0.513858
0.516667
0.518967
0.520703
0.521819
0.522257
0.52196
0.520876
0.518955
0.51615
0.51242
0.507725
0.502034
0.495316
0.48755
0.478715
0.468796
0.457783
0.445665
0.432437
0.418092
0.402627
0.386038
0.368324
0.349484
0.329521
0.308438
0.286235
0.262892
0.238327
0.212302
0.184162
0.152042
0.109577
0.0350266
0.0121671
0.0508006
0.0747873
0.0930675
0.109049
0.123736
0.137486
0.150432
0.162622
0.17407
0.184782
0.194758
0.204004
0.212531
0.22035
0.22748
0.233941
0.239754
0.244942
0.249529
0.253538
0.25699
0.259908
0.262313
0.264224
0.265661
0.266644
0.267196
0.267338
0.26709
0.266473
0.265509
0.26422
0.262632
0.260769
0.258657
0.256323
0.253796
0.251102
0.24827
0.245328
0.242302
0.23922
0.236106
0.232985
0.229878
0.226807
0.223791
0.220847
0.21799
0.215232
0.212586
0.210061
0.207664
0.205402
0.203279
0.2013
0.199465
0.197777
0.196235
0.19484
0.193591
0.192486
0.191524
0.190702
0.190017
0.189467
0.189048
0.188758
0.188594
0.188554
0.188635
0.188835
0.189151
0.189582
0.190124
0.190776
0.191536
0.192403
0.193374
0.194449
0.195624
0.1969
0.198274
0.199746
0.201313
0.202975
0.204731
0.206578
0.208517
0.210545
0.212661
0.214864
0.217153
0.219526
0.221982
0.224519
0.227135
0.229829
0.2326
0.235445
0.238362
0.24135
0.244406
0.247529
0.250716
0.253966
0.257275
0.260642
0.264065
0.267542
0.271069
0.274646
0.278271
0.28194
0.285654
0.289408
0.293204
0.297038
0.300909
0.304817
0.308761
0.31274
0.316753
0.320801
0.324883
0.329
0.333152
0.337341
0.341566
0.34583
0.350134
0.35448
0.35887
0.363305
0.367788
0.372321
0.376906
0.381546
0.386244
0.390999
0.395816
0.400694
0.405634
0.410638
0.415703
0.420829
0.426012
0.431248
0.436533
0.441858
0.447213
0.452589
0.45797
0.46334
0.46868
0.473967
0.479175
0.484277
0.489239
0.494026
0.4986
0.502916
0.506931
0.510595
0.513859
0.516668
0.518968
0.520703
0.52182
0.522258
0.521961
0.520877
0.518956
0.516151
0.512421
0.507726
0.502035
0.495317
0.487551
0.478716
0.468797
0.457784
0.445666
0.432438
0.418093
0.402628
0.386039
0.368325
0.349484
0.329521
0.308438
0.286236
0.262892
0.238327
0.212302
0.184161
0.152042
0.109577
0.0350267
0.0146266
0.0581353
0.0845174
0.104372
0.121566
0.137264
0.151889
0.165607
0.17848
0.190528
0.201761
0.212182
0.221802
0.230635
0.238702
0.246026
0.252636
0.258562
0.263836
0.268488
0.27255
0.27605
0.279016
0.28147
0.283438
0.28494
0.285996
0.286624
0.286847
0.286682
0.286148
0.285263
0.284047
0.282521
0.280707
0.278629
0.276311
0.27378
0.271062
0.268184
0.265175
0.262062
0.258873
0.255633
0.252369
0.249105
0.245864
0.242667
0.239534
0.236481
0.233524
0.230677
0.22795
0.225353
0.222895
0.220581
0.218416
0.216402
0.214543
0.212839
0.211291
0.209898
0.208658
0.207571
0.206634
0.205844
0.205198
0.204693
0.204328
0.204098
0.204001
0.204034
0.204195
0.204482
0.204891
0.20542
0.206068
0.206832
0.20771
0.208701
0.209802
0.211012
0.21233
0.213753
0.215281
0.216911
0.218643
0.220475
0.222406
0.224435
0.226559
0.228778
0.23109
0.233493
0.235987
0.238569
0.241238
0.243992
0.246829
0.249748
0.252746
0.255821
0.258972
0.262196
0.265491
0.268854
0.272284
0.275778
0.279334
0.282949
0.286621
0.290348
0.294128
0.297959
0.301838
0.305764
0.309735
0.313749
0.317805
0.321901
0.326037
0.330211
0.334423
0.338672
0.342959
0.347283
0.351644
0.356044
0.360482
0.364961
0.369481
0.374044
0.378652
0.383307
0.388011
0.392765
0.397574
0.402438
0.40736
0.412343
0.417388
0.422497
0.427671
0.432912
0.438218
0.443589
0.449024
0.454519
0.46007
0.46567
0.471312
0.476985
0.482679
0.488377
0.494062
0.499715
0.505311
0.510824
0.516224
0.521478
0.526549
0.531397
0.535978
0.540246
0.544152
0.547644
0.55067
0.553174
0.555101
0.556395
0.556999
0.556857
0.55592
0.554139
0.55147
0.54787
0.543302
0.537733
0.531132
0.523472
0.514728
0.504879
0.493902
0.481777
0.468482
0.453993
0.438289
0.421345
0.403139
0.383651
0.362865
0.340769
0.317349
0.292568
0.266326
0.238343
0.20787
0.172807
0.126043
0.0426376
0.0146259
0.0581343
0.084517
0.104373
0.121567
0.137264
0.15189
0.165608
0.17848
0.190529
0.201761
0.212183
0.221803
0.230636
0.238702
0.246026
0.252636
0.258562
0.263836
0.268489
0.272551
0.276051
0.279016
0.281471
0.283439
0.28494
0.285996
0.286624
0.286847
0.286683
0.286148
0.285263
0.284047
0.282521
0.280707
0.278629
0.276311
0.27378
0.271062
0.268184
0.265175
0.262062
0.258873
0.255633
0.252369
0.249105
0.245864
0.242667
0.239534
0.236481
0.233524
0.230677
0.22795
0.225354
0.222895
0.220581
0.218416
0.216402
0.214543
0.212839
0.211291
0.209898
0.208658
0.207571
0.206634
0.205844
0.205198
0.204694
0.204328
0.204098
0.204001
0.204035
0.204196
0.204482
0.204891
0.20542
0.206068
0.206832
0.20771
0.208701
0.209802
0.211012
0.21233
0.213753
0.215281
0.216912
0.218644
0.220476
0.222407
0.224435
0.226559
0.228778
0.23109
0.233493
0.235987
0.238569
0.241238
0.243992
0.246829
0.249748
0.252746
0.255821
0.258972
0.262196
0.265491
0.268854
0.272284
0.275778
0.279334
0.282949
0.286622
0.290349
0.294129
0.29796
0.301839
0.305765
0.309735
0.31375
0.317805
0.321902
0.326037
0.330211
0.334423
0.338673
0.342959
0.347283
0.351645
0.356044
0.360483
0.364961
0.369482
0.374045
0.378653
0.383307
0.388011
0.392766
0.397574
0.402438
0.407361
0.412343
0.417388
0.422497
0.427672
0.432912
0.438218
0.44359
0.449024
0.454519
0.46007
0.46567
0.471312
0.476986
0.482679
0.488377
0.494063
0.499715
0.505311
0.510824
0.516225
0.521479
0.526549
0.531397
0.535978
0.540246
0.544152
0.547645
0.550671
0.553175
0.555102
0.556396
0.556999
0.556858
0.555921
0.55414
0.551471
0.547871
0.543303
0.537734
0.531132
0.523472
0.514729
0.504879
0.493903
0.481778
0.468482
0.453994
0.43829
0.421345
0.403139
0.383651
0.362865
0.34077
0.317349
0.292568
0.266326
0.238343
0.20787
0.172807
0.126043
0.0426378
0.0171233
0.0652697
0.0939365
0.115319
0.133678
0.150322
0.165743
0.180135
0.19358
0.206109
0.217735
0.22847
0.238331
0.247337
0.255518
0.262907
0.269541
0.275461
0.280706
0.285318
0.289336
0.292795
0.295727
0.298164
0.300131
0.30165
0.302742
0.303425
0.303717
0.303635
0.303193
0.302406
0.301289
0.299861
0.298138
0.296141
0.293892
0.291414
0.288732
0.285871
0.282858
0.279721
0.276487
0.273183
0.269837
0.266474
0.263118
0.259792
0.256518
0.253316
0.250201
0.247191
0.244297
0.241531
0.238903
0.23642
0.234088
0.231911
0.229893
0.228035
0.226339
0.224804
0.223429
0.222213
0.221154
0.220249
0.219496
0.218892
0.218434
0.218119
0.217944
0.217907
0.218004
0.218234
0.218593
0.219079
0.21969
0.220424
0.221278
0.222251
0.223341
0.224546
0.225864
0.227294
0.228834
0.230483
0.232239
0.234101
0.236067
0.238136
0.240306
0.242576
0.244945
0.24741
0.249971
0.252625
0.25537
0.258205
0.261129
0.264138
0.267231
0.270405
0.273659
0.276991
0.280397
0.283876
0.287424
0.291041
0.294723
0.298468
0.302273
0.306137
0.310056
0.31403
0.318055
0.322129
0.326252
0.330421
0.334634
0.338891
0.343191
0.347531
0.351913
0.356334
0.360796
0.365298
0.36984
0.374423
0.379049
0.383717
0.38843
0.393189
0.397996
0.402853
0.407762
0.412725
0.417745
0.422825
0.427965
0.43317
0.438439
0.443777
0.449182
0.454657
0.4602
0.465812
0.471489
0.477229
0.483026
0.488875
0.494767
0.500691
0.506635
0.512584
0.518519
0.52442
0.530262
0.536018
0.541658
0.547148
0.55245
0.557525
0.562328
0.566814
0.570934
0.574637
0.577869
0.580578
0.58271
0.58421
0.585022
0.585097
0.584385
0.582841
0.580423
0.577091
0.572807
0.567538
0.561252
0.553916
0.545502
0.535976
0.525306
0.513457
0.500388
0.486059
0.470422
0.453433
0.435044
0.415213
0.393901
0.371074
0.346698
0.320715
0.292995
0.26321
0.230521
0.192605
0.141695
0.0502063
0.0171225
0.0652687
0.0939362
0.115319
0.133678
0.150323
0.165743
0.180136
0.193581
0.20611
0.217736
0.228471
0.238331
0.247338
0.255519
0.262907
0.269542
0.275461
0.280707
0.285319
0.289336
0.292795
0.295728
0.298164
0.300131
0.30165
0.302742
0.303425
0.303717
0.303635
0.303193
0.302406
0.301289
0.299861
0.298138
0.296141
0.293892
0.291414
0.288732
0.285871
0.282858
0.279721
0.276487
0.273183
0.269837
0.266474
0.263118
0.259792
0.256518
0.253316
0.250201
0.24719
0.244297
0.241531
0.238903
0.23642
0.234088
0.231911
0.229893
0.228035
0.226339
0.224804
0.223429
0.222213
0.221154
0.220249
0.219496
0.218892
0.218434
0.218119
0.217944
0.217907
0.218004
0.218234
0.218593
0.219079
0.21969
0.220424
0.221279
0.222252
0.223341
0.224546
0.225864
0.227294
0.228835
0.230483
0.232239
0.234101
0.236067
0.238136
0.240306
0.242577
0.244945
0.247411
0.249971
0.252625
0.25537
0.258206
0.261129
0.264138
0.267231
0.270406
0.27366
0.276991
0.280397
0.283876
0.287425
0.291041
0.294723
0.298468
0.302273
0.306137
0.310057
0.31403
0.318055
0.32213
0.326252
0.330421
0.334635
0.338892
0.343191
0.347532
0.351913
0.356334
0.360796
0.365298
0.36984
0.374424
0.379049
0.383718
0.388431
0.39319
0.397997
0.402853
0.407762
0.412726
0.417746
0.422825
0.427966
0.43317
0.43844
0.443777
0.449182
0.454657
0.460201
0.465812
0.471489
0.477229
0.483027
0.488875
0.494767
0.500692
0.506636
0.512584
0.518519
0.52442
0.530262
0.536018
0.541658
0.547148
0.552451
0.557525
0.562329
0.566815
0.570935
0.574637
0.57787
0.580579
0.582711
0.584211
0.585023
0.585097
0.584385
0.582842
0.580424
0.577091
0.572808
0.567539
0.561252
0.553917
0.545502
0.535976
0.525307
0.513457
0.500389
0.486059
0.470423
0.453433
0.435045
0.415213
0.393901
0.371074
0.346698
0.320715
0.292994
0.26321
0.23052
0.192604
0.141695
0.0502065
0.0196685
0.0722445
0.103135
0.125996
0.145469
0.163002
0.179146
0.19413
0.208055
0.220962
0.232877
0.243819
0.25381
0.262882
0.271072
0.278423
0.284982
0.2908
0.295928
0.300417
0.304313
0.307661
0.3105
0.312864
0.314783
0.316282
0.317382
0.318098
0.318449
0.318446
0.3181
0.317423
0.316425
0.315119
0.313519
0.311639
0.309499
0.307118
0.304517