/*--------------------------------*- C++ -*----------------------------------*\
  =========                 |
  \\      /  F ield         | OpenFOAM: The Open Source CFD Toolbox
   \\    /   O peration     | Website:  https://openfoam.org
    \\  /    A nd           | Version:  8
     \\/     M anipulation  |
\*---------------------------------------------------------------------------*/
FoamFile
{
    version     2.0;
    format      ascii;
    class       volScalarField;
    location    "1200";
    object      nut;
}
// * * * * * * * * * * * * * * * * * * * * * * * * * * * * * * * * * * * * * //

dimensions      [0 2 -1 0 0 0 0];

internalField   nonuniform List<scalar> 
46000
(
3.41574e-08
1.69871e-07
3.639e-07
5.72947e-07
7.89409e-07
1.01525e-06
1.24031e-06
1.46031e-06
1.67209e-06
1.8761e-06
2.0686e-06
2.2493e-06
2.41824e-06
2.57496e-06
2.71912e-06
2.85047e-06
2.96888e-06
3.07433e-06
3.16689e-06
3.24675e-06
3.31416e-06
3.36948e-06
3.4131e-06
3.44548e-06
3.46713e-06
3.47953e-06
3.4865e-06
3.48548e-06
3.47644e-06
3.45992e-06
3.43659e-06
3.40719e-06
3.37244e-06
3.33307e-06
3.28979e-06
3.24326e-06
3.19414e-06
3.14303e-06
3.0905e-06
3.03709e-06
2.98328e-06
2.9295e-06
2.87616e-06
2.82359e-06
2.77211e-06
2.72199e-06
2.67344e-06
2.62665e-06
2.58177e-06
2.53893e-06
2.49823e-06
2.45971e-06
2.42344e-06
2.38943e-06
2.3577e-06
2.32824e-06
2.30104e-06
2.27606e-06
2.25325e-06
2.23262e-06
2.21408e-06
2.19782e-06
2.18442e-06
2.17301e-06
2.16348e-06
2.15579e-06
2.14991e-06
2.14581e-06
2.14346e-06
2.14282e-06
2.14387e-06
2.1466e-06
2.15097e-06
2.15697e-06
2.16458e-06
2.17379e-06
2.18459e-06
2.19695e-06
2.21088e-06
2.22636e-06
2.2434e-06
2.26197e-06
2.28209e-06
2.30374e-06
2.32693e-06
2.35165e-06
2.37791e-06
2.4057e-06
2.43503e-06
2.4659e-06
2.4983e-06
2.53225e-06
2.56773e-06
2.60474e-06
2.64329e-06
2.68337e-06
2.72497e-06
2.76809e-06
2.81272e-06
2.85885e-06
2.90647e-06
2.95556e-06
3.00611e-06
3.05811e-06
3.11153e-06
3.16636e-06
3.22257e-06
3.28014e-06
3.33904e-06
3.39926e-06
3.46076e-06
3.52352e-06
3.58751e-06
3.65272e-06
3.71912e-06
3.78668e-06
3.8554e-06
3.92524e-06
3.9962e-06
4.06826e-06
4.14142e-06
4.21567e-06
4.29101e-06
4.36745e-06
4.445e-06
4.52367e-06
4.60348e-06
4.68445e-06
4.76663e-06
4.85004e-06
4.93472e-06
5.02073e-06
5.10811e-06
5.19693e-06
5.28724e-06
5.37911e-06
5.4726e-06
5.56778e-06
5.66473e-06
5.7635e-06
5.86417e-06
5.96678e-06
6.0714e-06
6.17806e-06
6.28678e-06
6.39757e-06
6.51041e-06
6.62526e-06
6.74204e-06
6.86064e-06
6.98089e-06
7.10259e-06
7.22546e-06
7.34916e-06
7.47328e-06
7.59733e-06
7.72074e-06
7.84282e-06
7.9628e-06
8.0798e-06
8.19283e-06
8.30079e-06
8.40245e-06
8.49651e-06
8.58152e-06
8.65598e-06
8.71829e-06
8.76678e-06
8.7998e-06
8.81573e-06
8.81345e-06
8.79477e-06
8.75514e-06
8.69237e-06
8.60497e-06
8.49181e-06
8.352e-06
8.1849e-06
7.99019e-06
7.76786e-06
7.51826e-06
7.24212e-06
6.94055e-06
6.61505e-06
6.26753e-06
5.90023e-06
5.51576e-06
5.11698e-06
4.707e-06
4.28905e-06
3.86634e-06
3.44166e-06
3.01468e-06
2.58916e-06
2.1698e-06
1.74679e-06
1.32092e-06
8.97993e-07
4.54805e-07
9.4013e-08
3.41536e-08
1.69854e-07
3.63869e-07
5.72907e-07
7.89361e-07
1.0152e-06
1.24026e-06
1.46025e-06
1.67202e-06
1.87604e-06
2.06853e-06
2.24924e-06
2.41817e-06
2.5749e-06
2.71906e-06
2.85042e-06
2.96883e-06
3.07428e-06
3.16685e-06
3.24671e-06
3.31413e-06
3.36944e-06
3.41307e-06
3.44546e-06
3.46711e-06
3.47951e-06
3.48648e-06
3.48546e-06
3.47642e-06
3.4599e-06
3.43657e-06
3.40717e-06
3.37242e-06
3.33306e-06
3.28977e-06
3.24324e-06
3.19411e-06
3.143e-06
3.09048e-06
3.03707e-06
2.98325e-06
2.92948e-06
2.87613e-06
2.82356e-06
2.77208e-06
2.72196e-06
2.6734e-06
2.62661e-06
2.58174e-06
2.5389e-06
2.49819e-06
2.45968e-06
2.4234e-06
2.3894e-06
2.35767e-06
2.32821e-06
2.301e-06
2.27602e-06
2.25322e-06
2.23258e-06
2.21405e-06
2.19778e-06
2.18439e-06
2.17298e-06
2.16344e-06
2.15575e-06
2.14987e-06
2.14577e-06
2.14342e-06
2.14278e-06
2.14383e-06
2.14656e-06
2.15093e-06
2.15693e-06
2.16454e-06
2.17375e-06
2.18455e-06
2.19691e-06
2.21084e-06
2.22632e-06
2.24335e-06
2.26193e-06
2.28204e-06
2.3037e-06
2.32688e-06
2.35161e-06
2.37787e-06
2.40566e-06
2.43499e-06
2.46586e-06
2.49827e-06
2.53221e-06
2.56769e-06
2.6047e-06
2.64325e-06
2.68333e-06
2.72493e-06
2.76805e-06
2.81268e-06
2.85881e-06
2.90643e-06
2.95553e-06
3.00609e-06
3.05808e-06
3.11151e-06
3.16633e-06
3.22254e-06
3.28011e-06
3.33902e-06
3.39923e-06
3.46073e-06
3.5235e-06
3.58749e-06
3.6527e-06
3.7191e-06
3.78667e-06
3.85538e-06
3.92522e-06
3.99618e-06
4.06825e-06
4.14141e-06
4.21566e-06
4.291e-06
4.36745e-06
4.44499e-06
4.52366e-06
4.60347e-06
4.68445e-06
4.76662e-06
4.85003e-06
4.93472e-06
5.02073e-06
5.10811e-06
5.19693e-06
5.28724e-06
5.37911e-06
5.4726e-06
5.56778e-06
5.66473e-06
5.7635e-06
5.86417e-06
5.96678e-06
6.0714e-06
6.17806e-06
6.28678e-06
6.39757e-06
6.51041e-06
6.62526e-06
6.74204e-06
6.86064e-06
6.98089e-06
7.10259e-06
7.22545e-06
7.34915e-06
7.47328e-06
7.59733e-06
7.72074e-06
7.84282e-06
7.9628e-06
8.0798e-06
8.19283e-06
8.30079e-06
8.40246e-06
8.49651e-06
8.58153e-06
8.65599e-06
8.71829e-06
8.76679e-06
8.7998e-06
8.81574e-06
8.81346e-06
8.79478e-06
8.75516e-06
8.69239e-06
8.60499e-06
8.49184e-06
8.35203e-06
8.18493e-06
7.99023e-06
7.7679e-06
7.5183e-06
7.24216e-06
6.94059e-06
6.61509e-06
6.26757e-06
5.90027e-06
5.51579e-06
5.11702e-06
4.70703e-06
4.28908e-06
3.86636e-06
3.44169e-06
3.0147e-06
2.58917e-06
2.16981e-06
1.7468e-06
1.32092e-06
8.97992e-07
4.54805e-07
9.40124e-08
1.59261e-07
7.35357e-06
1.62112e-05
2.2884e-05
2.83869e-05
3.28935e-05
3.67391e-05
4.01288e-05
4.31409e-05
4.58336e-05
4.82568e-05
5.04344e-05
5.23836e-05
5.41204e-05
5.56595e-05
5.70143e-05
5.81973e-05
5.92201e-05
6.00939e-05
6.0829e-05
6.14356e-05
6.19228e-05
6.22994e-05
6.25725e-05
6.27455e-05
6.28074e-05
6.27562e-05
6.26351e-05
6.24553e-05
6.22258e-05
6.19542e-05
6.16468e-05
6.13094e-05
6.09471e-05
6.05643e-05
6.01654e-05
5.97538e-05
5.93332e-05
5.89063e-05
5.84762e-05
5.80451e-05
5.76156e-05
5.71896e-05
5.6769e-05
5.63555e-05
5.59508e-05
5.55561e-05
5.51729e-05
5.48021e-05
5.44448e-05
5.41019e-05
5.37741e-05
5.34621e-05
5.31664e-05
5.28874e-05
5.26255e-05
5.2381e-05
5.21539e-05
5.19444e-05
5.17521e-05
5.15758e-05
5.14105e-05
5.12563e-05
5.11184e-05
5.09985e-05
5.08967e-05
5.08133e-05
5.07482e-05
5.07012e-05
5.06721e-05
5.06607e-05
5.06668e-05
5.06903e-05
5.07307e-05
5.07881e-05
5.0862e-05
5.09523e-05
5.10588e-05
5.11812e-05
5.13192e-05
5.14727e-05
5.16414e-05
5.18251e-05
5.20236e-05
5.22365e-05
5.24638e-05
5.27051e-05
5.29603e-05
5.3229e-05
5.3511e-05
5.38061e-05
5.41139e-05
5.44343e-05
5.47668e-05
5.51113e-05
5.54674e-05
5.58347e-05
5.6213e-05
5.66019e-05
5.70011e-05
5.74101e-05
5.78286e-05
5.82562e-05
5.86925e-05
5.91371e-05
5.95897e-05
6.00498e-05
6.0517e-05
6.09909e-05
6.14712e-05
6.19575e-05
6.24495e-05
6.29467e-05
6.34489e-05
6.39558e-05
6.44671e-05
6.49825e-05
6.55019e-05
6.6025e-05
6.65516e-05
6.70818e-05
6.76153e-05
6.81522e-05
6.86923e-05
6.92358e-05
6.97826e-05
7.03329e-05
7.08868e-05
7.14445e-05
7.2006e-05
7.25717e-05
7.31418e-05
7.37165e-05
7.42961e-05
7.4881e-05
7.54713e-05
7.60673e-05
7.66694e-05
7.72779e-05
7.78928e-05
7.85144e-05
7.91429e-05
7.97783e-05
8.04205e-05
8.10694e-05
8.17248e-05
8.23861e-05
8.3053e-05
8.37244e-05
8.43996e-05
8.50772e-05
8.57558e-05
8.64335e-05
8.71082e-05
8.77775e-05
8.84386e-05
8.90882e-05
8.97229e-05
9.03384e-05
9.09305e-05
9.14942e-05
9.20243e-05
9.25149e-05
9.29601e-05
9.33534e-05
9.36878e-05
9.39563e-05
9.41516e-05
9.42658e-05
9.42914e-05
9.4221e-05
9.40197e-05
9.36891e-05
9.32267e-05
9.26278e-05
9.18869e-05
9.09986e-05
8.99579e-05
8.87605e-05
8.74028e-05
8.58822e-05
8.41969e-05
8.23459e-05
8.03293e-05
7.81477e-05
7.58023e-05
7.32948e-05
7.06265e-05
6.77981e-05
6.48087e-05
6.1654e-05
5.83245e-05
5.48039e-05
5.10296e-05
4.68442e-05
4.19367e-05
3.56415e-05
2.65315e-05
1.30731e-05
4.02e-07
1.59245e-07
7.35254e-06
1.62092e-05
2.28814e-05
2.83842e-05
3.28908e-05
3.67363e-05
4.0126e-05
4.31382e-05
4.58309e-05
4.82541e-05
5.04318e-05
5.2381e-05
5.41179e-05
5.56571e-05
5.7012e-05
5.81951e-05
5.9218e-05
6.00919e-05
6.08271e-05
6.14337e-05
6.19211e-05
6.22977e-05
6.25709e-05
6.27439e-05
6.2806e-05
6.27548e-05
6.26337e-05
6.24539e-05
6.22245e-05
6.19529e-05
6.16455e-05
6.13082e-05
6.09458e-05
6.05631e-05
6.01641e-05
5.97526e-05
5.93319e-05
5.8905e-05
5.84749e-05
5.80438e-05
5.76143e-05
5.71882e-05
5.67676e-05
5.63541e-05
5.59494e-05
5.55547e-05
5.51714e-05
5.48007e-05
5.44434e-05
5.41004e-05
5.37726e-05
5.34606e-05
5.31648e-05
5.28859e-05
5.2624e-05
5.23794e-05
5.21524e-05
5.19428e-05
5.17505e-05
5.15741e-05
5.14088e-05
5.12547e-05
5.11168e-05
5.09968e-05
5.0895e-05
5.08116e-05
5.07465e-05
5.06994e-05
5.06703e-05
5.06589e-05
5.0665e-05
5.06884e-05
5.07289e-05
5.07862e-05
5.08601e-05
5.09504e-05
5.10569e-05
5.11792e-05
5.13173e-05
5.14708e-05
5.16395e-05
5.18232e-05
5.20216e-05
5.22346e-05
5.24619e-05
5.27032e-05
5.29583e-05
5.3227e-05
5.3509e-05
5.38041e-05
5.41119e-05
5.44323e-05
5.47649e-05
5.51093e-05
5.54654e-05
5.58328e-05
5.62111e-05
5.66e-05
5.69992e-05
5.74082e-05
5.78267e-05
5.82543e-05
5.86906e-05
5.91353e-05
5.95879e-05
6.0048e-05
6.05152e-05
6.09892e-05
6.14695e-05
6.19558e-05
6.24478e-05
6.2945e-05
6.34473e-05
6.39542e-05
6.44655e-05
6.49809e-05
6.55003e-05
6.60234e-05
6.65501e-05
6.70803e-05
6.76139e-05
6.81507e-05
6.86909e-05
6.92344e-05
6.97812e-05
7.03316e-05
7.08855e-05
7.14431e-05
7.20047e-05
7.25704e-05
7.31405e-05
7.37153e-05
7.42949e-05
7.48797e-05
7.54701e-05
7.60661e-05
7.66683e-05
7.72767e-05
7.78916e-05
7.85133e-05
7.91418e-05
7.97772e-05
8.04194e-05
8.10683e-05
8.17237e-05
8.2385e-05
8.30519e-05
8.37233e-05
8.43985e-05
8.50761e-05
8.57547e-05
8.64324e-05
8.71071e-05
8.77764e-05
8.84375e-05
8.90871e-05
8.97218e-05
9.03373e-05
9.09294e-05
9.14931e-05
9.20232e-05
9.25138e-05
9.29591e-05
9.33523e-05
9.36868e-05
9.39553e-05
9.41505e-05
9.42648e-05
9.42904e-05
9.42201e-05
9.40188e-05
9.36882e-05
9.32258e-05
9.2627e-05
9.18861e-05
9.09979e-05
8.99572e-05
8.87599e-05
8.74022e-05
8.58817e-05
8.41964e-05
8.23455e-05
8.03289e-05
7.81473e-05
7.5802e-05
7.32944e-05
7.06261e-05
6.77978e-05
6.48084e-05
6.16537e-05
5.83242e-05
5.48036e-05
5.10292e-05
4.68438e-05
4.19364e-05
3.56412e-05
2.65313e-05
1.30732e-05
4.01999e-07
3.33727e-07
1.59081e-05
3.75896e-05
5.42025e-05
6.73627e-05
7.8131e-05
8.72457e-05
9.51431e-05
0.000102077
0.000108196
0.000113608
0.000118387
0.000122591
0.000126271
0.00012947
0.000132229
0.000134585
0.000136573
0.000138226
0.000139577
0.000140653
0.000141482
0.000142088
0.000142492
0.000142709
0.000142744
0.000142596
0.000142324
0.000141952
0.0001415
0.000140983
0.000140416
0.000139809
0.000139172
0.000138513
0.000137838
0.000137154
0.000136464
0.000135773
0.000135085
0.000134401
0.000133725
0.000133059
0.000132404
0.000131762
0.000131134
0.000130522
0.000129927
0.00012935
0.000128791
0.000128252
0.000127734
0.000127236
0.00012676
0.000126307
0.000125876
0.000125468
0.000125083
0.000124722
0.000124382
0.000124064
0.000123762
0.000123473
0.000123206
0.000122964
0.000122747
0.000122556
0.000122392
0.000122256
0.000122147
0.000122065
0.000122011
0.000121984
0.000121984
0.000122011
0.000122065
0.000122146
0.000122253
0.000122387
0.000122547
0.000122733
0.000122945
0.000123183
0.000123446
0.000123734
0.000124047
0.000124385
0.000124747
0.000125133
0.000125544
0.000125977
0.000126434
0.000126913
0.000127414
0.000127938
0.000128482
0.000129047
0.000129633
0.000130238
0.000130862
0.000131505
0.000132166
0.000132843
0.000133537
0.000134247
0.000134972
0.000135711
0.000136464
0.00013723
0.000138009
0.000138799
0.0001396
0.000140412
0.000141234
0.000142066
0.000142907
0.000143756
0.000144614
0.00014548
0.000146354
0.000147236
0.000148125
0.000149022
0.000149927
0.000150839
0.00015176
0.000152688
0.000153624
0.00015457
0.000155524
0.000156487
0.000157461
0.000158444
0.000159438
0.000160444
0.000161461
0.00016249
0.000163531
0.000164585
0.000165652
0.000166733
0.000167826
0.000168933
0.000170052
0.000171184
0.000172327
0.000173481
0.000174643
0.000175813
0.000176989
0.000178167
0.000179344
0.000180518
0.000181684
0.000182837
0.000183973
0.000185084
0.000186166
0.000187209
0.000188207
0.000189152
0.000190033
0.000190841
0.000191565
0.000192196
0.00019272
0.000193127
0.000193404
0.000193538
0.000193515
0.00019332
0.000192918
0.0001923
0.000191459
0.000190387
0.000189074
0.000187512
0.000185691
0.000183602
0.000181238
0.000178592
0.000175656
0.000172422
0.000168883
0.000165032
0.000160859
0.000156352
0.000151497
0.00014627
0.000140644
0.000134569
0.000127974
0.000120734
0.000112621
0.000103214
9.17452e-05
7.67489e-05
5.56035e-05
2.57591e-05
8.53628e-07
3.337e-07
1.59062e-05
3.75847e-05
5.41958e-05
6.73551e-05
7.81229e-05
8.72375e-05
9.51349e-05
0.000102069
0.000108188
0.0001136
0.000118379
0.000122584
0.000126264
0.000129464
0.000132223
0.000134579
0.000136567
0.000138221
0.000139572
0.000140648
0.000141478
0.000142084
0.000142489
0.000142706
0.000142741
0.000142593
0.000142321
0.000141949
0.000141497
0.000140981
0.000140413
0.000139807
0.00013917
0.000138511
0.000137836
0.000137151
0.000136461
0.000135771
0.000135082
0.000134398
0.000133722
0.000133056
0.000132401
0.000131759
0.000131131
0.000130519
0.000129924
0.000129346
0.000128788
0.000128249
0.00012773
0.000127232
0.000126756
0.000126303
0.000125872
0.000125464
0.000125079
0.000124717
0.000124378
0.000124059
0.000123758
0.000123469
0.000123202
0.000122959
0.000122742
0.000122551
0.000122387
0.000122251
0.000122142
0.00012206
0.000122006
0.000121978
0.000121978
0.000122005
0.000122059
0.00012214
0.000122248
0.000122381
0.000122541
0.000122728
0.00012294
0.000123177
0.00012344
0.000123729
0.000124042
0.00012438
0.000124742
0.000125128
0.000125538
0.000125972
0.000126428
0.000126908
0.000127409
0.000127933
0.000128477
0.000129043
0.000129628
0.000130233
0.000130858
0.000131501
0.000132161
0.000132839
0.000133533
0.000134243
0.000134968
0.000135707
0.00013646
0.000137226
0.000138005
0.000138795
0.000139597
0.000140409
0.000141231
0.000142063
0.000142903
0.000143753
0.000144611
0.000145477
0.000146351
0.000147233
0.000148122
0.00014902
0.000149924
0.000150837
0.000151757
0.000152685
0.000153622
0.000154567
0.000155521
0.000156485
0.000157458
0.000158442
0.000159436
0.000160442
0.000161459
0.000162488
0.000163529
0.000164583
0.00016565
0.000166731
0.000167824
0.000168931
0.00017005
0.000171182
0.000172325
0.000173479
0.000174642
0.000175812
0.000176987
0.000178165
0.000179343
0.000180517
0.000181682
0.000182836
0.000183971
0.000185083
0.000186164
0.000187207
0.000188206
0.00018915
0.000190031
0.000190839
0.000191564
0.000192194
0.000192719
0.000193126
0.000193403
0.000193537
0.000193514
0.000193319
0.000192917
0.000192299
0.000191459
0.000190387
0.000189074
0.000187511
0.00018569
0.000183602
0.000181239
0.000178592
0.000175656
0.000172422
0.000168884
0.000165033
0.00016086
0.000156353
0.000151497
0.000146271
0.000140645
0.00013457
0.000127975
0.000120734
0.000112622
0.000103215
9.17457e-05
7.67492e-05
5.56036e-05
2.57594e-05
8.53628e-07
5.06395e-07
2.1942e-05
5.31954e-05
7.83578e-05
9.85157e-05
0.000115249
0.000129509
0.000141869
0.00015269
0.000162207
0.000170587
0.000177952
0.000184402
0.000190017
0.000194872
0.000199034
0.000202563
0.000205519
0.000207956
0.000209928
0.000211481
0.000212663
0.000213513
0.000214069
0.00021436
0.00021441
0.000214237
0.000213896
0.00021342
0.000212837
0.00021217
0.000211439
0.000210659
0.000209846
0.00020901
0.000208159
0.000207302
0.000206445
0.000205591
0.000204746
0.000203911
0.000203089
0.000202283
0.000201493
0.00020072
0.000199966
0.000199231
0.000198516
0.000197821
0.000197147
0.000196493
0.00019586
0.000195249
0.00019466
0.000194093
0.000193547
0.000193024
0.000192523
0.000192044
0.000191585
0.000191146
0.000190724
0.000190317
0.000189931
0.000189567
0.000189229
0.000188918
0.000188634
0.000188379
0.000188153
0.000187956
0.00018779
0.000187655
0.00018755
0.000187477
0.000187435
0.000187425
0.000187446
0.0001875
0.000187586
0.000187704
0.000187855
0.000188038
0.000188254
0.000188503
0.000188784
0.000189098
0.000189444
0.000189823
0.000190234
0.000190677
0.000191152
0.000191658
0.000192195
0.000192764
0.000193362
0.00019399
0.000194647
0.000195332
0.000196046
0.000196786
0.000197553
0.000198345
0.000199161
0.000200002
0.000200865
0.000201751
0.000202657
0.000203584
0.000204531
0.000205496
0.000206479
0.000207479
0.000208496
0.000209529
0.000210577
0.00021164
0.000212717
0.000213809
0.000214914
0.000216033
0.000217165
0.000218311
0.00021947
0.000220643
0.00022183
0.00022303
0.000224246
0.000225476
0.000226721
0.000227983
0.00022926
0.000230555
0.000231867
0.000233197
0.000234546
0.000235914
0.000237301
0.000238709
0.000240136
0.000241584
0.000243051
0.000244538
0.000246045
0.000247569
0.000249111
0.000250668
0.000252238
0.000253818
0.000255406
0.000256998
0.000258589
0.000260174
0.000261748
0.000263304
0.000264834
0.000266331
0.000267786
0.000269188
0.000270528
0.000271793
0.000272972
0.000274051
0.000275018
0.000275856
0.000276552
0.00027709
0.000277454
0.000277627
0.00027759
0.000277325
0.0002768
0.000276001
0.000274913
0.000273525
0.000271822
0.000269792
0.000267421
0.000264696
0.000261603
0.000258129
0.000254257
0.000249972
0.000245255
0.000240084
0.000234435
0.000228275
0.000221564
0.000214249
0.000206257
0.000197484
0.000187774
0.000176884
0.000164415
0.000149705
0.000131648
0.000108411
7.71791e-05
3.53573e-05
1.3461e-06
5.0636e-07
2.19398e-05
5.31889e-05
7.83484e-05
9.85045e-05
0.000115237
0.000129496
0.000141856
0.000152677
0.000162194
0.000170574
0.00017794
0.00018439
0.000190007
0.000194862
0.000199024
0.000202554
0.000205511
0.000207949
0.000209921
0.000211475
0.000212657
0.000213508
0.000214065
0.000214356
0.000214406
0.000214233
0.000213893
0.000213417
0.000212834
0.000212168
0.000211436
0.000210657
0.000209844
0.000209008
0.000208157
0.0002073
0.000206443
0.000205589
0.000204743
0.000203908
0.000203087
0.00020228
0.00020149
0.000200717
0.000199963
0.000199228
0.000198512
0.000197817
0.000197142
0.000196488
0.000195856
0.000195245
0.000194655
0.000194088
0.000193542
0.000193019
0.000192517
0.000192038
0.000191579
0.00019114
0.000190718
0.000190311
0.000189924
0.000189561
0.000189222
0.000188911
0.000188627
0.000188372
0.000188145
0.000187949
0.000187783
0.000187647
0.000187543
0.000187469
0.000187427
0.000187417
0.000187439
0.000187492
0.000187578
0.000187696
0.000187847
0.000188031
0.000188246
0.000188495
0.000188776
0.00018909
0.000189437
0.000189815
0.000190226
0.00019067
0.000191144
0.000191651
0.000192188
0.000192757
0.000193355
0.000193983
0.00019464
0.000195326
0.000196039
0.00019678
0.000197547
0.000198339
0.000199156
0.000199996
0.00020086
0.000201745
0.000202652
0.000203579
0.000204526
0.000205491
0.000206474
0.000207475
0.000208492
0.000209525
0.000210573
0.000211636
0.000212713
0.000213805
0.00021491
0.000216029
0.000217161
0.000218307
0.000219467
0.00022064
0.000221827
0.000223028
0.000224243
0.000225473
0.000226719
0.00022798
0.000229258
0.000230553
0.000231865
0.000233195
0.000234544
0.000235912
0.000237299
0.000238707
0.000240134
0.000241582
0.000243049
0.000244537
0.000246043
0.000247568
0.000249109
0.000250666
0.000252236
0.000253816
0.000255404
0.000256996
0.000258587
0.000260172
0.000261746
0.000263302
0.000264832
0.000266329
0.000267784
0.000269187
0.000270526
0.000271792
0.00027297
0.00027405
0.000275016
0.000275855
0.000276551
0.000277089
0.000277453
0.000277626
0.000277589
0.000277324
0.0002768
0.000276
0.000274913
0.000273525
0.000271822
0.000269792
0.000267422
0.000264697
0.000261605
0.00025813
0.000254259
0.000249974
0.000245257
0.000240087
0.000234438
0.000228278
0.000221567
0.000214252
0.00020626
0.000197487
0.000187777
0.000176886
0.000164417
0.000149707
0.00013165
0.000108413
7.71798e-05
3.5358e-05
1.3461e-06
6.75249e-07
2.65483e-05
6.46412e-05
9.65213e-05
0.000122673
0.000144647
0.000163493
0.00017988
0.000194247
0.000206893
0.000218032
0.000227827
0.000236406
0.000243881
0.000250347
0.000255892
0.000260599
0.000264546
0.000267805
0.000270447
0.000272537
0.000274137
0.000275304
0.000276088
0.000276535
0.000276684
0.000276569
0.000276244
0.000275751
0.000275121
0.000274387
0.000273572
0.000272697
0.000271779
0.000270833
0.00026987
0.0002689
0.000267928
0.000266962
0.000266006
0.000265063
0.000264135
0.000263225
0.000262334
0.000261462
0.000260611
0.00025978
0.000258971
0.000258182
0.000257413
0.000256666
0.000255939
0.000255232
0.000254545
0.000253878
0.000253231
0.000252603
0.000251993
0.000251403
0.000250829
0.000250272
0.000249731
0.000249203
0.000248693
0.000248202
0.000247734
0.000247289
0.00024687
0.000246478
0.000246113
0.000245777
0.000245471
0.000245196
0.000244952
0.000244741
0.000244563
0.000244419
0.000244309
0.000244235
0.000244196
0.000244194
0.000244229
0.000244301
0.00024441
0.000244558
0.000244745
0.000244971
0.000245235
0.000245539
0.000245883
0.000246265
0.000246687
0.000247149
0.000247649
0.000248189
0.000248766
0.000249382
0.000250035
0.000250724
0.00025145
0.000252211
0.000253007
0.000253837
0.000254699
0.000255592
0.000256517
0.000257472
0.000258455
0.000259467
0.000260505
0.000261569
0.000262658
0.000263772
0.000264909
0.000266069
0.000267251
0.000268454
0.000269678
0.000270923
0.000272188
0.000273473
0.000274778
0.000276102
0.000277446
0.000278811
0.000280195
0.000281601
0.000283027
0.000284474
0.000285943
0.000287435
0.00028895
0.000290489
0.000292052
0.000293639
0.000295253
0.000296892
0.000298558
0.000300251
0.000301971
0.000303718
0.000305491
0.000307291
0.000309115
0.000310964
0.000312835
0.000314725
0.000316634
0.000318556
0.000320488
0.000322425
0.000324362
0.000326293
0.00032821
0.000330105
0.00033197
0.000333795
0.000335569
0.00033728
0.000338915
0.000340461
0.000341903
0.000343226
0.000344414
0.000345449
0.000346315
0.000346993
0.000347464
0.000347708
0.000347705
0.000347433
0.000346862
0.000345974
0.000344751
0.000343176
0.000341232
0.000338901
0.000336165
0.000333004
0.0003294
0.000325329
0.000320767
0.000315688
0.00031006
0.000303845
0.000296999
0.000289469
0.000281186
0.000272062
0.000261983
0.000250787
0.000238241
0.000223999
0.000207528
0.000187986
0.00016405
0.00013367
9.39246e-05
4.27319e-05
1.87803e-06
6.75208e-07
2.65459e-05
6.4634e-05
9.65104e-05
0.000122659
0.000144632
0.000163477
0.000179864
0.000194231
0.000206877
0.000218017
0.000227812
0.000236392
0.000243868
0.000250334
0.000255881
0.000260589
0.000264536
0.000267796
0.000270439
0.00027253
0.000274131
0.000275299
0.000276084
0.000276532
0.000276681
0.000276566
0.000276242
0.000275749
0.00027512
0.000274386
0.000273571
0.000272696
0.000271779
0.000270833
0.00026987
0.000268899
0.000267928
0.000266962
0.000266005
0.000265062
0.000264134
0.000263224
0.000262332
0.00026146
0.000260609
0.000259778
0.000258968
0.000258179
0.00025741
0.000256662
0.000255935
0.000255228
0.000254541
0.000253874
0.000253226
0.000252598
0.000251988
0.000251397
0.000250823
0.000250266
0.000249724
0.000249196
0.000248686
0.000248195
0.000247727
0.000247282
0.000246863
0.00024647
0.000246105
0.000245769
0.000245463
0.000245188
0.000244944
0.000244733
0.000244555
0.000244411
0.000244301
0.000244227
0.000244188
0.000244186
0.00024422
0.000244292
0.000244402
0.00024455
0.000244737
0.000244962
0.000245227
0.000245531
0.000245874
0.000246257
0.00024668
0.000247141
0.000247642
0.000248181
0.000248759
0.000249375
0.000250028
0.000250718
0.000251444
0.000252205
0.000253001
0.00025383
0.000254692
0.000255587
0.000256511
0.000257466
0.00025845
0.000259461
0.0002605
0.000261564
0.000262654
0.000263767
0.000264905
0.000266065
0.000267247
0.00026845
0.000269674
0.000270919
0.000272184
0.000273469
0.000274774
0.000276099
0.000277444
0.000278808
0.000280193
0.000281598
0.000283024
0.000284472
0.000285941
0.000287433
0.000288948
0.000290487
0.00029205
0.000293638
0.000295251
0.000296891
0.000298557
0.00030025
0.00030197
0.000303716
0.00030549
0.000307289
0.000309114
0.000310963
0.000312833
0.000314724
0.000316632
0.000318554
0.000320486
0.000322424
0.000324361
0.000326291
0.000328209
0.000330104
0.000331969
0.000333794
0.000335568
0.000337278
0.000338913
0.000340459
0.000341901
0.000343225
0.000344412
0.000345448
0.000346314
0.000346992
0.000347463
0.000347707
0.000347705
0.000347433
0.000346862
0.000345974
0.000344752
0.000343177
0.000341233
0.000338902
0.000336166
0.000333006
0.000329402
0.000325331
0.00032077
0.000315691
0.000310063
0.000303848
0.000297003
0.000289473
0.00028119
0.000272067
0.000261987
0.000250791
0.000238245
0.000224003
0.000207531
0.000187989
0.000164053
0.000133672
9.39259e-05
4.27329e-05
1.87804e-06
8.48049e-07
3.01001e-05
7.34756e-05
0.000110791
0.00014197
0.000168438
0.000191273
0.000211203
0.000228723
0.000244177
0.000257819
0.000269839
0.000280393
0.000289612
0.00029761
0.000304493
0.000310358
0.000315298
0.000319401
0.00032275
0.000325427
0.000327506
0.000329056
0.000330143
0.000330823
0.000331149
0.000331167
0.000330932
0.000330494
0.00032989
0.000329157
0.000328323
0.000327414
0.000326448
0.000325444
0.000324415
0.000323372
0.000322323
0.000321275
0.000320234
0.000319203
0.000318186
0.000317185
0.000316202
0.000315237
0.000314291
0.000313365
0.00031246
0.000311574
0.000310707
0.00030986
0.000309032
0.000308222
0.000307431
0.000306656
0.000305899
0.000305157
0.000304431
0.000303721
0.000303024
0.000302341
0.000301671
0.000301012
0.000300369
0.000299741
0.000299132
0.000298544
0.000297978
0.000297435
0.000296918
0.000296428
0.000295967
0.000295535
0.000295134
0.000294766
0.000294431
0.000294131
0.000293866
0.000293639
0.000293449
0.000293298
0.000293188
0.000293118
0.000293089
0.000293103
0.000293161
0.000293262
0.000293408
0.000293599
0.000293835
0.000294116
0.000294444
0.000294818
0.000295238
0.000295703
0.000296215
0.000296772
0.000297374
0.00029802
0.00029871
0.000299443
0.000300218
0.000301035
0.000301893
0.00030279
0.000303725
0.000304698
0.000305707
0.000306752
0.000307831
0.000308943
0.000310087
0.000311263
0.000312469
0.000313705
0.00031497
0.000316263
0.000317583
0.000318931
0.000320306
0.000321707
0.000323134
0.000324587
0.000326067
0.000327573
0.000329106
0.000330666
0.000332253
0.000333868
0.000335512
0.000337184
0.000338887
0.000340619
0.000342383
0.000344178
0.000346005
0.000347866
0.000349759
0.000351686
0.000353646
0.000355639
0.000357666
0.000359724
0.000361814
0.000363933
0.000366079
0.00036825
0.000370442
0.000372652
0.000374874
0.000377104
0.000379335
0.000381559
0.000383769
0.000385956
0.000388109
0.000390217
0.000392268
0.000394248
0.000396144
0.000397941
0.000399621
0.000401168
0.000402565
0.000403791
0.000404829
0.000405657
0.000406256
0.000406603
0.000406677
0.00040645
0.000405897
0.000404996
0.000403727
0.000402069
0.0004
0.000397498
0.000394539
0.0003911
0.000387152
0.000382664
0.000377604
0.00037193
0.000365599
0.000358555
0.000350736
0.000342064
0.000332444
0.000321756
0.000309842
0.000296492
0.000281406
0.000264157
0.000244103
0.000220276
0.000191203
0.000154689
0.000107782
4.89704e-05
2.41395e-06
8.48003e-07
3.00976e-05
7.34681e-05
0.00011078
0.000141956
0.000168422
0.000191255
0.000211185
0.000228704
0.000244159
0.000257801
0.000269823
0.000280378
0.000289598
0.000297597
0.000304481
0.000310347
0.000315288
0.000319392
0.000322743
0.000325421
0.000327501
0.000329052
0.000330139
0.000330821
0.000331147
0.000331166
0.000330932
0.000330494
0.000329891
0.000329158
0.000328325
0.000327415
0.00032645
0.000325446
0.000324417
0.000323374
0.000322325
0.000321277
0.000320236
0.000319205
0.000318188
0.000317186
0.000316203
0.000315237
0.000314292
0.000313365
0.000312459
0.000311573
0.000310706
0.000309859
0.000309031
0.00030822
0.000307428
0.000306654
0.000305896
0.000305154
0.000304428
0.000303717
0.00030302
0.000302337
0.000301666
0.000301008
0.000300363
0.000299736
0.000299127
0.000298538
0.000297972
0.000297429
0.000296912
0.000296422
0.00029596
0.000295528
0.000295127
0.000294759
0.000294424
0.000294123
0.000293859
0.000293631
0.000293441
0.000293291
0.00029318
0.00029311
0.000293082
0.000293096
0.000293153
0.000293254
0.0002934
0.000293591
0.000293827
0.000294109
0.000294437
0.000294811
0.000295231
0.000295697
0.000296208
0.000296765
0.000297367
0.000298013
0.000298704
0.000299437
0.000300213
0.00030103
0.000301887
0.000302784
0.00030372
0.000304693
0.000305703
0.000306747
0.000307826
0.000308939
0.000310083
0.000311259
0.000312466
0.000313702
0.000314967
0.00031626
0.000317581
0.000318928
0.000320303
0.000321704
0.000323132
0.000324585
0.000326065
0.000327572
0.000329105
0.000330665
0.000332252
0.000333867
0.000335511
0.000337183
0.000338886
0.000340618
0.000342382
0.000344177
0.000346005
0.000347865
0.000349758
0.000351685
0.000353645
0.000355639
0.000357666
0.000359724
0.000361814
0.000363933
0.000366079
0.00036825
0.000370442
0.000372651
0.000374874
0.000377104
0.000379334
0.000381559
0.000383769
0.000385955
0.000388108
0.000390216
0.000392267
0.000394248
0.000396144
0.00039794
0.00039962
0.000401168
0.000402564
0.000403791
0.000404829
0.000405657
0.000406256
0.000406603
0.000406678
0.000406451
0.000405898
0.000404998
0.000403729
0.000402071
0.000400002
0.0003975
0.000394542
0.000391103
0.000387155
0.000382668
0.000377608
0.000371935
0.000365603
0.00035856
0.00035074
0.000342069
0.000332449
0.000321761
0.000309848
0.000296497
0.000281412
0.000264162
0.000244108
0.000220281
0.000191207
0.000154691
0.000107784
4.89717e-05
2.41396e-06
1.02194e-06
3.31391e-05
8.07657e-05
0.000122569
0.000157982
0.000188298
0.00021459
0.00023762
0.000257923
0.000275877
0.000291764
0.000305801
0.000318161
0.000328992
0.000338424
0.000346575
0.000353555
0.000359469
0.000364415
0.00036849
0.000371784
0.000374383
0.000376367
0.000377812
0.000378787
0.000379353
0.000379568
0.000379484
0.000379161
0.000378643
0.000377969
0.000377171
0.000376277
0.000375311
0.000374291
0.000373233
0.00037215
0.000371051
0.000369945
0.000368837
0.000367732
0.000366635
0.000365547
0.000364473
0.000363412
0.000362367
0.000361337
0.000360325
0.000359329
0.000358351
0.000357389
0.000356444
0.000355514
0.000354601
0.000353702
0.000352817
0.000351946
0.000351089
0.000350243
0.000349409
0.000348586
0.000347774
0.000346972
0.000346182