/*--------------------------------*- C++ -*----------------------------------*\
  =========                 |
  \\      /  F ield         | OpenFOAM: The Open Source CFD Toolbox
   \\    /   O peration     | Website:  https://openfoam.org
    \\  /    A nd           | Version:  8
     \\/     M anipulation  |
\*---------------------------------------------------------------------------*/
FoamFile
{
    version     2.0;
    format      ascii;
    class       surfaceScalarField;
    location    "1200";
    object      phi;
}
// * * * * * * * * * * * * * * * * * * * * * * * * * * * * * * * * * * * * * //

dimensions      [1 0 -1 0 0 0 0];

internalField   nonuniform List<scalar> 
114370
(
-4.97811e-10
1.31204e-14
4.97796e-10
-1.23508e-09
6.64126e-15
7.37816e-10
-1.86213e-09
-3.2764e-15
6.27486e-10
-2.21299e-09
-5.09978e-15
3.51234e-10
-2.25647e-09
-4.84081e-15
4.38137e-11
-2.02353e-09
-3.89862e-15
-2.32617e-10
-1.5677e-09
-2.77002e-15
-4.5552e-10
-9.42635e-10
-2.82626e-15
-6.24763e-10
-1.96483e-10
-3.70479e-15
-7.45851e-10
6.27821e-10
-5.06726e-15
-8.24e-10
1.4938e-09
-6.61766e-15
-8.65678e-10
2.373e-09
-7.88011e-15
-8.78909e-10
3.24253e-09
-8.83723e-15
-8.69235e-10
4.08376e-09
-9.66202e-15
-8.40932e-10
4.88164e-09
-1.03844e-14
-7.97591e-10
5.6242e-09
-1.10347e-14
-7.42264e-10
6.30209e-09
-1.16534e-14
-6.77596e-10
6.90829e-09
-1.22819e-14
-6.05909e-10
7.43785e-09
-1.29248e-14
-5.29262e-10
7.88763e-09
-1.35404e-14
-4.49494e-10
8.25616e-09
-1.40581e-14
-3.68255e-10
8.54347e-09
-1.44136e-14
-2.87027e-10
8.75089e-09
-1.45788e-14
-2.07154e-10
8.88103e-09
-1.45146e-14
-1.2987e-10
8.93765e-09
-1.41669e-14
-5.63455e-11
8.92542e-09
-1.35168e-14
1.24889e-11
8.84899e-09
-1.25763e-14
7.67018e-11
8.71295e-09
-1.14132e-14
1.36305e-10
8.52256e-09
-1.0127e-14
1.90654e-10
8.28342e-09
-8.78482e-15
2.39397e-10
8.00137e-09
-7.37886e-15
2.82314e-10
7.68233e-09
-5.86709e-15
3.19302e-10
7.33222e-09
-4.24866e-15
3.50367e-10
6.95688e-09
-2.58518e-15
3.75603e-10
6.56195e-09
-9.68164e-16
3.95183e-10
6.15286e-09
5.11299e-16
4.09344e-10
5.73474e-09
1.77993e-15
4.18376e-10
5.31238e-09
2.79439e-15
4.22613e-10
4.89021e-09
3.53998e-15
4.22423e-10
4.47227e-09
4.0202e-15
4.18197e-10
4.06219e-09
4.24853e-15
4.10341e-10
3.66318e-09
4.25534e-15
3.99267e-10
3.27806e-09
4.10349e-15
3.85386e-10
2.90922e-09
3.84369e-15
3.69104e-10
2.55868e-09
3.52793e-15
3.50812e-10
2.22807e-09
3.2533e-15
3.30885e-10
1.91867e-09
3.10911e-15
3.09678e-10
1.63143e-09
3.12787e-15
2.87519e-10
1.367e-09
3.32175e-15
2.64712e-10
1.12574e-09
3.66996e-15
2.41532e-10
9.07798e-10
4.0919e-15
2.18228e-10
7.13063e-10
4.46359e-15
1.95016e-10
5.41257e-10
4.62505e-15
1.72086e-10
3.91938e-10
4.46527e-15
1.49599e-10
2.64528e-10
3.93783e-15
1.27687e-10
1.58342e-10
2.98591e-15
1.06461e-10
7.26127e-11
1.60165e-15
8.60015e-11
6.51184e-12
-1.20848e-16
6.63701e-11
-4.08255e-11
-2.02159e-15
4.76028e-11
-7.02801e-11
-3.95619e-15
2.97156e-11
-8.27251e-11
-5.75636e-15
1.27005e-11
-7.90747e-11
-7.27819e-15
-3.40101e-12
-6.03301e-11
-8.41098e-15
-1.85023e-11
-2.74851e-11
-9.09237e-15
-3.26106e-11
1.85229e-11
-9.32147e-15
-4.57822e-11
7.67943e-11
-9.12649e-15
-5.80553e-11
1.46473e-10
-8.52737e-15
-6.94731e-11
2.26746e-10
-7.57137e-15
-8.00793e-11
3.16845e-10
-6.34044e-15
-8.9917e-11
4.16045e-10
-4.89095e-15
-9.90306e-11
5.23666e-10
-3.27145e-15
-1.07465e-10
6.3907e-10
-1.58252e-15
-1.15262e-10
7.61664e-10
1.1252e-16
-1.22465e-10
8.90893e-10
1.83232e-15
-1.29114e-10
1.02624e-09
3.61287e-15
-1.35249e-10
1.16724e-09
5.44373e-15
-1.40906e-10
1.31343e-09
7.28807e-15
-1.4612e-10
1.46441e-09
9.15019e-15
-1.50924e-10
1.6198e-09
1.10583e-14
-1.5535e-10
1.77925e-09
1.29534e-14
-1.59428e-10
1.94245e-09
1.47128e-14
-1.63185e-10
2.1091e-09
1.62489e-14
-1.66647e-10
2.27892e-09
1.75318e-14
-1.69839e-10
2.45167e-09
1.85198e-14
-1.72784e-10
2.62713e-09
1.91669e-14
-1.75503e-10
2.80509e-09
1.94681e-14
-1.78015e-10
2.98537e-09
1.94414e-14
-1.80338e-10
3.16778e-09
1.9135e-14
-1.82491e-10
3.35218e-09
1.86174e-14
-1.84489e-10
3.53843e-09
1.7954e-14
-1.86346e-10
3.7264e-09
1.72088e-14
-1.88075e-10
3.91597e-09
1.64639e-14
-1.89685e-10
4.10703e-09
1.58157e-14
-1.91185e-10
4.29948e-09
1.53246e-14
-1.92582e-10
4.49322e-09
1.49869e-14
-1.93881e-10
4.68816e-09
1.47638e-14
-1.95086e-10
4.8842e-09
1.46183e-14
-1.96199e-10
5.08126e-09
1.45179e-14
-1.97222e-10
5.27924e-09
1.44062e-14
-1.98153e-10
5.47805e-09
1.42373e-14
-1.98991e-10
5.6776e-09
1.40076e-14
-1.99734e-10
5.87778e-09
1.37467e-14
-2.00379e-10
6.0785e-09
1.34837e-14
-2.00921e-10
6.27965e-09
1.32445e-14
-2.01357e-10
6.48112e-09
1.30499e-14
-2.01682e-10
6.68279e-09
1.292e-14
-2.01892e-10
6.88455e-09
1.28711e-14
-2.0198e-10
7.08626e-09
1.29298e-14
-2.01942e-10
7.2878e-09
1.31234e-14
-2.01776e-10
7.48904e-09
1.34535e-14
-2.01476e-10
7.68983e-09
1.38744e-14
-2.01042e-10
7.89005e-09
1.43125e-14
-2.00472e-10
8.08956e-09
1.47055e-14
-1.99766e-10
8.28822e-09
1.50075e-14
-1.98926e-10
8.48591e-09
1.51924e-14
-1.97956e-10
8.6825e-09
1.52385e-14
-1.96862e-10
8.87788e-09
1.51246e-14
-1.95651e-10
9.07193e-09
1.48511e-14
-1.94331e-10
9.26456e-09
1.4418e-14
-1.92912e-10
9.45568e-09
1.38634e-14
-1.91405e-10
9.64522e-09
1.32646e-14
-1.8982e-10
9.8331e-09
1.27101e-14
-1.8817e-10
1.00193e-08
1.22735e-14
-1.86469e-10
1.02037e-08
1.19942e-14
-1.8473e-10
1.03864e-08
1.18772e-14
-1.82971e-10
1.05673e-08
1.18994e-14
-1.81206e-10
1.07465e-08
1.20352e-14
-1.79455e-10
1.09239e-08
1.22564e-14
-1.77736e-10
1.10997e-08
1.2531e-14
-1.76064e-10
1.12739e-08
1.28255e-14
-1.74459e-10
1.14465e-08
1.30832e-14
-1.72937e-10
1.16177e-08
1.32293e-14
-1.71513e-10
1.17877e-08
1.31986e-14
-1.70202e-10
1.19564e-08
1.29688e-14
-1.6902e-10
1.21241e-08
1.25881e-14
-1.6798e-10
1.22909e-08
1.21372e-14
-1.67097e-10
1.2457e-08
1.16845e-14
-1.66383e-10
1.26226e-08
1.12626e-14
-1.6585e-10
1.27879e-08
1.08537e-14
-1.65509e-10
1.2953e-08
1.04368e-14
-1.65368e-10
1.31182e-08
1.00077e-14
-1.65434e-10
1.32836e-08
9.57448e-15
-1.65714e-10
1.34496e-08
9.15535e-15
-1.66209e-10
1.36163e-08
8.75075e-15
-1.6692e-10
1.37839e-08
8.3481e-15
-1.67845e-10
1.39527e-08
7.94135e-15
-1.68974e-10
1.41228e-08
7.55564e-15
-1.70295e-10
1.42944e-08
7.22719e-15
-1.71791e-10
1.44676e-08
6.97961e-15
-1.73433e-10
1.46426e-08
6.79686e-15
-1.75187e-10
1.48194e-08
6.63406e-15
-1.77007e-10
1.49981e-08
6.45237e-15
-1.78836e-10
1.51785e-08
6.24878e-15
-1.80606e-10
1.53606e-08
6.03608e-15
-1.82229e-10
1.5544e-08
5.81057e-15
-1.83604e-10
1.57285e-08
5.52631e-15
-1.84608e-10
1.59135e-08
5.11933e-15
-1.85097e-10
1.60982e-08
4.56339e-15
-1.84906e-10
1.6282e-08
3.88756e-15
-1.83843e-10
1.64635e-08
3.1493e-15
-1.81694e-10
1.66417e-08
2.40151e-15
-1.78217e-10
1.68147e-08
1.6867e-15
-1.73142e-10
1.69808e-08
1.06598e-15
-1.66173e-10
1.71377e-08
6.16546e-16
-1.56986e-10
1.72829e-08
3.83714e-16
-1.45237e-10
1.74134e-08
3.45364e-16
-1.30559e-10
1.75259e-08
4.46853e-16
-1.12574e-10
1.76167e-08
6.20749e-16
-9.09024e-11
1.76819e-08
8.14583e-16
-6.51728e-11
1.77169e-08
9.54426e-16
-3.50263e-11
1.77171e-08
9.97364e-16
-2.98307e-13
1.76775e-08
8.66464e-16
3.96338e-11
1.75919e-08
5.99833e-16
8.55826e-11
1.7454e-08
3.0872e-16
1.37858e-10
1.72574e-08
-9.2585e-18
1.96691e-10
1.69952e-08
-3.02714e-16
2.62233e-10
1.66607e-08
-4.57384e-16
3.34535e-10
1.62472e-08
-3.4513e-16
4.13528e-10
1.57483e-08
9.32279e-17
4.98986e-10
1.51579e-08
8.19085e-16
5.90487e-10
1.44706e-08
1.77454e-15
6.87373e-10
1.3682e-08
2.87264e-15
7.88707e-10
1.27889e-08
3.95942e-15
8.93214e-10
1.17898e-08
4.86665e-15
9.99221e-10
1.06853e-08
5.5707e-15
1.10457e-09
9.47889e-09
6.16397e-15
1.20655e-09
8.17732e-09
6.63845e-15
1.30172e-09
6.79172e-09
6.89529e-15
1.38578e-09
5.3386e-09
7.00779e-15
1.45331e-09
3.84143e-09
7.13466e-15
1.49738e-09
2.33269e-09
7.17524e-15
1.50899e-09
8.56596e-10
7.02019e-15
1.47636e-09
-5.24357e-10
6.42093e-15
1.38126e-09
-1.72317e-09
4.76372e-15
1.19915e-09
-2.63049e-09
1.918e-15
9.0769e-10
-3.11559e-09
-1.70248e-15
4.85483e-10
-3.04266e-09
-4.49021e-15
-7.25178e-11
-2.33127e-09
-5.66728e-15
-7.10932e-10
-1.11973e-09
-6.00828e-15
-1.21102e-09
-6.88775e-16
-1.11913e-09
-4.97674e-10
4.9791e-10
-1.23497e-09
7.3792e-10
-1.86205e-09
6.27555e-10
-2.21293e-09
3.51298e-10
-2.25642e-09
4.38815e-11
-2.02349e-09
-2.32547e-10
-1.56767e-09
-4.55448e-10
-9.42605e-10
-6.24686e-10
-1.96451e-10
-7.45769e-10
6.27855e-10
-8.23914e-10
1.49383e-09
-8.65592e-10
2.37304e-09
-8.78824e-10
3.24257e-09
-8.69153e-10
4.0838e-09
-8.40855e-10
4.88169e-09
-7.97519e-10
5.62425e-09
-7.422e-10
6.30215e-09
-6.7754e-10
6.90836e-09
-6.05861e-10
7.43792e-09
-5.29222e-10
7.88771e-09
-4.49461e-10
8.25625e-09
-3.68227e-10
8.54356e-09
-2.87003e-10
8.75099e-09
-2.07132e-10
8.88113e-09
-1.29848e-10
8.93775e-09
-5.6322e-11
8.92552e-09
1.25136e-11
8.84908e-09
7.67269e-11
8.71303e-09
1.3633e-10
8.52263e-09
1.9068e-10
8.28349e-09
2.39423e-10
8.00144e-09
2.82338e-10
7.68239e-09
3.19326e-10
7.33229e-09
3.5039e-10
6.95695e-09
3.75627e-10
6.56202e-09
3.95208e-10
6.15294e-09
4.09371e-10
5.73482e-09
4.18407e-10
5.31246e-09
4.22649e-10
4.89029e-09
4.22464e-10
4.47234e-09
4.18241e-10
4.06225e-09
4.10386e-10
3.66324e-09
3.99311e-10
3.27812e-09
3.85429e-10
2.90928e-09
3.69143e-10
2.55875e-09
3.50848e-10
2.22815e-09
3.3092e-10
1.91875e-09
3.09712e-10
1.63152e-09
2.87554e-10
1.3671e-09
2.6475e-10
1.12585e-09
2.41576e-10
9.07904e-10
2.18276e-10
7.13166e-10
1.95069e-10
5.41354e-10
1.72141e-10
3.92028e-10
1.49653e-10
2.64611e-10
1.2774e-10
1.58421e-10
1.06509e-10
7.26889e-11
8.60445e-11
6.58714e-12
6.64068e-11
-4.07495e-11
4.7633e-11
-7.02021e-11
2.97393e-11
-8.2644e-11
1.27179e-11
-7.89901e-11
-3.3889e-12
-6.02422e-11
-1.8494e-11
-2.73946e-11
-3.26051e-11
1.86151e-11
-4.57786e-11
7.6887e-11
-5.80523e-11
1.46564e-10
-6.94694e-11
2.26835e-10
-8.0074e-11
3.16929e-10
-8.99099e-11
4.16123e-10
-9.90215e-11
5.23737e-10
-1.07454e-10
6.39134e-10
-1.1525e-10
7.61722e-10
-1.22453e-10
8.90945e-10
-1.29102e-10
1.02629e-09
-1.35237e-10
1.16728e-09
-1.40894e-10
1.31347e-09
-1.46108e-10
1.46445e-09
-1.50912e-10
1.61984e-09
-1.55337e-10
1.77929e-09
-1.59413e-10
1.94249e-09
-1.63169e-10
2.10913e-09
-1.66631e-10
2.27895e-09
-1.69823e-10
2.4517e-09
-1.72768e-10
2.62716e-09
-1.75488e-10
2.80512e-09
-1.78002e-10
2.98539e-09
-1.80328e-10
3.16781e-09
-1.82485e-10
3.35221e-09
-1.84486e-10
3.53846e-09
-1.86347e-10
3.72643e-09
-1.88079e-10
3.916e-09
-1.89692e-10
4.10707e-09
-1.91195e-10
4.29952e-09
-1.92594e-10
4.49326e-09
-1.93895e-10
4.6882e-09
-1.95101e-10
4.88424e-09
-1.96216e-10
5.08129e-09
-1.9724e-10
5.27927e-09
-1.98172e-10
5.47808e-09
-1.99012e-10
5.67763e-09
-1.99756e-10
5.87781e-09
-2.00403e-10
6.07853e-09
-2.00948e-10
6.27969e-09
-2.01386e-10
6.48115e-09
-2.01712e-10
6.68283e-09
-2.01923e-10
6.88458e-09
-2.02012e-10
7.0863e-09
-2.01975e-10
7.28784e-09
-2.01809e-10
7.48907e-09
-2.0151e-10
7.68986e-09
-2.01075e-10
7.89008e-09
-2.00504e-10
8.08959e-09
-1.99797e-10
8.28825e-09
-1.98958e-10
8.48594e-09
-1.97989e-10
8.68253e-09
-1.96896e-10
8.8779e-09
-1.95686e-10
9.07196e-09
-1.94369e-10
9.26459e-09
-1.92952e-10
9.45571e-09
-1.91446e-10
9.64525e-09
-1.89862e-10
9.83314e-09
-1.88213e-10
1.00193e-08
-1.86512e-10
1.02038e-08
-1.84772e-10
1.03864e-08
-1.83012e-10
1.05674e-08
-1.81247e-10
1.07465e-08
-1.79495e-10
1.0924e-08
-1.77774e-10
1.10997e-08
-1.76102e-10
1.12739e-08
-1.74496e-10
1.14465e-08
-1.72973e-10
1.16178e-08
-1.71548e-10
1.17877e-08
-1.70237e-10
1.19564e-08
-1.69054e-10
1.21241e-08
-1.68014e-10
1.2291e-08
-1.67131e-10
1.24571e-08
-1.66417e-10
1.26227e-08
-1.65885e-10
1.27879e-08
-1.65543e-10
1.2953e-08
-1.65401e-10
1.31182e-08
-1.65467e-10
1.32837e-08
-1.65744e-10
1.34497e-08
-1.66238e-10
1.36163e-08
-1.66948e-10
1.3784e-08
-1.67871e-10
1.39527e-08
-1.69e-10
1.41228e-08
-1.70322e-10
1.42944e-08
-1.71817e-10
1.44676e-08
-1.73459e-10
1.46426e-08
-1.75212e-10
1.48194e-08
-1.77031e-10
1.49981e-08
-1.7886e-10
1.51786e-08
-1.80627e-10
1.53606e-08
-1.82248e-10
1.55441e-08
-1.83621e-10
1.57285e-08
-1.84622e-10
1.59135e-08
-1.85109e-10
1.60983e-08
-1.84917e-10
1.6282e-08
-1.83855e-10
1.64636e-08
-1.81707e-10
1.66417e-08
-1.78231e-10
1.68147e-08
-1.73158e-10
1.69808e-08
-1.6619e-10
1.71377e-08
-1.57004e-10
1.72829e-08
-1.45253e-10
1.74134e-08
-1.30572e-10
1.75259e-08
-1.12584e-10
1.76168e-08
-9.09069e-11
1.76819e-08
-6.5172e-11
1.77169e-08
-3.50206e-11
1.77172e-08
-2.89939e-13
1.76775e-08
3.96438e-11
1.75919e-08
8.55943e-11
1.74541e-08
1.37871e-10
1.72574e-08
1.96704e-10
1.69952e-08
2.62243e-10
1.66607e-08
3.34542e-10
1.62472e-08
4.13534e-10
1.57483e-08
4.98992e-10
1.51579e-08
5.90494e-10
1.44706e-08
6.87383e-10
1.3682e-08
7.88721e-10
1.27889e-08
8.93234e-10
1.17898e-08
9.99248e-10
1.06853e-08
1.10461e-09
9.47892e-09
1.20659e-09
8.17734e-09
1.30176e-09
6.79172e-09
1.38582e-09
5.33859e-09
1.45334e-09
3.84142e-09
1.49741e-09
2.33267e-09
1.50901e-09
8.56587e-10
1.47638e-09
-5.24359e-10
1.38128e-09
-1.72316e-09
1.19917e-09
-2.63048e-09
9.0772e-10
-3.11557e-09
4.85525e-10
-3.04263e-09
-7.24591e-11
-2.33123e-09
-7.10855e-10
-1.11968e-09
-1.21092e-09
-1.11903e-09
-7.07238e-10
3.9424e-15
1.20558e-09
-1.34724e-09
-4.88877e-15
1.37867e-09
-1.61263e-09
-9.16426e-15
8.93423e-10
-1.53348e-09
-7.25123e-15
2.72534e-10
-1.17115e-09
-5.19952e-15
-3.18119e-10
-5.8532e-10
-3.63947e-15
-8.18075e-10
1.71765e-10
-2.05422e-15
-1.21225e-09
1.05342e-09
-6.88278e-16
-1.50608e-09
2.01921e-09
4.36841e-16
-1.7113e-09
3.03655e-09
1.2026e-15
-1.841e-09
4.07804e-09
1.51986e-15
-1.90685e-09
5.11996e-09
1.5483e-15
-1.9205e-09
6.14226e-09
1.3999e-15
-1.89121e-09
7.12828e-09
1.14623e-15
-1.82663e-09
8.06423e-09
8.61314e-16
-1.73322e-09
8.93883e-09
5.48951e-16
-1.61655e-09
9.74305e-09
1.69327e-16
-1.4815e-09
1.04698e-08
-2.99159e-16
-1.33239e-09
1.1114e-08
-8.24222e-16
-1.17308e-09
1.16719e-08
-1.35243e-15
-1.00709e-09
1.21415e-08
-1.84131e-15
-8.37578e-10
1.25221e-08
-2.26886e-15
-6.67401e-10
1.28144e-08
-2.62001e-15
-4.99157e-10
1.302e-08
-2.8707e-15
-3.35186e-10
1.31415e-08
-3.00139e-15
-1.77572e-10
1.31824e-08
-2.99235e-15
-2.80805e-11
1.31471e-08
-2.85797e-15
1.12298e-10
1.30408e-08
-2.64593e-15
2.42856e-10
1.28691e-08
-2.3841e-15
3.62661e-10
1.26377e-08
-2.07692e-15
4.71016e-10
1.23529e-08
-1.71628e-15
5.67431e-10
1.20208e-08
-1.29655e-15
6.51622e-10
1.1648e-08
-8.32606e-16
7.23499e-10
1.12407e-08
-3.52005e-16
7.83152e-10
1.08053e-08
1.12816e-16
8.30828e-10
1.0348e-08
5.38546e-16
8.66915e-10
9.87477e-09
9.09691e-16
8.91922e-10
9.39119e-09
1.21988e-15
9.06461e-10
8.90267e-09
1.46678e-15
9.11224e-10
8.41418e-09
1.65583e-15
9.06969e-10
7.9303e-09
1.78815e-15
8.94499e-10
7.4552e-09
1.86493e-15
8.74646e-10
6.99262e-09
1.89408e-15
8.48256e-10
6.54584e-09
1.88704e-15
8.16173e-10
6.11771e-09
1.85396e-15
7.79229e-10
5.71067e-09
1.81757e-15
7.38228e-10
5.3267e-09
1.81046e-15
6.93943e-10
4.96741e-09
1.84759e-15
6.471e-10
4.63405e-09
1.93038e-15
5.98379e-10
4.32747e-09
2.04696e-15
5.48405e-10
4.04826e-09
2.17926e-15
4.97746e-10
3.79666e-09
2.30434e-15
4.4691e-10
3.5727e-09
2.37955e-15
3.96347e-10
3.37614e-09
2.35804e-15
3.46444e-10
3.20659e-09
2.22226e-15
2.97535e-10
3.06344e-09
1.961e-15
2.49893e-10
2.94598e-09
1.55842e-15
2.03743e-10
2.85337e-09
1.03247e-15
1.5926e-10
2.78467e-09
4.14903e-16
1.1657e-10
2.73889e-09
-2.53861e-16
7.57577e-11
2.71497e-09
-9.06932e-16
3.68786e-11
2.71184e-09
-1.50603e-15
-2.5961e-14
2.72841e-09
-2.02494e-15
-3.48421e-11
2.76356e-09
-2.42442e-15
-6.75308e-11
2.81617e-09
-2.68669e-15
-9.81692e-11
2.88514e-09
-2.81596e-15
-1.26815e-10
2.9694e-09
-2.82026e-15
-1.53543e-10
3.06794e-09
-2.73223e-15
-1.78431e-10
3.17976e-09
-2.58351e-15
-2.01563e-10
3.30391e-09
-2.38179e-15
-2.23025e-10
3.43951e-09
-2.12781e-15
-2.42908e-10
3.58568e-09
-1.84485e-15
-2.61301e-10
3.74163e-09
-1.5533e-15
-2.78292e-10
3.90659e-09
-1.25381e-15
-2.93968e-10
4.07985e-09
-9.37808e-16
-3.08414e-10
4.26073e-09
-6.02815e-16
-3.21711e-10
4.44861e-09
-2.58372e-16
-3.33936e-10
4.6429e-09
9.2376e-17
-3.45164e-10
4.84306e-09
4.4379e-16
-3.55467e-10
5.04856e-09
7.75925e-16
-3.64912e-10
5.25895e-09
1.06646e-15
-3.73562e-10
5.47377e-09
1.30574e-15
-3.8148e-10
5.69263e-09
1.49084e-15
-3.88721e-10
5.91515e-09
1.60572e-15
-3.9534e-10
6.14099e-09
1.6327e-15
-4.01387e-10
6.36983e-09
1.56766e-15
-4.06909e-10
6.60137e-09
1.41633e-15
-4.1195e-10
6.83535e-09
1.19595e-15
-4.16551e-10
7.07152e-09
9.23859e-16
-4.20749e-10
7.30965e-09
6.08182e-16
-4.24578e-10
7.54953e-09
2.58571e-16
-4.28067e-10
7.79096e-09
-9.64612e-17
-4.31242e-10
8.03377e-09
-4.13873e-16
-4.34126e-10
8.27778e-09
-6.6981e-16
-4.36739e-10
8.52285e-09
-8.6958e-16
-4.39094e-10
8.7688e-09
-1.02782e-15
-4.41203e-10
9.01551e-09
-1.1583e-15
-4.43075e-10
9.26283e-09
-1.27489e-15
-4.44715e-10
9.51062e-09
-1.39105e-15
-4.46125e-10
9.75874e-09
-1.50635e-15
-4.47305e-10
1.00071e-08
-1.61461e-15
-4.48254e-10
1.02554e-08
-1.72049e-15
-4.48967e-10
1.05037e-08
-1.84027e-15
-4.49439e-10
1.07518e-08
-1.97404e-15
-4.49662e-10
1.09995e-08
-2.10685e-15
-4.49629e-10
1.12468e-08
-2.22242e-15
-4.49333e-10
1.14933e-08
-2.31068e-15
-4.48764e-10
1.1739e-08
-2.35827e-15
-4.47918e-10
1.19838e-08
-2.35036e-15
-4.46787e-10
1.22274e-08
-2.28552e-15
-4.45369e-10
1.24698e-08
-2.18957e-15
-4.43661e-10
1.27107e-08
-2.092e-15
-4.41662e-10
1.295e-08
-2.00484e-15
-4.39376e-10
1.31877e-08
-1.93622e-15
-4.36809e-10
1.34234e-08
-1.90187e-15
-4.3397e-10
1.36571e-08
-1.91815e-15
-4.30873e-10
1.38887e-08
-1.98907e-15
-4.27533e-10
1.4118e-08
-2.10337e-15
-4.23967e-10
1.4345e-08
-2.25257e-15
-4.20197e-10
1.45696e-08
-2.42835e-15
-4.16246e-10
1.47916e-08
-2.61691e-15
-4.12139e-10
1.5011e-08
-2.79259e-15
-4.07906e-10
1.52278e-08
-2.93227e-15
-4.03575e-10
1.5442e-08
-3.02861e-15
-3.99181e-10
1.56535e-08
-3.08603e-15
-3.94756e-10
1.58623e-08
-3.10128e-15
-3.90334e-10
1.60685e-08
-3.06417e-15
-3.85951e-10
1.62721e-08
-2.971e-15
-3.81644e-10
1.64732e-08
-2.83913e-15
-3.7745e-10
1.66718e-08
-2.6974e-15
-3.73405e-10
1.68681e-08
-2.57248e-15
-3.69545e-10
1.70622e-08
-2.48149e-15
-3.65902e-10
1.72542e-08
-2.43266e-15
-3.62507e-10
1.74443e-08
-2.43002e-15
-3.59393e-10
1.76327e-08
-2.46641e-15
-3.56589e-10
1.78194e-08
-2.52339e-15
-3.54125e-10
1.80048e-08
-2.57679e-15
-3.52029e-10
1.8189e-08
-2.61415e-15
-3.50324e-10
1.83722e-08
-2.63796e-15
-3.4903e-10
1.85548e-08
-2.65971e-15
-3.48166e-10
1.87369e-08
-2.68527e-15
-3.47747e-10
1.89187e-08
-2.71008e-15
-3.47782e-10
1.91005e-08
-2.72502e-15
-3.48278e-10
1.92826e-08
-2.73043e-15
-3.49232e-10
1.94652e-08
-2.7303e-15
-3.50633e-10
1.96484e-08
-2.72734e-15
-3.52465e-10
1.98326e-08
-2.71332e-15
-3.54695e-10
2.00179e-08
-2.67576e-15
-3.57282e-10
2.02044e-08
-2.61056e-15
-3.60167e-10
2.03923e-08
-2.52889e-15
-3.6327e-10
2.05817e-08
-2.44917e-15
-3.66494e-10
2.07724e-08
-2.37954e-15
-3.69714e-10
2.09644e-08
-2.31653e-15
-3.72778e-10
2.11575e-08
-2.25342e-15
-3.75501e-10
2.13514e-08
-2.19626e-15
-3.77664e-10
2.15457e-08
-2.16599e-15
-3.79008e-10
2.17397e-08
-2.18049e-15
-3.79231e-10
2.19326e-08
-2.23921e-15
-3.77983e-10
2.21235e-08
-2.32285e-15
-3.74866e-10
2.23111e-08
-2.40886e-15
-3.69429e-10
2.2494e-08
-2.48739e-15
-3.61171e-10
2.26703e-08
-2.5517e-15
-3.49533e-10
2.2838e-08
-2.58491e-15
-3.33904e-10
2.29945e-08
-2.56078e-15
-3.13621e-10
2.31372e-08
-2.46825e-15
-2.87972e-10
2.32628e-08
-2.32673e-15
-2.56206e-10
2.33677e-08
-2.16734e-15
-2.17542e-10
2.34479e-08
-2.00731e-15
-1.71176e-10
2.3499e-08
-1.84783e-15
-1.16299e-10
2.35161e-08
-1.6981e-15
-5.21068e-11
2.34937e-08
-1.57925e-15
2.21343e-11
2.34259e-08
-1.4965e-15
1.07388e-10
2.33068e-08
-1.44591e-15
2.04675e-10
2.313e-08
-1.43238e-15
3.14702e-10
2.28887e-08
-1.45722e-15
4.38009e-10
2.25761e-08
-1.50198e-15
5.74948e-10
2.2185e-08
-1.52409e-15
7.25657e-10
2.17086e-08
-1.48929e-15
8.90015e-10
2.11401e-08
-1.40258e-15
1.06758e-09
2.04732e-08
-1.28522e-15
1.25753e-09
1.97021e-08
-1.14892e-15
1.45855e-09
1.88221e-08
-1.01863e-15
1.6688e-09
1.78297e-08
-9.48101e-16
1.88578e-09
1.67229e-08
-9.58147e-16
2.1062e-09
1.55018e-08
-1.01308e-15
2.32584e-09
1.41691e-08
-1.09173e-15
2.53939e-09
1.27308e-08
-1.21783e-15
2.7402e-09
1.11968e-08
-1.36849e-15
2.91999e-09
9.582e-09
-1.48863e-15
3.06838e-09
7.90728e-09
-1.62334e-15
3.17237e-09
6.20118e-09
-1.84261e-15
3.21539e-09
4.50163e-09
-2.00952e-15
3.17624e-09
2.8567e-09
-1.94317e-15
3.02655e-09
1.32577e-09
-1.59649e-15
2.73046e-09
-1.61834e-11
-1.14639e-15
2.25006e-09
-1.07327e-09
-9.5479e-16
1.54302e-09
-1.73104e-09
-8.37957e-16
5.85758e-10
-1.84298e-09
-6.25526e-16
-5.98393e-10
-1.21531e-09
1.87521e-16
-1.83794e-09
8.57443e-15
-2.3339e-09
-7.07104e-10
1.20567e-09
-1.34715e-09
1.37876e-09
-1.61258e-09
8.93461e-10
-1.53345e-09
2.72553e-10
-1.17112e-09
-3.18108e-10
-5.85288e-10
-8.18068e-10
1.71805e-10
-1.21225e-09
1.05347e-09
-1.50608e-09
2.01927e-09
-1.7113e-09
3.03662e-09
-1.841e-09
4.07812e-09
-1.90684e-09
5.12005e-09
-1.9205e-09
6.14236e-09
-1.89121e-09
7.12839e-09
-1.82663e-09
8.06435e-09
-1.73323e-09
8.93896e-09
-1.61656e-09
9.74319e-09
-1.48151e-09
1.047e-08
-1.3324e-09
1.11141e-08
-1.17311e-09
1.1672e-08
-1.00712e-09
1.21416e-08
-8.37601e-10
1.25223e-08
-6.67423e-10
1.28146e-08
-4.99175e-10
1.30202e-08
-3.35201e-10
1.31417e-08
-1.77582e-10
1.31825e-08
-2.80869e-11
1.31472e-08
1.12294e-10
1.30409e-08
2.42854e-10
1.28692e-08
3.6266e-10
1.26378e-08
4.71016e-10
1.2353e-08
5.67431e-10
1.20209e-08
6.51622e-10
1.16481e-08
7.23501e-10
1.12408e-08
7.83155e-10
1.08054e-08
8.30834e-10
1.03481e-08
8.66925e-10
9.87487e-09
8.91937e-10
9.3913e-09
9.0648e-10
8.90278e-09
9.11247e-10
8.41428e-09
9.06994e-10
7.93041e-09
8.94525e-10
7.45532e-09
8.7467e-10
6.99274e-09
8.48276e-10
6.54596e-09
8.16189e-10
6.11784e-09
7.79241e-10
5.7108e-09
7.38238e-10
5.32683e-09
6.93952e-10
4.96755e-09
6.47111e-10
4.63418e-09
5.98394e-10
4.32761e-09
5.48424e-10
4.04839e-09
4.9777e-10
3.7968e-09
4.46937e-10
3.57284e-09
3.96375e-10
3.37629e-09
3.46471e-10
3.20674e-09
2.97558e-10
3.06359e-09
2.49912e-10
2.94614e-09
2.03757e-10
2.85352e-09
1.59267e-10
2.78483e-09
1.16571e-10
2.73905e-09
7.57543e-11
2.71512e-09
3.68702e-11
2.71199e-09
-3.83504e-14
2.72856e-09
-3.48568e-11
2.76371e-09
-6.75467e-11
2.81631e-09
-9.81855e-11
2.88527e-09
-1.26831e-10
2.96953e-09
-1.53557e-10
3.06806e-09
-1.78442e-10
3.17987e-09
-2.01571e-10
3.30402e-09
-2.2303e-10
3.43961e-09
-2.42909e-10
3.58578e-09
-2.61298e-10
3.74172e-09
-2.78287e-10
3.90668e-09
-2.93961e-10
4.07993e-09
-3.08405e-10
4.26081e-09
-3.21699e-10
4.44869e-09
-3.33923e-10
4.64298e-09
-3.45149e-10
4.84313e-09
-3.55449e-10
5.04863e-09
-3.64891e-10
5.25902e-09
-3.73539e-10
5.47384e-09
-3.81455e-10
5.69271e-09
-3.88695e-10
5.91523e-09
-3.95313e-10
6.14108e-09
-4.0136e-10
6.36992e-09
-4.06883e-10
6.60146e-09
-4.11926e-10
6.83545e-09
-4.16529e-10
7.07162e-09
-4.20729e-10
7.30975e-09
-4.24559e-10
7.54963e-09
-4.28049e-10
7.79106e-09
-4.31226e-10
8.03387e-09
-4.34112e-10
8.27788e-09
-4.36725e-10
8.52294e-09
-4.39081e-10
8.7689e-09
-4.41191e-10
9.01561e-09
-4.43064e-10
9.26292e-09
-4.44704e-10
9.51071e-09
-4.46115e-10
9.75883e-09
-4.47296e-10
1.00072e-08
-4.48247e-10
1.02555e-08
-4.48961e-10
1.05038e-08
-4.49434e-10
1.07519e-08
-4.49658e-10
1.09996e-08
-4.49625e-10
1.12468e-08
-4.49328e-10
1.14934e-08
-4.4876e-10
1.17391e-08
-4.47913e-10
1.19839e-08
-4.46783e-10
1.22275e-08
-4.45364e-10
1.24699e-08
-4.43656e-10
1.27108e-08
-4.41656e-10
1.29501e-08
-4.3937e-10
1.31877e-08
-4.36803e-10
1.34235e-08
-4.33965e-10
1.36572e-08
-4.30868e-10
1.38888e-08
-4.27529e-10
1.41181e-08
-4.23965e-10
1.43451e-08
-4.20195e-10
1.45697e-08
-4.16245e-10
1.47917e-08
-4.12139e-10
1.50111e-08
-4.07906e-10
1.52279e-08
-4.03576e-10
1.54421e-08
-3.99181e-10
1.56535e-08
-3.94755e-10
1.58624e-08
-3.90332e-10
1.60686e-08
-3.85948e-10
1.62722e-08
-3.81641e-10
1.64732e-08
-3.77446e-10
1.66719e-08
-3.73401e-10
1.68682e-08
-3.6954e-10
1.70623e-08
-3.65897e-10
1.72543e-08
-3.62502e-10
1.74444e-08
-3.59388e-10
1.76327e-08
-3.56585e-10
1.78195e-08
-3.54122e-10
1.80048e-08
-3.52027e-10
1.81891e-08
-3.50322e-10
1.83723e-08
-3.49029e-10
1.85549e-08
-3.48165e-10
1.87369e-08
-3.47745e-10
1.89187e-08
-3.4778e-10
1.91006e-08
-3.48274e-10
1.92826e-08
-3.49227e-10
1.94652e-08
-3.50629e-10
1.96485e-08
-3.52462e-10
1.98327e-08
-3.54694e-10
2.0018e-08
-3.57282e-10
2.02045e-08
-3.60167e-10
2.03924e-08
-3.63271e-10
2.05817e-08
-3.66494e-10
2.07724e-08
-3.69713e-10
2.09644e-08
-3.72776e-10
2.11575e-08
-3.75498e-10
2.13515e-08
-3.7766e-10
2.15457e-08
-3.79003e-10
2.17397e-08
-3.79226e-10
2.19327e-08
-3.77979e-10
2.21236e-08
-3.74864e-10
2.23112e-08
-3.6943e-10
2.24941e-08
-3.61175e-10
2.26704e-08
-3.49541e-10
2.2838e-08
-3.33914e-10
2.29946e-08
-3.13631e-10
2.31373e-08
-2.87981e-10
2.32628e-08
-2.56213e-10
2.33678e-08
-2.17546e-10
2.3448e-08
-1.71176e-10
2.34991e-08
-1.16294e-10
2.35162e-08
-5.20982e-11
2.34937e-08
2.21444e-11
2.3426e-08
1.07397e-10
2.33069e-08
2.04683e-10
2.31301e-08
3.1471e-10
2.28888e-08
4.38015e-10
2.25761e-08
5.7495e-10
2.21851e-08
7.25656e-10
2.17087e-08
8.90014e-10
2.11402e-08
1.06758e-09
2.04732e-08
1.25753e-09
1.97022e-08
1.45856e-09
1.88222e-08
1.66882e-09
1.78298e-08
1.8858e-09
1.67229e-08
2.10623e-09
1.55018e-08
2.32588e-09
1.41691e-08
2.53944e-09
1.27309e-08
2.74025e-09
1.11969e-08
2.92003e-09
9.58204e-09
3.06842e-09
7.90732e-09
3.17241e-09
6.20122e-09
3.21542e-09
4.50166e-09
3.17627e-09
2.85672e-09
3.02658e-09
1.32579e-09
2.73048e-09
-1.61776e-11
2.25008e-09
-1.07327e-09
1.54304e-09
-1.73104e-09
5.85786e-10
-1.84297e-09
-5.98354e-10
-1.21526e-09
-1.83789e-09
-2.33386e-09
-5.66309e-10
-6.79411e-15
1.77231e-09
-8.07978e-10
-1.04793e-14
1.6209e-09
-6.83927e-10
-1.09376e-14
7.69636e-10
-3.07712e-10
-8.41324e-15
-1.035e-10
2.53089e-10
-6.75507e-15
-8.78769e-10
9.55901e-10
-5.71514e-15
-1.52075e-09
1.76909e-09
-4.89589e-15
-2.02531e-09
2.66523e-09
-4.26221e-15
-2.40211e-09
3.61956e-09
-3.58784e-15
-2.66552e-09
4.60959e-09
-2.96593e-15
-2.83093e-09
5.61537e-09
-2.56491e-15
-2.91253e-09
6.61858e-09
-2.34944e-15
-2.92361e-09
7.603e-09
-2.234e-15
-2.87554e-09
8.55456e-09
-2.14801e-15
-2.7781e-09
9.4612e-09
-2.05875e-15
-2.63977e-09
1.03128e-08
-2.00034e-15
-2.46801e-09
1.11008e-08
-2.01148e-15
-2.26945e-09
1.18185e-08
-2.08461e-15
-2.05004e-09
1.24607e-08
-2.18249e-15
-1.8152e-09
1.30236e-08
-2.27691e-15
-1.56984e-09
1.35046e-08
-2.35615e-15
-1.31847e-09
1.39025e-08
-2.41296e-15
-1.0652e-09
1.42172e-08
-2.43889e-15
-8.13768e-10
1.44496e-08
-2.4257e-15
-5.67534e-10
1.46016e-08
-2.37293e-15
-3.29488e-10
1.46758e-08
-2.27268e-15
-1.02181e-10
1.46757e-08
-2.12715e-15
1.12406e-10
1.4606e-08
-1.9506e-15
3.12722e-10
1.44713e-08
-1.74509e-15
4.97426e-10
1.4277e-08
-1.51132e-15
6.6542e-10
1.40286e-08
-1.24474e-15
8.15892e-10
1.3732e-08
-9.46828e-16
9.48317e-10
1.33931e-08
-6.27513e-16
1.06245e-09
1.3018e-08
-3.05455e-16
1.15831e-09
1.26127e-08
-2.28974e-18
1.23616e-09
1.21833e-08
2.62846e-16
1.29647e-09
1.17354e-08
4.7646e-16
1.33991e-09
1.12746e-08
6.32497e-16
1.3673e-09
1.08063e-08
7.33902e-16
1.37962e-09
1.03354e-08
7.92781e-16
1.37794e-09
9.86653e-09
8.20042e-16
1.36342e-09
9.40398e-09
8.20944e-16
1.33727e-09
8.95158e-09
8.04584e-16
1.30074e-09
8.51274e-09
7.8303e-16
1.25509e-09
8.09047e-09
7.60867e-16
1.20157e-09
7.68737e-09
7.46314e-16
1.14141e-09
7.30561e-09
7.5101e-16
1.07577e-09
6.947e-09
7.79073e-16
1.00579e-09
6.61295e-09
8.24116e-16
9.32507e-10
6.30453e-09
8.74884e-16
8.56903e-10
6.02249e-09
9.2376e-16
7.79869e-10
5.76726e-09
9.699e-16
7.02211e-10
5.53904e-09
9.96952e-16
6.24646e-10
5.33776e-09
9.7939e-16
5.478e-10
5.16316e-09
9.11299e-16
4.72216e-10
5.01478e-09
7.8139e-16
3.98349e-10
4.89202e-09
5.79513e-16
3.26575e-10
4.79415e-09
3.21318e-16
2.57198e-10
4.72034e-09
2.44119e-17
1.90451e-10
4.66967e-09
-2.94193e-16
1.26502e-10
4.64114e-09
-6.06527e-16
6.5478e-11
4.63371e-09
-8.9183e-16
7.46655e-12
4.64636e-09
-1.13118e-15
-4.74248e-11
4.67804e-09
-1.31033e-15
-9.91488e-11
4.72768e-09
-1.43626e-15
-1.47753e-10
4.79423e-09
-1.50686e-15
-1.93306e-10
4.87664e-09
-1.50912e-15
-2.35897e-10
4.97389e-09
-1.45937e-15
-2.75633e-10
5.08501e-09
-1.39499e-15
-3.1263e-10
5.20904e-09
-1.32834e-15
-3.47011e-10
5.34508e-09
-1.24023e-15
-3.78907e-10
5.49227e-09
-1.12203e-15
-4.08448e-10
5.64978e-09
-9.91126e-16
-4.35764e-10
5.81682e-09
-8.60804e-16
-4.60985e-10
5.99268e-09
-7.23911e-16
-4.8424e-10
6.17664e-09
-5.80341e-16
-5.0565e-10
6.36806e-09
-4.46734e-16
-5.25336e-10
6.56632e-09
-3.2472e-16
-5.43413e-10
6.77086e-09
-2.02587e-16
-5.5999e-10
6.98113e-09
-8.64597e-17
-5.75173e-10
7.19663e-09
4.6371e-18
-5.89062e-10
7.4169e-09
6.95126e-17
-6.01753e-10
7.64151e-09
1.15214e-16
-6.13335e-10
7.87006e-09
1.35561e-16
-6.23895e-10
8.10217e-09
1.27245e-16
-6.33512e-10
8.33751e-09
9.89904e-17
-6.42261e-10
8.57575e-09
4.60778e-17
-6.50212e-10
8.81661e-09
-4.79754e-17
-6.5743e-10
9.05981e-09
-1.80244e-16
-6.63973e-10
9.3051e-09
-3.28883e-16
-6.69896e-10
9.55225e-09
-4.79907e-16
-6.75245e-10
9.80104e-09
-6.34019e-16
-6.80065e-10
1.00513e-08
-7.83359e-16
-6.84393e-10
1.03027e-08
-9.10255e-16
-6.88259e-10
1.05553e-08
-1.01145e-15
-6.91689e-10
1.08088e-08
-1.09605e-15
-6.94704e-10
1.1063e-08
-1.16607e-15
-6.9732e-10
1.13177e-08
-1.21679e-15
-6.99546e-10
1.1573e-08
-1.2527e-15
-7.0139e-10
1.18284e-08
-1.28661e-15
-7.02853e-10
1.20841e-08
-1.32416e-15
-7.03935e-10
1.23397e-08
-1.36367e-15
-7.04632e-10
1.25951e-08
-1.40611e-15
-7.04937e-10
1.28502e-08
-1.45458e-15
-7.04842e-10
1.31049e-08
-1.50717e-15
-7.04337e-10
1.33589e-08
-1.55212e-15
-7.03413e-10
1.36121e-08
-1.57603e-15
-7.02061e-10
1.38644e-08
-1.57393e-15
-7.00273e-10
1.41156e-08
-1.549e-15
-6.98043e-10
1.43655e-08
-1.51106e-15
-6.95367e-10
1.4614e-08
-1.46808e-15
-6.92245e-10
1.4861e-08
-1.4257e-15
-6.88677e-10
1.51062e-08
-1.38619e-15
-6.8467e-10
1.53495e-08
-1.35471e-15
-6.80236e-10
1.55909e-08
-1.33754e-15
-6.7539e-10
1.58301e-08
-1.33988e-15
-6.70153e-10
1.6067e-08
-1.36137e-15
-6.64548e-10
1.63015e-08
-1.40264e-15
-6.58604e-10
1.65336e-08
-1.46375e-15
-6.52353e-10
1.67631e-08
-1.53836e-15
-6.45831e-10
1.699e-08
-1.61422e-15
-6.39081e-10
1.72141e-08
-1.68234e-15
-6.32145e-10
1.74355e-08
-1.74308e-15
-6.25071e-10
1.76542e-08
-1.8002e-15
-6.17909e-10
1.787e-08
-1.84697e-15
-6.10709e-10
1.80831e-08
-1.86653e-15
-6.03523e-10
1.82935e-08
-1.84656e-15
-5.96406e-10
1.85012e-08
-1.79353e-15
-5.89411e-10
1.87062e-08