/*--------------------------------*- C++ -*----------------------------------*\
  =========                 |
  \\      /  F ield         | OpenFOAM: The Open Source CFD Toolbox
   \\    /   O peration     | Website:  https://openfoam.org
    \\  /    A nd           | Version:  8
     \\/     M anipulation  |
\*---------------------------------------------------------------------------*/
FoamFile
{
    version     2.0;
    format      ascii;
    class       volScalarField;
    location    "1200";
    object      T;
}
// * * * * * * * * * * * * * * * * * * * * * * * * * * * * * * * * * * * * * //

dimensions      [0 0 0 1 0 0 0];

internalField   nonuniform List<scalar> 
46000
(
311.408
310.973
310.386
309.861
309.42
309.043
308.733
308.48
308.275
308.106
307.971
307.863
307.777
307.71
307.66
307.624
307.601
307.59
307.588
307.596
307.611
307.634
307.663
307.697
307.736
307.779
307.823
307.868
307.916
307.965
308.016
308.068
308.12
308.173
308.225
308.276
308.326
308.375
308.421
308.466
308.509
308.55
308.588
308.624
308.657
308.688
308.716
308.743
308.766
308.788
308.807
308.825
308.841
308.855
308.867
308.878
308.888
308.897
308.904
308.911
308.917
308.921
308.924
308.926
308.928
308.929
308.93
308.931
308.931
308.93
308.93
308.929
308.927
308.926
308.924
308.922
308.919
308.917
308.914
308.91
308.907
308.903
308.899
308.895
308.89
308.885
308.88
308.875
308.869
308.863
308.857
308.85
308.843
308.836
308.829
308.821
308.813
308.805
308.797
308.788
308.779
308.77
308.76
308.751
308.741
308.731
308.721
308.711
308.701
308.69
308.68
308.669
308.658
308.648
308.637
308.626
308.615
308.604
308.593
308.581
308.57
308.559
308.548
308.536
308.525
308.513
308.502
308.49
308.479
308.467
308.455
308.443
308.43
308.418
308.405
308.393
308.38
308.366
308.353
308.339
308.325
308.311
308.297
308.282
308.267
308.252
308.237
308.222
308.206
308.19
308.175
308.159
308.144
308.128
308.113
308.098
308.084
308.071
308.058
308.046
308.036
308.026
308.019
308.013
308.01
308.009
308.01
308.015
308.023
308.034
308.05
308.069
308.092
308.12
308.153
308.192
308.237
308.288
308.347
308.413
308.488
308.57
308.661
308.761
308.871
308.99
309.118
309.256
309.401
309.554
309.712
309.875
310.039
310.204
310.366
310.533
310.716
310.926
311.209
311.501
311.408
310.973
310.386
309.861
309.42
309.043
308.733
308.48
308.275
308.106
307.971
307.863
307.777
307.71
307.66
307.624
307.601
307.59
307.588
307.596
307.611
307.634
307.663
307.697
307.736
307.779
307.823
307.868
307.916
307.965
308.016
308.068
308.12
308.173
308.225
308.276
308.326
308.375
308.421
308.466
308.509
308.55
308.588
308.624
308.657
308.688
308.717
308.743
308.766
308.788
308.807
308.825
308.841
308.855
308.867
308.879
308.888
308.897
308.904
308.911
308.917
308.921
308.924
308.926
308.928
308.929
308.93
308.931
308.931
308.93
308.93
308.929
308.927
308.926
308.924
308.922
308.919
308.917
308.914
308.91
308.907
308.903
308.899
308.895
308.89
308.885
308.88
308.875
308.869
308.863
308.857
308.85
308.843
308.836
308.829
308.821
308.813
308.805
308.797
308.788
308.779
308.77
308.761
308.751
308.741
308.731
308.721
308.711
308.701
308.69
308.68
308.669
308.658
308.648
308.637
308.626
308.615
308.604
308.593
308.581
308.57
308.559
308.548
308.536
308.525
308.513
308.502
308.49
308.479
308.467
308.455
308.443
308.43
308.418
308.405
308.393
308.38
308.366
308.353
308.339
308.325
308.311
308.297
308.282
308.267
308.252
308.237
308.222
308.206
308.19
308.175
308.159
308.144
308.128
308.113
308.098
308.084
308.071
308.058
308.046
308.036
308.026
308.019
308.013
308.01
308.009
308.01
308.015
308.023
308.035
308.05
308.069
308.092
308.12
308.153
308.192
308.237
308.288
308.347
308.413
308.487
308.57
308.661
308.761
308.871
308.99
309.118
309.256
309.401
309.554
309.712
309.875
310.039
310.204
310.366
310.533
310.716
310.926
311.209
311.501
308.423
307.705
306.914
306.273
305.763
305.368
305.062
304.823
304.637
304.494
304.385
304.302
304.243
304.202
304.178
304.168
304.17
304.183
304.205
304.235
304.273
304.317
304.367
304.422
304.482
304.545
304.61
304.678
304.747
304.816
304.887
304.957
305.027
305.096
305.163
305.229
305.293
305.354
305.412
305.468
305.52
305.569
305.614
305.656
305.694
305.729
305.76
305.788
305.814
305.836
305.855
305.872
305.887
305.899
305.91
305.919
305.926
305.932
305.937
305.942
305.945
305.947
305.949
305.95
305.951
305.951
305.952
305.952
305.952
305.952
305.952
305.952
305.952
305.953
305.953
305.953
305.954
305.954
305.955
305.956
305.957
305.958
305.958
305.959
305.96
305.961
305.962
305.963
305.964
305.965
305.965
305.966
305.967
305.967
305.967
305.968
305.968
305.968
305.968
305.967
305.967
305.966
305.966
305.965
305.964
305.963
305.962
305.961
305.959
305.958
305.957
305.955
305.953
305.952
305.95
305.948
305.946
305.944
305.942
305.94
305.938
305.935
305.933
305.931
305.928
305.925
305.923
305.92
305.917
305.913
305.91
305.907
305.903
305.899
305.895
305.89
305.886
305.881
305.876
305.87
305.865
305.859
305.853
305.846
305.84
305.833
305.826
305.818
305.811
305.804
305.796
305.789
305.781
305.774
305.767
305.76
305.754
305.749
305.744
305.74
305.738
305.736
305.736
305.738
305.742
305.748
305.757
305.768
305.783
305.8
305.822
305.847
305.877
305.911
305.95
305.995
306.046
306.104
306.169
306.241
306.321
306.409
306.506
306.613
306.728
306.854
306.988
307.132
307.283
307.441
307.602
307.765
307.927
308.082
308.229
308.37
308.51
308.667
308.854
309.062
308.423
307.705
306.914
306.273
305.763
305.368
305.062
304.823
304.637
304.494
304.384
304.302
304.243
304.202
304.178
304.168
304.17
304.182
304.205
304.235
304.273
304.317
304.367
304.422
304.482
304.545
304.61
304.678
304.747
304.816
304.887
304.957
305.027
305.096
305.163
305.229
305.293
305.354
305.412
305.468
305.52
305.569
305.614
305.656
305.694
305.729
305.76
305.789
305.814
305.836
305.855
305.872
305.887
305.899
305.91
305.919
305.926
305.933
305.938
305.942
305.945
305.947
305.949
305.95
305.951
305.951
305.952
305.952
305.952
305.952
305.952
305.952
305.952
305.953
305.953
305.953
305.954
305.954
305.955
305.956
305.957
305.958
305.958
305.959
305.96
305.961
305.962
305.963
305.964
305.965
305.965
305.966
305.967
305.967
305.967
305.968
305.968
305.968
305.968
305.967
305.967
305.966
305.966
305.965
305.964
305.963
305.962
305.961
305.959
305.958
305.957
305.955
305.953
305.952
305.95
305.948
305.946
305.944
305.942
305.94
305.938
305.935
305.933
305.931
305.928
305.925
305.923
305.92
305.917
305.913
305.91
305.907
305.903
305.899
305.895
305.89
305.886
305.881
305.876
305.87
305.865
305.859
305.853
305.846
305.84
305.833
305.826
305.818
305.811
305.804
305.796
305.789
305.781
305.774
305.767
305.76
305.754
305.749
305.744
305.74
305.738
305.736
305.736
305.738
305.742
305.748
305.757
305.768
305.783
305.8
305.822
305.847
305.877
305.911
305.95
305.995
306.046
306.104
306.169
306.241
306.321
306.409
306.506
306.613
306.728
306.854
306.988
307.132
307.283
307.441
307.602
307.765
307.927
308.082
308.229
308.37
308.51
308.667
308.854
309.062
306.203
305.58
304.963
304.466
304.068
303.755
303.51
303.319
303.17
303.056
302.97
302.908
302.865
302.838
302.826
302.827
302.838
302.858
302.888
302.924
302.968
303.017
303.072
303.131
303.195
303.261
303.331
303.402
303.475
303.549
303.623
303.697
303.77
303.843
303.914
303.983
304.05
304.115
304.176
304.235
304.29
304.342
304.39
304.434
304.475
304.512
304.546
304.576
304.603
304.627
304.647
304.665
304.681
304.695
304.706
304.715
304.723
304.73
304.735
304.739
304.743
304.745
304.747
304.749
304.75
304.751
304.752
304.752
304.753
304.753
304.754
304.755
304.756
304.757
304.758
304.76
304.761
304.763
304.765
304.768
304.77
304.773
304.775
304.778
304.781
304.784
304.787
304.79
304.794
304.797
304.8
304.804
304.807
304.81
304.813
304.816
304.819
304.822
304.825
304.828
304.831
304.833
304.836
304.839
304.841
304.843
304.845
304.847
304.849
304.851
304.853
304.855
304.857
304.858
304.86
304.861
304.863
304.864
304.865
304.866
304.868
304.868
304.869
304.87
304.871
304.871
304.872
304.872
304.872
304.872
304.872
304.871
304.871
304.87
304.869
304.868
304.866
304.864
304.862
304.86
304.857
304.855
304.851
304.848
304.845
304.841
304.837
304.833
304.828
304.824
304.819
304.815
304.811
304.807
304.803
304.799
304.796
304.794
304.792
304.792
304.792
304.794
304.797
304.802
304.809
304.818
304.83
304.844
304.861
304.881
304.905
304.933
304.965
305.002
305.043
305.091
305.144
305.203
305.269
305.342
305.423
305.512
305.609
305.715
305.829
305.952
306.084
306.223
306.369
306.52
306.674
306.827
306.977
307.12
307.251
307.37
307.474
307.566
307.634
307.66
306.203
305.58
304.963
304.466
304.068
303.755
303.51
303.319
303.17
303.056
302.97
302.908
302.865
302.838
302.826
302.827
302.838
302.858
302.888
302.924
302.968
303.017
303.072
303.131
303.195
303.261
303.331
303.402
303.475
303.548
303.623
303.697
303.77
303.843
303.914
303.983
304.05
304.115
304.176
304.235
304.29
304.342
304.39
304.434
304.475
304.512
304.546
304.576
304.603
304.627
304.647
304.665
304.681
304.695
304.706
304.715
304.723
304.73
304.735
304.739
304.743
304.745
304.747
304.749
304.75
304.751
304.752
304.752
304.753
304.753
304.754
304.755
304.756
304.757
304.758
304.76
304.761
304.763
304.765
304.768
304.77
304.773
304.775
304.778
304.781
304.784
304.787
304.79
304.794
304.797
304.8
304.804
304.807
304.81
304.813
304.816
304.819
304.822
304.825
304.828
304.831
304.834
304.836
304.839
304.841
304.843
304.845
304.847
304.849
304.851
304.853
304.855
304.857
304.858
304.86
304.861
304.863
304.864
304.865
304.866
304.868
304.868
304.869
304.87
304.871
304.871
304.872
304.872
304.872
304.872
304.872
304.871
304.871
304.87
304.869
304.868
304.866
304.864
304.862
304.86
304.857
304.855
304.851
304.848
304.845
304.841
304.837
304.833
304.828
304.824
304.819
304.815
304.811
304.807
304.803
304.799
304.796
304.794
304.792
304.792
304.792
304.794
304.797
304.802
304.809
304.818
304.83
304.844
304.861
304.881
304.905
304.933
304.965
305.002
305.043
305.091
305.144
305.203
305.269
305.342
305.423
305.512
305.609
305.715
305.829
305.952
306.084
306.223
306.369
306.52
306.674
306.827
306.977
307.12
307.251
307.37
307.474
307.566
307.634
307.66
304.569
304.093
303.651
303.289
302.996
302.759
302.57
302.419
302.302
302.211
302.144
302.096
302.065
302.048
302.044
302.05
302.066
302.091
302.123
302.162
302.208
302.259
302.314
302.375
302.438
302.505
302.575
302.647
302.72
302.794
302.869
302.944
303.018
303.091
303.163
303.234
303.302
303.368
303.431
303.491
303.547
303.601
303.65
303.696
303.739
303.778
303.813
303.845
303.873
303.899
303.921
303.941
303.958
303.973
303.985
303.996
304.005
304.013
304.019
304.024
304.028
304.032
304.034
304.037
304.038
304.04
304.041
304.042
304.043
304.044
304.045
304.047
304.048
304.05
304.051
304.053
304.055
304.058
304.061
304.063
304.066
304.07
304.073
304.077
304.08
304.084
304.088
304.092
304.096
304.101
304.105
304.109
304.113
304.118
304.122
304.126
304.131
304.135
304.139
304.143
304.147
304.151
304.155
304.159
304.163
304.166
304.17
304.173
304.177
304.18
304.184
304.187
304.19
304.193
304.196
304.199
304.202
304.205
304.208
304.21
304.213
304.215
304.218
304.22
304.222
304.224
304.226
304.228
304.229
304.231
304.232
304.233
304.234
304.235
304.235
304.236
304.235
304.235
304.235
304.234
304.233
304.232
304.23
304.228
304.226
304.224
304.222
304.219
304.216
304.214
304.211
304.208
304.206
304.203
304.201
304.2
304.198
304.198
304.198
304.199
304.202
304.205
304.211
304.218
304.226
304.237
304.251
304.267
304.286
304.308
304.334
304.364
304.398
304.436
304.479
304.528
304.583
304.643
304.71
304.784
304.865
304.954
305.051
305.156
305.269
305.389
305.517
305.652
305.793
305.937
306.083
306.227
306.368
306.499
306.619
306.723
306.807
306.867
306.893
306.86
304.569
304.093
303.651
303.289
302.996
302.759
302.57
302.419
302.302
302.211
302.144
302.096
302.065
302.048
302.044
302.05
302.066
302.091
302.123
302.162
302.208
302.259
302.314
302.374
302.438
302.505
302.575
302.647
302.72
302.794
302.869
302.944
303.018
303.091
303.163
303.234
303.302
303.368
303.431
303.491
303.547
303.601
303.65
303.696
303.739
303.778
303.813
303.845
303.873
303.899
303.921
303.941
303.958
303.973
303.985
303.996
304.005
304.013
304.019
304.024
304.028
304.032
304.034
304.037
304.038
304.04
304.041
304.042
304.043
304.044
304.045
304.047
304.048
304.05
304.051
304.053
304.056
304.058
304.061
304.063
304.066
304.07
304.073
304.077
304.08
304.084
304.088
304.092
304.096
304.101
304.105
304.109
304.113
304.118
304.122
304.126
304.131
304.135
304.139
304.143
304.147
304.151
304.155
304.159
304.163
304.166
304.17
304.173
304.177
304.18
304.184
304.187
304.19
304.193
304.196
304.199
304.202
304.205
304.208
304.21
304.213
304.215
304.218
304.22
304.222
304.224
304.226
304.228
304.229
304.231
304.232
304.233
304.234
304.235
304.235
304.235
304.235
304.235
304.235
304.234
304.233
304.232
304.23
304.228
304.226
304.224
304.222
304.219
304.216
304.214
304.211
304.208
304.206
304.203
304.201
304.2
304.198
304.198
304.198
304.199
304.202
304.205
304.211
304.218
304.226
304.237
304.251
304.267
304.286
304.308
304.334
304.364
304.398
304.436
304.479
304.528
304.582
304.643
304.71
304.784
304.865
304.954
305.051
305.156
305.269
305.389
305.517
305.652
305.793
305.937
306.083
306.227
306.368
306.499
306.619
306.723
306.807
306.867
306.893
306.86
303.313
302.96
302.651
302.398
302.189
302.015
301.873
301.759
301.669
301.6
301.55
301.515
301.494
301.485
301.487
301.498
301.518
301.546
301.58
301.621
301.667
301.718
301.774
301.834
301.897
301.964
302.033
302.104
302.176
302.25
302.324
302.398
302.472
302.545
302.617
302.687
302.756
302.821
302.885
302.945
303.002
303.056
303.107
303.154
303.198
303.238
303.274
303.307
303.337
303.364
303.387
303.408
303.427
303.443
303.457
303.468
303.479
303.487
303.494
303.5
303.505
303.51
303.513
303.516
303.518
303.52
303.522
303.524
303.525
303.527
303.528
303.53
303.531
303.533
303.535
303.538
303.54
303.543
303.546
303.549
303.552
303.556
303.559
303.563
303.567
303.571
303.576
303.58
303.585
303.589
303.594
303.599
303.604
303.609
303.614
303.618
303.623
303.628
303.633
303.638
303.642
303.647
303.652
303.656
303.661
303.665
303.67
303.674
303.678
303.682
303.687
303.691
303.695
303.699
303.703
303.706
303.71
303.714
303.718
303.721
303.725
303.728
303.731
303.734
303.738
303.74
303.743
303.746
303.749
303.751
303.753
303.755
303.757
303.759
303.76
303.761
303.762
303.763
303.763
303.763
303.763
303.763
303.763
303.762
303.761
303.76
303.758
303.757
303.755
303.754
303.752
303.751
303.749
303.748
303.748
303.747
303.747
303.748
303.75
303.753
303.757
303.762
303.769
303.777
303.788
303.8
303.815
303.833
303.854
303.878
303.905
303.937
303.972
304.012
304.057
304.107
304.163
304.225
304.293
304.368
304.449
304.538
304.634
304.738
304.849
304.967
305.092
305.222
305.357
305.495
305.634
305.771
305.903
306.026
306.137
306.232
306.306
306.355
306.373
306.342
303.313
302.959
302.651
302.398
302.188
302.015
301.873
301.759
301.669
301.6
301.55
301.515
301.494
301.485
301.487
301.498
301.518
301.546
301.58
301.621
301.667
301.718
301.774
301.834
301.897
301.964
302.033
302.104
302.176
302.25
302.324
302.398
302.472
302.545
302.617
302.687
302.756
302.821
302.885
302.945
303.002
303.056
303.107
303.154
303.198
303.238
303.274
303.307
303.337
303.364
303.387
303.408
303.427
303.443
303.457
303.468
303.479
303.487
303.494
303.5
303.505
303.51
303.513
303.516
303.518
303.52
303.522
303.524
303.525
303.527
303.528
303.53
303.531
303.533
303.535
303.538
303.54
303.543
303.546
303.549
303.552
303.556
303.559
303.563
303.567
303.571
303.576
303.58
303.585
303.589
303.594
303.599
303.604
303.609
303.614
303.618
303.623
303.628
303.633
303.638
303.642
303.647
303.652
303.656
303.661
303.665
303.67
303.674
303.678
303.682
303.687
303.691
303.695
303.699
303.703
303.706
303.71
303.714
303.718
303.721
303.725
303.728
303.731
303.734
303.738
303.74
303.743
303.746
303.749
303.751
303.753
303.755
303.757
303.759
303.76
303.761
303.762
303.763
303.763
303.763
303.763
303.763
303.763
303.762
303.761
303.76
303.758
303.757
303.755
303.754
303.752
303.751
303.749
303.748
303.748
303.747
303.747
303.748
303.75
303.753
303.757
303.762
303.769
303.777
303.788
303.8
303.815
303.833
303.854
303.878
303.905
303.937
303.972
304.012
304.057
304.107
304.163
304.225
304.293
304.368
304.449
304.538
304.634
304.738
304.849
304.967
305.092
305.222
305.357
305.495
305.634
305.771
305.903
306.026
306.137
306.232
306.306
306.355
306.373
306.342
302.312
302.06
301.85
301.681
301.536
301.414
301.313
301.23
301.165
301.116
301.08
301.057
301.046
301.044
301.052
301.067
301.091
301.12
301.156
301.198
301.245
301.296
301.351
301.411
301.473
301.539
301.607
301.676
301.748
301.82
301.893
301.966
302.039
302.111
302.182
302.251
302.319
302.384
302.447
302.507
302.565
302.619
302.669
302.717
302.761
302.801
302.839
302.873
302.903
302.931
302.956
302.978
302.997
303.014
303.029
303.042
303.053
303.062
303.07
303.077
303.083
303.088
303.092
303.095
303.098
303.101
303.103
303.105
303.107
303.109
303.111
303.112
303.114
303.117
303.119
303.121
303.124
303.127
303.13
303.133
303.136
303.14
303.144
303.148
303.152
303.157
303.161
303.166
303.171
303.175
303.18
303.185
303.19
303.196
303.201
303.206
303.211
303.216
303.222
303.227
303.232
303.237
303.242
303.247
303.252
303.257
303.262
303.267
303.272
303.276
303.281
303.286
303.29
303.295
303.299
303.304
303.308
303.312
303.317
303.321
303.325
303.329
303.333
303.337
303.34
303.344
303.348
303.351
303.354
303.357
303.36
303.363
303.365
303.367
303.37
303.371
303.373
303.374
303.376
303.377
303.377
303.378
303.378
303.378
303.378
303.378
303.377
303.376
303.376
303.375
303.375
303.374
303.374
303.374
303.374
303.375
303.376
303.378
303.381
303.385
303.39
303.397
303.405
303.415
303.427
303.441
303.458
303.477
303.499
303.525
303.554
303.587
303.624
303.666
303.712
303.764
303.821
303.884
303.953
304.028
304.11
304.199
304.295
304.398
304.507
304.623
304.744
304.871
305.001
305.133
305.266
305.396
305.521
305.637
305.742
305.831
305.901
305.949
305.968
305.956
302.312
302.06
301.85
301.68
301.536
301.414
301.313
301.23
301.165
301.116
301.08
301.057
301.046
301.044
301.052
301.067
301.091
301.12
301.156
301.198
301.245
301.296
301.351
301.411
301.473
301.539
301.606
301.676
301.748
301.82
301.893
301.966
302.039
302.111
302.182
302.251
302.319
302.384
302.447
302.507
302.565
302.619
302.669
302.717
302.761
302.801
302.839
302.873
302.903
302.931
302.956
302.978
302.997
303.014
303.029
303.042
303.053
303.062
303.07
303.077
303.083
303.088
303.092
303.095
303.098
303.101
303.103
303.105
303.107
303.109
303.111
303.112
303.114
303.117
303.119
303.121
303.124
303.127
303.13
303.133
303.136
303.14
303.144
303.148
303.152
303.157
303.161
303.166
303.171
303.175
303.18
303.185
303.19
303.196
303.201
303.206
303.211
303.216
303.222
303.227
303.232
303.237
303.242
303.247
303.252
303.257
303.262
303.267
303.272
303.276
303.281
303.286
303.29
303.295
303.299
303.304
303.308
303.312
303.317
303.321
303.325
303.329
303.333
303.337
303.34
303.344
303.348
303.351
303.354
303.357
303.36
303.363
303.365
303.367
303.37
303.371
303.373
303.374
303.376
303.377
303.377
303.378
303.378
303.378
303.378
303.378
303.377
303.376
303.376
303.375
303.375
303.374
303.374
303.374
303.374
303.375
303.376
303.378
303.381
303.385
303.39
303.397
303.405
303.415
303.427
303.441
303.458
303.477
303.499
303.525
303.554
303.587
303.624
303.666
303.712
303.764
303.821
303.884
303.953
304.028
304.11
304.199
304.295
304.398
304.507
304.623
304.744
304.871
305.001
305.133
305.266
305.396
305.521
305.637
305.742
305.831
305.901
305.949
305.968
305.956
301.502
301.33
301.197
301.09
300.996
300.915
300.846
300.79
300.746
300.714
300.692
300.68
300.676
300.682
300.694
300.714
300.74
300.772
300.809
300.851
300.898
300.949
301.004
301.063
301.124
301.188
301.255
301.323
301.393
301.464
301.535
301.606
301.678
301.748
301.818
301.886
301.953
302.017
302.079
302.139
302.195
302.249
302.299
302.347
302.391
302.431
302.469
302.503
302.534
302.562
302.588
302.61
302.631
302.648
302.664
302.677
302.689
302.7
302.708
302.716
302.722
302.728
302.732
302.736
302.74
302.743
302.745
302.748
302.75
302.752
302.754
302.756
302.759
302.761
302.763
302.766
302.769
302.771
302.775
302.778
302.781
302.785
302.789
302.793
302.797
302.802
302.806
302.811
302.816
302.821
302.826
302.831
302.837
302.842
302.847
302.853
302.858
302.863
302.869
302.874
302.88
302.885
302.891
302.896
302.901
302.907
302.912
302.917
302.922
302.927
302.933
302.938
302.943
302.948
302.953
302.957
302.962
302.967
302.972
302.976
302.981
302.985
302.99
302.994
302.998
303.002
303.006
303.01
303.014
303.017
303.021
303.024
303.027
303.03
303.032
303.035
303.037
303.039
303.041
303.042
303.044
303.045
303.045
303.046
303.047
303.047
303.047
303.047
303.047
303.048
303.048
303.048
303.049
303.049
303.051
303.052
303.055
303.058
303.062
303.067
303.074
303.082
303.091
303.102
303.116
303.131
303.15
303.171
303.195
303.222
303.252
303.287
303.326
303.369
303.417
303.47
303.529
303.593
303.663
303.739
303.821
303.91
304.005
304.107
304.214
304.328
304.447
304.57
304.695
304.823
304.95
305.074
305.194
305.305
305.405
305.491
305.561
305.611
305.639
305.643
301.501
301.33
301.197
301.09
300.996
300.915
300.846
300.79
300.746
300.714
300.692
300.68
300.676
300.682
300.694
300.714
300.74
300.772
300.809
300.851
300.898
300.949
301.004
301.063
301.124
301.188
301.255
301.323
301.393
301.464
301.535
301.606
301.678
301.748
301.818
301.886
301.953
302.017
302.079
302.139
302.195
302.249
302.299
302.347
302.391
302.431
302.469
302.503
302.534
302.562
302.588
302.61
302.631
302.648
302.664
302.677
302.689
302.7
302.708
302.716
302.722
302.728
302.732
302.736
302.74
302.743
302.745
302.748
302.75
302.752
302.754
302.756
302.759
302.761
302.763
302.766
302.769
302.771
302.775
302.778
302.781
302.785
302.789
302.793
302.797
302.802
302.806
302.811
302.816
302.821
302.826
302.831
302.837
302.842
302.847
302.853
302.858
302.863
302.869
302.874
302.88
302.885
302.891
302.896
302.901
302.907
302.912
302.917
302.922
302.927
302.933
302.938
302.943
302.948
302.952
302.957
302.962
302.967
302.972
302.976
302.981
302.985
302.99
302.994
302.998
303.002
303.006
303.01
303.014
303.017
303.021
303.024
303.027
303.03
303.032
303.035
303.037
303.039
303.041
303.042
303.044
303.045
303.045
303.046
303.047
303.047
303.047
303.047
303.047
303.048
303.048
303.048
303.049
303.049
303.051
303.052
303.055
303.058
303.062
303.067
303.074
303.082
303.091
303.102
303.116
303.131
303.15
303.171
303.194
303.222
303.252
303.287
303.326
303.369
303.417
303.47
303.529
303.593
303.663
303.739
303.821
303.91
304.005
304.107
304.214
304.328
304.447
304.57
304.695
304.823
304.95
305.074
305.194
305.305
305.405
305.491
305.561
305.611
305.639
305.643
300.845
300.737
300.663
300.6
300.545
300.495
300.453
300.418
300.392
300.374
300.363
300.36
300.364
300.375
300.392
300.415
300.444
300.477
300.516
300.559
300.606
300.656
300.711
300.768
300.828
300.891
300.956
301.022
301.09
301.159
301.229
301.299
301.368
301.437
301.505
301.571
301.636
301.699
301.76
301.819
301.874
301.927
301.977
302.024
302.067
302.108
302.145
302.179
302.211
302.239
302.265
302.288
302.308
302.327
302.343
302.357
302.369
302.38
302.389
302.397
302.404
302.41
302.415
302.42
302.424
302.427
302.43
302.433
302.435
302.437
302.44
302.442
302.444
302.447
302.449
302.452
302.455
302.458
302.461
302.464
302.468
302.471
302.475
302.479
302.484
302.488
302.493
302.498
302.503
302.508
302.513
302.518
302.523
302.529
302.534
302.54
302.545
302.551
302.556
302.562
302.568
302.573
302.579
302.584
302.59
302.596
302.601
302.607
302.612
302.618
302.623
302.628
302.634
302.639
302.644
302.65
302.655
302.66
302.665
302.67
302.675
302.68
302.685
302.689
302.694
302.698
302.703
302.707
302.711
302.715
302.719
302.723
302.726
302.729
302.732
302.735
302.738
302.74
302.742
302.744
302.746
302.748
302.749
302.75
302.751
302.752
302.753
302.754
302.755
302.755
302.756
302.757
302.759
302.76
302.763
302.765
302.769
302.773
302.778
302.784
302.792
302.801
302.812
302.825
302.839
302.857
302.876
302.899
302.924
302.953
302.986
303.022
303.062
303.107
303.157
303.211
303.271
303.336
303.407
303.484
303.567
303.655
303.75
303.851
303.957
304.069
304.185
304.305
304.427
304.55
304.672
304.792
304.907
305.014
305.112
305.196
305.267
305.32
305.356
305.369
300.845
300.736
300.663
300.6
300.545
300.495
300.453
300.418
300.392
300.374
300.363
300.36
300.364
300.375
300.392
300.415
300.444
300.477
300.516
300.559
300.606
300.656
300.711
300.768
300.828
300.891
300.956
301.022
301.09
301.159
301.229
301.299
301.368
301.437
301.505
301.571
301.636
301.699
301.76
301.819
301.874
301.927
301.977
302.024
302.067
302.108
302.145
302.179
302.211
302.239
302.265
302.288
302.308
302.327
302.343
302.357
302.369
302.38
302.389
302.397
302.404
302.41
302.415
302.42
302.424
302.427
302.43
302.433
302.435
302.437
302.44
302.442
302.444
302.447
302.449
302.452
302.455
302.458
302.461
302.464
302.468
302.471
302.475
302.479
302.484
302.488
302.493
302.498
302.502
302.508
302.513
302.518
302.523
302.529
302.534
302.54
302.545
302.551
302.556
302.562
302.568
302.573
302.579
302.584
302.59
302.596
302.601
302.607
302.612
302.618
302.623
302.628
302.634
302.639
302.644
302.65
302.655
302.66
302.665
302.67
302.675
302.68
302.685
302.689
302.694
302.698
302.703
302.707
302.711
302.715
302.719
302.723
302.726
302.729
302.732
302.735
302.738
302.74
302.742
302.744
302.746
302.748
302.749
302.75
302.751
302.752
302.753
302.754
302.755
302.755
302.756
302.757
302.759
302.76
302.763
302.765
302.769
302.773
302.778
302.784
302.792
302.801
302.812
302.825
302.839
302.857
302.876
302.899
302.924
302.953
302.986
303.022
303.062
303.107
303.157
303.211
303.271
303.336
303.407
303.484
303.567
303.655
303.75
303.851
303.957
304.069
304.185
304.305
304.427
304.55
304.672
304.792
304.907
305.014
305.112
305.196
305.267
305.321
305.356
305.369
300.318
300.26
300.226
300.196
300.167
300.141
300.119
300.101
300.089
300.082
300.081
300.086
300.097
300.112
300.133
300.159
300.19
300.225
300.264
300.307
300.354
300.404
300.458
300.514
300.573
300.634
300.697
300.762
300.828
300.895
300.962
301.03
301.097
301.164
301.23
301.295
301.358
301.419
301.479
301.535
301.59
301.642
301.69
301.736
301.779
301.819
301.856
301.89
301.921
301.95
301.975
301.998
302.019
302.038
302.054
302.069
302.081
302.092
302.102
302.11
302.118
302.124
302.13
302.134
302.138
302.142
302.145
302.148
302.151
302.153
302.156
302.158
302.161
302.163
302.166
302.169
302.171
302.174
302.177
302.181
302.184
302.188
302.192
302.196
302.2
302.205
302.209
302.214
302.219
302.224
302.229
302.234
302.24
302.245
302.251
302.256
302.262
302.268
302.273
302.279
302.285
302.291
302.296
302.302
302.308
302.314
302.32
302.325
302.331
302.337
302.342
302.348
302.354
302.359
302.365
302.37
302.376
302.381
302.387
302.392
302.397
302.402
302.408
302.413
302.418
302.422
302.427
302.432
302.436
302.44
302.445
302.449
302.452
302.456
302.459
302.463
302.466
302.468
302.471
302.473
302.476
302.478
302.48
302.481
302.483
302.484
302.486
302.487
302.488
302.49
302.491
302.493
302.495
302.498
302.501
302.504
302.508
302.514
302.52
302.527
302.536
302.547
302.559
302.573
302.589
302.608
302.629
302.653
302.68
302.711
302.745
302.783
302.825
302.871
302.922
302.978
303.04
303.106
303.178
303.255
303.339
303.427
303.522
303.622
303.727
303.837
303.951
304.067
304.186
304.306
304.425
304.54
304.652
304.756
304.851
304.936
305.007
305.065
305.109
305.136
300.317
300.26
300.225
300.195
300.167
300.141
300.119
300.101
300.089
300.082
300.081
300.086
300.097
300.112
300.133
300.159
300.19
300.225
300.264
300.307
300.354
300.404
300.458
300.514
300.573
300.634
300.697
300.762
300.828
300.895
300.962
301.03
301.097
301.164
301.23
301.295
301.358
301.419
301.479
301.535
301.59
301.642
301.69
301.736
301.779
301.819
301.856
301.89
301.921
301.95
301.975
301.998
302.019
302.038
302.054
302.068
302.081
302.092
302.102
302.11
302.118
302.124
302.13
302.134
302.138
302.142
302.145
302.148
302.151
302.153
302.156
302.158
302.161
302.163
302.166
302.169
302.171
302.174
302.177
302.181
302.184
302.188
302.192
302.196
302.2
302.205
302.209
302.214
302.219
302.224
302.229
302.234
302.24
302.245
302.251
302.256
302.262
302.268
302.273
302.279
302.285
302.291
302.296
302.302
302.308
302.314
302.319
302.325
302.331
302.337
302.342
302.348
302.354
302.359
302.365
302.37
302.376
302.381
302.387
302.392
302.397
302.402
302.408
302.413
302.418
302.422
302.427
302.432
302.436
302.44
302.445
302.449
302.452
302.456
302.459
302.463
302.466
302.468
302.471
302.473
302.476
302.478
302.48
302.481
302.483
302.484
302.486
302.487
302.488
302.49
302.491
302.493
302.495
302.498
302.501
302.504
302.508
302.514
302.52
302.527
302.536
302.547
302.559
302.573
302.589
302.608
302.629
302.653
302.68
302.711
302.745
302.783
302.825
302.871
302.922
302.978
303.04
303.106
303.178
303.255
303.339
303.427
303.522
303.622
303.727
303.837
303.951
304.067
304.186
304.306
304.425
304.541
304.652
304.756
304.851
304.936
305.007
305.065
305.109
305.136
299.894
299.877
299.87
299.862
299.853
299.844
299.836
299.831
299.83
299.832
299.839
299.85
299.865
299.885
299.909
299.937
299.969
300.005
300.045
300.088
300.135
300.184
300.237
300.292
300.349
300.409
300.47
300.533
300.597
300.662
300.727
300.792
300.857
300.922
300.986
301.049
301.11
301.169
301.227
301.282
301.335
301.385
301.433
301.478
301.519
301.559
301.595
301.628
301.659
301.687
301.712
301.735
301.756
301.775
301.791
301.806
301.819
301.83
301.84
301.848
301.856
301.863
301.868
301.873
301.878
301.881
301.885
301.888
301.891
301.893
301.896
301.898
301.901
301.903
301.906
301.909
301.912
301.915
301.918
301.921
301.924
301.928
301.932
301.936
301.94
301.945
301.949
301.954
301.959
301.964
301.969
301.974
301.979
301.985
301.99
301.996
302.002
302.007
302.013
302.019
302.025
302.031
302.037
302.043
302.048
302.054
302.06
302.066
302.072
302.078
302.084
302.09
302.096