/*--------------------------------*- C++ -*----------------------------------*\
  =========                 |
  \\      /  F ield         | OpenFOAM: The Open Source CFD Toolbox
   \\    /   O peration     | Website:  https://openfoam.org
    \\  /    A nd           | Version:  8
     \\/     M anipulation  |
\*---------------------------------------------------------------------------*/
FoamFile
{
    version     2.0;
    format      ascii;
    class       volVectorField;
    location    "1200";
    object      U;
}
// * * * * * * * * * * * * * * * * * * * * * * * * * * * * * * * * * * * * * //

dimensions      [0 1 -1 0 0 0 0];

internalField   nonuniform List<vector> 
46000
(
(-0.00140277 -9.00721e-08 0.00151468)
(-0.00677938 -9.11608e-08 0.0027609)
(-0.0125703 -1.67933e-07 0.00299642)
(-0.0164974 -1.50461e-07 0.00215206)
(-0.0179871 -1.08321e-07 0.000910671)
(-0.0171275 -6.43307e-08 -0.000325649)
(-0.0143271 -2.44617e-08 -0.00138033)
(-0.0100089 -5.83278e-09 -0.00222265)
(-0.00460913 -3.64804e-09 -0.00286184)
(0.0015927 -1.07924e-08 -0.00329239)
(0.00820767 -2.62182e-08 -0.00352844)
(0.015027 -4.52941e-08 -0.00362199)
(0.0218509 -6.47859e-08 -0.00360528)
(0.0285185 -8.48105e-08 -0.00349907)
(0.0349014 -1.05114e-07 -0.00332093)
(0.0408963 -1.25281e-07 -0.00308591)
(0.0464216 -1.45072e-07 -0.00280702)
(0.0514149 -1.64825e-07 -0.00249565)
(0.0558304 -1.8438e-07 -0.00216182)
(0.0596372 -2.0242e-07 -0.00181439)
(0.0628179 -2.17207e-07 -0.00146122)
(0.0653671 -2.27477e-07 -0.00110932)
(0.0672901 -2.32979e-07 -0.000765019)
(0.0686022 -2.33475e-07 -0.000434151)
(0.0693281 -2.28937e-07 -0.000122377)
(0.0694972 -2.19422e-07 0.000166404)
(0.0691575 -2.05417e-07 0.000433847)
(0.0683317 -1.88303e-07 0.000680903)
(0.067063 -1.69372e-07 0.000904725)
(0.0653932 -1.49722e-07 0.00110369)
(0.0633666 -1.2925e-07 0.0012769)
(0.0610288 -1.07382e-07 0.00142408)
(0.0584258 -8.40453e-08 0.0015454)
(0.0556033 -6.00135e-08 0.0016415)
(0.0526059 -3.63594e-08 0.00171333)
(0.0494767 -1.41564e-08 0.00176212)
(0.0462567 5.58267e-09 0.0017893)
(0.0429847 2.20672e-08 0.00179651)
(0.0396964 3.46345e-08 0.00178545)
(0.036425 4.27701e-08 0.00175795)
(0.0332003 4.62431e-08 0.00171584)
(0.0300491 4.55647e-08 0.00166099)
(0.0269949 4.19896e-08 0.0015952)
(0.0240581 3.659e-08 0.00152025)
(0.0212559 3.05132e-08 0.00143782)
(0.0186026 2.56433e-08 0.0013495)
(0.0161096 2.34329e-08 0.00125679)
(0.0137856 2.44771e-08 0.00116105)
(0.0116369 2.93853e-08 0.00106353)
(0.00966747 3.80033e-08 0.000965345)
(0.0078793 4.87377e-08 0.000867479)
(0.00627251 5.91495e-08 0.000770788)
(0.00484564 6.60014e-08 0.000676002)
(0.00359585 6.66571e-08 0.000583726)
(0.00251916 5.9831e-08 0.000494445)
(0.00161064 4.42445e-08 0.000408536)
(0.000864611 1.95787e-08 0.000326269)
(0.000274824 -1.20785e-08 0.000247806)
(-0.000165354 -4.77327e-08 0.000173194)
(-0.000462669 -8.45919e-08 0.000102398)
(-0.000623872 -1.19046e-07 3.52949e-05)
(-0.00065694 -1.48188e-07 -2.78128e-05)
(-0.000566545 -1.69824e-07 -8.65718e-05)
(-0.000363815 -1.82456e-07 -0.000141196)
(-5.44607e-05 -1.86232e-07 -0.000191931)
(0.000353893 -1.8226e-07 -0.000238968)
(0.000854438 -1.71297e-07 -0.000282548)
(0.00144067 -1.54696e-07 -0.000322886)
(0.00210643 -1.34066e-07 -0.000360193)
(0.00284588 -1.10366e-07 -0.000394676)
(0.00365356 -8.48274e-08 -0.000426542)
(0.00452432 -5.91325e-08 -0.000455987)
(0.00545338 -3.36465e-08 -0.000483199)
(0.00643624 -7.82889e-09 -0.000508356)
(0.00746875 1.86041e-08 -0.000531624)
(0.00854703 4.60174e-08 -0.000553156)
(0.00966748 7.45258e-08 -0.000573097)
(0.0108268 1.04291e-07 -0.000591582)
(0.0120219 1.35699e-07 -0.00060874)
(0.0132499 1.67979e-07 -0.000624691)
(0.0145082 1.98724e-07 -0.000639545)
(0.0157945 2.25628e-07 -0.000653398)
(0.0171064 2.47834e-07 -0.00066634)
(0.0184421 2.64679e-07 -0.000678456)
(0.0197997 2.75094e-07 -0.000689824)
(0.0211774 2.78669e-07 -0.000700514)
(0.0225738 2.76024e-07 -0.000710595)
(0.0239873 2.68391e-07 -0.000720135)
(0.0254169 2.57067e-07 -0.000729193)
(0.0268613 2.43384e-07 -0.000737819)
(0.0283194 2.28761e-07 -0.000746055)
(0.0297903 2.14775e-07 -0.000753933)
(0.0312732 2.03053e-07 -0.000761479)
(0.0327671 1.94724e-07 -0.000768709)
(0.0342713 1.89924e-07 -0.000775636)
(0.035785 1.87868e-07 -0.000782269)
(0.0373076 1.8763e-07 -0.000788608)
(0.0388383 1.88237e-07 -0.000794647)
(0.0403764 1.88404e-07 -0.000800375)
(0.0419212 1.86909e-07 -0.000805775)
(0.043472 1.83386e-07 -0.000810827)
(0.0450279 1.78532e-07 -0.000815509)
(0.0465883 1.73252e-07 -0.000819799)
(0.0481523 1.68357e-07 -0.000823676)
(0.049719 1.6424e-07 -0.000827117)
(0.0512876 1.61345e-07 -0.000830093)
(0.0528573 1.60201e-07 -0.000832576)
(0.0544269 1.61414e-07 -0.000834536)
(0.0559955 1.65546e-07 -0.000835946)
(0.0575622 1.72684e-07 -0.000836784)
(0.0591258 1.8195e-07 -0.00083703)
(0.0606853 1.91796e-07 -0.000836676)
(0.0622397 2.00601e-07 -0.000835716)
(0.0637879 2.07169e-07 -0.000834153)
(0.0653289 2.10859e-07 -0.000831998)
(0.0668616 2.11394e-07 -0.000829272)
(0.0683852 2.08586e-07 -0.000826006)
(0.0698988 2.02691e-07 -0.000822238)
(0.0714015 1.93974e-07 -0.000818006)
(0.0728927 1.8321e-07 -0.000813354)
(0.0743718 1.71644e-07 -0.000808326)
(0.0758381 1.60855e-07 -0.000802967)
(0.0772912 1.5249e-07 -0.000797329)
(0.0787307 1.47753e-07 -0.000791471)
(0.0801565 1.46979e-07 -0.000785464)
(0.0815684 1.49567e-07 -0.000779384)
(0.0829665 1.54458e-07 -0.000773312)
(0.084351 1.60557e-07 -0.00076733)
(0.085722 1.67027e-07 -0.000761515)
(0.0870802 1.73381e-07 -0.000755945)
(0.0884261 1.78898e-07 -0.000750694)
(0.0897603 1.82491e-07 -0.000745835)
(0.0910838 1.82876e-07 -0.000741435)
(0.0923974 1.79407e-07 -0.000737557)
(0.0937023 1.72739e-07 -0.000734267)
(0.0949995 1.646e-07 -0.000731628)
(0.0962903 1.56771e-07 -0.0007297)
(0.0975762 1.50246e-07 -0.000728537)
(0.0988585 1.4466e-07 -0.000728189)
(0.100139 1.3906e-07 -0.0007287)
(0.101419 1.3294e-07 -0.000730106)
(0.1027 1.26561e-07 -0.000732436)
(0.103984 1.20736e-07 -0.000735709)
(0.105272 1.15751e-07 -0.000739934)
(0.106567 1.11124e-07 -0.000745106)
(0.10787 1.0606e-07 -0.000751204)
(0.109182 1.00513e-07 -0.000758187)
(0.110505 9.52842e-08 -0.000765979)
(0.11184 9.1361e-08 -0.000774473)
(0.113188 8.89053e-08 -0.000783523)
(0.11455 8.70433e-08 -0.000792943)
(0.115927 8.46923e-08 -0.000802496)
(0.117317 8.15084e-08 -0.00081189)
(0.118721 7.78391e-08 -0.000820759)
(0.120137 7.39275e-08 -0.000828656)
(0.121562 6.91835e-08 -0.000835043)
(0.122994 6.24778e-08 -0.000839282)
(0.124427 5.32409e-08 -0.000840629)
(0.125857 4.18948e-08 -0.000838231)
(0.127274 2.93261e-08 -0.000831116)
(0.128671 1.63709e-08 -0.000818191)
(0.130035 3.83473e-09 -0.00079823)
(0.131354 -6.9783e-09 -0.000769875)
(0.132612 -1.44033e-08 -0.000731636)
(0.133789 -1.75913e-08 -0.000681918)
(0.134866 -1.70244e-08 -0.000619035)
(0.135818 -1.36635e-08 -0.000541256)
(0.136618 -8.37469e-09 -0.000446849)
(0.137235 -1.90603e-09 -0.000334161)
(0.137639 4.08094e-09 -0.000201599)
(0.137789 8.15385e-09 -4.83383e-05)
(0.137657 8.35436e-09 0.000128374)
(0.137191 5.16985e-09 0.000332574)
(0.136347 6.09414e-10 0.00056626)
(0.135072 -5.45564e-09 0.000830536)
(0.133317 -1.20784e-08 0.00112609)
(0.131028 -1.70196e-08 0.00145312)
(0.128152 -1.79242e-08 0.0018113)
(0.124638 -1.41157e-08 0.00219952)
(0.120435 -6.4015e-09 0.00261579)
(0.1155 5.01201e-09 0.00305698)
(0.109791 2.00302e-08 0.00351858)
(0.103278 3.69345e-08 0.00399449)
(0.0959399 5.28291e-08 0.00447663)
(0.0877721 6.64034e-08 0.00495457)
(0.0787874 7.74503e-08 0.00541503)
(0.0690221 8.40572e-08 0.00584126)
(0.0585427 8.41418e-08 0.0062121)
(0.0474525 7.97744e-08 0.00650068)
(0.0359036 7.49315e-08 0.00667243)
(0.0241041 7.01058e-08 0.00668229)
(0.0123696 6.44551e-08 0.00646912)
(0.00105732 5.21147e-08 0.00591454)
(-0.00925247 2.49341e-08 0.00486575)
(-0.0176826 -1.46648e-08 0.00326548)
(-0.0234097 -6.2237e-08 0.00108945)
(-0.025272 -9.37568e-08 -0.00161217)
(-0.022187 -9.95533e-08 -0.00434444)
(-0.0142203 -9.41005e-08 -0.00559689)
(-0.00382574 -1.33035e-09 -0.00402255)
(-0.00140164 -9.00731e-08 0.00151575)
(-0.00677797 -9.11623e-08 0.002762)
(-0.0125695 -1.67937e-07 0.00299727)
(-0.0164968 -1.50465e-07 0.00215289)
(-0.0179866 -1.08323e-07 0.000911542)
(-0.0171271 -6.43322e-08 -0.000324765)
(-0.0143268 -2.44622e-08 -0.00137946)
(-0.0100086 -5.83291e-09 -0.00222179)
(-0.00460886 -3.64812e-09 -0.00286099)
(0.001593 -1.07926e-08 -0.00329158)
(0.00820796 -2.62186e-08 -0.00352767)
(0.0150273 -4.52948e-08 -0.00362126)
(0.0218512 -6.47869e-08 -0.00360458)
(0.0285188 -8.48117e-08 -0.00349842)
(0.0349017 -1.05115e-07 -0.00332033)
(0.0408966 -1.25283e-07 -0.00308536)
(0.046422 -1.45074e-07 -0.00280653)
(0.0514154 -1.64827e-07 -0.00249522)
(0.0558309 -1.84382e-07 -0.00216144)
(0.0596378 -2.02422e-07 -0.00181406)
(0.0628186 -2.17209e-07 -0.00146093)
(0.0653678 -2.27478e-07 -0.00110906)
(0.0672908 -2.3298e-07 -0.00076477)
(0.068603 -2.33477e-07 -0.000433899)
(0.0693289 -2.28939e-07 -0.000122111)
(0.0694979 -2.19423e-07 0.000166682)
(0.0691582 -2.05418e-07 0.000434132)
(0.0683324 -1.88304e-07 0.000681195)
(0.0670636 -1.69373e-07 0.000905023)
(0.0653938 -1.49722e-07 0.00110399)
(0.0633671 -1.2925e-07 0.0012772)
(0.0610293 -1.07383e-07 0.00142437)
(0.0584263 -8.40457e-08 0.00154569)
(0.0556038 -6.00138e-08 0.00164179)
(0.0526064 -3.63596e-08 0.00171363)
(0.0494772 -1.41565e-08 0.00176244)
(0.0462573 5.5827e-09 0.00178966)
(0.0429853 2.20673e-08 0.0017969)
(0.039697 3.46346e-08 0.00178588)
(0.0364256 4.27704e-08 0.0017584)
(0.0332008 4.62433e-08 0.00171631)
(0.0300496 4.5565e-08 0.00166146)
(0.0269954 4.19898e-08 0.00159566)
(0.0240586 3.65903e-08 0.00152068)
(0.0212564 3.05134e-08 0.00143823)
(0.0186032 2.56435e-08 0.0013499)
(0.0161102 2.3433e-08 0.00125719)
(0.0137863 2.44773e-08 0.00116146)
(0.0116377 2.93855e-08 0.00106396)
(0.00966831 3.80036e-08 0.00096581)
(0.00788015 4.8738e-08 0.000867981)
(0.00627334 5.91499e-08 0.000771321)
(0.00484642 6.60019e-08 0.000676552)
(0.00359658 6.66575e-08 0.000584275)
(0.00251983 5.98315e-08 0.000494978)
(0.00161127 4.42449e-08 0.000409039)
(0.000865206 1.95789e-08 0.000326729)
(0.000275401 -1.20786e-08 0.000248219)
(-0.000164778 -4.77332e-08 0.000173558)
(-0.000462083 -8.4593e-08 0.000102712)
(-0.000623265 -1.19047e-07 3.5564e-05)
(-0.000656302 -1.48189e-07 -2.75801e-05)
(-0.000565877 -1.69826e-07 -8.63647e-05)
(-0.000363121 -1.82458e-07 -0.000141005)
(-5.37461e-05 -1.86234e-07 -0.00019175)
(0.000354619 -1.82262e-07 -0.000238787)
(0.000855162 -1.71299e-07 -0.000282357)
(0.00144138 -1.54698e-07 -0.000322679)
(0.00210711 -1.34068e-07 -0.000359967)
(0.00284652 -1.10368e-07 -0.000394432)
(0.00365415 -8.48283e-08 -0.000426282)
(0.00452485 -5.91331e-08 -0.000455718)
(0.00545385 -3.36469e-08 -0.000482929)
(0.00643666 -7.82898e-09 -0.000508088)
(0.00746913 1.86043e-08 -0.000531357)
(0.00854738 4.60179e-08 -0.00055289)
(0.00966782 7.45267e-08 -0.000572829)
(0.0108271 1.04293e-07 -0.000591308)
(0.0120222 1.35701e-07 -0.000608455)
(0.0132502 1.67981e-07 -0.000624391)
(0.0145085 1.98726e-07 -0.000639232)
(0.0157947 2.25631e-07 -0.000653076)
(0.0171067 2.47837e-07 -0.000666012)
(0.0184424 2.64682e-07 -0.000678126)
(0.0197999 2.75098e-07 -0.0006895)
(0.0211776 2.78672e-07 -0.000700205)
(0.022574 2.76028e-07 -0.00071031)
(0.0239875 2.68394e-07 -0.000719878)
(0.0254171 2.5707e-07 -0.000728967)
(0.0268615 2.43386e-07 -0.000737623)
(0.0283196 2.28764e-07 -0.000745887)
(0.0297906 2.14777e-07 -0.00075379)
(0.0312734 2.03055e-07 -0.000761357)
(0.0327674 1.94726e-07 -0.000768603)
(0.0342716 1.89926e-07 -0.000775543)
(0.0357853 1.8787e-07 -0.000782187)
(0.0373079 1.87632e-07 -0.000788537)
(0.0388386 1.88239e-07 -0.000794586)
(0.0403767 1.88406e-07 -0.000800323)
(0.0419215 1.86911e-07 -0.000805734)
(0.0434722 1.83388e-07 -0.000810802)
(0.0450282 1.78533e-07 -0.000815502)
(0.0465885 1.73253e-07 -0.000819812)
(0.0481525 1.68359e-07 -0.000823709)
(0.0497193 1.64241e-07 -0.000827166)
(0.0512879 1.61346e-07 -0.000830156)
(0.0528575 1.60202e-07 -0.000832649)
(0.0544271 1.61415e-07 -0.000834616)
(0.0559958 1.65547e-07 -0.000836028)
(0.0575624 1.72686e-07 -0.000836865)
(0.0591261 1.81951e-07 -0.000837108)
(0.0606856 1.91797e-07 -0.00083675)
(0.0622399 2.00602e-07 -0.000835787)
(0.0637881 2.0717e-07 -0.000834224)
(0.0653291 2.1086e-07 -0.000832075)
(0.0668618 2.11396e-07 -0.00082936)
(0.0683854 2.08587e-07 -0.000826108)
(0.069899 2.02693e-07 -0.000822355)
(0.0714017 1.93975e-07 -0.000818141)
(0.072893 1.83211e-07 -0.000813505)
(0.074372 1.71645e-07 -0.000808489)
(0.0758383 1.60856e-07 -0.000803136)
(0.0772914 1.52491e-07 -0.000797499)
(0.078731 1.47753e-07 -0.000791636)
(0.0801568 1.46979e-07 -0.000785622)
(0.0815687 1.49568e-07 -0.000779535)
(0.0829668 1.54459e-07 -0.000773457)
(0.0843512 1.60558e-07 -0.000767468)
(0.0857223 1.67028e-07 -0.000761646)
(0.0870804 1.73382e-07 -0.000756068)
(0.0884263 1.78899e-07 -0.000750809)
(0.0897605 1.82491e-07 -0.000745942)
(0.091084 1.82877e-07 -0.000741536)
(0.0923976 1.79408e-07 -0.000737658)
(0.0937024 1.72739e-07 -0.000734371)
(0.0949997 1.646e-07 -0.000731736)
(0.0962905 1.56772e-07 -0.000729812)
(0.0975764 1.50247e-07 -0.000728652)
(0.0988588 1.4466e-07 -0.000728305)
(0.100139 1.3906e-07 -0.000728813)
(0.101419 1.32941e-07 -0.000730213)
(0.1027 1.26562e-07 -0.000732532)
(0.103984 1.20736e-07 -0.000735792)
(0.105272 1.15752e-07 -0.000740005)
(0.106567 1.11125e-07 -0.00074517)
(0.10787 1.0606e-07 -0.000751269)
(0.109182 1.00513e-07 -0.000758254)
(0.110505 9.52845e-08 -0.00076605)
(0.11184 9.13613e-08 -0.000774546)
(0.113188 8.89056e-08 -0.000783595)
(0.11455 8.70436e-08 -0.00079301)
(0.115927 8.46925e-08 -0.000802555)
(0.117317 8.15086e-08 -0.000811937)
(0.118721 7.78394e-08 -0.000820789)
(0.120137 7.39277e-08 -0.000828666)
(0.121562 6.91837e-08 -0.000835032)
(0.122994 6.2478e-08 -0.000839253)
(0.124428 5.32411e-08 -0.00084059)
(0.125857 4.18949e-08 -0.000838191)
(0.127274 2.93262e-08 -0.000831085)
(0.128671 1.6371e-08 -0.000818175)
(0.130035 3.83474e-09 -0.00079823)
(0.131354 -6.97832e-09 -0.000769884)
(0.132612 -1.44034e-08 -0.000731646)
(0.13379 -1.75913e-08 -0.000681917)
(0.134866 -1.70245e-08 -0.000619015)
(0.135818 -1.36635e-08 -0.000541206)
(0.136618 -8.37471e-09 -0.000446762)
(0.137236 -1.90604e-09 -0.000334032)
(0.137639 4.08095e-09 -0.000201433)
(0.137789 8.15387e-09 -4.81496e-05)
(0.137657 8.35438e-09 0.000128577)
(0.137192 5.16987e-09 0.000332793)
(0.136347 6.09415e-10 0.000566487)
(0.135073 -5.45565e-09 0.000830761)
(0.133317 -1.20784e-08 0.0011263)
(0.131028 -1.70196e-08 0.00145331)
(0.128152 -1.79242e-08 0.00181147)
(0.124638 -1.41157e-08 0.0021997)
(0.120436 -6.4015e-09 0.00261598)
(0.1155 5.01201e-09 0.00305719)
(0.109791 2.00302e-08 0.00351884)
(0.103278 3.69345e-08 0.00399481)
(0.0959404 5.28291e-08 0.00447702)
(0.0877726 6.64034e-08 0.00495501)
(0.0787877 7.74503e-08 0.00541552)
(0.0690223 8.40572e-08 0.00584179)
(0.0585428 8.41418e-08 0.00621264)
(0.0474525 7.97745e-08 0.0065012)
(0.0359035 7.49316e-08 0.00667292)
(0.0241039 7.01059e-08 0.00668274)
(0.0123695 6.44552e-08 0.00646956)
(0.00105728 5.21148e-08 0.00591497)
(-0.00925245 2.49341e-08 0.00486616)
(-0.0176825 -1.46649e-08 0.00326592)
(-0.0234095 -6.22372e-08 0.00108996)
(-0.0252718 -9.37573e-08 -0.00161157)
(-0.0221867 -9.95539e-08 -0.00434371)
(-0.0142199 -9.4101e-08 -0.00559607)
(-0.00382546 -1.33036e-09 -0.00402188)
(-0.00244466 -1.01308e-07 0.00705068)
(-0.0087426 -1.03395e-07 0.00953164)
(-0.0121526 -1.36031e-07 0.00721598)
(-0.0127453 -9.63758e-08 0.00334813)
(-0.0109035 -5.52565e-08 -0.000588557)
(-0.00712888 -2.58808e-08 -0.00400189)
(-0.0018648 -1.027e-09 -0.00671226)
(0.00453512 1.83196e-08 -0.00873991)
(0.0116984 3.21975e-08 -0.0101606)
(0.0193757 4.05789e-08 -0.0110618)
(0.0273287 4.27844e-08 -0.0115259)
(0.0353682 4.04445e-08 -0.0116432)
(0.0433262 3.54475e-08 -0.0114793)
(0.0510639 2.92162e-08 -0.0110868)
(0.0584661 2.26976e-08 -0.0105096)
(0.0654377 1.58171e-08 -0.00978481)
(0.0719016 8.0488e-09 -0.00894454)
(0.0777968 -8.15046e-10 -0.00801708)
(0.0830767 -1.02077e-08 -0.00702751)
(0.0877077 -1.9214e-08 -0.00599828)
(0.0916684 -2.71032e-08 -0.00494958)
(0.0949483 -3.35289e-08 -0.00389958)
(0.097547 -3.83524e-08 -0.00286472)
(0.0994731 -4.13683e-08 -0.00185999)
(0.100743 -4.24769e-08 -0.000899035)
(0.101379 -4.15639e-08 6.78962e-06)
(0.101411 -3.89492e-08 0.000854445)
(0.100877 -3.54157e-08 0.00164189)
(0.0998178 -3.14532e-08 0.00236242)
(0.0982763 -2.7145e-08 0.00301168)
(0.0962984 -2.23306e-08 0.00358675)
(0.0939316 -1.68077e-08 0.00408611)
(0.0912245 -1.0633e-08 0.00450949)
(0.0882264 -4.02542e-09 0.00485773)
(0.084986 2.74448e-09 0.00513265)
(0.0815515 9.46102e-09 0.00533691)
(0.0779694 1.58769e-08 0.00547389)
(0.0742847 2.16995e-08 0.00554758)
(0.0705399 2.66147e-08 0.0055624)
(0.0667749 3.03833e-08 0.00552316)
(0.0630268 3.28142e-08 0.00543491)
(0.0593293 3.39286e-08 0.00530284)
(0.0557132 3.39899e-08 0.00513218)
(0.0522056 3.32748e-08 0.00492812)
(0.0488304 3.20501e-08 0.00469577)
(0.0456081 3.08724e-08 0.00444003)
(0.042556 3.03271e-08 0.00416557)
(0.039688 3.06837e-08 0.00387678)
(0.0370151 3.21102e-08 0.00357777)
(0.0345458 3.4527e-08 0.00327225)
(0.0322854 3.74663e-08 0.00296362)
(0.0302374 4.03412e-08 0.00265489)
(0.0284028 4.22765e-08 0.00234871)
(0.0267808 4.23228e-08 0.00204736)
(0.025369 4.01297e-08 0.00175275)
(0.0241635 3.54204e-08 0.00146647)
(0.0231592 2.79112e-08 0.00118978)
(0.0223501 1.81109e-08 0.000923621)
(0.0217295 6.70562e-09 0.000668658)
(0.0212897 -5.59804e-09 0.000425254)
(0.021023 -1.75657e-08 0.000193567)
(0.0209204 -2.83481e-08 -2.61204e-05)
(0.020975 -3.7381e-08 -0.000232787)
(0.021177 -4.40229e-08 -0.000426204)
(0.0215181 -4.81599e-08 -0.000607074)
(0.0219899 -4.99258e-08 -0.000775834)
(0.0225838 -4.94363e-08 -0.00093301)
(0.0232918 -4.74416e-08 -0.00107913)
(0.0241062 -4.46233e-08 -0.00121473)
(0.0250194 -4.09494e-08 -0.00134038)
(0.0260244 -3.65066e-08 -0.00145665)
(0.0271143 -3.20133e-08 -0.0015641)
(0.0282827 -2.77439e-08 -0.00166327)
(0.0295237 -2.33199e-08 -0.00175471)
(0.0308314 -1.85422e-08 -0.00183894)
(0.0322005 -1.34912e-08 -0.00191645)
(0.0336261 -8.12666e-09 -0.00198772)
(0.0351034 -2.14048e-09 -0.00205319)
(0.036628 4.47739e-09 -0.0021133)
(0.0381958 1.12045e-08 -0.00216845)
(0.0398032 1.73492e-08 -0.00221902)
(0.0414464 2.25498e-08 -0.00226539)
(0.0431224 2.67125e-08 -0.00230787)
(0.044828 2.96262e-08 -0.00234679)
(0.0465606 3.08102e-08 -0.00238245)
(0.0483174 2.99278e-08 -0.00241512)
(0.0500963 2.71228e-08 -0.00244507)
(0.051895 2.30718e-08 -0.00247253)
(0.0537115 1.82888e-08 -0.00249773)
(0.0555439 1.27924e-08 -0.00252086)
(0.0573907 6.59913e-09 -0.0025421)
(0.0592502 3.45546e-10 -0.00256159)
(0.0611209 -5.0103e-09 -0.00257948)
(0.0630016 -9.00609e-09 -0.00259585)
(0.0648909 -1.18344e-08 -0.0026108)
(0.0667877 -1.3815e-08 -0.00262438)
(0.0686908 -1.52278e-08 -0.00263664)
(0.0705991 -1.64193e-08 -0.00264759)
(0.0725115 -1.77734e-08 -0.00265725)
(0.074427 -1.94373e-08 -0.00266561)
(0.0763445 -2.13928e-08 -0.00267265)
(0.0782629 -2.365e-08 -0.00267833)
(0.0801813 -2.62524e-08 -0.00268262)
(0.0820984 -2.89872e-08 -0.00268547)
(0.0840133 -3.15447e-08 -0.00268683)
(0.0859247 -3.3789e-08 -0.00268664)
(0.0878316 -3.56263e-08 -0.00268484)
(0.0897326 -3.67299e-08 -0.00268138)
(0.0916268 -3.66377e-08 -0.00267623)
(0.0935128 -3.5249e-08 -0.00266935)
(0.0953895 -3.30665e-08 -0.00266071)
(0.0972557 -3.07483e-08 -0.00265032)
(0.0991101 -2.86882e-08 -0.00263818)
(0.100952 -2.71892e-08 -0.00262433)
(0.102779 -2.65696e-08 -0.00260881)
(0.104592 -2.7032e-08 -0.00259172)
(0.106388 -2.84692e-08 -0.00257313)
(0.108168 -3.06449e-08 -0.00255316)
(0.10993 -3.35107e-08 -0.00253194)
(0.111673 -3.70632e-08 -0.0025096)
(0.113396 -4.10058e-08 -0.00248629)
(0.1151 -4.46856e-08 -0.00246218)
(0.116784 -4.74912e-08 -0.00243746)
(0.118447 -4.91883e-08 -0.00241231)
(0.12009 -4.98488e-08 -0.00238694)
(0.121712 -4.95263e-08 -0.00236156)
(0.123313 -4.82375e-08 -0.0023364)
(0.124894 -4.61298e-08 -0.00231169)
(0.126456 -4.35649e-08 -0.00228764)
(0.127998 -4.0908e-08 -0.00226449)
(0.129521 -3.84254e-08 -0.00224245)
(0.131027 -3.64267e-08 -0.00222171)
(0.132516 -3.53423e-08 -0.00220249)
(0.133989 -3.5507e-08 -0.00218495)
(0.135448 -3.67233e-08 -0.0021693)
(0.136894 -3.82526e-08 -0.00215571)
(0.138329 -3.93214e-08 -0.00214434)
(0.139753 -3.96851e-08 -0.00213536)
(0.141169 -3.97324e-08 -0.00212887)
(0.142579 -3.99573e-08 -0.00212501)
(0.143984 -4.04468e-08 -0.00212386)
(0.145385 -4.08643e-08 -0.00212548)
(0.146786 -4.08733e-08 -0.00212993)
(0.148188 -4.05659e-08 -0.00213718)
(0.149592 -4.02834e-08 -0.0021472)
(0.151001 -4.02604e-08 -0.00215988)
(0.152415 -4.02991e-08 -0.00217506)
(0.153838 -3.99795e-08 -0.00219247)
(0.15527 -3.9099e-08 -0.00221178)
(0.156711 -3.78788e-08 -0.00223252)
(0.158164 -3.67408e-08 -0.00225411)
(0.159627 -3.58457e-08 -0.00227581)
(0.161101 -3.49925e-08 -0.0022967)
(0.162584 -3.39184e-08 -0.00231569)
(0.164075 -3.27072e-08 -0.00233145)
(0.165571 -3.18291e-08 -0.00234242)
(0.167068 -3.17561e-08 -0.00234674)
(0.16856 -3.25483e-08 -0.0023423)
(0.170041 -3.39194e-08 -0.00232667)
(0.171503 -3.55432e-08 -0.00229709)
(0.172935 -3.72891e-08 -0.00225048)
(0.174324 -3.89547e-08 -0.00218341)
(0.175656 -4.00683e-08 -0.00209212)
(0.176913 -4.00525e-08 -0.00197251)
(0.178076 -3.87634e-08 -0.00182017)
(0.179121 -3.65575e-08 -0.00163046)
(0.180023 -3.37763e-08 -0.00139855)
(0.180752 -3.04429e-08 -0.00111951)
(0.181275 -2.66242e-08 -0.000788447)
(0.181558 -2.28722e-08 -0.000400552)
(0.18156 -1.99134e-08 4.75831e-05)
(0.181237 -1.78918e-08 0.000562947)
(0.180544 -1.66651e-08 0.00115387)
(0.179433 -1.63741e-08 0.00182468)
(0.177853 -1.71432e-08 0.0025787)
(0.175752 -1.8576e-08 0.00341817)
(0.173074 -1.97314e-08 0.00434411)
(0.169766 -1.99745e-08 0.00535598)
(0.165774 -1.94543e-08 0.00645132)
(0.161047 -1.83883e-08 0.00762527)
(0.155537 -1.65481e-08 0.00887009)
(0.149202 -1.39449e-08 0.0101746)
(0.142009 -1.11531e-08 0.0115234)
(0.133933 -8.43063e-09 0.0128962)
(0.124967 -5.78374e-09 0.0142668)
(0.115117 -4.18949e-09 0.0156017)
(0.104415 -5.0298e-09 0.0168588)
(0.0929173 -7.85869e-09 0.0179846)
(0.0807165 -1.10106e-08 0.0189118)
(0.0679471 -1.39613e-08 0.0195541)
(0.054795 -1.67161e-08 0.0197992)
(0.0415159 -1.82278e-08 0.0195003)
(0.0284392 -1.79453e-08 0.0184458)
(0.0159749 -1.48306e-08 0.0163556)
(0.00466309 -1.07634e-08 0.0129468)
(-0.00489539 -1.01788e-08 0.00790127)
(-0.0117797 -6.10883e-09 0.00111801)
(-0.0150396 2.77073e-09 -0.00697248)
(-0.0136511 2.52022e-08 -0.0144482)
(-0.00524477 1.71649e-07 -0.0149955)
(-0.00244337 -1.01309e-07 0.00705197)
(-0.00874139 -1.034e-07 0.00953276)
(-0.0121521 -1.3604e-07 0.00721663)
(-0.012745 -9.63827e-08 0.0033486)
(-0.0109032 -5.52603e-08 -0.000588142)
(-0.00712865 -2.58824e-08 -0.00400151)
(-0.00186452 -1.02706e-09 -0.00671192)
(0.00453546 1.83206e-08 -0.00873959)
(0.0116988 3.21991e-08 -0.0101603)
(0.0193763 4.05808e-08 -0.0110615)
(0.0273293 4.27862e-08 -0.0115256)
(0.0353688 4.04462e-08 -0.0116429)
(0.0433269 3.54489e-08 -0.011479)
(0.0510647 2.92173e-08 -0.0110866)
(0.058467 2.26983e-08 -0.0105094)
(0.0654386 1.58176e-08 -0.00978465)
(0.0719026 8.04903e-09 -0.00894443)
(0.0777979 -8.15067e-10 -0.00801702)
(0.0830778 -1.0208e-08 -0.00702749)
(0.0877088 -1.92144e-08 -0.0059983)
(0.0916695 -2.71038e-08 -0.00494961)
(0.0949494 -3.35295e-08 -0.00389962)
(0.0975482 -3.83532e-08 -0.00286475)
(0.0994742 -4.1369e-08 -0.00186)
(0.100744 -4.24776e-08 -0.00089901)
(0.10138 -4.15646e-08 6.84053e-06)
(0.101412 -3.89498e-08 0.000854512)
(0.100878 -3.54162e-08 0.00164197)
(0.0998187 -3.14537e-08 0.00236251)
(0.0982772 -2.71454e-08 0.00301177)
(0.0962992 -2.23309e-08 0.00358684)
(0.0939324 -1.68079e-08 0.00408619)
(0.0912254 -1.06332e-08 0.00450957)
(0.0882272 -4.02547e-09 0.00485781)
(0.0849869 2.74451e-09 0.00513275)
(0.0815523 9.46115e-09 0.00533704)
(0.0779702 1.58771e-08 0.00547407)
(0.0742855 2.16998e-08 0.00554779)
(0.0705407 2.66151e-08 0.00556265)
(0.0667757 3.03838e-08 0.00552344)
(0.0630276 3.28148e-08 0.0054352)
(0.0593302 3.39291e-08 0.00530311)
(0.0557141 3.39904e-08 0.00513242)
(0.0522065 3.32754e-08 0.00492833)
(0.0488314 3.20507e-08 0.00469595)
(0.0456092 3.0873e-08 0.00444018)
(0.042557 3.03277e-08 0.00416571)
(0.039689 3.06843e-08 0.00387694)
(0.0370162 3.21108e-08 0.00357795)
(0.0345468 3.45277e-08 0.00327248)
(0.0322865 3.74671e-08 0.00296389)
(0.0302385 4.03421e-08 0.0026552)
(0.0284039 4.22774e-08 0.00234903)
(0.0267819 4.23237e-08 0.00204767)
(0.0253701 4.01305e-08 0.00175304)
(0.0241646 3.54212e-08 0.00146672)
(0.0231604 2.79119e-08 0.00118997)
(0.0223514 1.81113e-08 0.000923763)
(0.0217307 6.70577e-09 0.000668745)
(0.0212909 -5.59817e-09 0.000425289)
(0.0210242 -1.75662e-08 0.000193552)
(0.0209216 -2.83488e-08 -2.61772e-05)
(0.0209762 -3.73819e-08 -0.00023287)
(0.0211781 -4.4024e-08 -0.000426302)
(0.0215192 -4.81611e-08 -0.00060718)
(0.0219909 -4.99271e-08 -0.000775939)
(0.0225847 -4.94376e-08 -0.000933102)
(0.0232927 -4.74429e-08 -0.0010792)
(0.0241071 -4.46245e-08 -0.00121478)
(0.0250203 -4.09505e-08 -0.0013404)
(0.0260252 -3.65076e-08 -0.00145664)
(0.027115 -3.20142e-08 -0.00156406)
(0.0282835 -2.77447e-08 -0.00166322)
(0.0295244 -2.33206e-08 -0.00175465)
(0.0308321 -1.85428e-08 -0.00183886)
(0.0322012 -1.34916e-08 -0.00191636)
(0.0336267 -8.1269e-09 -0.00198762)
(0.035104 -2.14054e-09 -0.00205308)
(0.0366285 4.47752e-09 -0.00211316)
(0.0381964 1.12048e-08 -0.00216828)
(0.0398037 1.73497e-08 -0.00221884)
(0.041447 2.25504e-08 -0.00226519)
(0.043123 2.67133e-08 -0.00230765)
(0.0448286 2.96271e-08 -0.00234657)
(0.0465612 3.08111e-08 -0.00238223)
(0.0483181 2.99286e-08 -0.00241491)
(0.050097 2.71235e-08 -0.00244487)
(0.0518957 2.30724e-08 -0.00247235)
(0.0537122 1.82893e-08 -0.00249757)
(0.0555447 1.27927e-08 -0.00252072)
(0.0573915 6.59931e-09 -0.00254198)
(0.0592509 3.45556e-10 -0.0025615)
(0.0611217 -5.01044e-09 -0.0025794)
(0.0630023 -9.00633e-09 -0.00259578)
(0.0648917 -1.18347e-08 -0.00261073)
(0.0667884 -1.38154e-08 -0.00262432)
(0.0686915 -1.52281e-08 -0.00263659)
(0.0705998 -1.64198e-08 -0.00264755)
(0.0725122 -1.77738e-08 -0.00265722)
(0.0744277 -1.94378e-08 -0.00266558)
(0.0763452 -2.13934e-08 -0.00267263)
(0.0782637 -2.36506e-08 -0.00267833)
(0.080182 -2.6253e-08 -0.00268263)
(0.0820992 -2.89879e-08 -0.00268549)
(0.084014 -3.15454e-08 -0.00268686)
(0.0859254 -3.37897e-08 -0.00268667)
(0.0878322 -3.5627e-08 -0.00268487)
(0.0897333 -3.67307e-08 -0.00268142)
(0.0916274 -3.66384e-08 -0.00267627)
(0.0935134 -3.52497e-08 -0.00266938)
(0.0953901 -3.30671e-08 -0.00266074)
(0.0972562 -3.07489e-08 -0.00265034)
(0.0991107 -2.86888e-08 -0.0026382)
(0.100952 -2.71897e-08 -0.00262434)
(0.10278 -2.65701e-08 -0.00260883)
(0.104592 -2.70325e-08 -0.00259175)
(0.106389 -2.84697e-08 -0.00257317)
(0.108168 -3.06455e-08 -0.00255322)
(0.10993 -3.35113e-08 -0.00253201)
(0.111673 -3.70638e-08 -0.00250967)
(0.113397 -4.10065e-08 -0.00248637)
(0.115101 -4.46863e-08 -0.00246227)
(0.116785 -4.74919e-08 -0.00243754)
(0.118448 -4.9189e-08 -0.00241239)
(0.12009 -4.98495e-08 -0.00238701)
(0.121712 -4.9527e-08 -0.00236163)
(0.123314 -4.82381e-08 -0.00233646)
(0.124895 -4.61304e-08 -0.00231174)
(0.126456 -4.35655e-08 -0.00228769)
(0.127998 -4.09086e-08 -0.00226453)
(0.129522 -3.84258e-08 -0.00224249)
(0.131027 -3.64271e-08 -0.00222175)
(0.132516 -3.53427e-08 -0.00220252)
(0.13399 -3.55074e-08 -0.00218499)
(0.135449 -3.67237e-08 -0.00216934)
(0.136895 -3.8253e-08 -0.00215575)
(0.138329 -3.93218e-08 -0.00214439)
(0.139754 -3.96855e-08 -0.00213541)
(0.14117 -3.97328e-08 -0.00212893)
(0.142579 -3.99577e-08 -0.00212506)
(0.143984 -4.04472e-08 -0.0021239)
(0.145386 -4.08647e-08 -0.00212552)
(0.146787 -4.08737e-08 -0.00212995)
(0.148188 -4.05663e-08 -0.0021372)
(0.149592 -4.02838e-08 -0.00214722)
(0.151001 -4.02608e-08 -0.00215991)
(0.152416 -4.02995e-08 -0.00217509)
(0.153838 -3.99799e-08 -0.00219252)
(0.15527 -3.90994e-08 -0.00221183)
(0.156712 -3.78792e-08 -0.00223257)
(0.158164 -3.67411e-08 -0.00225416)
(0.159627 -3.5846e-08 -0.00227585)
(0.161101 -3.49928e-08 -0.00229673)
(0.162585 -3.39187e-08 -0.00231571)
(0.164076 -3.27075e-08 -0.00233145)
(0.165571 -3.18294e-08 -0.0023424)
(0.167068 -3.17563e-08 -0.00234672)
(0.168561 -3.25485e-08 -0.00234228)
(0.170042 -3.39197e-08 -0.00232666)
(0.171503 -3.55435e-08 -0.0022971)
(0.172935 -3.72894e-08 -0.00225051)
(0.174324 -3.89551e-08 -0.00218347)
(0.175656 -4.00686e-08 -0.0020922)
(0.176913 -4.00528e-08 -0.00197259)
(0.178076 -3.87637e-08 -0.00182025)
(0.179121 -3.65578e-08 -0.00163053)
(0.180023 -3.37765e-08 -0.00139859)
(0.180752 -3.04431e-08 -0.00111952)
(0.181276 -2.66243e-08 -0.000788413)
(0.181559 -2.28724e-08 -0.000400483)
(0.181561 -1.99135e-08 4.76675e-05)
(0.181238 -1.78919e-08 0.000563035)
(0.180545 -1.66652e-08 0.00115396)
(0.179434 -1.63742e-08 0.00182477)
(0.177854 -1.71433e-08 0.00257878)
(0.175752 -1.85761e-08 0.00341822)
(0.173075 -1.97315e-08 0.00434413)
(0.169767 -1.99746e-08 0.00535598)
(0.165775 -1.94544e-08 0.00645134)
(0.161048 -1.83884e-08 0.00762531)
(0.155538 -1.65482e-08 0.00887016)
(0.149203 -1.39449e-08 0.0101747)
(0.142009 -1.11531e-08 0.0115236)
(0.133934 -8.43064e-09 0.0128965)
(0.124967 -5.78375e-09 0.0142671)
(0.115118 -4.1895e-09 0.0156021)
(0.104415 -5.02981e-09 0.0168592)
(0.0929176 -7.8587e-09 0.017985)
(0.0807168 -1.10106e-08 0.0189121)
(0.0679474 -1.39614e-08 0.0195545)
(0.0547953 -1.67162e-08 0.0197995)
(0.0415161 -1.82278e-08 0.0195006)
(0.0284394 -1.79453e-08 0.018446)
(0.015975 -1.48307e-08 0.0163558)
(0.00466316 -1.07634e-08 0.012947)
(-0.00489538 -1.01788e-08 0.00790152)
(-0.0117798 -6.10886e-09 0.00111835)
(-0.0150396 2.77074e-09 -0.006972)
(-0.0136509 2.52022e-08 -0.0144475)
(-0.00524446 1.71649e-07 -0.0149948)
(-0.00251856 -1.78802e-07 0.0126235)
(-0.00619016 -1.42319e-07 0.0129455)
(-0.00627062 -1.48022e-07 0.00733525)
(-0.00420977 -1.09233e-07 0.00108033)
(-0.000510047 -8.07802e-08 -0.00461933)
(0.00440493 -6.27317e-08 -0.00936072)
(0.0102671 -4.99058e-08 -0.0130759)
(0.0168605 -4.16582e-08 -0.0158378)
(0.023983 -3.3977e-08 -0.0177623)
(0.0314581 -2.69177e-08 -0.0189716)