/*--------------------------------*- C++ -*----------------------------------*\
  =========                 |
  \\      /  F ield         | OpenFOAM: The Open Source CFD Toolbox
   \\    /   O peration     | Website:  https://openfoam.org
    \\  /    A nd           | Version:  8
     \\/     M anipulation  |
\*---------------------------------------------------------------------------*/
FoamFile
{
    version     2.0;
    format      ascii;
    class       volScalarField;
    location    "3100";
    object      epsilon;
}
// * * * * * * * * * * * * * * * * * * * * * * * * * * * * * * * * * * * * * //

dimensions      [0 2 -3 0 0 0 0];

internalField   nonuniform List<scalar> 
48000
(
1.60749
4.57571
8.59467
12.8135
17.258
21.704
26.1217
30.5278
35.0368
39.5223
44.0242
48.5325
53.0407
57.5428
62.0325
66.503
70.9471
75.3573
79.7261
84.0455
88.3078
92.5055
96.6311
100.677
104.638
108.505
112.274
115.939
119.496
122.939
126.264
129.469
132.551
135.508
138.337
141.038
143.611
146.054
148.368
150.555
152.614
154.547
156.355
158.041
159.627
161.105
162.468
163.718
164.858
165.892
166.823
167.654
168.389
169.032
169.586
170.055
170.441
170.749
170.981
171.141
171.232
171.257
171.22
171.122
170.966
170.756
170.494
170.183
169.824
169.419
168.973
168.485
167.958
167.395
166.796
166.163
165.499
164.804
164.08
163.328
162.55
161.746
160.918
160.067
159.194
158.299
157.384
156.45
155.496
154.524
153.535
152.528
151.506
150.467
149.412
148.343
147.258
146.16
145.047
143.92
142.78
141.627
140.461
139.282
138.09
136.886
135.669
134.44
133.199
131.946
130.681
129.404
128.115
126.814
125.502
124.178
122.842
121.495
120.137
118.767
117.385
115.993
114.589
113.174
111.749
110.312
108.864
107.406
105.938
104.459
102.97
101.471
99.9628
98.4449
96.9177
95.3816
93.8369
92.284
90.7231
89.1546
87.579
85.9966
84.4079
82.8134
81.2135
79.6087
77.9996
76.3867
74.7707
73.152
71.5313
69.9092
68.2864
66.6635
65.0412
63.4201
61.8011
60.1847
58.5717
56.9627
55.3586
53.7599
52.1674
50.5819
49.0039
47.4342
45.8734
44.3221
42.781
41.2507
39.7318
38.2247
36.7299
35.248
33.7793
32.3242
30.8829
29.4558
28.043
26.645
25.2624
23.8967
22.5556
21.2323
19.9196
18.617
17.3232
16.0368
14.7561
13.4789
12.2024
10.9237
9.65056
8.37296
7.07994
5.76281
4.41022
3.00964
1.5714
0.223432
1.60763
4.5757
8.59485
12.8138
17.2583
21.7042
26.122
30.5281
35.0371
39.5226
44.0245
48.5328
53.041
57.5431
62.0328
66.5032
70.9474
75.3576
79.7263
84.0457
88.3081
92.5058
96.6313
100.678
104.638
108.505
112.274
115.94
119.496
122.939
126.264
129.47
132.551
135.508
138.337
141.038
143.611
146.054
148.368
150.555
152.614
154.547
156.355
158.041
159.627
161.105
162.468
163.718
164.858
165.892
166.823
167.654
168.389
169.032
169.586
170.055
170.441
170.749
170.981
171.141
171.232
171.257
171.22
171.122
170.966
170.756
170.494
170.183
169.823
169.419
168.973
168.485
167.958
167.395
166.796
166.163
165.499
164.804
164.08
163.328
162.55
161.746
160.918
160.067
159.194
158.299
157.384
156.45
155.496
154.524
153.535
152.528
151.505
150.467
149.412
148.342
147.258
146.16
145.047
143.92
142.78
141.627
140.461
139.282
138.09
136.886
135.669
134.44
133.199
131.946
130.681
129.403
128.115
126.814
125.502
124.178
122.842
121.495
120.137
118.767
117.385
115.993
114.589
113.174
111.749
110.312
108.864
107.406
105.938
104.459
102.97
101.471
99.9628
98.4448
96.9177
95.3816
93.8369
92.284
90.7231
89.1546
87.579
85.9966
84.4079
82.8134
81.2135
79.6087
77.9996
76.3867
74.7706
73.152
71.5312
69.9092
68.2864
66.6635
65.0412
63.4201
61.8011
60.1847
58.5717
56.9627
55.3585
53.7599
52.1674
50.5819
49.0039
47.4342
45.8734
44.3221
42.7811
41.2508
39.7318
38.2247
36.73
35.248
33.7793
32.3242
30.8829
29.4558
28.0431
26.645
25.2624
23.8967
22.5556
21.2323
19.9196
18.617
17.3232
16.0368
14.7561
13.4789
12.2024
10.9237
9.65058
8.37298
7.07996
5.76283
4.41025
3.0097
1.57142
0.22344
5.41141
4.6152
5.90898
7.49909
9.23374
11.0374
12.8695
14.7224
16.6052
18.5071
20.4279
22.3657
24.3176
26.281
28.2526
30.229
32.2064
34.1807
36.1477
38.1031
40.0424
41.9612
43.855
45.7196
47.5508
49.3446
51.0973
52.8054
54.4656
56.0751
57.6312
59.1318
60.5749
61.9588
63.2823
64.5445
65.7446
66.8823
67.9575
68.9704
69.9213
70.8109
71.6403
72.4116
73.1303
73.795
74.4049
74.9603
75.4625
75.913
76.3134
76.6655
76.971
77.2319
77.4498
77.6266
77.764
77.8637
77.9276
77.9572
77.9541
77.92
77.8563
77.7646
77.6463
77.5026
77.3349
77.1445
76.9326
76.7002
76.4485
76.1785
75.8912
75.5875
75.2682
74.9343
74.5864
74.2254
73.8519
73.4665
73.0699
72.6627
72.2454
71.8184
71.3823
70.9375
70.4844
70.0234
69.5549
69.079
68.5963
68.1068
67.611
67.1089
66.6009
66.0871
65.5678
65.0429
64.5128
63.9776
63.4373
62.8921
62.342
61.7872
61.2277
60.6636
60.095
59.5218
58.9442
58.3622
57.7758
57.185
56.5899
55.9905
55.3868
54.7788
54.1666
53.5502
52.9296
52.3047
51.6758
51.0426
50.4054
49.7641
49.1188
48.4695
47.8162
47.1591
46.4981
45.8334
45.165
44.4929
43.8174
43.1385
42.4562
41.7708
41.0823
40.3909
39.6967
39
38.3007
37.5993
36.8957
36.1903
35.4831
34.7746
34.0648
33.354
32.6425
31.9305
31.2183
30.5061
29.7943
29.0831
28.3728
27.6636
26.956
26.2502
25.5464
24.8451
24.1465
23.4509
22.7586
22.0699
21.3852
20.7046
20.0285
19.3571
18.6907
18.0296
17.374
16.724
16.08
15.4421
14.8104
14.1851
13.5663
12.9542
12.3488
11.7503
11.1589
10.5749
9.99895
9.43003
8.8666
8.30919
7.75734
7.21044
6.66811
6.12991
5.59555
5.0653
4.54134
4.02172
3.50545
2.99346
2.49056
2.01327
1.62709
1.91675
5.41137
4.61514
5.90899
7.49902
9.23363
11.0372
12.8693
14.7223
16.605
18.5069
20.4278
22.3655
24.3174
26.2808
28.2524
30.2288
32.2062
34.1805
36.1475
38.1029
40.0422
41.9609
43.8548
45.7193
47.5505
49.3443
51.097
52.8051
54.4653
56.0748
57.6309
59.1315
60.5746
61.9585
63.282
64.5442
65.7443
66.882
67.9572
68.9701
69.921
70.8106
71.64
72.4113
73.13
73.7947
74.4046
74.96
75.4622
75.9127
76.3131
76.6652
76.9707
77.2316
77.4495
77.6262
77.7636
77.8634
77.9273
77.9568
77.9538
77.9197
77.856
77.7643
77.646
77.5023
77.3346
77.1442
76.9323
76.6999
76.4482
76.1782
75.8909
75.5872
75.2679
74.934
74.5861
74.2251
73.8516
73.4662
73.0697
72.6624
72.2451
71.8182
71.3821
70.9373
70.4842
70.0232
69.5546
69.0788
68.596
68.1066
67.6107
67.1087
66.6007
66.0869
65.5675
65.0427
64.5126
63.9774
63.4371
62.8918
62.3418
61.787
61.2275
60.6634
60.0948
59.5216
58.944
58.362
57.7756
57.1848
56.5897
55.9903
55.3866
54.7786
54.1664
53.55
52.9294
52.3045
51.6756
51.0424
50.4052
49.7639
49.1186
48.4693
47.816
47.1589
46.4979
45.8332
45.1648
44.4928
43.8172
43.1383
42.4561
41.7706
41.0821
40.3908
39.6966
38.9998
38.3006
37.5991
36.8955
36.1901
35.483
34.7744
34.0647
33.3539
32.6424
31.9304
31.2182
30.506
29.7942
29.083
28.3726
27.6635
26.9559
26.2501
25.5463
24.845
24.1464
23.4508
22.7585
22.0698
21.3851
20.7045
20.0284
19.357
18.6907
18.0295
17.3739
16.724
16.0799
15.442
14.8103
14.185
13.5663
12.9541
12.3488
11.7503
11.1588
10.5749
9.9989
9.42998
8.86655
8.30915
7.7573
7.21041
6.66808
6.12988
5.59552
5.06527
4.54132
4.02171
3.50544
2.99345
2.49055
2.01323
1.62711
1.91682
9.92869
6.18094
6.57147
7.53009
8.68858
9.94972
11.2717
12.6356
14.0329
15.4565
16.9023
18.3669
19.8474
21.3409
22.8447
24.3558
25.871
27.387
28.9004
30.4076
31.905
33.389
34.8558
36.3019
37.7237
39.1179
40.4812
41.8106
43.1033
44.3567
45.5684
46.7366
47.8593
48.9351
49.9629
50.9415
51.8705
52.7493
53.5778
54.3561
55.0844
55.7633
56.3937
56.9769
57.5149
58.0082
58.4571
58.8624
59.2251
59.5464
59.8276
60.07
60.2753
60.4448
60.58
60.6825
60.7536
60.7949
60.8077
60.7935
60.7536
60.6892
60.6018
60.4924
60.3623
60.2126
60.0444
59.8586
59.6564
59.4386
59.2061
58.9598
58.7004
58.4288
58.1456
57.8515
57.5472
57.2333
56.9102
56.5787
56.239
55.8918
55.5374
55.1763
54.8087
54.4352
54.0559
53.6713
53.2815
52.8868
52.4875
52.0838
51.6759
51.2639
50.8481
50.4285
50.0054
49.5788
49.1489
48.7158
48.2795
47.8401
47.3978
46.9525
46.5043
46.0533
45.5995
45.1429
44.6836
44.2216
43.757
43.2897
42.8197
42.3471
41.8719
41.3942
40.9138
40.4308
39.9453
39.4572
38.9666
38.4735
37.9778
37.4797
36.9792
36.4762
35.9708
35.463
34.953
34.4407
33.9262
33.4095
32.8908
32.3701
31.8474
31.3229
30.7967
30.2688
29.7394
29.2086
28.6765
28.1433
27.609
27.0739
26.5381
26.0017
25.4649
24.928
24.391
23.8542
23.3178
22.782
22.2469
21.7129
21.18
20.6486
20.1189
19.591
19.0652
18.5418
18.0209
17.5027
16.9876
16.4757
15.9672
15.4624
14.9615
14.4646
13.9719
13.4837
13
12.5212
12.0472
11.5783
11.1147
10.6563
10.2033
9.75583
9.31398
8.87784
8.44754
8.02319
7.60487
7.19237
6.78541
6.38395
5.98786
5.59717
5.21217
4.83289
4.45976
4.09356
3.7357
3.38768
3.05207
2.73484
2.44971
2.23346
2.22789
3.70672
9.92889
6.18095
6.5714
7.52996
8.68843
9.94955
11.2716
12.6355
14.0327
15.4563
16.9021
18.3667
19.8472
21.3407
22.8445
24.3556
25.8708
27.3868
28.9001
30.4074
31.9048
33.3888
34.8556
36.3017
37.7235
39.1177
40.481
41.8104
43.1031
44.3565
45.5682
46.7364
47.8591
48.9349
49.9627
50.9413
51.8703
52.7491
53.5776
54.3559
55.0842
55.7631
56.3935
56.9767
57.5147
58.008
58.4569
58.8623
59.225
59.5462
59.8274
60.0699
60.2751
60.4446
60.5799
60.6823
60.7535
60.7947
60.8076
60.7934
60.7534
60.6891
60.6016
60.4923
60.3622
60.2125
60.0442
59.8585
59.6563
59.4385
59.206
58.9597
58.7003
58.4287
58.1455
57.8514
57.5471
57.2332
56.9101
56.5786
56.2389
55.8917
55.5373
55.1762
54.8086
54.4351
54.0558
53.6712
53.2814
52.8867
52.4874
52.0837
51.6758
51.2638
50.848
50.4284
50.0053
49.5788
49.1488
48.7157
48.2794
47.84
47.3977
46.9524
46.5042
46.0532
45.5994
45.1428
44.6835
44.2216
43.7569
43.2896
42.8196
42.3471
41.8719
41.3941
40.9137
40.4307
39.9452
39.4571
38.9665
38.4734
37.9778
37.4797
36.9791
36.4761
35.9707
35.463
34.9529
34.4406
33.9261
33.4095
32.8908
32.37
31.8474
31.3229
30.7967
30.2688
29.7394
29.2086
28.6765
28.1432
27.609
27.0739
26.538
26.0016
25.4649
24.9279
24.391
23.8542
23.3178
22.782
22.2469
21.7129
21.18
20.6486
20.1188
19.591
19.0652
18.5417
18.0208
17.5027
16.9876
16.4757
15.9672
15.4624
14.9614
14.4645
13.9719
13.4836
13
12.5212
12.0472
11.5783
11.1146
10.6562
10.2033
9.75581
9.31396
8.87783
8.44752
8.02317
7.60485
7.19236
6.78539
6.38393
5.98784
5.59716
5.21215
4.83288
4.45975
4.09355
3.73569
3.38768
3.05207
2.73484
2.44971
2.23346
2.22793
3.70668
14.45
8.06793
7.79678
8.38115
9.25969
10.285
11.3976
12.5682
13.7806
15.0243
16.2925
17.5801
18.8832
20.1985
21.523
22.8536
24.1876
25.522
26.8537
28.1797
29.4968
30.8019
32.0917
33.3632
34.6132
35.8387
37.0369
38.2051
39.3407
40.4414
41.5051
42.5299
43.5142
44.4565
45.3558
46.211
47.0216
47.7872
48.5075
49.1825
49.8125
50.398
50.9396
51.4383
51.8952
52.3113
52.6871
53.0235
53.3216
53.5823
53.807
53.9969
54.1533
54.2776
54.3712
54.4353
54.4714
54.4807
54.4646
54.4244
54.3612
54.2763
54.1709
54.0461
53.9029
53.7425
53.5657
53.3736
53.167
52.9469
52.714
52.4691
52.2129
51.9462
51.6696
51.3837
51.0891
50.7863
50.4759
50.1583
49.8341
49.5035
49.1671
48.8251
48.4779
48.1259
47.7693
47.4084
47.0434
46.6746
46.3022
45.9264
45.5474
45.1652
44.7802
44.3923
44.0018
43.6088
43.2132
42.8153
42.4151
42.0127
41.6081
41.2014
40.7927
40.3819
39.9691
39.5544
39.1378
38.7192
38.2988
37.8765
37.4523
37.0263
36.5984
36.1687
35.7372
35.3038
34.8687
34.4318
33.993
33.5525
33.1102
32.6662
32.2205
31.7731
31.324
30.8733
30.421
29.9671
29.5117
29.0549
28.5967
28.1371
27.6762
27.2142
26.7511
26.2869
25.8218
25.3558
24.8892
24.4219
23.9542
23.486
23.0177
22.5493
22.0809
21.6128
21.145
20.6777
20.2112
19.7455
19.2809
18.8176
18.3556
17.8952
17.4367
16.9801
16.5257
16.0737
15.6242
15.1775
14.7338
14.2931
13.8558
13.422
12.9918
12.5655
12.1432
11.7251
11.3112
10.9019
10.4971
10.0971
9.70187
9.31165
8.9265
8.54654
8.17186
7.80258
7.43881
7.08065
6.72818
6.38143
6.04042
5.70525
5.37605
5.05309
4.73677
4.42759
4.12658
3.83504
3.55497
3.28953
3.04404
2.8287
2.66559
2.61291
2.89592
5.4871
14.4503
8.06787
7.79665
8.38099
9.25952
10.2848
11.3974
12.5681
13.7804
15.0241
16.2923
17.5799
18.883
20.1983
21.5227
22.8534
24.1874
25.5218
26.8535
28.1795
29.4966
30.8017
32.0915
33.363
34.613
35.8385
37.0367
38.2049
39.3405
40.4412
41.5049
42.5297
43.514
44.4563
45.3556
46.2109
47.0215
47.787
48.5073
49.1823
49.8124
50.3978
50.9395
51.4382
51.8951
52.3112
52.687
53.0234
53.3215
53.5822
53.8069
53.9968
54.1532
54.2775
54.3711
54.4352
54.4713
54.4806
54.4645
54.4243
54.3611
54.2763
54.1709
54.046
53.9029
53.7424
53.5657
53.3735
53.167
52.9468
52.7139
52.469
52.2129
51.9461
51.6695
51.3836
51.089
50.7862
50.4758
50.1583
49.834
49.5035
49.167
48.8251
48.4779
48.1259
47.7693
47.4084
47.0434
46.6746
46.3022
45.9264
45.5473
45.1652
44.7801
44.3923
44.0018
43.6087
43.2132
42.8153
42.4151
42.0127
41.6081
41.2014
40.7926
40.3819
39.9691
39.5544
39.1378
38.7192
38.2988
37.8765
37.4523
37.0263
36.5984
36.1687
35.7372
35.3038
34.8687
34.4317
33.993
33.5525
33.1102
32.6662
32.2205
31.7731
31.324
30.8733
30.421
29.9671
29.5117
29.0549
28.5966
28.1371
27.6762
27.2142
26.751
26.2869
25.8217
25.3558
24.8892
24.4219
23.9541
23.486
23.0177
22.5493
22.0809
21.6128
21.145
20.6777
20.2112
19.7455
19.2809
18.8175
18.3556
17.8952
17.4367
16.9801
16.5257
16.0737
15.6242
15.1775
14.7338
14.2931
13.8558
13.422
12.9918
12.5655
12.1432
11.725
11.3112
10.9019
10.4971
10.0971
9.70186
9.31164
8.9265
8.54653
8.17186
7.80258
7.43881
7.08065
6.72818
6.38143
6.04042
5.70524
5.37605
5.05309
4.73677
4.42758
4.12658
3.83504
3.55497
3.28953
3.04404
2.8287
2.66559
2.61291
2.89593
5.48709
18.9803
10.1167
9.26237
9.5632
10.2562
11.141
12.1379
13.2073
14.3265
15.4813
16.6622
17.8624
19.0769
20.3017
21.5335
22.7692
24.006
25.2413
26.4722
27.6961
28.9103
30.112
31.2985
32.4669
33.6147
34.7392
35.8378
36.9082
37.9481
38.9554
39.9282
40.8647
41.7634
42.6231
43.4427
44.2213
44.9583
45.6532
46.3059
46.9164
47.4848
48.0115
48.4972
48.9425
49.3484
49.7156
50.0451
50.3376
50.5941
50.8158
51.0037
51.1591
51.2832
51.3773
51.4426
51.4804
51.4921
51.4787
51.4417
51.3822
51.3013
51.2002
51.08
50.9419
50.7867
50.6155
50.4293
50.2289
50.0152
49.7891
49.5512
49.3024
49.0434
48.7747
48.4971
48.2111
47.9173
47.6161
47.3081
46.9938
46.6735
46.3477
46.0166
45.6808
45.3405
44.996
44.6475
44.2954
43.9398
43.581
43.2192
42.8546
42.4873
42.1174
41.7452
41.3708
40.9942
40.6156
40.2351
39.8527
39.4685
39.0825
38.695
38.3058
37.915
37.5227
37.1289
36.7336
36.3369
35.9387
35.5391
35.1382
34.7358
34.332
33.9269
33.5204
33.1125
32.7033
32.2927
31.8808
31.4675
31.053
30.6371
30.2199
29.8015
29.3818
28.9609
28.5388
28.1156
27.6912
27.2657
26.8392
26.4117
25.9833
25.554
25.124
24.6932
24.2617
23.8297
23.3973
22.9645
22.5314
22.0981
21.6648
21.2316
20.7986
20.366
19.9338
19.5022
19.0714
18.6416
18.2128
17.7852
17.359
16.9344
16.5116
16.0906
15.6717
15.2551
14.8408
14.4292
14.0203
13.6143
13.2115
12.8119
12.4158
12.0232
11.6344
11.2495
10.8686
10.4919
10.1195
9.75163
9.38832
9.02971
8.67593
8.32712
7.98337
7.64483
7.31162
6.98387
6.66174
6.34535
6.03487
5.73048
5.43243
5.14105
4.8568
4.58035
4.31258
4.05482
3.80894
3.57777
3.36587
3.18083
3.03688
2.96429
3.04275
3.5814
7.25453
18.9806
10.1166
9.26222
9.56303
10.256
11.1408
12.1377
13.2071
14.3263
15.4811
16.6619
17.8621
19.0767
20.3015
21.5332
22.769
24.0058
25.241
26.472
27.6959
28.9101
30.1118
31.2983
32.4667
33.6145
34.739
35.8377
36.9081
37.948
38.9552
39.928
40.8645
41.7633
42.623
43.4425
44.2211
44.9581
45.6531
46.3058
46.9162
47.4846
48.0114
48.4971
48.9424
49.3483
49.7155
50.045
50.3375
50.594
50.8157
51.0036
51.159
51.2831
51.3772
51.4425
51.4804
51.492
51.4787
51.4416
51.3821
51.3012
51.2001
51.08
50.9418
50.7866
50.6155
50.4292
50.2289
50.0152
49.789
49.5512
49.3024
49.0433
48.7747
48.4971
48.2111
47.9172
47.6161
47.3081
46.9937
46.6734
46.3476
46.0166
45.6808
45.3405
44.9959
44.6475
44.2953
43.9398
43.581
43.2192
42.8545
42.4872
42.1174
41.7452
41.3708
40.9942
40.6156
40.235
39.8526
39.4684
39.0825
38.6949
38.3057
37.915
37.5227
37.1289
36.7336
36.3369
35.9387
35.5391
35.1381
34.7358
34.332
33.9268
33.5203
33.1125
32.7032
32.2927
31.8807
31.4675
31.0529
30.6371
30.2199
29.8015
29.3818
28.9609
28.5388
28.1156
27.6912
27.2657
26.8392
26.4117
25.9833
25.554
25.124
24.6932
24.2617
23.8297
23.3973
22.9645
22.5314
22.0981
21.6648
21.2316
20.7986
20.366
19.9338
19.5022
19.0714
18.6416
18.2128
17.7852
17.359
16.9344
16.5116
16.0906
15.6717
15.2551
14.8408
14.4292
14.0203
13.6143
13.2115
12.8119
12.4158
12.0232
11.6344
11.2495
10.8686
10.4919
10.1195
9.75163
9.38831
9.02971
8.67593
8.32711
7.98337
7.64483
7.31162
6.98387
6.66174
6.34535
6.03487
5.73048
5.43243
5.14105
4.85681
4.58035
4.31258
4.05482
3.80894
3.57777
3.36587
3.18083
3.03688
2.96429
3.04275
3.58142
7.25452
23.5143
12.2752
10.881
10.9442
11.4969
12.2851
13.2086
14.2175
15.2833
16.3881
17.5199
18.6703
19.8332
21.0038
22.1786
23.3543
24.5282
25.6978
26.8606
28.0143
29.1565
30.2849
31.3972
32.4909
33.5639
34.6139
35.6386
36.636
37.6041
38.541
39.445
40.3146
41.1483
41.9451
42.704
43.424
44.1048
44.7457
45.3467
45.9078
46.429
46.9108
47.3535
47.7579
48.1247
48.4547
48.7487
49.0075
49.2322
49.4238
49.5833
49.712
49.8109
49.8813
49.9244
49.9413
49.9335
49.9019
49.8478
49.7723
49.6767
49.5618
49.429
49.279
49.113
48.9319
48.7366
48.5279
48.3067
48.0738
47.8299
47.5758
47.312
47.0394
46.7583
46.4695
46.1734
45.8706
45.5615
45.2465
44.9261
44.6006
44.2705
43.936
43.5974
43.2551
42.9093
42.5602
42.2081
41.8532
41.4957
41.1357
40.7734
40.409
40.0426
39.6743
39.3042
38.9324
38.5591
38.1842
37.8079
37.4302
37.0511
36.6708
36.2892
35.9065
35.5225
35.1374
34.7512
34.3639
33.9754
33.5859
33.1953
32.8037
32.4109
32.0172
31.6224
31.2265
30.8296
30.4317
30.0328
29.6328
29.2319
28.83
28.4271
28.0233
27.6186
27.213
26.8065
26.3992
25.9911
25.5823
25.1727
24.7626
24.3518
23.9405
23.5288
23.1167
22.7043
22.2917
21.879
21.4662
21.0535
20.641
20.2288
19.817
19.4058
18.9952
18.5854
18.1765
17.7687
17.3621
16.9569
16.5532
16.1511
15.7509
15.3526
14.9565
14.5627
14.1713
13.7825
13.3965
13.0134
12.6334
12.2566
11.8832
11.5134
11.1472
10.7849
10.4265
10.0722
9.72223
9.37661
9.0355
8.69904
8.36735
8.04059
7.71889
7.40239
7.09126
6.78568
6.48582
6.19193
5.90423
5.62304
5.34875
5.08185
4.82302
4.57314
4.33341
4.10555
3.892
3.69639
3.52448
3.38595
3.29896
3.3019
3.49592
4.27391
9.01428
23.5146
12.2751
10.8808
10.9441
11.4967
12.2849
13.2084
14.2173
15.2831
16.3879
17.5197
18.6701
19.8329
21.0036
22.1784
23.3541
24.528
25.6976
26.8604
28.0141
29.1563
30.2847
31.397
32.4907
33.5637
34.6137
35.6384
36.6358
37.6039
38.5408
39.4448
40.3144
41.1482
41.945
42.7038
43.4239
44.1046
44.7456
45.3466
45.9077
46.4289
46.9106
47.3534
47.7578
48.1246
48.4546
48.7486
49.0074
49.2321
49.4237
49.5832
49.7119
49.8108
49.8812
49.9243
49.9413
49.9334
49.9018
49.8477
49.7723
49.6766
49.5618
49.4289
49.279
49.113
48.9318
48.7365
48.5278
48.3067
48.0738
47.8299
47.5757
47.312
47.0393
46.7583
46.4695
46.1734
45.8705
45.5614
45.2465
44.9261
44.6006
44.2705
43.936
43.5974
43.2551
42.9093
42.5602
42.2081
41.8532
41.4957
41.1357
40.7734
40.409
40.0426
39.6743
39.3042
38.9324
38.5591
38.1842
37.8079
37.4301
37.0511
36.6708
36.2892
35.9065
35.5225
35.1374
34.7512
34.3639
33.9754
33.5859
33.1953
32.8037
32.4109
32.0172
31.6223
31.2265
30.8296
30.4317
30.0328
29.6328
29.2319
28.83
28.4271
28.0233
27.6186
27.213
26.8065
26.3992
25.9911
25.5822
25.1727
24.7625
24.3518
23.9405
23.5288
23.1167
22.7043
22.2917
21.879
21.4662
21.0535
20.641
20.2288
19.817
19.4058
18.9952
18.5854
18.1765
17.7687
17.3621
16.9569
16.5532
16.1511
15.7509
15.3526
14.9565
14.5627
14.1713
13.7825
13.3965
13.0134
12.6334
12.2566
11.8832
11.5134
11.1472
10.7849
10.4265
10.0722
9.72223
9.37661
9.0355
8.69904
8.36736
8.04059
7.71889
7.40239
7.09126
6.78568
6.48583
6.19193
5.90423
5.62304
5.34875
5.08186
4.82302
4.57314
4.33341
4.10556
3.892
3.69639
3.52448
3.38595
3.29896
3.3019
3.49593
4.27393
9.01428
28.1211
14.5051
12.6149
12.4717
12.9114
13.628
14.5012
15.4714
16.5045
17.579
18.6806
19.7995
20.9285
22.0622
23.1967
24.3286
25.4553
26.5745
27.6839
28.7817
29.8658
30.9342
31.9852
33.0167
34.0269
35.0139
35.9758
36.9109
37.8175
38.6939
39.5386
40.3504
41.128
41.8703
42.5765
43.2458
43.8777
44.4718
45.028
45.5462
46.0265
46.4692
46.8748
47.2438
47.5768
47.8748
48.1383
48.3682
48.5656
48.7313
48.8665
48.9721
49.0494
49.0994
49.1233
49.1223
49.0975
49.0501
48.9811
48.8918
48.7831
48.6561
48.5119
48.3514
48.1756
47.9853
47.7816
47.5651
47.3367
47.0972
46.8472
46.5876
46.3188
46.0416
45.7565
45.464
45.1648
44.8592
44.5477
44.2307
43.9087
43.582
43.2509
42.9159
42.5771
42.2348
41.8894
41.541
41.1899
40.8362
40.4803
40.1221
39.7619
39.3999
39.0361
38.6706
38.3037
37.9353
37.5656
37.1946
36.8224
36.4491
36.0746
35.6992
35.3227
34.9452
34.5668
34.1875
33.8073
33.4262
33.0443
32.6615
32.2778
31.8934
31.508
31.1219
30.735
30.3472
29.9587
29.5693
29.1792
28.7883
28.3966
28.0041
27.611
27.2171
26.8225
26.4273
26.0314
25.6349
25.2379
24.8403
24.4422
24.0437
23.6449
23.2457
22.8462
22.4466
22.0469
21.6471
21.2474
20.8479
20.4486
20.0496
19.6511
19.2532
18.8559
18.4594
18.0638
17.6693
17.2759
16.8839
16.4933
16.1043
15.717
15.3315
14.9481
14.5669
14.1879
13.8115
13.4376
13.0665
12.6983
12.3331
11.9712
11.6126
11.2574
10.906
10.5582
10.2144
9.8747
9.53914
9.20791
8.88115
8.55901
8.24162
7.92916
7.62177
7.31965
7.02297
6.73198
6.4469
6.16802
5.89569
5.63032
5.37242
5.12265
4.88185
4.65114
4.43203
4.2266
4.03783
3.87016
3.73054
3.63069
3.5925
3.66249
3.96337
4.97176
10.7711
28.1214
14.5049
12.6147
12.4715
12.9111
13.6278
14.501
15.4712
16.5042
17.5787
18.6804
19.7993
20.9283
22.062
23.1965
24.3284
25.4551
26.5743
27.6837
28.7815
29.8656
30.934
31.985
33.0165
34.0267
35.0137
35.9757
36.9108
37.8173
38.6937
39.5385
40.3503
41.1278
41.8702
42.5763
43.2457
43.8776
44.4717
45.0279
45.5461
46.0264
46.4691
46.8747
47.2437
47.5768
47.8747
48.1382
48.3682
48.5655
48.7313
48.8664
48.972
49.0493
49.0993
49.1232
49.1222
49.0974
49.05
48.9811
48.8917
48.783
48.6561
48.5119
48.3514
48.1755
47.9853
47.7815
47.5651
47.3367
47.0972
46.8472
46.5875
46.3188
46.0416
45.7565
45.464
45.1647
44.8591
44.5476
44.2307
43.9087
43.582
43.2509
42.9158
42.577
42.2348
41.8894
41.541
41.1899
40.8362
40.4802
40.1221
39.7619
39.3999
39.0361
38.6706
38.3037
37.9353
37.5656
37.1946
36.8224
36.449
36.0746
35.6991
35.3227
34.9452
34.5668
34.1875
33.8073
33.4262
33.0443
32.6615
32.2778
31.8933
31.508
31.1219
30.735
30.3472
29.9586
29.5693
29.1792
28.7882
28.3966
28.0041
27.611
27.2171
26.8225
26.4273
26.0314
25.6349
25.2378
24.8403
24.4422
24.0437
23.6448
23.2457
22.8462
22.4466
22.0469
21.6471
21.2474
20.8479
20.4486
20.0496
19.6511
19.2532
18.8559
18.4594
18.0638
17.6693
17.2759
16.8839
16.4933
16.1043
15.717
15.3315
14.9481
14.5669
14.1879
13.8115
13.4376
13.0665
12.6983
12.3331
11.9712
11.6126
11.2574
10.906
10.5582
10.2144
9.8747
9.53914
9.20791
8.88116
8.55901
8.24163
7.92916
7.62177
7.31965
7.02298
6.73198
6.4469
6.16802
5.8957
5.63032
5.37242
5.12265
4.88185
4.65114
4.43203
4.2266
4.03784
3.87016
3.73054
3.63069
3.5925
3.66249
3.96337
4.97179
10.7711
32.9952
16.8401
14.4577
14.1243
14.4675
15.1281
15.9652
16.9095
17.9215
18.9765
20.0581
21.1548
22.2587
23.3638
24.4659
25.5616
26.6483
27.7239
28.7866
29.8348
30.8667
31.8811
32.8763
33.8509
34.8034
35.7322
36.636
37.5132
38.3625
39.1825
39.9719
40.7296
41.4546
42.1459
42.8027
43.4244
44.0106
44.5608
45.0749
45.553
45.995
46.4012
46.7721
47.1081
47.4098
47.678
47.9133
48.1166
48.2888
48.4307
48.5434
48.628
48.6854
48.7167
48.7231
48.7057
48.6655
48.6036
48.5211
48.4191
48.2986
48.1606
48.0061
47.8359
47.6512
47.4526
47.241
47.0174
46.7823
46.5366
46.281
46.0161
45.7425
45.4609
45.1718
44.8757
44.5731
44.2645
43.9504
43.6311
43.3071
42.9786
42.6461
42.3098
41.9701
41.6271
41.2812
40.9326
40.5815
40.2281
39.8725
39.515
39.1557
38.7946
38.4321
38.0681
37.7027
37.3362
36.9684
36.5996
36.2298
35.859
35.4873
35.1147
34.7413
34.367
33.9921
33.6164
33.2399
32.8628
32.4849
32.1064
31.7272
31.3474
30.9669
30.5857
30.2039
29.8215
29.4385
29.0548
28.6705
28.2856
27.9001
27.5141
27.1275
26.7403
26.3526
25.9644
25.5758
25.1867
24.7972
24.4073
24.0171
23.6267
23.236
22.8451
22.4542
22.0632
21.6723
21.2814
20.8908
20.5004
20.1104
19.7209
19.3319
18.9436
18.556
18.1693
17.7837
17.3991
17.0158
16.6338
16.2534
15.8745
15.4974
15.1222
14.7491
14.3781
14.0094
13.6432
13.2795
12.9186
12.5606
12.2055
11.8537
11.5051
11.1599
10.8183
10.4805
10.1465
9.81644
9.49056
9.16896
8.8518
8.53923
8.23141
7.92852
7.63075
7.33832
7.05144
6.77039
6.49546
6.22702
5.96548
5.71136
5.46528
5.22805
5.00068
4.78452
4.58135
4.39363
4.22487
4.08028
3.96801
3.90185
3.90736
4.03934
4.44219
5.67693
12.5366
32.9955
16.8399
14.4575
14.1241
14.4673
15.1278
15.965
16.9093
17.9213
18.9763
20.0578
21.1546
22.2584
23.3636
24.4657
25.5614
26.6481
27.7237
28.7864
29.8345
30.8665
31.8809
32.8761
33.8507
34.8032
35.732
36.6358
37.5131
38.3623
39.1823
39.9717
40.7295
41.4544
42.1457
42.8025
43.4243
44.0104
44.5607
45.0748
45.5529
45.9949
46.4011
46.772
47.108
47.4097
47.6779
47.9132
48.1165
48.2887
48.4307
48.5434
48.6279
48.6853
48.7167
48.7231
48.7057
48.6654
48.6036
48.5211
48.4191
48.2986
48.1606
48.006
47.8359
47.6511
47.4525
47.241
47.0173
46.7823
46.5366
46.281
46.016
45.7425
45.4609
45.1717
44.8756
44.5731
44.2645
43.9504
43.6311
43.3071
42.9786
42.6461
42.3098
41.9701
41.6271
41.2812
40.9326
40.5815
40.2281
39.8725
39.515
39.1556
38.7946
38.4321
38.0681
37.7027
37.3362
36.9684
36.5996
36.2298
35.859
35.4872
35.1147
34.7412
34.367
33.9921
33.6163
33.2399
32.8628
32.4849
32.1064
31.7272
31.3474
30.9669
30.5857
30.2039
29.8215
29.4385
29.0548
28.6705
28.2856
27.9001
27.5141
27.1275
26.7403
26.3526
25.9644
25.5758
25.1867
24.7972
24.4073
24.0171
23.6267
23.236
22.8451
22.4542
22.0632
21.6723
21.2814
20.8908
20.5004
20.1104
19.7209
19.3319
18.9436
18.556
18.1693
17.7837
17.3991
17.0158
16.6338
16.2533
15.8745
15.4974
15.1222
14.7491
14.3781
14.0094
13.6432
13.2795
12.9186
12.5606
12.2055
11.8537
11.5051
11.1599
10.8183
10.4805
10.1465
9.81644
9.49056
9.16896
8.8518
8.53923
8.23141
7.92852
7.63076
7.33832
7.05144
6.77039
6.49547
6.22702
5.96548
5.71136
5.46528
5.22805
5.00068
4.78452
4.58135
4.39363
4.22487
4.08028
3.96801
3.90185
3.90736
4.03934
4.4422
5.67696
12.5366
38.0315
19.2746
16.4053
15.8923
16.1501
16.7648
17.5749
18.5012
19.4989
20.5403
21.6067
22.6858
23.7685
24.8485
25.9213
26.9837
28.0331
29.0676
30.0858
31.0864
32.0682
33.0303
33.9715
34.8907
35.787
36.6592
37.5062
38.3269
39.1201
39.8849
40.6201
41.3248
41.9982
42.6394
43.2479
43.8229
44.3642
44.8714
45.3444
45.7831
46.1877
46.5583
46.8953
47.1991
47.4704
47.7097
47.9178
48.0953
48.2432
48.3623
48.4535
48.5179
48.5563
48.5699
48.5597
48.5267
48.4719
48.3964
48.3012
48.1874
48.0558
47.9075
47.7434
47.5644
47.3713
47.165
46.9464
46.7161
46.475
46.2236
45.9628
45.6931
45.4152
45.1295
44.8367
44.5373
44.2317
43.9205
43.6039
43.2824
42.9565
42.6263
42.2924
41.9549
41.6141
41.2703
40.9238
40.5748
40.2234
39.8699
39.5144
39.1572
38.7982
38.4378
38.076
37.7128
37.3485
36.9831
36.6167
36.2493
35.8811
35.512
35.1421
34.7715
34.4003
34.0283
33.6557
33.2825
32.9088
32.5344
32.1595
31.784
31.4081
31.0315
30.6545
30.2769
29.8989
29.5203
29.1413
28.7617
28.3817
28.0012
27.6202
27.2388
26.857
26.4748
26.0921
25.7091
25.3258
24.9421
24.5582
24.174
23.7897
23.4051
23.0205
22.6358
22.2512
21.8666
21.4821
21.0978
20.7139
20.3303
19.9471
19.5645
19.1826
18.8013
18.4209
18.0414
17.663
17.2857
16.9097
16.5351
16.162
15.7906
15.4209
15.0531
14.6873
14.3237
13.9623
13.6034
13.247
12.8933
12.5424
12.1945
11.8496
11.508
11.1698
10.835
10.5039
10.1766
9.85325
9.53395
9.21888
8.90821
8.6021
8.30075
8.00435
7.71311
7.42727
7.14711
6.87293
6.6051
6.34402
6.09021
5.84426
5.60693
5.37914
5.16209
4.95732
4.7669
4.59366
4.44162
4.31676
4.22845
4.19251
4.23835
4.42894
4.93092
6.39087
14.3135
38.0319
19.2744
16.4051
15.892
16.1499
16.7646
17.5746
18.5009
19.4987
20.54
21.6065
22.6855
23.7682
24.8483
25.9211
26.9834
28.0328
29.0674
30.0856
31.0862
32.068
33.0301
33.9713
34.8905
35.7868
36.659
37.506
38.3267
39.12
39.8847
40.6199
41.3247
41.9981
42.6393
43.2477
43.8228
44.3641
44.8713
45.3443
45.783
46.1876
46.5582
46.8952
47.1991
47.4703
47.7097
47.9177
48.0953
48.2431
48.3622
48.4535
48.5178
48.5563
48.5699
48.5596
48.5266
48.4718
48.3964
48.3012
48.1873
48.0558
47.9075
47.7434
47.5643
47.3713
47.165
46.9464
46.7161
46.4749
46.2236
45.9628
45.6931
45.4152
45.1295
44.8367
44.5373
44.2317
43.9204
43.6039
43.2824
42.9564
42.6263
42.2923
41.9548
41.6141
41.2703
40.9238
40.5747
40.2234
39.8699
39.5144
39.1571
38.7982
38.4378
38.0759
37.7128
37.3485
36.9831
36.6167
36.2493
35.881
35.512
35.1421
34.7715
34.4002
34.0283
33.6557
33.2825
32.9087
32.5344
32.1595
31.784
31.408
31.0315
30.6545
30.2769
29.8989
29.5203
29.1412
28.7617
28.3817
28.0012
27.6202
27.2388
26.857
26.4748
26.0921
25.7091
25.3258
24.9421
24.5582
24.174
23.7896
23.4051
23.0205
22.6358
22.2512
21.8666
21.4821
21.0978
20.7139
20.3303
19.9471
19.5645
19.1826
18.8013
18.4209
18.0414
17.663
17.2857
16.9097
16.5351
16.162
15.7906
15.4209
15.0531
14.6873
14.3237
13.9623
13.6034
13.247
12.8933
12.5424
12.1945
11.8496
11.508
11.1698
10.835
10.5039
10.1766
9.85325
9.53395
9.21888
8.90821
8.60211
8.30075
8.00435
7.71311
7.42727
7.14711
6.87293
6.6051
6.34402
6.09021
5.84426
5.60693
5.37914
5.16209
4.95732
4.7669
4.59366
4.44162
4.31676
4.22845
4.19251
4.23835
4.42895
4.93093
6.3909
14.3135
43.2564
21.8146
18.4585
17.7727
17.9527
18.5284
19.3172
20.2301
21.2173
22.2477
23.3012
24.3639
25.4263
26.4818
27.5256
28.5546
29.5665
30.5597
31.533
32.4856
33.4169
34.3262
35.2129
36.0764
36.916
37.7311
38.5209
39.2846
40.0214
40.7305
41.4112
42.0626
42.6841
43.275
43.8347
44.3629
44.8591
45.3231
45.7547
46.154
46.521
46.8559
47.159
47.4308
47.6717
47.8823
48.0632
48.2152
48.3391
48.4356
48.5056
48.5501
48.57
48.5663
48.5398
48.4917
48.4228
48.3342
48.2269
48.1017
47.9596
47.8015
47.6284
47.441
47.2402
47.0268
46.8016
46.5653
46.3186
46.0622
45.7967
45.5228
45.241
44.9518
44.6558
44.3535
44.0454
43.7318
43.4132
43.0899
42.7624
42.4309
42.0958
41.7573
41.4158
41.0715
40.7245
40.3752
40.0237
39.6703
39.315
38.958
38.5996
38.2397
37.8785
37.5162
37.1529
36.7885
36.4232
36.0571
35.6902
35.3226
34.9543
34.5854
34.2159
33.8459
33.4753
33.1042
32.7326
32.3606
31.9881
31.6151