/*--------------------------------*- C++ -*----------------------------------*\
  =========                 |
  \\      /  F ield         | OpenFOAM: The Open Source CFD Toolbox
   \\    /   O peration     | Website:  https://openfoam.org
    \\  /    A nd           | Version:  8
     \\/     M anipulation  |
\*---------------------------------------------------------------------------*/
FoamFile
{
    version     2.0;
    format      ascii;
    class       volScalarField;
    location    "3100";
    object      k;
}
// * * * * * * * * * * * * * * * * * * * * * * * * * * * * * * * * * * * * * //

dimensions      [0 2 -2 0 0 0 0];

internalField   nonuniform List<scalar> 
48000
(
0.0289281
0.0639829
0.098848
0.129083
0.157435
0.18343
0.207545
0.230272
0.252422
0.27353
0.293926
0.313665
0.3328
0.351375
0.369422
0.386964
0.404016
0.42059
0.436692
0.452326
0.467492
0.482191
0.496423
0.510185
0.523477
0.536298
0.548646
0.560521
0.571925
0.582857
0.593321
0.603319
0.612855
0.621933
0.63056
0.638741
0.646483
0.653793
0.660681
0.667155
0.673223
0.678895
0.684179
0.689086
0.693688
0.697962
0.701893
0.705488
0.708759
0.711717
0.714376
0.716746
0.718839
0.720666
0.722238
0.723567
0.724661
0.725532
0.726189
0.726641
0.726898
0.726968
0.72686
0.726582
0.726141
0.725546
0.724802
0.723918
0.722899
0.721751
0.72048
0.719092
0.717592
0.715985
0.714276
0.712469
0.710567
0.708576
0.706499
0.704339
0.702099
0.699782
0.697392
0.694931
0.692401
0.689804
0.687143
0.68442
0.681635
0.678792
0.675891
0.672934
0.669922
0.666855
0.663736
0.660564
0.657341
0.654068
0.650744
0.64737
0.643947
0.640475
0.636954
0.633384
0.629766
0.626099
0.622384
0.618619
0.614806
0.610944
0.607032
0.603071
0.59906
0.594999
0.590887
0.586724
0.58251
0.578244
0.573925
0.569554
0.565129
0.560651
0.556119
0.551532
0.54689
0.542193
0.53744
0.532631
0.527765
0.522842
0.517862
0.512825
0.50773
0.502577
0.497366
0.492097
0.486769
0.481384
0.475941
0.470439
0.46488
0.459264
0.45359
0.44786
0.442073
0.43623
0.430332
0.42438
0.418373
0.412313
0.4062
0.400036
0.393822
0.387557
0.381244
0.374883
0.368475
0.362022
0.355525
0.348984
0.342401
0.335777
0.329114
0.322411
0.31567
0.308893
0.302079
0.295231
0.288347
0.281429
0.274478
0.267492
0.260473
0.253419
0.24633
0.239204
0.23204
0.224835
0.217588
0.210295
0.202956
0.195574
0.188187
0.180753
0.173224
0.165587
0.157824
0.149911
0.141819
0.133513
0.124945
0.116056
0.106854
0.0972019
0.0869179
0.0757731
0.0633981
0.0491349
0.031845
0.0228884
0.0289274
0.0639842
0.0988494
0.129084
0.157437
0.183431
0.207546
0.230274
0.252423
0.273532
0.293927
0.313666
0.332801
0.351376
0.369423
0.386965
0.404017
0.420591
0.436693
0.452326
0.467493
0.482192
0.496423
0.510186
0.523478
0.536298
0.548646
0.560522
0.571925
0.582858
0.593322
0.60332
0.612855
0.621934
0.63056
0.638741
0.646483
0.653794
0.660681
0.667155
0.673223
0.678895
0.68418
0.689087
0.693688
0.697962
0.701893
0.705488
0.708759
0.711718
0.714376
0.716746
0.718839
0.720666
0.722238
0.723567
0.724661
0.725532
0.726189
0.726641
0.726898
0.726968
0.72686
0.726582
0.726141
0.725546
0.724802
0.723918
0.722899
0.721751
0.72048
0.719092
0.717592
0.715985
0.714276
0.712468
0.710567
0.708576
0.706499
0.704338
0.702099
0.699782
0.697392
0.694931
0.692401
0.689804
0.687143
0.68442
0.681635
0.678792
0.675891
0.672934
0.669922
0.666855
0.663736
0.660564
0.657341
0.654068
0.650744
0.64737
0.643947
0.640475
0.636954
0.633384
0.629766
0.626099
0.622383
0.618619
0.614806
0.610944
0.607032
0.603071
0.59906
0.594999
0.590887
0.586724
0.58251
0.578244
0.573925
0.569554
0.565129
0.560651
0.556119
0.551532
0.54689
0.542193
0.53744
0.532631
0.527765
0.522842
0.517862
0.512825
0.507729
0.502576
0.497366
0.492096
0.486769
0.481384
0.475941
0.470439
0.46488
0.459264
0.45359
0.44786
0.442073
0.43623
0.430332
0.42438
0.418373
0.412313
0.4062
0.400036
0.393822
0.387557
0.381244
0.374883
0.368475
0.362022
0.355525
0.348984
0.342401
0.335777
0.329114
0.322411
0.31567
0.308893
0.302079
0.295231
0.288347
0.281429
0.274478
0.267493
0.260473
0.253419
0.24633
0.239204
0.23204
0.224836
0.217588
0.210295
0.202956
0.195574
0.188187
0.180753
0.173224
0.165588
0.157824
0.149911
0.141819
0.133513
0.124945
0.116057
0.106854
0.097202
0.086918
0.0757732
0.0633981
0.0491346
0.0318461
0.0228879
0.0650842
0.164703
0.235072
0.297142
0.354043
0.407565
0.458209
0.506506
0.552954
0.597801
0.641257
0.683471
0.724547
0.764563
0.80357
0.841603
0.878684
0.914822
0.950021
0.984277
1.01758
1.04993
1.08131
1.1117
1.1411
1.1695
1.19688
1.22324
1.24858
1.27289
1.29617
1.31843
1.33966
1.35988
1.37909
1.3973
1.41454
1.43081
1.44613
1.46052
1.474
1.48658
1.4983
1.50918
1.51923
1.52849
1.53699
1.54476
1.5518
1.55816
1.56385
1.56891
1.57335
1.57721
1.5805
1.58325
1.58549
1.58723
1.58851
1.58933
1.58972
1.5897
1.58929
1.5885
1.58736
1.58588
1.58407
1.58195
1.57954
1.57685
1.5739
1.57068
1.56722
1.56353
1.55962
1.5555
1.55117
1.54664
1.54193
1.53704
1.53198
1.52676
1.52137
1.51583
1.51015
1.50432
1.49836
1.49226
1.48603
1.47967
1.47319
1.46659
1.45988
1.45305
1.44611
1.43905
1.43189
1.42462
1.41724
1.40976
1.40217
1.39448
1.38669
1.37879
1.37079
1.36269
1.35448
1.34618
1.33776
1.32925
1.32063
1.31191
1.30308
1.29414
1.2851
1.27595
1.26669
1.25732
1.24784
1.23825
1.22855
1.21873
1.2088
1.19876
1.1886
1.17832
1.16792
1.15741
1.14677
1.13602
1.12514
1.11415
1.10303
1.09179
1.08043
1.06895
1.05734
1.04561
1.03376
1.02179
1.0097
0.997488
0.985156
0.972704
0.960135
0.947449
0.934648
0.921732
0.908704
0.895566
0.882319
0.868964
0.855505
0.841943
0.828281
0.81452
0.800664
0.786715
0.772674
0.758545
0.744331
0.730033
0.715654
0.701197
0.686663
0.672055
0.657375
0.642623
0.627802
0.612912
0.597955
0.582929
0.567835
0.552671
0.537436
0.522126
0.506738
0.491267
0.475706
0.460048
0.444283
0.428401
0.41239
0.396223
0.379862
0.363298
0.346496
0.329409
0.311984
0.294155
0.275835
0.256911
0.237225
0.216633
0.19487
0.17156
0.146136
0.11761
0.0835566
0.0329426
0.0650858
0.164705
0.235073
0.297143
0.354044
0.407566
0.45821
0.506507
0.552955
0.597801
0.641258
0.683471
0.724548
0.764563
0.80357
0.841603
0.878684
0.914822
0.950021
0.984277
1.01758
1.04993
1.08131
1.1117
1.1411
1.1695
1.19688
1.22324
1.24858
1.27289
1.29617
1.31843
1.33966
1.35987
1.37909
1.3973
1.41454
1.43081
1.44613
1.46052
1.474
1.48658
1.4983
1.50918
1.51922
1.52849
1.53699
1.54475
1.5518
1.55816
1.56385
1.56891
1.57335
1.57721
1.5805
1.58325
1.58549
1.58723
1.5885
1.58933
1.58972
1.5897
1.58928
1.5885
1.58736
1.58587
1.58407
1.58195
1.57954
1.57685
1.5739
1.57068
1.56722
1.56353
1.55962
1.55549
1.55117
1.54664
1.54193
1.53704
1.53198
1.52676
1.52137
1.51583
1.51015
1.50432
1.49835
1.49225
1.48603
1.47967
1.47319
1.46659
1.45988
1.45305
1.44611
1.43905
1.43189
1.42462
1.41724
1.40976
1.40217
1.39448
1.38669
1.37879
1.37079
1.36269
1.35448
1.34617
1.33776
1.32925
1.32063
1.3119
1.30307
1.29414
1.2851
1.27595
1.26669
1.25732
1.24784
1.23825
1.22855
1.21873
1.2088
1.19876
1.1886
1.17832
1.16792
1.15741
1.14677
1.13602
1.12514
1.11415
1.10303
1.09179
1.08043
1.06895
1.05734
1.04561
1.03376
1.02179
1.0097
0.997488
0.985155
0.972703
0.960134
0.947448
0.934647
0.921731
0.908704
0.895565
0.882318
0.868964
0.855504
0.841943
0.82828
0.81452
0.800663
0.786714
0.772673
0.758545
0.74433
0.730032
0.715654
0.701196
0.686663
0.672055
0.657374
0.642623
0.627802
0.612912
0.597954
0.582929
0.567835
0.552671
0.537436
0.522126
0.506738
0.491267
0.475705
0.460047
0.444282
0.428401
0.41239
0.396223
0.379861
0.363298
0.346496
0.329408
0.311984
0.294155
0.275835
0.256911
0.237225
0.216633
0.19487
0.17156
0.146136
0.11761
0.0835561
0.0329382
0.0985865
0.235037
0.323229
0.398618
0.467918
0.533428
0.596035
0.656247
0.714423
0.770805
0.825577
0.878874
0.930801
0.98143
1.03081
1.07899
1.12598
1.17179
1.21642
1.25987
1.30212
1.34317
1.383
1.42159
1.45893
1.495
1.5298
1.5633
1.59551
1.62641
1.65601
1.68431
1.71131
1.73701
1.76144
1.7846
1.8065
1.82717
1.84663
1.8649
1.88201
1.89798
1.91283
1.92661
1.93934
1.95106
1.9618
1.97159
1.98046
1.98845
1.99558
2.0019
2.00744
2.01221
2.01627
2.01963
2.02233
2.0244
2.02586
2.02675
2.02709
2.02689
2.0262
2.02503
2.02341
2.02135
2.01887
2.01601
2.01276
2.00916
2.00522
2.00095
1.99638
1.9915
1.98635
1.98093
1.97524
1.96932
1.96315
1.95676
1.95016
1.94334
1.93633
1.92912
1.92173
1.91415
1.90641
1.8985
1.89042
1.88219
1.8738
1.86526
1.85658
1.84776
1.83879
1.82968
1.82044
1.81107
1.80156
1.79192
1.78216
1.77226
1.76224
1.75208
1.74181
1.7314
1.72086
1.7102
1.69941
1.68849
1.67745
1.66627
1.65496
1.64352
1.63195
1.62025
1.60841
1.59643
1.58432
1.57207
1.55968
1.54715
1.53448
1.52166
1.50871
1.4956
1.48236
1.46896
1.45542
1.44172
1.42788
1.41389
1.39975
1.38546
1.37101
1.35642
1.34167
1.32677
1.31172
1.29652
1.28117
1.26567
1.25003
1.23423
1.2183
1.20221
1.18599
1.16962
1.15311
1.13647
1.1197
1.10279
1.08575
1.06859
1.0513
1.03389
1.01637
0.998729
0.980978
0.963118
0.945153
0.927086
0.90892
0.890658
0.872302
0.853856
0.835321
0.8167
0.797994
0.779204
0.760332
0.741377
0.722339
0.703216
0.684007
0.664707
0.645313
0.625817
0.606214
0.586493
0.566643
0.546649
0.526494
0.506154
0.485596
0.464792
0.443696
0.422263
0.400443
0.378158
0.355316
0.331797
0.307444
0.282067
0.255403
0.227044
0.196324
0.161882
0.119638
0.0511443
0.098588
0.235039
0.32323
0.398618
0.467918
0.533428
0.596035
0.656247
0.714423
0.770805
0.825577
0.878874
0.9308
0.981429
1.03081
1.07899
1.12598
1.17179
1.21642
1.25987
1.30212
1.34317
1.383
1.42159
1.45893
1.495
1.52979
1.5633
1.59551
1.62641
1.65601
1.68431
1.71131
1.73701
1.76144
1.78459
1.8065
1.82717
1.84663
1.8649
1.88201
1.89798
1.91283
1.92661
1.93934
1.95106
1.9618
1.97159
1.98046
1.98845
1.99558
2.0019
2.00743
2.01221
2.01627
2.01963
2.02233
2.0244
2.02586
2.02675
2.02708
2.02689
2.0262
2.02503
2.02341
2.02135
2.01887
2.016
2.01276
2.00916
2.00522
2.00095
1.99638
1.9915
1.98635
1.98092
1.97524
1.96931
1.96315
1.95676
1.95015
1.94334
1.93632
1.92912
1.92172
1.91415
1.90641
1.89849
1.89042
1.88219
1.8738
1.86526
1.85658
1.84775
1.83879
1.82968
1.82044
1.81107
1.80156
1.79192
1.78216
1.77226
1.76224
1.75208
1.7418
1.7314
1.72086
1.7102
1.69941
1.68849
1.67744
1.66627
1.65496
1.64352
1.63195
1.62024
1.6084
1.59643
1.58432
1.57207
1.55968
1.54715
1.53448
1.52166
1.50871
1.4956
1.48235
1.46896
1.45541
1.44172
1.42788
1.41389
1.39975
1.38545
1.37101
1.35641
1.34167
1.32677
1.31172
1.29652
1.28117
1.26567
1.25003
1.23423
1.21829
1.20221
1.18599
1.16962
1.15311
1.13647
1.1197
1.10279
1.08575
1.06859
1.0513
1.03389
1.01637
0.998728
0.980977
0.963117
0.945152
0.927085
0.908919
0.890657
0.872301
0.853855
0.83532
0.816699
0.797993
0.779203
0.760331
0.741376
0.722338
0.703215
0.684006
0.664706
0.645312
0.625817
0.606213
0.586492
0.566642
0.546649
0.526494
0.506153
0.485596
0.464791
0.443695
0.422262
0.400443
0.378158
0.355316
0.331797
0.307444
0.282066
0.255402
0.227044
0.196324
0.161882
0.119639
0.0511446
0.126681
0.29495
0.397595
0.482742
0.560707
0.634485
0.705236
0.773527
0.839688
0.903937
0.966431
1.02729
1.0866
1.14442
1.20082
1.25583
1.30946
1.36173
1.41264
1.46218
1.51036
1.55716
1.60256
1.64655
1.68911
1.73023
1.76989
1.80809
1.84481
1.88006
1.91382
1.94609
1.97689
2.00622
2.03409
2.06052
2.08552
2.1091
2.13131
2.15215
2.17167
2.18988
2.20682
2.22252
2.23703
2.25037
2.26259
2.27371
2.28379
2.29284
2.30092
2.30806
2.31429
2.31965
2.32418
2.32791
2.33088
2.33313
2.33467
2.33555
2.33579
2.33543
2.33449
2.33301
2.33099
2.32848
2.32549
2.32205
2.31817
2.31389
2.30921
2.30416
2.29876
2.29301
2.28694
2.28056
2.27389
2.26693
2.25971
2.25222
2.24449
2.23652
2.22832
2.2199
2.21127
2.20244
2.1934
2.18418
2.17477
2.16519
2.15542
2.14549
2.13539
2.12513
2.11471
2.10414
2.09341
2.08253
2.07149
2.06032
2.04899
2.03752
2.0259
2.01414
2.00224
1.99019
1.978
1.96566
1.95318
1.94056
1.92779
1.91487
1.90181
1.8886
1.87524
1.86173
1.84807
1.83425
1.82028
1.80616
1.79188
1.77744
1.76284
1.74808
1.73316
1.71808
1.70283
1.68742
1.67184
1.65609
1.64018
1.62409
1.60784
1.59142
1.57482
1.55806
1.54113
1.52402
1.50675
1.48931
1.4717
1.45392
1.43598
1.41787
1.3996
1.38117
1.36257
1.34382
1.32491
1.30585
1.28664
1.26728
1.24778
1.22813
1.20835
1.18843
1.16838
1.1482
1.1279
1.10747
1.08693
1.06627
1.0455
1.02463
1.00365
0.982567
0.961386
0.94011
0.918738
0.897274
0.875717
0.854069
0.832328
0.810494
0.788564
0.766534
0.7444
0.722156
0.699794
0.677304
0.654674
0.631889
0.608929
0.585772
0.562388
0.538744
0.514799
0.490505
0.465803
0.440617
0.414864
0.388425
0.361145
0.332814
0.303161
0.271726
0.23769
0.199222
0.150623
0.0664283
0.126682
0.294951
0.397596
0.482742
0.560707
0.634484
0.705236
0.773526
0.839688
0.903937
0.96643
1.02729
1.08659
1.14442
1.20082
1.25583
1.30946
1.36172
1.41263
1.46218
1.51036
1.55716
1.60256
1.64654
1.68911
1.73023
1.76989
1.80809
1.84481
1.88005
1.91382
1.94609
1.97689
2.00622
2.03409
2.06052
2.08551
2.1091
2.13131
2.15215
2.17166
2.18987
2.20682
2.22252
2.23703
2.25037
2.26259
2.27371
2.28379
2.29284
2.30092
2.30805
2.31429
2.31965
2.32418
2.32791
2.33088
2.33312
2.33467
2.33555
2.33579
2.33543
2.33449
2.333
2.33099
2.32848
2.32549
2.32205
2.31817
2.31389
2.30921
2.30416
2.29875
2.29301
2.28694
2.28056
2.27389
2.26693
2.2597
2.25222
2.24449
2.23652
2.22832
2.2199
2.21127
2.20243
2.1934
2.18418
2.17477
2.16518
2.15542
2.14549
2.13539
2.12513
2.11471
2.10414
2.09341
2.08252
2.07149
2.06031
2.04899
2.03752
2.0259
2.01414
2.00224
1.99019
1.978
1.96566
1.95318
1.94056
1.92779
1.91487
1.90181
1.8886
1.87524
1.86173
1.84807
1.83425
1.82028
1.80616
1.79188
1.77744
1.76284
1.74808
1.73316
1.71808
1.70283
1.68742
1.67184
1.65609
1.64017
1.62409
1.60784
1.59141
1.57482
1.55806
1.54113
1.52402
1.50675
1.48931
1.4717
1.45392
1.43598
1.41787
1.3996
1.38117
1.36257
1.34382
1.32491
1.30585
1.28664
1.26728
1.24778
1.22813
1.20835
1.18843
1.16838
1.1482
1.1279
1.10747
1.08693
1.06627
1.0455
1.02463
1.00365
0.982566
0.961386
0.940109
0.918738
0.897273
0.875717
0.854068
0.832328
0.810493
0.788563
0.766533
0.7444
0.722156
0.699794
0.677304
0.654674
0.631888
0.608929
0.585772
0.562387
0.538743
0.514798
0.490505
0.465803
0.440616
0.414864
0.388425
0.361145
0.332814
0.30316
0.271726
0.237691
0.199222
0.150623
0.0664284
0.151943
0.349016
0.465521
0.559994
0.645658
0.726457
0.80392
0.878741
0.951286
1.02177
1.09035
1.15712
1.22216
1.28555
1.34732
1.40751
1.46615
1.52327
1.57885
1.63292
1.68546
1.73647
1.78594
1.83386
1.88021
1.92499
1.96818
2.00978
2.04977
2.08815
2.12492
2.16009
2.19365
2.22561
2.25599
2.28479
2.31205
2.33777
2.36199
2.38472
2.406
2.42587
2.44435
2.46148
2.47729
2.49184
2.50515
2.51727
2.52823
2.53807
2.54684
2.55458
2.56133
2.56712
2.57199
2.57599
2.57915
2.5815
2.58309
2.58395
2.5841
2.58359
2.58245
2.58069
2.57836
2.57548
2.57207
2.56817
2.56379
2.55895
2.55368
2.54801
2.54194
2.53549
2.52869
2.52155
2.51408
2.5063
2.49823
2.48987
2.48124
2.47234
2.4632
2.45381
2.44419
2.43435
2.42429
2.41402
2.40354
2.39288
2.38201
2.37097
2.35974
2.34833
2.33675
2.325
2.31308
2.30099
2.28874
2.27633
2.26376
2.25103
2.23814
2.2251
2.2119
2.19854
2.18503
2.17136
2.15753
2.14354
2.1294
2.1151
2.10064
2.08601
2.07123
2.05628
2.04117
2.02589
2.01044
1.99483
1.97904
1.96309
1.94696
1.93065
1.91417
1.89752
1.88068
1.86367
1.84648
1.8291
1.81154
1.7938
1.77588
1.75777
1.73948
1.721
1.70234
1.6835
1.66447
1.64526
1.62587
1.60629
1.58653
1.5666
1.54649
1.5262
1.50574
1.48511
1.46431
1.44335
1.42222
1.40093
1.37949
1.35789
1.33614
1.31424
1.2922
1.27003
1.24771
1.22527
1.2027
1.18
1.15718
1.13425
1.1112
1.08804
1.06478
1.0414
1.01793
0.994357
0.970682
0.946908
0.923033
0.899058
0.87498
0.850795
0.8265
0.802087
0.77755
0.752879
0.728061
0.703083
0.677925
0.652564
0.626975
0.601125
0.574974
0.548475
0.521572
0.494192
0.466246
0.437615
0.408141
0.377607
0.345692
0.311866
0.27511
0.233094
0.178628
0.0800183
0.151944
0.349017
0.465522
0.559994
0.645658
0.726457
0.803919
0.87874
0.951286
1.02177
1.09035
1.15712
1.22216
1.28555
1.34732
1.40751
1.46615
1.52326
1.57885
1.63292
1.68546
1.73647
1.78594
1.83385
1.88021
1.92499
1.96818
2.00977
2.04977
2.08815
2.12492
2.16009
2.19365
2.22561
2.25599
2.28479
2.31205
2.33777
2.36198
2.38472
2.406
2.42587
2.44435
2.46148
2.47729
2.49184
2.50515
2.51726
2.52823
2.53807
2.54684
2.55458
2.56133
2.56711
2.57199
2.57599
2.57915
2.5815
2.58309
2.58395
2.5841
2.58359
2.58245
2.58069
2.57836
2.57548
2.57207
2.56817
2.56379
2.55895
2.55368
2.548
2.54193
2.53549
2.52869
2.52155
2.51408
2.5063
2.49823
2.48987
2.48123
2.47234
2.46319
2.45381
2.44419
2.43435
2.42429
2.41402
2.40354
2.39287
2.38201
2.37097
2.35974
2.34833
2.33675
2.325
2.31308
2.30099
2.28874
2.27633
2.26376
2.25103
2.23814
2.2251
2.2119
2.19854
2.18503
2.17135
2.15753
2.14354
2.1294
2.1151
2.10063
2.08601
2.07123
2.05628
2.04117
2.02589
2.01044
1.99483
1.97904
1.96308
1.94696
1.93065
1.91417
1.89752
1.88068
1.86367
1.84648
1.8291
1.81154
1.7938
1.77588
1.75777
1.73948
1.721
1.70234
1.6835
1.66447
1.64526
1.62586
1.60629
1.58653
1.5666
1.54649
1.5262
1.50574
1.48511
1.46431
1.44335
1.42222
1.40093
1.37949
1.35789
1.33614
1.31424
1.2922
1.27003
1.24771
1.22527
1.2027
1.18
1.15718
1.13425
1.1112
1.08804
1.06477
1.0414
1.01793
0.994356
0.970681
0.946907
0.923033
0.899058
0.874979
0.850795
0.826499
0.802087
0.77755
0.752878
0.728061
0.703082
0.677924
0.652564
0.626975
0.601124
0.574973
0.548475
0.521572
0.494192
0.466246
0.437615
0.408141
0.377607
0.345692
0.311866
0.27511
0.233094
0.178628
0.0800183
0.175266
0.400126
0.530016
0.633693
0.72678
0.814132
0.897665
0.978253
1.05633
1.13215
1.20585
1.27756
1.34734
1.41526
1.48137
1.54571
1.60833
1.66924
1.72846
1.78601
1.84188
1.89609
1.94863
1.9995
2.04869
2.0962
2.14201
2.18613
2.22854
2.26925
2.30826
2.34556
2.38117
2.41509
2.44734
2.47792
2.50687
2.53419
2.55992
2.58408
2.60671
2.62782
2.64747
2.66569
2.68251
2.69797
2.71212
2.725
2.73664
2.7471
2.75641
2.76461
2.77175
2.77787
2.78301
2.78722
2.79052
2.79296
2.79458
2.79541
2.7955
2.79486
2.79355
2.79158
2.78899
2.78581
2.78206
2.77778
2.77298
2.7677
2.76195
2.75576
2.74915
2.74213
2.73473
2.72696
2.71885
2.71039
2.70162
2.69254
2.68317
2.67352
2.66359
2.65341
2.64297
2.6323
2.62139
2.61025
2.5989
2.58734
2.57557
2.5636
2.55143
2.53907
2.52653
2.5138
2.50089
2.4878
2.47454
2.46111
2.4475
2.43372
2.41978
2.40566
2.39138
2.37693
2.36232
2.34753
2.33258
2.31746
2.30217
2.28671
2.27108
2.25528
2.23931
2.22316
2.20684
2.19034
2.17366
2.1568
2.13976
2.12254
2.10513
2.08754
2.06976
2.0518
2.03364
2.01529
1.99675
1.97802
1.95909
1.93997
1.92066
1.90114
1.88144
1.86153
1.84143
1.82114
1.80065
1.77996
1.75908
1.73801
1.71674
1.69529
1.67365
1.65182
1.62981
1.60761
1.58523
1.56268
1.53996
1.51706
1.494
1.47077
1.44738
1.42384
1.40014
1.37629
1.3523
1.32817
1.3039
1.27949
1.25496
1.2303
1.20552
1.18062
1.1556
1.13047
1.10523
1.07988
1.05442
1.02886
1.00318
0.977402
0.95151
0.925506
0.899384
0.873139
0.846765
0.820251
0.793587
0.766758
0.739748
0.712535
0.685093
0.657393
0.629397
0.601059
0.572323
0.543119
0.513355
0.482909
0.451613
0.419222
0.385355
0.34939
0.310104
0.264681
0.204585
0.0924846
0.175268
0.400127
0.530017
0.633693
0.72678
0.814131
0.897665
0.978252
1.05633
1.13215
1.20585
1.27756
1.34734
1.41525
1.48137
1.54571
1.60833
1.66924
1.72846
1.786
1.84188
1.89609
1.94863
1.9995
2.04869
2.0962
2.14201
2.18612
2.22854
2.26925
2.30826
2.34556
2.38117
2.41509
2.44734
2.47792
2.50687
2.53419
2.55992
2.58408
2.6067
2.62782
2.64747
2.66569
2.6825
2.69797
2.71212
2.725
2.73664
2.7471
2.75641
2.76461
2.77175
2.77787
2.78301
2.78722
2.79052
2.79296
2.79458
2.79541
2.7955
2.79486
2.79355
2.79158
2.78899
2.78581
2.78206
2.77778
2.77298
2.7677
2.76195
2.75576
2.74914
2.74213
2.73473
2.72696
2.71884
2.71039
2.70162
2.69254
2.68317
2.67352
2.66359
2.65341
2.64297
2.6323
2.62139
2.61025
2.5989
2.58734
2.57557
2.56359
2.55143
2.53907
2.52653
2.5138
2.50089
2.4878
2.47454
2.46111
2.4475
2.43372
2.41978
2.40566
2.39138
2.37693
2.36232
2.34753
2.33258
2.31746
2.30217
2.28671
2.27108
2.25528
2.23931
2.22316
2.20684
2.19034
2.17366
2.1568
2.13976
2.12254
2.10513
2.08754
2.06976
2.0518
2.03364
2.01529
1.99675
1.97802
1.95909
1.93997
1.92066
1.90114
1.88144
1.86153
1.84143
1.82114
1.80065
1.77996
1.75908
1.73801
1.71674
1.69529
1.67365
1.65182
1.6298
1.60761
1.58523
1.56268
1.53996
1.51706
1.494
1.47077
1.44738
1.42384
1.40014
1.37629
1.3523
1.32817
1.3039
1.27949
1.25496
1.2303
1.20552
1.18062
1.1556
1.13047
1.10523
1.07988
1.05442
1.02886
1.00318
0.977401
0.95151
0.925505
0.899383
0.873139
0.846765
0.820251
0.793587
0.766758
0.739748
0.712535
0.685093
0.657393
0.629396
0.601059
0.572323
0.543119
0.513355
0.482909
0.451613
0.419222
0.385355
0.34939
0.310104
0.264681
0.204586
0.0924846
0.197468
0.449036
0.592366
0.705277
0.805727
0.899437
0.98872
1.07464
1.15774
1.2383
1.3165
1.39247
1.46629
1.53802
1.60774
1.6755
1.74133
1.80527
1.86737
1.92763
1.98608
2.04274
2.09761
2.1507
2.202
2.25153
2.29928
2.34526
2.38945
2.43187
2.47252
2.5114
2.54851
2.58388
2.6175
2.6494
2.6796
2.70812
2.73498
2.76021
2.78384
2.80591
2.82644
2.84549
2.86307
2.87924
2.89404
2.9075
2.91968
2.9306
2.94033
2.9489
2.95635
2.96273
2.96808
2.97245
2.97587
2.97838
2.98002
2.98084
2.98086
2.98013
2.97868
2.97654
2.97374
2.97032
2.9663
2.96171
2.95658
2.95093
2.94479
2.93818
2.93113
2.92364
2.91575
2.90747
2.89882
2.88982
2.88047
2.8708
2.86081
2.85053
2.83996
2.82911
2.818
2.80663
2.79502
2.78316
2.77107
2.75876
2.74622
2.73348
2.72053
2.70737
2.69401
2.68047
2.66672
2.65279
2.63868
2.62438
2.6099
2.59524
2.5804
2.56538
2.55018
2.53481
2.51926
2.50353
2.48762
2.47154
2.45528
2.43884
2.42222
2.40541
2.38843
2.37126
2.35391
2.33637
2.31864
2.30072
2.28261
2.26431
2.24582
2.22713
2.20824
2.18916
2.16987
2.15039
2.1307
2.11081
2.09072
2.07042
2.04991
2.0292
2.00829
1.98716
1.96583
1.9443
1.92256
1.90061
1.87847
1.85611
1.83356
1.81081
1.78785
1.7647
1.74136
1.71783
1.6941
1.67019
1.64609
1.62182
1.59737
1.57274
1.54794
1.52298
1.49785
1.47257
1.44713
1.42154
1.39581
1.36993
1.34391
1.31776
1.29147
1.26506
1.23852
1.21186
1.18508
1.15818
1.13117
1.10404
1.07679
1.04943
1.02194
0.994343
0.966618
0.938764
0.910774
0.88264
0.854351
0.825895
0.797256
0.768413
0.739343
0.710017
0.680399
0.650445
0.620098
0.589286
0.557914
0.525851
0.492913
0.458824
0.423146
0.38514
0.34338
0.2946
0.229036
0.104141
0.19747
0.449037
0.592366
0.705276
0.805727
0.899437
0.98872
1.07464
1.15774
1.2383
1.3165
1.39247
1.46629
1.53802
1.60774
1.67549
1.74133
1.80527
1.86737
1.92763
1.98608
2.04274
2.09761
2.15069
2.202
2.25153
2.29928
2.34526
2.38945
2.43187
2.47252
2.5114
2.54851
2.58388
2.6175
2.6494
2.6796
2.70812
2.73498
2.76021
2.78384
2.80591
2.82644
2.84548
2.86307
2.87924
2.89404
2.9075
2.91967
2.9306
2.94033
2.9489
2.95635
2.96273
2.96808
2.97245
2.97586
2.97838
2.98002
2.98084
2.98086
2.98013
2.97868
2.97654
2.97374
2.97032
2.9663
2.96171
2.95658
2.95093
2.94479
2.93818
2.93113
2.92364
2.91575
2.90747
2.89882
2.88982
2.88047
2.8708
2.86081
2.85053
2.83996
2.82911
2.818
2.80663
2.79501
2.78316
2.77107
2.75876
2.74622
2.73348
2.72052
2.70737
2.69401
2.68046
2.66672
2.65279
2.63868
2.62438
2.6099
2.59524
2.58039
2.56538
2.55018
2.53481
2.51926
2.50353
2.48762
2.47154
2.45528
2.43884
2.42222
2.40541
2.38843
2.37126
2.35391
2.33637
2.31864
2.30072
2.28261
2.26431
2.24582
2.22713
2.20824
2.18916
2.16987
2.15039
2.1307
2.11081
2.09071
2.07042
2.04991
2.0292
2.00829
1.98716
1.96583
1.9443
1.92256
1.90061
1.87847
1.85611
1.83356
1.81081
1.78785
1.7647
1.74136
1.71783
1.6941
1.67019
1.64609
1.62182
1.59737
1.57274
1.54794
1.52298
1.49785
1.47257
1.44713
1.42154
1.39581
1.36993
1.34391
1.31776
1.29147
1.26506
1.23852
1.21186
1.18508
1.15818
1.13117
1.10403
1.07679
1.04942
1.02194
0.994343
0.966618
0.938764
0.910774
0.88264
0.854351
0.825895
0.797256
0.768413
0.739343
0.710017
0.680399
0.650445
0.620098
0.589286
0.557914
0.525851
0.492913
0.458824
0.423146
0.385141
0.34338
0.294601
0.229037
0.104141
0.219672
0.496857
0.653437
0.775564
0.88335
0.983318
1.07816
1.16913
1.25689
1.34178
1.42402
1.50375
1.58108
1.65608
1.72884
1.79942
1.86788
1.93426
1.99863
2.06101
2.12144
2.17995
2.23655
2.29128
2.34413
2.39513
2.44427
2.49157
2.53703
2.58067
2.62247
2.66246
2.70065
2.73703
2.77164
2.80449
2.83558
2.86496
2.89264
2.91865
2.94301
2.96577
2.98696
3.00661
3.02477
3.04147
3.05675
3.07066
3.08323
3.09452
3.10457
3.11342
3.12111
3.12769
3.13321
3.1377
3.14121
3.14378
3.14545
3.14625
3.14623
3.14543
3.14387
3.14159
3.13863
3.13502
3.13078
3.12595
3.12055
3.11461
3.10816
3.10121
3.0938
3.08594
3.07765
3.06895
3.05987
3.05041
3.04059
3.03043
3.01994
3.00914
2.99804
2.98664
2.97497
2.96302
2.95082
2.93836
2.92566
2.91272
2.89955
2.88615
2.87254
2.85871
2.84468
2.83044
2.81599
2.80135
2.78651
2.77148
2.75626
2.74085
2.72525
2.70946
2.69349
2.67733
2.66098
2.64445
2.62773
2.61082
2.59373
2.57645
2.55898
2.54132
2.52347
2.50543
2.4872
2.46876
2.45014
2.43131
2.41228
2.39306
2.37363
2.35399
2.33415
2.31411
2.29385
2.27339
2.25271
2.23182
2.21072
2.18941
2.16788
2.14613
2.12417
2.102
2.07961
2.05701
2.03419
2.01115
1.9879
1.96444
1.94077
1.91689
1.89281
1.86851
1.84401
1.81932
1.79442
1.76932
1.74404
1.71856
1.69289
1.66705
1.64102
1.61482
1.58844
1.5619
1.53519
1.50832
1.48129
1.45412
1.42679
1.39932
1.3717
1.34395
1.31606
1.28804
1.25989
1.23161
1.20321
1.17468
1.14602
1.11724
1.08833
1.05929
1.03013
1.00082
0.971373
0.941775
0.912018
0.88209
0.851975
0.821655
0.791108
0.760306
0.729212
0.697784
0.665962
0.633673
0.600813
0.56724
0.53275
0.497031
0.459586
0.41956
0.375333
0.323232
0.252343
0.115231
0.219674
0.496858
0.653437
0.775563
0.88335
0.983317
1.07816
1.16913
1.25689
1.34178
1.42402
1.50375
1.58108
1.65608
1.72884
1.79942
1.86788
1.93426
1.99863
2.06101
2.12144
2.17995
2.23655
2.29128
2.34413
2.39513
2.44427
2.49157
2.53703
2.58066
2.62247
2.66246
2.70065
2.73703
2.77164
2.80448
2.83558
2.86496
2.89264
2.91865
2.94301
2.96577
2.98696
3.00661
3.02477
3.04147
3.05675
3.07066
3.08323
3.09452
3.10457
3.11342
3.12111
3.12769
3.13321
3.1377
3.14121
3.14378
3.14545
3.14625
3.14623
3.14543
3.14387
3.14159
3.13863
3.13502
3.13078
3.12595
3.12055
3.11461
3.10816
3.10121
3.0938
3.08594
3.07765
3.06895
3.05986
3.0504
3.04059
3.03043
3.01994
3.00914
2.99804
2.98664
2.97497
2.96302
2.95082
2.93836
2.92566
2.91272
2.89955
2.88615
2.87254
2.85871
2.84468
2.83043
2.81599
2.80135
2.78651
2.77148
2.75626
2.74085
2.72525
2.70946
2.69349
2.67733
2.66098
2.64445
2.62773
2.61082
2.59373
2.57645
2.55898
2.54132
2.52347
2.50543
2.48719
2.46876
2.45014
2.43131
2.41228
2.39306
2.37363
2.35399
2.33415
2.31411
2.29385
2.27339
2.25271
2.23182
2.21072
2.18941
2.16788
2.14613
2.12417
2.102
2.07961
2.057
2.03418
2.01115
1.9879
1.96444
1.94077
1.91689
1.89281
1.86851
1.84401
1.81931
1.79442
1.76932
1.74404
1.71856
1.69289
1.66705
1.64102
1.61482
1.58844
1.5619
1.53519
1.50832
1.48129
1.45412
1.42679
1.39932
1.3717
1.34395
1.31606
1.28804
1.25989
1.23161
1.20321
1.17468
1.14602
1.11724
1.08833
1.05929
1.03013
1.00082
0.971373
0.941775
0.912018
0.88209
0.851975
0.821655
0.791108
0.760306
0.729212
0.697784
0.665962
0.633673
0.600813
0.56724
0.53275
0.497031
0.459587
0.41956
0.375333
0.323233
0.252344
0.115231
0.241492
0.544031
0.713738
0.845057
0.960158
1.06631
1.16657
1.26239
1.35453
1.44343
1.52934
1.61243
1.69284
1.77066
1.84599
1.91892
1.98952
2.05785
2.124
2.188
2.24991
2.30978
2.36764
2.42352
2.47745
2.52944
2.57953
2.62772
2.67402
2.71845
2.76102
2.80174
2.84062
2.87769
2.91294
2.94641
2.97811
3.00806
3.03629
3.06283
3.0877
3.11094
3.13258
3.15266
3.17122
3.18829
3.20392
3.21814
3.23101
3.24256
3.25285
3.2619
3.26977
3.27651
3.28215
3.28674
3.29032
3.29293
3.29462
3.29541
3.29536
3.2945
3.29286
3.29048
3.2874
3.28364
3.27923
3.27421
3.2686
3.26244
3.25573
3.24852
3.24083
3.23266
3.22406
3.21502
3.20559
3.19576
3.18557
3.17501
3.16412
3.15289
3.14135
3.12951
3.11738
3.10496
3.09227
3.07931
3.06611
3.05265
3.03895
3.02502
3.01085
2.99647
2.98186
2.96704
2.95201
2.93677
2.92133
2.90568
2.88984
2.87379
2.85755
2.84111
2.82448
2.80765
2.79063
2.77341
2.756
2.7384
2.7206
2.7026
2.68441
2.66602
2.64743
2.62864
2.60964
2.59045
2.57105
2.55144
2.53163
2.5116
2.49137
2.47092
2.45026
2.42939
2.4083
2.38699
2.36546
2.34371
2.32174
2.29955
2.27713
2.25449
2.23163
2.20854
2.18523
2.1617
2.13794
2.11396
2.08976
2.06534
2.04069
2.01583
1.99075
1.96546
1.93995
1.91424
1.88831
1.86218
1.83585
1.80931
1.78258
1.75566
1.72855
1.70125
1.67377
1.64611
1.61828
1.59027
1.5621
1.53376
1.50526
1.47661
1.4478
1.41885
1.38975
1.3605
1.33111
1.30158
1.27192
1.24212
1.21218
1.18211
1.1519
1.12155
1.09105
1.06042
1.02963
0.998686
0.967576
0.936287
0.904808
0.87312
0.841201
0.809024
0.776554
0.743744
0.710534
0.676845
0.642564
0.607537
0.571535
0.534209
0.495003
0.452954
0.406251
0.350834
0.274709
0.125877
0.241494
0.544032
0.713738
0.845057
0.960157
1.06631
1.16657
1.26239
1.35453
1.44343
1.52934
1.61243
1.69284
1.77066
1.84599
1.91892
1.98952
2.05785
2.124
2.188
2.24991
2.30978
2.36764
2.42352
2.47745
2.52944
2.57953
2.62771
2.67402
2.71845
2.76102
2.80174
2.84062
2.87768
2.91294
2.94641
2.97811
3.00806
3.03629
3.06283
3.0877
3.11094
3.13258
3.15266
3.17122
3.18829
3.20392
3.21814
3.23101
3.24256
3.25285
3.2619
3.26977
3.27651
3.28215
3.28674
3.29032
3.29293
3.29461
3.29541
3.29536
3.2945
3.29286
3.29048
3.2874
3.28364
3.27923
3.27421
3.2686
3.26244
3.25573
3.24852
3.24082
3.23266
3.22406
3.21502
3.20559
3.19576
3.18556
3.17501
3.16412
3.15289
3.14135
3.12951
3.11738
3.10496
3.09227
3.07931
3.0661
3.05265
3.03895
3.02502
3.01085
2.99647
2.98186
2.96704
2.95201
2.93677
2.92133
2.90568
2.88983
2.87379
2.85755
2.84111
2.82448
2.80765
2.79063
2.77341
2.756
2.7384
2.7206
2.7026
2.68441
2.66602
2.64743
2.62864
2.60964
2.59045
2.57105
2.55144
2.53163
2.5116
2.49137
2.47092
2.45026
2.42939
2.4083
2.38699
2.36546
2.34371
2.32174
2.29954
2.27713
2.25449
2.23163
2.20854
2.18523
2.1617
2.13794
2.11396
2.08976
2.06534
2.04069
2.01583
1.99075
1.96546
1.93995
1.91424
1.88831
1.86218
1.83585
1.80931
1.78258
1.75566
1.72855
1.70125
1.67377
1.64611
1.61828
1.59027
1.5621
1.53376
1.50526
1.47661
1.4478
1.41885
1.38974
1.3605
1.33111
1.30158
1.27192
1.24212
1.21218
1.18211
1.1519
1.12155
1.09105
1.06042
1.02963
0.998686