/*--------------------------------*- C++ -*----------------------------------*\
  =========                 |
  \\      /  F ield         | OpenFOAM: The Open Source CFD Toolbox
   \\    /   O peration     | Website:  https://openfoam.org
    \\  /    A nd           | Version:  8
     \\/     M anipulation  |
\*---------------------------------------------------------------------------*/
FoamFile
{
    version     2.0;
    format      ascii;
    class       surfaceScalarField;
    location    "3100";
    object      phi;
}
// * * * * * * * * * * * * * * * * * * * * * * * * * * * * * * * * * * * * * //

dimensions      [1 0 -1 0 0 0 0];

internalField   nonuniform List<scalar> 
119360
(
-3.46101e-07
1.82111e-12
3.46097e-07
-6.01441e-07
-7.32353e-13
2.55326e-07
-7.16173e-07
-1.77602e-12
1.14702e-07
-7.04672e-07
-1.42275e-12
-1.15212e-08
-6.01151e-07
-1.02174e-12
-1.03538e-07
-4.35344e-07
-9.10325e-13
-1.65822e-07
-2.28891e-07
-7.09208e-13
-2.06467e-07
2.99521e-09
-3.10721e-13
-2.31898e-07
2.49037e-07
1.06362e-13
-2.46055e-07
5.01113e-07
3.4406e-13
-2.52089e-07
7.54099e-07
3.59714e-13
-2.53001e-07
1.00432e-06
2.19632e-13
-2.50237e-07
1.24918e-06
2.19289e-14
-2.44877e-07
1.48682e-06
-1.59204e-13
-2.37658e-07
1.71591e-06
-2.85464e-13
-2.29107e-07
1.93551e-06
-3.48331e-13
-2.19613e-07
2.14496e-06
-3.57296e-13
-2.09469e-07
2.34385e-06
-3.28208e-13
-1.989e-07
2.53191e-06
-2.77027e-13
-1.8808e-07
2.70905e-06
-2.16408e-13
-1.77148e-07
2.87526e-06
-1.55152e-13
-1.66217e-07
3.03062e-06
-9.87803e-14
-1.55376e-07
3.17531e-06
-4.98472e-14
-1.44697e-07
3.30954e-06
-9.65714e-15
-1.3424e-07
3.43358e-06
2.2123e-14
-1.24053e-07
3.54774e-06
4.61316e-14
-1.14174e-07
3.65237e-06
6.34094e-14
-1.04633e-07
3.74781e-06
7.52888e-14
-9.54535e-08
3.83445e-06
8.28939e-14
-8.66539e-08
3.91269e-06
8.72376e-14
-7.82461e-08
3.98292e-06
8.93054e-14
-7.02379e-08
4.04554e-06
8.96663e-14
-6.26333e-08
4.10097e-06
8.90557e-14
-5.54326e-08
4.14959e-06
8.78067e-14
-4.86332e-08
4.19181e-06
8.60997e-14
-4.22297e-08
4.22802e-06
8.42679e-14
-3.62147e-08
4.25859e-06
8.23111e-14
-3.05788e-08
4.28389e-06
8.02989e-14
-2.53108e-08
4.30428e-06
7.84254e-14
-2.03985e-08
4.3201e-06
7.65796e-14
-1.58286e-08
4.33168e-06
7.49004e-14
-1.1587e-08
4.33933e-06
7.31796e-14
-7.65914e-09
4.34335e-06
7.16808e-14
-4.03017e-09
4.34402e-06
7.01543e-14
-6.83719e-10
4.34162e-06
6.8822e-14
2.39551e-09
4.33639e-06
6.77257e-14
5.22214e-09
4.32857e-06
6.66987e-14
7.81181e-09
4.31838e-06
6.57411e-14
1.01795e-08
4.30604e-06
6.49501e-14
1.23397e-08
4.29172e-06
6.42424e-14
1.43062e-08
4.27562e-06
6.36456e-14
1.6092e-08
4.25791e-06
6.3257e-14
1.771e-08
4.23873e-06
6.28962e-14
1.91723e-08
4.21823e-06
6.26186e-14
2.04903e-08
4.19655e-06
6.24937e-14
2.16751e-08
4.1738e-06
6.24382e-14
2.27369e-08
4.15011e-06
6.24937e-14
2.36854e-08
4.12557e-06
6.26186e-14
2.45297e-08
4.10029e-06
6.28268e-14
2.52783e-08
4.07434e-06
6.3146e-14
2.59391e-08
4.04781e-06
6.35207e-14
2.65195e-08
4.02078e-06
6.40341e-14
2.70261e-08
3.99331e-06
6.4617e-14
2.74655e-08
3.96546e-06
6.52831e-14
2.78434e-08
3.93729e-06
6.59353e-14
2.81653e-08
3.90884e-06
6.66847e-14
2.84361e-08
3.88018e-06
6.74896e-14
2.86604e-08
3.85133e-06
6.83639e-14
2.88424e-08
3.82233e-06
6.91965e-14
2.89861e-08
3.79323e-06
7.00847e-14
2.9095e-08
3.76405e-06
7.10145e-14
2.91724e-08
3.73482e-06
7.19998e-14
2.92214e-08
3.70557e-06
7.29018e-14
2.92448e-08
3.67632e-06
7.39149e-14
2.92452e-08
3.64709e-06
7.48308e-14
2.9225e-08
3.6179e-06
7.57467e-14
2.91863e-08
3.58876e-06
7.67875e-14
2.91313e-08
3.55969e-06
7.77867e-14
2.90617e-08
3.5307e-06
7.87859e-14
2.89794e-08
3.50181e-06
7.97156e-14
2.8886e-08
3.47302e-06
8.07287e-14
2.8783e-08
3.44434e-06
8.15891e-14
2.86718e-08
3.41578e-06
8.25189e-14
2.85538e-08
3.38734e-06
8.34903e-14
2.84301e-08
3.35903e-06
8.44062e-14
2.83019e-08
3.33086e-06
8.53082e-14
2.81704e-08
3.30281e-06
8.61825e-14
2.80364e-08
3.2749e-06
8.70706e-14
2.79011e-08
3.24713e-06
8.79727e-14
2.77653e-08
3.21949e-06
8.87359e-14
2.76298e-08
3.19199e-06
8.96102e-14
2.74954e-08
3.16462e-06
9.03873e-14
2.7363e-08
3.13738e-06
9.11922e-14
2.72332e-08
3.11027e-06
9.20387e-14
2.71068e-08
3.08327e-06
9.27881e-14
2.69844e-08
3.0564e-06
9.34819e-14
2.68666e-08
3.02964e-06
9.42174e-14
2.6754e-08
3.00298e-06
9.49946e-14
2.66473e-08
2.97643e-06
9.57439e-14
2.65469e-08
2.94997e-06
9.64517e-14
2.64534e-08
2.92359e-06
9.71455e-14
2.63673e-08
2.8973e-06
9.78671e-14
2.62892e-08
2.87107e-06
9.85888e-14
2.62194e-08
2.8449e-06
9.92549e-14
2.61584e-08
2.81879e-06
1.00018e-13
2.61067e-08
2.79272e-06
1.00698e-13
2.60648e-08
2.76668e-06
1.01364e-13
2.6033e-08
2.74066e-06
1.021e-13
2.60117e-08
2.71465e-06
1.02738e-13
2.60014e-08
2.68864e-06
1.0346e-13
2.60024e-08
2.66262e-06
1.04181e-13
2.60151e-08
2.63657e-06
1.04903e-13
2.60399e-08
2.61048e-06
1.05611e-13
2.60772e-08
2.58435e-06
1.06305e-13
2.61273e-08
2.55815e-06
1.07137e-13
2.61905e-08
2.53187e-06
1.07831e-13
2.62672e-08
2.50551e-06
1.08608e-13
2.63578e-08
2.47904e-06
1.0933e-13
2.64624e-08
2.45245e-06
1.10135e-13
2.65816e-08
2.42573e-06
1.11051e-13
2.67155e-08
2.39885e-06
1.11883e-13
2.68644e-08
2.37182e-06
1.12688e-13
2.70287e-08
2.3446e-06
1.13576e-13
2.72086e-08
2.31719e-06
1.1452e-13
2.74044e-08
2.28956e-06
1.15436e-13
2.76163e-08
2.26171e-06
1.16491e-13
2.78445e-08
2.23361e-06
1.17573e-13
2.80893e-08
2.20525e-06
1.18683e-13
2.83508e-08
2.17662e-06
1.19821e-13
2.86293e-08
2.14768e-06
1.20959e-13
2.8925e-08
2.11844e-06
1.22264e-13
2.92378e-08
2.08886e-06
1.2354e-13
2.9568e-08
2.05893e-06
1.24845e-13
2.99156e-08
2.02865e-06
1.2626e-13
3.02807e-08
1.99797e-06
1.27676e-13
3.06634e-08
1.9669e-06
1.29202e-13
3.10635e-08
1.93541e-06
1.30757e-13
3.14812e-08
1.90349e-06
1.32478e-13
3.19161e-08
1.87111e-06
1.34143e-13
3.23684e-08
1.83826e-06
1.36003e-13
3.28377e-08
1.80493e-06
1.37862e-13
3.33239e-08
1.77109e-06
1.39916e-13
3.38266e-08
1.73674e-06
1.41998e-13
3.43456e-08
1.70185e-06
1.44107e-13
3.48804e-08
1.66641e-06
1.46383e-13
3.54305e-08
1.6304e-06
1.4877e-13
3.59955e-08
1.59382e-06
1.51268e-13
3.65748e-08
1.55664e-06
1.53849e-13
3.71675e-08
1.51886e-06
1.56597e-13
3.7773e-08
1.48046e-06
1.59567e-13
3.83904e-08
1.44143e-06
1.62676e-13
3.90186e-08
1.40176e-06
1.66006e-13
3.96566e-08
1.36145e-06
1.6942e-13
4.03032e-08
1.32048e-06
1.73001e-13
4.0957e-08
1.27886e-06
1.76914e-13
4.16165e-08
1.23656e-06
1.81133e-13
4.22801e-08
1.19361e-06
1.85491e-13
4.2946e-08
1.14998e-06
1.90209e-13
4.36122e-08
1.1057e-06
1.95177e-13
4.42764e-08
1.06075e-06
2.00368e-13
4.49362e-08
1.01515e-06
2.05752e-13
4.5589e-08
9.68905e-07
2.11276e-13
4.62318e-08
9.22032e-07
2.17049e-13
4.68612e-08
8.74546e-07
2.22739e-13
4.74736e-08
8.26468e-07
2.28373e-13
4.80651e-08
7.77824e-07
2.33813e-13
4.8631e-08
7.28645e-07
2.38948e-13
4.91665e-08
6.78965e-07
2.43638e-13
4.96658e-08
6.28829e-07
2.47552e-13
5.01228e-08
5.78285e-07
2.51105e-13
5.05303e-08
5.2739e-07
2.54269e-13
5.08805e-08
4.76211e-07
2.57377e-13
5.11643e-08
4.24825e-07
2.61208e-13
5.13717e-08
3.73319e-07
2.66037e-13
5.1491e-08
3.21794e-07
2.73143e-13
5.1509e-08
2.70368e-07
2.83607e-13
5.14106e-08
2.19173e-07
2.98456e-13
5.11784e-08
1.68365e-07
3.19078e-13
5.07921e-08
1.18119e-07
3.46279e-13
5.02281e-08
6.86448e-08
3.8014e-13
4.94571e-08
2.01808e-08
4.19831e-13
4.84458e-08
-2.69778e-08
4.60021e-13
4.71397e-08
-7.24782e-08
4.96159e-13
4.54807e-08
-1.15926e-07
5.27745e-13
4.34275e-08
-1.56883e-07
5.48006e-13
4.0936e-08
-1.94839e-07
5.45786e-13
3.79342e-08
-2.2918e-07
5.10592e-13
3.43177e-08
-2.59181e-07
4.35985e-13
2.9977e-08
-2.83983e-07
3.24685e-13
2.47782e-08
-3.02564e-07
1.98175e-13
1.85568e-08
-3.13711e-07
1.00642e-13
1.11224e-08
-3.15988e-07
9.13159e-14
2.25245e-09
-3.07774e-07
2.11775e-13
-8.23812e-09
-2.8731e-07
4.43978e-13
-2.04885e-08
-2.52822e-07
6.72407e-13
-3.45139e-08
-2.03004e-07
7.31637e-13
-4.9847e-08
-1.38272e-07
6.03184e-13
-6.47662e-08
-6.36888e-08
5.8642e-13
-7.46229e-08
-2.39053e-09
8.96616e-13
-6.13435e-08
1.57052e-12
-2.45172e-09
-3.46124e-07
3.46089e-07
-6.01447e-07
2.55324e-07
-7.16169e-07
1.14701e-07
-7.04665e-07
-1.15241e-08
-6.01145e-07
-1.03542e-07
-4.35338e-07
-1.65825e-07
-2.28884e-07
-2.0647e-07
3.00167e-09
-2.31901e-07
2.49043e-07
-2.46057e-07
5.01117e-07
-2.52092e-07
7.54102e-07
-2.53004e-07
1.00432e-06
-2.5024e-07
1.24918e-06
-2.4488e-07
1.48682e-06
-2.37661e-07
1.71591e-06
-2.2911e-07
1.93551e-06
-2.19616e-07
2.14496e-06
-2.09471e-07
2.34385e-06
-1.98902e-07
2.53191e-06
-1.88081e-07
2.70905e-06
-1.7715e-07
2.87526e-06
-1.66219e-07
3.03062e-06
-1.55378e-07
3.17531e-06
-1.44699e-07
3.30954e-06
-1.34242e-07
3.43358e-06
-1.24054e-07
3.54774e-06
-1.14175e-07
3.65236e-06
-1.04634e-07
3.74781e-06
-9.54549e-08
3.83445e-06
-8.66552e-08
3.91269e-06
-7.82474e-08
3.98292e-06
-7.02393e-08
4.04554e-06
-6.26347e-08
4.10096e-06
-5.54339e-08
4.14959e-06
-4.86345e-08
4.19181e-06
-4.2231e-08
4.22801e-06
-3.6216e-08
4.25858e-06
-3.058e-08
4.28389e-06
-2.5312e-08
4.30428e-06
-2.03998e-08
4.3201e-06
-1.58298e-08
4.33167e-06
-1.15882e-08
4.33932e-06
-7.66035e-09
4.34335e-06
-4.03137e-09
4.34402e-06
-6.84908e-10
4.34162e-06
2.39433e-09
4.33639e-06
5.22097e-09
4.32857e-06
7.81064e-09
4.31838e-06
1.01784e-08
4.30603e-06
1.23386e-08
4.29172e-06
1.4305e-08
4.27562e-06
1.60909e-08
4.2579e-06
1.77089e-08
4.23872e-06
1.91712e-08
4.21823e-06
2.04892e-08
4.19654e-06
2.1674e-08
4.1738e-06
2.27358e-08
4.15011e-06
2.36843e-08
4.12557e-06
2.45287e-08
4.10029e-06
2.52773e-08
4.07434e-06
2.59381e-08
4.04781e-06
2.65184e-08
4.02078e-06
2.70251e-08
3.99331e-06
2.74645e-08
3.96546e-06
2.78424e-08
3.93729e-06
2.81642e-08
3.90884e-06
2.8435e-08
3.88017e-06
2.86593e-08
3.85133e-06
2.88413e-08
3.82233e-06
2.8985e-08
3.79323e-06
2.90939e-08
3.76405e-06
2.91714e-08
3.73482e-06
2.92204e-08
3.70557e-06
2.92438e-08
3.67632e-06
2.92442e-08
3.64709e-06
2.92239e-08
3.61789e-06
2.91853e-08
3.58876e-06
2.91302e-08
3.55969e-06
2.90607e-08
3.5307e-06
2.89784e-08
3.50181e-06
2.8885e-08
3.47302e-06
2.87819e-08
3.44434e-06
2.86708e-08
3.41578e-06
2.85527e-08
3.38734e-06
2.8429e-08
3.35903e-06
2.83009e-08
3.33085e-06
2.81693e-08
3.30281e-06
2.80354e-08
3.2749e-06
2.79001e-08
3.24713e-06
2.77642e-08
3.21949e-06
2.76287e-08
3.19199e-06
2.74944e-08
3.16462e-06
2.73619e-08
3.13738e-06
2.72322e-08
3.11027e-06
2.71057e-08
3.08327e-06
2.69833e-08
3.0564e-06
2.68655e-08
3.02964e-06
2.6753e-08
3.00298e-06
2.66462e-08
2.97643e-06
2.65458e-08
2.94997e-06
2.64523e-08
2.92359e-06
2.63663e-08
2.8973e-06
2.62881e-08
2.87107e-06
2.62183e-08
2.8449e-06
2.61573e-08
2.81879e-06
2.61056e-08
2.79272e-06
2.60637e-08
2.76668e-06
2.60318e-08
2.74066e-06
2.60106e-08
2.71465e-06
2.60002e-08
2.68864e-06
2.60013e-08
2.66262e-06
2.6014e-08
2.63657e-06
2.60388e-08
2.61048e-06
2.60761e-08
2.58435e-06
2.61261e-08
2.55815e-06
2.61894e-08
2.53187e-06
2.62661e-08
2.50551e-06
2.63566e-08
2.47904e-06
2.64613e-08
2.45245e-06
2.65804e-08
2.42573e-06
2.67143e-08
2.39885e-06
2.68633e-08
2.37182e-06
2.70276e-08
2.3446e-06
2.72074e-08
2.31719e-06
2.74032e-08
2.28956e-06
2.76151e-08
2.26171e-06
2.78433e-08
2.23361e-06
2.80881e-08
2.20525e-06
2.83497e-08
2.17662e-06
2.86282e-08
2.14768e-06
2.89237e-08
2.11844e-06
2.92366e-08
2.08886e-06
2.95668e-08
2.05893e-06
2.99144e-08
2.02865e-06
3.02795e-08
1.99797e-06
3.06621e-08
1.9669e-06
3.10623e-08
1.93541e-06
3.14799e-08
1.90349e-06
3.19149e-08
1.87111e-06
3.23671e-08
1.83826e-06
3.28364e-08
1.80493e-06
3.33226e-08
1.77109e-06
3.38253e-08
1.73674e-06
3.43442e-08
1.70185e-06
3.4879e-08
1.66641e-06
3.54292e-08
1.6304e-06
3.59942e-08
1.59382e-06
3.65734e-08
1.55664e-06
3.71661e-08
1.51886e-06
3.77716e-08
1.48046e-06
3.83889e-08
1.44143e-06
3.90172e-08
1.40176e-06
3.96552e-08
1.36145e-06
4.03017e-08
1.32048e-06
4.09555e-08
1.27886e-06
4.1615e-08
1.23657e-06
4.22786e-08
1.19361e-06
4.29445e-08
1.14998e-06
4.36106e-08
1.1057e-06
4.42748e-08
1.06075e-06
4.49346e-08
1.01515e-06
4.55874e-08
9.68905e-07
4.62301e-08
9.22032e-07
4.68595e-08
8.74546e-07
4.74719e-08
8.26469e-07
4.80633e-08
7.77825e-07
4.86292e-08
7.28645e-07
4.91646e-08
6.78966e-07
4.96639e-08
6.2883e-07
5.01209e-08
5.78285e-07
5.05284e-08
5.27391e-07
5.08785e-08
4.76212e-07
5.11623e-08
4.24825e-07
5.13696e-08
3.73319e-07
5.14888e-08
3.21795e-07
5.15068e-08
2.70368e-07
5.14083e-08
2.19174e-07
5.11761e-08
1.68365e-07
5.07898e-08
1.1812e-07
5.02257e-08
6.86455e-08
4.94546e-08
2.01814e-08
4.84433e-08
-2.69772e-08
4.7137e-08
-7.24775e-08
4.5478e-08
-1.15925e-07
4.34246e-08
-1.56883e-07
4.09331e-08
-1.94839e-07
3.79312e-08
-2.2918e-07
3.43146e-08
-2.5918e-07
2.99738e-08
-2.83983e-07
2.47749e-08
-3.02564e-07
1.85534e-08
-3.13711e-07
1.11189e-08
-3.15988e-07
2.24901e-09
-3.07774e-07
-8.24155e-09
-2.8731e-07
-2.0492e-08
-2.52823e-07
-3.45178e-08
-2.03006e-07
-4.98518e-08
-1.38276e-07
-6.47724e-08
-6.36933e-08
-7.46301e-08
-2.39758e-09
-6.13525e-08
-2.46688e-09
-2.28728e-07
1.79497e-12
5.74721e-07
-2.7725e-07
3.50335e-13
3.03805e-07
-2.46529e-07
3.19907e-14
8.39602e-08
-1.64825e-07
-1.86419e-13
-9.32415e-08
-4.20404e-08
-2.34179e-13
-2.26338e-07
1.1346e-07
-1.87911e-13
-3.21336e-07
2.93294e-07
-8.4126e-14
-3.86313e-07
4.90135e-07
1.7494e-14
-4.28752e-07
6.98064e-07
7.2672e-14
-4.53997e-07
9.12359e-07
7.28386e-14
-4.66399e-07
1.12907e-06
3.13301e-14
-4.6973e-07
1.34516e-06
-2.65611e-14
-4.66345e-07
1.55829e-06
-7.97963e-14
-4.58027e-07
1.76668e-06
-1.16815e-13
-4.46057e-07
1.96895e-06
-1.34593e-13
-4.3139e-07
2.16407e-06
-1.35779e-13
-4.14751e-07
2.35128e-06
-1.25371e-13
-3.96696e-07
2.53004e-06
-1.08482e-13
-3.77664e-07
2.69994e-06
-8.92366e-14
-3.58e-07
2.86077e-06
-7.04565e-14
-3.37983e-07
3.01238e-06
-5.3817e-14
-3.17839e-07
3.15475e-06
-4.00919e-14
-2.97752e-07
3.28791e-06
-2.94372e-14
-2.77873e-07
3.41199e-06
-2.16968e-14
-2.58325e-07
3.52714e-06
-1.64024e-14
-2.39209e-07
3.63356e-06
-1.30926e-14
-2.20609e-07
3.73151e-06
-1.13093e-14
-2.02589e-07
3.82125e-06
-1.05945e-14
-1.85203e-07
3.90307e-06
-1.0591e-14
-1.6849e-07
3.9773e-06
-1.10108e-14
-1.5248e-07
4.04425e-06
-1.16249e-14
-1.37194e-07
4.10425e-06
-1.23292e-14
-1.22644e-07
4.15764e-06
-1.29641e-14
-1.08835e-07
4.20477e-06
-1.35157e-14
-9.57664e-08
4.24596e-06
-1.39633e-14
-8.34318e-08
4.28156e-06
-1.42929e-14
-7.18202e-08
4.31189e-06
-1.45184e-14
-6.09168e-08
4.33727e-06
-1.46745e-14
-5.07033e-08
4.35802e-06
-1.47404e-14
-4.11587e-08
4.37445e-06
-1.47682e-14
-3.22599e-08
4.38683e-06
-1.47092e-14
-2.39819e-08
4.39547e-06
-1.46571e-14
-1.62984e-08
4.40061e-06
-1.45565e-14
-9.18218e-09
4.40252e-06
-1.44004e-14
-2.60518e-09
4.40145e-06
-1.42547e-14
3.46039e-09
4.39762e-06
-1.41818e-14
9.04244e-09
4.39126e-06
-1.40673e-14
1.41692e-08
4.38256e-06
-1.3932e-14
1.88681e-08
4.37173e-06
-1.37828e-14
2.3166e-08
4.35894e-06
-1.36302e-14
2.70885e-08
4.34437e-06
-1.34636e-14
3.06607e-08
4.32816e-06
-1.3304e-14
3.39066e-08
4.31048e-06
-1.3141e-14
3.6849e-08
4.29145e-06
-1.29814e-14
3.95098e-08
4.27121e-06
-1.28183e-14
4.19098e-08
4.24987e-06
-1.26241e-14
4.40686e-08
4.22755e-06
-1.24575e-14
4.60046e-08
4.20434e-06
-1.22494e-14
4.77353e-08
4.18033e-06
-1.20447e-14
4.92769e-08
4.15562e-06
-1.18469e-14
5.06446e-08
4.13028e-06
-1.16353e-14
5.18527e-08
4.10438e-06
-1.14098e-14
5.29144e-08
4.078e-06
-1.11947e-14
5.38418e-08
4.05119e-06
-1.09762e-14
5.46465e-08
4.02401e-06
-1.0768e-14
5.53388e-08
3.99651e-06
-1.05495e-14
5.59286e-08
3.96874e-06
-1.03448e-14
5.64249e-08
3.94074e-06
-1.0154e-14
5.6836e-08
3.91255e-06
-9.95622e-15
5.71695e-08
3.88421e-06
-9.78971e-15
5.74326e-08
3.85574e-06
-9.61625e-15
5.76318e-08
3.82718e-06
-9.44279e-15
5.77731e-08
3.79856e-06
-9.28668e-15
5.78622e-08
3.76989e-06
-9.15139e-15
5.79042e-08
3.74121e-06
-9.02998e-15
5.79038e-08
3.71252e-06
-8.91204e-15
5.78654e-08
3.68386e-06
-8.81144e-15
5.77933e-08
3.65522e-06
-8.71778e-15
5.76911e-08
3.62663e-06
-8.65188e-15
5.75623e-08
3.5981e-06
-8.58598e-15
5.74104e-08
3.56964e-06
-8.54437e-15
5.72382e-08
3.54125e-06
-8.52357e-15
5.70487e-08
3.51296e-06
-8.50277e-15
5.68445e-08
3.48475e-06
-8.49932e-15
5.66282e-08
3.45665e-06
-8.49934e-15
5.6402e-08
3.42864e-06
-8.52017e-15
5.61682e-08
3.40074e-06
-8.54448e-15
5.59287e-08
3.37295e-06
-8.58266e-15
5.56857e-08
3.34527e-06
-8.63125e-15
5.54408e-08
3.3177e-06
-8.70066e-15
5.51958e-08
3.29023e-06
-8.76312e-15
5.49524e-08
3.26288e-06
-8.84294e-15
5.47121e-08
3.23563e-06
-8.9401e-15
5.44764e-08
3.20848e-06
-9.0442e-15
5.42467e-08
3.18143e-06
-9.15177e-15
5.40244e-08
3.15448e-06
-9.26281e-15
5.38106e-08
3.12762e-06
-9.37385e-15
5.36066e-08
3.10085e-06
-9.50224e-15
5.34137e-08
3.07416e-06
-9.64104e-15
5.32328e-08
3.04754e-06
-9.76595e-15
5.30651e-08
3.02099e-06
-9.90475e-15
5.29117e-08
2.9945e-06
-1.00435e-14
5.27734e-08
2.96806e-06
-1.01962e-14
5.26513e-08
2.94166e-06
-1.0335e-14
5.25463e-08
2.9153e-06
-1.04738e-14
5.24593e-08
2.88897e-06
-1.06369e-14
5.23911e-08
2.86265e-06
-1.07896e-14
5.23427e-08
2.83634e-06
-1.09457e-14
5.23147e-08
2.81003e-06
-1.10845e-14
5.23081e-08
2.7837e-06
-1.12441e-14
5.23235e-08
2.75735e-06
-1.13968e-14
5.23618e-08
2.73096e-06
-1.15598e-14
5.24236e-08
2.70452e-06
-1.16952e-14
5.25098e-08
2.67802e-06
-1.18617e-14
5.26209e-08
2.65144e-06
-1.20005e-14
5.27576e-08
2.62478e-06
-1.21428e-14
5.29207e-08
2.59802e-06
-1.22954e-14
5.31108e-08
2.57115e-06
-1.24446e-14
5.33284e-08
2.54415e-06
-1.25834e-14
5.35742e-08
2.51701e-06
-1.27187e-14
5.38488e-08
2.48971e-06
-1.2861e-14
5.41527e-08
2.46225e-06
-1.30033e-14
5.44864e-08
2.4346e-06
-1.31351e-14
5.48505e-08
2.40675e-06
-1.326e-14
5.52455e-08
2.37869e-06
-1.33919e-14
5.56717e-08
2.35039e-06
-1.35098e-14
5.61297e-08
2.32186e-06
-1.36243e-14
5.66198e-08
2.29306e-06
-1.37527e-14
5.71423e-08
2.26398e-06
-1.38533e-14
5.76976e-08
2.23461e-06
-1.39817e-14
5.82859e-08
2.20493e-06
-1.40858e-14
5.89075e-08
2.17493e-06
-1.42107e-14
5.95625e-08
2.14459e-06
-1.43148e-14
6.0251e-08
2.11389e-06
-1.44224e-14
6.09731e-08
2.08282e-06
-1.45369e-14
6.17287e-08
2.05135e-06
-1.46444e-14
6.25177e-08
2.01949e-06
-1.4752e-14
6.33401e-08
1.9872e-06
-1.48595e-14
6.41955e-08
1.95448e-06
-1.49844e-14
6.50836e-08
1.9213e-06
-1.50885e-14
6.60039e-08
1.88766e-06
-1.51926e-14
6.6956e-08
1.85354e-06
-1.52759e-14
6.79392e-08
1.81892e-06
-1.53904e-14
6.89527e-08
1.7838e-06
-1.55084e-14
6.99956e-08
1.74816e-06
-1.56298e-14
7.1067e-08
1.71198e-06
-1.57339e-14
7.21655e-08
1.67525e-06
-1.58518e-14
7.329e-08
1.63797e-06
-1.59525e-14
7.44389e-08
1.60013e-06
-1.60635e-14
7.56105e-08
1.56171e-06
-1.6178e-14
7.68031e-08
1.5227e-06
-1.63029e-14
7.80144e-08
1.48311e-06
-1.6407e-14
7.92422e-08
1.44292e-06
-1.65388e-14
8.04841e-08
1.40213e-06
-1.66533e-14
8.17371e-08
1.36073e-06
-1.67921e-14
8.29982e-08
1.31874e-06
-1.69031e-14
8.4264e-08
1.27615e-06
-1.70349e-14
8.55308e-08
1.23295e-06
-1.71876e-14
8.67946e-08
1.18917e-06
-1.73264e-14
8.80508e-08
1.1448e-06
-1.74929e-14
8.92944e-08
1.09986e-06
-1.76942e-14
9.05201e-08
1.05436e-06
-1.79162e-14
9.1722e-08
1.00831e-06
-1.81938e-14
9.28934e-08
9.6175e-07
-1.85199e-14
9.4027e-08
9.14689e-07
-1.89223e-14
9.5115e-08
8.6716e-07
-1.93872e-14
9.61483e-08
8.19197e-07
-1.99215e-14
9.71173e-08
7.7084e-07
-2.0553e-14
9.8011e-08
7.22134e-07
-2.13024e-14
9.88171e-08
6.73129e-07
-2.20795e-14
9.95222e-08
6.23886e-07
-2.29192e-14
1.00111e-07
5.74471e-07
-2.36963e-14
1.00566e-07
5.24961e-07
-2.43694e-14
1.00869e-07
4.75442e-07
-2.48273e-14
1.00997e-07
4.26011e-07
-2.50008e-14
1.00925e-07
3.76781e-07
-2.47927e-14
1.00627e-07
3.27876e-07
-2.40849e-14
1.00068e-07
2.79441e-07
-2.29053e-14
9.9213e-08
2.31636e-07
-2.12955e-14
9.80178e-08
1.84645e-07
-1.92901e-14
9.64312e-08
1.3868e-07
-1.72848e-14
9.43944e-08
9.39748e-08
-1.54321e-14
9.1828e-08
5.07923e-08
-1.38778e-14
8.86453e-08
9.43134e-09
-1.3628e-14
8.47698e-08
-2.97537e-08
-1.6119e-14
8.01018e-08
-6.63601e-08
-2.28151e-14
7.45206e-08
-9.99509e-08
-3.52357e-14
6.78878e-08
-1.30034e-07
-5.40887e-14
6.00393e-08
-1.5606e-07
-7.78058e-14
5.07826e-08
-1.77421e-07
-1.00413e-13
3.98962e-08
-1.93463e-07
-1.10793e-13
2.71435e-08
-2.03513e-07
-9.60967e-14
1.22809e-08
-2.06893e-07
-5.10286e-14
-4.87903e-09
-2.03015e-07
6.09236e-15
-2.43901e-08
-1.91517e-07
2.42167e-14
-4.60376e-08
-1.72422e-07
-5.37209e-14
-6.89723e-08
-1.46244e-07
-2.02519e-13
-9.09779e-08
-1.13683e-07
-2.43292e-13
-1.07225e-07
-6.94398e-08
-2.93377e-14
-1.05641e-07
2.03169e-13
-7.19381e-08
-2.28736e-07
5.74716e-07
-2.77251e-07
3.03801e-07
-2.46528e-07
8.39571e-08
-1.64823e-07
-9.32435e-08
-4.2038e-08
-2.2634e-07
1.13463e-07
-3.21337e-07
2.93296e-07
-3.86314e-07
4.90137e-07
-4.28753e-07
6.98065e-07
-4.53997e-07
9.1236e-07
-4.664e-07
1.12907e-06
-4.6973e-07
1.34516e-06
-4.66345e-07
1.5583e-06
-4.58027e-07
1.76668e-06
-4.46057e-07
1.96895e-06
-4.3139e-07
2.16407e-06
-4.14751e-07
2.35128e-06
-3.96696e-07
2.53003e-06
-3.77664e-07
2.69994e-06
-3.58e-07
2.86077e-06
-3.37984e-07
3.01238e-06
-3.1784e-07
3.15475e-06
-2.97752e-07
3.28791e-06
-2.77873e-07
3.41199e-06
-2.58325e-07
3.52713e-06
-2.39209e-07
3.63356e-06
-2.20609e-07
3.73151e-06
-2.02589e-07
3.82125e-06
-1.85203e-07
3.90307e-06
-1.6849e-07
3.9773e-06
-1.5248e-07
4.04424e-06
-1.37194e-07
4.10425e-06
-1.22644e-07
4.15764e-06
-1.08835e-07
4.20476e-06
-9.57665e-08
4.24596e-06
-8.3432e-08
4.28156e-06
-7.18204e-08
4.31189e-06
-6.0917e-08
4.33727e-06
-5.07035e-08
4.35802e-06
-4.1159e-08
4.37445e-06
-3.22601e-08
4.38683e-06
-2.39821e-08
4.39546e-06
-1.62986e-08
4.40061e-06
-9.18241e-09
4.40252e-06
-2.60542e-09
4.40145e-06
3.46014e-09
4.39762e-06
9.04219e-09
4.39126e-06
1.4169e-08
4.38256e-06
1.88679e-08
4.37173e-06
2.31657e-08
4.35894e-06
2.70883e-08
4.34436e-06
3.06605e-08
4.32816e-06
3.39063e-08
4.31048e-06
3.68487e-08
4.29145e-06
3.95096e-08
4.27121e-06
4.19095e-08
4.24987e-06
4.40683e-08
4.22755e-06
4.60043e-08
4.20433e-06
4.7735e-08
4.18033e-06
4.92766e-08
4.15562e-06
5.06444e-08
4.13028e-06
5.18525e-08
4.10438e-06
5.29141e-08
4.078e-06
5.38416e-08
4.05119e-06
5.46462e-08
4.02401e-06
5.53386e-08
3.99651e-06
5.59284e-08
3.96874e-06
5.64247e-08
3.94074e-06
5.68357e-08
3.91255e-06
5.71693e-08
3.88421e-06
5.74324e-08
3.85574e-06
5.76316e-08
3.82718e-06
5.77729e-08
3.79856e-06
5.7862e-08
3.76989e-06
5.79039e-08
3.74121e-06
5.79036e-08
3.71252e-06
5.78652e-08
3.68385e-06
5.77931e-08
3.65522e-06
5.76909e-08
3.62663e-06
5.75621e-08
3.5981e-06
5.74101e-08
3.56964e-06
5.7238e-08
3.54125e-06
5.70485e-08
3.51296e-06
5.68443e-08
3.48475e-06
5.6628e-08
3.45665e-06
5.64018e-08
3.42864e-06
5.6168e-08
3.40074e-06
5.59286e-08
3.37295e-06
5.56855e-08
3.34527e-06
5.54406e-08
3.3177e-06
5.51956e-08
3.29023e-06
5.49522e-08
3.26288e-06
5.4712e-08
3.23563e-06
5.44763e-08
3.20848e-06
5.42466e-08
3.18143e-06
5.40242e-08
3.15448e-06
5.38104e-08
3.12762e-06
5.36065e-08
3.10085e-06
5.34135e-08
3.07416e-06
5.32326e-08
3.04754e-06
5.3065e-08
3.02099e-06
5.29115e-08
2.9945e-06
5.27732e-08
2.96806e-06
5.26511e-08
2.94166e-06
5.25461e-08
2.9153e-06
5.24591e-08
2.88897e-06
5.2391e-08
2.86265e-06
5.23425e-08
2.83634e-06
5.23145e-08
2.81003e-06
5.23079e-08
2.7837e-06
5.23233e-08
2.75735e-06
5.23616e-08
2.73096e-06
5.24235e-08
2.70452e-06
5.25096e-08
2.67802e-06
5.26207e-08
2.65144e-06
5.27575e-08
2.62478e-06
5.29206e-08
2.59802e-06
5.31106e-08
2.57115e-06
5.33282e-08
2.54415e-06
5.3574e-08
2.51701e-06
5.38486e-08
2.48971e-06
5.41525e-08
2.46225e-06
5.44862e-08
2.4346e-06
5.48503e-08
2.40675e-06
5.52453e-08
2.37869e-06
5.56715e-08
2.35039e-06
5.61295e-08
2.32186e-06
5.66196e-08
2.29306e-06
5.71421e-08
2.26398e-06
5.76974e-08
2.23461e-06
5.82858e-08
2.20493e-06
5.89073e-08
2.17493e-06
5.95623e-08
2.14459e-06
6.02508e-08
2.11389e-06
6.09729e-08
2.08282e-06
6.17285e-08
2.05135e-06
6.25176e-08
2.01949e-06
6.33399e-08
1.9872e-06
6.41953e-08
1.95448e-06
6.50834e-08
1.9213e-06
6.60038e-08
1.88766e-06
6.69558e-08
1.85354e-06
6.7939e-08
1.81892e-06
6.89525e-08
1.7838e-06
6.99954e-08
1.74816e-06
7.10668e-08
1.71198e-06
7.21653e-08
1.67525e-06
7.32898e-08
1.63797e-06
7.44387e-08
1.60013e-06
7.56104e-08
1.56171e-06
7.68029e-08
1.5227e-06
7.80142e-08
1.48311e-06
7.9242e-08
1.44292e-06
8.04839e-08
1.40213e-06
8.17369e-08
1.36073e-06
8.2998e-08
1.31874e-06
8.42638e-08
1.27615e-06
8.55306e-08
1.23295e-06
8.67944e-08
1.18917e-06
8.80505e-08
1.1448e-06
8.92942e-08
1.09986e-06
9.05199e-08
1.05436e-06
9.17218e-08
1.00831e-06
9.28931e-08
9.6175e-07
9.40268e-08
9.14689e-07
9.51148e-08
8.6716e-07
9.61481e-08
8.19198e-07
9.71171e-08
7.70841e-07
9.80107e-08
7.22134e-07
9.88169e-08
6.7313e-07
9.95219e-08
6.23886e-07
1.00111e-07
5.74472e-07
1.00566e-07
5.24961e-07
1.00868e-07
4.75442e-07
1.00997e-07
4.26012e-07
1.00925e-07
3.76781e-07
1.00627e-07
3.27877e-07
1.00068e-07
2.79441e-07
9.92128e-08
2.31636e-07
9.80176e-08
1.84646e-07
9.6431e-08
1.38681e-07
9.43942e-08
9.39751e-08
9.18277e-08
5.07925e-08
8.86451e-08
9.4316e-09
8.47696e-08
-2.97534e-08
8.01015e-08
-6.63599e-08
7.45204e-08
-9.99507e-08
6.78875e-08
-1.30034e-07
6.0039e-08
-1.5606e-07
5.07823e-08
-1.77421e-07
3.9896e-08
-1.93463e-07
2.71432e-08
-2.03513e-07
1.22806e-08
-2.06893e-07
-4.87939e-09
-2.03015e-07
-2.43905e-08
-1.91518e-07
-4.60382e-08
-1.72423e-07
-6.89729e-08
-1.46245e-07
-9.09785e-08
-1.13685e-07
-1.07226e-07
-6.94455e-08
-1.05643e-07
-7.19419e-08
-7.22571e-08
1.78703e-12
6.46967e-07
-2.63739e-08
2.60698e-13
2.57901e-07
6.60636e-08
1.36171e-13
-8.48235e-09
1.81575e-07
1.31295e-14
-2.08757e-07
3.1536e-07
-1.49663e-14
-3.60127e-07
4.65447e-07
9.96151e-15
-4.71426e-07
6.29462e-07
5.72916e-14
-5.5033e-07
8.0437e-07
9.68988e-14
-6.03663e-07
9.87276e-07
1.11856e-13
-6.36905e-07
1.17545e-06
1.01229e-13
-6.54576e-07
1.36615e-06
7.37714e-14
-6.60436e-07
1.55707e-06
4.12939e-14
-6.57267e-07
1.74626e-06
1.28098e-14
-6.47219e-07
1.93213e-06
-7.10136e-15
-6.31931e-07
2.11341e-06
-1.76172e-14
-6.12668e-07
2.28908e-06
-2.02956e-14
-5.90422e-07
2.45835e-06
-1.75756e-14
-5.65972e-07
2.62063e-06
-1.18614e-14
-5.39943e-07
2.77546e-06
-5.02485e-15
-5.1284e-07
2.92255e-06
1.61915e-15
-4.85073e-07
3.06169e-06
7.35763e-15
-4.56977e-07
3.19276e-06
1.18367e-14
-4.28831e-07
3.31575e-06
1.50147e-14
-4.00864e-07
3.43069e-06
1.69611e-14
-3.73267e-07
3.53768e-06
1.79256e-14
-3.46194e-07
3.63684e-06
1.80939e-14
-3.19777e-07
3.72837e-06
1.76897e-14
-2.94118e-07
3.81247e-06
1.69316e-14
-2.69302e-07
3.88937e-06
1.59689e-14
-2.45394e-07
3.95933e-06
1.49332e-14
-2.22445e-07
4.02262e-06
1.39063e-14
-2.00489e-07
4.07953e-06
1.29401e-14
-1.79551e-07
4.13034e-06
1.20744e-14
-1.59644e-07
4.17534e-06
1.13129e-14
-1.4077e-07
4.21483e-06
1.06763e-14
-1.22926e-07
4.24911e-06
1.01541e-14
-1.061e-07
4.27846e-06
9.72216e-15
-9.02727e-08
4.30318e-06
9.37001e-15
-7.54227e-08
4.32354e-06
9.08205e-15
-6.15223e-08
4.33982e-06
8.84959e-15
-4.85406e-08
4.35228e-06
8.67612e-15
-3.64443e-08
4.36118e-06
8.54081e-15
-2.51976e-08
4.36676e-06
8.42805e-15
-1.47631e-08
4.36925e-06
8.34999e-15
-5.10258e-09
4.36889e-06
8.28406e-15
3.82273e-09
4.36588e-06
8.22508e-15
1.20516e-08
4.36042e-06
8.1765e-15
1.96232e-08
4.35271e-06
8.14528e-15
2.65759e-08
4.34293e-06
8.12445e-15
3.29472e-08
4.33124e-06
8.12445e-15
3.87737e-08
4.31781e-06
8.12097e-15
4.40908e-08
4.30279e-06
8.13484e-15
4.89324e-08
4.2863e-06
8.14525e-15
5.33313e-08
4.26849e-06
8.16259e-15
5.73186e-08
4.24948e-06
8.1938e-15
6.09241e-08
4.22937e-06
8.22849e-15
6.41758e-08
4.20827e-06
8.27359e-15
6.71002e-08
4.18628e-06
8.32735e-15
6.97224e-08
4.16349e-06
8.38633e-15
7.2066e-08
4.13998e-06
8.4505e-15
7.41528e-08
4.11583e-06
8.52682e-15
7.60034e-08
4.0911e-06
8.60661e-15
7.7637e-08
4.06587e-06
8.6916e-15
7.90715e-08
4.0402e-06
8.77659e-15
8.03233e-08
4.01412e-06
8.86679e-15
8.1408e-08
3.98771e-06
8.95699e-15
8.23396e-08
3.961e-06
9.04024e-15
8.31315e-08
3.93404e-06
9.1287e-15
8.37959e-08
3.90687e-06
9.2189e-15
8.4344e-08
3.87951e-06
9.30216e-15
8.47863e-08
3.85201e-06
9.38368e-15
8.51324e-08
3.82439e-06
9.47561e-15
8.53914e-08
3.79668e-06
9.55019e-15
8.55714e-08
3.7689e-06
9.6213e-15
8.56801e-08
3.74108e-06
9.69068e-15
8.57247e-08
3.71323e-06
9.75659e-15
8.57116e-08
3.68538e-06
9.81556e-15
8.5647e-08
3.65753e-06
9.86586e-15
8.55365e-08
3.62971e-06
9.91442e-15
8.53855e-08
3.60192e-06
9.95778e-15
8.51987e-08
3.57417e-06
9.99593e-15
8.49808e-08
3.54648e-06
1.00219e-14
8.4736e-08
3.51886e-06
1.00479e-14
8.44684e-08
3.4913e-06
1.00705e-14
8.41816e-08
3.46383e-06
1.00826e-14
8.38792e-08
3.43643e-06
1.01e-14
8.35645e-08
3.40911e-06
1.00965e-14
8.32405e-08
3.38189e-06
1.0093e-14
8.29102e-08
3.35475e-06
1.00878e-14
8.25763e-08
3.3277e-06
1.00722e-14
8.22415e-08
3.30075e-06
1.00565e-14
8.19081e-08
3.27388e-06
1.0034e-14
8.15787e-08
3.2471e-06
1.00079e-14
8.12552e-08
3.2204e-06
9.98192e-15
8.09399e-08
3.19379e-06
9.95936e-15
8.06348e-08
3.16726e-06
9.91251e-15
8.03418e-08
3.1408e-06
9.87434e-15
8.00627e-08
3.11442e-06
9.83269e-15
7.97993e-08
3.08809e-06
9.78758e-15
7.95532e-08
3.06183e-06
9.74074e-15
7.93261e-08
3.03562e-06
9.69389e-15
7.91195e-08
3.00946e-06
9.64531e-15
7.89349e-08
2.98334e-06
9.58979e-15
7.87737e-08
2.95724e-06
9.54468e-15
7.86373e-08
2.93117e-06
9.4961e-15
7.85271e-08
2.90512e-06
9.44231e-15
7.84443e-08
2.87907e-06
9.39547e-15
7.83902e-08
2.85302e-06
9.34515e-15
7.83661e-08
2.82695e-06
9.29657e-15
7.8373e-08
2.80086e-06
9.24626e-15
7.84122e-08
2.77474e-06
9.20462e-15
7.84847e-08
2.74857e-06
9.15083e-15
7.85917e-08
2.72234e-06
9.11093e-15
7.87342e-08
2.69605e-06
9.06929e-15
7.89132e-08
2.66967e-06
9.02591e-15
7.91297e-08
2.64321e-06
8.99468e-15
7.93846e-08
2.61664e-06
8.96345e-15
7.9679e-08
2.58995e-06
8.93569e-15
8.00137e-08
2.56314e-06
8.90619e-15
8.03895e-08
2.53618e-06
8.88537e-15
8.08073e-08
2.50906e-06
8.86628e-15
8.1268e-08
2.48177e-06
8.8472e-15
8.17721e-08
2.4543e-06
8.84372e-15
8.23206e-08
2.42663e-06
8.84198e-15
8.2914e-08
2.39875e-06
8.83677e-15
8.3553e-08
2.37064e-06
8.84544e-15
8.42381e-08
2.34229e-06
8.85585e-15
8.497e-08
2.31368e-06
8.86799e-15
8.57489e-08
2.2848e-06
8.89574e-15
8.65754e-08
2.25563e-06
8.91655e-15
8.74498e-08
2.22617e-06
8.94777e-15
8.83723e-08
2.19638e-06
8.98593e-15
8.9343e-08
2.16627e-06
9.02236e-15
9.03622e-08
2.13581e-06
9.07093e-15
9.14297e-08
2.105e-06
9.12644e-15
9.25455e-08
2.0738e-06
9.17847e-15
9.37094e-08
2.04222e-06
9.24959e-15
9.49209e-08
2.01023e-06
9.32592e-15
9.61797e-08
1.97783e-06
9.40051e-15
9.74852e-08
1.945e-06
9.48204e-15
9.88365e-08
1.91172e-06
9.57745e-15
1.00233e-07