/*--------------------------------*- C++ -*----------------------------------*\
  =========                 |
  \\      /  F ield         | OpenFOAM: The Open Source CFD Toolbox
   \\    /   O peration     | Website:  https://openfoam.org
    \\  /    A nd           | Version:  8
     \\/     M anipulation  |
\*---------------------------------------------------------------------------*/
FoamFile
{
    version     2.0;
    format      ascii;
    class       volScalarField;
    location    "1700";
    object      alphat;
}
// * * * * * * * * * * * * * * * * * * * * * * * * * * * * * * * * * * * * * //

dimensions      [1 -1 -1 0 0 0 0];

internalField   nonuniform List<scalar> 
48000
(
0.000191872
6.04885e-05
7.27074e-05
8.32118e-05
9.17723e-05
9.89114e-05
0.000105158
0.000110818
0.000115938
0.000120667
0.000125076
0.000129219
0.000133135
0.000136855
0.000140403
0.000143795
0.000147048
0.000150171
0.000153176
0.000156068
0.000158854
0.00016154
0.000164128
0.000166624
0.000169029
0.000171347
0.000173581
0.000175731
0.0001778
0.000179791
0.000181703
0.000183541
0.000185304
0.000186995
0.000188615
0.000190165
0.000191648
0.000193064
0.000194416
0.000195705
0.000196932
0.000198099
0.000199207
0.000200259
0.000201255
0.000202197
0.000203087
0.000203925
0.000204714
0.000205455
0.000206148
0.000206796
0.000207406
0.000207975
0.000208503
0.000208992
0.000209441
0.000209853
0.000210228
0.000210569
0.000210876
0.000211149
0.000211391
0.000211602
0.000211784
0.000211936
0.000212061
0.000212159
0.000212231
0.000212277
0.000212299
0.000212297
0.000212272
0.000212224
0.000212155
0.000212064
0.000211953
0.000211822
0.000211672
0.000211502
0.000211314
0.000211108
0.000210885
0.000210644
0.000210386
0.000210111
0.000209821
0.000209514
0.000209192
0.000208855
0.000208503
0.000208136
0.000207754
0.000207358
0.000206947
0.000206523
0.000206084
0.000205632
0.000205166
0.000204687
0.000204194
0.000203688
0.000203169
0.000202636
0.00020209
0.000201531
0.000200959
0.000200373
0.000199775
0.000199163
0.000198538
0.000197899
0.000197248
0.000196582
0.000195904
0.000195212
0.000194506
0.000193786
0.000193053
0.000192305
0.000191543
0.000190767
0.000189976
0.000189171
0.000188351
0.000187516
0.000186666
0.0001858
0.000184919
0.000184022
0.000183109
0.00018218
0.000181234
0.000180272
0.000179292
0.000178296
0.000177282
0.000176251
0.000175202
0.000174135
0.000173049
0.000171945
0.000170822
0.00016968
0.000168518
0.000167337
0.000166137
0.000164916
0.000163674
0.000162413
0.00016113
0.000159826
0.000158501
0.000157154
0.000155786
0.000154395
0.000152982
0.000151547
0.000150088
0.000148607
0.000147102
0.000145573
0.00014402
0.000142442
0.00014084
0.000139212
0.000137559
0.000135879
0.000134173
0.000132439
0.000130677
0.000128887
0.000127066
0.000125215
0.000123332
0.000121415
0.000119463
0.000117475
0.000115447
0.000113377
0.000111263
0.000109101
0.000106886
0.000104616
0.000102287
9.99106e-05
9.74618e-05
9.49141e-05
9.22531e-05
8.94557e-05
8.64922e-05
8.3323e-05
7.98932e-05
7.61585e-05
7.20232e-05
6.72737e-05
6.16044e-05
5.45943e-05
3.59665e-05
0.00014659
0.000191906
6.04843e-05
7.27073e-05
8.32126e-05
9.17732e-05
9.89122e-05
0.000105159
0.000110819
0.000115939
0.000120668
0.000125077
0.00012922
0.000133136
0.000136856
0.000140403
0.000143796
0.000147048
0.000150172
0.000153176
0.000156068
0.000158855
0.00016154
0.000164129
0.000166624
0.00016903
0.000171348
0.000173581
0.000175731
0.0001778
0.000179791
0.000181704
0.000183541
0.000185304
0.000186995
0.000188615
0.000190165
0.000191648
0.000193064
0.000194416
0.000195705
0.000196932
0.000198099
0.000199207
0.000200259
0.000201255
0.000202197
0.000203086
0.000203925
0.000204714
0.000205455
0.000206148
0.000206796
0.000207406
0.000207975
0.000208503
0.000208991
0.000209441
0.000209853
0.000210228
0.000210569
0.000210875
0.000211149
0.000211391
0.000211602
0.000211784
0.000211936
0.000212061
0.000212159
0.000212231
0.000212277
0.000212299
0.000212297
0.000212272
0.000212224
0.000212155
0.000212064
0.000211953
0.000211822
0.000211672
0.000211502
0.000211314
0.000211108
0.000210884
0.000210643
0.000210386
0.000210111
0.000209821
0.000209514
0.000209192
0.000208855
0.000208503
0.000208135
0.000207754
0.000207357
0.000206947
0.000206523
0.000206084
0.000205632
0.000205166
0.000204687
0.000204194
0.000203688
0.000203168
0.000202636
0.00020209
0.000201531
0.000200959
0.000200373
0.000199774
0.000199163
0.000198538
0.000197899
0.000197247
0.000196582
0.000195904
0.000195212
0.000194506
0.000193786
0.000193052
0.000192305
0.000191543
0.000190767
0.000189976
0.000189171
0.000188351
0.000187516
0.000186666
0.0001858
0.000184919
0.000184022
0.000183109
0.00018218
0.000181234
0.000180272
0.000179292
0.000178296
0.000177282
0.000176251
0.000175202
0.000174135
0.000173049
0.000171945
0.000170822
0.00016968
0.000168518
0.000167337
0.000166136
0.000164915
0.000163674
0.000162412
0.00016113
0.000159826
0.000158501
0.000157154
0.000155786
0.000154395
0.000152982
0.000151547
0.000150088
0.000148607
0.000147102
0.000145573
0.00014402
0.000142442
0.00014084
0.000139212
0.000137559
0.000135879
0.000134173
0.000132439
0.000130677
0.000128887
0.000127066
0.000125215
0.000123332
0.000121415
0.000119463
0.000117475
0.000115447
0.000113377
0.000111263
0.000109101
0.000106886
0.000104616
0.000102287
9.99107e-05
9.74618e-05
9.49141e-05
9.22532e-05
8.94558e-05
8.64923e-05
8.3323e-05
7.98926e-05
7.6155e-05
7.2005e-05
6.71822e-05
6.11392e-05
5.22351e-05
2.91134e-05
3.86875e-05
5.21334e-05
0.000376768
0.00059885
0.000751466
0.000866804
0.000961068
0.00104143
0.00111168
0.00117458
0.00123167
0.00128405
0.00133255
0.00137779
0.00142023
0.00146024
0.0014981
0.00153406
0.00156829
0.00160094
0.00163216
0.00166202
0.00169064
0.00171808
0.0017444
0.00176966
0.00179391
0.00181719
0.00183954
0.00186099
0.00188157
0.00190132
0.00192025
0.0019384
0.00195578
0.00197243
0.00198835
0.00200358
0.00201813
0.00203203
0.00204528
0.00205792
0.00206995
0.0020814
0.00209229
0.00210262
0.00211242
0.0021217
0.00213048
0.00213877
0.00214658
0.00215392
0.00216076
0.002167
0.00217281
0.00217823
0.00218326
0.00218793
0.00219225
0.00219622
0.00219988
0.00220321
0.00220624
0.00220896
0.0022114
0.00221356
0.00221545
0.00221707
0.00221843
0.00221955
0.00222042
0.00222105
0.00222146
0.00222163
0.00222159
0.00222134
0.00222088
0.00222021
0.00221934
0.00221828
0.00221703
0.00221559
0.00221397
0.00221216
0.00221018
0.00220803
0.00220571
0.00220322
0.00220056
0.00219774
0.00219476
0.00219162
0.00218832
0.00218487
0.00218127
0.00217751
0.0021736
0.00216954
0.00216534
0.00216098
0.00215648
0.00215184
0.00214705
0.00214211
0.00213703
0.0021318
0.00212643
0.00212091
0.00211525
0.00210944
0.00210349
0.00209739
0.00209114
0.00208475
0.0020782
0.00207151
0.00206467
0.00205767
0.00205052
0.00204322
0.00203576
0.00202815
0.00202037
0.00201244
0.00200434
0.00199608
0.00198766
0.00197906
0.00197029
0.00196136
0.00195225
0.00194296
0.00193349
0.00192384
0.00191401
0.001904
0.00189379
0.0018834
0.00187281
0.00186202
0.00185104
0.00183986
0.00182848
0.00181689
0.00180509
0.00179309
0.00178087
0.00176844
0.00175578
0.00174291
0.00172982
0.0017165
0.00170295
0.00168917
0.00167516
0.00166091
0.00164642
0.00163169
0.00161672
0.0016015
0.00158602
0.0015703
0.00155431
0.00153806
0.00152154
0.00150476
0.00148769
0.00147034
0.0014527
0.00143477
0.00141652
0.00139796
0.00137908
0.00135986
0.00134028
0.00132033
0.0013
0.00127925
0.00125807
0.00123641
0.00121425
0.00119153
0.00116821
0.0011442
0.00111941
0.0010937
0.00106684
0.00103878
0.0010094
0.000978508
0.000945796
0.000910825
0.000872937
0.000831013
0.000782848
0.000726537
0.000658375
0.000569638
0.000436707
0.000213199
3.57937e-05
5.2129e-05
0.000376785
0.000598899
0.000751514
0.000866852
0.000961116
0.00104148
0.00111172
0.00117463
0.00123171
0.00128409
0.0013326
0.00137783
0.00142027
0.00146028
0.00149814
0.0015341
0.00156833
0.00160098
0.00163219
0.00166206
0.00169067
0.00171811
0.00174443
0.00176969
0.00179394
0.00181722
0.00183957
0.00186102
0.0018816
0.00190134
0.00192028
0.00193842
0.00195581
0.00197245
0.00198838
0.0020036
0.00201816
0.00203205
0.0020453
0.00205794
0.00206997
0.00208142
0.00209231
0.00210264
0.00211244
0.00212172
0.0021305
0.00213879
0.0021466
0.00215394
0.00216078
0.00216702
0.00217283
0.00217824
0.00218327
0.00218794
0.00219226
0.00219624
0.00219989
0.00220323
0.00220625
0.00220898
0.00221142
0.00221358
0.00221546
0.00221708
0.00221845
0.00221956
0.00222043
0.00222107
0.00222147
0.00222165
0.00222161
0.00222135
0.00222089
0.00222022
0.00221935
0.00221829
0.00221704
0.0022156
0.00221398
0.00221218
0.0022102
0.00220804
0.00220572
0.00220323
0.00220057
0.00219775
0.00219477
0.00219163
0.00218833
0.00218488
0.00218128
0.00217752
0.00217361
0.00216956
0.00216535
0.002161
0.0021565
0.00215185
0.00214706
0.00214212
0.00213704
0.00213181
0.00212644
0.00212092
0.00211526
0.00210945
0.0021035
0.0020974
0.00209115
0.00208476
0.00207821
0.00207152
0.00206468
0.00205768
0.00205053
0.00204323
0.00203577
0.00202816
0.00202038
0.00201245
0.00200435
0.00199609
0.00198766
0.00197907
0.0019703
0.00196137
0.00195226
0.00194297
0.0019335
0.00192385
0.00191402
0.001904
0.0018938
0.0018834
0.00187282
0.00186203
0.00185105
0.00183987
0.00182849
0.0018169
0.0018051
0.0017931
0.00178088
0.00176844
0.00175579
0.00174292
0.00172983
0.0017165
0.00170296
0.00168918
0.00167517
0.00166092
0.00164643
0.0016317
0.00161673
0.00160151
0.00158603
0.00157031
0.00155432
0.00153807
0.00152155
0.00150476
0.0014877
0.00147035
0.00145271
0.00143477
0.00141653
0.00139797
0.00137909
0.00135987
0.00134029
0.00132034
0.00130001
0.00127926
0.00125807
0.00123642
0.00121426
0.00119154
0.00116822
0.00114421
0.00111942
0.00109371
0.00106685
0.00103878
0.00100941
0.000978516
0.000945804
0.000910832
0.000872943
0.000831015
0.000782834
0.000726488
0.000658393
0.000571214
0.000450732
0.000277273
0.000179331
6.22612e-05
0.000568378
0.00101325
0.0013472
0.00161237
0.00183275
0.00202176
0.0021875
0.00233537
0.00246899
0.00259098
0.00270325
0.00280729
0.00290423
0.00299498
0.00308029
0.00316075
0.00323685
0.00330899
0.00337754
0.00344276
0.00350492
0.00356422
0.00362085
0.00367496
0.0037267
0.00377619
0.00382355
0.00386886
0.00391223
0.00395373
0.00399343
0.00403142
0.00406776
0.0041025
0.00413571
0.00416744
0.00419774
0.00422666
0.00425425
0.00428057
0.00430564
0.00432951
0.00435223
0.00437383
0.00439434
0.00441382
0.00443227
0.00444975
0.00446626
0.00448182
0.00449643
0.00451004
0.00452277
0.00453468
0.00454583
0.00455625
0.00456596
0.004575
0.00458337
0.00459111
0.00459824
0.00460478
0.00461073
0.00461613
0.00462098
0.0046253
0.0046291
0.00463241
0.00463523
0.00463757
0.00463945
0.00464087
0.00464186
0.00464241
0.00464253
0.00464225
0.00464156
0.00464047
0.00463899
0.00463712
0.00463488
0.00463227
0.0046293
0.00462597
0.00462228
0.00461825
0.00461387
0.00460915
0.0046041
0.00459871
0.00459299
0.00458695
0.00458059
0.00457391
0.0045669
0.00455958
0.00455195
0.004544
0.00453575
0.00452718
0.0045183
0.00450911
0.00449961
0.0044898
0.00447968
0.00446925
0.00445851
0.00444745
0.00443609
0.00442441
0.00441241
0.0044001
0.00438746
0.00437451
0.00436122
0.00434762
0.00433368
0.00431941
0.0043048
0.00428985
0.00427456
0.00425892
0.00424293
0.00422659
0.00420989
0.00419282
0.00417539
0.00415758
0.0041394
0.00412084
0.00410189
0.00408254
0.0040628
0.00404266
0.00402211
0.00400115
0.00397977
0.00395797
0.00393574
0.00391307
0.00388996
0.0038664
0.00384239
0.00381793
0.00379299
0.00376759
0.00374171
0.00371534
0.00368849
0.00366113
0.00363327
0.0036049
0.00357601
0.00354659
0.00351663
0.00348613
0.00345507
0.00342345
0.00339126
0.00335848
0.00332509
0.0032911
0.00325648
0.00322121
0.00318529
0.00314868
0.00311137
0.00307333
0.00303453
0.00299495
0.00295455
0.00291328
0.00287111
0.00282798
0.00278383
0.00273858
0.00269217
0.00264449
0.00259544
0.00254486
0.00249261
0.00243847
0.00238219
0.00232344
0.00226185
0.00219701
0.00212844
0.00205541
0.00197697
0.00189181
0.0017981
0.0016931
0.0015728
0.00143147
0.00126129
0.00104669
0.000753611
0.00033921
4.53368e-05
6.2261e-05
0.000568419
0.00101332
0.0013473
0.00161247
0.00183286
0.00202186
0.00218761
0.00233547
0.0024691
0.00259108
0.00270335
0.00280738
0.00290432
0.00299508
0.00308038
0.00316083
0.00323693
0.00330907
0.00337761
0.00344284
0.00350499
0.00356429
0.00362091
0.00367502
0.00372676
0.00377625
0.0038236
0.00386891
0.00391228
0.00395377
0.00399348
0.00403147
0.0040678
0.00410254
0.00413574
0.00416747
0.00419777
0.00422669
0.00425428
0.00428059
0.00430566
0.00432954
0.00435225
0.00437385
0.00439437
0.00441384
0.00443229
0.00444976
0.00446628
0.00448184
0.00449645
0.00451005
0.00452278
0.00453469
0.00454584
0.00455626
0.00456597
0.004575
0.00458338
0.00459112
0.00459825
0.00460478
0.00461074
0.00461613
0.00462098
0.0046253
0.00462911
0.00463241
0.00463523
0.00463757
0.00463945
0.00464088
0.00464186
0.00464241
0.00464254
0.00464225
0.00464156
0.00464047
0.00463899
0.00463712
0.00463488
0.00463227
0.0046293
0.00462597
0.00462228
0.00461825
0.00461387
0.00460915
0.00460409
0.00459871
0.00459299
0.00458695
0.00458059
0.0045739
0.0045669
0.00455958
0.00455195
0.004544
0.00453574
0.00452717
0.00451829
0.0045091
0.0044996
0.00448979
0.00447968
0.00446925
0.0044585
0.00444745
0.00443609
0.00442441
0.00441241
0.00440009
0.00438746
0.0043745
0.00436122
0.00434761
0.00433367
0.0043194
0.00430479
0.00428985
0.00427456
0.00425892
0.00424293
0.00422659
0.00420988
0.00419282
0.00417539
0.00415758
0.0041394
0.00412083
0.00410188
0.00408254
0.0040628
0.00404266
0.00402211
0.00400115
0.00397977
0.00395797
0.00393573
0.00391306
0.00388995
0.0038664
0.00384239
0.00381792
0.00379299
0.00376758
0.0037417
0.00371534
0.00368848
0.00366113
0.00363327
0.0036049
0.003576
0.00354658
0.00351663
0.00348613
0.00345507
0.00342345
0.00339125
0.00335847
0.00332509
0.0032911
0.00325647
0.00322121
0.00318528
0.00314867
0.00311136
0.00307332
0.00303453
0.00299495
0.00295454
0.00291328
0.00287111
0.00282797
0.00278382
0.00273858
0.00269217
0.00264449
0.00259543
0.00254486
0.00249261
0.00243847
0.00238219
0.00232344
0.00226184
0.00219701
0.00212844
0.00205541
0.00197697
0.00189181
0.0017981
0.0016931
0.00157277
0.00143132
0.00126092
0.00104705
0.000764626
0.000382301
3.46705e-05
7.06842e-05
0.000679337
0.00128685
0.00177416
0.00217452
0.00251342
0.00280728
0.0030668
0.00329933
0.00351003
0.00370267
0.00388011
0.00404453
0.00419766
0.00434088
0.00447533
0.00460193
0.00472145
0.00483455
0.00494177
0.00504359
0.00514041
0.00523257
0.0053204
0.00540415
0.00548407
0.00556037
0.00563324
0.00570285
0.00576936
0.00583291
0.00589364
0.00595166
0.00600709
0.00606004
0.00611061
0.0061589
0.00620498
0.00624896
0.0062909
0.00633089
0.006369
0.00640529
0.00643985
0.00647272
0.00650398
0.00653367
0.00656186
0.00658858
0.00661388
0.00663779
0.00666034
0.00668153
0.00670142
0.00672012
0.00673771
0.0067542
0.00676966
0.00678412
0.00679762
0.00681018
0.00682184
0.00683262
0.00684256
0.00685169
0.00686001
0.00686756
0.00687436
0.00688043
0.00688578
0.00689044
0.00689442
0.00689774
0.00690041
0.00690244
0.00690386
0.00690467
0.00690489
0.00690452
0.00690358
0.00690207
0.00690001
0.00689741
0.00689427
0.0068906
0.0068864
0.0068817
0.00687648
0.00687076
0.00686454
0.00685783
0.00685062
0.00684294
0.00683477
0.00682612
0.006817
0.00680741
0.00679734
0.00678681
0.00677581
0.00676434
0.00675241
0.00674001
0.00672714
0.00671381
0.00670001
0.00668575
0.00667102
0.00665581
0.00664013
0.00662398
0.00660735
0.00659024
0.00657264
0.00655456
0.00653599
0.00651692
0.00649734
0.00647727
0.00645668
0.00643558
0.00641396
0.00639181
0.00636912
0.0063459
0.00632213
0.00629781
0.00627293
0.00624748
0.00622146
0.00619485
0.00616766
0.00613986
0.00611147
0.00608245
0.00605281
0.00602254
0.00599163
0.00596007
0.00592785
0.00589497
0.0058614
0.00582714
0.00579219
0.00575653
0.00572015
0.00568303
0.00564518
0.00560657
0.0055672
0.00552705
0.0054861
0.00544435
0.00540179
0.00535839
0.00531413
0.00526901
0.00522301
0.0051761
0.00512826
0.00507948
0.00502972
0.00497896
0.00492717
0.00487433
0.00482038
0.0047653
0.00470904
0.00465156
0.00459279
0.00453269
0.00447118
0.00440818
0.00434361
0.00427736
0.00420934
0.00413939
0.00406737
0.00399311
0.00391639
0.00383696
0.00375452
0.00366871
0.00357909
0.00348513
0.00338618
0.00328147
0.00317004
0.00305062
0.00292155
0.00278065
0.00262493
0.00245032
0.00225131
0.00202029
0.00174748
0.00141879
0.00101376
0.000509303
5.42144e-05
7.06851e-05
0.000679376
0.00128694
0.00177428
0.00217465
0.00251357
0.00280743
0.00306696
0.00329949
0.00351018
0.00370283
0.00388026
0.00404468
0.0041978
0.00434102
0.00447547
0.00460206
0.00472158
0.00483468
0.00494189
0.0050437
0.00514051
0.00523268
0.0053205
0.00540425
0.00548416
0.00556046
0.00563332
0.00570293
0.00576943
0.00583298
0.0058937
0.00595172
0.00600715
0.0060601
0.00611066
0.00615894
0.00620503
0.006249
0.00629094
0.00633092
0.00636903
0.00640532
0.00643988
0.00647275
0.006504
0.00653369
0.00656187
0.00658859
0.00661389
0.0066378
0.00666035
0.00668154
0.00670142
0.00672013
0.00673771
0.00675421
0.00676967
0.00678412
0.00679762
0.00681018
0.00682184
0.00683262
0.00684256
0.00685168
0.00686001
0.00686756
0.00687436
0.00688042
0.00688577
0.00689043
0.00689441
0.00689773
0.0069004
0.00690243
0.00690385
0.00690466
0.00690488
0.00690451
0.00690357
0.00690206
0.0069
0.0068974
0.00689426
0.00689059
0.00688639
0.00688168
0.00687647
0.00687075
0.00686453
0.00685781
0.00685061
0.00684292
0.00683476
0.00682611
0.00681699
0.00680739
0.00679733
0.0067868
0.00677579
0.00676433
0.00675239
0.00673999
0.00672713
0.0067138
0.0067
0.00668574
0.006671
0.0066558
0.00664012
0.00662397
0.00660734
0.00659023
0.00657263
0.00655455
0.00653597
0.0065169
0.00649733
0.00647725
0.00645667
0.00643557
0.00641394
0.00639179
0.00636911
0.00634589
0.00632212
0.0062978
0.00627291
0.00624747
0.00622144
0.00619484
0.00616764
0.00613985
0.00611145
0.00608244
0.0060528
0.00602253
0.00599162
0.00596006
0.00592784
0.00589495
0.00586138
0.00582713
0.00579217
0.00575651
0.00572013
0.00568302
0.00564516
0.00560655
0.00556718
0.00552703
0.00548609
0.00544434
0.00540177
0.00535837
0.00531412
0.005269
0.00522299
0.00517608
0.00512825
0.00507946
0.0050297
0.00497894
0.00492716
0.00487431
0.00482036
0.00476529
0.00470903
0.00465154
0.00459278
0.00453267
0.00447116
0.00440816
0.00434359
0.00427735
0.00420932
0.00413938
0.00406736
0.0039931
0.00391638
0.00383695
0.00375451
0.0036687
0.00357908
0.00348512
0.00338617
0.00328146
0.00317003
0.00305061
0.00292155
0.00278065
0.00262493
0.00245032
0.0022513
0.00202019
0.00174698
0.001417
0.0010105
0.000515075
5.33396e-05
7.74393e-05
0.000758665
0.00148437
0.00209271
0.00260532
0.00304617
0.0034325
0.00377635
0.00408622
0.0043683
0.00462716
0.0048663
0.00508844
0.00529572
0.0054899
0.00567237
0.00584433
0.00600675
0.00616048
0.00630622
0.00644459
0.00657612
0.00670127
0.00682046
0.00693405
0.00704235
0.00714567
0.00724427
0.00733838
0.00742823
0.00751401
0.00759592
0.00767412
0.00774878
0.00782005
0.00788808
0.00795299
0.00801493
0.008074
0.00813033
0.00818403
0.00823519
0.00828393
0.00833033
0.00837448
0.00841648
0.00845639
0.0084943
0.00853028
0.00856439
0.00859668
0.0086272
0.008656
0.00868313
0.00870871
0.00873282
0.0087555
0.00877682
0.00879683
0.00881558
0.00883311
0.00884946
0.00886468
0.00887879
0.00889184
0.00890385
0.00891486
0.00892489
0.00893397
0.00894213
0.00894939
0.00895578
0.0089613
0.00896599
0.00896986
0.00897293
0.00897522
0.00897673
0.0089775
0.00897752
0.00897681
0.00897539
0.00897326
0.00897043
0.00896693
0.00896274
0.00895789
0.00895238
0.00894621
0.0089394
0.00893195
0.00892386
0.00891515
0.00890581
0.00889584
0.00888526
0.00887406
0.00886225
0.00884983
0.0088368
0.00882316
0.00880891
0.00879405
0.00877859
0.00876252
0.00874583
0.00872853
0.00871062
0.0086921
0.00867295
0.00865318
0.00863278
0.00861175
0.00859008
0.00856778
0.00854482
0.00852122
0.00849695
0.00847202
0.00844642
0.00842014
0.00839317
0.00836551
0.00833714
0.00830806
0.00827826
0.00824773
0.00821645
0.00818443
0.00815164
0.00811808
0.00808374
0.00804861
0.00801267
0.00797591
0.00793833
0.0078999
0.00786062
0.00782047
0.00777944
0.00773751
0.00769468
0.00765092
0.00760623
0.00756058
0.00751396
0.00746636
0.00741776
0.00736814
0.00731748
0.00726576
0.00721296
0.00715907
0.00710406
0.0070479
0.00699057
0.00693205
0.0068723
0.0068113
0.00674901
0.0066854
0.00662042
0.00655405
0.00648622
0.00641689
0.00634601
0.00627351
0.00619933
0.0061234
0.00604562
0.0059659
0.00588415
0.00580025
0.00571405
0.00562541
0.00553415
0.00544008
0.00534296
0.00524253
0.00513847
0.0050304
0.00491789
0.00480041
0.00467733
0.00454787
0.00441112
0.00426594
0.00411093
0.0039443
0.00376377
0.00356642
0.00334842
0.0031048
0.00282905
0.00251264
0.00214461
0.00171181
0.00119832
0.000596723
5.98764e-05
7.74403e-05
0.000758704
0.00148446
0.00209284
0.00260548
0.00304635
0.00343269
0.00377655
0.00408642
0.0043685
0.00462736
0.0048665
0.00508863
0.00529592
0.00549008
0.00567255
0.0058445
0.00600692
0.00616064
0.00630638
0.00644474
0.00657626
0.00670141
0.00682059
0.00693417
0.00704248
0.00714579
0.00724438
0.00733849
0.00742833
0.00751411
0.00759601
0.0076742
0.00774886
0.00782012
0.00788815
0.00795306
0.00801499
0.00807406
0.00813038
0.00818407
0.00823524
0.00828397
0.00833036
0.00837452
0.00841651
0.00845642
0.00849433
0.0085303
0.00856441
0.0085967
0.00862722
0.00865602
0.00868314
0.00870872
0.00873282
0.00875551
0.00877683
0.00879684
0.00881558
0.00883311
0.00884946
0.00886467
0.00887879
0.00889183
0.00890385
0.00891485
0.00892488
0.00893397
0.00894213
0.00894939
0.00895577
0.00896129
0.00896598
0.00896985
0.00897292
0.00897521
0.00897672
0.00897748
0.0089775
0.0089768
0.00897537
0.00897324
0.00897042
0.00896691
0.00896273
0.00895787
0.00895236
0.0089462
0.00893939
0.00893193
0.00892385
0.00891513
0.00890579
0.00889583
0.00888524
0.00887405
0.00886223
0.00884981
0.00883678
0.00882314
0.00880889
0.00879404
0.00877857
0.0087625
0.00874581
0.00872852
0.00871061
0.00869208
0.00867293
0.00865316
0.00863276
0.00861173
0.00859006
0.00856776
0.0085448
0.0085212
0.00849693
0.008472
0.0084464
0.00842012
0.00839315
0.00836549
0.00833712
0.00830804
0.00827824
0.0082477
0.00821643
0.00818441
0.00815162
0.00811806
0.00808372
0.00804859
0.00801265
0.00797589
0.0079383
0.00789988
0.00786059
0.00782044
0.00777941
0.00773749
0.00769466
0.0076509
0.0076062
0.00756056
0.00751394
0.00746634
0.00741774
0.00736811
0.00731745
0.00726574
0.00721294
0.00715905
0.00710403
0.00704787
0.00699055
0.00693202
0.00687228
0.00681128
0.00674899
0.00668537
0.0066204
0.00655402
0.0064862
0.00641687
0.00634599
0.00627349
0.00619931
0.00612337
0.0060456
0.00596588
0.00588413
0.00580022
0.00571403
0.00562539
0.00553413
0.00544006
0.00534294
0.00524251
0.00513845
0.00503038
0.00491787
0.0048004
0.00467731
0.00454786
0.00441111
0.00426593
0.00411091
0.00394428
0.00376376
0.00356641
0.00334842
0.0031048
0.00282906
0.00251265
0.00214458
0.0017115
0.00119733
0.000596983
5.97255e-05
8.32307e-05
0.000822561
0.00163903
0.00234299
0.00294724
0.00347354
0.00393905
0.00435634
0.00473459
0.0050806
0.00539948
0.00569517
0.00597073
0.00622861
0.00647078
0.00669887
0.00691422
0.00711797
0.00731106
0.00749433
0.00766848
0.00783415
0.00799186
0.00814212
0.00828534
0.00842193
0.00855223
0.00867657
0.00879523
0.00890849
0.00901661
0.00911981
0.00921831
0.00931232
0.00940204
0.00948764
0.00956931
0.0096472
0.00972148
0.00979229
0.00985977
0.00992407
0.00998531
0.0100436
0.0100991
0.0101519
0.0102021
0.0102497
0.010295
0.010338
0.0103787
0.0104172
0.0104536
0.010488
0.0105205
0.0105512
0.0105801
0.0106073
0.0106329
0.010657
0.0106795
0.0107006
0.0107204
0.0107387
0.0107558
0.0107716
0.0107861
0.0107995
0.0108117
0.0108228
0.0108328
0.0108417
0.0108496
0.0108565
0.0108624
0.0108673
0.0108712
0.0108743
0.0108764
0.0108776
0.0108779
0.0108774
0.010876
0.0108738
0.0108707
0.0108669
0.0108622
0.0108567
0.0108505
0.0108434
0.0108356
0.010827
0.0108176
0.0108075
0.0107967
0.0107851
0.0107727
0.0107596
0.0107458
0.0107312
0.0107159
0.0106998
0.010683
0.0106655
0.0106472
0.0106282
0.0106084
0.0105879
0.0105666
0.0105446
0.0105219
0.0104983
0.010474
0.0104489
0.0104231
0.0103964
0.010369
0.0103407
0.0103116
0.0102817
0.010251
0.0102194
0.010187
0.0101537
0.0101196
0.0100845
0.0100486
0.0100118
0.00997398
0.00993527
0.00989561
0.00985499
0.00981339
0.00977079
0.00972718
0.00968255
0.00963688
0.00959015
0.00954234
0.00949344
0.00944343
0.00939228
0.00933999
0.00928653
0.00923188
0.00917602
0.00911893
0.00906057
0.00900094
0.00894
0.00887773
0.0088141
0.00874908
0.00868264
0.00861475
0.00854537
0.00847447
0.008402
0.00832793
0.00825221
0.00817478
0.0080956
0.00801461
0.00793173
0.00784692
0.00776008
0.00767113
0.00757999
0.00748655
0.00739069
0.00729228
0.0071912
0.00708727
0.00698031
0.00687012
0.00675646
0.00663906
0.00651762
0.00639178
0.0062611
0.00612511
0.00598322
0.00583474
0.00567884
0.00551453
0.00534062
0.00515564
0.00495782
0.00474491
0.00451413
0.00426199
0.00398405
0.00367473
0.00332697
0.00293193
0.00247871
0.00195486
0.00134774
0.000659461
6.44087e-05
8.32318e-05
0.000822601
0.00163913
0.00234313
0.00294742
0.00347374
0.00393927
0.00435657
0.00473482
0.00508083
0.00539972
0.0056954
0.00597096
0.00622883
0.006471
0.00669909
0.00691443
0.00711817
0.00731126
0.00749452
0.00766867
0.00783432
0.00799203
0.00814228
0.0082855
0.00842208
0.00855237
0.0086767
0.00879536
0.00890861
0.00901672
0.00911991
0.00921841
0.00931242
0.00940213
0.00948773
0.00956939
0.00964727
0.00972155
0.00979235
0.00985983
0.00992413
0.00998536
0.0100437
0.0100991
0.0101519
0.0102021
0.0102498
0.010295
0.010338
0.0103787
0.0104172
0.0104536
0.010488
0.0105205
0.0105512
0.0105801
0.0106073
0.0106329
0.010657
0.0106795
0.0107006
0.0107204
0.0107387
0.0107558
0.0107716
0.0107861
0.0107995
0.0108117
0.0108228
0.0108328
0.0108417
0.0108496
0.0108565
0.0108624
0.0108673
0.0108712
0.0108743
0.0108764
0.0108776
0.0108779
0.0108774
0.010876
0.0108738
0.0108707
0.0108669
0.0108622
0.0108567
0.0108504
0.0108434
0.0108356
0.010827
0.0108176
0.0108075
0.0107966
0.010785
0.0107727
0.0107596
0.0107457
0.0107312
0.0107158
0.0106998
0.010683
0.0106654
0.0106472
0.0106282
0.0106084
0.0105879
0.0105666
0.0105446
0.0105218
0.0104983
0.010474
0.0104489
0.010423
0.0103964
0.0103689
0.0103407
0.0103116
0.0102817
0.010251
0.0102194
0.010187
0.0101537
0.0101196
0.0100845
0.0100486
0.0100117
0.00997396
0.00993525
0.00989559
0.00985497
0.00981336
0.00977077
0.00972716
0.00968253
0.00963685
0.00959012
0.00954231
0.00949341
0.0094434
0.00939226
0.00933997
0.00928651
0.00923186
0.009176
0.0091189
0.00906055
0.00900092
0.00893998
0.00887771
0.00881408
0.00874906
0.00868262
0.00861473
0.00854535
0.00847445
0.00840198
0.00832791
0.00825218
0.00817476
0.00809557
0.00801458
0.00793171
0.00784689
0.00776005
0.00767111
0.00757997
0.00748652
0.00739066
0.00729226
0.00719117
0.00708724
0.00698028
0.00687009
0.00675643
0.00663904
0.0065176
0.00639175
0.00626108
0.00612509
0.0059832
0.00583471
0.00567882
0.00551451
0.0053406
0.00515563
0.0049578
0.00474489
0.00451412
0.00426198
0.00398405
0.00367473
0.00332698
0.00293195
0.00247873
0.00195485
0.00134758
0.000659431
6.43903e-05
8.85442e-05
0.000877223
0.00176708
0.00254823
0.00322762
0.00382521
0.00435783
0.00483828
0.00527609
0.00567845
0.00605083
0.00639743
0.00672156
0.00702586
0.00731247
0.00758312
0.00783927
0.00808214
0.00831276
0.00853201
0.00874068
0.00893944
0.00912888
0.00930953
0.00948187
0.00964633
0.00980332
0.00995318
0.0100963
0.0102328
0.0103633
0.0104878
0.0106066
0.01072
0.0108283
0.0109315
0.01103
0.011124
0.0112136
0.011299
0.0113803
0.0114578
0.0115317
0.011602
0.0116689
0.0117325
0.011793
0.0118505
0.0119051
0.011957
0.0120061
0.0120527
0.0120968
0.0121385
0.0121779
0.0122152
0.0122503
0.0122835
0.0123147
0.0123441
0.0123717
0.0123976
0.0124219
0.0124445
0.0124656
0.0124852
0.0125034
0.0125201
0.0125355
0.0125496
0.0125624
0.012574
0.0125843
0.0125934
0.0126014
0.0126082
0.012614
0.0126186
0.0126222
0.0126248
0.0126263
0.0126268
0.0126263
0.0126249
0.0126224
0.0126191
0.0126148
0.0126095
0.0126034
0.0125963
0.0125884
0.0125795
0.0125698
0.0125592
0.0125477
0.0125354
0.0125221
0.0125081
0.0124931
0.0124773
0.0124607
0.0124432
0.0124248
0.0124056
0.0123855
0.0123645
0.0123427
0.01232
0.0122965
0.012272
0.0122467
0.0122205
0.0121934
0.0121654
0.0121364
0.0121066
0.0120758
0.0120441
0.0120114
0.0119778
0.0119432
0.0119076
0.011871
0.0118334
0.0117947
0.0117551
0.0117144
0.0116726
0.0116297
0.0115857
0.0115406
0.0114944
0.011447
0.0113984
0.0113487
0.0112977
0.0112455
0.0111921
0.0111374
0.0110813
0.011024
0.0109653
0.0109053
0.0108438
0.010781
0.0107166
0.0106509
0.0105836
0.0105147
0.0104443
0.0103723
0.0102987
0.0102234
0.0101464
0.0100676
0.00998702
0.00990459
0.00982026
0.00973397
0.00964567
0.00955529
0.00946276
0.00936801
0.00927097
0.00917152
0.00906959
0.00896507
0.00885783
0.00874775
0.00863468
0.00851847
0.00839892
0.00827584
0.00814901
0.00801815
0.00788299
0.00774317
0.00759832
0.00744799
0.00729165
0.0071287
0.00695843
0.00677998
0.00659236
0.00639436
0.00618455
0.00596118
0.00572213
0.00546482
0.00518604
0.00488187
0.00454745
0.0041768
0.00376258
0.0032959
0.00276631
0.00216231
0.0014744
0.00071181
6.84312e-05
8.85453e-05
0.000877264
0.00176718
0.00254838
0.0032278
0.00382542
0.00435806
0.00483852
0.00527634
0.00567871
0.00605108
0.00639768
0.00672181
0.00702611
0.00731271
0.00758336
0.00783951
0.00808237
0.00831298
0.00853223
0.00874089
0.00893964
0.00912907
0.00930971
0.00948204
0.0096465
0.00980348
0.00995333
0.0100964
0.010233
0.0103634
0.0104879
0.0106067
0.0107201
0.0108284
0.0109316
0.0110301
0.0111241
0.0112136
0.011299
0.0113804
0.0114579
0.0115317
0.011602
0.0116689
0.0117326
0.0117931
0.0118506
0.0119052
0.011957
0.0120062
0.0120527
0.0120968
0.0121385
0.012178
0.0122152
0.0122503
0.0122835
0.0123147
0.0123441
0.0123717
0.0123976
0.0124219
0.0124445
0.0124656
0.0124852
0.0125034
0.0125201
0.0125355
0.0125496
0.0125624
0.0125739
0.0125843
0.0125934
0.0126014
0.0126082
0.012614
0.0126186
0.0126222
0.0126248
0.0126263