/*--------------------------------*- C++ -*----------------------------------*\
  =========                 |
  \\      /  F ield         | OpenFOAM: The Open Source CFD Toolbox
   \\    /   O peration     | Website:  https://openfoam.org
    \\  /    A nd           | Version:  8
     \\/     M anipulation  |
\*---------------------------------------------------------------------------*/
FoamFile
{
    version     2.0;
    format      ascii;
    class       volScalarField;
    location    "1700";
    object      epsilon;
}
// * * * * * * * * * * * * * * * * * * * * * * * * * * * * * * * * * * * * * //

dimensions      [0 2 -3 0 0 0 0];

internalField   nonuniform List<scalar> 
48000
(
0.227904
1.55121
2.99455
4.51279
6.05566
7.58192
9.11218
10.663
12.2102
13.7659
15.3306
16.9048
18.4886
20.082
21.6842
23.2942
24.9108
26.5322
28.1565
29.7817
31.4055
33.0253
34.6386
36.2429
37.8356
39.414
40.9754
42.5175
44.0377
45.5336
47.003
48.4438
49.8541
51.2319
52.5756
53.8836
55.1547
56.3876
57.5813
58.7349
59.8477
60.9191
61.9486
62.936
63.881
64.7835
65.6437
66.4616
67.2374
67.9713
68.6634
69.314
69.9304
70.5093
71.0494
71.5513
72.0156
72.443
72.8344
73.1906
73.5125
73.8008
74.0565
74.2804
74.4734
74.6363
74.7699
74.8752
74.9528
75.0036
75.0284
75.0279
75.0029
74.9542
74.8824
74.7882
74.6723
74.5354
74.3781
74.2009
74.0046
73.7896
73.5566
73.306
73.0383
72.7542
72.4539
72.1381
71.807
71.4613
71.1012
70.7272
70.3396
69.9388
69.5252
69.0991
68.6608
68.2106
67.7488
67.2757
66.7916
66.2968
65.7914
65.2758
64.7502
64.2148
63.6697
63.1153
62.5517
61.9791
61.3977
60.8077
60.2092
59.6024
58.9875
58.3647
57.734
57.0957
56.4499
55.7968
55.1364
54.469
53.7946
53.1135
52.4258
51.7316
51.0311
50.3244
49.6118
48.8933
48.1691
47.4394
46.7044
45.9643
45.2193
44.4695
43.7152
42.9566
42.1939
41.4273
40.6572
39.8837
39.1072
38.3278
37.546
36.762
35.976
35.1885
34.3997
33.61
32.8198
32.0293
31.2391
30.4493
29.6606
28.8731
28.0875
27.3039
26.5229
25.7449
24.9703
24.1996
23.433
22.6712
21.9144
21.1631
20.4178
19.6787
18.9464
18.2212
17.5034
16.7935
16.0916
15.3983
14.7137
14.0381
13.3717
12.7148
12.0675
11.4299
10.8021
10.1843
9.5764
8.97895
8.39234
7.82095
7.25974
6.70508
6.15672
5.61338
5.07372
4.53611
3.99859
3.4634
2.92863
2.38493
1.82704
1.25116
0.983854
0.230317
0.227908
1.55144
2.99476
4.51303
6.05592
7.5822
9.11248
10.6633
12.2106
13.7663
15.331
16.9051
18.489
20.0823
21.6845
23.2945
24.9111
26.5325
28.1569
29.7821
31.4058
33.0256
34.6389
36.2432
37.8359
39.4142
40.9757
42.5178
44.0379
45.5338
47.0032
48.4441
49.8543
51.2321
52.5757
53.8838
55.1549
56.3878
57.5815
58.7351
59.8478
60.9192
61.9487
62.936
63.881
64.7836
65.6438
66.4617
67.2374
67.9713
68.6634
69.314
69.9304
70.5092
71.0494
71.5513
72.0156
72.443
72.8344
73.1906
73.5124
73.8007
74.0564
74.2804
74.4733
74.6362
74.7699
74.8751
74.9527
75.0035
75.0283
75.0278
75.0028
74.9541
74.8822
74.7881
74.6722
74.5353
74.378
74.2008
74.0045
73.7895
73.5565
73.3059
73.0382
72.7541
72.4538
72.138
71.8069
71.4612
71.1011
70.7271
70.3395
69.9387
69.5251
69.099
68.6607
68.2105
67.7487
67.2756
66.7915
66.2967
65.7914
65.2757
64.7501
64.2147
63.6696
63.1152
62.5516
61.979
61.3976
60.8076
60.2091
59.6023
58.9875
58.3646
57.734
57.0957
56.4498
55.7967
55.1363
54.4689
53.7946
53.1134
52.4257
51.7315
51.031
50.3244
49.6117
48.8932
48.169
47.4393
46.7044
45.9642
45.2192
44.4694
43.7151
42.9565
42.1938
41.4273
40.6571
39.8837
39.1071
38.3278
37.5459
36.7619
35.9759
35.1884
34.3996
33.61
32.8197
32.0293
31.239
30.4493
29.6605
28.8731
28.0874
27.3039
26.5229
25.7449
24.9703
24.1995
23.433
22.6711
21.9144
21.1631
20.4178
19.6787
18.9464
18.2212
17.5034
16.7934
16.0916
15.3983
14.7137
14.0381
13.3717
12.7148
12.0675
11.4299
10.8021
10.1843
9.5764
8.97895
8.39233
7.82094
7.25974
6.70508
6.15672
5.61338
5.07372
4.53612
3.99861
3.46346
2.92884
2.38565
1.82979
1.26335
1.03001
0.562958
1.8479
1.59425
2.04796
2.60653
3.20727
3.82179
4.44746
5.08421
5.72963
6.38421
7.04809
7.72125
8.40353
9.09457
9.79385
10.5007
11.2143
11.9336
12.6576
13.385
14.1148
14.8454
15.5756
16.304
17.0292
17.7499
18.4646
19.172
19.8709
20.5599
21.2379
21.9038
22.5565
23.1951
23.8185
24.4261
25.0169
25.5905
26.1461
26.6833
27.2017
27.7008
28.1805
28.6404
29.0805
29.5006
29.9007
30.2808
30.641
30.9815
31.3024
31.6043
31.8891
32.1556
32.4039
32.6341
32.8463
33.041
33.2186
33.3793
33.5236
33.6519
33.7646
33.8621
33.945
34.0134
34.068
34.1091
34.1372
34.1525
34.1556
34.1467
34.1263
34.0948
34.0525
33.9997
33.9368
33.8642
33.7821
33.6908
33.5906
33.4819
33.3649
33.2399
33.1071
32.9668
32.8192
32.6645
32.503
32.3349
32.1604
31.9796
31.7928
31.6002
31.4018
31.1979
30.9887
30.7743
30.5548
30.3304
30.1011
29.8673
29.6288
29.386
29.1388
28.8875
28.632
28.3726
28.1092
27.842
27.5711
27.2966
27.0185
26.737
26.4521
26.1638
25.8723
25.5777
25.2799
24.9791
24.6753
24.3687
24.0592
23.747
23.4321
23.1145
22.7944
22.4719
22.1469
21.8196
21.49
21.1583
20.8245
20.4886
20.1509
19.8113
19.4699
19.1269
18.7824
18.4365
18.0892
17.7407
17.3911
17.0406
16.6892
16.3371
15.9844
15.6313
15.2779
14.9244
14.571
14.2177
13.8648
13.5124
13.1607
12.8098
12.46
12.1115
11.7643
11.4188
11.0751
10.7333
10.3937
10.0564
9.72171
9.38971
9.06061
8.73458
8.4118
8.09244
7.77664
7.46457
7.15637
6.85217
6.55208
6.25623
5.96471
5.6776
5.39497
5.11687
4.84334
4.57441
4.31012
4.05055
3.79581
3.54618
3.30092
3.05911
2.82126
2.58681
2.35542
2.12692
1.9014
1.67995
1.46259
1.24944
1.04553
0.876421
0.882958
1.72274
1.84816
1.59425
2.04786
2.60643
3.20716
3.82167
4.44732
5.08406
5.72947
6.38404
7.04791
7.72106
8.40332
9.09435
9.79363
10.5005
11.214
11.9333
12.6573
13.3848
14.1145
14.8451
15.5753
16.3037
17.0289
17.7496
18.4643
19.1717
19.8705
20.5596
21.2376
21.9035
22.5562
23.1947
23.8182
24.4257
25.0166
25.5901
26.1458
26.683
27.2013
27.7005
28.1801
28.64
29.0801
29.5002
29.9003
30.2804
30.6407
30.9811
31.302
31.604
31.8887
32.1552
32.4035
32.6337
32.846
33.0407
33.2182
33.3789
33.5232
33.6515
33.7642
33.8618
33.9446
34.0131
34.0677
34.1088
34.1368
34.1521
34.1552
34.1464
34.126
34.0945
34.0521
33.9994
33.9365
33.8638
33.7817
33.6904
33.5903
33.4816
33.3646
33.2396
33.1068
32.9664
32.8188
32.6642
32.5027
32.3346
32.1601
31.9793
31.7925
31.5998
31.4015
31.1976
30.9884
30.774
30.5545
30.3301
30.1008
29.867
29.6285
29.3857
29.1385
28.8872
28.6317
28.3723
28.1089
27.8418
27.5709
27.2964
27.0183
26.7368
26.4518
26.1636
25.8721
25.5774
25.2796
24.9789
24.6751
24.3684
24.059
23.7467
23.4318
23.1143
22.7942
22.4716
22.1467
21.8194
21.4898
21.1581
20.8243
20.4884
20.1507
19.8111
19.4697
19.1268
18.7822
18.4363
18.089
17.7405
17.3909
17.0404
16.689
16.3369
15.9843
15.6312
15.2778
14.9243
14.5708
14.2175
13.8646
13.5122
13.1605
12.8097
12.4599
12.1114
11.7642
11.4187
11.0749
10.7332
10.3936
10.0563
9.72161
9.38961
9.06051
8.73449
8.41171
8.09234
7.77655
7.46449
7.15629
6.85209
6.55201
6.25616
5.96464
5.67754
5.39491
5.11681
4.84328
4.57435
4.31006
4.05049
3.79576
3.54613
3.30088
3.05907
2.82122
2.58678
2.35539
2.1269
1.90138
1.67998
1.46275
1.24984
1.04485
0.857765
0.704418
0.342798
3.41244
2.15121
2.28666
2.61086
3.00193
3.42601
3.87076
4.33073
4.80289
5.28575
5.77848
6.2805
6.7913
7.31038
7.8372
8.37112
8.91141
9.45727
10.0078
10.5621
11.1191
11.6777
12.2369
12.7956
13.3527
13.907
14.4575
15.003
15.5425
16.075
16.5995
17.1151
17.6209
18.1161
18.6
19.0718
19.531
19.9768
20.409
20.8269
21.2303
21.6187
21.992
22.3499
22.6922
23.019
23.3301
23.6254
23.9052
24.1694
24.4182
24.652
24.8713
25.0761
25.2665
25.4425
25.6043
25.7523
25.8867
26.0077
26.1157
26.211
26.294
26.365
26.4242
26.4721
26.5089
26.5351
26.5509
26.5567
26.5527
26.5394
26.5169
26.4856
26.4459
26.3979
26.3419
26.2783
26.2073
26.1291
26.0439
25.9521
25.8539
25.7494
25.6388
25.5225
25.4005
25.273
25.1403
25.0025
24.8598
24.7123
24.5602
24.4037
24.2428
24.0778
23.9086
23.7356
23.5587
23.3782
23.194
23.0064
22.8153
22.621
22.4235
22.2229
22.0192
21.8126
21.6032
21.3909
21.1759
20.9583
20.7381
20.5154
20.2903
20.0627
19.8328
19.6007
19.3663
19.1298
18.8912
18.6505
18.4079
18.1633
17.9168
17.6685
17.4184
17.1667
16.9132
16.6582
16.4016
16.1436
15.8841
15.6233
15.3612
15.098
14.8335
14.5681
14.3016
14.0343
13.7662
13.4973
13.2278
12.9578
12.6873
12.4166
12.1456
11.8745
11.6034
11.3324
11.0617
10.7913
10.5214
10.2521
9.98365
9.71604
9.44945
9.18404
8.91993
8.65728
8.39621
8.13689
7.87944
7.62402
7.37076
7.1198
6.87129
6.62535
6.38211
6.1417
5.90424
5.66985
5.43863
5.21069
4.98612
4.765
4.54742
4.33343
4.1231
3.91649
3.71362
3.51454
3.31929
3.12792
2.94046
2.75693
2.57718
2.40105
2.22859
2.05973
1.89463
1.73365
1.57727
1.42647
1.2828
1.14888
1.03257
0.965494
1.12889
2.48161
3.41268
2.15114
2.28653
2.61071
3.00177
3.42583
3.87056
4.33053
4.80268
5.28554
5.77826
6.28026
6.79106
7.31014
7.83696
8.37087
8.91115
9.45701
10.0075
10.5618
11.1188
11.6774
12.2367
12.7954
13.3524
13.9067
14.4572
15.0027
15.5422
16.0747
16.5992
17.1148
17.6206
18.1159
18.5997
19.0716
19.5307
19.9766
20.4087
20.8267
21.23
21.6185
21.9917
22.3497
22.692
23.0188
23.3299
23.6252
23.905
24.1692
24.418
24.6519
24.8711
25.0759
25.2663
25.4423
25.6041
25.7521
25.8865
26.0075
26.1156
26.2109
26.2939
26.3648
26.4241
26.4719
26.5088
26.535
26.5508
26.5565
26.5526
26.5392
26.5168
26.4855
26.4457
26.3977
26.3418
26.2782
26.2071
26.1289
26.0438
25.952
25.8538
25.7492
25.6387
25.5223
25.4003
25.2729
25.1402
25.0024
24.8597
24.7122
24.5601
24.4036
24.2427
24.0777
23.9085
23.7355
23.5586
23.3781
23.1939
23.0063
22.8152
22.6209
22.4234
22.2228
22.0191
21.8125
21.6031
21.3908
21.1759
20.9582
20.738
20.5153
20.2902
20.0626
19.8328
19.6006
19.3663
19.1297
18.8911
18.6505
18.4078
18.1632
17.9167
17.6685
17.4184
17.1666
16.9132
16.6581
16.4016
16.1435
15.8841
15.6233
15.3612
15.0979
14.8335
14.568
14.3016
14.0343
13.7661
13.4972
13.2278
12.9577
12.6873
12.4165
12.1455
11.8744
11.6033
11.3324
11.0616
10.7912
10.5214
10.2521
9.98361
9.716
9.44942
9.184
8.9199
8.65724
8.39618
8.13686
7.87941
7.62399
7.37073
7.11978
6.87126
6.62532
6.38208
6.14167
5.90422
5.66983
5.43861
5.21067
4.9861
4.76498
4.5474
4.33341
4.12309
3.91647
3.7136
3.51452
3.31928
3.1279
2.94044
2.75691
2.57717
2.40104
2.22858
2.05972
1.89462
1.73365
1.57726
1.4265
1.283
1.14972
1.03488
0.963323
1.03605
2.15606
5.01207
2.8255
2.71727
2.90421
3.19189
3.52918
3.89618
4.28344
4.68585
5.10052
5.52568
5.96015
6.4031
6.85382
7.31166
7.77598
8.24608
8.72125
9.20071
9.68361
10.1691
10.6563
11.1442
11.6319
12.1184
12.6027
13.0839
13.5611
14.0333
14.4996
14.9591
15.4111
15.8548
16.2894
16.7142
17.1287
17.5322
17.9242
18.3043
18.672
19.027
19.369
19.6977
20.0129
20.3145
20.6024
20.8764
21.1366
21.383
21.6157
21.8347
22.0404
22.2328
22.4123
22.5789
22.7326
22.8739
23.0027
23.1194
23.2242
23.3173
23.3992
23.47
23.53
23.5795
23.6189
23.6484
23.6683
23.6789
23.6806
23.6735
23.6579
23.6343
23.6027
23.5635
23.5169
23.4632
23.4027
23.3355
23.2619
23.1821
23.0963
23.0048
22.9077
22.8052
22.6975
22.5849
22.4673
22.3452
22.2185
22.0874
21.9521
21.8128
21.6695
21.5224
21.3716
21.2173
21.0595
20.8984
20.734
20.5665
20.3959
20.2224
20.0461
19.8669
19.6851
19.5007
19.3137
19.1242
18.9324
18.7382
18.5418
18.3432
18.1424
17.9395
17.7346
17.5278
17.319
17.1084
16.896
16.6818
16.4659
16.2483
16.0291
15.8084
15.5862
15.3626
15.1375
14.9111
14.6834
14.4544
14.2243
13.9931
13.7608
13.5275
13.2932
13.0581
12.8222
12.5856
12.3483
12.1105
11.8721
11.6334
11.3943
11.155
10.9155
10.676
10.4365
10.1972
9.95815
9.71945
9.48121
9.24357
9.00662
8.77048
8.53528
8.30114
8.06817
7.8365
7.60627
7.37758
7.15057
6.92536
6.70208
6.48084
6.26178
6.045
5.83063
5.61878
5.40956
5.20307
4.99942
4.7987
4.601
4.4064
4.215
4.02684
3.84201
3.66057
3.48257
3.30806
3.1371
2.96975
2.80605
2.64607
2.48985
2.33742
2.18884
2.04424
1.90382
1.76793
1.63714
1.51229
1.39491
1.28738
1.19393
1.12348
1.10088
1.24196
2.3343
5.01232
2.82543
2.71713
2.90403
3.1917
3.52898
3.89597
4.28321
4.68562
5.10028
5.52543
5.9599
6.40285
6.85357
7.31141
7.77572
8.24582
8.72099
9.20044
9.68335
10.1688
10.656
11.1439
11.6316
12.1181
12.6024
13.0837
13.5608
14.033
14.4993
14.9589
15.4109
15.8546
16.2892
16.714
17.1285
17.532
17.924
18.3041
18.6718
19.0268
19.3688
19.6975
20.0128
20.3144
20.6022
20.8762
21.1365
21.3829
21.6155
21.8346
22.0402
22.2327
22.4122
22.5787
22.7325
22.8737
23.0026
23.1193
23.2241
23.3173
23.3991
23.4699
23.5299
23.5795
23.6188
23.6483
23.6682
23.6789
23.6805
23.6734
23.6579
23.6342
23.6026
23.5634
23.5169
23.4632
23.4026
23.3354
23.2618
23.182
23.0962
23.0047
22.9076
22.8051
22.6975
22.5848
22.4673
22.3451
22.2184
22.0874
21.9521
21.8128
21.6695
21.5224
21.3716
21.2173
21.0595
20.8983
20.7339
20.5664
20.3959
20.2224
20.046
19.8669
19.6851
19.5006
19.3136
19.1242
18.9324
18.7382
18.5418
18.3431
18.1424
17.9395
17.7346
17.5278
17.319
17.1084
16.8959
16.6817
16.4658
16.2483
16.0291
15.8084
15.5862
15.3625
15.1375
14.9111
14.6834
14.4544
14.2243
13.9931
13.7608
13.5275
13.2932
13.0581
12.8222
12.5856
12.3483
12.1105
11.8721
11.6334
11.3943
11.155
10.9155
10.676
10.4365
10.1972
9.95814
9.71944
9.48121
9.24356
9.00661
8.77048
8.53528
8.30113
8.06817
7.8365
7.60626
7.37758
7.15056
6.92536
6.70207
6.48084
6.26177
6.045
5.83063
5.61878
5.40956
5.20307
4.99942
4.7987
4.601
4.4064
4.21499
4.02684
3.84201
3.66057
3.48257
3.30806
3.1371
2.96975
2.80605
2.64607
2.48985
2.33742
2.18884
2.04424
1.90382
1.76793
1.63713
1.51228
1.39491
1.28744
1.19439
1.12567
1.10801
1.2384
2.31702
6.59133
3.55003
3.22913
3.31094
3.52829
3.81119
4.13237
4.47867
4.84293
5.2209
5.60996
6.00839
6.41496
6.82877
7.24904
7.67509
8.10625
8.54183
8.98113
9.42342
9.86792
10.3138
10.7603
11.2066
11.6518
12.095
12.5354
12.9721
13.4044
13.8314
14.2524
14.6665
15.0732
15.4716
15.8613
16.2417
16.6121
16.9721
17.3213
17.6593
17.9858
18.3004
18.6029
18.8931
19.1708
19.436
19.6886
19.9284
20.1556
20.3701
20.5722
20.7617
20.9391
21.1043
21.2575
21.399
21.5287
21.6469
21.7539
21.8499
21.935
22.0096
22.0738
22.1281
22.1725
22.2074
22.2331
22.2499
22.2579
22.2575
22.2489
22.2324
22.2083
22.1767
22.138
22.0924
22.04
21.9812
21.9162
21.8451
21.7682
21.6857
21.5978
21.5047
21.4064
21.3034
21.1956
21.0832
20.9665
20.8455
20.7205
20.5915
20.4586
20.3221
20.182
20.0385
19.8916
19.7415
19.5883
19.4321
19.2729
19.111
18.9462
18.7789
18.6089
18.4365
18.2616
18.0844
17.9049
17.7232
17.5394
17.3535
17.1656
16.9757
16.7839
16.5903
16.3949
16.1977
15.9988
15.7984
15.5963
15.3927
15.1876
14.9811
14.7732
14.5639
14.3534
14.1416
13.9287
13.7146
13.4994
13.2833
13.0661
12.8481
12.6292
12.4095
12.1891
11.968
11.7464
11.5242
11.3016
11.0786
10.8554
10.6319
10.4083
10.1847
9.9611
9.73767
9.51448
9.29163
9.06922
8.84734
8.62612
8.40564
8.18603
7.96739
7.74983
7.53346
7.31841
7.10479
6.8927
6.68227
6.47361
6.26684
6.06206
5.85939
5.65894
5.46081
5.26511
5.07195
4.8814
4.69358
4.50857
4.32645
4.14732
3.97123
3.79828
3.62853
3.46204
3.29889
3.13914
2.98286
2.83014
2.68105
2.53569
2.39416
2.2566
2.12318
1.99417
1.86992
1.75098
1.63816
1.53267
1.43649
1.35285
1.28768
1.25358
1.28349
1.51017
3.04462
6.59162
3.54994
3.22897
3.31075
3.52807
3.81096
4.13213
4.47843
4.84268
5.22065
5.60971
6.00813
6.4147
6.8285
7.24877
7.67483
8.10598
8.54156
8.98087
9.42315
9.86766
10.3136
10.7601
11.2064
11.6515
12.0947
12.5351
12.9719
13.4042
13.8312
14.2521
14.6663
15.0729
15.4714
15.8611
16.2415
16.6119
16.9719
17.3212
17.6592
17.9856
18.3002
18.6027
18.8929
19.1707
19.4359
19.6884
19.9283
20.1555
20.37
20.572
20.7616
20.939
21.1042
21.2575
21.3989
21.5286
21.6469
21.7539
21.8498
21.9349
22.0095
22.0738
22.128
22.1724
22.2074
22.2331
22.2498
22.2579
22.2574
22.2489
22.2324
22.2082
22.1767
22.138
22.0923
22.04
21.9812
21.9162
21.8451
21.7682
21.6857
21.5978
21.5046
21.4064
21.3033
21.1955
21.0832
20.9665
20.8455
20.7205
20.5914
20.4586
20.3221
20.182
20.0385
19.8916
19.7415
19.5883
19.4321
19.2729
19.111
18.9462
18.7789
18.6089
18.4365
18.2616
18.0844
17.9049
17.7232
17.5394
17.3535
17.1656
16.9757
16.7839
16.5903
16.3948
16.1977
15.9988
15.7984
15.5963
15.3927
15.1876
14.9811
14.7732
14.5639
14.3534
14.1416
13.9287
13.7146
13.4994
13.2833
13.0661
12.8481
12.6292
12.4095
12.1891
11.968
11.7464
11.5242
11.3016
11.0786
10.8554
10.6319
10.4083
10.1847
9.9611
9.73767
9.51448
9.29163
9.06922
8.84735
8.62612
8.40565
8.18603
7.96739
7.74983
7.53347
7.31842
7.10479
6.89271
6.68228
6.47362
6.26684
6.06207
5.8594
5.65895
5.46082
5.26512
5.07195
4.88141
4.69359
4.50857
4.32646
4.14732
3.97124
3.79828
3.62853
3.46204
3.29889
3.13914
2.98287
2.83014
2.68105
2.53569
2.39416
2.2566
2.12319
1.99417
1.86992
1.75098
1.63815
1.53267
1.43647
1.35282
1.28768
1.2539
1.28514
1.51113
3.04446
8.18558
4.301
3.78957
3.78346
3.94623
4.18967
4.47935
4.79866
5.13845
5.49327
5.85968
6.23543
6.61897
7.00916
7.40512
7.8061
8.21144
8.62049
9.03259
9.4471
9.86333
10.2806
10.6981
11.1152
11.5312
11.9451
12.3564
12.7642
13.1678
13.5665
13.9596
14.3465
14.7263
15.0987
15.4629
15.8186
16.1651
16.502
16.8289
17.1454
17.4513
17.7462
18.03
18.3023
18.563
18.8121
19.0494
19.2749
19.4886
19.6905
19.8806
20.0591
20.2261
20.3816
20.5259
20.659
20.7811
20.8924
20.993
21.0832
21.1632
21.2332
21.2934
21.3441
21.3854
21.4178
21.4413
21.4563
21.463
21.4616
21.4524
21.4357
21.4116
21.3804
21.3424
21.2976
21.2465
21.1892
21.1258
21.0567
20.9819
20.9018
20.8164
20.726
20.6307
20.5307
20.4261
20.3172
20.204
20.0868
19.9656
19.8405
19.7118
19.5796
19.4439
19.3048
19.1626
19.0172
18.8688
18.7176
18.5635
18.4066
18.2472
18.0852
17.9207
17.7538
17.5846
17.4132
17.2396
17.0638
16.8861
16.7063
16.5246
16.3411
16.1557
15.9686
15.7798
15.5893
15.3973
15.2037
15.0086
14.812
14.6141
14.4148
14.2143
14.0125
13.8095
13.6053
13.4001
13.1938
12.9866
12.7784
12.5693
12.3595
12.1488
11.9375
11.7255
11.513
11.3
11.0865
10.8727
10.6585
10.4442
10.2298
10.0152
9.80076
9.5864
9.37224
9.15839
8.94493
8.73195
8.51957
8.30787
8.09695
7.88693
7.67791
7.46999
7.26328
7.05789
6.85392
6.65148
6.45069
6.25165
6.05447
5.85925
5.6661
5.47512
5.28641
5.10007
4.9162
4.73488
4.55621
4.38027
4.20716
4.03694
3.8697
3.70552
3.54448
3.38664
3.2321
3.08093
2.93323
2.7891
2.64866
2.51204
2.37941
2.25098
2.12703
2.00792
1.89417
1.7865
1.68595
1.59408
1.51334
1.44782
1.40507
1.4012
1.47856
1.80299
3.79241
8.18591
4.30089
3.78939
3.78324
3.946
4.18942
4.4791
4.79841
5.13819
5.493
5.85941
6.23516
6.6187
7.00889
7.40485
7.80583
8.21117
8.62021
9.03232
9.44683
9.86307
10.2803
10.6979
11.115
11.5309
11.9449
12.3562
12.764
13.1676
13.5663
13.9594
14.3462
14.7261
15.0985
15.4628
15.8184
16.1649
16.5018
16.8287
17.1453
17.4512
17.7461
18.0298
18.3021
18.5629
18.812
19.0493
19.2748
19.4885
19.6904
19.8805
20.059
20.226
20.3815
20.5258
20.6589
20.781
20.8923
20.993
21.0832
21.1632
21.2331
21.2933
21.344
21.3854
21.4177
21.4413
21.4563
21.463
21.4616
21.4524
21.4357
21.4116
21.3804
21.3423
21.2976
21.2465
21.1892
21.1258
21.0567
20.9819
20.9018
20.8164
20.726
20.6307
20.5307
20.4261
20.3172
20.204
20.0868
19.9656
19.8405
19.7118
19.5796
19.4438
19.3048
19.1626
19.0172
18.8688
18.7175
18.5635
18.4066
18.2472
18.0852
17.9207
17.7538
17.5846
17.4132
17.2396
17.0638
16.8861
16.7063
16.5246
16.3411
16.1557
15.9686
15.7798
15.5893
15.3973
15.2037
15.0086
14.812
14.6141
14.4148
14.2143
14.0125
13.8095
13.6053
13.4001
13.1938
12.9866
12.7784
12.5694
12.3595
12.1488
11.9375
11.7255
11.513
11.3
11.0865
10.8727
10.6586
10.4442
10.2298
10.0152
9.80076
9.5864
9.37225
9.15839
8.94493
8.73196
8.51957
8.30787
8.09696
7.88694
7.67792
7.47
7.26329
7.05789
6.85392
6.65149
6.4507
6.25166
6.05448
5.85926
5.66611
5.47513
5.28642
5.10008
4.9162
4.73489
4.55621
4.38028
4.20716
4.03694
3.86971
3.70553
3.54448
3.38665
3.2321
3.08094
2.93324
2.78911
2.64866
2.51205
2.37942
2.25099
2.12703
2.00793
1.89418
1.7865
1.68595
1.59407
1.51333
1.4478
1.40503
1.40119
1.4788
1.80326
3.7924
9.85408
5.08419
4.38881
4.30395
4.42108
4.63341
4.89946
5.19925
5.52175
5.86039
6.21099
6.57081
6.93798
7.31117
7.68939
8.07182
8.45781
8.84673
9.23799
9.63101
10.0252
10.4199
10.8145
11.2084
11.6009
11.9914
12.3791
12.7635
13.1438
13.5195
13.8899
14.2543
14.6123
14.9632
15.3066
15.6419
15.9687
16.2866
16.5952
16.8942
17.1832
17.462
17.7303
17.988
18.2349
18.4709
18.6959
18.9098
19.1126
19.3043
19.485
19.6547
19.8134
19.9614
20.0987
20.2254
20.3417
20.4477
20.5436
20.6295
20.7057
20.7724
20.8297
20.878
20.9173
20.948
20.9702
20.9842
20.9902
20.9884
20.9791
20.9625
20.9388
20.9082
20.871
20.8274
20.7775
20.7215
20.6598
20.5924
20.5195
20.4413
20.3581
20.2699
20.177
20.0795
19.9775
19.8713
19.7609
19.6465
19.5282
19.4062
19.2805
19.1514
19.0189
18.8831
18.7442
18.6022
18.4573
18.3095
18.1589
18.0057
17.8499
17.6916
17.5308
17.3678
17.2024
17.0348
16.8651
16.6934
16.5196
16.3439
16.1663
15.9869
15.8057
15.6228
15.4383
15.2521
15.0644
14.8753
14.6846
14.4926
14.2992
14.1046
13.9087
13.7116
13.5133
13.314
13.1137
12.9123
12.71
12.5069
12.3029
12.0981
11.8927
11.6866
11.4799
11.2727
11.065
10.857
10.6487
10.4401
10.2314
10.0225
9.8137
9.60494
9.39634
9.18799
8.97998
8.77239
8.56532
8.35887
8.15313
7.94819
7.74417
7.54115
7.33924
7.13855
6.93917
6.74122
6.54479
6.34998
6.1569
5.96566
5.77634
5.58906
5.40391
5.22098
5.04037
4.86217
4.68648
4.51337
4.34294
4.17527
4.01045
3.84855
3.68965
3.53386
3.38124
3.23191
3.08595
2.94348
2.80464
2.66957
2.53845
2.41152
2.28904
2.17137
2.059
1.95257
1.85297
1.76148
1.67998
1.61143
1.56081
1.53728
1.56037
1.682
2.10381
4.54961
9.85446
5.08406
4.3886
4.30371
4.42083
4.63314
4.89919
5.19897
5.52147
5.86011
6.2107
6.57053
6.9377
7.31089
7.6891
8.07154
8.45753
8.84646
9.23772
9.63074
10.0249
10.4196
10.8143
11.2082
11.6007
11.9911
12.3789
12.7633
13.1436
13.5193
13.8896
14.2541
14.6121
14.963
15.3064
15.6417
15.9685
16.2864
16.595
16.894
17.183
17.4618
17.7302
17.9879
18.2348
18.4708
18.6958
18.9097
19.1125
19.3042
19.4849
19.6546
19.8133
19.9613
20.0986
20.2253
20.3416
20.4476
20.5435
20.6295
20.7057
20.7724
20.8297
20.8779
20.9173
20.9479
20.9701
20.9841
20.9901
20.9884
20.9791
20.9625
20.9388
20.9082
20.871
20.8274
20.7775
20.7215
20.6598
20.5923
20.5195
20.4413
20.3581
20.2699
20.177
20.0795
19.9775
19.8713
19.7609
19.6465
19.5282
19.4062
19.2805
19.1514
19.0189
18.8831
18.7442
18.6022
18.4573
18.3095
18.1589
18.0057
17.8499
17.6916
17.5308
17.3678
17.2024
17.0348
16.8651
16.6934
16.5196
16.3439
16.1663
15.9869
15.8057
15.6228
15.4383
15.2521
15.0644
14.8753
14.6846
14.4926
14.2992
14.1046
13.9087
13.7116
13.5134
13.314
13.1137
12.9123
12.71
12.5069
12.3029
12.0981
11.8927
11.6866
11.4799
11.2727
11.0651
10.857
10.6487
10.4401
10.2314
10.0225
9.8137
9.60495
9.39635
9.188
8.97998
8.7724
8.56533
8.35888
8.15313
7.9482
7.74417
7.54116
7.33925
7.13856
6.93918
6.74122
6.54479
6.34999
6.15691
5.96566
5.77635
5.58907
5.40391
5.22099
5.04038
4.86218
4.68649
4.51338
4.34295
4.17528
4.01045
3.84855
3.68966
3.53386
3.38125
3.23191
3.08596
2.94349
2.80465
2.66957
2.53846
2.41152
2.28904
2.17138
2.05901
1.95258
1.85298
1.76148
1.67998
1.61143
1.5608
1.53726
1.56035
1.68202
2.10388
4.54959
11.5658
5.89659
5.02236
4.86468
4.94189
5.12839
5.37566
5.6604
5.96982
6.29626
6.63487
6.98247
7.33691
7.69667
8.06065
8.42801
8.79808
9.17027
9.54404
9.91887
10.2942
10.6696
11.0445
11.4183
11.7904
12.1603
12.5274
12.8912
13.251
13.6063
13.9565
14.3011
14.6396
14.9714
15.2962
15.6134
15.9227
16.2236
16.5158
16.7991
17.073
17.3374
17.592
17.8367
18.0712
18.2955
18.5095
18.7131
18.9063
19.089
19.2613
19.4232
19.5749
19.7162
19.8475
19.9687
20.08
20.1815
20.2734
20.3558
20.4289
20.4929
20.5479
20.5942
20.632
20.6614
20.6827
20.6961
20.7018
20.6999
20.6908
20.6745
20.6514
20.6217
20.5854
20.5429
20.4943
20.4398
20.3796
20.3138
20.2427
20.1665
20.0852
19.9992
19.9084
19.8131
19.7134
19.6095
19.5015
19.3896
19.2738
19.1543
19.0313
18.9048
18.775
18.6419
18.5057
18.3664
18.2242
18.0792
17.9315
17.7811
17.6281
17.4727
17.3148
17.1546
16.9921
16.8275
16.6607
16.4919
16.3211
16.1484
15.9738
15.7974
15.6192
15.4394
15.2579
15.0748
14.8902
14.7042
14.5167
14.3278
14.1376
13.9462
13.7535
13.5596
13.3647
13.1686
12.9716
12.7736
12.5747
12.3749
12.1744
11.9731
11.7711
11.5685
11.3654
11.1618
10.9577
10.7534
10.5487
10.3438
10.1388
9.9337
9.72864
9.52368
9.31891
9.1144
8.91025
8.70654
8.50336
8.30082
8.09899
7.89798
7.69788
7.49879
7.3008
7.10403
6.90856
6.71449
6.52193
6.33097
6.14171
5.95425
5.76869
5.58512
5.40364
5.22433
5.04729
4.87261
4.70038
4.53069
4.36362
4.19925
4.03768
3.87899
3.72327
3.57061
3.42113
3.27491
3.13209
2.9928
2.8572
2.72548
2.59786
2.47461
2.35608
2.24272
2.13509
2.03397
1.94041
1.85593
1.78274
1.72431
1.68651
1.68014
1.7283
1.89241
2.41109
5.31503
11.5662
5.89643
5.02212
4.86442
4.94162
5.1281
5.37537
5.66011
5.96952
6.29596
6.63457
6.98218
7.33662
7.69637
8.06036
8.42773
8.7978
9.17
9.54377
9.9186
10.294
10.6694
11.0442
11.418
11.7902
12.1601
12.5272
12.891
13.2508
13.6061
13.9563
14.3009
14.6394
14.9713
15.296
15.6132
15.9225
16.2234
16.5157
16.7989
17.0729
17.3372
17.5919
17.8365
18.0711
18.2954
18.5094
18.713
18.9062
19.0889
19.2612
19.4232
19.5748
19.7162
19.8474
19.9686
20.0799
20.1814
20.2733
20.3557
20.4288
20.4928
20.5479
20.5942
20.632
20.6614
20.6827
20.6961
20.7017
20.6999
20.6908
20.6745
20.6514
20.6216
20.5854
20.5429
20.4943
20.4398
20.3795
20.3138
20.2427
20.1665
20.0852
19.9992
19.9084
19.8131
19.7134
19.6095
19.5015
19.3896
19.2738
19.1543
19.0313
18.9048
18.7749
18.6419
18.5057
18.3664
18.2242
18.0792
17.9315
17.7811
17.6281
17.4727
17.3148
17.1546
16.9921
16.8275
16.6607
16.4919
16.3211
16.1484
15.9738
15.7974
15.6192
15.4394
15.2579
15.0748
14.8902
14.7042
14.5167
14.3278
14.1376
13.9462
13.7535
13.5596
13.3647
13.1686
12.9716
12.7736
12.5747
12.3749
12.1744
11.9731
11.7711
11.5685
11.3654
11.1618
10.9578
10.7534
10.5487
10.3438
10.1388
9.93371
9.72865
9.52369
9.31891
9.11441
8.91025
8.70655
8.50337
8.30082
8.099
7.89798
7.69788
7.49879
7.30081
7.10403
6.90856
6.7145
6.52193
6.33097
6.14172
5.95426
5.7687
5.58513
5.40364
5.22433
5.0473
4.87262
4.70039
4.5307
4.36362
4.19926
4.03768
3.87899
3.72327
3.57062
3.42113
3.27492
3.1321
2.99281
2.85721
2.72549
2.59786
2.47461
2.35609
2.24272
2.13509
2.03397
1.94042
1.85593
1.78274
1.72431
1.6865
1.68014
1.72829
1.89242
2.41113
5.31503
13.3306
6.74003
5.68925
5.46269
5.50386
5.66808
5.89977
6.17234
6.47127
6.78789
7.11673
7.45421
7.79791
8.14618
8.49782
8.85197
9.20796
9.56522
9.92327
10.2817
10.64
10.9977
11.3545
11.7097
12.0631
12.414
12.7621
13.1067
13.4474
13.7837
14.1151
14.4411
14.7613
15.0753
15.3826
15.6828
15.9755
16.2605
16.5373
16.8056
17.0653
17.3161
17.5578
17.7901
18.013
18.2262
18.4298
18.6237
18.8077
18.982
19.1464
19.301
19.4459
19.581
19.7066
19.8227
19.9293
20.0267
20.1149
20.194
20.2643
20.3258
20.3788
20.4234
20.4598
20.4882
20.5087
20.5216
20.5271
20.5253
20.5164
20.5007
20.4782
20.4493
20.4141
20.3727
20.3254
20.2723
20.2137
20.1496
20.0803
20.0059
19.9266
19.8425
19.7538
19.6606
19.5631
19.4614
19.3557
19.246
19.1326
19.0154
18.8948
18.7706
18.6432
18.5125
18.3787
18.2419
18.1022
17.9596
17.8143
17.6664
17.5158
17.3628
17.2074
17.0496
16.8896
16.7274
16.5631
16.3967
16.2283
16.058
15.8858
15.7118
15.5361
15.3586
15.1796
14.9989
14.8167
14.6331
14.448
14.2616
14.0738
13.8848
13.6945
13.5031
13.3106
13.117
12.9224
12.7269
12.5304
12.3332
12.1351
11.9363
11.7369
11.5369
11.3363
11.1352
10.9338
10.732
10.5299
10.3276
10.1252
9.9228
9.72039
9.51809
9.31598
9.11415
8.91267
8.71164
8.51115
8.31129
8.11214
7.9138
7.71636
7.51992
7.32458
7.13042
6.93754
6.74605
6.55603
6.36758
6.18079
5.99577
5.8126
5.63137
5.45218
5.27511
5.10027
4.92772
4.75756
4.58989
4.42478
4.26232
4.10261
3.94573
3.79179
3.64089
3.49314
3.34867
3.20761
3.07013
2.93641
2.80667
2.68118
2.56027
2.44434
2.3339
2.22964
2.13245
2.04355
1.96466
1.89835
1.84861
1.8222
1.83162
1.90357
2.10883
2.72326
6.08524
13.3311
6.73986
5.68899
5.4624
5.50355
5.66778
5.89946
6.17203
6.47096
6.78757
7.11642
7.4539
7.79761
8.14588
8.49752
8.85168
9.20767
9.56494
9.92299
10.2814
10.6397
10.9974
11.3542
11.7095
12.0629
12.4138
12.7618
13.1064
13.4472
13.7835
14.1149
14.4409
14.7612
15.0751
15.3824
15.6826
15.9754
16.2603
16.5371
16.8055
17.0652
17.316
17.5577
17.79
18.0129
18.2261
18.4298
18.6236
18.8077
18.9819
19.1463
19.3009
19.4458
19.581
19.7066
19.8226
19.9293
20.0266
20.1148
20.194
20.2642
20.3258
20.3788
20.4234
20.4598
20.4882
20.5087
20.5216
20.5271
20.5253
20.5164
20.5006
20.4782
20.4493
20.414
20.3727
20.3254
20.2723
20.2137
20.1496
20.0803
20.0059
19.9266
19.8425
19.7538
19.6606
19.5631
19.4614
19.3557
19.246
19.1326
19.0154
18.8948
18.7706
18.6432
18.5125
18.3787
18.2419
18.1022
17.9596
17.8143
17.6664
17.5158
17.3628
17.2074
17.0496
16.8896
16.7274
16.5631
16.3967
16.2283
16.058
15.8858
15.7118
15.5361
15.3586
15.1796
14.9989
14.8167
14.6331
14.448
14.2616
14.0738
13.8848
13.6945
13.5031
13.3106
13.117
12.9224
12.7269
12.5304
12.3332
12.1351
11.9363
11.7369
11.5369
11.3363
11.1352
10.9338
10.732
10.5299
10.3276
10.1252
9.9228
9.72039
9.51809
9.31598
9.11415
8.91268
8.71165
8.51116
8.31129
8.11214
7.9138
7.71637
7.51993
7.32458
7.13042
6.93755
6.74605
6.55603
6.36758
6.1808
5.99577
5.8126
5.63138
5.45218
5.27512
5.10027
4.92772
4.75757
4.58989
4.42478
4.26233
4.10261
3.94574
3.7918
3.6409
3.49315
3.34867
3.20762
3.07013
2.93641
2.80668
2.68119
2.56027
2.44434
2.33391
2.22965
2.13245
2.04355
1.96466
1.89835
1.84861
1.8222
1.83161
1.90357
2.10884
2.7233
6.08524
15.1468
7.61569
6.38989
6.09733
6.10532
6.24983
6.46815
6.73044
7.0205
7.32871
7.64902
7.97749
8.31149
8.64923
8.98946
9.33129
9.67405
10.0172
10.3604
10.7032
11.0453
11.3862
11.7256
12.0632
12.3986
12.7313
13.0609
13.3871
13.7094
14.0273
14.3405
14.6486
14.9512
15.2478
15.5381
15.8218
16.0984
16.3678
16.6296
16.8835
17.1293
17.3667
17.5957
17.8159
18.0273
18.2298
18.4231
18.6074
18.7825
18.9483
19.1049
19.2523
19.3905
19.5196
19.6396
19.7506
19.8526
19.9459
20.0304
20.1063
20.1738
20.2329
20.2838
20.3267
20.3618
20.3891
20.4089
20.4214
20.4266
20.4248
20.4162
20.401
20.3792
20.3511
20.3169
20.2767
20.2306
20.179
20.1219
20.0595
19.9919
19.9193
19.8418
19.7597
19.673
19.5819
19.4865
19.387
19.2834
19.176
19.0648
18.9499
18.8315
18.7097
18.5845
18.4561
18.3246
18.1901
18.0527
17.9124
17.7693
17.6237
17.4754
17.3246
17.1714
17.0159
16.8581
16.6981
16.5359