/*--------------------------------*- C++ -*----------------------------------*\
  =========                 |
  \\      /  F ield         | OpenFOAM: The Open Source CFD Toolbox
   \\    /   O peration     | Website:  https://openfoam.org
    \\  /    A nd           | Version:  8
     \\/     M anipulation  |
\*---------------------------------------------------------------------------*/
FoamFile
{
    version     2.0;
    format      ascii;
    class       volScalarField;
    location    "1700";
    object      k;
}
// * * * * * * * * * * * * * * * * * * * * * * * * * * * * * * * * * * * * * //

dimensions      [0 2 -2 0 0 0 0];

internalField   nonuniform List<scalar> 
48000
(
0.0219818
0.0321997
0.0490497
0.0644164
0.0783642
0.0910319
0.1029
0.114268
0.125071
0.135481
0.145562
0.155364
0.164923
0.174267
0.183417
0.192387
0.201188
0.209827
0.218306
0.226627
0.234791
0.242797
0.250641
0.258321
0.265835
0.273177
0.280345
0.287335
0.294143
0.300766
0.307202
0.313448
0.319501
0.32536
0.331024
0.336491
0.341761
0.346835
0.351711
0.356392
0.360878
0.365171
0.369273
0.373185
0.37691
0.380451
0.38381
0.38699
0.389994
0.392825
0.395486
0.397979
0.400334
0.402538
0.40459
0.406492
0.408246
0.409858
0.411332
0.41267
0.413877
0.414957
0.415913
0.41675
0.41747
0.418076
0.418574
0.418965
0.419252
0.41944
0.419531
0.419528
0.419433
0.41925
0.41898
0.418628
0.418194
0.417681
0.417092
0.416428
0.415692
0.414885
0.41401
0.413068
0.41206
0.41099
0.409857
0.408664
0.407412
0.406102
0.404736
0.403314
0.401838
0.40031
0.398729
0.397097
0.395416
0.393685
0.391905
0.390078
0.388204
0.386283
0.384317
0.382306
0.380251
0.378151
0.376008
0.373821
0.371592
0.369321
0.367007
0.364652
0.362255
0.359817
0.357338
0.354817
0.352257
0.349655
0.347014
0.344331
0.341609
0.338847
0.336044
0.333202
0.330319
0.327397
0.324434
0.321432
0.31839
0.315309
0.312188
0.309027
0.305827
0.302588
0.299309
0.295991
0.292635
0.28924
0.285806
0.282334
0.278824
0.275277
0.271692
0.268071
0.264413
0.260719
0.25699
0.253226
0.249428
0.245596
0.241731
0.237834
0.233906
0.229948
0.22596
0.221943
0.217898
0.213827
0.20973
0.205609
0.201464
0.197297
0.193109
0.1889
0.184673
0.180429
0.176167
0.171891
0.1676
0.163295
0.158979
0.15465
0.150312
0.145963
0.141604
0.137236
0.132858
0.128471
0.124073
0.119663
0.115241
0.110804
0.10635
0.10188
0.0973931
0.0929207
0.0884208
0.0838579
0.0792214
0.0744892
0.0696352
0.0646251
0.0594135
0.0539868
0.0482776
0.0421053
0.0352661
0.0274731
0.0197739
0.0193149
0.0219839
0.032201
0.0490514
0.0644183
0.0783662
0.091034
0.102902
0.11427
0.125073
0.135483
0.145564
0.155366
0.164924
0.174269
0.183419
0.192389
0.20119
0.209828
0.218307
0.226629
0.234793
0.242798
0.250642
0.258323
0.265836
0.273178
0.280346
0.287336
0.294144
0.300767
0.307203
0.313449
0.319502
0.325361
0.331024
0.336491
0.341762
0.346835
0.351712
0.356393
0.360879
0.365172
0.369273
0.373185
0.37691
0.380451
0.38381
0.38699
0.389994
0.392825
0.395486
0.397978
0.400334
0.402538
0.40459
0.406491
0.408246
0.409858
0.411331
0.41267
0.413877
0.414957
0.415913
0.416749
0.417469
0.418076
0.418573
0.418964
0.419252
0.41944
0.419531
0.419527
0.419433
0.419249
0.41898
0.418627
0.418193
0.41768
0.417091
0.416427
0.415691
0.414884
0.414009
0.413067
0.41206
0.410989
0.409857
0.408664
0.407411
0.406102
0.404735
0.403314
0.401838
0.400309
0.398729
0.397097
0.395415
0.393684
0.391905
0.390078
0.388203
0.386283
0.384317
0.382306
0.38025
0.378151
0.376007
0.373821
0.371592
0.36932
0.367007
0.364651
0.362255
0.359816
0.357337
0.354817
0.352256
0.349655
0.347013
0.344331
0.341609
0.338846
0.336044
0.333201
0.330319
0.327396
0.324434
0.321432
0.31839
0.315309
0.312187
0.309027
0.305827
0.302587
0.299309
0.295991
0.292634
0.289239
0.285805
0.282334
0.278824
0.275276
0.271692
0.26807
0.264413
0.260719
0.25699
0.253226
0.249427
0.245596
0.241731
0.237834
0.233906
0.229948
0.225959
0.221943
0.217898
0.213827
0.20973
0.205609
0.201464
0.197297
0.193109
0.1889
0.184673
0.180428
0.176167
0.17189
0.167599
0.163295
0.158979
0.15465
0.150312
0.145962
0.141604
0.137236
0.132858
0.128471
0.124073
0.119663
0.115241
0.110804
0.10635
0.10188
0.0973932
0.0929207
0.0884209
0.083858
0.0792214
0.0744892
0.0696352
0.0646251
0.0594134
0.053986
0.0482732
0.0420831
0.0351591
0.0270035
0.018203
0.0155132
0.0326271
0.0814696
0.116413
0.147118
0.175271
0.201461
0.226231
0.249909
0.2727
0.294768
0.316233
0.337184
0.357687
0.37779
0.397529
0.416927
0.436
0.454756
0.473199
0.491327
0.509138
0.526626
0.543781
0.560597
0.577063
0.593169
0.608906
0.624264
0.639234
0.653809
0.667979
0.68174
0.695084
0.708007
0.720505
0.732576
0.744217
0.755429
0.76621
0.776562
0.786486
0.795986
0.805065
0.813728
0.821977
0.82982
0.837262
0.844309
0.850967
0.857242
0.863142
0.868671
0.873833
0.878654
0.883137
0.887291
0.891124
0.894643
0.897856
0.900773
0.903402
0.90575
0.907827
0.909639
0.911195
0.912502
0.913568
0.9144
0.915005
0.91539
0.915562
0.915526
0.91529
0.914858
0.914238
0.913434
0.912452
0.911297
0.909973
0.908486
0.906841
0.90504
0.90309
0.900993
0.898753
0.896374
0.89386
0.891214
0.888438
0.885536
0.882511
0.879365
0.876102
0.872722
0.86923
0.865626
0.861912
0.858092
0.854166
0.850137
0.846006
0.841774
0.837442
0.833013
0.828488
0.823867
0.819151
0.814342
0.80944
0.804447
0.799362
0.794187
0.788923
0.783569
0.778127
0.772596
0.766978
0.761272
0.755479
0.749599
0.743633
0.73758
0.731441
0.725216
0.718905
0.712508
0.706026
0.699459
0.692806
0.686069
0.679246
0.672339
0.665348
0.658273
0.651114
0.643871
0.636546
0.629139
0.621649
0.614079
0.606428
0.598697
0.590888
0.583001
0.575036
0.566996
0.558882
0.550694
0.542434
0.534104
0.525706
0.51724
0.508709
0.500116
0.491461
0.482746
0.473975
0.46515
0.456272
0.447345
0.43837
0.429351
0.42029
0.411189
0.402051
0.39288
0.383676
0.374444
0.365184
0.3559
0.346594
0.337267
0.327922
0.318558
0.309178
0.299782
0.290369
0.280938
0.271489
0.262019
0.252524
0.242999
0.233439
0.223835
0.214179
0.204459
0.19465
0.184717
0.174655
0.164421
0.153967
0.143233
0.132135
0.120549
0.10836
0.0953393
0.0811231
0.0650322
0.0456079
0.026103
0.032628
0.0814717
0.116415
0.14712
0.175272
0.201463
0.226232
0.249911
0.272702
0.29477
0.316234
0.337185
0.357688
0.377791
0.39753
0.416928
0.436001
0.454757
0.473199
0.491328
0.509139
0.526626
0.543782
0.560597
0.577063
0.593169
0.608906
0.624264
0.639234
0.653808
0.667979
0.681739
0.695083
0.708006
0.720504
0.732575
0.744216
0.755428
0.766209
0.77656
0.786485
0.795985
0.805064
0.813726
0.821976
0.829819
0.837261
0.844307
0.850965
0.857241
0.86314
0.868669
0.873831
0.878652
0.883136
0.88729
0.891122
0.894641
0.897854
0.900771
0.9034
0.905748
0.907825
0.909637
0.911193
0.9125
0.913566
0.914398
0.915003
0.915388
0.91556
0.915524
0.915288
0.914856
0.914236
0.913432
0.91245
0.911295
0.909971
0.908484
0.906839
0.905038
0.903088
0.900991
0.898751
0.896372
0.893858
0.891212
0.888436
0.885534
0.882509
0.879363
0.8761
0.87272
0.869228
0.865624
0.861911
0.85809
0.854165
0.850135
0.846004
0.841772
0.837441
0.833012
0.828486
0.823865
0.819149
0.81434
0.809438
0.804445
0.79936
0.794186
0.788921
0.783567
0.778125
0.772594
0.766976
0.76127
0.755477
0.749597
0.743631
0.737578
0.731439
0.725214
0.718903
0.712507
0.706025
0.699457
0.692805
0.686067
0.679245
0.672338
0.665346
0.658271
0.651112
0.64387
0.636545
0.629137
0.621648
0.614078
0.606427
0.598696
0.590887
0.582999
0.575035
0.566995
0.55888
0.550693
0.542433
0.534103
0.525704
0.517239
0.508708
0.500114
0.491459
0.482745
0.473974
0.465149
0.456271
0.447344
0.438369
0.42935
0.420289
0.411188
0.40205
0.392879
0.383675
0.374443
0.365183
0.355899
0.346593
0.337266
0.327921
0.318557
0.309177
0.299781
0.290368
0.280938
0.271489
0.262018
0.252523
0.242999
0.233438
0.223835
0.214179
0.204459
0.19465
0.184716
0.174654
0.164421
0.153967
0.143233
0.132134
0.120549
0.108362
0.0953556
0.081209
0.0653613
0.0464564
0.026063
0.0484532
0.116236
0.160007
0.197147
0.231267
0.263407
0.294065
0.323545
0.352054
0.379747
0.406743
0.433133
0.458987
0.484357
0.509282
0.533787
0.55789
0.5816
0.60492
0.627848
0.650381
0.672509
0.694223
0.715511
0.736361
0.756762
0.776699
0.796162
0.815138
0.833617
0.851589
0.869045
0.885978
0.90238
0.918248
0.933577
0.948365
0.96261
0.976312
0.989471
1.00209
1.01417
1.02572
1.03675
1.04724
1.05723
1.0667
1.07568
1.08416
1.09215
1.09967
1.10672
1.11331
1.11946
1.12518
1.13048
1.13537
1.13986
1.14396
1.14768
1.15103
1.15403
1.15667
1.15898
1.16096
1.16262
1.16398
1.16503
1.16579
1.16627
1.16648
1.16642
1.16611
1.16554
1.16474
1.1637
1.16243
1.16093
1.15923
1.15731
1.15519
1.15288
1.15037
1.14767
1.14479
1.14174
1.13851
1.13511
1.13155
1.12782
1.12394
1.11991
1.11572
1.11139
1.10691
1.10229
1.09753
1.09264
1.08761
1.08245
1.07716
1.07174
1.06619
1.06052
1.05473
1.04882
1.04279
1.03663
1.03037
1.02398
1.01748
1.01087
1.00414
0.997296
0.990342
0.983278
0.976102
0.968815
0.961419
0.953913
0.946298
0.938574
0.930741
0.9228
0.91475
0.906593
0.898328
0.889956
0.881477
0.87289
0.864198
0.855399
0.846494
0.837484
0.828369
0.81915
0.809827
0.8004
0.790872
0.781242
0.771511
0.761681
0.751752
0.741726
0.731604
0.721388
0.711079
0.700679
0.69019
0.679613
0.668952
0.658207
0.647382
0.636478
0.6255
0.614448
0.603326
0.592138
0.580885
0.569571
0.5582
0.546774
0.535298
0.523773
0.512204
0.500594
0.488945
0.477262
0.465547
0.453803
0.442032
0.430237
0.418421
0.406583
0.394726
0.382851
0.370956
0.359041
0.347105
0.335143
0.323153
0.311128
0.29906
0.286941
0.274758
0.262495
0.25013
0.237634
0.224979
0.21212
0.199011
0.185594
0.171779
0.157451
0.142445
0.126538
0.109281
0.0896655
0.0650484
0.0352589
0.0484548
0.116238
0.160008
0.197148
0.231268
0.263407
0.294065
0.323546
0.352055
0.379747
0.406743
0.433133
0.458987
0.484357
0.509282
0.533787
0.55789
0.581599
0.604919
0.627848
0.65038
0.672508
0.694222
0.71551
0.73636
0.756761
0.776698
0.796161
0.815137
0.833616
0.851587
0.869043
0.885976
0.902379
0.918246
0.933575
0.948363
0.962608
0.97631
0.989469
1.00209
1.01417
1.02572
1.03674
1.04724
1.05723
1.0667
1.07567
1.08415
1.09215
1.09967
1.10672
1.11331
1.11946
1.12518
1.13048
1.13537
1.13986
1.14396
1.14768
1.15103
1.15402
1.15667
1.15898
1.16096
1.16262
1.16397
1.16503
1.16579
1.16627
1.16648
1.16642
1.16611
1.16554
1.16473
1.16369
1.16242
1.16093
1.15923
1.15731
1.15519
1.15287
1.15037
1.14767
1.14479
1.14174
1.13851
1.13511
1.13155
1.12782
1.12394
1.1199
1.11572
1.11139
1.10691
1.10229
1.09753
1.09263
1.08761
1.08244
1.07715
1.07173
1.06619
1.06052
1.05473
1.04882
1.04278
1.03663
1.03036
1.02398
1.01748
1.01086
1.00413
0.997294
0.99034
0.983275
0.9761
0.968813
0.961417
0.953911
0.946296
0.938572
0.930739
0.922797
0.914748
0.906591
0.898326
0.889954
0.881475
0.872888
0.864196
0.855397
0.846492
0.837482
0.828367
0.819148
0.809825
0.800399
0.79087
0.78124
0.771509
0.761679
0.75175
0.741724
0.731603
0.721386
0.711077
0.700677
0.690188
0.679612
0.66895
0.658205
0.64738
0.636477
0.625498
0.614446
0.603325
0.592136
0.580883
0.56957
0.558199
0.546773
0.535296
0.523772
0.512203
0.500592
0.488944
0.477261
0.465546
0.453802
0.442031
0.430236
0.41842
0.406582
0.394725
0.38285
0.370955
0.35904
0.347104
0.335142
0.323152
0.311127
0.299059
0.28694
0.274757
0.262494
0.250129
0.237633
0.224978
0.21212
0.199011
0.185594
0.171779
0.157451
0.142449
0.126566
0.109422
0.0902169
0.0661561
0.02874
0.0625678
0.145637
0.196567
0.238612
0.27694
0.313077
0.347651
0.380996
0.413321
0.444778
0.475479
0.505512
0.534946
0.563833
0.592213
0.620113
0.647552
0.67454
0.701082
0.727177
0.752821
0.778003
0.802716
0.826945
0.850679
0.873903
0.896604
0.918769
0.940384
0.961438
0.981919
1.00182
1.02112
1.03983
1.05794
1.07543
1.09232
1.10859
1.12424
1.13928
1.15371
1.16753
1.18074
1.19336
1.20538
1.21682
1.22768
1.23797
1.2477
1.25687
1.26551
1.27361
1.28119
1.28826
1.29485
1.30095
1.30658
1.31175
1.31648
1.32077
1.32464
1.32809
1.33115
1.33382
1.33612
1.33804
1.33961
1.34084
1.34173
1.3423
1.34255
1.3425
1.34215
1.34151
1.3406
1.33941
1.33796
1.33625
1.3343
1.3321
1.32967
1.32701
1.32413
1.32103
1.31772
1.3142
1.31049
1.30658
1.30248
1.29819
1.29373
1.28908
1.28426
1.27927
1.27412
1.2688
1.26332
1.25768
1.25189
1.24595
1.23985
1.23361
1.22722
1.22069
1.21402
1.20721
1.20026
1.19318
1.18596
1.1786
1.17112
1.1635
1.15575
1.14787
1.13987
1.13173
1.12347
1.11508
1.10657
1.09793
1.08916
1.08027
1.07126
1.06212
1.05285
1.04347
1.03396
1.02433
1.01457
1.0047
0.994702
0.984584
0.974345
0.963987
0.953509
0.942912
0.932197
0.921365
0.910416
0.899353
0.888175
0.876884
0.865482
0.853969
0.842348
0.830621
0.818788
0.806852
0.794816
0.782681
0.77045
0.758125
0.74571
0.733207
0.720619
0.707949
0.695201
0.682378
0.669483
0.65652
0.643492
0.630404
0.617259
0.604061
0.590813
0.577519
0.564184
0.550809
0.5374
0.523958
0.510487
0.49699
0.483469
0.469925
0.45636
0.442774
0.429168
0.415541
0.40189
0.388213
0.374505
0.36076
0.346971
0.333128
0.319218
0.305224
0.291125
0.276896
0.262505
0.247912
0.233068
0.217911
0.202351
0.186281
0.169526
0.151835
0.132714
0.111049
0.0836024
0.0373949
0.0625698
0.145639
0.196569
0.238612
0.276941
0.313077
0.347651
0.380995
0.413321
0.444778
0.475478
0.505511
0.534945
0.563832
0.592212
0.620112
0.647551
0.674539
0.701081
0.727176
0.752819
0.778002
0.802714
0.826944
0.850678
0.873902
0.896603
0.918767
0.940382
0.961436
0.981917
1.00182
1.02112
1.03983
1.05794
1.07543
1.09231
1.10858
1.12424
1.13928
1.15371
1.16753
1.18074
1.19336
1.20538
1.21682
1.22768
1.23797
1.24769
1.25687
1.2655
1.27361
1.28119
1.28826
1.29484
1.30094
1.30657
1.31175
1.31647
1.32076
1.32463
1.32809
1.33115
1.33382
1.33611
1.33804
1.33961
1.34084
1.34173
1.3423
1.34255
1.3425
1.34215
1.34151
1.3406
1.33941
1.33796
1.33625
1.33429
1.3321
1.32967
1.32701
1.32412
1.32102
1.31772
1.3142
1.31049
1.30658
1.30248
1.29819
1.29373
1.28908
1.28426
1.27927
1.27412
1.2688
1.26332
1.25768
1.25189
1.24594
1.23985
1.23361
1.22722
1.22069
1.21402
1.20721
1.20026
1.19318
1.18596
1.1786
1.17112
1.1635
1.15575
1.14787
1.13987
1.13173
1.12347
1.11508
1.10656
1.09792
1.08916
1.08027
1.07125
1.06211
1.05285
1.04347
1.03396
1.02433
1.01457
1.0047
0.9947
0.984582
0.974344
0.963985
0.953507
0.94291
0.932195
0.921363
0.910415
0.899351
0.888173
0.876883
0.86548
0.853968
0.842347
0.830619
0.818786
0.806851
0.794814
0.782679
0.770448
0.758124
0.745709
0.733206
0.720618
0.707948
0.6952
0.682377
0.669482
0.656519
0.643491
0.630403
0.617258
0.60406
0.590812
0.577518
0.564182
0.550808
0.537399
0.523957
0.510486
0.496989
0.483468
0.469924
0.456359
0.442773
0.429167
0.41554
0.401889
0.388212
0.374504
0.360759
0.346971
0.333127
0.319217
0.305223
0.291125
0.276895
0.262504
0.247911
0.233068
0.21791
0.20235
0.18628
0.169526
0.151843
0.13276
0.111229
0.0839542
0.0369545
0.0751014
0.172513
0.230141
0.276702
0.318708
0.358169
0.3959
0.432306
0.467623
0.502007
0.535572
0.568407
0.600579
0.632142
0.663136
0.693593
0.723532
0.752967
0.781904
0.810343
0.838283
0.865715
0.892631
0.919018
0.944864
0.970156
0.994879
1.01902
1.04257
1.06551
1.08782
1.10951
1.13057
1.15097
1.17072
1.18982
1.20825
1.22602
1.24312
1.25956
1.27534
1.29046
1.30493
1.31875
1.33192
1.34446
1.35637
1.36766
1.37835
1.38843
1.39792
1.40684
1.41519
1.42299
1.43025
1.43698
1.4432
1.44892
1.45415
1.45891
1.4632
1.46704
1.47044
1.47342
1.47598
1.47814
1.47991
1.4813
1.48232
1.48298
1.4833
1.48328
1.48293
1.48226
1.48129
1.48001
1.47845
1.4766
1.47447
1.47208
1.46943
1.46653
1.46338
1.45999
1.45637
1.45252
1.44845
1.44416
1.43966
1.43495
1.43005
1.42494
1.41964
1.41416
1.40849
1.40264
1.3966
1.3904
1.38402
1.37748
1.37077
1.36389
1.35685
1.34966
1.34231
1.3348
1.32714
1.31933
1.31137
1.30326
1.29501
1.28661
1.27806
1.26937
1.26054
1.25157
1.24246
1.2332
1.22381
1.21428
1.20461
1.19481
1.18486
1.17478
1.16456
1.15421
1.14372
1.1331
1.12234
1.11145
1.10043
1.08927
1.07798
1.06656
1.05501
1.04332
1.03151
1.01957
1.0075
0.995306
0.982987
0.970544
0.957979
0.945294
0.932491
0.919571
0.906536
0.89339
0.880133
0.86677
0.853301
0.839731
0.826063
0.812298
0.798442
0.784497
0.770467
0.756355
0.742165
0.727901
0.713568
0.699169
0.684708
0.670189
0.655616
0.640994
0.626325
0.611615
0.596866
0.582083
0.567267
0.552422
0.537551
0.522655
0.507736
0.492794
0.47783
0.462842
0.44783
0.43279
0.417718
0.402609
0.387454
0.372245
0.356968
0.341608
0.326146
0.310557
0.29481
0.278869
0.262684
0.246192
0.229308
0.211908
0.193806
0.174685
0.153986
0.130365
0.0997876
0.0448819
0.0751036
0.172515
0.230143
0.276702
0.318708
0.358169
0.3959
0.432306
0.467623
0.502006
0.535572
0.568406
0.600578
0.632141
0.663135
0.693592
0.723531
0.752966
0.781902
0.810342
0.838282
0.865714
0.892629
0.919017
0.944863
0.970154
0.994878
1.01902
1.04257
1.0655
1.08782
1.10951
1.13056
1.15097
1.17072
1.18981
1.20825
1.22602
1.24312
1.25956
1.27534
1.29046
1.30493
1.31874
1.33192
1.34446
1.35637
1.36766
1.37834
1.38843
1.39792
1.40684
1.41519
1.42299
1.43025
1.43698
1.4432
1.44892
1.45415
1.45891
1.4632
1.46704
1.47044
1.47342
1.47598
1.47814
1.47991
1.4813
1.48232
1.48298
1.4833
1.48328
1.48293
1.48226
1.48129
1.48001
1.47845
1.4766
1.47447
1.47208
1.46943
1.46653
1.46338
1.45999
1.45637
1.45252
1.44844
1.44416
1.43966
1.43495
1.43004
1.42494
1.41964
1.41416
1.40849
1.40263
1.3966
1.3904
1.38402
1.37748
1.37076
1.36389
1.35685
1.34966
1.34231
1.3348
1.32714
1.31933
1.31137
1.30326
1.29501
1.28661
1.27806
1.26937
1.26054
1.25157
1.24246
1.2332
1.22381
1.21428
1.20461
1.1948
1.18486
1.17478
1.16456
1.15421
1.14372
1.1331
1.12234
1.11145
1.10043
1.08927
1.07798
1.06656
1.055
1.04332
1.03151
1.01957
1.0075
0.995305
0.982985
0.970543
0.957978
0.945293
0.93249
0.91957
0.906535
0.893388
0.880132
0.866768
0.8533
0.83973
0.826062
0.812297
0.798441
0.784496
0.770465
0.756354
0.742164
0.7279
0.713567
0.699168
0.684707
0.670188
0.655615
0.640993
0.626325
0.611614
0.596866
0.582082
0.567266
0.552422
0.53755
0.522654
0.507735
0.492793
0.477829
0.462842
0.44783
0.43279
0.417718
0.402608
0.387454
0.372244
0.356967
0.341608
0.326145
0.310556
0.29481
0.278868
0.262684
0.246192
0.229307
0.211908
0.193804
0.174684
0.153991
0.130395
0.099841
0.0448242
0.0867656
0.19772
0.261981
0.312976
0.358493
0.401012
0.441555
0.48062
0.518488
0.555333
0.591281
0.626422
0.66083
0.694559
0.727654
0.760149
0.792067
0.823425
0.854234
0.884496
0.914212
0.943376
0.971982
1.00002
1.02748
1.05434
1.0806
1.10624
1.13126
1.15562
1.17934
1.20239
1.22476
1.24646
1.26747
1.28778
1.3074
1.32632
1.34454
1.36206
1.37888
1.39501
1.41045
1.4252
1.43928
1.45268
1.46542
1.47751
1.48896
1.49977
1.50996
1.51953
1.52851
1.5369
1.54471
1.55197
1.55868
1.56486
1.57051
1.57566
1.58032
1.58449
1.5882
1.59145
1.59425
1.59663
1.59859
1.60014
1.60129
1.60206
1.60246
1.60249
1.60217
1.60151
1.60052
1.5992
1.59757
1.59564
1.59341
1.59089
1.58808
1.58501
1.58167
1.57807
1.57421
1.57011
1.56577
1.5612
1.5564
1.55137
1.54612
1.54066
1.53499
1.52912
1.52305
1.51678
1.51031
1.50366
1.49681
1.48979
1.48259
1.4752
1.46765
1.45992
1.45202
1.44395
1.43572
1.42732
1.41876
1.41004
1.40116
1.39212
1.38293
1.37358
1.36407
1.35442
1.34461
1.33464
1.32453
1.31427
1.30386
1.2933
1.28259
1.27173
1.26073
1.24958
1.23828
1.22684
1.21525
1.20352
1.19164
1.17962
1.16746
1.15516
1.14271
1.13013
1.11741
1.10455
1.09155
1.07842
1.06515
1.05175
1.03822
1.02456
1.01077
0.99686
0.982826
0.968672
0.9544
0.940014
0.925516
0.910909
0.896196
0.881381
0.866468
0.85146
0.83636
0.821173
0.805903
0.790554
0.77513
0.759635
0.744073
0.728449
0.712767
0.697031
0.681246
0.665414
0.64954
0.633628
0.61768
0.601699
0.585689
0.569651
0.553586
0.537496
0.521381
0.50524
0.489072
0.472873
0.456641
0.44037
0.424053
0.40768
0.391241
0.374721
0.3581
0.341357
0.324462
0.307379
0.290058
0.272434
0.254416
0.235868
0.216576
0.196173
0.173974
0.148388
0.114622
0.0519525
0.086768
0.197722
0.261982
0.312976
0.358493
0.401012
0.441554
0.48062
0.518487
0.555333
0.59128
0.626422
0.660829
0.694558
0.727653
0.760148
0.792066
0.823424
0.854233
0.884495
0.91421
0.943375
0.97198
1.00002
1.02748
1.05434
1.0806
1.10624
1.13125
1.15562
1.17934
1.20239
1.22476
1.24646
1.26746
1.28778
1.3074
1.32632
1.34454
1.36206
1.37888
1.39501
1.41045
1.4252
1.43928
1.45268
1.46542
1.47751
1.48896
1.49977
1.50995
1.51953
1.52851
1.53689
1.54471
1.55197
1.55868
1.56485
1.57051
1.57566
1.58032
1.58449
1.5882
1.59145
1.59425
1.59663
1.59858
1.60013
1.60129
1.60206
1.60246
1.60249
1.60217
1.60151
1.60052
1.5992
1.59757
1.59564
1.5934
1.59088
1.58808
1.58501
1.58167
1.57806
1.57421
1.57011
1.56577
1.5612
1.55639
1.55137
1.54612
1.54066
1.53499
1.52912
1.52304
1.51677
1.51031
1.50365
1.49681
1.48979
1.48258
1.4752
1.46765
1.45992
1.45202
1.44395
1.43572
1.42732
1.41876
1.41004
1.40116
1.39212
1.38293
1.37358
1.36407
1.35441
1.3446
1.33464
1.32453
1.31427
1.30386
1.29329
1.28259
1.27173
1.26073
1.24957
1.23828
1.22684
1.21525
1.20352
1.19164
1.17962
1.16746
1.15516
1.14271
1.13013
1.11741
1.10455
1.09155
1.07841
1.06515
1.05175
1.03822
1.02456
1.01077
0.996859
0.982825
0.968671
0.954399
0.940013
0.925515
0.910908
0.896195
0.88138
0.866467
0.851459
0.836359
0.821172
0.805902
0.790553
0.775129
0.759634
0.744072
0.728448
0.712767
0.697031
0.681245
0.665413
0.649539
0.633627
0.617679
0.601699
0.585688
0.56965
0.553585
0.537496
0.52138
0.505239
0.489071
0.472873
0.456641
0.44037
0.424052
0.40768
0.391241
0.37472
0.3581
0.341357
0.324462
0.307379
0.290058
0.272434
0.254416
0.235868
0.216575
0.196171
0.173973
0.148391
0.114628
0.0519451
0.0981905
0.221997
0.292741
0.348124
0.397088
0.442546
0.485725
0.527226
0.567382
0.6064
0.644419
0.681542
0.717848
0.753397
0.78824
0.822414
0.855948
0.888863
0.921174
0.952888
0.984009
1.01453
1.04446
1.07378
1.10249
1.13057
1.15801
1.1848
1.21094
1.2364
1.26118
1.28527
1.30866
1.33134
1.35331
1.37456
1.39509
1.4149
1.43398
1.45233
1.46997
1.48688
1.50308
1.51858
1.53336
1.54746
1.56086
1.57359
1.58564
1.59704
1.60779
1.61791
1.6274
1.63628
1.64456
1.65225
1.65938
1.66595
1.67197
1.67746
1.68243
1.6869
1.69088
1.69438
1.69741
1.69999
1.70213
1.70384
1.70513
1.70601
1.7065
1.70661
1.70635
1.70572
1.70474
1.70342
1.70177
1.69979
1.69749
1.69489
1.69199
1.6888
1.68533
1.68158
1.67756
1.67328
1.66874
1.66395
1.65891
1.65364
1.64814
1.6424
1.63644
1.63027
1.62387
1.61727
1.61046
1.60345
1.59623
1.58883
1.58122
1.57343
1.56545
1.55729
1.54894
1.54041
1.53171
1.52283
1.51378
1.50455
1.49515
1.48559
1.47586
1.46596
1.45589
1.44566
1.43527
1.42472
1.414
1.40313
1.39209
1.3809
1.36955
1.35804
1.34637
1.33455
1.32257
1.31043
1.29814
1.2857
1.27311
1.26036
1.24746
1.23441
1.22121
1.20786
1.19436
1.18072
1.16693
1.153
1.13892
1.12471
1.11035
1.09586
1.08124
1.06648
1.0516
1.03658
1.02144
1.00618
0.990803
0.975309
0.959703
0.943989
0.92817
0.91225
0.896233
0.880123
0.863925
0.847642
0.831279
0.81484
0.798329
0.781751
0.765111
0.748411
0.731658
0.714853
0.698002
0.681107
0.664173
0.647201
0.630195
0.613157
0.596088
0.57899
0.561862
0.544704
0.527515
0.510293
0.493034
0.475733
0.458384
0.440979
0.423507
0.405953
0.388302
0.37053
0.352609
0.334502
0.316159
0.297509
0.278452
0.258837
0.238418
0.216772
0.193086
0.165538
0.128636
0.0586531
0.098193
0.221999
0.292742
0.348125
0.397088
0.442546
0.485724
0.527225
0.567381
0.606399
0.644418
0.681541
0.717847
0.753396
0.788239
0.822413
0.855947
0.888862
0.921173
0.952887
0.984008
1.01453
1.04446
1.07378
1.10249
1.13056
1.15801
1.1848
1.21093
1.2364
1.26118
1.28527
1.30866
1.33134
1.35331
1.37456
1.39509
1.41489
1.43397
1.45233
1.46997
1.48688
1.50308
1.51857
1.53336
1.54745
1.56086
1.57358
1.58564
1.59704
1.60779
1.6179
1.6274
1.63627
1.64455
1.65225
1.65938
1.66594
1.67197
1.67746
1.68243
1.6869
1.69088
1.69438
1.69741
1.69999
1.70213
1.70383
1.70513
1.70601
1.7065
1.70661
1.70635
1.70572
1.70474
1.70342
1.70176
1.69979
1.69749
1.69489
1.69199
1.6888
1.68533
1.68158
1.67756
1.67327
1.66873
1.66395
1.65891
1.65364
1.64813
1.6424
1.63644
1.63026
1.62387
1.61727
1.61046
1.60345
1.59623
1.58882
1.58122
1.57343
1.56545
1.55729
1.54894
1.54041
1.53171
1.52283
1.51378
1.50455
1.49515
1.48559
1.47585
1.46596
1.45589
1.44566
1.43527
1.42472
1.414
1.40313
1.39209
1.3809
1.36954
1.35804
1.34637
1.33455
1.32257
1.31043
1.29814
1.2857
1.27311
1.26036
1.24746
1.23441
1.22121
1.20786
1.19436
1.18072
1.16693
1.153
1.13892
1.12471
1.11035
1.09586
1.08124
1.06648
1.05159
1.03658
1.02144
1.00618
0.990802
0.975308
0.959702
0.943988
0.928169
0.912249
0.896232
0.880122
0.863924
0.847641
0.831278
0.814839
0.798328
0.781751
0.76511
0.748411
0.731657
0.714853
0.698001
0.681107
0.664172
0.647201
0.630195
0.613157
0.596088
0.578989
0.561861
0.544703
0.527515
0.510293
0.493034
0.475733
0.458384
0.440979
0.423506
0.405953
0.388302
0.37053
0.352609
0.334502
0.316158
0.297509
0.278452
0.258837
0.238418
0.216772
0.193085
0.165538
0.128637
0.0586522
0.109256
0.245658
0.322779
0.382522
0.434904
0.483242
0.528956
0.572754
0.61503
0.656025
0.695901
0.734775
0.772737
0.809855
0.846186
0.881775
0.916655
0.950853
0.984389
1.01728
1.04952
1.08113
1.11209
1.14241
1.17209
1.2011
1.22945
1.25713
1.28412
1.31041
1.336
1.36088
1.38503
1.40846
1.43116
1.45312
1.47435
1.49483
1.51457
1.53356
1.55182
1.56935
1.58614
1.6022
1.61755
1.63218
1.64611
1.65934
1.67189
1.68376
1.69497
1.70552
1.71543
1.72472
1.73338
1.74145
1.74892
1.75583
1.76216
1.76795
1.77321
1.77794
1.78216
1.78588
1.78912
1.79189
1.7942
1.79607
1.7975
1.79851
1.7991
1.7993
1.7991
1.79853
1.79759
1.79629
1.79464
1.79265
1.79034
1.78769
1.78474
1.78148
1.77792
1.77407
1.76993
1.76552
1.76084
1.75589
1.75069
1.74523
1.73953
1.73359
1.72741
1.72099
1.71435
1.70749
1.70041
1.69311
1.6856
1.67788
1.66996
1.66184
1.65351
1.64499
1.63628
1.62738
1.61829
1.60901
1.59955
1.58991
1.58008
1.57008
1.5599
1.54954
1.539
1.5283
1.51742
1.50636
1.49514
1.48375
1.47219
1.46046
1.44856
1.4365
1.42427
1.41187
1.39931
1.38659
1.3737
1.36065
1.34744
1.33407
1.32054
1.30685
1.293
1.27899
1.26483
1.25052
1.23605
1.22143
1.20666
1.19174
1.17668
1.16147
1.14612
1.13063
1.11501
1.09925
1.08336
1.06734
1.0512
1.03494
1.01855
1.00206
0.985451
0.968737
0.951921
0.935006
0.917996
0.900897
0.883711
0.866445
0.849101
0.831684
0.814199
0.79665
0.779041
0.761376
0.743658
0.725891
0.708078
0.690223
0.672327
0.654393
0.636423
0.618417
0.600376
0.5823
0.564187
0.546036
0.527844
0.509606
0.491316
0.472966
0.454547
0.436046
0.417445
0.398723
0.379851
0.360791
0.341488
0.321867
0.301816
0.281164
0.259634
0.236744
0.211566
0.182043
0.142031
0.0650592
0.109258
0.245661
0.32278
0.382523
0.434904
0.483242
0.528956
0.572753
0.615029
0.656024
0.6959
0.734774
0.772736
0.809854
0.846185
0.881773
0.916653
0.950852
0.984388
1.01727
1.04952
1.08112
1.11209
1.14241
1.17209
1.2011
1.22945
1.25713
1.28411
1.31041
1.336
1.36088
1.38503
1.40846
1.43116
1.45312
1.47435
1.49483
1.51457
1.53356
1.55182
1.56935
1.58614
1.6022
1.61755
1.63218
1.64611
1.65934
1.67189
1.68376
1.69497
1.70552
1.71543
1.72472
1.73338
1.74145
1.74892
1.75582
1.76216
1.76795
1.7732
1.77794
1.78216
1.78588
1.78912
1.79189
1.7942
1.79607
1.7975
1.7985
1.7991
1.7993
1.7991
1.79853
1.79759
1.79629
1.79464
1.79265
1.79033
1.78769
1.78474
1.78148
1.77792
1.77407
1.76993
1.76552
1.76084
1.75589
1.75069
1.74523
1.73953
1.73359
1.7274
1.72099
1.71435
1.70749
1.7004
1.69311
1.6856
1.67788
1.66996
1.66183
1.65351
1.64499
1.63628
1.62738
1.61829
1.60901
1.59955
1.58991
1.58008
1.57008
1.55989
1.54954
1.539
1.5283
1.51742
1.50636
1.49514
1.48375
1.47219
1.46046
1.44856
1.4365
1.42427
1.41187
1.39931
1.38659
1.3737
1.36065
1.34744
1.33407
1.32054
1.30685
1.293
1.27899
1.26483
1.25052
1.23605
1.22143
1.20666
1.19174
1.17668
1.16147
1.14612
1.13063
1.11501
1.09925
1.08336
1.06734
1.0512
1.03494
1.01855
1.00206
0.98545
0.968737
0.95192
0.935005
0.917996
0.900896
0.883711
0.866444
0.8491
0.831684
0.814199
0.79665
0.779041
0.761375
0.743657
0.72589
0.708078
0.690222
0.672326
0.654393
0.636422
0.618416
0.600375
0.582299
0.564187
0.546036
0.527844
0.509605
0.491315
0.472966
0.454547
0.436046
0.417445
0.398723
0.379851
0.36079
0.341488
0.321867
0.301816
0.281164
0.259634
0.236744
0.211566
0.182043
0.142031
0.065059
0.120105
0.268892
0.352321
0.416408
0.472193
0.523376
0.571563
0.617565
0.66184
0.704672
0.746247
0.7867
0.826134
0.86463
0.90225
0.939048
0.975065
1.01033
1.04488
1.07872
1.11187
1.14433
1.17611
1.20722
1.23763
1.26737
1.2964
1.32474
1.35237
1.37928
1.40547
1.43093
1.45566
1.47964
1.50287
1.52536
1.54709
1.56808
1.5883
1.60778
1.62651
1.64449
1.66172
1.67822
1.694
1.70904
1.72338
1.73701
1.74994
1.76218
1.77375
1.78466
1.79491
1.80452
1.81351
1.82188
1.82965
1.83683
1.84344
1.84948
1.85498
1.85994
1.86437
1.8683
1.87173
1.87468
1.87716
1.87917
1.88074
1.88187
1.88258
1.88287
1.88276
1.88226
1.88137
1.88012
1.8785
1.87653
1.87421
1.87156
1.86858
1.86529
1.86168
1.85777
1.85356
1.84907
1.84429
1.83923
1.83391
1.82832
1.82247
1.81637
1.81002
1.80343
1.7966
1.78954
1.78224
1.77472
1.76698
1.75902
1.75084
1.74245
1.73385
1.72505
1.71604
1.70683
1.69743
1.68782
1.67803
1.66804
1.65786
1.64749
1.63694
1.6262
1.61527
1.60416
1.59287
1.5814
1.56975
1.55792
1.54592
1.53374
1.52138
1.50884
1.49613
1.48325
1.4702
1.45697
1.44357
1.43
1.41627
1.40236
1.38828
1.37404
1.35964
1.34507
1.33033
1.31544
1.30038
1.28517
1.2698
1.25427
1.23859
1.22276
1.20678
1.19066
1.1744
1.15799
1.14144
1.12477
1.10796
1.09102
1.07396
1.05678
1.03948
1.02207
1.00455
0.986921
0.969196
0.951375
0.933462
0.915462
0.897378
0.879215
0.860978
0.84267
0.824295
0.805857
0.787359
0.768806
0.7502
0.731545
0.712841
0.694092
0.6753
0.656464
0.637586
0.618666
0.599702
0.580693
0.561636
0.542527
0.523361
0.50413
0.484825
0.465433
0.445938
0.426316
0.406539
0.386565
0.366337
0.34577
0.324741
0.30306
0.280414
0.256266
0.229586
0.198073
0.154977
0.0712014
0.120108
0.268894
0.352322
0.416408
0.472193
0.523376
0.571562
0.617564
0.661839
0.704671
0.746246
0.786699
0.826133
0.864628
0.902249
0.939047
0.975063
1.01033
1.04488
1.07872
1.11187
1.14433
1.17611
1.20721
1.23763
1.26736
1.2964
1.32474
1.35237
1.37928
1.40547
1.43093
1.45565
1.47964
1.50287
1.52536
1.54709
1.56807
1.5883
1.60778
1.6265
1.64448
1.66172
1.67822
1.69399
1.70904
1.72338
1.737
1.74994
1.76218
1.77375
1.78466
1.79491
1.80452
1.81351
1.82188
1.82965
1.83683
1.84343
1.84948
1.85497
1.85993
1.86437
1.8683