/*--------------------------------*- C++ -*----------------------------------*\
  =========                 |
  \\      /  F ield         | OpenFOAM: The Open Source CFD Toolbox
   \\    /   O peration     | Website:  https://openfoam.org
    \\  /    A nd           | Version:  8
     \\/     M anipulation  |
\*---------------------------------------------------------------------------*/
FoamFile
{
    version     2.0;
    format      ascii;
    class       volScalarField;
    location    "1700";
    object      nut;
}
// * * * * * * * * * * * * * * * * * * * * * * * * * * * * * * * * * * * * * //

dimensions      [0 2 -1 0 0 0 0];

internalField   nonuniform List<scalar> 
48000
(
0.000190817
6.01557e-05
7.23075e-05
8.27541e-05
9.12675e-05
9.83673e-05
0.00010458
0.000110208
0.0001153
0.000120003
0.000124388
0.000128508
0.000132403
0.000136102
0.00013963
0.000143004
0.000146239
0.000149345
0.000152333
0.000155209
0.00015798
0.00016065
0.000163225
0.000165707
0.000168099
0.000170404
0.000172625
0.000174763
0.000176821
0.000178801
0.000180703
0.00018253
0.000184284
0.000185965
0.000187576
0.000189118
0.000190592
0.000192001
0.000193345
0.000194627
0.000195847
0.000197007
0.00019811
0.000199155
0.000200146
0.000201083
0.000201967
0.000202801
0.000203586
0.000204322
0.000205012
0.000205656
0.000206263
0.000206829
0.000207354
0.000207839
0.000208286
0.000208696
0.000209069
0.000209408
0.000209713
0.000209985
0.000210225
0.000210435
0.000210616
0.000210767
0.000210892
0.000210989
0.00021106
0.000211106
0.000211128
0.000211126
0.000211101
0.000211053
0.000210985
0.000210895
0.000210784
0.000210654
0.000210504
0.000210335
0.000210148
0.000209944
0.000209721
0.000209481
0.000209225
0.000208952
0.000208663
0.000208358
0.000208038
0.000207703
0.000207352
0.000206987
0.000206607
0.000206213
0.000205805
0.000205383
0.000204947
0.000204497
0.000204034
0.000203557
0.000203067
0.000202564
0.000202047
0.000201518
0.000200975
0.000200419
0.00019985
0.000199267
0.000198672
0.000198064
0.000197442
0.000196807
0.000196159
0.000195498
0.000194823
0.000194134
0.000193432
0.000192717
0.000191987
0.000191244
0.000190486
0.000189714
0.000188928
0.000188127
0.000187312
0.000186481
0.000185636
0.000184775
0.000183898
0.000183006
0.000182098
0.000181174
0.000180234
0.000179277
0.000178303
0.000177312
0.000176304
0.000175278
0.000174235
0.000173174
0.000172094
0.000170996
0.000169879
0.000168743
0.000167588
0.000166414
0.00016522
0.000164005
0.000162771
0.000161516
0.000160241
0.000158944
0.000157626
0.000156287
0.000154926
0.000153543
0.000152138
0.00015071
0.00014926
0.000147787
0.00014629
0.000144769
0.000143225
0.000141656
0.000140062
0.000138444
0.0001368
0.000135129
0.000133432
0.000131708
0.000129956
0.000128175
0.000126365
0.000124524
0.000122651
0.000120745
0.000118804
0.000116826
0.00011481
0.000112752
0.000110649
0.000108498
0.000106296
0.000104038
0.000101722
9.93593e-05
9.69239e-05
9.43902e-05
9.1744e-05
8.8962e-05
8.60149e-05
8.28632e-05
7.94523e-05
7.57382e-05
7.16257e-05
6.69024e-05
6.12644e-05
5.4293e-05
3.5768e-05
0.000145781
0.00019085
6.01516e-05
7.23074e-05
8.27549e-05
9.12684e-05
9.83681e-05
0.000104581
0.000110209
0.000115301
0.000120004
0.000124389
0.000128509
0.000132404
0.000136103
0.000139631
0.000143005
0.000146239
0.000149346
0.000152333
0.000155209
0.00015798
0.000160651
0.000163225
0.000165707
0.000168099
0.000170404
0.000172625
0.000174764
0.000176821
0.000178801
0.000180703
0.00018253
0.000184284
0.000185965
0.000187576
0.000189118
0.000190592
0.000192001
0.000193345
0.000194627
0.000195847
0.000197007
0.00019811
0.000199155
0.000200146
0.000201083
0.000201967
0.000202801
0.000203586
0.000204322
0.000205012
0.000205656
0.000206263
0.000206829
0.000207354
0.000207839
0.000208286
0.000208696
0.000209069
0.000209408
0.000209713
0.000209985
0.000210225
0.000210435
0.000210616
0.000210767
0.000210891
0.000210989
0.00021106
0.000211106
0.000211128
0.000211126
0.000211101
0.000211053
0.000210984
0.000210894
0.000210784
0.000210654
0.000210504
0.000210335
0.000210148
0.000209943
0.000209721
0.000209481
0.000209225
0.000208952
0.000208663
0.000208358
0.000208038
0.000207702
0.000207352
0.000206987
0.000206607
0.000206213
0.000205805
0.000205383
0.000204947
0.000204497
0.000204034
0.000203557
0.000203067
0.000202564
0.000202047
0.000201518
0.000200975
0.000200419
0.000199849
0.000199267
0.000198672
0.000198063
0.000197442
0.000196807
0.000196159
0.000195497
0.000194823
0.000194134
0.000193432
0.000192717
0.000191987
0.000191244
0.000190486
0.000189714
0.000188928
0.000188127
0.000187311
0.000186481
0.000185635
0.000184775
0.000183898
0.000183006
0.000182098
0.000181174
0.000180234
0.000179277
0.000178303
0.000177312
0.000176304
0.000175278
0.000174235
0.000173174
0.000172094
0.000170996
0.000169879
0.000168743
0.000167588
0.000166414
0.00016522
0.000164005
0.000162771
0.000161516
0.000160241
0.000158944
0.000157626
0.000156287
0.000154926
0.000153543
0.000152138
0.00015071
0.00014926
0.000147787
0.00014629
0.000144769
0.000143225
0.000141656
0.000140062
0.000138444
0.0001368
0.000135129
0.000133432
0.000131708
0.000129956
0.000128175
0.000126365
0.000124524
0.000122651
0.000120745
0.000118804
0.000116826
0.00011481
0.000112752
0.000110649
0.000108498
0.000106296
0.000104038
0.000101722
9.93593e-05
9.6924e-05
9.43903e-05
9.17441e-05
8.89621e-05
8.6015e-05
8.28631e-05
7.94517e-05
7.57347e-05
7.16076e-05
6.68115e-05
6.08018e-05
5.19468e-05
2.89527e-05
3.8474e-05
5.18466e-05
0.000374696
0.000595556
0.000747332
0.000862035
0.000955781
0.0010357
0.00110556
0.00116812
0.00122489
0.00127698
0.00132522
0.00137021
0.00141242
0.0014522
0.00148986
0.00152562
0.00155966
0.00159213
0.00162317
0.00165288
0.00168134
0.00170862
0.0017348
0.00175992
0.00178404
0.00180719
0.00182941
0.00185074
0.00187121
0.00189085
0.00190968
0.00192772
0.00194501
0.00196156
0.0019774
0.00199254
0.00200702
0.00202083
0.00203401
0.00204658
0.00205855
0.00206993
0.00208076
0.00209103
0.00210078
0.00211001
0.00211874
0.00212698
0.00213475
0.00214205
0.00214885
0.00215505
0.00216083
0.00216622
0.00217122
0.00217586
0.00218016
0.00218411
0.00218774
0.00219106
0.00219407
0.00219678
0.00219921
0.00220135
0.00220323
0.00220484
0.0022062
0.0022073
0.00220817
0.0022088
0.0022092
0.00220938
0.00220934
0.00220908
0.00220862
0.00220796
0.0022071
0.00220604
0.0022048
0.00220336
0.00220175
0.00219996
0.00219799
0.00219585
0.00219354
0.00219106
0.00218842
0.00218561
0.00218265
0.00217953
0.00217625
0.00217281
0.00216923
0.00216549
0.00216161
0.00215757
0.00215339
0.00214906
0.00214458
0.00213996
0.0021352
0.00213029
0.00212523
0.00212003
0.00211469
0.0021092
0.00210357
0.0020978
0.00209188
0.00208581
0.0020796
0.00207324
0.00206673
0.00206008
0.00205327
0.00204632
0.00203921
0.00203195
0.00202453
0.00201696
0.00200922
0.00200133
0.00199328
0.00198507
0.00197669
0.00196814
0.00195942
0.00195053
0.00194147
0.00193223
0.00192282
0.00191323
0.00190345
0.00189349
0.00188334
0.001873
0.00186247
0.00185175
0.00184083
0.00182971
0.00181839
0.00180686
0.00179513
0.00178319
0.00177104
0.00175868
0.00174609
0.00173329
0.00172027
0.00170702
0.00169355
0.00167985
0.00166591
0.00165174
0.00163734
0.00162269
0.0016078
0.00159266
0.00157727
0.00156163
0.00154573
0.00152957
0.00151315
0.00149645
0.00147948
0.00146223
0.00144468
0.00142685
0.0014087
0.00139025
0.00137147
0.00135235
0.00133288
0.00131305
0.00129282
0.00127219
0.00125112
0.00122959
0.00120755
0.00118496
0.00116176
0.00113789
0.00111323
0.00108766
0.00106095
0.00103304
0.00100383
0.000973108
0.000940576
0.000905798
0.00086812
0.000826427
0.000778528
0.000722527
0.000654742
0.000566495
0.000434297
0.000212023
3.55961e-05
5.18423e-05
0.000374713
0.000595604
0.00074738
0.000862083
0.000955829
0.00103575
0.00110561
0.00116816
0.00122493
0.00127703
0.00132526
0.00137025
0.00141246
0.00145224
0.0014899
0.00152565
0.00155969
0.00159217
0.00162321
0.00165291
0.00168137
0.00170865
0.00173483
0.00175995
0.00178407
0.00180722
0.00182944
0.00185077
0.00187124
0.00189087
0.0019097
0.00192775
0.00194504
0.00196159
0.00197742
0.00199257
0.00200704
0.00202085
0.00203404
0.0020466
0.00205857
0.00206995
0.00208078
0.00209105
0.0021008
0.00211003
0.00211876
0.002127
0.00213477
0.00214206
0.00214887
0.00215507
0.00216085
0.00216623
0.00217124
0.00217588
0.00218017
0.00218413
0.00218776
0.00219107
0.00219408
0.0021968
0.00219922
0.00220137
0.00220324
0.00220485
0.00220621
0.00220732
0.00220818
0.00220881
0.00220921
0.00220939
0.00220935
0.0022091
0.00220864
0.00220797
0.00220711
0.00220605
0.00220481
0.00220338
0.00220176
0.00219997
0.002198
0.00219586
0.00219355
0.00219107
0.00218843
0.00218562
0.00218266
0.00217954
0.00217626
0.00217283
0.00216924
0.0021655
0.00216162
0.00215758
0.0021534
0.00214907
0.00214459
0.00213997
0.00213521
0.0021303
0.00212524
0.00212004
0.0021147
0.00210921
0.00210358
0.00209781
0.00209189
0.00208582
0.00207961
0.00207325
0.00206674
0.00206009
0.00205328
0.00204633
0.00203922
0.00203196
0.00202454
0.00201697
0.00200923
0.00200134
0.00199329
0.00198508
0.0019767
0.00196815
0.00195943
0.00195054
0.00194148
0.00193224
0.00192283
0.00191323
0.00190346
0.0018935
0.00188335
0.00187301
0.00186248
0.00185176
0.00184084
0.00182972
0.0018184
0.00180687
0.00179514
0.0017832
0.00177105
0.00175868
0.0017461
0.0017333
0.00172028
0.00170703
0.00169356
0.00167986
0.00166592
0.00165175
0.00163734
0.0016227
0.00160781
0.00159267
0.00157728
0.00156164
0.00154574
0.00152958
0.00151316
0.00149646
0.00147949
0.00146223
0.00144469
0.00142686
0.00140871
0.00139026
0.00137148
0.00135236
0.00133289
0.00131306
0.00129283
0.0012722
0.00125113
0.0012296
0.00120756
0.00118497
0.00116177
0.0011379
0.00111324
0.00108767
0.00106096
0.00103305
0.00100383
0.000973116
0.000940584
0.000905805
0.000868126
0.000826428
0.000778514
0.000722479
0.000654759
0.000568062
0.000448245
0.000275742
0.000178342
6.19187e-05
0.000565251
0.00100767
0.00133979
0.0016035
0.00182267
0.00201063
0.00217546
0.00232252
0.00245541
0.00257672
0.00268838
0.00279184
0.00288825
0.0029785
0.00306334
0.00314335
0.00321903
0.00329078
0.00335895
0.00342381
0.00348563
0.0035446
0.00360091
0.00365473
0.00370618
0.0037554
0.00380249
0.00384756
0.00389068
0.00393195
0.00397144
0.00400922
0.00404535
0.0040799
0.00411293
0.00414448
0.00417461
0.00420337
0.00423082
0.00425698
0.00428191
0.00430565
0.00432824
0.00434972
0.00437013
0.00438949
0.00440784
0.00442522
0.00444164
0.00445712
0.00447164
0.00448518
0.00449783
0.00450968
0.00452077
0.00453113
0.00454079
0.00454977
0.0045581
0.0045658
0.00457288
0.00457938
0.0045853
0.00459066
0.00459549
0.00459978
0.00460357
0.00460686
0.00460966
0.00461199
0.00461385
0.00461527
0.00461625
0.00461679
0.00461692
0.00461664
0.00461595
0.00461486
0.00461339
0.00461154
0.00460931
0.00460671
0.00460375
0.00460044
0.00459677
0.00459276
0.00458841
0.00458372
0.00457869
0.00457333
0.00456765
0.00456164
0.00455531
0.00454867
0.0045417
0.00453442
0.00452683
0.00451893
0.00451071
0.00450219
0.00449336
0.00448422
0.00447477
0.00446502
0.00445496
0.00444458
0.0044339
0.00442291
0.00441161
0.00439999
0.00438806
0.00437581
0.00436325
0.00435036
0.00433716
0.00432362
0.00430976
0.00429557
0.00428104
0.00426618
0.00425097
0.00423542
0.00421952
0.00420326
0.00418665
0.00416968
0.00415235
0.00413464
0.00411656
0.0040981
0.00407925
0.00406001
0.00404038
0.00402035
0.00399992
0.00397907
0.00395781
0.00393613
0.00391402
0.00389147
0.00386849
0.00384506
0.00382119
0.00379686
0.00377206
0.0037468
0.00372106
0.00369484
0.00366813
0.00364093
0.00361322
0.003585
0.00355627
0.00352701
0.00349722
0.00346689
0.00343601
0.00340456
0.00337254
0.00333994
0.00330674
0.00327294
0.00323851
0.00320344
0.00316771
0.0031313
0.0030942
0.00305637
0.00301779
0.00297842
0.00293824
0.0028972
0.00285526
0.00281237
0.00276846
0.00272347
0.00267731
0.0026299
0.00258111
0.00253082
0.00247885
0.00242501
0.00236904
0.00231062
0.00224936
0.00218488
0.00211669
0.00204407
0.00196606
0.00188137
0.00178817
0.00168376
0.00156412
0.00142357
0.00125433
0.00104091
0.000749452
0.000337338
4.50866e-05
6.19185e-05
0.000565292
0.00100775
0.00133989
0.0016036
0.00182277
0.00201074
0.00217557
0.00232263
0.00245552
0.00257683
0.00268848
0.00279194
0.00288834
0.00297859
0.00306343
0.00314344
0.00321912
0.00329086
0.00335902
0.00342389
0.0034857
0.00354467
0.00360098
0.00365479
0.00370624
0.00375546
0.00380255
0.00384761
0.00389073
0.003932
0.00397149
0.00400926
0.0040454
0.00407994
0.00411296
0.00414451
0.00417464
0.00420341
0.00423084
0.00425701
0.00428194
0.00430568
0.00432827
0.00434974
0.00437015
0.00438951
0.00440786
0.00442524
0.00444166
0.00445713
0.00447166
0.00448519
0.00449784
0.00450969
0.00452078
0.00453114
0.00454079
0.00454978
0.0045581
0.0045658
0.00457289
0.00457938
0.00458531
0.00459067
0.00459549
0.00459979
0.00460357
0.00460686
0.00460966
0.00461199
0.00461386
0.00461527
0.00461625
0.0046168
0.00461692
0.00461664
0.00461595
0.00461486
0.00461339
0.00461154
0.00460931
0.00460671
0.00460375
0.00460044
0.00459677
0.00459276
0.00458841
0.00458371
0.00457869
0.00457333
0.00456765
0.00456164
0.00455531
0.00454866
0.0045417
0.00453442
0.00452683
0.00451893
0.00451071
0.00450219
0.00449336
0.00448422
0.00447477
0.00446502
0.00445495
0.00444458
0.0044339
0.00442291
0.0044116
0.00439999
0.00438806
0.00437581
0.00436325
0.00435036
0.00433715
0.00432362
0.00430976
0.00429556
0.00428104
0.00426617
0.00425097
0.00423541
0.00421951
0.00420326
0.00418665
0.00416968
0.00415234
0.00413464
0.00411655
0.00409809
0.00407925
0.00406001
0.00404038
0.00402035
0.00399991
0.00397907
0.00395781
0.00393612
0.00391401
0.00389147
0.00386849
0.00384506
0.00382118
0.00379685
0.00377206
0.00374679
0.00372105
0.00369483
0.00366812
0.00364092
0.00361322
0.003585
0.00355627
0.00352701
0.00349722
0.00346689
0.003436
0.00340456
0.00337254
0.00333994
0.00330674
0.00327293
0.0032385
0.00320343
0.0031677
0.0031313
0.00309419
0.00305636
0.00301778
0.00297842
0.00293824
0.0028972
0.00285526
0.00281237
0.00276846
0.00272347
0.00267731
0.0026299
0.00258111
0.00253082
0.00247885
0.00242501
0.00236904
0.00231062
0.00224936
0.00218488
0.00211669
0.00204407
0.00196606
0.00188137
0.00178817
0.00168375
0.00156409
0.00142342
0.00125396
0.00104127
0.000760407
0.000380191
3.44792e-05
7.02954e-05
0.0006756
0.00127977
0.0017644
0.00216256
0.0024996
0.00279183
0.00304993
0.00328118
0.00349072
0.0036823
0.00385876
0.00402227
0.00417456
0.004317
0.0044507
0.00457661
0.00469547
0.00480794
0.00491457
0.00501583
0.00511211
0.00520377
0.00529111
0.0053744
0.00545388
0.00552976
0.00560222
0.00567145
0.00573759
0.00580079
0.00586118
0.00591888
0.00597401
0.00602666
0.00607695
0.00612497
0.0061708
0.00621453
0.00625624
0.006296
0.0063339
0.00637
0.00640436
0.00643705
0.00646813
0.00649766
0.00652569
0.00655226
0.00657742
0.0066012
0.00662362
0.0066447
0.00666447
0.00668307
0.00670055
0.00671696
0.00673233
0.00674671
0.00676013
0.00677262
0.00678421
0.00679494
0.00680482
0.00681389
0.00682217
0.00682968
0.00683644
0.00684247
0.0068478
0.00685243
0.00685638
0.00685968
0.00686234
0.00686436
0.00686577
0.00686658
0.00686679
0.00686642
0.00686548
0.00686399
0.00686194
0.00685935
0.00685623
0.00685257
0.0068484
0.00684372
0.00683853
0.00683284
0.00682666
0.00681998
0.00681282
0.00680517
0.00679705
0.00678845
0.00677938
0.00676984
0.00675983
0.00674936
0.00673841
0.00672701
0.00671514
0.00670281
0.00669002
0.00667676
0.00666304
0.00664885
0.0066342
0.00661908
0.00660349
0.00658743
0.00657089
0.00655387
0.00653637
0.00651839
0.00649992
0.00648095
0.00646149
0.00644152
0.00642105
0.00640006
0.00637856
0.00635653
0.00633397
0.00631088
0.00628724
0.00626305
0.00623831
0.006213
0.00618712
0.00616067
0.00613362
0.00610598
0.00607774
0.00604888
0.00601941
0.00598931
0.00595857
0.00592718
0.00589514
0.00586243
0.00582905
0.00579499
0.00576022
0.00572476
0.00568858
0.00565167
0.00561402
0.00557563
0.00553647
0.00549654
0.00545583
0.00541431
0.00537198
0.00532881
0.00528481
0.00523994
0.00519418
0.00514753
0.00509996
0.00505144
0.00500196
0.00495148
0.00489998
0.00484742
0.00479378
0.004739
0.00468305
0.00462589
0.00456745
0.00450767
0.0044465
0.00438385
0.00431963
0.00425376
0.0041861
0.00411655
0.00404493
0.00397107
0.00389478
0.00381578
0.0037338
0.00364846
0.00355934
0.0034659
0.00336749
0.00326336
0.00315254
0.00303378
0.00290543
0.00276531
0.00261045
0.0024368
0.00223889
0.00200914
0.00173783
0.00141096
0.00100816
0.000506492
5.39152e-05
7.02963e-05
0.000675639
0.00127986
0.00176452
0.00216269
0.00249975
0.00279199
0.00305009
0.00328134
0.00349087
0.00368246
0.00385891
0.00402242
0.0041747
0.00431714
0.00445084
0.00457674
0.0046956
0.00480807
0.00491469
0.00501594
0.00511222
0.00520387
0.00529121
0.0053745
0.00545397
0.00552984
0.00560231
0.00567153
0.00573766
0.00580086
0.00586124
0.00591894
0.00597406
0.00602672
0.006077
0.00612502
0.00617084
0.00621457
0.00625628
0.00629604
0.00633393
0.00637003
0.00640439
0.00643708
0.00646816
0.00649768
0.00652571
0.00655228
0.00657743
0.00660121
0.00662363
0.00664471
0.00666448
0.00668308
0.00670056
0.00671697
0.00673234
0.00674671
0.00676013
0.00677262
0.00678421
0.00679494
0.00680482
0.00681389
0.00682217
0.00682968
0.00683644
0.00684247
0.00684779
0.00685242
0.00685638
0.00685967
0.00686233
0.00686435
0.00686576
0.00686657
0.00686678
0.00686641
0.00686548
0.00686398
0.00686193
0.00685934
0.00685621
0.00685256
0.00684839
0.00684371
0.00683852
0.00683283
0.00682665
0.00681997
0.00681281
0.00680516
0.00679704
0.00678844
0.00677937
0.00676983
0.00675982
0.00674934
0.0067384
0.006727
0.00671513
0.0067028
0.00669
0.00667675
0.00666303
0.00664884
0.00663419
0.00661907
0.00660347
0.00658741
0.00657087
0.00655386
0.00653636
0.00651837
0.0064999
0.00648094
0.00646147
0.00644151
0.00642103
0.00640005
0.00637855
0.00635652
0.00633396
0.00631086
0.00628723
0.00626304
0.0062383
0.00621299
0.00618711
0.00616065
0.0061336
0.00610596
0.00607772
0.00604887
0.00601939
0.00598929
0.00595855
0.00592717
0.00589512
0.00586242
0.00582903
0.00579497
0.00576021
0.00572474
0.00568856
0.00565165
0.00561401
0.00557561
0.00553646
0.00549653
0.00545581
0.00541429
0.00537196
0.0053288
0.00528479
0.00523992
0.00519417
0.00514752
0.00509994
0.00505143
0.00500194
0.00495147
0.00489996
0.00484741
0.00479376
0.00473899
0.00468304
0.00462587
0.00456743
0.00450766
0.00444648
0.00438383
0.00431962
0.00425374
0.00418609
0.00411653
0.00404491
0.00397106
0.00389476
0.00381577
0.00373379
0.00364845
0.00355933
0.00346588
0.00336748
0.00326335
0.00315253
0.00303377
0.00290542
0.0027653
0.00261044
0.00243679
0.00223887
0.00200905
0.00173734
0.00140918
0.00100492
0.000512233
5.30452e-05
7.70133e-05
0.000754491
0.0014762
0.0020812
0.00259099
0.00302941
0.00341362
0.00375558
0.00406374
0.00434427
0.0046017
0.00483953
0.00506044
0.00526659
0.00545969
0.00564116
0.00581217
0.0059737
0.00612658
0.00627151
0.00640912
0.00653992
0.00666438
0.00678291
0.00689587
0.00700358
0.00710633
0.00720438
0.00729798
0.00738732
0.00747263
0.00755408
0.00763185
0.0077061
0.00777698
0.00784463
0.00790918
0.00797077
0.00802952
0.00808554
0.00813893
0.00818981
0.00823828
0.00828442
0.00832833
0.00837009
0.00840978
0.00844748
0.00848326
0.00851718
0.00854929
0.00857964
0.00860828
0.00863526
0.00866069
0.00868466
0.00870722
0.00872842
0.00874832
0.00876696
0.00878439
0.00880065
0.00881578
0.00882982
0.00884279
0.00885474
0.00886568
0.00887566
0.00888469
0.00889281
0.00890002
0.00890637
0.00891186
0.00891653
0.00892037
0.00892343
0.0089257
0.0089272
0.00892796
0.00892798
0.00892728
0.00892586
0.00892374
0.00892094
0.00891745
0.00891328
0.00890846
0.00890298
0.00889685
0.00889007
0.00888266
0.00887462
0.00886595
0.00885666
0.00884675
0.00883623
0.00882509
0.00881335
0.00880099
0.00878803
0.00877447
0.0087603
0.00874552
0.00873014
0.00871416
0.00869757
0.00868036
0.00866255
0.00864413
0.00862508
0.00860542
0.00858514
0.00856422
0.00854268
0.00852049
0.00849767
0.00847419
0.00845006
0.00842527
0.00839981
0.00837367
0.00834685
0.00831934
0.00829113
0.00826221
0.00823257
0.00820221
0.00817111
0.00813926
0.00810665
0.00807328
0.00803913
0.00800419
0.00796845
0.00793189
0.00789452
0.0078563
0.00781723
0.00777731
0.0077365
0.00769481
0.00765221
0.0076087
0.00756425
0.00751885
0.0074725
0.00742516
0.00737682
0.00732747
0.00727709
0.00722566
0.00717316
0.00711956
0.00706485
0.007009
0.00695199
0.00689379
0.00683437
0.00677371
0.00671176
0.0066485
0.00658389
0.00651787
0.00645042
0.00638148
0.00631099
0.00623889
0.00616512
0.0060896
0.00601225
0.00593298
0.00585168
0.00576823
0.00568251
0.00559436
0.00550361
0.00541006
0.00531348
0.0052136
0.00511011
0.00500264
0.00489075
0.00477392
0.00465152
0.00452278
0.00438678
0.0042424
0.00408824
0.00392253
0.003743
0.00354674
0.00332994
0.00308767
0.00281343
0.00249877
0.00213278
0.00170236
0.00119171
0.00059343
5.95459e-05
7.70143e-05
0.00075453
0.00147629
0.00208133
0.00259115
0.00302959
0.00341381
0.00375577
0.00406394
0.00434447
0.0046019
0.00483972
0.00506064
0.00526678
0.00545987
0.00564134
0.00581234
0.00597387
0.00612674
0.00627167
0.00640927
0.00654007
0.00666452
0.00678305
0.006896
0.0070037
0.00710645
0.00720449
0.00729808
0.00738742
0.00747272
0.00755417
0.00763194
0.00770618
0.00777705
0.00784469
0.00790925
0.00797083
0.00802957
0.00808559
0.00813898
0.00818986
0.00823832
0.00828446
0.00832836
0.00837012
0.00840981
0.00844751
0.00848328
0.0085172
0.0085493
0.00857966
0.0086083
0.00863527
0.0086607
0.00868467
0.00870723
0.00872843
0.00874832
0.00876696
0.00878439
0.00880065
0.00881578
0.00882982
0.00884279
0.00885473
0.00886568
0.00887565
0.00888468
0.0088928
0.00890001
0.00890636
0.00891185
0.00891652
0.00892036
0.00892341
0.00892569
0.00892719
0.00892795
0.00892797
0.00892726
0.00892585
0.00892373
0.00892092
0.00891743
0.00891327
0.00890844
0.00890296
0.00889683
0.00889006
0.00888264
0.0088746
0.00886593
0.00885664
0.00884673
0.00883621
0.00882507
0.00881333
0.00880097
0.00878802
0.00877445
0.00876028
0.00874551
0.00873013
0.00871414
0.00869755
0.00868035
0.00866253
0.00864411
0.00862507
0.0086054
0.00858512
0.0085642
0.00854266
0.00852047
0.00849765
0.00847417
0.00845004
0.00842525
0.00839979
0.00837365
0.00834683
0.00831932
0.00829111
0.00826219
0.00823255
0.00820219
0.00817109
0.00813924
0.00810663
0.00807326
0.00803911
0.00800417
0.00796843
0.00793187
0.00789449
0.00785628
0.00781721
0.00777728
0.00773648
0.00769479
0.00765219
0.00760867
0.00756423
0.00751883
0.00747247
0.00742513
0.0073768
0.00732745
0.00727707
0.00722564
0.00717313
0.00711954
0.00706483
0.00700898
0.00695197
0.00689377
0.00683435
0.00677369
0.00671174
0.00664848
0.00658386
0.00651785
0.0064504
0.00638146
0.00631097
0.00623887
0.0061651
0.00608958
0.00601223
0.00593296
0.00585166
0.00576821
0.00568249
0.00559434
0.00550359
0.00541004
0.00531346
0.00521358
0.00511009
0.00500262
0.00489073
0.0047739
0.0046515
0.00452276
0.00438676
0.00424238
0.00408823
0.00392251
0.00374299
0.00354673
0.00332994
0.00308767
0.00281344
0.00249879
0.00213275
0.00170205
0.00119072
0.000593689
5.93959e-05
8.2773e-05
0.000818036
0.00163002
0.0023301
0.00293103
0.00345444
0.00391739
0.00433238
0.00470855
0.00505265
0.00536978
0.00566383
0.00593788
0.00619433
0.00643518
0.00666201
0.00687618
0.0070788
0.00727082
0.00745308
0.00762628
0.00779102
0.00794787
0.0080973
0.00823973
0.00837557
0.00850515
0.00862879
0.0087468
0.00885944
0.00896695
0.00906958
0.00916754
0.00926103
0.00935025
0.00943538
0.00951659
0.00959405
0.00966792
0.00973833
0.00980544
0.00986939
0.00993028
0.00998827
0.0100434
0.0100959
0.0101458
0.0101932
0.0102383
0.010281
0.0103214
0.0103598
0.010396
0.0104302
0.0104625
0.010493
0.0105217
0.0105488
0.0105743
0.0105982
0.0106206
0.0106416
0.0106612
0.0106795
0.0106964
0.0107121
0.0107266
0.0107399
0.0107521
0.0107631
0.010773
0.0107819
0.0107898
0.0107966
0.0108024
0.0108073
0.0108113
0.0108143
0.0108164
0.0108176
0.0108179
0.0108174
0.010816
0.0108138
0.0108108
0.0108069
0.0108023
0.0107968
0.0107906
0.0107836
0.0107758
0.0107672
0.0107579
0.0107479
0.0107371
0.0107255
0.0107132
0.0107002
0.0106865
0.010672
0.0106567
0.0106407
0.010624
0.0106066
0.0105884
0.0105695
0.0105499
0.0105295
0.0105083
0.0104864
0.0104638
0.0104404
0.0104162
0.0103913
0.0103655
0.010339
0.0103117
0.0102836
0.0102547
0.010225
0.0101944
0.010163
0.0101308
0.0100977
0.0100637
0.0100289
0.00999315
0.0099565
0.00991894
0.00988044
0.009841
0.0098006
0.00975923
0.00971687
0.0096735
0.00962911
0.00958369
0.00953722
0.00948968
0.00944105
0.00939131
0.00934045
0.00928845
0.00923528
0.00918093
0.00912538
0.0090686
0.00901057
0.00895127
0.00889066
0.00882874
0.00876546
0.0087008
0.00863473
0.00856721
0.00849821
0.0084277
0.00835563
0.00828197
0.00820666
0.00812967
0.00805092
0.00797037
0.00788796
0.00780361
0.00771725
0.0076288
0.00753816
0.00744523
0.0073499
0.00725204
0.00715151
0.00704815
0.00694178
0.0068322
0.00671917
0.00660242
0.00648165
0.0063565
0.00622655
0.00609131
0.0059502
0.00580253
0.00564749
0.00548409
0.00531114
0.00512719
0.00493045
0.00471872
0.00448922
0.00423847
0.00396207
0.00365445
0.00330861
0.00291575
0.00246503
0.00194407
0.0013403
0.000655821
6.40532e-05
8.2774e-05
0.000818076
0.00163011
0.00233024
0.0029312
0.00345464
0.0039176
0.0043326
0.00470878
0.00505288
0.00537001
0.00566406
0.0059381
0.00619456
0.0064354
0.00666222
0.00687638
0.007079
0.00727102
0.00745327
0.00762646
0.0077912
0.00794804
0.00809746
0.00823989
0.00837571
0.00850529
0.00862893
0.00874693
0.00885956
0.00896707
0.00906969
0.00916764
0.00926112
0.00935034
0.00943546
0.00951667
0.00959413
0.00966799
0.0097384
0.0098055
0.00986944
0.00993034
0.00998831
0.0100435
0.010096
0.0101459
0.0101933
0.0102383
0.010281
0.0103215
0.0103598
0.010396
0.0104302
0.0104625
0.010493
0.0105218
0.0105488
0.0105743
0.0105982
0.0106206
0.0106416
0.0106612
0.0106795
0.0106964
0.0107121
0.0107266
0.0107399
0.0107521
0.0107631
0.010773
0.0107819
0.0107898
0.0107966
0.0108024
0.0108073
0.0108112
0.0108143
0.0108164
0.0108176
0.0108179
0.0108174
0.010816
0.0108138
0.0108107
0.0108069
0.0108022
0.0107968
0.0107906
0.0107836
0.0107758
0.0107672
0.0107579
0.0107479
0.0107371
0.0107255
0.0107132
0.0107002
0.0106864
0.0106719
0.0106567
0.0106407
0.010624
0.0106066
0.0105884
0.0105695
0.0105498
0.0105295
0.0105083
0.0104864
0.0104638
0.0104404
0.0104162
0.0103912
0.0103655
0.010339
0.0103117
0.0102836
0.0102547
0.010225
0.0101944
0.010163
0.0101308
0.0100977
0.0100637
0.0100289
0.00999312
0.00995648
0.00991891
0.00988042
0.00984098
0.00980058
0.0097592
0.00971684
0.00967348
0.00962909
0.00958367
0.0095372
0.00948965
0.00944102
0.00939129
0.00934043
0.00928842
0.00923526
0.00918091
0.00912536
0.00906858
0.00901055
0.00895124
0.00889064
0.00882871
0.00876543
0.00870077
0.0086347
0.00856718
0.00849819
0.00842768
0.00835561
0.00828195
0.00820664
0.00812964
0.0080509
0.00797035
0.00788794
0.00780359
0.00771723
0.00762877
0.00753813
0.0074452
0.00734987
0.00725202
0.00715149
0.00704813
0.00694176
0.00683218
0.00671915
0.0066024
0.00648163
0.00635648
0.00622653
0.00609129
0.00595018
0.00580251
0.00564747
0.00548407
0.00531112
0.00512717
0.00493044
0.00471871
0.00448921
0.00423846
0.00396206
0.00365445
0.00330862
0.00291576
0.00246505
0.00194406
0.00134014
0.000655792
6.40349e-05
8.80572e-05
0.000872398
0.00175736
0.00253422
0.00320987
0.00380417
0.00433386
0.00481166
0.00524707
0.00564722
0.00601754
0.00636223
0.00668458
0.00698721
0.00727223
0.00754139
0.00779613
0.00803766
0.00826701
0.00848506
0.00869257
0.00889023
0.00907862
0.00925828
0.00942967
0.00959323
0.00974934
0.00989837
0.0100407
0.0101765
0.0103062
0.01043
0.0105482
0.010661
0.0107686
0.0108713
0.0109693
0.0110627
0.0111518
0.0112367
0.0113176
0.0113947
0.0114681
0.011538
0.0116046
0.0116678
0.011728
0.0117852
0.0118395
0.0118911
0.0119399
0.0119863
0.0120301
0.0120716
0.0121108
0.0121478
0.0121828
0.0122158
0.0122468
0.012276
0.0123035
0.0123292
0.0123533
0.0123759
0.0123968
0.0124163
0.0124344
0.0124511
0.0124664
0.0124804
0.0124931
0.0125046
0.0125149
0.0125239
0.0125319
0.0125387
0.0125444
0.012549
0.0125526
0.0125551
0.0125566
0.0125571
0.0125566
0.0125552
0.0125528
0.0125494
0.0125452
0.01254
0.0125338
0.0125268
0.0125189
0.0125101
0.0125004
0.0124899
0.0124785
0.0124662
0.012453
0.012439
0.0124242
0.0124085
0.0123919
0.0123745
0.0123562
0.0123371
0.0123171
0.0122963
0.0122746
0.012252
0.0122286
0.0122043
0.0121791
0.012153
0.0121261
0.0120982
0.0120694
0.0120398
0.0120091
0.0119776
0.0119451
0.0119117
0.0118772
0.0118418
0.0118055
0.0117681
0.0117296
0.0116902
0.0116497
0.0116081
0.0115655
0.0115218
0.0114769
0.011431
0.0113838
0.0113355
0.0112861
0.0112354
0.0111835
0.0111303
0.0110759
0.0110202
0.0109632
0.0109048
0.0108451
0.010784
0.0107215
0.0106575
0.0105921
0.0105252
0.0104567
0.0103867
0.0103151
0.0102419
0.010167
0.0100904
0.010012
0.0099319
0.00984993
0.00976606
0.00968025
0.00959243
0.00950255
0.00941054
0.00931631
0.0092198
0.00912091
0.00901954
0.00891559
0.00880895
0.00869947
0.00858703
0.00847145
0.00835257
0.00823017
0.00810403
0.0079739
0.00783948
0.00770044
0.00755639
0.00740689
0.00725141
0.00708936
0.00692003
0.00674256
0.00655598
0.00635907
0.00615042
0.00592828
0.00569055
0.00543466
0.00515742
0.00485493
0.00452235
0.00415375
0.00374181
0.00327771
0.00275105
0.00215038
0.00146626
0.000707881
6.80535e-05
8.80584e-05
0.000872439
0.00175746
0.00253436
0.00321005
0.00380438
0.00433409
0.0048119
0.00524732
0.00564747
0.00601779
0.00636249
0.00668483
0.00698746
0.00727248
0.00754163
0.00779637
0.00803789
0.00826723
0.00848527
0.00869278
0.00889043
0.00907882
0.00925846
0.00942984
0.00959339
0.0097495
0.00989853
0.0100408
0.0101766
0.0103063
0.0104301
0.0105483
0.0106611
0.0107687
0.0108714
0.0109694
0.0110628
0.0111519
0.0112368
0.0113177
0.0113948
0.0114682
0.0115381
0.0116046
0.0116679
0.0117281
0.0117852
0.0118395
0.0118911
0.01194
0.0119863
0.0120301
0.0120716
0.0121108
0.0121478
0.0121828
0.0122158
0.0122468
0.012276
0.0123035
0.0123292
0.0123533
0.0123759
0.0123968
0.0124163
0.0124344
0.0124511
0.0124664
0.0124804
0.0124931
0.0125046
0.0125148
0.0125239
0.0125319
0.0125387
0.0125444
0.012549