/*--------------------------------*- C++ -*----------------------------------*\
  =========                 |
  \\      /  F ield         | OpenFOAM: The Open Source CFD Toolbox
   \\    /   O peration     | Website:  https://openfoam.org
    \\  /    A nd           | Version:  8
     \\/     M anipulation  |
\*---------------------------------------------------------------------------*/
FoamFile
{
    version     2.0;
    format      ascii;
    class       volScalarField;
    location    "3900";
    object      alphat;
}
// * * * * * * * * * * * * * * * * * * * * * * * * * * * * * * * * * * * * * //

dimensions      [1 -1 -1 0 0 0 0];

internalField   nonuniform List<scalar> 
48000
(
5.25226e-05
9.11511e-05
0.000112856
0.000128837
0.000142214
0.000153494
0.000163285
0.000171977
0.00017995
0.000187336
0.000194177
0.000200574
0.000206584
0.000212253
0.000217616
0.000222703
0.000227535
0.000232133
0.000236511
0.000240681
0.000244656
0.000248444
0.000252053
0.000255491
0.000258763
0.000261876
0.000264834
0.000267643
0.000270307
0.000272831
0.000275219
0.000277474
0.000279601
0.000281604
0.000283487
0.000285253
0.000286906
0.00028845
0.000289888
0.000291224
0.000292462
0.000293604
0.000294653
0.000295614
0.000296506
0.000297322
0.000298059
0.000298719
0.000299307
0.000299824
0.000300275
0.000300663
0.000300989
0.000301259
0.000301473
0.000301635
0.000301748
0.000301813
0.000301834
0.000301812
0.00030175
0.00030165
0.000301513
0.000301342
0.000301139
0.000300905
0.000300642
0.000300351
0.000300034
0.000299692
0.000299327
0.00029894
0.000298531
0.000298103
0.000297655
0.000297189
0.000296706
0.000296207
0.000295692
0.000295162
0.000294618
0.000294059
0.000293488
0.000292904
0.000292307
0.000291699
0.000291078
0.000290447
0.000289804
0.000289151
0.000288487
0.000287812
0.000287127
0.000286432
0.000285726
0.000285011
0.000284285
0.000283549
0.000282803
0.000282046
0.000281279
0.000280502
0.000279714
0.000278915
0.000278105
0.000277284
0.000276452
0.000275608
0.000274753
0.000273886
0.000273006
0.000272114
0.000271209
0.000270291
0.00026936
0.000268415
0.000267456
0.000266483
0.000265495
0.000264492
0.000263474
0.000262441
0.000261391
0.000260325
0.000259243
0.000258143
0.000257026
0.000255891
0.000254738
0.000253567
0.000252376
0.000251167
0.000249937
0.000248688
0.000247418
0.000246128
0.000244817
0.000243484
0.000242129
0.000240752
0.000239353
0.00023793
0.000236484
0.000235015
0.000233522
0.000232004
0.000230461
0.000228894
0.000227301
0.000225682
0.000224036
0.000222365
0.000220666
0.00021894
0.000217186
0.000215404
0.000213593
0.000211753
0.000209883
0.000207983
0.000206053
0.000204091
0.000202097
0.00020007
0.00019801
0.000195916
0.000193786
0.00019162
0.000189417
0.000187175
0.000184893
0.000182569
0.000180202
0.00017779
0.000175329
0.000172818
0.000170254
0.000167634
0.000164953
0.000162209
0.0001594
0.000156537
0.0001536
0.000150567
0.000147429
0.000144171
0.000140777
0.000137226
0.000133491
0.00012954
0.000125329
0.00012081
0.000115943
0.000110584
0.000104567
9.76225e-05
8.92784e-05
7.86126e-05
6.35002e-05
5.07073e-05
5.25231e-05
9.11514e-05
0.000112856
0.000128837
0.000142214
0.000153495
0.000163286
0.000171977
0.00017995
0.000187337
0.000194177
0.000200574
0.000206584
0.000212253
0.000217616
0.000222703
0.000227535
0.000232133
0.000236511
0.000240682
0.000244656
0.000248444
0.000252053
0.000255491
0.000258763
0.000261876
0.000264834
0.000267643
0.000270307
0.000272831
0.000275219
0.000277474
0.000279601
0.000281605
0.000283487
0.000285253
0.000286906
0.00028845
0.000289888
0.000291224
0.000292462
0.000293604
0.000294653
0.000295614
0.000296506
0.000297322
0.000298059
0.000298719
0.000299307
0.000299824
0.000300275
0.000300663
0.000300989
0.000301259
0.000301473
0.000301635
0.000301748
0.000301813
0.000301834
0.000301812
0.00030175
0.00030165
0.000301513
0.000301342
0.000301139
0.000300905
0.000300642
0.000300351
0.000300034
0.000299692
0.000299327
0.00029894
0.000298531
0.000298103
0.000297655
0.000297189
0.000296706
0.000296207
0.000295692
0.000295162
0.000294618
0.000294059
0.000293488
0.000292904
0.000292307
0.000291699
0.000291078
0.000290447
0.000289804
0.000289151
0.000288487
0.000287812
0.000287127
0.000286432
0.000285726
0.000285011
0.000284285
0.000283549
0.000282803
0.000282046
0.000281279
0.000280502
0.000279714
0.000278915
0.000278105
0.000277284
0.000276452
0.000275608
0.000274753
0.000273886
0.000273006
0.000272114
0.000271209
0.000270291
0.00026936
0.000268415
0.000267456
0.000266483
0.000265495
0.000264492
0.000263474
0.000262441
0.000261391
0.000260325
0.000259243
0.000258143
0.000257026
0.000255891
0.000254738
0.000253567
0.000252376
0.000251167
0.000249937
0.000248688
0.000247418
0.000246128
0.000244817
0.000243484
0.000242129
0.000240752
0.000239353
0.00023793
0.000236484
0.000235015
0.000233522
0.000232004
0.000230461
0.000228894
0.000227301
0.000225682
0.000224036
0.000222365
0.000220666
0.00021894
0.000217186
0.000215404
0.000213593
0.000211753
0.000209883
0.000207983
0.000206053
0.000204091
0.000202097
0.00020007
0.00019801
0.000195916
0.000193786
0.00019162
0.000189417
0.000187175
0.000184893
0.000182569
0.000180202
0.00017779
0.000175329
0.000172818
0.000170254
0.000167634
0.000164953
0.000162209
0.0001594
0.000156537
0.0001536
0.000150567
0.000147429
0.000144171
0.000140777
0.000137226
0.000133491
0.000129541
0.000125329
0.00012081
0.000115943
0.000110584
0.000104567
9.76227e-05
8.92791e-05
7.86147e-05
6.34966e-05
5.07079e-05
7.92564e-05
0.000587467
0.000930485
0.00117051
0.00134991
0.00149598
0.00162122
0.00173135
0.00182953
0.0019182
0.00199934
0.00207414
0.00214351
0.00220816
0.00226865
0.00232541
0.0023788
0.00242913
0.00247664
0.00252154
0.00256402
0.00260424
0.00264233
0.00267841
0.0027126
0.002745
0.00277569
0.00280475
0.00283226
0.00285829
0.0028829
0.00290616
0.0029281
0.0029488
0.0029683
0.00298665
0.00300389
0.00302006
0.00303521
0.00304937
0.00306258
0.00307487
0.00308625
0.0030967
0.00310603
0.00311448
0.00312217
0.00312916
0.00313551
0.00314125
0.00314641
0.00315101
0.00315508
0.00315865
0.00316173
0.00316434
0.00316652
0.00316826
0.0031696
0.00317055
0.00317113
0.00317135
0.00317123
0.00317079
0.00317003
0.00316898
0.00316764
0.00316603
0.00316415
0.00316202
0.00315966
0.00315706
0.00315424
0.00315121
0.00314797
0.00314454
0.00314092
0.00313711
0.00313313
0.00312897
0.00312466
0.00312018
0.00311554
0.00311075
0.00310582
0.00310073
0.00309551
0.00309015
0.00308465
0.00307901
0.00307324
0.00306734
0.00306131
0.00305515
0.00304885
0.00304243
0.00303588
0.0030292
0.00302238
0.00301544
0.00300836
0.00300115
0.00299381
0.00298633
0.00297871
0.00297095
0.00296306
0.00295502
0.00294683
0.00293849
0.00293001
0.00292137
0.00291258
0.00290363
0.00289451
0.00288524
0.00287579
0.00286617
0.00285638
0.00284642
0.00283627
0.00282594
0.00281542
0.00280471
0.00279381
0.0027827
0.0027714
0.00275989
0.00274817
0.00273624
0.00272409
0.00271172
0.00269913
0.00268631
0.00267326
0.00265997
0.00264645
0.00263268
0.00261866
0.0026044
0.00258988
0.0025751
0.00256006
0.00254475
0.00252918
0.00251333
0.0024972
0.00248079
0.0024641
0.00244711
0.00242983
0.00241225
0.00239437
0.00237618
0.00235768
0.00233885
0.0023197
0.00230022
0.0022804
0.00226024
0.00223973
0.00221886
0.00219762
0.002176
0.002154
0.00213159
0.00210878
0.00208554
0.00206186
0.00203772
0.00201311
0.001988
0.00196237
0.00193618
0.00190942
0.00188204
0.001854
0.00182524
0.00179571
0.00176531
0.00173392
0.00170136
0.00166759
0.00163256
0.00159617
0.00155823
0.00151853
0.00147678
0.00143261
0.00138548
0.0013346
0.0012786
0.00121577
0.00114483
0.00106279
0.000964664
0.000841435
0.000674941
0.00042369
5.56296e-05
7.92568e-05
0.000587475
0.000930497
0.00117053
0.00134992
0.00149599
0.00162123
0.00173137
0.00182955
0.00191822
0.00199935
0.00207415
0.00214352
0.00220817
0.00226866
0.00232542
0.00237881
0.00242914
0.00247665
0.00252155
0.00256403
0.00260424
0.00264233
0.00267842
0.00271261
0.00274501
0.0027757
0.00280476
0.00283227
0.0028583
0.00288291
0.00290616
0.00292811
0.00294881
0.00296831
0.00298666
0.00300389
0.00302007
0.00303522
0.00304938
0.00306259
0.00307488
0.00308626
0.00309671
0.00310604
0.00311448
0.00312217
0.00312917
0.00313552
0.00314126
0.00314642
0.00315102
0.00315509
0.00315865
0.00316173
0.00316435
0.00316652
0.00316827
0.00316961
0.00317056
0.00317113
0.00317136
0.00317124
0.00317079
0.00317004
0.00316898
0.00316764
0.00316603
0.00316416
0.00316203
0.00315966
0.00315706
0.00315425
0.00315121
0.00314798
0.00314454
0.00314092
0.00313711
0.00313313
0.00312898
0.00312466
0.00312018
0.00311554
0.00311076
0.00310582
0.00310074
0.00309552
0.00309015
0.00308465
0.00307902
0.00307325
0.00306735
0.00306131
0.00305515
0.00304886
0.00304243
0.00303588
0.0030292
0.00302239
0.00301544
0.00300837
0.00300116
0.00299381
0.00298633
0.00297872
0.00297096
0.00296306
0.00295502
0.00294683
0.0029385
0.00293001
0.00292138
0.00291258
0.00290363
0.00289452
0.00288524
0.00287579
0.00286618
0.00285639
0.00284642
0.00283627
0.00282594
0.00281542
0.00280471
0.00279381
0.00278271
0.0027714
0.00275989
0.00274817
0.00273624
0.0027241
0.00271173
0.00269913
0.00268631
0.00267326
0.00265998
0.00264645
0.00263268
0.00261867
0.0026044
0.00258988
0.0025751
0.00256006
0.00254476
0.00252918
0.00251333
0.00249721
0.0024808
0.0024641
0.00244712
0.00242984
0.00241226
0.00239438
0.00237618
0.00235768
0.00233885
0.0023197
0.00230022
0.00228041
0.00226025
0.00223973
0.00221886
0.00219762
0.002176
0.002154
0.0021316
0.00210878
0.00208554
0.00206186
0.00203773
0.00201311
0.001988
0.00196237
0.00193619
0.00190942
0.00188204
0.001854
0.00182524
0.00179571
0.00176531
0.00173392
0.00170136
0.00166759
0.00163257
0.00159617
0.00155823
0.00151853
0.00147679
0.00143261
0.00138548
0.00133461
0.0012786
0.00121577
0.00114483
0.00106279
0.000964665
0.000841432
0.000674926
0.000423694
5.56352e-05
9.74703e-05
0.000891141
0.00158511
0.002105
0.00251375
0.00285221
0.00314251
0.00339752
0.00362502
0.00383035
0.00401739
0.00418898
0.00434725
0.00449387
0.00463019
0.0047573
0.0048761
0.00498735
0.0050917
0.00518973
0.00528192
0.00536871
0.00545048
0.00552757
0.0056003
0.00566894
0.00573375
0.00579494
0.00585275
0.00590735
0.00595892
0.00600763
0.00605362
0.00609704
0.00613801
0.00617665
0.00621308
0.0062474
0.00627969
0.00631005
0.00633856
0.00636527
0.00639024
0.00641345
0.00643485
0.00645462
0.00647293
0.00648988
0.00650556
0.00652005
0.0065334
0.00654567
0.00655691
0.00656717
0.00657648
0.00658488
0.00659241
0.00659911
0.00660501
0.00661014
0.00661454
0.00661822
0.00662122
0.00662356
0.00662527
0.00662638
0.00662689
0.00662685
0.00662626
0.00662514
0.00662352
0.0066214
0.00661882
0.00661578
0.00661229
0.00660837
0.00660404
0.0065993
0.00659417
0.00658866
0.00658277
0.00657651
0.0065699
0.00656294
0.00655563
0.00654799
0.00654001
0.0065317
0.00652308
0.00651413
0.00650486
0.00649528
0.00648538
0.00647517
0.00646465
0.00645382
0.00644268
0.00643122
0.00641945
0.00640736
0.00639496
0.00638224
0.0063692
0.00635583
0.00634213
0.0063281
0.00631373
0.00629902
0.00628397
0.00626857
0.00625281
0.0062367
0.00622021
0.00620336
0.00618612
0.00616851
0.0061505
0.0061321
0.00611329
0.00609407
0.00607443
0.00605437
0.00603387
0.00601294
0.00599156
0.00596972
0.00594742
0.00592465
0.0059014
0.00587766
0.00585343
0.00582869
0.00580344
0.00577767
0.00575137
0.00572453
0.00569715
0.00566921
0.0056407
0.00561162
0.00558196
0.0055517
0.00552084
0.00548937
0.00545727
0.00542454
0.00539117
0.00535714
0.00532245
0.00528707
0.00525101
0.00521424
0.00517676
0.00513854
0.00509958
0.00505986
0.00501935
0.00497806
0.00493595
0.004893
0.0048492
0.00480452
0.00475893
0.00471241
0.00466492
0.00461644
0.00456693
0.00451634
0.00446464
0.00441177
0.00435768
0.0043023
0.00424557
0.00418741
0.00412773
0.00406642
0.00400336
0.00393841
0.0038714
0.00380211
0.00373029
0.00365564
0.00357791
0.00349679
0.00341187
0.0033226
0.00322833
0.00312822
0.00302113
0.00290558
0.00277953
0.00264009
0.00248326
0.00230466
0.00209704
0.00184928
0.00154366
0.0011515
0.000631312
6.90855e-05
9.74706e-05
0.000891151
0.00158513
0.00210502
0.00251377
0.00285223
0.00314253
0.00339754
0.00362504
0.00383037
0.00401741
0.004189
0.00434727
0.00449389
0.00463021
0.00475732
0.00487612
0.00498737
0.00509172
0.00518975
0.00528194
0.00536873
0.00545049
0.00552759
0.00560032
0.00566895
0.00573376
0.00579496
0.00585276
0.00590736
0.00595893
0.00600764
0.00605363
0.00609705
0.00613802
0.00617666
0.00621309
0.0062474
0.0062797
0.00631006
0.00633857
0.00636528
0.00639024
0.00641345
0.00643485
0.00645463
0.00647294
0.00648989
0.00650557
0.00652005
0.00653341
0.00654568
0.00655692
0.00656717
0.00657648
0.00658488
0.00659242
0.00659912
0.00660502
0.00661015
0.00661454
0.00661822
0.00662122
0.00662357
0.00662528
0.00662638
0.0066269
0.00662685
0.00662626
0.00662514
0.00662352
0.00662141
0.00661882
0.00661578
0.00661229
0.00660838
0.00660404
0.00659931
0.00659417
0.00658866
0.00658277
0.00657651
0.0065699
0.00656294
0.00655563
0.00654799
0.00654001
0.00653171
0.00652308
0.00651413
0.00650486
0.00649528
0.00648538
0.00647517
0.00646465
0.00645382
0.00644268
0.00643122
0.00641945
0.00640737
0.00639496
0.00638224
0.0063692
0.00635583
0.00634213
0.0063281
0.00631373
0.00629903
0.00628397
0.00626857
0.00625282
0.0062367
0.00622021
0.00620336
0.00618613
0.00616851
0.0061505
0.0061321
0.00611329
0.00609407
0.00607443
0.00605437
0.00603388
0.00601294
0.00599156
0.00596972
0.00594742
0.00592465
0.0059014
0.00587766
0.00585343
0.00582869
0.00580344
0.00577767
0.00575137
0.00572454
0.00569715
0.00566921
0.0056407
0.00561162
0.00558196
0.0055517
0.00552084
0.00548937
0.00545727
0.00542454
0.00539117
0.00535714
0.00532245
0.00528707
0.00525101
0.00521424
0.00517676
0.00513854
0.00509958
0.00505986
0.00501936
0.00497806
0.00493595
0.004893
0.0048492
0.00480452
0.00475893
0.00471241
0.00466492
0.00461644
0.00456693
0.00451634
0.00446464
0.00441177
0.00435768
0.0043023
0.00424557
0.00418741
0.00412773
0.00406642
0.00400336
0.00393841
0.0038714
0.00380211
0.00373029
0.00365564
0.00357791
0.00349679
0.00341187
0.0033226
0.00322833
0.00312822
0.00302113
0.00290558
0.00277953
0.00264009
0.00248326
0.00230466
0.00209705
0.00184928
0.00154366
0.0011515
0.00063132
6.90844e-05
0.000110375
0.00107718
0.00202678
0.00278088
0.00339605
0.00391478
0.0043637
0.00475983
0.00511437
0.0054351
0.00572764
0.00599617
0.00624391
0.00647336
0.00668658
0.00688521
0.00707066
0.00724412
0.00740661
0.00755902
0.00770214
0.00783666
0.00796322
0.00808237
0.00819462
0.00830044
0.00840025
0.00849443
0.00858334
0.0086673
0.00874661
0.00882154
0.00889235
0.00895927
0.00902251
0.00908228
0.00913875
0.0091921
0.00924248
0.00929004
0.00933488
0.00937713
0.00941687
0.00945416
0.00948904
0.00952169
0.00955225
0.00958085
0.00960762
0.00963266
0.00965605
0.00967788
0.00969822
0.00971713
0.00973467
0.00975091
0.00976589
0.00977966
0.00979227
0.00980377
0.00981419
0.00982358
0.00983197
0.00983939
0.00984589
0.0098515
0.00985623
0.00986013
0.00986322
0.00986553
0.00986707
0.00986788
0.00986797
0.00986737
0.00986609
0.00986415
0.00986157
0.00985837
0.00985455
0.00985014
0.00984514
0.00983957
0.00983343
0.00982674
0.00981951
0.00981174
0.00980343
0.0097946
0.00978525
0.00977538
0.009765
0.00975411
0.00974271
0.00973081
0.00971839
0.00970547
0.00969205
0.00967811
0.00966366
0.0096487
0.00963322
0.00961723
0.0096007
0.00958365
0.00956606
0.00954794
0.00952926
0.00951004
0.00949025
0.0094699
0.00944897
0.00942746
0.00940535
0.00938265
0.00935934
0.0093354
0.00931084
0.00928564
0.00925979
0.00923328
0.0092061
0.00917824
0.00914969
0.00912043
0.00909045
0.00905974
0.0090283
0.0089961
0.00896313
0.00892938
0.00889484
0.0088595
0.00882333
0.00878634
0.00874849
0.00870978
0.00867019
0.00862971
0.00858833
0.00854602
0.00850277
0.00845856
0.00841338
0.00836722
0.00832004
0.00827184
0.00822259
0.00817227
0.00812087
0.00806835
0.00801471
0.00795991
0.00790393
0.00784675
0.00778833
0.00772865
0.00766768
0.00760538
0.00754171
0.00747665
0.00741014
0.00734214
0.00727262
0.0072015
0.00712875
0.00705429
0.00697806
0.00689998
0.00681998
0.00673795
0.00665381
0.00656743
0.00647868
0.00638743
0.0062935
0.00619671
0.00609684
0.00599362
0.00588677
0.00577592
0.00566068
0.00554056
0.00541504
0.00528349
0.00514515
0.00499906
0.00484401
0.00467849
0.00450055
0.00430776
0.00409684
0.00386349
0.003602
0.0033051
0.00296287
0.00256099
0.00207923
0.00149017
0.00076888
7.87218e-05
0.000110376
0.00107719
0.0020268
0.00278091
0.00339609
0.00391481
0.00436373
0.00475986
0.0051144
0.00543513
0.00572767
0.0059962
0.00624394
0.00647339
0.0066866
0.00688524
0.00707069
0.00724415
0.00740663
0.00755904
0.00770216
0.00783668
0.00796324
0.00808239
0.00819464
0.00830046
0.00840027
0.00849445
0.00858335
0.00866731
0.00874662
0.00882155
0.00889236
0.00895928
0.00902252
0.00908229
0.00913877
0.00919211
0.00924249
0.00929004
0.00933489
0.00937714
0.00941688
0.00945417
0.00948905
0.0095217
0.00955225
0.00958086
0.00960763
0.00963267
0.00965606
0.00967789
0.00969822
0.00971713
0.00973468
0.00975091
0.00976589
0.00977966
0.00979227
0.00980377
0.00981419
0.00982358
0.00983197
0.0098394
0.00984589
0.0098515
0.00985623
0.00986013
0.00986322
0.00986553
0.00986707
0.00986788
0.00986797
0.00986737
0.00986609
0.00986415
0.00986157
0.00985837
0.00985455
0.00985014
0.00984514
0.00983957
0.00983343
0.00982674
0.00981951
0.00981173
0.00980343
0.0097946
0.00978525
0.00977538
0.009765
0.00975411
0.00974271
0.0097308
0.00971839
0.00970547
0.00969205
0.00967811
0.00966366
0.0096487
0.00963322
0.00961722
0.0096007
0.00958365
0.00956606
0.00954794
0.00952926
0.00951004
0.00949025
0.0094699
0.00944897
0.00942745
0.00940535
0.00938265
0.00935933
0.0093354
0.00931084
0.00928564
0.00925979
0.00923328
0.0092061
0.00917824
0.00914968
0.00912042
0.00909045
0.00905974
0.00902829
0.00899609
0.00896313
0.00892938
0.00889484
0.0088595
0.00882333
0.00878633
0.00874849
0.00870978
0.00867019
0.00862971
0.00858832
0.00854601
0.00850277
0.00845856
0.00841338
0.00836721
0.00832004
0.00827183
0.00822258
0.00817227
0.00812086
0.00806835
0.00801471
0.00795991
0.00790393
0.00784675
0.00778833
0.00772865
0.00766767
0.00760537
0.00754171
0.00747664
0.00741013
0.00734214
0.00727261
0.0072015
0.00712874
0.00705429
0.00697806
0.00689998
0.00681998
0.00673795
0.00665381
0.00656743
0.00647868
0.00638743
0.0062935
0.00619671
0.00609683
0.00599362
0.00588677
0.00577592
0.00566068
0.00554055
0.00541503
0.00528349
0.00514515
0.00499905
0.004844
0.00467848
0.00450055
0.00430776
0.00409684
0.00386349
0.003602
0.0033051
0.00296287
0.00256099
0.00207923
0.00149017
0.00076888
7.87214e-05
0.000120849
0.00120369
0.00234258
0.00328575
0.00407422
0.00474871
0.00533763
0.00586032
0.00633017
0.00675669
0.00714683
0.00750584
0.00783774
0.00814572
0.00843236
0.00869978
0.00894975
0.00918379
0.00940322
0.00960918
0.0098027
0.0099847
0.010156
0.0103173
0.0104693
0.0106127
0.0107479
0.0108756
0.0109962
0.0111101
0.0112178
0.0113196
0.011416
0.0115071
0.0115933
0.011675
0.0117522
0.0118254
0.0118947
0.0119602
0.0120222
0.0120808
0.0121363
0.0121885
0.0122378
0.0122843
0.0123281
0.0123694
0.0124083
0.012445
0.0124795
0.0125121
0.0125426
0.0125714
0.0125984
0.0126236
0.0126473
0.0126694
0.01269
0.0127092
0.012727
0.0127434
0.0127586
0.0127725
0.0127852
0.0127967
0.0128071
0.0128164
0.0128247
0.0128319
0.0128381
0.0128434
0.0128477
0.0128511
0.0128536
0.0128552
0.012856
0.0128559
0.012855
0.0128533
0.0128508
0.0128476
0.0128436
0.0128388
0.0128333
0.0128271
0.0128201
0.0128124
0.012804
0.0127949
0.0127851
0.0127746
0.0127633
0.0127514
0.0127388
0.0127255
0.0127114
0.0126967
0.0126813
0.0126651
0.0126482
0.0126306
0.0126123
0.0125933
0.0125735
0.0125529
0.0125316
0.0125095
0.0124867
0.012463
0.0124386
0.0124134
0.0123873
0.0123604
0.0123327
0.0123041
0.0122746
0.0122443
0.012213
0.0121809
0.0121478
0.0121138
0.0120788
0.0120428
0.0120059
0.0119679
0.011929
0.011889
0.0118479
0.0118057
0.0117625
0.0117181
0.0116727
0.011626
0.0115782
0.0115292
0.011479
0.0114275
0.0113748
0.0113208
0.0112655
0.0112088
0.0111508
0.0110914
0.0110307
0.0109684
0.0109047
0.0108396
0.0107728
0.0107046
0.0106347
0.0105632
0.01049
0.0104152
0.0103385
0.0102601
0.0101798
0.0100977
0.0100136
0.00992746
0.00983927
0.00974894
0.0096564
0.00956157
0.00946437
0.00936469
0.00926245
0.00915751
0.00904976
0.00893906
0.00882526
0.00870818
0.00858763
0.00846339
0.00833521
0.00820282
0.00806587
0.007924
0.00777678
0.00762369
0.00746415
0.00729747
0.00712286
0.00693938
0.00674588
0.00654097
0.00632294
0.00608966
0.00583847
0.00556604
0.0052681
0.00493922
0.0045725
0.00415892
0.00368721
0.00314218
0.00250435
0.00175114
0.000873762
8.63867e-05
0.00012085
0.00120371
0.0023426
0.00328577
0.00407425
0.00474875
0.00533767
0.00586036
0.00633021
0.00675673
0.00714687
0.00750588
0.00783778
0.00814576
0.0084324
0.00869981
0.00894978
0.00918382
0.00940325
0.00960921
0.00980274
0.00998472
0.010156
0.0103173
0.0104693
0.0106127
0.0107479
0.0108756
0.0109962
0.0111101
0.0112178
0.0113197
0.011416
0.0115071
0.0115934
0.011675
0.0117523
0.0118254
0.0118947
0.0119602
0.0120222
0.0120809
0.0121363
0.0121886
0.0122378
0.0122843
0.0123281
0.0123694
0.0124083
0.012445
0.0124795
0.0125121
0.0125426
0.0125714
0.0125984
0.0126237
0.0126473
0.0126694
0.01269
0.0127092
0.012727
0.0127434
0.0127586
0.0127725
0.0127852
0.0127967
0.0128071
0.0128164
0.0128247
0.0128319
0.0128381
0.0128434
0.0128477
0.0128511
0.0128536
0.0128552
0.012856
0.0128559
0.012855
0.0128533
0.0128508
0.0128476
0.0128436
0.0128388
0.0128333
0.0128271
0.0128201
0.0128124
0.012804
0.0127949
0.0127851
0.0127746
0.0127633
0.0127514
0.0127388
0.0127255
0.0127114
0.0126967
0.0126813
0.0126651
0.0126482
0.0126306
0.0126123
0.0125932
0.0125734
0.0125529
0.0125316
0.0125095
0.0124867
0.012463
0.0124386
0.0124133
0.0123873
0.0123604
0.0123327
0.0123041
0.0122746
0.0122443
0.012213
0.0121809
0.0121478
0.0121138
0.0120788
0.0120428
0.0120059
0.0119679
0.011929
0.011889
0.0118479
0.0118057
0.0117625
0.0117181
0.0116726
0.011626
0.0115782
0.0115292
0.011479
0.0114275
0.0113748
0.0113208
0.0112655
0.0112088
0.0111508
0.0110914
0.0110306
0.0109684
0.0109047
0.0108395
0.0107728
0.0107046
0.0106347
0.0105632
0.01049
0.0104152
0.0103385
0.0102601
0.0101798
0.0100977
0.0100136
0.00992745
0.00983926
0.00974894
0.0096564
0.00956157
0.00946436
0.00936469
0.00926244
0.0091575
0.00904976
0.00893906
0.00882526
0.00870818
0.00858763
0.00846339
0.00833521
0.00820281
0.00806587
0.007924
0.00777678
0.00762369
0.00746414
0.00729747
0.00712286
0.00693937
0.00674588
0.00654097
0.00632294
0.00608966
0.00583847
0.00556604
0.0052681
0.00493922
0.0045725
0.00415892
0.00368721
0.00314218
0.00250435
0.00175114
0.00087376
8.63866e-05
0.000129734
0.001304
0.0025873
0.00368154
0.00461294
0.00541893
0.00612816
0.00676119
0.00733275
0.00785352
0.00833144
0.00877253
0.00918144
0.00956186
0.00991677
0.0102486
0.0105595
0.0108512
0.0111251
0.0113827
0.0116251
0.0118534
0.0120685
0.0122714
0.0124628
0.0126436
0.0128143
0.0129756
0.0131281
0.0132723
0.0134088
0.013538
0.0136603
0.0137762
0.013886
0.0139901
0.0140888
0.0141824
0.0142711
0.0143553
0.0144351
0.0145108
0.0145826
0.0146506
0.014715
0.0147759
0.0148337
0.0148883
0.0149401
0.0149891
0.0150356
0.0150795
0.0151211
0.0151605
0.0151977
0.0152328
0.0152659
0.0152972
0.0153266
0.0153542
0.0153802
0.0154045
0.0154273
0.0154486
0.0154683
0.0154867
0.0155037
0.0155193
0.0155337
0.0155468
0.0155587
0.0155693
0.0155789
0.0155872
0.0155945
0.0156007
0.0156059
0.01561
0.0156131
0.0156152
0.0156163
0.0156165
0.0156157
0.0156139
0.0156112
0.0156077
0.0156031
0.0155977
0.0155914
0.0155842
0.0155761
0.0155671
0.0155572
0.0155464
0.0155348
0.0155222
0.0155088
0.0154944
0.0154792
0.015463
0.015446
0.015428
0.0154091
0.0153892
0.0153684
0.0153467
0.015324
0.0153003
0.0152756
0.0152499
0.0152232
0.0151954
0.0151667
0.0151368
0.0151059
0.0150739
0.0150408
0.0150065
0.0149712
0.0149346
0.0148969
0.014858
0.0148178
0.0147765
0.0147338
0.0146899
0.0146447
0.0145981
0.0145502
0.0145009
0.0144502
0.0143981
0.0143446
0.0142896
0.014233
0.014175
0.0141154
0.0140542
0.0139914
0.0139269
0.0138608
0.0137929
0.0137233
0.013652
0.0135788
0.0135037
0.0134268
0.0133479
0.0132671
0.0131842
0.0130993
0.0130122
0.012923
0.0128315
0.0127378
0.0126417
0.0125432
0.0124422
0.0123387
0.0122325
0.0121237
0.012012
0.0118973
0.0117797
0.0116589
0.0115349
0.0114074
0.0112764
0.0111417
0.011003
0.0108602
0.0107131
0.0105613
0.0104046
0.0102427
0.0100751
0.00990145
0.00972126
0.00953393
0.0093388
0.0091351
0.00892193
0.00869824
0.00846278
0.00821406
0.00795028
0.00766928
0.00736839
0.00704435
0.00669313
0.00630974
0.00588796
0.00542002
0.00489617
0.0043045
0.00363034
0.0028561
0.00196454
0.000959894
9.28557e-05
0.000129734
0.00130401
0.00258732
0.00368157
0.00461297
0.00541897
0.0061282
0.00676124
0.00733279
0.00785356
0.00833149
0.00877257
0.00918148
0.0095619
0.00991682
0.0102487
0.0105596
0.0108512
0.0111251
0.0113827
0.0116251
0.0118534
0.0120685
0.0122714
0.0124629
0.0126436
0.0128143
0.0129756
0.0131281
0.0132723
0.0134088
0.013538
0.0136603
0.0137762
0.013886
0.0139901
0.0140888
0.0141824
0.0142711
0.0143553
0.0144352
0.0145109
0.0145826
0.0146506
0.014715
0.0147759
0.0148337
0.0148883
0.0149401
0.0149892
0.0150356
0.0150795
0.0151211
0.0151605
0.0151977
0.0152328
0.0152659
0.0152972
0.0153266
0.0153542
0.0153802
0.0154045
0.0154273
0.0154486
0.0154683
0.0154867
0.0155037
0.0155193
0.0155337
0.0155468
0.0155587
0.0155693
0.0155789
0.0155872
0.0155945
0.0156007
0.0156059
0.01561
0.0156131
0.0156152
0.0156163
0.0156165
0.0156157
0.0156139
0.0156112
0.0156077
0.0156031
0.0155977
0.0155914
0.0155842
0.0155761
0.0155671
0.0155572
0.0155464
0.0155348
0.0155222
0.0155088
0.0154944
0.0154792
0.015463
0.015446
0.015428
0.0154091
0.0153892
0.0153684
0.0153467
0.015324
0.0153003
0.0152756
0.0152499
0.0152232
0.0151954
0.0151667
0.0151368
0.0151059
0.0150739
0.0150408
0.0150065
0.0149712
0.0149346
0.0148969
0.014858
0.0148178
0.0147764
0.0147338
0.0146899
0.0146447
0.0145981
0.0145502
0.0145009
0.0144502
0.0143981
0.0143446
0.0142896
0.014233
0.014175
0.0141154
0.0140542
0.0139914
0.0139269
0.0138608
0.0137929
0.0137233
0.013652
0.0135788
0.0135037
0.0134268
0.0133479
0.0132671
0.0131842
0.0130993
0.0130122
0.012923
0.0128315
0.0127378
0.0126417
0.0125432
0.0124422
0.0123387
0.0122325
0.0121237
0.0120119
0.0118973
0.0117797
0.0116589
0.0115349
0.0114074
0.0112764
0.0111417
0.011003
0.0108602
0.0107131
0.0105613
0.0104046
0.0102426
0.0100751
0.00990145
0.00972125
0.00953393
0.0093388
0.0091351
0.00892193
0.00869823
0.00846277
0.00821405
0.00795028
0.00766927
0.00736838
0.00704434
0.00669313
0.00630974
0.00588796
0.00542002
0.00489617
0.00430451
0.00363034
0.0028561
0.00196454
0.000959892
9.28557e-05
0.0001376
0.00138985
0.00278915
0.0040058
0.00505521
0.0059717
0.0067835
0.00751173
0.00817194
0.00877563
0.00933143
0.00984595
0.0103243
0.0107705
0.011188
0.0115793
0.0119467
0.0122923
0.0126176
0.0129241
0.0132132
0.013486
0.0137435
0.0139868
0.0142167
0.0144342
0.0146398
0.0148345
0.0150187
0.0151932
0.0153586
0.0155153
0.0156639
0.0158048
0.0159386
0.0160655
0.016186
0.0163005
0.0164092
0.0165125
0.0166107
0.0167039
0.0167926
0.0168767
0.0169567
0.0170327
0.0171048
0.0171734
0.0172385
0.0173004
0.0173593
0.0174152
0.0174683
0.0175188
0.0175667
0.0176122
0.0176553
0.0176962
0.017735
0.0177717
0.0178064
0.0178392
0.0178702
0.0178994
0.0179268
0.0179526
0.0179767
0.0179993
0.0180204
0.01804
0.0180581
0.0180749
0.0180902
0.0181043
0.018117
0.0181285
0.0181387
0.0181477
0.0181555
0.0181621
0.0181675
0.0181718
0.0181749
0.018177
0.0181779
0.0181777
0.0181764
0.018174
0.0181706
0.0181661
0.0181605
0.0181538
0.0181461
0.0181373
0.0181274
0.0181165
0.0181044
0.0180913
0.0180771
0.0180618
0.0180454
0.0180279
0.0180093
0.0179895
0.0179686
0.0179465
0.0179233
0.0178989
0.0178733
0.0178464
0.0178184
0.0177891
0.0177585
0.0177266
0.0176935
0.017659
0.0176232
0.017586
0.0175474
0.0175074
0.017466
0.0174231
0.0173788
0.017333
0.0172856
0.0172366
0.0171861
0.017134
0.0170802
0.0170248
0.0169677
0.0169088
0.0168482
0.0167858
0.0167215
0.0166554
0.0165874
0.0165175
0.0164455
0.0163716
0.0162956
0.0162176
0.0161374
0.016055
0.0159704
0.0158835
0.0157943
0.0157027
0.0156087
0.0155122
0.0154131
0.0153114
0.0152071
0.0151
0.0149901
0.0148772
0.0147614
0.0146425
0.0145205
0.0143952
0.0142665
0.0141342
0.0139984
0.0138588
0.0137153
0.0135677
0.0134159
0.0132596
0.0130987
0.0129329
0.0127619
0.0125855
0.0124032
0.0122149
0.0120199
0.0118179
0.0116083
0.0113906
0.0111639
0.0109275
0.0106804
0.0104215
0.0101495
0.00986296
0.00956
0.0092385
0.00889587
0.00852901
0.00813418
0.00770682
0.0072414
0.00673117
0.00616793
0.00554172
0.00484056
0.00405065
0.00315661
0.00214612
0.00103377
9.85158e-05
0.0001376
0.00138986
0.00278917
0.00400583
0.00505525
0.00597174
0.00678354
0.00751178
0.00817199
0.00877568
0.00933148
0.009846
0.0103243
0.0107706
0.011188
0.0115793
0.0119468
0.0122923
0.0126176
0.0129242
0.0132132
0.013486
0.0137435
0.0139868
0.0142168
0.0144342
0.0146399
0.0148345
0.0150188
0.0151933
0.0153586
0.0155153
0.0156639
0.0158048
0.0159386
0.0160655
0.016186
0.0163005
0.0164092
0.0165125
0.0166107
0.016704
0.0167926
0.0168768
0.0169567
0.0170327
0.0171048
0.0171734
0.0172385
0.0173005
0.0173593
0.0174152
0.0174683
0.0175188
0.0175667
0.0176122
0.0176553
0.0176962
0.017735
0.0177717
0.0178064
0.0178392
0.0178702
0.0178994
0.0179268
0.0179526
0.0179767
0.0179993
0.0180204
0.01804
0.0180581
0.0180749
0.0180903
0.0181043
0.018117
0.0181285
0.0181387
0.0181477
0.0181555
0.0181621
0.0181675
0.0181718
0.0181749
0.018177
0.0181779
0.0181777
0.0181764
0.018174
0.0181706
0.0181661
0.0181605
0.0181538
0.0181461
0.0181373
0.0181274
0.0181165
0.0181044
0.0180913
0.0180771
0.0180618
0.0180454
0.0180279
0.0180093
0.0179895
0.0179686
0.0179465
0.0179233
0.0178989
0.0178733
0.0178464
0.0178184
0.0177891
0.0177585
0.0177266
0.0176935
0.017659
0.0176232
0.017586
0.0175474
0.0175074
0.017466
0.0174231
0.0173788
0.0173329
0.0172856
0.0172366
0.0171861
0.017134
0.0170802
0.0170248
0.0169677
0.0169088
0.0168482
0.0167858