/*--------------------------------*- C++ -*----------------------------------*\
  =========                 |
  \\      /  F ield         | OpenFOAM: The Open Source CFD Toolbox
   \\    /   O peration     | Website:  https://openfoam.org
    \\  /    A nd           | Version:  8
     \\/     M anipulation  |
\*---------------------------------------------------------------------------*/
FoamFile
{
    version     2.0;
    format      ascii;
    class       volScalarField;
    location    "3900";
    object      epsilon;
}
// * * * * * * * * * * * * * * * * * * * * * * * * * * * * * * * * * * * * * //

dimensions      [0 2 -3 0 0 0 0];

internalField   nonuniform List<scalar> 
48000
(
1.55085
5.95767
11.3073
16.8231
22.6268
28.4493
34.2481
40.0134
45.8409
51.7204
57.5957
63.4774
69.3562
75.2238
81.0715
86.8902
92.6704
98.4021
104.075
109.679
115.203
120.637
125.971
131.195
136.301
141.279
146.121
150.819
155.368
159.76
163.991
168.056
171.951
175.673
179.22
182.59
185.783
188.798
191.635
194.297
196.784
199.098
201.242
203.217
205.062
206.759
208.3
209.688
210.928
212.024
212.982
213.808
214.507
215.083
215.543
215.892
216.134
216.275
216.32
216.273
216.14
215.925
215.633
215.267
214.832
214.332
213.771
213.152
212.478
211.753
210.981
210.163
209.303
208.404
207.467
206.495
205.491
204.455
203.391
202.3
201.183
200.042
198.879
197.694
196.488
195.264
194.022
192.762
191.486
190.194
188.887
187.565
186.229
184.88
183.518
182.142
180.755
179.354
177.942
176.518
175.082
173.635
172.175
170.705
169.222
167.728
166.223
164.706
163.177
161.636
160.084
158.52
156.944
155.356
153.755
152.143
150.518
148.881
147.232
145.57
143.895
142.208
140.509
138.797
137.072
135.335
133.586
131.824
130.05
128.264
126.466
124.656
122.835
121.002
119.158
117.303
115.438
113.563
111.678
109.783
107.879
105.967
104.047
102.12
100.185
98.2442
96.2975
94.3456
92.3892
90.429
88.4656
86.4999
84.5324
82.564
80.5954
78.6275
76.6609
74.6966
72.7352
70.7777
68.8248
66.8774
64.9362
63.002
61.0757
59.1579
57.2495
55.3511
53.4636
51.5874
49.7233
47.872
46.0338
44.2094
42.3991
40.6035
38.8227
37.0573
35.3075
33.5745
31.8602
30.1739
28.5071
26.8518
25.2075
23.5731
21.947
20.3276
18.7128
17.0999
15.4856
13.8703
12.2604
10.6378
8.99405
7.3188
5.59788
3.81006
1.92147
0.601444
1.55089
5.95774
11.3074
16.8233
22.6269
28.4495
34.2483
40.0136
45.8411
51.7206
57.5959
63.4776
69.3564
75.224
81.0717
86.8904
92.6706
98.4023
104.075
109.679
115.203
120.637
125.971
131.195
136.301
141.279
146.121
150.82
155.368
159.76
163.991
168.056
171.951
175.673
179.22
182.59
185.783
188.798
191.636
194.297
196.784
199.098
201.242
203.217
205.062
206.759
208.3
209.688
210.928
212.024
212.982
213.808
214.507
215.083
215.543
215.892
216.134
216.275
216.32
216.273
216.14
215.925
215.633
215.267
214.832
214.332
213.771
213.152
212.478
211.753
210.981
210.163
209.303
208.404
207.467
206.495
205.491
204.455
203.391
202.3
201.183
200.042
198.879
197.694
196.488
195.264
194.022
192.762
191.486
190.194
188.887
187.565
186.229
184.88
183.518
182.142
180.755
179.354
177.942
176.518
175.082
173.635
172.175
170.705
169.222
167.728
166.223
164.706
163.177
161.636
160.084
158.52
156.944
155.356
153.755
152.143
150.518
148.881
147.232
145.57
143.895
142.208
140.509
138.797
137.072
135.335
133.586
131.824
130.05
128.264
126.466
124.656
122.835
121.002
119.158
117.303
115.438
113.563
111.678
109.783
107.879
105.967
104.047
102.12
100.185
98.2442
96.2975
94.3456
92.3892
90.429
88.4656
86.4999
84.5324
82.564
80.5954
78.6275
76.6609
74.6966
72.7352
70.7777
68.8248
66.8774
64.9362
63.002
61.0757
59.1579
57.2495
55.3512
53.4636
51.5874
49.7234
47.872
46.0338
44.2094
42.3991
40.6035
38.8228
37.0573
35.3075
33.5745
31.8602
30.1739
28.5071
26.8518
25.2076
23.5731
21.947
20.3276
18.7128
17.0999
15.4856
13.8703
12.2604
10.6378
8.99406
7.31881
5.59788
3.81003
1.92149
0.601405
7.09103
6.07394
7.77182
9.8423
12.0964
14.4387
16.8301
19.2411
21.6823
24.1529
26.646
29.1591
31.689
34.2321
36.7845
39.3417
41.8989
44.451
46.9926
49.5181
52.0218
54.4979
56.9406
59.3443
61.7035
64.0127
66.267
68.4616
70.592
72.6542
74.6446
76.5599
78.3974
80.1546
81.8296
83.4211
84.9278
86.3491
87.6849
88.9351
90.1002
91.1812
92.1795
93.0982
93.9458
94.7196
95.4182
96.0423
96.5937
97.0746
97.4875
97.8349
98.1196
98.3443
98.5117
98.6245
98.6855
98.6972
98.6623
98.5833
98.4627
98.3029
98.1062
97.8748
97.6109
97.3165
96.9936
96.644
96.2695
95.8718
95.4525
95.013
94.5548
94.0792
93.5874
93.0806
92.5598
92.0262
91.4805
90.9236
90.3564
89.7796
89.1938
88.5997
87.9979
87.3888
86.7729
86.1507
85.5225
84.8887
84.2495
83.6053
82.9563
82.3026
81.6446
80.9822
80.3157
79.6451
78.9706
78.2922
77.61
76.924
76.2342
75.5406
74.8433
74.1422
73.4373
72.7285
72.016
71.2995
70.5791
69.8547
69.1263
68.3938
67.6571
66.9163
66.1713
65.4221
64.6685
63.9106
63.1484
62.3817
61.6107
60.8352
60.0554
59.2711
58.4824
57.6894
56.892
56.0903
55.2844
54.4743
53.6601
52.8419
52.0198
51.194
50.3645
49.5315
48.6951
47.8555
47.013
46.1676
45.3196
44.4693
43.6168
42.7624
41.9063
41.0489
40.1903
39.3309
38.471
37.611
36.751
35.8914
35.0326
34.1748
33.3185
32.464
31.6116
30.7616
29.9145
29.0705
28.2299
27.3932
26.5606
25.7325
24.9092
24.091
23.2781
22.4709
21.6696
20.8744
20.0857
19.3035
18.5281
17.7596
16.9982
16.244
15.4973
14.7582
14.0273
13.3054
12.5911
11.8829
11.1813
10.4859
9.79596
9.11117
8.431
7.75506
7.08323
6.41664
5.75661
5.10006
4.44654
3.79756
3.15921
2.55137
2.05046
2.36963
7.09114
6.07392
7.77176
9.84223
12.0964
14.4387
16.83
19.241
21.6822
24.1528
26.6458
29.1589
31.6888
34.232
36.7843
39.3415
41.8987
44.4508
46.9924
49.5179
52.0216
54.4977
56.9404
59.3441
61.7033
64.0125
66.2668
68.4614
70.5918
72.654
74.6444
76.5597
78.3971
80.1543
81.8294
83.4208
84.9275
86.3489
87.6846
88.9348
90.1
91.1809
92.1792
93.098
93.9455
94.7193
95.4179
96.0421
96.5935
97.0743
97.4872
97.8346
98.1194
98.344
98.5115
98.6243
98.6852
98.697
98.662
98.5831
98.4625
98.3026
98.1059
97.8745
97.6106
97.3162
96.9933
96.6437
96.2692
95.8715
95.4522
95.0128
94.5546
94.079
93.5872
93.0804
92.5596
92.0259
91.4802
90.9234
90.3562
89.7794
89.1936
88.5995
87.9977
87.3886
86.7727
86.1505
85.5223
84.8885
84.2493
83.6051
82.9561
82.3024
81.6444
80.982
80.3155
79.6449
78.9704
78.292
77.6098
76.9238
76.234
75.5404
74.8431
74.142
73.4371
72.7284
72.0158
71.2993
70.5789
69.8545
69.1261
68.3936
67.657
66.9162
66.1712
65.4219
64.6684
63.9105
63.1482
62.3816
61.6105
60.8351
60.0552
59.2709
58.4823
57.6892
56.8918
56.0901
55.2842
54.4741
53.66
52.8418
52.0197
51.1939
50.3644
49.5313
48.695
47.8554
47.0129
46.1675
45.3195
44.4692
43.6167
42.7623
41.9062
41.0487
40.1902
39.3308
38.4709
37.6108
36.7509
35.8913
35.0325
34.1748
33.3185
32.4639
31.6115
30.7615
29.9144
29.0704
28.2298
27.3931
26.5605
25.7324
24.9091
24.0909
23.278
22.4708
21.6695
20.8744
20.0856
19.3034
18.528
17.7596
16.9982
16.244
15.4972
14.7582
14.0273
13.3053
12.5911
11.8828
11.1813
10.4858
9.79593
9.11114
8.43098
7.75504
7.08321
6.41663
5.75659
5.10004
4.44653
3.79756
3.15923
2.55144
2.05044
2.36955
13.1892
8.14458
8.6183
9.84806
11.3405
12.9672
14.6749
16.436
18.2387
20.0758
21.9411
23.8303
25.7396
27.6653
29.6039
31.5516
33.5044
35.4583
37.4087
39.3514
41.2815
43.1943
45.0851
46.9492
48.782
50.5788
52.3353
54.0474
55.7112
57.323
58.8797
60.3782
61.8159
63.1906
64.5004
65.7438
66.9197
68.0273
69.0661
70.0361
70.9375
71.771
72.5377
73.2396
73.8793
74.4576
74.9747
75.4317
75.8299
76.1712
76.4575
76.6909
76.8735
77.0077
77.0955
77.1394
77.1415
77.1041
77.0293
76.9193
76.7761
76.6017
76.3981
76.1672
75.9108
75.6305
75.328
75.0049
74.6627
74.3027
73.9263
73.5347
73.129
72.7105
72.2801
71.8387
71.3873
70.9266
70.4575
69.9806
69.4967
69.0062
68.5097
68.0078
67.501
66.9895
66.4738
65.9542
65.4311
64.9047
64.3752
63.8428
63.3078
62.7703
62.2305
61.6884
61.1441
60.5978
60.0495
59.4992
58.947
58.3928
57.8368
57.2789
56.7192
56.1575
55.5938
55.0282
54.4607
53.8911
53.3194
52.7456
52.1697
51.5915
51.0112
50.4285
49.8436
49.2562
48.6665
48.0743
47.4797
46.8826
46.283
45.6809
45.0763
44.4691
43.8594
43.2472
42.6325
42.0154
41.3958
40.7739
40.1496
39.5231
38.8944
38.2637
37.6309
36.9962
36.3597
35.7216
35.082
34.4409
33.7987
33.1554
32.5111
31.8662
31.2207
30.5749
29.929
29.2832
28.6377
27.9927
27.3485
26.7053
26.0634
25.4229
24.7842
24.1475
23.5131
22.8811
22.2519
21.6257
21.0028
20.3834
19.7677
19.156
18.5484
17.9454
17.3469
16.7533
16.1647
15.5814
15.0034
14.4309
13.8642
13.3032
12.7482
12.1993
11.6566
11.1202
10.5904
10.0672
9.55042
9.0397
8.53503
8.03624
7.54338
7.05671
6.5762
6.10215
5.63513
5.17625
4.72716
4.28928
3.86615
3.46542
3.10454
2.83012
2.8204
4.6931
13.1893
8.14454
8.61822
9.84796
11.3404
12.9671
14.6748
16.4358
18.2386
20.0757
21.941
23.8302
25.7395
27.6652
29.6038
31.5514
33.5043
35.4581
37.4086
39.3512
41.2813
43.1941
45.085
46.9491
48.7818
50.5786
52.3351
54.0472
55.711
57.3229
58.8795
60.378
61.8157
63.1904
64.5003
65.7437
66.9196
68.0271
69.066
70.0359
70.9374
71.7709
72.5376
73.2394
73.8792
74.4574
74.9746
75.4315
75.8298
76.1711
76.4574
76.6908
76.8734
77.0075
77.0954
77.1393
77.1414
77.104
77.0292
76.9191
76.7759
76.6016
76.398
76.1671
75.9107
75.6304
75.3279
75.0048
74.6626
74.3026
73.9262
73.5346
73.1289
72.7104
72.28
71.8386
71.3872
70.9265
70.4574
69.9805
69.4966
69.0061
68.5097
68.0078
67.5009
66.9894
66.4737
65.9541
65.431
64.9046
64.3751
63.8428
63.3078
62.7703
62.2304
61.6883
61.144
60.5977
60.0494
59.4991
58.9469
58.3928
57.8368
57.2789
56.7191
56.1574
55.5938
55.0282
54.4606
53.891
53.3193
52.7455
52.1696
51.5915
51.0111
50.4285
49.8435
49.2562
48.6664
48.0743
47.4797
46.8826
46.283
45.6808
45.0762
44.469
43.8593
43.2471
42.6325
42.0153
41.3957
40.7738
40.1496
39.5231
38.8944
38.2636
37.6308
36.9962
36.3597
35.7216
35.0819
34.4409
33.7986
33.1553
32.5111
31.8662
31.2207
30.5749
29.929
29.2832
28.6376
27.9927
27.3485
26.7053
26.0633
25.4229
24.7842
24.1475
23.513
22.8811
22.2519
21.6257
21.0028
20.3833
19.7677
19.1559
18.5484
17.9453
17.3469
16.7533
16.1647
15.5813
15.0033
14.4309
13.8641
13.3032
12.7482
12.1993
11.6566
11.1202
10.5904
10.0672
9.55041
9.03969
8.53502
8.03623
7.54337
7.0567
6.57619
6.10214
5.63512
5.17624
4.72715
4.28928
3.86614
3.46541
3.10454
2.83012
2.82036
4.69311
19.1524
10.5993
10.1903
10.9199
12.0364
13.3455
14.7695
16.2695
17.8241
19.4201
21.0483
22.7022
24.3766
26.0673
27.7703
29.4818
31.1982
32.9156
34.6302
36.3381
38.0353
39.7175
41.3807
43.0208
44.6336
46.2152
47.7617
49.2693
50.7345
52.1541
53.5251
54.8446
56.1102
57.3199
58.4717
59.5643
60.5964
61.5672
62.4763
63.3235
64.1089
64.833
65.4966
66.101
66.6478
67.138
67.5724
67.9523
68.279
68.5542
68.7795
68.9568
69.0882
69.1757
69.2213
69.227
69.1949
69.1271
69.0256
68.8922
68.7291
68.5379
68.3205
68.0787
67.8141
67.5283
67.2228
66.8991
66.5585
66.2024
65.8319
65.4483
65.0526
64.6459
64.229
63.8028
63.3683
62.9261
62.477
62.0215
61.5604
61.0941
60.6232
60.1481
59.6692
59.187
58.7017
58.2137
57.7232
57.2305
56.7358
56.2393
55.7411
55.2415
54.7404
54.2381
53.7346
53.23
52.7243
52.2176
51.7099
51.2012
50.6915
50.1809
49.6693
49.1566
48.643
48.1283
47.6125
47.0956
46.5775
46.0582
45.5376
45.0158
44.4927
43.9682
43.4422
42.9148
42.386
41.8556
41.3237
40.7901
40.255
39.7183
39.18
38.6401
38.0985
37.5553
37.0105
36.4642
35.9163
35.3669
34.816
34.2637
33.7101
33.1552
32.5991
32.0419
31.4836
30.9245
30.3646
29.8039
29.2428
28.6812
28.1194
27.5574
26.9955
26.4338
25.8725
25.3118
24.7519
24.1928
23.635
23.0785
22.5235
21.9704
21.4192
20.8701
20.3235
19.7795
19.2383
18.7002
18.1653
17.6339
17.1061
16.5822
16.0623
15.5467
15.0355
14.5289
14.0271
13.5302
13.0384
12.5518
12.0705
11.5948
11.1247
10.6604
10.2019
9.74949
9.30322
8.86321
8.42948
8.00204
7.58098
7.16645
6.75868
6.35803
5.96492
5.58032
5.20529
4.84149
4.49146
4.15908
3.85105
3.58035
3.37494
3.30852
3.66599
6.94915
19.1525
10.5992
10.1902
10.9198
12.0363
13.3454
14.7694
16.2694
17.824
19.4199
21.0481
22.702
24.3765
26.0672
27.7702
29.4817
31.198
32.9155
34.6301
36.338
38.0351
39.7174
41.3806
43.0206
44.6335
46.2151
47.7615
49.2691
50.7344
52.154
53.5249
54.8445
56.1101
57.3198
58.4716
59.5642
60.5963
61.5671
62.4762
63.3234
64.1088
64.8329
65.4965
66.1009
66.6477
67.1379
67.5724
67.9522
68.2789
68.5541
68.7794
68.9568
69.0882
69.1756
69.2212
69.2269
69.1948
69.127
69.0255
68.8922
68.729
68.5378
68.3204
68.0786
67.814
67.5282
67.2227
66.899
66.5584
66.2023
65.8319
65.4483
65.0526
64.6458
64.2289
63.8028
63.3682
62.9261
62.4769
62.0215
61.5604
61.0941
60.6232
60.1481
59.6692
59.187
58.7017
58.2136
57.7232
57.2304
56.7357
56.2392
55.7411
55.2414
54.7404
54.2381
53.7346
53.23
52.7243
52.2176
51.7099
51.2012
50.6915
50.1809
49.6692
49.1566
48.643
48.1282
47.6124
47.0955
46.5774
46.0581
45.5376
45.0158
44.4926
43.9681
43.4422
42.9148
42.3859
41.8556
41.3236
40.7901
40.255
39.7183
39.18
38.64
38.0985
37.5553
37.0105
36.4642
35.9163
35.3669
34.816
34.2637
33.7101
33.1552
32.5991
32.0419
31.4836
30.9245
30.3645
29.8039
29.2428
28.6812
28.1193
27.5574
26.9955
26.4338
25.8725
25.3118
24.7518
24.1928
23.635
23.0785
22.5235
21.9704
21.4191
20.8701
20.3235
19.7795
19.2383
18.7002
18.1653
17.6339
17.1061
16.5822
16.0623
15.5467
15.0355
14.5289
14.0271
13.5302
13.0384
12.5518
12.0705
11.5948
11.1247
10.6604
10.2019
9.74948
9.30322
8.86321
8.42947
8.00203
7.58098
7.16645
6.75868
6.35803
5.96492
5.58032
5.20529
4.84149
4.49146
4.15908
3.85105
3.58035
3.37494
3.30853
3.66599
6.94915
25.1385
13.2601
12.0703
12.4151
13.2781
14.3941
15.6581
17.0182
18.4448
19.9192
21.4291
22.9656
24.522
26.0932
27.6745
29.2622
30.8524
32.4416
34.0264
35.6031
37.1683
38.7184
40.2496
41.7585
43.2414
44.6948
46.1152
47.4994
48.8442
50.1466
51.4039
52.6134
53.7731
54.8808
55.9348
56.9338
57.8766
58.7624
59.5906
60.361
61.0737
61.7291
62.3278
62.8706
63.3589
63.7935
64.1755
64.5061
64.7867
65.0188
65.2041
65.3442
65.4411
65.4966
65.5126
65.4911
65.434
65.3433
65.2208
65.0685
64.8881
64.6813
64.4501
64.1959
63.9204
63.6251
63.3115
62.981
62.6348
62.2743
61.9006
61.5148
61.118
60.7111
60.2951
59.8707
59.4389
59.0003
58.5556
58.1054
57.6504
57.191
56.7277
56.2609
55.7911
55.3187
54.8438
54.367
53.8883
53.4081
52.9265
52.4437
51.9599
51.4753
50.9898
50.5037
50.017
49.5298
49.0421
48.5539
48.0653
47.5764
47.087
46.5972
46.1071
45.6164
45.1254
44.6338
44.1418
43.6491
43.1559
42.6621
42.1676
41.6723
41.1763
40.6796
40.1819
39.6835
39.1841
38.6837
38.1824
37.6801
37.1767
36.6724
36.1669
35.6605
35.1529
34.6444
34.1347
33.6241
33.1125
32.5999
32.0863
31.5719
31.0567
30.5407
30.024
29.5067
28.9889
28.4707
27.9521
27.4332
26.9143
26.3953
25.8765
25.358
24.8399
24.3224
23.8056
23.2897
22.7748
22.2612
21.749
21.2383
20.7294
20.2225
19.7177
19.2152
18.7152
18.218
17.7236
17.2323
16.7443
16.2598
15.7789
15.3018
14.8287
14.3598
13.8952
13.4351
12.9797
12.5291
12.0835
11.643
11.2077
10.7778
10.3535
9.93486
9.52206
9.11525
8.71461
8.32029
7.93244
7.55127
7.177
6.80999
6.45066
6.09963
5.75773
5.42613
5.10645
4.8011
4.51371
4.24989
4.01929
3.83987
3.74995
3.85035
4.53211
9.18246
25.1386
13.2601
12.0702
12.415
13.278
14.3939
15.658
17.0181
18.4446
19.9191
21.429
22.9655
24.5219
26.093
27.6744
29.262
30.8522
32.4415
34.0262
35.603
37.1682
38.7182
40.2495
41.7583
43.2412
44.6946
46.1151
47.4993
48.8441
50.1465
51.4037
52.6133
53.773
54.8807
55.9347
56.9337
57.8765
58.7622
59.5905
60.3609
61.0736
61.729
62.3277
62.8706
63.3588
63.7934
64.1754
64.506
64.7867
65.0188
65.204
65.3441
65.441
65.4965
65.5125
65.4911
65.434
65.3433
65.2208
65.0684
64.888
64.6813
64.45
64.1958
63.9203
63.6251
63.3115
62.9809
62.6348
62.2743
61.9005
61.5148
61.1179
60.711
60.295
59.8707
59.4389
59.0003
58.5556
58.1054
57.6503
57.1909
56.7276
56.2609
55.7911
55.3186
54.8438
54.3669
53.8883
53.408
52.9265
52.4437
51.9599
51.4752
50.9898
50.5037
50.017
49.5298
49.042
48.5539
48.0653
47.5764
47.087
46.5972
46.107
45.6164
45.1254
44.6338
44.1417
43.6491
43.1559
42.6621
42.1675
41.6723
41.1763
40.6795
40.1819
39.6834
39.184
38.6837
38.1824
37.6801
37.1767
36.6724
36.1669
35.6605
35.1529
34.6444
34.1347
33.6241
33.1125
32.5999
32.0863
31.5719
31.0567
30.5407
30.024
29.5067
28.9889
28.4706
27.952
27.4332
26.9143
26.3953
25.8765
25.358
24.8399
24.3224
23.8056
23.2897
22.7748
22.2612
21.749
21.2383
20.7294
20.2225
19.7177
19.2152
18.7152
18.218
17.7236
17.2323
16.7443
16.2598
15.7789
15.3018
14.8287
14.3598
13.8952
13.4351
12.9797
12.5291
12.0835
11.643
11.2077
10.7778
10.3535
9.93486
9.52206
9.11525
8.71461
8.32029
7.93244
7.55127
7.177
6.80999
6.45066
6.09963
5.75773
5.42613
5.10645
4.8011
4.51371
4.24989
4.01929
3.83987
3.74995
3.85035
4.53213
9.18246
31.1005
16.0474
14.137
14.1584
14.827
15.8071
16.9667
18.2405
19.5913
20.9955
22.4375
23.9062
25.3935
26.8931
28.3999
29.9098
31.419
32.9242
34.422
35.9094
37.3833
38.8404
40.2778
41.6923
43.0808
44.4402
45.7676
47.0601
48.3148
49.5292
50.7007
51.8271
52.9062
53.9364
54.9159
55.8434
56.7179
57.5386
58.3049
59.0166
59.6736
60.2762
60.825
61.3206
61.764
62.1562
62.4981
62.791
63.0362
63.2351
63.3892
63.5003
63.5701
63.6003
63.5927
63.5493
63.4718
63.3621
63.2219
63.0532
62.8576
62.6369
62.3927
62.1266
61.8401
61.5348
61.212
60.8731
60.5194
60.1521
59.7723
59.3812
58.9797
58.5687
58.1493
57.7221
57.2881
56.8478
56.402
55.9512
55.4961
55.0371
54.5748
54.1095
53.6416
53.1716
52.6996
52.2261
51.7512
51.2752
50.7982
50.3205
49.8423
49.3635
48.8845
48.4051
47.9256
47.446
46.9663
46.4866
46.0069
45.5272
45.0475
44.5678
44.0881
43.6084
43.1286
42.6487
42.1688
41.6886
41.2083
40.7278
40.2471
39.766
39.2845
38.8027
38.3205
37.8378
37.3545
36.8708
36.3865
35.9016
35.4161
34.93
34.4432
33.9558
33.4677
32.9789
32.4896
31.9996
31.509
31.0178
30.5261
30.0338
29.5412
29.0481
28.5547
28.061
27.5671
27.0732
26.5792
26.0853
25.5916
25.0982
24.6053
24.1129
23.6211
23.1302
22.6403
22.1514
21.6638
21.1776
20.693
20.2102
19.7292
19.2503
18.7737
18.2994
17.8278
17.359
16.893
16.4302
15.9707
15.5147
15.0622
14.6136
14.169
13.7284
13.2922
12.8604
12.4332
12.0108
11.5933
11.1808
10.7736
10.3717
9.97544
9.58486
9.20017
8.82157
8.44928
8.08353
7.72458
7.37275
7.02843
6.69212
6.36445
6.04628
5.73874
5.44336
5.16228
4.89859
4.6569
4.44442
4.27351
4.16705
4.17355
4.42096
5.40604
11.4036
31.1007
16.0473
14.1369
14.1582
14.8268
15.8069
16.9666
18.2404
19.5911
20.9954
22.4374
23.9061
25.3934
26.8929
28.3998
29.9096
31.4189
32.924
34.4219
35.9093
37.3831
38.8403
40.2777
41.6922
43.0807
44.4401
45.7675
47.06
48.3147
49.5291
50.7006
51.8269
52.9061
53.9363
54.9158
55.8433
56.7178
57.5385
58.3048
59.0165
59.6735
60.2761
60.8249
61.3205
61.7639
62.1561
62.498
62.7909
63.0361
63.235
63.3892
63.5003
63.57
63.6002
63.5927
63.5492
63.4717
63.362
63.2219
63.0532
62.8576
62.6369
62.3926
62.1265
61.8401
61.5348
61.212
60.8731
60.5194
60.1521
59.7723
59.3811
58.9796
58.5687
58.1492
57.7221
57.288
56.8478
56.4019
55.9512
55.4961
55.0371
54.5748
54.1095
53.6416
53.1716
52.6996
52.226
51.7511
51.2751
50.7982
50.3205
49.8422
49.3635
48.8844
48.4051
47.9256
47.446
46.9663
46.4866
46.0069
45.5272
45.0475
44.5678
44.0881
43.6083
43.1286
42.6487
42.1687
41.6886
41.2083
40.7278
40.247
39.766
39.2845
38.8027
38.3205
37.8377
37.3545
36.8708
36.3865
35.9016
35.4161
34.93
34.4432
33.9557
33.4677
32.9789
32.4896
31.9996
31.509
31.0178
30.5261
30.0338
29.5411
29.0481
28.5547
28.061
27.5671
27.0732
26.5792
26.0853
25.5916
25.0982
24.6053
24.1129
23.6211
23.1302
22.6403
22.1514
21.6638
21.1776
20.693
20.2102
19.7292
19.2503
18.7737
18.2994
17.8278
17.359
16.893
16.4302
15.9707
15.5147
15.0622
14.6136
14.169
13.7284
13.2922
12.8604
12.4332
12.0108
11.5933
11.1808
10.7736
10.3717
9.97545
9.58486
9.20017
8.82157
8.44928
8.08353
7.72458
7.37275
7.02843
6.69212
6.36445
6.04628
5.73874
5.44336
5.16228
4.89859
4.6569
4.44442
4.27351
4.16705
4.17355
4.42096
5.40606
11.4036
37.1076
18.9231
16.3423
16.0796
16.5889
17.4656
18.5512
19.7673
21.0695
22.4295
23.8287
25.254
26.6956
28.1465
29.6011
31.0548
32.504
33.9454
35.376
36.793
38.1938
39.5758
40.9363
42.2726
43.5824
44.8629
46.1116
47.326
48.5038
49.6426
50.7404
51.7949
52.8045
53.7674
54.6823
55.5478
56.363
57.1271
57.8395
58.5001
59.1087
59.6656
60.171
60.6257
61.0304
61.3861
61.6936
61.9541
62.1689
62.3393
62.4668
62.5529
62.5993
62.6077
62.5797
62.5172
62.4219
62.2956
62.14
61.9567
61.7476
61.5142
61.2581
60.981
60.6842
60.3692
60.0375
59.6903
59.3288
58.9543
58.5678
58.1705
57.7632
57.3471
56.9228
56.4913
56.0533
55.6095
55.1606
54.707
54.2495
53.7885
53.3245
52.8579
52.3891
51.9184
51.4461
50.9726
50.498
50.0227
49.5468
49.0704
48.5937
48.117
47.6401
47.1634
46.6867
46.2103
45.7341
45.2582
44.7825
44.3072
43.8322
43.3576
42.8832
42.4091
41.9352
41.4616
40.9882
40.5149
40.0418
39.5687
39.0957
38.6227
38.1497
37.6766
37.2034
36.73
36.2564
35.7827
35.3086
34.8343
34.3597
33.8848
33.4095
32.9339
32.4579
31.9816
31.5049
31.028
30.5507
30.0731
29.5953
29.1172
28.639
28.1607
27.6823
27.2038
26.7255
26.2473
25.7694
25.2917
24.8145
24.3378
23.8617
23.3864
22.9119
22.4385
21.9661
21.4951
21.0254
20.5572
20.0908
19.6262
19.1636
18.7032
18.245
17.7894
17.3363
16.8861
16.4389
15.9947
15.5539
15.1165
14.6827
14.2526
13.8265
13.4045
12.9868
12.5734
12.1646
11.7606
11.3614
10.9673
10.5784
10.1949
9.81694
9.4448
9.07866
8.71877
8.36539
8.01884
7.67945
7.34767
7.02402
6.70914
6.40386
6.10927
5.82676
5.55824
5.30634
5.0748
4.86923
4.69841
4.57716
4.5332
4.6253
5.00849
6.28515
13.6186
37.1078
18.923
16.3422
16.0794
16.5887
17.4655
18.551
19.7672
21.0693
22.4294
23.8286
25.2538
26.6955
28.1463
29.6009
31.0547
32.5039
33.9452
35.3758
36.7929
38.1937
39.5756
40.9361
42.2725
43.5822
44.8627
46.1114
47.3259
48.5037
49.6425
50.7402
51.7948
52.8044
53.7673
54.6822
55.5477
56.3629
57.127
57.8394
58.5
59.1086
59.6655
60.1709
60.6256
61.0304
61.386
61.6935
61.9541
62.1688
62.3392
62.4667
62.5528
62.5992
62.6076
62.5797
62.5172
62.4219
62.2956
62.1399
61.9567
61.7475
61.5141
61.2581
60.9809
60.6842
60.3692
60.0375
59.6902
59.3287
58.9542
58.5678
58.1704
57.7632
57.347
56.9228
56.4913
56.0533
55.6095
55.1605
54.707
54.2495
53.7885
53.3245
52.8579
52.3891
51.9184
51.4461
50.9726
50.498
50.0227
49.5467
49.0704
48.5937
48.1169
47.6401
47.1634
46.6867
46.2103
45.7341
45.2582
44.7825
44.3072
43.8322
43.3575
42.8831
42.409
41.9352
41.4616
40.9882
40.5149
40.0418
39.5687
39.0957
38.6227
38.1497
37.6766
37.2034
36.73
36.2564
35.7827
35.3086
34.8343
34.3597
33.8847
33.4095
32.9339
32.4579
31.9816
31.5049
31.028
30.5507
30.0731
29.5953
29.1172
28.639
28.1607
27.6823
27.2038
26.7255
26.2473
25.7693
25.2917
24.8145
24.3378
23.8617
23.3864
22.9119
22.4385
21.9661
21.495
21.0254
20.5572
20.0908
19.6262
19.1636
18.7031
18.245
17.7894
17.3363
16.8861
16.4388
15.9947
15.5539
15.1165
14.6827
14.2526
13.8265
13.4045
12.9868
12.5734
12.1646
11.7606
11.3614
10.9673
10.5784
10.1949
9.81694
9.4448
9.07866
8.71877
8.3654
8.01884
7.67945
7.34767
7.02402
6.70914
6.40387
6.10927
5.82676
5.55824
5.30634
5.0748
4.86923
4.69841
4.57716
4.5332
4.6253
5.0085
6.28517
13.6186
43.3877
21.9087
18.6722
18.1478
18.5196
19.3132
20.3431
21.5183
22.7873
24.1174
25.4872
26.8815
28.2894
29.7029
31.1159
32.5238
33.9228
35.3098
36.6821
38.0373
39.3733
40.6878
41.9788
43.2442
44.4819
45.6899
46.866
48.0082
49.1145
50.183
51.2119
52.1993
53.1438
54.0437
54.8979
55.7052
56.4648
57.1758
57.8377
58.4504
59.0136
59.5276
59.9926
60.4092
60.7779
61.0997
61.3754
61.6061
61.7929
61.9372
62.0402
62.1035
62.1286
62.1171
62.0707
61.9908
61.8794
61.738
61.5682
61.3718
61.1503
60.9054
60.6386
60.3513
60.0451
59.7212
59.3812
59.0261
58.6573
58.2759
57.883
57.4796
57.0668
56.6453
56.2162
55.7801
55.3378
54.89
54.4374
53.9805
53.52
53.0562
52.5896
52.1207
51.6499
51.1774
50.7036
50.2289
49.7533
49.2772
48.8007
48.3241
47.8474
47.3708
46.8944
46.4183
45.9426
45.4673
44.9924
44.5181
44.0444
43.5711
43.0984
42.6263
42.1547
41.6836
41.2131
40.743
40.2733
39.804
39.3351
38.8666
38.3983
37.9302
37.4624
36.9947
36.5272
36.0598
35.5924
35.125
34.6577
34.1903
33.7228
33.2553
32.7877
32.3199
31.8521
31.3841
30.9161
30.4479
29.9797
29.5114
29.0431
28.5748
28.1065
27.6383
27.1702
26.7024
26.2348
25.7676
25.3007
24.8344
24.3686
23.9035
23.4392
22.9758
22.5134
22.0521
21.5921
21.1334
20.6762
20.2207
19.7669
19.315
18.8651
18.4175
17.9722
17.5294
17.0892
16.6519
16.2175
15.7862
15.3581
14.9335
14.5125
14.0952
13.6817
13.2723
12.8671
12.4663
12.07
11.6784
11.2916
10.9099
10.5334
10.1623
9.79693
9.43738
9.08396
8.73696
8.39671
8.06358
7.73802
7.42055
7.11182
6.81264
6.52399
6.24717
5.98387
5.73633
5.50765
5.30225
5.12669
4.99127
4.91337
4.9254
5.09642
5.60868
7.17008
15.8337
43.3879
21.9086
18.6721
18.1477
18.5195
19.313
20.3429
21.5182
22.7871
24.1173
25.4871
26.8813
28.2892
29.7027
31.1158
32.5236
33.9226
35.3096
36.6819
38.0372
39.3732
40.6877
41.9787
43.2441
44.4818
45.6897
46.8658
48.008
49.1144
50.1829
51.2118
52.1992
53.1437
54.0436
54.8978
55.7052
56.4647
57.1757
57.8376
58.4503
59.0136
59.5275
59.9925
60.4091
60.7778
61.0996
61.3754
61.6061
61.7929
61.9371
62.0402
62.1035
62.1286
62.1171
62.0706
61.9908
61.8794
61.7379
61.5682
61.3718
61.1503
60.9054
60.6385
60.3513
60.045
59.7212
59.3811
59.0261
58.6573
58.2759
57.883
57.4796
57.0668
56.6453
56.2162
55.7801
55.3378
54.89
54.4374
53.9805
53.5199
53.0561
52.5896
52.1207
51.6499
51.1774
50.7036
50.2288
49.7533
49.2772
48.8007
48.3241
47.8474
47.3708
46.8944
46.4183
45.9426
45.4673
44.9924
44.5181
44.0443
43.5711
43.0984
42.6263
42.1547
41.6836
41.2131
40.7429
40.2733
39.804
39.3351
38.8665
38.3983
37.9302
37.4624
36.9947
36.5272
36.0598
35.5924
35.125
34.6577
34.1903
33.7228
33.2553
32.7877
32.3199
31.8521
31.3841
30.9161
30.4479
29.9797
29.5114
29.0431
28.5748
28.1065
27.6383
27.1702
26.7024
26.2348
25.7676
25.3007
24.8344
24.3686
23.9035
23.4392
22.9758
22.5134
22.0521
21.5921
21.1334
20.6762
20.2206
19.7669
19.315
18.8651
18.4175
17.9722
17.5294
17.0892
16.6519
16.2175
15.7862
15.3581
14.9335
14.5125
14.0951
13.6817
13.2723
12.8671
12.4663
12.07
11.6784
11.2916
10.9099
10.5334
10.1623
9.79693
9.43738
9.08396
8.73696
8.39671
8.06358
7.73802
7.42055
7.11183
6.81264
6.52399
6.24717
5.98387
5.73633
5.50765
5.30225
5.12669
4.99127
4.91337
4.9254
5.09642
5.60869
7.1701
15.8337
49.8995
25.0102
21.1215
20.3485
20.5968
21.3201
22.306
23.4506
24.6953
26.0034
27.3507
28.7202
30.0999
31.481
32.8571
34.2233
35.5759
36.9121
38.2295
39.526
40.8001
42.0499
43.274
44.4707
45.6386
46.776
47.8815
48.9533
49.9898
50.9896
51.9511
52.8729
53.7535
54.5918
55.3865
56.1368
56.8417
57.5006
58.1131
58.6788
59.1977
59.6698
60.0953
60.4747
60.8085
61.0975
61.3426
61.5445
61.7045
61.8238
61.9035
61.9451
61.95
61.9197
61.8557
61.7597
61.6331
61.4777
61.2948
61.0862
60.8534
60.5979
60.3212
60.0247
59.7099
59.378
59.0304
58.6683
58.2928
57.9052
57.5065
57.0977
56.6797
56.2534
55.8197
55.3794
54.9332
54.4817
54.0256
53.5656
53.102
52.6354
52.1663
51.6951
51.2221
50.7477
50.2722
49.7959
49.319
48.8417
48.3643
47.8869
47.4096
46.9326
46.456
45.9798
45.5042
45.0292
44.5549
44.0813
43.6084
43.1363
42.6648
42.1941
41.7242
41.2549
40.7863
40.3184
39.8511
39.3844
38.9183
38.4527
37.9876
37.5229
37.0586
36.5947
36.1311
35.6678
35.2047
34.7419
34.2792
33.8167
33.3544
32.8922
32.43
31.968
31.506
31.0441
30.5823
30.1206
29.659
29.1975
28.7361
28.2749
27.814
27.3532
26.8928
26.4328
25.9731
25.5139
25.0553
24.5973
24.14
23.6834
23.2278
22.7732
22.3197
21.8673
21.4163
20.9667
20.5186
20.0723
19.6277
19.185
18.7445
18.3061
17.8701
17.4365
17.0056
16.5775
16.1523
15.7301
15.3112
14.8956
14.4835
14.0751
13.6705
13.2699
12.8735
12.4813
12.0937
11.7106
11.3324
10.9593
10.5913
10.2289
9.87209
9.52128
9.17673
8.83878
8.50782
8.18429
7.86872
7.56173
7.26409
6.97673
6.70082
6.43786
6.1898
5.95922
5.7497
5.56629
5.41652
5.31222
5.27333
5.33697
5.58274
6.22062
8.06606
18.0675
49.8997
25.0101
21.1213
20.3484
20.5967
21.32
22.3058
23.4505
24.6951
26.0033
27.3505
28.72
30.0997
31.4808
32.8569
34.2231
35.5758
36.912
38.2293
39.5259
40.7999
42.0497
43.2738
44.4706
45.6385
46.7759
47.8813
48.9531
49.9897
50.9895
51.951
52.8728
53.7534
54.5917
55.3864
56.1367
56.8416
57.5005
58.113
58.6788
59.1976
59.6697
60.0952
60.4746
60.8085
61.0975
61.3425
61.5445
61.7045
61.8237
61.9034
61.945
61.9499
61.9197
61.8557
61.7597
61.6331
61.4776
61.2948
61.0862
60.8534
60.5979
60.3212
60.0247
59.7099
59.378
59.0304
58.6682
58.2928
57.9052
57.5065
57.0977
56.6797
56.2534
55.8197
55.3794
54.9332
54.4817
54.0256
53.5655
53.102
52.6354
52.1663
51.6951
51.2221
50.7477
50.2722
49.7959
49.319
48.8417
48.3643
47.8869
47.4096
46.9326
46.4559
45.9798
45.5042
45.0292
44.5549
44.0813
43.6084
43.1362
42.6648
42.1941
41.7242
41.2549
40.7863
40.3184
39.8511
39.3844
38.9183
38.4527
37.9876
37.5229
37.0586
36.5947
36.1311
35.6678
35.2047
34.7419
34.2792
33.8167
33.3544
32.8922
32.43
31.968
31.506
31.0441
30.5823
30.1206
29.659
29.1975
28.7361
28.2749
27.814
27.3532
26.8928
26.4327
25.9731
25.5139
25.0553
24.5973
24.1399
23.6834
23.2278
22.7732
22.3197
21.8673
21.4163
20.9667
20.5186
20.0723
19.6277
19.185
18.7445
18.3061
17.8701
17.4365
17.0056
16.5775
16.1523
15.7301
15.3112
14.8956
14.4835
14.0751
13.6705
13.2699
12.8735
12.4813
12.0937
11.7106
11.3324
10.9593
10.5913
10.2289
9.87209
9.52128
9.17673
8.83879
8.50782
8.18429
7.86872
7.56173
7.26409
6.97673
6.70082
6.43786
6.1898
5.95922
5.7497
5.56629
5.41652
5.31222
5.27333
5.33697
5.58274
6.22063
8.06609
18.0675
56.619
28.228
23.6878
22.6748
22.8089
23.4706
24.4197
25.5398
26.7652
28.0551
29.3829
30.7299
32.083
33.4329
34.7729
36.098
37.4046
38.6901
39.9525
41.1903
42.4022
43.5871
44.744
45.8718
46.9696
48.0362
49.0706
50.0716
51.0381
51.9689
52.8627
53.7184
54.535
55.3112
56.0462
56.7392
57.3893
57.996
58.5589
59.0775
59.5519
59.9821
60.3681
60.7104
61.0095
61.266
61.4806
61.6542
61.7878
61.8825
61.9394
61.9598
61.9451
61.8966
61.8158
61.7042
61.5632
61.3944
61.1993
60.9793
60.7359
60.4706
60.1848
59.8799
59.5573
59.2181
58.8638
58.4954
58.1141
57.7211
57.3173
56.9037
56.4813
56.0509
55.6134
55.1695
54.7199
54.2653
53.8064
53.3436
52.8775
52.4087
51.9374
51.4643
50.9895
50.5135
50.0366
49.559
49.0809
48.6027
48.1244
47.6463
47.1684
46.691
46.2142
45.7379
45.2624
44.7876
44.3136
43.8405
43.3682
42.8968
42.4263
41.9567
41.4879
41.02
40.553
40.0867
39.6213
39.1566