/*--------------------------------*- C++ -*----------------------------------*\
  =========                 |
  \\      /  F ield         | OpenFOAM: The Open Source CFD Toolbox
   \\    /   O peration     | Website:  https://openfoam.org
    \\  /    A nd           | Version:  8
     \\/     M anipulation  |
\*---------------------------------------------------------------------------*/
FoamFile
{
    version     2.0;
    format      ascii;
    class       volScalarField;
    location    "3900";
    object      k;
}
// * * * * * * * * * * * * * * * * * * * * * * * * * * * * * * * * * * * * * //

dimensions      [0 2 -2 0 0 0 0];

internalField   nonuniform List<scalar> 
48000
(
0.0300013
0.0774644
0.118747
0.154759
0.188567
0.219667
0.248585
0.275753
0.301916
0.327209
0.351542
0.375085
0.3979
0.420036
0.441532
0.462414
0.4827
0.502404
0.521532
0.540089
0.558074
0.575489
0.59233
0.608596
0.624285
0.639394
0.653921
0.667865
0.681227
0.694007
0.706206
0.717828
0.728876
0.739357
0.749276
0.75864
0.767458
0.775739
0.783493
0.790731
0.797464
0.803704
0.809462
0.81475
0.819672
0.824188
0.828279
0.831955
0.83523
0.838121
0.840645
0.842816
0.84465
0.846163
0.847368
0.848281
0.848914
0.849283
0.8494
0.849278
0.84893
0.848366
0.8476
0.846641
0.8455
0.844187
0.842711
0.841083
0.839309
0.8374
0.835361
0.833201
0.830926
0.828543
0.826058
0.823476
0.820803
0.818043
0.815201
0.812282
0.80929
0.806227
0.803097
0.799903
0.796649
0.793336
0.789967
0.786543
0.783067
0.779541
0.775964
0.77234
0.768669
0.764952
0.761189
0.757381
0.753528
0.749632
0.745692
0.741708
0.73768
0.733608
0.729492
0.725331
0.721126
0.716875
0.712579
0.708237
0.703847
0.69941
0.694925
0.690391
0.685807
0.681172
0.676486
0.671748
0.666957
0.662113
0.657213
0.652258
0.647247
0.642178
0.637052
0.631867
0.626622
0.621317
0.615951
0.610524
0.605034
0.599482
0.593866
0.588187
0.582443
0.576635
0.570762
0.564824
0.558821
0.552752
0.546618
0.540418
0.534153
0.527823
0.521427
0.514967
0.508443
0.501855
0.495203
0.488489
0.481713
0.474875
0.467976
0.461018
0.454001
0.446925
0.439793
0.432604
0.425361
0.418063
0.410713
0.403311
0.395857
0.388355
0.380803
0.373203
0.365557
0.357864
0.350126
0.342343
0.334515
0.326643
0.318726
0.310765
0.302758
0.294705
0.286604
0.278454
0.270252
0.261996
0.253682
0.245312
0.236889
0.228455
0.219962
0.211363
0.202644
0.193787
0.184769
0.175565
0.166139
0.15645
0.146442
0.136073
0.125329
0.114012
0.101942
0.088853
0.0743125
0.0575293
0.0367182
0.0183573
0.0300019
0.077465
0.118748
0.15476
0.188568
0.219668
0.248586
0.275754
0.301917
0.32721
0.351543
0.375086
0.397901
0.420037
0.441533
0.462414
0.482701
0.502405
0.521533
0.540089
0.558075
0.575489
0.59233
0.608597
0.624285
0.639394
0.653921
0.667866
0.681227
0.694007
0.706206
0.717828
0.728877
0.739357
0.749276
0.75864
0.767458
0.775739
0.783493
0.790731
0.797464
0.803704
0.809462
0.81475
0.819673
0.824188
0.828279
0.831955
0.83523
0.838121
0.840645
0.842816
0.84465
0.846163
0.847368
0.848281
0.848914
0.849283
0.8494
0.849278
0.84893
0.848366
0.8476
0.846641
0.845499
0.844187
0.842711
0.841083
0.839309
0.8374
0.835361
0.833201
0.830926
0.828543
0.826058
0.823476
0.820802
0.818043
0.815201
0.812282
0.809289
0.806227
0.803097
0.799903
0.796649
0.793336
0.789967
0.786543
0.783067
0.77954
0.775964
0.77234
0.768669
0.764951
0.761188
0.757381
0.753528
0.749632
0.745692
0.741708
0.73768
0.733608
0.729492
0.725331
0.721126
0.716875
0.712579
0.708237
0.703847
0.69941
0.694925
0.690391
0.685807
0.681172
0.676486
0.671748
0.666957
0.662113
0.657213
0.652258
0.647247
0.642178
0.637052
0.631867
0.626622
0.621317
0.615951
0.610524
0.605034
0.599482
0.593866
0.588187
0.582443
0.576635
0.570762
0.564824
0.558821
0.552752
0.546618
0.540418
0.534153
0.527822
0.521427
0.514967
0.508443
0.501855
0.495203
0.488489
0.481713
0.474875
0.467976
0.461018
0.454001
0.446925
0.439793
0.432604
0.425361
0.418063
0.410713
0.403311
0.395857
0.388355
0.380803
0.373203
0.365557
0.357864
0.350126
0.342343
0.334515
0.326643
0.318726
0.310765
0.302758
0.294705
0.286604
0.278454
0.270252
0.261996
0.253682
0.245312
0.236889
0.228455
0.219962
0.211363
0.202644
0.193787
0.184769
0.175565
0.16614
0.15645
0.146442
0.136073
0.125329
0.114012
0.101942
0.0888531
0.0743128
0.0575298
0.0367173
0.0183569
0.0788052
0.198568
0.282683
0.356796
0.424779
0.488552
0.549094
0.606723
0.662073
0.715509
0.767259
0.817501
0.866362
0.913935
0.960282
1.00545
1.04945
1.09232
1.13404
1.17462
1.21405
1.25231
1.2894
1.32529
1.35997
1.39344
1.42566
1.45664
1.48637
1.51484
1.54204
1.56799
1.59267
1.6161
1.63829
1.65925
1.67899
1.69753
1.7149
1.7311
1.74618
1.76014
1.77302
1.78485
1.79565
1.80548
1.81437
1.82233
1.8294
1.83563
1.84104
1.84566
1.84954
1.8527
1.85518
1.85701
1.85822
1.85885
1.85891
1.85844
1.85748
1.85603
1.85414
1.85182
1.8491
1.846
1.84255
1.83876
1.83465
1.83024
1.82555
1.82059
1.81538
1.80994
1.80428
1.7984
1.79233
1.78607
1.77964
1.77304
1.76628
1.75937
1.75232
1.74513
1.73781
1.73037
1.72281
1.71513
1.70735
1.69945
1.69146
1.68336
1.67516
1.66687
1.65848
1.65
1.64142
1.63276
1.624
1.61515
1.60621
1.59718
1.58805
1.57884
1.56953
1.56012
1.55062
1.54103
1.53133
1.52154
1.51165
1.50165
1.49155
1.48134
1.47103
1.46061
1.45008
1.43943
1.42867
1.41779
1.4068
1.39569
1.38445
1.37309
1.36161
1.35
1.33826
1.32639
1.31439
1.30226
1.29
1.2776
1.26507
1.2524
1.2396
1.22666
1.21359
1.20037
1.18702
1.17354
1.15991
1.14615
1.13226
1.11823
1.10406
1.08976
1.07533
1.06077
1.04608
1.03127
1.01632
1.00126
0.986069
0.97076
0.955334
0.939792
0.924137
0.90837
0.892496
0.876515
0.86043
0.844243
0.827957
0.811574
0.795094
0.778521
0.761855
0.745098
0.72825
0.711311
0.694282
0.677162
0.659949
0.642641
0.625235
0.607726
0.59011
0.572379
0.554527
0.536543
0.518417
0.500136
0.481675
0.462991
0.444081
0.424908
0.405426
0.385587
0.365326
0.344564
0.323198
0.301092
0.278091
0.254
0.228513
0.201195
0.171387
0.137942
0.0979775
0.0381655
0.078806
0.198569
0.282683
0.356796
0.42478
0.488552
0.549095
0.606724
0.662073
0.71551
0.76726
0.817501
0.866363
0.913935
0.960282
1.00545
1.04945
1.09232
1.13404
1.17462
1.21405
1.25231
1.2894
1.32529
1.35997
1.39343
1.42566
1.45664
1.48637
1.51484
1.54204
1.56799
1.59267
1.6161
1.63829
1.65925
1.67899
1.69753
1.7149
1.7311
1.74618
1.76014
1.77302
1.78485
1.79565
1.80548
1.81437
1.82233
1.8294
1.83563
1.84104
1.84566
1.84954
1.8527
1.85518
1.85701
1.85822
1.85885
1.85891
1.85844
1.85747
1.85603
1.85414
1.85182
1.8491
1.846
1.84255
1.83876
1.83465
1.83024
1.82555
1.82059
1.81538
1.80994
1.80428
1.7984
1.79233
1.78607
1.77964
1.77304
1.76628
1.75937
1.75232
1.74513
1.73781
1.73037
1.72281
1.71513
1.70734
1.69945
1.69145
1.68336
1.67516
1.66687
1.65848
1.65
1.64142
1.63276
1.624
1.61515
1.60621
1.59718
1.58805
1.57883
1.56952
1.56012
1.55062
1.54103
1.53133
1.52154
1.51165
1.50165
1.49155
1.48134
1.47103
1.46061
1.45008
1.43943
1.42867
1.41779
1.4068
1.39568
1.38445
1.37309
1.3616
1.34999
1.33826
1.32639
1.31439
1.30226
1.29
1.2776
1.26507
1.2524
1.2396
1.22666
1.21359
1.20037
1.18702
1.17354
1.15991
1.14615
1.13226
1.11823
1.10406
1.08976
1.07533
1.06077
1.04608
1.03127
1.01632
1.00126
0.986068
0.97076
0.955333
0.939791
0.924136
0.90837
0.892495
0.876514
0.860429
0.844243
0.827957
0.811573
0.795094
0.778521
0.761855
0.745097
0.728249
0.711311
0.694282
0.677162
0.659949
0.642641
0.625234
0.607726
0.59011
0.572379
0.554526
0.536542
0.518416
0.500136
0.481674
0.462991
0.444081
0.424908
0.405426
0.385587
0.365326
0.344564
0.323198
0.301091
0.278091
0.254
0.228513
0.201195
0.171387
0.137942
0.0979777
0.0381667
0.119187
0.283198
0.388529
0.478613
0.561254
0.639288
0.713853
0.785527
0.854742
0.921803
0.986925
1.05027
1.11196
1.17209
1.23071
1.28787
1.3436
1.3979
1.45078
1.50223
1.55223
1.60078
1.64785
1.69342
1.73747
1.77999
1.82095
1.86035
1.89816
1.93439
1.96901
2.00204
2.03348
2.06333
2.09159
2.11829
2.14345
2.16707
2.18919
2.20983
2.22902
2.2468
2.2632
2.27824
2.29199
2.30447
2.31574
2.32582
2.33477
2.34262
2.34942
2.35521
2.36004
2.36394
2.36697
2.36915
2.37054
2.37117
2.37107
2.3703
2.36888
2.36685
2.36423
2.36108
2.3574
2.35324
2.34862
2.34357
2.33811
2.33227
2.32607
2.31953
2.31267
2.30552
2.29808
2.29037
2.28241
2.27422
2.26581
2.25718
2.24836
2.23934
2.23015
2.22079
2.21126
2.20159
2.19176
2.18179
2.17168
2.16145
2.15108
2.14059
2.12998
2.11924
2.1084
2.09743
2.08636
2.07517
2.06387
2.05245
2.04093
2.02929
2.01754
2.00568
1.9937
1.98161
1.9694
1.95707
1.94463
1.93206
1.91937
1.90655
1.8936
1.88053
1.86732
1.85398
1.84051
1.82689
1.81313
1.79923
1.78519
1.771
1.75665
1.74216
1.72751
1.71271
1.69775
1.68263
1.66734
1.6519
1.63629
1.62052
1.60458
1.58847
1.5722
1.55575
1.53914
1.52236
1.50541
1.48829
1.471
1.45354
1.43592
1.41813
1.40017
1.38205
1.36377
1.34532
1.32672
1.30796
1.28904
1.26997
1.25076
1.23139
1.21188
1.19223
1.17243
1.15251
1.13244
1.11225
1.09193
1.07149
1.05092
1.03024
1.00943
0.988514
0.967482
0.946338
0.925084
0.903719
0.882244
0.860657
0.838957
0.817141
0.795206
0.773146
0.750956
0.728626
0.706149
0.683512
0.6607
0.637695
0.614473
0.591002
0.567252
0.543179
0.518739
0.493886
0.468542
0.442624
0.416021
0.388592
0.360154
0.330501
0.299309
0.266107
0.230119
0.189763
0.140267
0.059855
0.119188
0.283199
0.38853
0.478613
0.561254
0.639288
0.713853
0.785527
0.854742
0.921803
0.986925
1.05027
1.11196
1.17209
1.23071
1.28787
1.3436
1.3979
1.45078
1.50222
1.55223
1.60078
1.64785
1.69342
1.73747
1.77999
1.82095
1.86035
1.89816
1.93438
1.96901
2.00204
2.03348
2.06332
2.09159
2.11829
2.14344
2.16707
2.18919
2.20983
2.22902
2.2468
2.26319
2.27824
2.29198
2.30447
2.31573
2.32582
2.33477
2.34262
2.34942
2.35521
2.36004
2.36394
2.36696
2.36915
2.37054
2.37116
2.37107
2.3703
2.36888
2.36684
2.36423
2.36107
2.3574
2.35324
2.34862
2.34357
2.33811
2.33227
2.32607
2.31953
2.31267
2.30552
2.29807
2.29037
2.28241
2.27422
2.2658
2.25718
2.24835
2.23934
2.23015
2.22079
2.21126
2.20159
2.19176
2.18179
2.17168
2.16145
2.15108
2.14059
2.12998
2.11924
2.1084
2.09743
2.08636
2.07517
2.06386
2.05245
2.04093
2.02929
2.01754
2.00568
1.9937
1.98161
1.9694
1.95707
1.94463
1.93206
1.91937
1.90655
1.8936
1.88053
1.86732
1.85398
1.8405
1.82689
1.81313
1.79923
1.78519
1.771
1.75665
1.74216
1.72751
1.71271
1.69775
1.68262
1.66734
1.6519
1.63629
1.62052
1.60458
1.58847
1.57219
1.55575
1.53914
1.52236
1.50541
1.48829
1.471
1.45354
1.43592
1.41813
1.40017
1.38205
1.36377
1.34532
1.32672
1.30796
1.28904
1.26997
1.25076
1.23139
1.21188
1.19223
1.17243
1.15251
1.13244
1.11225
1.09193
1.07149
1.05092
1.03023
1.00943
0.988513
0.967481
0.946338
0.925083
0.903719
0.882243
0.860656
0.838956
0.81714
0.795205
0.773145
0.750955
0.728626
0.706149
0.683511
0.6607
0.637695
0.614473
0.591002
0.567251
0.543178
0.518739
0.493886
0.468542
0.442624
0.41602
0.388592
0.360154
0.330501
0.299309
0.266107
0.230118
0.189763
0.140267
0.0598546
0.152838
0.355194
0.477727
0.579273
0.672076
0.759808
0.843904
0.925051
1.00365
1.07997
1.15419
1.22646
1.29687
1.36551
1.43243
1.49768
1.56127
1.62322
1.68353
1.74219
1.79921
1.85455
1.90821
1.96016
2.01038
2.05885
2.10556
2.15049
2.19362
2.23495
2.27447
2.31218
2.34807
2.38216
2.41445
2.44496
2.47371
2.50071
2.526
2.5496
2.57155
2.59188
2.61062
2.62783
2.64354
2.6578
2.67066
2.68216
2.69236
2.70129
2.70901
2.71556
2.721
2.72538
2.72873
2.73112
2.73258
2.73317
2.73292
2.73188
2.73009
2.7276
2.72443
2.72063
2.71623
2.71128
2.70579
2.6998
2.69334
2.68644
2.67912
2.67141
2.66333
2.65491
2.64617
2.63711
2.62778
2.61816
2.6083
2.59819
2.58786
2.57731
2.56656
2.55561
2.54448
2.53317
2.5217
2.51006
2.49827
2.48633
2.47425
2.46202
2.44966
2.43717
2.42454
2.41179
2.3989
2.3859
2.37276
2.3595
2.34612
2.33261
2.31898
2.30522
2.29133
2.27732
2.26317
2.24889
2.23448
2.21993
2.20525
2.19042
2.17546
2.16034
2.14508
2.12967
2.11411
2.09839
2.08252
2.06648
2.05029
2.03392
2.01739
2.00069
1.98382
1.96677
1.94955
1.93215
1.91456
1.8968
1.87885
1.86072
1.8424
1.82389
1.80519
1.78631
1.76724
1.74797
1.72852
1.70888
1.68904
1.66902
1.64881
1.62842
1.60784
1.58707
1.56613
1.545
1.52369
1.50221
1.48056
1.45873
1.43673
1.41457
1.39225
1.36977
1.34713
1.32434
1.3014
1.27832
1.25509
1.23172
1.20821
1.18457
1.1608
1.13691
1.11288
1.08873
1.06446
1.04006
1.01554
0.990892
0.966122
0.941223
0.916192
0.891024
0.865712
0.840248
0.814622
0.788821
0.76283
0.73663
0.710196
0.683499
0.656506
0.629177
0.601465
0.573312
0.544643
0.515386
0.485427
0.454628
0.422808
0.389734
0.355077
0.318305
0.278459
0.233406
0.176483
0.0777482
0.152839
0.355194
0.477727
0.579273
0.672076
0.759808
0.843904
0.925051
1.00365
1.07997
1.15419
1.22646
1.29687
1.36551
1.43243
1.49768
1.56127
1.62322
1.68353
1.74219
1.79921
1.85455
1.90821
1.96016
2.01038
2.05885
2.10556
2.15049
2.19362
2.23495
2.27447
2.31218
2.34807
2.38216
2.41445
2.44496
2.47371
2.50071
2.526
2.5496
2.57155
2.59188
2.61062
2.62783
2.64354
2.6578
2.67066
2.68216
2.69236
2.70129
2.70901
2.71556
2.721
2.72537
2.72873
2.73112
2.73258
2.73317
2.73292
2.73188
2.73009
2.7276
2.72443
2.72063
2.71623
2.71127
2.70578
2.6998
2.69334
2.68643
2.67912
2.67141
2.66333
2.65491
2.64617
2.63711
2.62777
2.61816
2.6083
2.59819
2.58786
2.57731
2.56656
2.55561
2.54448
2.53317
2.5217
2.51006
2.49827
2.48633
2.47425
2.46202
2.44966
2.43717
2.42454
2.41178
2.3989
2.38589
2.37276
2.3595
2.34612
2.33261
2.31898
2.30522
2.29133
2.27732
2.26317
2.24889
2.23448
2.21993
2.20525
2.19042
2.17546
2.16034
2.14508
2.12967
2.11411
2.09839
2.08252
2.06648
2.05029
2.03392
2.01739
2.00069
1.98382
1.96677
1.94955
1.93215
1.91456
1.8968
1.87885
1.86072
1.8424
1.82389
1.80519
1.78631
1.76723
1.74797
1.72852
1.70887
1.68904
1.66902
1.64881
1.62842
1.60784
1.58707
1.56613
1.545
1.52369
1.50221
1.48056
1.45873
1.43673
1.41457
1.39225
1.36977
1.34713
1.32434
1.3014
1.27832
1.25509
1.23172
1.20821
1.18457
1.1608
1.13691
1.11288
1.08873
1.06446
1.04006
1.01554
0.990892
0.966121
0.941223
0.916192
0.891023
0.865712
0.840248
0.814622
0.788821
0.76283
0.736629
0.710195
0.683499
0.656506
0.629177
0.601465
0.573312
0.544643
0.515386
0.485427
0.454628
0.422808
0.389734
0.355077
0.318305
0.278459
0.233406
0.176483
0.077748
0.183221
0.419967
0.558972
0.67139
0.773167
0.869086
0.961008
1.04979
1.13587
1.21951
1.30089
1.38013
1.45733
1.53254
1.60582
1.67722
1.74676
1.81445
1.88031
1.94433
2.00651
2.06685
2.12532
2.18191
2.23661
2.28941
2.34027
2.3892
2.43618
2.4812
2.52426
2.56535
2.60448
2.64165
2.67687
2.71016
2.74153
2.77102
2.79864
2.82442
2.8484
2.87062
2.89111
2.90992
2.9271
2.94269
2.95675
2.96931
2.98044
2.99018
2.99859
3.00572
3.01162
3.01635
3.01995
3.02248
3.024
3.02454
3.02416
3.02291
3.02082
3.01795
3.01434
3.01003
3.00506
2.99946
2.99327
2.98653
2.97927
2.97152
2.96331
2.95467
2.94562
2.93618
2.92639
2.91626
2.90581
2.89506
2.88403
2.87273
2.86118
2.8494
2.83739
2.82517
2.81275
2.80013
2.78733
2.77435
2.7612
2.74789
2.73443
2.72081
2.70704
2.69312
2.67907
2.66487
2.65054
2.63607
2.62146
2.60672
2.59184
2.57683
2.56168
2.5464
2.53098
2.51542
2.49972
2.48388
2.46789
2.45176
2.43547
2.41904
2.40245
2.38571
2.36881
2.35174
2.33452
2.31712
2.29955
2.28181
2.2639
2.24581
2.22753
2.20908
2.19043
2.1716
2.15258
2.13337
2.11396
2.09435
2.07454
2.05454
2.03433
2.01392
1.99331
1.9725
1.95148
1.93025
1.90882
1.88718
1.86534
1.8433
1.82105
1.7986
1.77595
1.7531
1.73006
1.70681
1.68338
1.65975
1.63594
1.61194
1.58776
1.5634
1.53886
1.51415
1.48928
1.46423
1.43903
1.41366
1.38814
1.36247
1.33665
1.31069
1.28458
1.25833
1.23195
1.20542
1.17877
1.15198
1.12505
1.098
1.0708
1.04347
1.016
0.98838
0.960608
0.932675
0.90457
0.876282
0.847796
0.819091
0.790147
0.760934
0.731422
0.70157
0.671334
0.640657
0.60947
0.577691
0.54521
0.51189
0.477552
0.441933
0.40467
0.365133
0.322134
0.272953
0.209182
0.0936224
0.183221
0.419968
0.558972
0.67139
0.773167
0.869085
0.961008
1.04979
1.13587
1.21951
1.30089
1.38013
1.45733
1.53254
1.60582
1.67722
1.74676
1.81445
1.88031
1.94433
2.00651
2.06685
2.12532
2.18191
2.23661
2.28941
2.34027
2.3892
2.43618
2.4812
2.52426
2.56535
2.60448
2.64165
2.67687
2.71016
2.74153
2.77102
2.79863
2.82442
2.8484
2.87062
2.89111
2.90992
2.9271
2.94269
2.95674
2.96931
2.98044
2.99018
2.99859
3.00572
3.01162
3.01635
3.01995
3.02248
3.024
3.02454
3.02416
3.0229
3.02082
3.01795
3.01434
3.01003
3.00506
2.99946
2.99327
2.98653
2.97927
2.97152
2.96331
2.95467
2.94562
2.93618
2.92639
2.91626
2.90581
2.89506
2.88403
2.87273
2.86118
2.8494
2.83739
2.82517
2.81274
2.80013
2.78733
2.77435
2.7612
2.74789
2.73443
2.72081
2.70704
2.69312
2.67907
2.66487
2.65054
2.63607
2.62146
2.60672
2.59184
2.57683
2.56168
2.5464
2.53098
2.51542
2.49972
2.48388
2.46789
2.45175
2.43547
2.41904
2.40245
2.38571
2.36881
2.35174
2.33451
2.31712
2.29955
2.28181
2.2639
2.24581
2.22753
2.20908
2.19043
2.1716
2.15258
2.13337
2.11396
2.09435
2.07454
2.05454
2.03433
2.01392
1.99331
1.9725
1.95147
1.93025
1.90882
1.88718
1.86534
1.8433
1.82105
1.7986
1.77595
1.7531
1.73005
1.70681
1.68338
1.65975
1.63594
1.61194
1.58776
1.5634
1.53886
1.51415
1.48928
1.46423
1.43903
1.41366
1.38814
1.36247
1.33665
1.31069
1.28458
1.25833
1.23195
1.20542
1.17877
1.15198
1.12505
1.098
1.0708
1.04347
1.016
0.98838
0.960608
0.932674
0.90457
0.876282
0.847795
0.819091
0.790147
0.760934
0.731422
0.70157
0.671334
0.640657
0.60947
0.57769
0.54521
0.51189
0.477552
0.441933
0.40467
0.365133
0.322135
0.272953
0.209182
0.0936224
0.211151
0.480866
0.635747
0.758935
0.869356
0.972894
1.07188
1.16738
1.25993
1.34983
1.43724
1.5223
1.60509
1.68568
1.76411
1.84044
1.9147
1.98691
2.05709
2.12525
2.19139
2.25551
2.31762
2.3777
2.43575
2.49175
2.54571
2.5976
2.64742
2.69517
2.74084
2.78443
2.82596
2.86541
2.90281
2.93818
2.97152
3.00286
3.03224
3.05967
3.0852
3.10886
3.13069
3.15074
3.16905
3.18567
3.20065
3.21405
3.22591
3.2363
3.24525
3.25284
3.25911
3.26412
3.26793
3.27058
3.27214
3.27266
3.27218
3.27075
3.26844
3.26527
3.26131
3.25659
3.25115
3.24504
3.23829
3.23094
3.22303
3.21459
3.20565
3.19624
3.18638
3.17612
3.16546
3.15444
3.14308
3.13139
3.1194
3.10712
3.09456
3.08175
3.0687
3.05542
3.04192
3.02822
3.01431
3.00022
2.98594
2.97149
2.95687
2.94208
2.92714
2.91204
2.89678
2.88138
2.86583
2.85014
2.8343
2.81831
2.80219
2.78592
2.7695
2.75294
2.73623
2.71938
2.70238
2.68522
2.66791
2.65045
2.63283
2.61505
2.5971
2.579
2.56072
2.54227
2.52364
2.50484
2.48586
2.4667
2.44735
2.42781
2.40808
2.38815
2.36803
2.3477
2.32718
2.30645
2.28551
2.26437
2.24301
2.22145
2.19966
2.17767
2.15546
2.13303
2.11039
2.08752
2.06444
2.04115
2.01763
1.9939
1.96995
1.94579
1.92142
1.89683
1.87203
1.84703
1.82182
1.79641
1.7708
1.74498
1.71898
1.69278
1.6664
1.63983
1.61308
1.58615
1.55905
1.53178
1.50435
1.47675
1.44899
1.42107
1.393
1.36478
1.33641
1.30789
1.27923
1.25043
1.22148
1.19239
1.16316
1.13377
1.10424
1.07455
1.0447
1.01468
0.984489
0.954104
0.923514
0.892703
0.861649
0.830325
0.798702
0.766743
0.734404
0.701629
0.668353
0.634491
0.599934
0.564541
0.528112
0.490357
0.450849
0.408851
0.362925
0.309788
0.239458
0.108169
0.211152
0.480866
0.635748
0.758935
0.869356
0.972893
1.07188
1.16738
1.25993
1.34983
1.43724
1.5223
1.60509
1.68568
1.76411
1.84044
1.9147
1.98691
2.05709
2.12524
2.19139
2.25551
2.31762
2.3777
2.43575
2.49175
2.54571
2.5976
2.64742
2.69517
2.74084
2.78443
2.82595
2.86541
2.90281
2.93818
2.97152
3.00286
3.03224
3.05967
3.0852
3.10886
3.13069
3.15074
3.16905
3.18567
3.20065
3.21405
3.22591
3.2363
3.24525
3.25284
3.25911
3.26412
3.26793
3.27058
3.27214
3.27265
3.27218
3.27075
3.26844
3.26527
3.26131
3.25659
3.25115
3.24504
3.23829
3.23094
3.22303
3.21459
3.20564
3.19623
3.18638
3.17612
3.16546
3.15444
3.14308
3.13139
3.1194
3.10711
3.09456
3.08175
3.0687
3.05542
3.04192
3.02822
3.01431
3.00022
2.98594
2.97149
2.95687
2.94208
2.92714
2.91204
2.89678
2.88138
2.86583
2.85014
2.8343
2.81831
2.80219
2.78592
2.7695
2.75294
2.73623
2.71938
2.70237
2.68522
2.66791
2.65045
2.63283
2.61505
2.5971
2.57899
2.56072
2.54227
2.52364
2.50484
2.48586
2.4667
2.44735
2.42781
2.40807
2.38815
2.36803
2.3477
2.32718
2.30645
2.28551
2.26437
2.24301
2.22144
2.19966
2.17767
2.15546
2.13303
2.11039
2.08752
2.06444
2.04115
2.01763
1.9939
1.96995
1.94579
1.92142
1.89683
1.87203
1.84703
1.82182
1.79641
1.77079
1.74498
1.71898
1.69278
1.6664
1.63983
1.61308
1.58615
1.55905
1.53178
1.50435
1.47675
1.44899
1.42107
1.393
1.36478
1.33641
1.30789
1.27923
1.25043
1.22148
1.19239
1.16316
1.13377
1.10424
1.07455
1.0447
1.01468
0.984489
0.954104
0.923514
0.892703
0.861648
0.830325
0.798702
0.766743
0.734403
0.701629
0.668352
0.63449
0.599934
0.56454
0.528112
0.490357
0.450849
0.408851
0.362925
0.309789
0.239458
0.108169
0.237533
0.539092
0.7097
0.843654
0.962633
1.07355
1.17922
1.28093
1.37934
1.4748
1.5675
1.65759
1.74515
1.83026
1.91299
1.99337
2.07146
2.14728
2.22088
2.29227
2.36147
2.4285
2.49336
2.55606
2.6166
2.67499
2.73121
2.78528
2.83718
2.88692
2.9345
2.97993
3.0232
3.06434
3.10334
3.14024
3.17504
3.20777
3.23846
3.26713
3.29383
3.31858
3.34144
3.36244
3.38162
3.39905
3.41476
3.42881
3.44126
3.45216
3.46155
3.46951
3.47609
3.48134
3.48532
3.48808
3.48969
3.49019
3.48965
3.4881
3.48561
3.48222
3.47797
3.47293
3.46712
3.4606
3.45339
3.44556
3.43712
3.42811
3.41857
3.40854
3.39803
3.38708
3.37572
3.36396
3.35184
3.33937
3.32657
3.31347
3.30008
3.28642
3.27249
3.25832
3.24392
3.2293
3.21447
3.19943
3.1842
3.16878
3.15319
3.13742
3.12148
3.10537
3.0891
3.07268
3.0561
3.03936
3.02248
3.00544
2.98824
2.9709
2.9534
2.93576
2.91795
2.9
2.88188
2.86361
2.84517
2.82658
2.80781
2.78888
2.76978
2.7505
2.73105
2.71142
2.6916
2.6716
2.65141
2.63102
2.61045
2.58967
2.56869
2.54751
2.52612
2.50452
2.48271
2.46069
2.43845
2.41599
2.39331
2.37041
2.34728
2.32393
2.30035
2.27654
2.25251
2.22825
2.20376
2.17904
2.15409
2.12892
2.10352
2.07789
2.05204
2.02596
1.99967
1.97315
1.94642
1.91948
1.89232
1.86495
1.83738
1.8096
1.78163
1.75346
1.7251
1.69655
1.66781
1.63889
1.6098
1.58053
1.55108
1.52148
1.4917
1.46177
1.43167
1.40142
1.37102
1.34045
1.30974
1.27887
1.24785
1.21666
1.18532
1.15382
1.12215
1.0903
1.05827
1.02604
0.993604
0.960942
0.928036
0.894861
0.861388
0.827582
0.7934
0.758789
0.723681
0.687992
0.651607
0.614373
0.576073
0.536382
0.494792
0.450446
0.401659
0.344634
0.267946
0.121758
0.237533
0.539093
0.7097
0.843654
0.962633
1.07355
1.17922
1.28093
1.37934
1.4748
1.5675
1.65759
1.74515
1.83026
1.91299
1.99337
2.07146
2.14728
2.22088
2.29227
2.36147
2.4285
2.49336
2.55606
2.6166
2.67499
2.73121
2.78527
2.83718
2.88692
2.9345
2.97992
3.0232
3.06433
3.10334
3.14023
3.17504
3.20777
3.23845
3.26713
3.29383
3.31858
3.34144
3.36244
3.38162
3.39905
3.41476
3.42881
3.44126
3.45216
3.46155
3.46951
3.47609
3.48134
3.48532
3.48808
3.48969
3.49019
3.48965
3.4881
3.48561
3.48221
3.47797
3.47293
3.46712
3.4606
3.45339
3.44556
3.43712
3.42811
3.41857
3.40854
3.39803
3.38708
3.37572
3.36396
3.35184
3.33937
3.32657
3.31347
3.30008
3.28642
3.27249
3.25832
3.24392
3.2293
3.21447
3.19943
3.1842
3.16878
3.15319
3.13741
3.12147
3.10537
3.0891
3.07268
3.0561
3.03936
3.02247
3.00543
2.98824
2.9709
2.9534
2.93576
2.91795
2.9
2.88188
2.86361
2.84517
2.82658
2.80781
2.78888
2.76978
2.7505
2.73105
2.71142
2.6916
2.6716
2.65141
2.63102
2.61044
2.58967
2.56869
2.54751
2.52612
2.50452
2.48271
2.46069
2.43845
2.41599
2.39331
2.37041
2.34728
2.32393
2.30035
2.27654
2.25251
2.22825
2.20376
2.17904
2.15409
2.12892
2.10352
2.07789
2.05204
2.02596
1.99967
1.97315
1.94642
1.91948
1.89232
1.86495
1.83738
1.8096
1.78163
1.75346
1.7251
1.69655
1.66781
1.63889
1.6098
1.58053
1.55108
1.52148
1.4917
1.46177
1.43167
1.40142
1.37101
1.34045
1.30974
1.27887
1.24784
1.21666
1.18532
1.15382
1.12215
1.0903
1.05827
1.02604
0.993604
0.960942
0.928036
0.894861
0.861388
0.827582
0.7934
0.758789
0.723681
0.687992
0.651607
0.614373
0.576073
0.536382
0.494792
0.450446
0.401659
0.344634
0.267946
0.121758
0.263627
0.595666
0.781822
0.926514
1.05401
1.17218
1.2843
1.39189
1.49574
1.59626
1.6937
1.78823
1.87994
1.96893
2.05527
2.13902
2.22024
2.29898
2.37528
2.44919
2.52074
2.58996
2.65688
2.7215
2.78386
2.84395
2.9018
2.95741
3.01078
3.06192
3.11084
3.15755
3.20206
3.24438
3.28452
3.3225
3.35835
3.39208
3.42372
3.4533
3.48086
3.50643
3.53005
3.55176
3.57161
3.58965
3.60593
3.62049
3.6334
3.6447
3.65445
3.66271
3.66954
3.67499
3.67912
3.68199
3.68365
3.68416
3.68357
3.68194
3.67932
3.67576
3.67131
3.66601
3.65992
3.65307
3.64551
3.63728
3.62842
3.61896
3.60894
3.5984
3.58736
3.57585
3.5639
3.55154
3.5388
3.52568
3.51222
3.49844
3.48435
3.46998
3.45532
3.44041
3.42526
3.40986
3.39425
3.37842
3.36239
3.34616
3.32974
3.31313
3.29635
3.27939
3.26226
3.24497
3.22751
3.20989
3.19211
3.17417
3.15607
3.13781
3.11939
3.10081
3.08207
3.06317
3.0441
3.02487
3.00546
2.98589
2.96615
2.94623
2.92613
2.90585
2.88539
2.86473
2.84389
2.82286
2.80162
2.78019
2.75855
2.73671
2.71466
2.6924
2.66992
2.64722
2.6243
2.60116
2.57779
2.5542
2.53037
2.50632
2.48203
2.4575
2.43274
2.40775
2.38251
2.35704
2.33133
2.30538
2.27919
2.25276
2.2261
2.1992
2.17207
2.1447
2.1171
2.08927
2.06121
2.03293
2.00443
1.9757
1.94676
1.9176
1.88824
1.85866
1.82889
1.79891
1.76873
1.73837
1.70781
1.67707
1.64614
1.61503
1.58375
1.55229
1.52066
1.48887
1.4569
1.42477
1.39248
1.36002
1.32739
1.2946
1.26163
1.2285
1.19519
1.16169
1.128
1.09411
1.06001
1.02567
0.991092
0.956242
0.921094
0.885615
0.849762
0.813481
0.776704
0.73934
0.701269
0.662322
0.622258
0.580713
0.537103
0.490438
0.438817
0.377948
0.295072
0.134626
0.263628
0.595666
0.781822
0.926513
1.05401
1.17218
1.2843
1.39189
1.49574
1.59626
1.6937
1.78823
1.87994
1.96893
2.05527
2.13902
2.22024
2.29898
2.37528
2.44919
2.52074
2.58996
2.65688
2.7215
2.78386
2.84395
2.9018
2.9574
3.01077
3.06192
3.11084
3.15755
3.20206
3.24437
3.28452
3.3225
3.35834
3.39207
3.42372
3.4533
3.48086
3.50642
3.53004
3.55176
3.57161
3.58965
3.60593
3.62049
3.6334
3.6447
3.65445
3.66271
3.66954
3.67499
3.67912
3.68199
3.68365
3.68416
3.68357
3.68194
3.67932
3.67576
3.67131
3.66601
3.65992
3.65307
3.64551
3.63728
3.62842
3.61896
3.60894
3.5984
3.58736
3.57585
3.5639
3.55154
3.53879
3.52568
3.51222
3.49844
3.48435
3.46997
3.45532
3.44041
3.42526
3.40986
3.39425
3.37842
3.36239
3.34616
3.32973
3.31313
3.29635
3.27939
3.26226
3.24497
3.22751
3.20989
3.19211
3.17417
3.15607
3.13781
3.11939
3.10081
3.08207
3.06317
3.0441
3.02487
3.00546
2.98589
2.96615
2.94623
2.92613
2.90585
2.88539
2.86473
2.84389
2.82286
2.80162
2.78019
2.75855
2.73671
2.71466
2.69239
2.66991
2.64722
2.6243
2.60116
2.57779
2.5542
2.53037
2.50632
2.48203
2.4575
2.43274
2.40775
2.38251
2.35704
2.33133
2.30538
2.27919
2.25276
2.2261
2.1992
2.17207
2.1447
2.1171
2.08927
2.06121
2.03293
2.00443
1.9757
1.94676
1.9176
1.88824
1.85866
1.82889
1.79891
1.76873
1.73837
1.70781
1.67706
1.64614
1.61503
1.58375
1.55229
1.52066
1.48887
1.4569
1.42477
1.39248
1.36002
1.32739
1.2946
1.26163
1.2285
1.19519
1.16169
1.128
1.09411
1.06
1.02567
0.991092
0.956242
0.921094
0.885615
0.849762
0.813481
0.776704
0.73934
0.701269
0.662322
0.622258
0.580713
0.537103
0.490438
0.438817
0.377949
0.295072
0.134626
0.289385
0.651249
0.85274
1.00811
1.14407
1.26941
1.3878
1.50101
1.60997
1.71518
1.81693
1.91542
2.01078
2.10311
2.19251
2.27906
2.36283
2.4439
2.52232
2.59817
2.67148
2.74231
2.81069
2.87667
2.94028
3.00153
3.06046
3.11708
3.17141
3.22346
3.27325
3.32079
3.36609
3.40918
3.45006
3.48877
3.52531
3.55971
3.59199
3.6222
3.65036
3.6765
3.70066
3.72289
3.74323
3.76173
3.77842
3.79337
3.80663
3.81825
3.82828
3.83679
3.84382
3.84944
3.8537
3.85666
3.85838
3.85891
3.85831
3.85663
3.85392
3.85024
3.84563
3.84015
3.83384
3.82675
3.81891
3.81038
3.80119
3.79137
3.78098
3.77003
3.75856
3.7466
3.73419
3.72134
3.70808
3.69444
3.68044
3.6661
3.65144
3.63648
3.62122
3.6057
3.58991
3.57388
3.55762
3.54113
3.52442
3.50751
3.4904
3.47309
3.4556
3.43792
3.42007
3.40204
3.38384
3.36547
3.34693
3.32822
3.30935
3.29031
3.2711
3.25173
3.23219
3.21248
3.1926
3.17255
3.15232
3.13191
3.11133
3.09056
3.0696
3.04846
3.02713
3.0056
2.98388
2.96195
2.93982
2.91748
2.89493
2.87217
2.84919
2.82599
2.80257
2.77892
2.75505
2.73094
2.7066
2.68202
2.6572
2.63215
2.60685
2.58131
2.55552
2.52949
2.50321
2.47669
2.44992
2.42289
2.39562
2.36811
2.34034
2.31233
2.28408
2.25558
2.22684
2.19786
2.16864
2.13918
2.10949
2.07957
2.04942
2.01905
1.98845
1.95764
1.9266
1.89536
1.86391
1.83225
1.80039
1.76833
1.73607
1.70362
1.67098
1.63816
1.60514
1.57195
1.53858
1.50503
1.4713
1.43739
1.40331
1.36904
1.3346
1.29997
1.26515
1.23014
1.19493
1.15951
1.12387
1.088
1.05187
1.01547
0.978771
0.941738
0.904328
0.866486
0.828141
0.789195
0.749519
0.708927
0.66715
0.62378
0.578164
0.529179
0.474713
0.410019
0.321076
0.147008
0.289386
0.65125
0.85274
1.00811
1.14407
1.26941
1.3878
1.50101
1.60997
1.71518
1.81693
1.91542
2.01078
2.10311
2.19251
2.27906
2.36283
2.4439
2.52232
2.59817
2.67148
2.74231
2.81069
2.87667
2.94028
3.00153
3.06046
3.11708
3.17141
3.22346
3.27325
3.32079
3.36609
3.40918
3.45006
3.48877
3.5253
3.55971
3.59199
3.6222
3.65036
3.6765
3.70066
3.72289
3.74323
3.76173
3.77842
3.79337
3.80663
3.81825
3.82828
3.83679
3.84382
3.84944
3.8537
3.85666
3.85838
3.85891
3.85831
3.85663
3.85392
3.85024
3.84563
3.84015
3.83384
3.82675
3.81891
3.81038
3.80119
3.79137
3.78098
3.77003
3.75856
3.7466
3.73418
3.72134
3.70808
3.69444
3.68044
3.6661
3.65144
3.63648
3.62122
3.6057
3.58991
3.57388
3.55762
3.54113
3.52442
3.50751
3.4904
3.47309
3.4556
3.43792
3.42007
3.40204
3.38384
3.36547
3.34693
3.32822
3.30935
3.29031
3.2711
3.25173
3.23219
3.21248
3.1926
3.17255
3.15232
3.13191
3.11132
3.09056
3.0696
3.04846
3.02713
3.0056
2.98388
2.96195
2.93982
2.91748
2.89493
2.87217
2.84919
2.82599
2.80257
2.77892
2.75505
2.73094
2.7066
2.68202
2.6572
2.63215
2.60685
2.58131
2.55552
2.52949
2.50321
2.47669
2.44991
2.42289
2.39562
2.36811
2.34034
2.31233
2.28408
2.25558
2.22684
2.19786
2.16864
2.13918
2.10949
2.07957
2.04942
2.01905
1.98845
1.95764
1.9266
1.89536
1.86391
1.83225
1.80039
1.76833
1.73607
1.70362
1.67098
1.63815
1.60514
1.57195
1.53858
1.50503
1.4713
1.43739
1.40331
1.36904
1.3346
1.29997
1.26515
1.23014
1.19493
1.15951
1.12387
1.088
1.05187
1.01547
0.978771
0.941738
0.904328
0.866486
0.828141
0.789195
0.749519
0.708927
0.66715
0.62378
0.578164
0.529179
0.474714
0.410019
0.321076
0.147008