/*--------------------------------*- C++ -*----------------------------------*\
  =========                 |
  \\      /  F ield         | OpenFOAM: The Open Source CFD Toolbox
   \\    /   O peration     | Website:  https://openfoam.org
    \\  /    A nd           | Version:  8
     \\/     M anipulation  |
\*---------------------------------------------------------------------------*/
FoamFile
{
    version     2.0;
    format      ascii;
    class       volScalarField;
    location    "3900";
    object      nut;
}
// * * * * * * * * * * * * * * * * * * * * * * * * * * * * * * * * * * * * * //

dimensions      [0 2 -1 0 0 0 0];

internalField   nonuniform List<scalar> 
48000
(
5.22342e-05
9.06505e-05
0.000112236
0.000128129
0.000141433
0.000152651
0.000162389
0.000171033
0.000178962
0.000186308
0.000193111
0.000199472
0.000205449
0.000211087
0.000216421
0.000221479
0.000226286
0.000230858
0.000235212
0.000239359
0.000243312
0.000247079
0.000250669
0.000254087
0.000257342
0.000260437
0.000263379
0.000266173
0.000268822
0.000271332
0.000273706
0.000275949
0.000278065
0.000280057
0.000281929
0.000283685
0.000285329
0.000286865
0.000288295
0.000289623
0.000290854
0.000291989
0.000293033
0.000293989
0.000294876
0.000295687
0.000296419
0.000297076
0.00029766
0.000298175
0.000298623
0.000299009
0.000299334
0.000299601
0.000299814
0.000299976
0.000300087
0.000300152
0.000300173
0.000300151
0.000300089
0.000299989
0.000299854
0.000299684
0.000299481
0.000299248
0.000298987
0.000298697
0.000298382
0.000298042
0.000297679
0.000297293
0.000296887
0.000296461
0.000296016
0.000295552
0.000295072
0.000294575
0.000294063
0.000293536
0.000292994
0.000292439
0.000291871
0.00029129
0.000290696
0.000290091
0.000289474
0.000288846
0.000288207
0.000287557
0.000286896
0.000286225
0.000285544
0.000284853
0.000284151
0.000283439
0.000282717
0.000281985
0.000281243
0.000280491
0.000279728
0.000278955
0.000278171
0.000277377
0.000276571
0.000275755
0.000274927
0.000274088
0.000273238
0.000272375
0.0002715
0.000270613
0.000269713
0.0002688
0.000267874
0.000266934
0.000265981
0.000265013
0.00026403
0.000263033
0.000262021
0.000260993
0.000259949
0.000258889
0.000257812
0.000256719
0.000255608
0.000254479
0.000253333
0.000252167
0.000250984
0.000249781
0.000248558
0.000247316
0.000246053
0.00024477
0.000243466
0.00024214
0.000240793
0.000239424
0.000238032
0.000236617
0.000235179
0.000233718
0.000232233
0.000230723
0.000229189
0.00022763
0.000226046
0.000224436
0.0002228
0.000221138
0.000219448
0.000217732
0.000215987
0.000214215
0.000212414
0.000210584
0.000208725
0.000206836
0.000204916
0.000202965
0.000200982
0.000198966
0.000196917
0.000194835
0.000192717
0.000190563
0.000188372
0.000186142
0.000183873
0.000181562
0.000179208
0.000176808
0.000174362
0.000171865
0.000169315
0.000166708
0.000164042
0.000161313
0.00015852
0.000155673
0.000152752
0.000149736
0.000146615
0.000143376
0.00014
0.000136468
0.000132755
0.000128826
0.000124637
0.000120143
0.000115303
0.000109974
0.00010399
9.70838e-05
8.87856e-05
7.81788e-05
6.31497e-05
5.04274e-05
5.22346e-05
9.06509e-05
0.000112236
0.000128129
0.000141433
0.000152652
0.000162389
0.000171033
0.000178962
0.000186308
0.000193111
0.000199473
0.00020545
0.000211087
0.000216421
0.00022148
0.000226286
0.000230858
0.000235212
0.00023936
0.000243312
0.00024708
0.000250669
0.000254087
0.000257342
0.000260437
0.000263379
0.000266173
0.000268822
0.000271332
0.000273706
0.000275949
0.000278065
0.000280057
0.000281929
0.000283685
0.000285329
0.000286865
0.000288295
0.000289623
0.000290854
0.000291989
0.000293033
0.000293989
0.000294876
0.000295687
0.000296419
0.000297076
0.00029766
0.000298175
0.000298623
0.000299009
0.000299334
0.000299601
0.000299814
0.000299976
0.000300087
0.000300152
0.000300173
0.000300151
0.000300089
0.000299989
0.000299854
0.000299684
0.000299481
0.000299248
0.000298987
0.000298697
0.000298382
0.000298042
0.000297679
0.000297293
0.000296887
0.000296461
0.000296015
0.000295552
0.000295072
0.000294575
0.000294063
0.000293536
0.000292994
0.000292439
0.000291871
0.00029129
0.000290696
0.000290091
0.000289474
0.000288846
0.000288207
0.000287557
0.000286896
0.000286225
0.000285544
0.000284853
0.000284151
0.000283439
0.000282717
0.000281985
0.000281243
0.000280491
0.000279728
0.000278955
0.000278171
0.000277377
0.000276571
0.000275755
0.000274927
0.000274088
0.000273238
0.000272375
0.0002715
0.000270613
0.000269713
0.0002688
0.000267874
0.000266934
0.00026598
0.000265013
0.00026403
0.000263033
0.000262021
0.000260993
0.000259949
0.000258889
0.000257812
0.000256719
0.000255608
0.000254479
0.000253333
0.000252167
0.000250984
0.000249781
0.000248558
0.000247316
0.000246053
0.00024477
0.000243466
0.00024214
0.000240793
0.000239424
0.000238032
0.000236617
0.000235179
0.000233718
0.000232233
0.000230723
0.000229189
0.00022763
0.000226046
0.000224436
0.0002228
0.000221138
0.000219448
0.000217732
0.000215987
0.000214215
0.000212414
0.000210584
0.000208725
0.000206836
0.000204916
0.000202965
0.000200982
0.000198966
0.000196917
0.000194835
0.000192717
0.000190563
0.000188372
0.000186142
0.000183873
0.000181562
0.000179208
0.000176808
0.000174362
0.000171865
0.000169315
0.000166708
0.000164042
0.000161313
0.00015852
0.000155673
0.000152752
0.000149736
0.000146615
0.000143376
0.00014
0.000136468
0.000132755
0.000128826
0.000124637
0.000120144
0.000115303
0.000109974
0.00010399
9.7084e-05
8.87864e-05
7.81809e-05
6.31461e-05
5.04281e-05
7.88212e-05
0.000584241
0.000925375
0.00116408
0.00134249
0.00148776
0.00161232
0.00172185
0.00181949
0.00190767
0.00198836
0.00206275
0.00213174
0.00219603
0.00225619
0.00231263
0.00236574
0.00241579
0.00246303
0.00250769
0.00254994
0.00258993
0.00262781
0.0026637
0.0026977
0.00272992
0.00276044
0.00278934
0.0028167
0.00284259
0.00286706
0.00289018
0.00291201
0.0029326
0.00295199
0.00297023
0.00298738
0.00300346
0.00301852
0.00303261
0.00304574
0.00305796
0.00306928
0.00307967
0.00308895
0.00309735
0.003105
0.00311195
0.00311827
0.00312397
0.0031291
0.00313368
0.00313773
0.00314127
0.00314433
0.00314693
0.00314909
0.00315083
0.00315216
0.0031531
0.00315368
0.0031539
0.00315378
0.00315333
0.00315258
0.00315153
0.0031502
0.00314859
0.00314673
0.00314461
0.00314226
0.00313967
0.00313687
0.00313385
0.00313063
0.00312722
0.00312361
0.00311983
0.00311586
0.00311173
0.00310744
0.00310298
0.00309837
0.00309361
0.0030887
0.00308364
0.00307845
0.00307311
0.00306764
0.00306204
0.0030563
0.00305043
0.00304443
0.0030383
0.00303204
0.00302565
0.00301914
0.00301249
0.00300572
0.00299881
0.00299177
0.0029846
0.0029773
0.00296986
0.00296228
0.00295457
0.00294671
0.00293872
0.00293057
0.00292229
0.00291385
0.00290526
0.00289651
0.00288761
0.00287855
0.00286932
0.00285993
0.00285036
0.00284063
0.00283071
0.00282062
0.00281035
0.00279989
0.00278924
0.00277839
0.00276735
0.00275611
0.00274466
0.00273301
0.00272114
0.00270906
0.00269676
0.00268424
0.00267149
0.00265851
0.00264529
0.00263184
0.00261815
0.00260421
0.00259003
0.00257559
0.00256089
0.00254593
0.00253071
0.00251522
0.00249946
0.00248342
0.0024671
0.0024505
0.00243361
0.00241642
0.00239894
0.00238116
0.00236307
0.00234466
0.00232594
0.0023069
0.00228753
0.00226782
0.00224777
0.00222737
0.00220661
0.00218549
0.00216399
0.00214211
0.00211983
0.00209714
0.00207403
0.00205048
0.00202648
0.002002
0.00197703
0.00195154
0.0019255
0.00189888
0.00187165
0.00184376
0.00181517
0.0017858
0.00175556
0.00172435
0.00169197
0.00165839
0.00162355
0.00158736
0.00154963
0.00151015
0.00146863
0.0014247
0.00137783
0.00132724
0.00127155
0.00120906
0.00113851
0.00105692
0.00095934
0.000836792
0.000671216
0.000421352
5.53226e-05
7.88216e-05
0.000584249
0.000925387
0.0011641
0.0013425
0.00148778
0.00161233
0.00172186
0.0018195
0.00190768
0.00198837
0.00206276
0.00213175
0.00219604
0.0022562
0.00231264
0.00236574
0.00241579
0.00246304
0.0025077
0.00254994
0.00258994
0.00262782
0.00266371
0.00269771
0.00272993
0.00276045
0.00278935
0.00281671
0.00284259
0.00286707
0.00289019
0.00291202
0.0029326
0.002952
0.00297024
0.00298738
0.00300347
0.00301853
0.00303261
0.00304575
0.00305797
0.00306929
0.00307968
0.00308896
0.00309736
0.003105
0.00311196
0.00311827
0.00312398
0.00312911
0.00313368
0.00313773
0.00314128
0.00314434
0.00314694
0.0031491
0.00315083
0.00315216
0.00315311
0.00315368
0.0031539
0.00315378
0.00315334
0.00315259
0.00315154
0.0031502
0.0031486
0.00314673
0.00314462
0.00314226
0.00313968
0.00313687
0.00313386
0.00313064
0.00312722
0.00312362
0.00311983
0.00311587
0.00311174
0.00310744
0.00310299
0.00309837
0.00309361
0.0030887
0.00308365
0.00307845
0.00307312
0.00306765
0.00306204
0.00305631
0.00305044
0.00304444
0.00303831
0.00303205
0.00302566
0.00301914
0.0030125
0.00300572
0.00299881
0.00299178
0.0029846
0.0029773
0.00296986
0.00296229
0.00295457
0.00294672
0.00293872
0.00293058
0.00292229
0.00291385
0.00290526
0.00289652
0.00288761
0.00287855
0.00286932
0.00285993
0.00285037
0.00284063
0.00283072
0.00282063
0.00281035
0.00279989
0.00278924
0.0027784
0.00276735
0.00275611
0.00274467
0.00273301
0.00272115
0.00270906
0.00269676
0.00268424
0.00267149
0.00265851
0.0026453
0.00263185
0.00261815
0.00260422
0.00259003
0.00257559
0.00256089
0.00254594
0.00253071
0.00251522
0.00249946
0.00248342
0.00246711
0.0024505
0.00243361
0.00241643
0.00239895
0.00238116
0.00236307
0.00234467
0.00232595
0.0023069
0.00228753
0.00226782
0.00224777
0.00222737
0.00220662
0.00218549
0.002164
0.00214211
0.00211983
0.00209714
0.00207403
0.00205048
0.00202648
0.002002
0.00197703
0.00195154
0.0019255
0.00189889
0.00187166
0.00184377
0.00181517
0.0017858
0.00175557
0.00172435
0.00169197
0.00165839
0.00162356
0.00158736
0.00154963
0.00151015
0.00146864
0.00142471
0.00137784
0.00132724
0.00127155
0.00120907
0.00113851
0.00105692
0.000959341
0.000836788
0.000671201
0.000421356
5.53282e-05
9.6935e-05
0.000886247
0.00157641
0.00209344
0.00249994
0.00283654
0.00312525
0.00337886
0.00360511
0.00380931
0.00399533
0.00416597
0.00432337
0.00446919
0.00460476
0.00473117
0.00484931
0.00495995
0.00506374
0.00516122
0.00525291
0.00533922
0.00542054
0.00549721
0.00556953
0.0056378
0.00570224
0.0057631
0.00582059
0.00587489
0.00592617
0.00597461
0.00602035
0.00606353
0.00610427
0.0061427
0.00617893
0.00621305
0.00624517
0.00627536
0.00630371
0.00633028
0.0063551
0.00637818
0.00639946
0.00641913
0.00643733
0.00645419
0.00646978
0.00648418
0.00649746
0.00650966
0.00652084
0.00653103
0.00654029
0.00654864
0.00655613
0.0065628
0.00656866
0.00657376
0.00657813
0.00658179
0.00658477
0.0065871
0.0065888
0.00658989
0.0065904
0.00659036
0.00658976
0.00658865
0.00658704
0.00658493
0.00658236
0.00657933
0.00657586
0.00657197
0.00656766
0.00656294
0.00655784
0.00655235
0.00654649
0.00654027
0.00653369
0.00652677
0.0065195
0.00651189
0.00650396
0.0064957
0.00648712
0.00647822
0.006469
0.00645947
0.00644963
0.00643947
0.00642901
0.00641823
0.00640715
0.00639576
0.00638405
0.00637203
0.00635969
0.00634704
0.00633407
0.00632077
0.00630715
0.00629319
0.00627891
0.00626428
0.00624931
0.00623399
0.00621832
0.00620229
0.0061859
0.00616914
0.006152
0.00613448
0.00611657
0.00609827
0.00607956
0.00606045
0.00604092
0.00602097
0.00600058
0.00597976
0.0059585
0.00593678
0.00591461
0.00589196
0.00586884
0.00584523
0.00582113
0.00579653
0.00577142
0.00574579
0.00571964
0.00569295
0.00566571
0.00563793
0.00560958
0.00558066
0.00555116
0.00552107
0.00549038
0.00545908
0.00542716
0.00539461
0.00536142
0.00532758
0.00529307
0.0052579
0.00522203
0.00518547
0.00514819
0.00511018
0.00507144
0.00503193
0.00499165
0.00495059
0.00490871
0.004866
0.00482244
0.004778
0.00473266
0.0046864
0.00463918
0.00459096
0.00454172
0.00449142
0.00444
0.00438742
0.00433363
0.00427856
0.00422214
0.0041643
0.00410495
0.00404398
0.00398127
0.00391668
0.00385003
0.00378112
0.0037097
0.00363546
0.00355816
0.00347749
0.00339304
0.00330427
0.00321052
0.00311095
0.00300445
0.00288955
0.00276419
0.00262552
0.00246956
0.00229194
0.00208547
0.00183907
0.00153514
0.00114515
0.000627828
6.87043e-05
9.69354e-05
0.000886257
0.00157643
0.00209346
0.00249997
0.00283657
0.00312527
0.00337888
0.00360514
0.00380933
0.00399535
0.00416599
0.00432339
0.00446921
0.00460478
0.00473119
0.00484933
0.00495997
0.00506375
0.00516124
0.00525292
0.00533923
0.00542055
0.00549722
0.00556955
0.00563781
0.00570226
0.00576312
0.0058206
0.0058749
0.00592618
0.00597462
0.00602036
0.00606354
0.00610428
0.00614271
0.00617894
0.00621306
0.00624518
0.00627537
0.00630372
0.00633028
0.00635511
0.00637819
0.00639947
0.00641913
0.00643734
0.00645419
0.00646978
0.00648419
0.00649747
0.00650967
0.00652084
0.00653104
0.00654029
0.00654865
0.00655614
0.0065628
0.00656866
0.00657377
0.00657813
0.00658179
0.00658477
0.0065871
0.0065888
0.0065899
0.00659041
0.00659036
0.00658977
0.00658866
0.00658704
0.00658494
0.00658236
0.00657933
0.00657587
0.00657197
0.00656766
0.00656294
0.00655784
0.00655235
0.00654649
0.00654027
0.00653369
0.00652677
0.0065195
0.0065119
0.00650396
0.0064957
0.00648712
0.00647822
0.006469
0.00645947
0.00644963
0.00643947
0.00642901
0.00641824
0.00640715
0.00639576
0.00638405
0.00637203
0.0063597
0.00634704
0.00633407
0.00632077
0.00630715
0.0062932
0.00627891
0.00626428
0.00624931
0.00623399
0.00621832
0.00620229
0.0061859
0.00616914
0.006152
0.00613448
0.00611657
0.00609827
0.00607956
0.00606045
0.00604092
0.00602097
0.00600058
0.00597976
0.0059585
0.00593678
0.00591461
0.00589196
0.00586884
0.00584523
0.00582113
0.00579653
0.00577142
0.00574579
0.00571964
0.00569295
0.00566571
0.00563793
0.00560958
0.00558066
0.00555116
0.00552107
0.00549038
0.00545908
0.00542716
0.00539461
0.00536142
0.00532758
0.00529308
0.0052579
0.00522203
0.00518547
0.00514819
0.00511018
0.00507144
0.00503193
0.00499165
0.00495059
0.00490871
0.004866
0.00482244
0.004778
0.00473266
0.0046864
0.00463918
0.00459096
0.00454172
0.00449142
0.00444
0.00438742
0.00433363
0.00427856
0.00422214
0.0041643
0.00410495
0.00404398
0.00398127
0.00391668
0.00385003
0.00378112
0.0037097
0.00363546
0.00355816
0.00347749
0.00339304
0.00330427
0.00321052
0.00311095
0.00300445
0.00288955
0.00276419
0.00262552
0.00246956
0.00229194
0.00208547
0.00183907
0.00153514
0.00114515
0.000627835
6.87031e-05
0.000109769
0.00107127
0.00201565
0.00276561
0.0033774
0.00389328
0.00433974
0.00473369
0.00508628
0.00540525
0.00569618
0.00596324
0.00620961
0.00643781
0.00664985
0.00684739
0.00703183
0.00720433
0.00736592
0.0075175
0.00765983
0.00779361
0.00791947
0.00803796
0.0081496
0.00825483
0.00835409
0.00844776
0.00853617
0.00861967
0.00869854
0.00877306
0.00884348
0.00891003
0.00897292
0.00903236
0.00908852
0.00914157
0.00919167
0.00923896
0.00928356
0.00932557
0.00936509
0.00940217
0.00943686
0.00946933
0.00949971
0.00952816
0.00955478
0.00957967
0.00960293
0.00962464
0.00964486
0.00966366
0.00968111
0.00969725
0.00971214
0.00972584
0.00973838
0.00974981
0.00976017
0.0097695
0.00977784
0.00978522
0.00979168
0.00979725
0.00980196
0.00980584
0.00980891
0.00981119
0.00981273
0.00981353
0.00981362
0.00981301
0.00981174
0.00980981
0.00980724
0.00980405
0.00980025
0.00979586
0.00979089
0.00978535
0.00977924
0.00977258
0.00976539
0.00975765
0.00974939
0.00974061
0.00973131
0.00972149
0.00971117
0.00970033
0.009689
0.00967715
0.00966481
0.00965196
0.0096386
0.00962474
0.00961037
0.00959549
0.0095801
0.00956419
0.00954775
0.00953079
0.0095133
0.00949527
0.0094767
0.00945758
0.0094379
0.00941766
0.00939684
0.00937545
0.00935347
0.00933089
0.0093077
0.0092839
0.00925947
0.00923441
0.0092087
0.00918234
0.00915531
0.0091276
0.0090992
0.0090701
0.00904029
0.00900976
0.00897848
0.00894646
0.00891367
0.00888011
0.00884576
0.00881061
0.00877465
0.00873785
0.00870021
0.00866172
0.00862235
0.00858209
0.00854094
0.00849886
0.00845585
0.00841189
0.00836696
0.00832104
0.00827413
0.00822619
0.00817721
0.00812717
0.00807605
0.00802383
0.00797048
0.00791598
0.00786032
0.00780345
0.00774535
0.007686
0.00762536
0.0075634
0.00750009
0.00743538
0.00736924
0.00730162
0.00723248
0.00716176
0.00708941
0.00701536
0.00693955
0.0068619
0.00678234
0.00670077
0.00661709
0.00653118
0.00644293
0.00635218
0.00625877
0.00616251
0.00606319
0.00596054
0.00585428
0.00574405
0.00562944
0.00550998
0.00538515
0.00525433
0.00511676
0.00497147
0.00481727
0.00465267
0.00447571
0.00428399
0.00407423
0.00384217
0.00358212
0.00328686
0.00294652
0.00254685
0.00206776
0.00148195
0.000764637
7.82873e-05
0.00010977
0.00107128
0.00201567
0.00276564
0.00337744
0.00389331
0.00433977
0.00473372
0.00508632
0.00540528
0.00569621
0.00596327
0.00620964
0.00643784
0.00664988
0.00684742
0.00703185
0.00720436
0.00736595
0.00751752
0.00765985
0.00779363
0.00791949
0.00803798
0.00814962
0.00825485
0.00835411
0.00844777
0.00853619
0.00861969
0.00869856
0.00877307
0.00884349
0.00891004
0.00897293
0.00903237
0.00908853
0.00914158
0.00919168
0.00923897
0.00928357
0.00932558
0.0093651
0.00940218
0.00943687
0.00946933
0.00949972
0.00952816
0.00955478
0.00957968
0.00960294
0.00962464
0.00964486
0.00966367
0.00968111
0.00969725
0.00971215
0.00972584
0.00973838
0.00974981
0.00976017
0.0097695
0.00977784
0.00978522
0.00979168
0.00979725
0.00980196
0.00980584
0.00980891
0.00981119
0.00981273
0.00981353
0.00981362
0.00981301
0.00981174
0.00980981
0.00980724
0.00980405
0.00980025
0.00979586
0.00979089
0.00978534
0.00977924
0.00977258
0.00976539
0.00975765
0.00974939
0.00974061
0.00973131
0.00972149
0.00971117
0.00970033
0.00968899
0.00967715
0.00966481
0.00965196
0.0096386
0.00962474
0.00961037
0.00959549
0.0095801
0.00956419
0.00954775
0.00953079
0.0095133
0.00949527
0.0094767
0.00945758
0.0094379
0.00941766
0.00939684
0.00937545
0.00935347
0.00933089
0.0093077
0.0092839
0.00925947
0.00923441
0.0092087
0.00918234
0.00915531
0.0091276
0.0090992
0.0090701
0.00904029
0.00900975
0.00897848
0.00894646
0.00891367
0.00888011
0.00884576
0.00881061
0.00877464
0.00873785
0.00870021
0.00866171
0.00862235
0.00858209
0.00854093
0.00849886
0.00845584
0.00841188
0.00836695
0.00832104
0.00827412
0.00822618
0.00817721
0.00812717
0.00807605
0.00802382
0.00797048
0.00791598
0.00786031
0.00780344
0.00774535
0.007686
0.00762536
0.0075634
0.00750009
0.00743538
0.00736924
0.00730162
0.00723248
0.00716176
0.0070894
0.00701536
0.00693955
0.0068619
0.00678234
0.00670077
0.00661709
0.00653118
0.00644293
0.00635218
0.00625877
0.00616251
0.00606319
0.00596054
0.00585428
0.00574405
0.00562944
0.00550998
0.00538515
0.00525433
0.00511675
0.00497146
0.00481727
0.00465266
0.00447571
0.00428398
0.00407423
0.00384217
0.00358212
0.00328686
0.00294652
0.00254685
0.00206776
0.00148195
0.000764637
7.8287e-05
0.000120186
0.00119708
0.00232972
0.0032677
0.00405185
0.00472263
0.00530831
0.00582813
0.0062954
0.00671958
0.00710758
0.00746461
0.00779469
0.00810098
0.00838605
0.00865199
0.00890059
0.00913334
0.00935157
0.0095564
0.00974886
0.00992984
0.0101002
0.0102606
0.0104118
0.0105544
0.0106889
0.0108158
0.0109358
0.0110491
0.0111562
0.0112574
0.0113532
0.0114438
0.0115296
0.0116108
0.0116876
0.0117604
0.0118293
0.0118944
0.0119561
0.0120144
0.0120695
0.0121215
0.0121705
0.0122167
0.0122603
0.0123014
0.0123401
0.0123765
0.0124109
0.0124432
0.0124736
0.0125022
0.012529
0.0125542
0.0125777
0.0125997
0.0126202
0.0126392
0.0126569
0.0126733
0.0126883
0.0127021
0.0127148
0.0127262
0.0127366
0.0127458
0.012754
0.0127612
0.0127674
0.0127726
0.0127769
0.0127803
0.0127828
0.0127844
0.0127851
0.0127851
0.0127842
0.0127825
0.01278
0.0127768
0.0127728
0.0127681
0.0127626
0.0127564
0.0127494
0.0127418
0.0127334
0.0127244
0.0127146
0.0127041
0.012693
0.0126811
0.0126685
0.0126553
0.0126413
0.0126267
0.0126113
0.0125953
0.0125785
0.012561
0.0125427
0.0125238
0.0125041
0.0124837
0.0124625
0.0124405
0.0124178
0.0123943
0.01237
0.0123449
0.012319
0.0122922
0.0122646
0.0122362
0.0122069
0.0121767
0.0121456
0.0121137
0.0120808
0.0120469
0.0120121
0.0119764
0.0119396
0.0119019
0.0118631
0.0118234
0.0117825
0.0117406
0.0116976
0.0116535
0.0116082
0.0115619
0.0115143
0.0114656
0.0114156
0.0113644
0.011312
0.0112583
0.0112033
0.011147
0.0110893
0.0110302
0.0109698
0.0109079
0.0108446
0.0107797
0.0107134
0.0106455
0.010576
0.0105049
0.0104321
0.0103577
0.0102815
0.0102035
0.0101237
0.010042
0.00995831
0.00987267
0.00978497
0.00969514
0.00960311
0.00950881
0.00941214
0.00931301
0.00921133
0.00910697
0.00899982
0.00888973
0.00877656
0.00866012
0.00854024
0.00841668
0.00828921
0.00815755
0.00802136
0.00788027
0.00773386
0.00758162
0.00742296
0.0072572
0.00708355
0.00690108
0.00670865
0.00650487
0.00628804
0.00605605
0.00580625
0.00553532
0.00523903
0.00491197
0.00454726
0.00413597
0.00366686
0.00312484
0.00249053
0.00174148
0.00086894
8.59099e-05
0.000120186
0.00119709
0.00232974
0.00326773
0.00405188
0.00472267
0.00530835
0.00582818
0.00629544
0.00671962
0.00710762
0.00746465
0.00779473
0.00810102
0.00838609
0.00865203
0.00890062
0.00913338
0.0093516
0.00955643
0.00974889
0.00992987
0.0101002
0.0102606
0.0104118
0.0105544
0.0106889
0.0108159
0.0109358
0.0110491
0.0111562
0.0112574
0.0113532
0.0114439
0.0115296
0.0116108
0.0116877
0.0117604
0.0118293
0.0118945
0.0119561
0.0120144
0.0120695
0.0121215
0.0121705
0.0122168
0.0122603
0.0123014
0.0123401
0.0123765
0.0124109
0.0124432
0.0124736
0.0125022
0.012529
0.0125542
0.0125777
0.0125997
0.0126202
0.0126392
0.0126569
0.0126733
0.0126883
0.0127021
0.0127148
0.0127262
0.0127366
0.0127458
0.012754
0.0127612
0.0127674
0.0127726
0.0127769
0.0127803
0.0127828
0.0127844
0.0127851
0.0127851
0.0127842
0.0127825
0.01278
0.0127768
0.0127728
0.0127681
0.0127626
0.0127564
0.0127494
0.0127418
0.0127334
0.0127244
0.0127146
0.0127041
0.012693
0.0126811
0.0126685
0.0126553
0.0126413
0.0126267
0.0126113
0.0125953
0.0125785
0.012561
0.0125427
0.0125238
0.0125041
0.0124837
0.0124625
0.0124405
0.0124178
0.0123943
0.01237
0.0123449
0.012319
0.0122922
0.0122646
0.0122362
0.0122069
0.0121767
0.0121456
0.0121137
0.0120808
0.0120469
0.0120121
0.0119764
0.0119396
0.0119019
0.0118631
0.0118234
0.0117825
0.0117406
0.0116976
0.0116535
0.0116082
0.0115619
0.0115143
0.0114656
0.0114156
0.0113644
0.011312
0.0112583
0.0112033
0.011147
0.0110893
0.0110302
0.0109698
0.0109079
0.0108446
0.0107797
0.0107134
0.0106455
0.010576
0.0105049
0.0104321
0.0103577
0.0102815
0.0102035
0.0101237
0.010042
0.00995831
0.00987266
0.00978496
0.00969513
0.00960311
0.0095088
0.00941213
0.00931301
0.00921132
0.00910697
0.00899981
0.00888973
0.00877655
0.00866012
0.00854023
0.00841668
0.00828921
0.00815754
0.00802135
0.00788027
0.00773386
0.00758161
0.00742295
0.00725719
0.00708355
0.00690108
0.00670865
0.00650487
0.00628804
0.00605605
0.00580625
0.00553532
0.00523902
0.00491196
0.00454726
0.00413597
0.00366686
0.00312484
0.00249053
0.00174148
0.000868938
8.59098e-05
0.000129021
0.00129684
0.00257309
0.00366133
0.0045876
0.00538917
0.00609451
0.00672406
0.00729248
0.00781039
0.00828568
0.00872435
0.00913101
0.00950934
0.0098623
0.0101923
0.0105015
0.0107915
0.011064
0.0113201
0.0115612
0.0117882
0.0120022
0.012204
0.0123944
0.0125741
0.0127439
0.0129043
0.0130559
0.0131994
0.0133351
0.0134635
0.0135852
0.0137005
0.0138097
0.0139132
0.0140113
0.0141044
0.0141927
0.0142764
0.0143558
0.0144311
0.0145024
0.01457
0.014634
0.0146947
0.0147521
0.0148064
0.0148579
0.0149067
0.0149529
0.0149966
0.0150379
0.015077
0.015114
0.0151489
0.0151819
0.015213
0.0152422
0.0152697
0.0152955
0.0153197
0.0153424
0.0153635
0.0153832
0.0154014
0.0154183
0.0154339
0.0154481
0.0154612
0.015473
0.0154836
0.015493
0.0155014
0.0155086
0.0155148
0.0155199
0.015524
0.0155271
0.0155292
0.0155303
0.0155304
0.0155296
0.0155279
0.0155252
0.0155216
0.0155171
0.0155117
0.0155055
0.0154983
0.0154902
0.0154813
0.0154714
0.0154607
0.0154491
0.0154366
0.0154233
0.015409
0.0153938
0.0153778
0.0153608
0.0153429
0.0153241
0.0153043
0.0152837
0.015262
0.0152394
0.0152159
0.0151913
0.0151658
0.0151392
0.0151116
0.015083
0.0150533
0.0150226
0.0149907
0.0149578
0.0149238
0.0148886
0.0148522
0.0148147
0.014776
0.0147361
0.0146949
0.0146525
0.0146088
0.0145638
0.0145175
0.0144699
0.0144209
0.0143705
0.0143187
0.0142654
0.0142107
0.0141545
0.0140968
0.0140375
0.0139766
0.0139142
0.0138501
0.0137843
0.0137168
0.0136476
0.0135766
0.0135038
0.0134292
0.0133527
0.0132743
0.0131939
0.0131115
0.013027
0.0129404
0.0128517
0.0127607
0.0126675
0.012572
0.012474
0.0123736
0.0122706
0.012165
0.0120568
0.0119457
0.0118317
0.0117147
0.0115946
0.0114712
0.0113445
0.0112142
0.0110802
0.0109423
0.0108003
0.0106539
0.010503
0.0103472
0.0101861
0.0100195
0.00984681
0.00966761
0.00948132
0.00928726
0.00908469
0.00887269
0.00865023
0.00841607
0.00816872
0.00790641
0.00762695
0.00732772
0.00700547
0.00665619
0.00627492
0.00585546
0.00539011
0.00486915
0.00428075
0.00361031
0.00284034
0.00195369
0.000954597
9.23433e-05
0.000129021
0.00129685
0.00257311
0.00366136
0.00458764
0.00538921
0.00609455
0.00672411
0.00729252
0.00781043
0.00828573
0.00872439
0.00913105
0.00950939
0.00986235
0.0101924
0.0105015
0.0107916
0.011064
0.0113202
0.0115612
0.0117883
0.0120022
0.012204
0.0123944
0.0125741
0.0127439
0.0129043
0.0130559
0.0131994
0.0133351
0.0134636
0.0135852
0.0137005
0.0138097
0.0139132
0.0140113
0.0141044
0.0141927
0.0142764
0.0143558
0.0144311
0.0145024
0.01457
0.0146341
0.0146947
0.0147521
0.0148064
0.0148579
0.0149067
0.0149529
0.0149966
0.0150379
0.0150771
0.015114
0.0151489
0.0151819
0.015213
0.0152422
0.0152697
0.0152955
0.0153197
0.0153424
0.0153635
0.0153832
0.0154014
0.0154183
0.0154339
0.0154481
0.0154612
0.015473
0.0154836
0.015493
0.0155014
0.0155086
0.0155148
0.0155199
0.015524
0.0155271
0.0155292
0.0155303
0.0155304
0.0155296
0.0155279
0.0155252
0.0155216
0.0155171
0.0155117
0.0155055
0.0154983
0.0154902
0.0154813
0.0154714
0.0154607
0.0154491
0.0154366
0.0154233
0.015409
0.0153938
0.0153778
0.0153608
0.0153429
0.0153241
0.0153043
0.0152837
0.015262
0.0152394
0.0152159
0.0151913
0.0151658
0.0151392
0.0151116
0.015083
0.0150533
0.0150226
0.0149907
0.0149578
0.0149238
0.0148886
0.0148522
0.0148147
0.014776
0.0147361
0.0146949
0.0146525
0.0146088
0.0145638
0.0145175
0.0144699
0.0144209
0.0143705
0.0143187
0.0142654
0.0142107
0.0141545
0.0140968
0.0140375
0.0139766
0.0139142
0.0138501
0.0137843
0.0137168
0.0136476
0.0135766
0.0135038
0.0134292
0.0133527
0.0132743
0.0131939
0.0131115
0.013027
0.0129404
0.0128517
0.0127607
0.0126675
0.012572
0.012474
0.0123736
0.0122706
0.012165
0.0120567
0.0119457
0.0118317
0.0117147
0.0115946
0.0114712
0.0113445
0.0112142
0.0110802
0.0109423
0.0108003
0.0106539
0.010503
0.0103472
0.0101861
0.0100195
0.0098468
0.00966761
0.00948131
0.00928726
0.00908468
0.00887269
0.00865023
0.00841607
0.00816872
0.0079064
0.00762695
0.00732772
0.00700547
0.00665619
0.00627492
0.00585546
0.0053901
0.00486915
0.00428075
0.00361031
0.00284034
0.00195369
0.000954595
9.23433e-05
0.000136844
0.00138222
0.00277383
0.0039838
0.00502745
0.0059389
0.00674625
0.00747048
0.00812706
0.00872743
0.00928019
0.00979187
0.0102676
0.0107114
0.0111265
0.0115157
0.0118811
0.0122248
0.0125483
0.0128531
0.0131406
0.0134119
0.013668
0.01391
0.0141386
0.0143549
0.0145594
0.0147529
0.0149362
0.0151097
0.0152742
0.01543
0.0155778
0.0157179
0.0158509
0.0159772
0.016097
0.0162109
0.016319
0.0164217
0.0165193
0.0166121
0.0167002
0.0167839
0.0168635
0.016939
0.0170107
0.0170789
0.0171437
0.0172053
0.0172638
0.0173194
0.0173722
0.0174224
0.01747
0.0175152
0.0175582
0.0175988
0.0176374
0.0176739
0.0177084
0.017741
0.0177718
0.0178008
0.0178281
0.0178537
0.0178777
0.0179002
0.0179211
0.0179406
0.0179587
0.0179753
0.0179906
0.0180046
0.0180172
0.0180286
0.0180388
0.0180477
0.0180554
0.018062
0.0180674
0.0180716
0.0180748
0.0180768
0.0180777
0.0180775
0.0180762
0.0180739
0.0180704
0.0180659
0.0180604
0.0180537
0.018046
0.0180373
0.0180275
0.0180166
0.0180046
0.0179916
0.0179774
0.0179622
0.0179459
0.0179285
0.01791
0.0178903
0.0178695
0.0178476
0.0178244
0.0178002
0.0177747
0.017748
0.0177201
0.0176909
0.0176605
0.0176288
0.0175958
0.0175616
0.0175259
0.0174889
0.0174506
0.0174108
0.0173696
0.017327
0.0172829
0.0172373
0.0171902
0.0171415
0.0170913
0.0170395
0.016986
0.0169309
0.016874
0.0168155
0.0167552
0.0166931
0.0166292
0.0165635
0.0164959
0.0164263
0.0163548
0.0162813
0.0162057
0.0161281
0.0160483
0.0159664
0.0158822
0.0157958
0.0157071
0.015616
0.0155225
0.0154266
0.0153281
0.0152269
0.0151232
0.0150167
0.0149073
0.0147951
0.01468
0.0145617
0.0144404
0.0143157
0.0141877
0.0140562
0.0139212
0.0137823
0.0136396
0.0134929
0.0133419
0.0131865
0.0130264
0.0128615
0.0126915
0.012516
0.0123348
0.0121474
0.0119536
0.0117527
0.0115443
0.0113277
0.0111023
0.0108672
0.0106214
0.010364
0.0100935
0.00980853
0.00950724
0.00918751
0.00884677
0.00848194
0.00808929
0.00766429
0.00720143
0.00669402
0.00613389
0.00551113
0.00481385
0.0040283
0.00313918
0.00213428
0.00102807
9.79721e-05
0.000136844
0.00138223
0.00277385
0.00398383
0.00502749
0.00593894
0.00674629
0.00747053
0.00812711
0.00872748
0.00928024
0.00979192
0.0102676
0.0107114
0.0111266
0.0115157
0.0118812
0.0122248
0.0125483
0.0128532
0.0131406
0.0134119
0.013668
0.01391
0.0141387
0.0143549
0.0145594
0.014753
0.0149362
0.0151098
0.0152742
0.01543
0.0155778
0.015718
0.015851
0.0159772
0.0160971
0.0162109
0.016319
0.0164218
0.0165194
0.0166121
0.0167002
0.0167839
0.0168635
0.016939
0.0170108
0.0170789
0.0171437
0.0172053
0.0172638
0.0173194
0.0173722
0.0174224
0.01747
0.0175153
0.0175582
0.0175988
0.0176374
0.0176739
0.0177084
0.017741
0.0177718
0.0178008
0.0178281
0.0178537
0.0178777
0.0179002
0.0179211
0.0179406
0.0179587
0.0179753
0.0179906
0.0180046
0.0180172
0.0180286
0.0180388
0.0180477
0.0180554
0.018062
0.0180674
0.0180716
0.0180748
0.0180768
0.0180777
0.0180775
0.0180762
0.0180739
0.0180704
0.0180659
0.0180604
0.0180537
0.018046
0.0180373
0.0180275
0.0180166
0.0180046
0.0179916
0.0179774
0.0179622
0.0179459
0.0179285
0.01791
0.0178903
0.0178695
0.0178476
0.0178244
0.0178001
0.0177747
0.017748
0.0177201
0.0176909
0.0176605
0.0176288
0.0175958
0.0175616
0.0175259
0.0174889
0.0174506
0.0174108
0.0173696
0.017327
0.0172829
0.0172373
0.0171902
0.0171415
0.0170913
0.0170395
0.016986
0.0169309
0.016874
0.0168155
0.0167552