/*--------------------------------*- C++ -*----------------------------------*\
  =========                 |
  \\      /  F ield         | OpenFOAM: The Open Source CFD Toolbox
   \\    /   O peration     | Website:  https://openfoam.org
    \\  /    A nd           | Version:  8
     \\/     M anipulation  |
\*---------------------------------------------------------------------------*/
FoamFile
{
    version     2.0;
    format      ascii;
    class       volScalarField;
    location    "500";
    object      alphat;
}
// * * * * * * * * * * * * * * * * * * * * * * * * * * * * * * * * * * * * * //

dimensions      [1 -1 -1 0 0 0 0];

internalField   nonuniform List<scalar> 
46000
(
4.24334e-07
1.71385e-06
3.489e-06
5.48608e-06
7.45769e-06
9.36928e-06
1.11031e-05
1.27213e-05
1.42312e-05
1.56347e-05
1.69319e-05
1.81225e-05
1.92057e-05
2.01811e-05
2.10484e-05
2.18077e-05
2.24598e-05
2.30061e-05
2.34491e-05
2.37917e-05
2.40379e-05
2.41927e-05
2.42694e-05
2.42931e-05
2.42543e-05
2.41533e-05
2.3995e-05
2.3787e-05
2.35379e-05
2.3257e-05
2.29532e-05
2.26348e-05
2.23096e-05
2.19843e-05
2.16646e-05
2.13552e-05
2.10596e-05
2.07806e-05
2.052e-05
2.02789e-05
2.00576e-05
1.98561e-05
1.9674e-05
1.95105e-05
1.93647e-05
1.92356e-05
1.9122e-05
1.90228e-05
1.89371e-05
1.88637e-05
1.88016e-05
1.87501e-05
1.87083e-05
1.86753e-05
1.86507e-05
1.86338e-05
1.86256e-05
1.86244e-05
1.86292e-05
1.86395e-05
1.86547e-05
1.86745e-05
1.86984e-05
1.87262e-05
1.87573e-05
1.87916e-05
1.88285e-05
1.88677e-05
1.89088e-05
1.89516e-05
1.89955e-05
1.90404e-05
1.90859e-05
1.91317e-05
1.91776e-05
1.92233e-05
1.92688e-05
1.93139e-05
1.93585e-05
1.94026e-05
1.94463e-05
1.94897e-05
1.95329e-05
1.95762e-05
1.96197e-05
1.96637e-05
1.97086e-05
1.97546e-05
1.98021e-05
1.98515e-05
1.99029e-05
1.99568e-05
2.00133e-05
2.00726e-05
2.01349e-05
2.02002e-05
2.02686e-05
2.034e-05
2.04143e-05
2.04912e-05
2.05705e-05
2.06519e-05
2.07351e-05
2.08196e-05
2.09051e-05
2.09911e-05
2.10773e-05
2.11632e-05
2.12485e-05
2.13329e-05
2.14161e-05
2.14978e-05
2.15778e-05
2.16562e-05
2.17327e-05
2.18073e-05
2.18802e-05
2.19514e-05
2.2021e-05
2.20891e-05
2.21561e-05
2.22219e-05
2.2287e-05
2.23514e-05
2.24153e-05
2.24789e-05
2.25423e-05
2.26057e-05
2.26691e-05
2.27326e-05
2.27962e-05
2.28599e-05
2.29237e-05
2.29875e-05
2.30514e-05
2.31151e-05
2.31788e-05
2.32424e-05
2.33058e-05
2.33692e-05
2.34324e-05
2.34957e-05
2.35592e-05
2.3623e-05
2.36872e-05
2.37522e-05
2.38182e-05
2.38854e-05
2.39541e-05
2.40246e-05
2.40972e-05
2.41721e-05
2.42497e-05
2.43302e-05
2.44137e-05
2.45005e-05
2.45906e-05
2.46842e-05
2.47813e-05
2.48819e-05
2.49858e-05
2.50928e-05
2.52027e-05
2.53148e-05
2.54288e-05
2.55437e-05
2.56584e-05
2.57717e-05
2.58818e-05
2.59864e-05
2.60831e-05
2.61685e-05
2.62394e-05
2.62945e-05
2.63273e-05
2.63296e-05
2.62935e-05
2.62101e-05
2.60701e-05
2.5863e-05
2.55778e-05
2.52032e-05
2.47277e-05
2.41402e-05
2.34307e-05
2.25905e-05
2.16132e-05
2.04952e-05
1.92363e-05
1.78405e-05
1.63165e-05
1.46785e-05
1.29467e-05
1.11475e-05
9.31024e-06
7.43337e-06
5.57997e-06
3.81365e-06
2.12636e-06
6.19241e-07
4.24527e-07
1.71374e-06
3.48978e-06
5.48689e-06
7.45825e-06
9.36981e-06
1.11037e-05
1.27218e-05
1.42318e-05
1.56353e-05
1.69326e-05
1.81232e-05
1.92064e-05
2.01818e-05
2.10491e-05
2.18084e-05
2.24605e-05
2.30068e-05
2.34497e-05
2.37923e-05
2.40384e-05
2.41932e-05
2.42699e-05
2.42936e-05
2.42548e-05
2.41537e-05
2.39954e-05
2.37873e-05
2.35383e-05
2.32574e-05
2.29535e-05
2.26352e-05
2.231e-05
2.19847e-05
2.1665e-05
2.13556e-05
2.106e-05
2.07811e-05
2.05205e-05
2.02793e-05
2.0058e-05
1.98566e-05
1.96745e-05
1.9511e-05
1.93652e-05
1.92361e-05
1.91225e-05
1.90234e-05
1.89376e-05
1.88642e-05
1.88022e-05
1.87507e-05
1.87088e-05
1.86759e-05
1.86513e-05
1.86344e-05
1.86262e-05
1.8625e-05
1.86299e-05
1.86401e-05
1.86554e-05
1.86751e-05
1.86991e-05
1.87268e-05
1.87579e-05
1.87922e-05
1.88291e-05
1.88683e-05
1.89094e-05
1.89522e-05
1.89962e-05
1.9041e-05
1.90865e-05
1.91323e-05
1.91782e-05
1.92239e-05
1.92694e-05
1.93145e-05
1.93591e-05
1.94032e-05
1.94469e-05
1.94903e-05
1.95335e-05
1.95768e-05
1.96203e-05
1.96643e-05
1.97092e-05
1.97552e-05
1.98027e-05
1.98521e-05
1.99035e-05
1.99574e-05
2.00139e-05
2.00732e-05
2.01355e-05
2.02009e-05
2.02692e-05
2.03406e-05
2.04149e-05
2.04918e-05
2.05711e-05
2.06525e-05
2.07357e-05
2.08202e-05
2.09057e-05
2.09917e-05
2.10779e-05
2.11638e-05
2.12491e-05
2.13335e-05
2.14167e-05
2.14984e-05
2.15784e-05
2.16568e-05
2.17332e-05
2.18079e-05
2.18808e-05
2.19519e-05
2.20215e-05
2.20897e-05
2.21567e-05
2.22225e-05
2.22876e-05
2.2352e-05
2.24159e-05
2.24795e-05
2.25429e-05
2.26063e-05
2.26697e-05
2.27332e-05
2.27968e-05
2.28605e-05
2.29243e-05
2.29881e-05
2.30519e-05
2.31157e-05
2.31794e-05
2.32429e-05
2.33064e-05
2.33697e-05
2.3433e-05
2.34963e-05
2.35597e-05
2.36235e-05
2.36878e-05
2.37527e-05
2.38187e-05
2.38859e-05
2.39546e-05
2.40251e-05
2.40977e-05
2.41727e-05
2.42502e-05
2.43307e-05
2.44142e-05
2.4501e-05
2.45912e-05
2.46848e-05
2.47819e-05
2.48824e-05
2.49863e-05
2.50933e-05
2.52031e-05
2.53153e-05
2.54292e-05
2.55441e-05
2.56589e-05
2.57721e-05
2.58822e-05
2.59869e-05
2.60835e-05
2.61689e-05
2.62398e-05
2.6295e-05
2.63277e-05
2.63301e-05
2.62939e-05
2.62106e-05
2.60706e-05
2.58635e-05
2.55783e-05
2.52037e-05
2.47282e-05
2.41407e-05
2.34312e-05
2.2591e-05
2.16137e-05
2.04957e-05
1.92368e-05
1.78409e-05
1.63168e-05
1.46787e-05
1.29468e-05
1.11476e-05
9.3103e-06
7.43335e-06
5.57983e-06
3.81336e-06
2.12566e-06
6.19011e-07
1.41208e-06
2.53418e-05
4.76269e-05
6.34273e-05
7.60913e-05
8.67644e-05
9.59969e-05
0.000103984
0.000110878
0.000116801
0.000121859
0.000126137
0.000129714
0.000132659
0.000135036
0.000136902
0.000138312
0.000139315
0.000139957
0.000140281
0.000140321
0.000140102
0.00013961
0.000138884
0.000138022
0.000137062
0.000136038
0.000134979
0.000133909
0.000132849
0.000131817
0.000130827
0.000129888
0.000129011
0.000128198
0.000127454
0.000126779
0.000126172
0.00012563
0.000125151
0.000124729
0.000124362
0.000124043
0.000123768
0.000123534
0.000123335
0.000123168
0.00012303
0.000122917
0.000122828
0.00012276
0.000122711
0.000122681
0.000122667
0.000122668
0.000122681
0.000122703
0.000122737
0.000122782
0.000122839
0.000122907
0.000122986
0.000123074
0.000123171
0.000123276
0.000123387
0.000123505
0.000123627
0.000123754
0.000123883
0.000124015
0.000124148
0.000124282
0.000124416
0.00012455
0.000124683
0.000124815
0.000124945
0.000125075
0.000125204
0.000125332
0.00012546
0.000125589
0.000125719
0.000125851
0.000125985
0.000126124
0.000126267
0.000126416
0.000126571
0.000126733
0.000126902
0.00012708
0.000127265
0.000127459
0.000127661
0.00012787
0.000128087
0.00012831
0.000128538
0.000128771
0.000129008
0.000129247
0.000129486
0.000129726
0.000129964
0.000130201
0.000130434
0.000130663
0.000130887
0.000131106
0.000131319
0.000131527
0.000131729
0.000131925
0.000132116
0.000132302
0.000132484
0.000132662
0.000132837
0.000133009
0.000133179
0.000133347
0.000133515
0.000133682
0.000133849
0.000134017
0.000134184
0.000134352
0.000134521
0.00013469
0.000134859
0.000135029
0.000135198
0.000135367
0.000135536
0.000135704
0.000135872
0.00013604
0.000136207
0.000136374
0.000136542
0.000136711
0.000136881
0.000137053
0.000137227
0.000137406
0.000137588
0.000137776
0.00013797
0.000138171
0.000138379
0.000138595
0.00013882
0.000139054
0.000139298
0.000139552
0.000139816
0.000140091
0.000140375
0.000140669
0.000140972
0.000141283
0.0001416
0.000141923
0.000142247
0.000142571
0.00014289
0.000143199
0.000143491
0.000143757
0.000143988
0.000144173
0.000144286
0.000144303
0.000144206
0.000143971
0.000143572
0.000142978
0.000142154
0.000141065
0.000139671
0.000137934
0.000135814
0.000133273
0.000130278
0.000126799
0.000122812
0.000118303
0.000113267
0.000107711
0.000101652
9.51223e-05
8.81574e-05
8.07807e-05
7.29422e-05
6.40683e-05
5.18994e-05
2.98469e-05
2.20443e-06
1.41297e-06
2.53444e-05
4.76313e-05
6.34319e-05
7.60958e-05
8.67687e-05
9.6001e-05
0.000103988
0.000110881
0.000116805
0.000121862
0.00012614
0.000129717
0.000132662
0.000135038
0.000136904
0.000138314
0.000139317
0.000139959
0.000140282
0.000140323
0.000140103
0.000139612
0.000138885
0.000138023
0.000137063
0.000136039
0.00013498
0.00013391
0.00013285
0.000131818
0.000130828
0.00012989
0.000129012
0.0001282
0.000127455
0.00012678
0.000126173
0.000125631
0.000125152
0.000124731
0.000124363
0.000124045
0.00012377
0.000123536
0.000123337
0.00012317
0.000123032
0.000122919
0.00012283
0.000122762
0.000122714
0.000122683
0.000122669
0.00012267
0.000122683
0.000122705
0.000122739
0.000122784
0.000122841
0.00012291
0.000122988
0.000123076
0.000123173
0.000123278
0.000123389
0.000123507
0.000123629
0.000123756
0.000123885
0.000124017
0.00012415
0.000124284
0.000124418
0.000124552
0.000124685
0.000124817
0.000124947
0.000125077
0.000125206
0.000125334
0.000125462
0.000125591
0.000125721
0.000125853
0.000125988
0.000126126
0.000126269
0.000126418
0.000126573
0.000126735
0.000126905
0.000127082
0.000127268
0.000127461
0.000127663
0.000127873
0.000128089
0.000128312
0.000128541
0.000128774
0.00012901
0.000129249
0.000129488
0.000129728
0.000129967
0.000130203
0.000130436
0.000130665
0.000130889
0.000131108
0.000131321
0.000131529
0.000131731
0.000131927
0.000132118
0.000132304
0.000132486
0.000132664
0.000132839
0.000133011
0.000133181
0.000133349
0.000133517
0.000133684
0.000133851
0.000134019
0.000134186
0.000134354
0.000134523
0.000134692
0.000134861
0.000135031
0.0001352
0.000135369
0.000135538
0.000135706
0.000135874
0.000136042
0.000136209
0.000136376
0.000136544
0.000136712
0.000136882
0.000137054
0.000137229
0.000137408
0.00013759
0.000137778
0.000137972
0.000138172
0.000138381
0.000138597
0.000138822
0.000139056
0.0001393
0.000139554
0.000139818
0.000140092
0.000140377
0.000140671
0.000140973
0.000141284
0.000141602
0.000141924
0.000142249
0.000142573
0.000142892
0.0001432
0.000143492
0.000143758
0.00014399
0.000144174
0.000144287
0.000144304
0.000144207
0.000143972
0.000143573
0.000142979
0.000142156
0.000141066
0.000139673
0.000137935
0.000135815
0.000133275
0.00013028
0.000126801
0.000122814
0.000118305
0.000113269
0.000107712
0.000101653
9.51228e-05
8.81577e-05
8.07807e-05
7.29417e-05
6.40671e-05
5.18974e-05
2.98456e-05
2.20419e-06
2.60238e-06
4.44575e-05
8.55942e-05
0.000116475
0.0001412
0.0001617
0.000178969
0.000193559
0.000205841
0.0002161
0.00022457
0.000231457
0.000236945
0.000241204
0.000244388
0.000246643
0.000248098
0.000248872
0.000249073
0.000248793
0.000248111
0.000247088
0.000245758
0.00024414
0.000242379
0.000240535
0.000238657
0.000236789
0.000234965
0.000233214
0.000231557
0.000230011
0.000228585
0.000227287
0.000226119
0.00022508
0.000224166
0.00022337
0.000222685
0.000222102
0.000221612
0.000221205
0.00022087
0.0002206
0.000220385
0.000220219
0.000220093
0.000220004
0.000219945
0.000219913
0.000219904
0.000219917
0.000219948
0.000219995
0.000220057
0.000220132
0.000220215
0.000220309
0.000220415
0.000220532
0.00022066
0.000220798
0.000220947
0.000221105
0.00022127
0.000221444
0.000221623
0.000221807
0.000221995
0.000222187
0.00022238
0.000222574
0.000222769
0.000222964
0.000223157
0.00022335
0.000223542
0.000223733
0.000223924
0.000224114
0.000224305
0.000224498
0.000224693
0.000224891
0.000225094
0.000225303
0.000225519
0.000225744
0.000225977
0.000226221
0.000226476
0.000226742
0.000227019
0.000227308
0.000227607
0.000227917
0.000228237
0.000228565
0.000228899
0.000229239
0.000229582
0.000229928
0.000230273
0.000230617
0.000230957
0.000231292
0.000231622
0.000231943
0.000232257
0.000232562
0.000232858
0.000233144
0.000233422
0.00023369
0.000233951
0.000234204
0.000234451
0.000234692
0.000234929
0.000235163
0.000235394
0.000235624
0.000235853
0.000236082
0.000236312
0.000236543
0.000236776
0.00023701
0.000237245
0.000237482
0.00023772
0.000237959
0.000238198
0.000238437
0.000238676
0.000238915
0.000239153
0.000239391
0.000239628
0.000239866
0.000240104
0.000240343
0.000240583
0.000240827
0.000241075
0.000241327
0.000241586
0.000241853
0.000242128
0.000242413
0.00024271
0.000243019
0.000243341
0.000243678
0.00024403
0.000244398
0.000244782
0.000245183
0.000245602
0.000246037
0.000246489
0.000246957
0.00024744
0.000247936
0.000248444
0.000248958
0.000249476
0.000249992
0.000250496
0.000250981
0.000251432
0.000251835
0.000252171
0.000252404
0.000252507
0.000252448
0.000252194
0.000251702
0.000250929
0.000249825
0.000248336
0.000246404
0.000243973
0.000240981
0.00023737
0.000233082
0.000228062
0.000222258
0.000215625
0.000208121
0.000199707
0.000190342
0.00017997
0.000168484
0.000155632
0.000140772
0.000122209
9.58545e-05
5.37685e-05
4.52111e-06
2.60318e-06
4.44634e-05
8.56005e-05
0.000116481
0.000141206
0.000161706
0.000178975
0.000193564
0.000205846
0.000216104
0.000224574
0.000231461
0.000236948
0.000241207
0.000244391
0.000246645
0.0002481
0.000248874
0.000249075
0.000248795
0.000248113
0.000247089
0.00024576
0.000244141
0.00024238
0.000240536
0.000238658
0.00023679
0.000234966
0.000233215
0.000231558
0.000230012
0.000228587
0.000227289
0.000226121
0.000225082
0.000224167
0.000223372
0.000222687
0.000222104
0.000221614
0.000221207
0.000220872
0.000220602
0.000220387
0.000220221
0.000220096
0.000220006
0.000219947
0.000219915
0.000219907
0.000219919
0.00021995
0.000219998
0.00022006
0.000220134
0.000220217
0.000220312
0.000220417
0.000220534
0.000220662
0.000220801
0.000220949
0.000221107
0.000221273
0.000221446
0.000221625
0.00022181
0.000221998
0.000222189
0.000222382
0.000222577
0.000222771
0.000222966
0.00022316
0.000223353
0.000223545
0.000223736
0.000223926
0.000224117
0.000224308
0.0002245
0.000224695
0.000224893
0.000225097
0.000225306
0.000225522
0.000225746
0.00022598
0.000226223
0.000226478
0.000226744
0.000227021
0.00022731
0.00022761
0.00022792
0.000228239
0.000228567
0.000228901
0.000229241
0.000229585
0.00022993
0.000230275
0.000230619
0.000230959
0.000231295
0.000231624
0.000231946
0.000232259
0.000232564
0.00023286
0.000233146
0.000233424
0.000233692
0.000233953
0.000234206
0.000234453
0.000234694
0.000234931
0.000235165
0.000235396
0.000235626
0.000235855
0.000236084
0.000236314
0.000236545
0.000236778
0.000237012
0.000237247
0.000237484
0.000237722
0.000237961
0.0002382
0.000238439
0.000238678
0.000238917
0.000239155
0.000239393
0.00023963
0.000239868
0.000240106
0.000240345
0.000240585
0.000240829
0.000241077
0.000241329
0.000241588
0.000241855
0.00024213
0.000242415
0.000242712
0.000243021
0.000243343
0.00024368
0.000244032
0.000244399
0.000244784
0.000245185
0.000245603
0.000246038
0.00024649
0.000246958
0.000247441
0.000247938
0.000248445
0.00024896
0.000249478
0.000249993
0.000250498
0.000250982
0.000251433
0.000251836
0.000252172
0.000252405
0.000252508
0.00025245
0.000252195
0.000251704
0.000250931
0.000249827
0.000248337
0.000246406
0.000243975
0.000240983
0.000237372
0.000233084
0.000228063
0.00022226
0.000215627
0.000208123
0.000199708
0.000190343
0.000179971
0.000168485
0.000155633
0.000140773
0.000122209
9.58538e-05
5.3768e-05
4.52067e-06
3.86975e-06
5.51248e-05
0.000109048
0.000151445
0.000185788
0.000214325
0.00023832
0.000258542
0.000275512
0.000289622
0.000301197
0.00031052
0.00031785
0.00032343
0.000327486
0.000330229
0.000331858
0.000332551
0.00033247
0.000331755
0.000330529
0.000328889
0.000326908
0.000324636
0.000322206
0.000319697
0.000317173
0.000314687
0.00031228
0.000309987
0.000307832
0.000305833
0.000304002
0.000302345
0.000300863
0.000299553
0.000298409
0.000297421
0.00029658
0.000295873
0.000295286
0.000294807
0.000294424
0.000294123
0.000293893
0.000293725
0.00029361
0.000293539
0.000293505
0.000293504
0.000293531
0.000293582
0.000293653
0.000293743
0.000293848
0.000293967
0.000294096
0.000294236
0.000294388
0.000294551
0.000294725
0.000294909
0.000295103
0.000295307
0.000295519
0.000295738
0.000295963
0.000296194
0.000296428
0.000296666
0.000296906
0.000297147
0.000297389
0.000297631
0.000297872
0.000298113
0.000298353
0.000298594
0.000298834
0.000299075
0.000299319
0.000299565
0.000299815
0.000300071
0.000300333
0.000300603
0.000300883
0.000301173
0.000301475
0.000301789
0.000302116
0.000302457
0.000302811
0.000303177
0.000303557
0.000303947
0.000304347
0.000304756
0.000305171
0.00030559
0.000306012
0.000306434
0.000306854
0.000307269
0.000307679
0.000308082
0.000308475
0.000308858
0.00030923
0.00030959
0.000309939
0.000310276
0.000310602
0.000310917
0.000311223
0.00031152
0.000311809
0.000312093
0.000312372
0.000312648
0.000312922
0.000313195
0.000313468
0.000313742
0.000314018
0.000314296
0.000314576
0.000314858
0.000315143
0.000315429
0.000315717
0.000316007
0.000316297
0.000316588
0.000316879
0.000317169
0.000317459
0.000317749
0.000318039
0.00031833
0.000318621
0.000318914
0.000319211
0.000319511
0.000319818
0.000320131
0.000320453
0.000320785
0.000321128
0.000321485
0.000321857
0.000322246
0.000322653
0.000323078
0.000323525
0.000323992
0.000324483
0.000324996
0.000325534
0.000326095
0.000326682
0.000327292
0.000327925
0.00032858
0.000329254
0.000329945
0.000330646
0.000331351
0.000332052
0.000332736
0.000333389
0.00033399
0.000334518
0.000334935
0.000335211
0.000335306
0.00033518
0.000334782
0.00033406
0.000332955
0.000331401
0.000329331
0.000326672
0.000323349
0.000319284
0.000314399
0.000308612
0.000301839
0.000293992
0.000284976
0.000274683
0.000262977
0.000249668
0.000234439
0.000216706
0.000195277
0.000167652
0.000128805
7.06923e-05
6.99639e-06
3.87057e-06
5.51309e-05
0.000109055
0.000151452
0.000185795
0.000214331
0.000238326
0.000258548
0.000275517
0.000289627
0.000301201
0.000310523
0.000317853
0.000323432
0.000327488
0.000330231
0.00033186
0.000332552
0.000332471
0.000331756
0.00033053
0.000328889
0.000326909
0.000324637
0.000322207
0.000319698
0.000317174
0.000314688
0.000312281
0.000309988
0.000307833
0.000305835
0.000304004
0.000302347
0.000300865
0.000299555
0.00029841
0.000297423
0.000296582
0.000295874
0.000295288
0.000294809
0.000294425
0.000294125
0.000293895
0.000293727
0.000293612
0.000293541
0.000293507
0.000293506
0.000293533
0.000293584
0.000293655
0.000293745
0.00029385
0.000293969
0.000294098
0.000294238
0.00029439
0.000294553
0.000294727
0.000294911
0.000295105
0.000295309
0.000295521
0.00029574
0.000295965
0.000296196
0.000296431
0.000296668
0.000296908
0.000297149
0.000297391
0.000297633
0.000297874
0.000298115
0.000298355
0.000298596
0.000298836
0.000299078
0.000299321
0.000299567
0.000299817
0.000300073
0.000300335
0.000300605
0.000300885
0.000301175
0.000301477
0.000301791
0.000302118
0.000302459
0.000302813
0.000303179
0.000303559
0.000303949
0.000304349
0.000304758
0.000305173
0.000305592
0.000306014
0.000306436
0.000306856
0.000307271
0.000307681
0.000308084
0.000308477
0.00030886
0.000309232
0.000309592
0.000309941
0.000310278
0.000310604
0.000310919
0.000311224
0.000311521
0.000311811
0.000312095
0.000312374
0.00031265
0.000312924
0.000313197
0.00031347
0.000313744
0.00031402
0.000314297
0.000314577
0.00031486
0.000315144
0.000315431
0.000315719
0.000316009
0.000316299
0.00031659
0.00031688
0.000317171
0.000317461
0.000317751
0.000318041
0.000318331
0.000318623
0.000318916
0.000319212
0.000319513
0.000319819
0.000320132
0.000320454
0.000320786
0.00032113
0.000321487
0.000321859
0.000322248
0.000322654
0.00032308
0.000323526
0.000323994
0.000324484
0.000324998
0.000325535
0.000326097
0.000326683
0.000327293
0.000327926
0.000328581
0.000329255
0.000329946
0.000330647
0.000331352
0.000332053
0.000332737
0.00033339
0.000333992
0.000334519
0.000334937
0.000335212
0.000335308
0.000335181
0.000334784
0.000334062
0.000332956
0.000331403
0.000329332
0.000326673
0.00032335
0.000319286
0.000314401
0.000308614
0.000301841
0.000293994
0.000284978
0.000274685
0.000262979
0.000249669
0.00023444
0.000216707
0.000195277
0.000167651
0.000128803
7.06914e-05
6.99592e-06
5.17422e-06
6.28682e-05
0.000125508
0.000176158
0.000217624
0.000252242
0.000281433
0.000306089
0.000326821
0.000344089
0.000358267
0.000369686
0.00037865
0.000385446
0.000390349
0.000393619
0.000395502
0.000396227
0.000396001
0.000395006
0.000393402
0.000391321
0.00038887
0.000386131
0.000383205
0.000380207
0.000377207
0.000374265
0.000371426
0.000368727
0.000366195
0.000363849
0.0003617
0.000359755
0.000358014
0.000356474
0.000355126
0.000353961
0.000352966
0.000352128
0.000351431
0.000350862
0.000350405
0.000350046
0.000349773
0.000349574
0.000349437
0.000349354
0.000349317
0.000349318
0.000349353
0.000349416
0.000349504
0.000349613
0.000349739
0.000349882
0.000350036
0.000350204
0.000350384
0.000350575
0.000350778
0.000350993
0.000351217
0.000351452
0.000351695
0.000351946
0.000352204
0.000352467
0.000352735
0.000353007
0.000353282
0.000353559
0.000353837
0.000354116
0.000354395
0.000354675
0.000354955
0.000355236
0.000355519
0.000355803
0.000356091
0.000356382
0.00035668
0.000356983
0.000357295
0.000357616
0.000357948
0.000358292
0.000358648
0.000359018
0.000359401
0.000359799
0.00036021
0.000360635
0.000361072
0.00036152
0.000361977
0.000362442
0.000362912
0.000363386
0.000363861
0.000364334
0.000364804
0.000365268
0.000365724
0.00036617
0.000366606
0.00036703
0.000367441
0.000367839
0.000368224
0.000368596
0.000368956
0.000369304
0.000369642
0.000369971
0.000370293
0.000370608
0.000370919
0.000371227
0.000371534
0.00037184
0.000372146
0.000372454
0.000372764
0.000373077
0.000373392
0.000373711
0.000374032
0.000374355
0.000374681
0.000375008
0.000375336
0.000375664
0.000375994
0.000376323
0.000376652
0.000376981
0.000377311
0.000377642
0.000377975
0.000378311
0.00037865
0.000378995
0.000379348
0.000379709
0.00038008
0.000380464
0.000380862
0.000381277
0.000381709
0.000382162
0.000382636
0.000383134
0.000383657
0.000384207
0.000384786
0.000385393
0.000386032
0.000386702
0.000387405
0.00038814
0.000388908
0.000389707
0.000390536
0.000391392
0.00039227
0.000393163
0.000394062
0.000394955
0.000395824
0.00039665
0.000397406
0.000398059
0.000398573
0.000398908
0.000399018
0.000398849
0.000398344
0.000397437
0.000396058
0.000394129
0.000391568
0.000388288
0.000384194
0.000379185
0.000373153
0.000365976
0.00035752
0.000347627
0.000336111
0.000322727
0.000307139
0.000288824
0.0002669
0.000239754
0.000204355
0.000155152
8.42985e-05
9.46654e-06
5.17524e-06
6.28746e-05
0.000125515
0.000176165
0.00021763
0.000252248
0.000281438
0.000306093
0.000326825
0.000344092
0.000358269
0.000369688
0.000378652
0.000385448
0.00039035
0.000393619
0.000395503
0.000396228
0.000396001
0.000395006
0.000393402
0.000391321
0.00038887
0.000386131
0.000383205
0.000380207
0.000377208
0.000374265
0.000371427
0.000368728
0.000366196
0.000363849
0.000361701
0.000359756
0.000358015
0.000356475
0.000355127
0.000353962
0.000352967
0.000352129
0.000351433
0.000350863
0.000350406
0.000350048
0.000349774
0.000349575
0.000349438
0.000349355
0.000349318
0.00034932
0.000349354
0.000349417
0.000349505
0.000349614
0.000349741
0.000349883
0.000350038
0.000350205
0.000350385
0.000350577
0.00035078
0.000350994
0.000351219
0.000351453
0.000351696
0.000351947
0.000352205
0.000352469
0.000352737
0.000353009
0.000353284
0.00035356
0.000353838
0.000354117
0.000354397
0.000354676
0.000354957
0.000355238
0.00035552
0.000355805
0.000356092
0.000356384
0.000356681
0.000356985
0.000357296
0.000357618
0.000357949
0.000358293
0.000358649
0.000359019
0.000359403
0.0003598
0.000360212
0.000360636
0.000361073
0.000361521
0.000361978
0.000362443
0.000362914
0.000363387
0.000363862
0.000364335
0.000364805
0.000365269
0.000365725
0.000366172
0.000366607
0.000367031
0.000367442
0.00036784
0.000368225
0.000368597
0.000368957
0.000369305
0.000369643
0.000369972
0.000370294
0.000370609
0.00037092
0.000371228
0.000371535
0.000371841
0.000372147
0.000372455
0.000372765
0.000373078
0.000373393
0.000373712
0.000374033
0.000374356
0.000374682
0.000375009
0.000375337
0.000375665
0.000375995
0.000376324
0.000376653
0.000376982
0.000377312
0.000377643
0.000377976
0.000378311
0.000378651
0.000378996
0.000379349
0.000379709
0.000380081
0.000380465
0.000380863
0.000381278
0.00038171
0.000382163
0.000382637
0.000383135
0.000383658
0.000384208
0.000384786
0.000385394
0.000386032
0.000386703
0.000387405
0.00038814
0.000388908
0.000389708
0.000390537
0.000391393
0.00039227
0.000393164
0.000394063
0.000394955
0.000395825
0.000396651
0.000397407
0.000398059
0.000398574
0.000398909
0.000399018
0.00039885
0.000398345
0.000397438
0.000396059
0.00039413
0.00039157
0.000388289
0.000384195
0.000379187
0.000373154
0.000365977
0.000357521
0.000347629
0.000336112
0.000322729
0.00030714
0.000288825
0.0002669
0.000239754
0.000204353
0.00015515
8.42968e-05
9.46591e-06
6.51261e-06
6.96234e-05
0.000138649
0.000195279
0.00024195
0.000281046
0.000314092
0.000342066
0.00036564
0.000385319
0.00040151
0.000414572
0.000424834
0.000432611
0.000438207
0.000441915
0.000444017
0.000444778
0.000444441
0.000443224
0.00044132
0.000438889
0.000436066
0.000432959
0.000429655
0.000426285
0.000422927
0.000419644
0.000416484
0.000413485
0.000410674
0.000408069
0.000405682
0.000403517
0.000401575
0.00039985
0.000398335
0.000397019
0.000395888
0.000394928
0.000394124
0.000393461
0.000392922
0.000392493
0.000392161
0.000391912
0.000391735
0.00039162
0.000391557
0.00039154
0.000391562
0.000391618
0.000391701
0.00039181
0.00039194
0.000392088
0.000392251
0.000392428
0.00039262
0.000392825
0.000393042
0.000393272
0.000393513
0.000393764
0.000394026
0.000394296
0.000394574
0.000394859
0.00039515
0.000395446
0.000395745
0.000396048
0.000396353
0.000396661
0.00039697
0.000397281
0.000397594
0.000397909
0.000398227
0.000398548
0.000398873
0.000399204
0.000399541
0.000399886
0.00040024
0.000400604
0.000400979
0.000401366
0.000401766
0.00040218
0.000402607
0.000403048
0.000403502
0.000403968
0.000404446
0.000404934
0.00040543
0.000405932
0.000406439
0.000406947
0.000407454
0.000407959
0.000408459
0.000408951
0.000409435
0.000409908
0.000410369
0.000410817
0.000411251
0.000411672
0.000412079
0.000412474
0.000412855
0.000413226
0.000413586
0.000413937
0.000414281
0.00041462
0.000414954
0.000415286
0.000415617
0.000415947
0.000416279
0.000416612
0.000416948
0.000417287
0.000417629
0.000417974
0.000418322
0.000418672
0.000419025
0.00041938
0.000419735
0.000420092
0.00042045
0.000420807
0.000421166
0.000421524
0.000421884
0.000422246
0.000422611
0.000422979
0.000423352
0.000423732
0.000424121
0.00042452
0.000424931
0.000425356
0.000425799
0.000426259
0.000426741
0.000427246
0.000427776
0.000428334
0.000428922
0.000429541
0.000430195
0.000430884
0.000431611
0.000432377
0.000433185
0.000434035
0.000434928
0.000435864
0.000436843
0.000437861
0.000438915
0.000439999
0.000441105
0.000442219
0.000443327
0.000444406
0.00044543
0.000446367
0.000447183
0.000447835
0.000448277
0.000448453
0.000448304
0.000447761
0.000446749
0.000445185
0.000442978
0.000440028
0.000436226
0.000431447
0.000425551
0.000418379
0.000409743
0.000399423
0.000387143
0.000372553
0.000355172
0.000334293
0.000308783
0.000276719
0.000234713
0.000176937
9.58482e-05
1.17305e-05
6.51386e-06
6.96298e-05
0.000138656
0.000195285
0.000241956
0.000281052
0.000314096
0.000342069
0.000365643
0.000385321
0.000401511
0.000414573
0.000424834
0.000432611
0.000438206
0.000441915
0.000444017
0.000444777
0.00044444
0.000443224
0.000441319
0.000438888
0.000436065
0.000432958
0.000429654
0.000426285
0.000422927
0.000419644
0.000416484
0.000413485
0.000410674
0.000408069
0.000405682
0.000403518
0.000401575
0.000399851
0.000398336
0.000397019
0.000395889
0.000394929
0.000394125
0.000393461
0.000392922
0.000392494
0.000392161
0.000391912
0.000391735
0.00039162
0.000391558
0.000391541
0.000391563
0.000391618
0.000391702
0.00039181
0.00039194
0.000392088
0.000392251
0.000392429
0.00039262
0.000392825
0.000393043
0.000393272
0.000393513
0.000393765
0.000394026
0.000394296
0.000394575
0.00039486
0.00039515
0.000395446
0.000395746
0.000396048
0.000396354
0.000396661
0.000396971
0.000397282
0.000397595
0.00039791
0.000398227
0.000398548
0.000398874
0.000399204
0.000399542
0.000399887
0.00040024
0.000400604
0.000400979
0.000401366
0.000401766
0.00040218
0.000402607
0.000403048
0.000403502
0.000403969
0.000404447
0.000404934
0.00040543
0.000405933
0.000406439
0.000406947
0.000407455
0.000407959
0.000408459
0.000408952
0.000409435
0.000409908
0.000410369
0.000410817
0.000411252
0.000411672
0.00041208
0.000412474
0.000412855
0.000413226
0.000413586
0.000413937
0.000414282
0.00041462
0.000414954
0.000415286
0.000415617
0.000415947
0.000416279
0.000416612
0.000416948
0.000417287
0.000417629
0.000417974
0.000418322
0.000418672
0.000419025
0.00041938
0.000419736
0.000420092
0.00042045
0.000420807
0.000421166
0.000421525
0.000421885
0.000422246
0.000422611
0.000422979
0.000423352
0.000423732
0.000424121
0.00042452
0.000424931
0.000425356
0.000425799
0.000426259
0.000426741
0.000427246
0.000427776
0.000428334
0.000428922
0.000429541
0.000430194
0.000430884
0.000431611
0.000432377
0.000433185
0.000434035
0.000434928
0.000435864
0.000436842
0.00043786
0.000438915
0.000439999
0.000441105
0.000442219
0.000443327
0.000444406
0.000445429
0.000446367
0.000447183
0.000447835
0.000448277
0.000448454
0.000448304
0.000447761
0.000446749
0.000445185
0.000442979
0.000440029
0.000436227
0.000431448
0.000425552
0.00041838
0.000409745
0.000399424
0.000387144
0.000372554
0.000355173
0.000334293
0.000308782
0.000276718
0.00023471
0.000176934
9.58458e-05
1.17297e-05
7.80734e-06
7.59281e-05
0.000149973
0.000211063
0.000261548
0.00030389
0.000339708
0.000370052
0.00039565
0.000417041
0.000434661
0.000448888
0.000460069
0.000468534
0.000474604
0.000478594
0.000480808
0.000481538
0.000481054
0.000479604
0.000477407
0.00047465
0.000471489
0.00046805
0.000464428
0.000460751
0.000457103
0.000453549
0.00045014
0.000446912
0.00044389
0.000441092
0.000438527
0.000436197
0.000434102
0.000432235
0.000430587
0.000429147
0.000427902
0.000426836
0.000425934
0.00042518
0.00042456
0.000424057
0.000423659
0.000423351
0.000423123
0.000422963
0.000422862
0.000422812
0.000422806
0.000422838
0.000422903
0.000422996
0.000423114
0.000423253
0.00042341
0.000423584
0.000423773
0.000423977
0.000424196
0.000424428