/*--------------------------------*- C++ -*----------------------------------*\
  =========                 |
  \\      /  F ield         | OpenFOAM: The Open Source CFD Toolbox
   \\    /   O peration     | Website:  https://openfoam.org
    \\  /    A nd           | Version:  8
     \\/     M anipulation  |
\*---------------------------------------------------------------------------*/
FoamFile
{
    version     2.0;
    format      ascii;
    class       volScalarField;
    location    "500";
    object      epsilon;
}
// * * * * * * * * * * * * * * * * * * * * * * * * * * * * * * * * * * * * * //

dimensions      [0 2 -3 0 0 0 0];

internalField   nonuniform List<scalar> 
46000
(
7.77578
28.2794
57.347
89.8572
121.869
152.845
180.934
207.14
231.59
254.318
275.328
294.617
312.176
327.995
342.072
354.408
365.016
373.919
381.155
386.771
390.829
393.412
394.743
395.209
394.661
393.101
390.612
387.316
383.353
378.872
374.018
368.927
363.723
358.516
353.397
348.441
343.709
339.242
335.071
331.212
327.673
324.453
321.545
318.936
316.612
314.555
312.749
311.176
309.817
308.657
307.681
306.873
306.222
305.714
305.339
305.089
304.979
304.983
305.083
305.27
305.538
305.878
306.285
306.754
307.277
307.85
308.465
309.118
309.801
310.51
311.238
311.98
312.731
313.487
314.244
314.997
315.746
316.488
317.221
317.946
318.664
319.376
320.085
320.793
321.506
322.227
322.962
323.715
324.493
325.299
326.14
327.02
327.943
328.912
329.929
330.995
332.112
333.277
334.488
335.743
337.037
338.365
339.721
341.099
342.492
343.895
345.299
346.699
348.089
349.463
350.818
352.148
353.452
354.727
355.972
357.188
358.374
359.532
360.664
361.773
362.861
363.933
364.991
366.038
367.078
368.112
369.144
370.175
371.206
372.239
373.272
374.308
375.345
376.382
377.42
378.456
379.491
380.523
381.553
382.581
383.608
384.635
385.664
386.698
387.739
388.791
389.859
390.946
392.057
393.197
394.37
395.581
396.835
398.134
399.482
400.882
402.337
403.848
405.415
407.037
408.714
410.44
412.211
414.02
415.858
417.71
419.56
421.386
423.159
424.847
426.404
427.781
428.925
429.815
430.344
430.383
429.801
428.457
426.197
422.853
418.246
412.19
404.499
394.991
383.499
369.881
354.03
335.883
315.432
292.736
267.93
241.238
212.978
183.573
153.488
122.693
92.1778
63.0596
35.1859
11.3591
7.77683
28.2832
57.3549
89.8682
121.883
152.86
180.95
207.156
231.606
254.332
275.341
294.628
312.185
328.004
342.08
354.416
365.024
373.927
381.161
386.776
390.834
393.416
394.747
395.213
394.665
393.105
390.616
387.319
383.357
378.877
374.022
368.932
363.728
358.52
353.401
348.446
343.713
339.247
335.075
331.217
327.678
324.458
321.55
318.941
316.617
314.561
312.756
311.182
309.824
308.664
307.688
306.88
306.229
305.721
305.345
305.095
304.986
304.989
305.089
305.277
305.544
305.884
306.292
306.76
307.284
307.856
308.472
309.124
309.808
310.516
311.244
311.987
312.738
313.494
314.25
315.004
315.753
316.494
317.227
317.953
318.67
319.382
320.091
320.8
321.513
322.234
322.968
323.722
324.499
325.306
326.147
327.027
327.949
328.918
329.935
331.002
332.118
333.283
334.495
335.75
337.044
338.371
339.728
341.106
342.499
343.901
345.306
346.706
348.095
349.47
350.824
352.155
353.458
354.734
355.979
357.194
358.38
359.538
360.67
361.779
362.868
363.939
364.997
366.044
367.084
368.119
369.15
370.181
371.212
372.244
373.278
374.314
375.351
376.388
377.426
378.462
379.497
380.529
381.559
382.587
383.614
384.641
385.67
386.703
387.745
388.797
389.865
390.951
392.063
393.203
394.376
395.587
396.84
398.139
399.487
400.887
402.342
403.853
405.42
407.043
408.719
410.445
412.216
414.025
415.863
417.715
419.565
421.39
423.164
424.851
426.409
427.786
428.93
429.82
430.348
430.387
429.806
428.463
426.203
422.858
418.251
412.195
404.504
394.996
383.504
369.887
354.035
335.887
315.436
292.74
267.935
241.243
212.983
183.578
153.493
122.696
92.1805
63.0612
35.1856
11.3588
27.4177
25.6604
37.5963
51.6137
66.0786
80.6168
94.891
108.885
122.578
135.933
148.902
161.424
173.425
184.825
195.536
205.47
214.542
222.674
229.801
235.874
240.863
244.769
247.66
249.642
250.695
250.848
250.163
248.727
246.644
244.025
240.984
237.632
234.071
230.397
226.692
223.026
219.456
216.028
212.776
209.725
206.889
204.277
201.89
199.725
197.776
196.033
194.487
193.126
191.937
190.909
190.03
189.288
188.673
188.175
187.786
187.499
187.312
187.213
187.193
187.244
187.36
187.535
187.763
188.04
188.361
188.721
189.116
189.541
189.991
190.463
190.951
191.453
191.963
192.479
192.997
193.515
194.029
194.539
195.043
195.54
196.029
196.512
196.99
197.463
197.935
198.407
198.884
199.368
199.863
200.372
200.9
201.451
202.026
202.63
203.266
203.933
204.636
205.372
206.143
206.948
207.784
208.649
209.54
210.454
211.387
212.334
213.291
214.254
215.217
216.177
217.131
218.073
219.002
219.916
220.811
221.687
222.543
223.38
224.197
224.996
225.778
226.544
227.297
228.038
228.77
229.494
230.213
230.927
231.639
232.35
233.059
233.769
234.479
235.19
235.9
236.61
237.32
238.03
238.738
239.446
240.153
240.861
241.57
242.281
242.996
243.717
244.447
245.187
245.941
246.712
247.503
248.316
249.155
250.022
250.92
251.851
252.816
253.818
254.855
255.93
257.039
258.181
259.353
260.55
261.766
262.992
264.217
265.427
266.603
267.723
268.76
269.682
270.453
271.044
271.394
271.431
271.073
270.233
268.813
266.711
263.817
260.02
255.21
249.283
242.147
233.728
223.975
212.866
200.412
186.656
171.678
155.593
138.554
120.757
102.445
83.932
65.8888
49.4287
36.723
43.328
27.4214
25.6619
37.5997
51.6182
66.0839
80.6227
94.8973
108.892
122.584
135.939
148.908
161.429
173.43
184.829
195.54
205.474
214.545
222.677
229.804
235.876
240.865
244.771
247.661
249.643
250.696
250.848
250.163
248.728
246.645
244.026
240.985
237.633
234.073
230.399
226.693
223.027
219.457
216.03
212.778
209.727
206.891
204.279
201.892
199.727
197.778
196.035
194.489
193.128
191.939
190.911
190.032
189.29
188.675
188.178
187.789
187.501
187.314
187.215
187.195
187.246
187.362
187.537
187.765
188.042
188.363
188.723
189.118
189.543
189.993
190.465
190.954
191.455
191.965
192.481
193
193.517
194.032
194.542
195.045
195.542
196.032
196.515
196.992
197.466
197.937
198.41
198.886
199.37
199.865
200.375
200.903
201.453
202.029
202.633
203.268
203.936
204.638
205.375
206.146
206.95
207.786
208.651
209.543
210.457
211.39
212.337
213.294
214.256
215.219
216.18
217.133
218.076
219.005
219.918
220.813
221.69
222.546
223.382
224.2
224.998
225.78
226.546
227.299
228.04
228.772
229.496
230.215
230.929
231.641
232.352
233.062
233.771
234.481
235.192
235.902
236.613
237.323
238.032
238.74
239.448
240.156
240.863
241.572
242.283
242.998
243.72
244.449
245.189
245.944
246.714
247.505
248.318
249.157
250.024
250.922
251.852
252.818
253.819
254.857
255.931
257.041
258.183
259.355
260.552
261.768
262.994
264.219
265.428
266.604
267.725
268.762
269.684
270.455
271.045
271.396
271.433
271.075
270.235
268.815
266.713
263.819
260.022
255.212
249.285
242.149
233.73
223.977
212.868
200.413
186.658
171.68
155.595
138.557
120.759
102.448
83.9349
65.8918
49.4314
36.725
43.326
49.3093
35.5277
42.9373
53.2075
64.4866
76.1911
88.0172
99.8151
111.501
123.021
134.325
145.367
156.091
166.433
176.319
185.668
194.396
202.418
209.655
216.036
221.506
226.032
229.611
232.272
234.023
234.893
234.935
234.222
232.842
230.892
228.474
225.689
222.636
219.405
216.079
212.729
209.416
206.19
203.091
200.148
197.383
194.809
192.434
190.26
188.284
186.503
184.909
183.492
182.245
181.156
180.215
179.412
178.738
178.182
177.738
177.396
177.151
176.995
176.92
176.92
176.986
177.114
177.299
177.534
177.815
178.138
178.496
178.887
179.305
179.745
180.205
180.678
181.162
181.653
182.147
182.643
183.136
183.625
184.109
184.586
185.056
185.52
185.977
186.429
186.877
187.325
187.775
188.229
188.692
189.166
189.656
190.164
190.695
191.25
191.834
192.447
193.091
193.769
194.478
195.22
195.993
196.796
197.625
198.478
199.352
200.242
201.145
202.057
202.973
203.889
204.802
205.708
206.604
207.488
208.356
209.208
210.042
210.857
211.655
212.435
213.198
213.945
214.678
215.399
216.108
216.809
217.503
218.191
218.874
219.555
220.234
220.911
221.588
222.264
222.939
223.614
224.289
224.963
225.636
226.308
226.981
227.653
228.327
229.002
229.681
230.365
231.057
231.758
232.47
233.198
233.942
234.707
235.494
236.307
237.147
238.017
238.918
239.851
240.817
241.816
242.847
243.907
244.994
246.104
247.23
248.364
249.496
250.612
251.695
252.725
253.677
254.519
255.218
255.734
256.013
255.993
255.603
254.763
253.389
251.389
248.668
245.13
240.684
235.243
228.737
221.109
212.326
202.376
191.275
179.064
165.809
151.603
136.572
120.9
104.865
88.9383
73.9662
61.4992
55.5982
87.941
49.3144
35.53
42.9405
53.2112
64.4904
76.1951
88.0212
99.8191
111.505
123.024
134.329
145.37
156.094
166.435
176.321
185.67
194.398
202.42
209.656
216.036
221.506
226.032
229.611
232.272
234.023
234.892
234.935
234.222
232.842
230.892
228.473
225.689
222.636
219.405
216.079
212.729
209.416
206.19
203.091
200.148
197.383
194.809
192.434
190.26
188.285
186.503
184.909
183.493
182.245
181.156
180.215
179.413
178.738
178.183
177.738
177.396
177.152
176.996
176.921
176.92
176.987
177.115
177.299
177.534
177.816
178.138
178.497
178.888
179.305
179.746
180.205
180.679
181.163
181.653
182.148
182.643
183.136
183.626
184.109
184.587
185.057
185.52
185.977
186.429
186.878
187.326
187.775
188.23
188.692
189.167
189.656
190.165
190.695
191.251
191.834
192.447
193.092
193.769
194.479
195.221
195.994
196.796
197.625
198.479
199.352
200.242
201.145
202.057
202.973
203.89
204.803
205.709
206.605
207.488
208.356
209.208
210.042
210.858
211.655
212.435
213.198
213.945
214.678
215.399
216.109
216.809
217.503
218.191
218.875
219.555
220.234
220.911
221.588
222.264
222.94
223.615
224.289
224.963
225.636
226.309
226.981
227.653
228.327
229.002
229.681
230.366
231.057
231.758
232.471
233.198
233.943
234.707
235.494
236.307
237.147
238.017
238.918
239.851
240.817
241.816
242.847
243.907
244.994
246.104
247.23
248.364
249.496
250.612
251.695
252.726
253.677
254.519
255.218
255.734
256.013
255.993
255.603
254.763
253.389
251.389
248.668
245.13
240.684
235.243
228.737
221.109
212.326
202.376
191.275
179.064
165.809
151.603
136.573
120.9
104.865
88.9383
73.966
61.4988
55.5973
87.9345
71.9615
48.1346
52.558
61.2234
71.3402
82.0691
93.0082
103.937
114.732
125.325
135.675
145.757
155.544
165.004
174.097
182.769
190.96
198.6
205.619
211.945
217.517
222.285
226.215
229.296
231.524
232.916
233.512
233.369
232.557
231.159
229.264
226.965
224.35
221.506
218.514
215.445
212.362
209.318
206.356
203.51
200.807
198.265
195.897
193.709
191.704
189.88
188.234
186.76
185.45
184.298
183.293
182.428
181.693
181.08
180.581
180.188
179.893
179.691
179.572
179.532
179.563
179.659
179.816
180.026
180.286
180.591
180.934
181.312
181.72
182.153
182.606
183.076
183.559
184.05
184.546
185.045
185.543
186.038
186.529
187.014
187.493
187.965
188.431
188.892
189.35
189.806
190.264
190.725
191.193
191.671
192.164
192.673
193.203
193.755
194.334
194.941
195.578
196.246
196.946
197.676
198.437
199.227
200.044
200.885
201.747
202.627
203.521
204.425
205.335
206.247
207.159
208.065
208.963
209.851
210.726
211.586
212.43
213.257
214.067
214.86
215.637
216.398
217.144
217.878
218.601
219.314
220.018
220.716
221.409
222.097
222.782
223.465
224.146
224.826
225.504
226.181
226.857
227.533
228.207
228.881
229.554
230.228
230.903
231.58
232.26
232.946
233.639
234.341
235.054
235.782
236.527
237.291
238.078
238.889
239.726
240.592
241.489
242.418
243.378
244.371
245.395
246.448
247.529
248.631
249.75
250.878
252.003
253.115
254.195
255.223
256.173
257.017
257.717
258.231
258.508
258.488
258.105
257.284
255.945
254.004
251.373
247.967
243.703
238.509
232.324
225.101
216.813
207.451
197.026
185.566
173.118
159.754
145.584
130.79
115.69
100.856
87.3149
77.1193
76.5638
135.265
71.9686
48.1374
52.5614
61.227
71.3437
82.0726
93.0116
103.94
114.735
125.327
135.678
145.759
155.546
165.006
174.098
182.77
190.96
198.6
205.618
211.944
217.516
222.283
226.214
229.295
231.522
232.914
233.51
233.367
232.555
231.157
229.263
226.963
224.348
221.505
218.513
215.444
212.361
209.317
206.354
203.509
200.806
198.264
195.896
193.708
191.703
189.879
188.233
186.759
185.449
184.297
183.292
182.427
181.692
181.079
180.58
180.187
179.892
179.69
179.571
179.531
179.562
179.658
179.815
180.025
180.286
180.59
180.933
181.311
181.719
182.152
182.605
183.075
183.558
184.049
184.545
185.044
185.542
186.037
186.528
187.013
187.492
187.964
188.43
188.891
189.349
189.805
190.263
190.724
191.192
191.67
192.163
192.672
193.201
193.754
194.333
194.94
195.577
196.245
196.945
197.675
198.436
199.226
200.043
200.884
201.746
202.626
203.52
204.424
205.334
206.246
207.158
208.064
208.962
209.85
210.725
211.585
212.429
213.256
214.066
214.859
215.635
216.396
217.143
217.877
218.6
219.313
220.017
220.715
221.408
222.096
222.781
223.464
224.145
224.824
225.503
226.18
226.856
227.531
228.206
228.879
229.553
230.227
230.901
231.578
232.259
232.944
233.637
234.339
235.053
235.781
236.526
237.29
238.076
238.887
239.725
240.591
241.488
242.416
243.377
244.37
245.394
246.447
247.527
248.63
249.749
250.876
252.002
253.113
254.193
255.221
256.172
257.016
257.716
258.23
258.506
258.487
258.104
257.283
255.944
254.003
251.372
247.965
243.702
238.508
232.322
225.1
216.812
207.45
197.025
185.565
173.117
159.753
145.583
130.789
115.689
100.855
87.3136
77.1175
76.5608
135.254
94.9088
61.588
63.7735
71.4475
80.9106
91.0683
101.412
111.663
121.673
131.368
140.722
149.735
158.416
166.772
174.803
182.493
189.814
196.723
203.167
209.085
214.418
219.108
223.108
226.382
228.907
230.68
231.723
232.073
231.782
230.916
229.547
227.753
225.614
223.208
220.611
217.89
215.109
212.319
209.567
206.89
204.318
201.874
199.573
197.427
195.443
193.622
191.965
190.469
189.129
187.94
186.895
185.986
185.207
184.55
184.007
183.571
183.236
182.993
182.836
182.76
182.758
182.824
182.953
183.14
183.378
183.663
183.989
184.353
184.749
185.172
185.618
186.082
186.562
187.051
187.549
188.05
188.552
189.054
189.552
190.047
190.536
191.019
191.498
191.972
192.443
192.912
193.383
193.856
194.336
194.825
195.326
195.843
196.378
196.935
197.515
198.121
198.755
199.418
200.11
200.832
201.582
202.36
203.163
203.99
204.838
205.703
206.583
207.474
208.371
209.273
210.175
211.074
211.966
212.851
213.724
214.584
215.431
216.262
217.078
217.878
218.663
219.434
220.19
220.934
221.667
222.39
223.104
223.81
224.511
225.206
225.898
226.585
227.271
227.954
228.635
229.314
229.992
230.668
231.343
232.018
232.692
233.367
234.044
234.722
235.405
236.093
236.788
237.493
238.21
238.941
239.689
240.456
241.245
242.059
242.899
243.768
244.667
245.598
246.561
247.557
248.585
249.643
250.729
251.839
252.968
254.108
255.249
256.379
257.482
258.538
259.521
260.403
261.146
261.709
262.042
262.089
261.788
261.069
259.858
258.077
255.649
252.497
248.55
243.744
238.027
231.361
223.717
215.082
205.454
194.84
183.26
170.753
157.404
143.386
129.036
114.989
102.444
93.9602
98.059
182.216
94.9178
61.5913
63.7773
71.4513
80.9142
91.0717
101.415
111.666
121.676
131.37
140.724
149.736
158.417
166.773
174.803
182.493
189.814
196.722
203.165
209.083
214.416
219.106
223.105
226.38
228.904
230.678
231.72
232.07
231.78
230.913
229.544
227.75
225.611
223.206
220.608
217.888
215.106
212.317
209.565
206.888
204.316
201.872
199.571
197.425
195.441
193.62
191.963
190.467
189.127
187.938
186.893
185.984
185.205
184.548
184.005
183.57
183.234
182.991
182.835
182.758
182.756
182.823
182.952
183.138
183.376
183.661
183.988
184.351
184.747
185.17
185.616
186.08
186.56
187.05
187.547
188.048
188.55
189.052
189.55
190.045
190.534
191.017
191.496
191.97
192.441
192.91
193.381
193.854
194.334
194.823
195.324
195.841
196.376
196.933
197.513
198.119
198.753
199.416
200.108
200.83
201.58
202.358
203.161
203.988
204.836
205.701
206.581
207.472
208.369
209.271
210.173
211.071
211.964
212.848
213.722
214.582
215.429
216.26
217.076
217.876
218.661
219.431
220.188
220.932
221.665
222.387
223.101
223.808
224.509
225.204
225.895
226.583
227.268
227.951
228.632
229.311
229.989
230.666
231.341
232.016
232.69
233.365
234.041
234.72
235.402
236.09
236.786
237.491
238.208
238.939
239.687
240.454
241.243
242.056
242.897
243.766
244.665
245.596
246.559
247.555
248.583
249.641
250.727
251.837
252.966
254.106
255.247
256.377
257.48
258.535
259.519
260.401
261.144
261.706
262.039
262.087
261.786
261.067
259.856
258.075
255.647
252.495
248.547
243.742
238.025
231.358
223.715
215.08
205.452
194.838
183.258
170.751
157.402
143.384
129.034
114.988
102.442
93.9574
98.0542
182.201
118.424
75.3095
75.555
82.4742
91.4339
101.087
110.827
120.331
129.436
138.072
146.236
153.959
161.29
168.279
174.968
181.383
187.533
193.404
198.967
204.176
208.98
213.319
217.14
220.392
223.036
225.044
226.417
227.172
227.341
226.969
226.111
224.828
223.187
221.256
219.102
216.786
214.368
211.9
209.427
206.989
204.616
202.335
200.164
198.12
196.211
194.444
192.822
191.345
190.011
188.818
187.76
186.832
186.03
185.345
184.773
184.306
183.938
183.662
183.473
183.364
183.33
183.366
183.466
183.624
183.836
184.097
184.401
184.744
185.12
185.526
185.957
186.409
186.877
187.358
187.848
188.345
188.845
189.346
189.846
190.343
190.838
191.328
191.814
192.297
192.777
193.256
193.736
194.219
194.707
195.203
195.71
196.231
196.767
197.322
197.899
198.498
199.122
199.772
200.448
201.151
201.879
202.633
203.41
204.209
205.028
205.863
206.713
207.573
208.442
209.315
210.189
211.063
211.932
212.795
213.649
214.493
215.325
216.145
216.951
217.743
218.522
219.287
220.04
220.781
221.512
222.232
222.944
223.648
224.345
225.037
225.724
226.407
227.087
227.763
228.437
229.108
229.778
230.446
231.113
231.78
232.446
233.113
233.781
234.453
235.129
235.81
236.5
237.199
237.911
238.636
239.379
240.141
240.926
241.734
242.569
243.433
244.327
245.254
246.213
247.206
248.232
249.29
250.378
251.494
252.632
253.785
254.945
256.101
257.237
258.334
259.37
260.316
261.135
261.789
262.233
262.414
262.276
261.756
260.787
259.302
257.233
254.515
251.087
246.897
241.901
236.062
229.351
221.745
213.221
203.757
193.336
181.959
169.672
156.622
143.141
129.907
118.256
111.217
119.278
224.969
118.434
75.3137
75.5593
82.4782
91.4377
101.091
110.83
120.334
129.438
138.074
146.238
153.96
161.29
168.279
174.967
181.382
187.532
193.403
198.965
204.174
208.977
213.317
217.137
220.39
223.033
225.041
226.414
227.169
227.338
226.966
226.108
224.825
223.184
221.253
219.099
216.783
214.365
211.897
209.425
206.986
204.613
202.332
200.162
198.118
196.209
194.442
192.82
191.343
190.009
188.815
187.757
186.83
186.027
185.343
184.771
184.304
183.936
183.66
183.47
183.362
183.328
183.363
183.463
183.622
183.834
184.094
184.398
184.741
185.118
185.524
185.955
186.406
186.874
187.355
187.846
188.342
188.842
189.343
189.843
190.341
190.835
191.325
191.811
192.294
192.774
193.254
193.733
194.216
194.704
195.201
195.708
196.228
196.764
197.32
197.896
198.496
199.12
199.769
200.445
201.148
201.876
202.63
203.407
204.207
205.025
205.861
206.71
207.571
208.439
209.312
210.186
211.06
211.929
212.792
213.646
214.49
215.322
216.142
216.948
217.74
218.519
219.284
220.037
220.778
221.509
222.229
222.941
223.645
224.342
225.034
225.721
226.404
227.084
227.76
228.434
229.105
229.775
230.443
231.11
231.777
232.443
233.11
233.778
234.45
235.126
235.807
236.497
237.196
237.908
238.633
239.376
240.138
240.922
241.731
242.566
243.43
244.324
245.25
246.21
247.203
248.229
249.287
250.375
251.491
252.629
253.782
254.942
256.098
257.234
258.331
259.367
260.313
261.132
261.786
262.23
262.412
262.273
261.753
260.784
259.299
257.23
254.512
251.084
246.894
241.898
236.059
229.349
221.742
213.218
203.754
193.334
181.957
169.67
156.619
143.139
129.905
118.254
111.214
119.272
224.95
141.367
88.8084
87.3151
93.5829
102.068
111.18
120.226
128.851
136.888
144.284
151.061
157.29
163.059
168.466
173.594
178.513
183.266
187.871
192.323
196.594
200.642
204.411
207.843
210.88
213.47
215.561
217.135
218.187
218.729
218.784
218.388
217.586
216.429
214.973
213.273
211.386
209.364
207.255
205.105
202.95
200.825
198.755
196.763
194.867
193.079
191.408
189.86
188.438
187.144
185.976
184.932
184.009
183.203
182.509
181.922
181.436
181.045
180.744
180.528
180.39
180.327
180.332
180.401
180.529
180.712
180.943
181.218
181.534
181.884
182.265
182.673
183.103
183.552
184.015
184.49
184.973
185.462
185.954
186.447
186.94
187.432
187.921
188.408
188.893
189.376
189.858
190.341
190.826
191.316
191.812
192.318
192.834
193.364
193.91
194.473
195.056
195.66
196.285
196.933
197.604
198.298
199.013
199.75
200.506
201.279
202.068
202.87
203.683
204.504
205.33
206.159
206.989
207.816
208.639
209.456
210.266
211.066
211.856
212.635
213.403
214.159
214.903
215.637
216.36
217.073
217.777
218.473
219.16
219.842
220.517
221.187
221.852
222.513
223.171
223.825
224.477
225.127
225.776
226.423
227.069
227.716
228.364
229.014
229.667
230.325
230.99
231.662
232.345
233.04
233.75
234.476
235.222
235.99
236.782
237.601
238.448
239.327
240.237
241.182
242.161
243.175
244.224
245.306
246.419
247.559
248.721
249.898
251.079
252.251
253.398
254.499
255.527
256.45
257.233
257.835
258.211
258.311
258.08
257.465
256.406
254.85
252.744
250.04
246.696
242.676
237.945
232.469
226.21
219.123
211.149
202.23
192.317
181.407
169.605
157.223
144.953
134.246
128.545
140.082
264.394
141.379
88.8137
87.3199
93.5872
102.072
111.184
120.229
128.853
136.89
144.285
151.062
157.29
163.059
168.465
173.593
178.512
183.264
187.869
192.321
196.592
200.639
204.408
207.84
210.877
213.467
215.558
217.132
218.184
218.725
218.78
218.384
217.582
216.426
214.969
213.27
211.383
209.36
207.252
205.102
202.947
200.822
198.752
196.76
194.864
193.076
191.405
189.857
188.435
187.141
185.973
184.929
184.006
183.2
182.506
181.919
181.433
181.043
180.742
180.525
180.387
180.324
180.329
180.398
180.527
180.709
180.94
181.216
181.531
181.881
182.262
182.67
183.1
183.549
184.012
184.487
184.97
185.459
185.951
186.444
186.937
187.429
187.918
188.405
188.89
189.372
189.855
190.338
190.823
191.313
191.809
192.315
192.831
193.361
193.907
194.47
195.053
195.657
196.282
196.93
197.601
198.295
199.01
199.747
200.503
201.276
202.065
202.867
203.68
204.501
205.327
206.156
206.985
207.813
208.636
209.453
210.262
211.062
211.852
212.631
213.399
214.155
214.9
215.634
216.357
217.07
217.774
218.469
219.157
219.838
220.513
221.183
221.848
222.51
223.167
223.822
224.474
225.124
225.772
226.419
227.066
227.713
228.361
229.011
229.664
230.322
230.986
231.659
232.341
233.036
233.746
234.473
235.219
235.986
236.779
237.597
238.445
239.323
240.234
241.178
242.157
243.171
244.22
245.302
246.415
247.556
248.718
249.894
251.075
252.248
253.395
254.496
255.524
256.447
257.23
257.832
258.208
258.307
258.077
257.461
256.403
254.847
252.741
250.037
246.693
242.673
237.942
232.466
226.208
219.12
211.146
202.227
192.314
181.404
169.602
157.221
144.95
134.242
128.541
140.075
264.37
163.822
101.864
98.7198
104.369
112.36
120.866
129.115
136.733
143.56
149.564
154.804
159.389
163.452
167.134
170.563
173.846
177.062
180.257
183.448
186.627
189.758
192.793
195.673
198.332
200.711
202.742
204.384
205.613
206.42
206.81
206.799
206.415
205.694
204.677
203.41
201.94
200.312
198.57
196.756
194.905
193.05
191.219
189.435
187.717
186.08
184.535
183.091
181.753
180.524
179.406
178.399
177.501
176.71
176.022
175.434
174.941
174.538
174.22
173.982
173.821
173.731
173.708
173.747
173.843
173.993
174.192
174.435
174.718
175.036
175.386
175.764
176.165
176.586
177.024
177.475
177.937
178.407
178.882
179.36
179.841
180.322
180.802
181.282
181.76
182.238
182.715
183.193
183.674
184.157
184.646
185.141
185.645
186.16
186.687
187.227
187.784
188.357
188.948
189.557
190.185
190.831
191.496
192.179
192.878
193.592
194.321
195.061
195.812
196.57
197.334
198.103
198.873
199.643
200.411
201.175
201.934
202.687
203.432
204.169
204.897
205.616
206.325
207.025
207.716
208.397
209.071
209.737
210.395
211.047
211.693
212.333
212.969
213.6
214.227
214.851
215.473
216.092
216.709
217.326
217.942
218.559
219.177
219.797
220.422
221.052
221.688
222.333
222.989
223.656
224.339
225.038
225.757
226.497
227.262
228.052
228.872
229.723
230.606
231.524
232.479
233.47
234.499
235.564
236.665
237.8
238.964
240.151
241.355
242.563
243.762
244.934
246.058
247.105
248.044
248.842
249.46
249.859
249.995
249.824
249.303
248.39
247.048
245.243
242.943
240.119
236.739
232.762
228.135
222.782
216.612
209.515
201.388
192.171
181.916
170.894
159.793
150.152
145.78
160.465
301.142
163.835
101.871
98.7252
104.374
112.364
120.869
129.118
136.736
143.561
149.565
154.805
159.389
163.452
167.133
170.562
173.845
177.06
180.254
183.446
186.624
189.755
192.791
195.67
198.329
200.708
202.739
204.381
205.61
206.417
206.806
206.795
206.411
205.69
204.673
203.406
201.936
200.308
198.567
196.752
194.902
193.047
191.216
189.432
187.714
186.077
184.532
183.088
181.75
180.521
179.403
178.396
177.498
176.707
176.019
175.431
174.938
174.535
174.217
173.979
173.818
173.728
173.704
173.744
173.84
173.99
174.189
174.432
174.715
175.033
175.383
175.76
176.162
176.583
177.021
177.472
177.934
178.404
178.879
179.357
179.837
180.318
180.799
181.278
181.757
182.234
182.712
183.19
183.67
184.154
184.642
185.138
185.642
186.156
186.683
187.224
187.78
188.353
188.944
189.553
190.181
190.828
191.493
192.175
192.874
193.589
194.317
195.058
195.808
196.567
197.331
198.099
198.869
199.639
200.407
201.172
201.931
202.683
203.428
204.165
204.893
205.612
206.321
207.021
207.712
208.394
209.067
209.733
210.392
211.043
211.689
212.33
212.965
213.596
214.223
214.848
215.469
216.088
216.705
217.322
217.938
218.555
219.173
219.794
220.418
221.048
221.684
222.329
222.985
223.653
224.335
225.034
225.753
226.493
227.258
228.049
228.868
229.719
230.602
231.521
232.475
233.466
234.495
235.56
236.662
237.796
238.96
240.148
241.351
242.559
243.758
244.931
246.054
247.101
248.04
248.838
249.457
249.856
249.991
249.82
249.299
248.387
247.045
245.24
242.94
240.116
236.736
232.759
228.132
222.779
216.609
209.512
201.385
192.168
181.913
170.891
159.79
150.148
145.775
160.456
301.116
185.368
114.277
109.559
114.601
122.066
129.904
137.273
143.788
149.302
153.816
157.425
160.281
162.564
164.455
166.123
167.712
169.329
171.048
172.906
174.906
177.027
179.221
181.431
183.587
185.622
187.467
189.051
190.336
191.295
191.913
192.191
192.14
191.781
191.142
190.258
189.166
187.903
186.509
185.019
183.468
181.886
180.301
178.736
177.21
175.74
174.34
173.018
171.782
170.638
169.588
168.635
167.779
167.017
166.349
165.772
165.282
164.876
164.549
164.298
164.118
164.006
163.957
163.967
164.034
164.151
164.316
164.524
164.771
165.054
165.368
165.711
166.078
166.466
166.873
167.294
167.728
168.171
168.622
169.078
169.538
170.001
170.465
170.929
171.394
171.859
172.324
172.789
173.256
173.725
174.198
174.675
175.159
175.65
176.149
176.659
177.181
177.715
178.262
178.823
179.399
179.989
180.595
181.214
181.847
182.493
183.151
183.82
184.498
185.183
185.875
186.572
187.272
187.973
188.675
189.375
190.072
190.765
191.454
192.136
192.812
193.482
194.143
194.798
195.444
196.084
196.715
197.34
197.958
198.57
199.176
199.776
200.371
200.963
201.55
202.134
202.715
203.294
203.872
204.449
205.026
205.604
206.183
206.766
207.353
207.945
208.545
209.153
209.772
210.403
211.049
211.712
212.393
213.096
213.823
214.576
215.357
216.17
217.016
217.898
218.817
219.775
220.773
221.812
222.893
224.013
225.17
226.362
227.581
228.821
230.071
231.317
232.542
233.724
234.837
235.856
236.75
237.491
238.047
238.388
238.486
238.314
237.849
237.074
235.967
234.508
232.666
230.393
227.618
224.241
220.128
215.122
209.06
201.819
193.385
183.978
174.263
165.837
162.828
180.393
335.35
185.384
114.284
109.565
114.606
122.07
129.908
137.276
143.791
149.304
153.817
157.426
160.281
162.563
164.454
166.122
167.71
169.327
171.046
172.903
174.904
177.024
179.219
181.428
183.584
185.618
187.464
189.048
190.333
191.291
191.91
192.188
192.137
191.778
191.139
190.255
189.162
187.9
186.505
185.016
183.465
181.883
180.298
178.733
177.207
175.737
174.336
173.014
171.779
170.635
169.585
168.632
167.775
167.014
166.346
165.769
165.279
164.873
164.546
164.295
164.115
164.002
163.954
163.964
164.03
164.148
164.313
164.521
164.768
165.051
165.365
165.708
166.075
166.463
166.869
167.291
167.724
168.168
168.619
169.075
169.535
169.998
170.462
170.926
171.391
171.855
172.32
172.786
173.253
173.722
174.195
174.672
175.155
175.646
176.146
176.656
177.177
177.711
178.258
178.82
179.395
179.986
180.591
181.211
181.844
182.49
183.148
183.816
184.494
185.18
185.872
186.568
187.268
187.97
188.671
189.371
190.068
190.761
191.45
192.133
192.809
193.478
194.14
194.794
195.441
196.08
196.712
197.336
197.954
198.566
199.172
199.772
200.368
200.959
201.546
202.13
202.711
203.29
203.868
204.445
205.022
205.6
206.179
206.762
207.349
207.942
208.541
209.149
209.768
210.4
211.045
211.708
212.389
213.092
213.819
214.572
215.354
216.166
217.012
217.894
218.813
219.771
220.769
221.809
222.889
224.009
225.167
226.358
227.578
228.818
230.068
231.314
232.539
233.721
234.834
235.852
236.747
237.488
238.044
238.385
238.482
238.31
237.846
237.071
235.964
234.505
232.663
230.39
227.615
224.238
220.126
215.119
209.057
201.816
193.382
183.975
174.259
165.833
162.822
180.383
335.32
205.625
125.882
119.69
124.14
131.06
138.19
144.627
149.983
154.132
157.11
159.054
160.16
160.652
160.753
160.668
160.572
160.599
160.843
161.358
162.158
163.23
164.53
166
167.57
169.166
170.716
172.132
173.36
174.359
175.098
175.563
175.75
175.667
175.329
174.759
173.987
173.042
171.956
170.761
169.488
168.164
166.815
165.464
164.132
162.833
161.583
160.392
159.269
158.221
157.252
156.365
155.561
154.841
154.204
153.648
153.171
152.77
152.442
152.184
151.991
151.861
151.791
151.777
151.814
151.901
152.032
152.205
152.416
152.662
152.939
153.243
153.573
153.925
154.295
154.682
155.083
155.494
155.915
156.344
156.778
157.215
157.656
158.099
158.542
158.987
159.432
159.877
160.324
160.771
161.221
161.673
162.129
162.589
163.055
163.527
164.007
164.496
164.994
165.501
166.019
166.548
167.088
167.639
168.201
168.773
169.356
169.947
170.547
171.155
171.768
172.387
173.011
173.637
174.265