/*--------------------------------*- C++ -*----------------------------------*\
  =========                 |
  \\      /  F ield         | OpenFOAM: The Open Source CFD Toolbox
   \\    /   O peration     | Website:  https://openfoam.org
    \\  /    A nd           | Version:  8
     \\/     M anipulation  |
\*---------------------------------------------------------------------------*/
FoamFile
{
    version     2.0;
    format      ascii;
    class       volScalarField;
    location    "500";
    object      k;
}
// * * * * * * * * * * * * * * * * * * * * * * * * * * * * * * * * * * * * * //

dimensions      [0 2 -2 0 0 0 0];

internalField   nonuniform List<scalar> 
46000
(
0.00614803
0.0235107
0.04767
0.074711
0.101341
0.127119
0.150493
0.172301
0.192651
0.211568
0.229058
0.245117
0.259737
0.272911
0.284635
0.294912
0.303752
0.311173
0.317206
0.321892
0.325281
0.327441
0.328556
0.328951
0.328502
0.327211
0.325145
0.322407
0.319113
0.315385
0.311346
0.307107
0.302773
0.298434
0.294168
0.290037
0.28609
0.282364
0.278884
0.275663
0.272708
0.270019
0.267589
0.265409
0.263466
0.261746
0.260235
0.258918
0.25778
0.256808
0.255989
0.255312
0.254764
0.254336
0.254019
0.253806
0.253711
0.25371
0.25379
0.253943
0.254162
0.254443
0.254779
0.255167
0.2556
0.256075
0.256586
0.257127
0.257695
0.258284
0.258889
0.259506
0.260131
0.260759
0.261389
0.262017
0.26264
0.263258
0.263869
0.264474
0.265073
0.265667
0.266258
0.266849
0.267444
0.268046
0.268659
0.269288
0.269936
0.270609
0.271311
0.272045
0.272814
0.273622
0.27447
0.275359
0.276289
0.277259
0.278269
0.279314
0.280392
0.281498
0.282627
0.283775
0.284936
0.286104
0.287273
0.28844
0.289598
0.290743
0.291872
0.29298
0.294067
0.29513
0.296168
0.297182
0.298171
0.299136
0.300081
0.301006
0.301914
0.302808
0.303691
0.304565
0.305432
0.306295
0.307156
0.308016
0.308877
0.309738
0.310601
0.311465
0.31233
0.313196
0.314062
0.314927
0.31579
0.316652
0.317512
0.31837
0.319227
0.320085
0.320945
0.321808
0.322679
0.323558
0.324451
0.32536
0.326289
0.327243
0.328224
0.329237
0.330286
0.331373
0.332501
0.333673
0.334891
0.336155
0.337466
0.338824
0.340227
0.341672
0.343155
0.344669
0.346207
0.347758
0.349307
0.350835
0.352321
0.353734
0.355039
0.356193
0.357152
0.357898
0.358342
0.358377
0.357893
0.356772
0.354886
0.352095
0.34825
0.343197
0.336779
0.328847
0.319263
0.307908
0.294695
0.27957
0.26253
0.243625
0.222967
0.200743
0.177221
0.15275
0.127717
0.102093
0.0767134
0.05248
0.0292835
0.00898191
0.00614985
0.0235115
0.0476786
0.0747211
0.10135
0.127129
0.150503
0.172312
0.192661
0.211579
0.229068
0.245126
0.259746
0.27292
0.284644
0.294921
0.30376
0.311181
0.317213
0.321898
0.325287
0.327447
0.328561
0.328955
0.328506
0.327215
0.32515
0.322411
0.319117
0.315389
0.31135
0.307111
0.302777
0.298439
0.294173
0.290042
0.286095
0.282369
0.278889
0.275668
0.272714
0.270025
0.267595
0.265415
0.263472
0.261752
0.260241
0.258924
0.257787
0.256815
0.255996
0.255318
0.254771
0.254343
0.254026
0.253813
0.253718
0.253717
0.253797
0.25395
0.254169
0.25445
0.254786
0.255174
0.255607
0.256082
0.256593
0.257134
0.257702
0.258291
0.258896
0.259513
0.260138
0.260766
0.261396
0.262024
0.262647
0.263265
0.263876
0.264481
0.265079
0.265673
0.266265
0.266856
0.267451
0.268053
0.268666
0.269295
0.269943
0.270616
0.271318
0.272052
0.272821
0.273629
0.274477
0.275366
0.276296
0.277266
0.278276
0.279321
0.280399
0.281504
0.282634
0.283782
0.284942
0.28611
0.28728
0.288447
0.289605
0.29075
0.291878
0.292987
0.294074
0.295137
0.296175
0.297188
0.298177
0.299143
0.300087
0.301012
0.301921
0.302815
0.303697
0.304571
0.305438
0.306302
0.307162
0.308023
0.308883
0.309744
0.310607
0.311471
0.312337
0.313202
0.314068
0.314933
0.315796
0.316658
0.317518
0.318376
0.319233
0.320091
0.320951
0.321814
0.322685
0.323564
0.324457
0.325366
0.326295
0.327249
0.32823
0.329243
0.330292
0.331379
0.332507
0.333679
0.334897
0.336161
0.337472
0.33883
0.340233
0.341678
0.34316
0.344674
0.346212
0.347763
0.349312
0.35084
0.352326
0.353739
0.355044
0.356198
0.357157
0.357903
0.358347
0.358382
0.357898
0.356778
0.354892
0.352101
0.348255
0.343202
0.336784
0.328853
0.319268
0.307914
0.2947
0.279576
0.262536
0.24363
0.222971
0.200747
0.177224
0.152752
0.12772
0.102095
0.0767135
0.0524786
0.0292786
0.00898013
0.02094
0.0856051
0.141794
0.191514
0.237178
0.279618
0.319005
0.355586
0.389542
0.421004
0.450058
0.476757
0.501136
0.523211
0.542994
0.560495
0.575731
0.588727
0.599521
0.608168
0.614735
0.6193
0.621941
0.622888
0.622351
0.620464
0.617388
0.613302
0.608391
0.602838
0.596822
0.590504
0.584035
0.577544
0.571143
0.564923
0.558958
0.553303
0.547996
0.543062
0.538515
0.534358
0.530584
0.527184
0.524141
0.521438
0.519056
0.516972
0.515168
0.513624
0.51232
0.511238
0.510363
0.509679
0.509171
0.508825
0.508632
0.508582
0.508663
0.508864
0.509175
0.509587
0.510091
0.510679
0.511342
0.512072
0.512861
0.513701
0.514583
0.515499
0.516443
0.517406
0.518383
0.519367
0.520352
0.521335
0.522311
0.523278
0.524234
0.525178
0.526112
0.527036
0.527953
0.528866
0.529782
0.530704
0.531639
0.532593
0.533572
0.534584
0.535635
0.53673
0.537876
0.539076
0.540333
0.541651
0.543029
0.544467
0.545964
0.547515
0.549117
0.550764
0.552449
0.554166
0.555905
0.55766
0.559422
0.561183
0.562936
0.564673
0.56639
0.568079
0.569737
0.571362
0.57295
0.574501
0.576015
0.577493
0.578937
0.58035
0.581734
0.583093
0.584431
0.585752
0.587059
0.588356
0.589645
0.590929
0.592211
0.593491
0.594771
0.59605
0.59733
0.59861
0.599888
0.601166
0.602441
0.603714
0.604985
0.606253
0.607521
0.60879
0.610062
0.611339
0.612625
0.613925
0.615242
0.616583
0.617952
0.619355
0.620796
0.622283
0.623819
0.62541
0.627059
0.628771
0.630548
0.632392
0.634303
0.636281
0.638324
0.640427
0.642585
0.644788
0.647024
0.649277
0.651527
0.653745
0.655898
0.657943
0.659829
0.661492
0.662865
0.663852
0.664325
0.664154
0.663187
0.661253
0.658165
0.653718
0.647694
0.639867
0.630008
0.617896
0.603325
0.586117
0.566128
0.543261
0.517471
0.488775
0.457248
0.423031
0.386319
0.347359
0.306411
0.263675
0.21904
0.1708
0.11166
0.0329589
0.020948
0.0856121
0.141807
0.191529
0.237195
0.279636
0.319023
0.355603
0.389559
0.421021
0.450073
0.476772
0.501149
0.523223
0.543005
0.560505
0.575739
0.588734
0.599528
0.608174
0.61474
0.619305
0.621945
0.622892
0.622355
0.620468
0.617392
0.613306
0.608395
0.602842
0.596826
0.590509
0.58404
0.577549
0.571148
0.564929
0.558964
0.553308
0.548001
0.543068
0.538522
0.534364
0.530591
0.52719
0.524148
0.521445
0.519062
0.516979
0.515175
0.513631
0.512327
0.511246
0.510371
0.509687
0.509178
0.508833
0.508639
0.50859
0.508671
0.508872
0.509183
0.509595
0.510099
0.510687
0.51135
0.51208
0.512869
0.513708
0.51459
0.515507
0.516451
0.517414
0.518391
0.519375
0.52036
0.521343
0.522319
0.523286
0.524242
0.525186
0.526119
0.527043
0.52796
0.528874
0.529789
0.530711
0.531646
0.5326
0.53358
0.534592
0.535643
0.536738
0.537883
0.539083
0.540341
0.541658
0.543037
0.544475
0.545971
0.547523
0.549125
0.550772
0.552457
0.554173
0.555913
0.557668
0.55943
0.561191
0.562944
0.564681
0.566397
0.568086
0.569745
0.571369
0.572958
0.574509
0.576023
0.577501
0.578945
0.580357
0.581741
0.5831
0.584439
0.585759
0.587067
0.588363
0.589652
0.590937
0.592218
0.593498
0.594778
0.596057
0.597337
0.598617
0.599895
0.601173
0.602448
0.603721
0.604991
0.60626
0.607528
0.608797
0.610068
0.611346
0.612632
0.613932
0.615249
0.61659
0.617959
0.619361
0.620803
0.622289
0.623826
0.625416
0.627066
0.628777
0.630554
0.632398
0.634309
0.636287
0.63833
0.640433
0.642591
0.644794
0.64703
0.649283
0.651532
0.65375
0.655904
0.657949
0.659834
0.661497
0.66287
0.663857
0.664331
0.664159
0.663192
0.661259
0.658171
0.653724
0.6477
0.639873
0.630014
0.617902
0.603331
0.586123
0.566134
0.543266
0.517477
0.48878
0.457254
0.423036
0.386324
0.347363
0.306415
0.263679
0.219043
0.170802
0.11166
0.0329563
0.03797
0.132968
0.202601
0.262907
0.318533
0.370409
0.418759
0.463709
0.505382
0.543899
0.579373
0.611904
0.641576
0.668458
0.692605
0.714064
0.732879
0.749096
0.762765
0.773946
0.78271
0.78914
0.793333
0.795398
0.795622
0.794176
0.791257
0.787071
0.781833
0.775755
0.769041
0.761886
0.754464
0.746934
0.739432
0.732073
0.724952
0.718143
0.711702
0.705667
0.700062
0.694899
0.690181
0.685899
0.682042
0.678594
0.675535
0.672843
0.670497
0.668474
0.666753
0.665314
0.664136
0.663201
0.66249
0.661988
0.661678
0.661549
0.661587
0.661779
0.662113
0.662578
0.663162
0.663854
0.664644
0.66552
0.666474
0.667493
0.668569
0.669691
0.670849
0.672035
0.673241
0.674458
0.675681
0.676902
0.678118
0.679324
0.680518
0.6817
0.682868
0.684026
0.685175
0.686319
0.687464
0.688616
0.689781
0.690966
0.692181
0.693431
0.694725
0.696069
0.697471
0.698935
0.700466
0.702066
0.703736
0.705478
0.707288
0.709163
0.711099
0.71309
0.715127
0.717204
0.719311
0.721438
0.723577
0.725718
0.727853
0.729973
0.73207
0.734139
0.736174
0.73817
0.740126
0.742039
0.743909
0.745737
0.747524
0.749273
0.750988
0.752671
0.754328
0.755962
0.757577
0.759177
0.760766
0.762346
0.76392
0.76549
0.767058
0.768624
0.770188
0.771751
0.773312
0.77487
0.776426
0.777979
0.779529
0.781078
0.782626
0.784175
0.785728
0.787289
0.788862
0.790451
0.792061
0.7937
0.795372
0.797085
0.798845
0.800659
0.802532
0.804471
0.806481
0.808567
0.810732
0.812978
0.815307
0.817719
0.82021
0.822778
0.825414
0.828109
0.830849
0.833614
0.836379
0.839112
0.841773
0.84431
0.84666
0.848747
0.850483
0.851742
0.852389
0.852269
0.851205
0.848998
0.845429
0.840262
0.833245
0.82412
0.812628
0.798517
0.781555
0.761534
0.738282
0.711672
0.681617
0.648082
0.611072
0.570632
0.526841
0.479809
0.429662
0.376484
0.320011
0.258489
0.184091
0.0671281
0.0379778
0.132981
0.202616
0.262923
0.318549
0.370425
0.418775
0.463725
0.505396
0.543912
0.579385
0.611916
0.641587
0.668467
0.692612
0.714071
0.732885
0.749101
0.762769
0.773949
0.782712
0.789142
0.793334
0.7954
0.795623
0.794177
0.791258
0.787072
0.781834
0.775756
0.769043
0.761887
0.754466
0.746936
0.739434
0.732075
0.724955
0.718146
0.711705
0.70567
0.700065
0.694903
0.690184
0.685903
0.682046
0.678598
0.675539
0.672847
0.670501
0.668478
0.666758
0.665318
0.66414
0.663205
0.662495
0.661993
0.661682
0.661553
0.661591
0.661784
0.662118
0.662583
0.663166
0.663859
0.664648
0.665525
0.666478
0.667498
0.668574
0.669695
0.670854
0.67204
0.673246
0.674463
0.675685
0.676907
0.678122
0.679328
0.680523
0.681704
0.682873
0.68403
0.685179
0.686324
0.687469
0.68862
0.689785
0.690971
0.692185
0.693435
0.694729
0.696074
0.697475
0.698939
0.70047
0.70207
0.703741
0.705482
0.707292
0.709168
0.711104
0.713094
0.715132
0.717208
0.719315
0.721442
0.723581
0.725723
0.727857
0.729977
0.732074
0.734143
0.736178
0.738174
0.74013
0.742043
0.743913
0.745741
0.747528
0.749277
0.750992
0.752675
0.754332
0.755966
0.757581
0.759181
0.760769
0.76235
0.763924
0.765494
0.767062
0.768628
0.770192
0.771755
0.773315
0.774874
0.776429
0.777982
0.779533
0.781081
0.782629
0.784179
0.785732
0.787293
0.788865
0.790454
0.792065
0.793703
0.795375
0.797088
0.798848
0.800662
0.802535
0.804474
0.806484
0.80857
0.810735
0.812981
0.81531
0.817722
0.820213
0.822781
0.825417
0.828112
0.830851
0.833616
0.836381
0.839115
0.841776
0.844313
0.846663
0.84875
0.850486
0.851745
0.852392
0.852272
0.851208
0.849001
0.845432
0.840265
0.833248
0.824123
0.812631
0.798521
0.781558
0.761537
0.738286
0.711675
0.68162
0.648085
0.611074
0.570634
0.526843
0.479811
0.429663
0.376484
0.32001
0.258487
0.184088
0.0671223
0.0557629
0.171945
0.252558
0.32111
0.383823
0.442086
0.49622
0.546332
0.592524
0.634932
0.673718
0.709052
0.741105
0.770031
0.795968
0.819034
0.839329
0.856938
0.87194
0.884406
0.89441
0.902029
0.907347
0.91045
0.911559
0.910857
0.908543
0.904824
0.899913
0.894027
0.887375
0.880157
0.872559
0.864752
0.856885
0.849088
0.84147
0.834118
0.827103
0.820475
0.81427
0.80851
0.803205
0.798356
0.793957
0.789995
0.786456
0.783319
0.780565
0.778173
0.77612
0.774387
0.772953
0.771796
0.770899
0.770242
0.769807
0.769582
0.76955
0.769699
0.770014
0.770482
0.77109
0.771827
0.772679
0.773635
0.774682
0.775809
0.777004
0.778256
0.779555
0.780889
0.782249
0.783627
0.785015
0.786406
0.787794
0.789176
0.790547
0.791907
0.793255
0.794592
0.795921
0.797245
0.798571
0.799903
0.801248
0.802615
0.804012
0.805445
0.806924
0.808455
0.810046
0.811701
0.813427
0.815225
0.817097
0.819044
0.821063
0.823152
0.825306
0.827518
0.829781
0.832087
0.834428
0.836792
0.839171
0.841554
0.843934
0.8463
0.848645
0.850962
0.853246
0.855491
0.857694
0.859854
0.861969
0.86404
0.866068
0.868056
0.870006
0.871923
0.873809
0.87567
0.877508
0.879328
0.881134
0.882929
0.884715
0.886494
0.888268
0.890038
0.891805
0.893568
0.895328
0.897084
0.898837
0.900586
0.902333
0.904078
0.905823
0.90757
0.909323
0.911086
0.912862
0.914657
0.916478
0.91833
0.920222
0.922159
0.924149
0.9262
0.928319
0.930511
0.932785
0.935144
0.937593
0.940136
0.942775
0.94551
0.948339
0.951258
0.954261
0.957338
0.960473
0.963647
0.966832
0.969995
0.973091
0.976063
0.978841
0.981341
0.983459
0.985063
0.986008
0.986126
0.985229
0.983103
0.979516
0.974217
0.966942
0.95742
0.945383
0.930566
0.912726
0.891638
0.867107
0.838968
0.807084
0.771341
0.731645
0.687915
0.640086
0.588119
0.532005
0.471703
0.406799
0.335181
0.247446
0.103467
0.0557715
0.171959
0.252574
0.321126
0.38384
0.442102
0.496235
0.546346
0.592537
0.634943
0.673727
0.709061
0.741112
0.770037
0.795973
0.819037
0.839331
0.85694
0.87194
0.884406
0.894409
0.902028
0.907345
0.910448
0.911557
0.910855
0.908541
0.904821
0.899911
0.894025
0.887373
0.880155
0.872558
0.864751
0.856884
0.849087
0.841469
0.834118
0.827103
0.820475
0.814271
0.80851
0.803205
0.798357
0.793957
0.789996
0.786456
0.78332
0.780566
0.778174
0.776121
0.774388
0.772953
0.771797
0.7709
0.770243
0.769808
0.769583
0.769551
0.7697
0.770015
0.770483
0.771091
0.771828
0.77268
0.773636
0.774683
0.77581
0.777005
0.778257
0.779555
0.780889
0.78225
0.783628
0.785016
0.786407
0.787795
0.789177
0.790548
0.791908
0.793255
0.794593
0.795921
0.797246
0.798571
0.799903
0.801249
0.802616
0.804012
0.805446
0.806924
0.808456
0.810046
0.811702
0.813427
0.815225
0.817098
0.819044
0.821064
0.823153
0.825306
0.827518
0.829782
0.832088
0.834428
0.836792
0.839171
0.841555
0.843934
0.8463
0.848645
0.850962
0.853246
0.855491
0.857694
0.859854
0.861969
0.86404
0.866068
0.868056
0.870006
0.871923
0.873809
0.87567
0.877508
0.879329
0.881134
0.882929
0.884715
0.886494
0.888268
0.890038
0.891805
0.893568
0.895328
0.897084
0.898836
0.900586
0.902333
0.904078
0.905823
0.90757
0.909323
0.911085
0.912861
0.914657
0.916477
0.91833
0.920221
0.922158
0.924149
0.9262
0.928318
0.930511
0.932784
0.935143
0.937593
0.940136
0.942774
0.945509
0.948338
0.951257
0.95426
0.957337
0.960472
0.963646
0.966831
0.969994
0.97309
0.976062
0.97884
0.98134
0.983458
0.985062
0.986007
0.986126
0.985229
0.983103
0.979516
0.974217
0.966942
0.957421
0.945383
0.930567
0.912726
0.891638
0.867107
0.838968
0.807084
0.771341
0.731645
0.687914
0.640085
0.588118
0.532003
0.4717
0.406795
0.335176
0.247439
0.103459
0.0738793
0.207368
0.298084
0.373732
0.442
0.504807
0.562658
0.61572
0.664135
0.708095
0.747843
0.783654
0.81581
0.844586
0.87023
0.89296
0.912957
0.930368
0.945313
0.957887
0.968168
0.976228
0.982133
0.985953
0.987804
0.987869
0.98632
0.983339
0.97912
0.973859
0.967753
0.960993
0.953758
0.946219
0.938526
0.930815
0.923201
0.91578
0.908633
0.90182
0.895386
0.889364
0.883772
0.878621
0.873912
0.869639
0.865792
0.862357
0.859318
0.856656
0.854353
0.852389
0.850744
0.849399
0.848335
0.847533
0.846973
0.846642
0.846523
0.846603
0.846867
0.847302
0.847893
0.848629
0.849494
0.850477
0.851563
0.852741
0.853998
0.855322
0.856702
0.858126
0.859584
0.861066
0.862565
0.864073
0.865584
0.867092
0.868594
0.870088
0.871573
0.873049
0.874519
0.875987
0.877456
0.878932
0.880423
0.881934
0.883474
0.88505
0.886671
0.888342
0.890071
0.891864
0.893724
0.895655
0.897659
0.899736
0.901884
0.904101
0.906381
0.90872
0.911111
0.913545
0.916013
0.918507
0.921017
0.923534
0.926049
0.928553
0.931039
0.933499
0.935929
0.938322
0.940677
0.94299
0.945261
0.947489
0.949675
0.951821
0.95393
0.956005
0.95805
0.960067
0.962061
0.964035
0.965992
0.967936
0.969869
0.971792
0.973708
0.975618
0.977522
0.979421
0.981314
0.983204
0.985088
0.98697
0.988848
0.990725
0.992603
0.994485
0.996374
0.998274
1.00019
1.00213
1.0041
1.0061
1.00815
1.01024
1.0124
1.01462
1.01691
1.01929
1.02175
1.02431
1.02697
1.02974
1.03261
1.03559
1.03868
1.04187
1.04517
1.04855
1.05202
1.05554
1.05909
1.06264
1.06615
1.06954
1.07276
1.07571
1.07828
1.08033
1.08173
1.08231
1.08186
1.08017
1.07702
1.07215
1.0653
1.05619
1.04457
1.03018
1.01276
0.99207
0.967899
0.940032
0.908261
0.872372
0.832139
0.787324
0.737683
0.682992
0.623059
0.557649
0.486088
0.405725
0.305561
0.139588
0.0738901
0.207384
0.298101
0.373749
0.442017
0.504823
0.562671
0.615732
0.664146
0.708104
0.747851
0.783659
0.815814
0.844589
0.870232
0.89296
0.912956
0.930366
0.945311
0.957883
0.968164
0.976223
0.982128
0.985948
0.987799
0.987864
0.986314
0.983334
0.979115
0.973854
0.967749
0.960988
0.953754
0.946215
0.938522
0.930811
0.923197
0.915777
0.90863
0.901817
0.895383
0.889361
0.88377
0.878619
0.873909
0.869636
0.865789
0.862355
0.859315
0.856654
0.854351
0.852386
0.850742
0.849397
0.848333
0.84753
0.846971
0.846639
0.846521
0.8466
0.846865
0.847299
0.847891
0.848626
0.849491
0.850474
0.851561
0.852739
0.853996
0.85532
0.856699
0.858123
0.859581
0.861064
0.862562
0.86407
0.865581
0.867089
0.868591
0.870085
0.87157
0.873046
0.874517
0.875984
0.877453
0.87893
0.88042
0.881931
0.883471
0.885047
0.886668
0.888339
0.890068
0.891861
0.893721
0.895652
0.897656
0.899733
0.901881
0.904098
0.906378
0.908718
0.911108
0.913542
0.91601
0.918504
0.921014
0.923531
0.926045
0.92855
0.931035
0.933496
0.935925
0.938319
0.940674
0.942987
0.945257
0.947485
0.949671
0.951818
0.953927
0.956002
0.958046
0.960063
0.962057
0.964031
0.965988
0.967932
0.969865
0.971789
0.973705
0.975614
0.977518
0.979417
0.981311
0.9832
0.985085
0.986966
0.988844
0.990722
0.9926
0.994481
0.99637
0.998271
1.00019
1.00213
1.00409
1.0061
1.00814
1.01024
1.01239
1.01461
1.01691
1.01928
1.02175
1.02431
1.02697
1.02973
1.0326
1.03558
1.03867
1.04187
1.04516
1.04855
1.05201
1.05554
1.05909
1.06264
1.06614
1.06954
1.07276
1.0757
1.07827
1.08033
1.08173
1.0823
1.08185
1.08017
1.07702
1.07215
1.06529
1.05619
1.04457
1.03018
1.01275
0.992067
0.967897
0.94003
0.908259
0.87237
0.832137
0.787321
0.737679
0.682988
0.623055
0.557644
0.486081
0.405716
0.305551
0.139578
0.0924529
0.241058
0.340722
0.42246
0.495113
0.561073
0.621057
0.675349
0.724181
0.767839
0.806678
0.841103
0.871536
0.898389
0.922045
0.942839
0.961052
0.976909
0.990582
1.0022
1.01185
1.0196
1.0255
1.0296
1.03192
1.03262
1.03181
1.02964
1.02627
1.02186
1.01658
1.01059
1.00407
0.997157
0.990008
0.98275
0.9755
0.968358
0.961408
0.954718
0.948342
0.94232
0.936681
0.931441
0.926612
0.922195
0.918186
0.914578
0.91136
0.908517
0.906036
0.903899
0.902089
0.900588
0.899379
0.898443
0.897763
0.897321
0.897104
0.897098
0.897288
0.897661
0.898203
0.8989
0.899739
0.900706
0.901787
0.90297
0.904241
0.905589
0.907001
0.908466
0.909974
0.911515
0.913079
0.914659
0.916249
0.917843
0.919436
0.921026
0.922612
0.924194
0.925772
0.92735
0.928931
0.930521
0.932124
0.933746
0.935396
0.937079
0.938803
0.940574
0.942397
0.944279
0.946222
0.948231
0.950307
0.95245
0.954659
0.956931
0.959263
0.961649
0.964083
0.966558
0.969067
0.971601
0.974152
0.976711
0.97927
0.981821
0.984358
0.986873
0.989362
0.99182
0.994244
0.996631
0.99898
1.00129
1.00356
1.0058
1.008
1.01017
1.01231
1.01442
1.01651
1.01858
1.02063
1.02267
1.02469
1.0267
1.0287
1.0307
1.03268
1.03466
1.03663
1.0386
1.04056
1.04252
1.04448
1.04643
1.04839
1.05035
1.05233
1.05431
1.05632
1.05835
1.06041
1.06251
1.06465
1.06685
1.06912
1.07145
1.07387
1.07637
1.07897
1.08167
1.08448
1.0874
1.09044
1.09361
1.0969
1.10031
1.10384
1.10749
1.11124
1.11507
1.11896
1.12288
1.12678
1.13062
1.1343
1.13776
1.14087
1.14352
1.14555
1.1468
1.14709
1.14622
1.14395
1.14005
1.13427
1.12636
1.11606
1.10313
1.0873
1.06834
1.04599
1.01998
0.990007
0.955742
0.916799
0.872747
0.82313
0.767495
0.705408
0.636366
0.559342
0.471082
0.359128
0.17256
0.0924659
0.241076
0.34074
0.422477
0.49513
0.561088
0.62107
0.67536
0.72419
0.767846
0.806683
0.841106
0.871537
0.898389
0.922044
0.942836
0.961048
0.976904
0.990577
1.00219
1.01185
1.0196
1.0255
1.02959
1.03192
1.03261
1.0318
1.02963
1.02626
1.02185
1.01657
1.01059
1.00406
0.997151
0.990001
0.982744
0.975494
0.968352
0.961402
0.954713
0.948337
0.942315
0.936675
0.931436
0.926607
0.922189
0.918181
0.914573
0.911354
0.908512
0.906031
0.903894
0.902084
0.900583
0.899374
0.898438
0.897757
0.897316
0.897099
0.897092
0.897283
0.897656
0.898198
0.898895
0.899733
0.9007
0.901781
0.902964
0.904236
0.905583
0.906995
0.908461
0.909968
0.911509
0.913073
0.914653
0.916243
0.917837
0.91943
0.92102
0.922606
0.924188
0.925766
0.927344
0.928926
0.930515
0.932118
0.933741
0.93539
0.937073
0.938797
0.940568
0.942391
0.944273
0.946217
0.948225
0.950301
0.952444
0.954653
0.956925
0.959257
0.961643
0.964077
0.966552
0.969061
0.971595
0.974146
0.976704
0.979263
0.981815
0.984351
0.986867
0.989356
0.991814
0.994238
0.996625
0.998973
1.00128
1.00356
1.00579
1.00799
1.01016
1.0123
1.01441
1.0165
1.01857
1.02062
1.02266
1.02468
1.02669
1.0287
1.03069
1.03268
1.03465
1.03663
1.03859
1.04056
1.04252
1.04447
1.04643
1.04838
1.05035
1.05232
1.0543
1.05631
1.05834
1.0604
1.0625
1.06465
1.06685
1.06911
1.07145
1.07386
1.07636
1.07896
1.08166
1.08447
1.08739
1.09044
1.0936
1.09689
1.1003
1.10384
1.10748
1.11123
1.11506
1.11895
1.12287
1.12678
1.13061
1.1343
1.13775
1.14087
1.14351
1.14554
1.1468
1.14709
1.14621
1.14394
1.14004
1.13426
1.12635
1.11606
1.10312
1.0873
1.06834
1.04598
1.01997
0.990002
0.955738
0.916795
0.872742
0.823125
0.767489
0.705401
0.636358
0.559332
0.47107
0.359115
0.172547
0.110521
0.2732
0.380736
0.467616
0.543644
0.611611
0.672454
0.726604
0.774416
0.816303
0.852758
0.884332
0.911604
0.935139
0.955465
0.973047
0.988276
1.00146
1.01285
1.02259
1.0308
1.03755
1.04285
1.04672
1.04918
1.05025
1.05002
1.04859
1.04606
1.04256
1.03821
1.03315
1.02752
1.02144
1.01506
1.00848
1.00183
0.995199
0.988672
0.982323
0.97621
0.970381
0.964871
0.959707
0.954905
0.950476
0.946423
0.942745
0.939436
0.936489
0.933893
0.931635
0.929701
0.928076
0.926744
0.925689
0.924895
0.924344
0.924023
0.92392
0.92402
0.924311
0.924779
0.92541
0.92619
0.927107
0.928147
0.929297
0.930544
0.931875
0.93328
0.934746
0.936264
0.937822
0.939413
0.941027
0.942659
0.944302
0.945952
0.947605
0.94926
0.950914
0.95257
0.954228
0.955892
0.957564
0.959249
0.960952
0.962679
0.964435
0.966227
0.968059
0.969937
0.971864
0.973846
0.975883
0.977979
0.980132
0.982343
0.984609
0.986927
0.989293
0.991702
0.994148
0.996624
0.999123
1.00164
1.00416
1.00669
1.00922
1.01173
1.01423
1.0167
1.01915
1.02158
1.02397
1.02633
1.02866
1.03096
1.03322
1.03546
1.03766
1.03984
1.04199
1.04412
1.04624
1.04833
1.05041
1.05247
1.05452
1.05656
1.05859
1.06061
1.06262
1.06462
1.06662
1.06861
1.0706
1.07259
1.07458
1.07657
1.07857
1.08058
1.0826
1.08465
1.08672
1.08883
1.09099
1.09319
1.09545
1.09777
1.10018
1.10266
1.10524
1.10792
1.11071
1.11362
1.11665
1.11982
1.12312
1.12656
1.13015
1.13387
1.13774
1.14174
1.14585
1.15006
1.15434
1.15865
1.16294
1.16714
1.17118
1.17493
1.1783
1.18114
1.1833
1.18462
1.18489
1.18393
1.18152
1.17742
1.17141
1.16326
1.15272
1.13955
1.12348
1.10423
1.08145
1.05475
1.02363
0.987543
0.945833
0.8978
0.842723
0.779881
0.708443
0.626977
0.531619
0.408623
0.203005
0.110535
0.273219
0.380755
0.467634
0.54366
0.611625
0.672466
0.726614
0.774424
0.816308
0.852761
0.884333
0.911603
0.935137
0.955461
0.973042
0.98827
1.00146
1.01284
1.02258
1.0308
1.03754
1.04284
1.04672
1.04917
1.05024
1.05001
1.04858
1.04605
1.04255
1.0382
1.03314
1.02751
1.02143
1.01505
1.00848
1.00182
0.995191
0.988664
0.982315
0.976202
0.970373
0.964864
0.9597
0.954898
0.950469
0.946416
0.942737
0.939429
0.936482
0.933886
0.931627
0.929693
0.928068
0.926737
0.925682
0.924887
0.924336
0.924016
0.923912
0.924013
0.924303
0.924771
0.925402
0.926182
0.927099
0.928139
0.929289
0.930536
0.931867
0.933272
0.934738
0.936256
0.937814
0.939404
0.941019
0.942651
0.944294
0.945944
0.947597
0.949251
0.950906
0.952562
0.95422
0.955883
0.957555
0.95924
0.960944
0.962671
0.964427
0.966218
0.968051
0.969928
0.971856
0.973837
0.975875
0.97797
0.980124
0.982335
0.984601
0.986919
0.989285
0.991694
0.994139
0.996615
0.999115
1.00163
1.00416
1.00668
1.00921
1.01172
1.01422
1.01669
1.01914
1.02157
1.02396
1.02632
1.02865
1.03095
1.03321
1.03545
1.03765
1.03983
1.04198
1.04412
1.04623
1.04832
1.0504
1.05246
1.05451
1.05655
1.05858
1.0606
1.06261
1.06462
1.06661
1.06861
1.07059
1.07258
1.07457
1.07656
1.07856
1.08057
1.08259
1.08464
1.08672
1.08883
1.09098
1.09318
1.09544
1.09776
1.10017
1.10265
1.10523
1.10791
1.1107
1.11361
1.11664
1.11981
1.12311
1.12655
1.13014
1.13387
1.13773
1.14173
1.14584
1.15005
1.15433
1.15864
1.16293
1.16714
1.17117
1.17492
1.17829
1.18113
1.18329
1.18461
1.18489
1.18393
1.18151
1.17741
1.1714
1.16325
1.15271
1.13954
1.12348
1.10422
1.08145
1.05474
1.02363
0.987537
0.945827
0.897793
0.842716
0.779872
0.708433
0.626966
0.531605
0.408606
0.202989
0.128168
0.303627
0.418053
0.509214
0.587739
0.656768
0.71745
0.770378
0.816055
0.855042
0.887985
0.9156
0.938626
0.957791
0.973772
0.987171
0.998492
1.00814
1.01642
1.02353
1.02961
1.03472
1.03887
1.04204
1.04421
1.04534
1.04545
1.04457
1.04276
1.0401
1.03665
1.03253
1.02783
1.02266
1.01714
1.01136
1.00542
0.999432
0.993462
0.987588
0.981871
0.976363
0.971107
0.966133
0.961467
0.957125
0.953117
0.94945
0.946123
0.943133
0.940476
0.938142
0.936121
0.934401
0.93297
0.931812
0.930913
0.930258
0.929834
0.929628
0.92963
0.929825
0.930201
0.930745
0.931445
0.932286
0.933257
0.934344
0.935535
0.936819
0.938184
0.939618
0.941111
0.942654
0.944238
0.945854
0.947496
0.949156
0.950832
0.952517
0.95421
0.955909
0.957613
0.959322
0.961038
0.962764
0.964502
0.966255
0.968029
0.969826
0.971652
0.973511
0.975406
0.977341
0.979319
0.981343
0.983413
0.98553
0.987694
0.989903
0.992155
0.994446
0.996773
0.999132
1.00152
1.00392
1.00634
1.00877
1.01121
1.01365
1.01607
1.01849
1.0209
1.02328
1.02565
1.02799
1.03031
1.03261
1.03487
1.03712
1.03933
1.04153
1.0437
1.04584
1.04797
1.05008
1.05217
1.05424
1.0563
1.05835
1.06038
1.0624
1.06441
1.06642
1.06841
1.0704
1.07238
1.07436
1.07634
1.07832
1.08031
1.0823
1.08431
1.08634
1.08839
1.09047
1.09259
1.09475
1.09697
1.09925
1.1016
1.10402
1.10654
1.10915
1.11187
1.11471
1.11768
1.12078
1.12402
1.12742
1.13098
1.1347
1.13858
1.14264
1.14686
1.15123
1.15575
1.16039
1.16512
1.16989
1.17465
1.17932
1.18381
1.18802
1.19183
1.19511
1.1977
1.19945
1.20018
1.1997
1.19782
1.19433
1.18904
1.18171
1.1721
1.15994
1.14487
1.1265
1.10429
1.07761
1.0457
1.00766
0.962533
0.909299
0.846911
0.774176
0.689229
0.587607
0.454431
0.231423
0.128182
0.303647
0.418073
0.509233
0.587755
0.656782
0.717461
0.770387
0.816061
0.855046
0.887987
0.915599
0.938623
0.957787
0.973767
0.987164
0.998485
1.00813
1.01641
1.02352
1.0296
1.03471
1.03886
1.04203
1.0442
1.04533
1.04544
1.04456
1.04275
1.04009
1.03664
1.03252
1.02782
1.02265
1.01713
1.01135
1.00542
0.999423
0.993453
0.987579
0.981862
0.976355
0.971098
0.966124
0.961458
0.957116
0.953108
0.949441
0.946114
0.943125
0.940467
0.938133
0.936112
0.934392
0.932961
0.931803
0.930904
0.930249
0.929825
0.929619
0.929621
0.929816
0.930192
0.930736
0.931435
0.932277
0.933247
0.934334
0.935526
0.93681
0.938174
0.939608
0.941102
0.942645
0.944228
0.945844
0.947486
0.949147
0.950822
0.952507
0.9542
0.955899
0.957603
0.959312
0.961029
0.962754
0.964492
0.966246
0.968019
0.969816
0.971642
0.973501
0.975396
0.977331
0.97931
0.981333
0.983403
0.98552
0.987684
0.989893
0.992145
0.994436
0.996763
0.999122
1.00151
1.00391
1.00633
1.00876
1.0112
1.01364
1.01606
1.01848
1.02089
1.02327
1.02564
1.02798
1.0303
1.0326
1.03486
1.03711
1.03932
1.04152
1.04369
1.04583
1.04796
1.05007
1.05216
1.05423
1.05629
1.05834
1.06037
1.06239
1.0644
1.06641
1.0684
1.07039
1.07237
1.07435
1.07633
1.07831
1.0803
1.08229
1.0843
1.08633
1.08838
1.09046
1.09258
1.09474
1.09696
1.09924
1.10159
1.10401
1.10653
1.10914
1.11186
1.1147
1.11767
1.12077
1.12401
1.12741
1.13096
1.13468
1.13857
1.14263
1.14685
1.15122
1.15574
1.16038
1.1651
1.16988
1.17463
1.17931
1.1838
1.18801
1.19182
1.1951
1.19769
1.19944
1.20017
1.19969
1.19781
1.19433
1.18903
1.1817
1.1721
1.15993
1.14487
1.12649
1.10428
1.07761
1.04569
1.00765
0.962526
0.909291
0.846901
0.774164
0.689215
0.58759
0.454412
0.231404
0.145082
0.332106
0.452551
0.547239
0.627527
0.696861
0.756592
0.807484
0.850201
0.885464
0.914086
0.93695
0.954965
0.96902
0.979943
0.988468
0.995215
1.00068
1.00523
1.00913
1.01252
1.01547
1.01797
1.02
1.02146
1.0223
1.02244
1.02186
1.02056
1.01855
1.01589
1.01261
1.00878
1.00449
0.999813
0.994841
0.98966
0.984352
0.978995
0.97366
0.968409
0.963296
0.958365
0.953656
0.949197
0.94501
0.941113
0.937516
0.934226
0.931244
0.92857
0.926199
0.924124
0.922337
0.920828
0.919584
0.918594
0.917843
0.917319
0.917013
0.916911
0.917004
0.917279
0.917724
0.918327
0.919075
0.919957
0.92096
0.922073
0.923284
0.924583
0.925959
0.927402
0.928902
0.930451
0.932041
0.933665
0.935316
0.936988
0.938678
0.940382
0.942097
0.943821
0.945554
0.947296
0.949047
0.95081
0.952584
0.954375
0.956183
0.958012
0.959865
0.961745
0.963654
0.965594
0.967568
0.969575
0.971618
0.973695
0.975806
0.97795
0.980124
0.982327
0.984554
0.986803
0.989071
0.991352
0.993644
0.995942
0.998243
1.00054
1.00284
1.00512
1.0074
1.00967
1.01191
1.01415
1.01636
1.01856
1.02074
1.02289
1.02503
1.02715
1.02925
1.03133
1.0334
1.03545
1.03748
1.0395
1.0415
1.04349
1.04547
1.04744
1.0494
1.05135
1.05329
1.05523
1.05717
1.05911
1.06105
1.063
1.06495
1.06693
1.06892
1.07095
1.073
1.0751
1.07724
1.07944
1.0817
1.08404
1.08645
1.08896
1.09158
1.0943
1.09715
1.10014
1.10327
1.10656
1.11002
1.11365
1.11748
1.1215
1.12571
1.13013
1.13476
1.13957
1.14456
1.14971
1.15498
1.16033
1.1657
1.17101
1.17618
1.18109
1.18566
1.18975
1.19324
1.19597