/*--------------------------------*- C++ -*----------------------------------*\
  =========                 |
  \\      /  F ield         | OpenFOAM: The Open Source CFD Toolbox
   \\    /   O peration     | Website:  https://openfoam.org
    \\  /    A nd           | Version:  8
     \\/     M anipulation  |
\*---------------------------------------------------------------------------*/
FoamFile
{
    version     2.0;
    format      ascii;
    class       volScalarField;
    location    "500";
    object      nut;
}
// * * * * * * * * * * * * * * * * * * * * * * * * * * * * * * * * * * * * * //

dimensions      [0 2 -1 0 0 0 0];

internalField   nonuniform List<scalar> 
46000
(
4.37493e-07
1.75915e-06
3.56633e-06
5.59061e-06
7.58432e-06
9.51513e-06
1.12656e-05
1.2899e-05
1.44233e-05
1.58404e-05
1.71508e-05
1.8354e-05
1.94496e-05
2.0437e-05
2.13159e-05
2.20864e-05
2.27493e-05
2.3306e-05
2.37588e-05
2.41106e-05
2.43654e-05
2.4528e-05
2.46119e-05
2.4642e-05
2.4609e-05
2.45128e-05
2.43586e-05
2.41538e-05
2.39073e-05
2.36283e-05
2.33257e-05
2.30081e-05
2.26833e-05
2.2358e-05
2.2038e-05
2.1728e-05
2.14318e-05
2.11521e-05
2.08907e-05
2.06488e-05
2.04267e-05
2.02246e-05
2.00419e-05
1.98779e-05
1.97317e-05
1.96023e-05
1.94885e-05
1.93893e-05
1.93035e-05
1.92302e-05
1.91684e-05
1.91172e-05
1.90758e-05
1.90433e-05
1.90192e-05
1.9003e-05
1.89955e-05
1.89952e-05
1.90009e-05
1.90121e-05
1.90283e-05
1.90491e-05
1.90741e-05
1.9103e-05
1.91353e-05
1.91707e-05
1.92088e-05
1.92493e-05
1.92917e-05
1.93357e-05
1.9381e-05
1.94272e-05
1.9474e-05
1.9521e-05
1.95682e-05
1.96152e-05
1.9662e-05
1.97083e-05
1.97542e-05
1.97995e-05
1.98445e-05
1.9889e-05
1.99335e-05
1.99779e-05
2.00226e-05
2.00678e-05
2.01138e-05
2.0161e-05
2.02097e-05
2.02603e-05
2.03129e-05
2.0368e-05
2.04258e-05
2.04864e-05
2.055e-05
2.06166e-05
2.06864e-05
2.07592e-05
2.08349e-05
2.09132e-05
2.0994e-05
2.10769e-05
2.11616e-05
2.12476e-05
2.13346e-05
2.14222e-05
2.15099e-05
2.15973e-05
2.16842e-05
2.177e-05
2.18547e-05
2.19379e-05
2.20194e-05
2.20991e-05
2.2177e-05
2.22531e-05
2.23273e-05
2.23998e-05
2.24707e-05
2.25401e-05
2.26083e-05
2.26755e-05
2.27417e-05
2.28074e-05
2.28725e-05
2.29373e-05
2.30019e-05
2.30665e-05
2.31311e-05
2.31958e-05
2.32606e-05
2.33255e-05
2.33905e-05
2.34555e-05
2.35205e-05
2.35855e-05
2.36504e-05
2.37151e-05
2.37797e-05
2.38442e-05
2.39087e-05
2.39731e-05
2.40378e-05
2.41027e-05
2.41681e-05
2.42343e-05
2.43015e-05
2.43699e-05
2.44398e-05
2.45116e-05
2.45855e-05
2.46618e-05
2.47408e-05
2.48226e-05
2.49076e-05
2.49959e-05
2.50876e-05
2.51828e-05
2.52816e-05
2.53838e-05
2.54895e-05
2.55983e-05
2.571e-05
2.58241e-05
2.594e-05
2.60568e-05
2.61735e-05
2.62888e-05
2.64007e-05
2.65072e-05
2.66056e-05
2.66926e-05
2.6765e-05
2.68213e-05
2.68548e-05
2.68576e-05
2.68214e-05
2.67373e-05
2.65956e-05
2.6386e-05
2.60972e-05
2.57176e-05
2.52357e-05
2.46402e-05
2.39208e-05
2.30687e-05
2.20774e-05
2.09429e-05
1.96651e-05
1.82478e-05
1.66994e-05
1.50342e-05
1.3272e-05
1.14392e-05
9.56463e-06
7.64571e-06
5.7459e-06
3.93078e-06
2.19341e-06
6.39197e-07
4.37692e-07
1.75903e-06
3.56713e-06
5.59143e-06
7.58489e-06
9.51567e-06
1.12661e-05
1.28996e-05
1.44239e-05
1.58411e-05
1.71515e-05
1.83547e-05
1.94504e-05
2.04377e-05
2.13166e-05
2.20871e-05
2.275e-05
2.33067e-05
2.37595e-05
2.41113e-05
2.43659e-05
2.45285e-05
2.46124e-05
2.46425e-05
2.46094e-05
2.45132e-05
2.4359e-05
2.41542e-05
2.39077e-05
2.36287e-05
2.33261e-05
2.30085e-05
2.26836e-05
2.23583e-05
2.20383e-05
2.17284e-05
2.14322e-05
2.11525e-05
2.08911e-05
2.06492e-05
2.04272e-05
2.02251e-05
2.00424e-05
1.98784e-05
1.97322e-05
1.96028e-05
1.9489e-05
1.93898e-05
1.93041e-05
1.92308e-05
1.9169e-05
1.91178e-05
1.90764e-05
1.90439e-05
1.90198e-05
1.90036e-05
1.89962e-05
1.89958e-05
1.90015e-05
1.90127e-05
1.9029e-05
1.90498e-05
1.90748e-05
1.91036e-05
1.91359e-05
1.91713e-05
1.92095e-05
1.92499e-05
1.92924e-05
1.93364e-05
1.93816e-05
1.94278e-05
1.94746e-05
1.95217e-05
1.95688e-05
1.96159e-05
1.96626e-05
1.97089e-05
1.97548e-05
1.98001e-05
1.98451e-05
1.98897e-05
1.99341e-05
1.99785e-05
2.00232e-05
2.00684e-05
2.01144e-05
2.01616e-05
2.02103e-05
2.02609e-05
2.03135e-05
2.03686e-05
2.04264e-05
2.0487e-05
2.05506e-05
2.06173e-05
2.0687e-05
2.07598e-05
2.08355e-05
2.09138e-05
2.09946e-05
2.10775e-05
2.11622e-05
2.12482e-05
2.13352e-05
2.14228e-05
2.15105e-05
2.1598e-05
2.16848e-05
2.17707e-05
2.18553e-05
2.19385e-05
2.202e-05
2.20997e-05
2.21776e-05
2.22537e-05
2.23279e-05
2.24004e-05
2.24713e-05
2.25407e-05
2.26089e-05
2.26761e-05
2.27423e-05
2.28079e-05
2.28731e-05
2.29379e-05
2.30025e-05
2.30671e-05
2.31317e-05
2.31964e-05
2.32612e-05
2.33261e-05
2.33911e-05
2.34561e-05
2.35211e-05
2.35861e-05
2.36509e-05
2.37157e-05
2.37803e-05
2.38448e-05
2.39092e-05
2.39737e-05
2.40383e-05
2.41032e-05
2.41687e-05
2.42349e-05
2.4302e-05
2.43705e-05
2.44404e-05
2.45122e-05
2.45861e-05
2.46624e-05
2.47413e-05
2.48232e-05
2.49082e-05
2.49964e-05
2.50882e-05
2.51834e-05
2.52821e-05
2.53844e-05
2.549e-05
2.55989e-05
2.57105e-05
2.58246e-05
2.59404e-05
2.60573e-05
2.6174e-05
2.62892e-05
2.64012e-05
2.65077e-05
2.66061e-05
2.66931e-05
2.67654e-05
2.68217e-05
2.68553e-05
2.68581e-05
2.68218e-05
2.67377e-05
2.65961e-05
2.63865e-05
2.60976e-05
2.57181e-05
2.52362e-05
2.46407e-05
2.39213e-05
2.30692e-05
2.20778e-05
2.09434e-05
1.96656e-05
1.82482e-05
1.66998e-05
1.50344e-05
1.32721e-05
1.14393e-05
9.56469e-06
7.64569e-06
5.74575e-06
3.93048e-06
2.1927e-06
6.3896e-07
1.43934e-06
2.57027e-05
4.81299e-05
6.39555e-05
7.66182e-05
8.72868e-05
9.65191e-05
0.000104511
0.000111414
0.000117352
0.000122427
0.000126727
0.000130329
0.000133302
0.000135708
0.000137606
0.00013905
0.000140088
0.000140766
0.000141127
0.000141204
0.000141023
0.000140567
0.000139877
0.000139049
0.000138123
0.000137131
0.000136103
0.000135063
0.000134032
0.000133028
0.000132064
0.000131151
0.000130297
0.000129508
0.000128786
0.000128131
0.000127543
0.00012702
0.000126559
0.000126154
0.000125802
0.000125498
0.000125238
0.000125016
0.00012483
0.000124675
0.000124548
0.000124446
0.000124367
0.000124309
0.00012427
0.000124249
0.000124243
0.000124253
0.000124274
0.000124304
0.000124345
0.000124398
0.000124462
0.000124538
0.000124623
0.000124718
0.000124821
0.000124932
0.00012505
0.000125174
0.000125303
0.000125435
0.000125571
0.000125708
0.000125848
0.000125987
0.000126127
0.000126266
0.000126405
0.000126542
0.000126678
0.000126813
0.000126947
0.00012708
0.000127213
0.000127347
0.000127482
0.000127619
0.000127758
0.000127902
0.000128049
0.000128203
0.000128362
0.000128529
0.000128702
0.000128884
0.000129074
0.000129271
0.000129477
0.00012969
0.00012991
0.000130137
0.000130369
0.000130605
0.000130845
0.000131087
0.00013133
0.000131573
0.000131814
0.000132053
0.000132289
0.000132521
0.000132748
0.00013297
0.000133186
0.000133396
0.000133601
0.0001338
0.000133994
0.000134182
0.000134367
0.000134547
0.000134725
0.000134899
0.000135072
0.000135243
0.000135414
0.000135584
0.000135754
0.000135924
0.000136094
0.000136265
0.000136436
0.000136608
0.00013678
0.000136952
0.000137124
0.000137295
0.000137467
0.000137637
0.000137808
0.000137978
0.000138148
0.000138317
0.000138488
0.000138659
0.000138831
0.000139006
0.000139183
0.000139364
0.000139549
0.00013974
0.000139936
0.00014014
0.00014035
0.000140569
0.000140797
0.000141034
0.000141281
0.000141538
0.000141806
0.000142083
0.000142371
0.000142668
0.000142974
0.000143289
0.00014361
0.000143936
0.000144265
0.000144593
0.000144915
0.000145228
0.000145524
0.000145794
0.000146029
0.000146218
0.000146334
0.000146354
0.000146258
0.000146025
0.000145626
0.000145031
0.000144206
0.000143113
0.000141715
0.00013997
0.000137842
0.00013529
0.000132282
0.000128787
0.000124782
0.000120252
0.000115191
0.000109606
0.000103513
9.69427e-05
8.99266e-05
8.24825e-05
7.45511e-05
6.55357e-05
5.31177e-05
3.05562e-05
2.25641e-06
1.44026e-06
2.57053e-05
4.81343e-05
6.39601e-05
7.66226e-05
8.72911e-05
9.65232e-05
0.000104515
0.000111418
0.000117356
0.000122431
0.000126731
0.000130332
0.000133305
0.000135711
0.000137608
0.000139052
0.00014009
0.000140768
0.000141128
0.000141206
0.000141024
0.000140569
0.000139878
0.00013905
0.000138124
0.000137133
0.000136104
0.000135064
0.000134034
0.000133029
0.000132065
0.000131153
0.000130299
0.000129509
0.000128787
0.000128133
0.000127545
0.000127022
0.00012656
0.000126156
0.000125804
0.0001255
0.000125239
0.000125018
0.000124832
0.000124677
0.00012455
0.000124448
0.000124369
0.000124311
0.000124272
0.000124251
0.000124245
0.000124255
0.000124277
0.000124306
0.000124347
0.0001244
0.000124465
0.00012454
0.000124625
0.00012472
0.000124823
0.000124935
0.000125053
0.000125176
0.000125305
0.000125437
0.000125573
0.000125711
0.00012585
0.000125989
0.000126129
0.000126268
0.000126407
0.000126544
0.00012668
0.000126815
0.000126949
0.000127082
0.000127216
0.000127349
0.000127484
0.000127621
0.00012776
0.000127904
0.000128052
0.000128205
0.000128364
0.000128531
0.000128704
0.000128886
0.000129076
0.000129273
0.000129479
0.000129692
0.000129913
0.000130139
0.000130371
0.000130608
0.000130847
0.000131089
0.000131332
0.000131575
0.000131816
0.000132055
0.000132291
0.000132523
0.00013275
0.000132972
0.000133188
0.000133398
0.000133603
0.000133802
0.000133996
0.000134184
0.000134369
0.000134549
0.000134727
0.000134901
0.000135074
0.000135245
0.000135416
0.000135586
0.000135756
0.000135926
0.000136096
0.000136267
0.000136438
0.00013661
0.000136782
0.000136954
0.000137125
0.000137297
0.000137468
0.000137639
0.00013781
0.00013798
0.000138149
0.000138319
0.000138489
0.000138661
0.000138833
0.000139008
0.000139185
0.000139366
0.000139551
0.000139742
0.000139938
0.000140141
0.000140352
0.000140571
0.000140799
0.000141036
0.000141283
0.00014154
0.000141807
0.000142085
0.000142372
0.00014267
0.000142976
0.00014329
0.000143611
0.000143938
0.000144266
0.000144594
0.000144917
0.00014523
0.000145525
0.000145796
0.000146031
0.000146219
0.000146335
0.000146355
0.00014626
0.000146027
0.000145628
0.000145033
0.000144207
0.000143115
0.000141716
0.000139972
0.000137843
0.000135292
0.000132284
0.000128789
0.000124784
0.000120253
0.000115192
0.000109607
0.000103514
9.69432e-05
8.99269e-05
8.24826e-05
7.45506e-05
6.55344e-05
5.31157e-05
3.05548e-05
2.25616e-06
2.63145e-06
4.47887e-05
8.60382e-05
0.000116916
0.000141606
0.000162069
0.00017931
0.000193882
0.000206158
0.000216422
0.000224906
0.000231816
0.000237334
0.00024163
0.000244858
0.00024716
0.000248668
0.000249498
0.000249758
0.000249539
0.00024892
0.00024796
0.000246695
0.00024514
0.000243443
0.000241661
0.000239844
0.000238036
0.00023627
0.000234575
0.000232973
0.000231479
0.000230104
0.000228855
0.000227733
0.000226738
0.000225866
0.000225111
0.000224465
0.000223919
0.000223463
0.000223088
0.000222785
0.000222544
0.000222357
0.000222217
0.000222116
0.00022205
0.000222014
0.000222003
0.000222015
0.000222046
0.000222096
0.000222161
0.00022224
0.000222331
0.000222429
0.000222538
0.000222658
0.000222789
0.00022293
0.000223081
0.000223242
0.000223412
0.00022359
0.000223774
0.000223964
0.00022416
0.000224359
0.00022456
0.000224764
0.000224968
0.000225173
0.000225377
0.000225581
0.000225783
0.000225985
0.000226185
0.000226385
0.000226584
0.000226784
0.000226985
0.000227189
0.000227396
0.000227607
0.000227824
0.000228048
0.000228281
0.000228522
0.000228773
0.000229035
0.000229308
0.000229592
0.000229887
0.000230193
0.000230509
0.000230834
0.000231167
0.000231507
0.000231852
0.0002322
0.000232549
0.000232899
0.000233247
0.000233591
0.00023393
0.000234262
0.000234588
0.000234905
0.000235213
0.000235512
0.000235802
0.000236082
0.000236354
0.000236618
0.000236875
0.000237125
0.00023737
0.00023761
0.000237847
0.000238082
0.000238315
0.000238548
0.000238781
0.000239015
0.000239249
0.000239486
0.000239723
0.000239963
0.000240203
0.000240445
0.000240687
0.00024093
0.000241173
0.000241415
0.000241658
0.000241899
0.00024214
0.000242381
0.000242622
0.000242863
0.000243105
0.00024335
0.000243597
0.000243848
0.000244104
0.000244366
0.000244636
0.000244915
0.000245204
0.000245504
0.000245817
0.000246143
0.000246483
0.000246839
0.000247211
0.000247599
0.000248004
0.000248426
0.000248866
0.000249322
0.000249795
0.000250283
0.000250784
0.000251296
0.000251816
0.00025234
0.000252861
0.000253371
0.000253862
0.00025432
0.000254729
0.000255072
0.000255312
0.000255421
0.000255369
0.000255121
0.000254636
0.000253868
0.00025277
0.000251286
0.00024936
0.000246933
0.000243946
0.00024034
0.000236056
0.000231039
0.000225239
0.000218608
0.000211103
0.000202684
0.000193307
0.00018291
0.000171377
0.000158441
0.000143432
0.000124606
9.77814e-05
5.48587e-05
4.61168e-06
2.63225e-06
4.47947e-05
8.60445e-05
0.000116922
0.000141612
0.000162075
0.000179315
0.000193887
0.000206163
0.000216426
0.00022491
0.000231819
0.000237338
0.000241633
0.00024486
0.000247163
0.00024867
0.0002495
0.000249759
0.00024954
0.000248921
0.000247961
0.000246696
0.000245141
0.000243444
0.000241662
0.000239845
0.000238037
0.000236271
0.000234576
0.000232974
0.00023148
0.000230106
0.000228856
0.000227735
0.00022674
0.000225868
0.000225113
0.000224467
0.000223921
0.000223465
0.00022309
0.000222787
0.000222546
0.000222359
0.000222219
0.000222119
0.000222053
0.000222016
0.000222006
0.000222017
0.000222049
0.000222098
0.000222163
0.000222242
0.000222333
0.000222431
0.000222541
0.00022266
0.000222791
0.000222932
0.000223084
0.000223245
0.000223414
0.000223592
0.000223777
0.000223967
0.000224162
0.000224361
0.000224563
0.000224766
0.000224971
0.000225176
0.00022538
0.000225583
0.000225786
0.000225987
0.000226188
0.000226387
0.000226587
0.000226786
0.000226988
0.000227191
0.000227398
0.000227609
0.000227827
0.000228051
0.000228283
0.000228524
0.000228775
0.000229037
0.00022931
0.000229594
0.000229889
0.000230195
0.000230511
0.000230836
0.000231169
0.000231509
0.000231854
0.000232202
0.000232552
0.000232901
0.000233249
0.000233593
0.000233932
0.000234265
0.00023459
0.000234907
0.000235215
0.000235514
0.000235804
0.000236085
0.000236356
0.00023662
0.000236877
0.000237127
0.000237372
0.000237612
0.000237849
0.000238084
0.000238317
0.00023855
0.000238783
0.000239017
0.000239252
0.000239488
0.000239726
0.000239965
0.000240205
0.000240447
0.000240689
0.000240932
0.000241175
0.000241417
0.00024166
0.000241901
0.000242142
0.000242383
0.000242624
0.000242865
0.000243107
0.000243352
0.000243599
0.00024385
0.000244106
0.000244368
0.000244638
0.000244917
0.000245206
0.000245506
0.000245818
0.000246144
0.000246485
0.000246841
0.000247212
0.000247601
0.000248006
0.000248428
0.000248868
0.000249324
0.000249796
0.000250284
0.000250785
0.000251298
0.000251818
0.000252341
0.000252862
0.000253373
0.000253863
0.000254321
0.00025473
0.000255073
0.000255313
0.000255422
0.000255371
0.000255122
0.000254637
0.00025387
0.000252771
0.000251287
0.000249362
0.000246935
0.000243948
0.000240341
0.000236057
0.000231041
0.000225241
0.00021861
0.000211105
0.000202686
0.000193308
0.000182911
0.000171378
0.000158442
0.000143433
0.000124606
9.77807e-05
5.48582e-05
4.61124e-06
3.88895e-06
5.52794e-05
0.000109226
0.000151576
0.000185853
0.000214326
0.00023827
0.000258456
0.000275404
0.000289508
0.00030109
0.000310434
0.000317796
0.000323418
0.000327524
0.000330326
0.00033202
0.000332783
0.000332777
0.000332141
0.000330996
0.000329438
0.000327542
0.000325356
0.00032301
0.000320585
0.000318144
0.000315739
0.000313411
0.000311195
0.000309115
0.000307188
0.000305427
0.000303836
0.000302418
0.000301169
0.000300083
0.000299152
0.000298363
0.000297706
0.000297167
0.000296734
0.000296393
0.000296133
0.000295942
0.00029581
0.000295729
0.00029569
0.000295688
0.000295716
0.000295771
0.000295848
0.000295945
0.000296058
0.000296187
0.000296327
0.000296477
0.000296638
0.000296809
0.00029699
0.000297182
0.000297384
0.000297595
0.000297815
0.000298042
0.000298277
0.000298517
0.000298762
0.000299011
0.000299263
0.000299516
0.000299771
0.000300025
0.00030028
0.000300534
0.000300788
0.00030104
0.000301293
0.000301545
0.000301799
0.000302053
0.000302311
0.000302573
0.000302839
0.000303112
0.000303393
0.000303683
0.000303984
0.000304295
0.000304619
0.000304955
0.000305305
0.000305667
0.000306042
0.000306429
0.000306827
0.000307234
0.000307649
0.00030807
0.000308495
0.000308922
0.000309349
0.000309773
0.000310194
0.000310608
0.000311014
0.000311411
0.000311798
0.000312174
0.000312538
0.00031289
0.00031323
0.00031356
0.000313879
0.000314188
0.000314489
0.000314782
0.00031507
0.000315353
0.000315633
0.000315911
0.000316188
0.000316466
0.000316744
0.000317024
0.000317306
0.000317591
0.000317878
0.000318167
0.000318457
0.00031875
0.000319044
0.000319338
0.000319633
0.000319928
0.000320223
0.000320517
0.000320811
0.000321105
0.000321399
0.000321695
0.000321992
0.000322293
0.000322597
0.000322907
0.000323225
0.00032355
0.000323886
0.000324234
0.000324595
0.000324972
0.000325364
0.000325775
0.000326205
0.000326656
0.000327128
0.000327622
0.000328141
0.000328683
0.000329249
0.00032984
0.000330456
0.000331094
0.000331755
0.000332435
0.000333132
0.00033384
0.000334553
0.000335261
0.000335953
0.000336615
0.000337226
0.000337763
0.000338191
0.000338477
0.000338585
0.000338471
0.000338087
0.000337379
0.00033629
0.000334753
0.000332701
0.000330063
0.000326763
0.000322723
0.000317865
0.000312106
0.000305364
0.000297547
0.000288561
0.000278292
0.000266599
0.000253282
0.000238012
0.000220179
0.000198554
0.000170575
0.000131111
7.19745e-05
7.12296e-06
3.88977e-06
5.52856e-05
0.000109232
0.000151583
0.00018586
0.000214333
0.000238276
0.000258461
0.000275409
0.000289512
0.000301094
0.000310437
0.000317799
0.00032342
0.000327526
0.000330328
0.000332021
0.000332784
0.000332778
0.000332142
0.000330997
0.000329439
0.000327543
0.000325356
0.000323011
0.000320586
0.000318145
0.00031574
0.000313413
0.000311196
0.000309116
0.000307189
0.000305428
0.000303838
0.00030242
0.000301171
0.000300085
0.000299153
0.000298365
0.000297708
0.000297169
0.000296736
0.000296395
0.000296134
0.000295944
0.000295812
0.000295731
0.000295692
0.00029569
0.000295718
0.000295773
0.00029585
0.000295947
0.000296061
0.000296189
0.00029633
0.00029648
0.00029664
0.000296811
0.000296993
0.000297184
0.000297386
0.000297597
0.000297817
0.000298044
0.000298279
0.000298519
0.000298764
0.000299013
0.000299265
0.000299518
0.000299773
0.000300028
0.000300282
0.000300536
0.00030079
0.000301043
0.000301295
0.000301547
0.000301801
0.000302056
0.000302313
0.000302575
0.000302841
0.000303114
0.000303395
0.000303685
0.000303986
0.000304297
0.000304621
0.000304958
0.000305307
0.000305669
0.000306044
0.000306431
0.000306829
0.000307236
0.000307651
0.000308072
0.000308497
0.000308924
0.000309351
0.000309776
0.000310196
0.00031061
0.000311016
0.000311413
0.0003118
0.000312176
0.00031254
0.000312892
0.000313232
0.000313562
0.00031388
0.00031419
0.00031449
0.000314784
0.000315072
0.000315355
0.000315635
0.000315913
0.00031619
0.000316468
0.000316746
0.000317026
0.000317308
0.000317593
0.000317879
0.000318168
0.000318459
0.000318752
0.000319046
0.00031934
0.000319635
0.00031993
0.000320224
0.000320519
0.000320813
0.000321107
0.000321401
0.000321696
0.000321994
0.000322294
0.000322599
0.000322909
0.000323226
0.000323552
0.000323888
0.000324236
0.000324597
0.000324973
0.000325366
0.000325777
0.000326207
0.000326657
0.000327129
0.000327624
0.000328142
0.000328684
0.000329251
0.000329842
0.000330457
0.000331096
0.000331756
0.000332437
0.000333133
0.000333841
0.000334554
0.000335262
0.000335955
0.000336616
0.000337227
0.000337764
0.000338192
0.000338479
0.000338586
0.000338472
0.000338088
0.000337381
0.000336291
0.000334755
0.000332703
0.000330065
0.000326764
0.000322725
0.000317867
0.000312108
0.000305366
0.000297549
0.000288562
0.000278293
0.000266601
0.000253284
0.000238013
0.00022018
0.000198554
0.000170574
0.00013111
7.19736e-05
7.12249e-06
5.17585e-06
6.28393e-05
0.000125395
0.000175945
0.000217311
0.000251841
0.000280959
0.000305561
0.000326258
0.000343507
0.000357685
0.00036912
0.000378113
0.000384952
0.000389908
0.000393242
0.000395197
0.000396002
0.00039586
0.000394955
0.000393445
0.00039146
0.000389107
0.000386467
0.000383641
0.000380742
0.00037784
0.000374994
0.000372249
0.000369642
0.000367198
0.000364938
0.000362872
0.000361007
0.000359342
0.000357875
0.000356596
0.000355498
0.000354566
0.000353787
0.000353148
0.000352632
0.000352226
0.000351916
0.000351688
0.000351532
0.000351437
0.000351392
0.000351392
0.000351428
0.000351496
0.000351591
0.000351709
0.000351846
0.000352
0.000352168
0.000352348
0.000352539
0.000352742
0.000352956
0.00035318
0.000353415
0.000353659
0.000353912
0.000354174
0.000354443
0.000354718
0.000354999
0.000355284
0.000355572
0.000355862
0.000356155
0.000356448
0.000356742
0.000357037
0.000357331
0.000357626
0.000357921
0.000358218
0.000358516
0.000358817
0.000359122
0.000359433
0.000359749
0.000360074
0.000360407
0.000360751
0.000361106
0.000361474
0.000361855
0.000362249
0.000362656
0.000363077
0.000363511
0.000363956
0.000364412
0.000364877
0.000365349
0.000365826
0.000366306
0.000366786
0.000367264
0.000367739
0.000368207
0.000368668
0.000369119
0.000369558
0.000369986
0.000370401
0.000370802
0.000371191
0.000371566
0.00037193
0.000372282
0.000372624
0.000372957
0.000373283
0.000373603
0.000373918
0.000374231
0.000374541
0.000374852
0.000375163
0.000375476
0.000375791
0.000376108
0.000376429
0.000376752
0.000377078
0.000377406
0.000377736
0.000378068
0.000378401
0.000378734
0.000379068
0.000379402
0.000379735
0.000380069
0.000380404
0.000380739
0.000381076
0.000381416
0.00038176
0.00038211
0.000382466
0.000382832
0.000383207
0.000383596
0.000383998
0.000384417
0.000384854
0.000385311
0.00038579
0.000386292
0.00038682
0.000387374
0.000387957
0.000388569
0.000389213
0.000389888
0.000390596
0.000391337
0.00039211
0.000392916
0.000393752
0.000394615
0.0003955
0.000396402
0.00039731
0.000398212
0.000399093
0.000399931
0.0004007
0.000401366
0.000401896
0.000402249
0.000402378
0.000402231
0.000401749
0.000400869
0.00039952
0.000397624
0.000395101
0.000391863
0.000387815
0.000382858
0.000376881
0.000369763
0.000361367
0.000351534
0.00034007
0.000326724
0.000311147
0.000292797
0.000270764
0.000243392
0.00020758
0.000157674
8.56944e-05
9.62395e-06
5.17687e-06
6.28456e-05
0.000125402
0.000175951
0.000217318
0.000251847
0.000280964
0.000305565
0.000326261
0.000343511
0.000357688
0.000369122
0.000378115
0.000384953
0.000389909
0.000393243
0.000395198
0.000396002
0.00039586
0.000394956
0.000393445
0.00039146
0.000389107
0.000386467
0.000383641
0.000380742
0.000377841
0.000374995
0.00037225
0.000369642
0.000367199
0.000364939
0.000362873
0.000361008
0.000359343
0.000357876
0.000356598
0.000355499
0.000354567
0.000353789
0.000353149
0.000352633
0.000352227
0.000351917
0.00035169
0.000351534
0.000351438
0.000351394
0.000351393
0.00035143
0.000351498
0.000351592
0.00035171
0.000351847
0.000352002
0.00035217
0.00035235
0.000352541
0.000352743
0.000352957
0.000353181
0.000353416
0.00035366
0.000353914
0.000354175
0.000354444
0.00035472
0.000355
0.000355285
0.000355573
0.000355864
0.000356156
0.00035645
0.000356744
0.000357038
0.000357332
0.000357627
0.000357922
0.000358219
0.000358517
0.000358819
0.000359124
0.000359434
0.000359751
0.000360075
0.000360409
0.000360753
0.000361108
0.000361475
0.000361856
0.00036225
0.000362658
0.000363079
0.000363512
0.000363958
0.000364413
0.000364878
0.00036535
0.000365827
0.000366307
0.000366787
0.000367266
0.00036774
0.000368209
0.000368669
0.00036912
0.00036956
0.000369987
0.000370402
0.000370804
0.000371192
0.000371568
0.000371931
0.000372283
0.000372625
0.000372958
0.000373284
0.000373604
0.000373919
0.000374232
0.000374543
0.000374853
0.000375164
0.000375477
0.000375792
0.000376109
0.00037643
0.000376753
0.000377079
0.000377407
0.000377737
0.000378069
0.000378402
0.000378735
0.000379069
0.000379403
0.000379736
0.00038007
0.000380405
0.00038074
0.000381077
0.000381417
0.000381761
0.000382111
0.000382467
0.000382832
0.000383208
0.000383596
0.000383999
0.000384418
0.000384855
0.000385312
0.000385791
0.000386293
0.000386821
0.000387375
0.000387958
0.00038857
0.000389213
0.000389889
0.000390596
0.000391337
0.000392111
0.000392916
0.000393752
0.000394615
0.000395501
0.000396402
0.00039731
0.000398213
0.000399093
0.000399931
0.0004007
0.000401367
0.000401897
0.000402249
0.000402378
0.000402232
0.00040175
0.00040087
0.000399521
0.000397626
0.000395103
0.000391864
0.000387817
0.00038286
0.000376882
0.000369764
0.000361369
0.000351535
0.000340071
0.000326725
0.000311148
0.000292798
0.000270764
0.000243391
0.000207579
0.000157673
8.56927e-05
9.62331e-06
6.496e-06
6.94443e-05
0.000138287
0.000194758
0.000241293
0.000280275
0.000313228
0.00034113
0.000364655
0.000384305
0.000400486
0.000413556
0.000423843
0.00043166
0.000437309
0.000441083
0.00044326
0.000444104
0.000443857
0.000442737
0.000440933
0.000438607
0.000435891
0.000432891
0.000429696
0.000426435
0.000423185
0.000420008
0.000416952
0.000414054
0.000411341
0.000408831
0.000406535
0.000404458
0.0004026
0.000400956
0.000399518
0.000398275
0.000397214
0.00039632
0.000395579
0.000394975
0.000394492
0.000394117
0.000393835
0.000393633
0.000393502
0.000393429
0.000393408
0.000393429
0.000393487
0.000393577
0.000393694
0.000393834
0.000393994
0.00039417
0.000394361
0.000394565
0.000394781
0.00039501
0.00039525
0.000395502
0.000395765
0.000396037
0.000396319
0.000396609
0.000396906
0.000397209
0.000397518
0.000397832
0.000398149
0.000398469
0.000398791
0.000399115
0.00039944
0.000399768
0.000400096
0.000400427
0.00040076
0.000401096
0.000401437
0.000401782
0.000402134
0.000402493
0.00040286
0.000403238
0.000403626
0.000404025
0.000404438
0.000404863
0.000405301
0.000405753
0.000406217
0.000406693
0.000407179
0.000407675
0.000408179
0.000408688
0.000409201
0.000409716
0.000410229
0.000410739
0.000411243
0.00041174
0.000412228
0.000412705
0.00041317
0.000413621
0.000414059
0.000414484
0.000414895
0.000415292
0.000415678
0.000416052
0.000416416
0.000416772
0.00041712
0.000417463
0.000417802
0.000418139
0.000418474
0.00041881
0.000419146
0.000419485
0.000419826
0.00042017
0.000420517
0.000420867
0.00042122
0.000421576
0.000421933
0.000422293
0.000422654
0.000423015
0.000423377
0.00042374
0.000424103
0.000424466
0.000424831
0.000425197
0.000425567
0.000425939
0.000426317
0.000426702
0.000427095
0.000427498
0.000427914
0.000428344
0.00042879
0.000429256
0.000429742
0.000430251
0.000430786
0.000431348
0.00043194
0.000432564
0.000433222
0.000433916
0.000434647
0.000435419
0.000436232
0.000437088
0.000437987
0.000438929
0.000439915
0.00044094
0.000442003
0.000443097
0.000444212
0.000445338
0.000446459
0.000447552
0.000448592
0.000449547
0.000450383
0.000451058
0.000451526
0.000451732
0.000451616
0.00045111
0.000450141
0.000448626
0.000446474
0.000443586
0.000439852
0.000435149
0.000429335
0.000422249
0.000413704
0.000403471
0.000391271
0.000376743
0.000359391
0.000338487
0.000312866
0.000280558
0.000238107
0.000179582
9.73154e-05
1.19124e-05
6.49724e-06
6.94506e-05
0.000138293
0.000194765
0.000241299
0.00028028
0.000313232
0.000341134
0.000364658
0.000384307
0.000400488
0.000413557
0.000423844
0.000431661
0.000437309
0.000441082
0.000443259
0.000444103
0.000443857
0.000442736
0.000440933
0.000438606
0.00043589
0.000432891
0.000429696
0.000426435
0.000423185
0.000420008
0.000416952
0.000414054
0.000411341
0.000408831
0.000406535
0.000404459
0.000402601
0.000400957
0.000399519
0.000398276
0.000397215
0.000396321
0.00039558
0.000394975
0.000394493
0.000394117
0.000393835
0.000393634
0.000393502
0.00039343
0.000393408
0.00039343
0.000393488
0.000393578
0.000393695
0.000393835
0.000393994
0.000394171
0.000394361
0.000394565
0.000394782
0.00039501
0.000395251
0.000395503
0.000395765
0.000396038
0.000396319
0.000396609
0.000396906
0.00039721
0.000397519
0.000397832
0.000398149
0.000398469
0.000398791
0.000399115
0.000399441
0.000399768
0.000400097
0.000400427
0.000400761
0.000401097
0.000401437
0.000401783
0.000402134
0.000402493
0.000402861
0.000403238
0.000403626
0.000404026
0.000404438
0.000404863
0.000405302
0.000405753
0.000406217
0.000406693
0.00040718
0.000407676
0.00040818
0.000408689
0.000409202
0.000409716
0.000410229
0.000410739
0.000411244
0.000411741
0.000412228
0.000412705
0.00041317
0.000413622
0.00041406
0.000414484
0.000414895
0.000415293
0.000415678
0.000416052
0.000416416
0.000416772
0.000417121
0.000417463
0.000417803
0.000418139
0.000418474
0.00041881
0.000419146
0.000419485
0.000419826
0.00042017
0.000420517
0.000420867
0.00042122
0.000421576
0.000421934
0.000422293
0.000422654
0.000423015
0.000423377
0.00042374
0.000424103
0.000424467
0.000424831
0.000425198
0.000425567
0.000425939
0.000426317
0.000426702
0.000427095
0.000427498
0.000427914
0.000428344
0.00042879
0.000429256
0.000429742
0.000430251
0.000430786
0.000431348
0.00043194
0.000432564
0.000433222
0.000433916
0.000434647
0.000435419
0.000436232
0.000437087
0.000437986
0.000438929
0.000439914
0.00044094
0.000442003
0.000443096
0.000444212
0.000445338
0.000446458
0.000447552
0.000448592
0.000449547
0.000450383
0.000451058
0.000451526
0.000451732
0.000451616
0.000451111
0.000450142
0.000448627
0.000446475
0.000443587
0.000439853
0.00043515
0.000429336
0.000422251
0.000413705
0.000403472
0.000391272
0.000376744
0.000359392
0.000338487
0.000312865
0.000280557
0.000238105
0.000179579
9.73131e-05
1.19116e-05
7.77646e-06
7.56396e-05
0.000149417
0.000210293
0.000260605
0.000302806
0.00033851
0.000368766
0.000394301
0.000415651
0.000433252
0.000447479
0.000458679
0.000467179
0.0004733
0.000477354
0.000479643
0.000480457
0.000480066
0.000478715
0.000476622
0.000473973
0.000470924
0.000467597
0.000464089
0.000460526
0.000456991
0.000453549
0.000450249
0.000447127
0.000444209
0.000441511
0.000439042
0.000436805
0.000434798
0.000433016
0.00043145
0.000430087
0.000428915
0.000427919
0.000427083
0.000426392
0.000425831
0.000425384
0.000425039
0.000424781
0.0004246
0.000424485
0.000424426
0.000424416
0.000424448
0.000424517
0.000424616
0.000424742
0.000424891
0.00042506
0.000425246
0.000425446
0.000425662
0.000425891
0.000426134
0.000426389
0.000426657
0.000426936
0.000427225
0.000427524