/*--------------------------------*- C++ -*----------------------------------*\
  =========                 |
  \\      /  F ield         | OpenFOAM: The Open Source CFD Toolbox
   \\    /   O peration     | Website:  https://openfoam.org
    \\  /    A nd           | Version:  8
     \\/     M anipulation  |
\*---------------------------------------------------------------------------*/
FoamFile
{
    version     2.0;
    format      ascii;
    class       surfaceScalarField;
    location    "500";
    object      phi;
}
// * * * * * * * * * * * * * * * * * * * * * * * * * * * * * * * * * * * * * //

dimensions      [1 0 -1 0 0 0 0];

internalField   nonuniform List<scalar> 
114370
(
-3.95617e-09
-3.53936e-13
3.95652e-09
-6.17444e-09
-1.38081e-12
2.20905e-09
-5.65199e-09
-1.48643e-13
-5.1656e-10
-2.91335e-09
-5.30126e-14
-2.73274e-09
1.24605e-09
-2.98536e-13
-4.15829e-09
6.20001e-09
-4.02935e-13
-4.95331e-09
1.15037e-08
-4.5899e-13
-5.30325e-09
1.68862e-08
-4.84661e-13
-5.38248e-09
2.2162e-08
-4.62756e-13
-5.27607e-09
2.72028e-08
-3.91866e-13
-5.04123e-09
3.19188e-08
-2.91082e-13
-4.71679e-09
3.62485e-08
-1.91442e-13
-4.33052e-09
4.01512e-08
-1.22387e-13
-3.90346e-09
4.36028e-08
-9.43455e-14
-3.45226e-09
4.65927e-08
-9.60017e-14
-2.99051e-09
4.91217e-08
-1.04254e-13
-2.52952e-09
5.12001e-08
-1.00793e-13
-2.07875e-09
5.28459e-08
-8.11578e-14
-1.64608e-09
5.40837e-08
-5.16971e-14
-1.23796e-09
5.49431e-08
-2.27732e-14
-8.59605e-10
5.54581e-08
-2.39955e-15
-5.15154e-10
5.56659e-08
7.65116e-15
-2.07806e-10
5.5605e-08
1.13692e-14
6.10493e-11
5.53124e-08
1.3738e-14
2.92811e-10
5.48234e-08
1.67973e-14
4.89292e-10
5.41724e-08
1.88964e-14
6.51459e-10
5.3392e-08
1.61184e-14
7.80843e-10
5.25132e-08
6.19587e-15
8.79401e-10
5.15644e-08
-8.86796e-15
9.49434e-10
5.05716e-08
-2.39599e-14
9.93514e-10
4.95579e-08
-3.46354e-14
1.01442e-09
4.85436e-08
-3.98372e-14
1.01502e-09
4.75461e-08
-4.12201e-14
9.98262e-10
4.65799e-08
-4.05544e-14
9.67024e-10
4.56566e-08
-3.81652e-14
9.2411e-10
4.47852e-08
-3.33721e-14
8.7217e-10
4.39723e-08
-2.57828e-14
8.13667e-10
4.32221e-08
-1.60964e-14
7.50832e-10
4.25371e-08
-5.87237e-15
6.85646e-10
4.19179e-08
3.30568e-15
6.19822e-10
4.13636e-08
1.03676e-14
5.54804e-10
4.08723e-08
1.47771e-14
4.91767e-10
4.0441e-08
1.63735e-14
4.31626e-10
4.00663e-08
1.53013e-14
3.75058e-10
3.9744e-08
1.19399e-14
3.22515e-10
3.94698e-08
6.79825e-15
2.74258e-10
3.92395e-08
4.633e-16
2.3038e-10
3.90487e-08
-6.40465e-15
1.90834e-10
3.88932e-08
-1.30879e-14
1.55468e-10
3.87691e-08
-1.88948e-14
1.24042e-10
3.86728e-08
-2.32308e-14
9.62604e-11
3.86008e-08
-2.56626e-14
7.17865e-11
3.85504e-08
-2.60076e-14
5.02624e-11
3.85189e-08
-2.43983e-14
3.13199e-11
3.85041e-08
-2.12116e-14
1.45953e-11
3.85041e-08
-1.71918e-14
-2.38185e-13
3.85172e-08
-1.30124e-14
-1.32775e-11
3.85416e-08
-9.15461e-15
-2.4611e-11
3.85758e-08
-6.1657e-15
-3.44833e-11
3.86187e-08
-4.38936e-15
-4.30845e-11
3.86691e-08
-3.93574e-15
-5.05679e-11
3.8726e-08
-4.67734e-15
-5.70533e-11
3.87885e-08
-6.27481e-15
-6.26293e-11
3.88557e-08
-8.29034e-15
-6.73578e-11
3.89269e-08
-1.03028e-14
-7.12806e-11
3.90012e-08
-1.1994e-14
-7.44245e-11
3.90779e-08
-1.3168e-14
-7.68072e-11
3.91562e-08
-1.37558e-14
-7.8442e-11
3.92355e-08
-1.38029e-14
-7.93416e-11
3.93149e-08
-1.34251e-14
-7.95215e-11
3.93939e-08
-1.27367e-14
-7.90034e-11
3.94716e-08
-1.18212e-14
-7.78166e-11
3.95476e-08
-1.06931e-14
-7.60009e-11
3.96211e-08
-9.34354e-15
-7.36069e-11
3.96918e-08
-7.72223e-15
-7.06978e-11
3.97591e-08
-5.75376e-15
-6.73493e-11
3.98227e-08
-3.37049e-15
-6.36499e-11
3.98823e-08
-6.53929e-16
-5.9701e-11
3.99379e-08
2.12768e-15
-5.56153e-11
3.99894e-08
4.55801e-15
-5.15162e-11
4.00369e-08
6.22615e-15
-4.75344e-11
4.00807e-08
6.85454e-15
-4.38055e-11
4.01211e-08
6.35905e-15
-4.04662e-11
4.01588e-08
4.85396e-15
-3.76501e-11
4.01942e-08
2.59384e-15
-3.5484e-11
4.02283e-08
-8.43445e-17
-3.40833e-11
4.02619e-08
-2.80394e-15
-3.3548e-11
4.02959e-08
-5.16987e-15
-3.39583e-11
4.03313e-08
-6.82804e-15
-3.53707e-11
4.03691e-08
-7.53015e-15
-3.78148e-11
4.04104e-08
-7.19468e-15
-4.12906e-11
4.04562e-08
-5.9229e-15
-4.57668e-11
4.05074e-08
-4.00905e-15
-5.11804e-11
4.05649e-08
-1.92519e-15
-5.74375e-11
4.06294e-08
-2.30349e-16
-6.44145e-11
4.07014e-08
5.56586e-16
-7.19611e-11
4.07814e-08
9.86419e-17
-7.99046e-11
4.08695e-08
-1.68875e-15
-8.80547e-11
4.09657e-08
-4.60306e-15
-9.62098e-11
4.10699e-08
-8.17939e-15
-1.04164e-10
4.11817e-08
-1.17345e-14
-1.11714e-10
4.13003e-08
-1.4474e-14
-1.18669e-10
4.14252e-08
-1.56918e-14
-1.24855e-10
4.15553e-08
-1.4984e-14
-1.30122e-10
4.16896e-08
-1.2383e-14
-1.34352e-10
4.18271e-08
-8.3123e-15
-1.37458e-10
4.19664e-08
-3.48328e-15
-1.39394e-10
4.21066e-08
1.20176e-15
-1.40147e-10
4.22463e-08
4.75293e-15
-1.39743e-10
4.23846e-08
6.38963e-15
-1.38239e-10
4.25204e-08
5.91213e-15
-1.35728e-10
4.26528e-08
3.86101e-15
-1.32325e-10
4.2781e-08
1.2678e-15
-1.28168e-10
4.29046e-08
-7.76152e-16
-1.23412e-10
4.3023e-08
-1.3329e-15
-1.18222e-10
4.31359e-08
3.56699e-16
-1.1277e-10
4.32434e-08
4.66866e-15
-1.07226e-10
4.33454e-08
1.1107e-14
-1.01754e-10
4.34421e-08
1.81152e-14
-9.65064e-11
4.3534e-08
2.3679e-14
-9.16176e-11
4.36215e-08
2.64281e-14
-8.72017e-11
4.37051e-08
2.61704e-14
-8.33465e-11
4.37856e-08
2.35305e-14
-8.01118e-11
4.38634e-08
1.92688e-14
-7.75289e-11
4.39392e-08
1.42159e-14
-7.5602e-11
4.40138e-08
9.65807e-15
-7.43086e-11
4.40876e-08
7.1837e-15
-7.36023e-11
4.41611e-08
7.58561e-15
-7.34172e-11
4.42349e-08
9.71432e-15
-7.36731e-11
4.43092e-08
1.07641e-14
-7.42817e-11
4.43844e-08
8.06675e-15
-7.51492e-11
4.44606e-08
9.75304e-16
-7.61796e-11
4.45379e-08
-8.7437e-15
-7.72776e-11
4.46162e-08
-1.81614e-14
-7.83546e-11
4.46955e-08
-2.48019e-14
-7.9334e-11
4.47757e-08
-2.74959e-14
-8.01562e-11
4.48564e-08
-2.63309e-14
-8.07815e-11
4.49376e-08
-2.23424e-14
-8.11921e-11
4.5019e-08
-1.72407e-14
-8.13934e-11
4.51004e-08
-1.28488e-14
-8.14127e-11
4.51818e-08
-1.00979e-14
-8.12968e-11
4.52631e-08
-8.21051e-15
-8.11058e-11
4.53442e-08
-4.98295e-15
-8.09081e-11
4.54253e-08
1.59404e-15
-8.07773e-11
4.55064e-08
1.1521e-14
-8.07902e-11
4.55878e-08
2.22513e-14
-8.10253e-11
4.56696e-08
3.00608e-14
-8.15579e-11
4.57524e-08
3.24503e-14
-8.2453e-11
4.58365e-08
2.988e-14
-8.37584e-11
4.59223e-08
2.55673e-14
-8.55003e-11
4.60102e-08
2.34026e-14
-8.76829e-11
4.61006e-08
2.53984e-14
-9.0289e-11
4.61939e-08
3.03811e-14
-9.32824e-11
4.62904e-08
3.48239e-14
-9.66074e-11
4.63904e-08
3.52508e-14
-1.00189e-10
4.64941e-08
3.0623e-14
-1.03931e-10
4.66015e-08
2.30892e-14
-1.07719e-10
4.67126e-08
1.65173e-14
-1.1142e-10
4.68271e-08
1.36602e-14
-1.14885e-10
4.69447e-08
1.39173e-14
-1.17951e-10
4.70648e-08
1.34859e-14
-1.20442e-10
4.71867e-08
8.24649e-15
-1.22166e-10
4.73094e-08
-2.49491e-15
-1.22919e-10
4.74317e-08
-1.45615e-14
-1.22473e-10
4.75521e-08
-2.14973e-14
-1.20576e-10
4.76691e-08
-1.95291e-14
-1.16944e-10
4.77803e-08
-1.08086e-14
-1.11251e-10
4.78836e-08
-1.92919e-15
-1.03129e-10
4.79759e-08
1.25935e-15
-9.21488e-11
4.80539e-08
-1.8459e-15
-7.78048e-11
4.81137e-08
-6.47172e-15
-5.94875e-11
4.81505e-08
-6.35872e-15
-3.64292e-11
4.81586e-08
1.85511e-15
-7.75451e-12
4.8131e-08
1.62104e-14
2.78992e-11
4.80588e-08
3.0061e-14
7.24253e-11
4.79313e-08
3.51201e-14
1.27826e-10
4.77352e-08
2.64832e-14
1.96338e-10
4.74549e-08
7.81166e-15
2.80574e-10
4.70716e-08
-9.14769e-15
3.83542e-10
4.65631e-08
-1.27465e-14
5.08637e-10
4.59035e-08
-1.09794e-15
6.59592e-10
4.50632e-08
1.53111e-14
8.40365e-10
4.40082e-08
2.04188e-14
1.05496e-09
4.2701e-08
4.56665e-15
1.30715e-09
4.11009e-08
-2.4924e-14
1.60014e-09
3.91649e-08
-4.33256e-14
1.93609e-09
3.68493e-08
-2.5295e-14
2.31546e-09
3.41131e-08
2.79606e-14
2.73613e-09
3.09209e-08
7.62734e-14
3.1922e-09
2.72489e-08
6.43894e-14
3.67231e-09
2.30919e-08
-3.13024e-14
4.15742e-09
1.84746e-08
-1.76787e-13
4.6176e-09
1.3468e-08
-3.01425e-13
5.00661e-09
8.21615e-09
-3.5024e-13
5.25169e-09
2.97792e-09
-3.40272e-13
5.23796e-09
-1.77282e-09
-3.65133e-13
4.7504e-09
-5.25449e-09
-5.13759e-13
3.48119e-09
-6.45433e-09
-7.82408e-13
1.1991e-09
-4.54053e-09
-1.16008e-12
-1.91483e-09
-1.45192e-12
-4.54094e-09
-3.9609e-09
3.96162e-09
-6.17004e-09
2.21071e-09
-5.65159e-09
-5.1692e-10
-2.91407e-09
-2.73258e-09
1.24612e-09
-4.15755e-09
6.20037e-09
-4.95235e-09
1.15041e-08
-5.3022e-09
1.68866e-08
-5.38138e-09
2.21624e-08
-5.27496e-09
2.72031e-08
-5.04017e-09
3.19193e-08
-4.71586e-09
3.62491e-08
-4.32977e-09
4.01518e-08
-3.90293e-09
4.36034e-08
-3.45194e-09
4.65932e-08
-2.9904e-09
4.91221e-08
-2.52957e-09
5.12004e-08
-2.07891e-09
5.2846e-08
-1.64628e-09
5.40837e-08
-1.23815e-09
5.49431e-08
-8.59801e-10
5.54582e-08
-5.15382e-10
5.5666e-08
-2.08094e-10
5.5605e-08
6.0694e-11
5.53124e-08
2.92408e-10
5.48233e-08
4.8888e-10
5.41722e-08
6.51079e-10
5.33919e-08
7.80523e-10
5.2513e-08
8.79154e-10
5.15642e-08
9.49257e-10
5.05714e-08
9.93398e-10
4.95577e-08
1.01435e-09
4.85435e-08
1.015e-09
4.7546e-08
9.98274e-10
4.65798e-08
9.67073e-10
4.56565e-08
9.24191e-10
4.47851e-08
8.72275e-10
4.39722e-08
8.13785e-10
4.32221e-08
7.50953e-10
4.25371e-08
6.85764e-10
4.19179e-08
6.19932e-10
4.13636e-08
5.54901e-10
4.08723e-08
4.91847e-10
4.04411e-08
4.31688e-10
4.00663e-08
3.75098e-10
3.9744e-08
3.22532e-10
3.94699e-08
2.74253e-10
3.92396e-08
2.30353e-10
3.90488e-08
1.90789e-10
3.88933e-08
1.55409e-10
3.87692e-08
1.23974e-10
3.86728e-08
9.61871e-11
3.86008e-08
7.1713e-11
3.85504e-08
5.01918e-11
3.85189e-08
3.12535e-11
3.85041e-08
1.45333e-11
3.85041e-08
-2.95763e-13
3.85172e-08
-1.33305e-11
3.85416e-08
-2.46595e-11
3.85759e-08
-3.4527e-11
3.86188e-08
-4.31224e-11
3.86692e-08
-5.0599e-11
3.87261e-08
-5.70771e-11
3.87885e-08
-6.26461e-11
3.88558e-08
-6.7369e-11
3.89269e-08
-7.12881e-11
3.90012e-08
-7.44307e-11
3.9078e-08
-7.68145e-11
3.91563e-08
-7.84521e-11
3.92356e-08
-7.9355e-11
3.9315e-08
-7.95375e-11
3.93939e-08
-7.90198e-11
3.94717e-08
-7.78307e-11
3.95476e-08
-7.60098e-11
3.96211e-08
-7.36087e-11
3.96918e-08
-7.06917e-11
3.97591e-08
-6.7336e-11
3.98227e-08
-6.36319e-11
3.98823e-08
-5.96817e-11
3.99379e-08
-5.55987e-11
3.99894e-08
-5.15052e-11
4.00369e-08
-4.75307e-11
4.00807e-08
-4.38087e-11
4.01211e-08
-4.04737e-11
4.01588e-08
-3.76579e-11
4.01943e-08
-3.54876e-11
4.02283e-08
-3.40788e-11
4.02619e-08
-3.3533e-11
4.02959e-08
-3.39324e-11
4.03313e-08
-3.53358e-11
4.03691e-08
-3.77747e-11
4.04104e-08
-4.12504e-11
4.04562e-08
-4.5732e-11
4.05075e-08
-5.11558e-11
4.0565e-08
-5.7426e-11
4.06294e-08
-6.4417e-11
4.07015e-08
-7.19759e-11
4.07814e-08
-7.99279e-11
4.08695e-08
-8.80812e-11
4.09658e-08
-9.6234e-11
4.107e-08
-1.04181e-10
4.11817e-08
-1.11722e-10
4.13004e-08
-1.18667e-10
4.14252e-08
-1.24845e-10
4.15553e-08
-1.30108e-10
4.16896e-08
-1.34338e-10
4.18271e-08
-1.37449e-10
4.19665e-08
-1.39392e-10
4.21066e-08
-1.40152e-10
4.22464e-08
-1.39752e-10
4.23846e-08
-1.38247e-10
4.25204e-08
-1.35727e-10
4.26528e-08
-1.32309e-10
4.27811e-08
-1.28132e-10
4.29046e-08
-1.23354e-10
4.3023e-08
-1.18147e-10
4.31359e-08
-1.12683e-10
4.32434e-08
-1.07136e-10
4.33454e-08
-1.01669e-10
4.34422e-08
-9.64324e-11
4.3534e-08
-9.15588e-11
4.36215e-08
-8.7156e-11
4.37051e-08
-8.33068e-11
4.37855e-08
-8.0069e-11
4.38633e-08
-7.74766e-11
4.39392e-08
-7.55394e-11
4.40137e-08
-7.42414e-11
4.40875e-08
-7.35409e-11
4.41611e-08
-7.33731e-11
4.42349e-08
-7.36558e-11
4.43092e-08
-7.42944e-11
4.43844e-08
-7.51876e-11
4.44606e-08
-7.62322e-11
4.45379e-08
-7.73299e-11
4.46162e-08
-7.83936e-11
4.46955e-08
-7.93526e-11
4.47756e-08
-8.01544e-11
4.48564e-08
-8.07646e-11
4.49376e-08
-8.11671e-11
4.5019e-08
-8.13648e-11
4.51004e-08
-8.13809e-11
4.51819e-08
-8.12581e-11
4.52631e-08
-8.10557e-11
4.53443e-08
-8.08446e-11
4.54253e-08
-8.07032e-11
4.55064e-08
-8.07124e-11
4.55878e-08
-8.09517e-11
4.56697e-08
-8.14939e-11
4.57524e-08
-8.23996e-11
4.58365e-08
-8.37129e-11
4.59222e-08
-8.54594e-11
4.60101e-08
-8.76448e-11
4.61005e-08
-9.02559e-11
4.61938e-08
-9.32591e-11
4.62904e-08
-9.66007e-11
4.63904e-08
-1.00205e-10
4.64941e-08
-1.03972e-10
4.66015e-08
-1.07782e-10
4.67126e-08
-1.11496e-10
4.68271e-08
-1.1496e-10
4.69447e-08
-1.18013e-10
4.70648e-08
-1.20482e-10
4.71866e-08
-1.2218e-10
4.73093e-08
-1.22906e-10
4.74316e-08
-1.22436e-10
4.75521e-08
-1.2052e-10
4.7669e-08
-1.16876e-10
4.77803e-08
-1.11181e-10
4.78836e-08
-1.03064e-10
4.79759e-08
-9.20884e-11
4.80539e-08
-7.77431e-11
4.81137e-08
-5.94203e-11
4.81505e-08
-3.63594e-11
4.81585e-08
-7.69183e-12
4.8131e-08
2.79459e-11
4.80588e-08
7.24521e-11
4.79313e-08
1.27833e-10
4.77352e-08
1.96332e-10
4.74549e-08
2.80569e-10
4.70715e-08
3.83554e-10
4.6563e-08
5.08674e-10
4.59035e-08
6.59647e-10
4.50632e-08
8.4042e-10
4.40083e-08
1.055e-09
4.27011e-08
1.30718e-09
4.1101e-08
1.60018e-09
3.91649e-08
1.93612e-09
3.68494e-08
2.31544e-09
3.41132e-08
2.73607e-09
3.09209e-08
3.19218e-09
2.72487e-08
3.6725e-09
2.30915e-08
4.15797e-09
1.84743e-08
4.61849e-09
1.34679e-08
5.00767e-09
8.21614e-09
5.2528e-09
2.97767e-09
5.23932e-09
-1.77352e-09
4.7524e-09
-5.2555e-09
3.48409e-09
-6.4553e-09
1.20287e-09
-4.54099e-09
-1.91067e-09
-4.5387e-09
-1.86923e-09
1.05471e-12
5.838e-09
-1.03297e-09
-4.21817e-13
1.36719e-09
1.62374e-09
-8.49444e-14
-3.17737e-09
5.32702e-09
5.83716e-14
-6.437e-09
9.7157e-09
7.69547e-14
-8.54779e-09
1.45336e-08
9.64727e-14
-9.77161e-09
1.95769e-08
1.01111e-13
-1.03467e-08
2.46675e-08
8.87599e-14
-1.04729e-08
2.96687e-08
6.50448e-14
-1.02771e-08
3.44769e-08
3.81391e-14
-9.84923e-09
3.9014e-08
1.67626e-14
-9.25369e-09
4.32224e-08
6.14023e-15
-8.53877e-09
4.70611e-08
4.61229e-15
-7.74226e-09
5.05036e-08
5.30836e-15
-6.89482e-09
5.35348e-08
2.18558e-15
-6.022e-09
5.61503e-08
-5.79501e-15
-5.14533e-09
5.83542e-08
-1.59003e-14
-4.28305e-09
6.01582e-08
-2.43441e-14
-3.45048e-09
6.15801e-08
-2.89696e-14
-2.66025e-09
6.26427e-08
-3.0244e-14
-1.92256e-09
6.33727e-08
-3.01277e-14
-1.24536e-09
6.3799e-08
-3.02694e-14
-6.34404e-10
6.39532e-08
-3.09303e-14
-9.32683e-11
6.38688e-08
-3.08401e-14
3.77129e-10
6.358e-08
-2.81725e-14
7.78088e-10
6.31197e-08
-2.18304e-14
1.11182e-09
6.25195e-08
-1.25554e-14
1.38125e-09
6.18091e-08
-2.65925e-15
1.59005e-09
6.10163e-08
5.55159e-15
1.74259e-09
6.01664e-08
1.11624e-14
1.84378e-09
5.92824e-08
1.47099e-14
1.89892e-09
5.83845e-08
1.71883e-14
1.91354e-09
5.74901e-08
1.90241e-14
1.89329e-09
5.66139e-08
1.99026e-14
1.84376e-09
5.57683e-08
1.93911e-14
1.77039e-09
5.49628e-08
1.75426e-14
1.67832e-09
5.42047e-08
1.4967e-14
1.57236e-09
5.34993e-08
1.2486e-14
1.45688e-09
5.28497e-08
1.07555e-14
1.33578e-09
5.22576e-08
1.01004e-14
1.21244e-09
5.17231e-08
1.05254e-14
1.08973e-09
5.12453e-08
1.17797e-14
9.70001e-10
5.08221e-08
1.33837e-14
8.55116e-10
5.04509e-08
1.47169e-14
7.46461e-10
5.01286e-08
1.52239e-14
6.45e-10
4.98516e-08
1.4619e-14
5.51323e-10
4.96163e-08
1.29266e-14
4.65692e-10
4.9419e-08
1.03805e-14
3.88102e-10
4.92561e-08
7.31601e-15
3.1833e-10
4.9124e-08
4.11534e-15
2.55987e-10
4.90195e-08
1.14658e-15
2.00565e-10
4.89396e-08
-1.32541e-15
1.5148e-10
4.88815e-08
-3.19832e-15
1.08105e-10
4.88428e-08
-4.51558e-15
6.98041e-11
4.88212e-08
-5.39114e-15
3.59668e-11
4.88146e-08
-5.90301e-15
6.03537e-12
4.88215e-08
-6.12836e-15
-2.03748e-11
4.88402e-08
-6.14382e-15
-4.35753e-11
4.88694e-08
-5.99241e-15
-6.39275e-11
4.89078e-08
-5.74034e-15
-8.17489e-11
4.89543e-08
-5.46549e-15
-9.73042e-11
4.90078e-08
-5.2499e-15
-1.10804e-10
4.90674e-08
-5.14635e-15
-1.22409e-10
4.91321e-08
-5.17953e-15
-1.32237e-10
4.9201e-08
-5.34953e-15
-1.40371e-10
4.92733e-08
-5.62042e-15
-1.46869e-10
4.93481e-08
-5.90388e-15
-1.51772e-10
4.94246e-08
-6.05936e-15
-1.55117e-10
4.95021e-08
-5.93104e-15
-1.56937e-10
4.95797e-08
-5.39485e-15
-1.57276e-10
4.96568e-08
-4.40481e-15
-1.56185e-10
4.97327e-08
-3.01199e-15
-1.53736e-10
4.98066e-08
-1.36216e-15
-1.50017e-10
4.98781e-08
3.19761e-16
-1.4514e-10
4.99465e-08
1.76711e-15
-1.3924e-10
5.00116e-08
2.73438e-15
-1.32476e-10
5.00729e-08
3.04983e-15
-1.25031e-10
5.01302e-08
2.64601e-15
-1.1711e-10
5.01835e-08
1.56663e-15
-1.08941e-10
5.02326e-08
-2.27589e-17
-1.00768e-10
5.02779e-08
-1.84254e-15
-9.28519e-11
5.03194e-08
-3.54365e-15
-8.54582e-11
5.03577e-08
-4.78457e-15
-7.88566e-11
5.03933e-08
-5.31506e-15
-7.3311e-11
5.04268e-08
-5.05056e-15
-6.90719e-11
5.04591e-08
-4.09515e-15
-6.63674e-11
5.04909e-08
-2.70508e-15
-6.53948e-11
5.05232e-08
-1.20085e-15
-6.63116e-11
5.05571e-08
1.15337e-16
-6.92274e-11
5.05934e-08
1.01958e-15
-7.41976e-11
5.06334e-08
1.3969e-15
-8.12179e-11
5.06778e-08
1.26107e-15
-9.02211e-11
5.07278e-08
7.42297e-16
-1.01076e-10
5.07839e-08
4.2085e-17
-1.1359e-10
5.08471e-08
-6.25709e-16
-1.27512e-10
5.09177e-08
-1.07926e-15
-1.42538e-10
5.09961e-08
-1.18766e-15
-1.58323e-10
5.10826e-08
-8.86889e-16
-1.74489e-10
5.1177e-08
-1.97374e-16
-1.90639e-10
5.12792e-08
7.77176e-16
-2.06371e-10
5.13888e-08
1.87857e-15
-2.21292e-10
5.15052e-08
2.94533e-15
-2.3503e-10
5.16276e-08
3.85726e-15
-2.4725e-10
5.17551e-08
4.52746e-15
-2.57664e-10
5.18868e-08
4.88313e-15
-2.66042e-10
5.20216e-08
4.89158e-15
-2.72218e-10
5.21583e-08
4.62367e-15
-2.76098e-10
5.22958e-08
4.26821e-15
-2.77655e-10
5.2433e-08
4.03553e-15
-2.76938e-10
5.25688e-08
4.07731e-15
-2.74059e-10
5.27024e-08
4.51489e-15
-2.69196e-10
5.28327e-08
5.50199e-15
-2.62575e-10
5.29591e-08
7.15761e-15
-2.5447e-10
5.3081e-08
9.35311e-15
-2.45183e-10
5.3198e-08
1.16367e-14
-2.35043e-10
5.33099e-08
1.34681e-14
-2.24384e-10
5.34164e-08
1.45605e-14
-2.13541e-10
5.35177e-08
1.49236e-14
-2.02827e-10
5.3614e-08
1.4603e-14
-1.92537e-10
5.37056e-08
1.35402e-14
-1.82928e-10
5.37929e-08
1.18295e-14
-1.74221e-10
5.38764e-08
1.00302e-14
-1.66582e-10
5.39567e-08
8.95828e-15
-1.60127e-10
5.40343e-08
8.96716e-15
-1.54913e-10
5.41098e-08
9.43798e-15
-1.50952e-10
5.41839e-08
9.13115e-15
-1.48207e-10
5.4257e-08
7.10781e-15
-1.46597e-10
5.43297e-08
3.31674e-15
-1.45999e-10
5.44024e-08
-1.6565e-15
-1.46255e-10
5.44754e-08
-7.21277e-15
-1.47189e-10
5.45489e-08
-1.29243e-14
-1.48612e-10
5.4623e-08
-1.81668e-14
-1.5034e-10
5.46979e-08
-2.18719e-14
-1.52192e-10
5.47736e-08
-2.29812e-14
-1.54002e-10
5.48499e-08
-2.13121e-14
-1.55631e-10
5.49267e-08
-1.79359e-14
-1.56972e-10
5.5004e-08
-1.45578e-14
-1.57957e-10
5.50815e-08
-1.23738e-14
-1.58562e-10
5.51591e-08
-1.13704e-14
-1.58797e-10
5.52366e-08
-1.05783e-14
-1.5871e-10
5.5314e-08
-8.90932e-15
-1.58385e-10
5.53911e-08
-5.83398e-15
-1.57932e-10
5.54681e-08
-1.51712e-15
-1.57488e-10
5.55449e-08
3.39291e-15
-1.57202e-10
5.56218e-08
7.9845e-15
-1.57227e-10
5.56989e-08
1.1253e-14
-1.57713e-10
5.57766e-08
1.24209e-14
-1.58791e-10
5.58551e-08
1.14379e-14
-1.60572e-10
5.59348e-08
9.2739e-15
-1.63136e-10
5.6016e-08
7.52905e-15
-1.66526e-10
5.60992e-08
7.32978e-15
-1.70748e-10
5.61847e-08
8.26496e-15
-1.75766e-10
5.62729e-08
8.34547e-15
-1.81502e-10
5.6364e-08
5.32689e-15
-1.87837e-10
5.64582e-08
-1.44677e-15
-1.94608e-10
5.65556e-08
-1.01574e-14
-2.01616e-10
5.66562e-08
-1.74377e-14
-2.08626e-10
5.67599e-08
-2.0572e-14
-2.15372e-10
5.68662e-08
-1.93204e-14
-2.21562e-10
5.69749e-08
-1.59483e-14
-2.26879e-10
5.70852e-08
-1.34243e-14
-2.30973e-10
5.71963e-08
-1.31629e-14
-2.33466e-10
5.73073e-08
-1.40423e-14
-2.33945e-10
5.74168e-08
-1.34893e-14
-2.31959e-10
5.75234e-08
-9.81975e-15
-2.27004e-10
5.76251e-08
-3.90281e-15
-2.18509e-10
5.772e-08
1.39739e-15
-2.05815e-10
5.78054e-08
3.68112e-15
-1.88153e-10
5.78782e-08
3.17044e-15
-1.64605e-10
5.79349e-08
2.31579e-15
-1.34063e-10
5.7971e-08
2.96965e-15
-9.51737e-11
5.79813e-08
4.1119e-15
-4.62625e-11
5.79593e-08
3.1528e-15
1.4741e-11
5.7897e-08
-7.13718e-17
9.05923e-11
5.77852e-08
-1.7416e-15
1.84713e-10
5.76124e-08
1.90372e-15
3.01029e-10
5.73649e-08
9.04009e-15
4.44114e-10
5.70266e-08
1.27367e-14
6.19234e-10
5.65781e-08
8.45923e-15
8.3236e-10
5.59969e-08
-2.90945e-17
1.09011e-09
5.52571e-08
-4.10678e-15
1.39965e-09
5.43292e-08
4.4283e-16
1.76841e-09
5.31806e-08
9.1024e-15
2.20376e-09
5.17753e-08
1.37198e-14
2.71246e-09
5.00756e-08
1.00797e-14
3.29992e-09
4.80426e-08
-3.90417e-16
3.96918e-09
4.56384e-08
-1.27471e-14
4.71967e-09
4.2829e-08
-1.79961e-14
5.54558e-09
3.95873e-08
-4.34826e-15
6.4337e-09
3.58988e-08
3.0652e-14
7.36053e-09
3.17675e-08
6.83384e-14
8.28838e-09
2.72252e-08
8.24383e-14
9.15984e-09
2.23424e-08
7.17086e-14
9.88968e-09
1.72429e-08
6.58342e-14
1.03516e-08
1.21208e-08
8.97301e-14
1.03608e-08
7.23504e-09
1.45858e-13
9.63721e-09
2.9028e-09
2.2861e-13
7.81475e-09
-4.4063e-10
3.05012e-13
4.54443e-09
-1.86935e-09
2.13818e-13
-4.83199e-10
-6.55852e-13
-6.41209e-09
-1.87496e-09
5.83737e-09
-1.03199e-09
1.36749e-09
1.62438e-09
-3.17775e-09
5.32727e-09
-6.43752e-09
9.71609e-09
-8.54833e-09
1.45341e-08
-9.77214e-09
1.95775e-08
-1.03472e-08
2.46679e-08
-1.04734e-08
2.96691e-08
-1.02775e-08
3.44772e-08
-9.84951e-09
3.90142e-08
-9.25387e-09
4.32225e-08
-8.53887e-09
4.70613e-08
-7.74232e-09
5.05037e-08
-6.89486e-09
5.35349e-08
-6.02202e-09
5.61504e-08
-5.14534e-09
5.83543e-08
-4.28306e-09
6.01582e-08
-3.45047e-09
6.158e-08
-2.66021e-09
6.26426e-08
-1.9225e-09
6.33725e-08
-1.24528e-09
6.37989e-08
-6.34311e-10
6.39531e-08
-9.31771e-11
6.38687e-08
3.77209e-10
6.35799e-08
7.78152e-10
6.31196e-08
1.11187e-09
6.25193e-08
1.38128e-09
6.18089e-08
1.59006e-09
6.10161e-08
1.74259e-09
6.01663e-08
1.84377e-09
5.92823e-08
1.8989e-09
5.83844e-08
1.91352e-09
5.74899e-08
1.89327e-09
5.66138e-08
1.84374e-09
5.57682e-08
1.77036e-09
5.49627e-08
1.6783e-09
5.42046e-08
1.57234e-09
5.34992e-08
1.45687e-09
5.28496e-08
1.33577e-09
5.22575e-08
1.21243e-09
5.1723e-08
1.08972e-09
5.12452e-08
9.69996e-10
5.0822e-08
8.55109e-10
5.04508e-08
7.46449e-10
5.01285e-08
6.44983e-10
4.98516e-08
5.513e-10
4.96163e-08
4.65664e-10
4.9419e-08
3.88069e-10
4.9256e-08
3.18292e-10
4.91239e-08
2.55946e-10
4.90194e-08
2.00523e-10
4.89395e-08
1.51438e-10
4.88814e-08
1.08066e-10
4.88427e-08
6.97697e-11
4.88211e-08
3.5938e-11
4.88146e-08
6.01282e-12
4.88214e-08
-2.03914e-11
4.88401e-08
-4.35869e-11
4.88693e-08
-6.39353e-11
4.89078e-08
-8.17543e-11
4.89543e-08
-9.73081e-11
4.90078e-08
-1.10807e-10
4.90674e-08
-1.22412e-10
4.91321e-08
-1.32239e-10
4.9201e-08
-1.40371e-10
4.92732e-08
-1.46867e-10
4.93481e-08
-1.5177e-10
4.94246e-08
-1.55113e-10
4.95021e-08
-1.56934e-10
4.95797e-08
-1.57273e-10
4.96568e-08
-1.56184e-10
4.97326e-08
-1.53736e-10
4.98065e-08
-1.50019e-10
4.9878e-08
-1.45143e-10
4.99465e-08
-1.39243e-10
5.00115e-08
-1.32477e-10
5.00728e-08
-1.25028e-10
5.01302e-08
-1.17103e-10
5.01834e-08
-1.0893e-10
5.02326e-08
-1.00754e-10
5.02778e-08
-9.28351e-11
5.03194e-08
-8.54407e-11
5.03577e-08
-7.88402e-11
5.03933e-08
-7.32971e-11
5.04268e-08
-6.90613e-11
5.0459e-08
-6.63604e-11
5.04908e-08
-6.53907e-11
5.05231e-08
-6.63093e-11
5.0557e-08
-6.92256e-11
5.05934e-08
-7.4195e-11
5.06333e-08
-8.12138e-11
5.06778e-08
-9.02153e-11
5.07277e-08
-1.0107e-10
5.07839e-08
-1.13584e-10
5.0847e-08
-1.27507e-10
5.09176e-08
-1.42536e-10
5.09961e-08
-1.58325e-10
5.10825e-08
-1.74496e-10
5.1177e-08
-1.90651e-10
5.12792e-08
-2.06387e-10
5.13888e-08
-2.21309e-10
5.15051e-08
-2.35047e-10
5.16275e-08
-2.47264e-10
5.17551e-08
-2.57674e-10
5.18867e-08
-2.66047e-10
5.20215e-08
-2.72218e-10
5.21582e-08
-2.76092e-10
5.22957e-08
-2.77646e-10
5.24329e-08
-2.76927e-10
5.25688e-08
-2.74049e-10
5.27023e-08
-2.69187e-10
5.28326e-08
-2.62569e-10
5.29591e-08
-2.54466e-10
5.3081e-08
-2.4518e-10
5.3198e-08
-2.35039e-10
5.33098e-08
-2.24378e-10
5.34163e-08
-2.1353e-10
5.35176e-08
-2.02812e-10
5.36139e-08
-1.92518e-10
5.37055e-08
-1.8291e-10
5.37928e-08
-1.74206e-10
5.38763e-08
-1.66574e-10
5.39566e-08
-1.60125e-10
5.40342e-08
-1.54917e-10
5.41097e-08
-1.50962e-10
5.41838e-08
-1.48219e-10
5.42569e-08
-1.46607e-10
5.43296e-08
-1.46002e-10
5.44023e-08
-1.46251e-10
5.44753e-08
-1.47181e-10
5.45488e-08
-1.48607e-10
5.46229e-08
-1.50339e-10
5.46978e-08
-1.52194e-10
5.47735e-08
-1.54007e-10
5.48498e-08
-1.55633e-10
5.49266e-08
-1.56969e-10
5.50039e-08
-1.57946e-10
5.50814e-08
-1.58541e-10
5.5159e-08
-1.58766e-10
5.52365e-08
-1.58673e-10
5.53139e-08
-1.58344e-10
5.53911e-08
-1.57892e-10
5.5468e-08
-1.5745e-10
5.55448e-08
-1.57167e-10
5.56217e-08
-1.57197e-10
5.56988e-08
-1.57687e-10
5.57765e-08
-1.58772e-10
5.5855e-08
-1.60562e-10
5.59347e-08
-1.63137e-10
5.60159e-08
-1.66537e-10
5.60991e-08
-1.70766e-10
5.61846e-08
-1.75786e-10
5.62728e-08
-1.81519e-10
5.63639e-08
-1.87846e-10
5.64581e-08
-1.94608e-10
5.65555e-08
-2.01608e-10
5.66561e-08
-2.08613e-10
5.67597e-08
-2.15359e-10
5.68661e-08
-2.2155e-10
5.69748e-08
-2.26865e-10
5.70851e-08
-2.30956e-10
5.71962e-08
-2.33446e-10
5.73072e-08
-2.33926e-10
5.74167e-08
-2.31941e-10
5.75233e-08
-2.26987e-10
5.7625e-08
-2.1849e-10
5.77199e-08
-2.05794e-10
5.78053e-08
-1.88132e-10
5.78781e-08
-1.64587e-10
5.79348e-08
-1.3405e-10
5.79709e-08
-9.51643e-11
5.79812e-08
-4.62518e-11
5.79592e-08
1.47578e-11
5.78969e-08
9.06164e-11
5.77851e-08
1.84738e-10
5.76123e-08
3.01043e-10
5.73649e-08
4.44105e-10
5.70266e-08
6.19201e-10
5.6578e-08
8.32315e-10
5.59968e-08
1.09007e-09
5.5257e-08
1.39961e-09
5.43291e-08
1.76838e-09
5.31805e-08
2.20373e-09
5.17753e-08
2.71243e-09
5.00755e-08
3.29989e-09
4.80425e-08
3.96917e-09
4.56383e-08
4.71971e-09
4.28289e-08
5.54565e-09
3.95873e-08
6.43374e-09
3.58988e-08
7.36049e-09
3.17674e-08
8.28827e-09
2.7225e-08
9.15972e-09
2.23422e-08
9.88956e-09
1.72428e-08
1.03514e-08
1.21208e-08
1.03605e-08
7.23502e-09
9.63671e-09
2.90259e-09
7.81409e-09
-4.41609e-10
4.54384e-09
-1.87248e-09
-4.83166e-10
-6.4107e-09
7.77946e-10
8.70579e-13
5.06527e-09
3.56767e-09
-1.01249e-13
-1.41958e-09
7.04601e-09
-3.0441e-14
-6.65602e-09
1.09063e-08
1.06014e-14
-1.02965e-08
1.50663e-08
4.79919e-15
-1.27074e-08
1.94478e-08
1.29094e-14
-1.4153e-08
2.39603e-08
2.0412e-14
-1.48591e-08
2.85e-08
2.01037e-14
-1.50126e-08
3.29729e-08
1.35158e-14
-1.47501e-08
3.72985e-08
3.05488e-15
-1.41749e-08
4.14107e-08
-7.17081e-15
-1.3366e-08
4.52575e-08
-1.35076e-14
-1.23858e-08
4.87998e-08
-1.38649e-14
-1.12847e-08
5.20098e-08
-9.66732e-15
-1.01049e-08
5.487e-08
-4.63397e-15
-8.88239e-09
5.73723e-08
-1.97469e-15
-7.64766e-09
5.95161e-08
-2.7954e-15
-6.42695e-09
6.1308e-08
-5.76344e-15
-5.24243e-09
6.27603e-08
-8.51271e-15
-4.1126e-09
6.38902e-08
-9.38362e-15
-3.05243e-09
6.47185e-08
-8.1524e-15
-2.07361e-09
6.52689e-08
-5.73405e-15
-1.18471e-09
6.5567e-08
-3.324e-15
-3.91286e-10
6.56406e-08
-1.53882e-15
3.03655e-10
6.55189e-08
-1.07408e-16
8.99856e-10
6.52312e-08
1.81931e-15
1.39976e-09
6.48054e-08
4.88629e-15
1.80722e-09
6.42684e-08
8.90054e-15
2.12723e-09
6.36454e-08
1.29055e-14
2.36582e-09
6.29596e-08
1.59132e-14
2.52986e-09
6.22319e-08
1.75671e-14
2.62679e-09
6.14813e-08
1.8151e-14
2.66446e-09
6.07239e-08
1.81044e-14
2.65087e-09
5.99739e-08
1.76262e-14
2.594e-09
5.9243e-08
1.66693e-14
2.50159e-09
5.85405e-08
1.51783e-14
2.38103e-09
5.78738e-08
1.32795e-14
2.23923e-09
5.72484e-08
1.12583e-14
2.08246e-09
5.6668e-08
9.41048e-15
1.91635e-09
5.61348e-08
7.95583e-15
1.74581e-09
5.56496e-08
7.0144e-15
1.57502e-09
5.52123e-08
6.55984e-15
1.40742e-09
5.48218e-08
6.39253e-15
1.24574e-09
5.44762e-08
6.21513e-15
1.09206e-09
5.41734e-08
5.77283e-15
9.47863e-10
5.39107e-08
4.94529e-15
8.14085e-10
5.36852e-08
3.74814e-15
6.91201e-10
5.3494e-08
2.29778e-15
5.793e-10
5.33342e-08
7.71793e-16
4.78158e-10
5.32029e-08
-6.42927e-16
3.87311e-10
5.30973e-08
-1.80636e-15
3.06121e-10
5.30149e-08
-2.6519e-15
2.33836e-10
5.29534e-08
-3.19061e-15
1.69644e-10
5.29105e-08
-3.49619e-15
1.12718e-10
5.28842e-08
-3.67218e-15
6.22588e-11
5.28727e-08
-3.8131e-15
1.75354e-11
5.28744e-08
-3.95786e-15
-2.20682e-11
5.28879e-08
-4.09387e-15
-5.7062e-11
5.29119e-08
-4.19093e-15
-8.79117e-11
5.29452e-08
-4.224e-15
-1.15035e-10
5.29867e-08
-4.18762e-15
-1.38783e-10
5.30353e-08
-4.0818e-15
-1.59436e-10
5.30901e-08
-3.9074e-15
-1.77214e-10
5.31502e-08
-3.68221e-15
-1.92282e-10
5.32146e-08
-3.44634e-15
-2.0476e-10
5.32825e-08
-3.23871e-15
-2.14738e-10
5.3353e-08
-3.06599e-15
-2.22284e-10
5.34253e-08
-2.89843e-15
-2.27459e-10
5.34987e-08
-2.68091e-15
-2.30326e-10
5.35724e-08
-2.36004e-15
-2.30956e-10
5.36457e-08
-1.90869e-15
-2.29441e-10
5.37178e-08
-1.33026e-15
-2.25895e-10
5.37882e-08
-6.55455e-16
-2.20459e-10
5.38564e-08
5.55919e-17
-2.13307e-10
5.39218e-08
7.17796e-16
-2.04649e-10
5.3984e-08
1.2406e-15
-1.94726e-10
5.40428e-08
1.5467e-15
-1.83817e-10
5.40979e-08
1.57795e-15
-1.7223e-10
5.41492e-08
1.31636e-15
-1.60305e-10
5.41968e-08
8.04865e-16
-1.48407e-10
5.42409e-08
1.47057e-16
-1.36919e-10
5.42817e-08
-5.20155e-16
-1.26233e-10
5.43195e-08
-1.06241e-15
-1.16744e-10
5.43551e-08
-1.37579e-15
-1.08836e-10
5.43889e-08
-1.41628e-15
-1.02871e-10
5.44217e-08
-1.21636e-15
-9.9177e-11
5.44543e-08
-8.58482e-16
-9.80355e-11
5.44877e-08
-4.38014e-16
-9.96674e-11
5.45227e-08
-3.86318e-17
-1.04223e-10
5.45603e-08
2.7415e-16
-1.11774e-10
5.46014e-08
4.6759e-16
-1.22302e-10
5.46469e-08
5.49032e-16
-1.357e-10
5.46976e-08
5.47857e-16
-1.51767e-10
5.47542e-08
4.92067e-16
-1.70214e-10
5.48174e-08
3.91498e-16
-1.90668e-10
5.48876e-08
2.49999e-16
-2.12682e-10
5.4965e-08
8.23431e-17
-2.3575e-10
5.50499e-08
-8.25228e-17
-2.59324e-10
5.51421e-08
-2.03155e-16
-2.82828e-10
5.52414e-08
-2.33638e-16
-3.05682e-10
5.53474e-08
-1.31309e-16
-3.27322e-10
5.54596e-08
1.44897e-16
-3.47217e-10
5.55773e-08
6.24279e-16
-3.6489e-10
5.56995e-08
1.29331e-15
-3.79933e-10
5.58255e-08
2.0654e-15
-3.92021e-10
5.59542e-08
2.80618e-15
-4.00922e-10
5.60846e-08
3.41444e-15
-4.06506e-10
5.62157e-08
3.87714e-15
-4.08742e-10
5.63464e-08
4.23481e-15
-4.07703e-10
5.64759e-08
4.53675e-15
-4.03554e-10
5.66032e-08
4.88076e-15
-3.96551e-10
5.67277e-08
5.48658e-15
-3.87025e-10
5.68485e-08
6.61419e-15
-3.75368e-10
5.69653e-08
8.31614e-15
-3.62017e-10
5.70777e-08
1.02992e-14
-3.47439e-10
5.71854e-08
1.21034e-14
-3.32114e-10
5.72883e-08
1.34134e-14
-3.16515e-10
5.73865e-08
1.41135e-14
-3.01095e-10
5.74802e-08
1.40573e-14
-2.86269e-10
5.75696e-08
1.29717e-14
-2.72401e-10
5.76552e-08
1.07611e-14
-2.59798e-10
5.77372e-08
7.89103e-15
-2.48696e-10
5.78163e-08
5.2745e-15
-2.39259e-10
5.7893e-08
3.61222e-15
-2.31577e-10
5.79676e-08
2.84491e-15
-2.25664e-10
5.80409e-08
2.27814e-15
-2.21463e-10
5.81131e-08
1.18394e-15
-2.18853e-10
5.81848e-08
-8.10231e-16
-2.17659e-10
5.82563e-08
-3.8119e-15
-2.17666e-10
5.83278e-08
-7.82334e-15
-2.18629e-10