/*--------------------------------*- C++ -*----------------------------------*\
  =========                 |
  \\      /  F ield         | OpenFOAM: The Open Source CFD Toolbox
   \\    /   O peration     | Website:  https://openfoam.org
    \\  /    A nd           | Version:  8
     \\/     M anipulation  |
\*---------------------------------------------------------------------------*/
FoamFile
{
    version     2.0;
    format      ascii;
    class       volScalarField;
    location    "500";
    object      T;
}
// * * * * * * * * * * * * * * * * * * * * * * * * * * * * * * * * * * * * * //

dimensions      [0 0 0 1 0 0 0];

internalField   nonuniform List<scalar> 
46000
(
310.026
308.584
307.228
306.232
305.566
305.11
304.808
304.593
304.439
304.329
304.254
304.206
304.18
304.174
304.183
304.207
304.243
304.289
304.345
304.409
304.48
304.557
304.638
304.72
304.804
304.889
304.976
305.063
305.151
305.238
305.324
305.409
305.491
305.571
305.647
305.72
305.789
305.854
305.915
305.971
306.024
306.073
306.119
306.161
306.2
306.236
306.269
306.299
306.328
306.354
306.378
306.401
306.422
306.441
306.46
306.477
306.492
306.507
306.52
306.533
306.544
306.555
306.566
306.575
306.584
306.593
306.601
306.609
306.616
306.623
306.63
306.636
306.642
306.648
306.654
306.66
306.666
306.672
306.677
306.682
306.688
306.693
306.698
306.703
306.707
306.712
306.716
306.719
306.723
306.726
306.728
306.73
306.731
306.732
306.733
306.733
306.732
306.731
306.729
306.727
306.724
306.721
306.718
306.715
306.711
306.708
306.704
306.701
306.697
306.694
306.69
306.687
306.684
306.682
306.679
306.677
306.675
306.673
306.671
306.67
306.668
306.667
306.666
306.664
306.663
306.662
306.661
306.659
306.658
306.657
306.655
306.654
306.652
306.651
306.649
306.648
306.646
306.644
306.643
306.641
306.64
306.638
306.636
306.635
306.633
306.631
306.629
306.628
306.626
306.623
306.621
306.619
306.616
306.613
306.61
306.607
306.603
306.599
306.596
306.591
306.587
306.583
306.578
306.573
306.569
306.564
306.56
306.556
306.552
306.549
306.547
306.545
306.545
306.546
306.549
306.553
306.561
306.572
306.587
306.607
306.633
306.667
306.71
306.763
306.829
306.91
307.008
307.126
307.269
307.44
307.644
307.886
308.17
308.499
308.865
309.258
309.626
309.933
310.191
310.407
310.026
308.583
307.228
306.232
305.565
305.109
304.807
304.593
304.439
304.329
304.254
304.206
304.18
304.174
304.183
304.207
304.243
304.289
304.345
304.409
304.48
304.557
304.638
304.72
304.804
304.889
304.976
305.063
305.151
305.238
305.324
305.409
305.491
305.571
305.647
305.72
305.789
305.854
305.915
305.971
306.024
306.073
306.119
306.161
306.2
306.236
306.269
306.299
306.328
306.354
306.378
306.401
306.422
306.441
306.46
306.477
306.492
306.507
306.52
306.533
306.544
306.555
306.566
306.575
306.584
306.593
306.601
306.609
306.616
306.623
306.63
306.636
306.642
306.648
306.654
306.66
306.666
306.672
306.677
306.682
306.688
306.693
306.698
306.703
306.707
306.712
306.716
306.719
306.723
306.726
306.728
306.73
306.731
306.732
306.733
306.733
306.732
306.731
306.729
306.727
306.724
306.721
306.718
306.715
306.712
306.708
306.704
306.701
306.697
306.694
306.69
306.687
306.684
306.682
306.679
306.677
306.675
306.673
306.671
306.67
306.668
306.667
306.666
306.664
306.663
306.662
306.661
306.659
306.658
306.657
306.655
306.654
306.652
306.651
306.649
306.648
306.646
306.644
306.643
306.641
306.64
306.638
306.636
306.635
306.633
306.631
306.63
306.628
306.626
306.623
306.621
306.619
306.616
306.613
306.61
306.607
306.603
306.599
306.596
306.591
306.587
306.583
306.578
306.573
306.569
306.564
306.56
306.556
306.552
306.549
306.547
306.545
306.545
306.546
306.549
306.553
306.561
306.572
306.587
306.607
306.633
306.667
306.71
306.763
306.829
306.91
307.008
307.126
307.269
307.44
307.644
307.886
308.17
308.499
308.865
309.257
309.626
309.933
310.191
310.407
306.315
304.68
303.484
302.753
302.292
301.995
301.804
301.681
301.606
301.564
301.548
301.552
301.573
301.606
301.651
301.706
301.769
301.839
301.916
301.998
302.085
302.175
302.27
302.366
302.463
302.56
302.657
302.754
302.849
302.943
303.034
303.123
303.209
303.292
303.371
303.446
303.518
303.585
303.649
303.708
303.764
303.816
303.865
303.91
303.953
303.992
304.029
304.064
304.096
304.126
304.154
304.181
304.206
304.23
304.252
304.273
304.293
304.312
304.33
304.347
304.363
304.379
304.393
304.407
304.42
304.433
304.445
304.457
304.469
304.48
304.49
304.501
304.511
304.521
304.531
304.54
304.55
304.559
304.568
304.577
304.586
304.594
304.602
304.61
304.618
304.626
304.633
304.639
304.646
304.651
304.657
304.662
304.666
304.669
304.673
304.675
304.677
304.679
304.68
304.68
304.681
304.68
304.68
304.679
304.678
304.677
304.676
304.675
304.674
304.673
304.672
304.671
304.671
304.67
304.67
304.67
304.67
304.67
304.671
304.671
304.672
304.672
304.673
304.674
304.675
304.676
304.676
304.677
304.678
304.679
304.679
304.68
304.68
304.681
304.681
304.681
304.682
304.682
304.682
304.683
304.683
304.683
304.683
304.683
304.684
304.684
304.684
304.684
304.684
304.683
304.683
304.682
304.682
304.681
304.68
304.679
304.677
304.676
304.674
304.672
304.671
304.669
304.667
304.665
304.663
304.661
304.659
304.658
304.657
304.657
304.658
304.659
304.661
304.665
304.671
304.678
304.689
304.702
304.72
304.742
304.771
304.806
304.85
304.904
304.97
305.049
305.146
305.262
305.401
305.567
305.763
305.993
306.259
306.558
306.878
307.194
307.463
307.645
307.737
307.679
306.314
304.68
303.483
302.753
302.292
301.995
301.803
301.681
301.606
301.564
301.548
301.552
301.573
301.606
301.651
301.706
301.769
301.839
301.916
301.998
302.085
302.176
302.27
302.366
302.463
302.56
302.657
302.754
302.849
302.943
303.034
303.123
303.209
303.292
303.371
303.446
303.518
303.585
303.649
303.708
303.764
303.816
303.865
303.91
303.953
303.992
304.029
304.064
304.096
304.126
304.154
304.181
304.206
304.23
304.252
304.273
304.293
304.312
304.33
304.347
304.363
304.379
304.393
304.407
304.42
304.433
304.445
304.457
304.469
304.48
304.49
304.501
304.511
304.521
304.531
304.54
304.55
304.559
304.568
304.577
304.586
304.594
304.602
304.61
304.618
304.626
304.633
304.639
304.646
304.651
304.657
304.662
304.666
304.669
304.673
304.675
304.677
304.679
304.68
304.68
304.681
304.68
304.68
304.679
304.678
304.677
304.676
304.675
304.674
304.673
304.672
304.671
304.671
304.67
304.67
304.67
304.67
304.67
304.671
304.671
304.672
304.672
304.673
304.674
304.675
304.676
304.676
304.677
304.678
304.679
304.679
304.68
304.68
304.681
304.681
304.681
304.682
304.682
304.682
304.683
304.683
304.683
304.683
304.683
304.684
304.684
304.684
304.684
304.684
304.683
304.683
304.682
304.682
304.681
304.68
304.679
304.677
304.676
304.674
304.672
304.671
304.669
304.667
304.665
304.663
304.661
304.659
304.658
304.657
304.657
304.658
304.659
304.661
304.665
304.671
304.678
304.689
304.702
304.72
304.742
304.771
304.806
304.85
304.904
304.97
305.049
305.146
305.262
305.401
305.567
305.763
305.993
306.259
306.558
306.878
307.194
307.463
307.645
307.737
307.679
303.682
302.465
301.72
301.257
300.956
300.759
300.633
300.556
300.513
300.495
300.498
300.516
300.547
300.588
300.639
300.698
300.764
300.836
300.914
300.996
301.082
301.172
301.265
301.36
301.457
301.553
301.65
301.746
301.841
301.934
302.026
302.114
302.2
302.283
302.362
302.438
302.51
302.579
302.643
302.704
302.761
302.815
302.865
302.912
302.956
302.997
303.036
303.072
303.106
303.139
303.169
303.197
303.224
303.249
303.274
303.296
303.318
303.338
303.358
303.376
303.394
303.411
303.427
303.442
303.457
303.471
303.485
303.498
303.511
303.524
303.536
303.547
303.559
303.57
303.581
303.592
303.603
303.613
303.623
303.633
303.643
303.653
303.662
303.671
303.68
303.689
303.697
303.704
303.711
303.718
303.724
303.73
303.735
303.74
303.744
303.747
303.75
303.753
303.755
303.756
303.757
303.758
303.758
303.758
303.758
303.758
303.758
303.757
303.757
303.757
303.757
303.757
303.757
303.757
303.757
303.758
303.759
303.76
303.761
303.762
303.763
303.765
303.766
303.768
303.769
303.77
303.772
303.773
303.775
303.776
303.777
303.778
303.78
303.781
303.782
303.783
303.784
303.785
303.786
303.787
303.787
303.788
303.789
303.79
303.791
303.791
303.792
303.793
303.793
303.793
303.794
303.794
303.794
303.794
303.793
303.793
303.792
303.791
303.79
303.789
303.788
303.787
303.786
303.785
303.784
303.783
303.782
303.782
303.782
303.783
303.785
303.787
303.791
303.796
303.803
303.812
303.824
303.84
303.859
303.883
303.913
303.951
303.996
304.051
304.118
304.199
304.296
304.411
304.548
304.708
304.896
305.113
305.359
305.628
305.909
306.181
306.412
306.569
306.624
306.547
303.682
302.465
301.72
301.257
300.956
300.759
300.633
300.556
300.513
300.495
300.498
300.516
300.547
300.588
300.639
300.698
300.764
300.836
300.914
300.996
301.082
301.172
301.265
301.36
301.457
301.553
301.65
301.746
301.841
301.934
302.026
302.114
302.2
302.283
302.362
302.438
302.51
302.579
302.643
302.704
302.761
302.815
302.865
302.912
302.956
302.997
303.036
303.072
303.106
303.139
303.169
303.197
303.224
303.25
303.274
303.296
303.318
303.338
303.358
303.377
303.394
303.411
303.427
303.443
303.457
303.472
303.485
303.498
303.511
303.524
303.536
303.547
303.559
303.57
303.581
303.592
303.603
303.613
303.623
303.633
303.643
303.653
303.662
303.671
303.68
303.689
303.697
303.704
303.711
303.718
303.724
303.73
303.735
303.74
303.744
303.747
303.75
303.753
303.755
303.756
303.757
303.758
303.758
303.758
303.758
303.758
303.758
303.757
303.757
303.757
303.757
303.757
303.757
303.757
303.757
303.758
303.759
303.76
303.761
303.762
303.763
303.765
303.766
303.768
303.769
303.771
303.772
303.773
303.775
303.776
303.777
303.779
303.78
303.781
303.782
303.783
303.784
303.785
303.786
303.787
303.787
303.788
303.789
303.79
303.791
303.791
303.792
303.793
303.793
303.793
303.794
303.794
303.794
303.794
303.793
303.793
303.792
303.791
303.79
303.789
303.788
303.787
303.786
303.785
303.784
303.783
303.782
303.782
303.782
303.783
303.785
303.787
303.791
303.796
303.803
303.812
303.824
303.84
303.859
303.883
303.913
303.951
303.996
304.051
304.118
304.199
304.296
304.411
304.548
304.708
304.896
305.113
305.359
305.628
305.909
306.181
306.412
306.569
306.624
306.547
301.646
300.932
300.542
300.288
300.117
300.003
299.93
299.888
299.869
299.868
299.882
299.908
299.943
299.987
300.039
300.098
300.162
300.232
300.307
300.387
300.47
300.556
300.646
300.737
300.83
300.924
301.018
301.111
301.203
301.294
301.383
301.47
301.554
301.636
301.714
301.789
301.86
301.928
301.992
302.053
302.11
302.164
302.215
302.262
302.307
302.349
302.388
302.425
302.46
302.493
302.524
302.553
302.581
302.607
302.632
302.655
302.678
302.699
302.719
302.738
302.757
302.774
302.791
302.807
302.822
302.837
302.852
302.865
302.879
302.892
302.905
302.917
302.929
302.941
302.953
302.964
302.975
302.986
302.997
303.008
303.018
303.028
303.038
303.047
303.057
303.066
303.074
303.082
303.09
303.097
303.104
303.11
303.115
303.12
303.125
303.128
303.132
303.135
303.137
303.139
303.14
303.141
303.142
303.143
303.143
303.143
303.143
303.143
303.143
303.143
303.144
303.144
303.145
303.145
303.146
303.147
303.148
303.149
303.151
303.152
303.154
303.156
303.157
303.159
303.161
303.163
303.165
303.166
303.168
303.17
303.171
303.173
303.174
303.176
303.177
303.179
303.18
303.181
303.183
303.184
303.185
303.186
303.187
303.188
303.19
303.191
303.192
303.192
303.193
303.194
303.194
303.195
303.195
303.195
303.195
303.195
303.194
303.194
303.193
303.193
303.192
303.191
303.191
303.19
303.19
303.189
303.189
303.19
303.191
303.192
303.195
303.198
303.203
303.209
303.217
303.228
303.241
303.258
303.279
303.306
303.338
303.377
303.425
303.483
303.552
303.634
303.732
303.848
303.983
304.141
304.322
304.528
304.757
305.004
305.258
305.501
305.711
305.864
305.938
305.923
301.646
300.932
300.542
300.288
300.117
300.003
299.93
299.888
299.869
299.868
299.882
299.908
299.943
299.987
300.039
300.098
300.162
300.233
300.308
300.387
300.47
300.556
300.646
300.737
300.83
300.924
301.018
301.111
301.203
301.294
301.383
301.47
301.554
301.636
301.714
301.789
301.86
301.928
301.992
302.053
302.11
302.164
302.215
302.262
302.307
302.349
302.388
302.425
302.46
302.493
302.524
302.553
302.581
302.607
302.632
302.655
302.678
302.699
302.719
302.738
302.757
302.774
302.791
302.807
302.822
302.837
302.852
302.866
302.879
302.892
302.905
302.917
302.929
302.941
302.953
302.964
302.975
302.986
302.997
303.008
303.018
303.028
303.038
303.047
303.057
303.066
303.074
303.082
303.09
303.097
303.104
303.11
303.115
303.12
303.125
303.128
303.132
303.135
303.137
303.139
303.14
303.141
303.142
303.143
303.143
303.143
303.143
303.143
303.143
303.144
303.144
303.144
303.145
303.145
303.146
303.147
303.148
303.149
303.151
303.152
303.154
303.156
303.157
303.159
303.161
303.163
303.165
303.166
303.168
303.17
303.171
303.173
303.174
303.176
303.177
303.179
303.18
303.181
303.183
303.184
303.185
303.186
303.187
303.189
303.19
303.191
303.192
303.192
303.193
303.194
303.194
303.195
303.195
303.195
303.195
303.195
303.195
303.194
303.194
303.193
303.192
303.191
303.191
303.19
303.19
303.189
303.189
303.19
303.191
303.192
303.195
303.198
303.203
303.209
303.217
303.228
303.241
303.258
303.279
303.306
303.338
303.377
303.425
303.483
303.552
303.634
303.732
303.848
303.983
304.141
304.322
304.528
304.757
305.004
305.258
305.501
305.711
305.864
305.938
305.923
300.105
299.846
299.7
299.596
299.52
299.469
299.438
299.424
299.424
299.436
299.458
299.489
299.527
299.572
299.623
299.68
299.743
299.81
299.881
299.957
300.036
300.118
300.203
300.29
300.379
300.469
300.559
300.648
300.737
300.825
300.911
300.995
301.077
301.156
301.232
301.305
301.375
301.441
301.504
301.564
301.62
301.673
301.724
301.771
301.815
301.857
301.897
301.934
301.969
302.001
302.033
302.062
302.09
302.116
302.141
302.165
302.187
302.208
302.229
302.248
302.267
302.284
302.301
302.318
302.333
302.348
302.363
302.377
302.391
302.404
302.417
302.43
302.442
302.454
302.466
302.478
302.489
302.5
302.511
302.522
302.533
302.543
302.553
302.563
302.572
302.581
302.59
302.598
302.606
302.613
302.62
302.626
302.632
302.637
302.642
302.646
302.649
302.652
302.655
302.657
302.658
302.66
302.661
302.661
302.662
302.662
302.663
302.663
302.663
302.664
302.664
302.665
302.666
302.666
302.668
302.669
302.67
302.672
302.673
302.675
302.677
302.679
302.681
302.683
302.685
302.687
302.689
302.691
302.693
302.695
302.697
302.698
302.7
302.702
302.703
302.705
302.707
302.708
302.71
302.711
302.713
302.714
302.715
302.717
302.718
302.719
302.72
302.721
302.722
302.723
302.724
302.724
302.725
302.725
302.725
302.725
302.725
302.725
302.724
302.724
302.723
302.723
302.723
302.722
302.722
302.722
302.723
302.723
302.725
302.727
302.73
302.734
302.74
302.747
302.756
302.768
302.783
302.802
302.825
302.854
302.888
302.93
302.981
303.041
303.113
303.198
303.297
303.414
303.549
303.704
303.88
304.078
304.294
304.524
304.757
304.982
305.18
305.334
305.43
305.452
300.105
299.846
299.7
299.596
299.52
299.469
299.438
299.424
299.424
299.436
299.458
299.489
299.527
299.572
299.623
299.681
299.743
299.81
299.882
299.957
300.036
300.118
300.203
300.29
300.379
300.469
300.559
300.648
300.737
300.825
300.911
300.995
301.077
301.156
301.232
301.305
301.375
301.441
301.504
301.564
301.62
301.673
301.724
301.771
301.815
301.857
301.897
301.934
301.969
302.001
302.033
302.062
302.09
302.116
302.141
302.165
302.187
302.208
302.229
302.248
302.267
302.284
302.301
302.318
302.333
302.348
302.363
302.377
302.391
302.404
302.417
302.43
302.442
302.454
302.466
302.478
302.489
302.5
302.511
302.522
302.533
302.543
302.553
302.563
302.572
302.581
302.59
302.598
302.606
302.613
302.62
302.626
302.632
302.637
302.642
302.646
302.649
302.652
302.655
302.657
302.658
302.66
302.661
302.661
302.662
302.662
302.663
302.663
302.663
302.664
302.664
302.665
302.666
302.666
302.668
302.669
302.67
302.672
302.673
302.675
302.677
302.679
302.681
302.683
302.685
302.687
302.689
302.691
302.693
302.695
302.697
302.698
302.7
302.702
302.703
302.705
302.707
302.708
302.71
302.711
302.713
302.714
302.715
302.717
302.718
302.719
302.72
302.721
302.722
302.723
302.724
302.724
302.725
302.725
302.725
302.725
302.725
302.725
302.724
302.724
302.724
302.723
302.723
302.722
302.722
302.722
302.723
302.723
302.725
302.727
302.73
302.734
302.74
302.747
302.756
302.768
302.783
302.802
302.825
302.854
302.888
302.93
302.981
303.041
303.113
303.198
303.297
303.414
303.549
303.704
303.881
304.078
304.294
304.524
304.758
304.982
305.18
305.334
305.43
305.452
299.148
299.14
299.127
299.109
299.093
299.083
299.081
299.086
299.1
299.12
299.148
299.182
299.221
299.266
299.316
299.371
299.43
299.494
299.562
299.633
299.708
299.786
299.866
299.948
300.032
300.118
300.203
300.289
300.374
300.458
300.54
300.621
300.7
300.776
300.849
300.92
300.987
301.051
301.113
301.171
301.226
301.278
301.327
301.373
301.417
301.458
301.497
301.533
301.568
301.6
301.631
301.66
301.687
301.713
301.738
301.761
301.783
301.805
301.825
301.844
301.862
301.88
301.897
301.913
301.929
301.944
301.958
301.972
301.986
301.999
302.012
302.025
302.037
302.05
302.061
302.073
302.085
302.096
302.107
302.118
302.129
302.139
302.149
302.159
302.168
302.177
302.186
302.194
302.202
302.209
302.216
302.222
302.228
302.233
302.238
302.242
302.245
302.248
302.251
302.253
302.254
302.256
302.257
302.258
302.258
302.259
302.26
302.26
302.261
302.261
302.262
302.263
302.263
302.265
302.266
302.267
302.269
302.27
302.272
302.274
302.276
302.278
302.28
302.283
302.285
302.287
302.289
302.291
302.293
302.296
302.298
302.3
302.301
302.303
302.305
302.307
302.309
302.31
302.312
302.314
302.315
302.317
302.318
302.32
302.321
302.322
302.324
302.325
302.326
302.327
302.327
302.328
302.329
302.329
302.329
302.329
302.329
302.329
302.329
302.329
302.328
302.328
302.328
302.328
302.328
302.328
302.329
302.33
302.332
302.335
302.338
302.343
302.35
302.358
302.369
302.382
302.398
302.419
302.444
302.475
302.512
302.557
302.61
302.674
302.748
302.836
302.938
303.056
303.191
303.344
303.517
303.707
303.913
304.13
304.35
304.561
304.752
304.91
305.026
305.09
299.147
299.14
299.127
299.109
299.093
299.083
299.081
299.086
299.1
299.121
299.148
299.182
299.221
299.266
299.316
299.371
299.43
299.494
299.562
299.633
299.708
299.786
299.866
299.948
300.032
300.118
300.203
300.289
300.374
300.458
300.54
300.621
300.7
300.776
300.849
300.92
300.987
301.052
301.113
301.171
301.226
301.278
301.327
301.373
301.417
301.458
301.497
301.533
301.568
301.6
301.631
301.66
301.687
301.713
301.738
301.761
301.783
301.805
301.825
301.844
301.862
301.88
301.897
301.913
301.929
301.944
301.958
301.972
301.986
301.999
302.012
302.025
302.037
302.05
302.061
302.073
302.085
302.096
302.107
302.118
302.129
302.139
302.149
302.159
302.168
302.177
302.186
302.194
302.202
302.209
302.216
302.222
302.228
302.233
302.238
302.242
302.245
302.248
302.251
302.253
302.254
302.256
302.257
302.258
302.259
302.259
302.26
302.26
302.261
302.261
302.262
302.263
302.264
302.265
302.266
302.267
302.269
302.27
302.272
302.274
302.276
302.278
302.28
302.283
302.285
302.287
302.289
302.291
302.294
302.296
302.298
302.3
302.301
302.303
302.305
302.307
302.309
302.31
302.312
302.314
302.315
302.317
302.318
302.32
302.321
302.322
302.324
302.325
302.326
302.327
302.327
302.328
302.329
302.329
302.329
302.329
302.329
302.329
302.329
302.329
302.328
302.328
302.328
302.328
302.328
302.328
302.329
302.33
302.332
302.335
302.338
302.343
302.35
302.358
302.369
302.382
302.398
302.419
302.444
302.475
302.512
302.557
302.61
302.674
302.748
302.836
302.938
303.056
303.191
303.344
303.517
303.707
303.913
304.13
304.35
304.561
304.752
304.91
305.026
305.091
298.676
298.728
298.761
298.78
298.794
298.806
298.821
298.838
298.86
298.885
298.916
298.951
298.99
299.034
299.082
299.134
299.19
299.25
299.314
299.381
299.451
299.524
299.6
299.677
299.757
299.837
299.918
300
300.08
300.16
300.239
300.316
300.391
300.464
300.534
300.602
300.667
300.729
300.788
300.844
300.897
300.947
300.995
301.04
301.082
301.122
301.159
301.195
301.228
301.26
301.29
301.318
301.345
301.37
301.394
301.417
301.439
301.459
301.479
301.498
301.516
301.533
301.55
301.565
301.581
301.596
301.61
301.624
301.637
301.65
301.663
301.676
301.688
301.7
301.712
301.724
301.735
301.746
301.757
301.768
301.778
301.789
301.799
301.808
301.818
301.827
301.835
301.843
301.851
301.858
301.865
301.871
301.876
301.881
301.886
301.89
301.893
301.896
301.899
301.901
301.902
301.904
301.905
301.906
301.907
301.907
301.908
301.908
301.909
301.91
301.911
301.912
301.913
301.914
301.915
301.917
301.918
301.92
301.922
301.924
301.926
301.929
301.931
301.933
301.936
301.938
301.94
301.943
301.945
301.947
301.949
301.951
301.953
301.955
301.957
301.959
301.961
301.963
301.964
301.966
301.968
301.969
301.971
301.973
301.974
301.975
301.977
301.978
301.979
301.98
301.981
301.981
301.982
301.982
301.983
301.983
301.983
301.983
301.983
301.982
301.982
301.982
301.982
301.982
301.982
301.983
301.984
301.985
301.987
301.991
301.995
302.001
302.008
302.017
302.029
302.044
302.062
302.085
302.112
302.146
302.186
302.233
302.29
302.356
302.434
302.525
302.629
302.748
302.884
303.037
303.206
303.391
303.59
303.797
304.006
304.209
304.396
304.558
304.69
304.791
298.676
298.728
298.761
298.78
298.794
298.806
298.821
298.838
298.86
298.885
298.916
298.951
298.99
299.034
299.082
299.134
299.19
299.25
299.314
299.381
299.451
299.524
299.6
299.677
299.757
299.837
299.918
300
300.08
300.16
300.239
300.316
300.391
300.464
300.534
300.602
300.667
300.729
300.788
300.844
300.897
300.947
300.995
301.04
301.082
301.122
301.159
301.195
301.228
301.26
301.29
301.318
301.345
301.37
301.394
301.417
301.439
301.459
301.479
301.498
301.516
301.533
301.55
301.565
301.581
301.596
301.61
301.624
301.637
301.65
301.663
301.676
301.688
301.7
301.712
301.724
301.735
301.746
301.757
301.768
301.779
301.789
301.799
301.808
301.818
301.827
301.835
301.843
301.851
301.858
301.865
301.871
301.876
301.881
301.886
301.89
301.893
301.896
301.899
301.901
301.902
301.904
301.905
301.906
301.907
301.907
301.908
301.908
301.909
301.91
301.911
301.912
301.913
301.914
301.915
301.917
301.918
301.92
301.922
301.924
301.926
301.929
301.931
301.933
301.936
301.938
301.94
301.943
301.945
301.947
301.949
301.951
301.953
301.955
301.957
301.959
301.961
301.963
301.964
301.966
301.968
301.97
301.971
301.973
301.974
301.975
301.977
301.978
301.979
301.98
301.981
301.981
301.982
301.982
301.983
301.983
301.983
301.983
301.983
301.982
301.982
301.982
301.982
301.982
301.982
301.983
301.984
301.985
301.987
301.991
301.995
302.001
302.008
302.017
302.029
302.044
302.062
302.085
302.113
302.146
302.186
302.233
302.29
302.356
302.434
302.525
302.629
302.748
302.884
303.037
303.206
303.391
303.59
303.797
304.006
304.209
304.396
304.558
304.69
304.791
298.445
298.497
298.537
298.567
298.591
298.612
298.634
298.657
298.682
298.71
298.741
298.775
298.813
298.855
298.9
298.95
299.002
299.058
299.118
299.181
299.246
299.315
299.385
299.458
299.533
299.609
299.685
299.762
299.838
299.914
299.989
300.062
300.133
300.202
300.269
300.334
300.396
300.455
300.511
300.565
300.616
300.664
300.71
300.753
300.794
300.832
300.868
300.902
300.935
300.965
300.994
301.021
301.047
301.071
301.094
301.116
301.137
301.157
301.176
301.194
301.212
301.228
301.244
301.26
301.274
301.289
301.303
301.316
301.329
301.342
301.355
301.367
301.379
301.391
301.402
301.414
301.425
301.436
301.447
301.457
301.468
301.478
301.488
301.497
301.506
301.515
301.523
301.531
301.539
301.545
301.552
301.558
301.563
301.568
301.572
301.576
301.579
301.582
301.584
301.586
301.588
301.589
301.591
301.591
301.592
301.593
301.594
301.594
301.595
301.596
301.597
301.598
301.599
301.6
301.602
301.603
301.605
301.607
301.609
301.611
301.614
301.616
301.618
301.621
301.623
301.626
301.628
301.631
301.633
301.635
301.637
301.64
301.642
301.644
301.646
301.648
301.65
301.652
301.653
301.655
301.657
301.659
301.66
301.662
301.663
301.665
301.666
301.667
301.668
301.669
301.67
301.671
301.671
301.672
301.672
301.672
301.672
301.672
301.672
301.672
301.671
301.671
301.671
301.671
301.672
301.673
301.674
301.676
301.678
301.682
301.687
301.693
301.702
301.712
301.726
301.742
301.762
301.787
301.817
301.853
301.896
301.947
302.006
302.076
302.158
302.251
302.358
302.479
302.616
302.768
302.935
303.116
303.309
303.509
303.711
303.908
304.092
304.257
304.402
304.53
298.445
298.497
298.537
298.567
298.591
298.612
298.634
298.657
298.682
298.71
298.741
298.775
298.813
298.855
298.901
298.95
299.002
299.058
299.118
299.181
299.246
299.315
299.385
299.458
299.533
299.609
299.685
299.762
299.838
299.914
299.989
300.062
300.133
300.202
300.269
300.334
300.396
300.455
300.511
300.565
300.616
300.664
300.71
300.753
300.794
300.832
300.868
300.902
300.935
300.965
300.994
301.021
301.047
301.071
301.094
301.116
301.137
301.157
301.176
301.194
301.212
301.228
301.244
301.26
301.274
301.289
301.303
301.316
301.329
301.342
301.355
301.367
301.379
301.391
301.402
301.414
301.425
301.436
301.447
301.457
301.468
301.478
301.488
301.497
301.506
301.515
301.523
301.531
301.539
301.546
301.552
301.558
301.563
301.568
301.572
301.576
301.579
301.582
301.584
301.586
301.588
301.589
301.591
301.592
301.592
301.593
301.594
301.594
301.595
301.596
301.597
301.598
301.599
301.6
301.602
301.603
301.605
301.607
301.609
301.612
301.614
301.616
301.619
301.621
301.623
301.626
301.628
301.631
301.633
301.635
301.637
301.64
301.642
301.644
301.646
301.648
301.65
301.652
301.653
301.655
301.657
301.659
301.66
301.662
301.663
301.665
301.666
301.667
301.668
301.669
301.67
301.671
301.671
301.672
301.672
301.672
301.672
301.672
301.672
301.672
301.671
301.671
301.671
301.671
301.672
301.673
301.674
301.676
301.678
301.682
301.687
301.693
301.702
301.712
301.726
301.742
301.762
301.787
301.817
301.853
301.896
301.947
302.006
302.076
302.158
302.251
302.358
302.479
302.616
302.768
302.935
303.116
303.309
303.509
303.711
303.908
304.092
304.257
304.403
304.53
298.328
298.367
298.401
298.43
298.455
298.478
298.501
298.525
298.551
298.578
298.609
298.641
298.677
298.717
298.759
298.805
298.854
298.906
298.961
299.02
299.081
299.145
299.211
299.279
299.349
299.42
299.491
299.564
299.636
299.707
299.777
299.847
299.914
299.98
300.043
300.104
300.163
300.219
300.273
300.324
300.373
300.418
300.462
300.503
300.542
300.578
300.613
300.645
300.676
300.705
300.733
300.758
300.783
300.806
300.828
300.849
300.869
300.888
300.906
300.924
300.94
300.956
300.971
300.986
301
301.014
301.027
301.04
301.053
301.066
301.078
301.09
301.101
301.113
301.124
301.135
301.146
301.157
301.167
301.177
301.188
301.197
301.207
301.216
301.225
301.233
301.241
301.249
301.256
301.263
301.269
301.274
301.279
301.284
301.288
301.292
301.295
301.297
301.3
301.301
301.303
301.304
301.305
301.306
301.307
301.308
301.308
301.309
301.31
301.311
301.312
301.313
301.314
301.316
301.317
301.319
301.321
301.323
301.325
301.327
301.33
301.332
301.335
301.337
301.34
301.342
301.345
301.347
301.349
301.352
301.354
301.356
301.358
301.361
301.363
301.365
301.367
301.369
301.37
301.372
301.374
301.376
301.377
301.379
301.38
301.382
301.383
301.384
301.385
301.386
301.387
301.388
301.388
301.389
301.389
301.389
301.389
301.389
301.389
301.388
301.388
301.388
301.388
301.388
301.389
301.39
301.391
301.393
301.397
301.401
301.406
301.414
301.423
301.435
301.45
301.468
301.49
301.517
301.55
301.589
301.635
301.689
301.752
301.826
301.911
302.007
302.117
302.241
302.378
302.53
302.696
302.874
303.062
303.257
303.454
303.646
303.828
303.996
304.151
304.297
298.328
298.367
298.401
298.43
298.455
298.478
298.501
298.525
298.551
298.578
298.609
298.642
298.678
298.717
298.759
298.805
298.854
298.906
298.961
299.02
299.081
299.145
299.211
299.279
299.349
299.42
299.491
299.564
299.636
299.707
299.777
299.847
299.914
299.98
300.043
300.104
300.163
300.219
300.273
300.324
300.373
300.419
300.462
300.503
300.542
300.578
300.613
300.645
300.676
300.705
300.733
300.758
300.783
300.806
300.828
300.849
300.869
300.888
300.906
300.924
300.94
300.956
300.971
300.986
301
301.014
301.027
301.04
301.053
301.066
301.078
301.09
301.101
301.113
301.124
301.135
301.146
301.157
301.167
301.177
301.188
301.197
301.207
301.216
301.225
301.233
301.241
301.249
301.256
301.263
301.269
301.274
301.279
301.284
301.288
301.292
301.295
301.297
301.3
301.301
301.303
301.304
301.305
301.306
301.307
301.308
301.308
301.309
301.31
301.311
301.312
301.313
301.314
301.316
301.317
301.319
301.321
301.323
301.325
301.327
301.33
301.332
301.335
301.337
301.34
301.342
301.345
301.347
301.349
301.352
301.354
301.356
301.358
301.361
301.363
301.365
301.367
301.369
301.37
301.372
301.374
301.376
301.377
301.379
301.38
301.382
301.383
301.384
301.385
301.386
301.387
301.388
301.388
301.389
301.389
301.389
301.389
301.389
301.389
301.388
301.388
301.388
301.388
301.388
301.389
301.39
301.391
301.394
301.397
301.401
301.406
301.414
301.423
301.435
301.45
301.468
301.49
301.517
301.55
301.589
301.635
301.689
301.752
301.826
301.911
302.007
302.117
302.241
302.378
302.53
302.696
302.874
303.062
303.257
303.454
303.646
303.829
303.997
304.151
304.297
298.265
298.293
298.319
298.342
298.364
298.386
298.408
298.431
298.455
298.481
298.509
298.539
298.573
298.609
298.648
298.69
298.736
298.784
298.835
298.889
298.946
299.005
299.067
299.13
299.195
299.262
299.329
299.397
299.464
299.531
299.597
299.663
299.726
299.788
299.848
299.906
299.961
300.014
300.065
300.113
300.159
300.202
300.243
300.282
300.319
300.353
300.386
300.417
300.446
300.473
300.499
300.523
300.547
300.569
300.589
300.609
300.628
300.646
300.663
300.679
300.695
300.71
300.724
300.738
300.752
300.765
300.778
300.79
300.802
300.814
300.826
300.837
300.848
300.859
300.87
300.881
300.892
300.902
300.912
300.922
300.932
300.941
300.95
300.959
300.967
300.976
300.983
300.99
300.997
301.004
301.009
301.015
301.019
301.024
301.027
301.031
301.034
301.036
301.038
301.04
301.041
301.042
301.043
301.044
301.045
301.046
301.046
301.047
301.048
301.049
301.05
301.051
301.053
301.054
301.056