/*--------------------------------*- C++ -*----------------------------------*\
  =========                 |
  \\      /  F ield         | OpenFOAM: The Open Source CFD Toolbox
   \\    /   O peration     | Website:  https://openfoam.org
    \\  /    A nd           | Version:  8
     \\/     M anipulation  |
\*---------------------------------------------------------------------------*/
FoamFile
{
    version     2.0;
    format      ascii;
    class       volVectorField;
    location    "500";
    object      U;
}
// * * * * * * * * * * * * * * * * * * * * * * * * * * * * * * * * * * * * * //

dimensions      [0 1 -1 0 0 0 0];

internalField   nonuniform List<vector> 
46000
(
(-0.0174172 -3.90736e-06 0.0180422)
(-0.0451512 -1.36314e-05 0.013421)
(-0.0504531 -4.42661e-07 0.000159872)
(-0.0359574 1.5279e-07 -0.0123218)
(-0.00836653 -2.65414e-06 -0.0207682)
(0.0280681 -3.81447e-06 -0.025346)
(0.0677365 -4.4718e-06 -0.0270422)
(0.10919 -4.84409e-06 -0.0272497)
(0.150371 -4.66815e-06 -0.0264943)
(0.19016 -3.88689e-06 -0.0250994)
(0.227744 -2.73308e-06 -0.0232801)
(0.262561 -1.60877e-06 -0.0211846)
(0.29423 -8.92765e-07 -0.0189211)
(0.322513 -7.16149e-07 -0.0165725)
(0.347282 -9.2504e-07 -0.0142048)
(0.368504 -1.20604e-06 -0.0118717)
(0.386224 -1.29873e-06 -0.00961708)
(0.400554 -1.1226e-06 -0.0074766)
(0.411656 -7.55924e-07 -0.00547871)
(0.41974 -3.55699e-07 -0.0036459)
(0.425051 -6.22395e-08 -0.00199574)
(0.427858 7.20749e-08 -0.000539567)
(0.42845 9.48181e-08 0.000724643)
(0.427137 8.76146e-08 0.00180555)
(0.42417 9.78465e-08 0.00270943)
(0.419826 1.19091e-07 0.00344481)
(0.414364 1.02193e-07 0.00402206)
(0.408025 7.75861e-09 0.00445282)
(0.401039 -1.5276e-07 0.00474945)
(0.393615 -3.24101e-07 0.00492499)
(0.38594 -4.509e-07 0.00499301)
(0.378182 -5.14255e-07 0.00496736)
(0.370485 -5.2917e-07 0.00486195)
(0.362973 -5.15373e-07 0.00469039)
(0.355744 -4.77061e-07 0.0044658)
(0.34888 -4.06956e-07 0.00420058)
(0.342439 -3.01621e-07 0.00390622)
(0.336464 -1.70896e-07 0.00359315)
(0.33098 -3.5288e-08 0.00327066)
(0.325999 8.39809e-08 0.00294678)
(0.321519 1.72145e-07 0.00262826)
(0.317531 2.21795e-07 0.00232063)
(0.314016 2.31345e-07 0.00202818)
(0.310948 2.04181e-07 0.00175407)
(0.308298 1.47608e-07 0.00150038)
(0.306034 7.08915e-08 0.00126829)
(0.304123 -1.63576e-08 0.00105817)
(0.302532 -1.04922e-07 0.000869693)
(0.301227 -1.86083e-07 0.000702023)
(0.300178 -2.52294e-07 0.000553893)
(0.299354 -2.97755e-07 0.000423745)
(0.29873 -3.18942e-07 0.000309821)
(0.298282 -3.1535e-07 0.000210241)
(0.297988 -2.89835e-07 0.000123054)
(0.297829 -2.47592e-07 4.63414e-05)
(0.29779 -1.98783e-07 -2.11941e-05)
(0.29786 -1.50851e-07 -8.00656e-05)
(0.298021 -1.07444e-07 -0.000131006)
(0.298263 -7.43924e-08 -0.000175096)
(0.298575 -5.51434e-08 -0.00021325)
(0.298949 -5.02996e-08 -0.000246225)
(0.299376 -5.77752e-08 -0.00027463)
(0.299849 -7.33629e-08 -0.000298921)
(0.300361 -9.20492e-08 -0.000319413)
(0.300906 -1.09276e-07 -0.000336309)
(0.301478 -1.21956e-07 -0.000349733)
(0.302071 -1.28595e-07 -0.000359754)
(0.30268 -1.29323e-07 -0.000366416)
(0.303298 -1.2563e-07 -0.00036976)
(0.30392 -1.19638e-07 -0.000369843)
(0.30454 -1.13061e-07 -0.000366753)
(0.305154 -1.06796e-07 -0.000360617)
(0.305755 -1.00497e-07 -0.000351616)
(0.30634 -9.31676e-08 -0.000339977)
(0.306905 -8.31151e-08 -0.000325985)
(0.307445 -6.83355e-08 -0.000309976)
(0.307957 -4.70895e-08 -0.000292341)
(0.30844 -1.95279e-08 -0.000273525)
(0.308891 1.16739e-08 -0.000254022)
(0.309311 4.16782e-08 -0.000234375)
(0.309699 6.52373e-08 -0.000215168)
(0.310056 7.83758e-08 -0.000197019)
(0.310386 7.91558e-08 -0.000180564)
(0.310692 6.78791e-08 -0.000166441)
(0.310978 4.65863e-08 -0.000155268)
(0.31125 1.85241e-08 -0.000147622)
(0.311514 -1.22283e-08 -0.000144012)
(0.311777 -4.10608e-08 -0.000144858)
(0.312047 -6.35175e-08 -0.000150464)
(0.312331 -7.61867e-08 -0.000161001)
(0.312638 -7.75435e-08 -0.000176492)
(0.312975 -6.82325e-08 -0.000196808)
(0.31335 -5.12588e-08 -0.000221661)
(0.31377 -3.17396e-08 -0.000250615)
(0.314241 -1.59776e-08 -0.00028309)
(0.314768 -9.94658e-09 -0.000318385)
(0.315355 -1.77129e-08 -0.000355691)
(0.316004 -4.04919e-08 -0.000394116)
(0.316716 -7.62922e-08 -0.000432713)
(0.31749 -1.20144e-07 -0.000470511)
(0.318324 -1.64515e-07 -0.00050655)
(0.319215 -2.00431e-07 -0.00053991)
(0.320156 -2.19699e-07 -0.000569743)
(0.321142 -2.17293e-07 -0.000595306)
(0.322164 -1.92968e-07 -0.000615994)
(0.323215 -1.50795e-07 -0.000631362)
(0.324285 -9.81437e-08 -0.00064113)
(0.325366 -4.47552e-08 -0.000645195)
(0.326448 -1.77599e-09 -0.000643639)
(0.327523 2.15243e-08 -0.000636732)
(0.328582 2.20207e-08 -0.000624907)
(0.329619 4.82382e-09 -0.000608727)
(0.330626 -1.92906e-08 -0.000588853)
(0.331599 -3.85717e-08 -0.000566042)
(0.332534 -4.26558e-08 -0.000541128)
(0.333427 -2.26397e-08 -0.000514972)
(0.334278 2.67417e-08 -0.000488385)
(0.335087 1.01298e-07 -0.000462107)
(0.335853 1.84351e-07 -0.000436823)
(0.336581 2.52797e-07 -0.000413199)
(0.337273 2.89664e-07 -0.000391839)
(0.337933 2.91252e-07 -0.000373196)
(0.338565 2.63939e-07 -0.000357538)
(0.339175 2.163e-07 -0.000344999)
(0.339767 1.57665e-07 -0.000335661)
(0.340347 1.02471e-07 -0.000329552)
(0.340919 6.95405e-08 -0.000326544)
(0.341487 7.03222e-08 -0.000326261)
(0.342055 9.47578e-08 -0.000328145)
(0.342626 1.12148e-07 -0.000331622)
(0.343203 9.01442e-08 -0.00033624)
(0.343788 1.74223e-08 -0.000341658)
(0.344381 -8.89379e-08 -0.000347527)
(0.344982 -1.95774e-07 -0.000353415)
(0.345591 -2.72795e-07 -0.000358864)
(0.346207 -3.04395e-07 -0.000363513)
(0.346829 -2.90561e-07 -0.000367172)
(0.347455 -2.43252e-07 -0.000369777)
(0.348083 -1.82461e-07 -0.000371324)
(0.348713 -1.29585e-07 -0.00037185)
(0.349342 -9.63568e-08 -0.000371499)
(0.349971 -7.54179e-08 -0.000370573)
(0.350598 -4.25003e-08 -0.000369502)
(0.351224 2.61874e-08 -0.000368735)
(0.35185 1.33065e-07 -0.000368644)
(0.352476 2.51314e-07 -0.000369515)
(0.353106 3.38744e-07 -0.000371614)
(0.353741 3.65006e-07 -0.000375233)
(0.354384 3.33017e-07 -0.000380678)
(0.355039 2.7874e-07 -0.000388192)
(0.355708 2.48258e-07 -0.000397894)
(0.356395 2.67579e-07 -0.000409749)
(0.357103 3.25663e-07 -0.000423582)
(0.357835 3.82404e-07 -0.000439093)
(0.358592 3.96083e-07 -0.000455865)
(0.359378 3.51947e-07 -0.000473387)
(0.360192 2.72503e-07 -0.000491101)
(0.361035 2.0169e-07 -0.000508434)
(0.361905 1.72291e-07 -0.000524782)
(0.3628 1.79065e-07 -0.000539445)
(0.363717 1.78966e-07 -0.000551583)
(0.364651 1.23264e-07 -0.00056024)
(0.365595 1.03119e-09 -0.00056442)
(0.366541 -1.42194e-07 -0.000563118)
(0.367479 -2.31937e-07 -0.000555268)
(0.368396 -2.21513e-07 -0.000539664)
(0.369279 -1.31589e-07 -0.000514915)
(0.37011 -3.63971e-08 -0.000479427)
(0.370868 -5.20437e-09 -0.000431378)
(0.371531 -4.80208e-08 -0.000368631)
(0.37207 -1.09752e-07 -0.000288623)
(0.372453 -1.12946e-07 -0.000188042)
(0.372636 -1.19782e-08 -6.27595e-05)
(0.372577 1.69339e-07 9.27609e-05)
(0.372213 3.42977e-07 0.000286391)
(0.371469 3.98709e-07 0.000527783)
(0.370252 2.72563e-07 0.000827921)
(0.368454 1.72002e-08 0.00119934)
(0.365942 -2.06611e-07 0.00165624)
(0.362559 -2.42028e-07 0.00221483)
(0.358122 -6.8841e-08 0.00289357)
(0.352415 1.62342e-07 0.003713)
(0.345193 2.3159e-07 0.00469494)
(0.33618 1.79828e-08 0.00586111)
(0.325072 -3.72953e-07 0.00723113)
(0.311541 -6.26619e-07 0.0088202)
(0.295247 -4.34966e-07 0.0106365)
(0.275853 1.88106e-07 0.0126779)
(0.25305 7.69691e-07 0.0149258)
(0.22659 6.52002e-07 0.0173362)
(0.196336 -4.62706e-07 0.019827)
(0.162323 -2.18709e-06 0.0222591)
(0.124876 -3.68352e-06 0.0244039)
(0.0847067 -4.30839e-06 0.0258766)
(0.0434647 -4.28305e-06 0.0259983)
(0.00322187 -4.63611e-06 0.0231875)
(-0.0309757 -6.29503e-06 0.0151702)
(-0.0508013 -9.35524e-06 0.00166744)
(-0.0494366 -1.38536e-05 -0.0139034)
(-0.0199103 -1.73346e-05 -0.0224058)
(-0.0174315 -3.90736e-06 0.0180582)
(-0.0451487 -1.36306e-05 0.0134284)
(-0.0504416 -4.42616e-07 0.000157649)
(-0.0359588 1.52776e-07 -0.0123238)
(-0.00836723 -2.6539e-06 -0.0207694)
(0.0280716 -3.81415e-06 -0.0253477)
(0.0677409 -4.47149e-06 -0.0270439)
(0.109193 -4.84381e-06 -0.0272502)
(0.150373 -4.66791e-06 -0.0264925)
(0.190162 -3.8867e-06 -0.0250954)
(0.227746 -2.73296e-06 -0.0232748)
(0.262564 -1.60871e-06 -0.0211794)
(0.294234 -8.92737e-07 -0.0189174)
(0.322517 -7.16131e-07 -0.0165711)
(0.347286 -9.25022e-07 -0.0142058)
(0.368508 -1.20603e-06 -0.0118744)
(0.386227 -1.29871e-06 -0.00962029)
(0.400555 -1.12259e-06 -0.00747937)
(0.411657 -7.55917e-07 -0.0054807)
(0.419741 -3.55696e-07 -0.00364741)
(0.425051 -6.2239e-08 -0.00199737)
(0.427859 7.20745e-08 -0.000541779)
(0.42845 9.48175e-08 0.000721752)
(0.427137 8.76141e-08 0.00180221)
(0.42417 9.7846e-08 0.00270599)
(0.419826 1.19091e-07 0.00344153)
(0.414363 1.02193e-07 0.00401902)
(0.408024 7.75858e-09 0.00444998)
(0.401038 -1.5276e-07 0.00474677)
(0.393613 -3.24099e-07 0.00492249)
(0.385939 -4.50898e-07 0.00499074)
(0.378181 -5.14252e-07 0.0049654)
(0.370484 -5.29167e-07 0.00486036)
(0.362972 -5.1537e-07 0.00468925)
(0.355744 -4.77057e-07 0.00446515)
(0.348879 -4.06953e-07 0.00420043)
(0.342438 -3.01619e-07 0.00390652)
(0.336463 -1.70894e-07 0.00359381)
(0.330979 -3.52877e-08 0.00327155)
(0.325998 8.398e-08 0.00294774)
(0.321519 1.72143e-07 0.00262914)
(0.317531 2.21792e-07 0.00232129)
(0.314016 2.31342e-07 0.0020285)
(0.310948 2.04179e-07 0.001754)
(0.308298 1.47607e-07 0.00149992)
(0.306035 7.08906e-08 0.00126747)
(0.304124 -1.63574e-08 0.00105706)
(0.302533 -1.0492e-07 0.000868384)
(0.301228 -1.8608e-07 0.000700604)
(0.300178 -2.52291e-07 0.000552454)
(0.299354 -2.97751e-07 0.00042236)
(0.29873 -3.18938e-07 0.00030855)
(0.298282 -3.15346e-07 0.00020912)
(0.297987 -2.89831e-07 0.000122098)
(0.297829 -2.47588e-07 4.55464e-05)
(0.29779 -1.9878e-07 -2.18398e-05)
(0.29786 -1.50849e-07 -8.05799e-05)
(0.298021 -1.07443e-07 -0.000131413)
(0.298263 -7.43913e-08 -0.000175415)
(0.298575 -5.51425e-08 -0.000213495)
(0.298949 -5.02988e-08 -0.000246405)
(0.299376 -5.77744e-08 -0.000274756)
(0.299849 -7.33618e-08 -0.000299002)
(0.300361 -9.20479e-08 -0.000319463)
(0.300907 -1.09275e-07 -0.000336343)
(0.301479 -1.21955e-07 -0.000349768)
(0.302072 -1.28593e-07 -0.000359807)
(0.302681 -1.29321e-07 -0.000366504)
(0.303298 -1.25629e-07 -0.000369895)
(0.30392 -1.19636e-07 -0.000370029)
(0.30454 -1.1306e-07 -0.000366983)
(0.305154 -1.06795e-07 -0.000360877)
(0.305755 -1.00496e-07 -0.000351882)
(0.30634 -9.31663e-08 -0.000340224)
(0.306905 -8.31139e-08 -0.000326187)
(0.307445 -6.83345e-08 -0.000310112)
(0.307957 -4.70889e-08 -0.000292397)
(0.30844 -1.95277e-08 -0.000273496)
(0.308891 1.16737e-08 -0.000253914)
(0.309311 4.16776e-08 -0.0002342)
(0.309699 6.52364e-08 -0.000214943)
(0.310057 7.83747e-08 -0.00019676)
(0.310387 7.91547e-08 -0.000180284)
(0.310692 6.78781e-08 -0.000166149)
(0.310979 4.65857e-08 -0.000154971)
(0.31125 1.85238e-08 -0.000147322)
(0.311514 -1.22281e-08 -0.000143712)
(0.311777 -4.10602e-08 -0.00014456)
(0.312047 -6.35166e-08 -0.000150172)
(0.312331 -7.61856e-08 -0.000160724)
(0.312638 -7.75425e-08 -0.000176243)
(0.312975 -6.82316e-08 -0.000196603)
(0.31335 -5.12581e-08 -0.000221518)
(0.31377 -3.17391e-08 -0.00025055)
(0.314241 -1.59774e-08 -0.000283117)
(0.314768 -9.94644e-09 -0.000318508)
(0.315355 -1.77126e-08 -0.000355906)
(0.316004 -4.04913e-08 -0.000394411)
(0.316716 -7.62911e-08 -0.000433068)
(0.317491 -1.20142e-07 -0.000470906)
(0.318325 -1.64513e-07 -0.000506964)
(0.319215 -2.00429e-07 -0.000540324)
(0.320156 -2.19696e-07 -0.000570145)
(0.321142 -2.1729e-07 -0.000595691)
(0.322164 -1.92966e-07 -0.000616362)
(0.323215 -1.50793e-07 -0.000631712)
(0.324285 -9.81425e-08 -0.000641456)
(0.325366 -4.47546e-08 -0.000645489)
(0.326448 -1.77596e-09 -0.000643891)
(0.327523 2.15241e-08 -0.000636925)
(0.328583 2.20205e-08 -0.000625016)
(0.329619 4.82375e-09 -0.000608724)
(0.330627 -1.92903e-08 -0.000588725)
(0.3316 -3.85712e-08 -0.000565798)
(0.332534 -4.26552e-08 -0.000540787)
(0.333427 -2.26395e-08 -0.000514544)
(0.334278 2.67414e-08 -0.00048788)
(0.335087 1.01297e-07 -0.000461548)
(0.335854 1.84349e-07 -0.000436258)
(0.336581 2.52793e-07 -0.000412667)
(0.337273 2.8966e-07 -0.000391337)
(0.337933 2.91248e-07 -0.000372686)
(0.338565 2.63935e-07 -0.000356989)
(0.339175 2.16297e-07 -0.000344423)
(0.339767 1.57663e-07 -0.000335099)
(0.340346 1.02469e-07 -0.000329023)
(0.340918 6.95396e-08 -0.000326022)
(0.341486 7.03214e-08 -0.000325719)
(0.342055 9.47567e-08 -0.000327605)
(0.342626 1.12147e-07 -0.000331157)
(0.343204 9.01431e-08 -0.000335907)
(0.343788 1.74221e-08 -0.000341434)
(0.344381 -8.89368e-08 -0.000347317)
(0.344982 -1.95771e-07 -0.000353125)
(0.345591 -2.72792e-07 -0.000358466)
(0.346207 -3.04391e-07 -0.000363047)
(0.346829 -2.90557e-07 -0.000366681)
(0.347455 -2.43249e-07 -0.000369263)
(0.348083 -1.82458e-07 -0.000370751)
(0.348713 -1.29584e-07 -0.000371195)
(0.349342 -9.63557e-08 -0.000370779)
(0.349971 -7.5417e-08 -0.000369832)
(0.350598 -4.24998e-08 -0.000368766)
(0.351224 2.61871e-08 -0.000367993)
(0.35185 1.33063e-07 -0.00036787)
(0.352476 2.51311e-07 -0.000368706)
(0.353106 3.3874e-07 -0.000370793)
(0.353741 3.65001e-07 -0.000374436)
(0.354384 3.33013e-07 -0.000379928)
(0.355039 2.78737e-07 -0.000387495)
(0.355708 2.48255e-07 -0.000397248)
(0.356395 2.67576e-07 -0.000409153)
(0.357102 3.2566e-07 -0.000423027)
(0.357834 3.82399e-07 -0.000438555)
(0.358592 3.96079e-07 -0.000455322)
(0.359378 3.51943e-07 -0.000472846)
(0.360192 2.725e-07 -0.000490606)
(0.361034 2.01688e-07 -0.000508036)
(0.361905 1.72289e-07 -0.000524483)
(0.3628 1.79063e-07 -0.000539173)
(0.363717 1.78964e-07 -0.00055123)
(0.364651 1.23263e-07 -0.000559735)
(0.365595 1.03118e-09 -0.00056377)
(0.366541 -1.42193e-07 -0.000562391)
(0.367479 -2.31935e-07 -0.000554551)
(0.368396 -2.21511e-07 -0.000539013)
(0.369279 -1.31588e-07 -0.000514334)
(0.370109 -3.63968e-08 -0.00047888)
(0.370868 -5.20432e-09 -0.00043082)
(0.371531 -4.80204e-08 -0.000368058)
(0.37207 -1.09751e-07 -0.000288065)
(0.372452 -1.12945e-07 -0.000187496)
(0.372635 -1.19781e-08 -6.21423e-05)
(0.372577 1.69337e-07 9.3529e-05)
(0.372213 3.42974e-07 0.000287199)
(0.371469 3.98705e-07 0.000528305)
(0.370253 2.7256e-07 0.000827914)
(0.368454 1.72e-08 0.001199)
(0.365941 -2.0661e-07 0.00165616)
(0.362559 -2.42026e-07 0.00221547)
(0.358122 -6.88403e-08 0.00289479)
(0.352415 1.6234e-07 0.00371416)
(0.345194 2.31588e-07 0.00469544)
(0.336181 1.79826e-08 0.00586082)
(0.325073 -3.7295e-07 0.00723038)
(0.311541 -6.26613e-07 0.00881951)
(0.295246 -4.34961e-07 0.0106363)
(0.275852 1.88104e-07 0.0126784)
(0.25305 7.69682e-07 0.014927)
(0.22659 6.51994e-07 0.017338)
(0.196335 -4.62701e-07 0.0198291)
(0.162322 -2.18706e-06 0.0222617)
(0.124875 -3.68348e-06 0.0244067)
(0.084706 -4.30835e-06 0.0258796)
(0.043463 -4.28302e-06 0.0260033)
(0.0032184 -4.63605e-06 0.0231972)
(-0.0309804 -6.29495e-06 0.0151842)
(-0.0508072 -9.35523e-06 0.00168367)
(-0.0494411 -1.38541e-05 -0.0138867)
(-0.0199112 -1.73351e-05 -0.0223975)
(-0.011575 9.78823e-06 0.0455108)
(-0.0162585 -4.89726e-06 0.0202606)
(0.000184436 -1.10451e-06 -0.0122371)
(0.0251052 4.05259e-07 -0.0365433)
(0.0564762 5.8618e-07 -0.0520829)
(0.0919866 8.06134e-07 -0.0608492)
(0.129855 8.79718e-07 -0.0648206)
(0.168725 7.57236e-07 -0.0656762)
(0.207363 4.99788e-07 -0.0643657)
(0.244885 2.07907e-07 -0.0615436)
(0.280611 -1.05391e-08 -0.0576579)
(0.314034 -9.36432e-08 -0.0530327)
(0.344785 -6.5461e-08 -0.0479151)
(0.372612 -1.35827e-08 -0.0425012)
(0.397359 -1.58213e-08 -0.036952)
(0.418954 -8.91059e-08 -0.0314017)
(0.437398 -2.01047e-07 -0.0259632)
(0.45275 -3.01748e-07 -0.0207304)
(0.465124 -3.57572e-07 -0.0157806)
(0.474674 -3.66952e-07 -0.0111761)
(0.481587 -3.51652e-07 -0.00696616)
(0.486078 -3.35488e-07 -0.00318799)
(0.488372 -3.28398e-07 0.000137056)
(0.488714 -3.19443e-07 0.00301428)
(0.487367 -2.86374e-07 0.00546175)
(0.484586 -2.13824e-07 0.0074927)
(0.480614 -1.07831e-07 0.00912484)
(0.475686 6.36901e-09 0.0103808)
(0.470021 1.01716e-07 0.0112877)
(0.463821 1.6614e-07 0.0118759)
(0.457271 2.0477e-07 0.0121785)
(0.450534 2.289e-07 0.0122303)
(0.443755 2.43893e-07 0.0120664)
(0.437057 2.46807e-07 0.0117218)
(0.430543 2.33292e-07 0.0112305)
(0.424296 2.04523e-07 0.0106248)
(0.418381 1.68077e-07 0.00993481)
(0.412846 1.33974e-07 0.00918786)
(0.407724 1.10235e-07 0.00840834)
(0.403033 1.00933e-07 0.00761745)
(0.39878 1.06316e-07 0.00683312)
(0.394961 1.23406e-07 0.00607002)
(0.391566 1.4631e-07 0.00533967)
(0.388576 1.67395e-07 0.00465067)
(0.38597 1.79726e-07 0.0040089)
(0.383723 1.79437e-07 0.00341787)
(0.381806 1.66247e-07 0.00287902)
(0.380192 1.42365e-07 0.00239209)
(0.378852 1.11257e-07 0.00195544)
(0.377761 7.70268e-08 0.00156641)
(0.376891 4.37329e-08 0.00122156)
(0.376219 1.4433e-08 0.000916992)
(0.375722 -9.50524e-09 0.000648514)
(0.375382 -2.82895e-08 0.000411858)
(0.37518 -4.29631e-08 0.000202877)
(0.3751 -5.38367e-08 1.77154e-05)
(0.375127 -6.14534e-08 -0.000145451)
(0.375249 -6.65267e-08 -0.000288024)
(0.375456 -6.90628e-08 -0.000412613)
(0.375738 -6.95006e-08 -0.000521416)
(0.376085 -6.85114e-08 -0.000616234)
(0.376489 -6.6886e-08 -0.000698483)
(0.376942 -6.52112e-08 -0.000769219)
(0.377437 -6.38969e-08 -0.000829198)
(0.377968 -6.31901e-08 -0.000878936)
(0.378527 -6.30509e-08 -0.00091878)
(0.379108 -6.29123e-08 -0.000948966)
(0.379705 -6.16516e-08 -0.00096968)
(0.380311 -5.79388e-08 -0.000981102)
(0.380922 -5.0715e-08 -0.000983454)
(0.381531 -3.96438e-08 -0.00097703)
(0.382132 -2.52793e-08 -0.000962229)
(0.382721 -9.04448e-09 -0.000939569)
(0.383292 6.88777e-09 -0.000909712)
(0.383843 1.99692e-08 -0.000873466)
(0.384368 2.79057e-08 -0.000831793)
(0.384865 2.91564e-08 -0.00078581)
(0.385333 2.3218e-08 -0.000736782)
(0.385769 1.06729e-08 -0.000686112)
(0.386173 -6.6932e-09 -0.00063532)
(0.386546 -2.59867e-08 -0.000586014)
(0.386889 -4.36356e-08 -0.000539864)
(0.387205 -5.61628e-08 -0.000498553)
(0.387498 -6.10491e-08 -0.000463733)
(0.387771 -5.7539e-08 -0.000436974)
(0.388031 -4.68672e-08 -0.00041971)
(0.388284 -3.18342e-08 -0.000413182)
(0.388537 -1.58638e-08 -0.000418386)
(0.388797 -2.13906e-09 -0.000436022)
(0.389072 7.04262e-09 -0.000466455)
(0.38937 1.05832e-08 -0.000509679)
(0.389698 8.79017e-09 -0.000565301)
(0.390065 3.19906e-09 -0.000632527)
(0.390476 -3.94712e-09 -0.000710179)
(0.390937 -1.0321e-08 -0.000796709)
(0.391454 -1.39912e-08 -0.000890241)
(0.392029 -1.36231e-08 -0.000988623)
(0.392665 -8.67101e-09 -0.0010895)
(0.393362 4.51397e-10 -0.00119037)
(0.39412 1.24277e-08 -0.00128872)
(0.394936 2.5405e-08 -0.00138206)
(0.395806 3.75539e-08 -0.00146805)
(0.396726 4.75353e-08 -0.00154455)
(0.397688 5.44292e-08 -0.00160976)
(0.398687 5.7529e-08 -0.00166221)
(0.399712 5.66628e-08 -0.00170086)
(0.400758 5.27927e-08 -0.00172509)
(0.401813 4.80774e-08 -0.00173475)
(0.402871 4.4792e-08 -0.00173013)
(0.403922 4.45356e-08 -0.00171195)
(0.404959 4.86112e-08 -0.0016813)
(0.405975 5.86505e-08 -0.00163962)
(0.406963 7.58446e-08 -0.00158862)
(0.407919 9.87163e-08 -0.00153024)
(0.408838 1.22483e-07 -0.00146651)
(0.409719 1.41612e-07 -0.00139954)
(0.410559 1.53238e-07 -0.00133143)
(0.411359 1.57355e-07 -0.00126416)
(0.412119 1.54097e-07 -0.00119962)
(0.412842 1.42583e-07 -0.00113942)
(0.41353 1.23884e-07 -0.00108492)
(0.414187 1.04121e-07 -0.00103715)
(0.414816 9.18873e-08 -0.000996858)
(0.415424 9.06787e-08 -0.00096449)
(0.416013 9.40224e-08 -0.00094014)
(0.416588 8.94954e-08 -0.000923532)
(0.417154 6.79213e-08 -0.000914066)
(0.417716 2.85909e-08 -0.000910928)
(0.418275 -2.36666e-08 -0.000913189)
(0.418836 -8.40313e-08 -0.000919824)
(0.4194 -1.48118e-07 -0.000929692)
(0.419968 -2.07654e-07 -0.000941545)
(0.420542 -2.49091e-07 -0.000954138)
(0.421122 -2.60212e-07 -0.000966379)
(0.421708 -2.39943e-07 -0.000977426)
(0.422298 -2.01365e-07 -0.000986677)
(0.422892 -1.63616e-07 -0.000993728)
(0.423488 -1.39268e-07 -0.000998348)
(0.424085 -1.27691e-07 -0.00100053)
(0.424683 -1.18661e-07 -0.00100055)
(0.42528 -1.0117e-07 -0.00099896)
(0.425875 -6.96778e-08 -0.0009965)
(0.426468 -2.49483e-08 -0.000994024)
(0.42706 2.75253e-08 -0.000992434)
(0.427651 7.84441e-08 -0.000992664)
(0.428243 1.15792e-07 -0.000995662)
(0.428838 1.29131e-07 -0.00100232)
(0.429438 1.16776e-07 -0.00101338)
(0.430046 9.00834e-08 -0.00102938)
(0.430665 6.86621e-08 -0.0010506)
(0.431296 6.65983e-08 -0.0010771)
(0.431944 7.94261e-08 -0.00110873)
(0.432611 8.36847e-08 -0.00114506)
(0.4333 5.27225e-08 -0.00118539)
(0.434011 -2.16097e-08 -0.00122872)
(0.434747 -1.18707e-07 -0.0012738)
(0.435508 -1.99999e-07 -0.00131917)
(0.436292 -2.34346e-07 -0.00136323)
(0.437099 -2.19016e-07 -0.00140421)
(0.437925 -1.80097e-07 -0.00144015)
(0.438766 -1.51847e-07 -0.00146887)
(0.439618 -1.50646e-07 -0.00148797)
(0.440472 -1.63463e-07 -0.00149485)
(0.441321 -1.60194e-07 -0.0014867)
(0.442153 -1.20778e-07 -0.00146046)
(0.442956 -5.46214e-08 -0.00141267)
(0.443714 5.66508e-09 -0.00133935)
(0.444411 3.2437e-08 -0.00123576)
(0.445025 2.75391e-08 -0.00109632)
(0.445531 1.76539e-08 -0.000914422)
(0.445898 2.27654e-08 -0.000682157)
(0.446089 3.18251e-08 -0.000389784)
(0.446061 1.83724e-08 -2.57542e-05)
(0.445758 -1.5492e-08 0.000427106)
(0.445116 -2.56162e-08 0.00099149)
(0.444055 2.65726e-08 0.00169197)
(0.442481 1.14413e-07 0.00255643)
(0.440279 1.55347e-07 0.00361719)
(0.437315 9.86866e-08 0.00491139)
(0.433429 -7.29218e-09 0.00648081)
(0.428436 -5.72044e-08 0.00837113)
(0.422124 7.94293e-10 0.0106304)
(0.414254 1.11697e-07 0.0133069)
(0.404562 1.73629e-07 0.0164458)
(0.392763 1.31862e-07 0.0200852)
(0.378558 5.68581e-09 0.02425)
(0.361647 -1.36615e-07 0.0289441)
(0.341746 -1.83316e-07 0.0341396)
(0.318606 -6.59918e-09 0.0397632)
(0.292053 4.033e-07 0.0456759)
(0.262021 8.27692e-07 0.0516474)
(0.228619 9.85446e-07 0.0573164)
(0.192202 8.76442e-07 0.0621284)
(0.153462 8.23583e-07 0.0652215)
(0.113602 1.10643e-06 0.065267)
(0.0743354 1.7919e-06 0.0600323)
(0.0377912 2.8088e-06 0.0463955)
(0.00741783 3.69919e-06 0.0214041)
(-0.0146381 2.61181e-06 -0.0160112)
(-0.0114708 -7.43615e-06 -0.0527203)
(-0.0115954 9.7879e-06 0.0455191)
(-0.0162651 -4.89663e-06 0.0202625)
(0.000188437 -1.10436e-06 -0.0122406)
(0.0251073 4.05215e-07 -0.0365461)
(0.0564781 5.86128e-07 -0.0520852)
(0.0919897 8.06073e-07 -0.0608515)
(0.129859 8.79661e-07 -0.0648228)
(0.168729 7.57193e-07 -0.0656782)
(0.207367 4.99763e-07 -0.0643671)
(0.244888 2.07898e-07 -0.0615445)
(0.280613 -1.05387e-08 -0.0576581)
(0.314035 -9.36397e-08 -0.0530326)
(0.344786 -6.54589e-08 -0.0479148)
(0.372613 -1.35823e-08 -0.0425011)
(0.39736 -1.58209e-08 -0.0369521)
(0.418955 -8.9104e-08 -0.0314022)
(0.437399 -2.01043e-07 -0.0259638)
(0.452751 -3.01743e-07 -0.0207309)
(0.465124 -3.57567e-07 -0.0157808)
(0.474673 -3.66947e-07 -0.0111762)
(0.481586 -3.51647e-07 -0.00696612)
(0.486077 -3.35484e-07 -0.00318801)
(0.488371 -3.28394e-07 0.000136886)
(0.488713 -3.1944e-07 0.00301395)
(0.487366 -2.86371e-07 0.00546133)
(0.484585 -2.13822e-07 0.00749225)
(0.480613 -1.0783e-07 0.0091244)
(0.475685 6.36894e-09 0.0103804)
(0.47002 1.01715e-07 0.0112873)
(0.46382 1.66138e-07 0.0118755)
(0.45727 2.04768e-07 0.0121782)
(0.450533 2.28897e-07 0.01223)
(0.443754 2.4389e-07 0.0120661)
(0.437056 2.46804e-07 0.0117216)
(0.430542 2.33289e-07 0.0112304)
(0.424295 2.0452e-07 0.0106248)
(0.41838 1.68075e-07 0.00993484)
(0.412846 1.33972e-07 0.00918793)
(0.407723 1.10234e-07 0.00840844)
(0.403032 1.00932e-07 0.00761757)
(0.398779 1.06314e-07 0.00683324)
(0.39496 1.23404e-07 0.00607012)
(0.391565 1.46307e-07 0.00533974)
(0.388576 1.67392e-07 0.00465069)
(0.38597 1.79722e-07 0.00400886)
(0.383722 1.79434e-07 0.00341776)
(0.381806 1.66243e-07 0.00287885)
(0.380191 1.42362e-07 0.00239186)
(0.378852 1.11255e-07 0.00195517)
(0.37776 7.70251e-08 0.00156609)
(0.37689 4.3732e-08 0.00122122)
(0.376218 1.44327e-08 0.000916637)
(0.375722 -9.50504e-09 0.000648165)
(0.375382 -2.82889e-08 0.000411529)
(0.37518 -4.29621e-08 0.000202576)
(0.375099 -5.38355e-08 1.74536e-05)
(0.375126 -6.1452e-08 -0.000145669)
(0.375249 -6.65252e-08 -0.0002882)
(0.375456 -6.90613e-08 -0.000412753)
(0.375737 -6.94991e-08 -0.000521523)
(0.376084 -6.85099e-08 -0.000616312)
(0.376488 -6.68846e-08 -0.000698536)
(0.376942 -6.52097e-08 -0.000769251)
(0.377437 -6.38955e-08 -0.000829213)
(0.377967 -6.31888e-08 -0.000878939)
(0.378526 -6.30495e-08 -0.000918777)
(0.379108 -6.29109e-08 -0.000948964)
(0.379704 -6.16502e-08 -0.000969685)
(0.380311 -5.79376e-08 -0.000981121)
(0.380922 -5.07139e-08 -0.000983488)
(0.38153 -3.96429e-08 -0.000977079)
(0.382131 -2.52787e-08 -0.000962287)
(0.38272 -9.04429e-09 -0.000939628)
(0.383292 6.88762e-09 -0.00090976)
(0.383842 1.99688e-08 -0.000873491)
(0.384367 2.79051e-08 -0.000831786)
(0.384865 2.91558e-08 -0.000785767)
(0.385332 2.32175e-08 -0.000736703)
(0.385768 1.06727e-08 -0.000686005)
(0.386172 -6.69306e-09 -0.000635195)
(0.386545 -2.59861e-08 -0.000585887)
(0.386888 -4.36347e-08 -0.000539746)
(0.387205 -5.61617e-08 -0.000498453)
(0.387497 -6.10478e-08 -0.000463656)
(0.387771 -5.75378e-08 -0.000436918)
(0.388031 -4.68662e-08 -0.000419668)
(0.388284 -3.18335e-08 -0.000413144)
(0.388536 -1.58635e-08 -0.000418341)
(0.388796 -2.13901e-09 -0.000435962)
(0.389071 7.04248e-09 -0.000466377)
(0.389369 1.0583e-08 -0.000509586)
(0.389698 8.78999e-09 -0.000565201)
(0.390064 3.19899e-09 -0.000632433)
(0.390475 -3.94704e-09 -0.000710106)
(0.390937 -1.03208e-08 -0.000796669)
(0.391453 -1.3991e-08 -0.000890242)
(0.392029 -1.36229e-08 -0.000988666)
(0.392665 -8.67084e-09 -0.00108958)
(0.393362 4.51388e-10 -0.00119048)
(0.39412 1.24274e-08 -0.00128884)
(0.394936 2.54045e-08 -0.00138217)
(0.395806 3.75531e-08 -0.00146813)
(0.396726 4.75344e-08 -0.0015446)
(0.397688 5.44281e-08 -0.00160978)
(0.398686 5.75279e-08 -0.0016622)
(0.399712 5.66617e-08 -0.00170083)
(0.400757 5.27916e-08 -0.00172504)
(0.401813 4.80765e-08 -0.0017347)
(0.402871 4.47912e-08 -0.00173008)
(0.403922 4.45348e-08 -0.0017119)
(0.404959 4.86103e-08 -0.00168125)
(0.405974 5.86494e-08 -0.00163956)
(0.406963 7.58432e-08 -0.00158855)
(0.407918 9.87144e-08 -0.00153014)
(0.408838 1.22481e-07 -0.00146639)
(0.409718 1.41609e-07 -0.0013994)
(0.410558 1.53235e-07 -0.00133126)
(0.411358 1.57352e-07 -0.00126399)
(0.412118 1.54094e-07 -0.00119944)
(0.412841 1.42581e-07 -0.00113926)
(0.413529 1.23882e-07 -0.00108477)
(0.414186 1.0412e-07 -0.00103703)
(0.414816 9.18856e-08 -0.000996763)
(0.415423 9.0677e-08 -0.000964407)
(0.416012 9.40207e-08 -0.000940055)
(0.416587 8.94938e-08 -0.000923435)
(0.417154 6.79201e-08 -0.000913966)
(0.417715 2.85904e-08 -0.000910846)
(0.418274 -2.36662e-08 -0.000913139)
(0.418835 -8.40298e-08 -0.000919795)
(0.419399 -1.48116e-07 -0.000929654)
(0.419968 -2.07651e-07 -0.000941479)
(0.420542 -2.49087e-07 -0.000954057)
(0.421122 -2.60208e-07 -0.000966314)
(0.421707 -2.39939e-07 -0.000977389)
(0.422297 -2.01362e-07 -0.000986642)
(0.422891 -1.63613e-07 -0.000993643)
(0.423487 -1.39266e-07 -0.00099818)
(0.424085 -1.27689e-07 -0.00100029)
(0.424682 -1.18659e-07 -0.00100027)
(0.425279 -1.01168e-07 -0.000998673)
(0.425874 -6.96767e-08 -0.000996212)
(0.426467 -2.49479e-08 -0.000993726)
(0.427059 2.75249e-08 -0.000992126)
(0.42765 7.84428e-08 -0.000992373)
(0.428242 1.15791e-07 -0.00099542)
(0.428838 1.29129e-07 -0.00100214)
(0.429438 1.16774e-07 -0.00101326)
(0.430046 9.00819e-08 -0.0010293)
(0.430664 6.8661e-08 -0.00105055)
(0.431296 6.65972e-08 -0.00107709)
(0.431943 7.94249e-08 -0.00110875)
(0.43261 8.36834e-08 -0.00114509)
(0.433299 5.27217e-08 -0.00118538)
(0.43401 -2.16094e-08 -0.00122865)
(0.434746 -1.18705e-07 -0.00127367)
(0.435507 -1.99996e-07 -0.00131904)
(0.436291 -2.34343e-07 -0.00136315)
(0.437098 -2.19013e-07 -0.00140417)
(0.437924 -1.80094e-07 -0.0014401)
(0.438766 -1.51845e-07 -0.00146874)
(0.439617 -1.50644e-07 -0.00148775)
(0.440471 -1.63461e-07 -0.00149457)
(0.44132 -1.60192e-07 -0.00148642)
(0.442152 -1.20776e-07 -0.00146022)
(0.442955 -5.46207e-08 -0.00141246)
(0.443714 5.66501e-09 -0.00133913)
(0.444411 3.24365e-08 -0.00123552)
(0.445025 2.75387e-08 -0.00109606)
(0.44553 1.76537e-08 -0.000914182)
(0.445897 2.27651e-08 -0.000681959)
(0.446088 3.18247e-08 -0.000389595)
(0.44606 1.83722e-08 -2.54947e-05)
(0.445758 -1.54918e-08 0.000427487)
(0.445115 -2.56159e-08 0.00099192)
(0.444054 2.65722e-08 0.00169226)
(0.44248 1.14412e-07 0.0025564)
(0.440279 1.55345e-07 0.00361689)
(0.437315 9.86853e-08 0.00491102)
(0.433429 -7.29209e-09 0.0064806)
(0.428436 -5.72036e-08 0.00837111)
(0.422124 7.94282e-10 0.0106304)
(0.414254 1.11696e-07 0.0133068)
(0.404562 1.73626e-07 0.0164457)
(0.392763 1.3186e-07 0.0200852)
(0.378558 5.68572e-09 0.0242503)
(0.361647 -1.36613e-07 0.0289446)
(0.341745 -1.83313e-07 0.0341403)
(0.318606 -6.59908e-09 0.0397637)
(0.292052 4.03293e-07 0.0456763)
(0.262021 8.27677e-07 0.051648)
(0.228618 9.85428e-07 0.0573176)
(0.192201 8.76425e-07 0.06213)
(0.15346 8.23566e-07 0.065223)
(0.113602 1.10641e-06 0.0652683)
(0.074335 1.79186e-06 0.0600339)
(0.0377899 2.80874e-06 0.0463977)
(0.00741404 3.69912e-06 0.0214083)
(-0.0146476 2.61179e-06 -0.0160021)
(-0.0114816 -7.43626e-06 -0.0527088)
(-8.9044e-07 8.26469e-06 0.0486091)
(0.0146587 -1.40457e-06 0.00213139)
(0.039675 -5.2278e-07 -0.0385463)
(0.0676773 -4.57888e-08 -0.0669116)
(0.0983143 -6.47997e-08 -0.0854671)
(0.130889 6.46644e-08 -0.096432)
(0.164821 1.70441e-07 -0.101718)
(0.199362 1.66098e-07 -0.102894)
(0.233735 7.23238e-08 -0.101052)
(0.267282 -7.30311e-08 -0.0969902)
(0.299446 -2.09097e-07 -0.0912984)
(0.329784 -2.8224e-07 -0.084429)
(0.35795 -2.65781e-07 -0.0767422)
(0.383695 -1.824e-07 -0.0685339)
(0.406847 -8.68847e-08 -0.0600523)
(0.42731 -2.8005e-08 -0.0515083)
(0.445052 -2.49247e-08 -0.0430815)
(0.460097 -6.08321e-08 -0.0349229)
(0.472516 -1.00753e-07 -0.0271582)
(0.482421 -1.16584e-07 -0.0198886)
(0.489956 -1.0031e-07 -0.0131932)
(0.49529 -6.31835e-08 -0.00712894)
(0.498609 -2.36891e-08 -0.00173288)
(0.500113 6.42794e-09 0.0029772)
(0.500019 2.84923e-08 0.00700463)
(0.49855 5.31979e-08 0.0103695)
(0.495922 8.98656e-08 0.0130995)
(0.492345 1.37448e-07 0.0152301)
(0.488015 1.84844e-07 0.0168032)
(0.483117 2.19879e-07 0.0178666)