/*--------------------------------*- C++ -*----------------------------------*\
  =========                 |
  \\      /  F ield         | OpenFOAM: The Open Source CFD Toolbox
   \\    /   O peration     | Website:  https://openfoam.org
    \\  /    A nd           | Version:  8
     \\/     M anipulation  |
\*---------------------------------------------------------------------------*/
FoamFile
{
    version     2.0;
    format      ascii;
    class       volScalarField;
    location    "900";
    object      nut;
}
// * * * * * * * * * * * * * * * * * * * * * * * * * * * * * * * * * * * * * //

dimensions      [0 2 -1 0 0 0 0];

internalField   nonuniform List<scalar> 
48000
(
0.000131622
0.000197644
3.92575e-05
4.73766e-05
5.24364e-05
5.65859e-05
6.0216e-05
6.34733e-05
6.64958e-05
6.93111e-05
7.19601e-05
7.44721e-05
7.68678e-05
7.9164e-05
8.13732e-05
8.35056e-05
8.55691e-05
8.75701e-05
8.95137e-05
9.14039e-05
9.32442e-05
9.50373e-05
9.67856e-05
9.8491e-05
0.000100155
0.00010178
0.000103366
0.000104914
0.000106426
0.000107902
0.000109344
0.000110751
0.000112124
0.000113464
0.000114771
0.000116046
0.000117289
0.0001185
0.000119681
0.000120831
0.00012195
0.00012304
0.0001241
0.00012513
0.000126131
0.000127103
0.000128046
0.000128961
0.000129848
0.000130707
0.000131539
0.000132343
0.000133121
0.000133871
0.000134595
0.000135293
0.000135965
0.00013661
0.000137231
0.000137826
0.000138396
0.000138941
0.000139461
0.000139958
0.00014043
0.000140879
0.000141305
0.000141707
0.000142086
0.000142443
0.000142777
0.000143089
0.000143378
0.000143648
0.000143896
0.000144124
0.00014433
0.000144517
0.000144683
0.000144829
0.000144955
0.000145061
0.000145148
0.000145216
0.000145266
0.000145296
0.000145308
0.000145301
0.000145276
0.000145233
0.000145173
0.000145095
0.000144999
0.000144887
0.000144758
0.000144612
0.000144449
0.000144271
0.000144076
0.000143865
0.000143638
0.000143396
0.000143138
0.000142864
0.000142575
0.000142271
0.000141951
0.000141617
0.000141268
0.000140904
0.000140526
0.000140133
0.000139726
0.000139304
0.000138868
0.000138417
0.000137952
0.000137473
0.000136979
0.000136471
0.00013595
0.000135413
0.000134863
0.000134297
0.000133718
0.000133123
0.000132515
0.000131891
0.000131253
0.000130599
0.000129931
0.000129248
0.00012855
0.000127837
0.000127109
0.000126366
0.000125608
0.000124833
0.000124044
0.000123238
0.000122417
0.000121581
0.000120729
0.00011986
0.000118976
0.000118075
0.000117158
0.000116224
0.000115274
0.000114307
0.000113323
0.000112322
0.000111304
0.000110268
0.000109216
0.000108146
0.00010706
0.000105955
0.000104833
0.000103693
0.000102535
0.000101359
0.000100164
9.89504e-05
9.77182e-05
9.64671e-05
9.51968e-05
9.39069e-05
9.25973e-05
9.12676e-05
8.99178e-05
8.85474e-05
8.71563e-05
8.57439e-05
8.43097e-05
8.2853e-05
8.13731e-05
7.98691e-05
7.834e-05
7.67847e-05
7.52018e-05
7.35896e-05
7.19461e-05
7.02686e-05
6.85544e-05
6.68003e-05
6.50052e-05
6.31675e-05
6.12966e-05
5.93504e-05
5.73088e-05
5.51455e-05
5.28292e-05
5.04693e-05
5.00614e-05
0.000322311
0.000255272
0.000192382
0.000156998
0.000109255
0.000131718
0.00019736
3.92547e-05
4.74167e-05
5.24416e-05
5.65859e-05
6.02161e-05
6.34736e-05
6.64961e-05
6.93116e-05
7.19607e-05
7.44727e-05
7.68684e-05
7.91644e-05
8.13736e-05
8.35059e-05
8.55694e-05
8.75704e-05
8.95139e-05
9.14041e-05
9.32444e-05
9.50375e-05
9.67857e-05
9.84912e-05
0.000100155
0.00010178
0.000103366
0.000104914
0.000106426
0.000107902
0.000109344
0.000110751
0.000112124
0.000113464
0.000114771
0.000116046
0.000117289
0.0001185
0.000119681
0.000120831
0.00012195
0.00012304
0.000124099
0.00012513
0.000126131
0.000127103
0.000128046
0.000128961
0.000129848
0.000130707
0.000131539
0.000132343
0.000133121
0.000133871
0.000134595
0.000135293
0.000135965
0.00013661
0.000137231
0.000137825
0.000138395
0.00013894
0.000139461
0.000139958
0.00014043
0.000140879
0.000141305
0.000141707
0.000142086
0.000142443
0.000142777
0.000143088
0.000143378
0.000143647
0.000143896
0.000144123
0.00014433
0.000144516
0.000144682
0.000144828
0.000144955
0.000145061
0.000145148
0.000145216
0.000145265
0.000145296
0.000145307
0.0001453
0.000145276
0.000145233
0.000145172
0.000145094
0.000144999
0.000144887
0.000144757
0.000144612
0.000144449
0.000144271
0.000144076
0.000143865
0.000143638
0.000143396
0.000143137
0.000142864
0.000142575
0.00014227
0.000141951
0.000141617
0.000141267
0.000140904
0.000140526
0.000140133
0.000139726
0.000139304
0.000138867
0.000138417
0.000137952
0.000137472
0.000136979
0.000136471
0.000135949
0.000135413
0.000134863
0.000134298
0.000133718
0.000133124
0.000132515
0.000131891
0.000131252
0.000130599
0.000129931
0.000129248
0.00012855
0.000127837
0.000127109
0.000126366
0.000125607
0.000124833
0.000124043
0.000123238
0.000122417
0.000121581
0.000120728
0.00011986
0.000118976
0.000118075
0.000117158
0.000116224
0.000115274
0.000114307
0.000113322
0.000112321
0.000111303
0.000110268
0.000109216
0.000108146
0.000107059
0.000105955
0.000104833
0.000103693
0.000102535
0.000101358
0.000100164
9.89503e-05
9.77182e-05
9.6467e-05
9.51965e-05
9.39065e-05
9.25968e-05
9.1267e-05
8.99172e-05
8.85469e-05
8.71559e-05
8.57436e-05
8.43094e-05
8.28528e-05
8.13729e-05
7.98689e-05
7.83399e-05
7.67847e-05
7.52019e-05
7.35898e-05
7.19463e-05
7.02689e-05
6.85546e-05
6.68005e-05
6.50054e-05
6.31678e-05
6.12968e-05
5.93507e-05
5.73093e-05
5.51465e-05
5.28316e-05
5.04752e-05
5.00798e-05
0.000322569
0.000255405
0.000192282
0.000156899
0.000109285
0.000158898
0.000269136
0.000306442
0.000421701
0.000496628
0.000552818
0.000599876
0.000641153
0.000678146
0.000711877
0.000743088
0.000772252
0.000799715
0.000825737
0.000850517
0.000874207
0.00089693
0.000918784
0.000939848
0.00096019
0.000979864
0.000998916
0.00101739
0.00103531
0.00105271
0.00106962
0.00108606
0.00110205
0.0011176
0.00113274
0.00114748
0.00116182
0.00117579
0.0011894
0.00120264
0.00121553
0.00122809
0.0012403
0.0012522
0.00126377
0.00127502
0.00128596
0.0012966
0.00130694
0.00131698
0.00132673
0.00133618
0.00134536
0.00135425
0.00136286
0.00137119
0.00137925
0.00138704
0.00139456
0.00140182
0.00140882
0.00141555
0.00142203
0.00142826
0.00143423
0.00143995
0.00144542
0.00145066
0.00145564
0.00146039
0.0014649
0.00146918
0.00147323
0.00147704
0.00148062
0.00148398
0.0014871
0.00148997
0.00149256
0.00149494
0.00149711
0.00149908
0.00150083
0.00150239
0.00150375
0.0015049
0.00150587
0.00150663
0.00150721
0.0015076
0.0015078
0.00150781
0.00150764
0.00150729
0.00150676
0.00150605
0.00150516
0.0015041
0.00150287
0.00150147
0.0014999
0.00149816
0.00149625
0.00149419
0.00149196
0.00148957
0.00148702
0.00148432
0.00148146
0.00147844
0.00147527
0.00147194
0.00146847
0.00146484
0.00146106
0.00145713
0.00145305
0.00144882
0.00144445
0.00143992
0.00143525
0.00143043
0.00142546
0.00142034
0.00141507
0.00140966
0.0014041
0.00139839
0.00139253
0.00138653
0.00138037
0.00137406
0.0013676
0.00136099
0.00135422
0.00134731
0.00134024
0.00133301
0.00132563
0.00131809
0.0013104
0.00130255
0.00129454
0.00128637
0.00127804
0.00126955
0.0012609
0.00125208
0.00124311
0.00123396
0.00122465
0.00121518
0.00120554
0.00119573
0.00118575
0.0011756
0.00116528
0.00115479
0.00114412
0.00113328
0.00112227
0.00111108
0.00109971
0.00108817
0.00107644
0.00106453
0.00105244
0.00104017
0.0010277
0.00101505
0.00100221
0.000989169
0.000975934
0.000962499
0.000948861
0.000935016
0.00092096
0.000906687
0.000892192
0.000877467
0.000862506
0.000847297
0.000831831
0.000816093
0.000800068
0.000783736
0.000767072
0.000750045
0.000732614
0.000714723
0.000696291
0.0006772
0.000657245
0.000636304
0.000614279
0.000590939
0.000565879
0.000538493
0.000508373
0.000478765
0.000488817
0.000418712
0.000334845
0.000248908
0.000127252
0.000158929
0.000269557
0.000306614
0.000421507
0.0004966
0.000552843
0.000599917
0.000641197
0.00067819
0.000711922
0.000743132
0.000772294
0.000799756
0.000825778
0.000850556
0.000874245
0.000896967
0.00091882
0.000939885
0.000960226
0.000979898
0.000998949
0.00101742
0.00103534
0.00105274
0.00106965
0.00108609
0.00110208
0.00111763
0.00113277
0.00114751
0.00116185
0.00117582
0.00118942
0.00120267
0.00121556
0.00122811
0.00124033
0.00125222
0.00126379
0.00127504
0.00128599
0.00129663
0.00130696
0.001317
0.00132675
0.00133621
0.00134538
0.00135427
0.00136288
0.00137121
0.00137927
0.00138706
0.00139458
0.00140184
0.00140884
0.00141557
0.00142205
0.00142827
0.00143425
0.00143997
0.00144544
0.00145067
0.00145566
0.00146041
0.00146492
0.0014692
0.00147324
0.00147705
0.00148064
0.00148399
0.00148712
0.00148999
0.00149258
0.00149496
0.00149713
0.00149909
0.00150085
0.0015024
0.00150376
0.00150492
0.00150588
0.00150665
0.00150723
0.00150761
0.00150781
0.00150783
0.00150766
0.0015073
0.00150677
0.00150606
0.00150518
0.00150411
0.00150288
0.00150148
0.00149991
0.00149817
0.00149627
0.0014942
0.00149197
0.00148958
0.00148704
0.00148433
0.00148147
0.00147845
0.00147528
0.00147195
0.00146848
0.00146485
0.00146107
0.00145714
0.00145306
0.00144883
0.00144446
0.00143993
0.00143526
0.00143043
0.00142546
0.00142035
0.00141508
0.00140967
0.00140411
0.0013984
0.00139254
0.00138654
0.00138038
0.00137407
0.00136761
0.001361
0.00135423
0.00134732
0.00134025
0.00133302
0.00132564
0.0013181
0.00131041
0.00130256
0.00129455
0.00128638
0.00127805
0.00126956
0.00126091
0.00125209
0.00124311
0.00123397
0.00122466
0.00121519
0.00120555
0.00119574
0.00118576
0.00117561
0.00116529
0.0011548
0.00114413
0.00113329
0.00112228
0.00111109
0.00109972
0.00108817
0.00107645
0.00106454
0.00105245
0.00104017
0.00102771
0.00101506
0.00100221
0.000989176
0.000975941
0.000962506
0.000948868
0.000935023
0.000920966
0.000906693
0.000892198
0.000877474
0.000862513
0.000847305
0.000831838
0.000816101
0.000800076
0.000783745
0.000767081
0.000750054
0.000732624
0.000714733
0.000696301
0.00067721
0.000657255
0.000636313
0.000614287
0.000590945
0.000565874
0.000538444
0.000508159
0.000478137
0.000488267
0.000419004
0.000335382
0.000249218
0.000127238
0.000219192
0.000373086
0.000588728
0.000781038
0.000939156
0.00107015
0.00118177
0.00127947
0.00136673
0.00144588
0.00151859
0.00158602
0.00164905
0.00170833
0.00176436
0.00181754
0.0018682
0.00191659
0.00196292
0.00200738
0.00205011
0.00209123
0.00213087
0.00216912
0.00220607
0.00224178
0.00227633
0.00230978
0.00234218
0.00237358
0.00240403
0.00243356
0.00246222
0.00249004
0.00251704
0.00254327
0.00256873
0.00259346
0.00261747
0.00264079
0.00266344
0.00268542
0.00270677
0.00272748
0.00274757
0.00276705
0.00278594
0.00280425
0.00282197
0.00283913
0.00285573
0.00287177
0.00288727
0.00290223
0.00291666
0.00293056
0.00294394
0.0029568
0.00296916
0.00298101
0.00299236
0.00300322
0.0030136
0.00302348
0.00303289
0.00304183
0.0030503
0.0030583
0.00306584
0.00307292
0.00307954
0.00308571
0.00309141
0.00309662
0.00310135
0.00310566
0.00310955
0.00311303
0.0031161
0.00311877
0.00312104
0.00312291
0.0031244
0.0031255
0.00312622
0.00312656
0.00312653
0.00312613
0.00312536
0.00312423
0.00312275
0.00312091
0.00311872
0.00311618
0.00311331
0.00311009
0.00310654
0.00310266
0.00309844
0.00309391
0.00308905
0.00308386
0.00307836
0.00307255
0.00306642
0.00305998
0.00305324
0.00304618
0.00303882
0.00303116
0.00302319
0.00301492
0.00300635
0.00299748
0.00298831
0.00297884
0.00296908
0.00295901
0.00294864
0.00293798
0.00292701
0.00291575
0.00290418
0.00289232
0.00288014
0.00286767
0.00285489
0.0028418
0.00282841
0.00281471
0.0028007
0.00278638
0.00277174
0.00275679
0.00274153
0.00272594
0.00271004
0.00269382
0.00267728
0.00266041
0.00264322
0.0026257
0.00260785
0.00258967
0.00257116
0.00255231
0.00253313
0.00251361
0.00249375
0.00247354
0.00245299
0.00243209
0.00241084
0.00238924
0.00236728
0.00234496
0.00232228
0.00229923
0.00227581
0.00225202
0.00222784
0.00220328
0.00217833
0.00215298
0.00212722
0.00210105
0.00207445
0.00204742
0.00201994
0.001992
0.00196359
0.00193468
0.00190527
0.00187532
0.00184482
0.00181372
0.001782
0.00174961
0.00171651
0.00168264
0.00164793
0.00161229
0.00157561
0.00153777
0.00149859
0.00145784
0.00141522
0.00137034
0.00132274
0.00127185
0.00121677
0.00115615
0.00108794
0.00100927
0.000917209
0.000815529
0.00068152
0.000523535
0.000347245
0.000169937
0.000219088
0.000374295
0.000588896
0.000781165
0.000939258
0.00107024
0.00118187
0.00127957
0.00136683
0.00144598
0.00151868
0.00158611
0.00164914
0.00170841
0.00176444
0.00181762
0.00186828
0.00191666
0.00196299
0.00200745
0.00205017
0.0020913
0.00213094
0.00216918
0.00220612
0.00224183
0.00227638
0.00230983
0.00234223
0.00237363
0.00240407
0.00243361
0.00246226
0.00249008
0.00251708
0.0025433
0.00256876
0.00259349
0.0026175
0.00264082
0.00266347
0.00268545
0.00270679
0.0027275
0.00274759
0.00276707
0.00278596
0.00280426
0.00282199
0.00283915
0.00285574
0.00287179
0.00288728
0.00290224
0.00291667
0.00293057
0.00294395
0.00295681
0.00296917
0.00298102
0.00299237
0.00300323
0.0030136
0.00302349
0.0030329
0.00304183
0.0030503
0.0030583
0.00306584
0.00307292
0.00307955
0.00308571
0.00309141
0.00309662
0.00310135
0.00310566
0.00310955
0.00311303
0.0031161
0.00311876
0.00312103
0.00312291
0.00312439
0.00312549
0.00312621
0.00312655
0.00312652
0.00312612
0.00312535
0.00312423
0.00312274
0.0031209
0.00311871
0.00311618
0.0031133
0.00311008
0.00310653
0.00310265
0.00309844
0.0030939
0.00308904
0.00308386
0.00307836
0.00307254
0.00306641
0.00305997
0.00305323
0.00304617
0.00303881
0.00303115
0.00302318
0.00301491
0.00300634
0.00299747
0.0029883
0.00297883
0.00296907
0.002959
0.00294863
0.00293797
0.002927
0.00291574
0.00290417
0.0028923
0.00288013
0.00286766
0.00285488
0.00284179
0.0028284
0.0028147
0.00280069
0.00278636
0.00277173
0.00275678
0.00274151
0.00272593
0.00271003
0.00269381
0.00267726
0.0026604
0.0026432
0.00262568
0.00260784
0.00258966
0.00257115
0.0025523
0.00253312
0.0025136
0.00249373
0.00247353
0.00245298
0.00243208
0.00241083
0.00238922
0.00236727
0.00234495
0.00232227
0.00229922
0.0022758
0.00225201
0.00222783
0.00220327
0.00217832
0.00215296
0.00212721
0.00210103
0.00207444
0.0020474
0.00201992
0.00199199
0.00196357
0.00193467
0.00190526
0.00187531
0.0018448
0.00181371
0.00178199
0.0017496
0.0017165
0.00168263
0.00164792
0.00161228
0.0015756
0.00153776
0.00149858
0.00145783
0.00141521
0.00137033
0.00132273
0.00127184
0.00121676
0.00115614
0.00108793
0.00100925
0.00091725
0.000816181
0.000682243
0.000523827
0.000347241
0.000169907
4.37462e-05
0.000318064
0.000725571
0.00103687
0.00128152
0.00148537
0.00166065
0.00181477
0.00195267
0.00207778
0.00219255
0.00229878
0.00239784
0.00249075
0.00257833
0.00266122
0.00273994
0.00281491
0.00288648
0.00295495
0.00302056
0.00308353
0.00314405
0.00320228
0.00325836
0.00331242
0.00336458
0.00341494
0.0034636
0.00351064
0.00355615
0.00360018
0.00364281
0.0036841
0.0037241
0.00376287
0.00380044
0.00383687
0.00387219
0.00390643
0.00393964
0.00397183
0.00400304
0.00403329
0.00406261
0.00409101
0.00411851
0.00414514
0.00417091
0.00419583
0.00421992
0.00424319
0.00426566
0.00428733
0.00430822
0.00432834
0.00434769
0.0043663
0.00438415
0.00440128
0.00441767
0.00443335
0.00444831
0.00446257
0.00447614
0.00448902
0.00450121
0.00451273
0.00452358
0.00453377
0.00454329
0.00455216
0.00456037
0.00456791
0.00457479
0.00458101
0.00458662
0.00459164
0.00459606
0.0045999
0.00460317
0.00460586
0.00460798
0.00460955
0.00461056
0.00461103
0.00461095
0.00461034
0.0046092
0.00460754
0.00460537
0.00460268
0.00459948
0.00459579
0.0045916
0.00458692
0.00458175
0.00457611
0.00456999
0.00456339
0.00455634
0.00454881
0.00454083
0.0045324
0.00452351
0.00451417
0.00450439
0.00449416
0.00448349
0.00447238
0.00446084
0.00444885
0.00443644
0.00442358
0.0044103
0.00439658
0.00438243
0.00436785
0.00435284
0.00433739
0.00432151
0.00430519
0.00428844
0.00427125
0.00425363
0.00423556
0.00421705
0.00419811
0.00417871
0.00415887
0.00413859
0.00411785
0.00409666
0.00407502
0.00405292
0.00403036
0.00400734
0.00398386
0.00395991
0.00393549
0.0039106
0.00388524
0.0038594
0.00383309
0.00380629
0.003779
0.00375123
0.00372296
0.00369419
0.00366493
0.00363516
0.00360488
0.00357409
0.00354278
0.00351094
0.00347857
0.00344567
0.00341222
0.00337821
0.00334364
0.0033085
0.00327278
0.00323645
0.00319952
0.00316196
0.00312376
0.0030849
0.00304536
0.0030051
0.00296412
0.00292236
0.00287981
0.00283641
0.00279213
0.00274692
0.0027007
0.00265341
0.00260497
0.00255529
0.00250424
0.00245169
0.00239748
0.0023414
0.00228321
0.00222258
0.00215911
0.0020923
0.00202147
0.0019458
0.00186418
0.00177508
0.00167641
0.00156528
0.00143772
0.00128877
0.00111356
0.000902925
0.000654928
0.000388133
0.000202404
4.37214e-05
0.000318912
0.000724678
0.00103663
0.00128159
0.0014855
0.0016608
0.00181492
0.00195282
0.00207792
0.00219269
0.00229892
0.00239797
0.00249088
0.00257845
0.00266134
0.00274005
0.00281502
0.00288659
0.00295505
0.00302066
0.00308363
0.00314414
0.00320236
0.00325844
0.0033125
0.00336466
0.00341502
0.00346367
0.00351071
0.00355621
0.00360024
0.00364287
0.00368415
0.00372415
0.00376292
0.00380049
0.00383691
0.00387223
0.00390647
0.00393967
0.00397186
0.00400307
0.00403332
0.00406263
0.00409103
0.00411853
0.00414516
0.00417092
0.00419584
0.00421993
0.0042432
0.00426567
0.00428734
0.00430823
0.00432834
0.0043477
0.0043663
0.00438416
0.00440128
0.00441767
0.00443334
0.00444831
0.00446257
0.00447613
0.00448901
0.00450121
0.00451272
0.00452357
0.00453376
0.00454328
0.00455215
0.00456036
0.0045679
0.00457477
0.00458099
0.00458661
0.00459162
0.00459605
0.00459989
0.00460315
0.00460584
0.00460796
0.00460953
0.00461054
0.00461101
0.00461093
0.00461032
0.00460918
0.00460752
0.00460534
0.00460265
0.00459946
0.00459576
0.00459157
0.00458689
0.00458173
0.00457608
0.00456996
0.00456337
0.00455631
0.00454879
0.00454081
0.00453237
0.00452348
0.00451414
0.00450436
0.00449413
0.00448346
0.00447235
0.00446081
0.00444883
0.00443641
0.00442356
0.00441027
0.00439655
0.0043824
0.00436782
0.00435281
0.00433736
0.00432148
0.00430516
0.00428841
0.00427122
0.0042536
0.00423553
0.00421702
0.00419807
0.00417868
0.00415884
0.00413856
0.00411782
0.00409663
0.00407499
0.00405289
0.00403033
0.00400731
0.00398383
0.00395988
0.00393546
0.00391057
0.00388521
0.00385937
0.00383305
0.00380625
0.00377897
0.00375119
0.00372292
0.00369416
0.0036649
0.00363513
0.00360485
0.00357406
0.00354274
0.00351091
0.00347854
0.00344563
0.00341218
0.00337818
0.00334361
0.00330847
0.00327274
0.00323642
0.00319949
0.00316193
0.00312373
0.00308487
0.00304532
0.00300507
0.00296408
0.00292233
0.00287978
0.00283638
0.0027921
0.00274689
0.00270067
0.00265338
0.00260494
0.00255526
0.00250421
0.00245167
0.00239746
0.00234138
0.00228318
0.00222255
0.00215909
0.00209227
0.00202145
0.00194578
0.00186415
0.00177506
0.00167639
0.00156527
0.00143774
0.00128884
0.00111382
0.000903165
0.000655163
0.000388988
0.000202291
4.37763e-05
0.000348883
0.000836989
0.00123386
0.00155131
0.00181871
0.00205078
0.00225616
0.00244064
0.0026084
0.00276246
0.00290512
0.00303812
0.00316282
0.00328028
0.00339138
0.00349678
0.00359708
0.00369273
0.00378413
0.00387162
0.00395549
0.004036
0.00411336
0.00418777
0.0042594
0.00432843
0.00439498
0.00445919
0.00452118
0.00458105
0.00463891
0.00469485
0.00474895
0.00480129
0.00485195
0.00490098
0.00494846
0.00499443
0.00503895
0.00508207
0.00512382
0.00516426
0.00520341
0.00524131
0.005278
0.00531349
0.00534783
0.00538103
0.00541311
0.0054441
0.00547401
0.00550288
0.0055307
0.0055575
0.00558329
0.0056081
0.00563192
0.00565478
0.00567669
0.00569766
0.00571769
0.00573681
0.00575503
0.00577234
0.00578877
0.00580432
0.00581901
0.00583283
0.00584581
0.00585794
0.00586923
0.00587968
0.0058893
0.00589809
0.00590606
0.00591323
0.00591963
0.00592527
0.00593016
0.00593432
0.00593774
0.00594044
0.00594243
0.00594371
0.00594429
0.00594418
0.0059434
0.00594193
0.0059398
0.00593702
0.00593358
0.0059295
0.00592478
0.00591943
0.00591346
0.00590687
0.00589968
0.00589188
0.00588347
0.00587448
0.0058649
0.00585474
0.00584399
0.00583268
0.00582079
0.00580834
0.00579532
0.00578174
0.00576761
0.00575292
0.00573768
0.00572188
0.00570553
0.00568864
0.0056712
0.0056532
0.00563466
0.00561557
0.00559593
0.00557574
0.005555
0.00553371
0.00551186
0.00548946
0.0054665
0.00544298
0.0054189
0.00539426
0.00536905
0.00534328
0.00531693
0.00529001
0.00526252
0.00523444
0.00520578
0.00517654
0.00514671
0.00511629
0.00508527
0.00505365
0.00502143
0.00498861
0.00495517
0.00492112
0.00488645
0.00485115
0.00481522
0.00477866
0.00474145
0.0047036
0.00466509
0.00462591
0.00458607
0.00454555
0.00450433
0.00446241
0.00441978
0.00437643
0.00433233
0.00428748
0.00424185
0.00419542
0.00414818
0.0041001
0.00405115
0.00400129
0.00395051
0.00389875
0.00384598
0.00379214
0.00373718
0.00368104
0.00362364
0.00356491
0.00350474
0.00344304
0.00337966
0.00331447
0.00324728
0.0031779
0.00310606
0.00303146
0.00295374
0.00287243
0.00278694
0.00269656
0.00260034
0.00249711
0.00238531
0.0022629
0.00212721
0.00197467
0.00180059
0.00159872
0.00136063
0.00107316
0.00071801
0.000300967
3.55116e-05
4.37913e-05
0.000348801
0.000834989
0.00123309
0.00155124
0.00181884
0.00205095
0.00225633
0.00244082
0.00260857
0.00276263
0.00290529
0.00303828
0.00316297
0.00328044
0.00339153
0.00349693
0.00359722
0.00369286
0.00378426
0.00387175
0.00395561
0.00403611
0.00411347
0.00418787
0.00425951
0.00432853
0.00439507
0.00445928
0.00452126
0.00458113
0.00463899
0.00469492
0.00474902
0.00480136
0.00485201
0.00490104
0.00494851
0.00499448
0.005039
0.00508211
0.00512386
0.0051643
0.00520345
0.00524135
0.00527803
0.00531352
0.00534785
0.00538105
0.00541313
0.00544412
0.00547403
0.00550289
0.00553071
0.00555751
0.0055833
0.0056081
0.00563193
0.00565479
0.00567669
0.00569766
0.00571769
0.00573681
0.00575502
0.00577234
0.00578876
0.00580432
0.005819
0.00583282
0.0058458
0.00585793
0.00586921
0.00587967
0.00588929
0.00589808
0.00590605
0.00591321
0.00591961
0.00592525
0.00593014
0.0059343
0.00593772
0.00594042
0.00594241
0.00594369
0.00594427
0.00594416
0.00594337
0.00594191
0.00593978
0.00593699
0.00593355
0.00592947
0.00592475
0.0059194
0.00591343
0.00590684
0.00589965
0.00589184
0.00588344
0.00587445
0.00586487
0.0058547
0.00584396
0.00583264
0.00582076
0.0058083
0.00579529
0.00578171
0.00576757
0.00575288
0.00573764
0.00572184
0.0057055
0.0056886
0.00567116
0.00565317
0.00563462
0.00561553
0.00559589
0.0055757
0.00555496
0.00553367
0.00551182
0.00548942
0.00546646
0.00544294
0.00541886
0.00539422
0.00536901
0.00534324
0.00531689
0.00528997
0.00526248
0.0052344
0.00520574
0.0051765
0.00514667
0.00511625
0.00508523
0.00505361
0.00502139
0.00498857
0.00495513
0.00492108
0.0048864
0.00485111
0.00481518
0.00477861
0.00474141
0.00470355
0.00466504
0.00462587
0.00458603
0.0045455
0.00450429
0.00446237
0.00441974
0.00437638
0.00433229
0.00428743
0.0042418
0.00419538
0.00414814
0.00410006
0.0040511
0.00400125
0.00395047
0.00389871
0.00384594
0.0037921
0.00373714
0.003681
0.0036236
0.00356487
0.0035047
0.003443
0.00337962
0.00331443
0.00324725
0.00317786
0.00310602
0.00303143
0.00295371
0.0028724
0.00278691
0.00269653
0.00260031
0.00249708
0.00238528
0.00226288
0.00212719
0.00197467
0.00180062
0.00159883
0.00136097
0.00107394
0.000719472
0.000301103
3.5533e-05
5.04062e-05
0.000473614
0.00097011
0.00140326
0.0017729
0.00209259
0.00237349
0.00262384
0.00284976
0.00305578
0.00324537
0.00342116
0.0035852
0.0037391
0.00388413
0.00402133
0.00415153
0.00427543
0.00439359
0.00450649
0.00461455
0.00471812
0.00481751
0.00491298
0.00500477
0.00509311
0.00517818
0.00526016
0.0053392
0.00541545
0.00548905
0.00556012
0.00562877
0.00569511
0.00575924
0.00582125
0.00588122
0.00593923
0.00599535
0.00604965
0.00610219
0.00615302
0.0062022
0.00624979
0.00629581
0.00634032
0.00638335
0.00642494
0.00646512
0.00650393
0.00654138
0.00657752
0.00661235
0.00664591
0.00667822
0.0067093
0.00673916
0.00676783
0.00679533
0.00682166
0.00684685
0.00687092
0.00689387
0.00691572
0.00693648
0.00695618
0.00697481
0.0069924
0.00700895
0.00702448
0.00703899
0.0070525
0.00706501
0.00707653
0.00708707
0.00709663
0.00710523
0.0071129
0.00711966
0.00712552
0.0071305
0.0071346
0.00713783
0.00714021
0.00714175
0.00714245
0.00714233
0.0071414
0.00713966
0.00713712
0.0071338
0.00712971
0.00712485
0.00711923
0.00711286
0.00710575
0.00709791
0.00708934
0.00708005
0.00707005
0.00705935
0.00704794
0.00703585
0.00702307
0.0070096
0.00699546
0.00698065
0.00696517
0.00694902
0.00693222
0.00691475
0.00689663
0.00687785
0.00685842
0.00683834
0.00681761
0.00679623
0.0067742
0.00675151
0.00672818
0.0067042
0.00667956
0.00665427
0.00662832
0.00660171
0.00657445
0.00654652
0.00651793
0.00648867
0.00645874
0.00642814
0.00639686
0.00636491
0.00633226
0.00629894
0.00626492
0.00623021
0.0061948
0.00615868
0.00612186
0.00608433
0.00604608
0.00600711
0.00596741
0.00592697
0.00588579
0.00584387
0.00580119
0.00575775
0.00571354
0.00566855
0.00562277
0.00557619
0.0055288
0.00548058
0.00543152
0.00538161
0.00533083
0.00527915
0.00522657
0.00517305
0.00511857
0.00506311
0.00500663
0.00494909
0.00489047
0.00483071
0.00476976
0.00470759
0.00464411
0.00457927
0.00451299
0.00444518
0.00437575
0.00430457
0.00423153
0.00415647
0.00407922
0.00399957
0.00391731
0.00383213
0.00374372
0.00365166
0.00355547
0.00345454
0.00334814
0.00323533
0.00311494
0.00298549
0.00284507
0.00269125
0.00252088
0.00232991
0.0021131
0.00186361
0.00157242
0.00122779
0.000818355
0.00035483
2.99927e-05
5.04561e-05
0.000472972
0.000969341
0.00140301
0.00177296
0.00209275
0.00237368
0.00262404
0.00284996
0.00305599
0.00324557
0.00342136
0.00358539
0.00373929
0.00388432
0.00402151
0.00415171
0.0042756
0.00439375
0.00450665
0.0046147
0.00471827
0.00481765
0.00491311
0.00500491
0.00509324
0.0051783
0.00526027
0.00533931
0.00541556
0.00548915
0.00556021
0.00562886
0.0056952
0.00575932
0.00582133
0.00588129
0.0059393
0.00599542
0.00604971
0.00610224
0.00615308
0.00620226
0.00624983
0.00629586
0.00634036
0.00638339
0.00642498
0.00646516
0.00650396
0.00654141
0.00657754
0.00661237
0.00664593
0.00667824
0.00670931
0.00673917
0.00676784
0.00679533
0.00682167
0.00684686
0.00687092
0.00689387
0.00691572
0.00693648
0.00695618
0.00697481
0.0069924
0.00700895
0.00702447
0.00703898
0.00705249
0.007065
0.00707652
0.00708705
0.00709661
0.00710521
0.00711288
0.00711964
0.0071255
0.00713048
0.00713458
0.00713781
0.00714019
0.00714173
0.00714243
0.00714231
0.00714137
0.00713963
0.0071371
0.00713378
0.00712968
0.00712482
0.0071192
0.00711283
0.00710572
0.00709788
0.00708931
0.00708002
0.00707002
0.00705931
0.00704791
0.00703581
0.00702303
0.00700957
0.00699543
0.00698062
0.00696513
0.00694899
0.00693218
0.00691471
0.00689659
0.00687782
0.00685839
0.0068383
0.00681757
0.00679619
0.00677416
0.00675147
0.00672814
0.00670416
0.00667952
0.00665423
0.00662828
0.00660167
0.00657441
0.00654648
0.00651789
0.00648863
0.0064587
0.0064281
0.00639682
0.00636486
0.00633222
0.0062989
0.00626488
0.00623017
0.00619475
0.00615864
0.00612182
0.00608429
0.00604604
0.00600706
0.00596736
0.00592693
0.00588575
0.00584383
0.00580115
0.00575771
0.0057135
0.00566851
0.00562273
0.00557615
0.00552875
0.00548054
0.00543148
0.00538157
0.00533078
0.00527911
0.00522653
0.00517301
0.00511853
0.00506307
0.00500658
0.00494905
0.00489042
0.00483066
0.00476972
0.00470754
0.00464407
0.00457923
0.00451295
0.00444514
0.00437571
0.00430453
0.00423149
0.00415643
0.00407918
0.00399954
0.00391727
0.00383209
0.00374368
0.00365162
0.00355543
0.00345451
0.00334811
0.0032353
0.00311491
0.00298546
0.00284505
0.00269123
0.00252086
0.0023299
0.00211312
0.00186369
0.0015726
0.00122804
0.000818472
0.000354499
3.00221e-05
5.19334e-05
0.000521908
0.0010629
0.00154156
0.0019578
0.00232239
0.00264542
0.00293496
0.00319728
0.0034372
0.00365845
0.00386394
0.00405594
0.00423627
0.00440636
0.00456739
0.00472031
0.00486591
0.00500484
0.00513766
0.00526484
0.00538677
0.00550381
0.00561626
0.00572441
0.00582848
0.00592871
0.00602529
0.0061184
0.0062082
0.00629486
0.00637851
0.00645929
0.00653732
0.0066127
0.00668556
0.00675598
0.00682406
0.00688988
0.00695352
0.00701506
0.00707457
0.0071321
0.00718772
0.00724149
0.00729345
0.00734365
0.00739214
0.00743895
0.00748413
0.00752771
0.00756973
0.00761021
0.00764919
0.0076867
0.00772275
0.00775738
0.00779061
0.00782246
0.00785295
0.0078821
0.00790994
0.00793647
0.00796173
0.00798572
0.00800846
0.00802997
0.00805027
0.00806936
0.00808727
0.008104
0.00811957
0.008134
0.00814728
0.00815944
0.00817049
0.00818043
0.00818929
0.0081971
0.00820387
0.00820962
0.00821437
0.00821812
0.00822088
0.00822268
0.00822351
0.0082234
0.00822236
0.00822039
0.00821752
0.00821374
0.00820908
0.00820354
0.00819713
0.00818986
0.00818175
0.00817279
0.00816301
0.00815241
0.00814099
0.00812878
0.00811576
0.00810195
0.00808736
0.00807199
0.00805586
0.00803895
0.00802128
0.00800286
0.00798368
0.00796375
0.00794308
0.00792166
0.00789949
0.00787659
0.00785294
0.00782856
0.00780343
0.00777757
0.00775096
0.00772362
0.00769553
0.0076667
0.00763712
0.0076068
0.00757573
0.0075439
0.00751132
0.00747798
0.00744387
0.00740901
0.00737337
0.00733696
0.00729977
0.0072618
0.00722305
0.0071835
0.00714316
0.00710201
0.00706006
0.0070173
0.00697371
0.0069293
0.00688405
0.00683797
0.00679103
0.00674323
0.00669457
0.00664503
0.0065946
0.00654327
0.00649103
0.00643785
0.00638374
0.00632866
0.0062726
0.00621555
0.00615747
0.00609834
0.00603815
0.00597684
0.00591441
0.0058508
0.00578598
0.00571989
0.0056525
0.00558375
0.00551357
0.0054419
0.00536865
0.00529375
0.00521709
0.00513856
0.00505803
0.00497537
0.00489042
0.00480297
0.00471283
0.00461973
0.00452339
0.00442346
0.00431952
0.00421109
0.00409756
0.00397822
0.00385216
0.00371828
0.0035752
0.0034212
0.0032541
0.00307114
0.00286884
0.0026428
0.00238746
0.00209579
0.00175889
0.00136586
0.000907372
0.0004001
3.11916e-05
5.19458e-05
0.000521822
0.00106281
0.0015416
0.00195793
0.00232258
0.00264563
0.00293518
0.0031975
0.00343742
0.00365867
0.00386416
0.00405615
0.00423647
0.00440656
0.00456759
0.0047205
0.0048661
0.00500503
0.00513784
0.00526501
0.00538694
0.00550397
0.00561642
0.00572456
0.00582863
0.00592885
0.00602542
0.00611852
0.00620833
0.00629498
0.00637863
0.0064594
0.00653742
0.0066128
0.00668565
0.00675607
0.00682414