/*--------------------------------*- C++ -*----------------------------------*\
  =========                 |
  \\      /  F ield         | OpenFOAM: The Open Source CFD Toolbox
   \\    /   O peration     | Website:  https://openfoam.org
    \\  /    A nd           | Version:  8
     \\/     M anipulation  |
\*---------------------------------------------------------------------------*/
FoamFile
{
    version     2.0;
    format      ascii;
    class       volScalarField;
    location    "1300";
    object      epsilon;
}
// * * * * * * * * * * * * * * * * * * * * * * * * * * * * * * * * * * * * * //

dimensions      [0 2 -3 0 0 0 0];

internalField   nonuniform List<scalar> 
48000
(
0.563817
1.16611
1.4904
2.2731
3.04347
3.80361
4.57241
5.34055
6.11152
6.88783
7.67044
8.46013
9.2574
10.0625
10.8755
11.6961
12.524
13.3586
14.1993
15.0453
15.8956
16.7493
17.6053
18.4626
19.32
20.1764
21.0307
21.8817
22.7282
23.5692
24.4035
25.2301
26.0479
26.8561
27.6536
28.4395
29.2131
29.9736
30.7201
31.4521
32.1689
32.87
33.5548
34.2228
34.8737
35.5069
36.1223
36.7195
37.2982
37.8583
38.3995
38.9216
39.4247
39.9084
40.3728
40.8177
41.243
41.6485
42.0362
42.406
42.7571
43.0892
43.4024
43.6968
43.9724
44.2294
44.4679
44.6882
44.8904
45.0747
45.2412
45.3902
45.5219
45.6365
45.7341
45.8151
45.8797
45.928
45.9603
45.9769
45.978
45.9638
45.9346
45.8907
45.8322
45.7594
45.6726
45.5721
45.458
45.3306
45.1903
45.0371
44.8715
44.6936
44.5037
44.302
44.0888
43.8644
43.6289
43.3826
43.1258
42.8587
42.5816
42.2946
41.9979
41.6919
41.3767
41.0526
40.7197
40.3783
40.0286
39.6708
39.305
38.9316
38.5506
38.1623
37.7668
37.3644
36.9552
36.5394
36.1172
35.6888
35.2542
34.8138
34.3676
33.9159
33.4588
32.9964
32.529
32.0568
31.5798
31.0983
30.6125
30.1225
29.6285
29.1307
28.6293
28.1245
27.6165
27.1055
26.5916
26.0753
25.5565
25.0356
24.5128
23.9884
23.4625
22.9354
22.4075
21.8788
21.3498
20.8206
20.2917
19.7631
19.2353
18.7085
18.183
17.6591
17.1371
16.6174
16.1002
15.5858
15.0746
14.5669
14.0629
13.563
13.0676
12.5768
12.091
11.6105
11.1355
10.6664
10.2034
9.74674
9.29666
8.85338
8.41711
7.988
7.56623
7.15192
6.74517
6.34604
5.95461
5.57094
5.19538
4.82816
4.47253
4.12437
3.78121
3.4429
3.10831
2.77629
2.44547
2.11539
1.78917
1.46188
1.14836
1.06528
0.193223
0.20854
0.563438
1.1657
1.49095
2.27338
3.04371
3.80385
4.57267
5.3408
6.11178
6.88809
7.67071
8.46039
9.25766
10.0628
10.8757
11.6964
12.5242
13.3589
14.1996
15.0455
15.8958
16.7495
17.6055
18.4628
19.3202
20.1766
21.0309
21.8818
22.7284
23.5693
24.4036
25.2302
26.048
26.8562
27.6537
28.4396
29.2132
29.9736
30.7202
31.4522
32.169
32.87
33.5548
34.2228
34.8737
35.5069
36.1223
36.7195
37.2982
37.8583
38.3995
38.9216
39.4246
39.9084
40.3727
40.8177
41.243
41.6484
42.0361
42.4059
42.757
43.0892
43.4024
43.6967
43.9723
44.2293
44.4679
44.6882
44.8903
45.0746
45.2411
45.3901
45.5218
45.6364
45.734
45.815
45.8796
45.9279
45.9602
45.9768
45.9779
45.9637
45.9345
45.8906
45.8321
45.7593
45.6725
45.572
45.4579
45.3305
45.1901
45.037
44.8714
44.6935
44.5036
44.3019
44.0887
43.8643
43.6288
43.3825
43.1257
42.8586
42.5815
42.2945
41.9978
41.6918
41.3766
41.0525
40.7196
40.3782
40.0285
39.6707
39.3049
38.9315
38.5505
38.1622
37.7667
37.3643
36.9551
36.5393
36.1171
35.6887
35.2541
34.8137
34.3675
33.9158
33.4587
32.9963
32.5289
32.0567
31.5797
31.0982
30.6124
30.1224
29.6284
29.1306
28.6292
28.1244
27.6164
27.1054
26.5916
26.0752
25.5564
25.0355
24.5128
23.9883
23.4624
22.9354
22.4074
21.8788
21.3497
20.8206
20.2916
19.763
19.2352
18.7084
18.1829
17.659
17.1371
16.6173
16.1001
15.5858
15.0746
14.5668
14.0629
13.563
13.0675
12.5767
12.091
11.6104
11.1355
10.6664
10.2034
9.74672
9.29664
8.85337
8.41709
7.98799
7.56622
7.15191
6.74516
6.34604
5.9546
5.57094
5.19538
4.82816
4.47253
4.12437
3.78121
3.4429
3.10832
2.77629
2.44547
2.11538
1.78913
1.46175
1.14806
1.06507
0.193294
0.208607
1.63244
0.950853
1.05435
1.3128
1.60354
1.90424
2.21177
2.52426
2.84159
3.16399
3.49171
3.82489
4.16363
4.50795
4.85777
5.21293
5.57322
5.93834
6.30794
6.68161
7.05892
7.43937
7.82245
8.20761
8.59428
8.9819
9.36986
9.75759
10.1445
10.5299
10.9134
11.2943
11.6721
12.0463
12.4163
12.7816
13.1418
13.4964
13.8451
14.1874
14.523
14.8515
15.1727
15.4862
15.7918
16.0892
16.3783
16.6589
16.9308
17.1939
17.4481
17.6933
17.9293
18.1562
18.3738
18.5822
18.7813
18.9713
19.1527
19.3254
19.4891
19.6437
19.7893
19.9259
20.0536
20.1724
20.2824
20.3837
20.4763
20.5605
20.6362
20.7036
20.7629
20.814
20.8572
20.8925
20.92
20.94
20.9525
20.9575
20.9554
20.9461
20.9298
20.9067
20.8768
20.8403
20.7973
20.7479
20.6923
20.6306
20.5629
20.4893
20.41
20.3251
20.2347
20.1389
20.0379
19.9317
19.8205
19.7045
19.5836
19.4581
19.328
19.1935
19.0547
18.9116
18.7644
18.6132
18.4581
18.2992
18.1366
17.9703
17.8005
17.6273
17.4508
17.2711
17.0881
16.9022
16.7132
16.5213
16.3267
16.1293
15.9292
15.7266
15.5215
15.314
15.1042
14.8921
14.6778
14.4615
14.2431
14.0229
13.8008
13.5769
13.3513
13.1242
12.8956
12.6655
12.4342
12.2016
11.9678
11.7331
11.4974
11.2608
11.0236
10.7857
10.5474
10.3086
10.0696
9.83039
9.59117
9.35203
9.11311
8.87454
8.63645
8.39897
8.16223
7.92637
7.69154
7.45787
7.2255
6.99458
6.76524
6.53763
6.31188
6.08815
5.86655
5.64724
5.43035
5.21599
5.00431
4.79542
4.58943
4.38646
4.1866
3.98995
3.7966
3.60661
3.42005
3.23698
3.05743
2.88142
2.709
2.54017
2.375
2.21356
2.05604
1.90185
1.7503
1.60185
1.45602
1.31262
1.17167
1.03372
0.900166
0.771806
0.654144
0.558054
0.418528
0.319027
1.63215
0.950753
1.05489
1.31291
1.60348
1.90414
2.21165
2.52413
2.84145
3.16385
3.49155
3.82473
4.16346
4.50777
4.85758
5.21274
5.57302
5.93813
6.30772
6.68139
7.0587
7.43914
7.82222
8.20737
8.59404
8.98165
9.36961
9.75733
10.1442
10.5297
10.9131
11.2941
11.6718
12.046
12.416
12.7813
13.1415
13.4962
13.8448
14.1871
14.5227
14.8512
15.1724
15.4859
15.7914
16.0889
16.378
16.6586
16.9305
17.1936
17.4478
17.6929
17.929
18.1558
18.3735
18.5819
18.781
18.971
19.1524
19.3251
19.4888
19.6434
19.789
19.9256
20.0533
20.1721
20.2821
20.3833
20.476
20.5602
20.6359
20.7033
20.7626
20.8137
20.8569
20.8922
20.9197
20.9397
20.9522
20.9573
20.9551
20.9458
20.9295
20.9064
20.8765
20.84
20.797
20.7476
20.692
20.6303
20.5626
20.4891
20.4098
20.3248
20.2344
20.1387
20.0376
19.9315
19.8203
19.7042
19.5834
19.4579
19.3278
19.1933
19.0544
18.9114
18.7642
18.613
18.4579
18.299
18.1363
17.9701
17.8003
17.6271
17.4506
17.2708
17.0879
16.9019
16.713
16.5211
16.3265
16.1291
15.929
15.7264
15.5213
15.3138
15.104
14.8919
14.6776
14.4613
14.243
14.0227
13.8006
13.5767
13.3512
13.124
12.8954
12.6654
12.434
12.2014
11.9677
11.7329
11.4972
11.2607
11.0235
10.7856
10.5472
10.3085
10.0694
9.83026
9.59104
9.35191
9.11299
8.87442
8.63633
8.39885
8.16212
7.92626
7.69144
7.45777
7.2254
6.99448
6.76514
6.53753
6.31179
6.08806
5.86647
5.64716
5.43026
5.21591
5.00423
4.79534
4.58936
4.38639
4.18653
3.98989
3.79654
3.60655
3.42
3.23692
3.05737
2.88137
2.70895
2.54013
2.37496
2.21352
2.056
1.90182
1.75027
1.60182
1.456
1.3126
1.17165
1.03369
0.900121
0.771747
0.654191
0.558181
0.41809
0.319165
1.80979
1.12126
1.15944
1.30638
1.49045
1.69241
1.90543
2.12646
2.3541
2.5877
2.82694
3.07166
3.32172
3.57701
3.83739
4.10269
4.37269
4.64715
4.92579
5.20828
5.49427
5.78338
6.07519
6.36928
6.6652
6.96248
7.26067
7.55929
7.85784
8.15587
8.45289
8.74843
9.04205
9.33328
9.62171
9.90692
10.1885
10.4661
10.7393
11.0078
11.2713
11.5295
11.7821
12.0289
12.2696
12.504
12.7319
12.9533
13.1678
13.3754
13.576
13.7695
13.9558
14.1349
14.3066
14.4711
14.6282
14.778
14.9207
15.0563
15.1847
15.3059
15.4199
15.5268
15.6266
15.7192
15.8049
15.8836
15.9555
16.0206
16.079
16.1307
16.176
16.2148
16.2473
16.2735
16.2936
16.3077
16.3158
16.3181
16.3147
16.3056
16.291
16.271
16.2457
16.2151
16.1795
16.1388
16.0932
16.0429
15.9878
15.9281
15.864
15.7954
15.7226
15.6456
15.5644
15.4793
15.3903
15.2974
15.2009
15.1007
14.997
14.8898
14.7793
14.6655
14.5486
14.4285
14.3055
14.1795
14.0506
13.919
13.7847
13.6478
13.5083
13.3663
13.222
13.0753
12.9263
12.7752
12.6219
12.4666
12.3092
12.15
11.9889
11.8259
11.6613
11.495
11.327
11.1575
10.9866
10.8142
10.6404
10.4654
10.2892
10.1118
9.93339
9.75394
9.57355
9.39231
9.21029
9.02756
8.84421
8.66032
8.47597
8.29125
8.10624
7.92104
7.73574
7.55043
7.36521
7.18017
6.99542
6.81106
6.6272
6.44392
6.26136
6.0796
5.89877
5.71896
5.5403
5.36289
5.18684
5.01227
4.83928
4.66798
4.49848
4.33088
4.1653
4.00182
3.84055
3.68158
3.52499
3.37088
3.21932
3.07038
2.92413
2.78062
2.63992
2.50206
2.36708
2.23501
2.10588
1.97973
1.85658
1.73645
1.61936
1.50519
1.39384
1.28537
1.17977
1.07725
0.978236
0.883393
0.794054
0.712488
0.644411
0.606075
0.682726
1.63275
1.80992
1.12165
1.15962
1.30635
1.49034
1.69227
1.90528
2.1263
2.35393
2.58753
2.82677
3.07148
3.32154
3.57683
3.8372
4.1025
4.3725
4.64696
4.9256
5.20809
5.49408
5.78318
6.07499
6.36908
6.665
6.96229
7.26048
7.55909
7.85765
8.15568
8.4527
8.74824
9.04186
9.3331
9.62153
9.90674
10.1883
10.4659
10.7391
11.0076
11.2711
11.5293
11.7819
12.0287
12.2694
12.5038
12.7318
12.9531
13.1676
13.3753
13.5759
13.7694
13.9557
14.1348
14.3065
14.4709
14.628
14.7779
14.9205
15.0561
15.1846
15.3058
15.4198
15.5267
15.6264
15.7191
15.8048
15.8835
15.9554
16.0205
16.0788
16.1306
16.1759
16.2147
16.2472
16.2734
16.2935
16.3076
16.3157
16.318
16.3146
16.3055
16.2909
16.2709
16.2456
16.215
16.1794
16.1387
16.0931
16.0428
15.9877
15.9281
15.8639
15.7954
15.7225
15.6455
15.5644
15.4792
15.3902
15.2973
15.2008
15.1006
14.9969
14.8898
14.7792
14.6655
14.5485
14.4285
14.3054
14.1794
14.0506
13.919
13.7846
13.6477
13.5082
13.3663
13.2219
13.0752
12.9263
12.7751
12.6219
12.4665
12.3092
12.1499
11.9888
11.8259
11.6612
11.4949
11.327
11.1575
10.9865
10.8141
10.6404
10.4654
10.2892
10.1118
9.93335
9.75389
9.57351
9.39227
9.21025
9.02752
8.84417
8.66028
8.47594
8.29121
8.10621
7.92101
7.73571
7.5504
7.36518
7.18014
6.9954
6.81104
6.62717
6.4439
6.26133
6.07958
5.89874
5.71894
5.54028
5.36287
5.18682
5.01225
4.83926
4.66796
4.49846
4.33087
4.16528
4.0018
3.84053
3.68156
3.52498
3.37086
3.2193
3.07036
2.92411
2.78061
2.6399
2.50204
2.36706
2.235
2.10587
1.97972
1.85656
1.73644
1.61935
1.50519
1.39384
1.28536
1.17976
1.07724
0.97823
0.883384
0.794039
0.712467
0.644423
0.605957
0.683755
1.6333
2.58958
1.44438
1.36771
1.44531
1.57529
1.73106
1.90241
2.08458
2.27507
2.47254
2.67617
2.8855
3.10018
3.31997
3.54464
3.77399
4.00778
4.24577
4.4877
4.73329
4.98221
5.23414
5.48872
5.74557
6.00431
6.26454
6.52584
6.78781
7.05002
7.31205
7.57348
7.83389
8.09288
8.35004
8.60499
8.85735
9.10675
9.35284
9.5953
9.8338
10.0681
10.2978
10.5227
10.7427
10.9573
11.1666
11.3702
11.5679
11.7598
11.9456
12.1252
12.2985
12.4654
12.6259
12.7799
12.9275
13.0684
13.2029
13.3309
13.4524
13.5675
13.6762
13.7783
13.8741
13.9634
14.0464
14.1231
14.1936
14.2579
14.3161
14.3682
14.4144
14.4547
14.4892
14.518
14.5412
14.5588
14.571
14.5779
14.5794
14.5759
14.5672
14.5536
14.535
14.5117
14.4837
14.4511
14.414
14.3724
14.3266
14.2765
14.2223
14.1641
14.1019
14.0358
13.966
13.8925
13.8154
13.7348
13.6508
13.5635
13.4729
13.3792
13.2824
13.1826
13.0798
12.9742
12.8659
12.7549
12.6412
12.525
12.4064
12.2853
12.162
12.0363
11.9085
11.7785
11.6465
11.5125
11.3765
11.2387
11.099
10.9576
10.8145
10.6698
10.5234
10.3756
10.2263
10.0757
9.92364
9.77034
9.61582
9.46014
9.30337
9.14556
8.98678
8.82709
8.66656
8.50525
8.34323
8.18058
8.01736
7.85365
7.68952
7.52504
7.3603
7.19538
7.03035
6.86531
6.70033
6.53551
6.37093
6.20668
6.04286
5.87956
5.71687
5.5549
5.39373
5.23346
5.0742
4.91604
4.75908
4.60343
4.44917
4.29641
4.14524
3.99576
3.84806
3.70224
3.55837
3.41656
3.27687
3.13939
3.0042
2.87136
2.74093
2.61299
2.48758
2.36475
2.24455
2.12703
2.01222
1.90016
1.79089
1.68446
1.5809
1.48026
1.38257
1.28788
1.19634
1.10815
1.02367
0.943494
0.868583
0.800668
0.742675
0.699899
0.679311
0.675899
0.337364
2.58983
1.44446
1.36767
1.44519
1.57514
1.73089
1.90224
2.0844
2.2749
2.47236
2.67599
2.88532
3.1
3.31978
3.54445
3.7738
4.00759
4.24558
4.48752
4.7331
4.98203
5.23395
5.48853
5.74539
6.00413
6.26436
6.52567
6.78764
7.04985
7.31188
7.57331
7.83373
8.09272
8.34989
8.60484
8.8572
9.1066
9.3527
9.59516
9.83367
10.0679
10.2977
10.5226
10.7425
10.9572
11.1664
11.37
11.5678
11.7597
11.9455
12.1251
12.2984
12.4653
12.6258
12.7799
12.9274
13.0684
13.2028
13.3308
13.4523
13.5674
13.6761
13.7783
13.874
13.9634
14.0464
14.1231
14.1935
14.2578
14.316
14.3682
14.4143
14.4546
14.4892
14.518
14.5411
14.5588
14.571
14.5778
14.5794
14.5758
14.5672
14.5535
14.535
14.5117
14.4837
14.4511
14.4139
14.3724
14.3266
14.2765
14.2223
14.164
14.1018
14.0358
13.966
13.8925
13.8154
13.7348
13.6508
13.5635
13.4729
13.3792
13.2824
13.1825
13.0798
12.9742
12.8659
12.7549
12.6412
12.525
12.4064
12.2853
12.1619
12.0363
11.9085
11.7785
11.6465
11.5125
11.3765
11.2386
11.099
10.9576
10.8145
10.6698
10.5234
10.3756
10.2263
10.0757
9.92363
9.77033
9.61581
9.46014
9.30336
9.14555
8.98677
8.82708
8.66655
8.50525
8.34323
8.18058
8.01736
7.85365
7.68951
7.52504
7.3603
7.19538
7.03035
6.86531
6.70033
6.53551
6.37093
6.20668
6.04286
5.87956
5.71687
5.5549
5.39373
5.23346
5.0742
4.91604
4.75909
4.60343
4.44917
4.29641
4.14524
3.99576
3.84806
3.70224
3.55837
3.41656
3.27687
3.13939
3.0042
2.87136
2.74093
2.61299
2.48758
2.36475
2.24455
2.12703
2.01222
1.90016
1.79089
1.68446
1.5809
1.48026
1.38257
1.28788
1.19634
1.10815
1.02367
0.943494
0.868583
0.80068
0.742759
0.70031
0.680546
0.676496
0.337303
3.40441
1.80659
1.61919
1.64104
1.73304
1.85903
2.00514
2.16479
2.33445
2.51211
2.69653
2.88692
3.08276
3.28364
3.48927
3.69937
3.91369
4.13197
4.35396
4.57938
4.80794
5.03934
5.27326
5.50936
5.7473
5.98672
6.22725
6.46851
6.71014
6.95175
7.19296
7.43339
7.67268
7.91046
8.14636
8.38004
8.61117
8.83941
9.06447
9.28603
9.50383
9.71759
9.92707
10.132
10.3323
10.5276
10.7178
10.9027
11.0822
11.2562
11.4245
11.587
11.7437
11.8944
12.0392
12.1779
12.3105
12.4371
12.5577
12.6722
12.7806
12.8831
12.9794
13.0698
13.1542
13.2326
13.3051
13.3718
13.4326
13.4878
13.5372
13.581
13.6193
13.6521
13.6795
13.7017
13.7185
13.7303
13.737
13.7387
13.7355
13.7276
13.7149
13.6976
13.6757
13.6495
13.6188
13.5839
13.5448
13.5016
13.4544
13.4033
13.3484
13.2897
13.2273
13.1614
13.092
13.0193
12.9431
12.8638
12.7813
12.6957
12.6071
12.5156
12.4213
12.3242
12.2244
12.122
12.017
11.9096
11.7998
11.6876
11.5732
11.4565
11.3378
11.2169
11.0941
10.9693
10.8426
10.7141
10.5839
10.4519
10.3183
10.1831
10.0464
9.90816
9.76854
9.62757
9.4853
9.34179
9.19709
9.05126
8.90437
8.75646
8.60761
8.45787
8.3073
8.15597
8.00395
7.85129
7.69807
7.54435
7.39021
7.23571
7.08093
6.92595
6.77084
6.61568
6.46055
6.30553
6.15071
5.99616
5.84198
5.68826
5.53508
5.38252
5.23069
5.07968
4.92957
4.78046
4.63245
4.48562
4.34006
4.19588
4.05315
3.91198
3.77245
3.63464
3.49864
3.36453
3.2324
3.10231
2.97435
2.84857
2.72506
2.60386
2.48504
2.36866
2.25477
2.14342
2.03465
1.92852
1.82509
1.7244
1.62652
1.53153
1.43952
1.35059
1.26491
1.18271
1.10432
1.03026
0.961337
0.898792
0.844771
0.803207
0.782429
0.802217
0.92897
1.85563
3.40467
1.80653
1.61907
1.64089
1.73287
1.85886
2.00496
2.1646
2.33426
2.51192
2.69634
2.88673
3.08257
3.28345
3.48908
3.69918
3.9135
4.13178
4.35377
4.5792
4.80776
5.03916
5.27308
5.50919
5.74713
5.98655
6.22708
6.46835
6.70998
6.95159
7.19281
7.43325
7.67254
7.91031
8.14622
8.37991
8.61104
8.83929
9.06434
9.28591
9.50371
9.71748
9.92697
10.1319
10.3322
10.5275
10.7177
10.9026
11.0822
11.2561
11.4244
11.5869
11.7436
11.8943
12.0391
12.1778
12.3105
12.4371
12.5576
12.6721
12.7806
12.883
12.9794
13.0698
13.1542
13.2326
13.3051
13.3718
13.4326
13.4877
13.5372
13.581
13.6193
13.6521
13.6795
13.7016
13.7185
13.7303
13.737
13.7387
13.7355
13.7276
13.7149
13.6976
13.6757
13.6494
13.6188
13.5839
13.5448
13.5016
13.4544
13.4033
13.3484
13.2897
13.2273
13.1614
13.092
13.0192
12.9431
12.8638
12.7813
12.6957
12.6071
12.5156
12.4213
12.3242
12.2244
12.122
12.017
11.9096
11.7998
11.6876
11.5732
11.4565
11.3378
11.2169
11.0941
10.9693
10.8426
10.7141
10.5839
10.4519
10.3183
10.1831
10.0464
9.90816
9.76855
9.62758
9.48531
9.34179
9.19709
9.05127
8.90437
8.75647
8.60762
8.45787
8.30731
8.15598
8.00396
7.8513
7.69808
7.54436
7.39022
7.23572
7.08094
6.92596
6.77085
6.61569
6.46056
6.30554
6.15072
5.99617
5.84199
5.68827
5.53508
5.38253
5.2307
5.07969
4.92958
4.78047
4.63246
4.48562
4.34007
4.19589
4.05316
3.91199
3.77245
3.63464
3.49864
3.36454
3.2324
3.10232
2.97435
2.84858
2.72506
2.60387
2.48505
2.36867
2.25478
2.14342
2.03465
1.92853
1.82509
1.7244
1.62653
1.53154
1.43952
1.3506
1.26492
1.18271
1.10432
1.03027
0.961338
0.89879
0.844762
0.803193
0.782443
0.802266
0.92819
1.85463
4.24386
2.18768
1.89658
1.87008
1.93164
2.03536
2.16362
2.30804
2.4641
2.62916
2.80157
2.98026
3.16449
3.35374
3.54761
3.74576
3.94791
4.15378
4.3631
4.57562
4.79105
5.00912
5.22952
5.45196
5.67612
5.90167
6.12829
6.35563
6.58336
6.81114
7.03861
7.26544
7.49129
7.71581
7.93869
8.1596
8.37823
8.59427
8.80744
9.01746
9.22405
9.42698
9.62599
9.82087
10.0114
10.1974
10.3787
10.5551
10.7265
10.8928
11.0537
11.2093
11.3594
11.5039
11.6428
11.7761
11.9037
12.0255
12.1416
12.2519
12.3565
12.4553
12.5484
12.6358
12.7174
12.7934
12.8637
12.9285
12.9877
13.0413
13.0896
13.1324
13.1699
13.2022
13.2293
13.2512
13.2682
13.2801
13.2872
13.2895
13.287
13.2799
13.2683
13.2522
13.2316
13.2068
13.1777
13.1445
13.1073
13.0661
13.0209
12.972
12.9194
12.8631
12.8032
12.7399
12.6732
12.6032
12.53
12.4536
12.3741
12.2916
12.2063
12.118
12.027
11.9333
11.837
11.7382
11.6368
11.5331
11.427
11.3186
11.208
11.0953
10.9805
10.8637
10.7449
10.6242
10.5017
10.3774
10.2514
10.1238
9.99457
9.86379
9.73153
9.59785
9.46279
9.32643
9.1888
9.04999
8.91003
8.76898
8.62692
8.48388
8.33995
8.19516
8.0496
7.90331
7.75637
7.60884
7.46078
7.31226
7.16336
7.01413
6.86467
6.71503
6.5653
6.41554
6.26585
6.1163
5.96696
5.81793
5.66929
5.52112
5.37351
5.22654
5.0803
4.93489
4.79038
4.64688
4.50446
4.36322
4.22325
4.08463
3.94745
3.81179
3.67774
3.54539
3.41481
3.28608
3.15927
3.03446
2.91172
2.79112
2.67272
2.55657
2.44276
2.33132
2.22232
2.11581
2.01185
1.91051
1.81186
1.71596
1.62292
1.53283
1.44583
1.3621
1.28188
1.20548
1.13335
1.06617
1.00492
0.951125
0.907372
0.878393
0.874209
0.920907
1.11739
2.33664
4.24418
2.18759
1.89643
1.8699
1.93145
2.03517
2.16342
2.30784
2.4639
2.62896
2.80137
2.98006
3.16429
3.35355
3.54742
3.74557
3.94772
4.15359
4.36292
4.57544
4.79087
5.00894
5.22935
5.45179
5.67595
5.9015
6.12812
6.35547
6.58321
6.81099
7.03846
7.2653
7.49115
7.71568
7.93856
8.15947
8.37811
8.59416
8.80733
9.01735
9.22395
9.42688
9.6259
9.82078
10.0113
10.1973
10.3786
10.5551
10.7265
10.8927
11.0536
11.2092
11.3593
11.5039
11.6428
11.7761
11.9036
12.0254
12.1415
12.2518
12.3564
12.4553
12.5484
12.6357
12.7174
12.7934
12.8637
12.9285
12.9876
13.0413
13.0895
13.1324
13.1699
13.2022
13.2293
13.2512
13.2681
13.2801
13.2872
13.2895
13.287
13.2799
13.2683
13.2521
13.2316
13.2068
13.1777
13.1445
13.1073
13.066
13.0209
12.972
12.9194
12.8631
12.8032
12.7399
12.6732
12.6032
12.53
12.4536
12.3741
12.2916
12.2063
12.118
12.027
11.9333
11.837
11.7382
11.6368
11.5331
11.427
11.3186
11.208
11.0953
10.9805
10.8637
10.7449
10.6242
10.5017
10.3774
10.2515
10.1238
9.99458
9.8638
9.73154
9.59786
9.4628
9.32644
9.18881
9.05
8.91004
8.76899
8.62693
8.4839
8.33996
8.19518
8.04961
7.90332
7.75638
7.60885
7.46079
7.31227
7.16337
7.01414
6.86468
6.71504
6.56531
6.41556
6.26586
6.11631
5.96698
5.81795
5.6693
5.52113
5.37352
5.22655
5.08031
4.9349
4.79039
4.64689
4.50447
4.36323
4.22326
4.08464
3.94746
3.8118
3.67775
3.5454
3.41482
3.28609
3.15928
3.03447
2.91173
2.79113
2.67272
2.55658
2.44276
2.33132
2.22232
2.11581
2.01186
1.91052
1.81186
1.71597
1.62292
1.53283
1.44584
1.36211
1.28188
1.20548
1.13336
1.06617
1.00492
0.951125
0.90737
0.878388
0.87421
0.920917
1.11717
2.33634
5.11483
2.5861
2.19447
2.12381
2.15922
2.24485
2.35932
2.49249
2.63886
2.79518
2.95941
3.13021
3.30665
3.48809
3.67401
3.86403
4.05781
4.25506
4.4555
4.65888
4.86491
5.07335
5.2839
5.4963
5.71026
5.92548
6.14167
6.35851
6.57571
6.79295
7.00993
7.22632
7.44182
7.65613
7.86895
8.07997
8.28891
8.4955
8.69945
8.90051
9.09843
9.29297
9.4839
9.67101
9.8541
10.033
10.2075
10.3774
10.5427
10.7031
10.8586
11.009
11.1542
11.2942
11.4289
11.5583
11.6822
11.8006
11.9136
12.0211
12.1231
12.2196
12.3106
12.3961
12.4761
12.5506
12.6197
12.6834
12.7417
12.7948
12.8425
12.885
12.9224
12.9546
12.9819
13.0041
13.0214
13.0339
13.0417
13.0447
13.0431
13.037
13.0264
13.0115
12.9922
12.9687
12.9411
12.9094
12.8737
12.8341
12.7907
12.7435
12.6927
12.6383
12.5804
12.519
12.4544
12.3864
12.3153
12.241
12.1637
12.0835
12.0003
11.9144
11.8257
11.7343
11.6404
11.5439
11.445
11.3436
11.24
11.1341
11.026
10.9158
10.8035
10.6893
10.573
10.455
10.3351
10.2134
10.0901
9.96507
9.83849
9.7104
9.58084
9.44987
9.31755
9.18394
9.04909
8.91305
8.7759
8.63768
8.49845
8.35828
8.21722
8.07534
7.93269
7.78934
7.64535
7.50079
7.35573
7.21023
7.06436
6.91819
6.7718
6.62525
6.47863
6.332
6.18545
6.03906
5.8929
5.74706
5.60161
5.45665
5.31226
5.16851
5.02551
4.88333
4.74206
4.60178
4.46259
4.32457
4.18781
4.05238
3.91837
3.78588
3.65496
3.52571
3.39821
3.27252
3.14872
3.02688
2.90706
2.78934
2.67378
2.56044
2.44938
2.34067
2.23436
2.13053
2.02923
1.93054
1.83456
1.74137
1.65109
1.56387
1.47988
1.39936
1.3226
1.25001
1.18216
1.11984
1.06425
1.01722
0.981828
0.963757
0.975058
1.04782
1.30628
2.81571
5.11519
2.58599
2.1943
2.12362
2.15902
2.24464
2.35912
2.49229
2.63866
2.79498
2.95921
3.13001
3.30645
3.48789
3.67381
3.86383
4.05762
4.25487
4.45532
4.65869
4.86473
5.07317
5.28373
5.49613
5.71009
5.92532
6.1415
6.35836
6.57556
6.7928
7.00978
7.22618
7.44169
7.656
7.86882
8.07985
8.2888
8.49538
8.69934
8.90041
9.09833
9.29288
9.48381
9.67093
9.85402
10.0329
10.2074
10.3773
10.5426
10.703
10.8585
11.0089
11.1542
11.2942
11.4289
11.5582
11.6821
11.8006
11.9136
12.0211
12.1231
12.2196
12.3106
12.3961
12.4761
12.5506
12.6197
12.6834
12.7417
12.7947
12.8425
12.885
12.9224
12.9546
12.9818
13.0041
13.0214
13.0339
13.0417
13.0447
13.0431
13.037
13.0264
13.0115
12.9922
12.9687
12.9411
12.9094
12.8737
12.8341
12.7907
12.7435
12.6927
12.6383
12.5804
12.519
12.4544
12.3864
12.3153
12.241
12.1637
12.0835
12.0003
11.9144
11.8257
11.7343
11.6404
11.5439
11.445
11.3437
11.24
11.1341
11.026
10.9158
10.8035
10.6893
10.5731
10.455
10.3351
10.2134
10.0901
9.96508
9.83851
9.71041
9.58085
9.44988
9.31756
9.18395
9.0491
8.91306
8.77591
8.63769
8.49846
8.35829
8.21723
8.07535
7.9327
7.78935
7.64536
7.5008
7.35574
7.21024
7.06437
6.9182
6.77181
6.62526
6.47864
6.33201
6.18547
6.03907
5.89291
5.74707
5.60162
5.45666
5.31227
5.16852
5.02552
4.88334
4.74207
4.60179
4.4626
4.32458
4.18781
4.05239
3.91838
3.78588
3.65497
3.52572
3.39822
3.27253
3.14872
3.02688
2.90707
2.78935
2.67379
2.56045
2.44939
2.34068
2.23437
2.13053
2.02923
1.93055
1.83456
1.74137
1.6511
1.56388
1.47989
1.39936
1.3226
1.25002
1.18216
1.11984
1.06425
1.01722
0.981829
0.963758
0.975064
1.04784
1.30626
2.81566
6.01546
3.00195
2.51119
2.39887
2.41075
2.48089
2.5841
2.70846
2.8475
2.99739
3.15572
3.32089
3.49179
3.66763
3.84782
4.03192
4.21953
4.41035
4.60409
4.80047
4.99925
5.20015
5.40294
5.60736
5.81313
6.02
6.2277
6.43595
6.64448
6.85301
7.06126
7.26894
7.47579
7.68152
7.88585
8.08853
8.28928
8.48785
8.68399
8.87744
9.06799
9.2554
9.43947
9.61998
9.79674
9.96958
10.1383
10.3028
10.4629
10.6184
10.7693
10.9154
11.0566
11.1929
11.3242
11.4503
11.5713
11.6871
11.7976
11.9029
12.0029
12.0976
12.1871
12.2712
12.35
12.4236
12.4919
12.555
12.6128
12.6655
12.7131
12.7556
12.7931
12.8256
12.8532
12.8759
12.8938
12.907
12.9155
12.9194
12.9188
12.9137
12.9042
12.8904
12.8723
12.8501
12.8238
12.7934
12.7592
12.721
12.6791
12.6335
12.5842
12.5314
12.4751
12.4154
12.3524
12.2861
12.2167
12.1441
12.0685
11.99
11.9086
11.8244
11.7375
11.6479
11.5557
11.461
11.3638
11.2643
11.1624
11.0583
10.9519
10.8435
10.733
10.6205
10.506
10.3897
10.2716
10.1516
10.03
9.9068
9.78197
9.65561
9.52779
9.39857
9.26798
9.13611
9.00299
8.8687
8.73329
8.59681
8.45934
8.32091
8.18161
8.04149
7.9006
7.75902
7.61681
7.47404
7.33077
7.18706
7.043
6.89864
6.75407
6.60935
6.46457
6.31978
6.17509
6.03055
5.88625
5.74227
5.5987
5.45561
5.3131
5.17123
5.0301
4.88979
4.75039
4.61198
4.47464
4.33846
4.20352
4.06991
3.9377
3.80697
3.6778
3.55027
3.42445
3.30042
3.17824
3.05798
2.93972
2.82351
2.70942
2.59752
2.48787
2.38053
2.27557
2.17307
2.07311
1.97576
1.88115
1.78937
1.70058
1.61496
1.53271
1.45413
1.37958
1.30954
1.24468
1.18595
1.13474
1.09321
1.06498
1.05678
1.08288
1.18125
1.50007
3.29749
6.01586
3.00182
2.51099
2.39866
2.41054
2.48068
2.58389
2.70824
2.84728
2.99718
3.15551
3.32068
3.49158
3.66743
3.84763
4.03172
4.21934
4.41016
4.6039
4.80029
4.99906
5.19998
5.40277
5.60719
5.81296
6.01984
6.22754
6.4358
6.64433
6.85286
7.06112
7.26881
7.47566
7.68139
7.88573
8.08841
8.28917
8.48774
8.68388
8.87734
9.0679
9.25531
9.43938
9.6199
9.79666
9.9695
10.1382
10.3027
10.4628
10.6184
10.7692
10.9154
11.0566
11.1929
11.3241
11.4503
11.5713
11.6871
11.7976
11.9029
12.0029
12.0976
12.187
12.2712
12.35
12.4236
12.4919
12.555
12.6128
12.6655
12.7131
12.7556
12.7931
12.8256
12.8532
12.8759
12.8938
12.907
12.9155
12.9194
12.9188
12.9137
12.9042
12.8904
12.8723
12.8501
12.8238
12.7934
12.7592
12.721
12.6791
12.6335
12.5842
12.5314
12.4751
12.4154
12.3524
12.2861
12.2167
12.1441
12.0686
11.99
11.9086
11.8244
11.7375
11.6479
11.5557
11.461
11.3638
11.2643
11.1624
11.0583
10.952
10.8435
10.733
10.6205
10.506
10.3897
10.2716
10.1517
10.0301
9.90681
9.78198
9.65563
9.52781
9.39858
9.26799
9.13612
9.00301
8.86871
8.7333
8.59682
8.45935
8.32093
8.18162
8.0415
7.90061
7.75903
7.61682
7.47405
7.33078
7.18707
7.04301
6.89866
6.75408
6.60936
6.46458
6.31979
6.1751
6.03056
5.88626
5.74228
5.59871
5.45562
5.31311
5.17124
5.03011
4.8898
4.7504
4.61199
4.47465
4.33847
4.20353
4.06992
3.9377
3.80698
3.67781
3.55028
3.42446
3.30043
3.17825
3.05799
2.93973
2.82352
2.70943
2.59753
2.48787
2.38054
2.27558
2.17308
2.07311
1.97577
1.88115
1.78938
1.70059
1.61496
1.53272
1.45414
1.37958
1.30954
1.24468
1.18595
1.13474
1.09321
1.06499
1.05678
1.08289
1.18126
1.5001
3.29749
6.95095
3.43685
2.84681
2.69421
2.68424
2.74059
2.83419
2.95132
3.08456
3.22952
3.3834
3.54435
3.7111
3.88273
4.05857
4.2381
4.42089
4.60661
4.79495
4.98565
5.17844
5.37309
5.56936
5.76701
5.9658
6.16549
6.36584
6.56661
6.76755
6.96842
7.16896
7.36893
7.56807
7.76613
7.96288
8.15806
8.35144
8.54277
8.73184
8.91841
9.10227
9.28322
9.46104
9.63554
9.80655
9.97388
10.1374
10.2969
10.4523
10.6034
10.7501
10.8923
11.0299
11.1628
11.2909
11.4142
11.5325
11.6459
11.7543
11.8576
11.9559
12.0491
12.1372
12.2202
12.298
12.3708
12.4385
12.5011
12.5586
12.6112
12.6587
12.7013
12.739
12.7718
12.7998
12.8231
12.8416
12.8555
12.8648
12.8695
12.8698
12.8657
12.8573
12.8446
12.8277
12.8067
12.7816
12.7525
12.7196
12.6828
12.6422
12.598
12.5501
12.4987
12.4438
12.3856
12.324
12.2592
12.1912
12.1201
12.046
11.9689
11.889
11.8062
11.7208
11.6326
11.5418
11.4485
11.3528
11.2546
11.1541
11.0514
10.9464
10.8393
10.7301
10.6189
10.5058
10.3907
10.2738
10.1552
10.0348
9.91282
9.78921
9.66406
9.53743
9.40939
9.27998
9.14926
9.0173
8.88415
8.74987
8.61452
8.47816
8.34085
8.20265
8.06363
7.92384
7.78336
7.64224
7.50056
7.35837
7.21575
7.07277
6.9295
6.78601
6.64238
6.49867
6.35497
6.21135
6.0679
5.92468
5.78178
5.63928
5.49726
5.35581
5.215
5.07492
4.93566
4.79729
4.6599
4.52356
4.38837
4.25441
4.12174
3.99045
3.86062
3.73233
3.60563
3.48062
3.35736
3.23592
3.11636
2.99875
2.88316
2.76966
2.6583
2.54916
2.44231
2.33782
2.23577
2.13625
2.03937
1.94525
1.85401
1.76585
1.68095
1.59958
1.52208
1.44886
1.3805
1.31776
1.26173
1.21402
1.17711
1.15521
1.15607
1.19628
1.31978
1.6982
3.78386
6.9514
3.4367
2.8466
2.69398
2.68401
2.74036
2.83396
2.9511
3.08434
3.2293
3.38318
3.54414
3.71089
3.88253
4.05837
4.2379
4.4207
4.60642
4.79477
4.98547
5.17826
5.37292
5.56919
5.76684
5.96563
6.16533
6.36568
6.56646
6.76741
6.96828
7.16882
7.36879
7.56794
7.76601
7.96276
8.15794
8.35133
8.54267
8.73174
8.91832
9.10218
9.28313
9.46095
9.63546
9.80648
9.97381
10.1373
10.2968
10.4522
10.6033
10.75
10.8922
11.0298
11.1627
11.2909
11.4141
11.5325
11.6459
11.7543
11.8576
11.9559
12.0491
12.1372
12.2201
12.298
12.3708
12.4385
12.5011
12.5586
12.6112
12.6587
12.7013
12.739
12.7718
12.7998
12.8231
12.8416
12.8555
12.8648
12.8695
12.8698
12.8657
12.8573
12.8446
12.8277
12.8067
12.7816
12.7525
12.7196
12.6828
12.6422
12.598
12.5501
12.4987
12.4438
12.3856
12.324
12.2592
12.1912
12.1201
12.046
11.969
11.889
11.8063
11.7208
11.6326
11.5418
11.4485
11.3528
11.2546
11.1541
11.0514
10.9464
10.8393
10.7301
10.6189
10.5058
10.3907
10.2739
10.1552
10.0348
9.91283
9.78922
9.66407
9.53745
9.4094
9.27999
9.14927
9.01731
8.88416
8.74988
8.61453
8.47817
8.34086
8.20266
8.06364
7.92386
7.78337
7.64225
7.50057
7.35838
7.21576
7.07278
6.92951
6.78602
6.64239
6.49868
6.35498
6.21136
6.0679
5.92469
5.78179
5.63929
5.49727
5.35582
5.21501
5.07493
4.93567
4.7973
4.6599
4.52357
4.38838
4.25441
4.12175
3.99046
3.86063
3.73233
3.60564
3.48063
3.35737
3.23592
3.11636
2.99876
2.88317
2.76966
2.65831
2.54917
2.44232
2.33782
2.23578
2.13626
2.03938
1.94525
1.85402
1.76585
1.68095
1.59959
1.52208
1.44886
1.3805
1.31776
1.26173
1.21402
1.17711
1.15521
1.15607
1.19628
1.31979
1.69824
3.78386
7.92386
3.89244
3.20216
3.00995
2.97918
3.02287
3.10798
3.21897
3.34744
3.48844
3.63881
3.79646
3.95995
4.12825
4.30059
4.47639
4.65519
4.83663
5.02039
5.20619
5.39379
5.58295
5.77344
5.96506
6.15757
6.35078
6.54446
6.73841
6.93239
7.12621
7.31963
7.51243
7.7044
7.89532
8.08496
8.27311
8.45955
8.64406
8.82645
9.00651
9.18402
9.35881
9.53069
9.69946
9.86497
10.027
10.1855
10.3402
10.4911
10.6379
10.7806
10.919
11.0531
11.1827
11.3078
11.4283
11.5441
11.6552
11.7615
11.8629
11.9595
12.0512
12.138
12.2199
12.2968
12.3688
12.4358
12.498
12.5552
12.6076
12.6551
12.6978
12.7356
12.7688
12.7972
12.8209
12.84
12.8546
12.8646
12.8702
12.8714
12.8682
12.8607
12.8491
12.8333
12.8134
12.7895
12.7616
12.7298
12.6943
12.655
12.612
12.5654
12.5153
12.4617
12.4048
12.3445
12.281
12.2144
12.1446
12.0718
11.996
11.9173
11.8358