/*--------------------------------*- C++ -*----------------------------------*\
  =========                 |
  \\      /  F ield         | OpenFOAM: The Open Source CFD Toolbox
   \\    /   O peration     | Website:  https://openfoam.org
    \\  /    A nd           | Version:  8
     \\/     M anipulation  |
\*---------------------------------------------------------------------------*/
FoamFile
{
    version     2.0;
    format      ascii;
    class       volScalarField;
    location    "1300";
    object      k;
}
// * * * * * * * * * * * * * * * * * * * * * * * * * * * * * * * * * * * * * //

dimensions      [0 2 -2 0 0 0 0];

internalField   nonuniform List<scalar> 
48000
(
0.0173416
0.020996
0.0308946
0.0407959
0.0495643
0.0575117
0.0650212
0.0721144
0.0788976
0.0854444
0.0917995
0.0979961
0.104059
0.110008
0.115855
0.121611
0.127284
0.132877
0.138394
0.143836
0.149205
0.154499
0.159718
0.164861
0.169925
0.174909
0.17981
0.184627
0.189357
0.193997
0.198547
0.203004
0.207366
0.211631
0.215798
0.219866
0.223833
0.227699
0.231462
0.235122
0.238679
0.242131
0.24548
0.248725
0.251867
0.254904
0.257838
0.26067
0.263399
0.266027
0.268554
0.27098
0.273307
0.275536
0.277667
0.279701
0.281638
0.283478
0.285233
0.286901
0.28848
0.289969
0.291371
0.292684
0.293911
0.295053
0.296111
0.297086
0.297979
0.298792
0.299525
0.300181
0.300759
0.301261
0.301689
0.302043
0.302325
0.302536
0.302676
0.302747
0.302751
0.302687
0.302557
0.302363
0.302104
0.301783
0.3014
0.300956
0.300453
0.29989
0.29927
0.298592
0.297858
0.29707
0.296227
0.29533
0.294381
0.29338
0.292329
0.291227
0.290076
0.288876
0.287629
0.286334
0.284993
0.283607
0.282175
0.280699
0.279179
0.277616
0.27601
0.274363
0.272674
0.270943
0.269173
0.267362
0.265511
0.263622
0.261693
0.259727
0.257722
0.255679
0.2536
0.251483
0.24933
0.24714
0.244914
0.242653
0.240356
0.238024
0.235657
0.233256
0.23082
0.228351
0.225847
0.223311
0.220741
0.218139
0.215504
0.212838
0.210139
0.20741
0.20465
0.20186
0.199041
0.196192
0.193314
0.190408
0.187475
0.184515
0.181529
0.178517
0.175481
0.17242
0.169337
0.166231
0.163104
0.159956
0.156789
0.153603
0.150399
0.147179
0.143943
0.140693
0.137429
0.134153
0.130866
0.127569
0.124263
0.120949
0.117628
0.114301
0.11097
0.107634
0.104295
0.100953
0.097609
0.0942632
0.0909156
0.087566
0.084214
0.0808587
0.0774989
0.0741335
0.0707635
0.0673888
0.0640379
0.0606702
0.0572566
0.0537885
0.0502447
0.0465999
0.04282
0.0388722
0.0347524
0.0302997
0.0253724
0.020464
0.02087
0.0180828
0.0173174
0.0209979
0.0308996
0.0407985
0.0495666
0.0575139
0.0650234
0.0721166
0.0788997
0.0854465
0.0918015
0.0979981
0.104061
0.11001
0.115857
0.121613
0.127285
0.132878
0.138395
0.143838
0.149206
0.1545
0.159719
0.164862
0.169926
0.17491
0.179811
0.184628
0.189357
0.193998
0.198548
0.203005
0.207366
0.211631
0.215799
0.219866
0.223833
0.227699
0.231462
0.235122
0.238679
0.242132
0.245481
0.248725
0.251867
0.254904
0.257838
0.26067
0.263399
0.266027
0.268553
0.27098
0.273307
0.275536
0.277667
0.2797
0.281637
0.283478
0.285232
0.2869
0.288479
0.289969
0.29137
0.292684
0.293911
0.295053
0.29611
0.297085
0.297979
0.298791
0.299525
0.30018
0.300758
0.301261
0.301689
0.302043
0.302325
0.302535
0.302676
0.302747
0.30275
0.302686
0.302557
0.302362
0.302104
0.301783
0.3014
0.300956
0.300452
0.29989
0.299269
0.298592
0.297858
0.297069
0.296226
0.29533
0.294381
0.29338
0.292328
0.291226
0.290075
0.288876
0.287628
0.286334
0.284993
0.283606
0.282174
0.280698
0.279179
0.277616
0.27601
0.274362
0.272673
0.270943
0.269172
0.267361
0.265511
0.263621
0.261693
0.259726
0.257721
0.255679
0.253599
0.251483
0.249329
0.24714
0.244914
0.242653
0.240356
0.238024
0.235657
0.233256
0.23082
0.22835
0.225847
0.22331
0.220741
0.218138
0.215504
0.212837
0.210139
0.20741
0.20465
0.20186
0.19904
0.196191
0.193314
0.190408
0.187475
0.184515
0.181528
0.178517
0.17548
0.17242
0.169336
0.166231
0.163103
0.159956
0.156788
0.153602
0.150399
0.147179
0.143943
0.140693
0.137429
0.134153
0.130866
0.127569
0.124263
0.120949
0.117628
0.114301
0.110969
0.107634
0.104295
0.100953
0.0976088
0.094263
0.0909155
0.0875659
0.0842139
0.0808586
0.0774988
0.0741335
0.0707635
0.0673888
0.0640379
0.0606702
0.0572566
0.0537885
0.0502448
0.0465999
0.04282
0.0388725
0.0347533
0.0303026
0.0253786
0.0204679
0.0208682
0.0180843
0.0249673
0.050026
0.0737239
0.0933214
0.110947
0.127305
0.142768
0.157545
0.171781
0.185587
0.199042
0.212207
0.225128
0.237838
0.250362
0.262719
0.274919
0.286973
0.298883
0.310653
0.322282
0.333767
0.345107
0.356296
0.36733
0.378203
0.388911
0.399446
0.409804
0.419978
0.429964
0.439755
0.449348
0.458737
0.467918
0.476888
0.485643
0.49418
0.502497
0.510592
0.518462
0.526107
0.533526
0.540718
0.547682
0.55442
0.560931
0.567215
0.573275
0.57911
0.584722
0.590113
0.595283
0.600236
0.604972
0.609493
0.6138
0.617893
0.621771
0.625444
0.628918
0.632195
0.635277
0.638167
0.640866
0.643378
0.645704
0.647848
0.649812
0.651599
0.653211
0.654651
0.655922
0.657026
0.657965
0.658743
0.659361
0.659823
0.66013
0.660285
0.660291
0.660149
0.659863
0.659434
0.658865
0.658159
0.657316
0.65634
0.655233
0.653997
0.652633
0.651145
0.649534
0.647802
0.64595
0.643982
0.641899
0.639702
0.637394
0.634977
0.632451
0.629819
0.627083
0.624244
0.621303
0.618263
0.615124
0.611888
0.608556
0.60513
0.601611
0.598001
0.5943
0.590509
0.58663
0.582664
0.578611
0.574474
0.570251
0.565946
0.561557
0.557087
0.552536
0.547905
0.543194
0.538404
0.533536
0.528591
0.523569
0.51847
0.513297
0.508049
0.502726
0.497331
0.491863
0.486323
0.480712
0.475031
0.46928
0.463461
0.457574
0.45162
0.445601
0.439518
0.433371
0.427161
0.420891
0.414561
0.408173
0.401728
0.395228
0.388674
0.382069
0.375413
0.368709
0.361959
0.355165
0.348328
0.341451
0.334537
0.327586
0.320603
0.313589
0.306546
0.299478
0.292386
0.285273
0.278142
0.270995
0.263835
0.256663
0.249483
0.242295
0.235103
0.227907
0.220709
0.21351
0.206311
0.199112
0.191911
0.184709
0.177502
0.170287
0.163059
0.155815
0.148544
0.14124
0.133878
0.126429
0.118891
0.111222
0.103378
0.0952999
0.0869026
0.0780761
0.0686946
0.0585211
0.047102
0.0350245
0.0244096
0.0249681
0.0500363
0.0737277
0.0933233
0.110948
0.127306
0.14277
0.157546
0.171783
0.185588
0.199043
0.212208
0.225129
0.237839
0.250363
0.262719
0.27492
0.286973
0.298884
0.310653
0.322282
0.333767
0.345107
0.356296
0.36733
0.378203
0.38891
0.399445
0.409803
0.419977
0.429963
0.439754
0.449347
0.458736
0.467917
0.476887
0.485642
0.494179
0.502496
0.51059
0.518461
0.526106
0.533524
0.540716
0.547681
0.554418
0.560929
0.567213
0.573273
0.579108
0.58472
0.590111
0.595282
0.600234
0.60497
0.609491
0.613798
0.617891
0.621769
0.625442
0.628916
0.632193
0.635275
0.638165
0.640864
0.643376
0.645702
0.647846
0.64981
0.651597
0.653209
0.654649
0.65592
0.657024
0.657963
0.658741
0.659359
0.65982
0.660128
0.660283
0.660288
0.660147
0.659861
0.659432
0.658863
0.658156
0.657314
0.656338
0.655231
0.653995
0.652631
0.651143
0.649532
0.647799
0.645948
0.64398
0.641897
0.6397
0.637392
0.634975
0.632449
0.629817
0.627081
0.624242
0.621301
0.618261
0.615122
0.611886
0.608554
0.605128
0.601609
0.597999
0.594298
0.590507
0.586628
0.582662
0.57861
0.574472
0.57025
0.565944
0.561556
0.557086
0.552534
0.547903
0.543192
0.538402
0.533534
0.528589
0.523567
0.518469
0.513295
0.508047
0.502725
0.497329
0.491861
0.486321
0.48071
0.475029
0.469278
0.463459
0.457572
0.451619
0.4456
0.439516
0.433369
0.42716
0.42089
0.41456
0.408172
0.401727
0.395227
0.388673
0.382068
0.375412
0.368708
0.361958
0.355163
0.348327
0.34145
0.334535
0.327585
0.320602
0.313588
0.306545
0.299477
0.292385
0.285272
0.278141
0.270994
0.263834
0.256662
0.249482
0.242294
0.235102
0.227906
0.220708
0.21351
0.20631
0.199111
0.191911
0.184708
0.177501
0.170286
0.163059
0.155814
0.148544
0.141239
0.133878
0.126428
0.11889
0.111222
0.103378
0.0952996
0.0869024
0.0780762
0.0686951
0.0585219
0.0471037
0.0350235
0.0244044
0.0310788
0.0739902
0.101853
0.125212
0.146514
0.166518
0.18558
0.203908
0.221649
0.23891
0.255774
0.272304
0.288548
0.304544
0.320319
0.335894
0.351281
0.36649
0.381526
0.396392
0.411086
0.425605
0.439946
0.454103
0.46807
0.481839
0.495404
0.508758
0.521892
0.534799
0.547472
0.559905
0.572091
0.584024
0.595697
0.607107
0.618249
0.629117
0.63971
0.650024
0.660056
0.669804
0.679268
0.688445
0.697336
0.705939
0.714255
0.722286
0.73003
0.73749
0.744667
0.751563
0.758179
0.764517
0.77058
0.776369
0.781887
0.787135
0.792115
0.79683
0.801288
0.805494
0.80945
0.813159
0.816625
0.819851
0.82284
0.825595
0.82812
0.830418
0.832492
0.834346
0.835982
0.837405
0.838617
0.839622
0.840423
0.841023
0.841426
0.841633
0.84165
0.841478
0.84112
0.84058
0.839861
0.838965
0.837896
0.836656
0.835247
0.833674
0.831938
0.830042
0.827989
0.825782
0.823422
0.820912
0.818256
0.815455
0.812511
0.809427
0.806205
0.802848
0.799357
0.795735
0.791983
0.788103
0.784098
0.779969
0.775718
0.771347
0.766858
0.762251
0.757529
0.752692
0.747744
0.742684
0.737514
0.732235
0.726849
0.721357
0.71576
0.710059
0.704254
0.698348
0.692341
0.686233
0.680027
0.673722
0.66732
0.660822
0.654228
0.647539
0.640757
0.633882
0.626915
0.619857
0.61271
0.605474
0.59815
0.59074
0.583244
0.575665
0.568003
0.560259
0.552437
0.544535
0.536558
0.528505
0.52038
0.512184
0.503918
0.495586
0.487189
0.47873
0.470211
0.461634
0.453003
0.444319
0.435586
0.426807
0.417984
0.40912
0.40022
0.391284
0.382318
0.373323
0.364304
0.355263
0.346204
0.337129
0.328042
0.318945
0.30984
0.300731
0.291619
0.282505
0.273392
0.264279
0.255167
0.246054
0.23694
0.227822
0.218694
0.209553
0.200391
0.191198
0.18196
0.17266
0.163272
0.153771
0.144119
0.134273
0.124177
0.113745
0.102856
0.091366
0.0789828
0.0650455
0.0478025
0.0263737
0.0310838
0.0739938
0.101854
0.125213
0.146515
0.166519
0.18558
0.203908
0.221649
0.23891
0.255773
0.272303
0.288548
0.304544
0.320319
0.335893
0.35128
0.366489
0.381526
0.396391
0.411085
0.425604
0.439945
0.454102
0.468068
0.481838
0.495403
0.508756
0.52189
0.534797
0.547471
0.559904
0.572089
0.584022
0.595695
0.607105
0.618246
0.629115
0.639708
0.650022
0.660054
0.669802
0.679266
0.688443
0.697333
0.705936
0.714253
0.722283
0.730028
0.737488
0.744665
0.75156
0.758176
0.764514
0.770577
0.776366
0.781884
0.787132
0.792112
0.796827
0.801285
0.805491
0.809447
0.813156
0.816623
0.819848
0.822837
0.825593
0.828117
0.830415
0.832489
0.834343
0.835979
0.837402
0.838615
0.83962
0.84042
0.841021
0.841423
0.841631
0.841647
0.841475
0.841118
0.840578
0.839858
0.838963
0.837893
0.836653
0.835245
0.833671
0.831935
0.83004
0.827987
0.825779
0.823419
0.82091
0.818253
0.815452
0.812508
0.809425
0.806203
0.802846
0.799355
0.795732
0.79198
0.788101
0.784096
0.779967
0.775716
0.771345
0.766855
0.762248
0.757526
0.75269
0.747741
0.742681
0.737511
0.732233
0.726847
0.721355
0.715758
0.710057
0.704252
0.698346
0.692339
0.686231
0.680025
0.67372
0.667318
0.66082
0.654226
0.647537
0.640755
0.63388
0.626913
0.619855
0.612708
0.605472
0.598148
0.590738
0.583242
0.575663
0.568001
0.560258
0.552435
0.544534
0.536556
0.528504
0.520378
0.512182
0.503917
0.495585
0.487188
0.478729
0.470209
0.461633
0.453001
0.444318
0.435585
0.426805
0.417983
0.409119
0.400218
0.391283
0.382316
0.373322
0.364303
0.355262
0.346203
0.337128
0.328041
0.318943
0.309839
0.30073
0.291617
0.282504
0.273391
0.264278
0.255166
0.246053
0.236939
0.227821
0.218694
0.209553
0.20039
0.191197
0.18196
0.172659
0.163271
0.153771
0.144118
0.134272
0.124177
0.113744
0.102856
0.0913656
0.0789827
0.0650447
0.047796
0.0263799
0.0402613
0.0931606
0.125308
0.151632
0.17549
0.197913
0.219339
0.240004
0.260061
0.279616
0.298749
0.317524
0.335989
0.354179
0.372125
0.389846
0.407357
0.424667
0.441782
0.458705
0.475434
0.491966
0.508298
0.524423
0.540335
0.556026
0.571487
0.586711
0.60169
0.616415
0.630879
0.645073
0.65899
0.672623
0.685966
0.699013
0.711758
0.724197
0.736326
0.74814
0.759638
0.770815
0.781671
0.792203
0.802411
0.812293
0.821851
0.831084
0.839993
0.848579
0.856842
0.864786
0.872411
0.879719
0.886713
0.893395
0.899768
0.905834
0.911595
0.917055
0.922217
0.927089
0.931674
0.935977
0.939999
0.943745
0.947219
0.950423
0.953363
0.956041
0.958461
0.960628
0.962544
0.964213
0.96564
0.966828
0.96778
0.968501
0.968993
0.969261
0.969307
0.969137
0.968752
0.968156
0.967353
0.966346
0.965139
0.963734
0.962135
0.960346
0.958368
0.956206
0.953862
0.951339
0.948641
0.945769
0.942728
0.939519
0.936146
0.932611
0.928916
0.925064
0.921058
0.916901
0.912593
0.908138
0.903538
0.898795
0.893911
0.888888
0.883728
0.878433
0.873005
0.867445
0.861755
0.855936
0.849991
0.843921
0.837726
0.83141
0.824972
0.818414
0.811737
0.804943
0.798033
0.791007
0.783867
0.776615
0.76925
0.761775
0.75419
0.746496
0.738694
0.730787
0.722774
0.714657
0.706437
0.698115
0.689693
0.681172
0.672554
0.66384
0.655032
0.64613
0.637138
0.628057
0.618889
0.609635
0.600299
0.590882
0.581387
0.571815
0.562171
0.552456
0.542674
0.532826
0.522917
0.512949
0.502926
0.49285
0.482726
0.472556
0.462345
0.452096
0.441812
0.431498
0.421156
0.41079
0.400404
0.390002
0.379586
0.36916
0.358726
0.348287
0.337846
0.327404
0.316962
0.306522
0.296082
0.285644
0.275204
0.264761
0.254309
0.243844
0.233357
0.222839
0.212276
0.201651
0.190941
0.180119
0.169152
0.157994
0.146586
0.134843
0.122652
0.109831
0.0960771
0.0806989
0.0617736
0.0354042
0.0402639
0.0931628
0.125309
0.151632
0.17549
0.197913
0.219338
0.240004
0.26006
0.279615
0.298749
0.317523
0.335988
0.354178
0.372124
0.389845
0.407355
0.424666
0.441781
0.458703
0.475432
0.491965
0.508297
0.524422
0.540333
0.556024
0.571485
0.58671
0.601688
0.616414
0.630877
0.645071
0.658988
0.672621
0.685964
0.699011
0.711756
0.724195
0.736324
0.748138
0.759635
0.770813
0.781668
0.7922
0.802408
0.812291
0.821849
0.831082
0.839991
0.848576
0.85684
0.864783
0.872408
0.879716
0.886711
0.893393
0.899765
0.905831
0.911592
0.917053
0.922215
0.927087
0.931672
0.935974
0.939996
0.943742
0.947216
0.950421
0.95336
0.956038
0.958459
0.960625
0.962541
0.964211
0.965638
0.966825
0.967778
0.968498
0.968991
0.969258
0.969305
0.969134
0.968749
0.968153
0.967351
0.966344
0.965136
0.963732
0.962133
0.960343
0.958366
0.956203
0.95386
0.951337
0.948638
0.945767
0.942726
0.939517
0.936144
0.932608
0.928914
0.925062
0.921056
0.916898
0.912591
0.908136
0.903536
0.898793
0.893909
0.888886
0.883726
0.878431
0.873003
0.867443
0.861753
0.855934
0.849989
0.843919
0.837724
0.831408
0.82497
0.818412
0.811735
0.804941
0.798031
0.791005
0.783865
0.776613
0.769248
0.761773
0.754188
0.746494
0.738693
0.730785
0.722772
0.714655
0.706435
0.698113
0.689692
0.681171
0.672553
0.663838
0.65503
0.646129
0.637137
0.628055
0.618887
0.609634
0.600297
0.59088
0.581385
0.571814
0.56217
0.552455
0.542672
0.532825
0.522915
0.512948
0.502924
0.492849
0.482725
0.472555
0.462344
0.452095
0.441811
0.431497
0.421155
0.410789
0.400403
0.390001
0.379585
0.369159
0.358725
0.348286
0.337845
0.327403
0.316961
0.306521
0.296082
0.285643
0.275204
0.26476
0.254309
0.243843
0.233357
0.222839
0.212276
0.20165
0.19094
0.180119
0.169151
0.157994
0.146586
0.134843
0.122652
0.109831
0.0960772
0.0807007
0.0617787
0.0354083
0.0483739
0.110448
0.146803
0.175903
0.201997
0.226427
0.249755
0.272268
0.294137
0.315477
0.336371
0.356881
0.377055
0.396931
0.416537
0.435894
0.455018
0.47392
0.492604
0.511075
0.529331
0.547371
0.56519
0.582783
0.600143
0.617263
0.634134
0.650748
0.667097
0.683172
0.698965
0.714468
0.729674
0.744574
0.759162
0.773432
0.787378
0.800995
0.814277
0.827222
0.839825
0.852084
0.863996
0.875559
0.886772
0.897634
0.908144
0.918303
0.928111
0.937569
0.946677
0.955437
0.963852
0.971922
0.97965
0.987038
0.99409
1.00081
1.00719
1.01325
1.01898
1.02439
1.02949
1.03428
1.03876
1.04293
1.04681
1.05039
1.05368
1.05668
1.05939
1.06183
1.06399
1.06588
1.0675
1.06886
1.06995
1.0708
1.07138
1.07172
1.07182
1.07167
1.07129
1.07068
1.06983
1.06876
1.06747
1.06596
1.06423
1.06229
1.06015
1.0578
1.05524
1.05249
1.04955
1.04641
1.04308
1.03957
1.03587
1.032
1.02795
1.02372
1.01933
1.01476
1.01003
1.00513
1.00008
0.994861
0.989489
0.983963
0.978284
0.972456
0.966479
0.960357
0.95409
0.947681
0.941131
0.934442
0.927615
0.920653
0.913556
0.906326
0.898965
0.891474
0.883853
0.876106
0.868232
0.860232
0.85211
0.843864
0.835497
0.827011
0.818405
0.809682
0.800842
0.791888
0.78282
0.773641
0.764351
0.754952
0.745445
0.735833
0.726118
0.7163
0.706383
0.696368
0.686257
0.676053
0.665758
0.655375
0.644907
0.634355
0.623723
0.613014
0.602232
0.591379
0.580458
0.569474
0.55843
0.547328
0.536174
0.524971
0.513723
0.502434
0.491107
0.479747
0.468357
0.456942
0.445504
0.434049
0.422579
0.411097
0.399607
0.388111
0.376613
0.365112
0.353612
0.342113
0.330616
0.319118
0.30762
0.296117
0.284607
0.273084
0.26154
0.249965
0.238348
0.226672
0.214916
0.203054
0.191054
0.178871
0.166444
0.153686
0.140463
0.126548
0.111544
0.0945066
0.0724841
0.0325894
0.0483763
0.110451
0.146804
0.175903
0.201997
0.226427
0.249754
0.272267
0.294136
0.315476
0.33637
0.35688
0.377054
0.39693
0.416535
0.435893
0.455017
0.473918
0.492603
0.511073
0.52933
0.54737
0.565189
0.582782
0.600142
0.617261
0.634132
0.650746
0.667095
0.68317
0.698964
0.714467
0.729672
0.744572
0.75916
0.77343
0.787376
0.800993
0.814275
0.82722
0.839823
0.852082
0.863994
0.875557
0.88677
0.897632
0.908142
0.918301
0.928109
0.937566
0.946675
0.955435
0.963849
0.97192
0.979648
0.987036
0.994088
1.0008
1.00719
1.01325
1.01898
1.02439
1.02949
1.03427
1.03875
1.04293
1.0468
1.05039
1.05367
1.05667
1.05939
1.06183
1.06399
1.06588
1.0675
1.06886
1.06995
1.07079
1.07138
1.07172
1.07182
1.07167
1.07129
1.07067
1.06983
1.06876
1.06747
1.06596
1.06423
1.06229
1.06014
1.05779
1.05524
1.05249
1.04954
1.04641
1.04308
1.03957
1.03587
1.032
1.02795
1.02372
1.01932
1.01476
1.01003
1.00513
1.00007
0.994859
0.989487
0.983961
0.978283
0.972454
0.966478
0.960355
0.954088
0.947679
0.941129
0.93444
0.927613
0.920651
0.913554
0.906325
0.898963
0.891472
0.883852
0.876104
0.86823
0.860231
0.852108
0.843863
0.835496
0.827009
0.818403
0.80968
0.800841
0.791887
0.782819
0.773639
0.764349
0.75495
0.745444
0.735832
0.726116
0.716299
0.706382
0.696367
0.686256
0.676052
0.665757
0.655374
0.644905
0.634354
0.623722
0.613013
0.602231
0.591378
0.580457
0.569473
0.558429
0.547327
0.536173
0.52497
0.513722
0.502433
0.491106
0.479746
0.468356
0.456941
0.445503
0.434048
0.422578
0.411096
0.399606
0.388111
0.376612
0.365112
0.353612
0.342113
0.330615
0.319118
0.307619
0.296117
0.284607
0.273083
0.261539
0.249965
0.238348
0.226671
0.214915
0.203054
0.191054
0.178871
0.166444
0.153686
0.140462
0.126548
0.111542
0.0945053
0.072485
0.0325874
0.0560317
0.126737
0.167244
0.199078
0.227315
0.2536
0.278632
0.30276
0.326188
0.349044
0.371418
0.393375
0.414967
0.43623
0.457195
0.477884
0.498314
0.518496
0.538437
0.55814
0.577608
0.596838
0.615828
0.634572
0.653064
0.671297
0.689265
0.706958
0.72437
0.741491
0.758314
0.774831
0.791034
0.806916
0.822469
0.837689
0.852568
0.867102
0.881286
0.895115
0.908585
0.921694
0.934438
0.946816
0.958826
0.970467
0.981738
0.992638
1.00317
1.01333
1.02312
1.03255
1.0416
1.0503
1.05863
1.0666
1.07421
1.08147
1.08838
1.09494
1.10115
1.10702
1.11255
1.11775
1.12263
1.12717
1.1314
1.13531
1.13891
1.14219
1.14518
1.14786
1.15024
1.15234
1.15414
1.15566
1.1569
1.15786
1.15856
1.15898
1.15914
1.15904
1.15868
1.15807
1.15722
1.15612
1.15478
1.1532
1.15139
1.14935
1.14709
1.1446
1.14189
1.13897
1.13584
1.1325
1.12896
1.12521
1.12127
1.11713
1.1128
1.10828
1.10357
1.09868
1.09361
1.08837
1.08295
1.07735
1.07159
1.06565
1.05956
1.05329
1.04687
1.04029
1.03356
1.02666
1.01962
1.01242
1.00508
0.997587
0.989949
0.982167
0.974242
0.966175
0.957969
0.949625
0.941144
0.932527
0.923776
0.914892
0.905877
0.896732
0.887459
0.878058
0.868532
0.858882
0.849109
0.839215
0.829202
0.819071
0.808825
0.798465
0.787993
0.777412
0.766723
0.755928
0.745031
0.734034
0.722939
0.711749
0.700467
0.689096
0.67764
0.666101
0.654482
0.642789
0.631022
0.619188
0.607289
0.59533
0.583313
0.571245
0.559127
0.546966
0.534764
0.522526
0.510256
0.497958
0.485636
0.473293
0.460934
0.448562
0.436179
0.423789
0.411394
0.398996
0.386597
0.374197
0.361797
0.349396
0.336992
0.324584
0.312167
0.299737
0.287287
0.274807
0.262286
0.249709
0.237056
0.224303
0.211416
0.19835
0.18504
0.171389
0.157242
0.142334
0.126154
0.107564
0.0830539
0.0376373
0.0560345
0.126739
0.167245
0.199078
0.227314
0.253599
0.278631
0.302759
0.326187
0.349043
0.371417
0.393374
0.414965
0.436229
0.457194
0.477883
0.498313
0.518494
0.538435
0.558139
0.577607
0.596837
0.615826
0.63457
0.653062
0.671295
0.689263
0.706957
0.724368
0.741489
0.758312
0.774829
0.791032
0.806914
0.822468
0.837687
0.852567
0.867101
0.881284
0.895113
0.908583
0.921692
0.934436
0.946815
0.958825
0.970465
0.981736
0.992636
1.00317
1.01333
1.02312
1.03254
1.0416
1.0503
1.05863
1.0666
1.07421
1.08147
1.08838
1.09494
1.10115
1.10702
1.11255
1.11775
1.12262
1.12717
1.1314
1.13531
1.1389
1.14219
1.14517
1.14786
1.15024
1.15233
1.15414
1.15566
1.1569
1.15786
1.15855
1.15898
1.15914
1.15904
1.15868
1.15807
1.15722
1.15612
1.15478
1.1532
1.15139
1.14935
1.14708
1.1446
1.14189
1.13897
1.13584
1.1325
1.12896
1.12521
1.12127
1.11713
1.1128
1.10828
1.10357
1.09868
1.09361
1.08837
1.08294
1.07735
1.07158
1.06565
1.05955
1.05329
1.04687
1.04029
1.03355
1.02666
1.01962
1.01242
1.00508
0.997586
0.989948
0.982165
0.97424
0.966174
0.957968
0.949624
0.941142
0.932526
0.923775
0.914891
0.905876
0.896731
0.887458
0.878057
0.868531
0.858881
0.849108
0.839214
0.829201
0.81907
0.808824
0.798464
0.787992
0.777411
0.766721
0.755927
0.74503
0.734033
0.722938
0.711748
0.700466
0.689096
0.677639
0.6661
0.654482
0.642788
0.631022
0.619187
0.607288
0.595329
0.583313
0.571244
0.559127
0.546965
0.534763
0.522525
0.510255
0.497957
0.485635
0.473292
0.460933
0.448561
0.436178
0.423788
0.411393
0.398996
0.386596
0.374196
0.361796
0.349395
0.336992
0.324584
0.312167
0.299737
0.287286
0.274806
0.262285
0.249708
0.237056
0.224303
0.211416
0.19835
0.18504
0.171389
0.157242
0.142334
0.126155
0.107565
0.0830555
0.0376363
0.0634597
0.142481
0.187077
0.221637
0.251996
0.280084
0.306733
0.332361
0.357209
0.381425
0.40511
0.428336
0.451157
0.473615
0.495741
0.517558
0.539086
0.560336
0.581318
0.602038
0.622496
0.642695
0.66263
0.6823
0.701698
0.72082
0.739659
0.758207
0.776458
0.794404
0.812037
0.82935
0.846337
0.86299
0.879302
0.895269
0.910883
0.926139
0.941034
0.955562
0.96972
0.983505
0.996913
1.00994
1.02259
1.03486
1.04674
1.05825
1.06936
1.0801
1.09045
1.10042
1.11001
1.11923
1.12806
1.13652
1.14461
1.15232
1.15967
1.16666
1.17328
1.17955
1.18546
1.19102
1.19623
1.20111
1.20565
1.20985
1.21372
1.21727
1.2205
1.2234
1.226
1.22828
1.23026
1.23194
1.23332
1.23441
1.23521
1.23573
1.23596
1.23592
1.23561
1.23503
1.23418
1.23308
1.23171
1.2301
1.22824
1.22613
1.22379
1.22121
1.21839
1.21535
1.21207
1.20858
1.20487
1.20094
1.19681
1.19246
1.18791
1.18315
1.1782
1.17305
1.16771
1.16217
1.15645
1.15055
1.14446
1.13819
1.13175
1.12513
1.11834
1.11138
1.10425
1.09696
1.0895
1.08188
1.0741
1.06617
1.05808
1.04983
1.04143
1.03288
1.02418
1.01533
1.00633
0.997192
0.987909
0.978484
0.968918
0.959214
0.949373
0.939395
0.929284
0.919041
0.908667
0.898164
0.887534
0.876778
0.8659
0.8549
0.843782
0.832546
0.821197
0.809735
0.798165
0.786488
0.774707
0.762825
0.750846
0.738773
0.726608
0.714356
0.702019
0.689603
0.677109
0.664544
0.651909
0.63921
0.626451
0.613635
0.600767
0.587852
0.574893
0.561895
0.548862
0.535798
0.522707
0.509593
0.496459
0.483309
0.470145
0.456972
0.44379
0.430603
0.417411
0.404215
0.391017
0.377814
0.364607
0.351393
0.338168
0.324927
0.311666
0.298374
0.285042
0.271654
0.258193
0.244633
0.230939
0.217064
0.202936
0.188446
0.173417
0.157541
0.140221
0.120135
0.093294
0.0426066
0.0634626
0.142484
0.187078
0.221637
0.251996
0.280083
0.306732
0.33236
0.357208
0.381423
0.405108
0.428335
0.451156
0.473614
0.495739
0.517557
0.539084
0.560335
0.581317
0.602036
0.622495
0.642693
0.662629
0.682298
0.701697
0.720819
0.739657
0.758205
0.776456
0.794402
0.812035
0.829349
0.846335
0.862988
0.879301
0.895267
0.910881
0.926138
0.941032
0.95556
0.969718
0.983503
0.996911
1.00994
1.02259
1.03486
1.04674
1.05824
1.06936
1.0801
1.09045
1.10042
1.11001
1.11922
1.12806
1.13652
1.14461
1.15232
1.15967
1.16666
1.17328
1.17954
1.18545
1.19102
1.19623
1.20111
1.20564
1.20985
1.21372
1.21727
1.22049
1.2234
1.226
1.22828
1.23026
1.23194
1.23332
1.23441
1.23521
1.23572
1.23596
1.23592
1.23561
1.23502
1.23418
1.23307
1.23171
1.2301
1.22824
1.22613
1.22379
1.2212
1.21839
1.21534
1.21207
1.20858
1.20487
1.20094
1.1968
1.19246
1.1879
1.18315
1.1782
1.17305
1.1677
1.16217
1.15645
1.15055
1.14446
1.13819
1.13175
1.12513
1.11834
1.11138
1.10425
1.09696
1.0895
1.08188
1.0741
1.06617
1.05807
1.04983
1.04143
1.03288
1.02417
1.01533
1.00633
0.997191
0.987908
0.978482
0.968917
0.959213
0.949372
0.939394
0.929283
0.91904
0.908666
0.898163
0.887533
0.876777
0.865899
0.854899
0.843781
0.832545
0.821196
0.809735
0.798164
0.786487
0.774706
0.762824
0.750845
0.738772
0.726607
0.714355
0.702019
0.689602
0.677109
0.664543
0.651908
0.639209
0.62645
0.613634
0.600767
0.587851
0.574893
0.561895
0.548862
0.535797
0.522706
0.509592
0.496458
0.483308
0.470145
0.456971
0.44379
0.430602
0.41741
0.404215
0.391016
0.377814
0.364607
0.351392
0.338167
0.324927
0.311665
0.298374
0.285041
0.271654
0.258193
0.244632
0.230939
0.217064
0.202936
0.188446
0.173417
0.157541
0.140221
0.120136
0.0932948
0.0426064
0.0707064
0.15791
0.206562
0.243858
0.276347
0.306226
0.334455
0.361524
0.387713
0.413194
0.438083
0.46246
0.486385
0.509903
0.53305
0.55585
0.578326
0.600492
0.622358
0.643932
0.665219
0.686219
0.706933
0.727358
0.747492
0.76733
0.786867
0.806097
0.825015
0.843613
0.861886
0.879827
0.897429
0.914687
0.931595
0.948147
0.964337
0.980162
0.995616
1.0107
1.0254
1.03972
1.05365
1.0672
1.08036
1.09313
1.10551
1.1175
1.1291
1.1403
1.15111
1.16153
1.17156
1.18121
1.19046
1.19933
1.20782
1.21592
1.22365
1.231
1.23797
1.24458
1.25082
1.25669
1.26221
1.26738
1.27219
1.27666
1.28078
1.28456
1.28801
1.29112
1.29391
1.29638
1.29852
1.30035
1.30187
1.30309
1.304
1.30461
1.30493
1.30496
1.3047
1.30416
1.30334
1.30225
1.30089
1.29927
1.29738
1.29523
1.29284
1.29019
1.2873
1.28416
1.28079
1.27718
1.27334
1.26927
1.26498
1.26047
1.25574
1.2508
1.24565
1.24029
1.23472
1.22896
1.22299
1.21683
1.21048
1.20394
1.19721
1.19029
1.18319
1.17591
1.16846
1.16083
1.15302
1.14504
1.1369
1.12858
1.1201
1.11146
1.10266
1.09369
1.08457
1.07529
1.06586
1.05627
1.04653
1.03664
1.0266
1.01642
1.00609
0.995612
0.984997
0.974242
0.963349
0.95232
0.941156
0.929861
0.918435
0.906882
0.895203
0.883402
0.871479
0.859439
0.847284
0.835016
0.822639
0.810156
0.797571
0.784885
0.772104
0.75923
0.746267
0.73322
0.720092
0.706886
0.693608
0.680262
0.666851
0.65338
0.639853
0.626275
0.61265
0.598981
0.585274
0.571532
0.55776
0.54396
0.530137
0.516293
0.502432
0.488557
0.474669
0.460771
0.446864
0.432949
0.419027
0.405096
0.391156
0.377204
0.363239
0.349255
0.335246
0.321204
0.30712
0.292979
0.278762
0.264444
0.249987
0.23534
0.220423
0.205114
0.189212
0.172369
0.153912
0.132328
0.103171
0.0473378
0.0707095
0.157912
0.206563
0.243858
0.276346
0.306225
0.334454
0.361523
0.387712
0.413193
0.438081
0.462458
0.486383
0.509902
0.533048
0.555849
0.578325
0.60049
0.622357
0.643931
0.665217
0.686217
0.706931
0.727357
0.747491
0.767329
0.786866
0.806096
0.825013
0.843612
0.861884
0.879825
0.897428
0.914686
0.931593
0.948145
0.964336
0.98016
0.995614
1.01069
1.02539
1.03971
1.05365
1.0672
1.08036
1.09313
1.10551
1.1175
1.12909
1.1403
1.15111
1.16153
1.17156
1.1812
1.19046
1.19933
1.20781
1.21592
1.22364
1.23099
1.23797
1.24458
1.25082
1.25669
1.26221
1.26738
1.27219
1.27665
1.28078
1.28456
1.28801
1.29112
1.29391
1.29638
1.29852
1.30035
1.30187
1.30308
1.304
1.30461
1.30493
1.30495
1.3047
1.30416
1.30334
1.30225
1.30089
1.29926
1.29738
1.29523
1.29284
1.29019
1.28729
1.28416
1.28079
1.27718
1.27334
1.26927
1.26498
1.26047
1.25574
1.2508
1.24565
1.24029
1.23472
1.22896
1.22299
1.21683
1.21048
1.20394
1.1972
1.19029
1.18319
1.17591
1.16846
1.16082
1.15302
1.14504
1.1369
1.12858
1.1201
1.11146
1.10266
1.09369
1.08457
1.07529
1.06586
1.05627
1.04653
1.03664
1.0266
1.01641
1.00608
0.995611
0.984996
0.974241
0.963348
0.952319
0.941155
0.92986
0.918434
0.906881
0.895203
0.883401
0.871478
0.859438
0.847283
0.835015
0.822639
0.810156
0.79757
0.784884
0.772103
0.759229
0.746267
0.733219
0.720091
0.706886
0.693608
0.680261
0.66685
0.653379
0.639853
0.626275
0.612649
0.598981
0.585274
0.571532
0.557759
0.543959
0.530136
0.516293
0.502432
0.488556
0.474669
0.460771
0.446864
0.432949
0.419026
0.405096
0.391156
0.377204
0.363239
0.349254
0.335245
0.321204
0.30712
0.292979
0.278762
0.264444
0.249987
0.23534
0.220423
0.205114
0.189213
0.17237
0.153912
0.132329
0.103171
0.0473378
0.0778593
0.173172
0.225876
0.265929
0.300566
0.332243
0.362041
0.390523
0.418007
0.444694
0.470714
0.496161
0.5211
0.545583
0.569647
0.593324
0.616636
0.6396
0.66223
0.684536
0.706523
0.728196
0.749556
0.770604
0.791338
0.811756
0.831854
0.851628
0.871074
0.890186
0.90896
0.92739
0.945472
0.963199
0.980568
0.997573
1.01421
1.03047
1.04636
1.06187
1.07699
1.09173
1.10608
1.12004
1.1336
1.14677
1.15954
1.17192
1.1839
1.19548
1.20666
1.21745
1.22784
1.23784
1.24744
1.25665
1.26547
1.2739
1.28194
1.2896
1.29688
1.30378
1.3103
1.31645
1.32224
1.32765
1.33271
1.33741
1.34176
1.34575
1.3494
1.35271
1.35567
1.35831
1.36061
1.36258
1.36424
1.36557
1.36659
1.3673
1.36771
1.36781
1.36762
1.36713
1.36636
1.36529
1.36395
1.36233
1.36044
1.35828
1.35585
1.35316
1.35022
1.34702
1.34357
1.33988
1.33594
1.33177
1.32736
1.32272
1.31786
1.31277
1.30745
1.30192
1.29618
1.29022
1.28406
1.27769
1.27112
1.26434
1.25737
1.25021
1.24285
1.23531
1.22758
1.21966
1.21156
1.20328
1.19482
1.18619
1.17738
1.1684
1.15925
1.14994
1.14045
1.1308
1.12099
1.11102
1.10088
1.09059
1.08015
1.06955
1.0588
1.04789
1.03684
1.02564
1.0143
1.00281
0.991186
0.979421
0.96752
0.955484
0.943318
0.931022
0.9186
0.906054
0.893388
0.880604
0.867706
0.854696
0.841578
0.828356
0.815034
0.801614
0.788101
0.774498
0.76081
0.747041
0.733195
0.719276