/*--------------------------------*- C++ -*----------------------------------*\
  =========                 |
  \\      /  F ield         | OpenFOAM: The Open Source CFD Toolbox
   \\    /   O peration     | Website:  https://openfoam.org
    \\  /    A nd           | Version:  8
     \\/     M anipulation  |
\*---------------------------------------------------------------------------*/
FoamFile
{
    version     2.0;
    format      ascii;
    class       volScalarField;
    location    "1300";
    object      nut;
}
// * * * * * * * * * * * * * * * * * * * * * * * * * * * * * * * * * * * * * //

dimensions      [0 2 -1 0 0 0 0];

internalField   nonuniform List<scalar> 
48000
(
4.80047e-05
3.40233e-05
5.76374e-05
6.58959e-05
7.2646e-05
7.82634e-05
8.32159e-05
8.76397e-05
9.16685e-05
9.53954e-05
9.88786e-05
0.000102161
0.000105273
0.000108239
0.000111077
0.000113802
0.000116425
0.000118954
0.000121397
0.00012376
0.000126047
0.000128262
0.000130409
0.00013249
0.000134508
0.000136465
0.000138362
0.000140201
0.000141984
0.000143711
0.000145385
0.000147005
0.000148574
0.000150092
0.000151561
0.00015298
0.000154352
0.000155677
0.000156956
0.00015819
0.00015938
0.000160526
0.00016163
0.000162692
0.000163714
0.000164696
0.000165639
0.000166544
0.000167411
0.000168241
0.000169036
0.000169796
0.000170521
0.000171212
0.000171871
0.000172497
0.000173091
0.000173653
0.000174188
0.000174694
0.000175172
0.000175622
0.000176043
0.000176438
0.000176805
0.000177146
0.000177461
0.000177751
0.000178017
0.000178257
0.000178474
0.000178667
0.000178838
0.000178985
0.000179111
0.000179214
0.000179296
0.000179357
0.000179397
0.000179417
0.000179416
0.000179396
0.000179356
0.000179297
0.00017922
0.000179123
0.000179008
0.000178875
0.000178725
0.000178556
0.00017837
0.000178167
0.000177948
0.000177711
0.000177458
0.000177188
0.000176903
0.000176601
0.000176283
0.00017595
0.000175601
0.000175237
0.000174858
0.000174463
0.000174054
0.00017363
0.00017319
0.000172736
0.000172268
0.000171784
0.000171287
0.000170774
0.000170247
0.000169706
0.00016915
0.00016858
0.000167996
0.000167397
0.000166783
0.000166155
0.000165512
0.000164855
0.000164183
0.000163497
0.000162795
0.000162079
0.000161347
0.000160601
0.000159839
0.000159062
0.000158269
0.00015746
0.000156636
0.000155796
0.00015494
0.000154067
0.000153179
0.000152273
0.000151351
0.000150412
0.000149456
0.000148482
0.000147491
0.000146483
0.000145456
0.000144412
0.000143349
0.000142268
0.000141168
0.000140049
0.000138912
0.000137755
0.000136579
0.000135383
0.000134167
0.000132932
0.000131676
0.000130399
0.000129102
0.000127784
0.000126445
0.000125085
0.000123702
0.000122298
0.000120872
0.000119423
0.000117952
0.000116457
0.000114939
0.000113396
0.000111829
0.000110237
0.000108619
0.000106975
0.000105303
0.000103603
0.000101873
0.000100112
9.83194e-05
9.64919e-05
9.46277e-05
9.27241e-05
9.07779e-05
8.87857e-05
8.67448e-05
8.4652e-05
8.25208e-05
8.03221e-05
7.80301e-05
7.56304e-05
7.30969e-05
7.03958e-05
6.74796e-05
6.42881e-05
6.07521e-05
5.6521e-05
5.04531e-05
3.53803e-05
0.000202875
0.000141119
4.7903e-05
3.40416e-05
5.7635e-05
6.58959e-05
7.26471e-05
7.82646e-05
8.32171e-05
8.76409e-05
9.16696e-05
9.53964e-05
9.88796e-05
0.000102161
0.000105274
0.00010824
0.000111078
0.000113803
0.000116425
0.000118955
0.000121398
0.00012376
0.000126047
0.000128263
0.000130409
0.00013249
0.000134508
0.000136465
0.000138362
0.000140201
0.000141984
0.000143711
0.000145385
0.000147005
0.000148574
0.000150092
0.000151561
0.00015298
0.000154352
0.000155677
0.000156956
0.00015819
0.00015938
0.000160526
0.00016163
0.000162692
0.000163714
0.000164696
0.000165639
0.000166543
0.000167411
0.000168241
0.000169036
0.000169796
0.000170521
0.000171212
0.000171871
0.000172497
0.000173091
0.000173653
0.000174188
0.000174694
0.000175172
0.000175622
0.000176043
0.000176438
0.000176805
0.000177146
0.000177461
0.000177751
0.000178016
0.000178257
0.000178474
0.000178667
0.000178837
0.000178985
0.00017911
0.000179214
0.000179296
0.000179357
0.000179397
0.000179417
0.000179416
0.000179396
0.000179356
0.000179297
0.000179219
0.000179123
0.000179008
0.000178875
0.000178724
0.000178556
0.00017837
0.000178167
0.000177947
0.000177711
0.000177458
0.000177188
0.000176902
0.000176601
0.000176283
0.00017595
0.000175601
0.000175237
0.000174858
0.000174463
0.000174054
0.000173629
0.00017319
0.000172736
0.000172267
0.000171784
0.000171286
0.000170774
0.000170247
0.000169706
0.00016915
0.00016858
0.000167995
0.000167396
0.000166783
0.000166155
0.000165512
0.000164855
0.000164183
0.000163496
0.000162795
0.000162079
0.000161347
0.0001606
0.000159839
0.000159061
0.000158269
0.00015746
0.000156636
0.000155796
0.00015494
0.000154067
0.000153178
0.000152273
0.000151351
0.000150412
0.000149456
0.000148482
0.000147491
0.000146483
0.000145456
0.000144412
0.000143349
0.000142268
0.000141168
0.000140049
0.000138912
0.000137755
0.000136579
0.000135383
0.000134167
0.000132932
0.000131676
0.000130399
0.000129102
0.000127784
0.000126445
0.000125085
0.000123702
0.000122298
0.000120872
0.000119423
0.000117952
0.000116457
0.000114938
0.000113396
0.000111829
0.000110237
0.000108619
0.000106975
0.000105303
0.000103603
0.000101873
0.000100112
9.83194e-05
9.64919e-05
9.46277e-05
9.27241e-05
9.07779e-05
8.87857e-05
8.67448e-05
8.4652e-05
8.25208e-05
8.03221e-05
7.80301e-05
7.56304e-05
7.30969e-05
7.03958e-05
6.74799e-05
6.42893e-05
6.07565e-05
5.65367e-05
5.04911e-05
3.54003e-05
0.000202766
0.000141097
3.43676e-05
0.000236876
0.000463953
0.000597043
0.000690862
0.000765964
0.000829403
0.000884944
0.000934616
0.000979718
0.00102116
0.00105961
0.00109554
0.00112935
0.0011613
0.00119163
0.00122053
0.00124813
0.00127455
0.00129991
0.00132427
0.0013477
0.00137027
0.00139203
0.00141301
0.00143326
0.00145281
0.00147169
0.00148993
0.00150754
0.00152456
0.001541
0.00155689
0.00157223
0.00158705
0.00160136
0.00161518
0.00162852
0.00164139
0.00165381
0.00166579
0.00167734
0.00168846
0.00169918
0.0017095
0.00171943
0.00172899
0.00173817
0.00174699
0.00175545
0.00176357
0.00177135
0.0017788
0.00178592
0.00179273
0.00179921
0.00180539
0.00181123
0.00181666
0.00182176
0.00182658
0.00183114
0.00183543
0.00183947
0.00184325
0.00184679
0.00185008
0.00185313
0.00185595
0.00185853
0.00186089
0.00186301
0.00186492
0.0018666
0.00186807
0.00186932
0.00187037
0.0018712
0.00187183
0.00187225
0.00187248
0.00187251
0.00187234
0.00187198
0.00187142
0.00187068
0.00186975
0.00186864
0.00186735
0.00186587
0.00186422
0.00186239
0.00186038
0.0018582
0.00185585
0.00185334
0.00185065
0.00184779
0.00184477
0.00184159
0.00183825
0.00183474
0.00183107
0.00182724
0.00182326
0.00181911
0.00181481
0.00181036
0.00180575
0.00180098
0.00179606
0.00179098
0.00178575
0.00178036
0.00177482
0.00176913
0.00176328
0.00175728
0.00175112
0.00174481
0.00173834
0.00173171
0.00172492
0.00171798
0.00171088
0.00170361
0.00169619
0.0016886
0.00168085
0.00167293
0.00166485
0.00165659
0.00164817
0.00163958
0.00163082
0.00162188
0.00161277
0.00160348
0.00159401
0.00158436
0.00157453
0.00156451
0.00155431
0.00154392
0.00153334
0.00152257
0.0015116
0.00150044
0.00148909
0.00147753
0.00146577
0.00145381
0.00144165
0.00142927
0.00141669
0.0014039
0.00139089
0.00137767
0.00136423
0.00135056
0.00133668
0.00132256
0.00130822
0.00129364
0.00127883
0.00126378
0.00124848
0.00123293
0.00121713
0.00120107
0.00118475
0.00116814
0.00115126
0.00113408
0.00111659
0.00109879
0.00108065
0.00106216
0.00104329
0.00102401
0.0010043
0.000984102
0.000963375
0.000942046
0.000920014
0.000897147
0.000873222
0.000848179
0.000821904
0.000794177
0.000764638
0.000732752
0.000697625
0.000657514
0.000609476
0.000550275
0.000471187
0.000357805
0.000263792
0.000168088
3.43758e-05
0.000236998
0.000463764
0.000597021
0.000690905
0.000766022
0.000829464
0.000885004
0.000934676
0.000979776
0.00102122
0.00105966
0.0010956
0.0011294
0.00116135
0.00119168
0.00122057
0.00124817
0.0012746
0.00129995
0.00132431
0.00134774
0.00137031
0.00139207
0.00141305
0.0014333
0.00145285
0.00147172
0.00148996
0.00150758
0.00152459
0.00154104
0.00155692
0.00157226
0.00158708
0.00160139
0.00161521
0.00162855
0.00164142
0.00165384
0.00166581
0.00167736
0.00168849
0.00169921
0.00170953
0.00171946
0.00172901
0.00173819
0.00174701
0.00175547
0.00176359
0.00177137
0.00177882
0.00178594
0.00179275
0.00179923
0.0018054
0.00181124
0.00181668
0.00182178
0.0018266
0.00183116
0.00183545
0.00183949
0.00184327
0.00184681
0.0018501
0.00185315
0.00185597
0.00185855
0.0018609
0.00186303
0.00186493
0.00186662
0.00186808
0.00186934
0.00187038
0.00187121
0.00187184
0.00187227
0.00187249
0.00187252
0.00187235
0.00187199
0.00187144
0.0018707
0.00186977
0.00186865
0.00186736
0.00186588
0.00186423
0.0018624
0.0018604
0.00185822
0.00185587
0.00185335
0.00185066
0.00184781
0.00184479
0.0018416
0.00183826
0.00183475
0.00183108
0.00182726
0.00182327
0.00181913
0.00181483
0.00181037
0.00180576
0.00180099
0.00179607
0.00179099
0.00178576
0.00178037
0.00177484
0.00176914
0.00176329
0.00175729
0.00175113
0.00174482
0.00173835
0.00173172
0.00172493
0.00171799
0.00171089
0.00170362
0.0016962
0.00168861
0.00168086
0.00167294
0.00166486
0.0016566
0.00164818
0.00163959
0.00163083
0.00162189
0.00161278
0.00160349
0.00159402
0.00158437
0.00157454
0.00156452
0.00155432
0.00154393
0.00153335
0.00152258
0.00151161
0.00150045
0.0014891
0.00147754
0.00146578
0.00145382
0.00144166
0.00142928
0.0014167
0.00140391
0.0013909
0.00137768
0.00136423
0.00135057
0.00133668
0.00132257
0.00130823
0.00129365
0.00127884
0.00126379
0.00124849
0.00123294
0.00121714
0.00120108
0.00118475
0.00116815
0.00115127
0.00113409
0.0011166
0.0010988
0.00108066
0.00106217
0.0010433
0.00102402
0.00100431
0.000984111
0.000963384
0.000942055
0.000920023
0.000897156
0.000873231
0.000848187
0.000821912
0.000794185
0.000764646
0.000732761
0.000697635
0.000657531
0.000609508
0.000550325
0.000471167
0.000357749
0.000264054
0.000167944
4.80334e-05
0.000439426
0.000805269
0.0010801
0.00129624
0.00147456
0.00162671
0.00175976
0.00187823
0.00198516
0.00208275
0.00217258
0.00225588
0.00233358
0.00240643
0.00247501
0.00253982
0.00260124
0.0026596
0.00271517
0.0027682
0.00281887
0.00286736
0.00291381
0.00295836
0.00300111
0.00304218
0.00308165
0.00311961
0.00315612
0.00319126
0.00322509
0.00325766
0.00328904
0.00331926
0.00334838
0.00337644
0.00340347
0.00342952
0.00345462
0.0034788
0.00350209
0.00352453
0.00354614
0.00356695
0.00358698
0.00360625
0.00362478
0.0036426
0.00365972
0.00367616
0.00369193
0.00370706
0.00372155
0.00373542
0.00374868
0.00376132
0.00377333
0.0037847
0.00379539
0.00380552
0.00381511
0.00382419
0.00383276
0.00384083
0.00384841
0.00385551
0.00386213
0.00386829
0.00387398
0.00387922
0.00388401
0.00388836
0.00389226
0.00389574
0.00389878
0.0039014
0.0039036
0.00390539
0.00390677
0.00390775
0.00390832
0.0039085
0.00390829
0.00390769
0.0039067
0.00390534
0.0039036
0.00390148
0.003899
0.00389615
0.00389294
0.00388937
0.00388545
0.00388117
0.00387655
0.00387157
0.00386626
0.0038606
0.0038546
0.00384827
0.0038416
0.0038346
0.00382727
0.00381961
0.00381163
0.00380332
0.00379468
0.00378572
0.00377643
0.00376683
0.0037569
0.00374665
0.00373608
0.00372518
0.00371397
0.00370243
0.00369056
0.00367838
0.00366586
0.00365302
0.00363985
0.00362635
0.00361252
0.00359836
0.00358386
0.00356902
0.00355383
0.00353831
0.00352244
0.00350622
0.00348964
0.00347271
0.00345543
0.00343778
0.00341976
0.00340138
0.00338262
0.00336348
0.00334397
0.00332407
0.00330378
0.0032831
0.00326202
0.00324054
0.00321866
0.00319636
0.00317365
0.00315052
0.00312696
0.00310297
0.00307855
0.00305368
0.00302837
0.00300261
0.00297638
0.00294969
0.00292252
0.00289488
0.00286674
0.0028381
0.00280896
0.0027793
0.00274912
0.00271839
0.0026871
0.00265525
0.00262281
0.00258977
0.0025561
0.00252178
0.00248679
0.00245109
0.00241465
0.00237744
0.00233939
0.00230047
0.00226061
0.00221973
0.00217775
0.00213456
0.00209003
0.00204401
0.0019963
0.00194665
0.00189473
0.00184015
0.00178251
0.00172127
0.00165563
0.00158448
0.00150626
0.00141867
0.00131811
0.0011991
0.00105447
0.000871254
0.000628276
0.000301229
3.83409e-05
4.80455e-05
0.000439314
0.000805165
0.00108014
0.00129635
0.00147469
0.00162684
0.0017599
0.00187836
0.0019853
0.00208287
0.0021727
0.002256
0.00233369
0.00240654
0.00247512
0.00253992
0.00260133
0.00265969
0.00271526
0.00276828
0.00281895
0.00286743
0.00291388
0.00295843
0.00300118
0.00304225
0.00308171
0.00311966
0.00315617
0.00319131
0.00322514
0.00325771
0.00328908
0.0033193
0.00334842
0.00337647
0.0034035
0.00342955
0.00345465
0.00347883
0.00350212
0.00352456
0.00354617
0.00356697
0.003587
0.00360626
0.0036248
0.00364261
0.00365973
0.00367617
0.00369195
0.00370707
0.00372157
0.00373543
0.00374869
0.00376133
0.00377334
0.00378471
0.0037954
0.00380552
0.00381512
0.00382419
0.00383276
0.00384083
0.00384841
0.00385551
0.00386214
0.00386829
0.00387399
0.00387922
0.00388401
0.00388836
0.00389226
0.00389574
0.00389878
0.0039014
0.0039036
0.00390539
0.00390677
0.00390775
0.00390832
0.0039085
0.00390829
0.00390769
0.0039067
0.00390533
0.00390359
0.00390148
0.003899
0.00389615
0.00389294
0.00388937
0.00388545
0.00388117
0.00387654
0.00387157
0.00386625
0.0038606
0.0038546
0.00384827
0.0038416
0.0038346
0.00382727
0.00381961
0.00381162
0.00380331
0.00379467
0.00378571
0.00377643
0.00376682
0.00375689
0.00374664
0.00373607
0.00372518
0.00371396
0.00370242
0.00369056
0.00367837
0.00366586
0.00365302
0.00363985
0.00362635
0.00361252
0.00359835
0.00358385
0.00356901
0.00355383
0.0035383
0.00352243
0.00350621
0.00348964
0.00347271
0.00345542
0.00343777
0.00341975
0.00340137
0.00338261
0.00336348
0.00334396
0.00332406
0.00330377
0.00328309
0.00326201
0.00324054
0.00321865
0.00319635
0.00317364
0.00315051
0.00312695
0.00310296
0.00307854
0.00305368
0.00302836
0.0030026
0.00297637
0.00294968
0.00292251
0.00289487
0.00286673
0.0028381
0.00280895
0.0027793
0.00274911
0.00271838
0.00268709
0.00265524
0.0026228
0.00258976
0.00255609
0.00252177
0.00248678
0.00245108
0.00241465
0.00237743
0.00233939
0.00230046
0.0022606
0.00221972
0.00217774
0.00213455
0.00209003
0.00204401
0.0019963
0.00194664
0.00189472
0.00184015
0.0017825
0.00172127
0.00165563
0.00158448
0.00150626
0.00141867
0.00131811
0.00119911
0.00105449
0.000871235
0.000628383
0.000300694
3.83464e-05
5.63365e-05
0.000540786
0.00103325
0.00143174
0.0017595
0.00203647
0.00227598
0.00248692
0.00267545
0.00284592
0.00300152
0.00314467
0.00327721
0.0034006
0.00351599
0.00362433
0.00372639
0.00382281
0.00391413
0.00400079
0.0040832
0.00416167
0.00423652
0.00430798
0.00437629
0.00444164
0.00450421
0.00456417
0.00462166
0.00467682
0.00472976
0.0047806
0.00482944
0.00487637
0.00492149
0.00496488
0.00500661
0.00504676
0.00508539
0.00512256
0.00515834
0.00519277
0.0052259
0.00525779
0.00528848
0.00531801
0.00534642
0.00537374
0.0054
0.00542525
0.0054495
0.00547279
0.00549513
0.00551655
0.00553707
0.0055567
0.00557545
0.00559333
0.00561032
0.00562644
0.00564168
0.00565616
0.00566988
0.00568288
0.00569515
0.00570671
0.00571757
0.00572775
0.00573725
0.00574608
0.00575425
0.00576178
0.00576865
0.0057749
0.00578051
0.0057855
0.00578988
0.00579365
0.00579682
0.0057994
0.00580138
0.00580278
0.00580361
0.00580386
0.00580355
0.00580267
0.00580125
0.00579927
0.00579674
0.00579368
0.00579008
0.00578595
0.0057813
0.00577612
0.00577043
0.00576422
0.00575751
0.00575029
0.00574257
0.00573435
0.00572563
0.00571642
0.00570672
0.00569654
0.00568587
0.00567472
0.00566309
0.00565098
0.00563839
0.00562532
0.00561178
0.00559776
0.00558327
0.0055683
0.00555285
0.00553693
0.00552053
0.00550365
0.00548629
0.00546845
0.00545012
0.00543131
0.005412
0.00539221
0.00537191
0.00535112
0.00532983
0.00530803
0.00528572
0.00526289
0.00523955
0.00521568
0.00519128
0.00516635
0.00514087
0.00511486
0.00508829
0.00506116
0.00503347
0.00500521
0.00497637
0.00494696
0.00491695
0.00488634
0.00485513
0.00482331
0.00479086
0.00475779
0.00472408
0.00468973
0.00465471
0.00461904
0.00458268
0.00454564
0.00450791
0.00446946
0.00443029
0.00439038
0.00434972
0.00430829
0.00426607
0.00422305
0.00417921
0.00413452
0.00408896
0.0040425
0.00399511
0.00394676
0.00389741
0.00384702
0.00379555
0.00374293
0.00368911
0.00363403
0.0035776
0.00351974
0.00346034
0.00339929
0.00333644
0.00327162
0.00320465
0.00313527
0.00306322
0.00298812
0.00290955
0.00282697
0.00273972
0.002647
0.00254778
0.00244067
0.0023238
0.00219465
0.0020497
0.00188404
0.00169099
0.00146183
0.00118699
0.000862798
0.000508121
0.00033439
5.63383e-05
0.000540783
0.0010333
0.00143186
0.00175967
0.00203666
0.00227617
0.00248712
0.00267565
0.00284611
0.00300171
0.00314485
0.00327739
0.00340077
0.00351616
0.00362449
0.00372655
0.00382296
0.00391427
0.00400093
0.00408332
0.0041618
0.00423663
0.00430809
0.00437639
0.00444173
0.0045043
0.00456426
0.00462174
0.00467689
0.00472983
0.00478067
0.0048295
0.00487643
0.00492155
0.00496493
0.00500666
0.0050468
0.00508543
0.0051226
0.00515837
0.0051928
0.00522593
0.00525782
0.0052885
0.00531803
0.00534643
0.00537375
0.00540002
0.00542526
0.00544951
0.00547279
0.00549513
0.00551655
0.00553707
0.0055567
0.00557545
0.00559333
0.00561032
0.00562644
0.00564168
0.00565615
0.00566988
0.00568287
0.00569514
0.0057067
0.00571756
0.00572774
0.00573724
0.00574607
0.00575424
0.00576176
0.00576864
0.00577488
0.0057805
0.00578549
0.00578987
0.00579364
0.00579681
0.00579938
0.00580137
0.00580277
0.00580359
0.00580385
0.00580353
0.00580266
0.00580123
0.00579925
0.00579673
0.00579366
0.00579007
0.00578594
0.00578128
0.00577611
0.00577041
0.00576421
0.00575749
0.00575027
0.00574255
0.00573433
0.00572561
0.0057164
0.00570671
0.00569652
0.00568585
0.0056747
0.00566307
0.00565096
0.00563837
0.0056253
0.00561176
0.00559774
0.00558325
0.00556828
0.00555283
0.00553691
0.00552051
0.00550363
0.00548627
0.00546843
0.0054501
0.00543128
0.00541198
0.00539218
0.00537189
0.0053511
0.00532981
0.00530801
0.0052857
0.00526287
0.00523953
0.00521566
0.00519126
0.00516632
0.00514085
0.00511483
0.00508826
0.00506114
0.00503345
0.00500519
0.00497635
0.00494693
0.00491692
0.00488632
0.00485511
0.00482328
0.00479084
0.00475777
0.00472406
0.0046897
0.00465469
0.00461901
0.00458266
0.00454562
0.00450788
0.00446943
0.00443026
0.00439035
0.00434969
0.00430826
0.00426605
0.00422303
0.00417919
0.0041345
0.00408894
0.00404248
0.00399509
0.00394674
0.00389739
0.003847
0.00379552
0.00374291
0.00368909
0.00363401
0.00357758
0.00351972
0.00346032
0.00339927
0.00333642
0.0032716
0.00320463
0.00313526
0.0030632
0.0029881
0.00290953
0.00282695
0.00273971
0.00264699
0.00254777
0.00244065
0.00232379
0.00219464
0.0020497
0.00188403
0.00169095
0.00146165
0.00118629
0.00086127
0.000507756
0.000334528
6.18618e-05
0.000607718
0.00119789
0.00169695
0.00211898
0.00248206
0.00279979
0.00308191
0.00333547
0.00356566
0.00377637
0.00397058
0.00415062
0.00431833
0.00447522
0.0046225
0.00476118
0.00489209
0.00501596
0.0051334
0.00524491
0.00535097
0.00545196
0.00554824
0.00564012
0.00572788
0.00581177
0.00589201
0.00596883
0.00604239
0.00611289
0.00618047
0.00624529
0.00630749
0.00636719
0.00642452
0.00647958
0.00653248
0.00658332
0.00663218
0.00667916
0.00672433
0.00676776
0.00680952
0.00684968
0.0068883
0.00692543
0.00696113
0.00699544
0.00702841
0.00706008
0.00709048
0.00711966
0.00714764
0.00717445
0.00720011
0.00722464
0.00724807
0.00727039
0.00729162
0.00731177
0.00733089
0.00734904
0.00736625
0.00738253
0.00739789
0.00741236
0.00742595
0.00743867
0.00745053
0.00746154
0.00747172
0.00748108
0.00748962
0.00749735
0.00750428
0.00751043
0.0075158
0.0075204
0.00752423
0.00752731
0.00752964
0.00753123
0.00753209
0.00753222
0.00753163
0.00753033
0.00752832
0.00752562
0.00752222
0.00751813
0.00751336
0.00750792
0.0075018
0.00749502
0.00748758
0.00747949
0.00747074
0.00746135
0.00745132
0.00744066
0.00742935
0.00741742
0.00740487
0.00739168
0.00737788
0.00736346
0.00734842
0.00733276
0.00731649
0.00729961
0.00728211
0.007264
0.00724527
0.00722593
0.00720598
0.0071854
0.00716421
0.0071424
0.00711997
0.00709691
0.00707322
0.00704889
0.00702393
0.00699833
0.00697208
0.00694518
0.00691763
0.00688941
0.00686053
0.00683097
0.00680073
0.0067698
0.00673818
0.00670585
0.00667282
0.00663907
0.00660458
0.00656937
0.00653341
0.00649669
0.00645921
0.00642096
0.00638192
0.00634209
0.00630145
0.00625999
0.0062177
0.00617456
0.00613057
0.00608571
0.00603995
0.0059933
0.00594572
0.00589721
0.00584774
0.00579729
0.00574585
0.00569338
0.00563986
0.00558527
0.00552958
0.00547274
0.00541474
0.00535552
0.00529505
0.00523327
0.00517015
0.00510561
0.00503959
0.00497202
0.00490282
0.00483189
0.00475913
0.00468443
0.00460763
0.00452859
0.00444712
0.00436301
0.00427601
0.00418582
0.00409209
0.00399439
0.00389222
0.00378493
0.00367177
0.00355179
0.00342383
0.00328639
0.00313755
0.00297483
0.00279495
0.00259361
0.0023651
0.00210196
0.00179444
0.00143116
0.00100202
0.00050901
5.15117e-05
6.18632e-05
0.000607761
0.00119799
0.00169712
0.00211918
0.00248229
0.00280003
0.00308215
0.00333572
0.00356591
0.00377661
0.00397081
0.00415085
0.00431856
0.00447544
0.00462271
0.00476138
0.00489229
0.00501615
0.00513357
0.00524508
0.00535113
0.00545211
0.00554839
0.00564026
0.00572801
0.00581189
0.00589213
0.00596894
0.0060425
0.00611298
0.00618056
0.00624538
0.00630757
0.00636727
0.00642459
0.00647965
0.00653254
0.00658337
0.00663223
0.00667921
0.00672437
0.00676779
0.00680956
0.00684971
0.00688833
0.00692546
0.00696115
0.00699546
0.00702843
0.00706009
0.00709049
0.00711967
0.00714764
0.00717445
0.00720011
0.00722465
0.00724807
0.00727039
0.00729162
0.00731177
0.00733088
0.00734903
0.00736624
0.00738252
0.00739788
0.00741235
0.00742594
0.00743866
0.00745052
0.00746153
0.00747171
0.00748106
0.0074896
0.00749733
0.00750427
0.00751041
0.00751578
0.00752038
0.00752421
0.00752729
0.00752962
0.00753121
0.00753207
0.0075322
0.00753161
0.00753031
0.0075283
0.0075256
0.00752219
0.00751811
0.00751334
0.00750789
0.00750178
0.007495
0.00748756
0.00747946
0.00747072
0.00746133
0.0074513
0.00744063
0.00742933
0.0074174
0.00740484
0.00739166
0.00737785
0.00736343
0.00734839
0.00733273
0.00731646
0.00729958
0.00728208
0.00726397
0.00724524
0.0072259
0.00720595
0.00718538
0.00716418
0.00714237
0.00711994
0.00709688
0.00707319
0.00704886
0.0070239
0.0069983
0.00697205
0.00694516
0.0069176
0.00688938
0.0068605
0.00683094
0.0068007
0.00676977
0.00673815
0.00670582
0.00667279
0.00663903
0.00660455
0.00656934
0.00653338
0.00649666
0.00645918
0.00642093
0.00638189
0.00634206
0.00630142
0.00625996
0.00621767
0.00617453
0.00613054
0.00608567
0.00603992
0.00599327
0.00594569
0.00589718
0.00584771
0.00579726
0.00574581
0.00569335
0.00563983
0.00558524
0.00552954
0.00547271
0.00541471
0.00535549
0.00529502
0.00523324
0.00517012
0.00510558
0.00503956
0.00497199
0.00490279
0.00483186
0.00475911
0.0046844
0.0046076
0.00452856
0.0044471
0.00436299
0.00427599
0.0041858
0.00409207
0.00399437
0.00389219
0.00378491
0.00367175
0.00355177
0.00342381
0.00328637
0.00313753
0.00297481
0.00279494
0.0025936
0.0023651
0.00210197
0.00179445
0.0014311
0.00100193
0.00050945
5.1533e-05
6.65809e-05
0.000660792
0.00132731
0.00190735
0.00240753
0.00284381
0.00322941
0.00357436
0.00388616
0.00417048
0.00443166
0.00467308
0.0048974
0.00510674
0.00530286
0.00548717
0.00566085
0.00582492
0.00598021
0.00612745
0.00626727
0.00640022
0.00652678
0.00664739
0.00676242
0.00687222
0.00697711
0.00707736
0.00717324
0.00726498
0.00735281
0.00743694
0.00751754
0.00759481
0.0076689
0.00773997
0.00780816
0.00787361
0.00793645
0.00799679
0.00805475
0.00811042
0.00816391
0.00821531
0.0082647
0.00831216
0.00835776
0.00840158
0.00844367
0.0084841
0.00852292
0.00856018
0.00859593
0.0086302
0.00866305
0.00869449
0.00872457
0.0087533
0.00878071
0.00880681
0.00883164
0.00885521
0.00887759
0.00889882
0.00891893
0.00893794
0.00895585
0.0089727
0.0089885
0.00900326
0.009017
0.00902973
0.00904147
0.00905222
0.00906201
0.00907083
0.00907871
0.00908565
0.00909166
0.00909675
0.00910094
0.00910422
0.00910662
0.00910813
0.00910878
0.00910856
0.00910748
0.00910556
0.00910279
0.0090992
0.00909477
0.00908953
0.00908348
0.00907663
0.00906897
0.00906053
0.0090513
0.00904129
0.0090305
0.00901895
0.00900663
0.00899355
0.00897971
0.00896512
0.00894979
0.0089337
0.00891688
0.00889931
0.008881
0.00886195
0.00884217
0.00882165
0.00880039
0.0087784
0.00875566
0.00873219
0.00870798
0.00868302
0.00865732
0.00863086
0.00860366
0.00857569
0.00854696
0.00851747
0.0084872
0.00845615
0.00842432
0.0083917
0.00835828
0.00832405
0.008289
0.00825314
0.00821644
0.00817889
0.0081405
0.00810124
0.00806112
0.0080201
0.0079782
0.00793538
0.00789165
0.00784698
0.00780137
0.0077548
0.00770725
0.00765871
0.00760917
0.0075586
0.00750698
0.00745431
0.00740056
0.00734571
0.00728973
0.00723261
0.00717432
0.00711483
0.00705412
0.00699214
0.00692888
0.0068643
0.00679835
0.006731
0.0066622
0.0065919
0.00652004
0.00644657
0.00637143
0.00629453
0.0062158
0.00613515
0.00605248
0.00596767
0.0058806
0.00579113
0.00569909
0.0056043
0.00550654
0.00540557
0.0053011
0.00519279
0.00508026
0.00496302
0.00484054
0.00471212
0.00457697
0.00443409
0.00428227
0.00412002
0.00394546
0.00375625
0.00354939
0.00332108
0.0030665
0.00277951
0.00245242
0.00207572
0.00163845
0.00113073
0.000555597
5.45617e-05
6.65824e-05
0.000660844
0.00132744
0.00190753
0.00240775
0.00284406
0.00322968
0.00357464
0.00388644
0.00417077
0.00443195
0.00467336
0.00489767
0.00510701
0.00530312
0.00548742
0.00566109
0.00582515
0.00598043
0.00612766
0.00626747
0.00640041
0.00652697
0.00664756
0.00676259
0.00687238
0.00697726
0.0070775
0.00717337
0.00726511
0.00735294
0.00743705
0.00751765
0.00759491
0.00766899
0.00774006
0.00780824
0.00787369
0.00793652
0.00799685
0.00805481
0.00811047
0.00816396
0.00821535
0.00826474
0.00831219
0.00835779
0.00840161
0.0084437
0.00848412
0.00852294
0.0085602
0.00859594
0.00863021
0.00866306
0.0086945
0.00872457
0.0087533
0.00878071
0.00880681
0.00883164
0.0088552
0.00887758
0.00889882
0.00891892
0.00893792
0.00895584
0.00897269
0.00898849
0.00900325
0.00901698
0.00902971
0.00904145
0.0090522
0.00906199
0.00907081
0.00907869
0.00908562
0.00909163
0.00909673
0.00910091
0.0091042
0.0091066
0.00910811
0.00910875
0.00910853
0.00910746
0.00910553
0.00910277
0.00909917
0.00909475
0.00908951
0.00908346
0.0090766
0.00906895
0.0090605
0.00905127
0.00904126
0.00903047
0.00901892
0.0090066
0.00899352
0.00897968
0.0089651
0.00894976
0.00893367
0.00891685
0.00889928
0.00888097
0.00886192
0.00884214
0.00882162
0.00880036
0.00877837
0.00875563
0.00873216
0.00870795
0.00868299
0.00865729
0.00863083
0.00860362
0.00857566
0.00854693
0.00851744
0.00848717
0.00845612
0.00842429
0.00839167
0.00835825
0.00832402
0.00828897
0.0082531
0.0082164
0.00817886
0.00814047
0.00810121
0.00806108
0.00802007
0.00797816
0.00793535
0.00789162
0.00784695
0.00780134
0.00775477
0.00770722
0.00765868
0.00760913
0.00755856
0.00750695
0.00745428
0.00740053
0.00734568
0.0072897
0.00723258
0.00717429
0.0071148
0.00705408
0.00699211
0.00692885
0.00686426
0.00679832
0.00673096
0.00666216
0.00659186
0.00652001
0.00644654
0.00637139
0.0062945
0.00621577
0.00613512
0.00605245
0.00596764
0.00588057
0.0057911
0.00569906
0.00560427
0.00550651
0.00540554
0.00530107
0.00519276
0.00508023
0.004963
0.00484051
0.0047121
0.00457694
0.00443406
0.00428225
0.00412
0.00394544
0.00375623
0.00354937
0.00332107
0.0030665
0.00277951
0.00245242
0.00207573
0.00163845
0.00113074
0.000555726
5.45659e-05
7.08609e-05
0.000706501
0.00143534
0.00208167
0.00264688
0.00314509
0.00358902
0.00398868
0.00435182
0.00468436
0.00499094
0.00527519
0.00554
0.0057877
0.00602021
0.00623908
0.00644565
0.00664101
0.00682612
0.00700178
0.00716871
0.00732752
0.00747877
0.00762294
0.00776046
0.00789174
0.00801714
0.00813697
0.00825155
0.00836116
0.00846605
0.00856646
0.00866263
0.00875477
0.00884306
0.0089277
0.00900886
0.0090867
0.00916139
0.00923305
0.00930183
0.00936787
0.00943126
0.00949213
0.00955059
0.00960673
0.00966064
0.0097124
0.0097621
0.00980982
0.00985561
0.00989955
0.00994169
0.00998208
0.0100208
0.0100578
0.0100933
0.0101271
0.0101594
0.0101902
0.0102196
0.0102474
0.0102739
0.010299
0.0103228
0.0103453
0.0103665
0.0103865
0.0104053
0.0104228
0.0104392
0.0104543
0.0104684
0.0104813
0.010493
0.0105037
0.0105132
0.0105217
0.0105291
0.0105354
0.0105407
0.010545
0.0105482
0.0105504
0.0105516
0.0105517
0.010551
0.0105492
0.0105464
0.0105427
0.0105381
0.0105325
0.010526
0.0105185
0.0105101
0.0105008
0.0104906
0.0104796
0.0104676
0.0104547
0.010441
0.0104263
0.0104108
0.0103945
0.0103773
0.0103592
0.0103402
0.0103205
0.0102998
0.0102783
0.010256
0.0102328
0.0102088
0.0101839
0.0101582
0.0101316
0.0101041
0.0100758
0.0100467
0.0100167
0.00998578
0.00995402
0.00992138
0.00988785
0.00985344
0.00981812
0.0097819
0.00974476
0.00970669
0.0096677
0.00962776
0.00958686
0.009545
0.00950216
0.00945834
0.00941351
0.00936767
0.0093208
0.00927288
0.00922391
0.00917386
0.00912272
0.00907047
0.0090171
0.00896258
0.00890689
0.00885003
0.00879195
0.00873264
0.00867208
0.00861024
0.00854709
0.00848261
0.00841677
0.00834952
0.00828085
0.0082107
0.00813905
0.00806584
0.00799104
0.0079146
0.00783645
0.00775655
0.00767482
0.00759121
0.00750562
0.00741799
0.0073282
0.00723618
0.00714178
0.00704491
0.00694539
0.00684309
0.00673782
0.00662936
0.0065175
0.00640196
0.00628243
0.00615856
0.00602994
0.00589606
0.00575636
0.00561016
0.00545663
0.00529479
0.00512346
0.00494119
0.0047462
0.00453631
0.00430881
0.00406033
0.0037867
0.00348271
0.00314197
0.00275671
0.00231773
0.00181484
0.00123964
0.000599672
5.8024e-05
7.08625e-05
0.000706556
0.00143547
0.00208186
0.00264711
0.00314536
0.0035893
0.00398898
0.00435212
0.00468467
0.00499125
0.0052755
0.0055403
0.005788
0.00602049
0.00623936
0.00644592
0.00664127
0.00682637
0.00700202
0.00716894
0.00732775
0.00747898
0.00762314
0.00776066
0.00789193
0.00801731
0.00813714
0.00825171
0.00836131
0.00846619
0.0085666
0.00866276
0.00875488
0.00884317
0.0089278
0.00900895
0.00908679
0.00916147
0.00923313
0.0093019
0.00936793
0.00943132
0.00949219
0.00955064
0.00960677
0.00966068
0.00971244
0.00976214
0.00980985
0.00985564
0.00989957
0.0099417