/*--------------------------------*- C++ -*----------------------------------*\
  =========                 |
  \\      /  F ield         | OpenFOAM: The Open Source CFD Toolbox
   \\    /   O peration     | Website:  https://openfoam.org
    \\  /    A nd           | Version:  8
     \\/     M anipulation  |
\*---------------------------------------------------------------------------*/
FoamFile
{
    version     2.0;
    format      ascii;
    class       volScalarField;
    location    "3100";
    object      alphat;
}
// * * * * * * * * * * * * * * * * * * * * * * * * * * * * * * * * * * * * * //

dimensions      [1 -1 -1 0 0 0 0];

internalField   nonuniform List<scalar> 
46000
(
6.69842e-07
3.03624e-06
5.78663e-06
8.36916e-06
1.08143e-05
1.31837e-05
1.55028e-05
1.77774e-05
2.00208e-05
2.22403e-05
2.4446e-05
2.66381e-05
2.88103e-05
3.09695e-05
3.31173e-05
3.52535e-05
3.73776e-05
3.94885e-05
4.15848e-05
4.36651e-05
4.57273e-05
4.77696e-05
4.97897e-05
5.17854e-05
5.37542e-05
5.56939e-05
5.76018e-05
5.94754e-05
6.13122e-05
6.31096e-05
6.48651e-05
6.65762e-05
6.82404e-05
6.98553e-05
7.14185e-05
7.29277e-05
7.43809e-05
7.57758e-05
7.71106e-05
7.83833e-05
7.95922e-05
8.07358e-05
8.18125e-05
8.2821e-05
8.37602e-05
8.46291e-05
8.54268e-05
8.61526e-05
8.68061e-05
8.73869e-05
8.78948e-05
8.83298e-05
8.86921e-05
8.8982e-05
8.91999e-05
8.93467e-05
8.9423e-05
8.94299e-05
8.93685e-05
8.92403e-05
8.90468e-05
8.87905e-05
8.84753e-05
8.81009e-05
8.76679e-05
8.71778e-05
8.66326e-05
8.60344e-05
8.53853e-05
8.46877e-05
8.39439e-05
8.31562e-05
8.2327e-05
8.14589e-05
8.05543e-05
7.96156e-05
7.86453e-05
7.76459e-05
7.66199e-05
7.55696e-05
7.44976e-05
7.34062e-05
7.22978e-05
7.11745e-05
7.00387e-05
6.88926e-05
6.77382e-05
6.65777e-05
6.54129e-05
6.42458e-05
6.30783e-05
6.19121e-05
6.07488e-05
5.959e-05
5.84373e-05
5.7292e-05
5.61554e-05
5.50289e-05
5.39136e-05
5.28105e-05
5.17206e-05
5.06448e-05
4.95839e-05
4.85387e-05
4.75098e-05
4.64978e-05
4.55031e-05
4.45263e-05
4.35677e-05
4.26275e-05
4.1706e-05
4.08033e-05
3.99195e-05
3.90548e-05
3.8209e-05
3.7382e-05
3.65739e-05
3.57844e-05
3.50133e-05
3.42604e-05
3.35254e-05
3.28079e-05
3.21077e-05
3.14244e-05
3.07576e-05
3.01068e-05
2.94717e-05
2.88516e-05
2.82463e-05
2.76551e-05
2.70777e-05
2.65133e-05
2.59617e-05
2.54222e-05
2.48942e-05
2.43774e-05
2.38711e-05
2.33748e-05
2.2888e-05
2.24102e-05
2.19408e-05
2.14794e-05
2.10253e-05
2.05786e-05
2.01391e-05
1.97059e-05
1.92785e-05
1.88565e-05
1.84394e-05
1.80269e-05
1.76186e-05
1.72141e-05
1.68132e-05
1.64155e-05
1.60207e-05
1.56287e-05
1.52391e-05
1.48518e-05
1.44666e-05
1.40833e-05
1.37017e-05
1.33218e-05
1.29435e-05
1.25667e-05
1.21928e-05
1.1821e-05
1.14507e-05
1.10819e-05
1.07145e-05
1.03486e-05
9.98431e-06
9.62157e-06
9.26051e-06
8.90119e-06
8.54371e-06
8.18814e-06
7.83458e-06
7.48311e-06
7.13379e-06
6.7867e-06
6.44188e-06
6.09936e-06
5.75913e-06
5.42109e-06
5.08441e-06
4.75062e-06
4.41867e-06
4.08816e-06
3.75905e-06
3.43068e-06
3.1024e-06
2.77321e-06
2.44246e-06
2.11071e-06
1.77406e-06
1.42914e-06
1.07216e-06
7.00674e-07
3.29089e-07
6.28831e-08
6.69905e-07
3.03642e-06
5.78682e-06
8.36935e-06
1.08145e-05
1.31838e-05
1.55029e-05
1.77776e-05
2.00209e-05
2.22404e-05
2.44462e-05
2.66383e-05
2.88104e-05
3.09696e-05
3.31174e-05
3.52536e-05
3.73777e-05
3.94886e-05
4.15849e-05
4.36651e-05
4.57274e-05
4.77696e-05
4.97897e-05
5.17854e-05
5.37543e-05
5.56939e-05
5.76018e-05
5.94754e-05
6.13122e-05
6.31096e-05
6.48651e-05
6.65762e-05
6.82403e-05
6.98552e-05
7.14184e-05
7.29277e-05
7.43808e-05
7.57758e-05
7.71105e-05
7.83832e-05
7.95921e-05
8.07357e-05
8.18124e-05
8.28209e-05
8.37601e-05
8.4629e-05
8.54266e-05
8.61525e-05
8.6806e-05
8.73868e-05
8.78947e-05
8.83297e-05
8.86919e-05
8.89818e-05
8.91998e-05
8.93465e-05
8.94228e-05
8.94297e-05
8.93683e-05
8.92401e-05
8.90467e-05
8.87904e-05
8.84751e-05
8.81007e-05
8.76677e-05
8.71776e-05
8.66324e-05
8.60342e-05
8.53852e-05
8.46875e-05
8.39437e-05
8.3156e-05
8.23269e-05
8.14588e-05
8.05541e-05
7.96154e-05
7.86451e-05
7.76457e-05
7.66197e-05
7.55695e-05
7.44975e-05
7.34061e-05
7.22976e-05
7.11744e-05
7.00386e-05
6.88924e-05
6.77381e-05
6.65775e-05
6.54128e-05
6.42457e-05
6.30782e-05
6.19119e-05
6.07486e-05
5.95899e-05
5.84371e-05
5.72918e-05
5.61553e-05
5.50288e-05
5.39134e-05
5.28103e-05
5.17204e-05
5.06446e-05
4.95838e-05
4.85386e-05
4.75097e-05
4.64977e-05
4.5503e-05
4.45262e-05
4.35676e-05
4.26274e-05
4.17059e-05
4.08032e-05
3.99194e-05
3.90547e-05
3.82089e-05
3.73819e-05
3.65738e-05
3.57843e-05
3.50132e-05
3.42603e-05
3.35253e-05
3.28078e-05
3.21077e-05
3.14244e-05
3.07575e-05
3.01067e-05
2.94716e-05
2.88516e-05
2.82462e-05
2.76551e-05
2.70776e-05
2.65133e-05
2.59616e-05
2.54221e-05
2.48942e-05
2.43773e-05
2.3871e-05
2.33747e-05
2.2888e-05
2.24101e-05
2.19408e-05
2.14794e-05
2.10253e-05
2.05785e-05
2.0139e-05
1.97058e-05
1.92784e-05
1.88564e-05
1.84393e-05
1.80268e-05
1.76185e-05
1.7214e-05
1.68131e-05
1.64154e-05
1.60207e-05
1.56286e-05
1.52391e-05
1.48518e-05
1.44665e-05
1.40832e-05
1.37017e-05
1.33218e-05
1.29435e-05
1.25667e-05
1.21928e-05
1.18209e-05
1.14507e-05
1.10818e-05
1.07145e-05
1.03486e-05
9.98428e-06
9.62155e-06
9.26048e-06
8.90117e-06
8.54369e-06
8.18812e-06
7.83456e-06
7.48309e-06
7.13378e-06
6.78669e-06
6.44187e-06
6.09935e-06
5.75912e-06
5.42108e-06
5.08441e-06
4.75062e-06
4.41866e-06
4.08815e-06
3.75905e-06
3.43068e-06
3.1024e-06
2.77321e-06
2.44247e-06
2.11072e-06
1.77407e-06
1.42915e-06
1.07217e-06
7.00682e-07
3.29093e-07
6.28845e-08
2.78197e-06
3.83648e-05
6.74969e-05
8.74598e-05
0.000102813
0.000115472
0.000126309
0.000135966
0.000144785
0.000152968
0.000160646
0.000167921
0.000174864
0.00018152
0.000187922
0.000194098
0.000200068
0.000205848
0.000211452
0.00021689
0.00022217
0.000227299
0.000232281
0.00023712
0.000241819
0.000246381
0.000250806
0.000255096
0.000259252
0.000263273
0.000267159
0.000270911
0.000274528
0.000278009
0.000281353
0.00028456
0.000287629
0.00029056
0.000293351
0.000296003
0.000298513
0.000300882
0.00030311
0.000305195
0.000307138
0.000308939
0.000310597
0.000312113
0.000313487
0.000314719
0.00031581
0.000316762
0.000317574
0.000318248
0.000318785
0.000319186
0.000319454
0.00031959
0.000319594
0.00031947
0.000319219
0.000318841
0.000318337
0.000317711
0.000316968
0.000316112
0.000315147
0.000314076
0.000312902
0.000311629
0.00031026
0.0003088
0.00030725
0.000305616
0.0003039
0.000302107
0.000300241
0.000298305
0.000296303
0.000294239
0.000292117
0.00028994
0.000287713
0.000285438
0.000283121
0.000280764
0.000278371
0.000275946
0.000273492
0.000271013
0.000268512
0.000265993
0.000263458
0.000260911
0.000258354
0.000255791
0.000253224
0.000250657
0.000248091
0.00024553
0.000242975
0.000240429
0.000237894
0.000235372
0.000232865
0.000230375
0.000227903
0.000225451
0.00022302
0.000220612
0.000218228
0.000215868
0.000213535
0.000211227
0.000208947
0.000206694
0.00020447
0.000202274
0.000200107
0.000197969
0.00019586
0.000193779
0.000191727
0.000189703
0.000187707
0.000185738
0.000183796
0.00018188
0.00017999
0.000178124
0.000176281
0.000174462
0.000172664
0.000170887
0.000169129
0.00016739
0.000165668
0.000163962
0.00016227
0.000160592
0.000158927
0.000157272
0.000155628
0.000153993
0.000152364
0.00015074
0.000149119
0.000147501
0.000145885
0.000144268
0.00014265
0.000141029
0.000139403
0.000137773
0.000136135
0.00013449
0.000132835
0.000131171
0.000129495
0.000127806
0.000126104
0.000124386
0.000122651
0.000120896
0.000119111
0.000117305
0.000115479
0.000113632
0.000111763
0.000109871
0.000107955
0.000106013
0.000104046
0.000102051
0.000100027
9.79724e-05
9.58855e-05
9.3764e-05
9.16054e-05
8.9407e-05
8.71652e-05
8.4876e-05
8.25346e-05
8.01357e-05
7.76735e-05
7.51349e-05
7.25092e-05
6.97818e-05
6.69348e-05
6.39421e-05
6.07707e-05
5.73696e-05
5.36539e-05
4.95e-05
4.48175e-05
3.9371e-05
3.27398e-05
2.40661e-05
1.15977e-05
2.9586e-07
2.78209e-06
3.83669e-05
6.75e-05
8.74632e-05
0.000102817
0.000115475
0.000126313
0.000135969
0.000144789
0.000152972
0.00016065
0.000167925
0.000174868
0.000181524
0.000187927
0.000194102
0.000200072
0.000205852
0.000211456
0.000216894
0.000222175
0.000227303
0.000232285
0.000237125
0.000241824
0.000246386
0.000250811
0.000255101
0.000259257
0.000263278
0.000267165
0.000270916
0.000274533
0.000278014
0.000281358
0.000284566
0.000287635
0.000290566
0.000293357
0.000296008
0.000298519
0.000300888
0.000303116
0.000305201
0.000307144
0.000308945
0.000310603
0.000312119
0.000313493
0.000314725
0.000315816
0.000316768
0.00031758
0.000318254
0.000318791
0.000319192
0.00031946
0.000319595
0.0003196
0.000319476
0.000319225
0.000318847
0.000318342
0.000317716
0.000316974
0.000316118
0.000315153
0.000314082
0.000312908
0.000311635
0.000310266
0.000308805
0.000307255
0.000305621
0.000303906
0.000302113
0.000300246
0.00029831
0.000296308
0.000294244
0.000292122
0.000289945
0.000287717
0.000285443
0.000283125
0.000280768
0.000278376
0.000275951
0.000273497
0.000271018
0.000268517
0.000265997
0.000263462
0.000260915
0.000258358
0.000255795
0.000253228
0.000250661
0.000248095
0.000245533
0.000242979
0.000240433
0.000237898
0.000235376
0.000232869
0.000230378
0.000227906
0.000225454
0.000223024
0.000220615
0.000218231
0.000215871
0.000213537
0.00021123
0.00020895
0.000206697
0.000204473
0.000202277
0.00020011
0.000197971
0.000195862
0.000193781
0.000191729
0.000189705
0.000187709
0.00018574
0.000183798
0.000181882
0.000179992
0.000178126
0.000176283
0.000174464
0.000172666
0.000170889
0.000169131
0.000167392
0.00016567
0.000163963
0.000162272
0.000160594
0.000158928
0.000157273
0.00015563
0.000153994
0.000152365
0.000150741
0.00014912
0.000147502
0.000145886
0.000144269
0.000142651
0.000141029
0.000139404
0.000137773
0.000136136
0.000134491
0.000132836
0.000131171
0.000129495
0.000127807
0.000126104
0.000124386
0.000122652
0.000120897
0.000119111
0.000117306
0.00011548
0.000113633
0.000111764
0.000109871
0.000107955
0.000106014
0.000104046
0.000102051
0.000100027
9.79728e-05
9.58859e-05
9.37644e-05
9.16059e-05
8.94074e-05
8.71656e-05
8.48764e-05
8.2535e-05
8.01361e-05
7.76739e-05
7.51353e-05
7.25096e-05
6.97822e-05
6.69352e-05
6.39425e-05
6.0771e-05
5.73699e-05
5.36541e-05
4.95001e-05
4.48176e-05
3.93711e-05
3.27399e-05
2.40661e-05
1.15976e-05
2.95859e-07
5.41709e-06
6.55206e-05
0.000126295
0.000171561
0.00020657
0.000234832
0.00025856
0.000279108
0.000297344
0.000313834
0.00032896
0.000342992
0.000356124
0.000368495
0.00038021
0.000391349
0.000401977
0.000412143
0.000421888
0.000431246
0.000440242
0.0004489
0.000457237
0.000465268
0.000473007
0.000480464
0.000487648
0.000494567
0.000501226
0.000507633
0.00051379
0.000519703
0.000525375
0.000530808
0.000536006
0.000540971
0.000545704
0.000550208
0.000554485
0.000558535
0.000562361
0.000565964
0.000569346
0.000572507
0.000575451
0.000578177
0.000580688
0.000582985
0.00058507
0.000586945
0.000588612
0.000590073
0.00059133
0.000592385
0.000593241
0.0005939
0.000594364
0.000594636
0.000594718
0.000594612
0.000594321
0.000593845
0.000593185
0.000592347
0.000591337
0.000590162
0.000588826
0.000587336
0.000585694
0.000583906
0.000581976
0.000579909
0.00057771
0.000575384
0.000572935
0.000570368
0.000567688
0.0005649
0.00056201
0.000559021
0.000555939
0.000552768
0.000549515
0.000546184
0.000542779
0.000539306
0.000535769
0.000532174
0.000528525
0.000524827
0.000521085
0.000517302
0.000513484
0.000509635
0.000505759
0.00050186
0.000497943
0.000494012
0.000490069
0.000486119
0.000482166
0.000478213
0.000474263
0.000470319
0.000466384
0.000462461
0.000458554
0.000454663
0.000450791
0.000446942
0.000443116
0.000439315
0.000435541
0.000431796
0.000428081
0.000424396
0.000420744
0.000417123
0.000413536
0.000409982
0.000406462
0.000402976
0.000399524
0.000396104
0.000392718
0.000389364
0.000386042
0.000382751
0.000379489
0.000376256
0.000373051
0.000369871
0.000366716
0.000363584
0.000360474
0.000357383
0.000354309
0.000351251
0.000348208
0.000345176
0.000342155
0.000339143
0.000336138
0.000333135
0.000330132
0.000327127
0.000324118
0.000321102
0.000318079
0.000315044
0.000311997
0.000308935
0.000305856
0.000302757
0.000299637
0.000296493
0.000293324
0.000290126
0.000286899
0.000283639
0.000280344
0.000277011
0.000273637
0.000270215
0.000266737
0.000263209
0.000259629
0.000255998
0.000252313
0.000248572
0.000244773
0.000240912
0.000236986
0.000232991
0.000228922
0.000224775
0.000220544
0.000216221
0.0002118
0.000207271
0.000202623
0.000197843
0.000192917
0.000187827
0.00018255
0.000177057
0.000171314
0.000165275
0.000158879
0.000152048
0.000144681
0.000136633
0.000127693
0.000117555
0.000105841
9.19261e-05
7.47503e-05
5.25239e-05
2.32135e-05
6.35723e-07
5.41724e-06
6.55237e-05
0.000126301
0.000171568
0.000206578
0.00023484
0.000258568
0.000279116
0.000297352
0.000313842
0.000328968
0.000342999
0.000356131
0.000368503
0.000380218
0.000391357
0.000401985
0.000412151
0.000421896
0.000431254
0.00044025
0.000448908
0.000457245
0.000465276
0.000473015
0.000480472
0.000487656
0.000494575
0.000501234
0.000507641
0.000513798
0.000519711
0.000525383
0.000530817
0.000536014
0.000540979
0.000545712
0.000550216
0.000554493
0.000558543
0.000562369
0.000565972
0.000569354
0.000572516
0.000575459
0.000578185
0.000580696
0.000582993
0.000585078
0.000586953
0.00058862
0.000590081
0.000591338
0.000592393
0.000593249
0.000593907
0.000594371
0.000594643
0.000594725
0.00059462
0.000594329
0.000593853
0.000593193
0.000592354
0.000591344
0.000590169
0.000588834
0.000587343
0.000585701
0.000583913
0.000581983
0.000579916
0.000577717
0.000575391
0.000572942
0.000570375
0.000567695
0.000564907
0.000562016
0.000559027
0.000555945
0.000552774
0.000549521
0.000546189
0.000542784
0.000539311
0.000535775
0.000532179
0.00052853
0.000524832
0.000521089
0.000517307
0.000513489
0.000509639
0.000505763
0.000501865
0.000497948
0.000494016
0.000490073
0.000486123
0.00048217
0.000478217
0.000474266
0.000470322
0.000466388
0.000462465
0.000458557
0.000454666
0.000450795
0.000446945
0.000443119
0.000439318
0.000435544
0.000431799
0.000428084
0.000424399
0.000420746
0.000417126
0.000413538
0.000409985
0.000406464
0.000402978
0.000399525
0.000396106
0.00039272
0.000389366
0.000386044
0.000382752
0.000379491
0.000376258
0.000373052
0.000369873
0.000366718
0.000363586
0.000360475
0.000357383
0.00035431
0.000351252
0.000348208
0.000345177
0.000342156
0.000339144
0.000336138
0.000333135
0.000330132
0.000327127
0.000324118
0.000321103
0.000318079
0.000315044
0.000311997
0.000308935
0.000305856
0.000302757
0.000299637
0.000296493
0.000293324
0.000290126
0.000286899
0.000283639
0.000280344
0.000277011
0.000273637
0.000270215
0.000266737
0.000263208
0.000259629
0.000255998
0.000252313
0.000248572
0.000244772
0.000240911
0.000236985
0.00023299
0.000228922
0.000224775
0.000220544
0.000216221
0.0002118
0.00020727
0.000202622
0.000197843
0.000192917
0.000187827
0.00018255
0.000177057
0.000171314
0.000165274
0.000158879
0.000152048
0.000144681
0.000136633
0.000127693
0.000117555
0.000105841
9.19262e-05
7.47504e-05
5.25239e-05
2.32133e-05
6.35722e-07
7.98026e-06
8.46193e-05
0.000169596
0.000238006
0.000292993
0.000338225
0.000376442
0.000409496
0.000438657
0.000464807
0.000488572
0.000510407
0.000530645
0.000549537
0.000567275
0.000584007
0.000599849
0.000614896
0.000629223
0.000642894
0.000655957
0.000668457
0.000680428
0.000691901
0.000702901
0.00071345
0.000723566
0.000733266
0.000742564
0.000751472
0.00076
0.000768159
0.000775957
0.000783402
0.000790501
0.000797259
0.000803683
0.000809778
0.000815549
0.000821001
0.000826138
0.000830965
0.000835485
0.000839702
0.000843621
0.000847244
0.000850577
0.000853622
0.000856383
0.000858863
0.000861068
0.000862999
0.000864662
0.000866059
0.000867194
0.000868072
0.000868696
0.000869069
0.000869196
0.000869078
0.00086872
0.000868124
0.000867292
0.000866231
0.000864947
0.000863449
0.000861743
0.000859835
0.000857732
0.000855438
0.00085296
0.000850304
0.000847475
0.000844479
0.000841323
0.000838011
0.000834551
0.000830948
0.000827208
0.000823337
0.000819341
0.000815226
0.000810999
0.000806665
0.000802231
0.000797702
0.000793084
0.000788384
0.000783607
0.000778759
0.000773846
0.000768873
0.000763846
0.000758771
0.000753653
0.000748497
0.000743309
0.000738092
0.000732853
0.000727596
0.000722325
0.000717045
0.00071176
0.000706474
0.000701191
0.000695914
0.000690648
0.000685395
0.000680158
0.00067494
0.000669744
0.000664572
0.000659426
0.000654309
0.000649222
0.000644166
0.000639142
0.000634153
0.000629197
0.000624277
0.000619392
0.000614543
0.000609729
0.00060495
0.000600205
0.000595494
0.000590816
0.00058617
0.000581554
0.000576967
0.000572407
0.000567872
0.00056336
0.00055887
0.000554399
0.000549945
0.000545505
0.000541077
0.000536658
0.000532247
0.00052784
0.000523436
0.00051903
0.000514617
0.000510195
0.000505761
0.000501312
0.000496845
0.000492357
0.000487846
0.000483308
0.00047874
0.00047414
0.000469504
0.00046483
0.000460114
0.000455354
0.000450546
0.000445688
0.000440776
0.000435806
0.000430775
0.000425676
0.000420504
0.000415252
0.00040992
0.000404506
0.000399008
0.000393422
0.000387744
0.000381969
0.000376092
0.000370107
0.000364005
0.000357779
0.000351419
0.000344913
0.00033825
0.000331413
0.000324387
0.00031715
0.000309678
0.000301943
0.00029391
0.000285537
0.000276771
0.000267548
0.000257784
0.000247373
0.000236179
0.000224019
0.000210648
0.000195738
0.000178828
0.000159278
0.000136206
0.000108257
7.35648e-05
3.13438e-05
9.84653e-07
7.98043e-06
8.46227e-05
0.000169603
0.000238015
0.000293003
0.000338237
0.000376453
0.000409508
0.000438669
0.000464819
0.000488584
0.000510418
0.000530656
0.000549549
0.000567286
0.000584018
0.00059986
0.000614907
0.000629234
0.000642905
0.000655968
0.000668468
0.000680439
0.000691912
0.000702912
0.000713461
0.000723577
0.000733277
0.000742575
0.000751482
0.000760011
0.00076817
0.000775968
0.000783413
0.000790511
0.000797269
0.000803693
0.000809788
0.00081556
0.000821011
0.000826148
0.000830975
0.000835495
0.000839712
0.000843631
0.000847254
0.000850587
0.000853631
0.000856392
0.000858873
0.000861077
0.000863009
0.000864671
0.000866068
0.000867203
0.000868081
0.000868705
0.000869078
0.000869204
0.000869087
0.000868729
0.000868132
0.000867301
0.000866239
0.000864955
0.000863457
0.000861751
0.000859843
0.000857739
0.000855445
0.000852967
0.000850311
0.000847482
0.000844486
0.00084133
0.000838018
0.000834558
0.000830954
0.000827214
0.000823343
0.000819347
0.000815232
0.000811005
0.000806671
0.000802236
0.000797707
0.000793089
0.000788389
0.000783612
0.000778764
0.000773851
0.000768878
0.000763851
0.000758776
0.000753658
0.000748501
0.000743313
0.000738096
0.000732857
0.000727599
0.000722328
0.000717048
0.000711763
0.000706477
0.000701194
0.000695917
0.000690651
0.000685397
0.00068016
0.000674942
0.000669746
0.000664574
0.000659429
0.000654311
0.000649224
0.000644167
0.000639144
0.000634154
0.000629199
0.000624279
0.000619394
0.000614544
0.00060973
0.000604951
0.000600206
0.000595495
0.000590817
0.000586171
0.000581555
0.000576967
0.000572407
0.000567872
0.000563361
0.00055887
0.000554399
0.000549945
0.000545505
0.000541077
0.000536658
0.000532246
0.00052784
0.000523436
0.000519029
0.000514617
0.000510195
0.000505761
0.000501311
0.000496844
0.000492357
0.000487845
0.000483307
0.000478739
0.000474139
0.000469503
0.000464829
0.000460113
0.000455353
0.000450545
0.000445687
0.000440775
0.000435805
0.000430773
0.000425675
0.000420503
0.000415251
0.000409919
0.000404505
0.000399006
0.00039342
0.000387743
0.000381968
0.000376091
0.000370106
0.000364004
0.000357778
0.000351418
0.000344912
0.000338249
0.000331412
0.000324386
0.000317149
0.000309677
0.000301942
0.000293909
0.000285536
0.00027677
0.000267547
0.000257783
0.000247373
0.000236178
0.000224019
0.000210648
0.000195738
0.000178828
0.000159278
0.000136206
0.000108258
7.35648e-05
3.13436e-05
9.84653e-07
1.04758e-05
9.98689e-05
0.00020361
0.000291552
0.000364615
0.00042605
0.000478599
0.000524323
0.000564728
0.000600923
0.000633726
0.000663749
0.000691455
0.000717201
0.000741262
0.000763855
0.000785153
0.000805296
0.000824397
0.000842549
0.00085983
0.000876304
0.000892025
0.000907041
0.00092139
0.000935106
0.000948219
0.000960754
0.000972734
0.000984178
0.000995105
0.00100553
0.00101547
0.00102493
0.00103393
0.00104248
0.00105058
0.00105825
0.0010655
0.00107233
0.00107875
0.00108477
0.0010904
0.00109564
0.00110049
0.00110498
0.00110909
0.00111284
0.00111624
0.00111928
0.00112198
0.00112434
0.00112637
0.00112807
0.00112944
0.0011305
0.00113124
0.00113168
0.00113182
0.00113166
0.00113121
0.00113047
0.00112944
0.00112814
0.00112657
0.00112474
0.00112266
0.00112033
0.00111777
0.00111497
0.00111195
0.00110872
0.00110527
0.00110162
0.00109778
0.00109375
0.00108953
0.00108515
0.00108059
0.00107588
0.00107101
0.00106599
0.00106084
0.00105555
0.00105014
0.00104461
0.00103898
0.00103323
0.00102739
0.00102146
0.00101545
0.00100936
0.0010032
0.000996977
0.000990696
0.000984364
0.000977987
0.000971571
0.000965122
0.000958645
0.000952145
0.000945628
0.000939099
0.000932563
0.000926024
0.000919486
0.000912954
0.000906431
0.000899922
0.000893429
0.000886955
0.000880504
0.000874078
0.000867679
0.000861309
0.00085497
0.000848664
0.000842391
0.000836153
0.000829949
0.000823781
0.000817649
0.000811551
0.000805489
0.00079946
0.000793465
0.000787501
0.000781568
0.000775663
0.000769785
0.000763932
0.000758101
0.00075229
0.000746497
0.000740718
0.000734951
0.000729193
0.000723441
0.000717691
0.000711942
0.000706189
0.000700429
0.000694657
0.000688868
0.00068306
0.000677227
0.000671368
0.000665477
0.000659552
0.000653588
0.000647583
0.000641533
0.000635433
0.000629281
0.000623072
0.000616804
0.000610471
0.000604071
0.000597599
0.000591051
0.000584421
0.000577706
0.000570899
0.000563992
0.00055698
0.000549858
0.000542624
0.000535272
0.000527797
0.000520192
0.00051245
0.000504563
0.00049652
0.00048831
0.00047992
0.000471336
0.00046254
0.000453513
0.000444232
0.000434671
0.000424799
0.000414578
0.000403965
0.000392909
0.000381345
0.000369195
0.000356364
0.000342733
0.000328148
0.000312418
0.000295293
0.000276448
0.00025545
0.000231724
0.000204496
0.000172742
0.000135081
8.99218e-05
3.77351e-05
1.33116e-06
1.04759e-05
9.98723e-05
0.000203617
0.000291562
0.000364628
0.000426063
0.000478614
0.000524338
0.000564743
0.000600939
0.000633741
0.000663764
0.000691471
0.000717216
0.000741277
0.00076387
0.000785168
0.000805311
0.000824411
0.000842563
0.000859844
0.000876318
0.000892039
0.000907055
0.000921403
0.000935119
0.000948232
0.000960767
0.000972747
0.000984192
0.000995118
0.00100554
0.00101548
0.00102494
0.00103394
0.00104249
0.00105059
0.00105826
0.00106551
0.00107234
0.00107876
0.00108478
0.00109041
0.00109565
0.00110051
0.00110499
0.0011091
0.00111285
0.00111625
0.00111929
0.00112199
0.00112435
0.00112638
0.00112808
0.00112945
0.00113051
0.00113126
0.00113169
0.00113183
0.00113167
0.00113122
0.00113048
0.00112945
0.00112815
0.00112658
0.00112475
0.00112267
0.00112034
0.00111778
0.00111498
0.00111196
0.00110872
0.00110528
0.00110163
0.00109779
0.00109375
0.00108954
0.00108515
0.0010806
0.00107588
0.00107101
0.001066
0.00106084
0.00105556
0.00105015
0.00104462
0.00103898
0.00103324
0.0010274
0.00102147
0.00101546
0.00100937
0.00100321
0.000996982
0.000990701
0.000984369
0.000977992
0.000971576
0.000965126
0.000958649
0.000952149
0.000945632
0.000939103
0.000932566
0.000926027
0.000919489
0.000912957
0.000906434
0.000899925
0.000893431
0.000886958
0.000880506
0.00087408
0.000867681
0.000861311
0.000854972
0.000848666
0.000842393
0.000836154
0.000829951
0.000823783
0.00081765
0.000811552
0.00080549
0.000799461
0.000793465
0.000787502
0.000781568
0.000775663
0.000769786
0.000763932
0.000758101
0.000752291
0.000746497
0.000740718
0.000734951
0.000729193
0.00072344
0.000717691
0.000711941
0.000706189
0.000700428
0.000694656
0.000688867
0.000683059
0.000677226
0.000671367
0.000665476
0.000659551
0.000653587
0.000647582
0.000641532
0.000635432
0.00062928
0.000623071
0.000616802
0.00061047
0.000604069
0.000597597
0.000591049
0.00058442
0.000577705
0.000570897
0.000563991
0.000556978
0.000549857
0.000542622
0.00053527
0.000527795
0.000520191
0.000512449
0.000504561
0.000496518
0.000488308
0.000479918
0.000471334
0.000462538
0.000453512
0.000444231
0.00043467
0.000424797
0.000414577
0.000403964
0.000392908
0.000381343
0.000369194
0.000356363
0.000342732
0.000328147
0.000312418
0.000295293
0.000276447
0.00025545
0.000231724
0.000204496
0.000172743
0.000135081
8.99219e-05
3.77349e-05
1.33117e-06
1.29439e-05
0.000112795
0.000231702
0.000336169
0.00042524
0.000501501
0.000567521
0.000625397
0.000676754
0.000722843
0.000764618
0.000802816
0.000838007
0.000870638
0.000901061
0.000929556
0.000956348
0.000981621
0.00100553
0.00102819
0.00104971
0.00107017
0.00108966
0.00110822
0.00112593
0.00114281
0.00115892
0.00117428
0.00118894
0.00120291
0.00121622
0.00122889
0.00124095
0.00125241
0.00126329
0.0012736
0.00128336
0.00129257
0.00130127
0.00130944
0.00131712
0.0013243
0.001331
0.00133722
0.00134298
0.00134828
0.00135314
0.00135756
0.00136155
0.00136513
0.00136828
0.00137103
0.00137339
0.00137535
0.00137693
0.00137814
0.00137898
0.00137945
0.00137957
0.00137934
0.00137877
0.00137787
0.00137663
0.00137508
0.00137321
0.00137103
0.00136857
0.00136582
0.00136279
0.00135949
0.00135593
0.00135213
0.00134807
0.00134379
0.00133927
0.00133454
0.00132959
0.00132444
0.0013191
0.00131357
0.00130786
0.00130198
0.00129594
0.00128975
0.0012834
0.00127692
0.00127031
0.00126358
0.00125673
0.00124978
0.00124273
0.00123558
0.00122835
0.00122105
0.00121368
0.00120624
0.00119875
0.0011912
0.00118362
0.001176
0.00116835
0.00116068
0.00115299
0.00114529
0.00113757
0.00112986
0.00112215
0.00111444
0.00110675
0.00109907
0.00109141
0.00108377
0.00107615
0.00106856
0.00106099
0.00105346
0.00104596
0.00103849
0.00103106
0.00102366
0.0010163
0.00100897
0.00100167
0.000994414
0.000987186
0.000979991
0.000972825
0.000965688
0.000958576
0.000951489
0.000944423
0.000937376
0.000930344
0.000923325
0.000916316
0.000909312
0.000902311
0.000895308
0.000888301
0.000881285
0.000874257
0.000867212
0.000860144
0.000853049
0.000845923
0.000838761
0.000831559
0.000824312
0.000817017
0.000809668
0.000802263
0.000794796
0.000787263
0.000779661
0.000771983
0.000764227
0.000756387
0.000748459
0.000740437
0.000732317
0.000724093
0.000715758
0.000707305
0.000698728
0.000690018
0.000681169
0.000672176
0.000663031
0.000653727
0.000644255
0.000634603
0.000624761
0.000614714
0.000604447
0.000593943
0.000583182
0.00057214
0.00056079
0.000549102
0.00053704
0.000524561
0.000511617
0.000498148
0.000484086
0.000469345
0.000453824
0.000437397
0.000419912
0.000401176
0.000380948
0.000358924
0.000334714
0.000307819
0.000277591
0.000243192
0.000203547
0.000157361
0.000103401
4.31315e-05
1.67581e-06
1.29441e-05
0.000112799
0.000231709
0.00033618
0.000425254
0.000501516
0.000567538
0.000625414
0.000676772
0.000722861
0.000764636
0.000802834
0.000838026
0.000870657
0.000901079
0.000929573
0.000956366
0.000981639
0.00100554
0.0010282
0.00104972
0.00107019
0.00108967
0.00110824
0.00112594
0.00114283
0.00115893
0.0011743
0.00118895
0.00120292
0.00121623
0.00122891
0.00124097
0.00125242
0.0012633
0.00127361
0.00128337
0.00129259
0.00130128
0.00130946
0.00131713
0.00132431
0.00133101
0.00133723
0.00134299
0.0013483
0.00135316
0.00135758
0.00136157
0.00136514
0.00136829
0.00137105
0.0013734
0.00137536
0.00137694
0.00137815
0.00137899
0.00137946
0.00137958
0.00137935
0.00137878
0.00137788
0.00137664
0.00137509
0.00137322
0.00137104
0.00136858
0.00136583
0.0013628
0.0013595
0.00135594
0.00135213
0.00134808
0.00134379
0.00133928
0.00133455
0.0013296
0.00132445
0.00131911
0.00131358
0.00130787
0.00130199
0.00129595
0.00128975
0.00128341
0.00127693
0.00127032
0.00126359
0.00125674
0.00124979
0.00124273
0.00123559
0.00122836
0.00122105
0.00121368
0.00120624
0.00119875
0.00119121
0.00118363
0.00117601
0.00116836
0.00116068
0.00115299
0.00114529
0.00113758
0.00112986
0.00112215
0.00111445
0.00110675
0.00109907
0.00109141
0.00108377
0.00107615
0.00106856
0.001061
0.00105346
0.00104596
0.00103849
0.00103106
0.00102366
0.0010163
0.00100897
0.00100168
0.000994415
0.000987188
0.000979992
0.000972826
0.000965688
0.000958577
0.00095149
0.000944424
0.000937376
0.000930345
0.000923326
0.000916316
0.000909312
0.000902311
0.000895308
0.000888301
0.000881285
0.000874257
0.000867212
0.000860144
0.000853049
0.000845922
0.00083876
0.000831558
0.000824311
0.000817016
0.000809667
0.000802262
0.000794795
0.000787262
0.00077966
0.000771982
0.000764226
0.000756386
0.000748458
0.000740436
0.000732316
0.000724091
0.000715756
0.000707304
0.000698726
0.000690016
0.000681167
0.000672174
0.00066303
0.000653726
0.000644253
0.000634601
0.000624759
0.000614712
0.000604446
0.000593942
0.00058318
0.000572138
0.000560789
0.000549101
0.000537038
0.00052456
0.000511616
0.000498147
0.000484084
0.000469344
0.000453822
0.000437396
0.000419911
0.000401175
0.000380947
0.000358923
0.000334714
0.000307819
0.000277591
0.000243192
0.000203547
0.000157361
0.000103401
4.31313e-05
1.67582e-06
1.53933e-05
0.000124185
0.000255872
0.000374524
0.000477706
0.000567342
0.000645755
0.000714991
0.00077672
0.000832273
0.000882699
0.000928827
0.000971311
0.00101067
0.00104733
0.00108162
0.00111381
0.00114414
0.00117277
0.00119987
0.00122557
0.00124997
0.00127316
0.00129523
0.00131623
0.00133624
0.0013553
0.00137345
0.00139073
0.00140719
0.00142284
0.00143772
0.00145186
0.00146528
0.001478
0.00149003
0.00150141
0.00151214
0.00152224
0.00153173
0.00154062
0.00154892
0.00155666
0.00156383
0.00157046
0.00157655
0.00158212
0.00158718
0.00159173
0.0015958
0.00159938
0.00160249
0.00160515
0.00160735
0.00160911
0.00161043
0.00161133
0.00161182
0.0016119
0.00161159
0.00161088
0.00160979
0.00160833
0.00160651
0.00160433
0.0016018
0.00159895
0.00159577
0.00159227
0.00158847
0.00158438
0.00158001
0.00157535
0.00157044
0.00156526
0.00155984
0.00155418
0.00154829
0.00154218
0.00153586
0.00152933
0.00152262
0.00151572
0.00150865
0.00150141
0.00149402
0.00148648
0.0014788
0.00147099
0.00146305
0.00145501
0.00144686
0.00143862
0.00143029
0.00142188