/*--------------------------------*- C++ -*----------------------------------*\
  =========                 |
  \\      /  F ield         | OpenFOAM: The Open Source CFD Toolbox
   \\    /   O peration     | Website:  https://openfoam.org
    \\  /    A nd           | Version:  8
     \\/     M anipulation  |
\*---------------------------------------------------------------------------*/
FoamFile
{
    version     2.0;
    format      ascii;
    class       volScalarField;
    location    "3100";
    object      epsilon;
}
// * * * * * * * * * * * * * * * * * * * * * * * * * * * * * * * * * * * * * //

dimensions      [0 2 -3 0 0 0 0];

internalField   nonuniform List<scalar> 
46000
(
12.1617
49.7387
94.5852
136.592
176.303
214.742
252.33
289.168
325.476
361.376
397.036
432.456
467.539
502.4
537.062
571.528
605.786
639.823
673.616
707.141
740.368
773.266
805.8
837.936
869.634
900.856
931.562
961.712
991.265
1020.18
1048.42
1075.94
1102.7
1128.66
1153.79
1178.06
1201.41
1223.83
1245.28
1265.72
1285.14
1303.51
1320.8
1336.99
1352.07
1366.01
1378.81
1390.46
1400.94
1410.24
1418.38
1425.34
1431.14
1435.77
1439.24
1441.57
1442.76
1442.84
1441.83
1439.73
1436.59
1432.44
1427.34
1421.29
1414.3
1406.39
1397.59
1387.94
1377.48
1366.24
1354.25
1341.56
1328.2
1314.22
1299.65
1284.53
1268.9
1252.81
1236.29
1219.38
1202.12
1184.55
1166.71
1148.62
1130.34
1111.89
1093.31
1074.63
1055.88
1037.09
1018.3
999.528
980.802
962.15
943.594
925.158
906.863
888.729
870.774
853.016
835.471
818.152
801.073
784.245
767.68
751.386
735.372
719.645
704.209
689.07
674.232
659.696
645.465
631.539
617.918
604.601
591.586
578.87
566.451
554.324
542.486
530.93
519.652
508.645
497.904
487.421
477.188
467.2
457.448
447.924
438.621
429.529
420.641
411.948
403.441
395.113
386.955
378.957
371.112
363.412
355.847
348.41
341.09
333.889
326.803
319.819
312.928
306.123
299.396
292.743
286.156
279.631
273.162
266.744
260.372
254.044
247.754
241.499
235.277
229.085
222.92
216.78
210.663
204.57
198.523
192.507
186.515
180.544
174.596
168.67
162.767
156.888
151.034
145.207
139.407
133.637
127.897
122.189
116.513
110.872
105.266
99.6946
94.1585
88.6558
83.1732
77.735
72.3246
66.9354
61.5667
56.2077
50.8475
45.47
40.0638
34.6384
29.1295
23.4814
17.6303
11.5339
5.42458
1.15172
12.1626
49.7411
94.5881
136.595
176.306
214.745
252.332
289.171
325.479
361.379
397.038
432.458
467.541
502.402
537.064
571.529
605.788
639.824
673.617
707.142
740.369
773.267
805.801
837.936
869.634
900.856
931.562
961.712
991.265
1020.18
1048.42
1075.94
1102.7
1128.66
1153.79
1178.06
1201.41
1223.83
1245.28
1265.72
1285.14
1303.51
1320.8
1336.99
1352.07
1366.01
1378.81
1390.45
1400.93
1410.24
1418.38
1425.34
1431.14
1435.77
1439.24
1441.57
1442.76
1442.84
1441.82
1439.73
1436.59
1432.44
1427.34
1421.29
1414.29
1406.38
1397.59
1387.94
1377.48
1366.23
1354.25
1341.55
1328.2
1314.21
1299.64
1284.52
1268.9
1252.81
1236.29
1219.38
1202.12
1184.55
1166.7
1148.62
1130.34
1111.89
1093.31
1074.63
1055.88
1037.09
1018.3
999.525
980.8
962.148
943.592
925.156
906.861
888.727
870.772
853.014
835.469
818.15
801.071
784.243
767.678
751.385
735.37
719.643
704.207
689.068
674.23
659.694
645.463
631.537
617.916
604.599
591.584
578.869
566.449
554.323
542.484
530.929
519.651
508.644
497.902
487.419
477.187
467.199
457.447
447.923
438.619
429.528
420.64
411.947
403.44
395.112
386.953
378.956
371.111
363.411
355.846
348.409
341.089
333.888
326.802
319.818
312.927
306.122
299.395
292.742
286.155
279.63
273.161
266.743
260.372
254.043
247.753
241.499
235.276
229.084
222.919
216.779
210.662
204.569
198.522
192.506
186.514
180.544
174.595
168.669
162.766
156.888
151.034
145.206
139.407
133.636
127.897
122.188
116.513
110.872
105.266
99.6945
94.1584
88.6557
83.1731
77.7349
72.3246
66.9354
61.5667
56.2077
50.8475
45.47
40.0639
34.6385
29.1297
23.4815
17.6305
11.5341
5.42465
1.15174
53.8314
46.0529
59.6426
75.6624
92.2895
109.207
126.334
143.582
160.949
178.403
195.944
213.573
231.27
249.041
266.882
284.782
302.73
320.707
338.696
356.675
374.623
392.516
410.327
428.031
445.6
463.005
480.218
497.21
513.95
530.408
546.555
562.36
577.795
592.828
607.433
621.581
635.245
648.399
661.018
673.078
684.557
695.434
705.69
715.307
724.269
732.561
740.173
747.092
753.311
758.824
763.626
767.714
771.089
773.751
775.706
776.958
777.515
777.388
776.588
775.13
773.033
770.32
767.023
763.147
758.701
753.701
748.167
742.121
735.586
728.586
721.147
713.294
705.053
696.45
687.512
678.264
668.733
658.946
648.928
638.705
628.302
617.744
607.054
596.256
585.374
574.428
563.44
552.43
541.418
530.423
519.461
508.55
497.705
486.941
476.271
465.71
455.267
444.954
434.782
424.758
414.892
405.19
395.658
386.302
377.127
368.137
359.335
350.723
342.303
334.076
326.043
318.204
310.558
303.104
295.841
288.767
281.879
275.174
268.651
262.304
256.131
250.127
244.29
238.613
233.093
227.725
222.505
217.427
212.487
207.68
203
198.442
194.002
189.675
185.455
181.337
177.316
173.388
169.547
165.789
162.108
158.499
154.963
151.495
148.092
144.747
141.457
138.218
135.025
131.876
128.767
125.695
122.657
119.651
116.674
113.724
110.799
107.897
105.017
102.156
99.3143
96.4903
93.6839
90.8961
88.133
85.3886
82.6608
79.9485
77.2513
74.5692
71.9024
69.2513
66.6164
63.9982
61.3976
58.815
56.2513
53.7072
51.1833
48.6804
46.1989
43.7394
41.302
38.8864
36.4917
34.1199
31.7685
29.4354
27.1246
24.8322
22.5561
20.2937
18.0456
15.8141
13.5843
11.349
9.10933
6.90519
4.98565
5.84659
53.8337
46.052
59.6408
75.6601
92.2867
109.204
126.331
143.578
160.945
178.398
195.939
213.567
231.264
249.035
266.875
284.775
302.722
320.699
338.687
356.666
374.614
392.506
410.316
428.02
445.588
462.993
480.206
497.197
513.937
530.395
546.541
562.346
577.78
592.813
607.418
621.565
635.229
648.382
661.001
673.061
684.54
695.416
705.672
715.289
724.25
732.543
740.154
747.073
753.292
758.805
763.606
767.694
771.069
773.732
775.686
776.938
777.496
777.368
776.568
775.111
773.014
770.301
767.003
763.127
758.682
753.682
748.148
742.102
735.567
728.568
721.129
713.276
705.036
696.433
687.495
678.247
668.717
658.93
648.912
638.689
628.287
617.728
607.039
596.242
585.359
574.414
563.426
552.417
541.405
530.41
519.448
508.537
497.693
486.929
476.26
465.698
455.256
444.944
434.771
424.748
414.882
405.18
395.648
386.293
377.118
368.128
359.326
350.714
342.295
334.068
326.035
318.196
310.551
303.097
295.834
288.76
281.872
275.168
268.645
262.298
256.125
250.122
244.284
238.608
233.088
227.721
222.5
217.423
212.483
207.675
202.996
198.438
193.999
189.671
185.451
181.333
177.313
173.385
169.544
165.786
162.105
158.496
154.96
151.492
148.089
144.745
141.455
138.215
135.023
131.874
128.765
125.693
122.655
119.649
116.673
113.723
110.798
107.896
105.015
102.155
99.3129
96.489
93.6826
90.8949
88.1318
85.3875
82.6597
79.9474
77.2502
74.5682
71.9014
69.2504
66.6155
63.9974
61.3968
58.8142
56.2506
53.7065
51.1827
48.6798
46.1983
43.7388
41.3014
38.8859
36.4912
34.1194
31.7681
29.435
27.1243
24.8319
22.5558
20.2935
18.0454
15.8139
13.5842
11.3489
9.10926
6.90516
4.98566
5.84657
103.211
62.6124
64.4798
72.5056
82.522
93.4984
105.052
116.979
129.186
141.614
154.228
167.003
179.916
192.954
206.102
219.346
232.671
246.061
259.498
272.964
286.44
299.906
313.341
326.723
340.03
353.239
366.326
379.266
392.037
404.613
416.971
429.084
440.93
452.484
463.722
474.622
485.161
495.317
505.069
514.398
523.284
531.71
539.659
547.116
554.068
560.501
566.405
571.772
576.593
580.861
584.574
587.728
590.323
592.358
593.837
594.763
595.143
594.984
594.296
593.09
591.379
589.18
586.512
583.385
579.809
575.798
571.368
566.537
561.322
555.743
549.821
543.575
537.028
530.199
523.11
515.782
508.237
500.496
492.579
484.506
476.299
467.977
459.559
451.063
442.508
433.912
425.291
416.661
408.038
399.436
390.869
382.351
373.892
365.506
357.202
348.99
340.88
332.88
324.997
317.238
309.609
302.116
294.762
287.553
280.492
273.58
266.821
260.216
253.766
247.472
241.334
235.351
229.522
223.847
218.325
212.952
207.728
202.65
197.714
192.919
188.262
183.738
179.345
175.079
170.936
166.913
163.006
159.211
155.523
151.94
148.456
145.069
141.773
138.565
135.441
132.397
129.429
126.533
123.705
120.941
118.237
115.592
113.004
110.468
107.981
105.541
103.143
100.784
98.4616
96.1732
93.916
91.6876
89.4859
87.3087
85.154
83.0201
80.9054
78.8084
76.7277
74.6623
72.6113
70.5739
68.5499
66.5397
64.5443
62.5624
60.5928
58.6347
56.6877
54.7519
52.8274
50.9143
49.0132
47.1244
45.2485
43.3861
41.5379
39.7045
37.8866
36.0848
34.2999
32.5323
30.7827
29.0515
27.3389
25.6457
23.9721
22.3182
20.6852
19.0728
17.4837
15.9188
14.3812
12.876
11.409
9.99496
8.67469
7.57157
7.22557
12.3728
103.214
62.6105
64.4771
72.5024
82.5186
93.4947
105.048
116.975
129.182
141.61
154.224
166.998
179.911
192.948
206.096
219.34
232.665
246.054
259.491
272.957
286.433
299.899
313.333
326.715
340.022
353.23
366.317
379.257
392.028
404.604
416.961
429.074
440.92
452.473
463.712
474.611
485.15
495.306
505.058
514.386
523.272
531.698
539.647
547.104
554.055
560.489
566.393
571.759
576.58
580.849
584.562
587.716
590.31
592.345
593.824
594.751
595.131
594.972
594.284
593.077
591.367
589.168
586.5
583.373
579.797
575.787
571.357
566.525
561.31
555.732
549.81
543.564
537.017
530.188
523.1
515.772
508.227
500.486
492.569
484.497
476.29
467.968
459.55
451.054
442.5
433.904
425.283
416.653
408.03
399.429
390.862
382.344
373.885
365.499
357.195
348.984
340.874
332.874
324.991
317.232
309.604
302.11
294.757
287.548
280.487
273.576
266.817
260.212
253.762
247.468
241.33
235.347
229.519
223.844
218.321
212.949
207.725
202.647
197.711
192.917
188.259
183.735
179.342
175.076
170.934
166.911
163.004
159.208
155.521
151.938
148.454
145.067
141.771
138.563
135.439
132.395
129.427
126.531
123.703
120.94
118.236
115.591
113.002
110.467
107.98
105.54
103.142
100.783
98.4607
96.1723
93.9151
91.6868
89.4851
87.3079
85.1533
83.0195
80.9048
78.8078
76.7272
74.6618
72.6108
70.5734
68.5495
66.5392
64.5439
62.562
60.5924
58.6343
56.6874
54.7516
52.827
50.914
49.0129
47.1241
45.2482
43.3859
41.5377
39.7043
37.8864
36.0846
34.2997
32.5321
30.7825
29.0513
27.3387
25.6456
23.972
22.3181
20.6851
19.0726
17.4836
15.9187
14.3811
12.8759
11.4089
9.99492
8.67467
7.57157
7.22563
12.3728
150.789
81.323
74.7986
77.9799
84.3503
92.2314
100.996
110.342
120.107
130.193
140.536
151.094
161.833
172.728
183.758
194.903
206.146
217.468
228.852
240.279
251.732
263.191
274.637
286.051
297.412
308.699
319.892
330.969
341.908
352.689
363.288
373.685
383.859
393.786
403.448
412.823
421.891
430.633
439.031
447.066
454.721
461.981
468.832
475.258
481.248
486.791
491.876
496.496
500.643
504.311
507.497
510.197
512.411
514.138
515.381
516.144
516.43
516.247
515.603
514.506
512.968
511.003
508.623
505.84
502.664
499.109
495.188
490.917
486.313
481.391
476.17
470.667
464.902
458.891
452.655
446.212
439.579
432.777
425.823
418.736
411.532
404.23
396.847
389.398
381.9
374.368
366.816
359.26
351.713
344.187
336.694
329.246
321.853
314.527
307.275
300.107
293.03
286.052
279.179
272.417
265.771
259.247
252.847
246.575
240.435
234.428
228.557
222.822
217.225
211.765
206.444
201.26
196.213
191.301
186.524
181.88
177.366
172.981
168.722
164.587
160.573
156.677
152.895
149.226
145.665
142.21
138.856
135.601
132.44
129.371
126.39
123.493
120.677
117.938
115.273
112.677
110.149
107.683
105.278
102.929
100.633
98.3901
96.1959
94.0477
91.9425
89.8775
87.8497
85.8564
83.8953
81.9638
80.0597
78.181
76.3256
74.4916
72.6774
70.8814
69.1021
67.3383
65.5887
63.8524
62.1286
60.4166
58.7161
57.027
55.3493
53.6827
52.0263
50.3797
48.7427
47.1151
45.4972
43.889
42.291
40.7036
39.1272
37.5625
36.01
34.4704
32.9445
31.4328
29.9363
28.4556
26.9914
25.5447
24.1162
22.7068
21.3177
19.95
18.6054
17.2859
15.9945
14.7352
13.5147
12.3431
11.2368
10.2285
9.39216
8.93458
9.72758
18.981
150.792
81.3206
74.7953
77.9764
84.3467
92.2277
100.992
110.338
120.103
130.188
140.532
151.09
161.829
172.724
183.753
194.898
206.141
217.462
228.846
240.273
251.726
263.185
274.631
286.045
297.405
308.692
319.885
330.962
341.901
352.681
363.281
373.678
383.851
393.778
403.44
412.815
421.883
430.625
439.022
447.057
454.712
461.973
468.823
475.249
481.239
486.782
491.867
496.487
500.634
504.302
507.487
510.188
512.401
514.129
515.372
516.135
516.421
516.238
515.594
514.497
512.96
510.994
508.614
505.831
502.656
499.101
495.18
490.91
486.305
481.383
476.162
470.66
464.894
458.884
452.648
446.205
439.573
432.771
425.817
418.73
411.526
404.224
396.841
389.392
381.894
374.362
366.811
359.255
351.708
344.182
336.689
329.241
321.849
314.522
307.271
300.103
293.026
286.048
279.175
272.413
265.768
259.243
252.844
246.572
240.432
234.426
228.554
222.82
217.222
211.763
206.441
201.258
196.21
191.299
186.522
181.878
177.364
172.979
168.72
164.585
160.571
156.675
152.894
149.225
145.664
142.208
138.855
135.599
132.439
129.37
126.389
123.492
120.676
117.937
115.272
112.676
110.148
107.683
105.277
102.928
100.633
98.3894
96.1953
94.0471
91.942
89.877
87.8492
85.856
83.8948
81.9634
80.0593
78.1806
76.3252
74.4913
72.6771
70.8811
69.1019
67.338
65.5885
63.8522
62.1284
60.4164
58.7159
57.0268
55.3492
53.6825
52.0261
50.3796
48.7425
47.115
45.497
43.8889
42.2909
40.7035
39.1271
37.5624
36.0099
34.4703
32.9444
31.4328
29.9362
28.4555
26.9914
25.5446
24.1161
22.7068
21.3176
19.95
18.6054
17.2858
15.9945
14.7351
13.5147
12.343
11.2368
10.2285
9.39216
8.9346
9.72768
18.981
196.896
100.643
86.9184
86.3176
90.0328
95.7962
102.745
110.467
118.74
127.426
136.438
145.715
155.212
164.893
174.731
184.702
194.783
204.955
215.199
225.494
235.824
246.168
256.508
266.825
277.1
287.313
297.444
307.473
317.381
327.147
336.751
346.173
355.393
364.392
373.15
381.648
389.869
397.793
405.405
412.687
419.624
426.201
432.406
438.224
443.645
448.658
453.255
457.426
461.166
464.469
467.332
469.752
471.727
473.258
474.346
474.995
475.209
474.993
474.355
473.302
471.846
469.996
467.764
465.161
462.198
458.887
455.241
451.275
447.003
442.44
437.604
432.509
427.173
421.614
415.847
409.891
403.762
397.477
391.053
384.507
377.855
371.113
364.297
357.422
350.502
343.551
336.584
329.613
322.651
315.709
308.798
301.93
295.114
288.359
281.674
275.066
268.544
262.113
255.78
249.551
243.429
237.419
231.525
225.75
220.097
214.568
209.164
203.887
198.737
193.715
188.82
184.054
179.414
174.899
170.51
166.243
162.097
158.071
154.161
150.366
146.683
143.11
139.643
136.279
133.017
129.851
126.781
123.801
120.909
118.102
115.377
112.729
110.156
107.655
105.222
102.855
100.549
98.3015
96.1098
93.9705
91.8822
89.842
87.8472
85.8949
83.9825
82.1073
80.2667
78.4582
76.6797
74.9288
73.2035
71.5019
69.8221
68.1624
66.5211
64.897
63.2885
61.6946
60.1141
58.5462
56.9899
55.4449
53.9105
52.3865
50.8728
49.3691
47.8749
46.3899
44.9138
43.4467
41.9885
40.5397
39.1003
37.6709
36.2519
34.8439
33.4474
32.0631
30.6918
29.3343
27.9913
26.6638
25.3528
24.0592
22.7843
21.5295
20.2965
19.0871
17.904
16.7504
15.6309
14.5519
13.5229
12.5586
11.6846
10.949
10.4572
10.4982
12.2727
25.4973
196.899
100.64
86.9148
86.3139
90.0291
95.7924
102.741
110.463
118.736
127.422
136.434
145.711
155.207
164.889
174.727
184.697
194.778
204.95
215.194
225.489
235.818
246.163
256.503
266.82
277.094
287.307
297.438
307.467
317.375
327.141
336.745
346.166
355.387
364.385
373.143
381.641
389.862
397.786
405.397
412.679
419.617
426.194
432.398
438.217
443.638
448.651
453.247
457.419
461.159
464.462
467.325
469.744
471.72
473.251
474.339
474.988
475.202
474.986
474.348
473.296
471.839
469.989
467.757
465.154
462.191
458.881
455.235
451.269
446.997
442.435
437.598
432.503
427.168
421.608
415.842
409.886
403.756
397.472
391.048
384.502
377.851
371.109
364.293
357.418
350.498
343.547
336.58
329.609
322.647
315.705
308.795
301.927
295.111
288.356
281.671
275.063
268.541
262.111
255.778
249.548
243.426
237.417
231.523
225.748
220.095
214.566
209.162
203.885
198.735
193.713
188.819
184.052
179.412
174.898
170.508
166.241
162.096
158.069
154.16
150.365
146.682
143.109
139.642
136.278
133.016
129.851
126.78
123.8
120.908
118.101
115.376
112.728
110.156
107.655
105.222
102.854
100.548
98.301
96.1093
93.97
91.8817
89.8416
87.8468
85.8946
83.9822
82.107
80.2664
78.458
76.6794
74.9286
73.2033
71.5017
69.8219
68.1622
66.521
64.8968
63.2884
61.6945
60.114
58.546
56.9898
55.4448
53.9104
52.3864
50.8728
49.3691
47.8749
46.3898
44.9137
43.4466
41.9885
40.5396
39.1003
37.6709
36.2519
34.8438
33.4473
32.0631
30.6918
29.3343
27.9913
26.6638
25.3527
24.0592
22.7843
21.5295
20.2964
19.0871
17.904
16.7504
15.6309
14.5519
13.5229
12.5586
11.6845
10.949
10.4572
10.4983
12.2728
25.4974
242.351
120.405
99.9994
96.0907
97.6278
101.741
107.335
113.89
121.121
128.856
136.983
145.424
154.122
163.033
172.122
181.359
190.721
200.182
209.723
219.322
228.96
238.618
248.276
257.915
267.517
277.062
286.532
295.906
305.166
314.292
323.266
332.068
340.68
349.084
357.26
365.191
372.86
380.251
387.347
394.132
400.593
406.716
412.488
417.897
422.932
427.584
431.844
435.705
439.161
442.206
444.838
447.054
448.852
450.233
451.199
451.752
451.897
451.637
450.981
449.936
448.51
446.713
444.557
442.051
439.205
436.033
432.546
428.757
424.68
420.331
415.723
410.873
405.796
400.508
395.025
389.364
383.539
377.568
371.466
365.249
358.931
352.529
346.057
339.528
332.958
326.358
319.743
313.124
306.513
299.921
293.359
286.836
280.363
273.948
267.598
261.323
255.127
249.018
243.002
237.084
231.267
225.557
219.957
214.469
209.097
203.842
198.707
193.691
188.797
184.023
179.371
174.84
170.43
166.139
161.966
157.911
153.97
150.143
146.427
142.82
139.32
135.924
132.629
129.433
126.333
123.326
120.409
117.578
114.832
112.166
109.578
107.065
104.622
102.249
99.9401
97.6937
95.5065
93.3753
91.2972
89.2701
87.2918
85.3595
83.4706
81.6223
79.8122
78.0377
76.2965
74.5862
72.9048
71.2501
69.6201
68.0131
66.4273
64.861
63.3128
61.7814
60.2654
58.7637
57.2753
55.7993
54.335
52.8818
51.4392
50.0069
48.5846
47.1721
45.769
44.375
42.9901
41.6141
40.2473
38.8897
37.5416
36.2035
34.8758
33.5589
32.2536
30.9605
29.6804
28.4141
27.1624
25.9265
24.7075
23.5066
22.3255
21.1659
20.0299
18.9203
17.8404
16.7947
15.7893
14.8325
13.937
13.1224
12.4217
11.897
11.6846
12.1551
14.8333
31.9518
242.355
120.402
99.9957
96.0869
97.6239
101.737
107.331
113.886
121.117
128.852
136.979
145.42
154.117
163.028
172.117
181.355
190.716
200.178
209.718
219.317
228.955
238.613
248.271
257.91
267.512
277.057
286.526
295.9
305.16
314.286
323.26
332.063
340.674
349.077
357.253
365.185
372.854
380.245
387.34
394.126
400.587
406.71
412.482
417.89
422.926
427.577
431.838
435.699
439.154
442.2
444.832
447.048
448.846
450.227
451.193
451.746
451.891
451.632
450.975
449.93
448.504
446.708
444.551
442.045
439.2
436.028
432.54
428.752
424.675
420.326
415.718
410.868
405.791
400.504
395.021
389.359
383.535
377.564
371.462
365.245
358.928
352.526
346.053
339.525
332.954
326.355
319.74
313.121
306.51
299.918
293.356
286.834
280.361
273.945
267.596
261.32
255.125
249.016
243
237.081
231.265
225.555
219.955
214.468
209.095
203.841
198.705
193.69
188.795
184.022
179.37
174.839
170.429
166.138
161.965
157.91
153.969
150.142
146.426
142.819
139.319
135.923
132.628
129.432
126.332
123.325
120.408
117.578
114.831
112.166
109.578
107.064
104.622
102.248
99.9397
97.6933
95.506
93.3749
91.2968
89.2698
87.2915
85.3592
83.4703
81.622
79.8119
78.0374
76.2962
74.586
72.9046
71.2499
69.6199
68.0129
66.4271
64.8609
63.3127
61.7813
60.2653
58.7636
57.2752
55.7992
54.335
52.8818
51.4392
50.0069
48.5845
47.172
45.7689
44.375
42.99
41.6141
40.2472
38.8896
37.5416
36.2035
34.8758
33.5589
32.2536
30.9605
29.6804
28.414
27.1624
25.9265
24.7075
23.5066
22.3255
21.1659
20.0299
18.9203
17.8404
16.7947
15.7893
14.8325
13.937
13.1223
12.4216
11.897
11.6846
12.1551
14.8335
31.9519
287.341
140.577
113.77
106.807
106.433
109.162
113.665
119.313
125.76
132.8
140.295
148.152
156.303
164.694
173.285
182.041
190.931
199.931
209.017
218.165
227.356
236.57
245.785
254.983
264.145
273.252
282.285
291.224
300.052
308.749
317.297
325.678
333.874
341.867
349.639
357.175
364.457
371.47
378.199
384.629
390.746
396.538
401.992
407.098
411.846
416.226
420.231
423.854
427.089
429.932
432.379
434.429
436.08
437.333
438.189
438.652
438.724
438.411
437.719
436.655
435.228
433.447
431.321
428.861
426.077
422.981
419.584
415.899
411.939
407.719
403.252
398.553
393.638
388.521
383.217
377.742
372.111
366.34
360.442
354.434
348.33
342.145
335.891
329.583
323.235
316.858
310.465
304.068
297.679
291.307
284.963
278.657
272.397
266.192
260.05
253.979
247.984
242.071
236.248
230.517
224.885
219.355
213.93
208.613
203.406
198.313
193.334
188.471
183.724
179.093
174.58
170.183
165.902
161.737
157.685
153.747
149.92
146.202
142.592
139.087
135.685
132.384
129.181
126.073
123.059
120.134
117.297
114.544
111.872
109.279
106.761
104.315
101.939
99.6289
97.3824
95.1964
93.0679
90.994
88.9722
87.0005
85.0762
83.1968
81.3597
79.5623
77.8021
76.0769
74.3843
72.7222
71.0884
69.4811
67.8983
66.3382
64.7993
63.28
61.7788
60.2944
58.8258
57.3716
55.9311
54.5034
53.0877
51.6835
50.2902
48.9076
47.5352
46.173
44.8206
43.4777
42.1443
40.8204
39.506
38.2013
36.9066
35.6222
34.3485
33.0862
31.8357
30.5978
29.3732
28.1628
26.9677
25.789
24.628
23.4861
22.3654
21.2678
20.1961
19.1536
18.1444
17.1742
16.2504
15.3834
14.5888
13.8907
13.3297
12.9817
13.0125
13.874
17.4144
38.3835
287.344
140.573
113.766
106.803
106.429
109.158
113.661
119.309
125.756
132.796
140.291
148.148
156.299
164.69
173.281
182.036
190.927
199.927
209.012
218.161
227.352
236.565
245.78
254.978
264.14
273.247
282.279
291.219
300.046
308.743
317.291
325.672
333.868
341.861
349.634
357.169
364.452
371.465
378.193
384.623
390.74
396.532
401.986
407.092
411.84
416.22
420.226
423.848
427.084
429.926
432.374
434.424
436.075
437.328
438.184
438.646
438.718
438.405
437.714
436.65
435.223
433.442
431.316
428.857
426.073
422.976
419.579
415.894
411.935
407.715
403.248
398.549
393.634
388.517
383.213
377.738
372.108
366.336
360.439
354.431
348.327
342.141
335.888
329.58
323.232
316.855
310.462
304.066
297.676
291.304
284.961
278.654
272.395
266.19
260.048
253.977
247.982
242.07
236.246
230.516
224.883
219.353
213.928
208.611
203.405
198.312
193.333
188.469
183.722
179.092
174.579
170.182
165.901
161.736
157.684
153.746
149.919
146.201
142.591
139.086
135.684
132.383
129.18
126.073
123.058
120.134
117.296
114.543
111.872
109.278
106.76
104.315
101.938
99.6285
97.382
95.196
93.0675
90.9936
88.9718
87.0001
85.0759
83.1965
81.3594
79.562
77.8019
76.0767
74.3841
72.722
71.0882
69.4809
67.8981
66.3381
64.7991
63.2798
61.7786
60.2943
58.8256
57.3715
55.931
54.5033
53.0876
51.6834
50.2901
48.9075
47.5352
46.1729
44.8205
43.4777
42.1443
40.8204
39.506
38.2013
36.9066
35.6222
34.3485
33.0861
31.8357
30.5977
29.3732
28.1628
26.9677
25.789
24.628
23.4861
22.3654
21.2678
20.1961
19.1536
18.1444
17.1742
16.2504
15.3834
14.5888
13.8907
13.3297
12.9817
13.0125
13.8741
17.4147
38.3837
332.063
161.158
128.114
118.263
116.144
117.658
121.24
126.147
131.977
138.484
145.511
152.946
160.711
168.744
176.996
185.429
194.008
202.704
211.491
220.346
229.244
238.166
247.089
255.996
264.864
273.677
282.413
291.056
299.585
307.984
316.234
324.316
332.215
339.912
347.391
354.636
361.631
368.362
374.813
380.971
386.824
392.359
397.565
402.431
406.949
411.11
414.906
418.332
421.382
424.052
426.34
428.243
429.762
430.895
431.646
432.017
432.012
431.635
430.892
429.792
428.341
426.548
424.423
421.975
419.215
416.153
412.802
409.173
405.28
401.135
396.753
392.147
387.331
382.321
377.13
371.774
366.267
360.624
354.859
348.986
343.02
336.974
330.862
324.696
318.491
312.257
306.007
299.753
293.504
287.272
281.066
274.895
268.769
262.695
256.681
250.735
244.862
239.068
233.36
227.742
222.218
216.793
211.469
206.25
201.138
196.135
191.243
186.463
181.796
177.242
172.802
168.475
164.261
160.159
156.168
152.287
148.515
144.849
141.288
137.831
134.473
131.215
128.052
124.982
122.004
119.113
116.308
113.586
110.943
108.378
105.886
103.465
101.112
98.8248
96.5998
94.4342
92.3254
90.2704
88.2672
86.3135
84.4067
82.5441
80.7233
78.9418
77.1973
75.4875
73.8101
72.1632
70.5446
68.9526
67.3852
65.8408
64.3179
62.8149
61.3305
59.8635
58.4126
56.9769
55.5554
54.1473
52.752
51.3688
49.9973
48.6371
47.2879
45.9495
44.6216
43.3041
41.9967
40.6996
39.4128
38.1363
36.8706
35.6158
34.3725
33.1411
31.9223
30.7166
29.525
28.3483
27.1876
26.0442
24.9195
23.8154
22.7338
21.6773
20.649
19.6529
18.6938
17.7785
16.9156
16.1178
15.4032
14.8004
14.3576
14.1646
14.4167
15.6481
20.0284
44.8365
332.066
161.154
128.11
118.259
116.14
117.654
121.236
126.143
131.973
138.48
145.506
152.942
160.707
168.739
176.992
185.424
194.003
202.7
211.487
220.341
229.24
238.161
247.085
255.991
264.859
273.672
282.408
291.051
299.58
307.979
316.228
324.311
332.209
339.906
347.386
354.631
361.626
368.356
374.807
380.966
386.819
392.354
397.559
402.426
406.944
411.104
414.901
418.327
421.377
424.047
426.335
428.238
429.757
430.891
431.641
432.012
432.007
431.63
430.888
429.787
428.336
426.543
424.418
421.971
419.211
416.149
412.798
409.17
405.276
401.131
396.749
392.143
387.328
382.317
377.127
371.771
366.264
360.621
354.856
348.983
343.017
336.971
330.859
324.694
318.488
312.255
306.005
299.75
293.502
287.27
281.064
274.893
268.767
262.693
256.68
250.733
244.86
239.067
233.359
227.74
222.217
216.791
211.467
206.248
201.136
196.134
191.242
186.462
181.794
177.241
172.801
168.474
164.26
160.158
156.167
152.286
148.514
144.848
141.288
137.83
134.473
131.214
128.051
124.982
122.003
119.113
116.308
113.586
110.943
108.377
105.885
103.464
101.112
98.8244
96.5993
94.4338
92.325
90.27
88.2669
86.3132
84.4064
82.5438
80.723
78.9415
77.197
75.4872
73.8099
72.163
70.5444
68.9524
67.385
65.8407
64.3177
62.8148
61.3304
59.8633
58.4125
56.9767
55.5553
54.1472
52.7519
51.3687
49.9972
48.637
47.2878
45.9494
44.6216
43.304
41.9967
40.6996
39.4127
38.1363
36.8705
35.6158
34.3725
33.1411
31.9222
30.7166
29.5249
28.3482
27.1876
26.0442
24.9195
23.8154
22.7338
21.6773
20.649
19.6529
18.6938
17.7785
16.9156
16.1177
15.4032
14.8004
14.3575
14.1646
14.4167
15.6481
20.0286
44.8366
376.849
182.248
143.025
130.379
126.624
127.037
129.812
134.096
139.423
145.513
152.185
159.312
166.804
174.589
182.615
190.835
199.213
207.715
216.313
224.981
233.693
242.429
251.164
259.88
268.556
277.172
285.708
294.147
302.47
310.658
318.695
326.561
334.242
341.719
348.977
356
362.774
369.284
375.517
381.459
387.098
392.423
397.424
402.09
406.414
410.387
414.003
417.256
420.142
422.657
424.799
426.565
427.957
428.975
429.62
429.896
429.806
429.355
428.55
427.397
425.904
424.079
421.931
419.471
416.707
413.651
410.314
406.708
402.845
398.738
394.401
389.846
385.089
380.141
375.019
369.735
364.305
358.741
353.059
347.271
341.392
335.435
329.412
323.337
317.221
311.078
304.917
298.751
292.589
286.442
280.32
274.231
268.185
262.188
256.249
250.375
244.571
238.844
233.199
227.641
222.175
216.804
211.531
206.36
201.294
196.333
191.48
186.737
182.103
177.581
173.169
168.868
164.677
160.596
156.624
152.759
149.001
145.348
141.798
138.348
134.998
131.745
128.585
125.519
122.541
119.65
116.844
114.119
111.473
108.903
106.406
103.979
101.62
99.3257
97.093
94.9194
92.802
90.7383
88.7265
86.7639
84.8479
82.9761
81.146
79.3552
77.6014
75.8824
74.1961
72.5405
70.9136
69.3136
67.7387
66.1874
64.6581
63.1494
61.66
60.1887
58.7343
57.296
55.8727
54.4639
53.0686
51.6866
50.3171
48.9599
47.6147
46.2812
44.9593
43.6487
42.3493
41.0611
39.7842
38.5187
37.2647
36.0227
34.793
33.5761
32.3726
31.1831
30.0085
28.8499
27.7082
26.5849
25.4815
24.4001
23.3429
22.3129
21.3135
20.3493
19.4259
18.551
17.7347
16.9914
16.3422
15.8201
15.4805
15.4278
15.8875
17.4768
22.6933
51.3511
376.852
182.243
143.021
130.375
126.62
127.033
129.808
134.092
139.419
145.509
152.181
159.308
166.799
174.585
182.611
190.831
199.209
207.711
216.309
224.976
233.689
242.424
251.16
259.875
268.551
277.167
285.703
294.142
302.465
310.653
318.69
326.556
334.237
341.714
348.972
355.995
362.769
369.279
375.512
381.454
387.093
392.418
397.419
402.085
406.409
410.382
413.998
417.251
420.137
422.652
424.794
426.561
427.953
428.97
429.616
429.891
429.802
429.351
428.546
427.393
425.9
424.075
421.927
419.467
416.703
413.647
410.31
406.704
402.841
398.735
394.398
389.843
385.085
380.138
375.016
369.733
364.302
358.739
353.056
347.269
341.39
335.432
329.41
323.334
317.219
311.075
304.915
298.748
292.587
286.44
280.318
274.23
268.183
262.186
256.247
250.373
244.569
238.842
233.198
227.64
222.173
216.802
211.53
206.359
201.292
196.332
191.479
186.736
182.102
177.58
173.168
168.867
164.676
160.595
156.623
152.758
149
145.347
141.797
138.347
134.997
131.744
128.585
125.518
122.54
119.65
116.844
114.119
111.473
108.903
106.406
103.979
101.62
99.3253
97.0926
94.9189
92.8016
90.7379
88.7261
86.7636
84.8476
82.9758
81.1457
79.3549
77.6011
75.8821
74.1958
72.5402
70.9133
69.3133
67.7385
66.1872
64.6579
63.1492
61.6598
60.1885
58.7342
57.2958
55.8726
54.4637
53.0685
51.6864
50.317
48.9598
47.6146
46.2812
44.9592
43.6486
42.3493
41.0611
39.7841
38.5186
37.2647
36.0227
34.793
33.5761
32.3725
31.1831
30.0085
28.8498
27.7081
26.5848
25.4815
24.4001
23.3429
22.3129
21.3135
20.3493
19.4259
18.551
17.7347
16.9914
16.3422
15.82
15.4805
15.4278
15.8875
17.4769
22.6936
51.3512
421.936
203.88
158.522
143.136
137.815
137.206
139.258
143.002
147.912
153.671
160.073
166.977
174.279
181.902
189.784
197.875
206.133
214.522
223.011
231.572
240.177
248.803
257.427
266.027
274.582
283.073
291.479
299.782
307.963
316.005
323.889
331.598
339.116
346.427
353.516
360.366
366.964
373.297
379.351
385.113
390.573
395.72
400.545
405.037
409.189
412.995
416.449
419.544
422.278
424.647
426.649
428.284
429.551
430.452
430.989
431.164
430.983
430.449
429.57
428.351
426.8
424.926
422.738
420.244
417.456
414.382
411.035
407.426
403.567
399.47
395.148
390.615
385.884
380.968
375.88
370.636
365.247
359.728
354.093
348.354
342.525
336.619
330.648
324.625
318.562
312.47
306.36
300.243
294.13
288.03
281.953
275.908
269.902
263.944
258.041
252.201
246.428
240.73
235.111
229.576
224.13
218.777
213.519
208.361
203.303
198.35
193.502
188.76
184.127
179.601
175.185
170.877
166.677