/*--------------------------------*- C++ -*----------------------------------*\
  =========                 |
  \\      /  F ield         | OpenFOAM: The Open Source CFD Toolbox
   \\    /   O peration     | Website:  https://openfoam.org
    \\  /    A nd           | Version:  8
     \\/     M anipulation  |
\*---------------------------------------------------------------------------*/
FoamFile
{
    version     2.0;
    format      ascii;
    class       volScalarField;
    location    "3100";
    object      k;
}
// * * * * * * * * * * * * * * * * * * * * * * * * * * * * * * * * * * * * * //

dimensions      [0 2 -2 0 0 0 0];

internalField   nonuniform List<scalar> 
46000
(
0.00966667
0.0415567
0.0790187
0.114107
0.147278
0.179387
0.210784
0.241556
0.271884
0.301871
0.331657
0.361244
0.390548
0.419668
0.448621
0.47741
0.506026
0.534456
0.562683
0.590686
0.618441
0.64592
0.673096
0.699938
0.726414
0.752494
0.778142
0.803326
0.828011
0.852163
0.875749
0.898735
0.921089
0.942777
0.963768
0.984033
1.00354
1.02227
1.04018
1.05726
1.07348
1.08882
1.10326
1.11679
1.12938
1.14103
1.15172
1.16145
1.1702
1.17798
1.18477
1.19059
1.19543
1.1993
1.2022
1.20415
1.20515
1.20521
1.20436
1.20262
1.2
1.19653
1.19227
1.18722
1.18138
1.17477
1.16743
1.15937
1.15063
1.14124
1.13123
1.12064
1.10948
1.0978
1.08563
1.07301
1.05996
1.04652
1.03272
1.0186
1.00418
0.98951
0.974606
0.959504
0.944234
0.928825
0.913305
0.897702
0.882042
0.866352
0.850655
0.834975
0.819335
0.803756
0.788257
0.772858
0.757577
0.74243
0.727433
0.7126
0.697944
0.683478
0.669211
0.655155
0.641318
0.627707
0.61433
0.601192
0.588298
0.575652
0.563256
0.551113
0.539225
0.527591
0.516212
0.505087
0.494214
0.483592
0.473216
0.463085
0.453195
0.443541
0.434118
0.424922
0.415948
0.407189
0.398641
0.390295
0.382147
0.37419
0.366417
0.35882
0.351394
0.34413
0.337023
0.330064
0.323247
0.316565
0.31001
0.303576
0.297255
0.291041
0.284925
0.278907
0.272987
0.267151
0.261393
0.255707
0.250087
0.244528
0.239024
0.233572
0.228167
0.222805
0.217482
0.212194
0.206939
0.201714
0.196516
0.191342
0.186192
0.181063
0.175953
0.170863
0.165812
0.160786
0.155781
0.150794
0.145825
0.140875
0.135944
0.131034
0.126144
0.121277
0.116433
0.111613
0.106819
0.102052
0.0973119
0.0926005
0.087918
0.083265
0.0786414
0.0740456
0.0694666
0.0649248
0.0604062
0.0559052
0.0514214
0.0469455
0.0424687
0.0379774
0.0334622
0.0289309
0.0243298
0.0196124
0.0147255
0.00963363
0.00453092
0.000913172
0.00966747
0.0415589
0.0790213
0.11411
0.147281
0.179389
0.210786
0.241558
0.271886
0.301873
0.331659
0.361246
0.39055
0.419669
0.448623
0.477411
0.506027
0.534457
0.562684
0.590687
0.618441
0.645921
0.673096
0.699938
0.726415
0.752494
0.778142
0.803326
0.828011
0.852163
0.875749
0.898735
0.921088
0.942776
0.963768
0.984032
1.00354
1.02227
1.04018
1.05726
1.07348
1.08882
1.10326
1.11679
1.12938
1.14103
1.15172
1.16145
1.1702
1.17798
1.18477
1.19059
1.19543
1.1993
1.2022
1.20415
1.20514
1.20521
1.20436
1.20262
1.19999
1.19653
1.19227
1.18722
1.18138
1.17477
1.16743
1.15937
1.15063
1.14124
1.13123
1.12063
1.10948
1.0978
1.08563
1.073
1.05996
1.04652
1.03272
1.0186
1.00418
0.989508
0.974604
0.959502
0.944232
0.928823
0.913303
0.8977
0.88204
0.86635
0.850653
0.834974
0.819333
0.803754
0.788255
0.772857
0.757575
0.742428
0.727431
0.712598
0.697942
0.683476
0.66921
0.655154
0.641316
0.627706
0.614329
0.601191
0.588297
0.57565
0.563255
0.551112
0.539224
0.52759
0.516211
0.505086
0.494213
0.48359
0.473215
0.463084
0.453194
0.443539
0.434117
0.424921
0.415947
0.407188
0.39864
0.390294
0.382146
0.374189
0.366416
0.358819
0.351393
0.34413
0.337022
0.330063
0.323247
0.316564
0.310009
0.303575
0.297254
0.29104
0.284924
0.278907
0.272986
0.267151
0.261393
0.255706
0.250086
0.244527
0.239024
0.233572
0.228167
0.222804
0.217481
0.212194
0.206939
0.201713
0.196515
0.191342
0.186192
0.181062
0.175953
0.170863
0.165811
0.160786
0.15578
0.150793
0.145824
0.140874
0.135944
0.131033
0.126144
0.121277
0.116433
0.111613
0.106819
0.102052
0.0973117
0.0926003
0.0879179
0.0832649
0.0786412
0.0740455
0.0694665
0.0649247
0.0604061
0.0559052
0.0514213
0.0469455
0.0424688
0.0379774
0.0334624
0.028931
0.0243299
0.0196125
0.0147256
0.00963374
0.00453098
0.000913192
0.0412252
0.141496
0.21346
0.273557
0.327453
0.377384
0.424416
0.469335
0.512674
0.554703
0.59565
0.635698
0.674958
0.713526
0.751466
0.788824
0.825627
0.861893
0.89763
0.932836
0.967507
1.00163
1.03519
1.06817
1.10055
1.1323
1.1634
1.19382
1.22353
1.2525
1.28071
1.30813
1.33472
1.36046
1.38533
1.40928
1.4323
1.45435
1.47543
1.49549
1.51453
1.53252
1.54944
1.56528
1.58002
1.59366
1.60617
1.61756
1.62782
1.63694
1.64493
1.65178
1.65751
1.6621
1.66558
1.66795
1.66923
1.66943
1.66856
1.66666
1.66373
1.65981
1.65493
1.64911
1.64237
1.63473
1.62622
1.61688
1.60673
1.59581
1.58415
1.57178
1.55875
1.54509
1.53083
1.51601
1.50067
1.48484
1.46857
1.45188
1.43481
1.41741
1.39969
1.38171
1.36348
1.34505
1.32645
1.30771
1.28886
1.26992
1.25094
1.23193
1.21292
1.19393
1.175
1.15614
1.13737
1.11872
1.10021
1.08184
1.06365
1.04564
1.02782
1.01022
0.992845
0.975702
0.958803
0.942156
0.925769
0.909648
0.893798
0.878223
0.862928
0.847914
0.833182
0.818734
0.804569
0.790686
0.777083
0.763759
0.75071
0.737932
0.725421
0.713172
0.701179
0.689438
0.677941
0.666682
0.655654
0.64485
0.634261
0.62388
0.613698
0.603708
0.5939
0.584266
0.574797
0.565485
0.556319
0.547292
0.538393
0.529613
0.520953
0.512403
0.503953
0.495593
0.487314
0.479108
0.470967
0.462882
0.454848
0.446855
0.438899
0.430972
0.423068
0.415181
0.407307
0.399439
0.391573
0.383705
0.37583
0.367945
0.360046
0.352131
0.344196
0.336246
0.328275
0.32028
0.312259
0.30421
0.296132
0.288025
0.279886
0.271715
0.263512
0.255274
0.247001
0.238692
0.230344
0.221954
0.213519
0.205035
0.196496
0.187895
0.179222
0.170466
0.161609
0.152628
0.143515
0.134232
0.124739
0.114979
0.104873
0.0943179
0.0831989
0.0712963
0.0582691
0.0435164
0.0256854
0.00444571
0.0412269
0.141499
0.213462
0.273558
0.327454
0.377385
0.424416
0.469335
0.512674
0.554702
0.595649
0.635697
0.674957
0.713525
0.751465
0.788822
0.825625
0.861891
0.897628
0.932834
0.967505
1.00163
1.03519
1.06817
1.10054
1.1323
1.16339
1.19381
1.22352
1.2525
1.28071
1.30813
1.33472
1.36046
1.38532
1.40927
1.43229
1.45435
1.47542
1.49549
1.51452
1.53251
1.54944
1.56527
1.58002
1.59365
1.60617
1.61756
1.62782
1.63694
1.64493
1.65178
1.6575
1.6621
1.66557
1.66795
1.66922
1.66942
1.66856
1.66665
1.66373
1.65981
1.65493
1.64911
1.64236
1.63472
1.62622
1.61687
1.60672
1.5958
1.58414
1.57178
1.55875
1.54508
1.53082
1.51601
1.50067
1.48484
1.46856
1.45187
1.43481
1.4174
1.39969
1.3817
1.36348
1.34505
1.32645
1.3077
1.28885
1.26992
1.25093
1.23192
1.21291
1.19393
1.17499
1.15613
1.13737
1.11872
1.1002
1.08184
1.06364
1.04563
1.02782
1.01022
0.99284
0.975698
0.958798
0.942152
0.925765
0.909643
0.893793
0.878219
0.862924
0.847909
0.833178
0.81873
0.804565
0.790682
0.777079
0.763755
0.750706
0.737928
0.725417
0.713168
0.701176
0.689435
0.677938
0.666679
0.655651
0.644846
0.634258
0.623876
0.613695
0.603705
0.593897
0.584263
0.574794
0.565482
0.556317
0.547289
0.538391
0.529611
0.52095
0.5124
0.50395
0.495591
0.487312
0.479106
0.470965
0.46288
0.454845
0.446853
0.438897
0.43097
0.423066
0.415179
0.407305
0.399437
0.391571
0.383703
0.375828
0.367944
0.360045
0.352129
0.344194
0.336244
0.328274
0.320279
0.312258
0.304209
0.296131
0.288023
0.279885
0.271714
0.263511
0.255273
0.247
0.238691
0.230343
0.221953
0.213518
0.205034
0.196495
0.187894
0.179221
0.170465
0.161608
0.152627
0.143515
0.134231
0.124738
0.114979
0.104873
0.0943175
0.0831986
0.0712961
0.058269
0.0435163
0.0256853
0.0044457
0.0794477
0.215164
0.303069
0.374473
0.438272
0.497296
0.553013
0.606204
0.657429
0.707056
0.755348
0.802498
0.848646
0.893897
0.938328
0.981994
1.02493
1.06717
1.10871
1.14957
1.18975
1.22922
1.26799
1.30603
1.34332
1.37984
1.41556
1.45046
1.48451
1.51767
1.54993
1.58124
1.61158
1.64092
1.66923
1.69648
1.72265
1.7477
1.77162
1.79437
1.81595
1.83632
1.85547
1.87339
1.89005
1.90545
1.91958
1.93242
1.94398
1.95426
1.96324
1.97094
1.97736
1.98251
1.98639
1.98901
1.9904
1.99057
1.98953
1.98731
1.98394
1.97944
1.97384
1.96716
1.95944
1.95069
1.94096
1.93028
1.91868
1.9062
1.89287
1.87874
1.86384
1.84822
1.83191
1.81495
1.79739
1.77927
1.76062
1.74148
1.72191
1.70193
1.68159
1.66092
1.63997
1.61877
1.59735
1.57576
1.55403
1.53218
1.51026
1.4883
1.46631
1.44435
1.42242
1.40056
1.3788
1.35715
1.33564
1.31429
1.29312
1.27214
1.25139
1.23086
1.21058
1.19055
1.17079
1.15132
1.13213
1.11324
1.09465
1.07637
1.05841
1.04076
1.02343
1.00642
0.989739
0.973374
0.957329
0.941601
0.926187
0.911083
0.896285
0.881788
0.867585
0.853671
0.840038
0.82668
0.813587
0.800753
0.788167
0.775822
0.763707
0.751813
0.74013
0.728648
0.717357
0.706246
0.695305
0.684523
0.673889
0.663399
0.653045
0.642815
0.632698
0.622684
0.612762
0.602921
0.593153
0.583448
0.573798
0.564192
0.554625
0.545087
0.535571
0.52607
0.516576
0.507085
0.49759
0.488084
0.478564
0.469024
0.459461
0.449869
0.440247
0.430593
0.420904
0.411177
0.401407
0.391593
0.381732
0.371823
0.361864
0.351853
0.341788
0.331668
0.32149
0.311251
0.300949
0.290578
0.280136
0.269615
0.259008
0.248305
0.237494
0.226562
0.215488
0.204249
0.192817
0.181149
0.169209
0.156927
0.144216
0.130954
0.116988
0.10207
0.0857691
0.067189
0.0436502
0.00945605
0.07945
0.215165
0.303069
0.374473
0.438271
0.497295
0.553011
0.606202
0.657427
0.707054
0.755345
0.802495
0.848643
0.893894
0.938325
0.981991
1.02493
1.06716
1.10871
1.14957
1.18974
1.22922
1.26799
1.30602
1.34331
1.37983
1.41556
1.45046
1.4845
1.51767
1.54992
1.58123
1.61157
1.64091
1.66922
1.69648
1.72264
1.74769
1.77161
1.79437
1.81594
1.83631
1.85546
1.87338
1.89004
1.90544
1.91957
1.93242
1.94398
1.95425
1.96324
1.97094
1.97735
1.9825
1.98638
1.989
1.99039
1.99056
1.98952
1.98731
1.98393
1.97943
1.97383
1.96715
1.95943
1.95069
1.94096
1.93027
1.91867
1.90619
1.89286
1.87873
1.86383
1.84821
1.8319
1.81494
1.79738
1.77926
1.76061
1.74148
1.7219
1.70192
1.68158
1.66092
1.63996
1.61876
1.59735
1.57575
1.55402
1.53218
1.51025
1.48829
1.46631
1.44434
1.42241
1.40056
1.37879
1.35714
1.33563
1.31428
1.29311
1.27214
1.25138
1.23085
1.21057
1.19054
1.17079
1.15131
1.13212
1.11323
1.09464
1.07637
1.0584
1.04075
1.02343
1.00642
0.989734
0.973369
0.957324
0.941596
0.926182
0.911078
0.89628
0.881783
0.867581
0.853667
0.840034
0.826676
0.813583
0.800749
0.788163
0.775818
0.763703
0.751809
0.740126
0.728644
0.717353
0.706243
0.695302
0.68452
0.673886
0.663396
0.653042
0.642812
0.632695
0.622681
0.612759
0.602918
0.59315
0.583446
0.573795
0.56419
0.554623
0.545084
0.535568
0.526067
0.516574
0.507083
0.497588
0.488082
0.478562
0.469022
0.459459
0.449867
0.440245
0.430592
0.420903
0.411175
0.401405
0.391591
0.381731
0.371822
0.361863
0.351852
0.341787
0.331667
0.321489
0.31125
0.300948
0.290577
0.280135
0.269614
0.259007
0.248304
0.237494
0.226561
0.215487
0.204249
0.192817
0.181149
0.169208
0.156926
0.144216
0.130954
0.116988
0.10207
0.085769
0.067189
0.0436502
0.00945603
0.116391
0.278326
0.377845
0.456962
0.527229
0.592249
0.653732
0.712583
0.769362
0.824446
0.878098
0.930509
0.98182
1.03213
1.08153
1.13006
1.17776
1.22465
1.27076
1.31608
1.36062
1.40435
1.44727
1.48936
1.5306
1.57095
1.6104
1.64892
1.68647
1.72303
1.75856
1.79303
1.82641
1.85867
1.88978
1.91971
1.94842
1.9759
2.00212
2.02705
2.05067
2.07296
2.0939
2.11347
2.13166
2.14846
2.16386
2.17784
2.19041
2.20157
2.21131
2.21964
2.22656
2.23208
2.23621
2.23897
2.24037
2.24042
2.23916
2.2366
2.23278
2.22771
2.22143
2.21397
2.20536
2.19562
2.18481
2.17294
2.16007
2.14622
2.13145
2.11578
2.09928
2.08197
2.0639
2.04512
2.02566
2.00558
1.98492
1.96372
1.94203
1.91989
1.89734
1.87442
1.85118
1.82766
1.8039
1.77994
1.7558
1.73155
1.70719
1.68278
1.65835
1.63392
1.60954
1.58522
1.56099
1.53689
1.51293
1.48914
1.46554
1.44216
1.41901
1.39611
1.37347
1.35111
1.32904
1.30729
1.28584
1.26472
1.24394
1.22349
1.20339
1.18363
1.16423
1.14518
1.12649
1.10815
1.09016
1.07253
1.05524
1.03829
1.02169
1.00542
0.989471
0.973846
0.958534
0.943526
0.928814
0.914389
0.900241
0.88636
0.872736
0.859359
0.846216
0.833298
0.820592
0.808087
0.795772
0.783634
0.771664
0.759857
0.748199
0.736679
0.725284
0.714003
0.702825
0.691737
0.680731
0.669794
0.658918
0.648092
0.637308
0.626556
0.615827
0.605115
0.594411
0.583708
0.572999
0.562278
0.551539
0.540777
0.529987
0.519164
0.508306
0.497409
0.48647
0.475484
0.464449
0.453361
0.442217
0.431016
0.419754
0.40843
0.39704
0.385584
0.374057
0.362456
0.350778
0.339019
0.327172
0.315231
0.303187
0.291031
0.278749
0.266326
0.253743
0.240975
0.227992
0.214754
0.201214
0.187302
0.172936
0.157992
0.14229
0.12556
0.107283
0.0862722
0.0587698
0.0145527
0.116394
0.278327
0.377845
0.456961
0.527227
0.592247
0.65373
0.71258
0.76936
0.824444
0.878095
0.930506
0.981816
1.03213
1.08152
1.13005
1.17775
1.22465
1.27076
1.31608
1.36061
1.40435
1.44727
1.48936
1.53059
1.57095
1.6104
1.64891
1.68646
1.72302
1.75855
1.79302
1.8264
1.85866
1.88977
1.9197
1.94842
1.9759
2.00212
2.02704
2.05066
2.07295
2.09389
2.11346
2.13165
2.14845
2.16385
2.17783
2.19041
2.20156
2.2113
2.21963
2.22655
2.23207
2.2362
2.23896
2.24036
2.24042
2.23915
2.2366
2.23277
2.2277
2.22142
2.21396
2.20535
2.19562
2.1848
2.17293
2.16006
2.14621
2.13144
2.11578
2.09927
2.08196
2.06389
2.04511
2.02566
2.00558
1.98491
1.96372
1.94202
1.91988
1.89733
1.87442
1.85118
1.82766
1.80389
1.77993
1.7558
1.73154
1.70719
1.68278
1.65834
1.63392
1.60953
1.58521
1.56098
1.53688
1.51292
1.48913
1.46554
1.44215
1.419
1.3961
1.37346
1.3511
1.32904
1.30728
1.28584
1.26472
1.24393
1.22348
1.20338
1.18363
1.16423
1.14518
1.12648
1.10814
1.09016
1.07252
1.05523
1.03829
1.02168
1.00541
0.989467
0.973842
0.95853
0.943522
0.92881
0.914385
0.900238
0.886357
0.872733
0.859356
0.846213
0.833295
0.820589
0.808084
0.795769
0.783631
0.771661
0.759854
0.748196
0.736676
0.725282
0.714001
0.702822
0.691735
0.680728
0.669792
0.658916
0.64809
0.637306
0.626554
0.615825
0.605113
0.594409
0.583706
0.572997
0.562276
0.551537
0.540775
0.529985
0.519163
0.508304
0.497408
0.486468
0.475483
0.464448
0.45336
0.442216
0.431015
0.419753
0.408429
0.397039
0.385583
0.374056
0.362455
0.350777
0.339018
0.327171
0.31523
0.303186
0.29103
0.278748
0.266326
0.253743
0.240975
0.227991
0.214754
0.201213
0.187301
0.172936
0.157992
0.142289
0.12556
0.107283
0.0862723
0.0587699
0.0145527
0.152248
0.336084
0.445935
0.531721
0.607223
0.676996
0.743017
0.806309
0.867476
0.926903
0.984856
1.04152
1.09703
1.15149
1.20497
1.25752
1.30917
1.35995
1.40985
1.4589
1.50708
1.55437
1.60077
1.64625
1.69078
1.73435
1.77692
1.81845
1.85893
1.89832
1.93657
1.97367
2.00958
2.04426
2.07768
2.10981
2.14063
2.1701
2.1982
2.2249
2.25018
2.27402
2.29639
2.31729
2.3367
2.3546
2.37099
2.38586
2.39921
2.41103
2.42133
2.4301
2.43736
2.44312
2.44739
2.45018
2.45151
2.4514
2.44987
2.44695
2.44267
2.43706
2.43014
2.42195
2.41252
2.4019
2.3901
2.37718
2.36318
2.34813
2.33208
2.31508
2.29717
2.27839
2.2588
2.23844
2.21735
2.19559
2.17319
2.15022
2.12671
2.10271
2.07827
2.05343
2.02824
2.00274
1.97698
1.95099
1.92482
1.89851
1.87209
1.84561
1.81909
1.79257
1.7661
1.73969
1.71337
1.68719
1.66115
1.6353
1.60965
1.58422
1.55904
1.53413
1.5095
1.48516
1.46115
1.43745
1.4141
1.39109
1.36844
1.34616
1.32425
1.30271
1.28155
1.26077
1.24038
1.22036
1.20073
1.18148
1.1626
1.1441
1.12596
1.10818
1.09075
1.07368
1.05694
1.04053
1.02444
1.00867
0.993191
0.978006
0.963099
0.94846
0.934076
0.919936
0.906027
0.892337
0.878853
0.865562
0.852459
0.839531
0.826765
0.814148
0.801668
0.789312
0.777068
0.764923
0.752867
0.740887
0.728974
0.717117
0.705306
0.69353
0.681782
0.670052
0.658331
0.646613
0.63489
0.623155
0.611401
0.599624
0.587817
0.575976
0.564097
0.552176
0.54021
0.528193
0.516122
0.503994
0.491806
0.479554
0.467237
0.45485
0.442391
0.429858
0.417247
0.404554
0.391775
0.378905
0.365939
0.352868
0.339685
0.326379
0.312937
0.299344
0.28558
0.271621
0.257438
0.242991
0.228232
0.213095
0.19749
0.181286
0.16429
0.146185
0.126349
0.103301
0.0723598
0.0195904
0.15225
0.336084
0.445934
0.53172
0.607221
0.676994
0.743014
0.806307
0.867473
0.9269
0.984853
1.04152
1.09703
1.15149
1.20497
1.25752
1.30917
1.35994
1.40985
1.4589
1.50707
1.55437
1.60076
1.64624
1.69078
1.73434
1.77691
1.81845
1.85893
1.89831
1.93657
1.97367
2.00957
2.04425
2.07767
2.10981
2.14062
2.1701
2.19819
2.22489
2.25017
2.27401
2.29639
2.31729
2.33669
2.3546
2.37099
2.38586
2.3992
2.41102
2.42132
2.43009
2.43736
2.44312
2.44738
2.45017
2.4515
2.45139
2.44986
2.44695
2.44266
2.43705
2.43013
2.42194
2.41252
2.40189
2.3901
2.37718
2.36317
2.34812
2.33208
2.31508
2.29716
2.27839
2.25879
2.23843
2.21734
2.19558
2.17319
2.15021
2.1267
2.1027
2.07826
2.05343
2.02824
2.00274
1.97697
1.95099
1.92482
1.8985
1.87209
1.8456
1.81908
1.79257
1.76609
1.73968
1.71337
1.68718
1.66115
1.6353
1.60964
1.58422
1.55904
1.53412
1.50949
1.48516
1.46114
1.43745
1.41409
1.39109
1.36844
1.34616
1.32424
1.3027
1.28155
1.26077
1.24037
1.22036
1.20073
1.18147
1.1626
1.14409
1.12595
1.10817
1.09075
1.07367
1.05694
1.04053
1.02444
1.00866
0.993188
0.978003
0.963096
0.948457
0.934074
0.919933
0.906024
0.892334
0.87885
0.865559
0.852456
0.839528
0.826763
0.814146
0.801666
0.78931
0.777066
0.764921
0.752865
0.740886
0.728973
0.717115
0.705304
0.693529
0.68178
0.67005
0.65833
0.646612
0.634889
0.623153
0.6114
0.599623
0.587816
0.575975
0.564096
0.552175
0.540208
0.528192
0.516121
0.503993
0.491805
0.479553
0.467236
0.454849
0.442391
0.429857
0.417246
0.404553
0.391774
0.378905
0.365938
0.352868
0.339684
0.326378
0.312936
0.299343
0.285579
0.271621
0.257437
0.242991
0.228232
0.213095
0.19749
0.181286
0.16429
0.146185
0.126349
0.103302
0.07236
0.0195904
0.187635
0.39042
0.509933
0.602065
0.682488
0.756551
0.826567
0.893714
0.958661
1.02183
1.08348
1.14382
1.20297
1.26102
1.31804
1.37408
1.42917
1.48332
1.53654
1.58883
1.64018
1.69058
1.73999
1.78841
1.83581
1.88215
1.92741
1.97156
2.01455
2.05636
2.09695
2.13628
2.17433
2.21106
2.24643
2.28042
2.313
2.34413
2.37378
2.40194
2.42859
2.45369
2.47723
2.49919
2.51956
2.53834
2.5555
2.57104
2.58497
2.59728
2.60797
2.61704
2.62451
2.63039
2.63469
2.63743
2.63862
2.63828
2.63645
2.63315
2.6284
2.62225
2.61471
2.60583
2.59565
2.58419
2.5715
2.55761
2.54259
2.52645
2.50927
2.49107
2.4719
2.45183
2.43088
2.40912
2.38659
2.36335
2.33943
2.3149
2.2898
2.26418
2.23809
2.21157
2.18468
2.15745
2.12995
2.1022
2.07425
2.04614
2.01793
1.98963
1.9613
1.93297
1.90467
1.87644
1.84831
1.82031
1.79247
1.76481
1.73737
1.71016
1.68321
1.65653
1.63016
1.6041
1.57837
1.55298
1.52795
1.50329
1.47901
1.45511
1.4316
1.40849
1.38579
1.36349
1.34159
1.3201
1.29901
1.27833
1.25804
1.23815
1.21865
1.19954
1.1808
1.16243
1.14442
1.12676
1.10945
1.09246
1.0758
1.05945
1.04339
1.02762
1.01212
0.996883
0.981891
0.967134
0.952596
0.93827
0.924144
0.910205
0.896438
0.882832
0.869371
0.856044
0.842836
0.829737
0.816732
0.803812
0.790963
0.778176
0.765439
0.752742
0.740077
0.727432
0.714801
0.702174
0.689544
0.676903
0.664246
0.651566
0.638857
0.626114
0.613332
0.600508
0.587638
0.574716
0.561739
0.548702
0.535603
0.522438
0.509203
0.495896
0.482513
0.469051
0.455505
0.441873
0.428149
0.414327
0.400403
0.386368
0.372213
0.357928
0.343501
0.328917
0.314155
0.299194
0.284002
0.268543
0.252767
0.236606
0.219967
0.202711
0.184618
0.165311
0.14406
0.119113
0.0849875
0.024587
0.187638
0.39042
0.509932
0.602063
0.682486
0.756549
0.826564
0.893711
0.958658
1.02182
1.08348
1.14381
1.20296
1.26101
1.31804
1.37408
1.42917
1.48332
1.53654
1.58883
1.64018
1.69057
1.73999
1.78841
1.83581
1.88215
1.92741
1.97155
2.01454
2.05635
2.09694
2.13628
2.17433
2.21105
2.24643
2.28042
2.31299
2.34412
2.37378
2.40194
2.42858
2.45368
2.47722
2.49918
2.51956
2.53833
2.55549
2.57104
2.58496
2.59727
2.60796
2.61704
2.62451
2.63039
2.63469
2.63742
2.63861
2.63828
2.63645
2.63314
2.6284
2.62224
2.61471
2.60583
2.59564
2.58418
2.57149
2.55761
2.54258
2.52645
2.50926
2.49106
2.4719
2.45182
2.43088
2.40911
2.38659
2.36334
2.33943
2.3149
2.28979
2.26417
2.23808
2.21156
2.18467
2.15745
2.12994
2.10219
2.07424
2.04614
2.01792
1.98963
1.9613
1.93296
1.90467
1.87644
1.8483
1.8203
1.79246
1.76481
1.73736
1.71015
1.6832
1.65653
1.63015
1.60409
1.57836
1.55298
1.52795
1.50329
1.479
1.4551
1.4316
1.40849
1.38578
1.36348
1.34159
1.32009
1.29901
1.27832
1.25804
1.23815
1.21865
1.19953
1.1808
1.16243
1.14442
1.12676
1.10944
1.09246
1.0758
1.05944
1.04339
1.02762
1.01212
0.99688
0.981889
0.967132
0.952594
0.938268
0.924142
0.910203
0.896436
0.88283
0.869369
0.856042
0.842835
0.829735
0.816731
0.80381
0.790962
0.778174
0.765437
0.752741
0.740075
0.727431
0.714799
0.702172
0.689542
0.676902
0.664245
0.651565
0.638855
0.626113
0.613331
0.600507
0.587637
0.574715
0.561738
0.548701
0.535602
0.522437
0.509202
0.495895
0.482512
0.46905
0.455505
0.441872
0.428148
0.414327
0.400402
0.386367
0.372212
0.357928
0.343501
0.328916
0.314155
0.299193
0.284002
0.268543
0.252767
0.236606
0.219967
0.202711
0.184618
0.165311
0.14406
0.119114
0.0849878
0.0245871
0.222691
0.442419
0.571291
0.669661
0.754933
0.833144
0.906943
0.977674
1.0461
1.11267
1.17769
1.24135
1.30379
1.36509
1.42531
1.48451
1.5427
1.59989
1.6561
1.7113
1.7655
1.81867
1.87079
1.92183
1.97177
2.02058
2.06822
2.11466
2.15986
2.20379
2.24641
2.28769
2.3276
2.36609
2.40313
2.4387
2.47276
2.50529
2.53625
2.56562
2.59339
2.61952
2.644
2.66681
2.68795
2.70739
2.72514
2.74119
2.75553
2.76818
2.77912
2.78837
2.79593
2.80183
2.80607
2.80867
2.80966
2.80905
2.80687
2.80315
2.79792
2.79122
2.78308
2.77353
2.76261
2.75037
2.73684
2.72206
2.70608
2.68896
2.67072
2.65143
2.63113
2.60988
2.58772
2.5647
2.54088
2.51631
2.49104
2.46512
2.4386
2.41154
2.38398
2.35597
2.32756
2.29881
2.26976
2.24044
2.21092
2.18123
2.15142
2.12152
2.09158
2.06164
2.03173
2.00188
1.97213
1.94252
1.91307
1.88381
1.85477
1.82597
1.79744
1.7692
1.74127
1.71366
1.6864
1.65949
1.63296
1.60681
1.58106
1.55571
1.53076
1.50624
1.48213
1.45845
1.43519
1.41236
1.38995
1.36796
1.3464
1.32524
1.3045
1.28416
1.26421
1.24466
1.22548
1.20667
1.18822
1.17013
1.15236
1.13493
1.1178
1.10098
1.08445
1.06818
1.05218
1.03643
1.02091
1.00561
0.990529
0.975641
0.960936
0.946399
0.932017
0.917777
0.903664
0.889666
0.87577
0.861964
0.848236
0.834574
0.820968
0.807407
0.793881
0.78038
0.766896
0.753419
0.739943
0.72646
0.712962
0.699444
0.685899
0.672322
0.658708
0.645053
0.631352
0.6176
0.603794
0.589928
0.575999
0.562004
0.547938
0.533798
0.51958
0.50528
0.490893
0.476417
0.461844
0.44717
0.432388
0.417491
0.402469
0.387312
0.372008
0.356542
0.340894
0.325042
0.308956
0.292598
0.275917
0.258842
0.241273
0.223057
0.203948
0.183511
0.160901
0.134114
0.0969653
0.0295711
0.222693
0.442419
0.571289
0.669659
0.75493
0.833141
0.906939
0.977671
1.04609
1.11267
1.17769
1.24135
1.30378
1.36508
1.42531
1.4845
1.54269
1.59989
1.65609
1.7113
1.76549
1.81866
1.87078
1.92183
1.97177
2.02057
2.06821
2.11465
2.15985
2.20379
2.24641
2.28769
2.32759
2.36608
2.40313
2.4387
2.47276
2.50528
2.53624
2.56562
2.59338
2.61951
2.64399
2.6668
2.68794
2.70739
2.72514
2.74118
2.75553
2.76817
2.77911
2.78836
2.79593
2.80182
2.80606
2.80867
2.80965
2.80904
2.80686
2.80314
2.79792
2.79122
2.78307
2.77352
2.76261
2.75036
2.73683
2.72205
2.70608
2.68895
2.67072
2.65143
2.63113
2.60987
2.58771
2.5647
2.54088
2.51631
2.49103
2.46511
2.4386
2.41153
2.38397
2.35596
2.32756
2.29881
2.26975
2.24044
2.21092
2.18123
2.15142
2.12152
2.09158
2.06164
2.03172
2.00188
1.97213
1.94252
1.91307
1.88381
1.85477
1.82597
1.79744
1.7692
1.74126
1.71366
1.68639
1.65949
1.63296
1.60681
1.58105
1.5557
1.53076
1.50624
1.48213
1.45845
1.43519
1.41236
1.38995
1.36796
1.34639
1.32524
1.3045
1.28416
1.26421
1.24466
1.22548
1.20667
1.18822
1.17012
1.15236
1.13492
1.1178
1.10098
1.08444
1.06818
1.05218
1.03643
1.02091
1.00561
0.990527
0.975639
0.960934
0.946397
0.932016
0.917775
0.903662
0.889664
0.875769
0.861963
0.848234
0.834573
0.820967
0.807406
0.793879
0.780379
0.766895
0.753418
0.739942
0.726459
0.712961
0.699443
0.685898
0.672321
0.658707
0.645052
0.631351
0.617599
0.603793
0.589927
0.575999
0.562003
0.547937
0.533797
0.519579
0.505279
0.490893
0.476416
0.461844
0.44717
0.432388
0.417491
0.402469
0.387312
0.372008
0.356541
0.340894
0.325042
0.308956
0.292598
0.275917
0.258842
0.241273
0.223057
0.203948
0.183511
0.160901
0.134114
0.0969656
0.0295712
0.257566
0.492885
0.630839
0.735468
0.82563
0.907993
0.985526
1.05975
1.13151
1.20134
1.26953
1.33632
1.40183
1.46617
1.52938
1.5915
1.65257
1.71258
1.77154
1.82943
1.88624
1.94196
1.99654
2.04998
2.10223
2.15327
2.20306
2.25156
2.29874
2.34456
2.38898
2.43198
2.4735
2.51353
2.55202
2.58895
2.62428
2.65799
2.69004
2.72042
2.74911
2.77607
2.80131
2.82479
2.84652
2.86647
2.88465
2.90105
2.91567
2.92852
2.93959
2.9489
2.95646
2.96227
2.96637
2.96877
2.96948
2.96854
2.96597
2.96181
2.95608
2.94882
2.94007
2.92986
2.91824
2.90523
2.8909
2.87527
2.85841
2.84035
2.82114
2.80085
2.7795
2.75717
2.7339
2.70974
2.68474
2.65897
2.63247
2.60529
2.5775
2.54913
2.52025
2.4909
2.46114
2.43101
2.40057
2.36985
2.33892
2.30781
2.27656
2.24523
2.21384
2.18245
2.15108
2.11978
2.08859
2.05752
2.02662
1.99591
1.96543
1.93519
1.90523
1.87556
1.84622
1.81721
1.78855
1.76026
1.73236
1.70485
1.67775
1.65106
1.6248
1.59898
1.57358
1.54863
1.52411
1.50004
1.4764
1.4532
1.43044
1.40811
1.38621
1.36472
1.34364
1.32297
1.3027
1.2828
1.26329
1.24413
1.22533
1.20687
1.18873
1.1709
1.15338
1.13614
1.11917
1.10247
1.086
1.06978
1.05377
1.03797
1.02236
1.00693
0.991654
0.976532
0.961544
0.946678
0.93192
0.917258
0.902679
0.888172
0.873726
0.85933
0.844974
0.830648
0.816343
0.80205
0.787761
0.773469
0.759166
0.744846
0.730504
0.716133
0.701728
0.687284
0.672797
0.658262
0.643674
0.629029
0.614321
0.599548
0.584705
0.569788
0.554792
0.539713
0.524546
0.509286
0.493928
0.478466
0.462892
0.447198
0.431377
0.415416
0.399303
0.383023
0.366558
0.349884
0.332972
0.31578
0.298257
0.280326
0.261877
0.242742
0.222643
0.201094
0.177131
0.148533
0.108493
0.0345755
0.257568
0.492884
0.630837
0.735465
0.825627
0.90799
0.985523
1.05974
1.13151
1.20133
1.26953
1.33632
1.40183
1.46616
1.52937
1.5915
1.65256
1.71257
1.77153
1.82942
1.88624
1.94195
1.99654
2.04998
2.10223
2.15327
2.20305
2.25155
2.29873
2.34455
2.38898
2.43197
2.4735
2.51352
2.55202
2.58894
2.62428
2.65798
2.69004
2.72042
2.7491
2.77607
2.8013
2.82479
2.84651
2.86647
2.88465
2.90105
2.91567
2.92851
2.93959
2.94889
2.95645
2.96227
2.96637
2.96876
2.96948
2.96854
2.96597
2.9618
2.95608
2.94882
2.94007
2.92986
2.91823
2.90523
2.89089
2.87527
2.8584
2.84034
2.82114
2.80084
2.7795
2.75717
2.73389
2.70973
2.68474
2.65896
2.63246
2.60529
2.57749
2.54913
2.52024
2.4909
2.46114
2.43101
2.40056
2.36985
2.33892
2.3078
2.27656
2.24522
2.21384
2.18245
2.15108
2.11978
2.08858
2.05752
2.02661
1.99591
1.96542
1.93519
1.90523
1.87556
1.84621
1.8172
1.78854
1.76026
1.73235
1.70484
1.67774
1.65106
1.6248
1.59897
1.57358
1.54862
1.52411
1.50003
1.4764
1.4532
1.43044
1.40811
1.3862
1.36472
1.34364
1.32297
1.30269
1.2828
1.26328
1.24413
1.22533
1.20686
1.18873
1.1709
1.15338
1.13614
1.11917
1.10246
1.086
1.06977
1.05377
1.03797
1.02236
1.00692
0.991653
0.976531
0.961543
0.946676
0.931918
0.917256
0.902678
0.888171
0.873725
0.859329
0.844973
0.830647
0.816342
0.802049
0.78776
0.773468
0.759165
0.744846
0.730503
0.716132
0.701727
0.687283
0.672796
0.658261
0.643673
0.629028
0.614321
0.599548
0.584704
0.569787
0.554791
0.539712
0.524545
0.509286
0.493928
0.478465
0.462891
0.447198
0.431376
0.415415
0.399303
0.383023
0.366558
0.349884
0.332971
0.31578
0.298257
0.280326
0.261877
0.242742
0.222644
0.201094
0.177132
0.148533
0.108493
0.0345756
0.292513
0.542437
0.689235
0.800157
0.895291
0.981877
1.06318
1.14089
1.21597
1.28898
1.36027
1.43008
1.49856
1.56579
1.63185
1.69676
1.76056
1.82323
1.88479
1.94521
2.00447
2.06256
2.11945
2.17511
2.2295
2.28259
2.33434
2.38472
2.43369
2.48122
2.52726
2.57178
2.61475
2.65613
2.69588
2.73399
2.77041
2.80512
2.83809
2.86931
2.89875
2.92639
2.95221
2.97621
2.99838
3.0187
3.03717
3.05379
3.06856
3.08149
3.09259
3.10185
3.1093
3.11496
3.11883
3.12095
3.12134
3.12002
3.11702
3.11237
3.10612
3.09828
3.08892
3.07805
3.06572
3.05198
3.03686
3.02043
3.00271
2.98377
2.96366
2.94241
2.9201
2.89676
2.87246
2.84724
2.82117
2.79429
2.76667
2.73834
2.70938
2.67983
2.64975
2.61918
2.58819
2.55681
2.52511
2.49313
2.46091
2.42851
2.39596
2.36332
2.33063
2.29792
2.26523
2.23261
2.20009
2.1677
2.13548
2.10345
2.07165
2.0401
2.00882
1.97785
1.9472
1.9169
1.88696
1.85739
1.82822
1.79945
1.7711
1.74318
1.7157
1.68865
1.66205
1.63591
1.61021
1.58497
1.56018
1.53584
1.51195
1.4885
1.4655
1.44292
1.42077
1.39903
1.3777
1.35677
1.33623
1.31606
1.29625
1.27679
1.25768
1.23888
1.2204
1.20221
1.1843
1.16666
1.14928
1.13214
1.11523
1.09853
1.08203
1.06572
1.04957
1.03358
1.01773
1.00201
0.986402
0.970896
0.955479
0.94014
0.924866
0.909648
0.894475
0.879337
0.864225
0.84913
0.834045
0.818961
0.803872
0.78877
0.77365
0.758506
0.743333
0.728125
0.712878
0.697586
0.682245
0.66685
0.651395
0.635877
0.62029
0.604631
0.588893
0.573073
0.557164
0.541161
0.525058
0.508848
0.492524
0.476077
0.459498
0.442776
0.425898
0.408849
0.391608
0.374153
0.356452
0.338463
0.320129
0.301368
0.282059
0.262014
0.240928
0.218257
0.192939
0.162535
0.119668
0.0396314
0.292515
0.542436
0.689233
0.800154
0.895288
0.981874
1.06318
1.14089
1.21597
1.28897
1.36027
1.43008
1.49855
1.56579
1.63185
1.69676
1.76055
1.82323
1.88478
1.9452
2.00447
2.06256
2.11945
2.1751
2.22949
2.28258
2.33433
2.38472
2.43369
2.48121
2.52725
2.57178
2.61474
2.65612
2.69588
2.73398
2.7704
2.80511
2.83809
2.86931
2.89874
2.92638
2.95221
2.97621
2.99837
3.01869
3.03716
3.05378
3.06856
3.08149
3.09258
3.10185
3.1093
3.11495
3.11883
3.12095
3.12133
3.12001
3.11701
3.11237
3.10611
3.09828
3.08891
3.07804
3.06572
3.05197
3.03686
3.02042
3.00271
2.98377
2.96365
2.94241
2.92009
2.89676
2.87245
2.84724
2.82117
2.79429
2.76666
2.73834
2.70938
2.67983
2.64975
2.61918
2.58818
2.55681
2.52511
2.49312
2.46091
2.4285
2.39596
2.36332
2.33062
2.29792
2.26523
2.23261
2.20009
2.1677