/*--------------------------------*- C++ -*----------------------------------*\
  =========                 |
  \\      /  F ield         | OpenFOAM: The Open Source CFD Toolbox
   \\    /   O peration     | Website:  https://openfoam.org
    \\  /    A nd           | Version:  8
     \\/     M anipulation  |
\*---------------------------------------------------------------------------*/
FoamFile
{
    version     2.0;
    format      ascii;
    class       volScalarField;
    location    "3100";
    object      nut;
}
// * * * * * * * * * * * * * * * * * * * * * * * * * * * * * * * * * * * * * //

dimensions      [0 2 -1 0 0 0 0];

internalField   nonuniform List<scalar> 
46000
(
6.91513e-07
3.12486e-06
5.94127e-06
8.57918e-06
1.10729e-05
1.34867e-05
1.58471e-05
1.81604e-05
2.04404e-05
2.26948e-05
2.4934e-05
2.71583e-05
2.93613e-05
3.15504e-05
3.3727e-05
3.58912e-05
3.80425e-05
4.01798e-05
4.23018e-05
4.44069e-05
4.64934e-05
4.85591e-05
5.06021e-05
5.262e-05
5.46104e-05
5.65709e-05
5.8499e-05
6.03922e-05
6.22479e-05
6.40636e-05
6.58366e-05
6.75646e-05
6.9245e-05
7.08754e-05
7.24535e-05
7.39769e-05
7.54434e-05
7.68511e-05
7.81978e-05
7.94817e-05
8.07011e-05
8.18544e-05
8.29401e-05
8.39569e-05
8.49036e-05
8.57793e-05
8.6583e-05
8.73142e-05
8.79722e-05
8.85568e-05
8.90678e-05
8.95052e-05
8.98691e-05
9.01599e-05
9.03782e-05
9.05245e-05
9.05997e-05
9.06049e-05
9.05412e-05
9.04099e-05
9.02129e-05
8.99524e-05
8.96324e-05
8.92527e-05
8.88139e-05
8.83175e-05
8.77655e-05
8.716e-05
8.65032e-05
8.57975e-05
8.50451e-05
8.42484e-05
8.341e-05
8.25322e-05
8.16176e-05
8.06686e-05
7.96877e-05
7.86775e-05
7.76405e-05
7.6579e-05
7.54955e-05
7.43925e-05
7.32722e-05
7.2137e-05
7.09892e-05
6.98309e-05
6.86643e-05
6.74914e-05
6.63143e-05
6.51348e-05
6.39549e-05
6.27762e-05
6.16005e-05
6.04294e-05
5.92643e-05
5.81067e-05
5.6958e-05
5.58193e-05
5.46919e-05
5.35768e-05
5.2475e-05
5.13875e-05
5.0315e-05
4.92583e-05
4.8218e-05
4.71948e-05
4.61891e-05
4.52013e-05
4.42319e-05
4.32811e-05
4.23492e-05
4.14363e-05
4.05425e-05
3.96678e-05
3.88122e-05
3.79758e-05
3.71583e-05
3.63596e-05
3.55795e-05
3.48177e-05
3.40741e-05
3.33482e-05
3.26397e-05
3.19482e-05
3.12734e-05
3.06148e-05
2.9972e-05
2.93445e-05
2.87318e-05
2.81334e-05
2.75489e-05
2.69776e-05
2.64192e-05
2.5873e-05
2.53385e-05
2.48152e-05
2.43026e-05
2.38001e-05
2.33072e-05
2.28233e-05
2.2348e-05
2.18806e-05
2.14207e-05
2.09682e-05
2.0523e-05
2.00841e-05
1.96511e-05
1.92235e-05
1.88009e-05
1.83828e-05
1.7969e-05
1.7559e-05
1.71526e-05
1.67494e-05
1.63491e-05
1.59515e-05
1.55564e-05
1.51635e-05
1.47726e-05
1.43837e-05
1.39964e-05
1.36108e-05
1.32266e-05
1.28439e-05
1.24641e-05
1.20863e-05
1.171e-05
1.13351e-05
1.09615e-05
1.05894e-05
1.02187e-05
9.84961e-06
9.48206e-06
9.11618e-06
8.75205e-06
8.38976e-06
8.02939e-06
7.67102e-06
7.31473e-06
6.96058e-06
6.60862e-06
6.25887e-06
5.91133e-06
5.56588e-06
5.22169e-06
4.88031e-06
4.54066e-06
4.20234e-06
3.8653e-06
3.52887e-06
3.19236e-06
2.85475e-06
2.51536e-06
2.17475e-06
1.82889e-06
1.47428e-06
1.10693e-06
7.24178e-07
3.40604e-07
6.51631e-08
6.91577e-07
3.12504e-06
5.94147e-06
8.57938e-06
1.10731e-05
1.34869e-05
1.58473e-05
1.81606e-05
2.04406e-05
2.26949e-05
2.49341e-05
2.71584e-05
2.93614e-05
3.15505e-05
3.37271e-05
3.58913e-05
3.80426e-05
4.01798e-05
4.23018e-05
4.4407e-05
4.64934e-05
4.85592e-05
5.06021e-05
5.262e-05
5.46104e-05
5.65709e-05
5.8499e-05
6.03922e-05
6.22479e-05
6.40636e-05
6.58366e-05
6.75646e-05
6.9245e-05
7.08754e-05
7.24534e-05
7.39768e-05
7.54434e-05
7.6851e-05
7.81977e-05
7.94816e-05
8.07011e-05
8.18543e-05
8.294e-05
8.39568e-05
8.49035e-05
8.57792e-05
8.65829e-05
8.7314e-05
8.79721e-05
8.85567e-05
8.90677e-05
8.9505e-05
8.9869e-05
9.01598e-05
9.0378e-05
9.05244e-05
9.05996e-05
9.06047e-05
9.0541e-05
9.04097e-05
9.02127e-05
8.99523e-05
8.96322e-05
8.92526e-05
8.88137e-05
8.83173e-05
8.77653e-05
8.71598e-05
8.65031e-05
8.57973e-05
8.50449e-05
8.42483e-05
8.34098e-05
8.2532e-05
8.16174e-05
8.06684e-05
7.96876e-05
7.86774e-05
7.76403e-05
7.65788e-05
7.54953e-05
7.43923e-05
7.3272e-05
7.21369e-05
7.0989e-05
6.98307e-05
6.86641e-05
6.74913e-05
6.63141e-05
6.51347e-05
6.39547e-05
6.27761e-05
6.16004e-05
6.04292e-05
5.92642e-05
5.81066e-05
5.69578e-05
5.58192e-05
5.46917e-05
5.35767e-05
5.24749e-05
5.13873e-05
5.03148e-05
4.92581e-05
4.82179e-05
4.71946e-05
4.61889e-05
4.52012e-05
4.42318e-05
4.3281e-05
4.23491e-05
4.14362e-05
4.05424e-05
3.96677e-05
3.88121e-05
3.79757e-05
3.71582e-05
3.63595e-05
3.55794e-05
3.48176e-05
3.4074e-05
3.33481e-05
3.26396e-05
3.19481e-05
3.12733e-05
3.06147e-05
2.99719e-05
2.93444e-05
2.87317e-05
2.81333e-05
2.75488e-05
2.69776e-05
2.64191e-05
2.58729e-05
2.53384e-05
2.48152e-05
2.43025e-05
2.38e-05
2.33071e-05
2.28232e-05
2.23479e-05
2.18806e-05
2.14207e-05
2.09681e-05
2.05229e-05
2.00841e-05
1.96511e-05
1.92235e-05
1.88008e-05
1.83828e-05
1.7969e-05
1.7559e-05
1.71525e-05
1.67493e-05
1.63491e-05
1.59515e-05
1.55563e-05
1.51634e-05
1.47726e-05
1.43836e-05
1.39964e-05
1.36107e-05
1.32265e-05
1.28439e-05
1.24641e-05
1.20863e-05
1.171e-05
1.1335e-05
1.09615e-05
1.05894e-05
1.02187e-05
9.84958e-06
9.48203e-06
9.11616e-06
8.75203e-06
8.38974e-06
8.02937e-06
7.67101e-06
7.31472e-06
6.96057e-06
6.60861e-06
6.25886e-06
5.91132e-06
5.56587e-06
5.22169e-06
4.8803e-06
4.54065e-06
4.20234e-06
3.8653e-06
3.52887e-06
3.19236e-06
2.85476e-06
2.51537e-06
2.17476e-06
1.8289e-06
1.47429e-06
1.10694e-06
7.24186e-07
3.40609e-07
6.51646e-08
2.8414e-06
3.91269e-05
6.87576e-05
8.90138e-05
0.000104566
0.000117371
0.000128323
0.000138073
0.000146972
0.000155225
0.000162964
0.000170294
0.000177287
0.000183989
0.000190433
0.000196648
0.000202654
0.000208469
0.000214105
0.000219574
0.000224883
0.000230039
0.000235047
0.000239911
0.000244633
0.000249217
0.000253664
0.000257974
0.000262149
0.000266189
0.000270093
0.000273861
0.000277493
0.000280988
0.000284346
0.000287567
0.000290648
0.000293589
0.000296391
0.000299051
0.00030157
0.000303947
0.000306181
0.000308272
0.00031022
0.000312024
0.000313686
0.000315204
0.000316579
0.000317811
0.000318902
0.000319852
0.000320662
0.000321334
0.000321867
0.000322264
0.000322527
0.000322656
0.000322654
0.000322523
0.000322263
0.000321877
0.000321363
0.000320727
0.000319973
0.000319106
0.000318129
0.000317046
0.000315859
0.000314573
0.000313191
0.000311716
0.000310152
0.000308503
0.000306772
0.000304964
0.000303082
0.00030113
0.000299112
0.000297032
0.000294893
0.0002927
0.000290456
0.000288165
0.00028583
0.000283456
0.000281046
0.000278604
0.000276134
0.000273637
0.000271119
0.000268583
0.000266031
0.000263466
0.000260893
0.000258313
0.00025573
0.000253146
0.000250564
0.000247986
0.000245416
0.000242854
0.000240303
0.000237766
0.000235243
0.000232738
0.000230251
0.000227785
0.00022534
0.000222917
0.000220519
0.000218146
0.000215799
0.000213478
0.000211185
0.00020892
0.000206684
0.000204476
0.000202297
0.000200148
0.000198027
0.000195936
0.000193873
0.000191839
0.000189833
0.000187854
0.000185903
0.000183978
0.000182079
0.000180204
0.000178354
0.000176526
0.000174721
0.000172936
0.000171171
0.000169425
0.000167696
0.000165984
0.000164286
0.000162602
0.00016093
0.00015927
0.00015762
0.000155979
0.000154345
0.000152715
0.00015109
0.000149467
0.000147846
0.000146224
0.000144601
0.000142975
0.000141344
0.000139709
0.000138066
0.000136416
0.000134756
0.000133086
0.000131404
0.00012971
0.000128001
0.000126277
0.000124536
0.000122774
0.00012098
0.000119167
0.000117333
0.000115476
0.000113597
0.000111694
0.000109767
0.000107814
0.000105834
0.000103825
0.000101787
9.97167e-05
9.76133e-05
9.54741e-05
9.32967e-05
9.1078e-05
8.88145e-05
8.6502e-05
8.41357e-05
8.171e-05
7.92191e-05
7.66495e-05
7.39903e-05
7.12265e-05
6.834e-05
6.53038e-05
6.20845e-05
5.86298e-05
5.4853e-05
5.06275e-05
4.58606e-05
4.03106e-05
3.35454e-05
2.46815e-05
1.19095e-05
3.04245e-07
2.84152e-06
3.91291e-05
6.87607e-05
8.90173e-05
0.000104569
0.000117375
0.000128327
0.000138077
0.000146976
0.000155229
0.000162968
0.000170298
0.000177291
0.000183993
0.000190437
0.000196652
0.000202659
0.000208473
0.00021411
0.000219578
0.000224887
0.000230043
0.000235051
0.000239915
0.000244638
0.000249222
0.000253669
0.00025798
0.000262154
0.000266194
0.000270098
0.000273866
0.000277498
0.000280994
0.000284352
0.000287572
0.000290653
0.000293595
0.000296397
0.000299057
0.000301576
0.000303953
0.000306187
0.000308278
0.000310226
0.00031203
0.000313691
0.000315209
0.000316585
0.000317817
0.000318908
0.000319858
0.000320668
0.00032134
0.000321873
0.00032227
0.000322533
0.000322662
0.00032266
0.000322529
0.000322269
0.000321883
0.000321369
0.000320732
0.000319979
0.000319112
0.000318135
0.000317052
0.000315865
0.000314579
0.000313196
0.000311721
0.000310157
0.000308508
0.000306778
0.000304969
0.000303087
0.000301135
0.000299117
0.000297037
0.000294898
0.000292705
0.00029046
0.000288169
0.000285835
0.000283461
0.000281051
0.000278609
0.000276138
0.000273642
0.000271124
0.000268587
0.000266035
0.000263471
0.000260897
0.000258317
0.000255734
0.00025315
0.000250568
0.00024799
0.000245419
0.000242857
0.000240307
0.000237769
0.000235247
0.000232741
0.000230255
0.000227788
0.000225343
0.00022292
0.000220522
0.000218149
0.000215802
0.000213481
0.000211188
0.000208923
0.000206686
0.000204479
0.0002023
0.00020015
0.000198029
0.000195938
0.000193875
0.000191841
0.000189835
0.000187857
0.000185905
0.00018398
0.000182081
0.000180206
0.000178356
0.000176528
0.000174723
0.000172938
0.000171173
0.000169427
0.000167698
0.000165985
0.000164287
0.000162603
0.000160931
0.000159271
0.000157621
0.000155981
0.000154346
0.000152717
0.000151091
0.000149468
0.000147847
0.000146225
0.000144602
0.000142975
0.000141345
0.000139709
0.000138067
0.000136416
0.000134757
0.000133087
0.000131405
0.00012971
0.000128002
0.000126278
0.000124536
0.000122774
0.000120981
0.000119168
0.000117333
0.000115477
0.000113598
0.000111695
0.000109767
0.000107814
0.000105834
0.000103826
0.000101787
9.97172e-05
9.76137e-05
9.54746e-05
9.32971e-05
9.10784e-05
8.88149e-05
8.65024e-05
8.41361e-05
8.17105e-05
7.92195e-05
7.66499e-05
7.39907e-05
7.12269e-05
6.83404e-05
6.53042e-05
6.20848e-05
5.86301e-05
5.48532e-05
5.06276e-05
4.58607e-05
4.03107e-05
3.35455e-05
2.46815e-05
1.19094e-05
3.04244e-07
5.504e-06
6.65457e-05
0.000128204
0.000174066
0.000209488
0.00023805
0.000262005
0.000282731
0.00030111
0.000317719
0.000332945
0.000347062
0.000360268
0.000372705
0.000384477
0.000395668
0.000406341
0.000416549
0.000426332
0.000435724
0.000444752
0.000453439
0.000461803
0.000469859
0.000477621
0.0004851
0.000492304
0.000499241
0.000505918
0.00051234
0.000518512
0.000524438
0.000530122
0.000535567
0.000540775
0.000545749
0.00055049
0.000555001
0.000559284
0.000563339
0.000567169
0.000570775
0.000574159
0.000577321
0.000580264
0.000582989
0.000585498
0.000587792
0.000589874
0.000591744
0.000593405
0.000594859
0.000596109
0.000597155
0.000598002
0.00059865
0.000599104
0.000599364
0.000599434
0.000599315
0.00059901
0.00059852
0.000597844
0.00059699
0.000595964
0.000594771
0.000593418
0.000591909
0.000590249
0.000588442
0.000586494
0.000584407
0.000582189
0.000579842
0.000577373
0.000574786
0.000572085
0.000569277
0.000566365
0.000563355
0.000560252
0.000557061
0.000553786
0.000550434
0.000547008
0.000543514
0.000539956
0.00053634
0.00053267
0.000528952
0.000525189
0.000521386
0.000517547
0.000513678
0.000509783
0.000505865
0.000501928
0.000497977
0.000494016
0.000490048
0.000486077
0.000482106
0.000478138
0.000474177
0.000470225
0.000466286
0.000462362
0.000458455
0.000454569
0.000450704
0.000446864
0.000443049
0.000439261
0.000435503
0.000431775
0.000428078
0.000424413
0.000420781
0.000417183
0.000413618
0.000410088
0.000406592
0.00040313
0.000399702
0.000396308
0.000392946
0.000389617
0.000386318
0.00038305
0.000379811
0.0003766
0.000373416
0.000370256
0.00036712
0.000364005
0.000360911
0.000357834
0.000354774
0.000351728
0.000348695
0.000345672
0.00034266
0.000339653
0.00033665
0.000333647
0.000330642
0.000327633
0.000324618
0.000321595
0.000318561
0.000315515
0.000312454
0.000309376
0.000306279
0.000303159
0.000300017
0.000296848
0.000293651
0.000290424
0.000287164
0.000283869
0.000280536
0.000277161
0.000273737
0.000270257
0.000266725
0.000263141
0.000259504
0.000255813
0.000252065
0.000248257
0.000244385
0.000240448
0.000236439
0.000232356
0.000228191
0.00022394
0.000219596
0.00021515
0.000210593
0.000205915
0.000201101
0.000196137
0.000191005
0.000185681
0.000180136
0.000174335
0.00016823
0.000161761
0.000154847
0.000147386
0.000139228
0.000130159
0.000119867
0.000107965
9.38115e-05
7.63221e-05
5.36603e-05
2.37325e-05
6.50418e-07
5.50415e-06
6.65488e-05
0.00012821
0.000174073
0.000209496
0.000238058
0.000262013
0.000282739
0.000301118
0.000317727
0.000332953
0.00034707
0.000360276
0.000372712
0.000384485
0.000395676
0.000406349
0.000416557
0.00042634
0.000435732
0.00044476
0.000453447
0.000461811
0.000469867
0.000477629
0.000485108
0.000492312
0.000499249
0.000505926
0.000512348
0.00051852
0.000524447
0.000530131
0.000535575
0.000540783
0.000545757
0.000550499
0.00055501
0.000559292
0.000563347
0.000567177
0.000570783
0.000574167
0.000577329
0.000580272
0.000582998
0.000585506
0.000587801
0.000589882
0.000591752
0.000593413
0.000594868
0.000596117
0.000597163
0.00059801
0.000598658
0.000599111
0.000599372
0.000599442
0.000599323
0.000599018
0.000598527
0.000597852
0.000596997
0.000595971
0.000594779
0.000593426
0.000591917
0.000590256
0.000588449
0.0005865
0.000584414
0.000582196
0.000579849
0.00057738
0.000574792
0.000572092
0.000569283
0.000566371
0.000563361
0.000560258
0.000557066
0.000553792
0.000550439
0.000547013
0.000543519
0.000539962
0.000536345
0.000532676
0.000528957
0.000525194
0.000521391
0.000517552
0.000513683
0.000509787
0.000505869
0.000501933
0.000497982
0.00049402
0.000490052
0.000486081
0.000482109
0.000478142
0.00047418
0.000470229
0.00046629
0.000462365
0.000458459
0.000454572
0.000450707
0.000446867
0.000443052
0.000439264
0.000435506
0.000431777
0.00042808
0.000424415
0.000420783
0.000417185
0.000413621
0.00041009
0.000406594
0.000403132
0.000399704
0.00039631
0.000392948
0.000389618
0.00038632
0.000383052
0.000379813
0.000376602
0.000373417
0.000370257
0.000367121
0.000364006
0.000360912
0.000357835
0.000354775
0.000351729
0.000348695
0.000345673
0.00034266
0.000339654
0.00033665
0.000333647
0.000330642
0.000327633
0.000324618
0.000321595
0.000318561
0.000315515
0.000312454
0.000309376
0.000306278
0.000303159
0.000300017
0.000296848
0.000293651
0.000290424
0.000287164
0.000283869
0.000280536
0.000277161
0.000273737
0.000270256
0.000266724
0.000263141
0.000259504
0.000255813
0.000252064
0.000248256
0.000244385
0.000240447
0.000236439
0.000232355
0.000228191
0.00022394
0.000219596
0.00021515
0.000210593
0.000205914
0.000201101
0.000196137
0.000191005
0.000185681
0.000180136
0.000174334
0.00016823
0.000161761
0.000154847
0.000147386
0.000139228
0.000130159
0.000119867
0.000107965
9.38116e-05
7.63222e-05
5.36603e-05
2.37323e-05
6.50417e-07
8.08563e-06
8.57304e-05
0.000171782
0.000241002
0.000296589
0.000342273
0.000380837
0.000414164
0.000443545
0.000469874
0.000493788
0.000515746
0.00053609
0.000555073
0.000572889
0.000589689
0.000605591
0.00062069
0.000635064
0.000648775
0.000661876
0.000674409
0.000686409
0.000697909
0.000708933
0.000719503
0.000729639
0.000739356
0.000748669
0.000757591
0.000766132
0.000774302
0.000782109
0.000789562
0.000796667
0.000803431
0.000809859
0.000815957
0.00082173
0.000827182
0.000832318
0.000837143
0.00084166
0.000845873
0.000849786
0.000853404
0.000856728
0.000859765
0.000862516
0.000864986
0.000867179
0.000869098
0.000870747
0.00087213
0.00087325
0.000874112
0.000874718
0.000875074
0.000875182
0.000875045
0.000874667
0.00087405
0.000873197
0.000872114
0.000870808
0.000869287
0.000867557
0.000865626
0.000863498
0.00086118
0.000858677
0.000855996
0.000853142
0.000850121
0.000846939
0.000843602
0.000840116
0.000836487
0.000832722
0.000828825
0.000824804
0.000820664
0.000816412
0.000812053
0.000807593
0.00080304
0.000798398
0.000793673
0.000788872
0.000784001
0.000779064
0.000774069
0.000769019
0.000763922
0.000758782
0.000753604
0.000748395
0.000743158
0.000737898
0.000732621
0.000727331
0.000722032
0.000716728
0.000711425
0.000706124
0.000700831
0.000695548
0.000690279
0.000685027
0.000679795
0.000674585
0.000669399
0.000664241
0.000659111
0.000654012
0.000648945
0.000643911
0.000638911
0.000633947
0.000629018
0.000624125
0.000619268
0.000614448
0.000609663
0.000604913
0.000600197
0.000595515
0.000590865
0.000586246
0.000581656
0.000577095
0.000572559
0.000568047
0.000563557
0.000559087
0.000554634
0.000550196
0.000545771
0.000541356
0.000536948
0.000532546
0.000528147
0.000523745
0.000519339
0.000514923
0.000510496
0.000506053
0.000501594
0.000497114
0.00049261
0.00048808
0.000483521
0.000478929
0.000474301
0.000469635
0.000464928
0.000460176
0.000455377
0.000450527
0.000445622
0.000440659
0.000435634
0.000430542
0.000425375
0.000420127
0.000414797
0.000409385
0.000403886
0.000398299
0.000392618
0.000386838
0.000380954
0.000374959
0.000368846
0.000362604
0.000356226
0.000349699
0.00034301
0.000336145
0.000329084
0.000321808
0.000314291
0.000306505
0.000298414
0.000289975
0.000281135
0.000271826
0.000261966
0.000251445
0.000240124
0.000227817
0.000214275
0.000199162
0.000182008
0.000162161
0.000138717
0.000110291
7.49738e-05
3.19556e-05
1.00418e-06
8.0858e-06
8.57338e-05
0.000171789
0.000241011
0.0002966
0.000342284
0.000380848
0.000414176
0.000443557
0.000469886
0.000493799
0.000515758
0.000536102
0.000555085
0.000572901
0.0005897
0.000605602
0.000620701
0.000635075
0.000648787
0.000661887
0.00067442
0.00068642
0.00069792
0.000708944
0.000719514
0.00072965
0.000739367
0.00074868
0.000757602
0.000766143
0.000774312
0.00078212
0.000789572
0.000796677
0.000803441
0.000809869
0.000815967
0.00082174
0.000827192
0.000832329
0.000837153
0.00084167
0.000845883
0.000849796
0.000853414
0.000856738
0.000859775
0.000862526
0.000864996
0.000867189
0.000869107
0.000870756
0.000872139
0.000873259
0.000874121
0.000874728
0.000875083
0.000875191
0.000875054
0.000874676
0.000874059
0.000873206
0.000872122
0.000870816
0.000869295
0.000867565
0.000865634
0.000863506
0.000861187
0.000858684
0.000856003
0.000853149
0.000850128
0.000846946
0.000843609
0.000840123
0.000836494
0.000832728
0.000828832
0.00082481
0.00082067
0.000816418
0.000812059
0.000807599
0.000803045
0.000798403
0.000793679
0.000788878
0.000784006
0.000779069
0.000774074
0.000769024
0.000763927
0.000758786
0.000753609
0.000748399
0.000743162
0.000737902
0.000732625
0.000727334
0.000722035
0.000716732
0.000711428
0.000706127
0.000700834
0.000695551
0.000690282
0.00068503
0.000679797
0.000674587
0.000669401
0.000664243
0.000659113
0.000654014
0.000648947
0.000643913
0.000638913
0.000633948
0.00062902
0.000624127
0.00061927
0.000614449
0.000609664
0.000604914
0.000600198
0.000595516
0.000590866
0.000586247
0.000581657
0.000577095
0.000572559
0.000568048
0.000563558
0.000559087
0.000554634
0.000550196
0.000545771
0.000541355
0.000536948
0.000532546
0.000528146
0.000523745
0.000519338
0.000514922
0.000510495
0.000506053
0.000501593
0.000497113
0.000492609
0.000488079
0.00048352
0.000478928
0.0004743
0.000469634
0.000464927
0.000460175
0.000455376
0.000450525
0.000445621
0.000440658
0.000435633
0.000430541
0.000425374
0.000420125
0.000414796
0.000409383
0.000403885
0.000398298
0.000392617
0.000386837
0.000380953
0.000374958
0.000368844
0.000362603
0.000356225
0.000349698
0.000343009
0.000336143
0.000329083
0.000321807
0.00031429
0.000306504
0.000298413
0.000289974
0.000281134
0.000271825
0.000261965
0.000251444
0.000240123
0.000227817
0.000214275
0.000199162
0.000182008
0.000162161
0.000138717
0.000110291
7.49738e-05
3.19553e-05
1.00418e-06
1.05952e-05
0.000101008
0.000205908
0.000294789
0.000368586
0.000430593
0.000483594
0.000529678
0.000570376
0.00060681
0.000639811
0.000669999
0.000697845
0.000723709
0.000747871
0.00077055
0.000791923
0.000812131
0.000831288
0.000849489
0.000866813
0.000883325
0.000899079
0.000914124
0.000928498
0.000942237
0.000955369
0.000967921
0.000979915
0.000991372
0.00100231
0.00101274
0.00102269
0.00103215
0.00104116
0.00104971
0.00105781
0.00106548
0.00107273
0.00107955
0.00108597
0.00109198
0.0010976
0.00110283
0.00110768
0.00111215
0.00111625
0.00111999
0.00112337
0.00112639
0.00112908
0.00113142
0.00113342
0.0011351
0.00113646
0.00113749
0.00113822
0.00113863
0.00113874
0.00113856
0.00113808
0.00113731
0.00113626
0.00113493
0.00113333
0.00113148
0.00112936
0.00112701
0.00112441
0.00112159
0.00111854
0.00111527
0.00111179
0.00110812
0.00110424
0.00110018
0.00109594
0.00109152
0.00108693
0.00108219
0.00107729
0.00107225
0.00106706
0.00106175
0.00105631
0.00105076
0.00104509
0.00103932
0.00103345
0.0010275
0.00102146
0.00101535
0.00100916
0.00100291
0.000996609
0.000990254
0.000983855
0.000977417
0.000970947
0.000964449
0.00095793
0.000951394
0.000944847
0.000938292
0.000931736
0.000925182
0.000918634
0.000912097
0.000905573
0.000899066
0.00089258
0.000886117
0.00087968
0.00087327
0.000866891
0.000860543
0.000854228
0.000847948
0.000841703
0.000835494
0.000829321
0.000823185
0.000817084
0.000811019
0.000804989
0.000798992
0.000793029
0.000787096
0.000781193
0.000775318
0.000769468
0.000763641
0.000757835
0.000752047
0.000746275
0.000740515
0.000734765
0.000729021
0.000723281
0.000717542
0.0007118
0.000706051
0.000700291
0.000694515
0.00068872
0.000682902
0.000677056
0.000671181
0.000665271
0.000659323
0.000653334
0.000647299
0.000641216
0.000635081
0.000628889
0.000622636
0.00061632
0.000609936
0.00060348
0.000596947
0.000590333
0.000583632
0.000576838
0.000569944
0.000562942
0.00055583
0.000548604
0.000541258
0.000533787
0.000526184
0.000518441
0.00051055
0.0005025
0.00049428
0.000485876
0.000477273
0.000468454
0.000459399
0.000450084
0.000440482
0.000430562
0.000420286
0.000409609
0.000398479
0.00038683
0.000374583
0.00036164
0.00034788
0.000333148
0.000317247
0.000299924
0.000280847
0.000259575
0.000235522
0.000207899
0.00017566
0.000137395
9.14825e-05
3.8397e-05
1.35467e-06
1.05953e-05
0.000101011
0.000205916
0.0002948
0.000368598
0.000430606
0.000483609
0.000529694
0.000570392
0.000606826
0.000639826
0.000670014
0.00069786
0.000723724
0.000747885
0.000770565
0.000791938
0.000812145
0.000831302
0.000849504
0.000866827
0.000883339
0.000899094
0.000914138
0.000928512
0.00094225
0.000955383
0.000967934
0.000979929
0.000991386
0.00100232
0.00101276
0.0010227
0.00103217
0.00104117
0.00104972
0.00105782
0.00106549
0.00107274
0.00107956
0.00108598
0.00109199
0.00109761
0.00110284
0.00110769
0.00111216
0.00111626
0.00112
0.00112338
0.00112641
0.00112909
0.00113143
0.00113344
0.00113511
0.00113647
0.0011375
0.00113823
0.00113864
0.00113875
0.00113857
0.00113809
0.00113732
0.00113627
0.00113494
0.00113334
0.00113148
0.00112937
0.00112701
0.00112442
0.00112159
0.00111854
0.00111528
0.0011118
0.00110812
0.00110425
0.00110019
0.00109594
0.00109153
0.00108694
0.0010822
0.0010773
0.00107225
0.00106707
0.00106176
0.00105632
0.00105076
0.0010451
0.00103933
0.00103346
0.0010275
0.00102147
0.00101535
0.00100917
0.00100292
0.000996614
0.000990259
0.000983859
0.000977422
0.000970951
0.000964453
0.000957934
0.000951398
0.00094485
0.000938296
0.000931739
0.000925185
0.000918637
0.000912099
0.000905576
0.000899069
0.000892583
0.000886119
0.000879682
0.000873272
0.000866893
0.000860545
0.00085423
0.00084795
0.000841705
0.000835496
0.000829323
0.000823186
0.000817085
0.00081102
0.00080499
0.000798993
0.000793029
0.000787097
0.000781193
0.000775318
0.000769468
0.000763641
0.000757835
0.000752047
0.000746275
0.000740515
0.000734764
0.000729021
0.000723281
0.000717541
0.000711799
0.000706051
0.00070029
0.000694515
0.000688719
0.000682901
0.000677055
0.00067118
0.00066527
0.000659322
0.000653332
0.000647298
0.000641215
0.000635079
0.000628887
0.000622635
0.000616319
0.000609935
0.000603479
0.000596946
0.000590332
0.000583631
0.000576836
0.000569942
0.000562941
0.000555829
0.000548602
0.000541256
0.000533785
0.000526182
0.000518439
0.000510548
0.000502498
0.000494278
0.000485874
0.000477271
0.000468453
0.000459397
0.000450083
0.000440481
0.000430561
0.000420285
0.000409608
0.000398478
0.000386829
0.000374582
0.000361639
0.000347879
0.000333147
0.000317247
0.000299924
0.000280846
0.000259575
0.000235522
0.000207899
0.00017566
0.000137395
9.14826e-05
3.83968e-05
1.35467e-06
1.30745e-05
0.000113936
0.00023403
0.000339507
0.000429397
0.000506319
0.000572872
0.000631181
0.000682893
0.000729273
0.000771291
0.000809692
0.000845055
0.000877831
0.000908376
0.000936976
0.000963858
0.000989209
0.00101318
0.0010359
0.00105747
0.00107798
0.0010975
0.0011161
0.00113383
0.00115073
0.00116686
0.00118224
0.00119691
0.00121089
0.00122421
0.00123689
0.00124895
0.00126042
0.00127129
0.0012816
0.00129136
0.00130057
0.00130926
0.00131743
0.00132509
0.00133226
0.00133894
0.00134515
0.0013509
0.00135619
0.00136103
0.00136543
0.0013694
0.00137295
0.00137608
0.00137881
0.00138114
0.00138308
0.00138463
0.00138581
0.00138662
0.00138706
0.00138715
0.00138689
0.00138629
0.00138535
0.00138409
0.0013825
0.00138059
0.00137839
0.00137589
0.0013731
0.00137004
0.0013667
0.00136311
0.00135927
0.00135518
0.00135086
0.00134631
0.00134154
0.00133656
0.00133138
0.001326
0.00132044
0.0013147
0.00130879
0.00130271
0.00129649
0.00129011
0.0012836
0.00127696
0.0012702
0.00126333
0.00125634
0.00124926
0.00124209
0.00123484
0.00122751
0.00122011
0.00121265
0.00120513
0.00119757
0.00118997
0.00118233
0.00117466
0.00116697
0.00115926
0.00115154
0.00114381
0.00113608
0.00112835
0.00112064
0.00111293
0.00110524
0.00109756
0.00108991
0.00108228
0.00107469
0.00106712
0.00105958
0.00105207
0.0010446
0.00103716
0.00102976
0.0010224
0.00101507
0.00100778
0.00100052
0.000993292
0.0009861
0.000978939
0.000971807
0.000964702
0.000957623
0.000950565
0.000943528
0.000936507
0.000929499
0.000922502
0.000915512
0.000908525
0.000901537
0.000894546
0.000887548
0.000880538
0.000873511
0.000866463
0.000859388
0.000852283
0.000845142
0.000837962
0.000830739
0.000823467
0.000816142
0.000808761
0.000801319
0.000793811
0.000786233
0.000778581
0.00077085
0.000763035
0.000755132
0.000747134
0.000739038
0.000730837
0.000722524
0.000714093
0.000705535
0.000696844
0.000688012
0.000679033
0.000669901
0.000660607
0.000651141
0.000641493
0.000631651
0.000621601
0.000611326
0.000600809
0.000590029
0.000578963
0.000567582
0.000555856
0.000543747
0.000531213
0.000518203
0.000504658
0.000490506
0.000475661
0.000460021
0.000443457
0.000425813
0.000406894
0.000386455
0.000364185
0.000339688
0.000312456
0.000281828
0.000246952
0.000206733
0.000159851
0.000105052
4.38242e-05
1.70278e-06
1.30747e-05
0.000113939
0.000234037
0.000339518
0.000429411
0.000506334
0.000572889
0.000631198
0.000682911
0.000729292
0.00077131
0.000809711
0.000845073
0.000877849
0.000908394
0.000936994
0.000963876
0.000989227
0.0010132
0.00103592
0.00105748
0.00107799
0.00109751
0.00111611
0.00113384
0.00115075
0.00116688
0.00118226
0.00119693
0.00121091
0.00122423
0.00123691
0.00124897
0.00126043
0.00127131
0.00128162
0.00129137
0.00130059
0.00130927
0.00131744
0.0013251
0.00133227
0.00133896
0.00134517
0.00135091
0.0013562
0.00136104
0.00136544
0.00136941
0.00137296
0.00137609
0.00137882
0.00138115
0.00138309
0.00138464
0.00138582
0.00138663
0.00138707
0.00138716
0.0013869
0.0013863
0.00138536
0.0013841
0.00138251
0.0013806
0.0013784
0.0013759
0.00137311
0.00137005
0.00136671
0.00136312
0.00135928
0.00135519
0.00135087
0.00134632
0.00134155
0.00133657
0.00133139
0.00132601
0.00132045
0.00131471
0.00130879
0.00130272
0.00129649
0.00129012
0.00128361
0.00127697
0.00127021
0.00126333
0.00125635
0.00124927
0.0012421
0.00123484
0.00122751
0.00122011
0.00121265
0.00120514
0.00119758
0.00118997
0.00118233
0.00117466
0.00116697
0.00115926
0.00115154
0.00114381
0.00113608
0.00112836
0.00112064
0.00111293
0.00110524
0.00109757
0.00108991
0.00108229
0.00107469
0.00106712
0.00105958
0.00105207
0.0010446
0.00103717
0.00102976
0.0010224
0.00101507
0.00100778
0.00100052
0.000993293
0.000986101
0.00097894
0.000971808
0.000964703
0.000957623
0.000950566
0.000943528
0.000936507
0.0009295
0.000922502
0.000915512
0.000908525
0.000901537
0.000894546
0.000887548
0.000880538
0.000873511
0.000866462
0.000859388
0.000852282
0.000845142
0.000837962
0.000830738
0.000823466
0.000816141
0.00080876
0.000801318
0.00079381
0.000786232
0.00077858
0.000770849
0.000763034
0.00075513
0.000747133
0.000739037
0.000730835
0.000722523
0.000714091
0.000705534
0.000696842
0.00068801
0.000679032
0.000669899
0.000660605
0.00065114
0.000641492
0.00063165
0.000621599
0.000611325
0.000600808
0.000590028
0.000578961
0.000567581
0.000555854
0.000543746
0.000531211
0.000518202
0.000504656
0.000490505
0.00047566
0.00046002
0.000443456
0.000425812
0.000406893
0.000386454
0.000364184
0.000339688
0.000312456
0.000281828
0.000246953
0.000206733
0.000159851
0.000105052
4.38239e-05
1.70279e-06
1.55328e-05
0.000125313
0.000258185
0.000377879
0.000481931
0.000572286
0.00065129
0.000721014
0.000783147
0.000839036
0.000889742
0.000936106
0.000978789
0.00101832
0.00105512
0.00108953
0.00112183
0.00115224
0.00118095
0.00120812
0.00123387
0.00125832
0.00128155
0.00130365
0.00132469
0.00134472
0.00136379
0.00138196
0.00139926
0.00141572
0.00143138
0.00144627
0.00146041
0.00147383
0.00148655
0.00149858
0.00150995
0.00152067
0.00153076
0.00154023
0.00154911
0.0015574
0.00156512
0.00157227
0.00157888
0.00158495
0.0015905
0.00159553
0.00160006
0.0016041
0.00160765
0.00161073
0.00161336
0.00161553
0.00161725
0.00161854
0.00161941
0.00161987
0.00161991
0.00161956
0.00161881
0.00161769
0.00161619
0.00161433
0.00161211
0.00160955
0.00160665
0.00160343
0.0015999
0.00159606
0.00159193
0.00158751
0.00158282
0.00157786
0.00157265
0.00156719
0.00156149
0.00155556
0.00154942
0.00154306
0.0015365
0.00152975
0.00152282
0.00151571
0.00150844
0.00150101
0.00149344
0.00148573
0.00147789
0.00146993
0.00146186
0.00145368
0.00144541
0.00143705
0.00142862
0.00142011
0.00141154
0.00140291
0.00139424
0.00138552