/*--------------------------------*- C++ -*----------------------------------*\
  =========                 |
  \\      /  F ield         | OpenFOAM: The Open Source CFD Toolbox
   \\    /   O peration     | Website:  https://openfoam.org
    \\  /    A nd           | Version:  8
     \\/     M anipulation  |
\*---------------------------------------------------------------------------*/
FoamFile
{
    version     2.0;
    format      ascii;
    class       surfaceScalarField;
    location    "3100";
    object      phi;
}
// * * * * * * * * * * * * * * * * * * * * * * * * * * * * * * * * * * * * * //

dimensions      [1 0 -1 0 0 0 0];

internalField   nonuniform List<scalar> 
114370
(
4.55872e-10
1.05363e-13
-4.55977e-10
1.16395e-09
5.17544e-14
-7.10325e-10
1.77633e-09
3.25263e-14
-6.13571e-10
2.14691e-09
2.0255e-14
-3.71482e-10
2.2696e-09
1.35629e-14
-1.23474e-10
2.17624e-09
1.0086e-14
9.26556e-11
1.90648e-09
8.14136e-15
2.69112e-10
1.49714e-09
6.71139e-15
4.08748e-10
9.78536e-10
5.59006e-15
5.18047e-10
3.74803e-10
4.68822e-15
6.03216e-10
-2.94794e-10
3.83499e-15
6.69114e-10
-1.0147e-09
3.07545e-15
7.19455e-10
-1.77282e-09
2.58026e-15
7.57695e-10
-2.55988e-09
2.32449e-15
7.86669e-10
-3.36851e-09
2.17476e-15
8.0826e-10
-4.19278e-09
2.06495e-15
8.23924e-10
-5.02789e-09
1.98887e-15
8.34776e-10
-5.86987e-09
1.9502e-15
8.4168e-10
-6.71547e-09
1.94048e-15
8.45305e-10
-7.56192e-09
1.9427e-15
8.46173e-10
-8.40687e-09
1.94503e-15
8.4469e-10
-9.24829e-09
1.94292e-15
8.41177e-10
-1.00844e-08
1.94212e-15
8.35883e-10
-1.09136e-08
1.94858e-15
8.29005e-10
-1.17345e-08
1.96568e-15
8.20698e-10
-1.25458e-08
1.99383e-15
8.11084e-10
-1.33463e-08
2.02936e-15
8.0026e-10
-1.41348e-08
2.06815e-15
7.88305e-10
-1.49102e-08
2.10412e-15
7.75282e-10
-1.56716e-08
2.13423e-15
7.61243e-10
-1.6418e-08
2.15427e-15
7.46233e-10
-1.71485e-08
2.16541e-15
7.30288e-10
-1.78621e-08
2.16756e-15
7.13445e-10
-1.8558e-08
2.1619e-15
6.95735e-10
-1.92353e-08
2.14866e-15
6.77189e-10
-1.98933e-08
2.12924e-15
6.57838e-10
-2.05311e-08
2.10287e-15
6.37715e-10
-2.11481e-08
2.07088e-15
6.1685e-10
-2.17435e-08
2.034e-15
5.95279e-10
-2.23166e-08
1.9929e-15
5.73036e-10
-2.28669e-08
1.94822e-15
5.5016e-10
-2.33937e-08
1.90115e-15
5.26691e-10
-2.38965e-08
1.85409e-15
5.02669e-10
-2.43748e-08
1.80725e-15
4.78138e-10
-2.4828e-08
1.76138e-15
4.53144e-10
-2.52559e-08
1.71724e-15
4.27734e-10
-2.56579e-08
1.67484e-15
4.01956e-10
-2.60339e-08
1.6344e-15
3.75859e-10
-2.63835e-08
1.59568e-15
3.49494e-10
-2.67065e-08
1.5586e-15
3.22913e-10
-2.70028e-08
1.52282e-15
2.96167e-10
-2.72722e-08
1.4879e-15
2.69309e-10
-2.75147e-08
1.45418e-15
2.42392e-10
-2.77302e-08
1.42111e-15
2.15467e-10
-2.79189e-08
1.38868e-15
1.88586e-10
-2.80808e-08
1.35691e-15
1.61802e-10
-2.82161e-08
1.32644e-15
1.35163e-10
-2.83249e-08
1.29728e-15
1.08722e-10
-2.84075e-08
1.26919e-15
8.25266e-11
-2.84642e-08
1.24219e-15
5.66233e-11
-2.84954e-08
1.2166e-15
3.10545e-11
-2.85013e-08
1.19188e-15
5.8607e-12
-2.84825e-08
1.17096e-15
-1.89184e-11
-2.84393e-08
1.15426e-15
-4.32494e-11
-2.83723e-08
1.13821e-15
-6.71027e-11
-2.8282e-08
1.12455e-15
-9.04469e-11
-2.81688e-08
1.11305e-15
-1.13248e-10
-2.80335e-08
1.10394e-15
-1.35473e-10
-2.78765e-08
1.09776e-15
-1.57092e-10
-2.76985e-08
1.09375e-15
-1.78079e-10
-2.75002e-08
1.09364e-15
-1.9841e-10
-2.72822e-08
1.0957e-15
-2.18063e-10
-2.70453e-08
1.10058e-15
-2.37022e-10
-2.67901e-08
1.10914e-15
-2.55269e-10
-2.65174e-08
1.12052e-15
-2.72791e-10
-2.6228e-08
1.13559e-15
-2.89577e-10
-2.59225e-08
1.15304e-15
-3.05618e-10
-2.56017e-08
1.17462e-15
-3.20906e-10
-2.52663e-08
1.19815e-15
-3.35437e-10
-2.49172e-08
1.22612e-15
-3.49208e-10
-2.45551e-08
1.25647e-15
-3.62216e-10
-2.41808e-08
1.29062e-15
-3.74463e-10
-2.37949e-08
1.3277e-15
-3.85952e-10
-2.33984e-08
1.36814e-15
-3.96686e-10
-2.29918e-08
1.41151e-15
-4.0667e-10
-2.2576e-08
1.45878e-15
-4.15913e-10
-2.21517e-08
1.50822e-15
-4.24422e-10
-2.17197e-08
1.56123e-15
-4.32208e-10
-2.12805e-08
1.61761e-15
-4.39281e-10
-2.0835e-08
1.67659e-15
-4.45655e-10
-2.03838e-08
1.73882e-15
-4.51342e-10
-1.99275e-08
1.80377e-15
-4.56357e-10
-1.9467e-08
1.87153e-15
-4.60717e-10
-1.90027e-08
1.94168e-15
-4.64436e-10
-1.85353e-08
2.01421e-15
-4.67533e-10
-1.80654e-08
2.08945e-15
-4.70026e-10
-1.75936e-08
2.16719e-15
-4.71932e-10
-1.71205e-08
2.24666e-15
-4.73272e-10
-1.66466e-08
2.32917e-15
-4.74066e-10
-1.61724e-08
2.41363e-15
-4.74333e-10
-1.56985e-08
2.49993e-15
-4.74094e-10
-1.52253e-08
2.58819e-15
-4.7337e-10
-1.47533e-08
2.67774e-15
-4.72182e-10
-1.42829e-08
2.76979e-15
-4.70553e-10
-1.38146e-08
2.86401e-15
-4.68502e-10
-1.33487e-08
2.95888e-15
-4.66052e-10
-1.28857e-08
3.05581e-15
-4.63224e-10
-1.24258e-08
3.1535e-15
-4.60039e-10
-1.19695e-08
3.2527e-15
-4.56518e-10
-1.1517e-08
3.353e-15
-4.52683e-10
-1.10687e-08
3.4535e-15
-4.48554e-10
-1.06247e-08
3.55542e-15
-4.44151e-10
-1.01854e-08
3.65842e-15
-4.39494e-10
-9.75106e-09
3.76121e-15
-4.34601e-10
-9.32179e-09
3.86432e-15
-4.29492e-10
-8.89783e-09
3.9683e-15
-4.24183e-10
-8.47937e-09
4.07217e-15
-4.18693e-10
-8.06657e-09
4.1768e-15
-4.13036e-10
-7.65958e-09
4.28078e-15
-4.0723e-10
-7.25854e-09
4.38465e-15
-4.01286e-10
-6.86357e-09
4.48874e-15
-3.9522e-10
-6.47478e-09
4.59152e-15
-3.89043e-10
-6.09228e-09
4.69409e-15
-3.82765e-10
-5.71615e-09
4.79515e-15
-3.76397e-10
-5.34647e-09
4.89598e-15
-3.69947e-10
-4.98333e-09
4.99487e-15
-3.63421e-10
-4.62678e-09
5.09158e-15
-3.56826e-10
-4.27691e-09
5.18722e-15
-3.50166e-10
-3.93376e-09
5.28263e-15
-3.43442e-10
-3.5974e-09
5.37653e-15
-3.36656e-10
-3.2679e-09
5.46804e-15
-3.29808e-10
-2.94531e-09
5.55804e-15
-3.22896e-10
-2.62971e-09
5.64587e-15
-3.15915e-10
-2.32118e-09
5.73109e-15
-3.0886e-10
-2.01978e-09
5.81458e-15
-3.01726e-10
-1.72561e-09
5.8972e-15
-2.94503e-10
-1.43877e-09
5.97592e-15
-2.87182e-10
-1.15936e-09
6.0516e-15
-2.79754e-10
-8.87506e-10
6.1236e-15
-2.72206e-10
-6.23332e-10
6.1956e-15
-2.64531e-10
-3.66968e-10
6.26477e-15
-2.56728e-10
-1.18505e-10
6.32788e-15
-2.48834e-10
1.21886e-10
6.36713e-15
-2.40767e-10
3.53918e-10
6.37798e-15
-2.32414e-10
5.77339e-10
6.38795e-15
-2.23807e-10
7.91909e-10
6.39967e-15
-2.14961e-10
9.97378e-10
6.41507e-15
-2.05864e-10
1.19348e-09
6.43719e-15
-1.96498e-10
1.37992e-09
6.46516e-15
-1.86846e-10
1.5564e-09
6.49704e-15
-1.76892e-10
1.7226e-09
6.53585e-15
-1.66619e-10
1.8782e-09
6.57943e-15
-1.56014e-10
2.02284e-09
6.63082e-15
-1.45063e-10
2.15617e-09
6.68654e-15
-1.33759e-10
2.27783e-09
6.74921e-15
-1.22092e-10
2.38745e-09
6.81945e-15
-1.10058e-10
2.48466e-09
6.89707e-15
-9.76581e-11
2.5691e-09
6.98445e-15
-8.4894e-11
2.64042e-09
7.08136e-15
-7.17735e-11
2.69827e-09
7.18652e-15
-5.83091e-11
2.74232e-09
7.30316e-15
-4.45192e-11
2.77227e-09
7.42978e-15
-3.04289e-11
2.78786e-09
7.56659e-15
-1.60706e-11
2.78886e-09
7.7036e-15
-1.48659e-12
2.77506e-09
7.86504e-15
1.33023e-11
2.7463e-09
8.05539e-15
2.82656e-11
2.70245e-09
8.24943e-15
4.33394e-11
2.64347e-09
8.45517e-15
5.84605e-11
2.56938e-09
8.67393e-15
7.35568e-11
2.4803e-09
8.90981e-15
8.85481e-11
2.37641e-09
9.16195e-15
1.03345e-10
2.25801e-09
9.43121e-15
1.17849e-10
2.12549e-09
9.71522e-15
1.31952e-10
1.97939e-09
1.00194e-14
1.45532e-10
1.82034e-09
1.03411e-14
1.5846e-10
1.64916e-09
1.06845e-14
1.70588e-10
1.46679e-09
1.10505e-14
1.81759e-10
1.27437e-09
1.14425e-14
1.91796e-10
1.07323e-09
1.18627e-14
2.00506e-10
8.64905e-10
1.23101e-14
2.07675e-10
6.51176e-10
1.27845e-14
2.13064e-10
4.34091e-10
1.32784e-14
2.16404e-10
2.16001e-10
1.37831e-14
2.17392e-10
-4.07809e-13
1.42857e-14
2.15693e-10
-2.11948e-10
1.46847e-14
2.10805e-10
-4.14967e-10
1.5022e-14
2.02269e-10
-6.0538e-10
1.5411e-14
1.89647e-10
-7.78548e-10
1.58174e-14
1.72386e-10
-9.29138e-10
1.62528e-14
1.4979e-10
-1.051e-09
1.67173e-14
1.21039e-10
-1.13719e-09
1.72018e-14
8.53526e-11
-1.17998e-09
1.77201e-14
4.19248e-11
-1.17116e-09
1.82554e-14
-9.71451e-12
-1.10288e-09
1.88021e-14
-6.92138e-11
-9.69181e-10
1.94127e-14
-1.34661e-10
-7.69448e-10
2.00611e-14
-2.00747e-10
-5.15699e-10
2.07456e-14
-2.54826e-10
-2.47629e-10
2.1322e-14
-2.69235e-10
-4.91352e-11
2.28694e-14
-1.99802e-10
1.02313e-14
-5.05925e-11
4.55531e-10
-4.56368e-10
1.16378e-09
-7.10604e-10
1.77623e-09
-6.13731e-10
2.14684e-09
-3.71599e-10
2.26955e-09
-1.23571e-10
2.1762e-09
9.25704e-11
1.90645e-09
2.69035e-10
1.49711e-09
4.08678e-10
9.7851e-10
5.17983e-10
3.74781e-10
6.03159e-10
-2.94812e-10
6.69061e-10
-1.01472e-09
7.19407e-10
-1.77283e-09
7.57651e-10
-2.55989e-09
7.86629e-10
-3.36851e-09
8.08222e-10
-4.19278e-09
8.23889e-10
-5.02788e-09
8.34744e-10
-5.86986e-09
8.4165e-10
-6.71545e-09
8.45277e-10
-7.5619e-09
8.46146e-10
-8.40685e-09
8.44665e-10
-9.24827e-09
8.41152e-10
-1.00844e-08
8.3586e-10
-1.09136e-08
8.28983e-10
-1.17345e-08
8.20676e-10
-1.25458e-08
8.11063e-10
-1.33462e-08
8.0024e-10
-1.41347e-08
7.88286e-10
-1.49102e-08
7.75264e-10
-1.56716e-08
7.61225e-10
-1.6418e-08
7.46215e-10
-1.71484e-08
7.30271e-10
-1.7862e-08
7.13428e-10
-1.85579e-08
6.95718e-10
-1.92352e-08
6.77173e-10
-1.98932e-08
6.57823e-10
-2.0531e-08
6.37699e-10
-2.1148e-08
6.16835e-10
-2.17434e-08
5.95264e-10
-2.23166e-08
5.73021e-10
-2.28669e-08
5.50146e-10
-2.33937e-08
5.26676e-10
-2.38965e-08
5.02655e-10
-2.43747e-08
4.78124e-10
-2.4828e-08
4.5313e-10
-2.52558e-08
4.2772e-10
-2.56579e-08
4.01942e-10
-2.60338e-08
3.75845e-10
-2.63834e-08
3.4948e-10
-2.67064e-08
3.22899e-10
-2.70027e-08
2.96153e-10
-2.72721e-08
2.69296e-10
-2.75146e-08
2.42378e-10
-2.77302e-08
2.15453e-10
-2.79188e-08
1.88572e-10
-2.80807e-08
1.61787e-10
-2.8216e-08
1.35149e-10
-2.83248e-08
1.08708e-10
-2.84074e-08
8.25121e-11
-2.84641e-08
5.66087e-11
-2.84953e-08
3.10398e-11
-2.85013e-08
5.84581e-12
-2.84824e-08
-1.89335e-11
-2.84393e-08
-4.32646e-11
-2.83723e-08
-6.71181e-11
-2.82819e-08
-9.04625e-11
-2.81688e-08
-1.13264e-10
-2.80334e-08
-1.35489e-10
-2.78764e-08
-1.57109e-10
-2.76984e-08
-1.78095e-10
-2.75001e-08
-1.98426e-10
-2.72821e-08
-2.1808e-10
-2.70452e-08
-2.37039e-10
-2.67901e-08
-2.55286e-10
-2.65174e-08
-2.72809e-10
-2.62279e-08
-2.89595e-10
-2.59224e-08
-3.05637e-10
-2.56016e-08
-3.20925e-10
-2.52663e-08
-3.35456e-10
-2.49172e-08
-3.49227e-10
-2.45551e-08
-3.62236e-10
-2.41807e-08
-3.74484e-10
-2.37949e-08
-3.85972e-10
-2.33983e-08
-3.96707e-10
-2.29918e-08
-4.06692e-10
-2.2576e-08
-4.15935e-10
-2.21517e-08
-4.24444e-10
-2.17196e-08
-4.3223e-10
-2.12804e-08
-4.39304e-10
-2.08349e-08
-4.45678e-10
-2.03837e-08
-4.51366e-10
-1.99275e-08
-4.56382e-10
-1.94669e-08
-4.60742e-10
-1.90026e-08
-4.64462e-10
-1.85352e-08
-4.67559e-10
-1.80654e-08
-4.70052e-10
-1.75936e-08
-4.7196e-10
-1.71205e-08
-4.733e-10
-1.66466e-08
-4.74094e-10
-1.61724e-08
-4.74362e-10
-1.56985e-08
-4.74124e-10
-1.52252e-08
-4.734e-10
-1.47532e-08
-4.72214e-10
-1.42829e-08
-4.70584e-10
-1.38145e-08
-4.68534e-10
-1.33487e-08
-4.66085e-10
-1.28856e-08
-4.63257e-10
-1.24258e-08
-4.60073e-10
-1.19695e-08
-4.56554e-10
-1.1517e-08
-4.52719e-10
-1.10686e-08
-4.48591e-10
-1.06247e-08
-4.44189e-10
-1.01854e-08
-4.39532e-10
-9.75102e-09
-4.3464e-10
-9.32175e-09
-4.29531e-10
-8.89779e-09
-4.24223e-10
-8.47933e-09
-4.18734e-10
-8.06653e-09
-4.13078e-10
-7.65954e-09
-4.07272e-10
-7.2585e-09
-4.0133e-10
-6.86353e-09
-3.95264e-10
-6.47475e-09
-3.89088e-10
-6.09224e-09
-3.82811e-10
-5.71611e-09
-3.76444e-10
-5.34644e-09
-3.69994e-10
-4.98329e-09
-3.6347e-10
-4.62675e-09
-3.56875e-10
-4.27687e-09
-3.50216e-10
-3.93372e-09
-3.43493e-10
-3.59737e-09
-3.36708e-10
-3.26786e-09
-3.29861e-10
-2.94528e-09
-3.22949e-10
-2.62968e-09
-3.15969e-10
-2.32114e-09
-3.08915e-10
-2.01975e-09
-3.01781e-10
-1.72558e-09
-2.94559e-10
-1.43873e-09
-2.87239e-10
-1.15933e-09
-2.79812e-10
-8.87473e-10
-2.72265e-10
-6.233e-10
-2.64591e-10
-3.66936e-10
-2.56789e-10
-1.18473e-10
-2.48895e-10
1.21918e-10
-2.40829e-10
3.53951e-10
-2.32477e-10
5.77371e-10
-2.2387e-10
7.91942e-10
-2.15025e-10
9.97411e-10
-2.05927e-10
1.19351e-09
-1.96562e-10
1.37995e-09
-1.86911e-10
1.55643e-09
-1.76957e-10
1.72264e-09
-1.66685e-10
1.87823e-09
-1.5608e-10
2.02287e-09
-1.45131e-10
2.1562e-09
-1.33826e-10
2.27786e-09
-1.2216e-10
2.38748e-09
-1.10128e-10
2.48469e-09
-9.7728e-11
2.56914e-09
-8.49645e-11
2.64045e-09
-7.18447e-11
2.6983e-09
-5.83811e-11
2.74235e-09
-4.4592e-11
2.77231e-09
-3.05025e-11
2.78789e-09
-1.61451e-11
2.78889e-09
-1.56194e-12
2.7751e-09
1.3226e-11
2.74633e-09
2.81882e-11
2.70248e-09
4.32609e-11
2.6435e-09
5.83808e-11
2.56941e-09
7.34759e-11
2.48033e-09
8.8466e-11
2.37644e-09
1.03262e-10
2.25804e-09
1.17765e-10
2.12552e-09
1.31865e-10
1.97941e-09
1.45445e-10
1.82037e-09
1.5837e-10
1.64918e-09
1.70497e-10
1.46681e-09
1.81665e-10
1.27439e-09
1.91701e-10
1.07325e-09
2.00409e-10
8.64925e-10
2.07576e-10
6.51196e-10
2.12962e-10
4.34109e-10
2.163e-10
2.16017e-10
2.17285e-10
-3.93857e-13
2.15583e-10
-2.11935e-10
2.10694e-10
-4.14955e-10
2.02155e-10
-6.05369e-10
1.89531e-10
-7.78539e-10
1.72267e-10
-9.2913e-10
1.49668e-10
-1.05099e-09
1.20915e-10
-1.13719e-09
8.52241e-11
-1.17998e-09
4.17921e-11
-1.17116e-09
-9.85187e-12
-1.10288e-09
-6.93565e-11
-9.6919e-10
-1.3481e-10
-7.69467e-10
-2.00904e-10
-5.15734e-10
-2.54994e-10
-2.47699e-10
-2.69415e-10
-4.92602e-11
-2.00004e-10
-5.07956e-11
7.14165e-10
2.84525e-14
-1.17218e-09
1.16668e-09
-2.47453e-15
-1.16503e-09
1.38167e-09
-5.68552e-16
-8.29637e-10
1.41769e-09
-1.66279e-15
-4.0835e-10
1.29632e-09
-2.19013e-15
-2.8623e-12
1.03699e-09
-2.37373e-15
3.51309e-10
6.59216e-10
-2.30124e-15
6.46272e-10
1.81577e-10
-2.12957e-15
8.85816e-10
-3.78601e-10
-1.9092e-15
1.07769e-09
-1.00586e-09
-1.67911e-15
1.22998e-09
-1.68715e-09
-1.48445e-15
1.34994e-09
-2.41169e-09
-1.31906e-15
1.44356e-09
-3.17042e-09
-1.16267e-15
1.51602e-09
-3.9557e-09
-1.01396e-15
1.57157e-09
-4.76121e-09
-8.7929e-16
1.61341e-09
-5.58169e-09
-7.618e-16
1.64406e-09
-6.41274e-09
-6.57588e-16
1.66551e-09
-7.25068e-09
-5.63945e-16
1.67932e-09
-8.09236e-09
-4.8049e-16
1.6867e-09
-8.93511e-09
-4.08309e-16
1.68865e-09
-9.77661e-09
-3.4724e-16
1.68593e-09
-1.06148e-08
-2.95221e-16
1.67915e-09
-1.1448e-08
-2.49273e-16
1.6688e-09
-1.22744e-08
-2.07552e-16
1.65526e-09
-1.30928e-08
-1.68595e-16
1.63884e-09
-1.39017e-08
-1.32346e-16
1.61979e-09
-1.47e-08
-9.97562e-17
1.5983e-09
-1.54864e-08
-7.19897e-17
1.57454e-09
-1.62599e-08
-4.98331e-17
1.54863e-09
-1.70195e-08
-3.33405e-17
1.52067e-09
-1.77642e-08
-2.23494e-17
1.49077e-09
-1.84931e-08
-1.59653e-17
1.459e-09
-1.92052e-08
-1.33752e-17
1.42544e-09
-1.98998e-08
-1.36575e-17
1.39014e-09
-2.05759e-08
-1.62701e-17
1.35318e-09
-2.12329e-08
-2.0671e-17
1.31462e-09
-2.18698e-08
-2.65079e-17
1.27451e-09
-2.2486e-08
-3.30759e-17
1.23293e-09
-2.30808e-08
-4.005e-17
1.18994e-09
-2.36535e-08
-4.69965e-17
1.14562e-09
-2.42035e-08
-5.36985e-17
1.10004e-09
-2.47302e-08
-5.95597e-17
1.05327e-09
-2.52331e-08
-6.43364e-17
1.0054e-09
-2.57116e-08
-6.81639e-17
9.5651e-10
-2.61652e-08
-7.09881e-17
9.06696e-10
-2.65937e-08
-7.27548e-17
8.56046e-10
-2.69965e-08
-7.36539e-17
8.04656e-10
-2.73733e-08
-7.42273e-17
7.52624e-10
-2.7724e-08
-7.45294e-17
7.00048e-10
-2.80482e-08
-7.46957e-17
6.47029e-10
-2.83458e-08
-7.48888e-17
5.93671e-10
-2.86167e-08
-7.54341e-17
5.40075e-10
-2.88608e-08
-7.6223e-17
4.86345e-10
-2.9078e-08
-7.71473e-17
4.32583e-10
-2.92684e-08
-7.82883e-17
3.7889e-10
-2.94321e-08
-7.96188e-17
3.25369e-10
-2.95691e-08
-8.10847e-17
2.72116e-10
-2.96798e-08
-8.2442e-17
2.19231e-10
-2.97641e-08
-8.39618e-17
1.66806e-10
-2.98226e-08
-8.54002e-17
1.14933e-10
-2.98553e-08
-8.66758e-17
6.36982e-11
-2.98627e-08
-8.73009e-17
1.31843e-11
-2.98452e-08
-8.83869e-17
-3.65322e-11
-2.98032e-08
-8.98521e-17
-8.53807e-11
-2.97371e-08
-9.04228e-17
-1.33292e-10
-2.96475e-08
-9.08036e-17
-1.80198e-10
-2.95348e-08
-9.11031e-17
-2.26036e-10
-2.93996e-08
-9.10502e-17
-2.70743e-10
-2.92426e-08
-9.10515e-17
-3.14265e-10
-2.90642e-08
-9.08631e-17
-3.56549e-10
-2.88652e-08
-9.05662e-17
-3.9755e-10
-2.86461e-08
-9.02151e-17
-4.37226e-10
-2.84077e-08
-8.98097e-17
-4.75541e-10
-2.81506e-08
-8.93231e-17
-5.12463e-10
-2.78756e-08
-8.8728e-17
-5.47964e-10
-2.75833e-08
-8.81872e-17
-5.82021e-10
-2.72744e-08
-8.76192e-17
-6.14617e-10
-2.69497e-08
-8.70513e-17
-6.45736e-10
-2.66099e-08
-8.65375e-17
-6.75367e-10
-2.62557e-08
-8.58612e-17
-7.03504e-10
-2.58879e-08
-8.5483e-17
-7.30144e-10
-2.55072e-08
-8.51862e-17
-7.55287e-10
-2.51143e-08
-8.51062e-17
-7.78938e-10
-2.471e-08
-8.4972e-17
-8.01102e-10
-2.4295e-08
-8.50817e-17
-8.21792e-10
-2.38701e-08
-8.50017e-17
-8.4102e-10
-2.34358e-08
-8.55723e-17
-8.58801e-10
-2.2993e-08
-8.59802e-17
-8.75155e-10
-2.25423e-08
-8.67405e-17
-8.90103e-10
-2.20845e-08
-8.74465e-17
-9.03668e-10
-2.16201e-08
-8.86134e-17
-9.15876e-10
-2.11498e-08
-8.99699e-17
-9.26755e-10
-2.06744e-08
-9.14078e-17
-9.36333e-10
-2.01943e-08
-9.34419e-17
-9.44643e-10
-1.97103e-08
-9.55302e-17
-9.51717e-10
-1.92229e-08
-9.80793e-17
-9.57589e-10
-1.87327e-08
-1.00655e-16
-9.62295e-10
-1.82403e-08
-1.03747e-16
-9.65871e-10
-1.77462e-08
-1.0719e-16
-9.68355e-10
-1.72509e-08
-1.10552e-16
-9.69786e-10
-1.67549e-08
-1.14402e-16
-9.70203e-10
-1.62589e-08
-1.1836e-16
-9.69646e-10
-1.57631e-08
-1.22779e-16
-9.68154e-10
-1.5268e-08
-1.27361e-16
-9.65769e-10
-1.47742e-08
-1.32321e-16
-9.62532e-10
-1.4282e-08
-1.37336e-16
-9.58482e-10
-1.37917e-08
-1.42677e-16
-9.53662e-10
-1.33039e-08
-1.48369e-16
-9.48112e-10
-1.28187e-08
-1.54332e-16
-9.41872e-10
-1.23366e-08
-1.60187e-16
-9.34981e-10
-1.18579e-08
-1.66584e-16
-9.2748e-10
-1.13829e-08
-1.73306e-16
-9.19405e-10
-1.09118e-08
-1.80244e-16
-9.10796e-10
-1.0445e-08
-1.87291e-16
-9.01687e-10
-9.98258e-09
-1.94555e-16
-8.92116e-10
-9.52488e-09
-2.01981e-16
-8.82114e-10
-9.07211e-09
-2.09895e-16
-8.71716e-10
-8.62444e-09
-2.17538e-16
-8.60952e-10
-8.18207e-09
-2.25722e-16
-8.49851e-10
-7.74518e-09
-2.34015e-16
-8.38441e-10
-7.31391e-09
-2.42525e-16
-8.26747e-10
-6.88843e-09
-2.51197e-16
-8.14792e-10
-6.46888e-09
-2.59814e-16
-8.02596e-10
-6.05537e-09
-2.69028e-16
-7.9018e-10
-5.64805e-09
-2.78567e-16
-7.77558e-10
-5.24701e-09
-2.87998e-16
-7.64743e-10
-4.85239e-09
-2.97916e-16
-7.51747e-10
-4.46427e-09
-3.0778e-16
-7.38578e-10
-4.08278e-09
-3.17644e-16
-7.25239e-10
-3.70802e-09
-3.27616e-16
-7.11734e-10
-3.34008e-09
-3.37967e-16
-6.9806e-10
-2.97908e-09
-3.48373e-16
-6.84214e-10
-2.62514e-09
-3.59213e-16
-6.70187e-10
-2.27836e-09
-3.69835e-16
-6.55971e-10
-1.93887e-09
-3.80349e-16
-6.41552e-10
-1.60681e-09
-3.91406e-16
-6.26914e-10
-1.2823e-09
-4.02788e-16
-6.12039e-10
-9.65501e-10
-4.14928e-16
-5.96908e-10
-6.56567e-10
-4.2669e-16
-5.81502e-10
-3.55661e-10
-4.38777e-16
-5.65805e-10
-6.29426e-11
-4.51786e-16
-5.4982e-10
2.2133e-10
-4.66042e-16
-5.33485e-10
4.96869e-10
-4.7802e-16
-5.16692e-10
7.63454e-10
-4.85175e-16
-4.99388e-10
1.02083e-09
-4.89457e-16
-4.81572e-10
1.2687e-09
-4.94065e-16
-4.63233e-10
1.50677e-09
-4.98132e-16
-4.44338e-10
1.73472e-09
-5.02199e-16
-4.24855e-10
1.95221e-09
-5.05833e-16
-4.04747e-10
2.15888e-09
-5.09414e-16
-3.83982e-10
2.35437e-09
-5.13104e-16
-3.62528e-10
2.53828e-09
-5.16145e-16
-3.40355e-10
2.71022e-09
-5.19349e-16
-3.17437e-10
2.86978e-09
-5.2326e-16
-2.93754e-10
3.01654e-09
-5.26738e-16
-2.69291e-10
3.15007e-09
-5.30922e-16
-2.44036e-10
3.26994e-09
-5.35595e-16
-2.17987e-10
3.37574e-09
-5.40107e-16
-1.91149e-10
3.46703e-09
-5.4538e-16
-1.63535e-10
3.54342e-09
-5.51359e-16
-1.35168e-10
3.6045e-09
-5.58208e-16
-1.06081e-10
3.64991e-09
-5.65926e-16
-7.63198e-11
3.67929e-09
-5.74133e-16
-4.59416e-11
3.69232e-09
-5.82503e-16
-1.50166e-11
3.68873e-09
-5.92814e-16
1.63858e-11
3.6683e-09
-6.04928e-16
4.81835e-11
3.63085e-09
-6.17264e-16
8.02653e-11
3.57627e-09
-6.30958e-16
1.12505e-10
3.50453e-09
-6.45686e-16
1.4476e-10
3.41566e-09
-6.6226e-16
1.76869e-10
3.3098e-09
-6.8003e-16
2.08651e-10
3.18717e-09
-6.98996e-16
2.39908e-10
3.04813e-09
-7.19863e-16
2.70418e-10
2.89314e-09
-7.41817e-16
2.99937e-10
2.7228e-09
-7.65184e-16
3.28198e-10
2.53787e-09
-7.89422e-16
3.54906e-10
2.33926e-09
-8.13988e-16
3.79736e-10
2.12809e-09
-8.38123e-16
4.02333e-10
1.90564e-09
-8.61937e-16
4.22304e-10
1.67343e-09
-8.85861e-16
4.39217e-10
1.43321e-09
-9.10655e-16
4.52592e-10
1.18702e-09
-9.37076e-16
4.61895e-10
9.37173e-10
-9.66968e-16
4.66522e-10
6.86322e-10
-1.00228e-15
4.65804e-10
4.37456e-10
-1.02903e-15
4.58914e-10
1.93957e-10
-1.03843e-15
4.44993e-10
-4.0323e-11
-1.04078e-15
4.23133e-10
-2.60961e-10
-1.03585e-15
3.92209e-10
-4.63035e-10
-1.02234e-15
3.51026e-10
-6.41158e-10
-1.00111e-15
2.98299e-10
-7.89378e-10
-9.7596e-16
2.3268e-10
-9.01245e-10
-9.47865e-16
1.52866e-10
-9.69954e-10
-9.12148e-16
5.80294e-11
-9.88614e-10
-8.63361e-16
-5.1567e-11
-9.50942e-10
-8.15108e-16
-1.73406e-10
-8.52178e-10
-7.73074e-16
-3.00664e-10
-6.90337e-10
-7.12285e-16
-4.17939e-10
-4.67665e-10
-5.86795e-16
-4.9338e-10
-2.02031e-10
2.18999e-17
-4.67271e-10
-1.22439e-14
-2.53899e-10
7.13922e-10
-1.17231e-09
1.16659e-09
-1.1651e-09
1.38161e-09
-8.29669e-10
1.41764e-09
-4.08367e-10
1.29629e-09
-2.87413e-12
1.03697e-09
3.51299e-10
6.59196e-10
6.46262e-10
1.81562e-10
8.85806e-10
-3.78611e-10
1.07768e-09
-1.00586e-09
1.22997e-09
-1.68715e-09
1.34993e-09
-2.41168e-09
1.44355e-09
-3.17041e-09
1.51601e-09
-3.95569e-09
1.57156e-09
-4.7612e-09
1.6134e-09
-5.58167e-09
1.64406e-09
-6.41272e-09
1.6655e-09
-7.25065e-09
1.67931e-09
-8.09233e-09
1.6867e-09
-8.93508e-09
1.68864e-09
-9.77657e-09
1.68592e-09
-1.06148e-08
1.67914e-09
-1.14479e-08
1.66879e-09
-1.22744e-08
1.65525e-09
-1.30928e-08
1.63884e-09
-1.39017e-08
1.61979e-09
-1.46999e-08
1.5983e-09
-1.54863e-08
1.57453e-09
-1.62598e-08
1.54862e-09
-1.70194e-08
1.52067e-09
-1.77642e-08
1.49077e-09
-1.8493e-08
1.459e-09
-1.92052e-08
1.42543e-09
-1.98997e-08
1.39014e-09
-2.05759e-08
1.35318e-09
-2.12328e-08
1.31461e-09
-2.18697e-08
1.27451e-09
-2.24859e-08
1.23293e-09
-2.30807e-08
1.18994e-09
-2.36535e-08
1.14562e-09
-2.42035e-08
1.10003e-09
-2.47302e-08
1.05326e-09
-2.5233e-08
1.00539e-09
-2.57115e-08
9.56507e-10
-2.61652e-08
9.06693e-10
-2.65936e-08
8.56043e-10
-2.69964e-08
8.04653e-10
-2.73733e-08
7.52621e-10
-2.77239e-08
7.00045e-10
-2.80482e-08
6.47026e-10
-2.83458e-08
5.93668e-10
-2.86167e-08
5.40072e-10
-2.88607e-08
4.86342e-10
-2.90779e-08
4.3258e-10
-2.92683e-08
3.78887e-10
-2.9432e-08
3.25365e-10
-2.95691e-08
2.72113e-10
-2.96797e-08
2.19228e-10
-2.97641e-08
1.66803e-10
-2.98225e-08
1.1493e-10
-2.98552e-08
6.36949e-11
-2.98627e-08
1.31809e-11
-2.98452e-08
-3.65356e-11
-2.98031e-08
-8.53841e-11
-2.9737e-08
-1.33295e-10
-2.96474e-08
-1.80202e-10
-2.95347e-08
-2.26039e-10
-2.93996e-08
-2.70747e-10
-2.92425e-08
-3.14269e-10
-2.90641e-08
-3.56553e-10
-2.88651e-08
-3.97554e-10
-2.86461e-08
-4.3723e-10
-2.84076e-08
-4.75545e-10
-2.81506e-08
-5.12466e-10
-2.78755e-08
-5.47968e-10
-2.75832e-08
-5.82025e-10
-2.72743e-08
-6.14621e-10
-2.69496e-08
-6.4574e-10
-2.66098e-08
-6.75371e-10
-2.62556e-08
-7.03508e-10
-2.58878e-08
-7.30148e-10
-2.55071e-08
-7.55291e-10
-2.51143e-08
-7.78942e-10
-2.471e-08
-8.01107e-10
-2.4295e-08
-8.21796e-10
-2.387e-08
-8.41024e-10
-2.34358e-08
-8.58806e-10
-2.2993e-08
-8.7516e-10
-2.25423e-08
-8.90108e-10
-2.20844e-08
-9.03673e-10
-2.162e-08
-9.15881e-10
-2.11498e-08
-9.2676e-10
-2.06743e-08
-9.36338e-10
-2.01943e-08
-9.44648e-10
-1.97103e-08
-9.51722e-10
-1.92229e-08
-9.57594e-10
-1.87327e-08
-9.623e-10
-1.82402e-08
-9.65876e-10
-1.77461e-08
-9.68361e-10
-1.72508e-08
-9.69791e-10
-1.67549e-08
-9.70208e-10
-1.62588e-08
-9.69651e-10
-1.5763e-08
-9.68159e-10
-1.5268e-08
-9.65774e-10
-1.47742e-08
-9.62537e-10
-1.42819e-08
-9.58488e-10
-1.37917e-08
-9.53668e-10
-1.33038e-08
-9.48118e-10
-1.28187e-08
-9.41878e-10
-1.23366e-08
-9.34987e-10
-1.18579e-08
-9.27486e-10
-1.13829e-08
-9.19411e-10
-1.09118e-08
-9.10802e-10
-1.04449e-08
-9.01694e-10
-9.98254e-09
-8.92122e-10
-9.52485e-09
-8.82121e-10
-9.07207e-09
-8.71723e-10
-8.6244e-09
-8.60959e-10
-8.18203e-09
-8.49858e-10
-7.74514e-09
-8.38448e-10
-7.31388e-09
-8.26754e-10
-6.8884e-09
-8.14799e-10
-6.46884e-09
-8.02604e-10
-6.05534e-09
-7.90187e-10
-5.64801e-09
-7.77565e-10
-5.24698e-09
-7.64751e-10
-4.85235e-09
-7.51755e-10
-4.46424e-09
-7.38586e-10
-4.08275e-09
-7.25247e-10
-3.70798e-09
-7.11742e-10
-3.34005e-09
-6.98068e-10
-2.97905e-09
-6.84222e-10
-2.62511e-09
-6.70196e-10
-2.27833e-09
-6.5598e-10
-1.93884e-09
-6.41561e-10
-1.60678e-09
-6.26923e-10
-1.28227e-09
-6.12048e-10
-9.6547e-10
-5.96917e-10
-6.56536e-10
-5.81511e-10
-3.5563e-10
-5.65814e-10
-6.29124e-11
-5.49829e-10
2.2136e-10
-5.33495e-10
4.969e-10
-5.16701e-10
7.63484e-10
-4.99398e-10
1.02086e-09
-4.81582e-10
1.26873e-09
-4.63243e-10
1.5068e-09
-4.44348e-10
1.73475e-09
-4.24865e-10
1.95224e-09
-4.04758e-10
2.15891e-09
-3.83993e-10
2.3544e-09
-3.62538e-10
2.53831e-09
-3.40365e-10
2.71025e-09
-3.17448e-10
2.86981e-09
-2.93765e-10
3.01657e-09
-2.69301e-10
3.1501e-09
-2.44047e-10
3.26997e-09
-2.17998e-10
3.37577e-09
-1.9116e-10
3.46706e-09
-1.63546e-10
3.54345e-09
-1.35179e-10
3.60453e-09
-1.06092e-10
3.64994e-09
-7.63313e-11
3.67932e-09
-4.5953e-11
3.69235e-09
-1.50281e-11
3.68876e-09
1.63743e-11
3.66833e-09
4.81719e-11
3.63088e-09
8.02537e-11
3.5763e-09
1.12494e-10
3.50456e-09
1.44748e-10
3.41569e-09
1.76857e-10
3.30983e-09
2.08639e-10
3.1872e-09
2.39896e-10
3.04815e-09
2.70406e-10
2.89316e-09
2.99926e-10
2.72282e-09
3.28187e-10
2.53789e-09
3.54894e-10
2.33929e-09
3.79724e-10
2.12811e-09
4.02321e-10
1.90566e-09
4.22292e-10
1.67345e-09
4.39205e-10
1.43323e-09
4.5258e-10
1.18704e-09
4.61882e-10
9.37188e-10
4.66509e-10
6.86336e-10
4.65791e-10
4.37469e-10
4.58901e-10
1.93969e-10
4.44979e-10
-4.03123e-11
4.23119e-10
-2.60952e-10
3.92194e-10
-4.63027e-10
3.5101e-10
-6.41151e-10
2.98281e-10
-7.89372e-10
2.32661e-10
-9.0124e-10
1.52845e-10
-9.69951e-10
5.80059e-11
-9.88613e-10
-5.15935e-11
-9.50944e-10
-1.73436e-10
-8.52185e-10
-3.007e-10
-6.90354e-10
-4.17982e-10
-4.67712e-10
-4.93431e-10
-2.02157e-10
-4.67338e-10
-2.53977e-10
5.95564e-10
1.42724e-14
-1.76894e-09
8.0682e-10
-3.39212e-15
-1.37735e-09
7.93949e-10
-2.15474e-16
-8.17104e-10
6.46337e-10
-4.63077e-16
-2.60982e-10
3.94313e-10
-6.29728e-16
2.48959e-10
5.18561e-11
-7.45388e-16
6.9359e-10
-3.71409e-10
-8.01538e-16
1.06938e-09
-8.6631e-10
-8.3263e-16
1.38057e-09
-1.42362e-09
-7.85406e-16
1.63486e-09
-2.03434e-09
-6.87055e-16
1.84058e-09
-2.6901e-09
-6.07347e-16
2.00558e-09
-3.38336e-09
-5.51569e-16
2.13672e-09
-4.1074e-09
-4.93782e-16
2.23995e-09
-4.85616e-09
-4.26911e-16
2.32024e-09
-5.62443e-09
-3.62343e-16
2.38158e-09
-6.40766e-09
-3.08479e-16
2.42721e-09
-7.20195e-09
-2.63341e-16
2.45972e-09
-8.00391e-09
-2.22213e-16
2.48119e-09
-8.81058e-09
-1.82115e-16
2.4933e-09
-9.61939e-09
-1.44021e-16
2.49739e-09
-1.04281e-08
-1.09612e-16
2.49454e-09
-1.12346e-08
-7.98104e-17
2.48563e-09
-1.20372e-08
-5.43991e-17
2.47134e-09
-1.28343e-08
-3.2592e-17
2.45225e-09
-1.36243e-08
-1.3793e-17
2.42879e-09
-1.44059e-08
2.36397e-18
2.40133e-09
-1.51778e-08
1.56755e-17
2.37018e-09
-1.59389e-08
2.6277e-17
2.33557e-09
-1.6688e-08
3.39653e-17
2.2977e-09
-1.74242e-08
3.88217e-17
2.25674e-09
-1.81463e-08
4.09409e-17
2.21283e-09
-1.88534e-08
4.0987e-17
2.1661e-09
-1.95447e-08
3.95157e-17
2.11665e-09
-2.02192e-08
3.68794e-17
2.0646e-09
-2.08761e-08
3.36065e-17
2.01003e-09
-2.15146e-08
3.00358e-17
1.95306e-09
-2.21339e-08
2.64655e-17
1.89376e-09
-2.27332e-08
2.3248e-17
1.83225e-09
-2.33119e-08
2.05593e-17
1.76863e-09
-2.38694e-08
1.85216e-17
1.70299e-09
-2.44048e-08
1.73244e-17
1.63547e-09
-2.49178e-08
1.7049e-17
1.56616e-09
-2.54076e-08
1.76007e-17
1.49519e-09
-2.58738e-08
1.91013e-17
1.42269e-09
-2.6316e-08
2.13205e-17
1.3488e-09
-2.67336e-08
2.40684e-17
1.27364e-09
-2.71263e-08
2.73723e-17
1.19736e-09
-2.74938e-08
3.08796e-17
1.12009e-09
-2.78358e-08
3.46718e-17
1.042e-09
-2.81521e-08
3.84371e-17
9.63227e-10
-2.84423e-08
4.246e-17
8.83921e-10
-2.87065e-08
4.64424e-17
8.04235e-10
-2.89445e-08
5.03979e-17
7.24322e-10
-2.91563e-08
5.45162e-17
6.44333e-10
-2.93419e-08
5.87837e-17
5.64418e-10
-2.95013e-08
6.3119e-17
4.84727e-10
-2.96346e-08
6.74545e-17
4.05405e-10
-2.9742e-08
7.20883e-17
3.26594e-10
-2.98237e-08
7.68441e-17
2.48435e-10
-2.98798e-08
8.17084e-17
1.7106e-10
-2.99108e-08
8.66541e-17
9.45999e-11
-2.99168e-08
9.18709e-17
1.91759e-11
-2.98983e-08
9.72233e-17
-5.50949e-11
-2.98556e-08
1.02847e-16
-1.28101e-10
-2.97892e-08
1.08579e-16
-1.99736e-10
-2.96995e-08
1.14501e-16
-2.69899e-10
-2.95871e-08
1.2045e-16
-3.38496e-10
-2.94524e-08
1.2671e-16
-4.05436e-10
-2.92961e-08
1.32862e-16
-4.70638e-10
-2.91186e-08
1.39177e-16
-5.34025e-10
-2.89207e-08
1.45628e-16
-5.95529e-10
-2.87029e-08
1.51943e-16
-6.55087e-10
-2.84658e-08
1.58502e-16
-7.12646e-10
-2.82102e-08
1.65061e-16
-7.68156e-10
-2.79366e-08
1.71715e-16
-8.21575e-10
-2.76458e-08
1.78314e-16
-8.7287e-10
-2.73384e-08
1.84954e-16
-9.22011e-10
-2.70152e-08
1.91527e-16
-9.68974e-10
-2.66769e-08
1.98113e-16
-1.01374e-09
-2.63241e-08
2.04753e-16
-1.05631e-09
-2.59576e-08
2.11326e-16
-1.09666e-09
-2.55781e-08
2.17858e-16
-1.13481e-09
-2.51864e-08
2.24281e-16
-1.17074e-09
-2.4783e-08
2.30786e-16
-1.20448e-09
-2.43688e-08
2.37088e-16
-1.23604e-09
-2.39445e-08
2.43511e-16
-1.26543e-09
-2.35106e-08
2.49718e-16
-1.29268e-09
-2.3068e-08
2.55925e-16
-1.31782e-09
-2.26173e-08
2.62118e-16
-1.34086e-09
-2.21591e-08
2.68148e-16
-1.36186e-09
-2.16942e-08
2.74179e-16
-1.38084e-09
-2.12232e-08
2.80061e-16
-1.39785e-09
-2.07466e-08
2.85807e-16
-1.41292e-09
-2.02652e-08
2.91702e-16
-1.4261e-09
-1.97796e-08
2.97285e-16
-1.43744e-09
-1.92902e-08
3.02774e-16
-1.44699e-09
-1.87977e-08
3.08222e-16
-1.4548e-09
-1.83027e-08
3.13562e-16
-1.46092e-09
-1.78058e-08
3.1882e-16
-1.4654e-09
-1.73073e-08
3.23983e-16
-1.46831e-09
-1.68078e-08
3.29201e-16
-1.4697e-09
-1.63079e-08
3.34189e-16
-1.46962e-09
-1.5808e-08
3.39176e-16
-1.46814e-09
-1.53085e-08
3.44028e-16
-1.46531e-09
-1.48099e-08
3.48962e-16
-1.4612e-09
-1.43126e-08
3.5376e-16
-1.45585e-09
-1.38169e-08
3.58368e-16
-1.44934e-09
-1.33234e-08
3.63004e-16
-1.44172e-09
-1.28323e-08
3.67639e-16
-1.43304e-09
-1.23439e-08
3.72113e-16
-1.42338e-09
-1.18587e-08
3.76559e-16
-1.41277e-09
-1.13769e-08
3.81032e-16
-1.40129e-09
-1.08988e-08
3.85288e-16
-1.38897e-09
-1.04246e-08
3.89491e-16
-1.37589e-09
-9.95473e-09
3.93748e-16
-1.36208e-09
-9.48932e-09
3.97869e-16
-1.34759e-09