/*--------------------------------*- C++ -*----------------------------------*\
  =========                 |
  \\      /  F ield         | OpenFOAM: The Open Source CFD Toolbox
   \\    /   O peration     | Website:  https://openfoam.org
    \\  /    A nd           | Version:  8
     \\/     M anipulation  |
\*---------------------------------------------------------------------------*/
FoamFile
{
    version     2.0;
    format      ascii;
    class       volScalarField;
    location    "3100";
    object      T;
}
// * * * * * * * * * * * * * * * * * * * * * * * * * * * * * * * * * * * * * //

dimensions      [0 0 0 1 0 0 0];

internalField   nonuniform List<scalar> 
46000
(
310.446
309.453
308.676
308.16
307.787
307.49
307.243
307.03
306.843
306.676
306.523
306.384
306.256
306.137
306.026
305.923
305.826
305.735
305.649
305.568
305.492
305.42
305.352
305.287
305.226
305.168
305.113
305.06
305.011
304.964
304.919
304.877
304.836
304.798
304.762
304.727
304.695
304.664
304.634
304.607
304.58
304.555
304.532
304.51
304.489
304.47
304.451
304.434
304.418
304.404
304.39
304.377
304.366
304.355
304.346
304.337
304.329
304.323
304.317
304.312
304.309
304.306
304.303
304.302
304.301
304.302
304.303
304.305
304.308
304.312
304.316
304.321
304.328
304.335
304.343
304.351
304.361
304.371
304.382
304.393
304.406
304.419
304.433
304.448
304.463
304.479
304.496
304.513
304.531
304.549
304.569
304.589
304.609
304.63
304.652
304.674
304.697
304.72
304.744
304.768
304.792
304.818
304.843
304.869
304.896
304.923
304.95
304.978
305.006
305.034
305.063
305.092
305.122
305.151
305.181
305.212
305.242
305.273
305.304
305.336
305.368
305.4
305.432
305.465
305.498
305.531
305.564
305.598
305.632
305.667
305.702
305.737
305.772
305.808
305.845
305.881
305.918
305.956
305.994
306.033
306.072
306.112
306.153
306.194
306.235
306.278
306.321
306.365
306.409
306.455
306.501
306.548
306.596
306.645
306.695
306.746
306.798
306.852
306.906
306.961
307.018
307.075
307.134
307.195
307.256
307.318
307.381
307.446
307.512
307.579
307.647
307.717
307.788
307.861
307.935
308.01
308.087
308.166
308.245
308.327
308.41
308.495
308.582
308.671
308.763
308.858
308.955
309.057
309.163
309.275
309.393
309.521
309.661
309.816
309.993
310.205
310.47
310.819
311.269
311.663
310.446
309.453
308.676
308.16
307.786
307.49
307.243
307.03
306.843
306.676
306.523
306.384
306.256
306.137
306.026
305.923
305.826
305.735
305.649
305.568
305.492
305.42
305.352
305.287
305.226
305.168
305.113
305.06
305.011
304.964
304.919
304.877
304.836
304.798
304.762
304.727
304.695
304.664
304.634
304.607
304.58
304.556
304.532
304.51
304.489
304.47
304.451
304.434
304.418
304.404
304.39
304.377
304.366
304.355
304.346
304.337
304.33
304.323
304.317
304.312
304.309
304.306
304.303
304.302
304.301
304.302
304.303
304.305
304.308
304.312
304.316
304.321
304.328
304.335
304.343
304.351
304.361
304.371
304.382
304.393
304.406
304.419
304.433
304.448
304.463
304.479
304.496
304.513
304.531
304.549
304.569
304.589
304.609
304.63
304.652
304.674
304.697
304.72
304.744
304.768
304.792
304.818
304.843
304.869
304.896
304.923
304.95
304.978
305.006
305.034
305.063
305.092
305.122
305.151
305.181
305.212
305.242
305.273
305.304
305.336
305.368
305.4
305.432
305.465
305.498
305.531
305.564
305.598
305.632
305.667
305.702
305.737
305.772
305.808
305.845
305.881
305.918
305.956
305.994
306.033
306.072
306.112
306.153
306.194
306.235
306.278
306.321
306.365
306.409
306.455
306.501
306.548
306.596
306.645
306.695
306.746
306.798
306.852
306.906
306.961
307.018
307.075
307.134
307.195
307.256
307.318
307.381
307.446
307.512
307.579
307.647
307.717
307.788
307.861
307.935
308.01
308.087
308.166
308.245
308.327
308.41
308.495
308.582
308.671
308.763
308.858
308.956
309.057
309.163
309.275
309.393
309.521
309.661
309.816
309.993
310.205
310.47
310.819
311.269
311.663
306.972
306.492
306.111
305.819
305.587
305.394
305.231
305.088
304.961
304.846
304.741
304.644
304.555
304.472
304.395
304.323
304.255
304.191
304.131
304.074
304.021
303.97
303.922
303.877
303.834
303.794
303.755
303.719
303.684
303.651
303.62
303.59
303.562
303.535
303.509
303.485
303.462
303.439
303.418
303.398
303.379
303.361
303.344
303.327
303.311
303.296
303.282
303.268
303.256
303.243
303.232
303.221
303.211
303.201
303.192
303.183
303.175
303.168
303.161
303.155
303.149
303.144
303.139
303.135
303.131
303.127
303.125
303.122
303.121
303.119
303.119
303.118
303.119
303.119
303.121
303.122
303.125
303.127
303.131
303.134
303.138
303.143
303.148
303.154
303.16
303.166
303.173
303.18
303.188
303.196
303.205
303.214
303.224
303.234
303.244
303.255
303.266
303.278
303.29
303.302
303.315
303.328
303.342
303.355
303.37
303.384
303.4
303.415
303.431
303.447
303.463
303.48
303.497
303.515
303.533
303.551
303.57
303.589
303.608
303.628
303.648
303.669
303.69
303.711
303.733
303.755
303.778
303.801
303.825
303.849
303.873
303.898
303.924
303.95
303.977
304.004
304.032
304.06
304.089
304.119
304.149
304.181
304.213
304.245
304.279
304.313
304.348
304.384
304.421
304.458
304.497
304.537
304.578
304.619
304.662
304.706
304.751
304.797
304.844
304.892
304.942
304.993
305.045
305.098
305.152
305.208
305.264
305.322
305.382
305.442
305.504
305.567
305.631
305.696
305.763
305.831
305.9
305.971
306.043
306.116
306.19
306.266
306.343
306.422
306.504
306.587
306.672
306.761
306.854
306.951
307.054
307.165
307.287
307.424
307.581
307.77
308.005
308.312
308.726
309.186
306.972
306.492
306.111
305.819
305.587
305.394
305.231
305.088
304.961
304.846
304.741
304.644
304.555
304.472
304.395
304.323
304.255
304.191
304.131
304.074
304.021
303.97
303.922
303.877
303.834
303.794
303.755
303.719
303.684
303.651
303.62
303.59
303.562
303.535
303.509
303.485
303.462
303.439
303.418
303.398
303.379
303.361
303.344
303.327
303.311
303.296
303.282
303.268
303.256
303.243
303.232
303.221
303.211
303.201
303.192
303.183
303.175
303.168
303.161
303.155
303.149
303.144
303.139
303.135
303.131
303.128
303.125
303.122
303.121
303.119
303.119
303.118
303.119
303.119
303.121
303.122
303.125
303.127
303.131
303.134
303.138
303.143
303.148
303.154
303.16
303.166
303.173
303.18
303.188
303.196
303.205
303.214
303.224
303.234
303.244
303.255
303.266
303.278
303.29
303.302
303.315
303.328
303.342
303.356
303.37
303.384
303.4
303.415
303.431
303.447
303.463
303.48
303.497
303.515
303.533
303.551
303.57
303.589
303.608
303.628
303.648
303.669
303.69
303.711
303.733
303.755
303.778
303.801
303.825
303.849
303.873
303.898
303.924
303.95
303.977
304.004
304.032
304.06
304.089
304.119
304.149
304.181
304.213
304.245
304.279
304.313
304.348
304.384
304.421
304.458
304.497
304.537
304.578
304.619
304.662
304.706
304.751
304.797
304.844
304.892
304.942
304.993
305.045
305.098
305.152
305.208
305.264
305.322
305.382
305.442
305.504
305.567
305.631
305.696
305.763
305.831
305.9
305.971
306.043
306.116
306.19
306.266
306.343
306.422
306.504
306.587
306.672
306.761
306.854
306.951
307.054
307.165
307.287
307.424
307.581
307.77
308.005
308.312
308.726
309.186
305.264
305.135
304.963
304.796
304.643
304.506
304.383
304.271
304.17
304.076
303.99
303.909
303.835
303.765
303.7
303.638
303.58
303.526
303.474
303.426
303.38
303.337
303.296
303.257
303.22
303.185
303.152
303.121
303.091
303.062
303.035
303.01
302.985
302.962
302.94
302.918
302.898
302.879
302.86
302.843
302.826
302.81
302.794
302.779
302.765
302.752
302.739
302.726
302.714
302.703
302.692
302.682
302.672
302.663
302.654
302.645
302.637
302.63
302.622
302.616
302.609
302.603
302.598
302.593
302.588
302.583
302.579
302.576
302.573
302.57
302.568
302.566
302.564
302.563
302.562
302.562
302.562
302.562
302.563
302.565
302.566
302.568
302.571
302.574
302.577
302.581
302.585
302.589
302.594
302.599
302.605
302.611
302.617
302.624
302.631
302.639
302.646
302.655
302.663
302.672
302.682
302.691
302.702
302.712
302.723
302.734
302.746
302.758
302.77
302.783
302.796
302.809
302.823
302.837
302.852
302.867
302.882
302.898
302.914
302.93
302.947
302.965
302.982
303.001
303.019
303.039
303.058
303.078
303.099
303.12
303.142
303.164
303.187
303.21
303.234
303.259
303.284
303.31
303.336
303.364
303.392
303.42
303.45
303.48
303.511
303.543
303.576
303.61
303.645
303.68
303.717
303.754
303.793
303.832
303.873
303.915
303.957
304.001
304.046
304.092
304.14
304.188
304.238
304.289
304.341
304.394
304.449
304.504
304.561
304.619
304.678
304.738
304.799
304.862
304.925
304.99
305.056
305.123
305.19
305.259
305.329
305.4
305.473
305.546
305.621
305.698
305.776
305.856
305.94
306.026
306.117
306.213
306.317
306.43
306.556
306.699
306.865
307.059
307.289
307.531
305.263
305.135
304.963
304.796
304.643
304.506
304.383
304.271
304.17
304.076
303.99
303.909
303.835
303.765
303.7
303.638
303.58
303.526
303.474
303.426
303.38
303.337
303.296
303.257
303.22
303.185
303.152
303.121
303.091
303.062
303.035
303.01
302.985
302.962
302.94
302.918
302.898
302.879
302.86
302.843
302.826
302.81
302.794
302.779
302.765
302.752
302.739
302.726
302.714
302.703
302.692
302.682
302.672
302.663
302.654
302.645
302.637
302.63
302.622
302.616
302.609
302.603
302.598
302.593
302.588
302.583
302.579
302.576
302.573
302.57
302.568
302.566
302.564
302.563
302.562
302.562
302.562
302.562
302.563
302.565
302.566
302.568
302.571
302.574
302.577
302.581
302.585
302.589
302.594
302.599
302.605
302.611
302.617
302.624
302.631
302.639
302.646
302.655
302.663
302.672
302.682
302.691
302.702
302.712
302.723
302.734
302.746
302.758
302.77
302.783
302.796
302.809
302.823
302.837
302.852
302.867
302.882
302.898
302.914
302.93
302.947
302.965
302.982
303.001
303.019
303.039
303.058
303.078
303.099
303.12
303.142
303.164
303.187
303.21
303.234
303.259
303.284
303.31
303.336
303.364
303.392
303.42
303.45
303.48
303.511
303.543
303.576
303.61
303.645
303.68
303.717
303.754
303.793
303.832
303.873
303.915
303.957
304.001
304.046
304.092
304.14
304.188
304.238
304.289
304.341
304.394
304.449
304.504
304.561
304.619
304.678
304.738
304.799
304.862
304.925
304.99
305.056
305.123
305.19
305.259
305.329
305.4
305.473
305.546
305.621
305.698
305.776
305.856
305.94
306.026
306.117
306.213
306.317
306.43
306.556
306.699
306.865
307.059
307.289
307.531
304.344
304.32
304.242
304.144
304.042
303.942
303.847
303.757
303.673
303.594
303.521
303.451
303.386
303.325
303.267
303.212
303.161
303.112
303.066
303.022
302.981
302.942
302.905
302.869
302.836
302.804
302.774
302.746
302.718
302.692
302.668
302.644
302.622
302.6
302.58
302.561
302.542
302.524
302.507
302.491
302.475
302.46
302.446
302.432
302.418
302.406
302.393
302.382
302.37
302.36
302.349
302.339
302.33
302.32
302.312
302.303
302.295
302.287
302.28
302.273
302.266
302.26
302.254
302.249
302.243
302.238
302.234
302.23
302.226
302.222
302.219
302.217
302.214
302.212
302.21
302.209
302.208
302.207
302.207
302.207
302.208
302.209
302.21
302.212
302.214
302.216
302.219
302.222
302.225
302.229
302.233
302.237
302.242
302.248
302.253
302.259
302.265
302.272
302.279
302.286
302.294
302.302
302.311
302.32
302.329
302.338
302.348
302.359
302.369
302.38
302.392
302.404
302.416
302.428
302.441
302.455
302.469
302.483
302.497
302.512
302.528
302.544
302.56
302.577
302.594
302.612
302.63
302.649
302.668
302.688
302.708
302.729
302.75
302.772
302.795
302.818
302.842
302.867
302.892
302.919
302.945
302.973
303.001
303.031
303.061
303.091
303.123
303.156
303.189
303.224
303.259
303.296
303.333
303.372
303.411
303.452
303.493
303.536
303.58
303.625
303.671
303.719
303.767
303.817
303.867
303.919
303.972
304.027
304.082
304.138
304.196
304.254
304.314
304.374
304.436
304.498
304.562
304.626
304.692
304.758
304.825
304.893
304.961
305.031
305.102
305.174
305.247
305.321
305.398
305.476
305.557
305.642
305.731
305.825
305.925
306.032
306.146
306.265
306.382
306.483
304.344
304.32
304.242
304.144
304.042
303.942
303.847
303.757
303.673
303.594
303.521
303.451
303.386
303.325
303.267
303.212
303.161
303.112
303.066
303.022
302.981
302.942
302.905
302.869
302.836
302.804
302.774
302.746
302.718
302.692
302.668
302.644
302.622
302.6
302.58
302.561
302.542
302.524
302.507
302.491
302.475
302.46
302.446
302.432
302.418
302.406
302.393
302.382
302.37
302.36
302.349
302.339
302.33
302.32
302.312
302.303
302.295
302.287
302.28
302.273
302.266
302.26
302.254
302.249
302.243
302.238
302.234
302.23
302.226
302.222
302.219
302.217
302.214
302.212
302.21
302.209
302.208
302.208
302.207
302.207
302.208
302.209
302.21
302.212
302.214
302.216
302.219
302.222
302.225
302.229
302.233
302.237
302.242
302.248
302.253
302.259
302.265
302.272
302.279
302.286
302.294
302.302
302.311
302.32
302.329
302.339
302.348
302.359
302.369
302.38
302.392
302.404
302.416
302.428
302.441
302.455
302.469
302.483
302.497
302.512
302.528
302.544
302.56
302.577
302.594
302.612
302.63
302.649
302.668
302.688
302.708
302.729
302.75
302.772
302.795
302.818
302.842
302.867
302.892
302.919
302.945
302.973
303.001
303.031
303.061
303.091
303.123
303.156
303.189
303.224
303.259
303.296
303.333
303.372
303.411
303.452
303.493
303.536
303.58
303.625
303.671
303.719
303.767
303.817
303.867
303.919
303.972
304.027
304.082
304.138
304.196
304.254
304.314
304.374
304.436
304.498
304.562
304.626
304.692
304.758
304.825
304.893
304.961
305.031
305.102
305.174
305.247
305.321
305.398
305.476
305.557
305.642
305.731
305.825
305.925
306.032
306.146
306.265
306.382
306.483
303.756
303.759
303.721
303.661
303.591
303.517
303.443
303.371
303.301
303.234
303.17
303.109
303.052
302.997
302.945
302.896
302.85
302.805
302.763
302.723
302.685
302.649
302.615
302.583
302.552
302.523
302.495
302.468
302.443
302.419
302.396
302.374
302.353
302.333
302.314
302.296
302.278
302.261
302.245
302.23
302.215
302.201
302.187
302.174
302.161
302.149
302.137
302.126
302.115
302.105
302.095
302.085
302.075
302.066
302.058
302.049
302.041
302.034
302.026
302.019
302.012
302.006
302
301.994
301.988
301.983
301.978
301.974
301.97
301.966
301.962
301.959
301.956
301.953
301.951
301.949
301.947
301.946
301.945
301.945
301.944
301.945
301.945
301.946
301.947
301.948
301.95
301.953
301.955
301.958
301.961
301.965
301.969
301.973
301.978
301.983
301.988
301.994
302
302.006
302.013
302.02
302.028
302.035
302.044
302.052
302.061
302.07
302.08
302.09
302.101
302.111
302.123
302.134
302.146
302.159
302.171
302.185
302.198
302.212
302.227
302.242
302.257
302.273
302.289
302.306
302.323
302.341
302.36
302.379
302.398
302.418
302.439
302.46
302.482
302.504
302.528
302.551
302.576
302.601
302.628
302.654
302.682
302.71
302.74
302.77
302.801
302.833
302.865
302.899
302.934
302.97
303.006
303.044
303.083
303.123
303.163
303.205
303.249
303.293
303.338
303.385
303.432
303.481
303.531
303.581
303.633
303.686
303.74
303.796
303.852
303.909
303.967
304.026
304.086
304.147
304.208
304.271
304.334
304.398
304.462
304.527
304.593
304.659
304.727
304.794
304.863
304.932
305.002
305.074
305.147
305.221
305.297
305.376
305.455
305.536
305.614
305.687
305.746
305.784
303.756
303.759
303.721
303.661
303.591
303.517
303.443
303.371
303.301
303.234
303.17
303.109
303.052
302.997
302.945
302.896
302.85
302.805
302.763
302.723
302.685
302.649
302.615
302.583
302.552
302.523
302.495
302.468
302.443
302.419
302.396
302.374
302.353
302.333
302.314
302.296
302.278
302.261
302.245
302.23
302.215
302.201
302.187
302.174
302.161
302.149
302.137
302.126
302.115
302.105
302.095
302.085
302.075
302.066
302.058
302.049
302.041
302.034
302.026
302.019
302.012
302.006
302
301.994
301.988
301.983
301.978
301.974
301.97
301.966
301.962
301.959
301.956
301.953
301.951
301.949
301.947
301.946
301.945
301.945
301.944
301.945
301.945
301.946
301.947
301.948
301.95
301.953
301.955
301.958
301.961
301.965
301.969
301.973
301.978
301.983
301.988
301.994
302
302.006
302.013
302.02
302.028
302.035
302.044
302.052
302.061
302.07
302.08
302.09
302.101
302.111
302.123
302.134
302.146
302.159
302.171
302.185
302.198
302.212
302.227
302.242
302.257
302.273
302.289
302.306
302.323
302.341
302.36
302.379
302.398
302.418
302.439
302.46
302.482
302.504
302.528
302.551
302.576
302.601
302.627
302.654
302.682
302.71
302.74
302.77
302.801
302.833
302.865
302.899
302.934
302.97
303.006
303.044
303.083
303.123
303.163
303.205
303.249
303.293
303.338
303.385
303.432
303.481
303.531
303.581
303.633
303.686
303.74
303.796
303.852
303.909
303.967
304.026
304.086
304.147
304.208
304.271
304.334
304.398
304.462
304.527
304.593
304.659
304.727
304.794
304.863
304.932
305.002
305.074
305.147
305.221
305.297
305.376
305.455
305.536
305.614
305.687
305.746
305.784
303.33
303.337
303.316
303.277
303.227
303.172
303.113
303.055
302.996
302.939
302.884
302.831
302.78
302.731
302.684
302.64
302.597
302.557
302.518
302.481
302.446
302.413
302.382
302.351
302.323
302.295
302.269
302.244
302.221
302.198
302.176
302.156
302.136
302.117
302.099
302.082
302.065
302.05
302.034
302.02
302.005
301.992
301.979
301.966
301.954
301.942
301.931
301.92
301.909
301.899
301.889
301.88
301.871
301.862
301.853
301.845
301.837
301.829
301.822
301.815
301.808
301.801
301.795
301.789
301.783
301.778
301.773
301.768
301.763
301.759
301.755
301.752
301.748
301.745
301.743
301.74
301.738
301.737
301.735
301.734
301.733
301.733
301.733
301.733
301.734
301.734
301.736
301.737
301.739
301.742
301.744
301.747
301.75
301.754
301.758
301.762
301.767
301.772
301.777
301.783
301.789
301.796
301.802
301.809
301.817
301.825
301.833
301.842
301.851
301.86
301.87
301.88
301.89
301.901
301.912
301.924
301.936
301.949
301.962
301.975
301.989
302.003
302.018
302.033
302.049
302.065
302.082
302.099
302.117
302.135
302.154
302.173
302.193
302.214
302.235
302.257
302.28
302.303
302.327
302.352
302.378
302.404
302.431
302.459
302.487
302.517
302.547
302.579
302.611
302.644
302.678
302.713
302.749
302.787
302.825
302.864
302.904
302.946
302.988
303.031
303.076
303.122
303.168
303.216
303.265
303.315
303.366
303.418
303.471
303.525
303.58
303.636
303.693
303.751
303.809
303.868
303.928
303.989
304.05
304.112
304.174
304.236
304.299
304.363
304.427
304.491
304.555
304.62
304.684
304.75
304.815
304.881
304.946
305.011
305.075
305.136
305.192
305.238
305.269
305.279
303.33
303.337
303.316
303.277
303.227
303.172
303.113
303.055
302.996
302.939
302.884
302.831
302.78
302.731
302.684
302.64
302.597
302.557
302.518
302.481
302.446
302.413
302.382
302.351
302.323
302.295
302.269
302.244
302.221
302.198
302.176
302.156
302.136
302.117
302.099
302.082
302.065
302.05
302.034
302.02
302.005
301.992
301.979
301.966
301.954
301.942
301.931
301.92
301.909
301.899
301.889
301.88
301.871
301.862
301.853
301.845
301.837
301.829
301.822
301.815
301.808
301.801
301.795
301.789
301.783
301.778
301.773
301.768
301.763
301.759
301.755
301.752
301.748
301.745
301.743
301.74
301.738
301.737
301.735
301.734
301.733
301.733
301.733
301.733
301.734
301.734
301.736
301.737
301.739
301.742
301.744
301.747
301.75
301.754
301.758
301.762
301.767
301.772
301.777
301.783
301.789
301.796
301.802
301.809
301.817
301.825
301.833
301.842
301.851
301.86
301.87
301.88
301.89
301.901
301.912
301.924
301.936
301.949
301.962
301.975
301.989
302.003
302.018
302.033
302.049
302.065
302.082
302.099
302.117
302.135
302.154
302.173
302.193
302.214
302.235
302.257
302.28
302.303
302.327
302.352
302.378
302.404
302.431
302.459
302.487
302.517
302.547
302.579
302.611
302.644
302.678
302.713
302.749
302.787
302.825
302.864
302.904
302.946
302.988
303.031
303.076
303.122
303.168
303.216
303.265
303.315
303.366
303.418
303.471
303.525
303.58
303.636
303.693
303.751
303.809
303.868
303.928
303.989
304.05
304.112
304.174
304.236
304.299
304.363
304.427
304.491
304.555
304.62
304.684
304.75
304.815
304.881
304.946
305.011
305.075
305.136
305.192
305.238
305.269
305.279
302.993
303
302.986
302.959
302.922
302.879
302.833
302.784
302.735
302.687
302.639
302.592
302.547
302.503
302.461
302.42
302.381
302.344
302.309
302.275
302.243
302.212
302.182
302.154
302.127
302.101
302.077
302.054
302.031
302.01
301.99
301.97
301.952
301.934
301.917
301.9
301.884
301.869
301.855
301.841
301.827
301.814
301.801
301.789
301.778
301.766
301.755
301.745
301.734
301.724
301.715
301.705
301.696
301.688
301.679
301.671
301.663
301.655
301.648
301.641
301.634
301.627
301.621
301.615
301.609
301.603
301.598
301.593
301.588
301.584
301.58
301.576
301.572
301.569
301.566
301.563
301.561
301.559
301.557
301.556
301.555
301.554
301.553
301.553
301.553
301.554
301.555
301.556
301.557
301.559
301.561
301.563
301.566
301.569
301.573
301.577
301.581
301.585
301.59
301.595
301.601
301.607
301.613
301.62
301.627
301.634
301.642
301.65
301.658
301.667
301.676
301.686
301.696
301.706
301.717
301.728
301.739
301.751
301.764
301.777
301.79
301.804
301.818
301.833
301.848
301.864
301.88
301.896
301.914
301.932
301.95
301.969
301.988
302.009
302.03
302.051
302.073
302.096
302.12
302.144
302.169
302.195
302.221
302.249
302.277
302.306
302.336
302.367
302.399
302.431
302.465
302.5
302.535
302.572
302.609
302.648
302.688
302.729
302.77
302.813
302.857
302.902
302.948
302.995
303.044
303.093
303.143
303.194
303.246
303.299
303.353
303.408
303.463
303.52
303.577
303.635
303.693
303.752
303.811
303.871
303.931
303.991
304.051
304.112
304.173
304.233
304.294
304.354
304.414
304.473
304.532
304.59
304.647
304.702
304.754
304.802
304.842
304.873
304.89
304.89
302.993
303
302.986
302.959
302.922
302.879
302.833
302.784
302.735
302.687
302.639
302.592
302.547
302.503
302.461
302.42
302.381
302.344
302.309
302.275
302.243
302.212
302.182
302.154
302.127
302.101
302.077
302.054
302.031
302.01
301.99
301.97
301.952
301.934
301.917
301.9
301.884
301.869
301.855
301.841
301.827
301.814
301.801
301.789
301.778
301.766
301.755
301.745
301.734
301.724
301.715
301.705
301.696
301.688
301.679
301.671
301.663
301.655
301.648
301.641
301.634
301.627
301.621
301.615
301.609
301.603
301.598
301.593
301.588
301.584
301.58
301.576
301.572
301.569
301.566
301.563
301.561
301.559
301.557
301.556
301.555
301.554
301.553
301.553
301.553
301.554
301.555
301.556
301.557
301.559
301.561
301.563
301.566
301.569
301.573
301.577
301.581
301.585
301.59
301.595
301.601
301.607
301.613
301.62
301.627
301.634
301.642
301.65
301.658
301.667
301.676
301.686
301.696
301.706
301.717
301.728
301.739
301.751
301.764
301.777
301.79
301.804
301.818
301.833
301.848
301.864
301.88
301.896
301.914
301.932
301.95
301.969
301.988
302.009
302.03
302.051
302.073
302.096
302.12
302.144
302.169
302.195
302.221
302.249
302.277
302.306
302.336
302.367
302.399
302.431
302.465
302.5
302.535
302.572
302.609
302.648
302.688
302.729
302.77
302.813
302.857
302.902
302.948
302.995
303.044
303.093
303.143
303.194
303.246
303.299
303.353
303.408
303.463
303.52
303.577
303.635
303.693
303.752
303.811
303.871
303.931
303.991
304.051
304.112
304.173
304.233
304.294
304.354
304.414
304.473
304.532
304.59
304.647
304.702
304.754
304.802
304.842
304.873
304.89
304.89
302.714
302.718
302.708
302.688
302.659
302.625
302.587
302.547
302.505
302.463
302.422
302.38
302.34
302.301
302.263
302.226
302.19
302.156
302.124
302.092
302.062
302.033
302.006
301.98
301.954
301.93
301.907
301.885
301.864
301.844
301.825
301.806
301.789
301.772
301.755
301.74
301.725
301.71
301.696
301.683
301.67
301.657
301.645
301.634
301.622
301.611
301.601
301.59
301.58
301.571
301.561
301.552
301.543
301.534
301.526
301.518
301.51
301.502
301.495
301.488
301.481
301.474
301.468
301.462
301.456
301.45
301.445
301.44
301.435
301.43
301.426
301.422
301.418
301.415
301.411
301.408
301.406
301.403
301.401
301.4
301.398
301.397
301.396
301.396
301.395
301.396
301.396
301.397
301.398
301.399
301.401
301.403
301.405
301.408
301.411
301.414
301.418
301.422
301.427
301.431
301.436
301.442
301.448
301.454
301.46
301.467
301.475
301.482
301.49
301.498
301.507
301.516
301.526
301.536
301.546
301.557
301.568
301.58
301.592
301.604
301.617
301.63
301.644
301.658
301.673
301.688
301.704
301.721
301.737
301.755
301.773
301.791
301.811
301.83
301.851
301.872
301.894
301.916
301.939
301.963
301.988
302.013
302.04
302.067
302.094
302.123
302.153
302.183
302.215
302.247
302.28
302.314
302.349
302.386
302.423
302.461
302.5
302.54
302.582
302.624
302.667
302.712
302.757
302.803
302.851
302.899
302.949
302.999
303.05
303.102
303.155
303.209
303.263
303.318
303.374
303.43
303.487
303.544
303.602
303.66
303.718
303.776
303.834
303.892
303.949
304.007
304.064
304.12
304.176
304.23
304.284
304.335
304.385
304.432
304.475
304.513
304.544
304.566
304.576
304.572
302.714
302.718
302.708
302.688
302.659
302.625
302.587
302.547
302.505
302.463
302.422
302.38
302.34
302.301
302.263
302.226
302.19
302.156
302.124
302.092
302.062
302.033
302.006
301.98
301.954
301.93
301.907
301.885
301.864
301.844
301.825
301.806
301.789
301.772
301.755
301.74
301.725
301.71
301.696
301.683
301.67
301.657
301.645
301.634
301.622
301.611
301.601
301.59
301.58
301.571
301.561
301.552
301.543
301.534
301.526
301.518
301.51
301.502
301.495
301.488
301.481
301.474
301.468
301.462
301.456
301.45
301.445
301.44
301.435
301.43
301.426
301.422
301.418
301.415
301.411
301.408
301.406
301.403
301.401
301.4
301.398
301.397
301.396
301.396
301.395
301.396
301.396
301.397
301.398
301.399
301.401
301.403
301.405
301.408
301.411
301.414
301.418
301.422
301.427
301.431
301.436
301.442
301.448
301.454
301.46
301.467
301.475
301.482
301.49
301.498
301.507
301.516
301.526
301.536
301.546
301.557
301.568
301.58
301.592
301.604
301.617
301.63
301.644
301.658
301.673
301.688
301.704
301.721
301.737
301.755
301.773
301.791
301.811
301.83
301.851
301.872
301.894
301.916
301.939
301.963
301.988
302.013
302.04
302.067
302.094
302.123
302.153
302.183
302.215
302.247
302.28
302.314
302.349
302.386
302.423
302.461
302.5
302.54
302.582
302.624
302.667
302.712
302.757
302.803
302.851
302.899
302.949
302.999
303.05
303.102
303.155
303.209
303.263
303.318
303.374
303.43
303.487
303.544
303.602
303.66
303.718
303.776
303.834
303.892
303.949
304.007
304.064
304.12
304.176
304.23
304.284
304.335
304.385
304.432
304.475
304.513
304.544
304.566
304.576
304.572
302.474
302.475
302.467
302.45
302.428
302.4
302.368
302.334
302.299
302.262
302.226
302.189
302.153
302.118
302.083
302.05
302.017
301.986
301.956
301.927
301.899
301.872
301.846
301.822
301.798
301.776
301.754
301.733
301.713
301.694
301.676
301.658
301.642
301.626
301.61
301.595
301.581
301.567
301.553
301.541
301.528
301.516
301.504
301.493
301.482
301.471
301.461
301.451
301.441
301.432
301.423
301.414
301.405
301.396
301.388
301.38
301.372
301.365
301.357
301.35
301.343
301.337
301.33
301.324
301.318
301.312
301.307
301.302
301.297
301.292
301.287
301.283
301.279
301.276
301.272
301.269
301.266
301.264
301.261
301.259
301.258
301.256
301.255
301.254
301.254
301.253
301.254
301.254
301.255
301.256
301.257
301.259
301.261
301.263
301.266
301.269
301.272
301.276
301.28
301.285
301.289
301.294
301.3
301.306
301.312
301.318
301.325
301.332
301.34
301.348
301.356
301.365
301.374
301.384
301.394
301.404
301.415
301.426
301.438
301.45
301.462
301.475
301.489
301.503
301.517
301.532
301.547
301.563
301.58
301.597
301.615
301.633
301.652
301.671
301.691
301.712
301.734
301.756
301.779
301.802
301.827
301.852
301.878
301.904
301.932
301.96
301.989
302.019
302.05
302.082
302.115
302.149
302.184
302.219
302.256
302.294
302.333
302.372
302.413
302.455
302.498
302.541
302.586
302.632
302.679
302.726
302.775
302.825
302.875
302.926
302.978
303.031
303.084
303.138
303.192
303.247
303.303
303.358
303.414
303.47
303.526
303.582
303.638
303.693
303.748
303.803
303.856
303.909
303.961
304.011
304.06
304.106
304.15
304.191
304.227
304.259
304.284
304.301
304.307
304.303
302.474
302.475
302.467
302.45
302.428
302.4
302.368
302.334
302.299
302.262
302.226
302.189
302.153
302.118
302.083
302.05
302.017
301.986
301.956
301.927
301.899
301.872
301.846
301.822
301.798
301.776
301.754
301.733
301.713
301.694
301.676
301.658
301.642
301.626
301.61
301.595
301.581
301.567
301.553
301.541
301.528
301.516
301.504
301.493
301.482
301.471
301.461
301.451
301.441
301.432
301.423
301.414
301.405
301.396
301.388
301.38
301.372
301.365
301.357
301.35
301.343
301.337
301.33
301.324
301.318
301.312
301.307
301.302
301.297
301.292
301.287
301.283
301.279
301.276
301.272
301.269
301.266
301.264
301.261
301.259
301.258
301.256
301.255
301.254
301.254
301.253
301.254
301.254
301.255
301.256
301.257
301.259
301.261
301.263
301.266
301.269
301.272
301.276
301.28
301.285
301.289
301.294
301.3
301.306
301.312
301.318
301.325
301.332
301.34
301.348
301.356
301.365
301.374
301.384
301.394
301.404
301.415
301.426
301.438
301.45
301.462
301.475
301.489
301.503
301.517
301.532
301.547
301.563
301.58
301.597
301.615
301.633
301.652
301.671
301.691
301.712
301.734
301.756
301.779
301.802
301.827
301.852
301.878
301.904
301.932
301.96
301.989
302.019
302.05
302.082
302.115
302.149
302.184
302.219
302.256
302.294
302.333
302.372
302.413
302.455
302.498
302.541
302.586
302.632
302.679
302.726
302.775
302.825
302.875
302.926
302.978
303.031
303.084
303.138
303.192
303.247
303.303
303.358
303.414
303.47
303.526
303.582
303.638
303.693
303.748
303.803
303.856
303.909
303.961
304.011
304.06
304.106
304.15
304.191
304.227
304.259
304.284
304.301
304.307
304.303
302.261
302.261
302.253
302.239
302.22
302.197
302.17
302.141
302.11
302.078
302.046
302.014
301.981
301.949
301.918
301.888
301.858
301.829
301.801
301.774
301.748
301.723
301.699
301.676
301.654
301.633
301.613
301.593
301.574
301.556
301.539
301.522
301.506
301.491
301.476
301.462
301.448
301.435
301.422
301.41
301.398
301.386
301.375
301.364
301.353
301.343
301.333
301.323
301.314
301.304
301.295
301.286
301.278
301.27
301.261
301.254
301.246
301.238
301.231
301.224
301.217
301.21
301.204
301.198
301.192
301.186
301.18
301.175
301.17
301.165
301.161
301.156
301.152
301.148
301.145
301.141
301.138
301.135
301.133
301.131
301.129
301.127
301.126
301.125
301.124
301.124
301.123
301.124
301.124
301.125
301.126
301.127
301.129
301.131
301.133
301.136
301.139
301.143
301.146
301.15
301.155
301.16
301.165
301.17
301.176
301.182
301.189
301.196
301.203
301.211
301.219
301.227
301.236
301.245
301.255
301.265