/*--------------------------------*- C++ -*----------------------------------*\
  =========                 |
  \\      /  F ield         | OpenFOAM: The Open Source CFD Toolbox
   \\    /   O peration     | Website:  https://openfoam.org
    \\  /    A nd           | Version:  8
     \\/     M anipulation  |
\*---------------------------------------------------------------------------*/
FoamFile
{
    version     2.0;
    format      ascii;
    class       volVectorField;
    location    "3100";
    object      U;
}
// * * * * * * * * * * * * * * * * * * * * * * * * * * * * * * * * * * * * * //

dimensions      [0 1 -1 0 0 0 0];

internalField   nonuniform List<vector> 
46000
(
(0.00123745 1.37435e-06 -0.001273)
(0.00633855 6.56273e-07 -0.00358859)
(0.0118423 4.27124e-07 -0.00359247)
(0.0157178 2.75351e-07 -0.00232863)
(0.0175669 1.91658e-07 -0.000927605)
(0.0175975 1.47138e-07 0.000305045)
(0.0161065 1.2187e-07 0.00130669)
(0.013407 1.04046e-07 0.00209056)
(0.00975787 9.05264e-08 0.00269672)
(0.00537326 7.97065e-08 0.00316398)
(0.000413752 6.93175e-08 0.00351892)
(-0.00498805 5.9719e-08 0.00377964)
(-0.0107152 5.30446e-08 0.00396841)
(-0.0166976 4.91891e-08 0.00410566)
(-0.0228678 4.66345e-08 0.00420273)
(-0.0291761 4.46522e-08 0.00426808)
(-0.0355815 4.31644e-08 0.00430813)
(-0.042051 4.21721e-08 0.00432782)
(-0.0485571 4.15392e-08 0.00433093)
(-0.0550769 4.10646e-08 0.00432041)
(-0.0615913 4.0596e-08 0.00429851)
(-0.0680836 4.00813e-08 0.004267)
(-0.0745396 3.95824e-08 0.00422724)
(-0.0809463 3.91644e-08 0.00418029)
(-0.0872927 3.88658e-08 0.004127)
(-0.0935682 3.86946e-08 0.004068)
(-0.0997634 3.86041e-08 0.00400381)
(-0.10587 3.85574e-08 0.00393482)
(-0.111878 3.84893e-08 0.00386136)
(-0.117782 3.83649e-08 0.00378369)
(-0.123573 3.81339e-08 0.00370201)
(-0.129243 3.78164e-08 0.00361651)
(-0.134787 3.74042e-08 0.00352734)
(-0.140198 3.69139e-08 0.00343466)
(-0.145468 3.63488e-08 0.00333859)
(-0.150592 3.5719e-08 0.00323927)
(-0.155564 3.50211e-08 0.00313683)
(-0.160378 3.42669e-08 0.00303141)
(-0.165028 3.34679e-08 0.00292316)
(-0.16951 3.26309e-08 0.00281223)
(-0.173819 3.17641e-08 0.00269877)
(-0.177949 3.0876e-08 0.00258296)
(-0.181896 2.99948e-08 0.00246496)
(-0.185657 2.91221e-08 0.00234497)
(-0.189228 2.82648e-08 0.00222317)
(-0.192605 2.74326e-08 0.00209978)
(-0.195785 2.66274e-08 0.00197498)
(-0.198766 2.58507e-08 0.001849)
(-0.201546 2.51025e-08 0.00172205)
(-0.204123 2.43811e-08 0.00159434)
(-0.206495 2.36832e-08 0.00146611)
(-0.208662 2.30088e-08 0.00133757)
(-0.210622 2.23562e-08 0.00120895)
(-0.212375 2.17254e-08 0.00108047)
(-0.213923 2.11147e-08 0.00095235)
(-0.215264 2.05241e-08 0.000824813)
(-0.216401 1.99603e-08 0.000698076)
(-0.217334 1.94215e-08 0.000572354)
(-0.218065 1.89095e-08 0.000447848)
(-0.218597 1.84225e-08 0.000324724)
(-0.218931 1.7964e-08 0.000203083)
(-0.219071 1.75188e-08 8.296e-05)
(-0.219019 1.71387e-08 -3.5238e-05)
(-0.218779 1.68253e-08 -0.000151084)
(-0.218355 1.65236e-08 -0.000264589)
(-0.217749 1.62586e-08 -0.000375746)
(-0.216967 1.6032e-08 -0.00048444)
(-0.216012 1.58404e-08 -0.000590529)
(-0.214889 1.56956e-08 -0.000693878)
(-0.213603 1.55857e-08 -0.000794368)
(-0.212159 1.55309e-08 -0.000891893)
(-0.210561 1.55145e-08 -0.000986361)
(-0.208816 1.55381e-08 -0.00107769)
(-0.206928 1.56184e-08 -0.0011658)
(-0.204903 1.57454e-08 -0.00125064)
(-0.202746 1.59242e-08 -0.00133216)
(-0.200464 1.61446e-08 -0.00141029)
(-0.198061 1.64218e-08 -0.00148502)
(-0.195544 1.67374e-08 -0.00155631)
(-0.192919 1.7118e-08 -0.00162414)
(-0.190191 1.75387e-08 -0.00168851)
(-0.187366 1.80162e-08 -0.00174939)
(-0.18445 1.85404e-08 -0.00180681)
(-0.181449 1.91164e-08 -0.00186076)
(-0.178369 1.97409e-08 -0.00191126)
(-0.175214 2.04238e-08 -0.00195834)
(-0.171991 2.11452e-08 -0.00200203)
(-0.168706 2.19234e-08 -0.00204235)
(-0.165364 2.275e-08 -0.00207935)
(-0.16197 2.36219e-08 -0.00211308)
(-0.158529 2.45456e-08 -0.00214358)
(-0.155047 2.55128e-08 -0.00217091)
(-0.15153 2.65236e-08 -0.00219513)
(-0.14798 2.75762e-08 -0.0022163)
(-0.144405 2.86741e-08 -0.0022345)
(-0.140808 2.98122e-08 -0.0022498)
(-0.137194 3.09889e-08 -0.00226227)
(-0.133567 3.21992e-08 -0.00227199)
(-0.129931 3.3458e-08 -0.00227904)
(-0.126291 3.47439e-08 -0.00228352)
(-0.122651 3.60683e-08 -0.00228551)
(-0.119014 3.74248e-08 -0.00228509)
(-0.115385 3.88032e-08 -0.00228236)
(-0.111765 4.02219e-08 -0.00227742)
(-0.10816 4.16726e-08 -0.00227036)
(-0.104571 4.3142e-08 -0.00226127)
(-0.101003 4.46418e-08 -0.00225025)
(-0.0974569 4.61585e-08 -0.00223741)
(-0.0939365 4.76957e-08 -0.00222283)
(-0.090444 4.92531e-08 -0.00220661)
(-0.0869817 5.08226e-08 -0.00218885)
(-0.0835518 5.24125e-08 -0.00216965)
(-0.0801563 5.40177e-08 -0.00214909)
(-0.0767972 5.5625e-08 -0.00212727)
(-0.0734762 5.72409e-08 -0.00210428)
(-0.0701949 5.88706e-08 -0.0020802)
(-0.0669546 6.05007e-08 -0.00205512)
(-0.0637569 6.21445e-08 -0.00202912)
(-0.0606029 6.37802e-08 -0.00200226)
(-0.0574936 6.5408e-08 -0.00197464)
(-0.0544302 6.70496e-08 -0.0019463)
(-0.0514135 6.86748e-08 -0.00191732)
(-0.0484444 7.03004e-08 -0.00188774)
(-0.0455235 7.18963e-08 -0.00185762)
(-0.0426516 7.34959e-08 -0.00182701)
(-0.0398292 7.50758e-08 -0.00179593)
(-0.037057 7.6626e-08 -0.00176443)
(-0.0343354 7.81632e-08 -0.00173251)
(-0.031665 7.96941e-08 -0.00170021)
(-0.0290462 8.1202e-08 -0.00166752)
(-0.0264796 8.26835e-08 -0.00163444)
(-0.0239656 8.4142e-08 -0.00160097)
(-0.0215047 8.55741e-08 -0.00156709)
(-0.0190976 8.69664e-08 -0.00153278)
(-0.0167447 8.83391e-08 -0.001498)
(-0.0144468 8.96954e-08 -0.00146271)
(-0.0122047 9.1012e-08 -0.00142687)
(-0.010019 9.22788e-08 -0.00139042)
(-0.00789066 9.34957e-08 -0.00135331)
(-0.0058207 9.4703e-08 -0.00131546)
(-0.00381014 9.58705e-08 -0.00127693)
(-0.00186008 9.69447e-08 -0.00123817)
(2.96013e-05 9.76472e-08 -0.00119822)
(0.0018561 9.79244e-08 -0.00115589)
(0.00361696 9.82186e-08 -0.00111187)
(0.00531114 9.85667e-08 -0.00106671)
(0.00693633 9.89721e-08 -0.00102037)
(0.00849058 9.94617e-08 -0.000972765)
(0.00997172 1.00025e-07 -0.000923824)
(0.0113774 1.00643e-07 -0.000873465)
(0.0127053 1.01352e-07 -0.000821615)
(0.0139529 1.02125e-07 -0.000768211)
(0.0151174 1.02993e-07 -0.000713199)
(0.0161961 1.03928e-07 -0.000656539)
(0.0171862 1.04947e-07 -0.000598203)
(0.018085 1.06075e-07 -0.000538182)
(0.0188894 1.07284e-07 -0.00047648)
(0.0195966 1.08632e-07 -0.000413126)
(0.0202039 1.10101e-07 -0.000348169)
(0.0207083 1.11678e-07 -0.000281686)
(0.0211073 1.13412e-07 -0.000213783)
(0.0213983 1.15263e-07 -0.000144606)
(0.0215792 1.17257e-07 -7.43374e-05)
(0.0216478 1.19225e-07 -3.17609e-06)
(0.0216027 1.2156e-07 6.87797e-05)
(0.021442 1.24304e-07 0.000141343)
(0.0211646 1.2709e-07 0.00021418)
(0.0207699 1.30032e-07 0.000286974)
(0.0202576 1.33161e-07 0.000359355)
(0.0196282 1.36524e-07 0.000430911)
(0.0188827 1.40111e-07 0.000501189)
(0.018023 1.43943e-07 0.000569689)
(0.0170515 1.47989e-07 0.000635862)
(0.0159719 1.52321e-07 0.000699107)
(0.0147884 1.56904e-07 0.000758768)
(0.0135068 1.61814e-07 0.000814124)
(0.0121336 1.67017e-07 0.000864389)
(0.010677 1.72567e-07 0.000908698)
(0.00914624 1.78525e-07 0.000946105)
(0.0075525 1.84839e-07 0.000975563)
(0.00590854 1.91527e-07 0.000995916)
(0.0042292 1.98484e-07 0.00100587)
(0.00253112 2.05614e-07 0.001004)
(0.000835587 2.12749e-07 0.000988628)
(-0.000839667 2.18377e-07 0.000956208)
(-0.00246106 2.23226e-07 0.000904661)
(-0.0040035 2.28993e-07 0.000833129)
(-0.00543157 2.35111e-07 0.000739633)
(-0.00670641 2.41771e-07 0.000620859)
(-0.00778361 2.48948e-07 0.000472874)
(-0.00861173 2.56468e-07 0.000292504)
(-0.00913329 2.6453e-07 7.65466e-05)
(-0.00928495 2.7288e-07 -0.000175899)
(-0.00900113 2.81408e-07 -0.000460614)
(-0.00822438 2.90997e-07 -0.000764109)
(-0.00692042 3.01214e-07 -0.00105236)
(-0.00511439 3.11988e-07 -0.00124673)
(-0.00297295 3.21241e-07 -0.00117836)
(-0.000948047 3.46746e-07 -0.000631687)
(2.48455e-05 1.55803e-07 2.56829e-05)
(0.00123538 1.37434e-06 -0.00127525)
(0.00633656 6.56263e-07 -0.00359065)
(0.0118415 4.27116e-07 -0.00359374)
(0.0157172 2.75346e-07 -0.0023296)
(0.0175665 1.91655e-07 -0.000928445)
(0.0175972 1.47135e-07 0.000304287)
(0.0161062 1.21868e-07 0.001306)
(0.0134067 1.04045e-07 0.00208992)
(0.00975766 9.05253e-08 0.00269613)
(0.00537308 7.97056e-08 0.00316343)
(0.000413604 6.93167e-08 0.00351841)
(-0.00498817 5.97184e-08 0.00377916)
(-0.0107152 5.3044e-08 0.00396797)
(-0.0166977 4.91886e-08 0.00410525)
(-0.0228678 4.66341e-08 0.00420234)
(-0.0291761 4.46518e-08 0.00426771)
(-0.0355815 4.3164e-08 0.00430778)
(-0.0420509 4.21717e-08 0.00432749)
(-0.048557 4.15389e-08 0.00433062)
(-0.0550768 4.10643e-08 0.00432011)
(-0.0615912 4.05957e-08 0.00429823)
(-0.0680835 4.0081e-08 0.00426673)
(-0.0745394 3.95821e-08 0.00422698)
(-0.0809461 3.91642e-08 0.00418005)
(-0.0872924 3.88655e-08 0.00412676)
(-0.0935679 3.86943e-08 0.00406778)
(-0.0997632 3.86038e-08 0.00400359)
(-0.105869 3.85571e-08 0.00393461)
(-0.111878 3.84891e-08 0.00386116)
(-0.117782 3.83646e-08 0.00378349)
(-0.123572 3.81337e-08 0.00370182)
(-0.129243 3.78162e-08 0.00361633)
(-0.134787 3.7404e-08 0.00352717)
(-0.140197 3.69137e-08 0.00343448)
(-0.145467 3.63486e-08 0.00333842)
(-0.150592 3.57188e-08 0.0032391)
(-0.155563 3.50209e-08 0.00313667)
(-0.160377 3.42667e-08 0.00303126)
(-0.165028 3.34677e-08 0.00292301)
(-0.16951 3.26307e-08 0.00281208)
(-0.173818 3.17639e-08 0.00269862)
(-0.177948 3.08758e-08 0.00258281)
(-0.181896 2.99946e-08 0.00246482)
(-0.185657 2.9122e-08 0.00234483)
(-0.189227 2.82646e-08 0.00222303)
(-0.192604 2.74325e-08 0.00209963)
(-0.195785 2.66273e-08 0.00197484)
(-0.198766 2.58506e-08 0.00184886)
(-0.201546 2.51024e-08 0.00172191)
(-0.204123 2.4381e-08 0.0015942)
(-0.206495 2.36831e-08 0.00146597)
(-0.208661 2.30087e-08 0.00133743)
(-0.210621 2.23561e-08 0.00120881)
(-0.212375 2.17253e-08 0.00108033)
(-0.213922 2.11146e-08 0.000952206)
(-0.215264 2.0524e-08 0.000824668)
(-0.2164 1.99602e-08 0.00069793)
(-0.217334 1.94214e-08 0.000572207)
(-0.218065 1.89094e-08 0.000447699)
(-0.218597 1.84224e-08 0.000324573)
(-0.218931 1.79639e-08 0.00020293)
(-0.219071 1.75187e-08 8.28052e-05)
(-0.219019 1.71386e-08 -3.53949e-05)
(-0.218779 1.68252e-08 -0.000151243)
(-0.218354 1.65235e-08 -0.00026475)
(-0.217749 1.62586e-08 -0.00037591)
(-0.216966 1.60319e-08 -0.000484606)
(-0.216012 1.58404e-08 -0.000590697)
(-0.214889 1.56955e-08 -0.000694049)
(-0.213603 1.55857e-08 -0.000794542)
(-0.212158 1.55309e-08 -0.000892071)
(-0.210561 1.55144e-08 -0.000986541)
(-0.208815 1.5538e-08 -0.00107787)
(-0.206927 1.56183e-08 -0.00116599)
(-0.204902 1.57454e-08 -0.00125083)
(-0.202746 1.59241e-08 -0.00133235)
(-0.200463 1.61445e-08 -0.00141049)
(-0.198061 1.64217e-08 -0.00148522)
(-0.195544 1.67373e-08 -0.00155652)
(-0.192919 1.71179e-08 -0.00162435)
(-0.190191 1.75386e-08 -0.00168872)
(-0.187366 1.80161e-08 -0.00174961)
(-0.18445 1.85404e-08 -0.00180703)
(-0.181449 1.91164e-08 -0.00186098)
(-0.178368 1.97408e-08 -0.00191149)
(-0.175214 2.04237e-08 -0.00195858)
(-0.171991 2.11451e-08 -0.00200227)
(-0.168706 2.19233e-08 -0.00204259)
(-0.165363 2.275e-08 -0.0020796)
(-0.161969 2.36218e-08 -0.00211333)
(-0.158529 2.45455e-08 -0.00214383)
(-0.155047 2.55127e-08 -0.00217117)
(-0.151529 2.65235e-08 -0.00219539)
(-0.14798 2.75761e-08 -0.00221657)
(-0.144405 2.8674e-08 -0.00223478)
(-0.140807 2.98121e-08 -0.00225008)
(-0.137193 3.09888e-08 -0.00226256)
(-0.133566 3.2199e-08 -0.00227228)
(-0.129931 3.34579e-08 -0.00227935)
(-0.126291 3.47437e-08 -0.00228383)
(-0.122651 3.60682e-08 -0.00228582)
(-0.119014 3.74246e-08 -0.00228541)
(-0.115384 3.8803e-08 -0.00228269)
(-0.111765 4.02218e-08 -0.00227775)
(-0.10816 4.16725e-08 -0.0022707)
(-0.104571 4.31419e-08 -0.00226162)
(-0.101002 4.46416e-08 -0.00225061)
(-0.0974566 4.61584e-08 -0.00223777)
(-0.0939362 4.76955e-08 -0.0022232)
(-0.0904436 4.92529e-08 -0.00220699)
(-0.0869813 5.08224e-08 -0.00218924)
(-0.0835515 5.24123e-08 -0.00217004)
(-0.080156 5.40175e-08 -0.00214949)
(-0.0767969 5.56248e-08 -0.00212768)
(-0.0734759 5.72407e-08 -0.00210469)
(-0.0701946 5.88704e-08 -0.00208062)
(-0.0669543 6.05005e-08 -0.00205555)
(-0.0637566 6.21442e-08 -0.00202955)
(-0.0606026 6.378e-08 -0.00200271)
(-0.0574934 6.54078e-08 -0.00197509)
(-0.0544299 6.70494e-08 -0.00194676)
(-0.0514133 6.86746e-08 -0.00191779)
(-0.0484441 7.03002e-08 -0.00188822)
(-0.0455232 7.1896e-08 -0.00185811)
(-0.0426513 7.34956e-08 -0.0018275)
(-0.039829 7.50755e-08 -0.00179644)
(-0.0370567 7.66257e-08 -0.00176494)
(-0.0343352 7.81629e-08 -0.00173303)
(-0.0316647 7.96939e-08 -0.00170073)
(-0.029046 8.12017e-08 -0.00166805)
(-0.0264793 8.26832e-08 -0.00163499)
(-0.0239653 8.41417e-08 -0.00160152)
(-0.0215045 8.55738e-08 -0.00156765)
(-0.0190973 8.69662e-08 -0.00153335)
(-0.0167445 8.83388e-08 -0.00149858)
(-0.0144466 8.96952e-08 -0.0014633)
(-0.0122044 9.10117e-08 -0.00142747)
(-0.0100187 9.22785e-08 -0.00139103)
(-0.00789041 9.34954e-08 -0.00135392)
(-0.00582045 9.47027e-08 -0.00131609)
(-0.00380988 9.58703e-08 -0.00127756)
(-0.00185983 9.69444e-08 -0.00123881)
(2.98512e-05 9.76469e-08 -0.00119887)
(0.00185635 9.79241e-08 -0.00115654)
(0.00361722 9.82183e-08 -0.00111253)
(0.0053114 9.85664e-08 -0.00106737)
(0.00693659 9.89718e-08 -0.00102104)
(0.00849084 9.94613e-08 -0.000973442)
(0.00997197 1.00025e-07 -0.000924508)
(0.0113777 1.00643e-07 -0.000874155)
(0.0127056 1.01352e-07 -0.000822311)
(0.0139531 1.02125e-07 -0.000768913)
(0.0151176 1.02992e-07 -0.000713908)
(0.0161963 1.03927e-07 -0.000657255)
(0.0171865 1.04947e-07 -0.000598926)
(0.0180852 1.06075e-07 -0.000538911)
(0.0188897 1.07284e-07 -0.000477217)
(0.0195969 1.08631e-07 -0.00041387)
(0.0202041 1.10101e-07 -0.000348921)
(0.0207086 1.11678e-07 -0.000282446)
(0.0211075 1.13411e-07 -0.000214551)
(0.0213986 1.15263e-07 -0.000145382)
(0.0215795 1.17257e-07 -7.51221e-05)
(0.021648 1.19225e-07 -3.96947e-06)
(0.0216029 1.2156e-07 6.7977e-05)
(0.0214422 1.24304e-07 0.00014053)
(0.0211648 1.2709e-07 0.000213357)
(0.0207701 1.30032e-07 0.00028614)
(0.0202578 1.33161e-07 0.00035851)
(0.0196284 1.36524e-07 0.000430055)
(0.018883 1.40111e-07 0.00050032)
(0.0180232 1.43943e-07 0.000568807)
(0.0170517 1.47989e-07 0.000634967)
(0.0159721 1.5232e-07 0.000698198)
(0.0147887 1.56904e-07 0.000757844)
(0.013507 1.61814e-07 0.000813185)
(0.0121338 1.67017e-07 0.000863433)
(0.0106771 1.72567e-07 0.000907725)
(0.00914641 1.78525e-07 0.000945113)
(0.00755266 1.84838e-07 0.000974552)
(0.00590869 1.91527e-07 0.000994885)
(0.00422934 1.98483e-07 0.00100482)
(0.00253125 2.05613e-07 0.00100293)
(0.000835701 2.12749e-07 0.000987531)
(-0.000839565 2.18377e-07 0.000955092)
(-0.00246096 2.23225e-07 0.000903528)
(-0.00400342 2.28992e-07 0.000831977)
(-0.0054315 2.35111e-07 0.000738459)
(-0.00670635 2.41771e-07 0.000619661)
(-0.00778356 2.48948e-07 0.00047165)
(-0.00861169 2.56468e-07 0.00029125)
(-0.00913326 2.6453e-07 7.52584e-05)
(-0.00928494 2.72879e-07 -0.000177225)
(-0.00900115 2.81407e-07 -0.00046198)
(-0.00822442 2.90995e-07 -0.000765523)
(-0.00692052 3.01212e-07 -0.00105383)
(-0.00511458 3.11986e-07 -0.00124826)
(-0.0029733 3.21239e-07 -0.00117994)
(-0.000948956 3.46743e-07 -0.000633278)
(2.4152e-05 1.55802e-07 2.44086e-05)
(0.00340988 3.97833e-07 -0.00669936)
(0.00785864 -2.06751e-08 -0.00826556)
(0.0101676 5.16136e-09 -0.0065318)
(0.0111267 -1.25694e-08 -0.00371138)
(0.0107483 -2.15062e-08 -0.000882872)
(0.00923625 -2.54026e-08 0.001592)
(0.0067403 -2.55796e-08 0.00363035)
(0.00340922 -2.41019e-08 0.00526142)
(-0.00061976 -2.18473e-08 0.00654912)
(-0.00521661 -1.94605e-08 0.00755711)
(-0.0102718 -1.74696e-08 0.00834014)
(-0.0156954 -1.57621e-08 0.00894153)
(-0.0214106 -1.41066e-08 0.00940004)
(-0.0273546 -1.25089e-08 0.00974722)
(-0.0334736 -1.10305e-08 0.0100053)
(-0.0397238 -9.72036e-09 0.0101915)
(-0.0460686 -8.53665e-09 0.0103194)
(-0.0524773 -7.46427e-09 0.0103991)
(-0.0589241 -6.50477e-09 0.0104389)
(-0.0653869 -5.67388e-09 0.010445)
(-0.0718469 -4.97151e-09 0.0104225)
(-0.0782876 -4.37426e-09 0.0103751)
(-0.0846946 -3.84587e-09 0.0103061)
(-0.0910551 -3.36674e-09 0.0102177)
(-0.0973575 -2.92061e-09 0.0101119)
(-0.103591 -2.50288e-09 0.00999028)
(-0.109747 -2.12642e-09 0.00985392)
(-0.115816 -1.80163e-09 0.00970384)
(-0.121789 -1.53719e-09 0.00954081)
(-0.127658 -1.33227e-09 0.00936547)
(-0.133416 -1.18683e-09 0.00917837)
(-0.139056 -1.0913e-09 0.00897998)
(-0.144571 -1.03652e-09 0.00877073)
(-0.149954 -1.01291e-09 0.00855101)
(-0.155198 -1.01466e-09 0.00832119)
(-0.160298 -1.03427e-09 0.00808166)
(-0.165248 -1.0709e-09 0.00783279)
(-0.170041 -1.11501e-09 0.00757498)
(-0.174672 -1.16327e-09 0.00730864)
(-0.179137 -1.21151e-09 0.00703419)
(-0.18343 -1.25725e-09 0.00675211)
(-0.187547 -1.29467e-09 0.00646286)
(-0.191482 -1.32169e-09 0.00616694)
(-0.195234 -1.33833e-09 0.00586488)
(-0.198796 -1.34499e-09 0.00555723)
(-0.202167 -1.34127e-09 0.00524456)
(-0.205344 -1.32841e-09 0.00492745)
(-0.208323 -1.3118e-09 0.0046065)
(-0.211102 -1.29188e-09 0.00428232)
(-0.213679 -1.27112e-09 0.00395554)
(-0.216054 -1.24954e-09 0.00362678)
(-0.218224 -1.23169e-09 0.00329668)
(-0.22019 -1.21674e-09 0.00296587)
(-0.22195 -1.20139e-09 0.00263498)
(-0.223505 -1.18976e-09 0.00230465)
(-0.224855 -1.17897e-09 0.00197548)
(-0.226001 -1.16985e-09 0.0016481)
(-0.226944 -1.15947e-09 0.00132311)
(-0.227686 -1.152e-09 0.0010011)
(-0.228228 -1.1437e-09 0.000682631)
(-0.228572 -1.13209e-09 0.000368261)
(-0.228721 -1.113e-09 5.85319e-05)
(-0.228679 -1.10097e-09 -0.000246165)
(-0.228447 -1.09599e-09 -0.000545507)
(-0.228029 -1.07857e-09 -0.000839058)
(-0.22743 -1.05907e-09 -0.00112638)
(-0.226652 -1.03915e-09 -0.00140706)
(-0.225701 -1.0155e-09 -0.0016807)
(-0.224579 -9.92268e-10 -0.00194697)
(-0.223293 -9.6862e-10 -0.00220554)
(-0.221846 -9.42069e-10 -0.00245612)
(-0.220244 -9.17179e-10 -0.00269847)
(-0.218491 -8.9063e-10 -0.00293237)
(-0.216593 -8.64082e-10 -0.00315761)
(-0.214555 -8.36706e-10 -0.00337404)
(-0.212382 -8.1016e-10 -0.00358152)
(-0.210081 -7.83616e-10 -0.00377993)
(-0.207655 -7.56657e-10 -0.0039692)
(-0.205111 -7.31359e-10 -0.00414926)
(-0.202454 -7.05648e-10 -0.00432006)
(-0.199691 -6.83258e-10 -0.00448161)
(-0.196826 -6.62944e-10 -0.0046339)
(-0.193866 -6.45122e-10 -0.00477696)
(-0.190815 -6.27715e-10 -0.00491085)
(-0.18768 -6.15291e-10 -0.00503562)
(-0.184465 -6.00377e-10 -0.00515137)
(-0.181178 -5.95012e-10 -0.0052582)
(-0.177821 -5.88403e-10 -0.00535623)
(-0.174403 -5.88437e-10 -0.00544559)
(-0.170926 -5.88057e-10 -0.00552643)
(-0.167397 -5.96397e-10 -0.00559892)
(-0.163821 -6.0723e-10 -0.00566323)
(-0.160202 -6.22217e-10 -0.00571954)
(-0.156546 -6.4468e-10 -0.00576806)
(-0.152857 -6.70052e-10 -0.00580899)
(-0.14914 -7.03317e-10 -0.00584254)
(-0.145399 -7.39076e-10 -0.00586894)
(-0.141639 -7.83145e-10 -0.00588842)
(-0.137863 -8.34278e-10 -0.00590122)
(-0.134077 -8.86246e-10 -0.00590758)
(-0.130284 -9.46525e-10 -0.00590775)
(-0.126487 -1.01055e-09 -0.00590197)
(-0.122691 -1.08288e-09 -0.0058905)
(-0.118899 -1.16021e-09 -0.00587359)
(-0.115114 -1.24336e-09 -0.0058515)
(-0.11134 -1.33067e-09 -0.00582449)
(-0.107579 -1.42381e-09 -0.0057928)
(-0.103835 -1.52485e-09 -0.00575671)
(-0.10011 -1.62964e-09 -0.00571645)
(-0.0964073 -1.73693e-09 -0.00567228)
(-0.0927289 -1.85338e-09 -0.00562443)
(-0.0890773 -1.97482e-09 -0.00557316)
(-0.0854547 -2.1021e-09 -0.0055187)
(-0.0818632 -2.23438e-09 -0.00546126)
(-0.0783047 -2.36916e-09 -0.00540108)
(-0.0747811 -2.50979e-09 -0.00533837)
(-0.071294 -2.65624e-09 -0.00527332)
(-0.0678451 -2.80188e-09 -0.00520613)
(-0.0644358 -2.95752e-09 -0.00513698)
(-0.0610675 -3.11568e-09 -0.00506605)
(-0.0577415 -3.27634e-09 -0.00499348)
(-0.054459 -3.44286e-09 -0.00491943)
(-0.051221 -3.60773e-09 -0.00484402)
(-0.0480286 -3.78177e-09 -0.00476736)
(-0.0448828 -3.96166e-09 -0.00468957)
(-0.0417845 -4.13992e-09 -0.0046107)
(-0.0387346 -4.32486e-09 -0.00453084)
(-0.0357338 -4.51066e-09 -0.00445003)
(-0.0327831 -4.69815e-09 -0.0043683)
(-0.0298832 -4.88651e-09 -0.00428565)
(-0.027035 -5.0799e-09 -0.00420208)
(-0.0242392 -5.27749e-09 -0.00411755)
(-0.0214967 -5.47844e-09 -0.00403203)
(-0.0188084 -5.67777e-09 -0.00394544)
(-0.0161752 -5.87548e-09 -0.00385771)
(-0.0135981 -6.07905e-09 -0.00376871)
(-0.011078 -6.28767e-09 -0.00367836)
(-0.00861615 -6.50717e-09 -0.0035865)
(-0.00621366 -6.72422e-09 -0.00349303)
(-0.00387178 -6.94465e-09 -0.00339784)
(-0.00159191 -7.17681e-09 -0.00330105)
(0.000625163 -7.43068e-09 -0.00320241)
(0.00277616 -7.65462e-09 -0.00310099)
(0.00485975 -7.80449e-09 -0.00299611)
(0.006874 -7.90859e-09 -0.002888)
(0.00881685 -8.01025e-09 -0.00277674)
(0.010686 -8.10195e-09 -0.00266214)
(0.012479 -8.19037e-09 -0.002544)
(0.0141933 -8.27218e-09 -0.00242209)
(0.0158264 -8.34737e-09 -0.0022962)
(0.0173752 -8.42345e-09 -0.00216611)
(0.018837 -8.48791e-09 -0.00203166)
(0.0202087 -8.55327e-09 -0.00189267)
(0.0214872 -8.62619e-09 -0.00174901)
(0.0226691 -8.69251e-09 -0.00160058)
(0.0237513 -8.7664e-09 -0.00144731)
(0.0247305 -8.84203e-09 -0.00128917)
(0.0256032 -8.92108e-09 -0.0011262)
(0.0263663 -9.00437e-09 -0.000958467)
(0.0270165 -9.09527e-09 -0.000786115)
(0.0275506 -9.1946e-09 -0.000609351)
(0.0279656 -9.30738e-09 -0.000428461)
(0.0282587 -9.4236e-09 -0.000243813)
(0.0284272 -9.5399e-09 -5.58834e-05)
(0.0284687 -9.67948e-09 0.000134981)
(0.0283814 -9.84444e-09 0.000328348)
(0.0281635 -1.00079e-08 0.000523486)
(0.027814 -1.01882e-08 0.00071961)
(0.027332 -1.03796e-08 0.000915828)
(0.0267176 -1.05953e-08 0.00111114)
(0.0259712 -1.08246e-08 0.00130443)
(0.0250943 -1.10717e-08 0.00149446)
(0.0240888 -1.1344e-08 0.00167985)
(0.0229579 -1.16283e-08 0.00185909)
(0.0217056 -1.19328e-08 0.00203049)
(0.0203369 -1.22493e-08 0.00219221)
(0.0188583 -1.2571e-08 0.00234222)
(0.0172774 -1.28964e-08 0.00247827)
(0.0156034 -1.32219e-08 0.00259788)
(0.0138469 -1.35595e-08 0.00269829)
(0.0120206 -1.3914e-08 0.00277644)
(0.010139 -1.42923e-08 0.00282889)
(0.00821857 -1.47127e-08 0.0028517)
(0.00627878 -1.52106e-08 0.00284055)
(0.00434094 -1.55746e-08 0.00278945)
(0.00243005 -1.5667e-08 0.00269257)
(0.000573732 -1.56487e-08 0.00254424)
(-0.00119675 -1.55212e-08 0.00233672)
(-0.00284353 -1.52693e-08 0.00206176)
(-0.00432809 -1.4913e-08 0.00171007)
(-0.00560581 -1.45194e-08 0.00127171)
(-0.00662854 -1.4119e-08 0.000736791)
(-0.00734441 -1.36409e-08 9.89664e-05)
(-0.0076995 -1.29922e-08 -0.000639274)
(-0.00764032 -1.23318e-08 -0.00145767)
(-0.00712262 -1.17466e-08 -0.00229941)
(-0.00611328 -1.0955e-08 -0.00303034)
(-0.00460987 -9.18477e-09 -0.00336443)
(-0.00267403 8.4797e-10 -0.00280136)
(-0.000606003 -1.83726e-07 -0.00102545)
(0.00340811 3.97825e-07 -0.00670136)
(0.00785753 -2.06744e-08 -0.00826664)
(0.0101671 5.16118e-09 -0.00653232)
(0.0111263 -1.2569e-08 -0.0037117)
(0.010748 -2.15056e-08 -0.000883116)
(0.00923602 -2.54019e-08 0.00159178)
(0.00674012 -2.55789e-08 0.00363016)
(0.00340909 -2.41014e-08 0.00526124)
(-0.000619858 -2.18468e-08 0.00654895)
(-0.00521668 -1.94601e-08 0.00755695)
(-0.0102719 -1.74692e-08 0.00833998)
(-0.0156954 -1.57617e-08 0.00894139)
(-0.0214106 -1.41064e-08 0.0093999)
(-0.0273545 -1.25087e-08 0.00974709)
(-0.0334735 -1.10303e-08 0.0100051)
(-0.0397237 -9.72018e-09 0.0101914)
(-0.0460684 -8.5365e-09 0.0103193)
(-0.0524771 -7.46414e-09 0.010399)
(-0.0589239 -6.50466e-09 0.0104388)
(-0.0653867 -5.67378e-09 0.0104449)
(-0.0718467 -4.97142e-09 0.0104224)
(-0.0782874 -4.37419e-09 0.0103751)
(-0.0846943 -3.84581e-09 0.010306)
(-0.0910548 -3.36668e-09 0.0102176)
(-0.0973572 -2.92056e-09 0.0101119)
(-0.103591 -2.50284e-09 0.0099902)
(-0.109747 -2.12639e-09 0.00985385)
(-0.115815 -1.8016e-09 0.00970377)
(-0.121788 -1.53717e-09 0.00954073)
(-0.127658 -1.33224e-09 0.0093654)
(-0.133416 -1.18681e-09 0.0091783)
(-0.139056 -1.09128e-09 0.00897992)
(-0.144571 -1.0365e-09 0.00877067)
(-0.149954 -1.0129e-09 0.00855095)
(-0.155198 -1.01464e-09 0.00832113)
(-0.160298 -1.03425e-09 0.0080816)
(-0.165247 -1.07089e-09 0.00783273)
(-0.17004 -1.115e-09 0.00757492)
(-0.174672 -1.16325e-09 0.00730858)
(-0.179137 -1.21149e-09 0.00703414)
(-0.183429 -1.25723e-09 0.00675206)
(-0.187546 -1.29465e-09 0.0064628)
(-0.191482 -1.32167e-09 0.00616689)
(-0.195233 -1.33831e-09 0.00586483)
(-0.198796 -1.34497e-09 0.00555718)
(-0.202167 -1.34125e-09 0.00524451)
(-0.205343 -1.32839e-09 0.0049274)
(-0.208322 -1.31178e-09 0.00460645)
(-0.211101 -1.29186e-09 0.00428227)
(-0.213679 -1.2711e-09 0.00395549)
(-0.216054 -1.24952e-09 0.00362673)
(-0.218224 -1.23167e-09 0.00329663)
(-0.220189 -1.21673e-09 0.00296582)
(-0.22195 -1.20137e-09 0.00263493)
(-0.223504 -1.18975e-09 0.0023046)
(-0.224855 -1.17896e-09 0.00197543)
(-0.226 -1.16983e-09 0.00164805)
(-0.226944 -1.15945e-09 0.00132306)
(-0.227685 -1.15199e-09 0.00100105)
(-0.228227 -1.14369e-09 0.00068258)
(-0.228571 -1.13207e-09 0.000368209)
(-0.228721 -1.11298e-09 5.84793e-05)
(-0.228678 -1.10095e-09 -0.000246219)
(-0.228446 -1.09598e-09 -0.000545561)
(-0.228029 -1.07855e-09 -0.000839112)
(-0.227429 -1.05905e-09 -0.00112643)
(-0.226652 -1.03914e-09 -0.00140711)
(-0.2257 -1.01549e-09 -0.00168076)
(-0.224579 -9.92254e-10 -0.00194703)
(-0.223292 -9.68607e-10 -0.0022056)
(-0.221846 -9.42056e-10 -0.00245618)
(-0.220243 -9.17167e-10 -0.00269853)
(-0.218491 -8.90618e-10 -0.00293243)
(-0.216593 -8.64071e-10 -0.00315767)
(-0.214555 -8.36694e-10 -0.0033741)
(-0.212382 -8.10149e-10 -0.00358158)
(-0.21008 -7.83605e-10 -0.00378)
(-0.207654 -7.56647e-10 -0.00396927)
(-0.20511 -7.3135e-10 -0.00414932)
(-0.202454 -7.05638e-10 -0.00432013)
(-0.199691 -6.83249e-10 -0.00448168)
(-0.196826 -6.62935e-10 -0.00463397)
(-0.193865 -6.45114e-10 -0.00477703)
(-0.190815 -6.27707e-10 -0.00491092)
(-0.187679 -6.15284e-10 -0.0050357)
(-0.184465 -6.00369e-10 -0.00515145)
(-0.181177 -5.95005e-10 -0.00525828)
(-0.177821 -5.88395e-10 -0.00535631)
(-0.174402 -5.8843e-10 -0.00544567)
(-0.170926 -5.8805e-10 -0.00552651)
(-0.167397 -5.9639e-10 -0.005599)
(-0.16382 -6.07223e-10 -0.00566331)
(-0.160202 -6.2221e-10 -0.00571962)
(-0.156545 -6.44673e-10 -0.00576814)
(-0.152856 -6.70044e-10 -0.00580907)
(-0.149139 -7.03309e-10 -0.00584263)
(-0.145398 -7.39068e-10 -0.00586903)
(-0.141638 -7.83136e-10 -0.00588851)
(-0.137863 -8.34269e-10 -0.00590132)
(-0.134077 -8.86236e-10 -0.00590768)
(-0.130283 -9.46514e-10 -0.00590784)
(-0.126487 -1.01054e-09 -0.00590206)
(-0.122691 -1.08287e-09 -0.00589059)
(-0.118899 -1.1602e-09 -0.00587369)
(-0.115114 -1.24335e-09 -0.0058516)
(-0.111339 -1.33066e-09 -0.00582459)
(-0.107579 -1.4238e-09 -0.00579291)
(-0.103835 -1.52484e-09 -0.00575682)
(-0.10011 -1.62962e-09 -0.00571656)
(-0.096407 -1.73692e-09 -0.00567239)
(-0.0927286 -1.85336e-09 -0.00562455)
(-0.089077 -1.97481e-09 -0.00557328)
(-0.0854544 -2.10208e-09 -0.00551882)
(-0.0818628 -2.23436e-09 -0.00546138)
(-0.0783044 -2.36914e-09 -0.00540121)
(-0.0747808 -2.50976e-09 -0.00533849)
(-0.0712937 -2.65622e-09 -0.00527344)
(-0.0678448 -2.80186e-09 -0.00520626)
(-0.0644355 -2.9575e-09 -0.00513711)
(-0.0610673 -3.11565e-09 -0.00506618)
(-0.0577412 -3.27632e-09 -0.00499362)
(-0.0544587 -3.44283e-09 -0.00491957)
(-0.0512207 -3.6077e-09 -0.00484416)
(-0.0480283 -3.78174e-09 -0.00476751)
(-0.0448825 -3.96163e-09 -0.00468971)
(-0.0417842 -4.13988e-09 -0.00461085)
(-0.0387343 -4.32482e-09 -0.00453099)
(-0.0357336 -4.51062e-09 -0.00445018)
(-0.0327829 -4.69812e-09 -0.00436845)
(-0.029883 -4.88648e-09 -0.0042858)
(-0.0270347 -5.07987e-09 -0.00420223)
(-0.024239 -5.27745e-09 -0.00411771)
(-0.0214965 -5.4784e-09 -0.00403219)
(-0.0188082 -5.67773e-09 -0.00394561)
(-0.016175 -5.87544e-09 -0.00385787)
(-0.0135978 -6.07901e-09 -0.00376889)
(-0.0110778 -6.28763e-09 -0.00367853)
(-0.00861591 -6.50713e-09 -0.00358668)
(-0.00621343 -6.72418e-09 -0.0034932)
(-0.00387155 -6.94461e-09 -0.00339802)
(-0.00159168 -7.17677e-09 -0.00330123)
(0.000625394 -7.43064e-09 -0.0032026)
(0.00277639 -7.65458e-09 -0.00310118)
(0.00485998 -7.80445e-09 -0.0029963)
(0.00687423 -7.90855e-09 -0.00288819)
(0.00881708 -8.01021e-09 -0.00277694)
(0.0106862 -8.10191e-09 -0.00266234)
(0.0124792 -8.19034e-09 -0.0025442)
(0.0141936 -8.27214e-09 -0.00242229)
(0.0158266 -8.34733e-09 -0.0022964)
(0.0173755 -8.42341e-09 -0.00216632)
(0.0188373 -8.48788e-09 -0.00203187)
(0.020209 -8.55324e-09 -0.00189288)
(0.0214874 -8.62616e-09 -0.00174922)
(0.0226694 -8.69248e-09 -0.00160079)
(0.0237516 -8.76637e-09 -0.00144752)
(0.0247307 -8.842e-09 -0.00128939)
(0.0256035 -8.92105e-09 -0.00112642)
(0.0263666 -9.00435e-09 -0.000958686)
(0.0270167 -9.09524e-09 -0.000786336)
(0.0275508 -9.19457e-09 -0.000609574)
(0.0279658 -9.30736e-09 -0.000428686)
(0.0282589 -9.42358e-09 -0.00024404)
(0.0284274 -9.53987e-09 -5.61122e-05)
(0.028469 -9.67946e-09 0.00013475)
(0.0283816 -9.84442e-09 0.000328114)
(0.0281638 -1.00079e-08 0.00052325)
(0.0278142 -1.01882e-08 0.000719371)
(0.0273322 -1.03795e-08 0.000915587)
(0.0267178 -1.05953e-08 0.0011109)
(0.0259714 -1.08246e-08 0.00130419)
(0.0250945 -1.10716e-08 0.00149421)
(0.024089 -1.1344e-08 0.0016796)
(0.0229581 -1.16282e-08 0.00185883)
(0.0217058 -1.19328e-08 0.00203023)
(0.0203371 -1.22493e-08 0.00219195)
(0.0188585 -1.2571e-08 0.00234195)
(0.0172776 -1.28964e-08 0.002478)
(0.0156035 -1.32219e-08 0.0025976)
(0.0138471 -1.35595e-08 0.00269801)
(0.0120208 -1.3914e-08 0.00277615)
(0.0101391 -1.42922e-08 0.00282859)
(0.00821869 -1.47127e-08 0.00285139)
(0.00627889 -1.52106e-08 0.00284023)
(0.00434104 -1.55746e-08 0.00278912)
(0.00243015 -1.56669e-08 0.00269224)
(0.000573819 -1.56486e-08 0.0025439)
(-0.00119667 -1.55212e-08 0.00233637)
(-0.00284346 -1.52692e-08 0.00206139)
(-0.00432803 -1.49129e-08 0.00170968)
(-0.00560576 -1.45194e-08 0.0012713)
(-0.0066285 -1.4119e-08 0.000736358)
(-0.00734438 -1.36409e-08 9.85022e-05)
(-0.00769949 -1.29922e-08 -0.000639776)
(-0.00764032 -1.23318e-08 -0.00145822)
(-0.00712265 -1.17466e-08 -0.00230002)
(-0.00611335 -1.0955e-08 -0.00303105)
(-0.00461005 -9.18475e-09 -0.00336528)
(-0.00267472 8.47969e-10 -0.00280248)
(-0.000606925 -1.83726e-07 -0.00102682)
(0.00324297 2.24991e-07 -0.0124182)
(0.00600978 -2.74152e-08 -0.0106886)
(0.00641485 1.10899e-08 -0.00695767)
(0.00576525 3.3846e-09 -0.00292979)