/*--------------------------------*- C++ -*----------------------------------*\
  =========                 |
  \\      /  F ield         | OpenFOAM: The Open Source CFD Toolbox
   \\    /   O peration     | Website:  https://openfoam.org
    \\  /    A nd           | Version:  8
     \\/     M anipulation  |
\*---------------------------------------------------------------------------*/
FoamFile
{
    version     2.0;
    format      ascii;
    class       volScalarField;
    location    "4700";
    object      alphat;
}
// * * * * * * * * * * * * * * * * * * * * * * * * * * * * * * * * * * * * * //

dimensions      [1 -1 -1 0 0 0 0];

internalField   nonuniform List<scalar> 
46000
(
2.73137e-06
9.72415e-06
1.68531e-05
2.34083e-05
2.95804e-05
3.55379e-05
4.13503e-05
4.7041e-05
5.26416e-05
5.8176e-05
6.36637e-05
6.91129e-05
7.44979e-05
7.98394e-05
8.51429e-05
9.04094e-05
9.5638e-05
0.000100827
0.000105972
0.000111071
0.00011612
0.000121113
0.000126045
0.000130912
0.000135708
0.000140427
0.000145064
0.000149611
0.000154064
0.000158415
0.000162659
0.000166789
0.000170797
0.000174677
0.000178419
0.000182015
0.000185453
0.000188718
0.000191788
0.000194632
0.000197191
0.000199348
0.000200857
0.000201236
0.000199772
0.000196268
0.000198577
0.000197573
0.000198836
0.000201053
0.000199385
0.000203101
0.000203275
0.00019178
3.36297e-05
3.2136e-05
3.22666e-05
3.42236e-05
0.000195069
0.000202165
0.000208724
0.000209456
0.000206145
0.000208363
0.000208911
0.000208312
0.000206192
0.00019477
3.59196e-05
0.000195568
0.000201841
0.000200885
0.000198709
0.000203523
0.000203777
0.000200234
0.000202093
0.00020222
0.00020117
0.00019952
0.000197574
0.000195464
0.000193247
0.000190951
0.000188592
0.00018618
0.000183723
0.000181228
0.000178701
0.000176147
0.000173572
0.000170978
0.000168371
0.000165755
0.000163132
0.000160506
0.000157881
0.00015526
0.000152644
0.000150038
0.000147443
0.000144861
0.000142296
0.000139749
0.000137221
0.000134715
0.000132233
0.000129775
0.000127343
0.000124939
0.000122562
0.000120215
0.000117898
0.000115612
0.000113357
0.000111135
0.000108944
0.000106786
0.000104661
0.000102569
0.000100509
9.8483e-05
9.64894e-05
9.45285e-05
9.26e-05
9.07036e-05
8.88388e-05
8.70054e-05
8.52029e-05
8.34308e-05
8.16884e-05
7.99754e-05
7.8291e-05
7.66348e-05
7.50059e-05
7.34039e-05
7.1828e-05
7.02775e-05
6.87518e-05
6.72502e-05
6.57719e-05
6.43164e-05
6.2883e-05
6.14708e-05
6.00794e-05
5.8708e-05
5.7356e-05
5.60227e-05
5.47076e-05
5.341e-05
5.21294e-05
5.08652e-05
4.96168e-05
4.83838e-05
4.71655e-05
4.59616e-05
4.47715e-05
4.35948e-05
4.2431e-05
4.12797e-05
4.01406e-05
3.90132e-05
3.78972e-05
3.67921e-05
3.56977e-05
3.46135e-05
3.35393e-05
3.24747e-05
3.14194e-05
3.0373e-05
2.93354e-05
2.83064e-05
2.72853e-05
2.62716e-05
2.5265e-05
2.4265e-05
2.32713e-05
2.22835e-05
2.13015e-05
2.03245e-05
1.9352e-05
1.83833e-05
1.74178e-05
1.64547e-05
1.54931e-05
1.45321e-05
1.35706e-05
1.26073e-05
1.16407e-05
1.06691e-05
9.6904e-06
8.70195e-06
7.7006e-06
6.68227e-06
5.64165e-06
4.57155e-06
3.46114e-06
2.3052e-06
1.12584e-06
2.25113e-07
2.73434e-06
9.72977e-06
1.68578e-05
2.34102e-05
2.95808e-05
3.55379e-05
4.13503e-05
4.70411e-05
5.26417e-05
5.81761e-05
6.36637e-05
6.91129e-05
7.44979e-05
7.98394e-05
8.51429e-05
9.04094e-05
9.5638e-05
0.000100827
0.000105972
0.000111071
0.00011612
0.000121113
0.000126045
0.000130912
0.000135708
0.000140427
0.000145063
0.000149611
0.000154064
0.000158415
0.000162659
0.000166789
0.000170797
0.000174676
0.000178418
0.000182014
0.000185451
0.000188714
0.000191784
0.000194633
0.000197223
0.000199493
0.000201346
0.000202635
0.000203179
0.000202913
0.000202091
0.000200945
0.000198343
0.000192276
0.000182932
0.000190276
0.00020125
0.000205349
0.000204857
0.00020488
0.000205329
0.000206454
0.000208847
0.000209057
0.000208659
0.000208776
0.000208955
0.000208088
0.000206607
0.00021189
0.000206205
0.000205555
0.000201222
0.000195318
0.00018409
0.000188173
0.000197711
0.00020171
0.000203315
0.000203946
0.000203754
0.000202815
0.000201354
0.000199571
0.000197586
0.000195466
0.000193248
0.000190951
0.000188592
0.00018618
0.000183722
0.000181228
0.000178701
0.000176147
0.000173571
0.000170978
0.000168371
0.000165754
0.000163132
0.000160506
0.000157881
0.000155259
0.000152644
0.000150037
0.000147442
0.000144861
0.000142296
0.000139748
0.000137221
0.000134715
0.000132233
0.000129775
0.000127343
0.000124938
0.000122562
0.000120215
0.000117898
0.000115612
0.000113357
0.000111134
0.000108944
0.000106786
0.000104661
0.000102568
0.000100509
9.84827e-05
9.64892e-05
9.45283e-05
9.25998e-05
9.07034e-05
8.88387e-05
8.70053e-05
8.52027e-05
8.34306e-05
8.16883e-05
7.99752e-05
7.82909e-05
7.66346e-05
7.50058e-05
7.34037e-05
7.18278e-05
7.02773e-05
6.87516e-05
6.725e-05
6.57718e-05
6.43163e-05
6.28828e-05
6.14707e-05
6.00793e-05
5.87078e-05
5.73558e-05
5.60226e-05
5.47075e-05
5.34099e-05
5.21293e-05
5.08651e-05
4.96167e-05
4.83836e-05
4.71654e-05
4.59615e-05
4.47714e-05
4.35947e-05
4.24309e-05
4.12797e-05
4.01405e-05
3.90131e-05
3.78971e-05
3.6792e-05
3.56976e-05
3.46135e-05
3.35393e-05
3.24747e-05
3.14193e-05
3.0373e-05
2.93354e-05
2.83064e-05
2.72852e-05
2.62716e-05
2.5265e-05
2.4265e-05
2.32712e-05
2.22834e-05
2.13014e-05
2.03245e-05
1.9352e-05
1.83833e-05
1.74178e-05
1.64547e-05
1.54931e-05
1.45321e-05
1.35706e-05
1.26073e-05
1.16407e-05
1.06691e-05
9.69039e-06
8.70195e-06
7.7006e-06
6.68227e-06
5.64165e-06
4.57155e-06
3.46115e-06
2.30521e-06
1.12584e-06
2.25112e-07
8.99139e-06
6.67617e-05
0.000110576
0.000141257
0.00016521
0.000185197
0.000202514
0.000218089
0.000232427
0.000245835
0.000258504
0.000270583
0.000282185
0.000293373
0.000304196
0.000314692
0.000324891
0.000334814
0.000344479
0.000353898
0.000363081
0.000372035
0.000380765
0.000389275
0.000397566
0.00040564
0.000413495
0.000421132
0.000428549
0.000435744
0.000442713
0.000449454
0.000455964
0.000462237
0.000468268
0.000474049
0.000479571
0.00048482
0.000489772
0.000494383
0.00049856
0.000502079
0.000504391
0.000504231
0.000499156
0.000486202
0.000467532
0.000459375
0.000460408
0.000469045
0.000483505
0.000494045
0.000492711
0.000441331
0.000283128
0.000265723
0.000267076
0.000288921
0.000451709
0.000489686
0.000485174
0.000488732
0.000504512
0.000513871
0.000515584
0.000512435
0.000502131
0.000455989
0.000313712
0.000459542
0.000492358
0.000493901
0.00048949
0.000479179
0.000481782
0.000497722
0.000507963
0.000511403
0.000511117
0.000509177
0.000506526
0.000503532
0.000500334
0.000496991
0.00049353
0.000489967
0.000486316
0.000482585
0.000478783
0.000474917
0.000470994
0.000467019
0.000462999
0.000458939
0.000454844
0.000450718
0.000446567
0.000442394
0.000438205
0.000434002
0.000429789
0.000425571
0.000421351
0.000417131
0.000412916
0.000408707
0.000404508
0.000400322
0.00039615
0.000391995
0.000387859
0.000383745
0.000379652
0.000375585
0.000371543
0.000367528
0.000363541
0.000359583
0.000355656
0.000351759
0.000347894
0.000344061
0.00034026
0.000336491
0.000332755
0.000329051
0.000325379
0.00032174
0.000318133
0.000314557
0.000311012
0.000307497
0.000304012
0.000300556
0.000297129
0.000293728
0.000290354
0.000287006
0.000283683
0.000280382
0.000277105
0.000273848
0.000270612
0.000267395
0.000264196
0.000261013
0.000257846
0.000254692
0.000251552
0.000248423
0.000245305
0.000242196
0.000239094
0.000235999
0.000232908
0.000229822
0.000226737
0.000223653
0.000220569
0.000217482
0.000214391
0.000211296
0.000208193
0.000205081
0.000201959
0.000198824
0.000195675
0.000192509
0.000189324
0.000186116
0.000182884
0.000179624
0.000176334
0.000173012
0.000169654
0.000166254
0.000162808
0.000159309
0.00015575
0.000152125
0.000148427
0.000144646
0.000140771
0.00013679
0.000132687
0.000128446
0.000124045
0.000119457
0.00011465
0.000109581
0.000104198
9.84291e-05
9.21753e-05
8.52957e-05
7.75758e-05
6.86654e-05
5.79273e-05
4.39995e-05
2.36183e-05
1.02674e-06
8.98707e-06
6.67622e-05
0.000110582
0.000141261
0.000165213
0.000185199
0.000202516
0.000218091
0.000232429
0.000245837
0.000258506
0.000270586
0.000282187
0.000293375
0.000304199
0.000314695
0.000324894
0.000334817
0.000344481
0.000353901
0.000363084
0.000372038
0.000380768
0.000389278
0.00039757
0.000405643
0.000413499
0.000421136
0.000428552
0.000435747
0.000442716
0.000449458
0.000455967
0.00046224
0.000468271
0.000474052
0.000479574
0.000484824
0.000489781
0.000494413
0.000498666
0.000502435
0.000505498
0.000507397
0.000507348
0.000504663
0.000500634
0.000496359
0.000487562
0.000463815
0.000417003
0.000425956
0.000483077
0.000504977
0.000499061
0.000496879
0.000497205
0.00050035
0.00051321
0.00051509
0.000513632
0.00051439
0.000516063
0.000514043
0.00050682
0.000499508
0.000506833
0.000508154
0.000490069
0.000471638
0.000421212
0.000424475
0.000476938
0.000498572
0.000506857
0.000511609
0.000513566
0.000513309
0.000511696
0.00050934
0.00050657
0.000503545
0.00050034
0.000496995
0.000493533
0.00048997
0.000486319
0.000482588
0.000478786
0.00047492
0.000470997
0.000467022
0.000463002
0.000458942
0.000454847
0.000450721
0.00044657
0.000442397
0.000438207
0.000434004
0.000429792
0.000425574
0.000421353
0.000417134
0.000412918
0.00040871
0.000404511
0.000400324
0.000396152
0.000391998
0.000387862
0.000383747
0.000379655
0.000375587
0.000371545
0.00036753
0.000363543
0.000359586
0.000355658
0.000351761
0.000347896
0.000344063
0.000340262
0.000336493
0.000332756
0.000329053
0.000325381
0.000321742
0.000318134
0.000314558
0.000311013
0.000307499
0.000304014
0.000300558
0.00029713
0.00029373
0.000290356
0.000287008
0.000283684
0.000280384
0.000277106
0.00027385
0.000270613
0.000267396
0.000264197
0.000261014
0.000257847
0.000254694
0.000251553
0.000248425
0.000245306
0.000242197
0.000239095
0.000236
0.000232909
0.000229823
0.000226738
0.000223654
0.00022057
0.000217483
0.000214392
0.000211296
0.000208194
0.000205082
0.00020196
0.000198825
0.000195676
0.00019251
0.000189324
0.000186117
0.000182884
0.000179624
0.000176335
0.000173013
0.000169654
0.000166255
0.000162809
0.00015931
0.000155751
0.000152126
0.000148427
0.000144646
0.000140771
0.00013679
0.000132688
0.000128447
0.000124045
0.000119457
0.00011465
0.000109582
0.000104199
9.84294e-05
9.21756e-05
8.52959e-05
7.75761e-05
6.86656e-05
5.79275e-05
4.39996e-05
2.36183e-05
1.02674e-06
1.5941e-05
0.000107365
0.000192992
0.000257443
0.000307693
0.000348511
0.000382925
0.00041286
0.000439528
0.000463738
0.000486043
0.000506826
0.000526366
0.000544859
0.000562452
0.000579255
0.000595355
0.000610821
0.000625708
0.000640058
0.000653908
0.000667286
0.000680216
0.000692716
0.000704802
0.000716488
0.000727784
0.000738698
0.000749238
0.00075941
0.000769217
0.000778664
0.000787752
0.000796481
0.000804852
0.00081286
0.000820499
0.000827753
0.000834596
0.000840972
0.000846753
0.000851626
0.000854793
0.000854387
0.000846936
0.000829592
0.000811336
0.000802776
0.000805636
0.000819012
0.000834977
0.000848949
0.000857712
0.000845767
0.000773054
0.000751506
0.000749038
0.000761078
0.000826856
0.000839945
0.00083597
0.000842748
0.000857394
0.000866598
0.000868471
0.000867347
0.000866655
0.00085439
0.000792903
0.000838835
0.000851167
0.000848885
0.000840445
0.000832426
0.000838894
0.000854832
0.000866303
0.000870853
0.000870931
0.000868789
0.00086562
0.000861941
0.00085796
0.000853763
0.000849393
0.000844872
0.000840218
0.000835443
0.000830557
0.000825569
0.000820487
0.000815318
0.00081007
0.000804749
0.000799361
0.000793913
0.000788409
0.000782855
0.000777257
0.000771619
0.000765947
0.000760244
0.000754516
0.000748766
0.000742999
0.000737219
0.000731429
0.000725632
0.000719833
0.000714033
0.000708237
0.000702447
0.000696665
0.000690893
0.000685135
0.000679392
0.000673665
0.000667957
0.000662269
0.000656601
0.000650956
0.000645334
0.000639736
0.000634163
0.000628615
0.000623091
0.000617593
0.000612121
0.000606674
0.000601251
0.000595853
0.00059048
0.000585129
0.000579801
0.000574495
0.00056921
0.000563944
0.000558696
0.000553466
0.000548252
0.000543052
0.000537865
0.00053269
0.000527525
0.000522368
0.000517217
0.000512071
0.000506927
0.000501785
0.000496641
0.000491494
0.000486342
0.000481182
0.000476013
0.000470831
0.000465635
0.000460422
0.00045519
0.000449935
0.000444655
0.000439346
0.000434006
0.000428631
0.000423218
0.000417762
0.00041226
0.000406707
0.000401097
0.000395426
0.000389687
0.000383874
0.000377979
0.000371997
0.000365921
0.00035974
0.000353445
0.000347021
0.000340453
0.000333725
0.000326819
0.000319714
0.000312387
0.000304809
0.000296946
0.000288759
0.000280199
0.000271207
0.000261712
0.000251622
0.000240822
0.000229162
0.000216441
0.000202386
0.000186603
0.000168511
0.000147195
0.000121128
8.76344e-05
4.28163e-05
2.11282e-06
1.59395e-05
0.000107365
0.000192996
0.000257448
0.000307698
0.000348515
0.000382929
0.000412865
0.000439532
0.000463743
0.000486047
0.00050683
0.00052637
0.000544863
0.000562456
0.000579259
0.000595359
0.000610825
0.000625712
0.000640063
0.000653913
0.000667291
0.00068022
0.00069272
0.000704807
0.000716493
0.000727788
0.000738703
0.000749243
0.000759414
0.000769222
0.000778668
0.000787756
0.000796486
0.000804856
0.000812865
0.000820503
0.000827757
0.000834605
0.000841005
0.000846883
0.000852098
0.000856354
0.000859046
0.000859171
0.000856088
0.00085162
0.000847091
0.000838702
0.00081795
0.000794968
0.000806272
0.000841274
0.000859867
0.000860132
0.000859207
0.000859494
0.000861164
0.000867296
0.000867564
0.000865958
0.000866957
0.000868631
0.000865908
0.000857681
0.000855834
0.000862972
0.000865987
0.000853413
0.00083209
0.0008042
0.000809336
0.00083904
0.000855881
0.000864548
0.000870313
0.000873187
0.000873384
0.000871745
0.000869027
0.000865686
0.00086196
0.000857967
0.000853767
0.000849396
0.000844876
0.000840222
0.000835446
0.00083056
0.000825572
0.00082049
0.000815321
0.000810073
0.000804752
0.000799364
0.000793916
0.000788412
0.000782858
0.00077726
0.000771622
0.000765949
0.000760247
0.000754518
0.000748769
0.000743002
0.000737221
0.000731431
0.000725634
0.000719835
0.000714035
0.000708239
0.000702449
0.000696667
0.000690895
0.000685137
0.000679394
0.000673667
0.000667959
0.00066227
0.000656603
0.000650958
0.000645336
0.000639738
0.000634164
0.000628616
0.000623093
0.000617595
0.000612122
0.000606675
0.000601252
0.000595855
0.000590481
0.00058513
0.000579802
0.000574496
0.00056921
0.000563945
0.000558697
0.000553467
0.000548253
0.000543053
0.000537866
0.000532691
0.000527526
0.000522368
0.000517218
0.000512071
0.000506928
0.000501785
0.000496642
0.000491495
0.000486342
0.000481183
0.000476013
0.000470832
0.000465636
0.000460423
0.00045519
0.000449935
0.000444655
0.000439347
0.000434007
0.000428632
0.000423218
0.000417763
0.00041226
0.000406707
0.000401097
0.000395426
0.000389687
0.000383874
0.000377979
0.000371997
0.000365921
0.00035974
0.000353445
0.000347021
0.000340453
0.000333725
0.000326819
0.000319714
0.000312387
0.000304809
0.000296946
0.000288759
0.000280199
0.000271207
0.000261712
0.000251622
0.000240822
0.000229162
0.000216441
0.000202386
0.000186603
0.000168511
0.000147195
0.000121128
8.76344e-05
4.28161e-05
2.11282e-06
2.24968e-05
0.000136655
0.000254425
0.000349879
0.000427034
0.000490688
0.000544548
0.000591187
0.000632384
0.00066938
0.000703064
0.000734077
0.000762894
0.000789865
0.000815257
0.000839274
0.000862079
0.0008838
0.00090454
0.000924383
0.000943399
0.000961644
0.000979166
0.000996005
0.0010122
0.00102777
0.00104274
0.00105715
0.001071
0.0010843
0.00109709
0.00110936
0.00112112
0.00113239
0.00114316
0.00115345
0.00116323
0.00117251
0.00118124
0.00118938
0.0011968
0.00120326
0.00120818
0.00121028
0.0012074
0.00119832
0.00118835
0.00118376
0.00118655
0.00119596
0.0012066
0.00121546
0.00122165
0.00122145
0.00120481
0.00119727
0.00119612
0.00119911
0.00121398
0.00121559
0.00121294
0.00121668
0.00122473
0.00123034
0.00123194
0.00123216
0.00123355
0.0012324
0.00121773
0.00122543
0.00122751
0.00122463
0.00121854
0.00121363
0.00121699
0.0012257
0.0012324
0.00123485
0.00123403
0.00123131
0.00122758
0.00122328
0.0012186
0.00121364
0.00120845
0.00120307
0.00119751
0.00119179
0.00118592
0.00117991
0.00117377
0.00116751
0.00116114
0.00115466
0.00114809
0.00114142
0.00113466
0.00112783
0.00112093
0.00111396
0.00110693
0.00109984
0.0010927
0.00108552
0.00107829
0.00107103
0.00106374
0.00105642
0.00104908
0.00104172
0.00103435
0.00102696
0.00101956
0.00101216
0.00100475
0.000997342
0.000989937
0.000982535
0.000975139
0.000967751
0.000960372
0.000953004
0.000945647
0.000938302
0.00093097
0.000923652
0.000916349
0.000909059
0.000901783
0.000894522
0.000887274
0.000880039
0.000872817
0.000865606
0.000858405
0.000851215
0.000844032
0.000836856
0.000829686
0.000822519
0.000815355
0.000808191
0.000801024
0.000793854
0.000786678
0.000779494
0.000772299
0.000765091
0.000757867
0.000750625
0.000743362
0.000736074
0.000728759
0.000721413
0.000714034
0.000706617
0.000699158
0.000691655
0.000684102
0.000676496
0.000668831
0.000661102
0.000653304
0.000645432
0.000637478
0.000629436
0.000621299
0.000613057
0.000604703
0.000596226
0.000587615
0.000578858
0.000569944
0.000560858
0.000551585
0.000542105
0.000532396
0.000522432
0.000512185
0.000501623
0.000490709
0.000479401
0.000467649
0.000455394
0.000442564
0.000429074
0.000414823
0.000399684
0.000383498
0.000366068
0.000347139
0.000326374
0.000303325
0.000277372
0.000247634
0.000212824
0.000171015
0.000119421
5.5837e-05
3.1843e-06
2.24972e-05
0.000136657
0.000254429
0.000349884
0.000427039
0.000490694
0.000544554
0.000591194
0.00063239
0.000669386
0.00070307
0.000734084
0.0007629
0.000789871
0.000815263
0.00083928
0.000862085
0.000883806
0.000904546
0.000924389
0.000943405
0.00096165
0.000979172
0.000996011
0.0010122
0.00102777
0.00104275
0.00105715
0.001071
0.00108431
0.00109709
0.00110936
0.00112113
0.00113239
0.00114317
0.00115345
0.00116324
0.00117251
0.00118124
0.00118938
0.00119683
0.00120347
0.00120905
0.00121312
0.00121503
0.00121449
0.00121283
0.00121145
0.00120916
0.00120182
0.00119397
0.00119899
0.0012129
0.00122195
0.00122386
0.00122439
0.00122531
0.0012266
0.00122884
0.00122875
0.00122802
0.00122909
0.00123094
0.00123046
0.00122708
0.00122682
0.00123094
0.00123384
0.0012302
0.00122068
0.00120887
0.00120963
0.00121999
0.0012274
0.00123211
0.00123556
0.00123718
0.00123675
0.00123468
0.00123152
0.00122764
0.00122329
0.0012186
0.00121364
0.00120846
0.00120308
0.00119752
0.0011918
0.00118593
0.00117992
0.00117378
0.00116752
0.00116114
0.00115467
0.00114809
0.00114142
0.00113467
0.00112784
0.00112093
0.00111396
0.00110693
0.00109984
0.0010927
0.00108552
0.00107829
0.00107103
0.00106374
0.00105642
0.00104908
0.00104172
0.00103435
0.00102696
0.00101956
0.00101216
0.00100475
0.000997343
0.000989938
0.000982536
0.000975141
0.000967752
0.000960373
0.000953005
0.000945647
0.000938303
0.000930971
0.000923653
0.000916349
0.00090906
0.000901784
0.000894522
0.000887274
0.000880039
0.000872817
0.000865606
0.000858406
0.000851215
0.000844032
0.000836857
0.000829686
0.00082252
0.000815355
0.000808191
0.000801024
0.000793854
0.000786678
0.000779494
0.000772299
0.000765091
0.000757867
0.000750625
0.000743361
0.000736074
0.000728759
0.000721413
0.000714033
0.000706616
0.000699158
0.000691655
0.000684102
0.000676495
0.00066883
0.000661102
0.000653304
0.000645431
0.000637478
0.000629436
0.000621298
0.000613057
0.000604703
0.000596226
0.000587615
0.000578857
0.000569943
0.000560858
0.000551584
0.000542104
0.000532395
0.000522432
0.000512184
0.000501622
0.000490709
0.000479401
0.000467649
0.000455393
0.000442563
0.000429074
0.000414823
0.000399683
0.000383498
0.000366068
0.000347138
0.000326374
0.000303325
0.000277372
0.000247634
0.000212824
0.000171015
0.000119422
5.58368e-05
3.18431e-06
2.87849e-05
0.000160443
0.000303235
0.000424957
0.000526581
0.000612204
0.000685492
0.000749266
0.000805623
0.000856114
0.00090189
0.000943817
0.000982546
0.00101858
0.00105229
0.001084
0.00111394
0.0011423
0.00116923
0.00119487
0.00121933
0.00124268
0.00126501
0.00128638
0.00130685
0.00132645
0.00134523
0.00136323
0.00138048
0.00139701
0.00141283
0.00142797
0.00144245
0.00145628
0.00146947
0.00148204
0.00149396
0.00150525
0.00151585
0.00152573
0.0015348
0.00154288
0.00154969
0.00155463
0.00155677
0.00155569
0.00155353
0.00155316
0.00155588
0.00156141
0.00156741
0.00157228
0.00157583
0.00157757
0.0015757
0.00157513
0.00157609
0.00157786
0.0015814
0.00158167
0.00158085
0.00158252
0.00158608
0.00158892
0.00159011
0.00159065
0.00159166
0.00159218
0.00158945
0.00159028
0.00159019
0.00158851
0.00158539
0.00158264
0.00158311
0.00158583
0.00158775
0.00158753
0.00158538
0.00158189
0.00157754
0.00157262
0.00156729
0.00156163
0.0015557
0.00154953
0.00154314
0.00153655
0.00152978
0.00152283
0.00151572
0.00150846
0.00150105
0.0014935
0.00148583
0.00147804
0.00147013
0.00146212
0.001454
0.0014458
0.00143751
0.00142914
0.00142069
0.00141217
0.0014036
0.00139496
0.00138627
0.00137753
0.00136875
0.00135993
0.00135108
0.00134219
0.00133328
0.00132434
0.00131538
0.00130641
0.00129742
0.00128842
0.00127941
0.00127039
0.00126136
0.00125234
0.0012433
0.00123427
0.00122524
0.0012162
0.00120717
0.00119814
0.00118911
0.00118008
0.00117105
0.00116201
0.00115298
0.00114395
0.00113491
0.00112587
0.00111682
0.00110777
0.0010987
0.00108963
0.00108054
0.00107143
0.00106231
0.00105317
0.001044
0.00103481
0.00102559
0.00101634
0.00100705
0.000997724
0.000988355
0.00097894
0.000969475
0.000959955
0.000950376
0.000940734
0.000931022
0.000921237
0.000911371
0.000901419
0.000891375
0.000881231
0.000870979
0.000860612
0.00085012
0.000839494
0.000828723
0.000817794
0.000806696
0.000795413
0.00078393
0.000772229
0.000760292
0.000748099
0.000735625
0.000722843
0.000709719
0.000696218
0.000682298
0.000667912
0.000653006
0.000637518
0.000621375
0.000604489
0.00058676
0.000568064
0.000548254
0.000527151
0.000504535
0.000480128
0.000453582
0.00042445
0.000392145
0.000355889
0.000314628
0.000266917
0.000210804
0.000143924
6.59196e-05
4.22526e-06
2.87854e-05
0.000160446
0.000303239
0.000424963
0.000526588
0.000612211
0.0006855
0.000749274
0.000805631
0.000856122
0.000901898
0.000943825
0.000982554
0.00101858
0.0010523
0.00108401
0.00111395
0.0011423
0.00116924
0.00119488
0.00121934
0.00124269
0.00126502
0.00128639
0.00130685
0.00132646
0.00134524
0.00136324
0.00138049
0.00139701
0.00141283
0.00142798
0.00144246
0.00145629
0.00146948
0.00148204
0.00149397
0.00150524
0.00151584
0.0015257
0.00153474
0.00154284
0.00154982
0.00155547
0.00155949
0.00156185
0.00156328
0.00156471
0.00156607
0.00156597
0.00156525
0.00156776
0.00157283
0.00157673
0.00157853
0.00157982
0.0015813
0.00158286
0.00158437
0.00158492
0.0015852
0.00158637
0.00158815
0.0015891
0.00158872
0.00158903
0.00159081
0.00159233
0.00159174
0.00158878
0.00158461
0.00158382
0.00158612
0.00158809
0.00158943
0.00159027
0.00159008
0.00158853
0.00158575
0.00158201
0.00157757
0.00157263
0.00156729
0.00156164
0.00155571
0.00154953
0.00154315
0.00153656
0.00152978
0.00152283
0.00151572
0.00150846
0.00150105
0.0014935
0.00148583
0.00147804
0.00147013
0.00146212
0.00145401
0.0014458
0.00143751
0.00142914
0.00142069
0.00141218
0.0014036
0.00139496
0.00138627
0.00137753
0.00136875
0.00135993
0.00135108
0.00134219
0.00133328
0.00132434
0.00131538
0.00130641
0.00129742
0.00128842
0.00127941
0.00127039
0.00126136
0.00125234
0.0012433
0.00123427
0.00122524
0.0012162
0.00120717
0.00119814
0.00118911
0.00118008
0.00117105
0.00116201
0.00115298
0.00114395
0.00113491
0.00112587
0.00111682
0.00110777
0.0010987
0.00108963
0.00108054
0.00107143
0.00106231
0.00105317
0.001044
0.00103481
0.00102559
0.00101634
0.00100705
0.000997723
0.000988354
0.000978939
0.000969474
0.000959954
0.000950376
0.000940733
0.000931022
0.000921236
0.00091137
0.000901419
0.000891374
0.00088123
0.000870979
0.000860612
0.00085012
0.000839493
0.000828722
0.000817793
0.000806695
0.000795412
0.000783929
0.000772228
0.000760292
0.000748099
0.000735625
0.000722842
0.000709718
0.000696218
0.000682297
0.000667911
0.000653005
0.000637517
0.000621374
0.000604488
0.000586759
0.000568063
0.000548254
0.000527151
0.000504534
0.000480127
0.000453582
0.00042445
0.000392145
0.000355889
0.000314628
0.000266917
0.000210804
0.000143925
6.59193e-05
4.22527e-06
3.49243e-05
0.000180887
0.000343906
0.000487903
0.000611261
0.000717105
0.000808791
0.000889152
0.000960432
0.00102437
0.0010823
0.00113527
0.00118407
0.00122934
0.00127156
0.00131112
0.00134835
0.00138349
0.00141676
0.00144832
0.00147833
0.00150689
0.00153412
0.00156009
0.00158489
0.00160858
0.00163122
0.00165286
0.00167354
0.0016933
0.00171217
0.00173019
0.00174738
0.00176377
0.00177937
0.00179419
0.00180824
0.0018215
0.00183397
0.00184559
0.00185629
0.00186599
0.00187453
0.00188171
0.0018872
0.00189094
0.00189369
0.00189658
0.00190025
0.00190467
0.00190905
0.00191275
0.00191575
0.00191812
0.0019197
0.00192139
0.00192335
0.00192534
0.00192734
0.0019283
0.00192875
0.0019298
0.00193143
0.00193284
0.00193361
0.00193401
0.00193442
0.00193463
0.00193396
0.00193361
0.00193297
0.00193177
0.00192993
0.00192799
0.00192688
0.00192634
0.0019253
0.00192312
0.00191978
0.00191551
0.00191052
0.001905
0.00189904
0.00189272
0.00188609
0.00187918
0.00187202
0.00186463
0.00185701
0.00184919
0.00184117
0.00183297
0.0018246
0.00181606
0.00180737
0.00179853
0.00178955
0.00178044
0.00177121
0.00176186
0.00175239
0.00174283
0.00173317
0.00172341
0.00171357
0.00170365
0.00169366
0.0016836
0.00167348
0.0016633
0.00165306
0.00164278
0.00163245
0.00162208
0.00161167
0.00160123
0.00159076
0.00158026
0.00156973
0.00155918
0.00154861
0.00153802
0.00152742
0.0015168
0.00150616
0.00149551
0.00148484
0.00147416
0.00146347
0.00145276
0.00144204
0.0014313
0.00142055
0.00140978
0.00139899
0.00138819
0.00137736
0.00136651
0.00135563
0.00134473
0.0013338
0.00132283
0.00131183
0.00130079
0.00128971
0.00127858
0.0012674
0.00125617
0.00124489
0.00123354
0.00122213
0.00121065
0.00119909
0.00118745
0.00117573
0.00116392
0.001152
0.00113998
0.00112785
0.00111559
0.00110321
0.00109069
0.00107802
0.00106519
0.00105219
0.00103901
0.00102562
0.00101203
0.000998201
0.000984125
0.000969778
0.000955138
0.000940179
0.000924873
0.000909188
0.000893087
0.000876528
0.000859462
0.000841835
0.000823585
0.000804641
0.00078492
0.000764327
0.00074275
0.000720054
0.000696083
0.000670649
0.000643525
0.000614432
0.000583032
0.000548899
0.000511501
0.00047016
0.000424002
0.000371896
0.000312387
0.000243672
0.00016394
7.43587e-05
5.24298e-06
3.49247e-05
0.000180889
0.00034391
0.000487909
0.000611268
0.000717113
0.0008088
0.000889161
0.000960441
0.00102438
0.00108231
0.00113528
0.00118408
0.00122935
0.00127157
0.00131113
0.00134836
0.0013835
0.00141677
0.00144833
0.00147834
0.0015069
0.00153412
0.0015601
0.0015849
0.00160859
0.00163123
0.00165287
0.00167355
0.0016933
0.00171218
0.0017302
0.00174739
0.00176378
0.00177938
0.00179419
0.00180824
0.0018215
0.00183395
0.00184554
0.00185621
0.00186585
0.00187437
0.00188165
0.00188764
0.00189241
0.00189637
0.00190001
0.00190352
0.00190652
0.001909
0.00191181
0.00191496
0.00191766
0.00191972
0.0019216
0.00192352
0.00192537
0.001927
0.00192813
0.00192902
0.00193019
0.00193162
0.00193278
0.00193332
0.00193372
0.00193434
0.00193475
0.00193446
0.0019333
0.00193154
0.0019304
0.00193001
0.00192958
0.00192892
0.00192789
0.00192617
0.00192352
0.00191994
0.00191556
0.00191054
0.001905
0.00189904
0.00189273
0.0018861
0.00187919
0.00187203
0.00186463
0.00185701
0.00184919
0.00184118
0.00183298
0.0018246
0.00181607
0.00180738
0.00179854
0.00178956
0.00178045
0.00177121
0.00176186
0.0017524
0.00174283
0.00173317
0.00172341
0.00171357
0.00170365
0.00169366
0.0016836
0.00167348
0.0016633
0.00165306
0.00164278
0.00163245
0.00162208
0.00161167
0.00160123
0.00159076
0.00158026
0.00156973
0.00155918
0.00154861
0.00153802
0.00152742
0.0015168
0.00150616
0.00149551
0.00148484
0.00147416
0.00146347
0.00145276
0.00144204
0.0014313
0.00142055
0.00140978
0.00139899
0.00138819
0.00137736
0.00136651
0.00135563
0.00134473
0.0013338
0.00132283
0.00131183
0.00130079
0.00128971
0.00127858
0.0012674
0.00125617
0.00124489
0.00123354
0.00122213
0.00121065
0.00119909
0.00118745
0.00117573
0.00116391
0.001152
0.00113998
0.00112785
0.00111559
0.00110321
0.00109069
0.00107802
0.00106519
0.00105219
0.00103901
0.00102562
0.00101203
0.000998201
0.000984124
0.000969778
0.000955137
0.000940178
0.000924872
0.000909187
0.000893086
0.000876527
0.000859461
0.000841834
0.000823584
0.00080464
0.00078492
0.000764327
0.000742749
0.000720053
0.000696083
0.000670649
0.000643524
0.000614432
0.000583031
0.000548899
0.000511501
0.00047016
0.000424002
0.000371897
0.000312388
0.000243672
0.00016394
7.43584e-05
5.243e-06
4.09429e-05
0.000199061
0.000379115
0.000542245
0.000684816
0.000808979
0.00091769
0.00101367
0.00109921
0.00117613
0.00124592
0.00130972
0.00136846
0.00142287
0.00147353
0.00152092
0.00156542
0.00160733
0.00164693
0.00168441
0.00171996
0.00175373
0.00178585
0.00181643
0.00184556
0.00187334
0.00189982
0.00192508
0.00194918
0.00197216
0.00199407
0.00201495
0.00203483
0.00205374
0.00207172
0.00208877
0.0021049
0.00212013
0.00213443
0.00214779
0.00216015
0.00217146
0.00218166
0.00219067
0.00219844
0.00220501
0.00221068
0.0022159
0.00222095
0.0022259
0.00223051
0.00223458
0.00223813
0.00224125
0.002244
0.00224657
0.00224902
0.00225126
0.00225323
0.00225467
0.0022557
0.00225666
0.00225762
0.00225838
0.0022588
0.00225892
0.00225886
0.00225857
0.00225789
0.00225701
0.0022559
0.00225446
0.00225264
0.00225057
0.00224846
0.00224623
0.0022435
0.00224002
0.00223574
0.00223074
0.00222512
0.00221899
0.00221241
0.00220546
0.00219815
0.00219054
0.00218264
0.00217448
0.00216607
0.00215742
0.00214855
0.00213947
0.00213019
0.00212072
0.00211107
0.00210125
0.00209126
0.00208112
0.00207083
0.0020604
0.00204984
0.00203916
0.00202835
0.00201744
0.00200642
0.0019953
0.00198408
0.00197279
0.00196141
0.00194995
0.00193842
0.00192683
0.00191517
0.00190346
0.0018917
0.00187988
0.00186802
0.00185611
0.00184417
0.00183218
0.00182017
0.00180811
0.00179603
0.00178391
0.00177177
0.0017596
0.0017474
0.00173517
0.00172291
0.00171063
0.00169831
0.00168597
0.0016736
0.00166119
0.00164875
0.00163628
0.00162377
0.00161122
0.00159863
0.00158599