/*--------------------------------*- C++ -*----------------------------------*\
  =========                 |
  \\      /  F ield         | OpenFOAM: The Open Source CFD Toolbox
   \\    /   O peration     | Website:  https://openfoam.org
    \\  /    A nd           | Version:  8
     \\/     M anipulation  |
\*---------------------------------------------------------------------------*/
FoamFile
{
    version     2.0;
    format      ascii;
    class       volScalarField;
    location    "4700";
    object      epsilon;
}
// * * * * * * * * * * * * * * * * * * * * * * * * * * * * * * * * * * * * * //

dimensions      [0 2 -3 0 0 0 0];

internalField   nonuniform List<scalar> 
46000
(
49.3155
158.905
274.923
381.287
481.281
577.705
671.707
763.676
854.131
943.466
1032
1119.87
1206.67
1292.74
1378.15
1462.95
1547.1
1630.58
1713.35
1795.35
1876.51
1956.77
2036.03
2114.22
2191.25
2267.04
2341.48
2414.48
2485.94
2555.77
2623.86
2690.11
2754.4
2816.62
2876.64
2934.31
2989.44
3041.82
3091.14
3136.97
3178.62
3214.87
3242.91
3255.45
3232.6
3125.43
2785.95
2690.59
2724.78
2878.03
3185.64
3262.84
3294.75
3303.62
13984
14073.5
14131.5
14112.7
3302.62
3195.94
2887.16
2937.65
3241.54
3298.25
3288.54
3267.59
3271.53
3309.12
14024.8
3304.15
3266
3235.47
3148.72
2843.8
2890.23
3194.71
3259.54
3261.1
3240.77
3212.43
3180.45
3146.31
3110.61
3073.7
3035.79
2997.03
2957.57
2917.5
2876.92
2835.91
2794.55
2752.9
2711.05
2669.03
2626.92
2584.77
2542.62
2500.53
2458.54
2416.7
2375.04
2333.6
2292.41
2251.52
2210.94
2170.71
2130.85
2091.39
2052.35
2013.74
1975.59
1937.9
1900.7
1863.99
1827.79
1792.09
1756.92
1722.26
1688.14
1654.54
1621.46
1588.92
1556.9
1525.41
1494.43
1463.97
1434.01
1404.56
1375.6
1347.13
1319.14
1291.62
1264.55
1237.94
1211.76
1186.01
1160.68
1135.76
1111.24
1087.1
1063.33
1039.93
1016.88
994.166
971.787
949.728
927.978
906.528
885.367
864.486
843.875
823.525
803.428
783.574
763.956
744.566
725.395
706.437
687.685
669.131
650.769
632.592
614.596
596.773
579.118
561.625
544.289
527.104
510.066
493.168
476.408
459.783
443.282
426.897
410.622
394.45
378.375
362.391
346.497
330.68
314.932
299.241
283.596
267.986
252.395
236.809
221.21
205.575
189.882
174.1
158.196
142.126
125.837
109.263
92.3132
74.8683
56.7454
37.8504
18.5245
4.11367
49.2792
158.851
274.878
381.267
481.276
577.706
671.709
763.677
854.132
943.467
1032
1119.87
1206.67
1292.74
1378.15
1462.95
1547.1
1630.58
1713.35
1795.35
1876.51
1956.77
2036.03
2114.22
2191.25
2267.04
2341.47
2414.47
2485.94
2555.76
2623.86
2690.1
2754.4
2816.62
2876.63
2934.28
2989.4
3041.73
3090.95
3136.6
3178.06
3214.43
3244.46
3266.3
3277.17
3273.82
3258.82
3252.37
3238.19
3153.65
2747.09
2780.71
3228.87
3295.6
3297.44
3296.51
3301.28
3307.35
3305.77
3289.66
3268.7
3273.01
3294.08
3287.35
3216.97
3006.67
3251.61
3303.22
3288.88
3193.31
2757.13
2773.22
3207.64
3264.14
3274.89
3287.58
3283.74
3266.67
3241.89
3212.61
3180.46
3146.3
3110.61
3073.7
3035.78
2997.03
2957.56
2917.49
2876.91
2835.9
2794.54
2752.9
2711.04
2669.03
2626.92
2584.77
2542.62
2500.53
2458.54
2416.69
2375.03
2333.59
2292.41
2251.51
2210.94
2170.71
2130.85
2091.39
2052.34
2013.74
1975.58
1937.9
1900.7
1863.99
1827.78
1792.09
1756.91
1722.26
1688.13
1654.53
1621.46
1588.92
1556.9
1525.4
1494.43
1463.97
1434.01
1404.56
1375.6
1347.13
1319.14
1291.61
1264.55
1237.93
1211.76
1186.01
1160.68
1135.76
1111.23
1087.09
1063.33
1039.92
1016.87
994.164
971.785
949.725
927.976
906.526
885.365
864.484
843.873
823.523
803.426
783.573
763.955
744.564
725.394
706.436
687.683
669.129
650.767
632.591
614.594
596.771
579.116
561.624
544.288
527.103
510.065
493.167
476.407
459.782
443.281
426.896
410.621
394.449
378.374
362.39
346.496
330.68
314.931
299.24
283.596
267.985
252.395
236.809
221.209
205.575
189.881
174.1
158.195
142.126
125.837
109.263
92.3131
74.8683
56.7454
37.8504
18.5245
4.11366
173.071
145.854
180.815
223.84
269.169
315.659
362.957
410.759
458.992
507.636
556.554
605.759
655.166
704.781
754.592
804.567
854.667
904.842
955.034
1005.18
1055.22
1105.09
1154.7
1203.98
1252.85
1301.23
1349.04
1396.2
1442.6
1488.18
1532.83
1576.47
1618.99
1660.29
1700.28
1738.82
1775.78
1811.01
1844.31
1875.46
1904.21
1930.44
1954.4
1977.62
2004.46
2043.03
2094.78
2123.87
2138.95
2141.67
2126.5
2112.95
2129.19
2349.07
3527
3728.22
3726.48
3502.01
2327.01
2152.58
2151.81
2143.67
2105.88
2081.15
2071.43
2074.91
2106.05
2289.94
3233.29
2255.85
2105.66
2081.77
2071.2
2078.75
2061.68
2014.17
1977.64
1951.19
1928.27
1905.64
1882.27
1857.99
1832.88
1807.07
1780.68
1753.8
1726.54
1698.96
1671.12
1643.09
1614.92
1586.66
1558.35
1530.05
1501.78
1473.58
1445.5
1417.55
1389.78
1362.21
1334.87
1307.77
1280.95
1254.42
1228.2
1202.31
1176.75
1151.56
1126.73
1102.27
1078.2
1054.52
1031.24
1008.37
985.893
963.828
942.172
920.924
900.083
879.649
859.617
839.986
820.749
801.904
783.444
765.364
747.657
730.316
713.335
696.706
680.421
664.472
648.851
633.551
618.561
603.875
589.483
575.377
561.549
547.99
534.691
521.646
508.845
496.281
483.946
471.832
459.933
448.24
436.747
425.447
414.334
403.402
392.644
382.055
371.629
361.361
351.245
341.278
331.455
321.77
312.22
302.802
293.51
284.342
275.294
266.363
257.546
248.839
240.241
231.747
223.358
215.068
206.875
198.775
190.765
182.842
175.003
167.248
159.575
151.979
144.458
137.007
129.624
122.304
115.042
107.835
100.677
93.5621
86.4846
79.437
72.4111
65.3976
58.386
51.365
44.3238
37.2584
30.1927
23.278
17.2585
20.129
173.132
145.852
180.806
223.834
269.164
315.655
362.953
410.754
458.987
507.63
556.548
605.753
655.16
704.774
754.584
804.559
854.658
904.832
955.024
1005.17
1055.21
1105.08
1154.68
1203.96
1252.84
1301.22
1349.03
1396.18
1442.59
1488.16
1532.81
1576.45
1618.97
1660.28
1700.26
1738.79
1775.74
1810.93
1844.16
1875.17
1903.66
1929.32
1952.06
1972.39
1992.12
2013.93
2035.84
2058.37
2095.86
2189.21
2418.27
2396.56
2160.97
2091.29
2118.84
2130.8
2135.2
2130.23
2085.17
2075.82
2076.67
2074.53
2072.3
2077.67
2093.09
2109.24
2088.02
2081.8
2137.16
2185.4
2395.66
2369.1
2132.41
2049.91
2014.65
1989.67
1968.45
1948.2
1927.37
1905.37
1882.18
1857.95
1832.86
1807.05
1780.66
1753.79
1726.52
1698.94
1671.11
1643.07
1614.9
1586.64
1558.34
1530.03
1501.76
1473.57
1445.48
1417.54
1389.77
1362.2
1334.85
1307.76
1280.94
1254.41
1228.19
1202.29
1176.74
1151.54
1126.71
1102.26
1078.19
1054.51
1031.23
1008.36
985.883
963.818
942.162
920.914
900.074
879.64
859.609
839.977
820.741
801.896
783.436
765.356
747.649
730.309
713.328
696.699
680.414
664.465
648.845
633.544
618.555
603.869
589.477
575.371
561.543
547.984
534.686
521.641
508.84
496.276
483.941
471.828
459.928
448.235
436.743
425.443
414.33
403.398
392.64
382.051
371.625
361.357
351.242
341.275
331.451
321.767
312.217
302.799
293.507
284.339
275.292
266.361
257.543
248.837
240.238
231.745
223.355
215.066
206.873
198.773
190.763
182.84
175.002
167.246
159.573
151.978
144.457
137.006
129.623
122.302
115.041
107.834
100.676
93.5613
86.4839
79.4363
72.4105
65.3971
58.3856
51.3646
44.3235
37.2582
30.1925
23.2779
17.2585
20.1291
302.63
190.177
192.835
213.941
241.31
271.774
304.117
337.731
372.267
407.551
443.44
479.849
516.698
553.936
591.518
629.397
667.527
705.855
744.329
782.893
821.489
860.056
898.53
936.846
974.937
1012.73
1050.16
1087.16
1123.64
1159.53
1194.76
1229.24
1262.9
1295.66
1327.41
1358.07
1387.55
1415.72
1442.47
1467.7
1491.35
1513.6
1535.35
1559.33
1591.72
1640.04
1691.53
1723.42
1733.02
1721.06
1701.28
1684.53
1674.72
1700.21
1855.63
1910.48
1922.49
1901.38
1762.23
1739.21
1749.44
1735.13
1703.22
1682.77
1675.06
1671.76
1665.83
1678.79
1793.97
1690.79
1657.44
1649.5
1652.09
1655.03
1628.52
1583.38
1547.24
1521.17
1499.99
1480.27
1460.56
1440.4
1419.71
1398.54
1376.95
1355.02
1332.81
1310.38
1287.77
1265.04
1242.23
1219.38
1196.52
1173.69
1150.93
1128.26
1105.71
1083.3
1061.07
1039.02
1017.19
995.593
974.241
953.153
932.343
911.822
891.601
871.691
852.1
832.835
813.901
795.303
777.044
759.129
741.557
724.329
707.446
690.907
674.709
658.85
643.327
628.137
613.274
598.736
584.516
570.609
557.009
543.709
530.705
517.988
505.552
493.391
481.496
469.861
458.479
447.343
436.444
425.776
415.333
405.106
395.088
385.274
375.656
366.227
356.982
347.913
339.015
330.282
321.708
313.287
305.015
296.885
288.894
281.037
273.308
265.704
258.22
250.853
243.599
236.455
229.416
222.48
215.645
208.906
202.262
195.71
189.247
182.871
176.58
170.373
164.247
158.201
152.231
146.336
140.514
134.763
129.082
123.469
117.924
112.445
107.029
101.676
96.3835
91.1496
85.9728
80.8516
75.7843
70.7695
65.8059
60.8929
56.0307
51.221
46.4689
41.7861
37.198
32.7617
28.6167
25.1659
24.091
40.7607
302.658
190.178
192.831
213.937
241.306
271.77
304.113
337.726
372.263
407.546
443.435
479.843
516.692
553.93
591.512
629.391
667.52
705.848
744.322
782.886
821.481
860.048
898.522
936.838
974.928
1012.72
1050.15
1087.15
1123.63
1159.52
1194.75
1229.23
1262.89
1295.64
1327.4
1358.06
1387.52
1415.67
1442.39
1467.53
1490.96
1512.62
1532.68
1551.88
1571.97
1594.67
1617.92
1640.05
1668.84
1723.14
1788.04
1775.36
1708.54
1678.4
1682.42
1688.39
1692.08
1692.88
1684.01
1684.17
1686.76
1684.13
1679.9
1683.11
1696.02
1696.47
1674.98
1660.78
1674.48
1705.92
1755.01
1731.35
1655.83
1611.91
1583.46
1558.82
1537.22
1517.71
1498.92
1479.97
1460.47
1440.37
1419.7
1398.53
1376.94
1355.01
1332.8
1310.37
1287.76
1265.03
1242.22
1219.37
1196.51
1173.68
1150.92
1128.25
1105.7
1083.29
1061.06
1039.02
1017.19
995.586
974.234
953.146
932.336
911.815
891.595
871.685
852.094
832.829
813.895
795.297
777.039
759.123
741.552
724.324
707.442
690.902
674.704
658.845
643.323
628.132
613.27
598.732
584.512
570.605
557.005
543.706
530.701
517.985
505.549
493.388
481.493
469.858
458.476
447.34
436.441
425.774
415.33
405.103
395.086
385.272
375.654
366.225
356.98
347.911
339.013
330.28
321.706
313.285
305.013
296.884
288.893
281.035
273.306
265.702
258.219
250.852
243.598
236.453
229.415
222.479
215.644
208.905
202.261
195.708
189.246
182.87
176.579
170.372
164.246
158.2
152.23
146.335
140.513
134.763
129.081
123.469
117.924
112.444
107.029
101.676
96.383
91.1491
85.9724
80.8512
75.784
70.7692
65.8057
60.8927
56.0304
51.2208
46.4687
41.786
37.1979
32.7616
28.6166
25.1659
24.0911
40.7608
424.271
241.207
220.855
228.328
245.404
267.14
291.632
317.961
345.618
374.297
403.793
433.964
464.703
495.928
527.571
559.572
591.874
624.422
657.161
690.037
722.994
755.974
788.92
821.771
854.467
886.945
919.142
950.993
982.433
1013.39
1043.81
1073.6
1102.71
1131.06
1158.58
1185.18
1210.8
1235.35
1258.77
1280.98
1301.97
1321.87
1341.15
1361.14
1384.54
1413.65
1443.26
1464.8
1475.82
1476.92
1474.43
1473.15
1473.78
1480.36
1505.48
1519.31
1524.82
1524.75
1509.38
1509.29
1513.35
1507.06
1493.42
1482.45
1475.76
1469.81
1461.06
1453.71
1461.38
1442.72
1429.76
1421.4
1416.11
1409.1
1390.59
1364.28
1339.82
1319.12
1300.65
1282.92
1265.17
1247.08
1228.61
1209.76
1190.59
1171.14
1151.47
1131.61
1111.63
1091.55
1071.41
1051.25
1031.11
1011
990.962
971.019
951.195
931.514
911.995
892.658
873.52
854.598
835.906
817.458
799.266
781.339
763.687
746.319
729.241
712.459
695.978
679.801
663.931
648.37
633.119
618.178
603.546
589.223
575.205
561.492
548.079
534.963
522.141
509.607
497.356
485.384
473.685
462.254
451.084
440.17
429.505
419.082
408.896
398.94
389.206
379.69
370.384
361.282
352.377
343.662
335.133
326.781
318.603
310.59
302.739
295.042
287.495
280.093
272.829
265.7
258.701
251.826
245.072
238.434
231.909
225.492
219.18
212.969
206.857
200.84
194.915
189.079
183.33
177.666
172.083
166.58
161.155
155.806
150.531
145.329
140.197
135.135
130.141
125.213
120.349
115.55
110.813
106.138
101.524
96.9705
92.4767
88.0419
83.6654
79.3469
75.0863
70.8837
66.7398
62.6557
58.6337
54.6774
50.793
46.9905
43.2867
39.711
36.3174
33.213
30.6372
29.2459
31.7157
60.85
424.274
241.205
220.851
228.324
245.4
267.136
291.628
317.957
345.614
374.292
403.788
433.959
464.698
495.923
527.566
559.567
591.868
624.416
657.155
690.031
722.987
755.967
788.913
821.764
854.46
886.938
919.135
950.986
982.425
1013.39
1043.8
1073.6
1102.71
1131.05
1158.57
1185.17
1210.79
1235.34
1258.74
1280.92
1301.84
1321.49
1340.02
1357.83
1375.74
1394.43
1412.82
1429.47
1445.95
1467.67
1490.15
1494.44
1484.86
1480.59
1483.94
1488.02
1490.73
1492.04
1491.13
1491.84
1492.27
1489.44
1484.68
1481.94
1482.04
1477.38
1464.89
1452.88
1447.7
1448.88
1452.93
1440.03
1414.08
1392.03
1372.51
1353.26
1334.81
1317.23
1300.02
1282.74
1265.11
1247.07
1228.6
1209.76
1190.58
1171.13
1151.46
1131.61
1111.62
1091.54
1071.41
1051.25
1031.1
1010.99
990.956
971.014
951.19
931.509
911.99
892.653
873.515
854.594
835.902
817.454
799.262
781.335
763.684
746.316
729.238
712.456
695.974
679.797
663.928
648.367
633.116
618.175
603.543
589.22
575.203
561.489
548.077
534.961
522.138
509.604
497.354
485.382
473.683
462.252
451.082
440.168
429.503
419.08
408.894
398.938
389.205
379.689
370.383
361.28
352.375
343.661
335.131
326.78
318.601
310.589
302.738
295.041
287.494
280.092
272.828
265.699
258.7
251.825
245.071
238.433
231.908
225.491
219.179
212.969
206.857
200.839
194.914
189.079
183.33
177.665
172.083
166.58
161.155
155.806
150.531
145.328
140.197
135.135
130.141
125.212
120.349
115.549
110.812
106.137
101.524
96.9702
92.4765
88.0416
83.6652
79.3467
75.0861
70.8835
66.7396
62.6555
58.6335
54.6773
50.7929
46.9904
43.2866
39.7109
36.3173
33.213
30.6372
29.246
31.716
60.8501
540.544
294.039
254.148
250.95
260.453
276.108
295.368
317.004
340.335
364.946
390.564
416.998
444.106
471.781
499.934
528.491
557.385
586.555
615.941
645.488
675.138
704.836
734.526
764.151
793.653
822.974
852.055
880.837
909.258
937.258
964.774
991.745
1018.11
1043.79
1068.74
1092.89
1116.18
1138.54
1159.93
1180.31
1199.67
1218.07
1235.69
1252.99
1270.86
1289.94
1308.68
1324.4
1335.98
1343.58
1349.22
1354.65
1360.01
1365.6
1372.98
1378.11
1380.86
1381.9
1380.4
1380.71
1380.88
1377.4
1370.88
1364.13
1357.98
1351.44
1343.37
1334.6
1327.62
1316.96
1306.18
1295.8
1285.84
1274.82
1259.98
1242.15
1224.17
1207.04
1190.51
1174.11
1157.54
1140.67
1123.48
1105.97
1088.19
1070.18
1051.98
1033.62
1015.15
996.604
978.014
959.412
940.826
922.285
903.814
885.437
867.176
849.052
831.084
813.289
795.683
778.282
761.099
744.145
727.432
710.969
694.764
678.824
663.157
647.766
632.657
617.832
603.294
589.044
575.083
561.411
548.027
534.93
522.118
509.589
497.339
485.365
473.663
462.229
451.059
440.147
429.488
419.077
408.909
398.977
389.277
379.801
370.544
361.499
352.661
344.024
335.582
327.327
319.255
311.36
303.635
296.075
288.674
281.427
274.328
267.372
260.555
253.87
247.314
240.881
234.568
228.37
222.284
216.304
210.428
204.651
198.971
193.385
187.889
182.48
177.156
171.914
166.752
161.668
156.659
151.723
146.86
142.066
137.341
132.683
128.091
123.563
119.098
114.696
110.354
106.073
101.852
97.6901
93.5871
89.5429
85.5574
81.6307
77.763
73.9552
70.2082
66.5237
62.9042
59.3531
55.8756
52.4793
49.1754
45.9811
42.9238
40.0488
37.4359
35.2384
33.7904
33.9965
39.4964
80.2427
540.542
294.035
254.144
250.947
260.449
276.104
295.364
317
340.331
364.942
390.559
416.993
444.102
471.776
499.93
528.486
557.38
586.549
615.936
645.482
675.132
704.83
734.52
764.145
793.647
822.968
852.049
880.83
909.251
937.251
964.767
991.738
1018.1
1043.79
1068.74
1092.88
1116.17
1138.53
1159.92
1180.3
1199.66
1218.03
1235.47
1252.17
1268.41
1284.38
1299.65
1313.52
1326.09
1338.68
1350.75
1358.58
1362.56
1366.34
1370.75
1374.41
1376.72
1377.81
1377.82
1377.56
1376.45
1373.44
1368.8
1363.92
1359.31
1353.1
1344.26
1334.65
1325.91
1318.31
1311
1299.82
1285.03
1269.88
1254.43
1238.44
1222.32
1206.29
1190.24
1174.03
1157.52
1140.66
1123.47
1105.97
1088.19
1070.18
1051.97
1033.62
1015.15
996.6
978.01
959.408
940.822
922.281
903.81
885.433
867.172
849.048
831.08
813.285
795.68
778.279
761.096
744.142
727.429
710.966
694.761
678.822
663.154
647.764
632.655
617.83
603.292
589.042
575.081
561.409
548.025
534.928
522.116
509.587
497.337
485.363
473.661
462.228
451.057
440.145
429.487
419.076
408.908
398.976
389.275
379.799
370.542
361.498
352.66
344.023
335.581
327.326
319.254
311.359
303.634
296.074
288.673
281.426
274.327
267.371
260.554
253.869
247.313
240.881
234.568
228.37
222.283
216.303
210.427
204.651
198.971
193.384
187.888
182.48
177.156
171.914
166.752
161.667
156.658
151.723
146.859
142.066
137.341
132.683
128.09
123.563
119.098
114.696
110.354
106.073
101.852
97.69
93.587
89.5428
85.5573
81.6305
77.7629
73.9551
70.2081
66.5236
62.9041
59.353
55.8756
52.4793
49.1753
45.9811
42.9237
40.0487
37.4359
35.2384
33.7905
33.9966
39.4968
80.2429
653.785
347.924
290.089
277.587
280.839
291.709
307.012
325.211
345.457
367.231
390.193
414.104
438.791
464.118
489.979
516.285
542.958
569.929
597.135
624.515
652.011
679.566
707.126
734.633
762.032
789.269
816.286
843.027
869.437
895.457
921.03
946.099
970.607
994.496
1017.71
1040.19
1061.89
1082.76
1102.76
1121.87
1140.08
1157.4
1173.92
1189.75
1205.16
1220.29
1234.71
1247.65
1258.68
1267.84
1275.67
1282.71
1288.99
1294.43
1299.12
1302.52
1304.55
1305.41
1305.16
1304.52
1303.14
1300.18
1295.69
1290.38
1284.53
1277.97
1270.41
1262
1253.25
1243.44
1232.95
1221.97
1210.58
1198.46
1184.91
1170.11
1154.85
1139.51
1124.13
1108.58
1092.79
1076.7
1060.32
1043.67
1026.78
1009.68
992.414
975.012
957.51
939.94
922.334
904.72
887.125
869.576
852.096
834.707
817.431
800.286
783.291
766.462
749.814
733.361
717.117
701.091
685.294
669.736
654.424
639.364
624.563
610.026
595.756
581.757
568.03
554.577
541.399
528.495
515.866
503.509
491.422
479.604
468.052
456.762
445.73
434.953
424.426
414.145
404.104
394.299
384.724
375.373
366.243
357.325
348.616
340.109
331.798
323.678
315.742
307.986
300.403
292.987
285.734
278.637
271.692
264.893
258.235
251.713
245.322
239.058
232.915
226.891
220.98
215.179
209.483
203.889
198.394
192.993
187.685
182.465
177.331
172.28
167.31
162.419
157.603
152.862
148.192
143.593
139.062
134.598
130.2
125.866
121.596
117.387
113.24
109.153
105.126
101.159
97.2498
93.3998
89.6086
85.8766
82.2042
78.5923
75.0419
71.5546
68.1327
64.779
61.4978
58.2946
55.1772
52.1568
49.2494
46.4788
43.8823
41.5198
39.4955
38.0064
37.479
39.0611
47.3259
99.1261
653.784
347.92
290.085
277.583
280.835
291.705
307.008
325.207
345.452
367.227
390.188
414.1
438.786
464.113
489.974
516.28
542.953
569.924
597.13
624.51
652.005
679.561
707.12
734.627
762.027
789.263
816.28
843.022
869.431
895.451
921.024
946.093
970.601
994.489
1017.7
1040.19
1061.89
1082.76
1102.76
1121.88
1140.1
1157.45
1173.97
1189.72
1204.79
1219.18
1232.7
1245.05
1256.14
1266.28
1275.52
1283.25
1289.44
1294.69
1299.13
1302.47
1304.57
1305.52
1305.48
1304.67
1302.93
1299.89
1295.59
1290.46
1284.78
1278.22
1270.5
1261.95
1252.96
1243.66
1233.9
1222.86
1210.47
1197.32
1183.51
1169.09
1154.29
1139.27
1124.04
1108.55
1092.78
1076.69
1060.32
1043.67
1026.77
1009.68
992.41
975.008
957.506
939.937
922.331
904.717
887.122
869.573
852.093
834.704
817.428
800.283
783.288
766.459
749.812
733.359
717.114
701.089
685.292
669.734
654.422
639.362
624.562
610.024
595.755
581.755
568.028
554.576
541.398
528.494
515.864
503.507
491.421
479.603
468.051
456.761
445.729
434.952
424.425
414.144
404.103
394.298
384.723
375.373
366.242
357.325
348.615
340.108
331.797
323.677
315.742
307.985
300.402
292.986
285.733
278.637
271.691
264.892
258.234
251.712
245.321
239.057
232.915
226.891
220.98
215.178
209.483
203.889
198.393
192.993
187.684
182.464
177.331
172.28
167.31
162.418
157.603
152.861
148.192
143.592
139.062
134.598
130.2
125.866
121.595
117.387
113.24
109.153
105.126
101.159
97.2497
93.3996
89.6085
85.8765
82.2041
78.5922
75.0418
71.5545
68.1326
64.779
61.4977
58.2945
55.1772
52.1568
49.2493
46.4788
43.8822
41.5198
39.4955
38.0064
37.479
39.0612
47.3263
99.1264
764.561
402.588
327.724
306.673
304.435
311.266
323.344
338.826
356.695
376.334
397.334
419.412
442.36
466.02
490.266
514.994
540.116
565.556
591.242
617.112
643.103
669.158
695.221
721.235
747.147
772.903
798.447
823.727
848.689
873.279
897.444
921.129
944.284
966.855
988.791
1010.04
1030.57
1050.32
1069.28
1087.4
1104.7
1121.16
1136.81
1151.68
1165.84
1179.28
1191.88
1203.39
1213.67
1222.7
1230.64
1237.63
1243.68
1248.73
1252.75
1255.66
1257.46
1258.21
1257.99
1256.95
1255.06
1252.13
1248.15
1243.26
1237.59
1231.11
1223.79
1215.66
1206.85
1197.28
1187
1176.06
1164.51
1152.33
1139.37
1125.71
1111.58
1097.14
1082.44
1067.46
1052.2
1036.66
1020.84
1004.78
988.495
972.024
955.397
938.647
921.806
904.902
887.966
871.024
854.102
837.224
820.413
803.689
787.074
770.586
754.241
738.055
722.043
706.219
690.594
675.179
659.983
645.017
630.286
615.798
601.559
587.572
573.842
560.372
547.164
534.219
521.538
509.121
496.967
485.075
473.443
462.07
450.952
440.087
429.47
419.099
408.968
399.074
389.412
379.977
370.763
361.767
352.982
344.403
336.025
327.842
319.848
312.039
304.408
296.95
289.659
282.531
275.56
268.74
262.066
255.534
249.139
242.876
236.739
230.726
224.831
219.05
213.379
207.814
202.352
196.989
191.721
186.546
181.46
176.46
171.544
166.709
161.953
157.273
152.667
148.133
143.67
139.275
134.947
130.685
126.488
122.353
118.281
114.271
110.321
106.431
102.601
98.8301
95.1188
91.4672
87.8755
84.3447
80.8757
77.4699
74.129
70.8557
67.653
64.5254
61.4783
58.5194
55.6591
52.9118
50.298
47.8481
45.6081
43.6523
42.1082
41.2154
41.4914
44.3252
55.2065
117.718
764.561
402.584
327.72
306.669
304.431
311.262
323.339
338.821
356.691
376.33
397.329
419.407
442.355
466.015
490.261
514.989
540.112
565.551
591.237
617.107
643.098
669.153
695.216
721.23
747.142
772.897
798.442
823.722
848.684
873.273
897.438
921.124
944.278
966.849
988.785
1010.04
1030.56
1050.32
1069.28
1087.41
1104.72
1121.21
1136.89
1151.79
1165.92
1179.24
1191.65
1203
1213.24
1222.41
1230.59
1237.7
1243.75
1248.82
1252.89
1255.88
1257.76
1258.59
1258.44
1257.39
1255.42
1252.4
1248.35
1243.38
1237.63
1231.1
1223.73
1215.59
1206.76
1197.3
1187.19
1176.28
1164.56
1152.14
1139.09
1125.48
1111.45
1097.08
1082.41
1067.45
1052.2
1036.65
1020.84
1004.77
988.491
972.02
955.394
938.644
921.803
904.899
887.963
871.021
854.099
837.221
820.41
803.687
787.072
770.583
754.238
738.053
722.041
706.217
690.592
675.177
659.982
645.015
630.284
615.797
601.557
587.571
573.841
560.371
547.163
534.218
521.536
509.119
496.965
485.074
473.442
462.069
450.951
440.086
429.469
419.098
408.967
399.073
389.411
379.976
370.763
361.766
352.981
344.402
336.024
327.841
319.848
312.038
304.407
296.949
289.659
282.53
275.559
268.739
262.066
255.534
249.139
242.875
236.739
230.725
224.83
219.049
213.378
207.814
202.351
196.988
191.721
186.546
181.46
176.46
171.544
166.709
161.953
157.273
152.667
148.133
143.67
139.275
134.947
130.685
126.487
122.353
118.281
114.271
110.321
106.431
102.601
98.83
95.1187
91.4671
87.8755
84.3446
80.8756
77.4698
74.129
70.8556
67.653
64.5253
61.4782
58.5194
55.6591
52.9118
50.298
47.848
45.608
43.6523
42.1082
41.2153
41.4914
44.3253
55.207
117.719
873.394
457.899
366.641
337.521
330.271
333.537
342.856
356.079
372.024
389.97
409.446
430.123
451.762
474.18
497.233
520.804
544.792
569.113
593.69
618.455
643.343
668.294
693.251
718.157
742.959
767.604
792.038
816.21
840.069
863.564
886.644
909.259
931.362
952.903
973.837
994.119
1013.71
1032.57
1050.67
1067.99
1084.51
1100.22
1115.14
1129.25
1142.56
1155.05
1166.66
1177.29
1186.9
1195.45
1203
1209.58
1215.19
1219.82
1223.44
1226.05
1227.66
1228.28
1227.97
1226.77
1224.69
1221.7
1217.8
1213.03
1207.43
1201.02
1193.81
1185.84
1177.15
1167.74
1157.65
1146.89
1135.52
1123.54
1110.97
1097.85
1084.29
1070.36
1056.1
1041.52
1026.66
1011.51
996.111
980.475
964.634
948.617
932.454
916.175
899.809
883.385
866.929
850.468
834.026
817.625
801.288
785.035
768.885
752.857
736.966
721.227
705.656
690.264
675.064
660.066
645.279
630.713
616.374
602.268
588.402
574.78
561.406
548.283
535.413
522.797
510.436
498.33
486.48
474.883
463.538
452.444
441.597
430.995
420.634
410.511
400.623
390.964
381.53
372.317
363.32
354.534
345.954
337.575
329.391
321.398
313.589
305.96
298.506
291.22
284.098
277.135
270.325
263.664
257.146
250.766
244.521
238.405
232.413
226.542
220.787
215.145
209.611
204.181
198.852
193.621
188.484
183.438
178.48
173.607
168.817
164.107
159.475
154.918
150.434
146.022
141.68
137.406
133.198
129.057
124.979
120.964
117.012
113.122
109.293
105.524
101.816
98.1687
94.5821
91.0567
87.5934
84.1933
80.858
77.5893
74.3899
71.2629
68.2127
65.2447
62.3659
59.586
56.9176
54.3784
51.9933
49.7984
47.8489
46.2327
45.0999
44.7327
45.7396
49.7501
63.1623
136.164
873.395
457.894
366.636
337.516
330.266
333.533
342.852
356.075
372.02
389.966
409.442
430.119
451.758
474.176
497.229
520.799
544.787
569.108
593.685
618.45
643.338
668.289
693.246
718.152
742.954
767.599
792.033
816.205
840.064
863.558
886.638
909.254
931.356
952.897
973.831
994.114
1013.7
1032.57
1050.67
1067.99
1084.52
1100.25
1115.19
1129.33
1142.67
1155.16
1166.74
1177.35
1186.93
1195.49
1203.05
1209.62
1215.23
1219.87
1223.52
1226.18
1227.82
1228.48
1228.2
1227.01
1224.91
1221.88
1217.93
1213.09
1207.43
1200.98
1193.76
1185.79
1177.1
1167.73
1157.68
1146.96
1135.56
1123.53
1110.93
1097.82
1084.27
1070.35
1056.09
1041.52
1026.66
1011.51
996.108
980.472
964.631
948.614
932.451
916.172
899.806
883.382
866.927
850.466
834.023
817.623
801.286
785.033
768.883
752.855
736.964
721.226
705.654
690.263
675.062
660.064
645.278
630.711
616.372
602.267
588.401
574.779
561.405
548.282
535.411
522.795
510.435
498.329
486.479
474.882
463.537
452.443
441.596
430.994
420.633
410.511
400.622
390.963
381.529
372.316
363.319
354.534
345.954
337.574
329.391
321.397
313.589
305.96
298.505
291.22
284.098
277.134
270.325
263.663
257.145
250.766
244.52
238.404
232.413
226.542
220.787
215.145
209.61
204.181
198.852
193.621
188.484
183.438
178.48
173.607
168.817
164.107
159.474
154.917
150.434
146.022
141.68
137.406
133.198
129.056
124.979
120.964
117.012
113.122
109.293
105.524
101.816
98.1686
94.582
91.0566
87.5933
84.1932
80.8579
77.5892
74.3898
71.2629
68.2127
65.2446
62.3659
59.5859
56.9176
54.3784
51.9932
49.7984
47.8489
46.2326
45.0999
44.7327
45.7396
49.7503
63.1629
136.165
980.953
513.953
406.655
369.796
357.855
357.877
364.755
376.033
390.36
406.917
425.166
444.737
465.356
486.818
508.961
531.654
554.786
578.263
602.003
625.931
649.981
674.089
698.196
722.247
746.186
769.961
793.52
816.814
839.792
862.407
884.611
906.357
927.599
948.293
968.397
987.869
1006.67
1024.77
1042.14
1058.76
1074.6
1089.65
1103.9
1117.35
1129.98
1141.77
1152.68
1162.66
1171.69
1179.75
1186.85
1192.99
1198.19
1202.43
1205.72
1208.05
1209.43
1209.88
1209.43
1208.08
1205.87
1202.8
1198.86
1194.09
1188.51
1182.14
1175
1167.12
1158.53
1149.25
1139.31
1128.74
1117.56
1105.82
1093.53
1080.76
1067.55
1053.95
1040.01
1025.75
1011.19
996.352
981.269
965.961
950.458
934.786
918.975
903.052
887.046
870.982
854.886
838.784
822.698
806.651
790.664
774.756
758.946
743.251
727.687
712.27
697.012
681.927
667.025
652.318
637.815
623.523
609.451
595.605
581.99
568.611
555.471
542.575
529.923
517.518
505.361
493.451
481.789
470.374
459.204
448.277
437.592
427.145
416.933
406.954
397.203
387.677
378.37
369.28
360.401
351.728
343.258
334.984
326.902
319.006
311.293
303.755
296.389
289.19
282.151
275.269
268.538
261.954
255.511
249.205
243.032
236.986
231.064
225.261
219.573
213.997
208.528
203.163
197.898
192.731
187.657
182.673
177.777
172.967
168.239
163.59
159.02
154.524
150.103
145.753
141.473
137.261
133.117
129.038
125.025
121.075
117.188
113.364
109.603
105.903
102.265
98.6899
95.1773
91.7282
88.3438
85.0257
81.7758
78.5966
75.4914
72.4642
69.5202
66.6659
63.91
61.2638
58.7423
56.3663
54.1647
52.1798
50.4751
49.1521
48.3837
48.4948
50.1852
55.3263
71.2214
154.575
980.954
513.948
406.651
369.792
357.851
357.873
364.751
376.029
390.356
406.913
425.162
444.732
465.352
486.814
508.957
531.649
554.781
578.258
601.998
625.926
649.976
674.084
698.192
722.242
746.181
769.956
793.515
816.809
839.787
862.402
884.606
906.352
927.594
948.288
968.392
987.864
1006.67
1024.77
1042.14
1058.76
1074.6
1089.66
1103.93
1117.4
1130.05
1141.85
1152.76
1162.75
1171.77
1179.82
1186.9
1193.03
1198.22
1202.46
1205.75
1208.1
1209.5
1209.96
1209.52
1208.18
1205.96
1202.87
1198.92
1194.11
1188.5
1182.11
1174.96
1167.08
1158.5
1149.24
1139.32
1128.76
1117.58
1105.83
1093.53
1080.76
1067.55
1053.95
1040.01
1025.74
1011.18
996.349
981.266
965.958
950.455
934.784
918.972
903.05
887.043
870.979
854.884
838.782
822.696
806.649
790.662
774.754
758.944
743.249
727.685
712.268
697.01
681.925
667.024
652.317
637.813
623.522
609.45
595.604
581.989
568.609
555.47
542.573
529.922
517.517
505.359
493.45
481.788
470.373
459.203
448.276
437.591
427.144
416.933
406.953
397.202
387.676
378.37
369.279
360.4
351.728
343.257
334.983
326.901
319.006
311.292
303.755
296.389
289.189
282.151
275.269
268.538
261.953
255.511
249.205
243.031
236.986
231.063
225.261
219.573
213.997
208.528
203.163
197.898
192.73
187.656
182.673
177.777
172.967
168.238
163.59
159.019
154.524
150.103
145.753
141.473
137.261
133.117
129.038
125.025
121.075
117.188
113.364
109.603
105.903
102.265
98.6898
95.1772
91.7281
88.3437
85.0256
81.7757
78.5966
75.4914
72.4641
69.5201
66.6659
63.91
61.2637
58.7423
56.3662
54.1647
52.1797
50.4751
49.152
48.3837
48.4947
50.1852
55.3265
71.2221
154.575
1087.78
570.823
447.734
403.344
386.929
383.931
388.593
398.15
411.08
426.464
443.701
462.374
482.18
502.89
524.323
546.336
568.806
591.632
614.723
638.002
661.397
684.843
708.278
731.645
754.89
777.96
800.805
823.375
845.624
867.505
888.971
909.98
930.489
950.456
969.841
988.608
1006.72
1024.15
1040.86
1056.84
1072.06
1086.5
1100.16
1113.01
1125.04
1136.23
1146.55
1155.98
1164.5
1172.1
1178.76
1184.5
1189.32
1193.21
1196.18
1198.23
1199.37
1199.62
1198.99
1197.49
1195.15
1191.97
1187.96
1183.15
1177.55
1171.18
1164.07
1156.25
1147.74
1138.56
1128.74
1118.32
1107.32
1095.77
1083.71
1071.18
1058.22
1044.88
1031.19
1017.17
1002.86
988.281
973.455
958.413
943.179
927.783
912.25
896.608
880.884
865.101
849.287
833.462
817.652
801.876
786.155
770.508
754.953
739.507
724.186
709.004
693.975
679.111
664.422
649.921
635.615
621.513
607.623
593.951
580.502
567.281
554.293
541.54
529.024