/*--------------------------------*- C++ -*----------------------------------*\
  =========                 |
  \\      /  F ield         | OpenFOAM: The Open Source CFD Toolbox
   \\    /   O peration     | Website:  https://openfoam.org
    \\  /    A nd           | Version:  8
     \\/     M anipulation  |
\*---------------------------------------------------------------------------*/
FoamFile
{
    version     2.0;
    format      ascii;
    class       volScalarField;
    location    "4700";
    object      k;
}
// * * * * * * * * * * * * * * * * * * * * * * * * * * * * * * * * * * * * * //

dimensions      [0 2 -2 0 0 0 0];

internalField   nonuniform List<scalar> 
46000
(
0.0392539
0.132707
0.22952
0.318309
0.40179
0.482289
0.560764
0.63754
0.713052
0.787629
0.861538
0.934895
1.00735
1.0792
1.15051
1.22129
1.29155
1.36124
1.43034
1.49879
1.56654
1.63354
1.69971
1.76498
1.82928
1.89255
1.95469
2.01563
2.07528
2.13357
2.19042
2.24572
2.29939
2.35132
2.40142
2.44955
2.49556
2.53926
2.58038
2.61853
2.65302
2.68255
2.70432
2.71205
2.69266
2.62446
2.4927
2.44359
2.46683
2.54908
2.67034
2.72745
2.74188
2.66677
2.29751
2.25302
2.2622
2.32821
2.68891
2.69291
2.60097
2.62811
2.73844
2.777
2.77653
2.76368
2.75119
2.68912
2.37738
2.69253
2.71954
2.70037
2.64954
2.54856
2.57079
2.67885
2.71831
2.7198
2.70426
2.68137
2.65497
2.62657
2.59681
2.56602
2.53438
2.50203
2.46909
2.43565
2.40178
2.36754
2.33302
2.29826
2.26332
2.22825
2.1931
2.15791
2.12273
2.08759
2.05254
2.01761
1.98283
1.94824
1.91386
1.87972
1.84584
1.81226
1.77899
1.74605
1.71345
1.68122
1.64937
1.61791
1.58686
1.55621
1.52599
1.49619
1.46682
1.43789
1.4094
1.38135
1.35374
1.32657
1.29984
1.27355
1.24769
1.22226
1.19725
1.17266
1.14849
1.12472
1.10135
1.07837
1.05577
1.03355
1.0117
0.990205
0.969059
0.948252
0.927777
0.907622
0.887781
0.868242
0.848998
0.830038
0.811354
0.792937
0.774779
0.756871
0.739204
0.721771
0.704563
0.687574
0.670795
0.654219
0.637841
0.621652
0.605647
0.589819
0.574163
0.558672
0.543342
0.528167
0.513141
0.498261
0.483521
0.468917
0.454443
0.440096
0.42587
0.411762
0.39777
0.383889
0.370112
0.356432
0.342844
0.329342
0.315921
0.302576
0.289306
0.2761
0.262952
0.249851
0.236789
0.223756
0.210739
0.197725
0.184701
0.171647
0.158544
0.145367
0.132088
0.11867
0.10507
0.0912311
0.077079
0.0625133
0.0473818
0.031605
0.0154681
0.00326299
0.0392608
0.132723
0.229533
0.318314
0.401791
0.482289
0.560764
0.63754
0.713052
0.78763
0.861538
0.934895
1.00735
1.0792
1.15051
1.22129
1.29155
1.36124
1.43034
1.49879
1.56654
1.63354
1.6997
1.76498
1.82928
1.89254
1.95468
2.01562
2.07528
2.13357
2.19041
2.24571
2.29938
2.35132
2.40141
2.44953
2.49553
2.5392
2.58027
2.61838
2.653
2.68335
2.70827
2.72599
2.73414
2.73095
2.71917
2.70876
2.68527
2.6092
2.3757
2.43759
2.70083
2.75616
2.75361
2.75335
2.7583
2.76833
2.78362
2.77823
2.76673
2.76928
2.77927
2.7706
2.73102
2.67391
2.74288
2.76011
2.72492
2.64542
2.38686
2.42014
2.66741
2.71777
2.73298
2.74246
2.73954
2.72611
2.70597
2.68178
2.65506
2.62658
2.59681
2.56601
2.53437
2.50203
2.46909
2.43564
2.40177
2.36754
2.33302
2.29826
2.26332
2.22825
2.19309
2.15791
2.12272
2.08759
2.05254
2.01761
1.98283
1.94823
1.91385
1.87971
1.84584
1.81226
1.77898
1.74604
1.71345
1.68122
1.64937
1.61791
1.58685
1.55621
1.52598
1.49619
1.46682
1.43789
1.4094
1.38135
1.35374
1.32657
1.29984
1.27355
1.24769
1.22226
1.19725
1.17266
1.14849
1.12472
1.10135
1.07837
1.05577
1.03355
1.0117
0.990203
0.969056
0.94825
0.927775
0.907621
0.887779
0.86824
0.848996
0.830036
0.811352
0.792936
0.774777
0.756869
0.739202
0.721769
0.704562
0.687572
0.670793
0.654218
0.637839
0.62165
0.605645
0.589818
0.574161
0.558671
0.543341
0.528166
0.51314
0.49826
0.48352
0.468916
0.454442
0.440095
0.425869
0.411761
0.397769
0.383888
0.370111
0.356431
0.342843
0.329341
0.31592
0.302575
0.289305
0.2761
0.262951
0.249851
0.236789
0.223755
0.210738
0.197725
0.1847
0.171647
0.158544
0.145367
0.132088
0.11867
0.10507
0.0912311
0.077079
0.0625133
0.0473818
0.0316051
0.0154681
0.00326298
0.132727
0.331827
0.475257
0.597431
0.708286
0.811877
0.910166
1.00459
1.09608
1.18529
1.27247
1.358
1.44206
1.52483
1.60645
1.68698
1.76647
1.84494
1.9224
1.99882
2.07419
2.14846
2.2216
2.29354
2.36424
2.43363
2.50165
2.56822
2.63328
2.69674
2.75855
2.8186
2.87682
2.93311
2.98738
3.0395
3.08934
3.13673
3.18144
3.22314
3.26134
3.29519
3.3231
3.34217
3.34772
3.33556
3.31197
3.30561
3.32099
3.35406
3.39326
3.41906
3.4275
3.4072
3.34391
3.33056
3.33819
3.36577
3.4305
3.43527
3.41871
3.42468
3.44871
3.46001
3.45762
3.44989
3.44051
3.41871
3.36943
3.40629
3.40637
3.39226
3.36846
3.3388
3.33405
3.34949
3.35294
3.34169
3.32108
3.29527
3.26648
3.23575
3.2036
3.17034
3.13614
3.10116
3.0655
3.02926
2.99251
2.95533
2.91779
2.87996
2.84188
2.80361
2.76521
2.72672
2.68818
2.64965
2.61116
2.57274
2.53445
2.4963
2.45833
2.42058
2.38306
2.34581
2.30885
2.2722
2.23588
2.19991
2.1643
2.12908
2.09424
2.05981
2.0258
1.99221
1.95904
1.92631
1.89402
1.86217
1.83076
1.79979
1.76927
1.73918
1.70954
1.68032
1.65154
1.62318
1.59524
1.56771
1.54058
1.51385
1.48751
1.46155
1.43596
1.41073
1.38585
1.36131
1.3371
1.31321
1.28963
1.26636
1.24337
1.22066
1.19822
1.17604
1.15411
1.13241
1.11095
1.0897
1.06866
1.04782
1.02717
1.0067
0.986401
0.966267
0.946287
0.926454
0.906759
0.887194
0.867751
0.848423
0.829201
0.810077
0.791045
0.772096
0.753223
0.734417
0.715671
0.696975
0.678322
0.659705
0.641112
0.622534
0.603958
0.585374
0.566768
0.548125
0.529433
0.510675
0.491832
0.472884
0.453805
0.434569
0.415146
0.395499
0.375586
0.355356
0.334751
0.313695
0.292098
0.269846
0.246786
0.222718
0.197359
0.170293
0.140859
0.10785
0.0680867
0.015345
0.132719
0.331826
0.475258
0.597432
0.708286
0.811877
0.910165
1.00459
1.09608
1.18529
1.27247
1.35799
1.44206
1.52483
1.60645
1.68698
1.76647
1.84494
1.9224
1.99882
2.07419
2.14846
2.2216
2.29354
2.36424
2.43363
2.50164
2.56821
2.63327
2.69674
2.75854
2.8186
2.87681
2.93311
2.98737
3.03949
3.08931
3.13668
3.18134
3.223
3.26121
3.2954
3.32476
3.34822
3.36469
3.37404
3.37872
3.38277
3.38298
3.37216
3.36041
3.38096
3.41903
3.43883
3.44104
3.44313
3.44775
3.45454
3.46141
3.45992
3.45567
3.45638
3.46007
3.45769
3.44596
3.4341
3.44174
3.44104
3.42384
3.39648
3.36051
3.35472
3.37377
3.38203
3.38052
3.37519
3.36354
3.34535
3.32219
3.29557
3.26654
3.23576
3.2036
3.17033
3.13614
3.10116
3.0655
3.02925
2.9925
2.95533
2.91779
2.87995
2.84187
2.8036
2.7652
2.72671
2.68818
2.64964
2.61115
2.57274
2.53444
2.49629
2.45833
2.42057
2.38306
2.34581
2.30885
2.2722
2.23588
2.1999
2.1643
2.12907
2.09424
2.05981
2.02579
1.9922
1.95904
1.92631
1.89401
1.86216
1.83075
1.79979
1.76926
1.73918
1.70953
1.68032
1.65154
1.62318
1.59524
1.56771
1.54058
1.51385
1.48751
1.46155
1.43595
1.41072
1.38584
1.3613
1.33709
1.31321
1.28963
1.26635
1.24337
1.22066
1.19822
1.17604
1.1541
1.13241
1.11094
1.08969
1.06866
1.04782
1.02717
1.0067
0.986399
0.966264
0.946285
0.926452
0.906757
0.887192
0.867749
0.84842
0.829198
0.810075
0.791043
0.772094
0.753221
0.734415
0.715669
0.696973
0.678321
0.659703
0.64111
0.622532
0.603957
0.585372
0.566766
0.548124
0.529432
0.510674
0.491831
0.472882
0.453804
0.434568
0.415145
0.395498
0.375585
0.355355
0.33475
0.313694
0.292098
0.269845
0.246785
0.222717
0.197358
0.170293
0.140859
0.10785
0.0680867
0.015345
0.233185
0.479679
0.647463
0.787497
0.914155
1.0323
1.14445
1.2521
1.35616
1.45733
1.55608
1.65275
1.74759
1.84078
1.93247
2.02275
2.11168
2.19929
2.28559
2.37059
2.45427
2.53659
2.61751
2.697
2.775
2.85145
2.92629
2.99945
3.07087
3.14047
3.20817
3.2739
3.33758
3.3991
3.45839
3.51532
3.56977
3.62159
3.6706
3.71655
3.7591
3.79781
3.83199
3.86078
3.88352
3.90135
3.91814
3.93389
3.95177
3.9706
3.98597
3.99928
4.00809
4.01018
4.00525
4.0069
4.0128
4.02259
4.03641
4.0415
4.04367
4.04334
4.04064
4.03776
4.03279
4.02616
4.01735
4.00427
3.9876
3.98174
3.97111
3.95623
3.93955
3.92414
3.90766
3.88957
3.87066
3.84796
3.82125
3.79138
3.75918
3.72521
3.68982
3.65324
3.61567
3.57722
3.53801
3.49814
3.4577
3.41677
3.37541
3.3337
3.29169
3.24945
3.20702
3.16447
3.12185
3.07919
3.03655
2.99397
2.95148
2.90913
2.86694
2.82497
2.78322
2.74174
2.70055
2.65968
2.61914
2.57896
2.53916
2.49975
2.46075
2.42218
2.38404
2.34634
2.3091
2.27232
2.236
2.20015
2.16477
2.12986
2.09542
2.06146
2.02796
1.99493
1.96236
1.93024
1.89858
1.86735
1.83656
1.8062
1.77626
1.74672
1.71759
1.68884
1.66047
1.63246
1.60482
1.57752
1.55055
1.52391
1.49757
1.47153
1.44579
1.42031
1.3951
1.37015
1.34543
1.32095
1.29668
1.27263
1.24877
1.2251
1.2016
1.17828
1.15511
1.13208
1.1092
1.08644
1.0638
1.04127
1.01884
0.996498
0.97424
0.952054
0.929931
0.907862
0.885836
0.863844
0.841875
0.819918
0.797963
0.775996
0.754005
0.731974
0.709889
0.687732
0.665486
0.643131
0.620643
0.597999
0.575169
0.552121
0.528817
0.505214
0.481261
0.4569
0.432058
0.406649
0.380566
0.353674
0.325799
0.296711
0.266087
0.233444
0.197973
0.157965
0.108073
0.0312403
0.233185
0.47968
0.647463
0.787496
0.914154
1.0323
1.14445
1.2521
1.35616
1.45733
1.55608
1.65275
1.74759
1.84078
1.93247
2.02275
2.11167
2.19928
2.28559
2.37059
2.45426
2.53658
2.61751
2.697
2.775
2.85145
2.92629
2.99945
3.07087
3.14046
3.20817
3.2739
3.33757
3.3991
3.45838
3.5153
3.56975
3.62155
3.67052
3.71641
3.75891
3.79764
3.83216
3.86205
3.88714
3.908
3.926
3.94215
3.95677
3.97047
3.98721
4.00111
4.00936
4.01745
4.0228
4.02769
4.0327
4.03751
4.04116
4.04192
4.04122
4.04033
4.0391
4.03655
4.03264
4.02875
4.0198
4.00968
3.9968
3.98338
3.97192
3.95761
3.94073
3.92692
3.91175
3.8941
3.8734
3.84917
3.82168
3.79151
3.75921
3.72521
3.68981
3.65324
3.61566
3.57721
3.538
3.49814
3.4577
3.41676
3.37541
3.33369
3.29168
3.24944
3.20702
3.16447
3.12184
3.07919
3.03654
2.99396
2.95147
2.90912
2.86694
2.82496
2.78322
2.74174
2.70055
2.65967
2.61913
2.57896
2.53915
2.49975
2.46075
2.42218
2.38404
2.34634
2.3091
2.27231
2.23599
2.20014
2.16476
2.12985
2.09542
2.06145
2.02796
1.99492
1.96235
1.93024
1.89857
1.86735
1.83656
1.8062
1.77625
1.74672
1.71758
1.68883
1.66046
1.63246
1.60482
1.57751
1.55055
1.5239
1.49757
1.47153
1.44578
1.42031
1.3951
1.37015
1.34543
1.32095
1.29668
1.27263
1.24877
1.2251
1.2016
1.17827
1.1551
1.13208
1.10919
1.08644
1.0638
1.04126
1.01883
0.996495
0.974237
0.952052
0.929929
0.90786
0.885834
0.863842
0.841873
0.819916
0.797961
0.775994
0.754003
0.731972
0.709887
0.687731
0.665484
0.643129
0.620642
0.597998
0.575168
0.552119
0.528815
0.505213
0.48126
0.456899
0.432057
0.406648
0.380565
0.353673
0.325799
0.29671
0.266086
0.233444
0.197973
0.157965
0.108073
0.0312403
0.327627
0.608838
0.794858
0.947636
1.08522
1.21356
1.33557
1.45287
1.56644
1.67695
1.78487
1.89053
1.99417
2.09598
2.19609
2.29459
2.39154
2.48697
2.5809
2.67333
2.76423
2.85358
2.94135
3.02748
3.11192
3.19462
3.27551
3.35453
3.43161
3.50667
3.57965
3.65046
3.71902
3.78524
3.84903
3.91029
3.96891
4.02475
4.07767
4.1275
4.17402
4.217
4.25618
4.29141
4.32286
4.35151
4.37837
4.4023
4.42393
4.44301
4.45887
4.47318
4.48543
4.49497
4.50188
4.50826
4.51418
4.51965
4.52454
4.52732
4.52839
4.52588
4.52017
4.51378
4.50647
4.49772
4.4868
4.47335
4.45832
4.44371
4.42744
4.40924
4.39006
4.37031
4.3475
4.32154
4.29432
4.26523
4.23386
4.20028
4.16478
4.12765
4.08912
4.04939
4.00859
3.96686
3.92432
3.88105
3.83716
3.79272
3.74781
3.70249
3.65685
3.61093
3.5648
3.51852
3.47213
3.4257
3.37926
3.33287
3.28657
3.2404
3.19439
3.14859
3.10302
3.05773
3.01273
2.96806
2.92374
2.8798
2.83625
2.79312
2.75042
2.70816
2.66637
2.62505
2.5842
2.54385
2.50399
2.46463
2.42578
2.38743
2.34958
2.31224
2.2754
2.23906
2.20321
2.16785
2.13298
2.09858
2.06465
2.03118
1.99816
1.96558
1.93343
1.9017
1.87037
1.83945
1.8089
1.77873
1.74892
1.71946
1.69033
1.66152
1.63302
1.60482
1.5769
1.54926
1.52187
1.49473
1.46782
1.44114
1.41467
1.3884
1.36231
1.3364
1.31066
1.28507
1.25963
1.23432
1.20913
1.18406
1.15908
1.1342
1.1094
1.08468
1.06001
1.03539
1.01082
0.986268
0.961736
0.937208
0.912674
0.888118
0.863526
0.838883
0.814171
0.789373
0.764469
0.739437
0.714253
0.688891
0.663318
0.637502
0.611402
0.584972
0.558159
0.530901
0.503122
0.474733
0.445623
0.415652
0.384642
0.352352
0.318436
0.282359
0.243143
0.198556
0.141415
0.0467855
0.32763
0.608839
0.794858
0.947635
1.08522
1.21355
1.33557
1.45287
1.56644
1.67695
1.78487
1.89053
1.99417
2.09598
2.19609
2.29459
2.39154
2.48697
2.5809
2.67333
2.76423
2.85358
2.94134
3.02747
3.11191
3.19461
3.2755
3.35452
3.4316
3.50667
3.57965
3.65045
3.71901
3.78523
3.84902
3.91028
3.96889
4.02472
4.07761
4.1274
4.17385
4.21677
4.25592
4.2912
4.32271
4.35089
4.37639
4.39948
4.42048
4.43993
4.45906
4.47474
4.48611
4.49624
4.50476
4.51184
4.51756
4.52185
4.52453
4.52536
4.52461
4.52223
4.51833
4.51322
4.50711
4.49949
4.48791
4.4747
4.46008
4.44455
4.42913
4.41079
4.38952
4.36835
4.34589
4.32134
4.29459
4.26546
4.23396
4.20032
4.16479
4.12765
4.08912
4.04938
4.00858
3.96686
3.92431
3.88105
3.83715
3.79271
3.7478
3.70249
3.65684
3.61093
3.5648
3.51851
3.47213
3.42569
3.37926
3.33287
3.28656
3.24039
3.19438
3.14858
3.10302
3.05772
3.01272
2.96805
2.92374
2.87979
2.83625
2.79311
2.75041
2.70816
2.66637
2.62504
2.5842
2.54385
2.50399
2.46463
2.42577
2.38742
2.34957
2.31223
2.27539
2.23905
2.2032
2.16785
2.13297
2.09858
2.06465
2.03118
1.99815
1.96557
1.93342
1.90169
1.87037
1.83944
1.8089
1.77873
1.74892
1.71945
1.69033
1.66152
1.63302
1.60482
1.5769
1.54925
1.52187
1.49473
1.46782
1.44114
1.41467
1.38839
1.36231
1.3364
1.31066
1.28507
1.25963
1.23432
1.20913
1.18405
1.15908
1.1342
1.1094
1.08467
1.06001
1.03539
1.01081
0.986266
0.961734
0.937207
0.912672
0.888116
0.863524
0.838881
0.81417
0.789372
0.764467
0.739436
0.714252
0.688889
0.663317
0.637501
0.611401
0.584971
0.558158
0.5309
0.503121
0.474732
0.445622
0.415652
0.384642
0.352351
0.318436
0.282359
0.243143
0.198556
0.141416
0.0467856
0.418004
0.727868
0.930259
1.09422
1.24078
1.37735
1.50729
1.63237
1.75366
1.87182
1.98732
2.10046
2.2115
2.32058
2.42784
2.53335
2.63716
2.7393
2.83979
2.9386
3.03574
3.13115
3.22482
3.31667
3.40668
3.49476
3.58088
3.66494
3.7469
3.82667
3.90418
3.97935
4.05211
4.12237
4.19003
4.25502
4.31722
4.37653
4.43284
4.48602
4.53594
4.58248
4.62554
4.6651
4.70136
4.73474
4.76556
4.79343
4.81844
4.8406
4.85996
4.87718
4.89224
4.90488
4.91512
4.92332
4.92964
4.93418
4.93695
4.93785
4.93681
4.93312
4.9269
4.91909
4.90977
4.8987
4.88557
4.87033
4.85338
4.83506
4.81507
4.79332
4.77014
4.74551
4.71849
4.689
4.65774
4.62472
4.58982
4.55306
4.5146
4.47458
4.4332
4.39058
4.34688
4.3022
4.25666
4.21036
4.16338
4.11581
4.06773
4.01922
3.97033
3.92115
3.87173
3.82213
3.77242
3.72263
3.67284
3.62307
3.57339
3.52384
3.47445
3.42527
3.37632
3.32766
3.2793
3.23129
3.18363
3.13637
3.08952
3.04311
2.99714
2.95165
2.90664
2.86212
2.81811
2.77462
2.73165
2.68921
2.6473
2.60592
2.56508
2.52477
2.485
2.44576
2.40704
2.36884
2.33116
2.29398
2.2573
2.22112
2.18541
2.15017
2.11539
2.08105
2.04715
2.01368
1.98061
1.94794
1.91566
1.88375
1.85219
1.82098
1.7901
1.75953
1.72927
1.6993
1.66961
1.64018
1.611
1.58205
1.55333
1.52483
1.49652
1.4684
1.44046
1.41268
1.38505
1.35757
1.33021
1.30297
1.27584
1.24881
1.22186
1.19499
1.16817
1.14141
1.11469
1.088
1.06132
1.03465
1.00796
0.981249
0.954498
0.927692
0.900811
0.873838
0.846751
0.819529
0.792147
0.764576
0.736787
0.708742
0.680403
0.651723
0.622647
0.593113
0.563045
0.532353
0.500924
0.468617
0.435248
0.40056
0.364177
0.325479
0.283283
0.234814
0.171307
0.0618231
0.418008
0.727869
0.930258
1.09422
1.24078
1.37735
1.50728
1.63237
1.75366
1.87182
1.98731
2.10046
2.2115
2.32058
2.42784
2.53334
2.63716
2.7393
2.83978
2.9386
3.03573
3.13115
3.22481
3.31667
3.40667
3.49476
3.58087
3.66494
3.7469
3.82667
3.90418
3.97935
4.05211
4.12236
4.19003
4.25501
4.31721
4.37651
4.4328
4.48596
4.53584
4.58232
4.62532
4.66482
4.70092
4.73388
4.764
4.79141
4.81627
4.83881
4.85937
4.87723
4.89216
4.90492
4.91553
4.92401
4.93037
4.93467
4.93695
4.93727
4.93565
4.932
4.92636
4.91898
4.91001
4.89922
4.88589
4.87066
4.85374
4.83526
4.81547
4.79365
4.76974
4.74447
4.71749
4.68855
4.65763
4.62472
4.58983
4.55307
4.5146
4.47458
4.43319
4.39058
4.34687
4.3022
4.25666
4.21035
4.16337
4.11581
4.06773
4.01921
3.97033
3.92115
3.87173
3.82213
3.77241
3.72263
3.67283
3.62307
3.57339
3.52383
3.47444
3.42526
3.37632
3.32766
3.2793
3.23128
3.18363
3.13637
3.08952
3.0431
2.99714
2.95164
2.90663
2.86212
2.81811
2.77461
2.73164
2.6892
2.64729
2.60592
2.56508
2.52477
2.485
2.44575
2.40704
2.36884
2.33116
2.29398
2.2573
2.22111
2.1854
2.15016
2.11538
2.08105
2.04715
2.01368
1.98061
1.94794
1.91566
1.88374
1.85219
1.82098
1.7901
1.75953
1.72927
1.6993
1.66961
1.64017
1.61099
1.58205
1.55333
1.52482
1.49652
1.4684
1.44046
1.41268
1.38505
1.35757
1.33021
1.30297
1.27584
1.24881
1.22186
1.19498
1.16817
1.14141
1.11469
1.088
1.06132
1.03464
1.00796
0.981247
0.954497
0.92769
0.90081
0.873837
0.84675
0.819528
0.792146
0.764575
0.736786
0.708742
0.680402
0.651722
0.622646
0.593112
0.563045
0.532352
0.500924
0.468617
0.435247
0.40056
0.364177
0.325479
0.283283
0.234815
0.171307
0.0618233
0.5061
0.840248
1.05788
1.23253
1.38753
1.53157
1.66852
1.8004
1.92838
2.05317
2.17523
2.29489
2.41235
2.52778
2.64128
2.75292
2.86273
2.97075
3.07697
3.18138
3.28395
3.38466
3.48346
3.5803
3.67513
3.76788
3.85851
3.94693
4.03308
4.11689
4.19828
4.27718
4.35352
4.42721
4.49817
4.56632
4.63156
4.69382
4.753
4.80901
4.86177
4.91121
4.95729
5.00002
5.03951
5.07593
5.10941
5.13991
5.16745
5.19211
5.21399
5.23333
5.25013
5.26434
5.27595
5.28507
5.2918
5.29621
5.29835
5.29829
5.29602
5.29138
5.28441
5.27541
5.26444
5.25147
5.2364
5.21926
5.2002
5.1793
5.15652
5.13186
5.10543
5.07722
5.04697
5.01464
4.98044
4.94446
4.90669
4.86721
4.82611
4.78352
4.73957
4.69438
4.64808
4.60077
4.55257
4.50357
4.45385
4.40351
4.35263
4.30128
4.24953
4.19746
4.14513
4.0926
4.03993
3.98719
3.93442
3.88167
3.829
3.77644
3.72406
3.67188
3.61994
3.56829
3.51695
3.46596
3.41534
3.36513
3.31534
3.26601
3.21714
3.16876
3.12088
3.07352
3.02669
2.98039
2.93464
2.88945
2.84481
2.80073
2.75721
2.71425
2.67185
2.63001
2.58872
2.54798
2.50778
2.46811
2.42896
2.39033
2.35221
2.31458
2.27744
2.24077
2.20456
2.16879
2.13346
2.09855
2.06404
2.02992
1.99619
1.96282
1.92979
1.89711
1.86474
1.83268
1.80092
1.76943
1.73821
1.70724
1.67651
1.646
1.61571
1.58561
1.5557
1.52597
1.49639
1.46697
1.43768
1.40851
1.37946
1.35052
1.32166
1.29288
1.26416
1.2355
1.20689
1.1783
1.14973
1.12116
1.09258
1.06398
1.03533
1.00663
0.977857
0.948987
0.920002
0.890879
0.861594
0.832119
0.802422
0.772468
0.742216
0.711621
0.680629
0.649176
0.617188
0.584571
0.551213
0.516967
0.481636
0.444943
0.406463
0.365471
0.320564
0.268453
0.19902
0.0764855
0.506102
0.840248
1.05788
1.23252
1.38753
1.53156
1.66851
1.8004
1.92838
2.05317
2.17523
2.29488
2.41235
2.52778
2.64128
2.75291
2.86273
2.97075
3.07696
3.18137
3.28395
3.38466
3.48346
3.5803
3.67512
3.76788
3.8585
3.94692
4.03307
4.11688
4.19828
4.27718
4.35352
4.4272
4.49816
4.56631
4.63155
4.69381
4.75298
4.80898
4.86172
4.91113
4.95718
4.99989
5.03931
5.07558
5.10884
5.13917
5.16667
5.19145
5.21363
5.23314
5.24996
5.26424
5.27601
5.28528
5.29207
5.29647
5.29854
5.29837
5.29597
5.29132
5.28446
5.2755
5.26455
5.25159
5.23647
5.21934
5.20028
5.17934
5.15659
5.13192
5.10531
5.07692
5.04665
5.01446
4.98038
4.94444
4.90669
4.86721
4.82611
4.78352
4.73956
4.69438
4.64807
4.60077
4.55257
4.50356
4.45385
4.40351
4.35263
4.30127
4.24953
4.19746
4.14513
4.0926
4.03993
3.98718
3.93441
3.88166
3.82899
3.77644
3.72405
3.67187
3.61994
3.56828
3.51695
3.46595
3.41534
3.36513
3.31534
3.266
3.21714
3.16875
3.12088
3.07352
3.02668
2.98039
2.93464
2.88944
2.8448
2.80073
2.75721
2.71425
2.67185
2.63001
2.58872
2.54798
2.50777
2.4681
2.42896
2.39033
2.35221
2.31458
2.27744
2.24077
2.20455
2.16879
2.13346
2.09854
2.06404
2.02992
1.99619
1.96281
1.92979
1.89711
1.86474
1.83268
1.80092
1.76943
1.73821
1.70724
1.67651
1.646
1.61571
1.58561
1.5557
1.52597
1.49639
1.46696
1.43768
1.40851
1.37946
1.35051
1.32166
1.29288
1.26416
1.2355
1.20688
1.1783
1.14972
1.12116
1.09258
1.06398
1.03533
1.00663
0.977856
0.948986
0.920001
0.890878
0.861593
0.832118
0.802421
0.772467
0.742216
0.711621
0.680629
0.649176
0.617187
0.584571
0.551213
0.516967
0.481636
0.444943
0.406463
0.365471
0.320564
0.268454
0.19902
0.0764857
0.59234
0.947771
1.18009
1.36519
1.52852
1.67976
1.82332
1.96151
2.09562
2.22642
2.35441
2.47993
2.60317
2.72429
2.84339
2.96051
3.07569
3.18895
3.30027
3.40965
3.51705
3.62243
3.72576
3.82698
3.92603
4.02286
4.1174
4.20959
4.29936
4.38664
4.47136
4.55345
4.63283
4.70943
4.78317
4.85398
4.92179
4.98651
5.04808
5.10643
5.1615
5.21326
5.26169
5.3068
5.34863
5.38727
5.42279
5.45521
5.48458
5.51095
5.53442
5.55506
5.57293
5.58801
5.60033
5.60995
5.61692
5.62131
5.62318
5.62258
5.61955
5.6141
5.60628
5.59617
5.58383
5.5693
5.55257
5.53369
5.51273
5.48972
5.4647
5.43768
5.40872
5.37783
5.34499
5.31019
5.27354
5.23508
5.1949
5.15305
5.10963
5.06475
5.01851
4.97103
4.92242
4.87278
4.82221
4.77082
4.71868
4.66589
4.61253
4.55867
4.50439
4.44976
4.39485
4.33972
4.28444
4.22907
4.17365
4.11825
4.06292
4.00771
3.95265
3.8978
3.84319
3.78887
3.73487
3.68121
3.62795
3.57509
3.52267
3.47071
3.41923
3.36825
3.31779
3.26786
3.21848
3.16965
3.12139
3.0737
3.02659
2.98006
2.9341
2.88874
2.84395
2.79974
2.7561
2.71304
2.67054
2.62859
2.58719
2.54633
2.50599
2.46618
2.42686
2.38804
2.34971
2.31184
2.27442
2.23744
2.20089
2.16475
2.129
2.09364
2.05865
2.024
1.9897
1.95571
1.92204
1.88866
1.85555
1.82272
1.79013
1.75778
1.72565
1.69373
1.66201
1.63047
1.5991
1.56789
1.53682
1.50589
1.47508
1.44437
1.41376
1.38323
1.35277
1.32237
1.29202
1.2617
1.2314
1.2011
1.1708
1.14047
1.11011
1.07968
1.04919
1.0186
0.9879
0.957061
0.926062
0.894874
0.863465
0.831802
0.799844
0.767544
0.73485
0.701697
0.668009
0.633692
0.598628
0.562661
0.525578
0.487071
0.446654
0.403495
0.355967
0.300318
0.225257
0.090936
0.592341
0.94777
1.18008
1.36519
1.52852
1.67975
1.82332
1.96151
2.09561
2.22642
2.35441
2.47993
2.60317
2.72429
2.84338
2.9605
3.07569
3.18894
3.30027
3.40965
3.51704
3.62243
3.72575
3.82697
3.92602
4.02285
4.1174
4.20959
4.29936
4.38664
4.47136
4.55344
4.63282
4.70942
4.78317
4.85398
4.92178
4.9865
5.04807
5.10641
5.16148
5.21324
5.26166
5.30676
5.34858
5.38719
5.42266
5.45504
5.48439
5.51079
5.5343
5.55497
5.57284
5.58795
5.60035
5.61004
5.61706
5.62147
5.62334
5.62274
5.6197
5.61425
5.60641
5.59627
5.58389
5.56932
5.55258
5.5337
5.51274
5.48973
5.46472
5.43771
5.40872
5.37779
5.34493
5.31016
5.27352
5.23508
5.1949
5.15305
5.10963
5.06474
5.01851
4.97103
4.92241
4.87277
4.82221
4.77081
4.71868
4.66589
4.61252
4.55866
4.50438
4.44975
4.39484
4.33972
4.28444
4.22906
4.17365
4.11825
4.06292
4.0077
3.95265
3.8978
3.84319
3.78887
3.73486
3.68121
3.62794
3.57508
3.52266
3.4707
3.41922
3.36825
3.31779
3.26786
3.21848
3.16965
3.12139
3.0737
3.02659
2.98005
2.9341
2.88873
2.84395
2.79974
2.7561
2.71304
2.67053
2.62859
2.58719
2.54632
2.50599
2.46617
2.42686
2.38804
2.3497
2.31183
2.27442
2.23744
2.20089
2.16475
2.129
2.09364
2.05864
2.024
1.9897
1.95571
1.92204
1.88866
1.85555
1.82271
1.79013
1.75778
1.72565
1.69373
1.66201
1.63047
1.5991
1.56789
1.53682
1.50589
1.47507
1.44437
1.41376
1.38323
1.35277
1.32237
1.29202
1.2617
1.2314
1.2011
1.1708
1.14047
1.1101
1.07968
1.04919
1.0186
0.987899
0.957061
0.926061
0.894873
0.863465
0.831802
0.799843
0.767544
0.73485
0.701697
0.668009
0.633692
0.598628
0.562661
0.525578
0.487071
0.446655
0.403495
0.355968
0.300319
0.225258
0.0909363
0.677118
1.05181
1.2983
1.49377
1.66543
1.82383
1.97388
2.11814
2.25807
2.39453
2.52806
2.65901
2.78758
2.91393
3.03815
3.16028
3.28034
3.39835
3.51429
3.62814
3.73987
3.84944
3.95679
4.06189
4.16467
4.26508
4.36305
4.45851
4.55142
4.64168
4.72925
4.81405
4.89601
4.97506
5.05113
5.12417
5.19409
5.26085
5.32437
5.38462
5.44154
5.49512
5.54534
5.59221
5.63576
5.67603
5.71305
5.74687
5.77751
5.80504
5.82951
5.85098
5.86949
5.88507
5.89776
5.90759
5.91463
5.91892
5.92051
5.91947
5.91583
5.90965
5.90097
5.88985
5.87633
5.86047
5.84231
5.82189
5.79926
5.77447
5.74757
5.71858
5.68757
5.65455
5.61957
5.58267
5.5439
5.50335
5.46109
5.41718
5.37172
5.32481
5.27655
5.22704
5.17638
5.12467
5.07202
5.01851
4.96423
4.90927
4.85371
4.79763
4.74111
4.68422
4.62703
4.5696
4.512
4.45429
4.39652
4.33876
4.28106
4.22347
4.16603
4.10879
4.05179
3.99507
3.93867
3.88263
3.82697
3.77173
3.71693
3.66259
3.60875
3.55541
3.50261
3.45035
3.39864
3.3475
3.29695
3.24697
3.19759
3.14881
3.10062
3.05304
3.00605
2.95966
2.91386
2.86864
2.82401
2.77995
2.73646
2.69352
2.65113
2.60927
2.56794
2.52712
2.4868
2.44696
2.40759
2.36868
2.33021
2.29217
2.25455
2.21732
2.18047
2.14399
2.10786
2.07206
2.03659
2.00143
1.96655
1.93196
1.89762
1.86354
1.82968
1.79605
1.76262
1.72939
1.69633
1.66344
1.6307
1.5981
1.56562
1.53326
1.501
1.46883
1.43674
1.40471
1.37273
1.34078
1.30886
1.27694
1.24503
1.21309
1.18112
1.14909
1.11699
1.0848
1.0525
1.02007
0.987483
0.954708
0.921717
0.888474
0.854941
0.82107
0.786808
0.75209
0.716837
0.680951
0.644307
0.606736
0.568005
0.527768
0.485477
0.440185
0.390061
0.330927
0.250461
0.105284
0.677119
1.05181
1.2983
1.49377
1.66543
1.82383
1.97388
2.11814
2.25807
2.39453
2.52806
2.659
2.78758
2.91393
3.03814
3.16027
3.28034
3.39835
3.51429
3.62814
3.73987
3.84943
3.95679
4.06189
4.16467
4.26507
4.36304
4.45851
4.55141
4.64168
4.72925
4.81404
4.896
4.97505
5.05113
5.12416
5.19409
5.26084
5.32436
5.38461
5.44153
5.49511
5.54534
5.59221
5.63577
5.67604
5.71306
5.74686
5.77751
5.80503
5.82949
5.85096
5.86946
5.88505
5.89777
5.90763
5.91469
5.919
5.9206
5.91957
5.91594
5.90976
5.90106
5.8899
5.87636
5.86047
5.8423
5.82188
5.79926
5.77448
5.74758
5.7186
5.68758
5.65456
5.61957
5.58267
5.54391
5.50335
5.46109
5.41718
5.37172
5.32481
5.27654
5.22703
5.17637
5.12467
5.07201
5.0185
4.96422
4.90926
4.85371
4.79763
4.74111
4.68422
4.62702
4.56959
4.51199
4.45428
4.39652
4.33876
4.28106
4.22347
4.16603
4.10878
4.05179
3.99507
3.93867
3.88263
3.82697
3.77172
3.71692
3.66259
3.60874
3.55541
3.5026
3.45034
3.39864
3.3475
3.29694
3.24697
3.19759
3.14881
3.10062
3.05304
3.00605
2.95965
2.91385
2.86864
2.82401
2.77995
2.73646
2.69352
2.65113
2.60927
2.56794
2.52712
2.4868
2.44696
2.40759
2.36868
2.33021
2.29217
2.25455
2.21731
2.18047
2.14399
2.10786
2.07206
2.03659
2.00143
1.96655
1.93196
1.89762
1.86354
1.82968
1.79605
1.76262
1.72938
1.69633
1.66344
1.6307
1.5981
1.56562
1.53326
1.501
1.46883
1.43674
1.40471
1.37272
1.34078
1.30886
1.27694
1.24503
1.21309
1.18111
1.14909
1.11699
1.0848
1.0525
1.02007
0.987482
0.954707
0.921716
0.888474
0.854941
0.82107
0.786808
0.75209
0.716837
0.680951
0.644306
0.606736
0.568005
0.527768
0.485477
0.440186
0.390062
0.330928
0.250462
0.105284
0.760947
1.15336
1.41347
1.61931
1.79937
1.96497
2.12149
2.27174
2.41735
2.55927
2.6981
2.83419
2.96779
3.09904
3.22803
3.35481
3.47938
3.60176
3.72193
3.83986
3.95552
4.06886
4.17984
4.2884
4.3945
4.49806
4.59903
4.69736
4.79297
4.88581
4.97581
5.0629
5.14703
5.22813
5.30614
5.381
5.45265
5.52104
5.58613
5.64787
5.70623
5.7612
5.81276
5.86092
5.90569
5.9471
5.98518
6.01995
6.05145
6.07973
6.10482
6.12678
6.14565
6.16148
6.17429
6.18414
6.19107
6.19513
6.19638
6.19486
6.19063
6.18374
6.17424
6.16217
6.1476
6.13057
6.11114
6.08936
6.06528
6.03896
6.01045
5.9798
5.94705
5.91227
5.87549
5.83679
5.79622
5.75387
5.7098
5.6641
5.61686
5.56817
5.51812
5.46682
5.41435
5.36083
5.30633
5.25095
5.19479
5.13792
5.08042
5.02239
4.96389
4.90499
4.84578
4.78631
4.72665
4.66687
4.60702
4.54715
4.48734
4.42762
4.36804
4.30866
4.24951
4.19064
4.13209
4.07388
4.01606
3.95866
3.9017
3.8452
3.78921
3.73372
3.67877
3.62437
3.57054
3.51728
3.46461
3.41253
3.36106
3.31019
3.25993
3.21029
3.16125
3.11283
3.065
3.01779
2.97116
2.92512
2.87967
2.83478
2.79046
2.74668
2.70344
2.66073
2.61853
2.57683
2.53562
2.49488
2.45459
2.41474
2.37533
2.33632
2.29771
2.25947
2.22161
2.18409
2.1469
2.11003
2.07347
2.03719
2.00119
1.96544
1.92994
1.89466
1.8596
1.82474
1.79007
1.75557
1.72123
1.68703
1.65297
1.61903
1.5852
1.55145
1.51779
1.4842
1.45066
1.41717
1.3837
1.35024
1.31678
1.28331
1.2498
1.21625
1.18263
1.14892
1.1151
1.08116
1.04706
1.01278
0.978286
0.943548
0.908523
0.873165
0.837418
0.801215
0.764474
0.727091
0.688931
0.649812
0.609475
0.567535
0.523379
0.475951
0.423224
0.360638
0.274937
0.119613
0.760948
1.15336
1.41347
1.61931
1.79936
1.96497
2.12149
2.27174
2.41735
2.55927
2.69809
2.83419
2.96779
3.09904
3.22803
3.3548
3.47938
3.60176
3.72193
3.83986
3.95552
4.06886
4.17984
4.2884
4.39449
4.49806
4.59903
4.69736
4.79297
4.88581
4.97581
5.0629
5.14703
5.22813
5.30614
5.38099
5.45265
5.52104
5.58613
5.64787
5.70623
5.7612
5.81276
5.86092
5.9057
5.94712
5.9852
6.01998
6.05148
6.07975
6.10483
6.12679
6.14565
6.16147
6.1743
6.18415
6.1911
6.19517
6.19642
6.19491
6.19068
6.18379
6.17427
6.16219
6.1476
6.13056
6.11113
6.08935
6.06528
6.03896
6.01046
5.97981
5.94707
5.91228
5.8755
5.83679
5.79622
5.75387
5.7098
5.6641
5.61686
5.56817
5.51812
5.46682
5.41435
5.36082
5.30633
5.25095
5.19478
5.13791
5.08042
5.02239
4.96388
4.90499
4.84578
4.78631
4.72665
4.66686
4.60701
4.54715
4.48734
4.42762
4.36804
4.30866
4.24951
4.19064
4.13208
4.07388
4.01606
3.95865
3.90169
3.8452
3.7892
3.73372
3.67877
3.62437
3.57053
3.51727
3.4646
3.41253
3.36105
3.31019
3.25993
3.21029
3.16125
3.11282
3.065
3.01778
2.97116
2.92512
2.87966
2.83478
2.79045
2.74668
2.70344
2.66073
2.61853
2.57683
2.53562
2.49487
2.45459
2.41474
2.37532
2.33632
2.2977
2.25947
2.2216
2.18409
2.1469
2.11003
2.07347
2.03719
2.00118
1.96544
1.92993
1.89466
1.8596
1.82474
1.79007
1.75557
1.72123
1.68703
1.65297
1.61903
1.58519
1.55145
1.51779
1.4842
1.45066
1.41717
1.3837
1.35024
1.31678
1.28331
1.2498
1.21625
1.18263
1.14892
1.1151
1.08116
1.04706
1.01278
0.978286
0.943548
0.908523
0.873165
0.837417
0.801214
0.764473
0.727091
0.688931
0.649812
0.609475
0.567535
0.523379
0.475951
0.423225
0.360639
0.274938
0.119614
0.844243
1.25307
1.52641
1.74257
1.9311
2.10399
2.26702
2.42328
2.57451
2.72179
2.86576
3.00682
3.14524
3.28115
3.41466
3.5458
3.6746
3.80106
3.92514
4.04683
4.16609
4.28287
4.39712
4.5088
4.61785
4.72421
4.82784
4.92866
5.02662
5.12166
5.21372