/*--------------------------------*- C++ -*----------------------------------*\
  =========                 |
  \\      /  F ield         | OpenFOAM: The Open Source CFD Toolbox
   \\    /   O peration     | Website:  https://openfoam.org
    \\  /    A nd           | Version:  8
     \\/     M anipulation  |
\*---------------------------------------------------------------------------*/
FoamFile
{
    version     2.0;
    format      ascii;
    class       volScalarField;
    location    "4700";
    object      nut;
}
// * * * * * * * * * * * * * * * * * * * * * * * * * * * * * * * * * * * * * //

dimensions      [0 2 -1 0 0 0 0];

internalField   nonuniform List<scalar> 
46000
(
2.81205e-06
9.97456e-06
1.72453e-05
2.3916e-05
3.01886e-05
3.62369e-05
4.2133e-05
4.79013e-05
5.35748e-05
5.9178e-05
6.47309e-05
7.02424e-05
7.56865e-05
8.10844e-05
8.64419e-05
9.17602e-05
9.70384e-05
0.000102275
0.000107466
0.000112609
0.0001177
0.000122733
0.000127704
0.000132608
0.00013744
0.000142193
0.000146861
0.00015144
0.000155922
0.000160301
0.000164572
0.000168726
0.000172758
0.00017666
0.000180423
0.000184039
0.000187494
0.000190776
0.000193861
0.000196719
0.000199289
0.000201454
0.000202967
0.000203342
0.000201862
0.000198341
0.000200729
0.000199734
0.000200996
0.000203196
0.000201455
0.000205192
0.000205361
0.000193743
3.39724e-05
3.24618e-05
3.25924e-05
3.45683e-05
0.000197032
0.000204216
0.000210884
0.000211607
0.000208208
0.000210432
0.000210981
0.000210373
0.000208224
0.000196675
3.62695e-05
0.000197471
0.000203806
0.000202839
0.000200655
0.000205557
0.000205799
0.000202166
0.000204026
0.000204151
0.000203091
0.000201428
0.000199467
0.000197342
0.000195109
0.000192797
0.000190421
0.000187991
0.000185517
0.000183004
0.000180459
0.000177888
0.000175294
0.000172683
0.000170058
0.000167423
0.000164782
0.000162139
0.000159496
0.000156856
0.000154223
0.000151598
0.000148985
0.000146386
0.000143803
0.000141238
0.000138693
0.00013617
0.00013367
0.000131195
0.000128747
0.000126325
0.000123932
0.000121568
0.000119235
0.000116933
0.000114662
0.000112423
0.000110216
0.000108043
0.000105902
0.000103795
0.00010172
9.96788e-05
9.76705e-05
9.56949e-05
9.37519e-05
9.18411e-05
8.99621e-05
8.81147e-05
8.62982e-05
8.45122e-05
8.27563e-05
8.10297e-05
7.93319e-05
7.76624e-05
7.60204e-05
7.44052e-05
7.28163e-05
7.1253e-05
6.97145e-05
6.82001e-05
6.67093e-05
6.52412e-05
6.37952e-05
6.23705e-05
6.09667e-05
5.95829e-05
5.82185e-05
5.68728e-05
5.55454e-05
5.42355e-05
5.29425e-05
5.16659e-05
5.04051e-05
4.91597e-05
4.7929e-05
4.67126e-05
4.55099e-05
4.43206e-05
4.31442e-05
4.19803e-05
4.08284e-05
3.96881e-05
3.85591e-05
3.7441e-05
3.63334e-05
3.52361e-05
3.41485e-05
3.30704e-05
3.20015e-05
3.09415e-05
2.989e-05
2.8847e-05
2.78118e-05
2.67839e-05
2.57629e-05
2.47483e-05
2.37398e-05
2.2737e-05
2.17399e-05
2.07476e-05
1.97596e-05
1.87752e-05
1.77937e-05
1.68143e-05
1.58361e-05
1.48583e-05
1.38795e-05
1.28986e-05
1.1914e-05
1.09238e-05
9.92596e-06
8.9177e-06
7.89572e-06
6.85577e-06
5.7923e-06
4.69775e-06
3.56069e-06
2.37511e-06
1.16244e-06
2.32941e-07
2.81513e-06
9.98033e-06
1.72501e-05
2.3918e-05
3.0189e-05
3.62369e-05
4.21329e-05
4.79014e-05
5.35748e-05
5.9178e-05
6.4731e-05
7.02424e-05
7.56865e-05
8.10844e-05
8.64419e-05
9.17602e-05
9.70384e-05
0.000102275
0.000107466
0.000112609
0.0001177
0.000122733
0.000127704
0.000132608
0.00013744
0.000142192
0.000146861
0.00015144
0.000155922
0.000160301
0.000164571
0.000168726
0.000172758
0.00017666
0.000180423
0.000184037
0.000187492
0.000190772
0.000193857
0.00019672
0.000199321
0.000201601
0.000203462
0.000204755
0.000205299
0.000205029
0.0002042
0.00020304
0.000200408
0.000194287
0.000184906
0.000192313
0.000203323
0.000207451
0.000206952
0.000206972
0.000207417
0.000208544
0.000210955
0.000211168
0.000210766
0.000210876
0.000211043
0.000210157
0.000208663
0.000214018
0.000208237
0.000207567
0.000203189
0.000197238
0.000185968
0.000190081
0.000199635
0.000203657
0.000205267
0.000205896
0.000205698
0.00020475
0.000203277
0.00020148
0.00019948
0.000197344
0.00019511
0.000192797
0.00019042
0.000187991
0.000185516
0.000183004
0.000180459
0.000177888
0.000175294
0.000172683
0.000170058
0.000167423
0.000164782
0.000162139
0.000159495
0.000156856
0.000154222
0.000151598
0.000148985
0.000146386
0.000143803
0.000141238
0.000138693
0.00013617
0.00013367
0.000131195
0.000128746
0.000126325
0.000123932
0.000121568
0.000119235
0.000116932
0.000114661
0.000112423
0.000110216
0.000108043
0.000105902
0.000103794
0.00010172
9.96786e-05
9.76703e-05
9.56947e-05
9.37517e-05
9.18409e-05
8.99619e-05
8.81145e-05
8.6298e-05
8.45121e-05
8.27561e-05
8.10295e-05
7.93318e-05
7.76622e-05
7.60202e-05
7.44051e-05
7.28162e-05
7.12528e-05
6.97143e-05
6.82e-05
6.67091e-05
6.5241e-05
6.3795e-05
6.23704e-05
6.09665e-05
5.95827e-05
5.82183e-05
5.68727e-05
5.55452e-05
5.42353e-05
5.29424e-05
5.16658e-05
5.0405e-05
4.91596e-05
4.79289e-05
4.67125e-05
4.55098e-05
4.43206e-05
4.31441e-05
4.19802e-05
4.08283e-05
3.9688e-05
3.8559e-05
3.74409e-05
3.63334e-05
3.5236e-05
3.41484e-05
3.30704e-05
3.20015e-05
3.09414e-05
2.989e-05
2.8847e-05
2.78118e-05
2.67838e-05
2.57628e-05
2.47482e-05
2.37397e-05
2.2737e-05
2.17399e-05
2.07476e-05
1.97596e-05
1.87752e-05
1.77936e-05
1.68143e-05
1.58361e-05
1.48583e-05
1.38795e-05
1.28986e-05
1.1914e-05
1.09238e-05
9.92596e-06
8.9177e-06
7.89572e-06
6.85578e-06
5.79231e-06
4.69775e-06
3.5607e-06
2.37512e-06
1.16244e-06
2.3294e-07
9.16089e-06
6.79435e-05
0.000112426
0.000143509
0.000167739
0.000187934
0.000205413
0.000221122
0.000235573
0.00024908
0.000261836
0.000273993
0.000285664
0.000296915
0.000307796
0.000318345
0.000328592
0.00033856
0.000348265
0.000357722
0.00036694
0.000375926
0.000384686
0.000393223
0.000401539
0.000409635
0.000417512
0.000425168
0.000432602
0.000439812
0.000446795
0.000453549
0.00046007
0.000466353
0.000472392
0.000478181
0.00048371
0.000488964
0.000493919
0.000498533
0.000502711
0.000506227
0.000508529
0.000508342
0.000503203
0.000490125
0.000471279
0.000463039
0.000464062
0.000472749
0.000487316
0.000497929
0.000496574
0.000444778
0.000285329
0.000267779
0.000269133
0.000291135
0.000455155
0.000493405
0.000488835
0.000492406
0.000508303
0.000517719
0.00051943
0.000516242
0.000505846
0.00045935
0.000316017
0.000462908
0.000495951
0.000497495
0.000493041
0.000482637
0.00048525
0.000501308
0.00051162
0.000515083
0.000514795
0.000512843
0.000510176
0.000507164
0.000503949
0.000500587
0.000497107
0.000493526
0.000489856
0.000486107
0.000482286
0.000478402
0.000474461
0.000470468
0.00046643
0.000462352
0.000458239
0.000454096
0.000449928
0.000445738
0.000441531
0.000437312
0.000433083
0.000428848
0.000424612
0.000420376
0.000416145
0.000411922
0.000407708
0.000403507
0.00039932
0.000395151
0.000391002
0.000386873
0.000382768
0.000378687
0.000374632
0.000370605
0.000366606
0.000362636
0.000358697
0.000354789
0.000350913
0.000347068
0.000343257
0.000339478
0.000335731
0.000332017
0.000328336
0.000324688
0.000321071
0.000317486
0.000313932
0.000310409
0.000306915
0.000303451
0.000300015
0.000296607
0.000293225
0.000289869
0.000286538
0.00028323
0.000279944
0.00027668
0.000273437
0.000270212
0.000267005
0.000263815
0.000260639
0.000257479
0.00025433
0.000251194
0.000248067
0.000244949
0.000241839
0.000238735
0.000235635
0.000232539
0.000229445
0.000226351
0.000223256
0.000220158
0.000217056
0.000213948
0.000210833
0.000207708
0.000204573
0.000201424
0.00019826
0.000195078
0.000191877
0.000188653
0.000185402
0.000182123
0.000178814
0.000175471
0.000172091
0.000168668
0.000165199
0.000161674
0.000158089
0.000154436
0.000150708
0.000146895
0.000142987
0.00013897
0.00013483
0.000130549
0.000126105
0.00012147
0.000116613
0.00011149
0.000106046
0.00010021
9.38802e-05
8.69129e-05
7.90893e-05
7.00507e-05
5.91443e-05
4.49716e-05
2.41748e-05
1.05282e-06
9.15649e-06
6.79441e-05
0.000112432
0.000143514
0.000167742
0.000187936
0.000205415
0.000221125
0.000235576
0.000249083
0.000261838
0.000273995
0.000285667
0.000296918
0.000307799
0.000318348
0.000328595
0.000338563
0.000348268
0.000357725
0.000366943
0.000375929
0.000384689
0.000393226
0.000401542
0.000409638
0.000417515
0.000425171
0.000432605
0.000439815
0.000446799
0.000453553
0.000460074
0.000466356
0.000472396
0.000478184
0.000483713
0.000488967
0.000493928
0.000498563
0.000502818
0.000506587
0.000509647
0.000511538
0.000511467
0.000508743
0.000504666
0.000500339
0.000491451
0.000467489
0.000420264
0.000429273
0.000486856
0.00050892
0.000502947
0.000500732
0.000501043
0.000504194
0.000517137
0.000519019
0.000517536
0.000518283
0.000519949
0.000517892
0.000510593
0.000503202
0.000510578
0.000511899
0.000493667
0.000475083
0.000424255
0.000427536
0.000480399
0.000502183
0.000510518
0.000515297
0.000517263
0.000517003
0.000515378
0.000513007
0.00051022
0.000507177
0.000503954
0.000500591
0.000497111
0.000493529
0.000489859
0.00048611
0.00048229
0.000478405
0.000474464
0.000470471
0.000466433
0.000462355
0.000458242
0.000454099
0.000449931
0.000445741
0.000441534
0.000437314
0.000433085
0.000428851
0.000424614
0.000420379
0.000416148
0.000411924
0.00040771
0.000403509
0.000399323
0.000395154
0.000391004
0.000386876
0.00038277
0.000378689
0.000374634
0.000370607
0.000366608
0.000362638
0.000358699
0.000354791
0.000350915
0.00034707
0.000343259
0.000339479
0.000335733
0.000332019
0.000328338
0.000324689
0.000321073
0.000317488
0.000313934
0.00031041
0.000306917
0.000303453
0.000300017
0.000296608
0.000293227
0.00028987
0.000286539
0.000283231
0.000279946
0.000276682
0.000273438
0.000270213
0.000267006
0.000263816
0.000260641
0.00025748
0.000254332
0.000251195
0.000248068
0.00024495
0.00024184
0.000238736
0.000235636
0.00023254
0.000229446
0.000226352
0.000223257
0.000220159
0.000217057
0.000213949
0.000210834
0.000207709
0.000204574
0.000201425
0.000198261
0.000195079
0.000191878
0.000188653
0.000185403
0.000182124
0.000178815
0.000175472
0.000172092
0.000168669
0.000165199
0.000161675
0.000158089
0.000154436
0.000150708
0.000146895
0.000142987
0.000138971
0.000134831
0.00013055
0.000126105
0.000121471
0.000116613
0.00011149
0.000106047
0.00010021
9.38805e-05
8.69132e-05
7.90895e-05
7.00509e-05
5.91444e-05
4.49717e-05
2.41748e-05
1.05282e-06
1.61709e-05
0.000108889
0.000195653
0.000260883
0.000311678
0.000352895
0.000387611
0.000417783
0.000444641
0.000469007
0.000491441
0.000512333
0.000531966
0.000550539
0.0005682
0.000585062
0.000601214
0.000616724
0.000631648
0.000646031
0.000659909
0.00067331
0.000686259
0.000698775
0.000710874
0.00072257
0.000733873
0.000744792
0.000755335
0.000765508
0.000775315
0.000784759
0.000793843
0.000802567
0.000810931
0.000818932
0.000826562
0.000833807
0.000840639
0.000847003
0.000852771
0.000857626
0.000860767
0.000860311
0.000852764
0.000835252
0.000816817
0.000808157
0.000811001
0.000824439
0.000840492
0.000854531
0.000863323
0.000851269
0.000778055
0.000756341
0.000753833
0.000765925
0.000832092
0.000845231
0.000841192
0.000847991
0.000862721
0.000871964
0.000873824
0.000872668
0.000871952
0.000859597
0.00079772
0.000843914
0.000856302
0.000853991
0.000845481
0.000837388
0.000843886
0.000859929
0.000871471
0.000876047
0.000876124
0.000873969
0.000870783
0.000867085
0.000863083
0.000858867
0.000854476
0.000849936
0.000845263
0.000840469
0.000835564
0.000830557
0.000825457
0.000820271
0.000815006
0.000809668
0.000804263
0.000798799
0.000793279
0.00078771
0.000782098
0.000776445
0.000770759
0.000765043
0.000759302
0.00075354
0.000747761
0.000741969
0.000736168
0.000730361
0.000724551
0.000718742
0.000712937
0.000707138
0.000701348
0.000695569
0.000689803
0.000684053
0.00067832
0.000672606
0.000666913
0.000661241
0.000655591
0.000649965
0.000644364
0.000638787
0.000633236
0.00062771
0.00062221
0.000616736
0.000611288
0.000605864
0.000600466
0.000595092
0.000589741
0.000584413
0.000579108
0.000573823
0.000568558
0.000563312
0.000558083
0.00055287
0.000547671
0.000542486
0.000537312
0.000532148
0.000526993
0.000521843
0.000516698
0.000511556
0.000506414
0.000501271
0.000496124
0.000490972
0.000485812
0.000480642
0.000475459
0.000470261
0.000465046
0.00045981
0.000454552
0.000449267
0.000443953
0.000438607
0.000433225
0.000427803
0.000422338
0.000416825
0.00041126
0.000405637
0.000399951
0.000394196
0.000388365
0.00038245
0.000376447
0.000370348
0.000364142
0.000357818
0.000351364
0.000344764
0.000338
0.000331056
0.000323909
0.000316537
0.000308909
0.000300993
0.000292746
0.000284122
0.000275059
0.000265484
0.000255307
0.000244408
0.000232636
0.000219786
0.00020558
0.000189617
0.000171304
0.000149707
0.000123264
8.92389e-05
4.36338e-05
2.15492e-06
1.61693e-05
0.000108889
0.000195657
0.000260887
0.000311683
0.000352899
0.000387615
0.000417787
0.000444645
0.000469011
0.000491445
0.000512337
0.00053197
0.000550544
0.000568205
0.000585067
0.000601218
0.000616728
0.000631653
0.000646036
0.000659913
0.000673314
0.000686263
0.000698779
0.000710879
0.000722574
0.000733877
0.000744797
0.00075534
0.000765513
0.000775319
0.000784763
0.000793847
0.000802572
0.000810936
0.000818936
0.000826566
0.000833811
0.000840648
0.000847037
0.000852902
0.000858103
0.00086234
0.000865006
0.000865089
0.000861945
0.000857407
0.000852808
0.000844324
0.000823391
0.000800207
0.000811554
0.000846772
0.000865461
0.000865697
0.000864735
0.000864995
0.000866647
0.000872791
0.000873033
0.000871391
0.000872371
0.000874032
0.000871267
0.00086296
0.000861071
0.000868243
0.000871263
0.000858593
0.000837119
0.000809031
0.000814185
0.000844072
0.000861006
0.000869717
0.000875511
0.000878398
0.000878593
0.000876943
0.000874208
0.000870848
0.000867103
0.00086309
0.000858871
0.00085448
0.00084994
0.000845267
0.000840472
0.000835567
0.00083056
0.00082546
0.000820274
0.000815009
0.000809671
0.000804266
0.000798802
0.000793282
0.000787713
0.0007821
0.000776448
0.000770762
0.000765046
0.000759304
0.000753542
0.000747763
0.000741971
0.00073617
0.000730363
0.000724553
0.000718744
0.000712939
0.00070714
0.00070135
0.000695571
0.000689805
0.000684055
0.000678322
0.000672608
0.000666914
0.000661242
0.000655593
0.000649967
0.000644365
0.000638788
0.000633237
0.000627711
0.000622212
0.000616737
0.000611289
0.000605865
0.000600467
0.000595093
0.000589742
0.000584414
0.000579109
0.000573824
0.000568559
0.000563312
0.000558083
0.000552871
0.000547672
0.000542487
0.000537313
0.000532149
0.000526993
0.000521844
0.000516699
0.000511556
0.000506415
0.000501272
0.000496125
0.000490973
0.000485813
0.000480642
0.00047546
0.000470262
0.000465046
0.000459811
0.000454552
0.000449267
0.000443953
0.000438607
0.000433225
0.000427803
0.000422338
0.000416825
0.00041126
0.000405637
0.000399951
0.000394196
0.000388365
0.00038245
0.000376447
0.000370348
0.000364142
0.000357818
0.000351364
0.000344764
0.000338
0.000331056
0.000323909
0.000316537
0.000308909
0.000300993
0.000292746
0.000284122
0.000275059
0.000265484
0.000255307
0.000244408
0.000232636
0.000219786
0.00020558
0.000189617
0.000171304
0.000149707
0.000123264
8.9239e-05
4.36336e-05
2.15492e-06
2.27697e-05
0.00013831
0.000257463
0.00035397
0.000431912
0.000496161
0.000550479
0.000597479
0.000638962
0.00067619
0.000710064
0.000741234
0.000770181
0.00079726
0.000822741
0.000846833
0.000869699
0.00089147
0.000912251
0.000932127
0.000951167
0.000969431
0.000986966
0.00100381
0.00102001
0.00103558
0.00105055
0.00106495
0.00107879
0.00109208
0.00110485
0.0011171
0.00112885
0.0011401
0.00115085
0.00116111
0.00117088
0.00118013
0.00118884
0.00119695
0.00120434
0.00121077
0.00121564
0.0012177
0.00121473
0.00120553
0.00119543
0.00119075
0.00119351
0.00120293
0.00121358
0.00122244
0.00122862
0.00122837
0.00121159
0.00120397
0.00120277
0.00120574
0.00122065
0.00122223
0.00121952
0.00122325
0.00123132
0.00123693
0.00123851
0.0012387
0.00124007
0.00123889
0.00122412
0.00123184
0.00123391
0.00123099
0.00122486
0.0012199
0.00122327
0.00123202
0.00123875
0.00124121
0.00124038
0.00123765
0.0012339
0.00122957
0.00122487
0.00121989
0.00121468
0.00120928
0.0012037
0.00119796
0.00119207
0.00118604
0.00117989
0.00117361
0.00116722
0.00116073
0.00115413
0.00114745
0.00114069
0.00113384
0.00112692
0.00111994
0.0011129
0.0011058
0.00109865
0.00109146
0.00108423
0.00107696
0.00106966
0.00106234
0.00105499
0.00104763
0.00104025
0.00103286
0.00102546
0.00101805
0.00101064
0.00100324
0.000995831
0.000988431
0.000981037
0.000973651
0.000966275
0.00095891
0.000951557
0.000944217
0.000936891
0.000929579
0.000922282
0.000914999
0.000907731
0.000900478
0.000893238
0.000886012
0.000878799
0.000871598
0.000864408
0.000857227
0.000850055
0.00084289
0.000835731
0.000828576
0.000821422
0.000814269
0.000807115
0.000799956
0.000792791
0.000785618
0.000778434
0.000771237
0.000764024
0.000756791
0.000749538
0.000742259
0.000734953
0.000727615
0.000720243
0.000712832
0.000705379
0.000697881
0.000690331
0.000682727
0.000675063
0.000667334
0.000659535
0.000651659
0.0006437
0.000635652
0.000627506
0.000619254
0.000610886
0.000602394
0.000593765
0.000584987
0.000576049
0.000566937
0.000557634
0.000548121
0.000538375
0.00052837
0.000518077
0.000507464
0.000496495
0.000485125
0.000473304
0.000460973
0.000448059
0.000434476
0.00042012
0.000404863
0.000388546
0.000370965
0.000351863
0.000330897
0.000307611
0.000281374
0.000251289
0.000216041
0.000173667
0.000121323
5.67493e-05
3.23746e-06
2.277e-05
0.000138313
0.000257467
0.000353975
0.000431918
0.000496167
0.000550485
0.000597485
0.000638968
0.000676197
0.00071007
0.00074124
0.000770187
0.000797266
0.000822747
0.000846839
0.000869705
0.000891476
0.000912257
0.000932133
0.000951173
0.000969437
0.000986972
0.00100382
0.00102001
0.00103558
0.00105056
0.00106495
0.00107879
0.00109209
0.00110486
0.00111711
0.00112886
0.0011401
0.00115086
0.00116112
0.00117088
0.00118013
0.00118883
0.00119694
0.00120437
0.00121098
0.00121652
0.00122055
0.00122241
0.0012218
0.00122008
0.00121862
0.00121627
0.00120883
0.00120088
0.00120587
0.00121982
0.00122887
0.00123075
0.00123124
0.00123212
0.00123338
0.00123559
0.00123546
0.00123469
0.00123573
0.00123756
0.00123704
0.00123362
0.00123332
0.00123744
0.00124034
0.00123666
0.00122707
0.00121517
0.00121591
0.00122632
0.00123375
0.00123847
0.00124193
0.00124356
0.00124312
0.00124104
0.00123785
0.00123396
0.00122959
0.00122488
0.00121989
0.00121469
0.00120929
0.00120371
0.00119797
0.00119208
0.00118605
0.00117989
0.00117361
0.00116722
0.00116073
0.00115414
0.00114745
0.00114069
0.00113384
0.00112693
0.00111994
0.0011129
0.0011058
0.00109865
0.00109146
0.00108423
0.00107696
0.00106967
0.00106234
0.00105499
0.00104763
0.00104025
0.00103286
0.00102546
0.00101805
0.00101065
0.00100324
0.000995833
0.000988432
0.000981038
0.000973652
0.000966276
0.000958911
0.000951558
0.000944218
0.000936892
0.00092958
0.000922283
0.000915
0.000907732
0.000900478
0.000893239
0.000886013
0.0008788
0.000871598
0.000864408
0.000857227
0.000850055
0.00084289
0.000835731
0.000828576
0.000821422
0.000814269
0.000807115
0.000799956
0.000792791
0.000785618
0.000778434
0.000771237
0.000764024
0.000756791
0.000749537
0.000742259
0.000734952
0.000727615
0.000720242
0.000712832
0.000705379
0.00069788
0.000690331
0.000682727
0.000675063
0.000667334
0.000659535
0.000651659
0.0006437
0.000635651
0.000627505
0.000619253
0.000610886
0.000602394
0.000593765
0.000584987
0.000576049
0.000566937
0.000557634
0.00054812
0.000538374
0.000528369
0.000518076
0.000507464
0.000496494
0.000485124
0.000473304
0.000460972
0.000448058
0.000434476
0.00042012
0.000404863
0.000388545
0.000370965
0.000351862
0.000330897
0.000307611
0.000281374
0.000251289
0.000216041
0.000173667
0.000121323
5.6749e-05
3.23746e-06
2.9092e-05
0.000162159
0.000306453
0.000429402
0.000531993
0.000618374
0.000692262
0.000756514
0.000813255
0.000864057
0.000910089
0.000952224
0.000991126
0.0010273
0.00106113
0.00109293
0.00112295
0.00115137
0.00117835
0.00120403
0.00122851
0.00125188
0.00127422
0.00129559
0.00131605
0.00133565
0.00135442
0.0013724
0.00138963
0.00140613
0.00142192
0.00143704
0.00145148
0.00146528
0.00147844
0.00149097
0.00150286
0.0015141
0.00152467
0.00153451
0.00154353
0.00155157
0.00155832
0.00156321
0.00156528
0.00156411
0.00156185
0.00156141
0.00156407
0.00156956
0.00157552
0.00158035
0.00158385
0.00158554
0.0015836
0.00158298
0.00158388
0.00158561
0.00158912
0.00158934
0.00158847
0.0015901
0.00159364
0.00159645
0.00159761
0.00159811
0.0015991
0.00159959
0.00159682
0.00159762
0.00159751
0.0015958
0.00159264
0.00158987
0.00159032
0.00159304
0.00159496
0.00159474
0.00159257
0.00158906
0.00158469
0.00157974
0.00157439
0.00156871
0.00156276
0.00155656
0.00155016
0.00154355
0.00153675
0.00152979
0.00152266
0.00151538
0.00150795
0.00150039
0.0014927
0.0014849
0.00147698
0.00146896
0.00146083
0.00145262
0.00144432
0.00143594
0.00142749
0.00141897
0.00141039
0.00140175
0.00139306
0.00138432
0.00137554
0.00136672
0.00135786
0.00134898
0.00134007
0.00133114
0.00132219
0.00131322
0.00130424
0.00129525
0.00128624
0.00127724
0.00126822
0.00125921
0.00125019
0.00124117
0.00123215
0.00122313
0.00121411
0.00120509
0.00119608
0.00118707
0.00117805
0.00116904
0.00116003
0.00115101
0.00114199
0.00113297
0.00112395
0.00111491
0.00110587
0.00109681
0.00108775
0.00107866
0.00106956
0.00106044
0.0010513
0.00104213
0.00103293
0.0010237
0.00101443
0.00100513
0.000995776
0.00098638
0.000976932
0.00096743
0.000957867
0.000948239
0.000938542
0.000928769
0.000918914
0.000908972
0.000898935
0.000888797
0.00087855
0.000868184
0.000857692
0.000847063
0.000836286
0.000825349
0.000814239
0.000802942
0.000791441
0.000779718
0.000767756
0.000755533
0.000743024
0.000730202
0.000717034
0.000703483
0.000689506
0.000675056
0.000660079
0.000644512
0.00062828
0.000611295
0.000593455
0.000574635
0.000554686
0.000533426
0.00051063
0.000486019
0.000459239
0.000429833
0.000397208
0.000360569
0.000318845
0.000270565
0.000213742
0.000145968
6.68703e-05
4.28685e-06
2.90925e-05
0.000162162
0.000306457
0.000429408
0.000531999
0.000618381
0.000692269
0.000756521
0.000813263
0.000864066
0.000910097
0.000952233
0.000991134
0.00102731
0.00106114
0.00109294
0.00112296
0.00115137
0.00117836
0.00120404
0.00122852
0.00125189
0.00127423
0.0012956
0.00131606
0.00133566
0.00135443
0.00137241
0.00138964
0.00140614
0.00142193
0.00143704
0.00145149
0.00146529
0.00147845
0.00149097
0.00150286
0.0015141
0.00152465
0.00153447
0.00154347
0.00155152
0.00155846
0.00156405
0.00156801
0.0015703
0.00157166
0.00157301
0.00157431
0.00157414
0.00157335
0.0015758
0.00158084
0.0015847
0.00158644
0.00158768
0.00158911
0.00159063
0.00159209
0.0015926
0.00159284
0.00159397
0.00159572
0.00159663
0.00159621
0.00159649
0.00159825
0.00159974
0.00159912
0.00159612
0.0015919
0.00159108
0.00159338
0.00159534
0.00159668
0.00159751
0.00159731
0.00159574
0.00159294
0.00158918
0.00158472
0.00157976
0.00157439
0.00156871
0.00156276
0.00155657
0.00155016
0.00154355
0.00153676
0.00152979
0.00152266
0.00151538
0.00150795
0.00150039
0.00149271
0.0014849
0.00147698
0.00146896
0.00146084
0.00145262
0.00144432
0.00143594
0.00142749
0.00141897
0.00141039
0.00140175
0.00139306
0.00138432
0.00137554
0.00136672
0.00135787
0.00134898
0.00134007
0.00133114
0.00132219
0.00131322
0.00130424
0.00129525
0.00128624
0.00127724
0.00126822
0.00125921
0.00125019
0.00124117
0.00123215
0.00122313
0.00121411
0.00120509
0.00119608
0.00118707
0.00117805
0.00116904
0.00116003
0.00115101
0.00114199
0.00113297
0.00112395
0.00111491
0.00110587
0.00109681
0.00108775
0.00107866
0.00106956
0.00106044
0.0010513
0.00104213
0.00103293
0.0010237
0.00101443
0.00100512
0.000995775
0.000986379
0.000976932
0.000967429
0.000957866
0.000948239
0.000938541
0.000928768
0.000918914
0.000908971
0.000898935
0.000888797
0.000878549
0.000868184
0.000857692
0.000847062
0.000836285
0.000825348
0.000814239
0.000802941
0.00079144
0.000779717
0.000767755
0.000755532
0.000743024
0.000730201
0.000717033
0.000703482
0.000689505
0.000675055
0.000660078
0.000644511
0.000628279
0.000611294
0.000593454
0.000574634
0.000554685
0.000533425
0.00051063
0.000486019
0.000459238
0.000429833
0.000397207
0.000360569
0.000318845
0.000270566
0.000213742
0.000145968
6.687e-05
4.28686e-06
3.52598e-05
0.00018263
0.000347204
0.000492533
0.000616982
0.000723708
0.000816108
0.000897049
0.000968801
0.00103312
0.00109138
0.0011446
0.00119362
0.00123906
0.00128143
0.00132111
0.00135843
0.00139365
0.00142697
0.00145858
0.00148861
0.00151719
0.00154443
0.0015704
0.0015952
0.00161887
0.00164149
0.0016631
0.00168375
0.00170347
0.00172231
0.00174029
0.00175744
0.00177378
0.00178933
0.0018041
0.0018181
0.00183131
0.00184372
0.00185529
0.00186594
0.00187557
0.00188406
0.00189116
0.00189659
0.00190024
0.00190291
0.00190572
0.00190932
0.00191367
0.00191799
0.00192163
0.00192456
0.00192687
0.00192839
0.00193002
0.00193192
0.00193386
0.00193581
0.00193671
0.0019371
0.00193811
0.00193969
0.00194106
0.00194179
0.00194215
0.00194252
0.00194269
0.00194198
0.0019416
0.00194093
0.00193969
0.00193782
0.00193585
0.00193472
0.00193417
0.0019331
0.00193091
0.00192755
0.00192325
0.00191824
0.00191268
0.0019067
0.00190036
0.0018937
0.00188677
0.00187959
0.00187217
0.00186454
0.0018567
0.00184866
0.00184045
0.00183206
0.00182351
0.00181481
0.00180596
0.00179697
0.00178785
0.00177861
0.00176925
0.00175978
0.00175021
0.00174055
0.00173079
0.00172095
0.00171103
0.00170105
0.00169099
0.00168087
0.0016707
0.00166047
0.00165019
0.00163987
0.00162952
0.00161912
0.00160869
0.00159824
0.00158775
0.00157724
0.00156671
0.00155616
0.00154559
0.00153501
0.00152441
0.00151379
0.00150316
0.00149252
0.00148187
0.0014712
0.00146052
0.00144982
0.00143912
0.00142839
0.00141766
0.0014069
0.00139612
0.00138533
0.00137451
0.00136366
0.00135279
0.00134189
0.00133095
0.00131999
0.00130898
0.00129793
0.00128683
0.00127569
0.00126449
0.00125323
0.00124192
0.00123054
0.00121908
0.00120755
0.00119594
0.00118424
0.00117245
0.00116056
0.00114856
0.00113645
0.00112421
0.00111184
0.00109933
0.00108667
0.00107385
0.00106085
0.00104767
0.00103429
0.00102068
0.00100685
0.000992757
0.000978392
0.000963729
0.000948742
0.000933403
0.000917679
0.000901532
0.000884921
0.000867796
0.000850101
0.000831774
0.000812744
0.000792927
0.000772225
0.000750525
0.000727693
0.000703568
0.00067796
0.000650639
0.000621323
0.000589667
0.000555241
0.000517503
0.000475764
0.000429138
0.000376475
0.000316294
0.000246765
0.000166048
7.53245e-05
5.31145e-06
3.52602e-05
0.000182633
0.000347208
0.000492539
0.000616989
0.000723716
0.000816117
0.000897058
0.00096881
0.00103313
0.00109139
0.00114461
0.00119363
0.00123907
0.00128144
0.00132112
0.00135844
0.00139366
0.00142698
0.00145859
0.00148862
0.0015172
0.00154444
0.00157041
0.0015952
0.00161888
0.0016415
0.00166311
0.00168376
0.00170348
0.00172232
0.0017403
0.00175745
0.00177379
0.00178934
0.00180411
0.0018181
0.00183131
0.00184371
0.00185525
0.00186585
0.00187544
0.00188389
0.00189111
0.00189703
0.00190172
0.0019056
0.00190917
0.0019126
0.00191553
0.00191794
0.00192069
0.00192377
0.00192641
0.00192841
0.00193023
0.00193209
0.00193389
0.00193546
0.00193653
0.00193738
0.0019385
0.00193988
0.001941
0.00194149
0.00194186
0.00194243
0.00194281
0.00194249
0.00194129
0.00193949
0.00193832
0.0019379
0.00193745
0.00193677
0.00193572
0.00193398
0.0019313
0.0019277
0.0019233
0.00191825
0.00191269
0.0019067
0.00190036
0.00189371
0.00188678
0.00187959
0.00187218
0.00186454
0.0018567
0.00184867
0.00184045
0.00183206
0.00182351
0.00181481
0.00180596
0.00179697
0.00178785
0.00177861
0.00176925
0.00175978
0.00175021
0.00174055
0.00173079
0.00172095
0.00171104
0.00170105
0.00169099
0.00168087
0.0016707
0.00166047
0.0016502
0.00163988
0.00162952
0.00161912
0.00160869
0.00159824
0.00158775
0.00157724
0.00156671
0.00155616
0.00154559
0.00153501
0.00152441
0.00151379
0.00150316
0.00149252
0.00148187
0.0014712
0.00146052
0.00144983
0.00143912
0.00142839
0.00141766
0.0014069
0.00139612
0.00138533
0.00137451
0.00136366
0.00135279
0.00134189
0.00133095
0.00131999
0.00130898
0.00129793
0.00128683
0.00127569
0.00126449
0.00125323
0.00124192
0.00123054
0.00121908
0.00120755
0.00119594
0.00118424
0.00117245
0.00116056
0.00114856
0.00113645
0.00112421
0.00111184
0.00109933
0.00108667
0.00107385
0.00106085
0.00104767
0.00103428
0.00102068
0.00100685
0.000992757
0.000978392
0.000963729
0.000948741
0.000933402
0.000917678
0.000901532
0.00088492
0.000867795
0.0008501
0.000831774
0.000812744
0.000792926
0.000772225
0.000750525
0.000727692
0.000703567
0.000677959
0.000650638
0.000621322
0.000589666
0.00055524
0.000517503
0.000475764
0.000429138
0.000376475
0.000316295
0.000246765
0.000166049
7.53242e-05
5.31146e-06
4.13021e-05
0.000200811
0.000382437
0.000546958
0.000690701
0.000815836
0.000925349
0.00102199
0.00110807
0.00118545
0.00125561
0.00131972
0.00137871
0.00143333
0.00148417
0.0015317
0.00157631
0.00161831
0.00165797
0.0016955
0.00173109
0.00176488
0.001797
0.00182758
0.00185671
0.00188446
0.00191092
0.00193615
0.0019602
0.00198314
0.002005
0.00202583
0.00204565
0.00206451
0.00208243
0.00209942
0.00211549
0.00213065
0.00214489
0.00215817
0.00217046
0.00218171
0.00219183
0.00220077
0.00220846
0.00221494
0.00222053
0.00222566
0.00223064
0.0022355
0.00224004
0.00224404
0.00224751
0.00225056
0.00225323
0.00225574
0.00225811
0.00226029
0.00226219
0.00226357
0.00226454
0.00226545
0.00226635
0.00226705
0.00226742
0.0022675
0.00226739
0.00226705
0.00226632
0.00226541
0.00226425
0.00226278
0.00226093
0.00225882
0.00225668
0.00225442
0.00225167
0.00224816
0.00224385
0.00223882
0.00223317
0.00222701
0.00222041
0.00221342
0.0022061
0.00219846
0.00219054
0.00218236
0.00217392
0.00216526
0.00215637
0.00214728
0.00213798
0.0021285
0.00211884
0.00210901
0.00209901
0.00208887
0.00207857
0.00206814
0.00205758
0.00204689
0.00203609
0.00202518
0.00201416
0.00200305
0.00199184
0.00198055
0.00196918
0.00195774
0.00194622
0.00193465
0.00192301
0.00191131
0.00189957
0.00188777
0.00187593
0.00186405
0.00185213
0.00184017
0.00182818
0.00181615
0.0018041
0.00179202
0.0017799
0.00176776
0.0017556
0.0017434
0.00173118
0.00171893
0.00170666
0.00169435
0.00168202
0.00166965
0.00165725
0.00164482
0.00163235
0.00161984
0.0016073
0.0015947