/*--------------------------------*- C++ -*----------------------------------*\
  =========                 |
  \\      /  F ield         | OpenFOAM: The Open Source CFD Toolbox
   \\    /   O peration     | Website:  https://openfoam.org
    \\  /    A nd           | Version:  8
     \\/     M anipulation  |
\*---------------------------------------------------------------------------*/
FoamFile
{
    version     2.0;
    format      ascii;
    class       surfaceScalarField;
    location    "4700";
    object      phi;
}
// * * * * * * * * * * * * * * * * * * * * * * * * * * * * * * * * * * * * * //

dimensions      [1 0 -1 0 0 0 0];

internalField   nonuniform List<scalar> 
114370
(
8.56223e-10
1.82294e-13
-8.56403e-10
2.06826e-09
5.40106e-12
-1.24251e-09
3.10614e-09
4.4165e-12
-1.03274e-09
3.72304e-09
2.1419e-12
-6.15874e-10
3.92451e-09
6.99452e-13
-2.01784e-10
3.76729e-09
1.0225e-13
1.5685e-10
3.31746e-09
-6.05304e-14
4.49636e-10
2.63544e-09
-7.16973e-14
6.81975e-10
1.77141e-09
-5.08939e-14
8.64027e-10
7.65494e-10
-3.21384e-14
1.00595e-09
-3.49996e-10
-1.99042e-14
1.11553e-09
-1.54834e-09
-1.21194e-14
1.1984e-09
-2.80831e-09
-6.56173e-15
1.26003e-09
-4.11353e-09
-1.69075e-15
1.30528e-09
-5.45071e-09
3.34384e-15
1.33723e-09
-6.809e-09
8.55873e-15
1.35832e-09
-8.17944e-09
1.31903e-14
1.37044e-09
-9.55456e-09
1.59518e-14
1.37509e-09
-1.09281e-08
1.55066e-14
1.37347e-09
-1.22947e-08
1.10727e-14
1.36654e-09
-1.36499e-08
3.00904e-15
1.35511e-09
-1.49898e-08
-6.80462e-15
1.33982e-09
-1.63111e-08
-1.50542e-14
1.32123e-09
-1.76109e-08
-1.77569e-14
1.2998e-09
-1.88868e-08
-1.17218e-14
1.27593e-09
-2.01366e-08
3.68047e-15
1.24995e-09
-2.13586e-08
2.52782e-14
1.22214e-09
-2.25512e-08
4.64969e-14
1.19271e-09
-2.3713e-08
6.00467e-14
1.16185e-09
-2.48427e-08
6.21655e-14
1.1297e-09
-2.59393e-08
5.59077e-14
1.09638e-09
-2.70015e-08
5.03813e-14
1.06204e-09
-2.80285e-08
5.48637e-14
1.02681e-09
-2.90194e-08
7.09321e-14
9.90808e-10
-2.99734e-08
8.86255e-14
9.5411e-10
-3.08901e-08
8.99834e-14
9.16729e-10
-3.17687e-08
5.51352e-14
8.78609e-10
-3.26083e-08
-4.00249e-14
8.39642e-10
-3.34079e-08
-2.40723e-13
7.9968e-10
-3.4166e-08
-6.39688e-13
7.58485e-10
-3.48801e-08
-1.41306e-12
7.15543e-10
-3.55468e-08
-2.89852e-12
6.69776e-10
-3.61607e-08
-5.78499e-12
6.19769e-10
-3.67173e-08
-1.15895e-11
5.67981e-10
-3.72401e-08
-2.37177e-11
5.46109e-10
-3.79266e-08
-4.52625e-11
7.31911e-10
-3.86871e-08
-4.1056e-11
8.02296e-10
-3.91126e-08
8.21583e-12
4.17965e-10
-3.95305e-08
5.17106e-11
3.65247e-10
-3.9646e-08
1.19428e-10
-4.73363e-12
-3.99342e-08
1.04075e-10
1.84614e-10
-4.03673e-08
-3.59338e-11
4.69825e-10
-4.07654e-08
-4.85207e-11
4.47477e-10
-4.10223e-08
-1.64212e-11
2.74053e-10
-4.11456e-08
-3.50026e-12
1.27178e-10
-4.12695e-08
-2.51715e-12
1.25945e-10
-4.14295e-08
-3.64248e-12
1.63885e-10
-4.1528e-08
-1.00692e-11
1.09216e-10
-4.15225e-08
-1.92198e-11
1.35816e-11
-4.17395e-08
-3.90054e-11
2.55476e-10
-4.20713e-08
-3.02214e-11
3.61532e-10
-4.16914e-08
4.09202e-11
-4.20457e-10
-4.14931e-08
4.42694e-11
-2.42388e-10
-4.15234e-08
2.61838e-11
4.30789e-12
-4.14828e-08
3.01325e-11
-7.12372e-11
-4.13809e-08
-7.13049e-13
-1.01203e-10
-4.11775e-08
-2.22221e-11
-1.80378e-10
-4.09e-08
2.95261e-13
-2.77272e-10
-4.06739e-08
1.7671e-11
-2.44498e-10
-4.05012e-08
4.93599e-11
-2.2296e-10
-4.02449e-08
4.08181e-11
-2.96531e-10
-3.98518e-08
-7.17863e-11
-3.2079e-10
-3.96974e-08
-9.56176e-11
-5.82472e-11
-3.96508e-08
-5.67555e-11
1.0287e-11
-3.89326e-08
2.43055e-11
-7.42253e-10
-3.8391e-08
3.40083e-11
-5.76115e-10
-3.80559e-08
1.63832e-11
-3.50695e-10
-3.76967e-08
7.66825e-12
-3.66053e-10
-3.72965e-08
3.56019e-12
-4.0378e-10
-3.68634e-08
1.58479e-12
-4.35235e-10
-3.64048e-08
6.93136e-13
-4.59707e-10
-3.59256e-08
3.42791e-13
-4.79526e-10
-3.54292e-08
2.11946e-13
-4.96521e-10
-3.49178e-08
1.3129e-13
-5.11718e-10
-3.43926e-08
5.70099e-14
-5.25554e-10
-3.38546e-08
9.78886e-15
-5.38173e-10
-3.33048e-08
5.82257e-15
-5.49648e-10
-3.27445e-08
2.8969e-14
-5.60084e-10
-3.21748e-08
4.76166e-14
-5.69602e-10
-3.15966e-08
4.27554e-14
-5.78291e-10
-3.10105e-08
1.85826e-14
-5.86184e-10
-3.04174e-08
-7.25725e-15
-5.9327e-10
-2.9818e-08
-1.96968e-14
-5.99529e-10
-2.9213e-08
-1.5236e-14
-6.04954e-10
-2.86033e-08
-6.13803e-16
-6.09561e-10
-2.79899e-08
1.4095e-14
-6.13384e-10
-2.73734e-08
2.17478e-14
-6.16461e-10
-2.67546e-08
2.05645e-14
-6.18822e-10
-2.61342e-08
1.30577e-14
-6.20492e-10
-2.55129e-08
3.46935e-15
-6.21485e-10
-2.48912e-08
-4.48691e-15
-6.21814e-10
-2.42698e-08
-8.7881e-15
-6.21488e-10
-2.36493e-08
-9.2143e-15
-6.20517e-10
-2.30304e-08
-6.81642e-15
-6.18917e-10
-2.24137e-08
-3.16722e-15
-6.16707e-10
-2.17997e-08
3.0174e-16
-6.13907e-10
-2.11892e-08
2.70048e-15
-6.1054e-10
-2.05825e-08
3.77086e-15
-6.06631e-10
-1.99803e-08
3.73145e-15
-6.02201e-10
-1.93831e-08
3.01533e-15
-5.97272e-10
-1.87912e-08
2.03163e-15
-5.91863e-10
-1.82053e-08
1.04474e-15
-5.85995e-10
-1.76256e-08
1.67073e-16
-5.79685e-10
-1.70527e-08
-5.72734e-16
-5.72955e-10
-1.64869e-08
-1.15956e-15
-5.65821e-10
-1.59286e-08
-1.56153e-15
-5.58301e-10
-1.53782e-08
-1.73809e-15
-5.50415e-10
-1.4836e-08
-1.6744e-15
-5.42178e-10
-1.43024e-08
-1.40731e-15
-5.33608e-10
-1.37777e-08
-1.02241e-15
-5.24722e-10
-1.32622e-08
-6.3102e-16
-5.15538e-10
-1.27561e-08
-3.35251e-16
-5.0607e-10
-1.22598e-08
-1.9409e-16
-4.96337e-10
-1.17734e-08
-2.12198e-16
-4.86354e-10
-1.12973e-08
-3.47942e-16
-4.76135e-10
-1.08316e-08
-5.32367e-16
-4.65695e-10
-1.03765e-08
-6.97601e-16
-4.55047e-10
-9.93233e-09
-7.94097e-16
-4.44206e-10
-9.49915e-09
-8.03099e-16
-4.33183e-10
-9.07716e-09
-7.33495e-16
-4.21991e-10
-8.66651e-09
-6.14236e-16
-4.10642e-10
-8.26736e-09
-4.82508e-16
-3.99149e-10
-7.87984e-09
-3.71597e-16
-3.87524e-10
-7.50406e-09
-3.03296e-16
-3.75777e-10
-7.14014e-09
-2.8541e-16
-3.63921e-10
-6.78817e-09
-3.1241e-16
-3.51968e-10
-6.44825e-09
-3.71178e-16
-3.39929e-10
-6.12044e-09
-4.42739e-16
-3.27814e-10
-5.80481e-09
-5.12132e-16
-3.15636e-10
-5.50141e-09
-5.65588e-16
-3.03407e-10
-5.21027e-09
-5.96709e-16
-2.91139e-10
-4.93144e-09
-6.04846e-16
-2.78843e-10
-4.66491e-09
-5.93034e-16
-2.66534e-10
-4.41069e-09
-5.65718e-16
-2.54224e-10
-4.16877e-09
-5.28644e-16
-2.41928e-10
-3.93911e-09
-4.88752e-16
-2.29662e-10
-3.72168e-09
-4.46801e-16
-2.1744e-10
-3.5164e-09
-4.06584e-16
-2.0528e-10
-3.32321e-09
-3.67886e-16
-1.932e-10
-3.142e-09
-3.31573e-16
-1.81217e-10
-2.97265e-09
-2.94719e-16
-1.69353e-10
-2.81503e-09
-2.55806e-16
-1.57628e-10
-2.66898e-09
-2.1429e-16
-1.46065e-10
-2.5343e-09
-1.67463e-16
-1.34686e-10
-2.4108e-09
-1.15974e-16
-1.23518e-10
-2.29823e-09
-5.75469e-17
-1.12585e-10
-2.19633e-09
7.92711e-18
-1.01916e-10
-2.1048e-09
8.05563e-17
-9.15397e-11
-2.02333e-09
1.61425e-16
-8.14864e-11
-1.95157e-09
2.4934e-16
-7.17879e-11
-1.88911e-09
3.45711e-16
-6.24773e-11
-1.83554e-09
4.49129e-16
-5.35889e-11
-1.79041e-09
5.61004e-16
-4.51586e-11
-1.75321e-09
6.81984e-16
-3.72232e-11
-1.72342e-09
8.11638e-16
-2.9821e-11
-1.70046e-09
9.5235e-16
-2.29912e-11
-1.68373e-09
1.10629e-15
-1.67739e-11
-1.67255e-09
1.27324e-15
-1.12103e-11
-1.66625e-09
1.45732e-15
-6.3424e-12
-1.66409e-09
1.65961e-15
-2.2128e-12
-1.66527e-09
1.88271e-15
1.13564e-12
-1.66898e-09
2.12729e-15
3.65969e-12
-1.67436e-09
2.39507e-15
5.31532e-12
-1.68048e-09
2.68973e-15
6.05843e-12
-1.68639e-09
3.01085e-15
5.84565e-12
-1.6911e-09
3.36276e-15
4.63428e-12
-1.69357e-09
3.74394e-15
2.38261e-12
-1.69271e-09
4.15331e-15
-9.49316e-13
-1.6874e-09
4.58589e-15
-5.39855e-12
-1.67651e-09
5.03668e-15
-1.09997e-11
-1.65884e-09
5.50026e-15
-1.77834e-11
-1.63319e-09
5.9788e-15
-2.57737e-11
-1.59835e-09
6.46949e-15
-3.49855e-11
-1.55307e-09
6.97535e-15
-4.54212e-11
-1.49617e-09
7.49011e-15
-5.70648e-11
-1.42648e-09
7.99945e-15
-6.98734e-11
-1.3429e-09
8.48255e-15
-8.37643e-11
-1.24452e-09
8.92749e-15
-9.85958e-11
-1.13061e-09
9.3384e-15
-1.14136e-10
-1.00084e-09
9.73109e-15
-1.30017e-10
-8.55446e-10
1.0124e-14
-1.45656e-10
-6.95593e-10
1.05289e-14
-1.60139e-10
-5.23873e-10
1.09712e-14
-1.72028e-10
-3.45153e-10
1.15273e-14
-1.79054e-10
-1.67858e-10
1.23184e-14
-1.77655e-10
-5.91099e-12
1.34509e-14
-1.62338e-10
1.18675e-10
1.48632e-14
-1.25015e-10
1.73898e-10
1.61263e-14
-5.57014e-11
1.27179e-10
1.62124e-14
4.61651e-11
7.01496e-15
1.26529e-10
8.71778e-10
-8.71449e-10
2.06639e-09
-1.25071e-09
3.10159e-09
-1.03634e-09
3.72087e-09
-6.1694e-10
3.92407e-09
-2.01914e-10
3.7675e-09
1.56933e-10
3.31778e-09
4.49716e-10
2.63567e-09
6.82022e-10
1.77156e-09
8.64053e-10
7.65583e-10
1.00597e-09
-3.49944e-10
1.11555e-09
-1.54831e-09
1.19841e-09
-2.8083e-09
1.26005e-09
-4.11352e-09
1.30529e-09
-5.45071e-09
1.33724e-09
-6.809e-09
1.35833e-09
-8.17943e-09
1.37045e-09
-9.55455e-09
1.37509e-09
-1.09281e-08
1.37347e-09
-1.22947e-08
1.36654e-09
-1.36499e-08
1.3551e-09
-1.49898e-08
1.33981e-09
-1.63111e-08
1.32123e-09
-1.76109e-08
1.2998e-09
-1.88867e-08
1.27594e-09
-2.01365e-08
1.24996e-09
-2.13584e-08
1.22215e-09
-2.25509e-08
1.19273e-09
-2.37127e-08
1.16186e-09
-2.48424e-08
1.12969e-09
-2.59388e-08
1.09636e-09
-2.70009e-08
1.062e-09
-2.80277e-08
1.02677e-09
-2.90183e-08
9.90754e-10
-2.9972e-08
9.54017e-10
-3.08883e-08
9.16534e-10
-3.17665e-08
8.78214e-10
-3.26057e-08
8.38927e-10
-3.34047e-08
7.98533e-10
-3.41623e-08
7.56902e-10
-3.48776e-08
7.14014e-10
-3.55504e-08
6.70345e-10
-3.61839e-08
6.27911e-10
-3.67877e-08
5.91929e-10
-3.73817e-08
5.70141e-10
-3.79828e-08
5.56281e-10
-3.85319e-08
5.08464e-10
-3.89511e-08
4.26688e-10
-3.92782e-08
3.78116e-10
-3.98205e-08
6.60941e-10
-4.05081e-08
7.88394e-10
-4.03453e-08
-2.07279e-10
-4.04523e-08
5.65465e-11
-4.08763e-08
4.07775e-10
-4.1219e-08
3.39598e-10
-4.13882e-08
1.66587e-10
-4.14597e-08
6.77461e-11
-4.1485e-08
1.48237e-11
-4.15776e-08
7.29817e-11
-4.17279e-08
1.11297e-10
-4.17974e-08
3.9819e-11
-4.17467e-08
-9.02852e-12
-4.16254e-08
-7.6866e-11
-4.14532e-08
-1.46655e-10
-4.15026e-08
7.88778e-11
-4.13707e-08
-1.32406e-10
-4.10392e-08
-3.53049e-10
-4.08883e-08
-1.50627e-10
-4.06106e-08
-2.60619e-10
-4.05183e-08
-4.31752e-11
-4.06648e-08
1.85919e-10
-4.00074e-08
-7.33842e-10
-3.9568e-08
-5.3536e-10
-3.92962e-08
-3.28315e-10
-3.88974e-08
-3.74093e-10
-3.85001e-08
-3.63403e-10
-3.81203e-08
-3.63623e-10
-3.77265e-08
-3.86418e-10
-3.73093e-08
-4.13919e-10
-3.68686e-08
-4.39169e-10
-3.64066e-08
-4.60929e-10
-3.59262e-08
-4.79792e-10
-3.54296e-08
-4.96556e-10
-3.49181e-08
-5.11731e-10
-3.43928e-08
-5.25553e-10
-3.38547e-08
-5.38139e-10
-3.33049e-08
-5.49596e-10
-3.27446e-08
-5.60045e-10
-3.21749e-08
-5.69595e-10
-3.15967e-08
-5.78311e-10
-3.10106e-08
-5.86212e-10
-3.04175e-08
-5.93288e-10
-2.9818e-08
-5.99531e-10
-2.9213e-08
-6.04944e-10
-2.86033e-08
-6.09549e-10
-2.79899e-08
-6.13378e-10
-2.73734e-08
-6.16462e-10
-2.67546e-08
-6.1883e-10
-2.61342e-08
-6.20503e-10
-2.55129e-08
-6.21497e-10
-2.48912e-08
-6.21824e-10
-2.42697e-08
-6.21494e-10
-2.36493e-08
-6.2052e-10
-2.30304e-08
-6.18918e-10
-2.24136e-08
-6.16706e-10
-2.17997e-08
-6.13905e-10
-2.11891e-08
-6.1054e-10
-2.05825e-08
-6.06632e-10
-1.99803e-08
-6.02203e-10
-1.93831e-08
-5.97274e-10
-1.87912e-08
-5.91866e-10
-1.82052e-08
-5.85998e-10
-1.76256e-08
-5.79689e-10
-1.70527e-08
-5.72958e-10
-1.64869e-08
-5.65823e-10
-1.59286e-08
-5.58304e-10
-1.53782e-08
-5.50417e-10
-1.4836e-08
-5.4218e-10
-1.43024e-08
-5.33609e-10
-1.37777e-08
-5.24723e-10
-1.32621e-08
-5.15538e-10
-1.27561e-08
-5.06071e-10
-1.22597e-08
-4.96338e-10
-1.17734e-08
-4.86355e-10
-1.12973e-08
-4.76136e-10
-1.08316e-08
-4.65696e-10
-1.03765e-08
-4.55049e-10
-9.93231e-09
-4.44207e-10
-9.49913e-09
-4.33184e-10
-9.07714e-09
-4.21992e-10
-8.6665e-09
-4.10643e-10
-8.26735e-09
-3.9915e-10
-7.87982e-09
-3.87525e-10
-7.50404e-09
-3.75779e-10
-7.14012e-09
-3.63923e-10
-6.78816e-09
-3.5197e-10
-6.44823e-09
-3.39931e-10
-6.12042e-09
-3.27816e-10
-5.80479e-09
-3.15639e-10
-5.50139e-09
-3.03409e-10
-5.21026e-09
-2.91141e-10
-4.93142e-09
-2.78845e-10
-4.66489e-09
-2.66536e-10
-4.41067e-09
-2.54226e-10
-4.16875e-09
-2.41931e-10
-3.93909e-09
-2.29664e-10
-3.72166e-09
-2.17443e-10
-3.51639e-09
-2.05283e-10
-3.32319e-09
-1.93202e-10
-3.14198e-09
-1.8122e-10
-2.97264e-09
-1.69356e-10
-2.81502e-09
-1.57631e-10
-2.66896e-09
-1.46068e-10
-2.53429e-09
-1.34689e-10
-2.41078e-09
-1.23521e-10
-2.29821e-09
-1.12588e-10
-2.19631e-09
-1.01919e-10
-2.10479e-09
-9.15433e-11
-2.02332e-09
-8.14902e-11
-1.95155e-09
-7.17919e-11
-1.88909e-09
-6.24815e-11
-1.83553e-09
-5.35933e-11
-1.7904e-09
-4.51633e-11
-1.7532e-09
-3.72282e-11
-1.72341e-09
-2.98262e-11
-1.70045e-09
-2.29967e-11
-1.68371e-09
-1.67797e-11
-1.67254e-09
-1.12165e-11
-1.66624e-09
-6.34896e-12
-1.66407e-09
-2.21975e-12
-1.66526e-09
1.12823e-12
-1.66897e-09
3.6518e-12
-1.67435e-09
5.30688e-12
-1.68047e-09
6.04939e-12
-1.68638e-09
5.83593e-12
-1.69109e-09
4.6238e-12
-1.69356e-09
2.37128e-12
-1.6927e-09
-9.61588e-13
-1.68739e-09
-5.41187e-12
-1.6765e-09
-1.10142e-11
-1.65883e-09
-1.77992e-11
-1.63319e-09
-2.57908e-11
-1.59834e-09
-3.50042e-11
-1.55307e-09
-4.54416e-11
-1.49617e-09
-5.70871e-11
-1.42647e-09
-6.98977e-11
-1.3429e-09
-8.37908e-11
-1.24452e-09
-9.86247e-11
-1.13061e-09
-1.14168e-10
-1.00084e-09
-1.30051e-10
-8.55446e-10
-1.45693e-10
-6.95594e-10
-1.60179e-10
-5.23877e-10
-1.72071e-10
-3.45157e-10
-1.79101e-10
-1.67863e-10
-1.77706e-10
-5.91849e-12
-1.62393e-10
1.18664e-10
-1.25075e-10
1.73874e-10
-5.57668e-11
1.27127e-10
4.60881e-11
1.26436e-10
1.25727e-09
-5.34197e-12
-2.08447e-09
1.97982e-09
-4.9464e-13
-1.96581e-09
2.35581e-09
3.20914e-13
-1.40803e-09
2.46009e-09
2.70067e-13
-7.20375e-10
2.3149e-09
1.0881e-13
-5.68281e-11
1.94476e-09
1.64693e-14
5.26881e-10
1.37763e-09
-1.47326e-14
1.01672e-09
6.42178e-10
-1.83373e-14
1.41743e-09
-2.3393e-10
-1.40271e-14
1.74016e-09
-1.22499e-09
-9.17194e-15
1.99704e-09
-2.30848e-09
-5.59291e-15
2.19908e-09
-3.46568e-09
-3.21679e-15
2.35566e-09
-4.68054e-09
-1.51335e-15
2.47494e-09
-5.93917e-09
-3.35581e-17
2.56396e-09
-7.22988e-09
1.43309e-15
2.62798e-09
-8.54281e-09
2.82452e-15
2.67126e-09
-9.8696e-09
3.85093e-15
2.6972e-09
-1.12031e-08
4.10203e-15
2.70856e-09
-1.25373e-08
3.21946e-15
2.70757e-09
-1.3867e-08
1.09984e-15
2.69608e-09
-1.51875e-08
-1.91625e-15
2.6756e-09
-1.64951e-08
-4.94926e-15
2.64739e-09
-1.77864e-08
-6.6762e-15
2.61252e-09
-1.90584e-08
-5.7027e-15
2.57187e-09
-2.03085e-08
-1.20213e-15
2.5262e-09
-2.15345e-08
6.38493e-15
2.47614e-09
-2.27345e-08
1.50273e-14
2.42225e-09
-2.39067e-08
2.16573e-14
2.36499e-09
-2.50497e-08
2.37353e-14
2.30477e-09
-2.6162e-08
2.11572e-14
2.24194e-09
-2.72426e-08
1.70658e-14
2.1768e-09
-2.82903e-08
1.63256e-14
2.10962e-09
-2.93041e-08
2.20491e-14
2.04064e-09
-3.02832e-08
3.27282e-14
1.97006e-09
-3.12271e-08
4.28474e-14
1.89803e-09
-3.2135e-08
4.67081e-14
1.82469e-09
-3.30066e-08
4.08104e-14
1.75013e-09
-3.38416e-08
2.08183e-14
1.6744e-09
-3.46396e-08
-2.15904e-14
1.59756e-09
-3.54007e-08
-8.7481e-14
1.51974e-09
-3.6126e-08
-1.36083e-13
1.44113e-09
-3.68184e-08
-2.82198e-14
1.36225e-09
-3.74837e-08
5.78693e-13
1.28443e-09
-3.81304e-08
2.56964e-12
1.21199e-09
-3.87523e-08
8.93983e-12
1.15943e-09
-3.92062e-08
2.63536e-11
1.16008e-09
-3.95459e-08
3.12616e-11
1.11113e-09
-4.00736e-08
1.5573e-12
9.43546e-10
-4.05103e-08
-2.61945e-11
8.28097e-10
-4.11005e-08
-8.13622e-11
6.67279e-10
-4.14879e-08
-7.09946e-11
6.43173e-10
-4.1716e-08
2.80731e-11
6.69104e-10
-4.19221e-08
3.51567e-11
6.19379e-10
-4.2167e-08
1.03096e-11
5.08792e-10
-4.24401e-08
2.02364e-12
3.97814e-10
-4.26498e-08
1.68706e-12
3.34198e-10
-4.27789e-08
1.50304e-12
2.92183e-10
-4.2897e-08
3.90184e-12
2.23292e-10
-4.30354e-08
9.4013e-12
1.42091e-10
-4.29616e-08
2.55125e-11
1.55686e-10
-4.27335e-08
2.2545e-11
1.11337e-10
-4.29936e-08
-2.89275e-11
-1.31528e-10
-4.30428e-08
-2.75335e-11
-1.65949e-10
-4.28771e-08
-1.40569e-11
-1.48008e-10
-4.27133e-08
-1.94692e-11
-2.15583e-10
-4.25407e-08
1.89012e-12
-2.75057e-10
-4.23947e-08
1.6072e-11
-3.42075e-10
-4.22545e-08
-9.29271e-13
-4.16746e-10
-4.2033e-08
-1.19541e-11
-4.54001e-10
-4.17403e-08
-3.66954e-11
-4.78226e-10
-4.14741e-08
-3.14806e-11
-5.31481e-10
-4.12659e-08
5.21477e-11
-5.82159e-10
-4.08312e-08
6.59645e-11
-5.58348e-10
-4.02389e-08
3.32363e-11
-6.14904e-10
-4.01261e-08
-2.42055e-11
-8.31632e-10
-3.9845e-08
-2.27422e-11
-8.34305e-10
-3.93945e-08
-6.82345e-12
-7.93786e-10
-3.89433e-08
-1.89593e-12
-8.15424e-10
-3.84929e-08
-5.24601e-13
-8.54192e-10
-3.80341e-08
-1.10546e-13
-8.94364e-10
-3.75617e-08
1.65563e-14
-9.32081e-10
-3.70745e-08
5.66654e-14
-9.66764e-10
-3.65726e-08
5.59508e-14
-9.98652e-10
-3.60565e-08
3.20025e-14
-1.02804e-09
-3.55271e-08
7.96081e-15
-1.05515e-09
-3.49849e-08
7.16359e-16
-1.08015e-09
-3.44312e-08
9.25636e-15
-1.10319e-09
-3.38668e-08
2.0282e-14
-1.12439e-09
-3.32926e-08
2.22209e-14
-1.14385e-09
-3.27094e-08
1.36076e-14
-1.1616e-09
-3.21181e-08
1.2354e-15
-1.17768e-09
-3.15193e-08
-6.9935e-15
-1.19211e-09
-3.09139e-08
-7.60965e-15
-1.20491e-09
-3.03026e-08
-2.39976e-15
-1.21613e-09
-2.96863e-08
4.2403e-15
-1.2258e-09
-2.90658e-08
8.4979e-15
-1.23395e-09
-2.84416e-08
8.85618e-15
-1.24062e-09
-2.78147e-08
6.01649e-15
-1.24585e-09
-2.71857e-08
1.81781e-15
-1.24966e-09
-2.65552e-08
-1.91502e-15
-1.25209e-09
-2.59239e-08
-4.06803e-15
-1.25318e-09
-2.52925e-08
-4.40007e-15
-1.25295e-09
-2.46616e-08
-3.33747e-15
-1.25144e-09
-2.40318e-08
-1.61613e-15
-1.24869e-09
-2.34037e-08
5.51361e-17
-1.24474e-09
-2.2778e-08
1.21393e-15
-1.23962e-09
-2.21551e-08
1.70955e-15
-1.23338e-09
-2.15357e-08
1.64273e-15
-1.22605e-09
-2.09203e-08
1.23794e-15
-1.21767e-09
-2.03093e-08
7.20562e-16
-1.20828e-09
-1.97033e-08
2.42293e-16
-1.19791e-09
-1.91027e-08
-1.31785e-16
-1.18662e-09
-1.8508e-08
-3.94759e-16
-1.17442e-09
-1.79196e-08
-5.60507e-16
-1.16137e-09
-1.73379e-08
-6.38489e-16
-1.1475e-09
-1.67634e-08
-6.29572e-16
-1.13284e-09
-1.61964e-08
-5.36331e-16
-1.11743e-09
-1.56373e-08
-3.74298e-16
-1.10131e-09
-1.50864e-08
-1.75944e-16
-1.0845e-09
-1.4544e-08
1.74765e-17
-1.06705e-09
-1.40106e-08
1.67231e-16
-1.04898e-09
-1.34864e-08
2.50578e-16
-1.03032e-09
-1.29716e-08
2.65132e-16
-1.01111e-09
-1.24666e-08
2.27617e-16
-9.91378e-10
-1.19716e-08
1.65085e-16
-9.7115e-10
-1.14868e-08
1.05262e-16
-9.50454e-10
-1.10125e-08
6.85605e-17
-9.29318e-10
-1.0549e-08
6.32734e-17
-9.07769e-10
-1.00963e-08
8.6609e-17
-8.85831e-10
-9.65478e-09
1.2778e-16
-8.6353e-10
-9.22453e-09
1.73206e-16
-8.40889e-10
-8.80575e-09
2.10988e-16
-8.17934e-10
-8.39859e-09
2.32887e-16
-7.94686e-10
-8.0032e-09
2.37058e-16
-7.7117e-10
-7.61971e-09
2.25536e-16
-7.47408e-10
-7.24826e-09
2.03957e-16
-7.23423e-10
-6.88896e-09
1.78964e-16
-6.99237e-10
-6.54191e-09
1.5649e-16
-6.74875e-10
-6.20719e-09
1.40359e-16
-6.50358e-10
-5.88489e-09
1.32495e-16
-6.25712e-10
-5.57508e-09
1.32735e-16
-6.00961e-10
-5.2778e-09
1.39047e-16
-5.76129e-10
-4.99309e-09
1.49613e-16
-5.51245e-10
-4.72099e-09
1.61508e-16
-5.26334e-10
-4.4615e-09
1.73104e-16
-5.01427e-10
-4.21461e-09
1.83154e-16
-4.76554e-10
-3.98031e-09
1.91199e-16
-4.51747e-10
-3.75856e-09
1.97048e-16
-4.2704e-10
-3.5493e-09
2.0108e-16
-4.02468e-10
-3.35246e-09
2.03811e-16
-3.78071e-10
-3.16793e-09
2.0581e-16
-3.53888e-10
-2.99561e-09
2.07402e-16
-3.29962e-10
-2.83535e-09
2.09129e-16
-3.06339e-10
-2.68698e-09
2.10584e-16
-2.83065e-10
-2.55032e-09
2.12419e-16
-2.60191e-10
-2.42515e-09
2.14416e-16
-2.37771e-10
-2.31123e-09
2.16575e-16
-2.1586e-10
-2.20827e-09
2.18571e-16
-1.94517e-10
-2.11598e-09
2.20403e-16
-1.73803e-10
-2.034e-09
2.21802e-16
-1.53782e-10
-1.96198e-09
2.22279e-16
-1.34522e-10
-1.89951e-09
2.22321e-16
-1.16091e-10
-1.84613e-09
2.21008e-16
-9.85629e-11
-1.80138e-09
2.18826e-16
-8.20108e-11
-1.76472e-09
2.15723e-16
-6.6512e-11
-1.7356e-09
2.11535e-16
-5.21455e-11
-1.71343e-09
2.06696e-16
-3.89922e-11
-1.69754e-09
2.00826e-16
-2.71347e-11
-1.68728e-09
1.94685e-16
-1.66572e-11
-1.6819e-09
1.87947e-16
-7.64474e-12
-1.68063e-09
1.80721e-16
-1.83267e-13
-1.68267e-09
1.72247e-16
5.64136e-12
-1.68716e-09
1.62905e-16
9.74261e-12
-1.69321e-09
1.52587e-16
1.2034e-11
-1.69987e-09
1.41184e-16
1.24307e-11
-1.70617e-09
1.28371e-16
1.085e-11
-1.71109e-09
1.1339e-16
7.21233e-12
-1.71358e-09
9.50997e-17
1.44235e-12
-1.71256e-09
7.13347e-17
-6.52861e-12
-1.70691e-09
4.08474e-17
-1.67616e-11
-1.69551e-09
2.8245e-18
-2.93078e-11
-1.67722e-09
-4.13787e-17
-4.42035e-11
-1.65089e-09
-9.06238e-17
-6.14651e-11
-1.6154e-09
-1.43935e-16
-8.10815e-11
-1.56964e-09
-2.03643e-16
-1.03003e-10
-1.51258e-09
-2.73217e-16
-1.27127e-10
-1.44328e-09
-3.56886e-16
-1.53273e-10
-1.36095e-09
-4.54594e-16
-1.8115e-10
-1.26502e-09
-5.6e-16
-2.10307e-10
-1.15524e-09
-6.6806e-16
-2.40059e-10
-1.03181e-09
-7.78394e-16
-2.6937e-10
-8.95574e-10
-8.9268e-16
-2.96683e-10
-7.48273e-10
-1.00002e-15
-3.19659e-10
-5.92892e-10
-1.0733e-15
-3.3479e-10
-4.34098e-10
-1.08486e-15
-3.36838e-10
-2.78748e-10
-1.0195e-15
-3.18114e-10
-1.36511e-10
-8.51473e-16
-2.67731e-10
-2.1213e-11
-7.15575e-16
-1.71565e-10
3.94923e-11
-1.74521e-15
-1.52686e-11
-1.23601e-14
1.65513e-10
1.26182e-09
-2.07954e-09
1.98007e-09
-1.9648e-09
2.35527e-09
-1.408e-09
2.45983e-09
-7.20366e-10
2.31491e-09
-5.67503e-11
1.94487e-09
5.26963e-10
1.37775e-09
1.01678e-09
6.42262e-10
1.41747e-09
-2.33875e-10
1.74018e-09
-1.22495e-09
1.99706e-09
-2.30846e-09
2.19909e-09
-3.46567e-09
2.35567e-09
-4.68053e-09
2.47495e-09
-5.93916e-09
2.56396e-09
-7.22988e-09
2.62798e-09
-8.54281e-09
2.67126e-09
-9.86959e-09
2.6972e-09
-1.12031e-08
2.70856e-09
-1.25373e-08
2.70757e-09
-1.38669e-08
2.69608e-09
-1.51875e-08
2.6756e-09
-1.64951e-08
2.64739e-09
-1.77864e-08
2.61252e-09
-1.90583e-08
2.57187e-09
-2.03084e-08
2.52619e-09
-2.15344e-08
2.47613e-09
-2.27344e-08
2.42224e-09
-2.39066e-08
2.36498e-09
-2.50495e-08
2.30476e-09
-2.61618e-08
2.24192e-09
-2.72423e-08
2.17677e-09
-2.82899e-08
2.10957e-09
-2.93036e-08
2.04056e-09
-3.02826e-08
1.96993e-09
-3.12263e-08
1.89784e-09
-3.21341e-08
1.82438e-09
-3.30056e-08
1.74962e-09
-3.38405e-08
1.6736e-09
-3.46384e-08
1.59641e-09
-3.53996e-08
1.51819e-09
-3.61247e-08
1.43936e-09
-3.68151e-08
1.36092e-09
-3.74719e-08
1.2851e-09
-3.80937e-08
1.216e-09
-3.86726e-08
1.15783e-09
-3.91948e-08
1.10476e-09
-3.96844e-08
1.02935e-09
-4.01871e-08
9.31675e-10
-4.06972e-08
8.63077e-10
-4.09802e-08
8.64135e-10
-4.10485e-08
7.92274e-10
-4.17388e-08
5.14591e-10
-4.21298e-08
4.83857e-10
-4.22475e-08
5.36072e-10
-4.23829e-08
4.76892e-10
-4.25661e-08
3.51802e-10
-4.27527e-08
2.55817e-10
-4.29181e-08
1.83851e-10
-4.29897e-08
1.54108e-10
-4.29688e-08
1.16346e-10
-4.29431e-08
3.73002e-11
-4.29434e-08
-3.74197e-11
-4.29357e-08
-1.12584e-10
-4.29118e-08
-1.85224e-10
-4.26749e-08
-1.77843e-10
-4.25339e-08
-2.71839e-10
-4.24923e-08
-3.78662e-10
-4.22643e-08
-3.78661e-10
-4.2099e-08
-4.37187e-10
-4.17477e-08
-4.30818e-10
-4.11435e-08
-4.46949e-10
-4.11574e-08
-6.66811e-10
-4.09229e-08
-7.03432e-10
-4.05047e-08
-7.12994e-10
-4.01525e-08
-7.50565e-10
-3.9775e-08
-7.63505e-10
-3.93621e-08
-7.83245e-10
-3.8933e-08
-8.17459e-10
-3.84906e-08
-8.56737e-10
-3.80338e-08
-8.95792e-10
-3.75618e-08
-9.32694e-10
-3.70747e-08
-9.66997e-10
-3.65728e-08
-9.98739e-10
-3.60567e-08
-1.02807e-09
-3.55272e-08
-1.05514e-09
-3.4985e-08
-1.08013e-09
-3.44313e-08
-1.10318e-09
-3.38668e-08
-1.1244e-09
-3.32926e-08
-1.14386e-09
-3.27095e-08
-1.16161e-09
-3.21181e-08
-1.17768e-09
-3.15193e-08
-1.1921e-09
-3.09139e-08
-1.20491e-09
-3.03026e-08
-1.21613e-09
-2.96863e-08
-1.2258e-09
-2.90657e-08
-1.23395e-09
-2.84416e-08
-1.24063e-09
-2.78147e-08
-1.24585e-09
-2.71857e-08
-1.24966e-09
-2.65552e-08
-1.25209e-09
-2.59239e-08
-1.25318e-09
-2.52925e-08
-1.25295e-09
-2.46615e-08
-1.25144e-09
-2.40318e-08
-1.24869e-09
-2.34037e-08
-1.24474e-09
-2.2778e-08
-1.23962e-09
-2.21551e-08
-1.23338e-09
-2.15357e-08
-1.22605e-09
-2.09203e-08
-1.21767e-09
-2.03093e-08
-1.20828e-09
-1.97033e-08
-1.19791e-09
-1.91027e-08
-1.18662e-09
-1.8508e-08
-1.17442e-09
-1.79196e-08
-1.16137e-09
-1.73379e-08
-1.1475e-09
-1.67634e-08
-1.13284e-09
-1.61964e-08
-1.11743e-09
-1.56373e-08
-1.10131e-09
-1.50864e-08
-1.0845e-09
-1.4544e-08
-1.06705e-09
-1.40106e-08
-1.04898e-09
-1.34863e-08
-1.03032e-09
-1.29716e-08
-1.01111e-09
-1.24666e-08
-9.91379e-10
-1.19715e-08
-9.7115e-10
-1.14868e-08
-9.50455e-10
-1.10125e-08
-9.29319e-10
-1.0549e-08
-9.07769e-10
-1.00963e-08
-8.85832e-10
-9.65477e-09
-8.6353e-10
-9.22452e-09
-8.4089e-10
-8.80573e-09
-8.17934e-10
-8.39857e-09
-7.94687e-10
-8.00318e-09
-7.71171e-10
-7.6197e-09
-7.47409e-10
-7.24825e-09
-7.23424e-10
-6.88895e-09
-6.99238e-10
-6.54189e-09
-6.74876e-10
-6.20718e-09
-6.50359e-10
-5.88488e-09
-6.25713e-10
-5.57506e-09
-6.00962e-10
-5.27778e-09
-5.7613e-10
-4.99308e-09
-5.51246e-10
-4.72097e-09
-5.26335e-10
-4.46148e-09
-5.01429e-10
-4.2146e-09
-4.76555e-10
-3.9803e-09
-4.51748e-10
-3.75855e-09
-4.27041e-10
-3.54929e-09
-4.0247e-10
-3.35244e-09
-3.78072e-10
-3.16792e-09
-3.53889e-10
-2.99559e-09
-3.29963e-10
-2.83533e-09
-3.0634e-10
-2.68697e-09
-2.83066e-10
-2.55031e-09
-2.60192e-10
-2.42514e-09
-2.37772e-10
-2.31121e-09
-2.15861e-10
-2.20826e-09
-1.94518e-10
-2.11596e-09
-1.73804e-10
-2.03399e-09
-1.53783e-10
-1.96197e-09
-1.34523e-10
-1.89949e-09
-1.16092e-10
-1.84612e-09
-9.85638e-11
-1.80136e-09
-8.20116e-11
-1.76471e-09
-6.65128e-11
-1.73559e-09
-5.21462e-11
-1.71341e-09
-3.89929e-11
-1.69753e-09
-2.71353e-11
-1.68726e-09
-1.66577e-11
-1.68188e-09
-7.64522e-12
-1.68062e-09
-1.83671e-13
-1.68266e-09
5.64103e-12
-1.68715e-09
9.74235e-12
-1.6932e-09
1.20338e-11
-1.69986e-09
1.24305e-11
-1.70616e-09
1.08499e-11
-1.71108e-09
7.21231e-12
-1.71357e-09
1.44236e-12
-1.71255e-09
-6.52858e-12
-1.70691e-09
-1.67616e-11
-1.69551e-09
-2.93078e-11
-1.67722e-09
-4.42036e-11
-1.65089e-09
-6.14653e-11
-1.61539e-09
-8.10818e-11
-1.56963e-09
-1.03004e-10
-1.51257e-09
-1.27128e-10
-1.44327e-09
-1.53274e-10
-1.36095e-09
-1.81151e-10
-1.26502e-09
-2.10309e-10
-1.15524e-09
-2.40061e-10
-1.03181e-09
-2.69373e-10
-8.95575e-10
-2.96686e-10
-7.48274e-10
-3.19663e-10
-5.92895e-10
-3.34796e-10
-4.34101e-10
-3.36844e-10
-2.78751e-10
-3.18122e-10
-1.36516e-10
-2.6774e-10
-2.12244e-11
-1.71577e-10
3.94525e-11
-1.52842e-11
1.65488e-10
1.00677e-09
-3.22959e-12
-3.09833e-09
1.38083e-09
-6.78525e-13
-2.34155e-09
1.40928e-09
-1.24053e-13
-1.43669e-09
1.22618e-09
3.86514e-15
-5.37413e-10
8.74034e-10
1.02871e-14
2.95225e-10
3.72002e-10
-1.22422e-15
1.02885e-09
-2.66075e-10
-7.17415e-15
1.65475e-09
-1.02599e-09
-7.65501e-15
2.17732e-09
-1.89261e-09
-5.90859e-15
2.60676e-09
-2.85073e-09
-3.95102e-15
2.95516e-09
-3.88588e-09
-2.48779e-15
3.23423e-09
-4.98479e-09
-1.48281e-15
3.45457e-09
-6.13538e-09
-6.97619e-16
3.62554e-09
-7.32664e-09
4.26707e-17
3.75522e-09
-8.54886e-09
7.94263e-16
3.8502e-09
-9.79352e-09
1.49333e-15
3.91592e-09
-1.10532e-08
1.96785e-15
3.95687e-09
-1.23214e-08
1.98652e-15
3.97675e-09
-1.35925e-08
1.35539e-15
3.97861e-09
-1.48615e-08
4.04179e-17
3.96502e-09
-1.6124e-08
-1.71766e-15
3.9381e-09
-1.73763e-08
-3.35016e-15
3.89964e-09
-1.86149e-08
-4.03509e-15
3.85115e-09
-1.98369e-08
-2.96172e-15
3.79393e-09
-2.10397e-08
2.3436e-16
3.72907e-09
-2.2221e-08
5.03714e-15
3.65751e-09
-2.33788e-08
9.94656e-15
3.58005e-09
-2.45112e-08
1.30152e-14
3.49742e-09
-2.56167e-08
1.29944e-14
3.41021e-09
-2.66938e-08
1.04623e-14
3.31896e-09
-2.77412e-08
7.9241e-15
3.22415e-09
-2.87578e-08
8.32462e-15
3.12617e-09
-2.97425e-08
1.28066e-14
3.0254e-09
-3.06946e-08
1.97935e-14
2.92216e-09
-3.16132e-08
2.67893e-14
2.81672e-09
-3.24979e-08
3.3267e-14
2.70934e-09
-3.33481e-08
4.07632e-14
2.60024e-09
-3.41634e-08
4.97446e-14
2.48962e-09
-3.49437e-08
6.10643e-14
2.37775e-09
-3.56891e-08
9.05941e-14
2.26501e-09
-3.64001e-08
1.89178e-13
2.15197e-09
-3.70778e-08
4.46784e-13
2.03952e-09
-3.77237e-08
9.79305e-13
1.92916e-09
-3.83371e-08
1.93766e-12
1.82346e-09
-3.89084e-08
3.82449e-12
1.7271e-09
-3.94011e-08
7.63837e-12
1.64562e-09
-3.98435e-08
7.54228e-12
1.54572e-09
-4.03062e-08
-8.71865e-13
1.40658e-09
-4.07418e-08
-1.05309e-11
1.2742e-09
-4.11848e-08
-2.33557e-11
1.13362e-09
-4.15569e-08
-1.89097e-11
1.03354e-09
-4.18509e-08
3.92725e-12
9.5892e-10
-4.21057e-08
1.04842e-11
8.6379e-10
-4.23484e-08
7.26777e-12
7.44006e-10
-4.25782e-08
5.19512e-12
6.22502e-10
-4.27663e-08
3.62829e-12
5.19001e-10
-4.29036e-08
1.87928e-12
4.2758e-10
-4.30116e-08
2.00974e-12
3.29103e-10
-4.30978e-08
4.17746e-12
2.2376e-10
-4.30998e-08
7.51092e-12
1.50265e-10
-4.30512e-08
4.58304e-12
5.83291e-11
-4.30913e-08
-7.79087e-12
-8.35365e-11
-4.30737e-08
-1.0312e-11
-1.73409e-10
-4.29713e-08
-8.75488e-12
-2.4173e-10
-4.28427e-08
-8.59659e-12
-3.35356e-10
-4.26937e-08
-1.52802e-12
-4.22196e-10
-4.2531e-08
3.90659e-12
-5.08845e-10
-4.23525e-08
5.96825e-13
-5.96372e-10
-4.21335e-08
-5.13767e-12
-6.67734e-10
-4.18689e-08
-1.21926e-11
-7.3047e-10
-4.15896e-08
-6.42142e-12
-8.04726e-10
-4.13068e-08
1.4807e-11
-8.79899e-10
-4.09509e-08
2.00579e-11
-9.34185e-10
-4.05606e-08
1.05312e-11
-1.01582e-09
-4.02637e-08
-3.66385e-12
-1.12469e-09
-3.99213e-08
-5.28363e-12
-1.17113e-09
-3.95122e-08
-2.52513e-12
-1.2003e-09
-3.90805e-08
-1.34973e-12
-1.24597e-09
-3.86356e-08
-7.2879e-13
-1.29859e-09
-3.81775e-08
-3.55126e-13
-1.35213e-09
-3.77054e-08
-1.45709e-13
-1.40398e-09
-3.7219e-08
-4.34627e-14
-1.45315e-09
-3.67185e-08
-7.05293e-15
-1.49934e-09
-3.62041e-08
-2.65238e-15
-1.5425e-09
-3.56766e-08
-4.33032e-15
-1.58269e-09
-3.51366e-08
-5.02383e-17
-1.62001e-09
-3.45851e-08
8.59886e-15
-1.65458e-09
-3.4023e-08
1.44095e-14
-1.68651e-09
-3.3451e-08
1.30967e-14
-1.71586e-09
-3.287e-08
6.30233e-15
-1.74269e-09
-3.22807e-08
-9.71296e-16
-1.76704e-09
-3.16839e-08
-4.58096e-15
-1.78895e-09
-3.10803e-08
-3.58497e-15
-1.80846e-09
-3.04708e-08
1.61302e-16
-1.82561e-09
-2.98561e-08
3.90051e-15
-1.84047e-09
-2.9237e-08
5.69552e-15
-1.85308e-09
-2.86141e-08
5.10377e-15
-1.86347e-09
-2.79883e-08
2.87585e-15
-1.87171e-09
-2.73602e-08
2.26068e-16
-1.87783e-09
-2.67305e-08
-1.81777e-15
-1.88189e-09
-2.60997e-08
-2.74523e-15
-1.88393e-09
-2.54687e-08
-2.57707e-15
-1.88401e-09
-2.48379e-08
-1.68585e-15
-1.88218e-09
-2.42081e-08
-5.57838e-16
-1.87849e-09
-2.35799e-08
4.0263e-16
-1.87301e-09
-2.29537e-08
9.76281e-16
-1.86578e-09
-2.23302e-08
1.13607e-15
-1.85687e-09
-2.17099e-08
9.8635e-16
-1.84632e-09
-2.10934e-08
6.78694e-16
-1.83419e-09
-2.04812e-08