/*--------------------------------*- C++ -*----------------------------------*\
  =========                 |
  \\      /  F ield         | OpenFOAM: The Open Source CFD Toolbox
   \\    /   O peration     | Website:  https://openfoam.org
    \\  /    A nd           | Version:  8
     \\/     M anipulation  |
\*---------------------------------------------------------------------------*/
FoamFile
{
    version     2.0;
    format      ascii;
    class       volScalarField;
    location    "4700";
    object      T;
}
// * * * * * * * * * * * * * * * * * * * * * * * * * * * * * * * * * * * * * //

dimensions      [0 0 0 1 0 0 0];

internalField   nonuniform List<scalar> 
46000
(
309.564
308.368
307.58
307.077
306.716
306.43
306.192
305.987
305.806
305.644
305.496
305.36
305.235
305.118
305.009
304.907
304.811
304.72
304.633
304.552
304.474
304.4
304.33
304.263
304.199
304.138
304.08
304.025
303.972
303.922
303.874
303.828
303.784
303.742
303.703
303.665
303.63
303.596
303.565
303.535
303.509
303.485
303.465
303.452
303.452
303.485
303.574
303.606
303.583
303.514
303.425
303.397
303.386
303.377
303.362
303.345
303.332
303.323
303.322
303.348
303.415
303.389
303.304
303.278
303.271
303.266
303.254
303.228
303.215
303.212
303.214
303.211
303.232
303.3
303.274
303.186
303.158
303.152
303.154
303.158
303.165
303.173
303.181
303.191
303.201
303.212
303.223
303.235
303.248
303.262
303.276
303.291
303.306
303.322
303.339
303.356
303.374
303.393
303.412
303.431
303.452
303.472
303.494
303.516
303.538
303.561
303.585
303.609
303.633
303.658
303.684
303.71
303.737
303.764
303.792
303.82
303.848
303.878
303.907
303.937
303.968
303.999
304.031
304.063
304.095
304.129
304.162
304.196
304.231
304.266
304.301
304.337
304.374
304.411
304.448
304.486
304.525
304.563
304.603
304.643
304.684
304.725
304.766
304.808
304.851
304.894
304.938
304.983
305.028
305.073
305.119
305.166
305.213
305.261
305.31
305.359
305.409
305.459
305.511
305.562
305.615
305.668
305.722
305.777
305.833
305.889
305.946
306.005
306.064
306.124
306.185
306.247
306.31
306.375
306.441
306.509
306.578
306.649
306.723
306.798
306.876
306.957
307.041
307.128
307.22
307.317
307.419
307.528
307.645
307.772
307.911
308.064
308.237
308.436
308.67
308.955
309.32
309.812
310.495
311.201
309.566
308.369
307.581
307.077
306.716
306.43
306.192
305.987
305.806
305.644
305.496
305.36
305.235
305.118
305.009
304.907
304.811
304.72
304.633
304.552
304.474
304.4
304.33
304.263
304.199
304.138
304.08
304.025
303.972
303.922
303.874
303.828
303.784
303.742
303.703
303.665
303.63
303.596
303.565
303.536
303.509
303.486
303.466
303.451
303.442
303.44
303.442
303.44
303.436
303.45
303.56
303.53
303.398
303.379
303.376
303.368
303.355
303.34
303.331
303.332
303.333
303.32
303.298
303.281
303.285
303.314
303.253
303.231
303.227
303.244
303.367
303.347
303.213
303.186
303.171
303.157
303.151
303.15
303.153
303.158
303.165
303.173
303.181
303.191
303.201
303.212
303.223
303.235
303.248
303.262
303.276
303.291
303.306
303.322
303.339
303.356
303.374
303.393
303.412
303.431
303.452
303.472
303.494
303.516
303.538
303.561
303.585
303.609
303.633
303.658
303.684
303.71
303.737
303.764
303.792
303.82
303.848
303.878
303.907
303.937
303.968
303.999
304.031
304.063
304.095
304.129
304.162
304.196
304.231
304.266
304.301
304.337
304.374
304.411
304.448
304.486
304.525
304.564
304.603
304.643
304.684
304.725
304.766
304.808
304.851
304.894
304.938
304.983
305.028
305.073
305.119
305.166
305.213
305.261
305.31
305.359
305.409
305.459
305.511
305.562
305.615
305.668
305.722
305.777
305.833
305.889
305.946
306.005
306.064
306.124
306.185
306.247
306.31
306.375
306.441
306.509
306.578
306.649
306.723
306.798
306.876
306.957
307.041
307.128
307.22
307.317
307.419
307.528
307.645
307.772
307.911
308.065
308.237
308.436
308.67
308.955
309.32
309.812
310.495
311.201
306.167
305.798
305.484
305.232
305.027
304.854
304.705
304.572
304.453
304.343
304.242
304.148
304.06
303.977
303.899
303.825
303.755
303.688
303.624
303.564
303.506
303.45
303.397
303.346
303.298
303.251
303.206
303.164
303.123
303.083
303.046
303.01
302.975
302.942
302.911
302.88
302.852
302.825
302.799
302.775
302.752
302.731
302.712
302.696
302.681
302.668
302.65
302.638
302.625
302.611
302.607
302.6
302.593
302.583
302.571
302.558
302.547
302.536
302.524
302.513
302.497
302.487
302.486
302.478
302.468
302.458
302.449
302.439
302.431
302.424
302.415
302.407
302.401
302.388
302.382
302.384
302.383
302.381
302.381
302.383
302.385
302.387
302.391
302.394
302.399
302.404
302.409
302.415
302.422
302.428
302.436
302.444
302.452
302.461
302.47
302.48
302.49
302.5
302.511
302.523
302.535
302.547
302.56
302.573
302.587
302.601
302.616
302.631
302.647
302.663
302.679
302.696
302.713
302.731
302.749
302.768
302.787
302.806
302.826
302.846
302.867
302.889
302.91
302.933
302.955
302.978
303.002
303.026
303.05
303.075
303.101
303.127
303.153
303.18
303.207
303.235
303.263
303.292
303.321
303.351
303.381
303.412
303.443
303.475
303.507
303.54
303.573
303.607
303.641
303.676
303.711
303.747
303.783
303.82
303.857
303.895
303.934
303.972
304.012
304.052
304.092
304.133
304.174
304.217
304.259
304.302
304.346
304.39
304.435
304.481
304.527
304.575
304.622
304.671
304.721
304.772
304.823
304.876
304.931
304.987
305.044
305.104
305.166
305.231
305.298
305.369
305.445
305.525
305.612
305.706
305.809
305.924
306.053
306.203
306.379
306.592
306.859
307.205
307.674
308.258
306.168
305.798
305.484
305.232
305.027
304.854
304.705
304.572
304.453
304.343
304.242
304.148
304.06
303.977
303.899
303.825
303.755
303.688
303.624
303.564
303.506
303.45
303.397
303.346
303.298
303.251
303.206
303.164
303.123
303.083
303.046
303.01
302.975
302.942
302.911
302.88
302.852
302.825
302.799
302.775
302.752
302.732
302.714
302.698
302.685
302.674
302.663
302.651
302.638
302.62
302.587
302.576
302.587
302.583
302.575
302.565
302.553
302.541
302.531
302.523
302.515
302.504
302.492
302.477
302.463
302.447
302.445
302.438
302.429
302.417
302.391
302.387
302.401
302.396
302.39
302.386
302.383
302.381
302.381
302.383
302.385
302.387
302.391
302.394
302.399
302.404
302.409
302.415
302.422
302.428
302.436
302.444
302.452
302.461
302.47
302.48
302.49
302.5
302.511
302.523
302.535
302.547
302.56
302.573
302.587
302.601
302.616
302.631
302.647
302.663
302.679
302.696
302.713
302.731
302.749
302.768
302.787
302.806
302.826
302.846
302.867
302.889
302.91
302.933
302.955
302.978
303.002
303.026
303.05
303.075
303.101
303.127
303.153
303.18
303.207
303.235
303.263
303.292
303.321
303.351
303.381
303.412
303.443
303.475
303.507
303.54
303.573
303.607
303.641
303.676
303.711
303.747
303.783
303.82
303.857
303.895
303.934
303.972
304.012
304.052
304.092
304.133
304.174
304.217
304.259
304.302
304.346
304.39
304.435
304.481
304.527
304.575
304.622
304.671
304.721
304.772
304.823
304.876
304.931
304.987
305.044
305.104
305.166
305.231
305.298
305.369
305.445
305.525
305.612
305.706
305.809
305.924
306.053
306.203
306.379
306.592
306.859
307.205
307.674
308.258
304.738
304.666
304.533
304.394
304.262
304.141
304.03
303.928
303.833
303.744
303.661
303.583
303.509
303.439
303.372
303.309
303.248
303.19
303.135
303.082
303.031
302.982
302.935
302.89
302.847
302.806
302.766
302.727
302.691
302.655
302.621
302.589
302.558
302.528
302.499
302.471
302.445
302.42
302.396
302.374
302.352
302.332
302.313
302.296
302.278
302.259
302.237
302.22
302.205
302.194
302.187
302.178
302.166
302.154
302.142
302.131
302.12
302.109
302.098
302.085
302.069
302.061
302.058
302.051
302.042
302.033
302.025
302.019
302.013
302.006
301.999
301.993
301.985
301.975
301.972
301.976
301.977
301.976
301.976
301.976
301.976
301.977
301.979
301.981
301.983
301.986
301.989
301.993
301.997
302.002
302.007
302.013
302.019
302.025
302.032
302.039
302.047
302.055
302.063
302.072
302.081
302.091
302.101
302.112
302.123
302.134
302.146
302.158
302.171
302.184
302.197
302.211
302.226
302.241
302.256
302.272
302.288
302.304
302.321
302.339
302.357
302.375
302.394
302.413
302.433
302.453
302.473
302.494
302.516
302.538
302.56
302.583
302.607
302.631
302.655
302.68
302.705
302.731
302.757
302.784
302.811
302.839
302.867
302.896
302.925
302.955
302.985
303.016
303.047
303.079
303.111
303.144
303.177
303.21
303.244
303.279
303.314
303.35
303.386
303.422
303.459
303.496
303.534
303.572
303.611
303.651
303.69
303.731
303.771
303.813
303.855
303.897
303.941
303.984
304.029
304.074
304.121
304.168
304.217
304.266
304.317
304.37
304.424
304.481
304.54
304.602
304.667
304.737
304.811
304.891
304.977
305.073
305.179
305.298
305.435
305.593
305.777
305.993
306.245
306.513
304.738
304.666
304.533
304.394
304.262
304.141
304.03
303.928
303.833
303.744
303.661
303.583
303.509
303.439
303.372
303.309
303.248
303.19
303.135
303.082
303.031
302.982
302.935
302.89
302.847
302.806
302.766
302.727
302.691
302.655
302.621
302.589
302.558
302.528
302.499
302.471
302.445
302.42
302.396
302.374
302.352
302.332
302.314
302.297
302.281
302.265
302.25
302.235
302.219
302.203
302.182
302.169
302.164
302.155
302.143
302.131
302.12
302.109
302.099
302.088
302.078
302.069
302.06
302.05
302.039
302.027
302.024
302.019
302.011
302.003
301.99
301.985
301.987
301.984
301.981
301.979
301.978
301.976
301.976
301.976
301.976
301.977
301.979
301.981
301.983
301.986
301.989
301.993
301.997
302.002
302.007
302.013
302.019
302.025
302.032
302.039
302.047
302.055
302.063
302.072
302.081
302.091
302.101
302.112
302.123
302.134
302.146
302.158
302.171
302.184
302.197
302.211
302.226
302.241
302.256
302.272
302.288
302.304
302.321
302.339
302.357
302.375
302.394
302.413
302.433
302.453
302.473
302.494
302.516
302.538
302.56
302.583
302.607
302.631
302.655
302.68
302.705
302.731
302.757
302.784
302.811
302.839
302.867
302.896
302.925
302.955
302.985
303.016
303.047
303.079
303.111
303.144
303.177
303.21
303.244
303.279
303.314
303.35
303.386
303.422
303.459
303.496
303.534
303.572
303.611
303.651
303.69
303.731
303.771
303.813
303.855
303.897
303.941
303.984
304.029
304.074
304.121
304.168
304.217
304.266
304.317
304.37
304.424
304.481
304.54
304.602
304.667
304.737
304.811
304.891
304.977
305.073
305.179
305.298
305.435
305.593
305.777
305.993
306.245
306.513
303.995
303.991
303.933
303.852
303.765
303.677
303.592
303.51
303.432
303.357
303.286
303.218
303.154
303.092
303.032
302.975
302.921
302.868
302.818
302.769
302.722
302.678
302.634
302.593
302.553
302.514
302.477
302.442
302.407
302.374
302.342
302.312
302.282
302.254
302.227
302.201
302.176
302.152
302.129
302.107
302.086
302.066
302.048
302.029
302.012
301.993
301.975
301.958
301.943
301.929
301.917
301.904
301.891
301.878
301.865
301.854
301.843
301.832
301.821
301.811
301.8
301.79
301.783
301.775
301.767
301.759
301.752
301.746
301.74
301.734
301.728
301.723
301.718
301.713
301.71
301.71
301.709
301.708
301.707
301.706
301.706
301.706
301.707
301.708
301.71
301.712
301.714
301.717
301.72
301.723
301.727
301.732
301.736
301.741
301.747
301.753
301.759
301.766
301.773
301.781
301.789
301.797
301.806
301.815
301.825
301.835
301.845
301.856
301.868
301.879
301.891
301.904
301.917
301.93
301.944
301.958
301.973
301.988
302.004
302.02
302.036
302.053
302.071
302.088
302.107
302.125
302.144
302.164
302.184
302.205
302.226
302.247
302.269
302.292
302.315
302.338
302.362
302.386
302.411
302.436
302.462
302.488
302.515
302.542
302.57
302.598
302.627
302.656
302.686
302.716
302.747
302.778
302.809
302.841
302.874
302.906
302.94
302.974
303.008
303.042
303.078
303.113
303.149
303.185
303.222
303.259
303.297
303.335
303.374
303.413
303.452
303.493
303.533
303.574
303.616
303.659
303.702
303.746
303.791
303.837
303.884
303.933
303.983
304.034
304.088
304.144
304.203
304.265
304.33
304.4
304.475
304.556
304.645
304.741
304.848
304.964
305.091
305.225
305.359
305.473
303.995
303.991
303.933
303.852
303.765
303.677
303.592
303.51
303.432
303.357
303.286
303.218
303.154
303.092
303.032
302.975
302.921
302.868
302.818
302.769
302.722
302.678
302.634
302.593
302.553
302.514
302.477
302.442
302.407
302.374
302.342
302.312
302.282
302.254
302.227
302.201
302.176
302.152
302.129
302.107
302.086
302.066
302.048
302.03
302.012
301.995
301.978
301.962
301.947
301.932
301.916
301.902
301.891
301.878
301.865
301.853
301.842
301.831
301.821
301.81
301.8
301.791
301.783
301.775
301.766
301.758
301.752
301.746
301.739
301.733
301.727
301.722
301.719
301.715
301.713
301.711
301.709
301.708
301.707
301.706
301.706
301.706
301.707
301.708
301.71
301.712
301.714
301.717
301.72
301.723
301.727
301.732
301.736
301.741
301.747
301.753
301.759
301.766
301.773
301.781
301.789
301.797
301.806
301.815
301.825
301.835
301.845
301.856
301.868
301.879
301.891
301.904
301.917
301.93
301.944
301.958
301.973
301.988
302.004
302.02
302.036
302.053
302.071
302.088
302.107
302.125
302.144
302.164
302.184
302.205
302.226
302.247
302.269
302.292
302.315
302.338
302.362
302.386
302.411
302.436
302.462
302.488
302.515
302.542
302.57
302.598
302.627
302.656
302.686
302.716
302.747
302.778
302.809
302.841
302.874
302.906
302.94
302.974
303.008
303.042
303.078
303.113
303.149
303.185
303.222
303.259
303.297
303.335
303.374
303.413
303.452
303.493
303.533
303.574
303.616
303.659
303.702
303.746
303.791
303.837
303.884
303.933
303.983
304.034
304.088
304.144
304.203
304.265
304.33
304.4
304.475
304.556
304.645
304.741
304.848
304.964
305.091
305.225
305.359
305.473
303.519
303.528
303.5
303.451
303.391
303.326
303.26
303.193
303.128
303.065
303.003
302.943
302.886
302.83
302.776
302.724
302.674
302.626
302.579
302.535
302.491
302.449
302.409
302.37
302.332
302.296
302.261
302.227
302.194
302.163
302.133
302.103
302.075
302.048
302.022
301.997
301.973
301.949
301.927
301.906
301.886
301.866
301.847
301.829
301.811
301.794
301.777
301.76
301.745
301.73
301.716
301.702
301.689
301.676
301.663
301.651
301.64
301.629
301.619
301.609
301.599
301.59
301.581
301.573
301.565
301.557
301.55
301.544
301.538
301.533
301.528
301.523
301.519
301.515
301.512
301.51
301.508
301.507
301.506
301.504
301.504
301.504
301.504
301.504
301.505
301.506
301.508
301.51
301.512
301.515
301.519
301.522
301.526
301.531
301.535
301.541
301.546
301.552
301.559
301.565
301.572
301.58
301.588
301.596
301.605
301.614
301.624
301.634
301.644
301.655
301.667
301.678
301.69
301.703
301.716
301.729
301.743
301.757
301.772
301.787
301.803
301.819
301.835
301.852
301.869
301.887
301.905
301.924
301.943
301.963
301.983
302.003
302.024
302.046
302.068
302.09
302.113
302.137
302.161
302.185
302.21
302.235
302.261
302.287
302.314
302.341
302.369
302.397
302.426
302.455
302.484
302.514
302.545
302.575
302.607
302.639
302.671
302.703
302.736
302.77
302.803
302.838
302.872
302.907
302.943
302.978
303.015
303.051
303.088
303.126
303.163
303.202
303.24
303.28
303.319
303.36
303.401
303.442
303.484
303.528
303.572
303.617
303.663
303.711
303.761
303.812
303.865
303.921
303.979
304.041
304.106
304.175
304.248
304.326
304.409
304.495
304.582
304.666
304.739
304.789
303.519
303.528
303.5
303.451
303.391
303.326
303.26
303.193
303.128
303.065
303.003
302.943
302.886
302.83
302.776
302.724
302.674
302.626
302.579
302.535
302.491
302.449
302.409
302.37
302.332
302.296
302.261
302.227
302.194
302.163
302.133
302.103
302.075
302.048
302.022
301.997
301.973
301.949
301.927
301.906
301.886
301.866
301.847
301.829
301.811
301.794
301.777
301.761
301.745
301.73
301.716
301.702
301.689
301.676
301.663
301.651
301.639
301.628
301.618
301.608
301.598
301.589
301.58
301.573
301.565
301.558
301.551
301.544
301.538
301.533
301.527
301.523
301.519
301.515
301.513
301.51
301.508
301.507
301.506
301.504
301.504
301.504
301.504
301.504
301.505
301.506
301.508
301.51
301.512
301.515
301.519
301.522
301.526
301.531
301.535
301.541
301.546
301.552
301.559
301.565
301.572
301.58
301.588
301.596
301.605
301.614
301.624
301.634
301.644
301.655
301.667
301.678
301.69
301.703
301.716
301.729
301.743
301.757
301.772
301.787
301.803
301.819
301.835
301.852
301.869
301.887
301.905
301.924
301.943
301.963
301.983
302.003
302.024
302.046
302.068
302.09
302.113
302.137
302.161
302.185
302.21
302.235
302.261
302.287
302.314
302.341
302.369
302.397
302.426
302.455
302.484
302.514
302.545
302.575
302.607
302.639
302.671
302.703
302.736
302.77
302.803
302.838
302.872
302.907
302.943
302.978
303.015
303.051
303.088
303.126
303.163
303.202
303.24
303.28
303.319
303.36
303.401
303.442
303.484
303.528
303.572
303.617
303.663
303.711
303.761
303.812
303.865
303.921
303.979
304.041
304.106
304.175
304.248
304.326
304.409
304.495
304.582
304.666
304.739
304.789
303.172
303.182
303.166
303.134
303.091
303.041
302.989
302.934
302.88
302.825
302.771
302.718
302.667
302.616
302.567
302.52
302.474
302.429
302.386
302.344
302.303
302.264
302.226
302.189
302.153
302.119
302.085
302.053
302.022
301.992
301.962
301.934
301.907
301.881
301.856
301.831
301.808
301.785
301.764
301.743
301.723
301.703
301.685
301.667
301.649
301.632
301.615
301.599
301.584
301.569
301.555
301.541
301.527
301.514
301.502
301.49
301.479
301.468
301.457
301.447
301.438
301.428
301.42
301.411
301.403
301.396
301.389
301.383
301.377
301.371
301.366
301.362
301.358
301.354
301.351
301.348
301.346
301.344
301.343
301.341
301.34
301.34
301.339
301.339
301.34
301.341
301.342
301.344
301.346
301.348
301.351
301.354
301.357
301.361
301.365
301.37
301.375
301.381
301.386
301.393
301.399
301.406
301.414
301.421
301.43
301.438
301.447
301.456
301.466
301.477
301.487
301.498
301.51
301.522
301.534
301.547
301.56
301.573
301.587
301.602
301.617
301.632
301.648
301.664
301.681
301.698
301.715
301.733
301.752
301.771
301.79
301.81
301.831
301.851
301.873
301.894
301.917
301.939
301.963
301.986
302.01
302.035
302.06
302.086
302.112
302.138
302.165
302.192
302.22
302.248
302.277
302.306
302.336
302.366
302.396
302.427
302.458
302.49
302.522
302.554
302.587
302.62
302.654
302.688
302.722
302.756
302.791
302.827
302.862
302.898
302.935
302.971
303.009
303.046
303.084
303.123
303.162
303.201
303.241
303.282
303.323
303.366
303.409
303.453
303.499
303.546
303.594
303.645
303.697
303.751
303.807
303.866
303.927
303.99
304.054
304.118
304.179
304.233
304.274
304.297
303.172
303.182
303.166
303.134
303.091
303.041
302.989
302.934
302.88
302.825
302.771
302.718
302.667
302.616
302.567
302.52
302.474
302.429
302.386
302.344
302.303
302.264
302.226
302.189
302.153
302.119
302.085
302.053
302.022
301.992
301.962
301.934
301.907
301.881
301.856
301.831
301.808
301.785
301.764
301.743
301.723
301.703
301.685
301.667
301.649
301.632
301.615
301.599
301.583
301.569
301.554
301.541
301.527
301.514
301.502
301.49
301.478
301.467
301.457
301.447
301.437
301.428
301.419
301.411
301.404
301.396
301.389
301.383
301.377
301.371
301.366
301.362
301.358
301.354
301.351
301.348
301.346
301.344
301.343
301.341
301.34
301.34
301.339
301.339
301.34
301.341
301.342
301.344
301.346
301.348
301.351
301.354
301.357
301.361
301.365
301.37
301.375
301.381
301.386
301.393
301.399
301.406
301.414
301.421
301.43
301.438
301.447
301.456
301.466
301.477
301.487
301.498
301.51
301.522
301.534
301.547
301.56
301.573
301.587
301.602
301.617
301.632
301.648
301.664
301.681
301.698
301.715
301.733
301.752
301.771
301.79
301.81
301.831
301.851
301.873
301.894
301.917
301.939
301.963
301.986
302.01
302.035
302.06
302.086
302.112
302.138
302.165
302.192
302.22
302.248
302.277
302.306
302.336
302.366
302.396
302.427
302.458
302.49
302.522
302.554
302.587
302.62
302.654
302.688
302.722
302.756
302.791
302.827
302.862
302.898
302.935
302.972
303.009
303.046
303.084
303.123
303.162
303.201
303.241
303.282
303.323
303.366
303.409
303.453
303.499
303.546
303.594
303.645
303.697
303.751
303.807
303.866
303.927
303.99
304.054
304.118
304.179
304.233
304.274
304.297
302.898
302.906
302.895
302.872
302.84
302.802
302.759
302.714
302.667
302.62
302.572
302.525
302.479
302.433
302.389
302.345
302.302
302.261
302.22
302.181
302.143
302.105
302.069
302.034
302
301.967
301.936
301.905
301.875
301.846
301.818
301.791
301.764
301.739
301.714
301.691
301.668
301.646
301.625
301.604
301.584
301.565
301.547
301.529
301.512
301.495
301.478
301.462
301.447
301.432
301.418
301.404
301.391
301.378
301.366
301.354
301.343
301.332
301.321
301.311
301.302
301.292
301.284
301.275
301.268
301.26
301.253
301.247
301.241
301.235
301.23
301.226
301.221
301.218
301.214
301.211
301.209
301.207
301.205
301.203
301.202
301.201
301.2
301.2
301.2
301.201
301.202
301.203
301.204
301.206
301.209
301.212
301.215
301.218
301.222
301.226
301.231
301.236
301.241
301.247
301.253
301.26
301.267
301.274
301.282
301.29
301.298
301.307
301.317
301.326
301.336
301.347
301.358
301.369
301.381
301.393
301.406
301.419
301.433
301.447
301.461
301.476
301.491
301.507
301.523
301.54
301.557
301.574
301.592
301.61
301.629
301.649
301.669
301.689
301.71
301.731
301.752
301.775
301.797
301.82
301.844
301.868
301.892
301.917
301.942
301.968
301.994
302.021
302.048
302.076
302.104
302.132
302.161
302.191
302.22
302.25
302.281
302.312
302.343
302.374
302.406
302.438
302.471
302.504
302.537
302.571
302.605
302.639
302.673
302.708
302.743
302.779
302.814
302.85
302.887
302.924
302.961
302.998
303.036
303.075
303.114
303.154
303.194
303.236
303.278
303.321
303.365
303.41
303.456
303.504
303.553
303.603
303.653
303.704
303.754
303.802
303.845
303.881
303.906
303.915
302.898
302.906
302.895
302.872
302.84
302.802
302.759
302.714
302.667
302.62
302.572
302.525
302.479
302.433
302.389
302.345
302.302
302.261
302.22
302.181
302.143
302.105
302.069
302.034
302
301.967
301.936
301.905
301.875
301.846
301.818
301.791
301.764
301.739
301.714
301.691
301.668
301.646
301.625
301.604
301.584
301.565
301.547
301.529
301.511
301.495
301.478
301.462
301.447
301.432
301.418
301.404
301.391
301.378
301.366
301.354
301.343
301.332
301.321
301.311
301.301
301.292
301.284
301.275
301.268
301.26
301.253
301.247
301.241
301.235
301.23
301.226
301.221
301.218
301.214
301.211
301.209
301.207
301.205
301.203
301.202
301.201
301.2
301.2
301.2
301.201
301.202
301.203
301.204
301.206
301.209
301.212
301.215
301.218
301.222
301.226
301.231
301.236
301.241
301.247
301.253
301.26
301.267
301.274
301.282
301.29
301.298
301.307
301.317
301.326
301.336
301.347
301.358
301.369
301.381
301.393
301.406
301.419
301.433
301.447
301.461
301.476
301.491
301.507
301.523
301.54
301.557
301.574
301.592
301.61
301.629
301.649
301.669
301.689
301.71
301.731
301.752
301.775
301.797
301.82
301.844
301.868
301.892
301.917
301.942
301.968
301.994
302.021
302.048
302.076
302.104
302.132
302.161
302.191
302.22
302.25
302.281
302.312
302.343
302.374
302.406
302.438
302.471
302.504
302.537
302.571
302.605
302.639
302.673
302.708
302.743
302.779
302.814
302.85
302.887
302.924
302.961
302.998
303.036
303.075
303.114
303.154
303.194
303.236
303.278
303.321
303.365
303.41
303.456
303.504
303.553
303.603
303.653
303.704
303.754
303.802
303.845
303.881
303.906
303.915
302.672
302.677
302.668
302.651
302.625
302.594
302.559
302.521
302.481
302.439
302.397
302.355
302.313
302.272
302.231
302.191
302.151
302.112
302.074
302.037
302.001
301.966
301.932
301.898
301.866
301.834
301.804
301.774
301.745
301.717
301.69
301.664
301.639
301.614
301.59
301.567
301.545
301.523
301.503
301.482
301.463
301.444
301.426
301.408
301.391
301.375
301.358
301.343
301.328
301.313
301.299
301.285
301.272
301.259
301.247
301.235
301.224
301.213
301.203
301.193
301.183
301.174
301.165
301.157
301.149
301.142
301.135
301.128
301.122
301.117
301.111
301.107
301.102
301.098
301.095
301.092
301.089
301.086
301.084
301.082
301.081
301.08
301.079
301.078
301.078
301.078
301.079
301.08
301.081
301.083
301.085
301.087
301.09
301.093
301.097
301.101
301.105
301.11
301.115
301.12
301.126
301.132
301.139
301.146
301.153
301.161
301.169
301.177
301.186
301.196
301.205
301.215
301.226
301.237
301.248
301.26
301.272
301.285
301.298
301.312
301.326
301.34
301.355
301.37
301.386
301.402
301.419
301.436
301.453
301.471
301.49
301.509
301.528
301.548
301.568
301.589
301.61
301.631
301.654
301.676
301.699
301.723
301.747
301.771
301.796
301.821
301.847
301.873
301.899
301.926
301.954
301.982
302.01
302.038
302.068
302.097
302.127
302.157
302.187
302.218
302.249
302.281
302.312
302.344
302.377
302.409
302.442
302.475
302.509
302.543
302.576
302.611
302.645
302.68
302.715
302.75
302.786
302.821
302.858
302.894
302.931
302.968
303.006
303.045
303.084
303.123
303.163
303.204
303.245
303.287
303.329
303.372
303.414
303.455
303.495
303.531
303.562
303.587
303.601
303.605
302.672
302.677
302.668
302.651
302.625
302.594
302.559
302.521
302.48
302.439
302.397
302.355
302.313
302.272
302.231
302.191
302.151
302.112
302.074
302.037
302.001
301.966
301.932
301.898
301.866
301.834
301.804
301.774
301.745
301.717
301.69
301.664
301.639
301.614
301.59
301.567
301.545
301.523
301.503
301.482
301.463
301.444
301.426
301.408
301.391
301.374
301.358
301.343
301.327
301.313
301.299
301.285
301.272
301.259
301.247
301.235
301.224
301.213
301.203
301.193
301.183
301.174
301.165
301.157
301.149
301.142
301.135
301.128
301.122
301.117
301.111
301.107
301.102
301.098
301.095
301.092
301.089
301.086
301.084
301.082
301.081
301.08
301.079
301.078
301.078
301.078
301.079
301.08
301.081
301.083
301.085
301.087
301.09
301.093
301.097
301.101
301.105
301.11
301.115
301.12
301.126
301.132
301.139
301.146
301.153
301.161
301.169
301.177
301.186
301.196
301.205
301.215
301.226
301.237
301.248
301.26
301.272
301.285
301.298
301.312
301.326
301.34
301.355
301.37
301.386
301.402
301.419
301.436
301.453
301.471
301.49
301.509
301.528
301.548
301.568
301.589
301.61
301.631
301.654
301.676
301.699
301.723
301.747
301.771
301.796
301.821
301.847
301.873
301.899
301.926
301.954
301.982
302.01
302.038
302.068
302.097
302.127
302.157
302.187
302.218
302.249
302.281
302.312
302.344
302.377
302.409
302.442
302.475
302.509
302.543
302.576
302.611
302.645
302.68
302.715
302.75
302.786
302.821
302.858
302.894
302.931
302.968
303.006
303.045
303.084
303.123
303.163
303.204
303.245
303.287
303.329
303.372
303.414
303.455
303.495
303.531
303.562
303.587
303.601
303.605
302.478
302.48
302.473
302.458
302.437
302.411
302.381
302.348
302.314
302.277
302.24
302.202
302.164
302.126
302.088
302.051
302.014
301.978
301.942
301.907
301.873
301.84
301.807
301.776
301.745
301.715
301.685
301.657
301.629
301.602
301.576
301.55
301.526
301.502
301.479
301.456
301.434
301.413
301.393
301.373
301.354
301.335
301.317
301.3
301.283
301.267
301.251
301.235
301.22
301.206
301.192
301.179
301.166
301.153
301.141
301.129
301.118
301.107
301.097
301.087
301.077
301.068
301.059
301.051
301.043
301.036
301.029
301.022
301.016
301.01
301.005
301
300.996
300.991
300.988
300.984
300.981
300.979
300.976
300.974
300.972
300.971
300.97
300.969
300.969
300.969
300.969
300.97
300.971
300.972
300.974
300.976
300.979
300.982
300.985
300.988
300.992
300.997
301.002
301.007
301.012
301.018
301.024
301.031
301.038
301.045
301.053
301.061
301.07
301.079
301.088
301.098
301.108
301.119
301.13
301.141
301.153
301.166
301.178
301.192
301.205
301.219
301.234
301.248
301.264
301.28
301.296
301.312
301.33
301.347
301.365
301.384
301.403
301.422
301.442
301.462
301.483
301.504
301.526
301.548
301.57
301.593
301.617
301.641
301.665
301.69
301.715
301.741
301.767
301.793
301.82
301.847
301.875
301.903
301.931
301.96
301.989
302.019
302.049
302.079
302.109
302.14
302.171
302.202
302.233
302.265
302.297
302.329
302.362
302.395
302.427
302.46
302.494
302.527
302.561
302.595
302.629
302.663
302.697
302.732
302.767
302.802
302.837
302.873
302.909
302.945
302.982
303.019
303.055
303.092
303.129
303.165
303.2
303.234
303.266
303.294
303.317
303.334
303.342
303.342
302.478
302.48
302.473
302.458
302.437
302.411
302.381
302.348
302.314
302.277
302.24
302.202
302.164
302.126
302.088
302.051
302.014
301.978
301.942
301.907
301.873
301.84
301.807
301.776
301.745
301.715
301.685
301.657
301.629
301.602
301.576
301.55
301.526
301.502
301.479
301.456
301.434
301.413
301.393
301.373
301.354
301.335
301.317
301.3
301.283
301.267
301.251
301.235
301.22
301.206
301.192
301.179
301.166
301.153
301.141
301.129
301.118
301.107
301.097
301.087
301.077
301.068
301.059
301.051
301.043
301.036
301.029
301.022
301.016
301.01
301.005
301
300.996
300.991
300.988
300.984
300.981
300.979
300.976
300.974
300.972
300.971
300.97
300.969
300.969
300.969
300.969
300.97
300.971
300.972
300.974
300.976
300.979
300.982
300.985
300.988
300.992
300.997
301.002
301.007
301.012
301.018
301.024
301.031
301.038
301.045
301.053
301.061
301.07
301.079
301.088
301.098
301.108
301.119
301.13
301.141
301.153
301.166
301.178
301.192
301.205
301.219
301.234
301.248
301.264
301.28
301.296
301.312
301.33
301.347
301.365
301.384
301.403
301.422
301.442
301.462
301.483
301.504
301.526
301.548
301.57
301.593
301.617
301.641
301.665
301.69
301.715
301.741
301.767
301.793
301.82
301.847
301.875
301.903
301.931
301.96
301.989
302.019
302.049
302.079
302.109
302.14
302.171
302.202
302.234
302.265
302.297
302.329
302.362
302.395
302.427
302.46
302.494
302.527
302.561
302.595
302.629
302.663
302.697
302.732
302.767
302.802
302.837
302.873
302.909
302.945
302.982
303.019
303.055
303.092
303.129
303.165
303.2
303.234
303.266
303.294
303.317
303.334
303.342
303.342
302.308
302.307
302.301
302.288
302.27
302.248
302.222
302.193
302.162
302.13
302.096
302.062
302.027
301.993
301.958
301.923
301.889
301.855
301.821
301.788
301.756
301.724
301.693
301.663
301.633
301.605
301.576
301.549
301.522
301.496
301.471
301.446
301.422
301.399
301.376
301.354
301.333
301.312
301.292
301.273
301.254
301.236
301.218
301.201
301.185
301.168
301.153
301.137
301.123
301.108
301.095
301.081
301.068
301.056
301.044
301.032
301.021
301.01
301
300.99
300.981
300.971
300.963
300.955
300.947
300.939
300.932
300.926
300.919
300.913
300.908
300.903
300.898
300.894
300.89
300.887
300.883
300.88
300.878
300.876
300.874
300.872
300.871
300.87
300.869
300.869
300.869
300.87
300.871
300.872
300.873
300.875
300.877
300.88
300.883
300.886
300.89
300.894
300.899
300.903
300.909
300.914
300.92
300.927
300.933
300.94
300.948
300.956
300.964