/*--------------------------------*- C++ -*----------------------------------*\
  =========                 |
  \\      /  F ield         | OpenFOAM: The Open Source CFD Toolbox
   \\    /   O peration     | Website:  https://openfoam.org
    \\  /    A nd           | Version:  8
     \\/     M anipulation  |
\*---------------------------------------------------------------------------*/
FoamFile
{
    version     2.0;
    format      ascii;
    class       volVectorField;
    location    "4700";
    object      U;
}
// * * * * * * * * * * * * * * * * * * * * * * * * * * * * * * * * * * * * * //

dimensions      [0 1 -1 0 0 0 0];

internalField   nonuniform List<vector> 
46000
(
(0.00238642 5.27944e-07 -0.00242635)
(0.0115904 4.62557e-05 -0.00666182)
(0.0207978 3.98018e-05 -0.00617407)
(0.0272402 1.94857e-05 -0.00380107)
(0.0302881 5.98269e-06 -0.0013486)
(0.0303255 4.0172e-07 0.000755182)
(0.027845 -1.00349e-06 0.0024393)
(0.0233607 -9.60692e-07 0.00374393)
(0.0173008 -6.44391e-07 0.00474029)
(0.0100144 -3.8517e-07 0.00549774)
(0.00177868 -2.17523e-07 0.00606498)
(-0.00719484 -1.13603e-07 0.00647105)
(-0.0166935 -4.78298e-08 0.00675131)
(-0.0265981 -2.71719e-09 0.00694152)
(-0.0367877 3.29217e-08 0.00706092)
(-0.047172 6.37767e-08 0.00712372)
(-0.0576754 8.89243e-08 0.00714091)
(-0.0682354 1.03457e-07 0.00712109)
(-0.0788 1.01397e-07 0.00707106)
(-0.0893255 7.91716e-08 0.00699624)
(-0.099775 3.88323e-08 0.00690098)
(-0.110117 -9.77624e-09 0.00678877)
(-0.120326 -4.87954e-08 0.00666242)
(-0.130377 -5.51175e-08 0.00652421)
(-0.140252 -6.73167e-09 0.00637601)
(-0.149932 1.07931e-07 0.00621945)
(-0.159403 2.80741e-07 0.00605596)
(-0.168651 4.80958e-07 0.00588684)
(-0.177665 6.64934e-07 0.00571316)
(-0.186435 7.98854e-07 0.00553574)
(-0.194952 8.83508e-07 0.00535514)
(-0.203209 9.62107e-07 0.00517171)
(-0.211199 1.09722e-06 0.00498584)
(-0.218916 1.32251e-06 0.00479805)
(-0.226352 1.59335e-06 0.00460898)
(-0.233502 1.75819e-06 0.00441907)
(-0.240363 1.54709e-06 0.00422818)
(-0.246928 5.48335e-07 0.00403565)
(-0.253192 -1.87052e-06 0.00384089)
(-0.259145 -6.79318e-06 0.00364404)
(-0.264773 -1.63877e-05 0.00344652)
(-0.270055 -3.54061e-05 0.00325377)
(-0.274953 -7.44526e-05 0.00309278)
(-0.279415 -0.000158374 0.00310501)
(-0.283502 -0.000344673 0.00402617)
(-0.288152 -0.000680894 0.0090769)
(-0.293747 -0.000602589 0.0111462)
(-0.298499 8.7456e-05 0.00243879)
(-0.301648 0.000650214 -8.9775e-05)
(-0.303614 0.00141421 -0.00787616)
(-0.304796 0.000954225 -0.00359207)
(-0.307461 -0.000208986 0.00203447)
(-0.311136 -0.000467278 0.00264767)
(-0.313851 -0.000129287 0.00114552)
(-0.314995 3.30074e-05 -0.000236054)
(-0.315648 5.28062e-06 0.000216792)
(-0.316793 -3.60741e-05 0.00112915)
(-0.318092 -0.000152662 0.00105113)
(-0.318252 -0.000266737 0.000938093)
(-0.318801 -0.000573287 0.00646994)
(-0.321369 -0.000450894 0.00780089)
(-0.321148 0.000566796 -0.00942654)
(-0.318483 0.000629299 -0.00599368)
(-0.318006 0.000314586 -0.000134648)
(-0.31813 0.000397752 -0.000148229)
(-0.317574 -5.06565e-05 -0.000175403)
(-0.316541 -0.000339769 -0.00133547)
(-0.314485 3.80977e-05 -0.0023483)
(-0.312246 0.000185526 -0.00116514)
(-0.310933 0.000429929 -0.000257324)
(-0.309439 0.000266959 -0.000986333)
(-0.306601 -0.000571011 -0.00108333)
(-0.304541 -0.0011269 0.00449763)
(-0.304306 -0.000752284 0.00575808)
(-0.301108 0.000374113 -0.0106547)
(-0.296018 0.000530679 -0.00762618)
(-0.292721 0.000246721 -0.00241998)
(-0.290139 0.000108504 -0.00179472)
(-0.28724 4.79376e-05 -0.00186432)
(-0.284042 2.04384e-05 -0.00199727)
(-0.280623 8.54523e-06 -0.00211222)
(-0.277033 3.97979e-06 -0.00220781)
(-0.273301 2.28141e-06 -0.00229084)
(-0.269447 1.37658e-06 -0.00236531)
(-0.265481 7.11899e-07 -0.00243285)
(-0.261413 3.52153e-07 -0.00249445)
(-0.257253 3.30921e-07 -0.00255118)
(-0.253009 4.71252e-07 -0.00260383)
(-0.248689 5.38065e-07 -0.00265275)
(-0.244301 4.2514e-07 -0.00269792)
(-0.239849 1.94865e-07 -0.00273926)
(-0.23534 -1.52896e-08 -0.00277679)
(-0.23078 -1.07428e-07 -0.00281063)
(-0.226176 -7.35569e-08 -0.00284093)
(-0.221533 2.71789e-08 -0.00286778)
(-0.216858 1.221e-07 -0.00289118)
(-0.212156 1.65886e-07 -0.00291112)
(-0.207433 1.51433e-07 -0.0029276)
(-0.202693 9.82448e-08 -0.00294066)
(-0.197944 3.42196e-08 -0.00295039)
(-0.193189 -1.79509e-08 -0.0029569)
(-0.188434 -4.66194e-08 -0.00296029)
(-0.183685 -5.10204e-08 -0.00296066)
(-0.178945 -3.78599e-08 -0.00295806)
(-0.174219 -1.69481e-08 -0.00295255)
(-0.169512 2.83843e-09 -0.00294418)
(-0.164829 1.611e-08 -0.00293303)
(-0.160173 2.15725e-08 -0.00291915)
(-0.155548 2.09063e-08 -0.00290264)
(-0.150959 1.69111e-08 -0.00288357)
(-0.146408 1.18333e-08 -0.00286203)
(-0.141901 6.73055e-09 -0.0028381)
(-0.13744 1.68024e-09 -0.00281187)
(-0.133028 -3.46073e-09 -0.00278343)
(-0.128669 -8.46862e-09 -0.00275286)
(-0.124366 -1.26462e-08 -0.00272024)
(-0.120122 -1.51236e-08 -0.00268565)
(-0.115939 -1.53389e-08 -0.00264917)
(-0.11182 -1.34078e-08 -0.00261087)
(-0.107767 -1.00847e-08 -0.00257082)
(-0.103783 -6.49133e-09 -0.00252911)
(-0.0998702 -3.72645e-09 -0.0024858)
(-0.0960305 -2.46799e-09 -0.00244097)
(-0.092266 -2.81631e-09 -0.00239469)
(-0.0885784 -4.37715e-09 -0.00234704)
(-0.0849697 -6.45466e-09 -0.00229808)
(-0.0814413 -8.33104e-09 -0.00224788)
(-0.0779949 -9.47146e-09 -0.00219651)
(-0.0746319 -9.66409e-09 -0.00214402)
(-0.0713537 -8.97031e-09 -0.00209049)
(-0.0681616 -7.68811e-09 -0.00203596)
(-0.0650566 -6.19898e-09 -0.00198051)
(-0.0620399 -4.86455e-09 -0.00192419)
(-0.0591125 -3.9316e-09 -0.00186706)
(-0.0562753 -3.51529e-09 -0.00180919)
(-0.0535292 -3.58078e-09 -0.00175063)
(-0.0508747 -4.03152e-09 -0.00169146)
(-0.0483126 -4.67584e-09 -0.00163172)
(-0.0458435 -5.3737e-09 -0.00157148)
(-0.0434677 -5.97333e-09 -0.00151081)
(-0.0411858 -6.39292e-09 -0.00144978)
(-0.0389978 -6.61072e-09 -0.00138844)
(-0.0369041 -6.63e-09 -0.00132688)
(-0.0349047 -6.47739e-09 -0.00126516)
(-0.0329996 -6.19955e-09 -0.00120338)
(-0.0311886 -5.86657e-09 -0.0011416)
(-0.0294715 -5.47841e-09 -0.00107992)
(-0.0278479 -5.09016e-09 -0.00101843)
(-0.0263173 -4.69682e-09 -0.000957236)
(-0.0248791 -4.30839e-09 -0.000896431)
(-0.0235324 -3.90984e-09 -0.000836129)
(-0.0222763 -3.48112e-09 -0.000776447)
(-0.0211096 -3.0172e-09 -0.000717508)
(-0.0200312 -2.49633e-09 -0.000659442)
(-0.0190394 -1.91848e-09 -0.000602386)
(-0.0181326 -1.27192e-09 -0.000546484)
(-0.0173089 -5.54955e-10 -0.000491889)
(-0.0165663 2.39152e-10 -0.000438759)
(-0.0159023 1.09706e-09 -0.000387262)
(-0.0153144 2.01712e-09 -0.000337571)
(-0.0147997 3.00608e-09 -0.000289868)
(-0.0143553 4.03719e-09 -0.00024434)
(-0.0139776 5.12219e-09 -0.000201183)
(-0.0136631 6.26782e-09 -0.000160598)
(-0.0134078 7.46407e-09 -0.000122793)
(-0.0132075 8.73777e-09 -8.79796e-05)
(-0.0130577 1.01225e-08 -5.63765e-05)
(-0.0129534 1.16216e-08 -2.82056e-05)
(-0.0128895 1.33056e-08 -3.69287e-06)
(-0.0128606 1.52047e-08 1.69309e-05)
(-0.0128606 1.73626e-08 3.34355e-05)
(-0.0128835 1.98232e-08 4.55955e-05)
(-0.0129227 2.25967e-08 5.31778e-05)
(-0.0129714 2.57336e-08 5.59456e-05)
(-0.0130223 2.91939e-08 5.36693e-05)
(-0.0130678 3.30081e-08 4.61243e-05)
(-0.0131002 3.71295e-08 3.30906e-05)
(-0.0131112 4.15416e-08 1.4356e-05)
(-0.0130922 4.62245e-08 -1.02667e-05)
(-0.0130345 5.11718e-08 -4.09495e-05)
(-0.012929 5.63939e-08 -7.78514e-05)
(-0.0127664 6.19651e-08 -0.000121091)
(-0.0125373 6.78759e-08 -0.000170738)
(-0.0122321 7.41637e-08 -0.000226791)
(-0.0118413 8.06947e-08 -0.00028915)
(-0.0113555 8.73148e-08 -0.000357566)
(-0.010766 9.37823e-08 -0.000431569)
(-0.0100647 1.00007e-07 -0.000510358)
(-0.00924481 1.05996e-07 -0.000592629)
(-0.00830189 1.11804e-07 -0.000676295)
(-0.00723496 1.17446e-07 -0.000758056)
(-0.00604857 1.22879e-07 -0.000832688)
(-0.00475599 1.28322e-07 -0.000891912)
(-0.0033843 1.34592e-07 -0.000922592)
(-0.00198203 1.42966e-07 -0.000904013)
(-0.000633086 1.54643e-07 -0.000804121)
(0.000532232 1.69191e-07 -0.000576002)
(0.00129709 1.82192e-07 -0.000169965)
(0.00141686 1.84938e-07 0.000360637)
(0.00054829 7.94952e-08 0.000584601)
(0.00235753 5.28212e-07 -0.00239101)
(0.0115749 4.62851e-05 -0.00662106)
(0.020794 3.98077e-05 -0.0061512)
(0.02724 1.94858e-05 -0.00379103)
(0.0302898 5.98258e-06 -0.00134478)
(0.0303283 4.01714e-07 0.000756499)
(0.0278476 -1.00348e-06 0.00243979)
(0.0233627 -9.60686e-07 0.00374419)
(0.0173021 -6.44388e-07 0.00474048)
(0.0100153 -3.85168e-07 0.0054979)
(0.00177918 -2.17522e-07 0.00606512)
(-0.00719456 -1.13602e-07 0.00647118)
(-0.0166934 -4.78296e-08 0.00675142)
(-0.0265981 -2.71718e-09 0.00694161)
(-0.0367878 3.29216e-08 0.007061)
(-0.0471721 6.37765e-08 0.0071238)
(-0.0576754 8.89241e-08 0.007141)
(-0.0682353 1.03456e-07 0.0071212)
(-0.0787998 1.01396e-07 0.00707118)
(-0.0893252 7.91715e-08 0.00699637)
(-0.0997746 3.88323e-08 0.00690111)
(-0.110117 -9.77622e-09 0.00678888)
(-0.120325 -4.87953e-08 0.00666248)
(-0.130377 -5.51174e-08 0.00652419)
(-0.140251 -6.73165e-09 0.00637593)
(-0.149932 1.0793e-07 0.00621934)
(-0.159402 2.8074e-07 0.00605589)
(-0.16865 4.80958e-07 0.00588685)
(-0.177663 6.64934e-07 0.00571327)
(-0.186432 7.98854e-07 0.00553589)
(-0.194949 8.83508e-07 0.00535522)
(-0.203205 9.62107e-07 0.00517165)
(-0.211194 1.09723e-06 0.00498562)
(-0.218909 1.32251e-06 0.00479772)
(-0.226342 1.59336e-06 0.00460847)
(-0.23349 1.7582e-06 0.0044179)
(-0.240347 1.54711e-06 0.00422536)
(-0.246909 5.48348e-07 0.00402987)
(-0.253169 -1.8706e-06 0.00383076)
(-0.259116 -6.79351e-06 0.00362801)
(-0.264743 -1.63875e-05 0.00342268)
(-0.270043 -3.53921e-05 0.00322112)
(-0.275025 -7.43108e-05 0.00304808)
(-0.279731 -0.000157279 0.00296746)
(-0.284274 -0.000337391 0.00307609)
(-0.288895 -0.000643832 0.00334007)
(-0.293468 -0.000535539 0.00313317)
(-0.297277 7.56134e-05 0.00253122)
(-0.30022 0.000578618 0.00321135)
(-0.303182 0.0015202 0.0109501)
(-0.306838 0.00181301 0.0140268)
(-0.309072 -0.000403025 -0.013312)
(-0.309679 -0.000541774 -0.00713588)
(-0.311831 -0.000131317 0.0018203)
(-0.314945 3.31242e-05 0.00234638)
(-0.316853 5.28701e-06 0.000719674)
(-0.317609 -3.60917e-05 -0.000127214)
(-0.317768 -0.000152226 -0.000584761)
(-0.318013 -0.000262706 0.000541043)
(-0.319232 -0.000548207 0.0014467)
(-0.320259 -0.000413405 0.000583031)
(-0.32018 0.000525184 -0.00022472)
(-0.31961 0.000611419 -0.000687023)
(-0.318232 0.000315221 -0.000626243)
(-0.317667 0.000409128 0.00398306)
(-0.317618 -5.32971e-05 -0.000984052)
(-0.315718 -0.000348468 -0.00558029)
(-0.31396 3.85315e-05 -0.000608613)
(-0.312749 0.000189391 -7.03198e-05)
(-0.310895 0.000505308 0.00722166)
(-0.30994 0.000522259 0.0118075)
(-0.307876 -0.00109479 -0.0150256)
(-0.30501 -0.00124589 -0.00993003)
(-0.302526 -0.000694567 -0.002885)
(-0.299541 0.00034504 -0.00261258)
(-0.296387 0.000512221 -0.0021106)
(-0.293428 0.000243761 -0.0017505)
(-0.290483 0.000108126 -0.00176377)
(-0.287384 4.78959e-05 -0.00188332)
(-0.2841 2.04345e-05 -0.00200715)
(-0.280645 8.54491e-06 -0.00211477)
(-0.27704 3.97976e-06 -0.00220786)
(-0.273304 2.2814e-06 -0.00229042)
(-0.269448 1.37658e-06 -0.00236473)
(-0.265482 7.11899e-07 -0.00243216)
(-0.261414 3.52152e-07 -0.00249387)
(-0.257254 3.3092e-07 -0.00255089)
(-0.25301 4.71251e-07 -0.00260383)
(-0.24869 5.38064e-07 -0.00265286)
(-0.244301 4.2514e-07 -0.002698)
(-0.239849 1.94865e-07 -0.00273927)
(-0.23534 -1.52895e-08 -0.00277677)
(-0.23078 -1.07428e-07 -0.00281065)
(-0.226176 -7.35568e-08 -0.00284101)
(-0.221533 2.71789e-08 -0.00286789)
(-0.216858 1.221e-07 -0.00289127)
(-0.212156 1.65886e-07 -0.00291117)
(-0.207432 1.51433e-07 -0.00292759)
(-0.202693 9.82448e-08 -0.00294062)
(-0.197943 3.42196e-08 -0.00295035)
(-0.193189 -1.79508e-08 -0.00295688)
(-0.188434 -4.66194e-08 -0.00296031)
(-0.183684 -5.10203e-08 -0.00296071)
(-0.178945 -3.78598e-08 -0.00295812)
(-0.174219 -1.6948e-08 -0.00295261)
(-0.169512 2.83843e-09 -0.00294423)
(-0.164829 1.611e-08 -0.00293307)
(-0.160172 2.15725e-08 -0.00291918)
(-0.155548 2.09063e-08 -0.00290265)
(-0.150958 1.69111e-08 -0.00288358)
(-0.146408 1.18333e-08 -0.00286203)
(-0.141901 6.73054e-09 -0.0028381)
(-0.13744 1.68024e-09 -0.00281188)
(-0.133028 -3.46073e-09 -0.00278344)
(-0.128669 -8.46862e-09 -0.00275288)
(-0.124366 -1.26462e-08 -0.00272027)
(-0.120122 -1.51236e-08 -0.00268568)
(-0.115939 -1.53389e-08 -0.0026492)
(-0.11182 -1.34078e-08 -0.0026109)
(-0.107767 -1.00847e-08 -0.00257085)
(-0.103783 -6.49132e-09 -0.00252914)
(-0.0998701 -3.72645e-09 -0.00248583)
(-0.0960304 -2.46799e-09 -0.002441)
(-0.0922659 -2.81631e-09 -0.00239472)
(-0.0885783 -4.37715e-09 -0.00234707)
(-0.0849695 -6.45466e-09 -0.00229812)
(-0.0814412 -8.33103e-09 -0.00224792)
(-0.0779948 -9.47145e-09 -0.00219655)
(-0.0746318 -9.66409e-09 -0.00214406)
(-0.0713536 -8.9703e-09 -0.00209052)
(-0.0681614 -7.6881e-09 -0.00203599)
(-0.0650565 -6.19898e-09 -0.00198054)
(-0.0620398 -4.86455e-09 -0.00192422)
(-0.0591124 -3.9316e-09 -0.0018671)
(-0.0562752 -3.51528e-09 -0.00180923)
(-0.053529 -3.58078e-09 -0.00175067)
(-0.0508746 -4.03151e-09 -0.0016915)
(-0.0483125 -4.67584e-09 -0.00163176)
(-0.0458434 -5.3737e-09 -0.00157153)
(-0.0434676 -5.97332e-09 -0.00151086)
(-0.0411856 -6.39291e-09 -0.00144982)
(-0.0389977 -6.61072e-09 -0.00138849)
(-0.036904 -6.63e-09 -0.00132692)
(-0.0349046 -6.47738e-09 -0.00126521)
(-0.0329994 -6.19955e-09 -0.00120342)
(-0.0311885 -5.86656e-09 -0.00114165)
(-0.0294714 -5.47841e-09 -0.00107997)
(-0.0278478 -5.09016e-09 -0.00101848)
(-0.0263172 -4.69681e-09 -0.000957282)
(-0.0248789 -4.30839e-09 -0.000896478)
(-0.0235322 -3.90984e-09 -0.000836177)
(-0.0222761 -3.48112e-09 -0.000776496)
(-0.0211095 -3.01719e-09 -0.000717557)
(-0.0200311 -2.49632e-09 -0.000659492)
(-0.0190393 -1.91848e-09 -0.000602437)
(-0.0181325 -1.27192e-09 -0.000546536)
(-0.0173088 -5.54955e-10 -0.000491942)
(-0.0165662 2.39152e-10 -0.000438813)
(-0.0159022 1.09706e-09 -0.000387317)
(-0.0153143 2.01712e-09 -0.000337627)
(-0.0147996 3.00608e-09 -0.000289925)
(-0.0143551 4.03718e-09 -0.000244398)
(-0.0139775 5.12219e-09 -0.000201242)
(-0.013663 6.26782e-09 -0.000160659)
(-0.0134077 7.46407e-09 -0.000122854)
(-0.0132074 8.73777e-09 -8.80422e-05)
(-0.0130576 1.01225e-08 -5.64401e-05)
(-0.0129533 1.16216e-08 -2.82702e-05)
(-0.0128894 1.33056e-08 -3.75855e-06)
(-0.0128605 1.52047e-08 1.68642e-05)
(-0.0128605 1.73626e-08 3.33677e-05)
(-0.0128834 1.98232e-08 4.55264e-05)
(-0.0129226 2.25967e-08 5.31074e-05)
(-0.0129713 2.57336e-08 5.58735e-05)
(-0.0130222 2.91939e-08 5.35952e-05)
(-0.0130678 3.30081e-08 4.60478e-05)
(-0.0131001 3.71295e-08 3.30112e-05)
(-0.0131111 4.15416e-08 1.42732e-05)
(-0.0130921 4.62245e-08 -1.03533e-05)
(-0.0130344 5.11718e-08 -4.10405e-05)
(-0.0129289 5.63939e-08 -7.79474e-05)
(-0.0127664 6.19651e-08 -0.000121193)
(-0.0125372 6.78758e-08 -0.000170847)
(-0.012232 7.41636e-08 -0.000226908)
(-0.0118412 8.06946e-08 -0.000289277)
(-0.0113555 8.73147e-08 -0.000357704)
(-0.010766 9.37822e-08 -0.00043172)
(-0.0100647 1.00007e-07 -0.000510524)
(-0.00924479 1.05996e-07 -0.000592811)
(-0.00830188 1.11804e-07 -0.000676496)
(-0.00723495 1.17446e-07 -0.000758278)
(-0.00604858 1.22879e-07 -0.000832933)
(-0.004756 1.28322e-07 -0.000892182)
(-0.00338433 1.34592e-07 -0.000922889)
(-0.00198207 1.42966e-07 -0.000904338)
(-0.000633142 1.54642e-07 -0.000804477)
(0.000532155 1.69191e-07 -0.000576389)
(0.00129698 1.82192e-07 -0.000170383)
(0.0014166 1.84938e-07 0.000360186)
(0.000548085 7.94953e-08 0.000584196)
(0.00639544 -4.59237e-05 -0.0122647)
(0.0133377 -4.26957e-06 -0.0139366)
(0.0171965 3.07078e-06 -0.0109067)
(0.0190608 2.51471e-06 -0.00627047)
(0.0188377 9.02632e-07 -0.00165594)
(0.0167929 1.40945e-08 0.00239066)
(0.0131252 -2.49247e-07 0.00573947)
(0.00805692 -2.41908e-07 0.00843333)
(0.00180911 -1.6772e-07 0.0105688)
(-0.00541499 -9.93364e-08 0.0122449)
(-0.0134207 -5.18932e-08 0.0135448)
(-0.0220568 -2.2543e-08 0.0145354)
(-0.031187 -4.83716e-09 0.0152779)
(-0.0406991 6.61532e-09 0.0158244)
(-0.0504943 1.5157e-08 0.0162113)
(-0.0604908 2.19692e-08 0.0164672)
(-0.0706193 2.65123e-08 0.0166147)
(-0.080821 2.72616e-08 0.0166719)
(-0.0910458 2.27614e-08 0.0166533)
(-0.101251 1.26707e-08 0.0165706)
(-0.111399 -1.31763e-09 0.0164335)
(-0.12146 -1.49089e-08 0.0162498)
(-0.131405 -2.12518e-08 0.0160262)
(-0.141212 -1.21097e-08 0.0157681)
(-0.150858 1.93667e-08 0.0154799)
(-0.160326 7.4577e-08 0.0151656)
(-0.169601 1.46006e-07 0.0148286)
(-0.178666 2.17713e-07 0.0144717)
(-0.187512 2.72241e-07 0.0140974)
(-0.196126 3.02329e-07 0.0137079)
(-0.2045 3.20114e-07 0.0133048)
(-0.212625 3.54875e-07 0.0128895)
(-0.220494 4.36565e-07 0.0124632)
(-0.228101 5.7332e-07 0.0120272)
(-0.235439 7.3653e-07 0.0115824)
(-0.242504 8.59892e-07 0.0111294)
(-0.249292 8.47847e-07 0.0106683)
(-0.2558 5.93217e-07 0.0101984)
(-0.262027 2.54589e-08 0.00971911)
(-0.267971 -7.76495e-07 0.0092295)
(-0.273636 -1.34128e-06 0.00872808)
(-0.279034 -1.35674e-07 0.00821123)
(-0.284201 7.39645e-06 0.00767195)
(-0.289214 3.5091e-05 0.0071056)
(-0.29412 0.00013184 0.00655634)
(-0.298178 0.000409364 0.00623109)
(-0.301112 0.000480975 0.00586698)
(-0.304483 3.10285e-05 0.00543996)
(-0.308095 -0.000335124 0.00525306)
(-0.31206 -0.00102047 0.00473621)
(-0.315974 -0.000776149 0.00445021)
(-0.318316 0.000216871 0.00443216)
(-0.31969 0.000351182 0.00395491)
(-0.321271 8.48755e-05 0.00310812)
(-0.323438 -1.74438e-05 0.00235498)
(-0.325456 6.47276e-06 0.00201695)
(-0.326679 1.72633e-05 0.00181875)
(-0.327409 6.51242e-05 0.00126082)
(-0.328515 0.000131763 0.000446557)
(-0.328918 0.000391302 0.000279918)
(-0.327417 0.000365271 0.000267436)
(-0.327543 -0.000438161 -0.000256988)
(-0.329035 -0.000414825 -0.000455604)
(-0.328482 -0.000171267 -0.000709233)
(-0.327083 -0.000273894 -0.00136472)
(-0.325782 4.41049e-05 -0.00169394)
(-0.324443 0.00024036 -0.00187368)
(-0.323497 -4.58115e-05 -0.0022835)
(-0.322281 -0.000123576 -0.00263734)
(-0.320131 -0.00032837 -0.00287581)
(-0.317853 -0.000264004 -0.00325767)
(-0.316275 0.000490945 -0.00367091)
(-0.313899 0.000808154 -0.00379328)
(-0.309629 0.000479494 -0.00407046)
(-0.306876 -0.000383615 -0.00450271)
(-0.305631 -0.000365194 -0.00441299)
(-0.302841 -0.000106115 -0.0044147)
(-0.299313 -2.69217e-05 -0.00474476)
(-0.295856 -6.48428e-06 -0.00509066)
(-0.29239 -1.13958e-06 -0.00538987)
(-0.288838 2.46227e-07 -0.00564583)
(-0.285176 6.04073e-07 -0.00586994)
(-0.2814 5.79062e-07 -0.00607062)
(-0.277512 3.83121e-07 -0.00625272)
(-0.273519 2.07739e-07 -0.00641896)
(-0.269426 1.5979e-07 -0.00657124)
(-0.265241 2.09513e-07 -0.00671104)
(-0.260973 2.56347e-07 -0.0068394)
(-0.256626 2.29789e-07 -0.0069569)
(-0.252207 1.35195e-07 -0.00706383)
(-0.247723 2.88028e-08 -0.00716037)
(-0.243179 -3.53607e-08 -0.00724675)
(-0.238582 -3.98785e-08 -0.00732326)
(-0.233938 -3.59192e-09 -0.00739017)
(-0.229253 4.02899e-08 -0.00744769)
(-0.224532 6.61545e-08 -0.00749601)
(-0.219781 6.55731e-08 -0.00753529)
(-0.215005 4.46696e-08 -0.00756569)
(-0.210211 1.59824e-08 -0.00758742)
(-0.205402 -8.91211e-09 -0.00760073)
(-0.200585 -2.32992e-08 -0.00760584)
(-0.195765 -2.59374e-08 -0.00760301)
(-0.190946 -1.96693e-08 -0.00759247)
(-0.186133 -9.23138e-09 -0.00757444)
(-0.181332 8.27343e-10 -0.00754915)
(-0.176545 7.58554e-09 -0.00751681)
(-0.171779 1.02039e-08 -0.00747766)
(-0.167036 9.50254e-09 -0.00743192)
(-0.162322 7.02775e-09 -0.00737984)
(-0.157639 4.17341e-09 -0.00732166)
(-0.152992 1.69938e-09 -0.00725762)
(-0.148385 -2.44199e-10 -0.00718794)
(-0.143821 -1.80031e-09 -0.00711288)
(-0.139303 -3.07504e-09 -0.00703266)
(-0.134834 -3.98003e-09 -0.00694751)
(-0.130419 -4.28921e-09 -0.00685765)
(-0.126059 -3.82582e-09 -0.00676329)
(-0.121758 -2.61169e-09 -0.00666465)
(-0.117519 -9.16299e-10 -0.00656193)
(-0.113343 8.45666e-10 -0.00645533)
(-0.109233 2.25277e-09 -0.00634506)
(-0.105193 3.03944e-09 -0.00623129)
(-0.101223 3.15122e-09 -0.00611423)
(-0.0973272 2.74191e-09 -0.00599405)
(-0.0935062 2.08151e-09 -0.00587093)
(-0.0897624 1.45422e-09 -0.00574502)
(-0.0860977 1.07458e-09 -0.00561651)
(-0.0825136 1.0294e-09 -0.00548554)
(-0.079012 1.29425e-09 -0.00535227)
(-0.0755942 1.76004e-09 -0.00521684)
(-0.0722619 2.28277e-09 -0.00507941)
(-0.0690163 2.73832e-09 -0.00494011)
(-0.0658587 3.03453e-09 -0.00479908)
(-0.0627902 3.14394e-09 -0.00465647)
(-0.0598121 3.08021e-09 -0.0045124)
(-0.0569253 2.89479e-09 -0.00436701)
(-0.0541308 2.65038e-09 -0.00422044)
(-0.0514293 2.40882e-09 -0.00407282)
(-0.0488216 2.21084e-09 -0.0039243)
(-0.0463084 2.08594e-09 -0.00377501)
(-0.0438903 2.03705e-09 -0.0036251)
(-0.0415677 2.05172e-09 -0.00347473)
(-0.039341 2.12041e-09 -0.00332404)
(-0.0372105 2.21529e-09 -0.0031732)
(-0.0351763 2.32308e-09 -0.0030224)
(-0.0332384 2.42839e-09 -0.0028718)
(-0.0313969 2.525e-09 -0.00272161)
(-0.0296514 2.60748e-09 -0.00257203)
(-0.0280017 2.67668e-09 -0.00242327)
(-0.0264472 2.73549e-09 -0.00227557)
(-0.0249874 2.78725e-09 -0.00212917)
(-0.0236214 2.83277e-09 -0.00198432)
(-0.0223483 2.87872e-09 -0.00184131)
(-0.0211669 2.92052e-09 -0.00170043)
(-0.0200759 2.96274e-09 -0.00156198)
(-0.0190738 3.00456e-09 -0.00142629)
(-0.0181587 3.04555e-09 -0.00129371)
(-0.0173288 3.07905e-09 -0.00116458)
(-0.0165819 3.10757e-09 -0.0010393)
(-0.0159154 3.12443e-09 -0.000918255)
(-0.0153267 3.12797e-09 -0.000801863)
(-0.0148129 3.12068e-09 -0.000690554)
(-0.0143706 3.09506e-09 -0.000584777)
(-0.0139964 3.05361e-09 -0.000484996)
(-0.0136865 3.00131e-09 -0.000391691)
(-0.0134366 2.93483e-09 -0.000305357)
(-0.0132424 2.8625e-09 -0.000226502)
(-0.0130992 2.78597e-09 -0.000155645)
(-0.0130018 2.71776e-09 -9.33186e-05)
(-0.0129448 2.65786e-09 -4.00612e-05)
(-0.0129226 2.61547e-09 3.58107e-06)
(-0.012929 2.58139e-09 3.70577e-05)
(-0.0129577 2.55981e-09 5.98102e-05)
(-0.0130019 2.54322e-09 7.12782e-05)
(-0.0130545 2.51746e-09 7.09083e-05)
(-0.0131083 2.47499e-09 5.81554e-05)
(-0.0131555 2.39996e-09 3.24879e-05)
(-0.0131881 2.27983e-09 -6.60367e-06)
(-0.013198 2.09955e-09 -5.9595e-05)
(-0.0131767 1.86412e-09 -0.000126925)
(-0.0131155 1.57432e-09 -0.00020898)
(-0.0130056 1.24934e-09 -0.00030606)
(-0.0128383 8.90825e-10 -0.000418355)
(-0.0126046 4.92067e-10 -0.00054589)
(-0.012296 1.04071e-11 -0.000688458)
(-0.0119041 -5.96015e-10 -0.00084552)
(-0.0114212 -1.37162e-09 -0.00101604)
(-0.0108404 -2.30818e-09 -0.00119828)
(-0.0101563 -3.35903e-09 -0.00138939)
(-0.0093654 -4.51176e-09 -0.00158492)
(-0.00846715 -5.81176e-09 -0.00177792)
(-0.00746504 -7.28441e-09 -0.00195763)
(-0.00636837 -8.80192e-09 -0.00210736)
(-0.00519456 -1.00914e-08 -0.0022012)
(-0.00397198 -1.08878e-08 -0.00219915)
(-0.00274423 -1.09791e-08 -0.00204058)
(-0.0015715 -9.95046e-09 -0.00163732)
(-0.000547258 -9.38527e-09 -0.000877908)
(0.000231046 -2.10987e-08 0.000309283)
(0.000302127 -1.43879e-07 0.00145703)
(0.00636728 -4.59168e-05 -0.0122491)
(0.0133234 -4.26963e-06 -0.013921)
(0.0171917 3.07075e-06 -0.0108998)
(0.0190606 2.51468e-06 -0.00626665)
(0.0188386 9.02622e-07 -0.00165365)
(0.0167941 1.40943e-08 0.00239191)
(0.0131263 -2.49245e-07 0.0057401)
(0.00805769 -2.41905e-07 0.00843367)
(0.00180961 -1.67719e-07 0.010569)
(-0.00541468 -9.93355e-08 0.012245)
(-0.0134205 -5.18928e-08 0.0135449)
(-0.0220567 -2.25428e-08 0.0145355)
(-0.031187 -4.83712e-09 0.0152779)
(-0.0406991 6.61527e-09 0.0158245)
(-0.0504943 1.51569e-08 0.0162113)
(-0.0604908 2.19691e-08 0.0164672)
(-0.0706193 2.65121e-08 0.0166147)
(-0.0808209 2.72614e-08 0.0166719)
(-0.0910456 2.27612e-08 0.0166533)
(-0.101251 1.26706e-08 0.0165706)
(-0.111399 -1.31762e-09 0.0164335)
(-0.12146 -1.49088e-08 0.0162499)
(-0.131405 -2.12517e-08 0.0160262)
(-0.141211 -1.21097e-08 0.015768)
(-0.150858 1.93666e-08 0.0154798)
(-0.160326 7.45765e-08 0.0151655)
(-0.1696 1.46005e-07 0.0148285)
(-0.178666 2.17712e-07 0.0144716)
(-0.187511 2.72239e-07 0.0140974)
(-0.196124 3.02327e-07 0.0137078)
(-0.204498 3.20112e-07 0.0133046)
(-0.212623 3.54873e-07 0.0128891)
(-0.220491 4.36562e-07 0.0124627)
(-0.228097 5.73317e-07 0.0120263)
(-0.235434 7.36527e-07 0.011581)
(-0.242497 8.59889e-07 0.011127)
(-0.249284 8.47846e-07 0.0106638)
(-0.255792 5.93218e-07 0.0101908)
(-0.262018 2.5459e-08 0.00970706)
(-0.267962 -7.76484e-07 0.00921215)
(-0.273626 -1.34112e-06 0.00870648)
(-0.279021 -1.35597e-07 0.00819445)
(-0.284158 7.38003e-06 0.00769142)
(-0.289043 3.48166e-05 0.00723185)
(-0.293649 0.000128583 0.00686115)
(-0.297841 0.000381919 0.00653238)
(-0.301628 0.000417715 0.00605883)
(-0.305366 2.61738e-05 0.00546486)
(-0.30911 -0.000291335 0.00500722)
(-0.312178 -0.0010165 0.00484977)
(-0.314138 -0.00105401 0.00440774)
(-0.317162 0.000304719 0.00356804)
(-0.320663 0.000391555 0.00326944)
(-0.322486 8.69509e-05 0.00338414)
(-0.323403 -1.75385e-05 0.00287941)
(-0.324651 6.48828e-06 0.00198442)
(-0.326114 1.7283e-05 0.00134269)
(-0.327561 6.49009e-05 0.000965968)
(-0.328613 0.000129346 0.000834981)
(-0.328603 0.000369382 0.000618023)
(-0.328278 0.000325759 0.000228787)
(-0.328259 -0.000393675 -3.9967e-05)
(-0.328175 -0.0003968 -0.000538219)
(-0.328171 -0.000171287 -0.00122244)
(-0.327249 -0.000284787 -0.00128991)
(-0.325586 4.72072e-05 -0.00146986)
(-0.324964 0.000248762 -0.00180972)
(-0.323877 -4.64939e-05 -0.00201169)
(-0.322025 -0.000127446 -0.00268514)
(-0.320338 -0.000369981 -0.00302891)
(-0.317453 -0.000375948 -0.0031329)
(-0.315025 0.000686838 -0.00338832)
(-0.313413 0.000850187 -0.003762)
(-0.310855 0.000434798 -0.00423521)
(-0.308152 -0.000343092 -0.00446753)
(-0.305418 -0.000346323 -0.00444885)
(-0.302386 -0.000104303 -0.00457547)
(-0.299153 -2.6794e-05 -0.00484098)
(-0.295819 -6.47666e-06 -0.00513246)
(-0.292385 -1.13927e-06 -0.00540498)
(-0.288839 2.46213e-07 -0.00565019)
(-0.285177 6.04064e-07 -0.00587074)
(-0.281401 5.79058e-07 -0.00607047)
(-0.277513 3.83119e-07 -0.00625231)
(-0.273519 2.07738e-07 -0.0064185)
(-0.269427 1.59789e-07 -0.00657088)
(-0.265242 2.09512e-07 -0.00671088)
(-0.260973 2.56346e-07 -0.00683941)
(-0.256626 2.29788e-07 -0.00695698)
(-0.252208 1.35194e-07 -0.00706387)
(-0.247723 2.88026e-08 -0.00716036)
(-0.243179 -3.53605e-08 -0.00724672)
(-0.238582 -3.98783e-08 -0.00732325)
(-0.233938 -3.5919e-09 -0.0073902)
(-0.229253 4.02897e-08 -0.00744774)
(-0.224532 6.61542e-08 -0.00749606)
(-0.219781 6.55728e-08 -0.00753531)
(-0.215005 4.46694e-08 -0.00756568)
(-0.21021 1.59824e-08 -0.0075874)
(-0.205402 -8.91207e-09 -0.0076007)
(-0.200585 -2.32991e-08 -0.00760582)
(-0.195764 -2.59373e-08 -0.00760301)
(-0.190946 -1.96692e-08 -0.00759248)
(-0.186133 -9.23134e-09 -0.00757446)
(-0.181332 8.27339e-10 -0.00754917)
(-0.176545 7.58551e-09 -0.00751683)
(-0.171779 1.02038e-08 -0.00747767)
(-0.167036 9.5025e-09 -0.00743193)
(-0.162322 7.02772e-09 -0.00737984)
(-0.157639 4.17339e-09 -0.00732166)
(-0.152992 1.69938e-09 -0.00725761)
(-0.148385 -2.44197e-10 -0.00718794)
(-0.14382 -1.8003e-09 -0.00711288)
(-0.139303 -3.07503e-09 -0.00703266)
(-0.134834 -3.98001e-09 -0.00694751)
(-0.130419 -4.28919e-09 -0.00685765)
(-0.126059 -3.8258e-09 -0.0067633)
(-0.121758 -2.61168e-09 -0.00666465)
(-0.117518 -9.16295e-10 -0.00656193)
(-0.113343 8.45662e-10 -0.00645534)
(-0.109233 2.25276e-09 -0.00634506)
(-0.105193 3.03943e-09 -0.0062313)
(-0.101223 3.15121e-09 -0.00611424)
(-0.0973271 2.7419e-09 -0.00599406)
(-0.0935061 2.0815e-09 -0.00587093)
(-0.0897623 1.45421e-09 -0.00574503)
(-0.0860975 1.07458e-09 -0.00561652)
(-0.0825135 1.02939e-09 -0.00548555)
(-0.0790119 1.29424e-09 -0.00535228)
(-0.0755941 1.76003e-09 -0.00521685)
(-0.0722618 2.28276e-09 -0.00507942)
(-0.0690162 2.73831e-09 -0.00494012)
(-0.0658585 3.03452e-09 -0.00479909)
(-0.0627901 3.14393e-09 -0.00465648)
(-0.059812 3.0802e-09 -0.00451241)
(-0.0569252 2.89478e-09 -0.00436702)
(-0.0541306 2.65037e-09 -0.00422045)
(-0.0514292 2.40881e-09 -0.00407284)
(-0.0488215 2.21083e-09 -0.00392431)
(-0.0463083 2.08594e-09 -0.00377502)
(-0.0438902 2.03704e-09 -0.00362512)
(-0.0415676 2.05171e-09 -0.00347474)
(-0.0393409 2.1204e-09 -0.00332405)
(-0.0372104 2.21529e-09 -0.00317322)
(-0.0351762 2.32307e-09 -0.00302241)
(-0.0332383 2.42839e-09 -0.00287182)
(-0.0313968 2.52499e-09 -0.00272163)
(-0.0296513 2.60747e-09 -0.00257204)
(-0.0280016 2.67667e-09 -0.00242329)
(-0.0264471 2.73548e-09 -0.00227558)
(-0.0249873 2.78724e-09 -0.00212918)
(-0.0236213 2.83277e-09 -0.00198434)
(-0.0223482 2.87872e-09 -0.00184133)
(-0.0211668 2.92051e-09 -0.00170045)
(-0.0200758 2.96274e-09 -0.001562)
(-0.0190737 3.00455e-09 -0.00142631)
(-0.0181586 3.04554e-09 -0.00129372)
(-0.0173287 3.07904e-09 -0.0011646)
(-0.0165818 3.10756e-09 -0.00103931)
(-0.0159153 3.12442e-09 -0.00091827)
(-0.0153266 3.12796e-09 -0.000801878)
(-0.0148128 3.12067e-09 -0.000690569)
(-0.0143705 3.09505e-09 -0.000584792)
(-0.0139963 3.0536e-09 -0.000485011)
(-0.0136864 3.0013e-09 -0.000391706)
(-0.0134365 2.93482e-09 -0.000305372)
(-0.0132423 2.86249e-09 -0.000226517)
(-0.0130991 2.78596e-09 -0.00015566)
(-0.0130017 2.71775e-09 -9.33328e-05)
(-0.0129447 2.65786e-09 -4.00752e-05)
(-0.0129225 2.61546e-09 3.56734e-06)
(-0.0129289 2.58138e-09 3.70442e-05)
(-0.0129576 2.5598e-09 5.9797e-05)
(-0.0130018 2.54322e-09 7.12651e-05)
(-0.0130544 2.51745e-09 7.08953e-05)
(-0.0131082 2.47498e-09 5.81423e-05)
(-0.0131554 2.39996e-09 3.24746e-05)
(-0.0131881 2.27982e-09 -6.61749e-06)
(-0.0131979 2.09955e-09 -5.96094e-05)
(-0.0131766 1.86411e-09 -0.00012694)
(-0.0131154 1.57432e-09 -0.000208996)
(-0.0130056 1.24934e-09 -0.000306078)
(-0.0128382 8.90823e-10 -0.000418375)
(-0.0126046 4.92066e-10 -0.000545913)
(-0.0122959 1.0407e-11 -0.000688484)
(-0.011904 -5.96014e-10 -0.00084555)
(-0.0114211 -1.37161e-09 -0.00101608)
(-0.0108404 -2.30818e-09 -0.00119832)
(-0.0101563 -3.35902e-09 -0.00138943)
(-0.0093654 -4.51175e-09 -0.00158497)
(-0.00846715 -5.81175e-09 -0.00177798)
(-0.00746504 -7.2844e-09 -0.00195771)
(-0.00636838 -8.80191e-09 -0.00210744)
(-0.00519458 -1.00914e-08 -0.0022013)
(-0.003972 -1.08878e-08 -0.00219926)
(-0.00274426 -1.09791e-08 -0.00204071)
(-0.00157153 -9.95044e-09 -0.00163748)
(-0.000547313 -9.38525e-09 -0.000878103)
(0.000230898 -2.10987e-08 0.000309014)
(0.000301909 -1.43879e-07 0.00145661)
(0.00559031 -2.9844e-05 -0.0218684)
(0.0101165 -6.51756e-06 -0.0180102)
(0.0111156 -1.29572e-06 -0.0119488)
(0.0104865 -3.66701e-08 -0.00543766)