/*--------------------------------*- C++ -*----------------------------------*\
  =========                 |
  \\      /  F ield         | OpenFOAM: The Open Source CFD Toolbox
   \\    /   O peration     | Website:  https://openfoam.org
    \\  /    A nd           | Version:  8
     \\/     M anipulation  |
\*---------------------------------------------------------------------------*/
FoamFile
{
    version     2.0;
    format      ascii;
    class       volScalarField;
    location    "2000";
    object      epsilon;
}
// * * * * * * * * * * * * * * * * * * * * * * * * * * * * * * * * * * * * * //

dimensions      [0 2 -3 0 0 0 0];

internalField   nonuniform List<scalar> 
48000
(
0.740905
2.08915
4.05674
6.10618
8.21671
10.3131
12.4009
14.5404
16.6715
18.8178
20.978
23.1516
25.3381
27.5365
29.7454
31.9628
34.1865
36.4138
38.6416
40.8668
43.0859
45.2953
47.4914
49.6703
51.8283
53.9618
56.067
58.1404
60.1787
62.1786
64.1369
66.051
67.918
69.7356
71.5016
73.214
74.8711
76.4714
78.0137
79.4969
80.9201
82.2829
83.5848
84.8255
86.005
87.1234
88.1809
89.1776
90.1138
90.9956
91.8256
92.5991
93.3161
93.9775
94.5847
95.1387
95.641
96.0929
96.4958
96.851
97.1599
97.4238
97.6443
97.8227
97.9603
98.0585
98.1186
98.142
98.13
98.0837
98.0046
97.8936
97.7522
97.5812
97.382
97.1555
96.9027
96.6248
96.3225
95.9969
95.6488
95.2791
94.8886
94.4781
94.0484
93.6
93.1338
92.6504
92.1503
91.6343
91.1027
90.5562
89.9953
89.4205
88.8321
88.2306
87.6165
86.99
86.3516
85.7016
85.0403
84.368
83.685
82.9915
82.2878
81.5741
80.8507
80.1177
79.3754
78.6239
77.8633
77.0939
76.3159
75.5292
74.7342
73.9309
73.1194
72.2999
71.4725
70.6373
69.7944
68.944
68.0862
67.2211
66.3488
65.4694
64.5831
63.6901
62.7903
61.8841
60.9716
60.0529
59.1282
58.1977
57.2616
56.3201
55.3734
54.4218
53.4654
52.5046
51.5396
50.5708
49.5983
48.6226
47.6439
46.6626
45.679
44.6936
43.7066
42.7186
41.7299
40.7409
39.7521
38.7639
37.7767
36.7911
35.8076
34.8265
33.8484
32.8738
31.9032
30.9371
29.9759
29.0202
28.0704
27.1271
26.1907
25.2616
24.3404
23.4275
22.5233
21.6281
20.7424
19.8666
19.0008
18.1455
17.3008
16.467
15.6443
14.8327
14.0324
13.2435
12.4663
11.7014
10.9533
10.2193
9.49351
8.77511
8.06312
7.35609
6.65256
5.95035
5.24731
4.54918
3.84696
3.13199
2.39491
1.62204
0.193088
0.176214
0.740677
2.08905
4.05689
6.10638
8.21695
10.3134
12.4012
14.5407
16.6718
18.8181
20.9783
23.1519
25.3385
27.5369
29.7457
31.9632
34.1869
36.4141
38.642
40.8672
43.0863
45.2957
47.4917
49.6706
51.8286
53.962
56.0672
58.1407
60.1789
62.1788
64.1372
66.0512
67.9182
69.7358
71.5018
73.2142
74.8713
76.4716
78.0138
79.497
80.9203
82.283
83.5849
84.8256
86.0051
87.1235
88.181
89.1777
90.1139
90.9956
91.8256
92.5991
93.3161
93.9775
94.5847
95.1387
95.641
96.0929
96.4958
96.8509
97.1598
97.4238
97.6443
97.8226
97.9602
98.0584
98.1185
98.1419
98.1299
98.0837
98.0045
97.8936
97.7521
97.5812
97.3819
97.1554
96.9027
96.6247
96.3224
95.9968
95.6487
95.279
94.8886
94.4781
94.0483
93.5999
93.1337
92.6503
92.1503
91.6342
91.1026
90.5562
89.9952
89.4204
88.832
88.2305
87.6164
86.9899
86.3515
85.7015
85.0402
84.3679
83.6849
82.9914
82.2877
81.5741
80.8506
80.1177
79.3753
78.6238
77.8633
77.0939
76.3158
75.5292
74.7341
73.9308
73.1193
72.2998
71.4724
70.6372
69.7944
68.944
68.0862
67.221
66.3487
65.4693
64.5831
63.69
62.7903
61.8841
60.9715
60.0528
59.1281
58.1976
57.2615
56.32
55.3733
54.4217
53.4654
52.5046
51.5396
50.5707
49.5983
48.6225
47.6438
46.6625
45.679
44.6935
43.7066
42.7186
41.7298
40.7408
39.752
38.7638
37.7767
36.7911
35.8075
34.8265
33.8484
32.8738
31.9032
30.937
29.9758
29.0201
28.0704
27.1271
26.1906
25.2616
24.3404
23.4275
22.5233
21.6281
20.7424
19.8665
19.0008
18.1455
17.3008
16.467
15.6443
14.8327
14.0324
13.2435
12.4663
11.7014
10.9533
10.2193
9.49351
8.77511
8.06312
7.3561
6.65256
5.95035
5.24731
4.54919
3.84698
3.13207
2.39514
1.62247
0.193093
0.176277
2.49669
2.16226
2.78661
3.55151
4.37995
5.2325
6.0997
6.98472
7.88238
8.79339
9.71764
10.6548
11.6043
12.5653
13.537
14.5181
15.5073
16.5028
17.503
18.5062
19.5102
20.5131
21.5129
22.5076
23.495
24.4732
25.4402
26.3941
27.333
28.2553
29.1592
30.0434
30.9063
31.7466
32.5633
33.3552
34.1214
34.8612
35.5738
36.2588
36.9155
37.5438
38.1433
38.7139
39.2556
39.7684
40.2524
40.708
41.1356
41.537
41.9127
42.2618
42.5845
42.8811
43.1519
43.3977
43.6189
43.8162
43.9903
44.1419
44.2715
44.38
44.4679
44.536
44.5849
44.6153
44.6278
44.6232
44.602
44.5649
44.5125
44.4454
44.3641
44.2693
44.1614
44.041
43.9086
43.7646
43.6097
43.4441
43.2684
43.083
42.8882
42.6844
42.4721
42.2515
42.023
41.7869
41.5435
41.2931
41.036
40.7724
40.5025
40.2266
39.9449
39.6576
39.3649
39.067
38.7641
38.4562
38.1436
37.8264
37.5048
37.1788
36.8486
36.5143
36.176
35.8338
35.4878
35.138
34.7846
34.4276
34.0671
33.7032
33.3359
32.9653
32.5914
32.2144
31.8342
31.4509
31.0646
30.6754
30.2832
29.8882
29.4904
29.0898
28.6865
28.2806
27.8722
27.4612
27.0479
26.6321
26.2141
25.7939
25.3716
24.9473
24.5211
24.093
23.6633
23.2319
22.7991
22.3649
21.9295
21.493
21.0556
20.6174
20.1786
19.7393
19.2997
18.86
18.4203
17.9809
17.5419
17.1036
16.6661
16.2297
15.7945
15.3607
14.9286
14.4985
14.0704
13.6447
13.2215
12.8011
12.3837
11.9694
11.5586
11.1513
10.7479
10.3484
9.9531
9.56212
9.17562
8.79377
8.41669
8.04449
7.67729
7.31516
6.95819
6.60641
6.25989
5.91866
5.58281
5.2525
4.92806
4.60901
4.29419
3.98372
3.67741
3.37472
3.07539
2.7792
2.4864
2.19871
1.91481
1.63478
1.36191
1.11138
0.96923
1.81297
2.49659
2.1622
2.78646
3.55139
4.37983
5.23237
6.09956
6.98457
7.88222
8.79322
9.71746
10.6546
11.6041
12.5651
13.5368
14.5179
15.507
16.5026
17.5028
18.5059
19.5099
20.5129
21.5127
22.5073
23.4947
24.4729
25.4399
26.3938
27.3327
28.2549
29.1589
30.043
30.9059
31.7463
32.5629
33.3549
34.1211
34.8609
35.5735
36.2584
36.9152
37.5434
38.1429
38.7136
39.2553
39.7681
40.2521
40.7076
41.1352
41.5367
41.9123
42.2615
42.5842
42.8807
43.1516
43.3973
43.6185
43.8159
43.99
44.1415
44.2712
44.3796
44.4675
44.5356
44.5845
44.6149
44.6275
44.6229
44.6017
44.5646
44.5122
44.4451
44.3638
44.2689
44.161
44.0406
43.9082
43.7643
43.6093
43.4438
43.2681
43.0826
42.8878
42.6841
42.4718
42.2512
42.0227
41.7866
41.5432
41.2928
41.0357
40.7721
40.5022
40.2263
39.9446
39.6573
39.3646
39.0667
38.7638
38.4559
38.1433
37.8262
37.5045
37.1786
36.8484
36.5141
36.1758
35.8335
35.4875
35.1377
34.7843
34.4273
34.0668
33.7029
33.3356
32.965
32.5912
32.2141
31.8339
31.4507
31.0644
30.6752
30.283
29.888
29.4902
29.0896
28.6863
28.2804
27.872
27.461
27.0477
26.6319
26.2139
25.7937
25.3714
24.9471
24.5209
24.0928
23.6631
23.2317
22.7989
22.3647
21.9293
21.4929
21.0555
20.6173
20.1784
19.7391
19.2995
18.8598
18.4202
17.9808
17.5418
17.1035
16.666
16.2295
15.7943
15.3606
14.9285
14.4984
14.0703
13.6446
13.2214
12.801
12.3836
11.9693
11.5585
11.1512
10.7478
10.3483
9.95301
9.56203
9.17554
8.79369
8.41661
8.04441
7.67721
7.31509
6.95812
6.60635
6.25982
5.9186
5.58275
5.25244
4.92801
4.60896
4.29414
3.98368
3.67737
3.37468
3.07536
2.77917
2.48638
2.19869
1.9148
1.63478
1.36182
1.11077
0.969218
1.81307
4.62278
2.9164
3.11455
3.57138
4.12161
4.71901
5.34575
5.99438
6.66032
7.34127
8.03581
8.7429
9.46164
10.1911
10.9304
11.6783
12.4337
13.1953
13.9616
14.7312
15.5024
16.2737
17.0434
17.8098
18.5713
19.3261
20.0728
20.8097
21.5354
22.2484
22.9474
23.6312
24.2985
24.9484
25.5798
26.1919
26.784
27.3553
27.9053
28.4336
28.9397
29.4234
29.8845
30.3228
30.7382
31.1309
31.501
31.8485
32.1741
32.4782
32.7613
33.0234
33.2646
33.4853
33.6858
33.8665
34.0278
34.1704
34.2947
34.4012
34.4905
34.5631
34.6195
34.6603
34.6861
34.6974
34.6947
34.6785
34.6494
34.6079
34.5544
34.4894
34.4134
34.3269
34.2302
34.1239
34.0083
33.8838
33.7509
33.6098
33.4609
33.3045
33.1411
32.9708
32.794
32.611
32.422
32.2273
32.0271
31.8216
31.6111
31.3958
31.1759
30.9515
30.7229
30.4901
30.2534
30.0129
29.7687
29.521
29.2698
29.0154
28.7577
28.497
28.2332
27.9665
27.697
27.4248
27.1498
26.8723
26.5922
26.3096
26.0246
25.7372
25.4475
25.1555
24.8613
24.565
24.2664
23.9658
23.6632
23.3586
23.052
22.7434
22.4331
22.1209
21.8069
21.4912
21.1738
20.8547
20.5342
20.212
19.8885
19.5635
19.2373
18.9097
18.581
18.2512
17.9204
17.5887
17.2561
16.9227
16.5888
16.2543
15.9193
15.5841
15.2487
14.9132
14.5778
14.2426
13.9077
13.5733
13.2395
12.9065
12.5745
12.2435
11.9138
11.5854
11.2587
10.9337
10.6105
10.2895
9.97064
9.6542
9.34031
9.02913
8.72082
8.41553
8.11341
7.81459
7.51921
7.22741
6.9393
6.65499
6.37459
6.09818
5.82586
5.5577
5.29375
5.03408
4.77874
4.52776
4.28122
4.03917
3.80165
3.56855
3.33964
3.1149
2.89428
2.67777
2.46577
2.2585
2.05667
1.86156
1.67476
1.49944
1.34307
1.2257
1.23091
2.03747
4.62294
2.91627
3.11439
3.57123
4.12145
4.71883
5.34555
5.99418
6.66011
7.34105
8.03558
8.74267
9.4614
10.1909
10.9301
11.678
12.4334
13.195
13.9613
14.7309
15.5022
16.2735
17.0432
17.8096
18.571
19.3259
20.0726
20.8095
21.5351
22.2482
22.9472
23.6309
24.2983
24.9481
25.5795
26.1917
26.7837
27.3551
27.9051
28.4334
28.9395
29.4232
29.8843
30.3225
30.738
31.1307
31.5007
31.8483
32.1739
32.478
32.7611
33.0232
33.2644
33.4851
33.6856
33.8663
34.0277
34.1702
34.2945
34.401
34.4903
34.5629
34.6193
34.6602
34.686
34.6973
34.6945
34.6784
34.6493
34.6077
34.5542
34.4892
34.4133
34.3267
34.2301
34.1238
34.0082
33.8837
33.7507
33.6096
33.4607
33.3044
33.141
32.9707
32.7939
32.6109
32.4219
32.2272
32.027
31.8215
31.611
31.3957
31.1758
30.9514
30.7228
30.49
30.2533
30.0128
29.7686
29.5209
29.2697
29.0153
28.7576
28.4969
28.2331
27.9664
27.6969
27.4247
27.1497
26.8722
26.5921
26.3095
26.0245
25.7371
25.4474
25.1555
24.8613
24.5649
24.2664
23.9658
23.6631
23.3585
23.0519
22.7434
22.433
22.1208
21.8068
21.4911
21.1737
20.8547
20.5341
20.212
19.8884
19.5635
19.2372
18.9097
18.581
18.2512
17.9204
17.5886
17.256
16.9227
16.5887
16.2542
15.9193
15.5841
15.2486
14.9132
14.5777
14.2425
13.9077
13.5733
13.2395
12.9065
12.5744
12.2435
11.9137
11.5854
11.2586
10.9336
10.6105
10.2894
9.97061
9.65417
9.34028
9.0291
8.72079
8.4155
8.11338
7.81456
7.51919
7.22738
6.93927
6.65497
6.37456
6.09816
5.82584
5.55768
5.29373
5.03406
4.77872
4.52775
4.28121
4.03916
3.80164
3.56853
3.33963
3.11489
2.89427
2.67776
2.46576
2.25849
2.05667
1.86156
1.67476
1.49945
1.34311
1.22568
1.2313
2.03712
6.76832
3.82588
3.70553
3.98389
4.4001
4.88516
5.41173
5.96667
6.54267
7.13545
7.74232
8.36142
8.99139
9.63105
10.2793
10.9351
11.5974
12.2649
12.9364
13.6107
14.2862
14.9618
15.6358
16.307
16.9737
17.6347
18.2884
18.9336
19.5689
20.1931
20.8049
21.4034
21.9874
22.556
23.1084
23.6437
24.1614
24.6607
25.1412
25.6025
26.0442
26.466
26.8678
27.2494
27.6108
27.9521
28.2732
28.5744
28.856
29.1183
29.3616
29.5861
29.7921
29.9798
30.1496
30.3019
30.4369
30.5553
30.6574
30.7437
30.8147
30.8708
30.9126
30.9406
30.9551
30.9567
30.946
30.9232
30.889
30.8437
30.7878
30.7217
30.6459
30.5607
30.4666
30.3639
30.253
30.1343
30.0081
29.8747
29.7345
29.5877
29.4347
29.2757
29.111
28.9408
28.7654
28.5851
28.4
28.2103
28.0163
27.8181
27.6159
27.4098
27.2001
26.9869
26.7703
26.5505
26.3275
26.1015
25.8727
25.641
25.4067
25.1697
24.9303
24.6884
24.4441
24.1976
23.9488
23.6979
23.4449
23.1899
22.9329
22.6739
22.413
22.1503
21.8858
21.6196
21.3516
21.082
20.8107
20.5379
20.2635
19.9876
19.7102
19.4314
19.1512
18.8697
18.5868
18.3028
18.0175
17.7311
17.4436
17.155
16.8655
16.5751
16.2838
15.9918
15.699
15.4057
15.1118
14.8174
14.5227
14.2277
13.9326
13.6373
13.3421
13.0471
12.7523
12.4579
12.164
11.8707
11.5781
11.2865
10.9958
10.7063
10.4181
10.1314
9.84615
9.56266
9.28103
9.00139
8.7239
8.44869
8.1759
7.90567
7.63814
7.37343
7.11167
6.85299
6.59751
6.34533
6.09657
5.85131
5.60967
5.37172
5.13754
4.90721
4.68081
4.45838
4.24001
4.02574
3.81566
3.60983
3.4083
3.21111
3.0183
2.82996
2.64626
2.46748
2.29411
2.12681
1.96678
1.81588
1.67709
1.55607
1.46491
1.43517
1.59059
3.00324
6.76855
3.82579
3.70538
3.98371
4.39991
4.88495
5.41151
5.96644
6.54244
7.13521
7.74207
8.36117
8.99113
9.63079
10.2791
10.9349
11.5971
12.2646
12.9362
13.6104
14.286
14.9615
15.6356
16.3067
16.9735
17.6344
18.2882
18.9334
19.5687
20.1929
20.8047
21.4032
21.9872
22.5558
23.1082
23.6435
24.1612
24.6605
25.141
25.6023
26.044
26.4658
26.8676
27.2493
27.6107
27.9519
28.273
28.5743
28.8558
29.1181
29.3615
29.586
29.792
29.9797
30.1495
30.3017
30.4368
30.5552
30.6573
30.7436
30.8146
30.8707
30.9125
30.9405
30.955
30.9567
30.9459
30.9231
30.8889
30.8436
30.7877
30.7216
30.6458
30.5606
30.4665
30.3638
30.253
30.1342
30.008
29.8746
29.7344
29.5876
29.4346
29.2756
29.1109
28.9408
28.7654
28.585
28.3999
28.2102
28.0162
27.818
27.6158
27.4098
27.2001
26.9869
26.7703
26.5504
26.3275
26.1015
25.8726
25.641
25.4066
25.1697
24.9302
24.6884
24.4441
24.1976
23.9488
23.6979
23.4449
23.1899
22.9328
22.6739
22.413
22.1503
21.8858
21.6196
21.3516
21.082
20.8107
20.5379
20.2635
19.9876
19.7102
19.4314
19.1512
18.8696
18.5868
18.3027
18.0175
17.731
17.4435
17.155
16.8655
16.5751
16.2838
15.9917
15.699
15.4056
15.1118
14.8174
14.5227
14.2277
13.9325
13.6373
13.3421
13.0471
12.7523
12.4579
12.164
11.8707
11.5781
11.2865
10.9958
10.7063
10.4181
10.1313
9.84614
9.56265
9.28102
9.00138
8.72389
8.44868
8.17589
7.90567
7.63813
7.37342
7.11167
6.85299
6.59751
6.34533
6.09656
5.85131
5.60966
5.37171
5.13754
4.90721
4.6808
4.45838
4.24
4.02574
3.81566
3.60983
3.4083
3.21111
3.0183
2.82996
2.64626
2.46748
2.29411
2.12681
1.96678
1.81588
1.67708
1.55607
1.46491
1.43515
1.59064
3.00309
8.8981
4.81205
4.41139
4.55416
4.88132
5.29855
5.76864
6.27339
6.80265
7.35031
7.91247
8.4865
9.07053
9.66309
10.263
10.8691
11.4803
12.0957
12.714
13.3341
13.9549
14.5751
15.1935
15.8089
16.4198
17.0252
17.6237
18.2142
18.7954
19.3663
19.9258
20.4729
21.0067
21.5264
22.0311
22.5201
22.9928
23.4487
23.8873
24.3082
24.7111
25.0957
25.4618
25.8094
26.1384
26.4487
26.7406
27.014
27.2692
27.5065
27.7262
27.9284
28.1134
28.2816
28.4331
28.5683
28.6877
28.7916
28.8805
28.9546
29.0146
29.0608
29.0937
29.1137
29.1213
29.1168
29.1008
29.0737
29.0359
28.9879
28.9299
28.8625
28.786
28.7008
28.6073
28.5059
28.3968
28.2804
28.157
28.027
27.8907
27.7482
27.6
27.4462
27.2871
27.123
26.954
26.7805
26.6025
26.4204
26.2342
26.0442
25.8505
25.6533
25.4527
25.2489
25.042
24.8321
24.6194
24.404
24.186
23.9654
23.7424
23.517
23.2894
23.0595
22.8276
22.5936
22.3577
22.1198
21.8801
21.6385
21.3952
21.1502
20.9036
20.6553
20.4054
20.1541
19.9012
19.6469
19.3912
19.1341
18.8757
18.616
18.355
18.0929
17.8296
17.5651
17.2996
17.033
16.7655
16.497
16.2276
15.9574
15.6864
15.4148
15.1424
14.8695
14.5961
14.3223
14.048
13.7735
13.4988
13.224
12.9492
12.6745
12.3999
12.1256
11.8517
11.5782
11.3054
11.0333
10.762
10.4917
10.2225
9.95446
9.68776
9.42251
9.15886
8.89693
8.63684
8.37873
8.12273
7.86896
7.61756
7.36865
7.12235
6.87878
6.63806
6.4003
6.16561
5.9341
5.70586
5.481
5.25961
5.04176
4.82755
4.61706
4.41037
4.20756
4.00871
3.8139
3.62324
3.43682
3.25477
3.0772
2.9043
2.73629
2.57352
2.41646
2.26582
2.12264
1.9885
1.86591
1.75905
1.6758
1.63281
1.67368
1.96811
3.97987
8.8984
4.81196
4.41123
4.55397
4.88111
5.29832
5.7684
6.27314
6.8024
7.35005
7.91221
8.48624
9.07026
9.66282
10.2627
10.8688
11.4801
12.0954
12.7137
13.3339
13.9547
14.5749
15.1933
15.8086
16.4196
17.0249
17.6234
18.2139
18.7952
19.3661
19.9256
20.4727
21.0065
21.5262
22.0309
22.5199
22.9926
23.4485
23.8871
24.308
24.7109
25.0955
25.4617
25.8093
26.1382
26.4486
26.7404
27.0139
27.2691
27.5064
27.7261
27.9283
28.1133
28.2815
28.433
28.5682
28.6876
28.7915
28.8804
28.9546
29.0145
29.0608
29.0936
29.1136
29.1212
29.1168
29.1008
29.0737
29.0359
28.9878
28.9299
28.8625
28.786
28.7008
28.6073
28.5058
28.3967
28.2804
28.157
28.027
27.8906
27.7482
27.5999
27.4461
27.2871
27.1229
26.954
26.7804
26.6025
26.4203
26.2341
26.0441
25.8504
25.6532
25.4527
25.2489
25.042
24.8321
24.6194
24.404
24.1859
23.9654
23.7423
23.517
23.2893
23.0595
22.8276
22.5936
22.3577
22.1198
21.8801
21.6385
21.3952
21.1502
20.9035
20.6553
20.4054
20.1541
19.9012
19.6469
19.3912
19.1341
18.8757
18.616
18.355
18.0929
17.8295
17.5651
17.2996
17.033
16.7655
16.497
16.2276
15.9574
15.6864
15.4148
15.1424
14.8695
14.5961
14.3222
14.048
13.7735
13.4988
13.224
12.9492
12.6745
12.3999
12.1256
11.8517
11.5782
11.3054
11.0333
10.762
10.4917
10.2225
9.95446
9.68776
9.42252
9.15886
8.89693
8.63684
8.37873
8.12273
7.86896
7.61756
7.36865
7.12235
6.87878
6.63806
6.4003
6.16561
5.9341
5.70587
5.48101
5.25961
5.04176
4.82756
4.61707
4.41037
4.20756
4.00871
3.8139
3.62324
3.43683
3.25477
3.07721
2.9043
2.7363
2.57352
2.41646
2.26582
2.12264
1.98851
1.86592
1.75905
1.6758
1.63281
1.67368
1.96813
3.97984
11.0264
5.83574
5.18694
5.21804
5.47795
5.84794
6.28124
6.75492
7.25613
7.77706
8.3127
8.85968
9.41566
9.9789
10.548
11.122
11.6996
12.28
12.8621
13.445
14.0277
14.609
15.188
15.7634
16.3343
16.8996
17.458
18.0086
18.5504
19.0823
19.6034
20.1129
20.6097
21.0933
21.5629
22.0178
22.4574
22.8813
23.2891
23.6803
24.0547
24.412
24.752
25.0747
25.38
25.6678
25.9383
26.1916
26.4277
26.647
26.8497
27.0359
27.2059
27.3601
27.4986
27.6218
27.73
27.8237
27.9032
27.9688
28.021
28.0602
28.0868
28.1012
28.1039
28.0952
28.0755
28.0453
28.0049
27.9548
27.8953
27.8268
27.7497
27.6643
27.5709
27.47
27.3619
27.2468
27.125
26.9969
26.8628
26.7228
26.5773
26.4266
26.2708
26.1102
25.9449
25.7753
25.6016
25.4238
25.2421
25.0569
24.8681
24.676
24.4807
24.2824
24.0811
23.877
23.6702
23.4608
23.249
23.0347
22.8182
22.5995
22.3786
22.1557
21.9309
21.7041
21.4754
21.245
21.0128
20.779
20.5436
20.3065
20.068
19.8279
19.5865
19.3436
19.0994
18.8538
18.607
18.359
18.1097
17.8594
17.6078
17.3552
17.1016
16.847
16.5915
16.335
16.0777
15.8196
15.5607
15.3011
15.0409
14.7801
14.5188
14.257
13.9948
13.7323
13.4696
13.2067
12.9437
12.6807
12.4178
12.1551
11.8926
11.6305
11.3689
11.1078
10.8474
10.5878
10.329
10.0713
9.81472
9.55937
9.30537
9.05285
8.80194
8.55274
8.30538
8.06
7.81669
7.57559
7.33682
7.10049
6.86671
6.63561
6.40728
6.18185
5.9594
5.74005
5.52389
5.31102
5.10153
4.89551
4.69306
4.49426
4.29921
4.10801
3.92076
3.73757
3.55857
3.38391
3.21377
3.04835
2.88793
2.73287
2.58364
2.44091
2.30562
2.17911
2.06342
1.96171
1.87933
1.82616
1.8234
1.92667
2.35209
4.95514
11.0268
5.83564
5.18676
5.21782
5.47772
5.84769
6.28098
6.75466
7.25586
7.77679
8.31242
8.8594
9.41537
9.97861
10.5478
11.1217
11.6993
12.2797
12.8618
13.4448
14.0274
14.6087
15.1877
15.7632
16.3341
16.8993
17.4578
18.0084
18.5502
19.0821
19.6032
20.1126
20.6095
21.0931
21.5627
22.0176
22.4572
22.8812
23.2889
23.6801
24.0545
24.4118
24.7519
25.0746
25.3798
25.6677
25.9382
26.1915
26.4276
26.6469
26.8496
27.0358
27.2058
27.36
27.4985
27.6217
27.7299
27.8236
27.9031
27.9687
28.0209
28.0602
28.0868
28.1012
28.1038
28.0951
28.0755
28.0452
28.0049
27.9547
27.8952
27.8267
27.7496
27.6642
27.5709
27.47
27.3618
27.2467
27.125
26.9969
26.8627
26.7228
26.5773
26.4266
26.2708
26.1101
25.9449
25.7753
25.6015
25.4237
25.2421
25.0569
24.8681
24.676
24.4807
24.2823
24.0811
23.877
23.6702
23.4608
23.249
23.0347
22.8182
22.5995
22.3786
22.1557
21.9308
21.704
21.4754
21.245
21.0128
20.779
20.5435
20.3065
20.068
19.8279
19.5865
19.3436
19.0994
18.8538
18.607
18.359
18.1097
17.8593
17.6078
17.3552
17.1016
16.847
16.5915
16.335
16.0777
15.8196
15.5607
15.3011
15.0409
14.7801
14.5188
14.257
13.9948
13.7323
13.4696
13.2067
12.9437
12.6807
12.4178
12.1551
11.8926
11.6305
11.3689
11.1078
10.8474
10.5878
10.329
10.0713
9.81473
9.55937
9.30538
9.05286
8.80194
8.55274
8.30539
8.06
7.8167
7.5756
7.33682
7.10049
6.86672
6.63561
6.40729
6.18185
5.9594
5.74005
5.52389
5.31102
5.10153
4.89551
4.69306
4.49426
4.29922
4.10801
3.92076
3.73757
3.55857
3.38392
3.21377
3.04836
2.88794
2.73287
2.58364
2.44091
2.30562
2.17912
2.06342
1.96172
1.87933
1.82616
1.8234
1.92668
2.35212
4.95514
13.2706
6.90669
6.01915
5.95156
6.15675
6.49116
6.89853
7.35136
7.83423
8.33777
8.85596
9.38475
9.92139
10.4639
11.0107
11.5608
12.113
12.6666
13.2205
13.7741
14.3264
14.8765
15.4235
15.9665
16.5046
17.0368
17.5622
18.0798
18.5888
19.0883
19.5773
20.0553
20.5213
20.9747
21.4148
21.8411
22.2531
22.6503
23.0322
23.3986
23.7492
24.0837
24.402
24.704
24.9896
25.2588
25.5116
25.7482
25.9687
26.1732
26.3619
26.5351
26.693
26.8359
26.9639
27.0774
27.1768
27.2623
27.3343
27.3932
27.4393
27.473
27.4948
27.5049
27.5037
27.4917
27.4693
27.4367
27.3944
27.3428
27.2821
27.2129
27.1353
27.0498
26.9566
26.8562
26.7487
26.6346
26.5141
26.3874
26.2549
26.1167
25.9733
25.8247
25.6712
25.5131
25.3505
25.1837
25.0128
24.8381
24.6596
24.4776
24.2922
24.1036
23.9119
23.7172
23.5196
23.3194
23.1166
22.9112
22.7035
22.4934
22.2812
22.0668
21.8503
21.6319
21.4116
21.1895
20.9656
20.7399
20.5127
20.2838
20.0534
19.8214
19.5881
19.3533
19.1172
18.8797
18.641
18.401
18.1599
17.9175
17.6741
17.4296
17.1841
16.9376
16.6901
16.4417
16.1925
15.9424
15.6916
15.4401
15.1878
14.935
14.6816
14.4277
14.1734
13.9187
13.6637
13.4085
13.153
12.8975
12.642
12.3865
12.1312
11.8761
11.6214
11.3671
11.1133
10.8601
10.6076
10.356
10.1053
9.8556
9.60708
9.35981
9.11391
8.8695
8.62669
8.38559
8.14633
7.90901
7.67375
7.44067
7.20987
6.98147
6.75558
6.53231
6.31176
6.09403
5.87924
5.66747
5.45883
5.25341
5.05132
4.85265
4.65749
4.46596
4.27816
4.09421
3.91423
3.73837
3.56679
3.39968
3.23728
3.07988
2.92783
2.7816
2.6418
2.50928
2.38519
2.27118
2.16971
2.08464
2.02242
1.99505
2.02818
2.18947
2.74176
5.93502
13.271
6.90657
6.01894
5.95132
6.15649
6.49089
6.89825
7.35107
7.83394
8.33748
8.85566
9.38445
9.92109
10.4636
11.0104
11.5605
12.1127
12.6663
13.2203
13.7738
14.3261
14.8762
15.4232
15.9663
16.5044
17.0366
17.5619
18.0796
18.5886
19.088
19.5771
20.055
20.5211
20.9745
21.4146
21.841
22.2529
22.6501
23.0321
23.3985
23.749
24.0836
24.4019
24.7038
24.9894
25.2586
25.5115
25.7481
25.9686
26.1731
26.3618
26.535
26.6929
26.8358
26.9638
27.0773
27.1767
27.2622
27.3342
27.3931
27.4392
27.473
27.4947
27.5048
27.5037
27.4917
27.4692
27.4367
27.3944
27.3427
27.2821
27.2128
27.1353
27.0497
26.9566
26.8562
26.7487
26.6346
26.514
26.3874
26.2548
26.1167
25.9732
25.8247
25.6712
25.5131
25.3505
25.1837
25.0128
24.8381
24.6596
24.4776
24.2922
24.1036
23.9118
23.7172
23.5196
23.3194
23.1165
22.9112
22.7035
22.4934
22.2812
22.0668
21.8503
21.6319
21.4116
21.1895
20.9656
20.7399
20.5127
20.2838
20.0534
19.8214
19.5881
19.3533
19.1172
18.8797
18.641
18.401
18.1599
17.9175
17.6741
17.4296
17.1841
16.9376
16.6901
16.4417
16.1925
15.9424
15.6916
15.4401
15.1878
14.935
14.6816
14.4277
14.1734
13.9187
13.6637
13.4085
13.153
12.8975
12.642
12.3865
12.1312
11.8761
11.6214
11.3671
11.1133
10.8601
10.6076
10.356
10.1053
9.85561
9.60708
9.35981
9.11391
8.8695
8.62669
8.3856
8.14633
7.90901
7.67376
7.44067
7.20988
6.98148
6.75559
6.53232
6.31176
6.09404
5.87924
5.66747
5.45883
5.25342
5.05132
4.85265
4.6575
4.46597
4.27817
4.09421
3.91423
3.73837
3.56679
3.39969
3.23729
3.07988
2.92783
2.7816
2.64181
2.50929
2.38519
2.27118
2.16971
2.08464
2.02242
1.99505
2.02818
2.18948
2.74179
5.93503
15.5758
8.02058
6.90206
6.74443
6.90308
7.20934
7.59749
8.03555
8.50568
8.99703
9.50265
10.0179
10.5397
11.0657
11.5945
12.1248
12.6557
13.1864
13.716
14.2441
14.7697
15.2922
15.8109
16.3251
16.8338
17.3364
17.832
18.3199
18.7992
19.2693
19.7293
20.1787
20.6167
21.0427
21.4561
21.8564
22.2432
22.6161
22.9746
23.3184
23.6474
23.9613
24.2599
24.5431
24.8109
25.0632
25.3002
25.5218
25.7281
25.9194
26.0958
26.2574
26.4045
26.5374
26.6562
26.7612
26.8528
26.9312
26.9968
27.0499
27.0908
27.1199
27.1375
27.1439
27.1397
27.125
27.1002
27.0658
27.022
26.9692
26.9078
26.838
26.7602
26.6747
26.5819
26.482
26.3753
26.2621
26.1427
26.0173
25.8862
25.7497
25.608
25.4613
25.3098
25.1538
24.9934
24.8289
24.6604
24.4881
24.3122
24.1328
23.9501
23.7642
23.5753
23.3834
23.1888
22.9915
22.7917
22.5894
22.3848
22.1779
21.9688
21.7577
21.5445
21.3294
21.1124
20.8937
20.6732
20.451
20.2273
20.0019
19.7751
19.5468
19.3171
19.0861
18.8537
18.62
18.3851
18.1491
17.9119
17.6735
17.4342
17.1938
16.9524
16.71
16.4668
16.2227
15.9778
15.7322
15.4858
15.2388
14.9911
14.7429
14.4942
14.2451
13.9955
13.7457
13.4955
13.2452
12.9948
12.7443
12.4939
12.2435
11.9934
11.7435
11.4941
11.245
10.9965
10.7487
10.5016
10.2554
10.0101
9.76581
9.52271
9.28087
9.04041
8.80142
8.56402
8.32832
8.09443
7.86245
7.6325
7.40469
7.17912
6.95591
6.73514
6.51694
6.30141
6.08864
5.87873
5.6718
5.46793
5.26724
5.06981
4.87577
4.6852
4.49824
4.31501
4.13564
3.96028
3.78911
3.62233
3.46018
3.30294
3.15098
3.00472
2.86475
2.73181
2.60689
2.49137
2.3872
2.29727
2.22609
2.18131
2.17703
2.24338
2.46045
3.1389
6.92637
15.5763
8.02043
6.90182
6.74416
6.90279
7.20904
7.59719
8.03524
8.50537
8.99672
9.50234
10.0176
10.5394
11.0654
11.5942
12.1245
12.6554
13.1861
13.7158
14.2438
14.7694
15.292
15.8107
16.3248
16.8335
17.3361
17.8317
18.3196
18.799
19.2691
19.7291
20.1785
20.6165
21.0425
21.4559
21.8563
22.2431
22.6159
22.9744
23.3183
23.6473
23.9611
24.2597
24.5429
24.8107
25.0631
25.3
25.5217
25.728
25.9193
26.0957
26.2573
26.4045
26.5373
26.6561
26.7612
26.8528
26.9312
26.9968
27.0498
27.0907
27.1198
27.1374
27.1439
27.1396
27.1249
27.1002
27.0658
27.022
26.9692
26.9078
26.838
26.7602
26.6747
26.5819
26.4819
26.3752
26.262
26.1426
26.0173
25.8862
25.7497
25.608
25.4612
25.3098
25.1538
24.9934
24.8289
24.6604
24.4881
24.3122
24.1328
23.9501
23.7642
23.5753
23.3834
23.1888
22.9915
22.7917
22.5894
22.3848
22.1779
21.9688
21.7576
21.5445
21.3294
21.1124
20.8937
20.6732
20.451
20.2273
20.0019
19.7751
19.5468
19.3171
19.086
18.8537
18.62
18.3851
18.1491
17.9119
17.6735
17.4342
17.1938
16.9524
16.71
16.4668
16.2227
15.9778
15.7322
15.4858
15.2388
14.9911
14.7429
14.4942
14.2451
13.9955
13.7457
13.4955
13.2452
12.9948
12.7443
12.4939
12.2435
11.9934
11.7435
11.4941
11.245
10.9965
10.7487
10.5016
10.2554
10.0101
9.76581
9.52271
9.28088
9.04041
8.80142
8.56403
8.32832
8.09443
7.86246
7.63251
7.4047
7.17913
6.95591
6.73515
6.51695
6.30141
6.08864
5.87874
5.6718
5.46794
5.26724
5.06982
4.87577
4.68521
4.49825
4.31502
4.13564
3.96029
3.78912
3.62234
3.46019
3.30295
3.15098
3.00473
2.86476
2.73181
2.6069
2.49138
2.3872
2.29727
2.2261
2.18131
2.17703
2.24338
2.46046
3.13894
6.92638
17.9611
9.18096
7.83483
7.59295
7.7107
7.99389
8.36727
8.79442
9.25515
9.73725
10.2329
10.737
11.2461
11.7578
12.2704
12.7829
13.2942
13.8037
14.3108
14.8149
15.3156
15.8121
16.3041
16.7908
17.2717
17.7462
18.2135
18.673
19.1241
19.5661
19.9985
20.4205
20.8317
21.2315
21.6193
21.9949
22.3576
22.7071
23.0432
23.3655
23.6738
23.9679
24.2477
24.513
24.7638
25.0001
25.2218
25.4292
25.6221
25.8009
25.9655
26.1162
26.2532
26.3767
26.4869
26.584
26.6683
26.7401
26.7998
26.8475
26.8836
26.9084
26.9223
26.9255
26.9184
26.9014
26.8747
26.8386
26.7936
26.7399
26.6779
26.6078
26.53
26.4447
26.3523
26.253
26.1471
26.0349
25.9167
25.7926
25.663
25.5281
25.388
25.2431
25.0936
24.9395
24.7812
24.6188
24.4525
24.2825
24.1089
23.9319
23.7516
23.5681
23.3817
23.1924
23.0003
22.8056
22.6084
22.4087
22.2067
22.0025
21.7961
21.5876
21.3772
21.1648
20.9506
20.7346
20.5169
20.2975
20.0766
19.8541
19.6301
19.4047
19.1779
18.9498
18.7203
18.4896
18.2577
18.0247
17.7905
17.5552
17.3189
17.0816
16.8433
16.6042
16.3641
16.1233
15.8816
15.6392
15.3962
15.1525
14.9082
14.6634
14.4182
14.1725
13.9265
13.6801
13.4336
13.1869
12.9401
12.6933
12.4465
12.1999
11.9535
11.7074
11.4617
11.2164
10.9718
10.7277
10.4845
10.242
10.0006
9.76013
9.52084
9.2828
9.04612
8.8109
8.57723
8.34524
8.11502
7.88667
7.66031
7.43603
7.21395
6.99416
6.77677
6.56188
6.34959
6.13999
5.93321
5.72933
5.52845
5.33069
5.13615
4.94495
4.7572
4.57304
4.3926
4.21605
4.04356
3.87533
3.7116
3.55266
3.39884
3.25057
3.10837
2.97291
2.84505
2.72595
2.61719
2.52102
2.44076
2.38161
2.35235
2.36926
2.46711
2.73822
3.54129
7.92182
17.9616
9.18078
7.83456
7.59265
7.71039
7.99357
8.36694
8.79408
9.25481
9.73692
10.2326
10.7367
11.2458
11.7575
12.2701
12.7825
13.2939
13.8034
14.3105
14.8146
15.3153
15.8119
16.3038
16.7906
17.2715
17.7459
18.2132
18.6728
19.1239
19.5659
19.9983
20.4203
20.8315
21.2313
21.6192
21.9947
22.3574
22.707
23.0431
23.3654
23.6737
23.9678
24.2475
24.5129
24.7637
25
25.2217
25.4291
25.622
25.8008
25.9654
26.1161
26.2531
26.3766
26.4868
26.5839
26.6682
26.7401
26.7997
26.8474
26.8835
26.9084
26.9222
26.9255
26.9184
26.9013
26.8746
26.8386
26.7936
26.7399
26.6779
26.6078
26.5299
26.4447
26.3522
26.2529
26.1471
26.0349
25.9166
25.7926
25.663
25.528
25.388
25.2431
25.0935
24.9395
24.7812
24.6188
24.4525
24.2825
24.1089
23.9319
23.7516
23.5681
23.3817
23.1924
23.0003
22.8056
22.6084
22.4087
22.2067
22.0025
21.7961
21.5876
21.3772
21.1648
20.9506
20.7346
20.5169
20.2975
20.0766
19.8541
19.6301
19.4047
19.1779
18.9498
18.7203
18.4896
18.2577
18.0246
17.7905
17.5552
17.3189
17.0816
16.8433
16.6042
16.3641
16.1233
15.8816
15.6392
15.3962
15.1525
14.9082
14.6634
14.4182
14.1725
13.9265
13.6801
13.4336
13.1869
12.9401
12.6933
12.4465
12.1999
11.9535
11.7074
11.4617
11.2164
10.9718
10.7277
10.4845
10.242
10.0006
9.76013
9.52084
9.28281
9.04613
8.8109
8.57724
8.34524
8.11502
7.88667
7.66031
7.43604
7.21395
6.99417
6.77677
6.56188
6.34959
6.14
5.93321
5.72933
5.52846
5.3307
5.13616
4.94495
4.75721
4.57304
4.39261
4.21605
4.04356
3.87533
3.7116
3.55266
3.39884
3.25057
3.10837
2.97291
2.84505
2.72595
2.6172
2.52102
2.44076
2.38161
2.35235
2.36926
2.46711
2.73823
3.54134
7.92183
20.4227
10.3897
8.81848
8.49677
8.57788
8.84169
9.20334
9.62205
10.0753
10.5498
11.0367
11.5306
12.0278
12.5258
13.0228
13.5178
14.01
14.4988
14.9837
15.4644
15.9404
16.4114
16.877
17.3367
17.7902
18.2369
18.6762
19.1078
19.531
19.9454
20.3504
20.7455
21.1303
21.5042
21.8668
22.2178
22.5568
22.8833
23.1973
23.4983
23.7862
24.0608
24.3219
24.5696
24.8036
25.0241
25.2309
25.4241
25.6039
25.7703
25.9234
26.0634
26.1904
26.3047
26.4064
26.4958
26.5731
26.6385
26.6923
26.7349
26.7663
26.7871
26.7974
26.7975
26.7878
26.7685
26.74
26.7025
26.6564
26.6019
26.5394
26.4691
26.3913
26.3064
26.2145
26.1159
26.011
25.8999
25.7829
25.6602
25.5321
25.3988
25.2605
25.1175
24.9698
24.8178
24.6615
24.5013
24.3372
24.1694
23.998
23.8233
23.6453
23.4643
23.2802
23.0933
22.9037
22.7114
22.5166
22.3194
22.1199
21.9181
21.7142
21.5082
21.3003
21.0904
20.8787
20.6652
20.45
20.2331
20.0147
19.7947
19.5732