/*--------------------------------*- C++ -*----------------------------------*\
  =========                 |
  \\      /  F ield         | OpenFOAM: The Open Source CFD Toolbox
   \\    /   O peration     | Website:  https://openfoam.org
    \\  /    A nd           | Version:  8
     \\/     M anipulation  |
\*---------------------------------------------------------------------------*/
FoamFile
{
    version     2.0;
    format      ascii;
    class       volScalarField;
    location    "2000";
    object      k;
}
// * * * * * * * * * * * * * * * * * * * * * * * * * * * * * * * * * * * * * //

dimensions      [0 2 -2 0 0 0 0];

internalField   nonuniform List<scalar> 
48000
(
0.022018
0.0389273
0.0600142
0.0787803
0.0960212
0.111729
0.12634
0.140482
0.153895
0.166835
0.17937
0.191556
0.203435
0.215038
0.226389
0.237505
0.248396
0.259071
0.269533
0.279783
0.289821
0.299646
0.309254
0.318641
0.327804
0.336739
0.34544
0.353905
0.362128
0.370106
0.377836
0.385316
0.392542
0.399514
0.40623
0.412689
0.418892
0.424839
0.430531
0.43597
0.441157
0.446095
0.450787
0.455236
0.459446
0.463419
0.467161
0.470673
0.473961
0.477047
0.479943
0.482633
0.485121
0.487409
0.489506
0.491414
0.493142
0.494693
0.496074
0.497289
0.498345
0.499247
0.499999
0.500606
0.501075
0.501409
0.501613
0.501692
0.50165
0.501492
0.501221
0.500842
0.500359
0.499775
0.499093
0.498318
0.497453
0.496501
0.495464
0.494346
0.49315
0.491878
0.490532
0.489116
0.487631
0.486079
0.484463
0.482785
0.481046
0.479247
0.477392
0.47548
0.473514
0.471495
0.469424
0.467303
0.465131
0.462911
0.460643
0.458328
0.455967
0.453561
0.451109
0.448613
0.446073
0.44349
0.440864
0.438195
0.435484
0.432731
0.429936
0.427099
0.42422
0.4213
0.418338
0.415335
0.41229
0.409203
0.406075
0.402906
0.399694
0.396441
0.393146
0.389808
0.386429
0.383007
0.379542
0.376035
0.372486
0.368893
0.365258
0.36158
0.357858
0.354094
0.350287
0.346437
0.342544
0.338608
0.33463
0.330609
0.326546
0.322441
0.318294
0.314106
0.309877
0.305607
0.301298
0.296949
0.292561
0.288136
0.283673
0.279173
0.274638
0.270067
0.265463
0.260826
0.256156
0.251456
0.246726
0.241968
0.237181
0.232369
0.227531
0.222669
0.217784
0.212877
0.20795
0.203003
0.198038
0.193055
0.188055
0.183039
0.178008
0.172961
0.167899
0.162822
0.15773
0.152621
0.147494
0.142348
0.137181
0.13199
0.126775
0.121535
0.116298
0.111043
0.105721
0.100318
0.0948158
0.0891889
0.0834076
0.07743
0.0712043
0.0647403
0.0578968
0.0504985
0.0423409
0.0335231
0.0301033
0.0201897
0.0220177
0.0389315
0.0600157
0.078782
0.096023
0.111731
0.126342
0.140484
0.153897
0.166837
0.179372
0.191558
0.203436
0.21504
0.226391
0.237506
0.248398
0.259072
0.269534
0.279784
0.289822
0.299647
0.309255
0.318642
0.327805
0.33674
0.345441
0.353906
0.362129
0.370107
0.377837
0.385316
0.392543
0.399514
0.40623
0.41269
0.418892
0.424839
0.430531
0.43597
0.441157
0.446095
0.450787
0.455237
0.459446
0.463419
0.467161
0.470673
0.473961
0.477047
0.479943
0.482633
0.485121
0.487409
0.489505
0.491414
0.493142
0.494693
0.496074
0.497289
0.498345
0.499246
0.499998
0.500606
0.501075
0.501409
0.501613
0.501692
0.50165
0.501492
0.501221
0.500842
0.500358
0.499774
0.499093
0.498318
0.497453
0.4965
0.495464
0.494346
0.493149
0.491877
0.490532
0.489115
0.48763
0.486079
0.484463
0.482785
0.481045
0.479247
0.477392
0.47548
0.473514
0.471495
0.469424
0.467302
0.465131
0.462911
0.460643
0.458328
0.455967
0.45356
0.451109
0.448613
0.446073
0.44349
0.440864
0.438195
0.435484
0.432731
0.429935
0.427098
0.42422
0.421299
0.418338
0.415334
0.412289
0.409203
0.406075
0.402905
0.399694
0.396441
0.393145
0.389808
0.386428
0.383006
0.379542
0.376035
0.372485
0.368893
0.365258
0.361579
0.357858
0.354094
0.350287
0.346437
0.342544
0.338608
0.334629
0.330609
0.326545
0.32244
0.318294
0.314105
0.309876
0.305607
0.301298
0.296949
0.292561
0.288135
0.283672
0.279173
0.274637
0.270067
0.265463
0.260826
0.256156
0.251456
0.246726
0.241967
0.237181
0.232368
0.227531
0.222669
0.217784
0.212877
0.20795
0.203003
0.198038
0.193055
0.188055
0.183039
0.178008
0.172961
0.167899
0.162822
0.15773
0.152621
0.147494
0.142348
0.137181
0.13199
0.126775
0.121535
0.116298
0.111043
0.105721
0.100318
0.0948159
0.089189
0.0834077
0.07743
0.0712044
0.0647403
0.0578967
0.0504979
0.0423386
0.033518
0.030098
0.0201681
0.0394501
0.0995933
0.142457
0.180305
0.215086
0.247597
0.278367
0.307827
0.336212
0.363713
0.390471
0.416586
0.442135
0.467172
0.491736
0.515851
0.539534
0.562793
0.585628
0.608038
0.630016
0.651552
0.672636
0.693256
0.713401
0.733056
0.752212
0.770855
0.788975
0.806562
0.823609
0.840107
0.85605
0.871434
0.886256
0.900513
0.914205
0.927333
0.939898
0.951903
0.963353
0.974252
0.984607
0.994424
1.00371
1.01247
1.02073
1.02847
1.03572
1.04248
1.04877
1.05461
1.06001
1.06497
1.0695
1.07363
1.07736
1.0807
1.08367
1.08627
1.08853
1.09044
1.09203
1.0933
1.09427
1.09494
1.09532
1.09543
1.09528
1.09487
1.09421
1.09332
1.0922
1.09085
1.0893
1.08754
1.08558
1.08343
1.08109
1.07858
1.0759
1.07305
1.07005
1.06689
1.06357
1.06012
1.05652
1.05279
1.04892
1.04493
1.04081
1.03657
1.03221
1.02774
1.02316
1.01846
1.01366
1.00875
1.00374
0.998628
0.993415
0.988104
0.982696
0.977193
0.971595
0.965904
0.96012
0.954244
0.948277
0.942219
0.936072
0.929834
0.923507
0.917091
0.910586
0.903992
0.897309
0.890537
0.883675
0.876725
0.869685
0.862556
0.855337
0.848028
0.840628
0.833139
0.825559
0.817888
0.810126
0.802273
0.794329
0.786293
0.778166
0.769948
0.761638
0.753237
0.744746
0.736163
0.727491
0.718729
0.709877
0.700937
0.691909
0.682794
0.673592
0.664306
0.654937
0.645484
0.635951
0.626338
0.616647
0.60688
0.59704
0.587126
0.577143
0.567092
0.556976
0.546796
0.536556
0.526257
0.515903
0.505496
0.495038
0.484533
0.473983
0.46339
0.452757
0.442086
0.43138
0.42064
0.409869
0.399067
0.388236
0.377377
0.366489
0.355573
0.344628
0.333651
0.322639
0.31159
0.300498
0.289356
0.278157
0.266891
0.255546
0.244102
0.232521
0.220791
0.208882
0.196743
0.184321
0.171541
0.158305
0.144467
0.129895
0.114331
0.0973836
0.0783468
0.0554411
0.0280729
0.0394544
0.0995959
0.142459
0.180307
0.215088
0.247599
0.278369
0.307829
0.336213
0.363715
0.390472
0.416587
0.442136
0.467173
0.491737
0.515852
0.539535
0.562793
0.585629
0.608039
0.630016
0.651552
0.672636
0.693257
0.713401
0.733056
0.752212
0.770854
0.788975
0.806562
0.823608
0.840106
0.856049
0.871434
0.886255
0.900513
0.914205
0.927332
0.939897
0.951903
0.963352
0.974251
0.984606
0.994423
1.00371
1.01247
1.02072
1.02847
1.03572
1.04248
1.04877
1.05461
1.06001
1.06497
1.0695
1.07363
1.07736
1.0807
1.08367
1.08627
1.08853
1.09044
1.09203
1.0933
1.09427
1.09494
1.09532
1.09543
1.09528
1.09487
1.09421
1.09332
1.09219
1.09085
1.08929
1.08753
1.08558
1.08343
1.08109
1.07858
1.0759
1.07305
1.07005
1.06688
1.06357
1.06012
1.05652
1.05279
1.04892
1.04493
1.04081
1.03657
1.03221
1.02774
1.02316
1.01846
1.01366
1.00875
1.00374
0.998626
0.993413
0.988102
0.982695
0.977191
0.971593
0.965902
0.960118
0.954242
0.948275
0.942218
0.93607
0.929833
0.923506
0.91709
0.910585
0.90399
0.897307
0.890535
0.883674
0.876723
0.869684
0.862554
0.855335
0.848026
0.840627
0.833137
0.825557
0.817886
0.810124
0.802271
0.794327
0.786291
0.778165
0.769946
0.761637
0.753236
0.744744
0.736162
0.72749
0.718727
0.709876
0.700935
0.691907
0.682792
0.673591
0.664305
0.654935
0.645483
0.63595
0.626337
0.616646
0.606879
0.597038
0.587125
0.577142
0.567091
0.556975
0.546795
0.536555
0.526256
0.515902
0.505495
0.495037
0.484532
0.473982
0.463389
0.452756
0.442085
0.431379
0.420639
0.409868
0.399066
0.388235
0.377376
0.366488
0.355572
0.344627
0.33365
0.322639
0.31159
0.300497
0.289355
0.278156
0.26689
0.255546
0.244101
0.232521
0.220791
0.208881
0.196742
0.18432
0.171541
0.158304
0.144467
0.129895
0.114331
0.0973836
0.0783455
0.0554334
0.0280649
0.0592718
0.142169
0.195978
0.241792
0.284029
0.323946
0.36211
0.398873
0.434466
0.469065
0.502801
0.535778
0.568072
0.599741
0.630827
0.661355
0.691343
0.7208
0.749726
0.778116
0.805962
0.833252
0.859972
0.886108
0.911643
0.936561
0.960846
0.984485
1.00746
1.02977
1.05139
1.07231
1.09254
1.11205
1.13085
1.14894
1.16631
1.18297
1.19891
1.21414
1.22867
1.24249
1.25563
1.26808
1.27986
1.29098
1.30144
1.31126
1.32046
1.32903
1.33702
1.34442
1.35125
1.35753
1.36327
1.36849
1.3732
1.37742
1.38116
1.38444
1.38727
1.38967
1.39165
1.39322
1.39441
1.39521
1.39566
1.39575
1.3955
1.39493
1.39405
1.39286
1.39138
1.38961
1.38758
1.38528
1.38273
1.37994
1.37692
1.37366
1.37019
1.36651
1.36262
1.35854
1.35427
1.34981
1.34518
1.34037
1.33539
1.33025
1.32495
1.3195
1.3139
1.30815
1.30226
1.29623
1.29006
1.28376
1.27733
1.27077
1.26409
1.25728
1.25035
1.24329
1.23612
1.22883
1.22142
1.2139
1.20626
1.19851
1.19065
1.18267
1.17458
1.16638
1.15806
1.14963
1.14109
1.13244
1.12368
1.11481
1.10582
1.09672
1.08751
1.07819
1.06875
1.0592
1.04954
1.03976
1.02987
1.01987
1.00975
0.999515
0.989168
0.978707
0.968132
0.957443
0.946641
0.935726
0.924698
0.913559
0.902308
0.890947
0.879477
0.867899
0.856214
0.844424
0.832529
0.820533
0.808435
0.79624
0.783948
0.771563
0.759085
0.746519
0.733866
0.72113
0.708314
0.69542
0.682451
0.669411
0.656304
0.643131
0.629898
0.616606
0.60326
0.589862
0.576416
0.562924
0.54939
0.535815
0.522202
0.508554
0.49487
0.481153
0.467403
0.453619
0.439799
0.425943
0.412045
0.398103
0.38411
0.370057
0.355936
0.341734
0.327434
0.313015
0.298449
0.283706
0.268744
0.253515
0.237969
0.222024
0.205575
0.188482
0.170569
0.151573
0.131035
0.108004
0.0796747
0.0340932
0.0592732
0.142171
0.19598
0.241793
0.28403
0.323946
0.36211
0.398873
0.434467
0.469065
0.502801
0.535778
0.568072
0.599741
0.630826
0.661355
0.691343
0.7208
0.749725
0.778115
0.805961
0.833251
0.859972
0.886107
0.911642
0.93656
0.960845
0.984484
1.00746
1.02977
1.05139
1.07231
1.09253
1.11205
1.13085
1.14894
1.16631
1.18297
1.19891
1.21414
1.22867
1.24249
1.25563
1.26808
1.27986
1.29097
1.30144
1.31126
1.32045
1.32903
1.33701
1.34441
1.35125
1.35753
1.36327
1.36849
1.3732
1.37742
1.38116
1.38444
1.38727
1.38967
1.39164
1.39322
1.3944
1.39521
1.39565
1.39575
1.3955
1.39493
1.39404
1.39285
1.39137
1.38961
1.38758
1.38528
1.38273
1.37994
1.37691
1.37366
1.37019
1.36651
1.36262
1.35854
1.35427
1.34981
1.34517
1.34037
1.33539
1.33025
1.32495
1.3195
1.3139
1.30815
1.30226
1.29623
1.29006
1.28376
1.27733
1.27077
1.26409
1.25728
1.25034
1.24329
1.23612
1.22883
1.22142
1.2139
1.20626
1.19851
1.19065
1.18267
1.17458
1.16637
1.15806
1.14963
1.14109
1.13244
1.12368
1.11481
1.10582
1.09672
1.08751
1.07819
1.06875
1.0592
1.04954
1.03976
1.02987
1.01986
1.00975
0.999513
0.989166
0.978705
0.96813
0.957441
0.946639
0.935724
0.924696
0.913557
0.902307
0.890946
0.879476
0.867898
0.856213
0.844422
0.832528
0.820531
0.808434
0.796239
0.783947
0.771561
0.759084
0.746518
0.733865
0.721129
0.708312
0.695418
0.68245
0.66941
0.656302
0.64313
0.629896
0.616605
0.603259
0.589861
0.576415
0.562923
0.549388
0.535814
0.522201
0.508553
0.494869
0.481152
0.467402
0.453618
0.439798
0.425942
0.412045
0.398102
0.384109
0.370057
0.355935
0.341733
0.327433
0.313014
0.298448
0.283705
0.268744
0.253514
0.237969
0.222023
0.205575
0.188481
0.170569
0.151573
0.131036
0.108007
0.0796756
0.0340992
0.0764229
0.178196
0.240838
0.292782
0.340335
0.385321
0.428473
0.470168
0.510638
0.550045
0.588511
0.626133
0.662984
0.699121
0.734586
0.769407
0.803604
0.837185
0.870153
0.902504
0.934229
0.965318
0.995755
1.02552
1.05461
1.08299
1.11066
1.13759
1.16376
1.18918
1.21381
1.23766
1.26072
1.28296
1.3044
1.32503
1.34484
1.36384
1.38203
1.39941
1.41599
1.43177
1.44677
1.46099
1.47444
1.48713
1.49909
1.51031
1.52082
1.53062
1.53975
1.54821
1.55602
1.5632
1.56976
1.57572
1.58111
1.58593
1.5902
1.59394
1.59717
1.5999
1.60215
1.60393
1.60527
1.60617
1.60666
1.60674
1.60644
1.60576
1.60471
1.60332
1.60159
1.59954
1.59718
1.59451
1.59156
1.58832
1.58481
1.58105
1.57703
1.57277
1.56827
1.56355
1.55861
1.55345
1.54809
1.54253
1.53678
1.53084
1.52472
1.51842
1.51195
1.50531
1.4985
1.49154
1.48442
1.47714
1.46972
1.46215
1.45443
1.44657
1.43857
1.43043
1.42216
1.41375
1.4052
1.39653
1.38772
1.37878
1.36971
1.36051
1.35119
1.34173
1.33215
1.32244
1.3126
1.30263
1.29254
1.28232
1.27197
1.26149
1.25089
1.24016
1.2293
1.21831
1.20719
1.19594
1.18456
1.17306
1.16142
1.14965
1.13776
1.12573
1.11358
1.1013
1.08889
1.07635
1.06368
1.05089
1.03797
1.02493
1.01176
0.998473
0.985065
0.971537
0.957892
0.944132
0.930259
0.916275
0.902182
0.887985
0.873684
0.859283
0.844786
0.830195
0.815514
0.800746
0.785895
0.770964
0.755957
0.740878
0.725731
0.710519
0.695246
0.679916
0.664532
0.649098
0.633616
0.61809
0.602521
0.586913
0.571267
0.555583
0.539863
0.524106
0.50831
0.492474
0.476595
0.460667
0.444684
0.428639
0.41252
0.396315
0.380006
0.363574
0.346991
0.330227
0.313242
0.295988
0.278408
0.26042
0.241927
0.222792
0.20281
0.181692
0.15888
0.133126
0.100588
0.0444766
0.0764245
0.178198
0.240839
0.292783
0.340335
0.385321
0.428473
0.470168
0.510638
0.550044
0.588511
0.626133
0.662984
0.699121
0.734585
0.769407
0.803603
0.837184
0.870152
0.902503
0.934229
0.965317
0.995754
1.02552
1.05461
1.08299
1.11066
1.13758
1.16376
1.18918
1.21381
1.23766
1.26071
1.28296
1.3044
1.32503
1.34484
1.36384
1.38203
1.39941
1.41599
1.43177
1.44677
1.46098
1.47444
1.48713
1.49908
1.51031
1.52081
1.53062
1.53974
1.5482
1.55601
1.56319
1.56976
1.57572
1.5811
1.58592
1.59019
1.59394
1.59716
1.59989
1.60214
1.60393
1.60527
1.60617
1.60666
1.60674
1.60644
1.60575
1.60471
1.60332
1.60159
1.59954
1.59717
1.59451
1.59155
1.58832
1.58481
1.58104
1.57703
1.57276
1.56827
1.56355
1.5586
1.55345
1.54809
1.54253
1.53678
1.53084
1.52472
1.51842
1.51194
1.5053
1.4985
1.49154
1.48442
1.47714
1.46972
1.46214
1.45443
1.44657
1.43857
1.43043
1.42215
1.41374
1.4052
1.39652
1.38772
1.37878
1.36971
1.36051
1.35118
1.34173
1.33215
1.32244
1.3126
1.30263
1.29254
1.28232
1.27197
1.26149
1.25089
1.24016
1.22929
1.2183
1.20719
1.19594
1.18456
1.17305
1.16142
1.14965
1.13776
1.12573
1.11358
1.1013
1.08888
1.07635
1.06368
1.05089
1.03797
1.02493
1.01176
0.998472
0.985063
0.971535
0.95789
0.94413
0.930257
0.916273
0.902181
0.887983
0.873683
0.859282
0.844785
0.830194
0.815513
0.800745
0.785893
0.770963
0.755956
0.740877
0.72573
0.710518
0.695245
0.679915
0.664531
0.649097
0.633615
0.618089
0.60252
0.586912
0.571266
0.555582
0.539862
0.524105
0.508309
0.492474
0.476594
0.460666
0.444683
0.428638
0.412519
0.396314
0.380006
0.363574
0.346991
0.330226
0.313241
0.295988
0.278408
0.260419
0.241927
0.222792
0.20281
0.181692
0.15888
0.133126
0.100587
0.0444776
0.0917168
0.211098
0.282045
0.339678
0.391918
0.441171
0.488392
0.534041
0.578374
0.621561
0.66372
0.704946
0.74531
0.784869
0.823668
0.861737
0.899099
0.935767
0.971745
1.00703
1.04163
1.07551
1.10868
1.14111
1.1728
1.20372
1.23385
1.26318
1.2917
1.31939
1.34623
1.37222
1.39734
1.42159
1.44497
1.46746
1.48908
1.50981
1.52966
1.54863
1.56673
1.58397
1.60036
1.6159
1.6306
1.64448
1.65756
1.66984
1.68135
1.69209
1.70208
1.71135
1.71991
1.72778
1.73498
1.74153
1.74744
1.75273
1.75742
1.76153
1.76507
1.76808
1.77055
1.77251
1.77399
1.77498
1.77552
1.77561
1.77528
1.77453
1.77338
1.77185
1.76995
1.76769
1.76508
1.76215
1.75889
1.75532
1.75146
1.74731
1.74288
1.73818
1.73322
1.72801
1.72256
1.71687
1.71096
1.70482
1.69848
1.69192
1.68516
1.67821
1.67107
1.66374
1.65622
1.64854
1.64067
1.63264
1.62444
1.61608
1.60756
1.59888
1.59005
1.58106
1.57192
1.56263
1.5532
1.54361
1.53389
1.52402
1.514
1.50385
1.49355
1.48311
1.47253
1.46181
1.45094
1.43994
1.4288
1.41752
1.4061
1.39453
1.38283
1.37098
1.359
1.34687
1.33461
1.3222
1.30965
1.29695
1.28412
1.27114
1.25803
1.24477
1.23137
1.21783
1.20415
1.19033
1.17637
1.16227
1.14804
1.13367
1.11917
1.10453
1.08976
1.07486
1.05984
1.04469
1.02942
1.01402
0.998514
0.982889
0.967152
0.951307
0.935356
0.919305
0.903155
0.886911
0.870577
0.854156
0.837654
0.821072
0.804417
0.787692
0.7709
0.754046
0.737133
0.720165
0.703146
0.686078
0.668964
0.651806
0.634607
0.617368
0.600088
0.582769
0.565408
0.548004
0.530554
0.513053
0.495495
0.477873
0.460175
0.44239
0.4245
0.406487
0.388326
0.369986
0.351431
0.332614
0.313476
0.29394
0.273903
0.253217
0.231652
0.208862
0.184165
0.155985
0.119496
0.0536447
0.0917187
0.2111
0.282046
0.339679
0.391918
0.441171
0.488392
0.53404
0.578374
0.62156
0.663719
0.704945
0.745309
0.784869
0.823667
0.861737
0.899098
0.935766
0.971744
1.00703
1.04162
1.07551
1.10868
1.14111
1.1728
1.20371
1.23385
1.26318
1.2917
1.31938
1.34623
1.37222
1.39734
1.42159
1.44497
1.46746
1.48908
1.50981
1.52965
1.54863
1.56673
1.58397
1.60035
1.61589
1.6306
1.64448
1.65756
1.66984
1.68134
1.69208
1.70208
1.71135
1.71991
1.72778
1.73498
1.74153
1.74743
1.75272
1.75741
1.76152
1.76507
1.76807
1.77055
1.77251
1.77398
1.77498
1.77552
1.77561
1.77527
1.77453
1.77338
1.77185
1.76995
1.76769
1.76508
1.76215
1.75889
1.75532
1.75146
1.74731
1.74288
1.73818
1.73322
1.72801
1.72256
1.71687
1.71096
1.70482
1.69848
1.69192
1.68516
1.67821
1.67106
1.66373
1.65622
1.64853
1.64067
1.63264
1.62444
1.61608
1.60756
1.59888
1.59004
1.58106
1.57192
1.56263
1.55319
1.54361
1.53389
1.52401
1.514
1.50384
1.49355
1.48311
1.47253
1.4618
1.45094
1.43994
1.4288
1.41752
1.40609
1.39453
1.38283
1.37098
1.359
1.34687
1.3346
1.3222
1.30964
1.29695
1.28412
1.27114
1.25803
1.24477
1.23137
1.21783
1.20415
1.19033
1.17637
1.16227
1.14804
1.13367
1.11916
1.10453
1.08976
1.07486
1.05984
1.04469
1.02942
1.01402
0.998513
0.982888
0.967151
0.951306
0.935355
0.919304
0.903154
0.88691
0.870576
0.854155
0.837653
0.821072
0.804416
0.787691
0.770899
0.754045
0.737132
0.720164
0.703145
0.686077
0.668963
0.651806
0.634607
0.617367
0.600087
0.582768
0.565407
0.548004
0.530554
0.513053
0.495495
0.477872
0.460175
0.442389
0.4245
0.406487
0.388326
0.369986
0.351431
0.332613
0.313476
0.29394
0.273903
0.253217
0.231652
0.208862
0.184165
0.155985
0.119496
0.0536449
0.105811
0.241949
0.321161
0.384406
0.441142
0.494346
0.545218
0.594327
0.64198
0.688367
0.733618
0.777827
0.821072
0.863413
0.904897
0.94556
0.985429
1.02452
1.06285
1.10042
1.13722
1.17326
1.20851
1.24297
1.27663
1.30947
1.34147
1.37262
1.40291
1.43231
1.46082
1.48842
1.51512
1.54089
1.56573
1.58965
1.61263
1.63468
1.6558
1.676
1.69527
1.71363
1.73109
1.74765
1.76334
1.77815
1.7921
1.80522
1.81751
1.82899
1.83968
1.8496
1.85877
1.8672
1.87491
1.88193
1.88827
1.89395
1.899
1.90342
1.90724
1.91048
1.91315
1.91528
1.91688
1.91798
1.91857
1.9187
1.91836
1.91758
1.91637
1.91475
1.91273
1.91033
1.90755
1.90442
1.90094
1.89713
1.89299
1.88855
1.8838
1.87877
1.87345
1.86786
1.86202
1.85591
1.84956
1.84298
1.83616
1.82911
1.82185
1.81438
1.8067
1.79881
1.79073
1.78246
1.774
1.76536
1.75653
1.74753
1.73836
1.72902
1.7195
1.70983
1.69998
1.68998
1.67982
1.66949
1.65901
1.64838
1.63759
1.62665
1.61555
1.6043
1.5929
1.58135
1.56964
1.55779
1.54578
1.53362
1.52131
1.50885
1.49624
1.48347
1.47056
1.45749
1.44427
1.4309
1.41738
1.4037
1.38987
1.37589
1.36176
1.34748
1.33305
1.31846
1.30373
1.28884
1.27381
1.25863
1.2433
1.22783
1.21222
1.19646
1.18056
1.16453
1.14835
1.13205
1.11561
1.09905
1.08236
1.06554
1.04861
1.03156
1.0144
0.997131
0.979757
0.962283
0.944711
0.927047
0.909295
0.891459
0.873542
0.85555
0.837487
0.819356
0.801161
0.782906
0.764595
0.746231
0.727816
0.709354
0.690845
0.672292
0.653694
0.635053
0.616368
0.597636
0.578854
0.560019
0.541125
0.522164
0.503127
0.484002
0.464773
0.445423
0.425928
0.406259
0.38638
0.366247
0.345799
0.324958
0.303613
0.2816
0.258665
0.234374
0.207913
0.177388
0.137076
0.0620802
0.105813
0.241951
0.321162
0.384406
0.441142
0.494346
0.545217
0.594326
0.64198
0.688367
0.733617
0.777827
0.821072
0.863412
0.904896
0.945559
0.985428
1.02452
1.06285
1.10042
1.13722
1.17325
1.20851
1.24297
1.27663
1.30947
1.34147
1.37262
1.4029
1.43231
1.46082
1.48842
1.51512
1.54089
1.56573
1.58965
1.61263
1.63468
1.6558
1.67599
1.69527
1.71363
1.73109
1.74765
1.76333
1.77815
1.7921
1.80522
1.81751
1.82899
1.83968
1.8496
1.85876
1.86719
1.87491
1.88193
1.88827
1.89395
1.89899
1.90342
1.90724
1.91048
1.91315
1.91528
1.91688
1.91797
1.91857
1.9187
1.91836
1.91758
1.91637
1.91475
1.91273
1.91033
1.90755
1.90442
1.90094
1.89713
1.89299
1.88855
1.8838
1.87876
1.87345
1.86786
1.86201
1.85591
1.84956
1.84297
1.83616
1.82911
1.82185
1.81437
1.80669
1.79881
1.79073
1.78246
1.774
1.76536
1.75653
1.74753
1.73836
1.72901
1.7195
1.70982
1.69998
1.68998
1.67981
1.66949
1.65901
1.64838
1.63759
1.62665
1.61555
1.6043
1.5929
1.58134
1.56964
1.55778
1.54578
1.53362
1.52131
1.50885
1.49624
1.48347
1.47056
1.45749
1.44427
1.4309
1.41738
1.4037
1.38987
1.37589
1.36176
1.34748
1.33305
1.31846
1.30373
1.28884
1.27381
1.25863
1.2433
1.22783
1.21222
1.19646
1.18056
1.16453
1.14835
1.13205
1.11561
1.09905
1.08235
1.06554
1.04861
1.03156
1.0144
0.99713
0.979756
0.962282
0.94471
0.927047
0.909294
0.891458
0.873542
0.85555
0.837486
0.819355
0.80116
0.782906
0.764595
0.74623
0.727816
0.709353
0.690844
0.672291
0.653694
0.635053
0.616367
0.597635
0.578854
0.560019
0.541125
0.522164
0.503127
0.484002
0.464773
0.445423
0.425927
0.406259
0.38638
0.366247
0.345799
0.324958
0.303613
0.2816
0.258665
0.234374
0.207914
0.177388
0.137077
0.0620803
0.119723
0.271676
0.359001
0.427818
0.488982
0.545993
0.600297
0.652585
0.703228
0.752448
0.800393
0.84717
0.892863
0.93754
0.981254
1.02405
1.06596
1.10701
1.14721
1.18658
1.22512
1.26283
1.2997
1.33573
1.37091
1.40521
1.43864
1.47117
1.50279
1.5335
1.56327
1.59211
1.61999
1.64691
1.67288
1.69787
1.7219
1.74496
1.76706
1.78819
1.80837
1.8276
1.8459
1.86326
1.87971
1.89525
1.9099
1.92368
1.9366
1.94867
1.95992
1.97037
1.98003
1.98892
1.99706
2.00447
2.01118
2.01719
2.02254
2.02723
2.03129
2.03475
2.03761
2.03989
2.04162
2.04281
2.04349
2.04366
2.04335
2.04256
2.04133
2.03966
2.03757
2.03507
2.03217
2.0289
2.02526
2.02127
2.01694
2.01227
2.00729
2.002
1.99641
1.99053
1.98437
1.97794
1.97125
1.9643
1.95711
1.94968
1.94201
1.93412
1.92601
1.91768
1.90914
1.90039
1.89145
1.88231
1.87297
1.86345
1.85374
1.84385
1.83378
1.82353
1.8131
1.80251
1.79174
1.7808
1.7697
1.75843
1.74699
1.73539
1.72363
1.7117
1.69961
1.68736
1.67495
1.66237
1.64964
1.63674
1.62368
1.61047
1.59709
1.58355
1.56985
1.55598
1.54196
1.52777
1.51343
1.49892
1.48425
1.46942
1.45442
1.43927
1.42396
1.40849
1.39286
1.37707
1.36112
1.34502
1.32876
1.31235
1.29579
1.27907
1.26221
1.24521
1.22805
1.21076
1.19333
1.17576
1.15806
1.14023
1.12228
1.1042
1.086
1.06769
1.04926
1.03073
1.01209
0.993361
0.974533
0.955615
0.936611
0.917525
0.898362
0.879125
0.85982
0.840448
0.821015
0.801522
0.781974
0.762372
0.742719
0.723016
0.703263
0.683463
0.663612
0.643711
0.623756
0.603744
0.583669
0.563525
0.543303
0.522992
0.502577
0.482042
0.461363
0.440515
0.419461
0.398154
0.376535
0.354517
0.33198
0.308741
0.284507
0.258772
0.230578
0.197743
0.153707
0.0700148
0.119725
0.271679
0.359003
0.427819
0.488982
0.545993
0.600296
0.652584
0.703227
0.752447
0.800392
0.847169
0.892863
0.937539
0.981253
1.02405
1.06596
1.10701
1.14721
1.18658
1.22512
1.26283
1.2997
1.33573
1.3709
1.40521
1.43864
1.47117
1.50279
1.5335
1.56327
1.5921
1.61999
1.64691
1.67287
1.69787
1.7219
1.74496
1.76706
1.78819
1.80837
1.8276
1.84589
1.86326
1.87971
1.89525
1.9099
1.92368
1.93659
1.94867
1.95992
1.97037
1.98002
1.98892
1.99706
2.00447
2.01118
2.01719
2.02254
2.02723
2.03129
2.03474
2.0376
2.03989
2.04162
2.04281
2.04349
2.04366
2.04334
2.04256
2.04133
2.03966
2.03757
2.03507
2.03217
2.0289
2.02526
2.02127
2.01694
2.01227
2.00729
2.00199
1.9964
1.99053
1.98437
1.97794
1.97125
1.9643
1.95711
1.94968
1.94201
1.93412
1.926
1.91768
1.90914
1.90039
1.89145
1.88231
1.87297
1.86345
1.85374
1.84385
1.83378
1.82353
1.8131
1.80251
1.79174
1.7808
1.7697
1.75843
1.74699
1.73539
1.72363
1.7117
1.69961
1.68736
1.67495
1.66237
1.64964
1.63674
1.62368
1.61047
1.59709
1.58355
1.56984
1.55598
1.54196
1.52777
1.51342
1.49892
1.48425
1.46942
1.45442
1.43927
1.42396
1.40849
1.39286
1.37707
1.36112
1.34502
1.32876
1.31235
1.29579
1.27907
1.26221
1.2452
1.22805
1.21076
1.19333
1.17576
1.15806
1.14023
1.12227
1.1042
1.086
1.06768
1.04926
1.03073
1.01209
0.993361
0.974533
0.955614
0.93661
0.917525
0.898361
0.879125
0.859819
0.840448
0.821014
0.801522
0.781973
0.762371
0.742718
0.723015
0.703263
0.683462
0.663612
0.64371
0.623756
0.603743
0.583669
0.563525
0.543303
0.522991
0.502577
0.482041
0.461363
0.440515
0.41946
0.398154
0.376535
0.354517
0.33198
0.308741
0.284507
0.258772
0.230579
0.197744
0.153707
0.0700148
0.133214
0.300704
0.396021
0.47038
0.535936
0.596679
0.654285
0.709572
0.762981
0.814777
0.865133
0.914174
0.961996
1.00868
1.05428
1.09886
1.14245
1.18509
1.22681
1.26762
1.30753
1.34655
1.38468
1.42191
1.45824
1.49366
1.52816
1.56173
1.59436
1.62604
1.65676
1.68651
1.71528
1.74307
1.76987
1.79567
1.82049
1.84431
1.86714
1.88899
1.90986
1.92976
1.94869
1.96667
1.98371
1.99982
2.01502
2.02932
2.04273
2.05528
2.06698
2.07785
2.08791
2.09718
2.10568
2.11342
2.12043
2.12673
2.13233
2.13726
2.14154
2.14518
2.14821
2.15065
2.1525
2.1538
2.15456
2.15479
2.15452
2.15376
2.15253
2.15084
2.14872
2.14616
2.1432
2.13983
2.13609
2.13197
2.12749
2.12267
2.11751
2.11203
2.10623
2.10013
2.09373
2.08705
2.08009
2.07287
2.06538
2.05764
2.04966
2.04143
2.03297
2.02428
2.01538
2.00625
1.99691
1.98736
1.97761
1.96766
1.95751
1.94717
1.93664
1.92592
1.91501
1.90392
1.89265
1.88121
1.86958
1.85778
1.8458
1.83365
1.82132
1.80882
1.79616
1.78332
1.7703
1.75712
1.74377
1.73025
1.71656
1.7027
1.68867
1.67447
1.66009
1.64555
1.63084
1.61596
1.60091
1.58569
1.5703
1.55474
1.53901
1.52311
1.50704
1.49081
1.47441
1.45784
1.44111
1.42421
1.40715
1.38993
1.37255
1.35501
1.33732
1.31947
1.30147
1.28332
1.26503
1.24659
1.22802
1.20931
1.19046
1.17149
1.15238
1.13316
1.11382
1.09437
1.0748
1.05513
1.03536
1.01549
0.995534
0.975486
0.955354
0.935142
0.914853
0.894492
0.874063
0.853568
0.83301
0.812391
0.791715
0.770982
0.750193
0.729349
0.70845
0.687493
0.666477
0.645399
0.624253
0.603034
0.581734
0.560341
0.538844
0.517224
0.495462
0.473529
0.451389
0.428995
0.406281
0.383154
0.359481
0.335055
0.309544
0.282373
0.252439
0.217287
0.169578
0.0776087
0.133217
0.300706
0.396022
0.47038
0.535936
0.596678
0.654284
0.709571
0.76298
0.814776
0.865132
0.914173
0.961995
1.00868
1.05428
1.09886
1.14245
1.18509
1.22681
1.26762
1.30753
1.34655
1.38467
1.42191
1.45824
1.49366
1.52816
1.56173
1.59436
1.62604
1.65676
1.68651
1.71528
1.74307
1.76987
1.79567
1.82049
1.84431
1.86714
1.88899
1.90986
1.92976
1.94869
1.96667
1.98371
1.99982
2.01502
2.02931
2.04273
2.05528
2.06698
2.07785
2.08791
2.09718
2.10567
2.11342
2.12043
2.12673
2.13233
2.13726
2.14154
2.14518
2.14821
2.15064
2.1525
2.1538
2.15456
2.15479
2.15452
2.15376
2.15253
2.15084
2.14872
2.14616
2.1432
2.13983
2.13609
2.13197
2.12749
2.12267
2.11751
2.11202
2.10623
2.10013
2.09373
2.08705
2.08009
2.07287
2.06538
2.05764
2.04966
2.04143
2.03297
2.02428
2.01537
2.00625
1.99691
1.98736
1.97761
1.96766
1.95751
1.94717
1.93664
1.92592
1.91501
1.90392
1.89265
1.8812
1.86958
1.85777
1.8458
1.83365
1.82132
1.80882
1.79615
1.78331
1.7703
1.75712
1.74377
1.73025
1.71656
1.7027
1.68867
1.67446
1.66009
1.64555
1.63084
1.61596
1.60091
1.58569
1.5703
1.55474
1.53901
1.52311
1.50704
1.49081
1.47441
1.45784
1.44111
1.42421
1.40715
1.38993
1.37255
1.35501
1.33732
1.31947
1.30147
1.28332
1.26503
1.24659
1.22802
1.20931
1.19046
1.17148
1.15238
1.13316
1.11382
1.09437
1.0748
1.05513
1.03536
1.01549
0.995534
0.975486
0.955353
0.935141
0.914853
0.894492
0.874062
0.853567
0.833009
0.812391
0.791715
0.770982
0.750193
0.729349
0.708449
0.687493
0.666477
0.645399
0.624253
0.603034
0.581734
0.560341
0.538844
0.517224
0.495462
0.473528
0.451389
0.428995
0.40628
0.383154
0.359481
0.335055
0.309544
0.282374
0.25244
0.217288
0.169578
0.0776087
0.14649
0.329267
0.4325
0.512383
0.582313
0.646738
0.707557
0.765714
0.821725
0.875902
0.928451
0.979519
1.02922
1.07764
1.12486
1.17094
1.21594
1.25989
1.30283
1.34478
1.38577
1.42581
1.46489
1.50304
1.54024
1.57649
1.61178
1.64612
1.67948
1.71187
1.74327
1.77368
1.80309
1.8315
1.8589
1.88529
1.91067
1.93505
1.95842
1.98079
2.00216
2.02255
2.04196
2.0604
2.07789
2.09443
2.11004
2.12474
2.13854
2.15146
2.16352
2.17472
2.1851
2.19468
2.20346
2.21148
2.21874
2.22528
2.23111
2.23624
2.24071
2.24452
2.24771
2.25028
2.25226
2.25366
2.25451
2.25482
2.2546
2.25389
2.25268
2.251
2.24887
2.24629
2.24329
2.23988
2.23606
2.23187
2.22729
2.22236
2.21708
2.21146
2.20551
2.19925
2.19268
2.18581
2.17865
2.17121
2.1635
2.15552
2.14729
2.1388
2.13007
2.1211
2.1119
2.10246
2.09281
2.08293
2.07285
2.06255
2.05204
2.04133
2.03042
2.01932
2.00801
1.99652
1.98484
1.97296
1.9609
1.94866
1.93623
1.92361
1.91082
1.89784
1.88469
1.87135
1.85784
1.84414
1.83027
1.81622
1.80199
1.78758
1.773
1.75823
1.74329
1.72817
1.71287
1.6974
1.68174
1.66591
1.6499
1.63372
1.61735
1.60081
1.5841
1.5672
1.55014
1.5329
1.51549
1.4979
1.48015
1.46223
1.44414
1.42588
1.40747
1.38889
1.37015
1.35126
1.33222
1.31302
1.29368
1.2742
1.25457
1.23481
1.21492
1.1949
1.17475
1.15448
1.1341
1.1136
1.09299
1.07228
1.05147
1.03057
1.00957
0.988487
0.967318
0.946069
0.924743
0.903344
0.881873
0.860334
0.838729
0.817058
0.795324
0.773527
0.751665
0.729739
0.707747
0.685685
0.663549
0.641334
0.619031
0.596632
0.574124
0.551489
0.528708
0.505751
0.482582
0.459149
0.435383
0.411181
0.386393
0.36079
0.334
0.305378
0.273694
0.236217
0.184882
0.0848768
0.146493
0.329269
0.432501
0.512383
0.582313
0.646737
0.707556
0.765713
0.821724
0.875901
0.92845
0.979518
1.02922
1.07764
1.12486
1.17094
1.21594
1.25989
1.30283
1.34478
1.38577
1.42581
1.46489
1.50304
1.54024
1.57649
1.61178
1.64611
1.67948
1.71187
1.74327
1.77368
1.80309
1.8315
1.8589
1.88529
1.91067
1.93505
1.95842
1.98079
2.00216
2.02255
2.04196
2.0604
2.07789
2.09443
2.11004
2.12474
2.13854
2.15146
2.16351
2.17472
2.1851
2.19468
2.20346
2.21148
2.21874
2.22528
2.2311
2.23624
2.24071
2.24452
2.24771
2.25028
2.25226
2.25366
2.25451
2.25482
2.2546
2.25388
2.25268
2.251
2.24887
2.24629
2.24329
2.23988
2.23606
2.23187
2.22729
2.22236
2.21708
2.21146
2.20551
2.19925
2.19268
2.18581
2.17865
2.17121
2.1635
2.15552
2.14729
2.1388
2.13007
2.1211
2.11189
2.10246
2.09281
2.08293
2.07284
2.06255