/*--------------------------------*- C++ -*----------------------------------*\
  =========                 |
  \\      /  F ield         | OpenFOAM: The Open Source CFD Toolbox
   \\    /   O peration     | Website:  https://openfoam.org
    \\  /    A nd           | Version:  8
     \\/     M anipulation  |
\*---------------------------------------------------------------------------*/
FoamFile
{
    version     2.0;
    format      ascii;
    class       volScalarField;
    location    "2000";
    object      nut;
}
// * * * * * * * * * * * * * * * * * * * * * * * * * * * * * * * * * * * * * //

dimensions      [0 2 -1 0 0 0 0];

internalField   nonuniform List<scalar> 
48000
(
5.88891e-05
6.52803e-05
7.9905e-05
9.14763e-05
0.00010099
0.000108939
0.000115844
0.000122153
0.000127854
0.000133121
0.000138032
0.000142644
0.000147
0.000151134
0.000155072
0.000158833
0.000162434
0.000165887
0.000169203
0.00017239
0.000175455
0.000178404
0.000181241
0.000183971
0.000186597
0.000189122
0.00019155
0.000193882
0.000196121
0.000198269
0.000200328
0.0002023
0.000204188
0.000205992
0.000207716
0.00020936
0.000210927
0.000212418
0.000213836
0.000215182
0.000216457
0.000217665
0.000218806
0.000219882
0.000220896
0.000221848
0.000222741
0.000223576
0.000224355
0.000225084
0.000225766
0.000226397
0.000226979
0.000227513
0.000228001
0.000228445
0.000228845
0.000229204
0.000229523
0.000229804
0.000230047
0.000230254
0.000230427
0.000230566
0.000230674
0.00023075
0.000230796
0.000230814
0.000230804
0.000230767
0.000230704
0.000230616
0.000230504
0.000230369
0.000230212
0.000230032
0.000229832
0.000229612
0.000229371
0.000229112
0.000228834
0.000228538
0.000228225
0.000227895
0.000227548
0.000227186
0.000226807
0.000226414
0.000226005
0.000225582
0.000225144
0.000224693
0.000224228
0.000223749
0.000223257
0.000222751
0.000222233
0.000221701
0.000221157
0.000220601
0.000220032
0.00021945
0.000218856
0.000218249
0.000217631
0.000216999
0.000216356
0.0002157
0.000215031
0.00021435
0.000213657
0.00021295
0.000212232
0.0002115
0.000210755
0.000209997
0.000209226
0.000208441
0.000207643
0.000206831
0.000206005
0.000205165
0.00020431
0.000203441
0.000202557
0.000201659
0.000200745
0.000199815
0.00019887
0.000197908
0.000196931
0.000195937
0.000194926
0.000193898
0.000192853
0.000191791
0.00019071
0.000189611
0.000188494
0.000187359
0.000186204
0.00018503
0.000183836
0.000182623
0.00018139
0.000180136
0.000178862
0.000177566
0.00017625
0.000174912
0.000173552
0.000172171
0.000170767
0.00016934
0.00016789
0.000166418
0.000164922
0.000163402
0.000161858
0.00016029
0.000158697
0.000157079
0.000155436
0.000153766
0.000152071
0.000150348
0.000148598
0.000146821
0.000145014
0.000143179
0.000141313
0.000139416
0.000137487
0.000135524
0.000133527
0.000131493
0.00012942
0.000127307
0.000125151
0.000122949
0.000120698
0.000118392
0.00011603
0.000113608
0.000111133
0.000108593
0.000105959
0.000103216
0.000100346
9.73234e-05
9.41165e-05
9.06814e-05
8.69599e-05
8.29198e-05
7.84213e-05
7.32787e-05
6.73709e-05
6.2355e-05
0.000422393
0.000208192
5.8906e-05
6.52973e-05
7.99059e-05
9.14771e-05
0.000100991
0.00010894
0.000115845
0.000122154
0.000127855
0.000133122
0.000138033
0.000142645
0.000147001
0.000151135
0.000155072
0.000158834
0.000162435
0.000165888
0.000169204
0.000172391
0.000175456
0.000178404
0.000181242
0.000183971
0.000186597
0.000189123
0.00019155
0.000193882
0.000196121
0.000198269
0.000200328
0.0002023
0.000204188
0.000205992
0.000207716
0.00020936
0.000210927
0.000212418
0.000213836
0.000215182
0.000216457
0.000217665
0.000218806
0.000219882
0.000220896
0.000221848
0.000222741
0.000223576
0.000224355
0.000225084
0.000225766
0.000226397
0.000226979
0.000227513
0.000228001
0.000228445
0.000228845
0.000229204
0.000229523
0.000229803
0.000230047
0.000230254
0.000230427
0.000230566
0.000230674
0.00023075
0.000230796
0.000230814
0.000230804
0.000230767
0.000230704
0.000230616
0.000230504
0.000230369
0.000230212
0.000230032
0.000229832
0.000229611
0.000229371
0.000229112
0.000228834
0.000228538
0.000228225
0.000227895
0.000227548
0.000227185
0.000226807
0.000226414
0.000226005
0.000225582
0.000225144
0.000224693
0.000224228
0.000223749
0.000223256
0.000222751
0.000222233
0.000221701
0.000221157
0.000220601
0.000220032
0.00021945
0.000218856
0.000218249
0.00021763
0.000216999
0.000216356
0.0002157
0.000215031
0.00021435
0.000213657
0.00021295
0.000212231
0.0002115
0.000210755
0.000209997
0.000209226
0.000208441
0.000207643
0.000206831
0.000206005
0.000205165
0.00020431
0.000203441
0.000202557
0.000201659
0.000200744
0.000199815
0.00019887
0.000197908
0.000196931
0.000195937
0.000194926
0.000193898
0.000192853
0.000191791
0.00019071
0.000189611
0.000188494
0.000187359
0.000186204
0.00018503
0.000183836
0.000182623
0.00018139
0.000180136
0.000178862
0.000177566
0.00017625
0.000174912
0.000173552
0.00017217
0.000170766
0.00016934
0.00016789
0.000166418
0.000164922
0.000163402
0.000161858
0.00016029
0.000158697
0.000157079
0.000155436
0.000153766
0.000152071
0.000150348
0.000148598
0.000146821
0.000145014
0.000143179
0.000141313
0.000139416
0.000137487
0.000135524
0.000133527
0.000131493
0.00012942
0.000127308
0.000125151
0.000122949
0.000120698
0.000118392
0.00011603
0.000113608
0.000111133
0.000108593
0.000105959
0.000103217
0.000100346
9.73234e-05
9.41165e-05
9.06815e-05
8.69599e-05
8.29197e-05
7.84207e-05
7.32753e-05
6.73572e-05
6.23192e-05
0.000422232
0.000207672
5.61015e-05
0.000412852
0.000655439
0.000823845
0.000950602
0.00105445
0.00114333
0.00122098
0.00129066
0.00135396
0.00141208
0.00146591
0.00151612
0.00156323
0.00160762
0.00164961
0.00168945
0.00172736
0.00176349
0.00179799
0.00183098
0.00186255
0.00189279
0.00192177
0.00194955
0.00197618
0.00200171
0.00202619
0.00204966
0.00207214
0.00209367
0.00211428
0.002134
0.00215285
0.00217086
0.00218806
0.00220446
0.0022201
0.00223498
0.00224913
0.00226258
0.00227535
0.00228744
0.00229889
0.00230971
0.00231992
0.00232953
0.00233855
0.00234698
0.00235473
0.0023619
0.00236854
0.0023747
0.0023804
0.00238565
0.00239049
0.00239491
0.00239894
0.00240259
0.00240587
0.00240879
0.00241137
0.00241361
0.00241553
0.00241714
0.00241846
0.00241948
0.00242021
0.00242068
0.00242088
0.00242082
0.00242052
0.00241998
0.0024192
0.0024182
0.00241698
0.00241554
0.0024139
0.00241206
0.00241001
0.00240778
0.00240536
0.00240276
0.00239998
0.00239703
0.00239391
0.00239062
0.00238717
0.00238356
0.00237979
0.00237586
0.00237179
0.00236756
0.00236318
0.00235866
0.002354
0.00234919
0.00234423
0.00233914
0.00233391
0.00232853
0.00232302
0.00231736
0.00231157
0.00230564
0.00229957
0.00229336
0.00228701
0.00228052
0.00227389
0.00226712
0.0022602
0.00225314
0.00224593
0.00223858
0.00223108
0.00222343
0.00221563
0.00220767
0.00219956
0.00219129
0.00218286
0.00217427
0.00216552
0.0021566
0.00214752
0.00213826
0.00212883
0.00211922
0.00210944
0.00209947
0.00208932
0.00207899
0.00206846
0.00205774
0.00204683
0.00203572
0.00202441
0.0020129
0.00200118
0.00198926
0.00197712
0.00196477
0.0019522
0.00193941
0.00192639
0.00191315
0.00189969
0.00188599
0.00187206
0.00185788
0.00184347
0.00182882
0.00181392
0.00179877
0.00178337
0.00176771
0.00175179
0.00173561
0.00171916
0.00170244
0.00168544
0.00166816
0.0016506
0.00163274
0.00161459
0.00159613
0.00157736
0.00155826
0.00153883
0.00151906
0.00149893
0.00147842
0.00145753
0.00143623
0.0014145
0.00139231
0.00136963
0.00134642
0.00132265
0.00129825
0.00127316
0.00124729
0.00122051
0.00119263
0.00116353
0.00113315
0.00110133
0.00106783
0.00103229
0.000994239
0.000952927
0.000907107
0.000854309
0.00079306
0.00071963
0.00062671
0.000497078
0.000285416
3.91223e-05
5.6116e-05
0.000412886
0.000655493
0.000823889
0.000950641
0.00105449
0.00114336
0.00122102
0.0012907
0.00135399
0.00141211
0.00146594
0.00151616
0.00156326
0.00160765
0.00164964
0.00168948
0.00172739
0.00176352
0.00179802
0.00183101
0.00186258
0.00189282
0.00192179
0.00194957
0.0019762
0.00200174
0.00202622
0.00204968
0.00207216
0.00209369
0.0021143
0.00213402
0.00215287
0.00217088
0.00218808
0.00220448
0.00222011
0.002235
0.00224915
0.0022626
0.00227536
0.00228746
0.00229891
0.00230973
0.00231993
0.00232954
0.00233857
0.002347
0.00235475
0.00236191
0.00236855
0.00237471
0.00238041
0.00238567
0.0023905
0.00239492
0.00239895
0.0024026
0.00240588
0.0024088
0.00241138
0.00241362
0.00241555
0.00241716
0.00241847
0.00241949
0.00242023
0.00242069
0.00242089
0.00242084
0.00242053
0.00241999
0.00241921
0.00241821
0.00241699
0.00241555
0.00241391
0.00241207
0.00241002
0.00240779
0.00240537
0.00240277
0.00239999
0.00239704
0.00239392
0.00239063
0.00238718
0.00238357
0.0023798
0.00237587
0.0023718
0.00236757
0.00236319
0.00235867
0.00235401
0.0023492
0.00234424
0.00233915
0.00233391
0.00232854
0.00232303
0.00231737
0.00231158
0.00230565
0.00229958
0.00229337
0.00228702
0.00228053
0.0022739
0.00226713
0.00226021
0.00225315
0.00224594
0.00223859
0.00223109
0.00222344
0.00221564
0.00220768
0.00219957
0.0021913
0.00218287
0.00217428
0.00216553
0.00215661
0.00214753
0.00213827
0.00212884
0.00211923
0.00210945
0.00209948
0.00208933
0.00207899
0.00206847
0.00205775
0.00204684
0.00203573
0.00202442
0.00201291
0.00200119
0.00198927
0.00197713
0.00196477
0.0019522
0.00193941
0.0019264
0.00191316
0.0018997
0.001886
0.00187206
0.00185789
0.00184348
0.00182883
0.00181393
0.00179878
0.00178337
0.00176772
0.0017518
0.00173562
0.00171917
0.00170245
0.00168545
0.00166817
0.00165061
0.00163275
0.0016146
0.00159614
0.00157736
0.00155827
0.00153884
0.00151906
0.00149893
0.00147843
0.00145754
0.00143624
0.0014145
0.00139231
0.00136963
0.00134643
0.00132266
0.00129826
0.00127317
0.0012473
0.00122052
0.00119264
0.00116353
0.00113315
0.00110134
0.00106784
0.0010323
0.000994245
0.000952933
0.000907113
0.000854313
0.000793061
0.00071963
0.000626748
0.000497331
0.000285341
3.90982e-05
6.83967e-05
0.000623743
0.00110985
0.0014733
0.00176157
0.00200141
0.00220757
0.00238873
0.0025507
0.00269734
0.00283143
0.00295499
0.00306961
0.0031765
0.00327663
0.0033708
0.00345963
0.00354368
0.00362336
0.00369908
0.00377113
0.00383979
0.0039053
0.00396786
0.00402763
0.00408478
0.00413945
0.00419174
0.00424178
0.00428965
0.00433545
0.00437925
0.00442114
0.00446119
0.00449944
0.00453598
0.00457086
0.00460412
0.00463584
0.00466604
0.00469479
0.00472213
0.0047481
0.00477275
0.00479611
0.00481823
0.00483913
0.00485884
0.00487736
0.00489467
0.00491082
0.00492593
0.00494004
0.00495321
0.00496547
0.00497687
0.00498743
0.00499718
0.00500616
0.00501438
0.00502187
0.00502866
0.00503478
0.00504023
0.00504505
0.00504925
0.00505286
0.00505589
0.00505835
0.00506028
0.00506167
0.00506256
0.00506295
0.00506286
0.00506229
0.00506127
0.00505981
0.00505791
0.00505559
0.00505286
0.00504973
0.00504621
0.0050423
0.00503801
0.00503336
0.00502835
0.00502298
0.00501726
0.0050112
0.00500481
0.00499808
0.00499103
0.00498365
0.00497595
0.00496794
0.00495961
0.00495097
0.00494203
0.00493277
0.00492321
0.00491335
0.00490318
0.00489271
0.00488193
0.00487085
0.00485946
0.00484778
0.00483578
0.00482348
0.00481086
0.00479794
0.0047847
0.00477114
0.00475727
0.00474307
0.00472855
0.0047137
0.00469851
0.00468299
0.00466713
0.00465092
0.00463437
0.00461746
0.00460019
0.00458255
0.00456455
0.00454617
0.00452741
0.00450827
0.00448874
0.0044688
0.00444847
0.00442772
0.00440657
0.00438498
0.00436298
0.00434053
0.00431765
0.00429432
0.00427054
0.0042463
0.00422159
0.00419641
0.00417074
0.0041446
0.00411795
0.00409081
0.00406315
0.00403498
0.00400629
0.00397706
0.00394729
0.00391698
0.00388611
0.00385467
0.00382265
0.00379005
0.00375685
0.00372304
0.00368861
0.00365355
0.00361783
0.00358145
0.00354439
0.00350663
0.00346814
0.00342891
0.00338891
0.00334811
0.00330648
0.00326398
0.00322058
0.00317622
0.00313085
0.00308442
0.00303685
0.00298807
0.00293799
0.00288648
0.00283344
0.00277869
0.00272205
0.00266329
0.00260211
0.00253815
0.00247105
0.0024004
0.00232559
0.00224585
0.00216011
0.00206696
0.00196436
0.00184934
0.00171753
0.00156346
0.00137897
0.00115058
0.000856525
0.000464149
5.13437e-05
6.83977e-05
0.000623788
0.00110992
0.00147338
0.00176165
0.00200149
0.00220766
0.00238882
0.00255078
0.00269743
0.00283151
0.00295507
0.00306969
0.00317658
0.00327671
0.00337087
0.0034597
0.00354374
0.00362343
0.00369914
0.00377119
0.00383985
0.00390536
0.00396791
0.00402768
0.00408483
0.00413949
0.00419178
0.00424182
0.00428969
0.00433548
0.00437929
0.00442118
0.00446122
0.00449948
0.00453601
0.00457089
0.00460415
0.00463586
0.00466607
0.00469481
0.00472215
0.00474812
0.00477277
0.00479613
0.00481824
0.00483914
0.00485885
0.00487737
0.00489468
0.00491083
0.00492594
0.00494005
0.00495322
0.00496549
0.00497688
0.00498744
0.00499719
0.00500616
0.00501439
0.00502188
0.00502867
0.00503478
0.00504024
0.00504505
0.00504926
0.00505286
0.00505589
0.00505836
0.00506028
0.00506168
0.00506256
0.00506295
0.00506286
0.0050623
0.00506128
0.00505981
0.00505791
0.0050556
0.00505286
0.00504973
0.00504621
0.0050423
0.00503801
0.00503336
0.00502835
0.00502298
0.00501726
0.0050112
0.00500481
0.00499808
0.00499103
0.00498365
0.00497595
0.00496794
0.00495961
0.00495097
0.00494203
0.00493277
0.00492321
0.00491335
0.00490318
0.0048927
0.00488193
0.00487085
0.00485946
0.00484777
0.00483578
0.00482347
0.00481086
0.00479794
0.0047847
0.00477114
0.00475727
0.00474307
0.00472855
0.0047137
0.00469851
0.00468299
0.00466713
0.00465092
0.00463437
0.00461746
0.00460019
0.00458255
0.00456455
0.00454617
0.00452741
0.00450827
0.00448873
0.0044688
0.00444847
0.00442772
0.00440656
0.00438498
0.00436297
0.00434053
0.00431765
0.00429432
0.00427054
0.0042463
0.00422159
0.0041964
0.00417074
0.00414459
0.00411795
0.0040908
0.00406315
0.00403498
0.00400628
0.00397706
0.00394729
0.00391698
0.0038861
0.00385467
0.00382265
0.00379005
0.00375685
0.00372304
0.00368861
0.00365355
0.00361783
0.00358145
0.00354439
0.00350663
0.00346814
0.00342891
0.00338891
0.00334811
0.00330648
0.00326398
0.00322057
0.00317621
0.00313085
0.00308442
0.00303685
0.00298807
0.00293798
0.00288648
0.00283344
0.00277869
0.00272205
0.00266329
0.00260211
0.00253815
0.00247105
0.0024004
0.00232559
0.00224585
0.00216011
0.00206696
0.00196436
0.00184934
0.00171753
0.00156346
0.00137896
0.00115057
0.000856578
0.000464011
5.13707e-05
7.7662e-05
0.000746978
0.00140877
0.00193653
0.00236915
0.00273533
0.00305319
0.0033344
0.00358685
0.00381607
0.00402607
0.00421984
0.00439969
0.00456745
0.00472458
0.00487226
0.00501148
0.00514306
0.00526768
0.00538594
0.00549834
0.00560531
0.00570724
0.00580446
0.00589724
0.00598585
0.00607052
0.00615145
0.00622882
0.0063028
0.00637354
0.00644118
0.00650583
0.00656764
0.00662669
0.0066831
0.00673696
0.00678836
0.0068374
0.00688415
0.00692869
0.0069711
0.00701145
0.00704981
0.00708623
0.00712079
0.00715353
0.0071845
0.00721373
0.00724125
0.0072671
0.00729141
0.00731425
0.00733567
0.00735574
0.00737452
0.00739204
0.00740835
0.0074235
0.00743754
0.00745048
0.00746238
0.00747327
0.00748319
0.00749215
0.0075002
0.00750736
0.00751365
0.00751912
0.00752378
0.00752765
0.00753076
0.00753313
0.00753477
0.00753572
0.00753599
0.00753559
0.00753454
0.00753287
0.00753057
0.00752767
0.00752419
0.00752013
0.0075155
0.00751032
0.00750459
0.00749833
0.00749155
0.00748425
0.00747643
0.00746812
0.00745931
0.00745001
0.00744023
0.00742996
0.00741922
0.007408
0.00739632
0.00738416
0.00737154
0.00735846
0.00734491
0.00733089
0.00731641
0.00730147
0.00728606
0.00727018
0.00725384
0.00723702
0.00721973
0.00720196
0.0071837
0.00716496
0.00714574
0.00712601
0.00710579
0.00708506
0.00706382
0.00704206
0.00701977
0.00699696
0.00697361
0.00694971
0.00692526
0.00690025
0.00687467
0.00684851
0.00682176
0.00679442
0.00676648
0.00673792
0.00670875
0.00667894
0.00664848
0.00661738
0.00658561
0.00655317
0.00652005
0.00648624
0.00645172
0.00641649
0.00638053
0.00634383
0.00630638
0.00626818
0.00622919
0.00618942
0.00614885
0.00610747
0.00606526
0.00602221
0.00597831
0.00593353
0.00588786
0.00584128
0.00579378
0.00574534
0.00569593
0.00564553
0.00559412
0.00554167
0.00548816
0.00543354
0.0053778
0.00532089
0.00526277
0.0052034
0.00514272
0.00508069
0.00501724
0.0049523
0.0048858
0.00481765
0.00474774
0.00467597
0.00460221
0.00452631
0.0044481
0.00436738
0.0042839
0.00419739
0.00410751
0.00401386
0.00391594
0.00381317
0.00370487
0.00359019
0.00346807
0.0033371
0.00319549
0.00304082
0.00286986
0.00267827
0.00246012
0.00220732
0.00190934
0.00155085
0.00111138
0.000572503
5.92811e-05
7.76627e-05
0.000747011
0.00140885
0.00193663
0.00236926
0.00273545
0.00305331
0.00333452
0.00358698
0.0038162
0.00402619
0.00421996
0.00439981
0.00456757
0.00472469
0.00487237
0.00501159
0.00514316
0.00526778
0.00538603
0.00549843
0.0056054
0.00570732
0.00580453
0.00589731
0.00598592
0.00607059
0.00615152
0.00622888
0.00630286
0.0063736
0.00644123
0.00650588
0.00656768
0.00662673
0.00668314
0.006737
0.0067884
0.00683743
0.00688418
0.00692872
0.00697113
0.00701148
0.00704983
0.00708625
0.00712081
0.00715355
0.00718452
0.00721375
0.00724127
0.00726712
0.00729142
0.00731426
0.00733568
0.00735575
0.00737452
0.00739204
0.00740836
0.00742351
0.00743754
0.00745049
0.00746239
0.00747328
0.00748319
0.00749215
0.0075002
0.00750736
0.00751365
0.00751912
0.00752377
0.00752765
0.00753075
0.00753312
0.00753477
0.00753572
0.00753598
0.00753558
0.00753454
0.00753286
0.00753057
0.00752767
0.00752418
0.00752012
0.00751549
0.00751031
0.00750458
0.00749832
0.00749154
0.00748424
0.00747643
0.00746811
0.0074593
0.00745
0.00744022
0.00742995
0.00741921
0.00740799
0.00739631
0.00738415
0.00737153
0.00735845
0.0073449
0.00733088
0.0073164
0.00730146
0.00728605
0.00727017
0.00725383
0.00723701
0.00721972
0.00720195
0.00718369
0.00716495
0.00714573
0.007126
0.00710578
0.00708505
0.00706381
0.00704205
0.00701976
0.00699695
0.0069736
0.0069497
0.00692525
0.00690024
0.00687465
0.0068485
0.00682175
0.00679441
0.00676647
0.00673791
0.00670873
0.00667892
0.00664847
0.00661737
0.0065856
0.00655316
0.00652004
0.00648623
0.00645171
0.00641648
0.00638052
0.00634382
0.00630637
0.00626816
0.00622918
0.00618941
0.00614884
0.00610746
0.00606525
0.0060222
0.00597829
0.00593351
0.00588784
0.00584127
0.00579377
0.00574533
0.00569592
0.00564552
0.00559411
0.00554166
0.00548814
0.00543353
0.00537779
0.00532088
0.00526276
0.00520339
0.00514271
0.00508068
0.00501723
0.00495229
0.00488579
0.00481763
0.00474773
0.00467596
0.0046022
0.0045263
0.00444809
0.00436736
0.00428389
0.00419738
0.0041075
0.00401385
0.00391593
0.00381316
0.00370486
0.00359018
0.00346806
0.0033371
0.00319549
0.00304082
0.00286986
0.00267827
0.00246011
0.00220732
0.00190934
0.00155085
0.00111141
0.000572475
5.92866e-05
8.5083e-05
0.000833454
0.00162295
0.00228018
0.00283201
0.00330598
0.00372141
0.00409156
0.0044257
0.00473046
0.00501072
0.00527017
0.00551167
0.00573748
0.0059494
0.00614893
0.00633728
0.00651549
0.00668444
0.00684487
0.00699742
0.00714266
0.00728108
0.0074131
0.00753912
0.00765946
0.00777444
0.00788434
0.00798938
0.00808982
0.00818585
0.00827766
0.00836544
0.00844934
0.00852952
0.00860613
0.0086793
0.00874916
0.00881583
0.00887943
0.00894006
0.00899784
0.00905286
0.00910523
0.00915501
0.00920232
0.00924721
0.00928976
0.00933004
0.0093681
0.009404
0.00943788
0.00946982
0.00949989
0.00952817
0.00955473
0.00957963
0.00960294
0.00962471
0.00964501
0.00966387
0.00968135
0.0096975
0.00971236
0.00972597
0.00973838
0.00974962
0.00975973
0.00976874
0.0097767
0.00978362
0.00978954
0.00979449
0.00979849
0.00980158
0.00980377
0.00980508
0.00980555
0.00980519
0.00980402
0.00980206
0.00979933
0.00979584
0.0097916
0.00978664
0.00978096
0.00977458
0.00976751
0.00975976
0.00975134
0.00974225
0.00973252
0.00972213
0.00971111
0.00969945
0.00968717
0.00967425
0.00966072
0.00964657
0.0096318
0.00961641
0.00960041
0.0095838
0.00956657
0.00954873
0.00953027
0.00951118
0.00949148
0.00947115
0.00945018
0.00942859
0.00940635
0.00938347
0.00935993
0.00933574
0.00931088
0.00928534
0.00925913
0.00923222
0.00920462
0.00917631
0.00914728
0.00911752
0.00908703
0.00905578
0.00902378
0.008991
0.00895744
0.00892308
0.00888791
0.00885193
0.00881511
0.00877744
0.0087389
0.0086995
0.0086592
0.008618
0.00857588
0.00853282
0.00848882
0.00844385
0.00839789
0.00835094
0.00830297
0.00825396
0.00820391
0.00815278
0.00810056
0.00804723
0.00799276
0.00793715
0.00788035
0.00782235
0.00776313
0.00770265
0.00764089
0.00757781
0.00751339
0.00744758
0.00738036
0.00731167
0.00724148
0.00716974
0.00709639
0.00702138
0.00694464
0.00686611
0.00678571
0.00670336
0.00661895
0.00653239
0.00644355
0.0063523
0.0062585
0.00616197
0.00606251
0.0059599
0.00585389
0.00574416
0.00563037
0.00551211
0.00538887
0.00526007
0.00512502
0.00498286
0.0048326
0.00467298
0.00450247
0.00431912
0.00412044
0.00390324
0.0036634
0.00339555
0.00309269
0.00274561
0.00234282
0.00186948
0.00130838
0.000652979
6.5077e-05
8.50837e-05
0.000833486
0.00162302
0.00228028
0.00283214
0.00330612
0.00372156
0.00409172
0.00442586
0.00473062
0.00501088
0.00527033
0.00551183
0.00573763
0.00594955
0.00614907
0.00633742
0.00651563
0.00668457
0.00684499
0.00699754
0.00714278
0.00728119
0.00741321
0.00753922
0.00765956
0.00777454
0.00788442
0.00798947
0.0080899
0.00818592
0.00827773
0.0083655
0.0084494
0.00852958
0.00860619
0.00867935
0.00874921
0.00881588
0.00887947
0.0089401
0.00899788
0.0090529
0.00910526
0.00915505
0.00920234
0.00924723
0.00928978
0.00933006
0.00936812
0.00940402
0.0094379
0.00946983
0.0094999
0.00952818
0.00955474
0.00957964
0.00960295
0.00962472
0.00964501
0.00966387
0.00968135
0.0096975
0.00971236
0.00972597
0.00973838
0.00974962
0.00975973
0.00976874
0.00977669
0.00978361
0.00978954
0.00979448
0.00979849
0.00980157
0.00980376
0.00980508
0.00980555
0.00980519
0.00980402
0.00980205
0.00979932
0.00979583
0.00979159
0.00978663
0.00978095
0.00977457
0.0097675
0.00975975
0.00975133
0.00974224
0.00973251
0.00972212
0.0097111
0.00969944
0.00968715
0.00967424
0.00966071
0.00964656
0.00963179
0.0096164
0.0096004
0.00958379
0.00956656
0.00954872
0.00953025
0.00951117
0.00949147
0.00947113
0.00945017
0.00942857
0.00940634
0.00938345
0.00935992
0.00933572
0.00931086
0.00928533
0.00925911
0.00923221
0.00920461
0.00917629
0.00914726
0.00911751
0.00908701
0.00905577
0.00902376
0.00899098
0.00895742
0.00892306
0.0088879
0.00885191
0.00881509
0.00877742
0.00873889
0.00869948
0.00865918
0.00861798
0.00857586
0.00853281
0.0084888
0.00844383
0.00839787
0.00835092
0.00830295
0.00825395
0.00820389
0.00815276
0.00810054
0.00804721
0.00799275
0.00793713
0.00788033
0.00782234
0.00776311
0.00770263
0.00764087
0.00757779
0.00751337
0.00744756
0.00738034
0.00731165
0.00724146
0.00716972
0.00709637
0.00702136
0.00694463
0.0068661
0.0067857
0.00670334
0.00661893
0.00653237
0.00644353
0.00635229
0.00625848
0.00616195
0.00606249
0.00595989
0.00585387
0.00574415
0.00563036
0.00551209
0.00538885
0.00526006
0.005125
0.00498285
0.00483258
0.00467297
0.00450246
0.00431911
0.00412043
0.00390323
0.00366339
0.00339555
0.00309268
0.00274561
0.00234282
0.00186948
0.00130839
0.000652973
6.50779e-05
9.13841e-05
0.000902805
0.00178968
0.00254868
0.00319729
0.00376099
0.00425929
0.00470622
0.00511188
0.00548362
0.00582693
0.00614598
0.00644399
0.00672353
0.00698664
0.00723501
0.00747002
0.00769286
0.0079045
0.0081058
0.00829749
0.00848021
0.00865454
0.00882096
0.00897993
0.00913185
0.00927708
0.00941594
0.00954874
0.00967574
0.00979722
0.0099134
0.0100245
0.0101307
0.0102323
0.0103293
0.010422
0.0105106
0.0105951
0.0106758
0.0107528
0.0108262
0.0108961
0.0109627
0.0110261
0.0110864
0.0111436
0.011198
0.0112496
0.0112984
0.0113446
0.0113882
0.0114295
0.0114685
0.0115052
0.0115398
0.0115723
0.0116029
0.0116315
0.0116583
0.0116834
0.0117067
0.0117284
0.0117485
0.0117671
0.0117841
0.0117997
0.011814
0.0118269
0.0118384
0.0118487
0.0118578
0.0118657
0.0118724
0.011878
0.0118825
0.0118859
0.0118883
0.0118897
0.0118901
0.0118895
0.0118879
0.0118855
0.0118821
0.0118778
0.0118727
0.0118666
0.0118598
0.0118521
0.0118436
0.0118343
0.0118242
0.0118132
0.0118016
0.0117891
0.0117758
0.0117618
0.0117471
0.0117315
0.0117152
0.0116982
0.0116804
0.0116618
0.0116425
0.0116225
0.0116016
0.01158
0.0115577
0.0115346
0.0115107
0.011486
0.0114605
0.0114343
0.0114072
0.0113793
0.0113506
0.0113211
0.0112907
0.0112595
0.0112274
0.0111944
0.0111605
0.0111258
0.0110901
0.0110535
0.011016
0.0109775
0.010938
0.0108975
0.0108561
0.0108136
0.0107701
0.0107255
0.0106798
0.0106331
0.0105852
0.0105363
0.0104861
0.0104348
0.0103823
0.0103286
0.0102737
0.0102175
0.01016
0.0101013
0.0100412
0.0099797
0.00991687
0.00985262
0.00978695
0.0097198
0.00965116
0.00958099
0.00950924
0.0094359
0.00936091
0.00928423
0.00920581
0.00912562
0.0090436
0.00895968
0.00887381
0.00878593
0.00869595
0.00860381
0.00850941
0.00841266
0.00831345
0.00821168
0.0081072
0.00799988
0.00788955
0.00777604
0.00765914
0.00753862
0.00741422
0.00728562
0.0071525
0.00701443
0.00687096
0.00672153
0.0065655
0.00640211
0.00623043
0.00604938
0.00585764
0.00565363
0.00543538
0.00520045
0.00494583
0.00466771
0.00436132
0.00402064
0.00363808
0.00320417
0.00270721
0.00213366
0.00146988
0.000718973
6.99992e-05
9.13848e-05
0.000902837
0.00178976
0.00254879
0.00319743
0.00376114
0.00425946
0.0047064
0.00511206
0.00548381
0.00582712
0.00614616
0.00644417
0.0067237
0.00698681
0.00723518
0.00747019
0.00769302
0.00790465
0.00810595
0.00829763
0.00848035
0.00865467
0.00882109
0.00898006
0.00913197
0.00927719
0.00941604
0.00954884
0.00967584
0.00979731
0.00991348
0.0100246
0.0101308
0.0102323
0.0103294
0.0104221
0.0105106
0.0105952
0.0106759
0.0107528
0.0108262
0.0108961
0.0109627
0.0110261
0.0110864
0.0111437
0.011198
0.0112496
0.0112984
0.0113446
0.0113883
0.0114295
0.0114685
0.0115052
0.0115398
0.0115723
0.0116029
0.0116315
0.0116584
0.0116834
0.0117067
0.0117284
0.0117485
0.0117671
0.0117841
0.0117997
0.011814
0.0118269
0.0118384
0.0118487
0.0118578
0.0118657
0.0118724
0.011878
0.0118825
0.0118859
0.0118883
0.0118897
0.0118901
0.0118895
0.0118879
0.0118854
0.0118821
0.0118778
0.0118726
0.0118666
0.0118598
0.0118521
0.0118436
0.0118343
0.0118241
0.0118132
0.0118015
0.0117891
0.0117758
0.0117618
0.011747
0.0117315
0.0117152
0.0116982
0.0116804
0.0116618
0.0116425
0.0116224
0.0116016
0.01158
0.0115577
0.0115346
0.0115107
0.011486
0.0114605
0.0114342
0.0114072
0.0113793
0.0113506
0.011321
0.0112907
0.0112594
0.0112273
0.0111944
0.0111605
0.0111258
0.0110901
0.0110535
0.011016
0.0109775
0.010938
0.0108975
0.0108561
0.0108136
0.0107701
0.0107255
0.0106798
0.0106331
0.0105852
0.0105362
0.0104861
0.0104348
0.0103823
0.0103286
0.0102737
0.0102175
0.01016
0.0101012
0.0100411
0.00997968
0.00991685
0.00985261
0.00978693
0.00971978
0.00965114
0.00958097
0.00950922
0.00943588
0.00936089
0.00928421
0.0092058
0.0091256
0.00904358
0.00895966
0.00887379
0.00878591
0.00869593
0.00860379
0.00850939
0.00841264
0.00831343
0.00821166
0.00810718
0.00799986
0.00788954
0.00777602
0.00765912
0.0075386
0.0074142
0.0072856
0.00715248
0.00701441
0.00687094
0.00672152
0.00656549
0.00640209
0.00623041
0.00604936
0.00585763
0.00565362
0.00543536
0.00520044
0.00494582
0.0046677
0.00436131
0.00402063
0.00363808
0.00320417
0.00270721
0.00213366
0.00146988
0.000718968
6.99993e-05
9.72086e-05
0.000961781
0.00192708
0.00276777
0.00349523
0.00413327
0.0047013
0.00521374
0.00568117
0.00611146
0.00651048
0.00688273
0.0072317
0.00756014
0.00787027
0.00816389
0.00844249
0.00870731
0.00895942
0.00919972
0.00942898
0.0096479
0.00985708
0.0100571
0.0102483
0.0104313
0.0106064
0.0107739
0.0109343
0.0110878
0.0112346
0.0113752
0.0115097
0.0116383
0.0117613
0.0118789
0.0119913
0.0120988
0.0122014
0.0122993
0.0123928
0.012482
0.012567
0.012648
0.0127252
0.0127986
0.0128685
0.0129348
0.0129978
0.0130576
0.0131142
0.0131679
0.0132186
0.0132666
0.013312
0.0133548
0.0133951
0.0134331
0.0134688
0.0135023
0.0135337
0.013563
0.0135904
0.0136159
0.0136396
0.0136615
0.0136817
0.0137002
0.0137172
0.0137326
0.0137465
0.0137589
0.0137699
0.0137796
0.0137879
0.013795
0.0138007
0.0138053
0.0138086
0.0138108
0.0138119
0.0138118
0.0138106
0.0138084
0.0138051
0.0138008
0.0137955
0.0137892
0.0137819
0.0137737
0.0137645
0.0137543
0.0137433
0.0137313
0.0137184
0.0137046
0.0136899
0.0136743
0.0136578
0.0136405
0.0136222
0.0136031
0.0135831
0.0135621
0.0135403
0.0135177
0.0134941
0.0134696
0.0134442
0.0134179
0.0133907
0.0133625
0.0133334
0.0133034
0.0132724
0.0132405
0.0132075
0.0131736
0.0131387
0.0131027
0.0130657
0.0130277
0.0129886
0.0129484
0.0129071
0.0128647
0.0128212
0.0127765
0.0127307
0.0126836
0.0126354
0.0125859
0.0125351
0.0124831
0.0124298
0.0123751
0.0123192
0.0122618
0.012203
0.0121428
0.0120812
0.0120181
0.0119535
0.0118873
0.0118196
0.0117503
0.0116794
0.0116067
0.0115324
0.0114564
0.0113786
0.0112989
0.0112174
0.011134
0.0110487
0.0109613
0.0108719
0.0107803
0.0106866
0.0105907
0.0104924
0.0103917
0.0102885
0.0101828
0.0100744
0.00996316
0.00984905
0.0097319
0.00961156
0.00948787
0.00936065
0.00922969
0.00909477
0.00895563
0.00881199
0.0086635
0.00850979
0.00835043
0.00818492
0.00801268
0.00783302
0.00764517
0.00744817
0.00724092
0.0070221
0.00679013
0.0065431
0.0062787
0.00599411
0.00568586
0.0053497
0.00498041
0.00457156
0.00411529
0.0036021
0.00302081
0.00235925
0.00160734
0.000775531
7.43361e-05
9.72094e-05
0.000961814
0.00192716
0.00276789
0.00349538
0.00413344
0.00470149
0.00521393
0.00568137
0.00611166
0.00651069
0.00688293
0.0072319
0.00756034
0.00787047
0.00816408
0.00844268
0.0087075
0.0089596
0.00919989
0.00942914
0.00964806
0.00985723
0.0100572
0.0102485
0.0104314
0.0106065
0.010774
0.0109344
0.0110879
0.0112347
0.0113753
0.0115097
0.0116384
0.0117614
0.011879
0.0119914
0.0120988
0.0122014
0.0122994
0.0123929
0.012482
0.0125671
0.0126481
0.0127252
0.0127987
0.0128685
0.0129349
0.0129979
0.0130576
0.0131143
0.0131679
0.0132187
0.0132667
0.013312
0.0133548
0.0133951
0.0134331
0.0134688
0.0135023
0.0135337
0.013563
0.0135904
0.0136159
0.0136396
0.0136615
0.0136817
0.0137002
0.0137172
0.0137326
0.0137465
0.0137589
0.0137699
0.0137796
0.0137879
0.013795
0.0138007
0.0138053
0.0138086
0.0138108
0.0138119
0.0138118
0.0138106
0.0138084
0.0138051
0.0138008
0.0137955