/*--------------------------------*- C++ -*----------------------------------*\
  =========                 |
  \\      /  F ield         | OpenFOAM: The Open Source CFD Toolbox
   \\    /   O peration     | Website:  https://openfoam.org
    \\  /    A nd           | Version:  8
     \\/     M anipulation  |
\*---------------------------------------------------------------------------*/
FoamFile
{
    version     2.0;
    format      ascii;
    class       volVectorField;
    location    "2000";
    object      U;
}
// * * * * * * * * * * * * * * * * * * * * * * * * * * * * * * * * * * * * * //

dimensions      [0 1 -1 0 0 0 0];

internalField   nonuniform List<vector> 
48000
(
(-0.015122 -9.21075e-07 0.0167144)
(-0.0265508 1.32352e-07 0.0124058)
(-0.0363873 2.0926e-07 0.00400835)
(-0.0353597 6.93606e-08 -0.00266423)
(-0.0292743 -4.98103e-08 -0.00707951)
(-0.0193287 -1.18e-07 -0.00983938)
(-0.00719818 -1.67062e-07 -0.0115023)
(0.00654291 -1.80815e-07 -0.0123102)
(0.0206408 -1.77975e-07 -0.0124851)
(0.0350188 -1.83046e-07 -0.0123612)
(0.0492704 -1.85262e-07 -0.0120533)
(0.0632244 -1.8064e-07 -0.0116327)
(0.0767549 -1.74678e-07 -0.0111445)
(0.089782 -1.66218e-07 -0.0106185)
(0.102256 -1.5279e-07 -0.0100746)
(0.114147 -1.37443e-07 -0.00952603)
(0.125443 -1.23714e-07 -0.00898201)
(0.13614 -1.11089e-07 -0.00844867)
(0.146243 -9.81665e-08 -0.00793011)
(0.155763 -8.64667e-08 -0.00742903)
(0.164713 -7.89092e-08 -0.00694712)
(0.173111 -7.60499e-08 -0.0064853)
(0.180975 -7.53266e-08 -0.00604398)
(0.188325 -7.39598e-08 -0.00562317)
(0.195183 -7.12832e-08 -0.00522262)
(0.201568 -6.81194e-08 -0.00484188)
(0.207502 -6.48527e-08 -0.00448038)
(0.213006 -6.0581e-08 -0.00413744)
(0.218098 -5.42951e-08 -0.00381232)
(0.2228 -4.64254e-08 -0.00350426)
(0.227129 -3.87994e-08 -0.00321249)
(0.231105 -3.33131e-08 -0.00293626)
(0.234744 -3.05072e-08 -0.00267482)
(0.238064 -2.95211e-08 -0.00242743)
(0.241081 -2.90528e-08 -0.00219338)
(0.24381 -2.85236e-08 -0.00197199)
(0.246267 -2.84132e-08 -0.00176262)
(0.248465 -2.93841e-08 -0.00156467)
(0.250418 -3.16151e-08 -0.00137755)
(0.252138 -3.41317e-08 -0.00120073)
(0.253639 -3.5411e-08 -0.00103368)
(0.254932 -3.43792e-08 -0.000875906)
(0.256029 -3.09108e-08 -0.00072694)
(0.256939 -2.61327e-08 -0.000586363)
(0.257673 -2.16439e-08 -0.00045378)
(0.258241 -1.88037e-08 -0.000328823)
(0.258653 -1.82192e-08 -0.000211146)
(0.258917 -1.96089e-08 -0.000100414)
(0.259041 -2.22778e-08 3.82408e-06)
(0.259035 -2.55673e-08 0.000101896)
(0.258905 -2.91804e-08 0.000193873)
(0.25866 -3.31666e-08 0.000279999)
(0.258306 -3.76096e-08 0.000360646)
(0.25785 -4.23687e-08 0.00043611)
(0.257299 -4.68651e-08 0.000506651)
(0.256659 -5.03316e-08 0.00057251)
(0.255936 -5.20201e-08 0.00063392)
(0.255136 -5.16527e-08 0.000691104)
(0.254262 -4.95663e-08 0.000744274)
(0.253322 -4.6768e-08 0.000793629)
(0.252319 -4.46112e-08 0.000839359)
(0.251258 -4.43732e-08 0.000881647)
(0.250144 -4.68022e-08 0.000920672)
(0.24898 -5.18868e-08 0.00095661)
(0.24777 -5.87608e-08 0.000989637)
(0.246518 -6.60174e-08 0.00101992)
(0.245227 -7.20709e-08 0.00104764)
(0.243902 -7.56116e-08 0.00107295)
(0.242544 -7.58781e-08 0.00109601)
(0.241156 -7.29028e-08 0.00111696)
(0.239742 -6.73613e-08 0.00113594)
(0.238304 -6.0337e-08 0.00115306)
(0.236843 -5.31051e-08 0.00116846)
(0.235362 -4.67241e-08 0.00118225)
(0.233864 -4.18985e-08 0.00119454)
(0.23235 -3.87841e-08 0.00120543)
(0.230821 -3.70899e-08 0.00121503)
(0.22928 -3.62409e-08 0.00122345)
(0.227727 -3.543e-08 0.00123078)
(0.226165 -3.39946e-08 0.00123712)
(0.224594 -3.14704e-08 0.00124254)
(0.223016 -2.77355e-08 0.00124714)
(0.221431 -2.2927e-08 0.00125099)
(0.219841 -1.75017e-08 0.00125416)
(0.218247 -1.19698e-08 0.00125672)
(0.216649 -6.92901e-09 0.00125872)
(0.215047 -2.84005e-09 0.00126023)
(0.213443 5.34447e-11 0.00126129)
(0.211838 1.61821e-09 0.00126197)
(0.21023 1.92659e-09 0.00126232)
(0.208622 1.22605e-09 0.00126238)
(0.207013 -1.97858e-10 0.0012622)
(0.205404 -2.01772e-09 0.00126183)
(0.203794 -3.90231e-09 0.00126131)
(0.202185 -5.65745e-09 0.00126067)
(0.200576 -7.12705e-09 0.00125997)
(0.198968 -8.28064e-09 0.00125924)
(0.197359 -9.16773e-09 0.00125851)
(0.195751 -9.8835e-09 0.00125782)
(0.194144 -1.0565e-08 0.00125719)
(0.192537 -1.13455e-08 0.00125666)
(0.19093 -1.22706e-08 0.00125625)
(0.189323 -1.33519e-08 0.001256)
(0.187715 -1.45931e-08 0.00125592)
(0.186108 -1.59218e-08 0.00125604)
(0.184499 -1.72848e-08 0.0012564)
(0.18289 -1.86059e-08 0.001257)
(0.181279 -1.9828e-08 0.00125788)
(0.179667 -2.08864e-08 0.00125905)
(0.178053 -2.17316e-08 0.00126055)
(0.176436 -2.23636e-08 0.00126239)
(0.174817 -2.27101e-08 0.0012646)
(0.173194 -2.27482e-08 0.0012672)
(0.171567 -2.24931e-08 0.00127021)
(0.169936 -2.19334e-08 0.00127366)
(0.168301 -2.11339e-08 0.00127756)
(0.16666 -2.01897e-08 0.00128195)
(0.165012 -1.92037e-08 0.00128684)
(0.163358 -1.83661e-08 0.00129227)
(0.161697 -1.78064e-08 0.00129824)
(0.160028 -1.77112e-08 0.00130479)
(0.15835 -1.82062e-08 0.00131194)
(0.156662 -1.93255e-08 0.0013197)
(0.154964 -2.10806e-08 0.00132812)
(0.153255 -2.33383e-08 0.0013372)
(0.151534 -2.58777e-08 0.00134697)
(0.149801 -2.84286e-08 0.00135746)
(0.148054 -3.06254e-08 0.0013687)
(0.146292 -3.21597e-08 0.00138069)
(0.144515 -3.27993e-08 0.00139348)
(0.142721 -3.24109e-08 0.00140708)
(0.14091 -3.10365e-08 0.00142151)
(0.13908 -2.88322e-08 0.0014368)
(0.137231 -2.60986e-08 0.00145297)
(0.135362 -2.32241e-08 0.00147004)
(0.13347 -2.05628e-08 0.00148804)
(0.131556 -1.84689e-08 0.00150699)
(0.129619 -1.72391e-08 0.0015269)
(0.127655 -1.69612e-08 0.00154779)
(0.125666 -1.74714e-08 0.0015697)
(0.12365 -1.84765e-08 0.00159262)
(0.121604 -1.94283e-08 0.00161659)
(0.119529 -1.97405e-08 0.00164162)
(0.117423 -1.89105e-08 0.00166772)
(0.115284 -1.66642e-08 0.00169492)
(0.113112 -1.3154e-08 0.00172323)
(0.110906 -8.92034e-09 0.00175265)
(0.108663 -4.75904e-09 0.00178319)
(0.106383 -1.34776e-09 0.00181486)
(0.104064 9.25158e-10 0.00184764)
(0.101706 2.34526e-09 0.00188154)
(0.0993062 3.71586e-09 0.00191654)
(0.0968648 5.92786e-09 0.00195265)
(0.0943801 9.58661e-09 0.00198985)
(0.0918511 1.43875e-08 0.0020281)
(0.0892767 1.93902e-08 0.00206739)
(0.0866559 2.33992e-08 0.00210767)
(0.0839878 2.5813e-08 0.00214889)
(0.0812716 2.7077e-08 0.00219099)
(0.0785066 2.85923e-08 0.00223391)
(0.0756921 3.16114e-08 0.00227756)
(0.0728276 3.62829e-08 0.00232185)
(0.069913 4.11714e-08 0.00236667)
(0.0669479 4.40154e-08 0.00241187)
(0.0639324 4.32692e-08 0.0024573)
(0.0608668 3.96752e-08 0.00250276)
(0.0577517 3.58755e-08 0.00254806)
(0.054588 3.46344e-08 0.00259294)
(0.0513769 3.65342e-08 0.00263715)
(0.0481198 3.94505e-08 0.00268034)
(0.0448189 4.01473e-08 0.00272213)
(0.0414766 3.75812e-08 0.00276206)
(0.0380962 3.40747e-08 0.00279963)
(0.0346813 3.31077e-08 0.00283424)
(0.0312367 3.5788e-08 0.00286519)
(0.0277677 3.93135e-08 0.00289168)
(0.0242809 3.98541e-08 0.00291271)
(0.0207839 3.67779e-08 0.00292715)
(0.0172859 3.35798e-08 0.00293364)
(0.0137976 3.36636e-08 0.0029306)
(0.010332 3.60773e-08 0.0029161)
(0.00690363 3.69454e-08 0.0028877)
(0.00353312 3.49352e-08 0.0028423)
(0.000237131 3.27422e-08 0.00277221)
(-0.00295613 3.30772e-08 0.00266803)
(-0.00600482 3.43108e-08 0.00252924)
(-0.00888244 3.24148e-08 0.00235622)
(-0.0115406 2.76938e-08 0.00214241)
(-0.0139281 2.55161e-08 0.00187724)
(-0.0159803 2.93766e-08 0.00154885)
(-0.0176195 3.32448e-08 0.00114281)
(-0.0187506 3.04122e-08 0.000640263)
(-0.0192618 3.36179e-08 1.91323e-05)
(-0.0190111 5.58597e-08 -0.000738695)
(-0.0178579 6.64133e-08 -0.00164526)
(-0.0156236 5.09405e-08 -0.00269134)
(-0.0123267 5.55231e-08 -0.00378749)
(-0.00804233 6.63262e-08 -0.00449852)
(-0.00263818 -3.59144e-08 -0.00359825)
(-0.000229617 -1.54716e-07 -0.000717019)
(-0.0151212 -9.21185e-07 0.0167146)
(-0.0265512 1.32352e-07 0.0124055)
(-0.0363874 2.09255e-07 0.00400828)
(-0.0353596 6.93591e-08 -0.00266429)
(-0.0292739 -4.98093e-08 -0.0070796)
(-0.0193282 -1.17998e-07 -0.00983955)
(-0.00719765 -1.67059e-07 -0.0115024)
(0.00654341 -1.80811e-07 -0.0123104)
(0.0206411 -1.77971e-07 -0.0124853)
(0.0350191 -1.83043e-07 -0.0123613)
(0.0492707 -1.8526e-07 -0.0120534)
(0.0632246 -1.80638e-07 -0.0116327)
(0.0767551 -1.74676e-07 -0.0111446)
(0.0897822 -1.66216e-07 -0.0106186)
(0.102256 -1.52788e-07 -0.0100746)
(0.114148 -1.37441e-07 -0.00952607)
(0.125443 -1.23712e-07 -0.00898205)
(0.13614 -1.11088e-07 -0.00844869)
(0.146243 -9.81657e-08 -0.00793013)
(0.155763 -8.6466e-08 -0.00742905)
(0.164713 -7.89086e-08 -0.00694714)
(0.17311 -7.60494e-08 -0.00648532)
(0.180974 -7.53261e-08 -0.006044)
(0.188325 -7.39593e-08 -0.00562318)
(0.195182 -7.12828e-08 -0.00522262)
(0.201568 -6.8119e-08 -0.00484189)
(0.207502 -6.48524e-08 -0.00448039)
(0.213005 -6.05807e-08 -0.00413744)
(0.218098 -5.42949e-08 -0.00381231)
(0.2228 -4.64252e-08 -0.00350424)
(0.227129 -3.87993e-08 -0.00321248)
(0.231105 -3.3313e-08 -0.00293626)
(0.234744 -3.05071e-08 -0.00267482)
(0.238064 -2.9521e-08 -0.00242743)
(0.241081 -2.90527e-08 -0.00219338)
(0.24381 -2.85235e-08 -0.00197199)
(0.246267 -2.84131e-08 -0.00176262)
(0.248465 -2.9384e-08 -0.00156467)
(0.250417 -3.1615e-08 -0.00137756)
(0.252138 -3.41316e-08 -0.00120074)
(0.253639 -3.54109e-08 -0.00103368)
(0.254932 -3.43791e-08 -0.000875892)
(0.256028 -3.09107e-08 -0.000726922)
(0.256939 -2.61326e-08 -0.000586346)
(0.257673 -2.16438e-08 -0.000453768)
(0.258241 -1.88036e-08 -0.000328818)
(0.258653 -1.82192e-08 -0.000211145)
(0.258916 -1.96089e-08 -0.000100413)
(0.259041 -2.22777e-08 3.8282e-06)
(0.259035 -2.55672e-08 0.000101904)
(0.258905 -2.91803e-08 0.000193887)
(0.25866 -3.31665e-08 0.000280016)
(0.258306 -3.76096e-08 0.000360665)
(0.25785 -4.23686e-08 0.000436132)
(0.257299 -4.6865e-08 0.000506678)
(0.256659 -5.03315e-08 0.000572544)
(0.255936 -5.202e-08 0.000633962)
(0.255135 -5.16526e-08 0.000691152)
(0.254262 -4.95662e-08 0.000744324)
(0.253322 -4.67679e-08 0.000793677)
(0.252319 -4.46111e-08 0.000839403)
(0.251258 -4.43731e-08 0.000881686)
(0.250143 -4.68021e-08 0.000920706)
(0.248979 -5.18867e-08 0.000956643)
(0.24777 -5.87607e-08 0.000989671)
(0.246518 -6.60173e-08 0.00101996)
(0.245227 -7.20708e-08 0.00104769)
(0.243902 -7.56115e-08 0.00107301)
(0.242544 -7.5878e-08 0.00109607)
(0.241156 -7.29026e-08 0.00111702)
(0.239742 -6.73612e-08 0.00113599)
(0.238304 -6.03368e-08 0.00115311)
(0.236843 -5.3105e-08 0.0011685)
(0.235362 -4.67241e-08 0.00118228)
(0.233864 -4.18984e-08 0.00119456)
(0.232349 -3.87841e-08 0.00120545)
(0.230821 -3.70899e-08 0.00121505)
(0.229279 -3.62408e-08 0.00122347)
(0.227727 -3.54299e-08 0.0012308)
(0.226165 -3.39946e-08 0.00123713)
(0.224594 -3.14704e-08 0.00124256)
(0.223016 -2.77355e-08 0.00124716)
(0.221431 -2.2927e-08 0.001251)
(0.219841 -1.75017e-08 0.00125417)
(0.218247 -1.19698e-08 0.00125672)
(0.216649 -6.929e-09 0.00125871)
(0.215047 -2.84004e-09 0.00126021)
(0.213443 5.34446e-11 0.00126128)
(0.211837 1.61821e-09 0.00126196)
(0.21023 1.92659e-09 0.0012623)
(0.208622 1.22605e-09 0.00126236)
(0.207013 -1.97857e-10 0.00126218)
(0.205404 -2.01772e-09 0.00126182)
(0.203794 -3.9023e-09 0.0012613)
(0.202185 -5.65744e-09 0.00126067)
(0.200576 -7.12703e-09 0.00125997)
(0.198967 -8.28063e-09 0.00125924)
(0.197359 -9.16772e-09 0.00125852)
(0.195751 -9.88348e-09 0.00125782)
(0.194144 -1.0565e-08 0.0012572)
(0.192537 -1.13455e-08 0.00125666)
(0.19093 -1.22706e-08 0.00125626)
(0.189323 -1.33519e-08 0.001256)
(0.187715 -1.4593e-08 0.00125592)
(0.186108 -1.59218e-08 0.00125605)
(0.184499 -1.72848e-08 0.0012564)
(0.18289 -1.86059e-08 0.00125701)
(0.181279 -1.9828e-08 0.00125789)
(0.179667 -2.08864e-08 0.00125906)
(0.178053 -2.17316e-08 0.00126057)
(0.176436 -2.23636e-08 0.00126241)
(0.174817 -2.27101e-08 0.00126462)
(0.173194 -2.27481e-08 0.00126722)
(0.171567 -2.24931e-08 0.00127023)
(0.169936 -2.19334e-08 0.00127368)
(0.168301 -2.11339e-08 0.00127759)
(0.16666 -2.01897e-08 0.00128197)
(0.165012 -1.92036e-08 0.00128686)
(0.163358 -1.8366e-08 0.00129229)
(0.161697 -1.78064e-08 0.00129826)
(0.160028 -1.77112e-08 0.0013048)
(0.15835 -1.82061e-08 0.00131195)
(0.156662 -1.93255e-08 0.00131972)
(0.154964 -2.10806e-08 0.00132813)
(0.153255 -2.33383e-08 0.00133721)
(0.151534 -2.58777e-08 0.00134699)
(0.149801 -2.84285e-08 0.00135748)
(0.148054 -3.06253e-08 0.00136872)
(0.146292 -3.21596e-08 0.00138072)
(0.144515 -3.27992e-08 0.0013935)
(0.142721 -3.24109e-08 0.0014071)
(0.14091 -3.10365e-08 0.00142153)
(0.13908 -2.88321e-08 0.00143683)
(0.137231 -2.60985e-08 0.001453)
(0.135362 -2.32241e-08 0.00147007)
(0.13347 -2.05628e-08 0.00148807)
(0.131556 -1.84688e-08 0.00150701)
(0.129618 -1.72391e-08 0.00152691)
(0.127655 -1.69612e-08 0.0015478)
(0.125666 -1.74713e-08 0.0015697)
(0.12365 -1.84765e-08 0.00159262)
(0.121604 -1.94283e-08 0.00161659)
(0.119529 -1.97405e-08 0.00164162)
(0.117423 -1.89105e-08 0.00166773)
(0.115284 -1.66642e-08 0.00169493)
(0.113112 -1.3154e-08 0.00172323)
(0.110906 -8.92032e-09 0.00175266)
(0.108663 -4.75903e-09 0.00178319)
(0.106383 -1.34776e-09 0.00181485)
(0.104064 9.25157e-10 0.00184763)
(0.101706 2.34525e-09 0.00188153)
(0.0993062 3.71585e-09 0.00191653)
(0.0968648 5.92785e-09 0.00195264)
(0.0943801 9.58659e-09 0.00198983)
(0.0918511 1.43875e-08 0.00202809)
(0.0892767 1.93902e-08 0.00206737)
(0.0866559 2.33992e-08 0.00210764)
(0.0839879 2.5813e-08 0.00214886)
(0.0812716 2.7077e-08 0.00219095)
(0.0785066 2.85922e-08 0.00223386)
(0.0756921 3.16114e-08 0.00227751)
(0.0728277 3.62828e-08 0.0023218)
(0.069913 4.11713e-08 0.00236662)
(0.0669479 4.40153e-08 0.00241182)
(0.0639324 4.32691e-08 0.00245724)
(0.0608668 3.96751e-08 0.00250269)
(0.0577518 3.58755e-08 0.00254799)
(0.0545881 3.46343e-08 0.00259288)
(0.0513769 3.65341e-08 0.00263709)
(0.0481199 3.94504e-08 0.00268028)
(0.0448189 4.01472e-08 0.00272206)
(0.0414767 3.75811e-08 0.00276199)
(0.0380962 3.40746e-08 0.00279956)
(0.0346814 3.31076e-08 0.00283417)
(0.0312368 3.57879e-08 0.00286513)
(0.0277678 3.93134e-08 0.00289162)
(0.0242809 3.9854e-08 0.00291264)
(0.0207839 3.67778e-08 0.00292707)
(0.0172859 3.35797e-08 0.00293357)
(0.0137977 3.36635e-08 0.00293055)
(0.0103321 3.60772e-08 0.00291605)
(0.00690369 3.69453e-08 0.00288765)
(0.00353315 3.49351e-08 0.00284224)
(0.000237167 3.27421e-08 0.00277216)
(-0.00295608 3.30771e-08 0.00266799)
(-0.00600478 3.43107e-08 0.00252919)
(-0.00888242 3.24147e-08 0.00235616)
(-0.0115406 2.76937e-08 0.00214236)
(-0.013928 2.5516e-08 0.00187723)
(-0.0159802 2.93765e-08 0.00154885)
(-0.0176194 3.32447e-08 0.00114277)
(-0.0187506 3.04121e-08 0.000640218)
(-0.0192617 3.36178e-08 1.91392e-05)
(-0.0190111 5.58596e-08 -0.000738658)
(-0.0178579 6.64133e-08 -0.00164517)
(-0.0156237 5.09409e-08 -0.00269111)
(-0.0123267 5.55261e-08 -0.00378713)
(-0.00804244 6.63481e-08 -0.00449769)
(-0.00263803 -3.5905e-08 -0.00359747)
(-0.000229596 -1.54674e-07 -0.000716527)
(-0.0100147 -3.889e-07 0.0301681)
(-0.0125379 6.11368e-08 0.0168313)
(-0.0106849 8.58364e-08 0.00388417)
(-0.00569672 6.62268e-08 -0.00669376)
(0.00157139 4.89615e-08 -0.0141089)
(0.0106759 3.23076e-08 -0.0189675)
(0.0210705 2.14953e-08 -0.021977)
(0.0323553 1.46161e-08 -0.0236381)
(0.0441473 9.22378e-09 -0.0243518)
(0.0561928 6.3529e-09 -0.0244652)
(0.0682614 5.25913e-09 -0.024169)
(0.0801965 4.0483e-09 -0.0235998)
(0.0918813 2.86033e-09 -0.0228488)
(0.103232 2.90119e-09 -0.021979)
(0.114192 3.93101e-09 -0.021035)
(0.124719 4.96846e-09 -0.0200487)
(0.13479 5.9526e-09 -0.0190428)
(0.14439 7.4079e-09 -0.0180341)
(0.153511 9.12306e-09 -0.0170345)
(0.162156 1.01957e-08 -0.0160527)
(0.170327 1.01938e-08 -0.015095)
(0.178033 9.57411e-09 -0.0141658)
(0.185285 9.12101e-09 -0.0132678)
(0.192095 9.12383e-09 -0.012403)
(0.198477 9.33702e-09 -0.0115723)
(0.204446 9.52164e-09 -0.0107763)
(0.210017 9.79003e-09 -0.0100148)
(0.215206 1.04373e-08 -0.00928749)
(0.220027 1.15214e-08 -0.00859359)
(0.224498 1.26883e-08 -0.00793228)
(0.228633 1.34364e-08 -0.00730259)
(0.232446 1.35049e-08 -0.00670343)
(0.235953 1.30423e-08 -0.0061337)
(0.239167 1.24126e-08 -0.00559224)
(0.242103 1.18734e-08 -0.00507789)
(0.244773 1.14175e-08 -0.00458953)
(0.24719 1.08492e-08 -0.00412605)
(0.249367 1.0013e-08 -0.00368636)
(0.251315 9.01599e-09 -0.00326942)
(0.253046 8.16695e-09 -0.00287423)
(0.25457 7.80002e-09 -0.00249983)
(0.255898 8.05176e-09 -0.00214529)
(0.257041 8.77038e-09 -0.00180973)
(0.258006 9.59036e-09 -0.00149232)
(0.258805 1.01286e-08 -0.00119226)
(0.259445 1.01648e-08 -0.000908802)
(0.259935 9.7036e-09 -0.000641207)
(0.260284 8.91976e-09 -0.000388784)
(0.260498 8.04361e-09 -0.000150862)
(0.260586 7.20267e-09 7.31621e-05)
(0.260555 6.4374e-09 0.00028386)
(0.260411 5.73448e-09 0.000481845)
(0.260161 5.07962e-09 0.00066772)
(0.259811 4.53612e-09 0.000842043)
(0.259368 4.23677e-09 0.00100535)
(0.258837 4.35622e-09 0.00115816)
(0.258223 4.98917e-09 0.00130096)
(0.257533 6.10326e-09 0.00143424)
(0.25677 7.50147e-09 0.00155845)
(0.255939 8.87588e-09 0.00167405)
(0.255045 9.8829e-09 0.00178146)
(0.254093 1.02817e-08 0.0018811)
(0.253086 9.99615e-09 0.00197338)
(0.252028 9.16996e-09 0.0020587)
(0.250923 8.11725e-09 0.00213743)
(0.249775 7.24015e-09 0.00220995)
(0.248586 6.88987e-09 0.00227661)
(0.247359 7.2982e-09 0.00233777)
(0.246099 8.50889e-09 0.00239375)
(0.244807 1.03611e-08 0.00244487)
(0.243485 1.25646e-08 0.00249145)
(0.242137 1.47642e-08 0.00253377)
(0.240765 1.66312e-08 0.00257211)
(0.23937 1.79337e-08 0.00260673)
(0.237955 1.85733e-08 0.00263791)
(0.236522 1.859e-08 0.00266587)
(0.235072 1.81374e-08 0.00269086)
(0.233606 1.74349e-08 0.0027131)
(0.232127 1.6692e-08 0.0027328)
(0.230636 1.60843e-08 0.00275018)
(0.229134 1.56997e-08 0.00276541)
(0.227622 1.55436e-08 0.00277869)
(0.226101 1.55432e-08 0.0027902)
(0.224572 1.55831e-08 0.00280008)
(0.223036 1.55393e-08 0.0028085)
(0.221494 1.52942e-08 0.0028156)
(0.219947 1.47745e-08 0.00282153)
(0.218394 1.39569e-08 0.00282641)
(0.216838 1.28685e-08 0.00283036)
(0.215278 1.15593e-08 0.00283351)
(0.213714 1.0113e-08 0.00283597)
(0.212148 8.62679e-09 0.00283784)
(0.210579 7.18098e-09 0.00283922)
(0.209008 5.85321e-09 0.00284021)
(0.207435 4.68629e-09 0.0028409)
(0.20586 3.70544e-09 0.00284138)
(0.204283 2.91258e-09 0.00284172)
(0.202704 2.28581e-09 0.00284201)
(0.201124 1.8042e-09 0.00284232)
(0.199543 1.44108e-09 0.00284272)
(0.197959 1.16648e-09 0.00284329)
(0.196374 9.75639e-10 0.00284407)
(0.194788 8.53805e-10 0.00284515)
(0.193199 8.01454e-10 0.00284657)
(0.191607 8.20012e-10 0.00284841)
(0.190014 9.02341e-10 0.00285071)
(0.188418 1.0413e-09 0.00285353)
(0.186819 1.22976e-09 0.00285692)
(0.185216 1.46438e-09 0.00286094)
(0.183611 1.72993e-09 0.00286564)
(0.182001 2.02594e-09 0.00287107)
(0.180387 2.34623e-09 0.00287728)
(0.178768 2.6884e-09 0.00288432)
(0.177143 3.04771e-09 0.00289223)
(0.175514 3.41272e-09 0.00290108)
(0.173878 3.7706e-09 0.0029109)
(0.172235 4.10231e-09 0.00292175)
(0.170585 4.38547e-09 0.00293369)
(0.168927 4.59248e-09 0.00294675)
(0.16726 4.70813e-09 0.002961)
(0.165584 4.71574e-09 0.00297647)
(0.163899 4.62722e-09 0.00299323)
(0.162203 4.44781e-09 0.00301132)
(0.160495 4.22175e-09 0.00303079)
(0.158776 3.99284e-09 0.00305168)
(0.157044 3.83008e-09 0.00307406)
(0.155298 3.79772e-09 0.00309796)
(0.153538 3.94906e-09 0.00312343)
(0.151762 4.31931e-09 0.00315052)
(0.14997 4.89135e-09 0.00317927)
(0.148162 5.63852e-09 0.00320972)
(0.146335 6.47706e-09 0.00324193)
(0.144489 7.32893e-09 0.00327593)
(0.142624 8.08847e-09 0.00331176)
(0.140737 8.68525e-09 0.00334946)
(0.138829 9.0517e-09 0.00338908)
(0.136897 9.16306e-09 0.00343064)
(0.134942 9.02409e-09 0.0034742)
(0.132962 8.67002e-09 0.00351976)
(0.130956 8.19221e-09 0.00356738)
(0.128922 7.69251e-09 0.00361708)
(0.12686 7.2899e-09 0.00366887)
(0.124769 7.08145e-09 0.00372278)
(0.122648 7.12524e-09 0.00377883)
(0.120495 7.40507e-09 0.00383702)
(0.11831 7.82386e-09 0.00389736)
(0.11609 8.20744e-09 0.00395985)
(0.113837 8.394e-09 0.00402448)
(0.111547 8.24551e-09 0.00409123)
(0.10922 7.77437e-09 0.00416007)
(0.106856 7.12619e-09 0.00423096)
(0.104453 6.51513e-09 0.00430388)
(0.10201 6.12964e-09 0.00437874)
(0.0995261 5.99258e-09 0.0044555)
(0.097001 5.95451e-09 0.00453405)
(0.0944336 5.72608e-09 0.00461429)
(0.0918233 5.11121e-09 0.00469611)
(0.0891694 4.09373e-09 0.00477935)
(0.0864714 2.95632e-09 0.00486384)
(0.0837289 2.05686e-09 0.0049494)
(0.0809417 1.59713e-09 0.00503579)
(0.0781097 1.38488e-09 0.00512277)
(0.0752329 9.39435e-10 0.00521003)
(0.0723115 -2.01783e-10 0.00529723)
(0.069346 -2.05305e-09 0.00538398)
(0.0663371 -4.08326e-09 0.00546984)
(0.0632858 -5.54619e-09 0.00555431)
(0.0601933 -6.06778e-09 0.00563682)
(0.0570612 -6.04303e-09 0.00571671)
(0.0538916 -6.27527e-09 0.00579326)
(0.0506868 -7.27372e-09 0.0058656)
(0.0474498 -8.67859e-09 0.00593277)
(0.044184 -9.58852e-09 0.00599365)
(0.0408935 -9.50952e-09 0.006047)
(0.0375832 -8.96318e-09 0.00609133)
(0.0342586 -8.99554e-09 0.00612498)
(0.0309262 -9.96163e-09 0.00614598)
(0.0275936 -1.11105e-08 0.00615207)
(0.0242697 -1.14569e-08 0.0061406)
(0.0209644 -1.10686e-08 0.00610846)
(0.0176897 -1.09448e-08 0.00605193)
(0.014459 -1.15293e-08 0.00596646)
(0.0112884 -1.19909e-08 0.00584663)
(0.00819595 -1.15759e-08 0.00568465)
(0.00520212 -1.09306e-08 0.00547084)
(0.0023315 -1.13246e-08 0.00519797)
(-0.000390163 -1.28761e-08 0.00485729)
(-0.00292781 -1.43457e-08 0.00443609)
(-0.00524501 -1.42333e-08 0.00391902)
(-0.00730101 -1.21013e-08 0.00328738)
(-0.00904931 -1.08068e-08 0.0025186)
(-0.0104393 -1.41382e-08 0.00158641)
(-0.0114171 -1.7321e-08 0.00046374)
(-0.0119302 -1.2522e-08 -0.000868338)
(-0.011927 -6.20005e-09 -0.00240939)
(-0.0113677 -1.88644e-09 -0.00410857)
(-0.0102544 -3.23578e-10 -0.00580838)
(-0.00860661 -1.70104e-08 -0.00701347)
(-0.00591155 -3.37457e-08 -0.00658778)
(-0.00365009 -1.6212e-07 -0.00347567)
(-0.0100143 -3.88892e-07 0.0301686)
(-0.0125377 6.11332e-08 0.0168312)
(-0.0106847 8.5833e-08 0.00388391)
(-0.00569653 6.62244e-08 -0.00669398)
(0.00157159 4.89598e-08 -0.0141091)
(0.0106761 3.23065e-08 -0.0189676)
(0.0210707 2.14946e-08 -0.0219772)
(0.0323555 1.46157e-08 -0.0236382)
(0.0441473 9.22354e-09 -0.0243519)
(0.0561929 6.35274e-09 -0.0244653)
(0.0682614 5.25901e-09 -0.0241691)
(0.0801965 4.04821e-09 -0.0235999)
(0.0918812 2.86027e-09 -0.0228488)
(0.103232 2.90113e-09 -0.0219791)
(0.114191 3.93094e-09 -0.0210351)
(0.124719 4.96837e-09 -0.0200487)
(0.13479 5.9525e-09 -0.0190428)
(0.144389 7.40779e-09 -0.0180341)
(0.153511 9.12293e-09 -0.0170345)
(0.162155 1.01956e-08 -0.0160527)
(0.170326 1.01937e-08 -0.0150951)
(0.178033 9.57399e-09 -0.0141658)
(0.185284 9.1209e-09 -0.0132678)
(0.192094 9.12373e-09 -0.012403)
(0.198476 9.33691e-09 -0.0115723)
(0.204445 9.52154e-09 -0.0107763)
(0.210017 9.78994e-09 -0.0100148)
(0.215205 1.04372e-08 -0.00928749)
(0.220027 1.15213e-08 -0.00859359)
(0.224498 1.26882e-08 -0.00793228)
(0.228632 1.34363e-08 -0.00730259)
(0.232446 1.35048e-08 -0.00670344)
(0.235952 1.30422e-08 -0.00613371)
(0.239167 1.24126e-08 -0.00559224)
(0.242102 1.18733e-08 -0.0050779)
(0.244773 1.14174e-08 -0.00458954)
(0.24719 1.08492e-08 -0.00412605)
(0.249367 1.0013e-08 -0.00368636)
(0.251315 9.01593e-09 -0.00326943)
(0.253046 8.1669e-09 -0.00287424)
(0.25457 7.79997e-09 -0.00249984)
(0.255898 8.05172e-09 -0.00214529)
(0.25704 8.77033e-09 -0.00180973)
(0.258006 9.59031e-09 -0.00149232)
(0.258805 1.01285e-08 -0.00119227)
(0.259445 1.01647e-08 -0.000908808)
(0.259935 9.70355e-09 -0.000641214)
(0.260284 8.91972e-09 -0.00038879)
(0.260498 8.04357e-09 -0.000150868)
(0.260586 7.20263e-09 7.31576e-05)
(0.260555 6.43737e-09 0.000283857)
(0.260411 5.73445e-09 0.000481842)
(0.260161 5.0796e-09 0.000667717)
(0.259811 4.53611e-09 0.000842041)
(0.259368 4.23675e-09 0.00100535)
(0.258837 4.3562e-09 0.00115816)
(0.258223 4.98915e-09 0.00130096)
(0.257532 6.10324e-09 0.00143424)
(0.256769 7.50144e-09 0.00155846)
(0.255939 8.87585e-09 0.00167405)
(0.255045 9.88286e-09 0.00178146)
(0.254093 1.02817e-08 0.0018811)
(0.253086 9.99611e-09 0.00197338)
(0.252028 9.16993e-09 0.0020587)
(0.250923 8.11722e-09 0.00213743)
(0.249774 7.24012e-09 0.00220995)
(0.248585 6.88985e-09 0.00227661)
(0.247359 7.29817e-09 0.00233777)
(0.246099 8.50887e-09 0.00239375)
(0.244806 1.03611e-08 0.00244488)
(0.243485 1.25645e-08 0.00249145)
(0.242137 1.47641e-08 0.00253377)
(0.240765 1.66311e-08 0.00257211)
(0.23937 1.79336e-08 0.00260673)
(0.237955 1.85732e-08 0.0026379)
(0.236522 1.85899e-08 0.00266586)
(0.235071 1.81373e-08 0.00269085)
(0.233606 1.74349e-08 0.00271309)
(0.232127 1.6692e-08 0.0027328)
(0.230636 1.60842e-08 0.00275017)
(0.229134 1.56997e-08 0.00276541)
(0.227622 1.55436e-08 0.00277869)
(0.226101 1.55431e-08 0.00279019)
(0.224572 1.55831e-08 0.00280007)
(0.223036 1.55393e-08 0.00280849)
(0.221494 1.52942e-08 0.0028156)
(0.219947 1.47745e-08 0.00282152)
(0.218394 1.39569e-08 0.0028264)
(0.216838 1.28685e-08 0.00283035)
(0.215278 1.15593e-08 0.0028335)
(0.213714 1.0113e-08 0.00283596)
(0.212148 8.62676e-09 0.00283783)
(0.210579 7.18096e-09 0.00283921)
(0.209008 5.85319e-09 0.0028402)
(0.207435 4.68627e-09 0.0028409)
(0.20586 3.70543e-09 0.00284137)
(0.204283 2.91257e-09 0.00284172)
(0.202704 2.28581e-09 0.00284201)
(0.201124 1.80419e-09 0.00284232)
(0.199543 1.44107e-09 0.00284272)
(0.197959 1.16648e-09 0.00284328)
(0.196374 9.75636e-10 0.00284407)
(0.194787 8.53803e-10 0.00284514)
(0.193199 8.01451e-10 0.00284657)
(0.191607 8.2001e-10 0.0028484)
(0.190014 9.02339e-10 0.00285071)
(0.188418 1.0413e-09 0.00285353)
(0.186819 1.22976e-09 0.00285692)
(0.185216 1.46438e-09 0.00286095)
(0.18361 1.72993e-09 0.00286565)
(0.182001 2.02594e-09 0.00287108)
(0.180386 2.34622e-09 0.00287728)
(0.178768 2.68839e-09 0.00288432)
(0.177143 3.0477e-09 0.00289224)
(0.175514 3.41271e-09 0.00290108)
(0.173878 3.77059e-09 0.0029109)
(0.172235 4.10229e-09 0.00292175)
(0.170585 4.38546e-09 0.00293369)
(0.168927 4.59247e-09 0.00294675)
(0.16726 4.70812e-09 0.00296099)
(0.165584 4.71573e-09 0.00297647)
(0.163899 4.62721e-09 0.00299323)
(0.162203 4.4478e-09 0.00301132)
(0.160495 4.22174e-09 0.00303078)
(0.158776 3.99283e-09 0.00305168)
(0.157044 3.83007e-09 0.00307406)
(0.155298 3.79771e-09 0.00309796)
(0.153538 3.94905e-09 0.00312343)
(0.151762 4.3193e-09 0.00315052)
(0.14997 4.89133e-09 0.00317927)
(0.148162 5.6385e-09 0.00320973)
(0.146335 6.47704e-09 0.00324193)
(0.144489 7.32891e-09 0.00327593)
(0.142623 8.08845e-09 0.00331176)
(0.140737 8.68523e-09 0.00334946)
(0.138829 9.05167e-09 0.00338908)
(0.136897 9.16303e-09 0.00343064)
(0.134942 9.02407e-09 0.00347419)
(0.132962 8.67e-09 0.00351976)
(0.130956 8.19219e-09 0.00356738)
(0.128922 7.69249e-09 0.00361707)
(0.12686 7.28988e-09 0.00366886)
(0.124769 7.08143e-09 0.00372277)
(0.122648 7.12522e-09 0.00377882)
(0.120495 7.40505e-09 0.00383701)
(0.11831 7.82384e-09 0.00389736)
(0.11609 8.20742e-09 0.00395985)
(0.113837 8.39397e-09 0.00402447)
(0.111547 8.24549e-09 0.00409122)
(0.10922 7.77435e-09 0.00416006)
(0.106856 7.12617e-09 0.00423096)
(0.104453 6.51511e-09 0.00430387)
(0.10201 6.12963e-09 0.00437873)
(0.0995261 5.99257e-09 0.00445548)
(0.097001 5.9545e-09 0.00453403)
(0.0944336 5.72606e-09 0.00461428)
(0.0918233 5.1112e-09 0.00469609)
(0.0891694 4.09372e-09 0.00477933)
(0.0864714 2.95631e-09 0.00486382)
(0.0837289 2.05685e-09 0.00494938)
(0.0809417 1.59713e-09 0.00503578)
(0.0781097 1.38488e-09 0.00512275)
(0.0752329 9.39432e-10 0.00521001)
(0.0723115 -2.01783e-10 0.00529721)
(0.069346 -2.05304e-09 0.00538396)
(0.0663371 -4.08324e-09 0.00546982)
(0.0632858 -5.54617e-09 0.00555429)
(0.0601933 -6.06776e-09 0.0056368)
(0.0570612 -6.04301e-09 0.0057167)
(0.0538916 -6.27525e-09 0.00579324)
(0.0506868 -7.2737e-09 0.00586558)
(0.0474498 -8.67856e-09 0.00593275)
(0.044184 -9.58848e-09 0.00599364)
(0.0408935 -9.50948e-09 0.00604698)
(0.0375832 -8.96315e-09 0.00609132)
(0.0342586 -8.99551e-09 0.00612496)
(0.0309262 -9.96159e-09 0.00614597)
(0.0275937 -1.11104e-08 0.00615206)
(0.0242697 -1.14569e-08 0.00614059)
(0.0209644 -1.10685e-08 0.00610845)
(0.0176897 -1.09448e-08 0.00605192)
(0.0144591 -1.15292e-08 0.00596645)
(0.0112885 -1.19908e-08 0.00584662)
(0.00819596 -1.15759e-08 0.00568464)
(0.00520214 -1.09305e-08 0.00547083)
(0.00233151 -1.13246e-08 0.00519796)
(-0.000390154 -1.2876e-08 0.00485728)
(-0.00292779 -1.43456e-08 0.00443608)
(-0.00524498 -1.42333e-08 0.00391903)
(-0.00730099 -1.21012e-08 0.00328738)
(-0.0090493 -1.08068e-08 0.0025186)
(-0.0104392 -1.41381e-08 0.00158642)
(-0.0114171 -1.73209e-08 0.000463747)
(-0.0119302 -1.2522e-08 -0.000868328)
(-0.011927 -6.20008e-09 -0.00240937)
(-0.0113677 -1.88652e-09 -0.00410853)
(-0.0102545 -3.23648e-10 -0.00580831)
(-0.00860661 -1.70186e-08 -0.00701343)
(-0.00591141 -3.37488e-08 -0.0065878)
(-0.00365011 -1.62119e-07 -0.00347511)
(-0.00192799 -1.74517e-07 0.0387047)
(0.000132821 2.60353e-08 0.013951)
(0.00609526 3.25168e-08 -0.002811)
(0.0131154 3.15283e-08 -0.0149596)
(0.0209955 2.88054e-08 -0.0235932)
(0.0296523 2.67643e-08 -0.0294868)
(0.0389799 2.41884e-08 -0.0332959)
(0.0488339 2.01372e-08 -0.0355421)
(0.0590597 1.68275e-08 -0.0366396)
(0.069501 1.48276e-08 -0.0369211)
(0.0800063 1.32907e-08 -0.03662)
(0.0904545 1.18658e-08 -0.0359072)
(0.100747 1.07411e-08 -0.034906)
(0.110808 1.00462e-08 -0.0337062)
(0.120579 9.63831e-09 -0.0323741)
(0.130019 9.47027e-09 -0.0309585)
(0.139096 9.5954e-09 -0.0294958)
(0.14779 9.85046e-09 -0.0280132)
(0.15609 9.92467e-09 -0.0265311)
(0.163989 9.66955e-09 -0.0250644)
(0.171485 9.16744e-09 -0.0236245)
(0.178581 8.58965e-09 -0.0222193)
(0.185283 8.07612e-09 -0.0208548)
(0.191598 7.68537e-09 -0.0195348)
(0.197535 7.4098e-09 -0.018262)
(0.203105 7.22132e-09 -0.0170379)
(0.20832 7.13231e-09 -0.0158631)
(0.213191 7.18512e-09 -0.0147376)
(0.217732 7.38737e-09 -0.013661)
(0.221954 7.64863e-09 -0.0126324)
(0.22587 7.81138e-09 -0.0116507)
(0.229492 7.74426e-09 -0.0107146)
(0.232834 7.45966e-09 -0.0098227)
(0.235907 7.0694e-09 -0.00897346)
(0.238722 6.69485e-09 -0.00816534)
(0.241292 6.38074e-09 -0.00739678)
(0.243627 6.05687e-09 -0.00666621)
(0.245739 5.64496e-09 -0.0059721)
(0.247638 5.14358e-09 -0.00531296)
(0.249333 4.66695e-09 -0.00468733)
(0.250835 4.37973e-09 -0.00409382)