/*--------------------------------*- C++ -*----------------------------------*\
  =========                 |
  \\      /  F ield         | OpenFOAM: The Open Source CFD Toolbox
   \\    /   O peration     | Website:  https://openfoam.org
    \\  /    A nd           | Version:  8
     \\/     M anipulation  |
\*---------------------------------------------------------------------------*/
FoamFile
{
    version     2.0;
    format      ascii;
    class       surfaceScalarField;
    location    "5000";
    object      phi;
}
// * * * * * * * * * * * * * * * * * * * * * * * * * * * * * * * * * * * * * //

dimensions      [1 0 -1 0 0 0 0];

internalField   nonuniform List<scalar> 
119360
(
-3.45753e-07
1.74149e-12
3.45751e-07
-6.41686e-07
2.17767e-13
2.95897e-07
-8.0314e-07
2.03557e-13
1.61445e-07
-8.33763e-07
1.00751e-13
3.06146e-08
-7.63487e-07
3.7441e-14
-7.02832e-08
-6.21338e-07
-8.63311e-15
-1.42156e-07
-4.29722e-07
-3.88866e-14
-1.91622e-07
-2.04966e-07
-5.86762e-14
-2.24763e-07
4.11374e-08
-7.49409e-14
-2.4611e-07
2.99604e-07
-8.59043e-14
-2.58473e-07
5.63868e-07
-8.56544e-14
-2.6427e-07
8.29587e-07
-7.97424e-14
-2.65725e-07
1.09354e-06
-7.15544e-14
-2.63958e-07
1.35336e-06
-6.20897e-14
-2.59826e-07
1.60728e-06
-5.21531e-14
-2.53926e-07
1.85397e-06
-4.21888e-14
-2.46698e-07
2.09244e-06
-3.26409e-14
-2.3847e-07
2.32193e-06
-2.36758e-14
-2.29497e-07
2.5419e-06
-1.53768e-14
-2.19976e-07
2.75196e-06
-7.84115e-15
-2.10064e-07
2.95185e-06
-9.85493e-16
-1.99887e-07
3.14139e-06
5.21791e-15
-1.89549e-07
3.32052e-06
1.06997e-14
-1.79135e-07
3.48923e-06
1.56818e-14
-1.68715e-07
3.64758e-06
2.01088e-14
-1.5835e-07
3.79566e-06
2.39669e-14
-1.48089e-07
3.93364e-06
2.73531e-14
-1.37976e-07
4.06168e-06
3.02258e-14
-1.28046e-07
4.18e-06
3.26545e-14
-1.1833e-07
4.28885e-06
3.47084e-14
-1.08855e-07
4.38849e-06
3.64015e-14
-9.96416e-08
4.4792e-06
3.77338e-14
-9.0709e-08
4.56126e-06
3.8844e-14
-8.2072e-08
4.635e-06
3.96351e-14
-7.37426e-08
4.70073e-06
4.01486e-14
-6.57305e-08
4.75877e-06
4.03984e-14
-5.80427e-08
4.80945e-06
4.04262e-14
-5.06842e-08
4.8531e-06
4.02735e-14
-4.36579e-08
4.89007e-06
3.99127e-14
-3.6965e-08
4.92067e-06
3.93715e-14
-3.06052e-08
4.94524e-06
3.8747e-14
-2.45766e-08
4.96411e-06
3.79421e-14
-1.88761e-08
4.97761e-06
3.71511e-14
-1.34996e-08
4.98605e-06
3.61797e-14
-8.44182e-09
4.98974e-06
3.51389e-14
-3.69641e-09
4.98899e-06
3.41258e-14
7.45313e-10
4.9841e-06
3.30434e-14
4.89115e-09
4.97534e-06
3.18777e-14
8.74897e-09
4.96301e-06
3.07674e-14
1.23287e-08
4.94737e-06
2.96572e-14
1.56402e-08
4.92867e-06
2.85332e-14
1.86935e-08
4.90717e-06
2.74091e-14
2.14985e-08
4.8831e-06
2.63405e-14
2.40656e-08
4.85669e-06
2.53136e-14
2.64052e-08
4.82816e-06
2.43144e-14
2.8528e-08
4.79772e-06
2.33291e-14
3.04448e-08
4.76555e-06
2.25658e-14
3.2166e-08
4.73184e-06
2.17193e-14
3.37024e-08
4.69678e-06
2.09699e-14
3.50645e-08
4.66051e-06
2.02622e-14
3.62626e-08
4.6232e-06
1.96377e-14
3.73068e-08
4.58499e-06
1.90826e-14
3.82072e-08
4.54601e-06
1.86663e-14
3.89733e-08
4.5064e-06
1.83055e-14
3.96146e-08
4.46625e-06
1.79308e-14
4.01403e-08
4.42569e-06
1.76949e-14
4.0559e-08
4.38481e-06
1.74867e-14
4.08792e-08
4.3437e-06
1.73619e-14
4.11092e-08
4.30244e-06
1.7348e-14
4.12565e-08
4.26111e-06
1.7348e-14
4.13287e-08
4.21977e-06
1.73897e-14
4.13328e-08
4.1785e-06
1.75423e-14
4.12754e-08
4.13733e-06
1.77228e-14
4.1163e-08
4.09633e-06
1.79587e-14
4.10014e-08
4.05553e-06
1.82224e-14
4.07963e-08
4.01497e-06
1.84722e-14
4.0553e-08
3.9747e-06
1.88747e-14
4.02765e-08
3.93472e-06
1.92633e-14
3.99713e-08
3.89508e-06
1.95963e-14
3.96419e-08
3.85578e-06
2.00127e-14
3.92921e-08
3.81685e-06
2.05678e-14
3.89257e-08
3.77831e-06
2.10397e-14
3.85462e-08
3.74015e-06
2.15809e-14
3.81568e-08
3.70238e-06
2.21915e-14
3.77603e-08
3.66502e-06
2.27744e-14
3.73596e-08
3.62806e-06
2.32879e-14
3.69569e-08
3.59151e-06
2.37459e-14
3.65547e-08
3.55535e-06
2.43842e-14
3.6155e-08
3.51959e-06
2.49116e-14
3.57596e-08
3.48422e-06
2.54667e-14
3.53703e-08
3.44922e-06
2.60773e-14
3.49886e-08
3.41461e-06
2.66602e-14
3.46159e-08
3.38035e-06
2.72847e-14
3.42536e-08
3.34645e-06
2.78121e-14
3.39026e-08
3.31288e-06
2.83533e-14
3.35642e-08
3.27964e-06
2.89223e-14
3.32392e-08
3.24671e-06
2.94774e-14
3.29284e-08
3.21407e-06
3.00464e-14
3.26327e-08
3.18172e-06
3.05876e-14
3.23526e-08
3.14963e-06
3.11149e-14
3.20887e-08
3.11778e-06
3.16145e-14
3.18417e-08
3.08617e-06
3.21003e-14
3.1612e-08
3.05477e-06
3.2586e-14
3.14e-08
3.02356e-06
3.30856e-14
3.1206e-08
2.99252e-06
3.3599e-14
3.10305e-08
2.96165e-06
3.4057e-14
3.08738e-08
2.93091e-06
3.45844e-14
3.0736e-08
2.90029e-06
3.50978e-14
3.06175e-08
2.86977e-06
3.55558e-14
3.05185e-08
2.83933e-06
3.60415e-14
3.04391e-08
2.80895e-06
3.65827e-14
3.03796e-08
2.7786e-06
3.70684e-14
3.034e-08
2.74828e-06
3.75403e-14
3.03205e-08
2.71796e-06
3.79843e-14
3.03211e-08
2.68761e-06
3.84562e-14
3.03421e-08
2.65723e-06
3.89003e-14
3.03835e-08
2.62678e-06
3.94554e-14
3.04452e-08
2.59625e-06
3.99827e-14
3.05274e-08
2.56562e-06
4.051e-14
3.06302e-08
2.53486e-06
4.10374e-14
3.07534e-08
2.50396e-06
4.15231e-14
3.0897e-08
2.4729e-06
4.20366e-14
3.10612e-08
2.44165e-06
4.25778e-14
3.12457e-08
2.4102e-06
4.3119e-14
3.14505e-08
2.37852e-06
4.36741e-14
3.16756e-08
2.34659e-06
4.42431e-14
3.19209e-08
2.31441e-06
4.48537e-14
3.21861e-08
2.28193e-06
4.54088e-14
3.24711e-08
2.24915e-06
4.60888e-14
3.27758e-08
2.21605e-06
4.66717e-14
3.30999e-08
2.1826e-06
4.74627e-14
3.34431e-08
2.1488e-06
4.80733e-14
3.38052e-08
2.11461e-06
4.88366e-14
3.41858e-08
2.08002e-06
4.96276e-14
3.45846e-08
2.04502e-06
5.04602e-14
3.50012e-08
2.00958e-06
5.12929e-14
3.54351e-08
1.97369e-06
5.21811e-14
3.58859e-08
1.93733e-06
5.3097e-14
3.63529e-08
1.90049e-06
5.40684e-14
3.68357e-08
1.86316e-06
5.51509e-14
3.73335e-08
1.82531e-06
5.62056e-14
3.78457e-08
1.78693e-06
5.72325e-14
3.83715e-08
1.74802e-06
5.82872e-14
3.89101e-08
1.70856e-06
5.93697e-14
3.94606e-08
1.66853e-06
6.05076e-14
4.0022e-08
1.62793e-06
6.15346e-14
4.05932e-08
1.58676e-06
6.25615e-14
4.11733e-08
1.54499e-06
6.3533e-14
4.17608e-08
1.50263e-06
6.43934e-14
4.23547e-08
1.45968e-06
6.5226e-14
4.29534e-08
1.41612e-06
6.60309e-14
4.35554e-08
1.37196e-06
6.66693e-14
4.41591e-08
1.32719e-06
6.73077e-14
4.47628e-08
1.28182e-06
6.78905e-14
4.53647e-08
1.23585e-06
6.83346e-14
4.59626e-08
1.18929e-06
6.88065e-14
4.65544e-08
1.14215e-06
6.92783e-14
4.71377e-08
1.09444e-06
6.98056e-14
4.77101e-08
1.04617e-06
7.0444e-14
4.82687e-08
9.9735e-07
7.13322e-14
4.88106e-08
9.48013e-07
7.26089e-14
4.93326e-08
8.98178e-07
7.4302e-14
4.98311e-08
8.47871e-07
7.65502e-14
5.03023e-08
7.97124e-07
7.9409e-14
5.0742e-08
7.45974e-07
8.3156e-14
5.11456e-08
6.94461e-07
8.79577e-14
5.1508e-08
6.42632e-07
9.38419e-14
5.18237e-08
5.9054e-07
1.01031e-13
5.20865e-08
5.38245e-07
1.09246e-13
5.22896e-08
4.85815e-07
1.18905e-13
5.24252e-08
4.33324e-07
1.29341e-13
5.2485e-08
3.80859e-07
1.40166e-13
5.24594e-08
3.28515e-07
1.50574e-13
5.23376e-08
2.76401e-07
1.59123e-13
5.21075e-08
2.24639e-07
1.64147e-13
5.17555e-08
1.73367e-07
1.63814e-13
5.12659e-08
1.22739e-07
1.55876e-13
5.06205e-08
7.29343e-08
1.38334e-13
4.97973e-08
2.41552e-08
1.09218e-13
4.87714e-08
-2.33558e-08
6.70578e-14
4.75033e-08
-6.93118e-08
1.35172e-14
4.59483e-08
-1.13397e-07
-4.59907e-14
4.40773e-08
-1.55267e-07
-1.04527e-13
4.18637e-08
-1.94533e-07
-1.52295e-13
3.92598e-08
-2.30735e-07
-1.73861e-13
3.61953e-08
-2.63337e-07
-1.51462e-13
3.25976e-08
-2.91723e-07
-6.69184e-14
2.83808e-08
-3.15167e-07
9.065e-14
2.34396e-08
-3.32824e-07
3.11307e-13
1.76526e-08
-3.43704e-07
5.52836e-13
1.08742e-08
-3.46649e-07
7.33691e-13
2.93775e-09
-3.40352e-07
7.48235e-13
-6.30618e-09
-3.23377e-07
5.26524e-13
-1.69877e-08
-2.94195e-07
1.14908e-13
-2.91959e-08
-2.514e-07
-2.74724e-13
-4.28092e-08
-1.9426e-07
-3.63209e-13
-5.71524e-08
-1.24068e-07
-1.05138e-13
-7.02033e-08
-4.72369e-08
4.22997e-14
-7.6844e-08
1.14512e-08
-3.93241e-13
-5.87081e-08
-1.9047e-12
1.14259e-08
-3.45762e-07
3.45744e-07
-6.41686e-07
2.95895e-07
-8.0314e-07
1.61443e-07
-8.33762e-07
3.06131e-08
-7.63485e-07
-7.02846e-08
-6.21336e-07
-1.42157e-07
-4.29721e-07
-1.91623e-07
-2.04964e-07
-2.24764e-07
4.11391e-08
-2.46111e-07
2.99606e-07
-2.58474e-07
5.6387e-07
-2.64271e-07
8.29589e-07
-2.65725e-07
1.09354e-06
-2.63959e-07
1.35336e-06
-2.59827e-07
1.60728e-06
-2.53927e-07
1.85398e-06
-2.46699e-07
2.09244e-06
-2.38471e-07
2.32193e-06
-2.29498e-07
2.54191e-06
-2.19977e-07
2.75196e-06
-2.10065e-07
2.95185e-06
-1.99888e-07
3.14139e-06
-1.8955e-07
3.32052e-06
-1.79136e-07
3.48923e-06
-1.68716e-07
3.64758e-06
-1.58351e-07
3.79566e-06
-1.4809e-07
3.93364e-06
-1.37976e-07
4.06168e-06
-1.28046e-07
4.18e-06
-1.18331e-07
4.28885e-06
-1.08855e-07
4.38849e-06
-9.96421e-08
4.4792e-06
-9.07095e-08
4.56126e-06
-8.20725e-08
4.635e-06
-7.37431e-08
4.70073e-06
-6.5731e-08
4.75877e-06
-5.80432e-08
4.80945e-06
-5.06847e-08
4.8531e-06
-4.36584e-08
4.89006e-06
-3.69655e-08
4.92067e-06
-3.06057e-08
4.94524e-06
-2.45771e-08
4.96411e-06
-1.88766e-08
4.97761e-06
-1.35e-08
4.98605e-06
-8.44226e-09
4.98974e-06
-3.69684e-09
4.98899e-06
7.44878e-10
4.9841e-06
4.89071e-09
4.97534e-06
8.74854e-09
4.96301e-06
1.23283e-08
4.94737e-06
1.56398e-08
4.92867e-06
1.86931e-08
4.90717e-06
2.14981e-08
4.8831e-06
2.40652e-08
4.85669e-06
2.64048e-08
4.82816e-06
2.85276e-08
4.79772e-06
3.04444e-08
4.76555e-06
3.21656e-08
4.73184e-06
3.3702e-08
4.69677e-06
3.50641e-08
4.66051e-06
3.62622e-08
4.6232e-06
3.73064e-08
4.58499e-06
3.82068e-08
4.54601e-06
3.89729e-08
4.5064e-06
3.96142e-08
4.46625e-06
4.01399e-08
4.42569e-06
4.05586e-08
4.38481e-06
4.08789e-08
4.3437e-06
4.11088e-08
4.30244e-06
4.12562e-08
4.26111e-06
4.13283e-08
4.21977e-06
4.13324e-08
4.1785e-06
4.12751e-08
4.13733e-06
4.11626e-08
4.09633e-06
4.1001e-08
4.05553e-06
4.0796e-08
4.01497e-06
4.05527e-08
3.97469e-06
4.02762e-08
3.93472e-06
3.9971e-08
3.89508e-06
3.96415e-08
3.85578e-06
3.92917e-08
3.81685e-06
3.89254e-08
3.77831e-06
3.85459e-08
3.74015e-06
3.81565e-08
3.70238e-06
3.776e-08
3.66502e-06
3.73592e-08
3.62806e-06
3.69566e-08
3.59151e-06
3.65544e-08
3.55535e-06
3.61546e-08
3.51959e-06
3.57592e-08
3.48421e-06
3.53699e-08
3.44922e-06
3.49882e-08
3.41461e-06
3.46156e-08
3.38035e-06
3.42532e-08
3.34645e-06
3.39023e-08
3.31288e-06
3.35639e-08
3.27964e-06
3.32389e-08
3.24671e-06
3.29281e-08
3.21407e-06
3.26323e-08
3.18172e-06
3.23522e-08
3.14963e-06
3.20884e-08
3.11778e-06
3.18414e-08
3.08617e-06
3.16117e-08
3.05477e-06
3.13996e-08
3.02356e-06
3.12057e-08
2.99252e-06
3.10302e-08
2.96165e-06
3.08734e-08
2.93091e-06
3.07357e-08
2.90029e-06
3.06172e-08
2.86977e-06
3.05182e-08
2.83933e-06
3.04388e-08
2.80895e-06
3.03792e-08
2.7786e-06
3.03396e-08
2.74828e-06
3.03201e-08
2.71796e-06
3.03208e-08
2.68761e-06
3.03418e-08
2.65723e-06
3.03831e-08
2.62678e-06
3.04449e-08
2.59625e-06
3.05271e-08
2.56562e-06
3.06298e-08
2.53486e-06
3.0753e-08
2.50396e-06
3.08967e-08
2.4729e-06
3.10608e-08
2.44165e-06
3.12453e-08
2.4102e-06
3.14502e-08
2.37852e-06
3.16753e-08
2.34659e-06
3.19205e-08
2.31441e-06
3.21857e-08
2.28193e-06
3.24707e-08
2.24915e-06
3.27754e-08
2.21605e-06
3.30995e-08
2.1826e-06
3.34427e-08
2.1488e-06
3.38048e-08
2.11461e-06
3.41854e-08
2.08002e-06
3.45842e-08
2.04502e-06
3.50008e-08
2.00958e-06
3.54347e-08
1.97369e-06
3.58854e-08
1.93733e-06
3.63525e-08
1.90049e-06
3.68352e-08
1.86316e-06
3.73331e-08
1.82531e-06
3.78452e-08
1.78693e-06
3.8371e-08
1.74802e-06
3.89096e-08
1.70856e-06
3.94601e-08
1.66853e-06
4.00215e-08
1.62793e-06
4.05927e-08
1.58676e-06
4.11728e-08
1.54499e-06
4.17603e-08
1.50263e-06
4.23541e-08
1.45968e-06
4.29528e-08
1.41612e-06
4.35548e-08
1.37196e-06
4.41586e-08
1.32719e-06
4.47623e-08
1.28182e-06
4.53641e-08
1.23585e-06
4.5962e-08
1.18929e-06
4.65538e-08
1.14215e-06
4.71371e-08
1.09444e-06
4.77095e-08
1.04617e-06
4.82681e-08
9.9735e-07
4.881e-08
9.48013e-07
4.93319e-08
8.98178e-07
4.98304e-08
8.47871e-07
5.03016e-08
7.97124e-07
5.07413e-08
7.45974e-07
5.11449e-08
6.94461e-07
5.15073e-08
6.42632e-07
5.1823e-08
5.9054e-07
5.20858e-08
5.38246e-07
5.22888e-08
4.85815e-07
5.24245e-08
4.33324e-07
5.24842e-08
3.80859e-07
5.24585e-08
3.28516e-07
5.23367e-08
2.76402e-07
5.21066e-08
2.2464e-07
5.17546e-08
1.73367e-07
5.12649e-08
1.22739e-07
5.06195e-08
7.29344e-08
4.97962e-08
2.41554e-08
4.87704e-08
-2.33557e-08
4.75023e-08
-6.93117e-08
4.59473e-08
-1.13396e-07
4.40763e-08
-1.55267e-07
4.18627e-08
-1.94533e-07
3.92588e-08
-2.30734e-07
3.61945e-08
-2.63337e-07
3.25968e-08
-2.91722e-07
2.838e-08
-3.15166e-07
2.34388e-08
-3.32823e-07
1.76517e-08
-3.43703e-07
1.08733e-08
-3.46649e-07
2.93663e-09
-3.40353e-07
-6.30763e-09
-3.23378e-07
-1.69896e-08
-2.94196e-07
-2.9198e-08
-2.51401e-07
-4.28112e-08
-1.9426e-07
-5.71537e-08
-1.24069e-07
-7.02037e-08
-4.7241e-08
-7.68449e-08
1.14458e-08
-5.87112e-08
1.14183e-08
-2.71856e-07
1.67302e-13
6.17575e-07
-3.46981e-07
1.5069e-14
3.71005e-07
-3.39826e-07
2.36466e-14
1.54281e-07
-2.77937e-07
2.62854e-16
-3.12807e-08
-1.70602e-07
-8.07751e-15
-1.77625e-07
-2.5881e-08
-1.41489e-14
-2.86883e-07
1.4826e-07
-1.87147e-14
-3.65769e-07
3.44274e-07
-2.19481e-14
-4.20782e-07
5.55818e-07
-2.42032e-14
-4.5766e-07
7.77763e-07
-2.51538e-14
-4.80424e-07
1.00596e-06
-2.46819e-14
-4.92469e-07
1.23693e-06
-2.38423e-14
-4.96705e-07
1.46797e-06
-2.26904e-14
-4.94998e-07
1.69692e-06
-2.13893e-14
-4.88779e-07
1.92209e-06
-1.99877e-14
-4.791e-07
2.14214e-06
-1.85652e-14
-4.66758e-07
2.35603e-06
-1.71739e-14
-4.52366e-07
2.56294e-06
-1.58798e-14
-4.36405e-07
2.76221e-06
-1.46481e-14
-4.19257e-07
2.95338e-06
-1.34824e-14
-4.0123e-07
3.13606e-06
-1.24103e-14
-3.82575e-07
3.31e-06
-1.14145e-14
-3.63497e-07
3.47504e-06
-1.04847e-14
-3.4417e-07
3.63105e-06
-9.63469e-15
-3.24739e-07
3.77803e-06
-8.84018e-15
-3.05325e-07
3.91597e-06
-8.12546e-15
-2.86034e-07
4.04494e-06
-7.47666e-15
-2.66954e-07
4.16505e-06
-6.89725e-15
-2.48161e-07
4.27644e-06
-6.36641e-15
-2.2972e-07
4.37927e-06
-5.89802e-15
-2.11688e-07
4.47373e-06
-5.47474e-15
-1.94111e-07
4.56005e-06
-5.10003e-15
-1.7703e-07
4.63845e-06
-4.77389e-15
-1.60477e-07
4.70918e-06
-4.50326e-15
-1.4448e-07
4.77251e-06
-4.2812e-15
-1.29061e-07
4.8287e-06
-4.10078e-15
-1.14238e-07
4.87804e-06
-3.95158e-15
-1.00022e-07
4.9208e-06
-3.85443e-15
-8.64231e-08
4.95728e-06
-3.78849e-15
-7.34461e-08
4.98776e-06
-3.74685e-15
-6.10928e-08
5.01254e-06
-3.73643e-15
-4.93621e-08
5.03191e-06
-3.74336e-15
-3.82499e-08
5.04616e-06
-3.77804e-15
-2.775e-08
5.05557e-06
-3.82313e-15
-1.78538e-08
5.06042e-06
-3.88904e-15
-8.55059e-09
5.06099e-06
-3.98964e-15
1.72375e-10
5.05755e-06
-4.11453e-15
8.32883e-09
5.05036e-06
-4.22207e-15
1.59341e-08
5.03968e-06
-4.33655e-15
2.30049e-08
5.02576e-06
-4.46838e-15
2.95589e-08
5.00884e-06
-4.5898e-15
3.56142e-08
4.98914e-06
-4.73203e-15
4.11896e-08
4.9669e-06
-4.86386e-15
4.63042e-08
4.94233e-06
-4.99916e-15
5.09779e-08
4.91562e-06
-5.13446e-15
5.52303e-08
4.88698e-06
-5.26282e-15
5.90817e-08
4.85659e-06
-5.3877e-15
6.25522e-08
4.82463e-06
-5.50566e-15
6.56617e-08
4.79126e-06
-5.62361e-15
6.84303e-08
4.75665e-06
-5.73115e-15
7.08776e-08
4.72093e-06
-5.83522e-15
7.3023e-08
4.68425e-06
-5.92542e-15
7.48854e-08
4.64673e-06
-6.01561e-15
7.64835e-08
4.60851e-06
-6.0954e-15
7.78352e-08
4.56969e-06
-6.16478e-15
7.89581e-08
4.53038e-06
-6.23069e-15
7.98691e-08
4.49067e-06
-6.28967e-15
8.05845e-08
4.45066e-06
-6.3417e-15
8.11201e-08
4.41042e-06
-6.37639e-15
8.1491e-08
4.37004e-06
-6.41107e-15
8.17114e-08
4.32957e-06
-6.44576e-15
8.17951e-08
4.28909e-06
-6.4631e-15
8.17552e-08
4.24865e-06
-6.46657e-15
8.16039e-08
4.20829e-06
-6.48391e-15
8.13531e-08
4.16807e-06
-6.49084e-15
8.10137e-08
4.12803e-06
-6.47349e-15
8.05962e-08
4.08819e-06
-6.48736e-15
8.01102e-08
4.0486e-06
-6.49083e-15
7.95649e-08
4.00927e-06
-6.48389e-15
7.89688e-08
3.97023e-06
-6.46307e-15
7.83299e-08
3.9315e-06
-6.44225e-15
7.76555e-08
3.89309e-06
-6.42143e-15
7.69526e-08
3.85502e-06
-6.3902e-15
7.62274e-08
3.81729e-06
-6.35897e-15
7.54858e-08
3.77991e-06
-6.31734e-15
7.47333e-08
3.74289e-06
-6.31387e-15
7.39747e-08
3.70623e-06
-6.2757e-15
7.32147e-08
3.66993e-06
-6.23754e-15
7.24574e-08
3.63398e-06
-6.22019e-15
7.17066e-08
3.59838e-06
-6.17856e-15
7.09658e-08
3.56313e-06
-6.1404e-15
7.02382e-08
3.52822e-06
-6.10224e-15
6.95267e-08
3.49363e-06
-6.07101e-15
6.88338e-08
3.45937e-06
-6.03285e-15
6.8162e-08
3.42542e-06
-5.99816e-15
6.75133e-08
3.39177e-06
-5.96e-15
6.68897e-08
3.3584e-06
-5.91837e-15
6.62929e-08
3.32531e-06
-5.88021e-15
6.57245e-08
3.29247e-06
-5.84205e-15
6.51859e-08
3.25988e-06
-5.8143e-15
6.46784e-08
3.22752e-06
-5.77614e-15
6.42031e-08
3.19537e-06
-5.74839e-15
6.3761e-08
3.16341e-06
-5.70676e-15
6.33529e-08
3.13163e-06
-5.67207e-15
6.29799e-08
3.10002e-06
-5.63044e-15
6.26424e-08
3.06855e-06
-5.60616e-15
6.23413e-08
3.03721e-06
-5.56453e-15
6.2077e-08
3.00597e-06
-5.53331e-15
6.18502e-08
2.97483e-06
-5.48821e-15
6.16611e-08
2.94376e-06
-5.45353e-15
6.15104e-08
2.91273e-06
-5.41884e-15
6.13982e-08
2.88175e-06
-5.38762e-15
6.13249e-08
2.85078e-06
-5.33558e-15
6.12907e-08
2.8198e-06
-5.30783e-15
6.12959e-08
2.7888e-06
-5.26968e-15
6.13407e-08
2.75775e-06
-5.24193e-15
6.14253e-08
2.72665e-06
-5.2003e-15
6.15496e-08
2.69546e-06
-5.1552e-15
6.17138e-08
2.66417e-06
-5.12399e-15
6.19179e-08
2.63276e-06
-5.09971e-15
6.2162e-08
2.60121e-06
-5.06849e-15
6.24459e-08
2.56949e-06
-5.03727e-15
6.27697e-08
2.5376e-06
-5.00258e-15
6.31331e-08
2.50552e-06
-4.98177e-15
6.3536e-08
2.47321e-06
-4.94362e-15
6.39782e-08
2.44067e-06
-4.91934e-15
6.44594e-08
2.40788e-06
-4.89506e-15
6.49794e-08
2.37481e-06
-4.87425e-15
6.55377e-08
2.34145e-06
-4.83956e-15
6.61339e-08
2.30778e-06
-4.80487e-15
6.67675e-08
2.27378e-06
-4.791e-15
6.7438e-08
2.23944e-06
-4.75978e-15
6.81448e-08
2.20473e-06
-4.74244e-15
6.88871e-08
2.16965e-06
-4.72857e-15
6.96642e-08
2.13417e-06
-4.69388e-15
7.04752e-08
2.09829e-06
-4.67307e-15
7.13192e-08
2.06197e-06
-4.64532e-15
7.21952e-08
2.02522e-06
-4.62798e-15
7.31019e-08
1.98802e-06
-4.61411e-15
7.40383e-08
1.95034e-06
-4.61759e-15
7.50029e-08
1.91219e-06
-4.61065e-15
7.59942e-08
1.87355e-06
-4.60372e-15
7.70108e-08
1.83441e-06
-4.6176e-15
7.80509e-08
1.79475e-06
-4.6419e-15
7.91126e-08
1.75458e-06
-4.65578e-15
8.0194e-08
1.71387e-06
-4.68354e-15
8.12929e-08
1.67264e-06
-4.73559e-15
8.24071e-08
1.63086e-06
-4.79804e-15
8.35341e-08
1.58854e-06
-4.87437e-15
8.46712e-08
1.54567e-06
-4.96112e-15
8.58156e-08
1.50226e-06
-5.04439e-15
8.69642e-08
1.4583e-06
-5.14154e-15
8.81137e-08
1.4138e-06
-5.23175e-15
8.92608e-08
1.36876e-06
-5.31849e-15
9.04014e-08
1.32319e-06
-5.41217e-15
9.15317e-08
1.27709e-06
-5.51279e-15
9.26472e-08
1.23048e-06
-5.57524e-15
9.37433e-08
1.18337e-06
-5.65157e-15
9.48148e-08
1.13578e-06
-5.68627e-15
9.58564e-08
1.08773e-06
-5.69668e-15
9.68621e-08
1.03923e-06
-5.64117e-15
9.78256e-08
9.90318e-07
-5.57873e-15
9.87398e-08
9.41019e-07
-5.48506e-15
9.95974e-08
8.91366e-07
-5.34281e-15
1.0039e-07
8.41399e-07
-5.1173e-15
1.01109e-07
7.91158e-07
-4.88138e-15
1.01744e-07
7.40693e-07
-4.58648e-15
1.02285e-07
6.90056e-07
-4.23954e-15
1.02719e-07
6.39306e-07
-3.89954e-15
1.03034e-07
5.88512e-07
-3.55953e-15
1.03215e-07
5.37745e-07
-3.3028e-15
1.03246e-07
4.8709e-07
-3.21259e-15
1.03109e-07
4.36638e-07
-3.38607e-15
1.02784e-07
3.86491e-07
-4.00363e-15
1.02249e-07
3.36764e-07
-5.23182e-15
1.01477e-07
2.87584e-07
-7.23022e-15
1.0044e-07
2.39093e-07
-1.01376e-14
9.91048e-08
1.91451e-07
-1.40512e-14
9.74325e-08
1.44837e-07
-1.89361e-14
9.53787e-08
9.94489e-08
-2.45289e-14
9.2885e-08
5.55049e-08
-3.03506e-14
8.98859e-08
1.32493e-08
-3.56866e-14
8.63269e-08
-2.70323e-08
-3.95724e-14
8.21398e-08
-6.50174e-08
-4.04328e-14
7.72398e-08
-1.00359e-07
-3.60266e-14
7.15321e-08
-1.3267e-07
-2.37517e-14
6.49051e-08
-1.61521e-07
-1.11706e-15
5.72274e-08
-1.86432e-07
3.24186e-14
4.83466e-08
-2.0688e-07
7.27891e-14
3.80951e-08
-2.22299e-07
1.08212e-13
2.62864e-08
-2.32101e-07
1.18482e-13
1.27304e-08
-2.35683e-07
8.13795e-14
-2.73514e-09
-2.32486e-07
-9.52005e-15
-2.01968e-08
-2.22095e-07
-1.19883e-13
-3.95985e-08
-2.0437e-07
-1.65423e-13
-6.05453e-08
-1.79625e-07
-6.15895e-14
-8.19074e-08
-1.48757e-07
1.41748e-13
-1.01083e-07
-1.1299e-07
1.75596e-13
-1.12626e-07
-6.81216e-08
-3.7609e-14
-1.036e-07
-1.61171e-12
-5.67201e-08
-2.71859e-07
6.17573e-07
-3.46981e-07
3.71003e-07
-3.39825e-07
1.5428e-07
-2.77937e-07
-3.12815e-08
-1.70601e-07
-1.77626e-07
-2.588e-08
-2.86883e-07
1.48261e-07
-3.65769e-07
3.44274e-07
-4.20782e-07
5.55819e-07
-4.5766e-07
7.77764e-07
-4.80424e-07
1.00596e-06
-4.92469e-07
1.23693e-06
-4.96705e-07
1.46797e-06
-4.94998e-07
1.69692e-06
-4.8878e-07
1.92209e-06
-4.791e-07
2.14214e-06
-4.66758e-07
2.35603e-06
-4.52366e-07
2.56294e-06
-4.36405e-07
2.76221e-06
-4.19258e-07
2.95338e-06
-4.0123e-07
3.13606e-06
-3.82575e-07
3.31e-06
-3.63497e-07
3.47503e-06
-3.4417e-07
3.63105e-06
-3.24739e-07
3.77803e-06
-3.05325e-07
3.91597e-06
-2.86034e-07
4.04494e-06
-2.66954e-07
4.16505e-06
-2.48161e-07
4.27644e-06
-2.2972e-07
4.37927e-06
-2.11688e-07
4.47373e-06
-1.94111e-07
4.56005e-06
-1.7703e-07
4.63845e-06
-1.60477e-07
4.70918e-06
-1.4448e-07
4.77251e-06
-1.29061e-07
4.8287e-06
-1.14238e-07
4.87804e-06
-1.00022e-07
4.9208e-06
-8.64231e-08
4.95728e-06
-7.34461e-08
4.98776e-06
-6.10928e-08
5.01254e-06
-4.9362e-08
5.03191e-06
-3.82499e-08
5.04616e-06
-2.775e-08
5.05557e-06
-1.78538e-08
5.06042e-06
-8.5506e-09
5.06099e-06
1.7236e-10
5.05755e-06
8.32881e-09
5.05036e-06
1.5934e-08
5.03968e-06
2.30049e-08
5.02576e-06
2.95589e-08
5.00884e-06
3.56142e-08
4.98914e-06
4.11895e-08
4.9669e-06
4.63042e-08
4.94233e-06
5.09778e-08
4.91562e-06
5.52303e-08
4.88698e-06
5.90817e-08
4.85659e-06
6.25521e-08
4.82463e-06
6.56617e-08
4.79126e-06
6.84303e-08
4.75665e-06
7.08775e-08
4.72093e-06
7.30229e-08
4.68425e-06
7.48854e-08
4.64673e-06
7.64834e-08
4.60851e-06
7.78351e-08
4.56969e-06
7.8958e-08
4.53038e-06
7.9869e-08
4.49067e-06
8.05844e-08
4.45066e-06
8.112e-08
4.41042e-06
8.14909e-08
4.37004e-06
8.17113e-08
4.32957e-06
8.1795e-08
4.28909e-06
8.17551e-08
4.24865e-06
8.16038e-08
4.20829e-06
8.1353e-08
4.16807e-06
8.10136e-08
4.12803e-06
8.05961e-08
4.08819e-06
8.01101e-08
4.0486e-06
7.95648e-08
4.00927e-06
7.89687e-08
3.97023e-06
7.83298e-08
3.9315e-06
7.76555e-08
3.89309e-06
7.69525e-08
3.85502e-06
7.62273e-08
3.81729e-06
7.54857e-08
3.77991e-06
7.47332e-08
3.74289e-06
7.39746e-08
3.70623e-06
7.32146e-08
3.66993e-06
7.24573e-08
3.63398e-06
7.17065e-08
3.59838e-06
7.09657e-08
3.56313e-06
7.02381e-08
3.52821e-06
6.95266e-08
3.49363e-06
6.88337e-08
3.45937e-06
6.81619e-08
3.42542e-06
6.75132e-08
3.39177e-06
6.68896e-08
3.3584e-06
6.62928e-08
3.32531e-06
6.57244e-08
3.29247e-06
6.51859e-08
3.25988e-06
6.46783e-08
3.22752e-06
6.4203e-08
3.19537e-06
6.37609e-08
3.16341e-06
6.33529e-08
3.13163e-06
6.29798e-08
3.10002e-06
6.26424e-08
3.06855e-06
6.23412e-08
3.03721e-06
6.2077e-08
3.00597e-06
6.18501e-08
2.97483e-06
6.16611e-08
2.94375e-06
6.15103e-08
2.91273e-06
6.13981e-08
2.88175e-06
6.13248e-08
2.85077e-06
6.12906e-08
2.8198e-06
6.12959e-08
2.7888e-06
6.13407e-08
2.75775e-06
6.14252e-08
2.72665e-06
6.15495e-08
2.69546e-06
6.17137e-08
2.66417e-06
6.19179e-08
2.63276e-06
6.21619e-08
2.60121e-06
6.24459e-08
2.56949e-06
6.27696e-08
2.5376e-06
6.3133e-08
2.50552e-06
6.35359e-08
2.47321e-06
6.39781e-08
2.44067e-06
6.44594e-08
2.40788e-06
6.49793e-08
2.37481e-06
6.55376e-08
2.34145e-06
6.61338e-08
2.30778e-06
6.67675e-08
2.27378e-06
6.7438e-08
2.23944e-06
6.81447e-08
2.20473e-06
6.88871e-08
2.16965e-06
6.96641e-08
2.13417e-06
7.04752e-08
2.09829e-06
7.13192e-08
2.06197e-06
7.21951e-08
2.02522e-06
7.31019e-08
1.98802e-06
7.40382e-08
1.95034e-06
7.50028e-08
1.91219e-06
7.59942e-08
1.87355e-06
7.70107e-08
1.83441e-06
7.80508e-08
1.79475e-06
7.91125e-08
1.75458e-06
8.01939e-08
1.71387e-06
8.12929e-08
1.67264e-06
8.24071e-08
1.63086e-06
8.3534e-08
1.58854e-06
8.46711e-08
1.54567e-06
8.58155e-08
1.50226e-06
8.69641e-08
1.4583e-06
8.81137e-08
1.4138e-06
8.92607e-08
1.36876e-06
9.04013e-08
1.32319e-06
9.15316e-08
1.27709e-06
9.26471e-08
1.23048e-06
9.37432e-08
1.18337e-06
9.48147e-08
1.13578e-06
9.58563e-08
1.08773e-06
9.6862e-08
1.03923e-06
9.78255e-08
9.90318e-07
9.87398e-08
9.41019e-07
9.95973e-08
8.91366e-07
1.0039e-07
8.41399e-07
1.01109e-07
7.91158e-07
1.01744e-07
7.40693e-07
1.02285e-07
6.90056e-07
1.02719e-07
6.39307e-07
1.03034e-07
5.88512e-07
1.03215e-07
5.37745e-07
1.03246e-07
4.8709e-07
1.03109e-07
4.36638e-07
1.02784e-07
3.86491e-07
1.02249e-07
3.36764e-07
1.01477e-07
2.87584e-07
1.0044e-07
2.39093e-07
9.91047e-08
1.91451e-07
9.74324e-08
1.44837e-07
9.53786e-08
9.9449e-08
9.28849e-08
5.5505e-08
8.98859e-08
1.32495e-08
8.63268e-08
-2.70322e-08
8.21397e-08
-6.50173e-08
7.72397e-08
-1.00359e-07
7.1532e-08
-1.3267e-07
6.4905e-08
-1.61521e-07
5.72273e-08
-1.86432e-07
4.83465e-08
-2.0688e-07
3.80949e-08
-2.22299e-07
2.62862e-08
-2.32101e-07
1.27302e-08
-2.35683e-07
-2.73532e-09
-2.32486e-07
-2.01969e-08
-2.22095e-07
-3.95986e-08
-2.0437e-07
-6.05454e-08
-1.79625e-07
-8.19076e-08
-1.48758e-07
-1.01084e-07
-1.12992e-07
-1.12627e-07
-6.81278e-08
-1.03601e-07
-5.67199e-08
-1.18913e-07
2.55508e-13
7.36479e-07
-9.77114e-08
1.7581e-14
3.49794e-07
-2.03832e-08
3.07314e-14
7.69507e-08
8.52077e-08
1.8894e-14
-1.36873e-07
2.12494e-07
1.65107e-14
-3.04913e-07
3.592e-07
1.48732e-14
-4.3359e-07
5.22889e-07
1.35479e-14
-5.29459e-07
7.00717e-07
1.23441e-14
-5.98612e-07
8.89525e-07
1.11818e-14
-6.46469e-07
1.08646e-06
1.00231e-14
-6.77361e-07
1.2889e-06
9.01347e-15
-6.94903e-07
1.49429e-06
8.10796e-15
-7.02097e-07
1.70048e-06
7.37246e-15
-7.01195e-07
1.90566e-06
6.77226e-15
-6.93957e-07
2.1083e-06
6.31257e-15
-6.81742e-07
2.30716e-06
5.93961e-15
-6.65615e-07
2.50121e-06
5.64992e-15
-6.46418e-07
2.68962e-06
5.41401e-15
-6.24822e-07
2.87174e-06
5.24055e-15
-6.01373e-07
3.04702e-06
5.09311e-15
-5.76514e-07
3.21506e-06
4.9873e-15
-5.50614e-07
3.37554e-06
4.89884e-15
-5.23977e-07
3.52823e-06
4.82772e-15
-4.96862e-07
3.67298e-06
4.76008e-15
-4.69486e-07
3.80969e-06
4.70978e-15
-4.42036e-07
3.93832e-06
4.65948e-15
-4.14671e-07
4.05889e-06
4.62132e-15
-3.87526e-07
4.17145e-06
4.5901e-15
-3.6072e-07
4.27608e-06
4.55542e-15
-3.34354e-07
4.37291e-06
4.52594e-15
-3.08514e-07
4.46207e-06
4.48604e-15
-2.83276e-07
4.54375e-06
4.45483e-15
-2.58702e-07
4.61811e-06
4.42014e-15
-2.34846e-07
4.68538e-06
4.37331e-15
-2.11752e-07
4.74578e-06
4.32301e-15
-1.89456e-07
4.79953e-06
4.27618e-15
-1.67987e-07
4.84687e-06
4.2172e-15
-1.47369e-07
4.88806e-06
4.15823e-15
-1.27615e-07
4.92336e-06
4.09058e-15
-1.08739e-07
4.95301e-06
4.01426e-15
-9.07439e-08
4.97728e-06
3.94315e-15
-7.36324e-08
4.99643e-06
3.86856e-15
-5.74008e-08
5.01072e-06
3.78877e-15
-4.20423e-08
5.02041e-06
3.70204e-15
-2.75466e-08
5.02576e-06
3.60837e-15
-1.39001e-08
5.02702e-06
3.51644e-15
-1.0867e-09
5.02443e-06
3.41756e-15
1.09119e-08
5.01825e-06
3.32043e-15
2.21162e-08
5.00871e-06
3.22849e-15
3.25488e-08
4.99603e-06
3.12615e-15
4.22339e-08
4.98045e-06
3.02901e-15
5.11965e-08
4.96217e-06
2.93361e-15
5.94628e-08
4.94142e-06
2.84861e-15
6.70599e-08
4.91838e-06
2.748e-15
7.40155e-08
4.89325e-06
2.66648e-15
8.03576e-08
4.86622e-06
2.5676e-15
8.61148e-08
4.83745e-06
2.49128e-15
9.13157e-08
4.80713e-06
2.40455e-15
9.59889e-08
4.77539e-06
2.31955e-15
1.00163e-07
4.7424e-06
2.24323e-15
1.03866e-07
4.7083e-06
2.1617e-15
1.07125e-07
4.67322e-06
2.09405e-15
1.09969e-07
4.63728e-06
2.01773e-15
1.12423e-07
4.6006e-06
1.95529e-15
1.14514e-07
4.56329e-06
1.89457e-15
1.16267e-07
4.52545e-06
1.83733e-15
1.17707e-07
4.48718e-06
1.77489e-15
1.18857e-07
4.44856e-06
1.71764e-15
1.1974e-07
4.40967e-06
1.6656e-15
1.20377e-07
4.37059e-06
1.61877e-15
1.20791e-07
4.33139e-06
1.5702e-15
1.21001e-07
4.29212e-06
1.52857e-15
1.21026e-07
4.25284e-06
1.48867e-15
1.20883e-07
4.2136e-06
1.45051e-15
1.20591e-07
4.17444e-06
1.41235e-15
1.20165e-07
4.13542e-06
1.37939e-15
1.19621e-07
4.09656e-06
1.33776e-15
1.18973e-07
4.05789e-06
1.31001e-15
1.18234e-07
4.01944e-06
1.27705e-15
1.17417e-07
3.98123e-06
1.25276e-15
1.16534e-07
3.94329e-06
1.22674e-15
1.15595e-07
3.90564e-06
1.20246e-15
1.14611e-07
3.86827e-06
1.19205e-15
1.13591e-07
3.83121e-06
1.17817e-15
1.12545e-07
3.79447e-06
1.16429e-15
1.11479e-07
3.75804e-06
1.14868e-15
1.10402e-07
3.72193e-06
1.1348e-15
1.0932e-07
3.68615e-06
1.12266e-15
1.08239e-07
3.65069e-06
1.11745e-15
1.07166e-07
3.61555e-06
1.10704e-15
1.06106e-07
3.58073e-06
1.10704e-15
1.05062e-07
3.54621e-06
1.1001e-15
1.04041e-07
3.512e-06
1.1053e-15
1.03044e-07
3.47808e-06
1.10356e-15
1.02078e-07
3.44445e-06
1.11397e-15
1.01143e-07
3.4111e-06
1.11744e-15
1.00244e-07
3.37801e-06
1.13131e-15
9.93835e-08
3.34517e-06
1.14345e-15
9.85632e-08
3.31257e-06
1.15559e-15
9.77855e-08
3.28019e-06
1.1712e-15
9.70525e-08
3.24803e-06
1.19028e-15
9.63658e-08
3.21606e-06
1.20763e-15
9.5727e-08
3.18428e-06
1.23018e-15
9.51377e-08
3.15266e-06
1.25793e-15
9.45989e-08
3.12119e-06
1.28741e-15
9.41119e-08
3.08985e-06
1.3117e-15
9.36776e-08
3.05863e-06
1.34639e-15
9.3297e-08
3.02751e-06
1.37761e-15
9.29709e-08
2.99647e-06
1.41924e-15
9.26999e-08
2.9655e-06
1.45567e-15
9.24847e-08
2.93457e-06
1.49903e-15
9.23259e-08
2.90367e-06
1.54413e-15
9.22238e-08
2.87278e-06
1.5927e-15
9.21789e-08
2.84189e-06
1.63953e-15
9.21916e-08
2.81096e-06
1.68983e-15
9.22621e-08
2.78e-06
1.74014e-15
9.23906e-08
2.74897e-06
1.80258e-15
9.25773e-08
2.71786e-06
1.86156e-15
9.28223e-08
2.68665e-06
1.9188e-15
9.31256e-08
2.65533e-06
1.98125e-15
9.34872e-08
2.62387e-06
2.04196e-15
9.3907e-08
2.59225e-06
2.10614e-15
9.43848e-08
2.56046e-06
2.17379e-15
9.49205e-08
2.52848e-06
2.24144e-15
9.55137e-08
2.4963e-06
2.31256e-15
9.61642e-08
2.46389e-06
2.38889e-15
9.68714e-08
2.43123e-06
2.46347e-15
9.76348e-08
2.39831e-06
2.53633e-15
9.84539e-08
2.36512e-06
2.62306e-15
9.9328e-08
2.33163e-06
2.69939e-15
1.00256e-07
2.29783e-06
2.78785e-15
1.01238e-07
2.2637e-06
2.87459e-15
1.02272e-07
2.22923e-06
2.96132e-15
1.03357e-07
2.1944e-06
3.05326e-15
1.04492e-07
2.1592e-06
3.14346e-15
1.05676e-07
2.12361e-06
3.2406e-15
1.06907e-07
2.08762e-06
3.33774e-15
1.08184e-07
2.05122e-06
3.43662e-15
1.09504e-07
2.01439e-06
3.53723e-15
1.10867e-07
1.97712e-06
3.63263e-15
1.12269e-07
1.93941e-06
3.73671e-15
1.13709e-07