/*--------------------------------*- C++ -*----------------------------------*\
  =========                 |
  \\      /  F ield         | OpenFOAM: The Open Source CFD Toolbox
   \\    /   O peration     | Website:  https://openfoam.org
    \\  /    A nd           | Version:  8
     \\/     M anipulation  |
\*---------------------------------------------------------------------------*/
FoamFile
{
    version     2.0;
    format      ascii;
    class       volVectorField;
    location    "5000";
    object      U;
}
// * * * * * * * * * * * * * * * * * * * * * * * * * * * * * * * * * * * * * //

dimensions      [0 1 -1 0 0 0 0];

internalField   nonuniform List<vector> 
48000
(
(-0.0155287 2.38247e-07 0.017098)
(-0.0362417 2.97349e-08 0.0187724)
(-0.0516843 2.77704e-08 0.0107375)
(-0.0579905 1.37747e-08 0.00232583)
(-0.0560108 5.17399e-09 -0.00404605)
(-0.0483464 -1.07382e-09 -0.00849935)
(-0.0366179 -5.1705e-09 -0.0115364)
(-0.0221392 -7.85465e-09 -0.0135856)
(-0.00591163 -1.00515e-08 -0.0149107)
(0.0116332 -1.15401e-08 -0.0155869)
(0.0295521 -1.14982e-08 -0.0157724)
(0.0477968 -1.06758e-08 -0.0157084)
(0.0660006 -9.54124e-09 -0.0154702)
(0.0839944 -8.23912e-09 -0.0151094)
(0.101637 -6.87228e-09 -0.0146614)
(0.118823 -5.50545e-09 -0.0141514)
(0.135475 -4.19191e-09 -0.0135977)
(0.151534 -2.95452e-09 -0.013014)
(0.166956 -1.80851e-09 -0.0124106)
(0.181709 -7.80529e-10 -0.0117955)
(0.195771 1.61788e-10 -0.011175)
(0.209128 1.01083e-09 -0.0105539)
(0.221773 1.76658e-09 -0.00993609)
(0.233701 2.44239e-09 -0.0093248)
(0.244916 3.04775e-09 -0.0087226)
(0.255423 3.57126e-09 -0.00813159)
(0.26523 4.03195e-09 -0.00755353)
(0.27435 4.4222e-09 -0.00698984)
(0.282795 4.75154e-09 -0.00644171)
(0.290581 5.03138e-09 -0.00591011)
(0.297727 5.25792e-09 -0.00539581)
(0.30425 5.43496e-09 -0.00489944)
(0.31017 5.57583e-09 -0.00442147)
(0.315508 5.67482e-09 -0.00396225)
(0.320285 5.73765e-09 -0.00352202)
(0.324524 5.7624e-09 -0.00310092)
(0.328247 5.75478e-09 -0.00269899)
(0.331476 5.72623e-09 -0.00231621)
(0.334235 5.66912e-09 -0.00195245)
(0.336546 5.58155e-09 -0.00160754)
(0.338433 5.48637e-09 -0.00128125)
(0.339917 5.36454e-09 -0.000973288)
(0.341022 5.24271e-09 -0.000683333)
(0.341769 5.09993e-09 -0.000411032)
(0.34218 4.94003e-09 -0.000155882)
(0.342275 4.78964e-09 8.29649e-05)
(0.342077 4.62783e-09 0.000305672)
(0.341604 4.45841e-09 0.000512341)
(0.340876 4.29089e-09 0.000703802)
(0.339912 4.12337e-09 0.000880718)
(0.33873 3.95394e-09 0.00104367)
(0.337348 3.79214e-09 0.00119324)
(0.335781 3.63223e-09 0.00132998)
(0.334046 3.47804e-09 0.00145448)
(0.332158 3.32955e-09 0.00156732)
(0.330132 3.18678e-09 0.00166908)
(0.327982 3.06305e-09 0.00176035)
(0.32572 2.93931e-09 0.00184171)
(0.323358 2.82319e-09 0.00191372)
(0.320909 2.71659e-09 0.00197695)
(0.318383 2.62141e-09 0.00203194)
(0.315791 2.53384e-09 0.00207922)
(0.313142 2.46531e-09 0.00211933)
(0.310445 2.40249e-09 0.00215276)
(0.307707 2.34539e-09 0.00218001)
(0.304938 2.3016e-09 0.00220154)
(0.302143 2.26734e-09 0.00221782)
(0.29933 2.2464e-09 0.00222927)
(0.296504 2.23308e-09 0.00223631)
(0.29367 2.22737e-09 0.00223934)
(0.290834 2.22737e-09 0.00223874)
(0.288 2.23879e-09 0.00223487)
(0.285172 2.26164e-09 0.00222807)
(0.282353 2.28639e-09 0.00221865)
(0.279547 2.32256e-09 0.00220692)
(0.276757 2.35492e-09 0.00219316)
(0.273984 2.40632e-09 0.00217764)
(0.271231 2.45391e-09 0.0021606)
(0.268501 2.4996e-09 0.00214228)
(0.265793 2.55861e-09 0.0021229)
(0.26311 2.63095e-09 0.00210265)
(0.260453 2.69187e-09 0.00208171)
(0.257822 2.76611e-09 0.00206027)
(0.255219 2.84797e-09 0.00203847)
(0.252642 2.92792e-09 0.00201646)
(0.250094 3.00026e-09 0.00199438)
(0.247572 3.07259e-09 0.00197234)
(0.245079 3.15826e-09 0.00195045)
(0.242613 3.23631e-09 0.00192883)
(0.240173 3.31626e-09 0.00190755)
(0.23776 3.40192e-09 0.00188671)
(0.235373 3.48758e-09 0.00186637)
(0.233012 3.57134e-09 0.00184662)
(0.230674 3.6551e-09 0.0018275)
(0.228361 3.73696e-09 0.00180907)
(0.22607 3.81691e-09 0.00179139)
(0.223801 3.89876e-09 0.0017745)
(0.221553 3.98252e-09 0.00175844)
(0.219324 4.06247e-09 0.00174325)
(0.217114 4.14052e-09 0.00172896)
(0.214922 4.21856e-09 0.00171559)
(0.212746 4.2928e-09 0.00170318)
(0.210586 4.36895e-09 0.00169175)
(0.208439 4.44699e-09 0.00168132)
(0.206305 4.51933e-09 0.00167191)
(0.204182 4.59357e-09 0.00166354)
(0.202069 4.66781e-09 0.00165622)
(0.199965 4.74395e-09 0.00164997)
(0.197869 4.8201e-09 0.00164479)
(0.195779 4.89433e-09 0.00164071)
(0.193693 4.97238e-09 0.00163773)
(0.191611 5.04472e-09 0.00163585)
(0.189531 5.12086e-09 0.0016351)
(0.187452 5.18748e-09 0.00163547)
(0.185372 5.25982e-09 0.00163698)
(0.183289 5.32835e-09 0.00163962)
(0.181203 5.4102e-09 0.00164341)
(0.179113 5.48825e-09 0.00164834)
(0.177016 5.5682e-09 0.00165443)
(0.174911 5.64624e-09 0.00166168)
(0.172797 5.72239e-09 0.00167008)
(0.170672 5.80043e-09 0.00167964)
(0.168536 5.88038e-09 0.00169035)
(0.166386 5.96985e-09 0.00170223)
(0.164221 6.0479e-09 0.00171526)
(0.16204 6.13356e-09 0.00172944)
(0.159842 6.22302e-09 0.00174478)
(0.157625 6.30678e-09 0.00176125)
(0.155388 6.40767e-09 0.00177886)
(0.153129 6.49333e-09 0.0017976)
(0.150847 6.60183e-09 0.00181746)
(0.148541 6.69701e-09 0.00183842)
(0.146209 6.79981e-09 0.00186048)
(0.143851 6.91402e-09 0.00188361)
(0.141465 7.02633e-09 0.0019078)
(0.13905 7.14626e-09 0.00193304)
(0.136604 7.26809e-09 0.00195929)
(0.134127 7.39372e-09 0.00198654)
(0.131617 7.53078e-09 0.00201475)
(0.129074 7.67165e-09 0.0020439)
(0.126495 7.82013e-09 0.00207396)
(0.123882 7.97242e-09 0.00210488)
(0.121232 8.1209e-09 0.00213663)
(0.118544 8.27318e-09 0.00216917)
(0.115818 8.43689e-09 0.00220245)
(0.113054 8.59299e-09 0.00223641)
(0.11025 8.74908e-09 0.002271)
(0.107405 8.90137e-09 0.00230617)
(0.104521 9.05366e-09 0.00234184)
(0.101595 9.19833e-09 0.00237794)
(0.0986284 9.343e-09 0.00241441)
(0.0956202 9.47245e-09 0.00245114)
(0.0925705 9.60189e-09 0.00248807)
(0.0894795 9.73134e-09 0.00252507)
(0.0863473 9.83413e-09 0.00256206)
(0.0831742 9.94073e-09 0.00259891)
(0.0799609 1.00397e-08 0.00263551)
(0.0767078 1.01425e-08 0.0026717)
(0.0734159 1.02415e-08 0.00270735)
(0.0700862 1.03671e-08 0.0027423)
(0.0667199 1.05118e-08 0.00277635)
(0.0633186 1.06907e-08 0.00280933)
(0.059884 1.09154e-08 0.00284101)
(0.056418 1.12085e-08 0.00287115)
(0.0529231 1.15778e-08 0.0028995)
(0.0494018 1.20461e-08 0.00292577)
(0.0458571 1.26324e-08 0.00294964)
(0.0422925 1.33558e-08 0.00297073)
(0.0387117 1.41896e-08 0.00298866)
(0.0351193 1.51947e-08 0.00300298)
(0.0315199 1.62874e-08 0.00301316)
(0.0279192 1.74486e-08 0.00301865)
(0.0243234 1.86098e-08 0.00301879)
(0.0207394 1.96301e-08 0.00301285)
(0.0171752 2.03611e-08 0.00299998)
(0.0136395 2.06657e-08 0.00297923)
(0.0101424 2.03497e-08 0.00294946)
(0.00669495 1.92494e-08 0.00290933)
(0.00331236 1.72468e-08 0.00285713)
(4.66011e-06 1.41934e-08 0.00278778)
(-0.00320681 1.02529e-08 0.0026962)
(-0.00629805 5.97358e-09 0.00258339)
(-0.00925224 1.9303e-09 0.00245066)
(-0.0120415 -1.18782e-09 0.00229535)
(-0.0146377 -2.33379e-09 0.00211275)
(-0.0170066 -3.23578e-10 0.00189825)
(-0.019109 5.98881e-09 0.00164651)
(-0.0208992 1.72468e-08 0.00135073)
(-0.0223234 3.25899e-08 0.00100294)
(-0.0233189 4.89838e-08 0.000593202)
(-0.0238134 6.07406e-08 0.000109687)
(-0.0237195 6.05502e-08 -0.000458673)
(-0.022944 4.4004e-08 -0.00112287)
(-0.0213849 1.50081e-08 -0.00189342)
(-0.0189371 -1.15663e-08 -0.00276986)
(-0.0155174 -1.76655e-08 -0.00371792)
(-0.0111208 -2.58889e-09 -0.00461356)
(-0.00605081 6.47261e-10 -0.00507398)
(-0.000462906 -3.19194e-08 -0.0033942)
(0.00129036 -1.35136e-07 0.00172013)
(-0.0155295 2.38245e-07 0.0170973)
(-0.0362419 2.97348e-08 0.0187721)
(-0.0516843 2.77703e-08 0.0107373)
(-0.0579904 1.37747e-08 0.00232569)
(-0.0560107 5.17398e-09 -0.00404618)
(-0.0483462 -1.07382e-09 -0.00849948)
(-0.0366178 -5.17049e-09 -0.0115365)
(-0.022139 -7.85464e-09 -0.0135857)
(-0.00591151 -1.00515e-08 -0.0149108)
(0.0116333 -1.15401e-08 -0.015587)
(0.0295522 -1.14982e-08 -0.0157725)
(0.0477969 -1.06758e-08 -0.0157085)
(0.0660007 -9.54123e-09 -0.0154703)
(0.0839945 -8.23911e-09 -0.0151095)
(0.101637 -6.87228e-09 -0.0146615)
(0.118823 -5.50544e-09 -0.0141515)
(0.135475 -4.19191e-09 -0.0135977)
(0.151534 -2.95452e-09 -0.013014)
(0.166956 -1.80851e-09 -0.0124107)
(0.181709 -7.80529e-10 -0.0117956)
(0.195771 1.61788e-10 -0.0111751)
(0.209128 1.01082e-09 -0.010554)
(0.221773 1.76658e-09 -0.00993616)
(0.233701 2.44238e-09 -0.00932487)
(0.244916 3.04775e-09 -0.00872267)
(0.255423 3.57126e-09 -0.00813166)
(0.26523 4.03195e-09 -0.0075536)
(0.27435 4.4222e-09 -0.00698991)
(0.282795 4.75154e-09 -0.00644178)
(0.290581 5.03138e-09 -0.00591018)
(0.297727 5.25792e-09 -0.00539588)
(0.30425 5.43496e-09 -0.0048995)
(0.31017 5.57583e-09 -0.00442153)
(0.315508 5.67482e-09 -0.00396231)
(0.320285 5.73764e-09 -0.00352208)
(0.324524 5.76239e-09 -0.00310098)
(0.328247 5.75478e-09 -0.00269905)
(0.331476 5.72623e-09 -0.00231627)
(0.334235 5.66912e-09 -0.00195251)
(0.336546 5.58155e-09 -0.0016076)
(0.338433 5.48637e-09 -0.00128131)
(0.339917 5.36454e-09 -0.000973343)
(0.341022 5.2427e-09 -0.000683388)
(0.341769 5.09993e-09 -0.000411086)
(0.34218 4.94003e-09 -0.000155935)
(0.342275 4.78964e-09 8.29127e-05)
(0.342077 4.62783e-09 0.00030562)
(0.341604 4.45841e-09 0.00051229)
(0.340876 4.29089e-09 0.000703752)
(0.339912 4.12337e-09 0.000880669)
(0.33873 3.95394e-09 0.00104363)
(0.337348 3.79213e-09 0.00119319)
(0.335781 3.63223e-09 0.00132993)
(0.334046 3.47804e-09 0.00145443)
(0.332158 3.32955e-09 0.00156727)
(0.330132 3.18678e-09 0.00166904)
(0.327982 3.06305e-09 0.00176031)
(0.32572 2.93931e-09 0.00184167)
(0.323358 2.82319e-09 0.00191368)
(0.320909 2.71659e-09 0.0019769)
(0.318383 2.62141e-09 0.00203189)
(0.315791 2.53384e-09 0.00207918)
(0.313142 2.46531e-09 0.00211929)
(0.310445 2.40249e-09 0.00215272)
(0.307707 2.34539e-09 0.00217997)
(0.304938 2.3016e-09 0.0022015)
(0.302143 2.26734e-09 0.00221778)
(0.29933 2.2464e-09 0.00222923)
(0.296504 2.23308e-09 0.00223627)
(0.29367 2.22737e-09 0.0022393)
(0.290834 2.22737e-09 0.00223871)
(0.288 2.23879e-09 0.00223483)
(0.285172 2.26164e-09 0.00222803)
(0.282353 2.28639e-09 0.00221861)
(0.279547 2.32256e-09 0.00220688)
(0.276757 2.35492e-09 0.00219312)
(0.273984 2.40632e-09 0.0021776)
(0.271231 2.45391e-09 0.00216056)
(0.2685 2.4996e-09 0.00214225)
(0.265793 2.55861e-09 0.00212286)
(0.26311 2.63095e-09 0.00210261)
(0.260453 2.69187e-09 0.00208168)
(0.257822 2.76611e-09 0.00206023)
(0.255219 2.84796e-09 0.00203843)
(0.252642 2.92792e-09 0.00201643)
(0.250094 3.00025e-09 0.00199434)
(0.247572 3.07259e-09 0.0019723)
(0.245079 3.15826e-09 0.00195042)
(0.242613 3.2363e-09 0.00192879)
(0.240173 3.31626e-09 0.00190752)
(0.23776 3.40192e-09 0.00188667)
(0.235373 3.48758e-09 0.00186634)
(0.233012 3.57134e-09 0.00184658)
(0.230674 3.6551e-09 0.00182746)
(0.228361 3.73695e-09 0.00180904)
(0.22607 3.81691e-09 0.00179136)
(0.223801 3.89876e-09 0.00177447)
(0.221553 3.98252e-09 0.00175841)
(0.219324 4.06247e-09 0.00174322)
(0.217114 4.14052e-09 0.00172892)
(0.214922 4.21856e-09 0.00171556)
(0.212746 4.2928e-09 0.00170315)
(0.210585 4.36895e-09 0.00169172)
(0.208439 4.44699e-09 0.00168129)
(0.206305 4.51933e-09 0.00167188)
(0.204182 4.59357e-09 0.00166351)
(0.202069 4.66781e-09 0.00165619)
(0.199965 4.74395e-09 0.00164993)
(0.197869 4.82009e-09 0.00164476)
(0.195779 4.89433e-09 0.00164067)
(0.193693 4.97238e-09 0.00163769)
(0.191611 5.04471e-09 0.00163582)
(0.189531 5.12086e-09 0.00163506)
(0.187452 5.18748e-09 0.00163543)
(0.185372 5.25982e-09 0.00163694)
(0.183289 5.32835e-09 0.00163958)
(0.181203 5.4102e-09 0.00164337)
(0.179113 5.48824e-09 0.00164831)
(0.177016 5.56819e-09 0.0016544)
(0.174911 5.64624e-09 0.00166164)
(0.172797 5.72238e-09 0.00167004)
(0.170672 5.80043e-09 0.0016796)
(0.168536 5.88038e-09 0.00169032)
(0.166386 5.96985e-09 0.00170219)
(0.164221 6.04789e-09 0.00171522)
(0.16204 6.13355e-09 0.0017294)
(0.159842 6.22302e-09 0.00174473)
(0.157625 6.30678e-09 0.00176121)
(0.155388 6.40767e-09 0.00177882)
(0.153129 6.49333e-09 0.00179756)
(0.150847 6.60183e-09 0.00181741)
(0.148541 6.69701e-09 0.00183838)
(0.146209 6.7998e-09 0.00186043)
(0.143851 6.91402e-09 0.00188356)
(0.141465 7.02633e-09 0.00190776)
(0.13905 7.14626e-09 0.00193299)
(0.136604 7.26808e-09 0.00195924)
(0.134127 7.39372e-09 0.00198649)
(0.131617 7.53078e-09 0.0020147)
(0.129074 7.67165e-09 0.00204385)
(0.126495 7.82013e-09 0.00207391)
(0.123882 7.97241e-09 0.00210483)
(0.121232 8.12089e-09 0.00213658)
(0.118544 8.27318e-09 0.00216912)
(0.115818 8.43689e-09 0.00220239)
(0.113054 8.59298e-09 0.00223635)
(0.11025 8.74908e-09 0.00227095)
(0.107405 8.90137e-09 0.00230611)
(0.104521 9.05365e-09 0.00234178)
(0.101595 9.19833e-09 0.00237788)
(0.0986284 9.343e-09 0.00241435)
(0.0956202 9.47244e-09 0.00245108)
(0.0925705 9.60189e-09 0.002488)
(0.0894795 9.73133e-09 0.00252501)
(0.0863473 9.83413e-09 0.002562)
(0.0831743 9.94073e-09 0.00259885)
(0.0799609 1.00397e-08 0.00263544)
(0.0767078 1.01425e-08 0.00267164)
(0.0734159 1.02415e-08 0.00270729)
(0.0700862 1.03671e-08 0.00274223)
(0.0667199 1.05118e-08 0.00277628)
(0.0633186 1.06907e-08 0.00280925)
(0.059884 1.09154e-08 0.00284093)
(0.056418 1.12085e-08 0.00287108)
(0.0529231 1.15778e-08 0.00289943)
(0.0494018 1.20461e-08 0.0029257)
(0.0458571 1.26324e-08 0.00294956)
(0.0422925 1.33558e-08 0.00297065)
(0.0387118 1.41896e-08 0.00298858)
(0.0351193 1.51947e-08 0.00300289)
(0.0315199 1.62874e-08 0.00301308)
(0.0279193 1.74486e-08 0.00301856)
(0.0243234 1.86098e-08 0.0030187)
(0.0207395 1.96301e-08 0.00301276)
(0.0171752 2.03611e-08 0.00299989)
(0.0136395 2.06657e-08 0.00297913)
(0.0101424 2.03497e-08 0.00294936)
(0.00669496 1.92494e-08 0.00290922)
(0.00331238 1.72468e-08 0.00285702)
(4.67362e-06 1.41934e-08 0.00278766)
(-0.0032068 1.02529e-08 0.00269609)
(-0.00629803 5.97358e-09 0.00258327)
(-0.00925223 1.9303e-09 0.00245054)
(-0.0120415 -1.18782e-09 0.00229524)
(-0.0146377 -2.33379e-09 0.00211263)
(-0.0170066 -3.23578e-10 0.00189813)
(-0.019109 5.9888e-09 0.00164639)
(-0.0208992 1.72468e-08 0.00135061)
(-0.0223234 3.25899e-08 0.0010028)
(-0.0233189 4.89838e-08 0.000593064)
(-0.0238134 6.07405e-08 0.000109543)
(-0.0237195 6.05502e-08 -0.000458823)
(-0.022944 4.4004e-08 -0.00112303)
(-0.021385 1.50081e-08 -0.00189358)
(-0.0189371 -1.15663e-08 -0.00277003)
(-0.0155174 -1.76655e-08 -0.00371811)
(-0.0111209 -2.58887e-09 -0.00461377)
(-0.00605098 6.47255e-10 -0.00507423)
(-0.000463177 -3.19202e-08 -0.00339459)
(0.00129016 -1.35146e-07 0.00171951)
(-0.0155288 2.28504e-08 0.0409678)
(-0.0231219 2.00044e-09 0.028898)
(-0.0244727 3.18277e-09 0.0146105)
(-0.0220444 1.41645e-11 0.00132831)
(-0.0160554 -1.11088e-09 -0.00927215)
(-0.00729309 -1.93134e-09 -0.017085)
(0.00378434 -2.54717e-09 -0.0226288)
(0.0165903 -2.98691e-09 -0.0264219)
(0.0306551 -3.29244e-09 -0.028922)
(0.0456045 -3.42379e-09 -0.0304139)
(0.0610982 -3.35906e-09 -0.0311558)
(0.0768973 -3.24483e-09 -0.0313835)
(0.0927806 -3.08682e-09 -0.0312255)
(0.108587 -2.9093e-09 -0.0307819)
(0.124185 -2.71703e-09 -0.0301229)
(0.139473 -2.52476e-09 -0.0293006)
(0.15437 -2.33534e-09 -0.0283548)
(0.168813 -2.1583e-09 -0.0273157)
(0.182752 -1.99077e-09 -0.0262075)
(0.196148 -1.83229e-09 -0.0250491)
(0.208974 -1.68666e-09 -0.023856)
(0.221207 -1.55197e-09 -0.0226408)
(0.232834 -1.42585e-09 -0.0214139)
(0.243845 -1.31163e-09 -0.0201841)
(0.254236 -1.20502e-09 -0.0189586)
(0.264006 -1.10793e-09 -0.0177436)
(0.273158 -1.02036e-09 -0.0165445)
(0.281698 -9.42311e-10 -0.0153657)
(0.289634 -8.71873e-10 -0.0142111)
(0.296977 -8.09051e-10 -0.0130838)
(0.303739 -7.53367e-10 -0.0119866)
(0.309935 -7.04346e-10 -0.0109218)
(0.31558 -6.61988e-10 -0.00989127)
(0.32069 -6.26293e-10 -0.00889659)
(0.325282 -5.98688e-10 -0.00793896)
(0.329376 -5.7489e-10 -0.00701932)
(0.33299 -5.56804e-10 -0.00613834)
(0.336144 -5.43952e-10 -0.00529643)
(0.338856 -5.36812e-10 -0.00449382)
(0.341147 -5.33003e-10 -0.00373052)
(0.343038 -5.32525e-10 -0.00300637)
(0.344547 -5.35379e-10 -0.00232104)
(0.345695 -5.4204e-10 -0.00167408)
(0.346501 -5.49653e-10 -0.0010649)
(0.346985 -5.60121e-10 -0.000492792)
(0.347166 -5.74397e-10 4.30621e-05)
(0.347063 -5.91528e-10 0.000543642)
(0.346694 -6.08184e-10 0.00101001)
(0.346077 -6.24839e-10 0.00144323)
(0.345229 -6.43398e-10 0.00184439)
(0.344167 -6.61005e-10 0.00221465)
(0.342908 -6.80515e-10 0.0025552)
(0.341466 -6.99074e-10 0.00286726)
(0.339856 -7.17633e-10 0.00315206)
(0.338094 -7.35716e-10 0.00341085)
(0.336193 -7.53323e-10 0.0036449)
(0.334166 -7.70454e-10 0.00385547)
(0.332024 -7.86634e-10 0.00404381)
(0.329781 -8.01385e-10 0.00421117)
(0.327447 -8.15661e-10 0.00435878)
(0.325032 -8.28509e-10 0.00448785)
(0.322547 -8.40881e-10 0.00459955)
(0.320001 -8.52302e-10 0.00469504)
(0.317401 -8.6277e-10 0.00477543)
(0.314757 -8.70859e-10 0.00484182)
(0.312076 -8.78472e-10 0.00489526)
(0.309365 -8.85134e-10 0.00493675)
(0.306629 -8.90843e-10 0.00496727)
(0.303876 -8.94649e-10 0.00498775)
(0.30111 -8.97979e-10 0.00499907)
(0.298336 -9.01785e-10 0.00500208)
(0.295559 -9.02736e-10 0.00499759)
(0.292783 -9.02259e-10 0.00498635)
(0.290011 -9.02258e-10 0.00496908)
(0.287247 -9.01305e-10 0.00494647)
(0.284494 -8.97497e-10 0.00491915)
(0.281754 -8.97972e-10 0.00488771)
(0.27903 -8.96068e-10 0.00485273)
(0.276322 -8.94163e-10 0.00481471)
(0.273635 -8.89879e-10 0.00477415)
(0.270967 -8.85596e-10 0.00473149)
(0.268321 -8.80836e-10 0.00468716)
(0.265698 -8.756e-10 0.00464154)
(0.263099 -8.70365e-10 0.00459499)
(0.260523 -8.64178e-10 0.00454784)
(0.257972 -8.60846e-10 0.00450039)
(0.255445 -8.54659e-10 0.00445292)
(0.252943 -8.48472e-10 0.00440567)
(0.250465 -8.43713e-10 0.00435888)
(0.248011 -8.38002e-10 0.00431277)
(0.245582 -8.32291e-10 0.00426752)
(0.243176 -8.25628e-10 0.0042233)
(0.240793 -8.19917e-10 0.00418027)
(0.238432 -8.14206e-10 0.00413858)
(0.236093 -8.0802e-10 0.00409835)
(0.233775 -8.02309e-10 0.0040597)
(0.231477 -7.97074e-10 0.00402273)
(0.229198 -7.91364e-10 0.00398753)
(0.226937 -7.85177e-10 0.0039542)
(0.224694 -7.80895e-10 0.0039228)
(0.222466 -7.75184e-10 0.0038934)
(0.220254 -7.70901e-10 0.00386606)
(0.218056 -7.65667e-10 0.00384084)
(0.215871 -7.60908e-10 0.00381779)
(0.213697 -7.55198e-10 0.00379694)
(0.211534 -7.50916e-10 0.00377834)
(0.209381 -7.46157e-10 0.00376202)
(0.207235 -7.41399e-10 0.00374801)
(0.205096 -7.35688e-10 0.00373634)
(0.202963 -7.3093e-10 0.00372703)
(0.200834 -7.26648e-10 0.0037201)
(0.198707 -7.22841e-10 0.00371557)
(0.196583 -7.17131e-10 0.00371346)
(0.194459 -7.12849e-10 0.00371378)
(0.192334 -7.09042e-10 0.00371655)
(0.190206 -7.05236e-10 0.00372176)
(0.188075 -7.00002e-10 0.00372944)
(0.185939 -6.95243e-10 0.00373958)
(0.183797 -6.91437e-10 0.00375218)
(0.181647 -6.88582e-10 0.00376725)
(0.179489 -6.843e-10 0.00378479)
(0.177319 -6.81446e-10 0.00380479)
(0.175139 -6.77639e-10 0.00382724)
(0.172945 -6.74309e-10 0.00385214)
(0.170737 -6.70502e-10 0.00387947)
(0.168514 -6.68124e-10 0.00390923)
(0.166273 -6.65269e-10 0.00394138)
(0.164015 -6.63842e-10 0.00397592)
(0.161737 -6.5956e-10 0.00401281)
(0.159439 -6.56706e-10 0.00405203)
(0.157119 -6.54803e-10 0.00409355)
(0.154776 -6.52424e-10 0.00413733)
(0.152408 -6.50521e-10 0.00418332)
(0.150015 -6.4957e-10 0.0042315)
(0.147596 -6.45764e-10 0.00428179)
(0.145149 -6.44337e-10 0.00433416)
(0.142673 -6.41958e-10 0.00438853)
(0.140168 -6.3958e-10 0.00444485)
(0.137632 -6.40056e-10 0.00450303)
(0.135064 -6.41009e-10 0.004563)
(0.132464 -6.39582e-10 0.00462467)
(0.129831 -6.38631e-10 0.00468795)
(0.127164 -6.40535e-10 0.00475274)
(0.124462 -6.44343e-10 0.00481892)
(0.121724 -6.45296e-10 0.00488638)
(0.118951 -6.49104e-10 0.00495498)
(0.116141 -6.55767e-10 0.0050246)
(0.113294 -6.61955e-10 0.00509508)
(0.110411 -6.70046e-10 0.00516626)
(0.107489 -6.80992e-10 0.00523798)
(0.104531 -6.90511e-10 0.00531004)
(0.101534 -7.02409e-10 0.00538225)
(0.0985009 -7.14307e-10 0.00545439)
(0.0954302 -7.25729e-10 0.00552624)
(0.0923227 -7.39055e-10 0.00559754)
(0.089179 -7.54761e-10 0.00566804)
(0.0859997 -7.68563e-10 0.00573744)
(0.0827856 -7.81888e-10 0.00580544)
(0.0795378 -7.93786e-10 0.0058717)
(0.0762574 -8.02353e-10 0.00593586)
(0.072946 -8.06637e-10 0.00599753)
(0.0696051 -8.10445e-10 0.00605628)
(0.0662366 -8.09969e-10 0.00611164)
(0.0628427 -8.0521e-10 0.0061631)
(0.0594258 -7.9141e-10 0.00621012)
(0.0559887 -7.75705e-10 0.00625207)
(0.0525344 -7.51435e-10 0.00628829)
(0.0490664 -7.19549e-10 0.00631803)
(0.0455885 -6.8814e-10 0.00634048)
(0.0421051 -6.53875e-10 0.00635471)
(0.038621 -6.26273e-10 0.00635971)
(0.0351415 -6.11996e-10 0.00635434)
(0.0316727 -6.25322e-10 0.00633732)
(0.028221 -6.79575e-10 0.00630721)
(0.0247941 -7.90937e-10 0.00626237)
(0.0214 -9.74636e-10 0.00620096)
(0.0180481 -1.23829e-09 0.00612082)
(0.0147486 -1.58855e-09 0.00601935)
(0.0115132 -2.01591e-09 0.00589366)
(0.00835465 -2.48991e-09 0.00573927)
(0.00528721 -2.9582e-09 0.00555114)
(0.00232714 -3.36082e-09 0.00532628)
(-0.00050888 -3.63018e-09 0.00506077)
(-0.00319839 -3.65873e-09 0.00474894)
(-0.00571905 -3.30466e-09 0.00438416)
(-0.00804601 -2.40235e-09 0.00395859)
(-0.0101511 -8.0807e-10 0.00346272)
(-0.0120033 1.49245e-09 0.00288536)
(-0.0135681 4.18321e-09 0.00221391)
(-0.0148079 6.42852e-09 0.00143387)
(-0.0156828 6.82067e-09 0.000529599)
(-0.0161522 3.85864e-09 -0.000512716)
(-0.0161739 -2.75642e-09 -0.00170225)
(-0.0157137 -1.04642e-08 -0.00303933)
(-0.01475 -1.34528e-08 -0.00449738)
(-0.0132856 -6.56366e-09 -0.00598577)
(-0.011366 5.82128e-09 -0.00727262)
(-0.00904584 7.13288e-09 -0.00783788)
(-0.0062875 -4.02806e-09 -0.00640106)
(-0.00366522 -1.36358e-07 -0.00093382)
(-0.0155291 2.28503e-08 0.0409675)
(-0.023122 2.00043e-09 0.0288979)
(-0.0244727 3.18276e-09 0.0146104)
(-0.0220444 1.41644e-11 0.00132823)
(-0.0160554 -1.11087e-09 -0.00927221)
(-0.00729303 -1.93134e-09 -0.0170851)
(0.0037844 -2.54716e-09 -0.0226289)
(0.0165904 -2.9869e-09 -0.026422)
(0.0306551 -3.29243e-09 -0.028922)
(0.0456046 -3.42378e-09 -0.0304139)
(0.0610983 -3.35905e-09 -0.0311559)
(0.0768973 -3.24483e-09 -0.0313835)
(0.0927806 -3.08682e-09 -0.0312256)
(0.108587 -2.9093e-09 -0.030782)
(0.124185 -2.71703e-09 -0.0301229)
(0.139473 -2.52475e-09 -0.0293007)
(0.15437 -2.33534e-09 -0.0283548)
(0.168813 -2.15829e-09 -0.0273157)
(0.182752 -1.99077e-09 -0.0262075)
(0.196148 -1.83229e-09 -0.0250491)
(0.208974 -1.68665e-09 -0.023856)
(0.221207 -1.55197e-09 -0.0226408)
(0.232834 -1.42585e-09 -0.0214139)
(0.243845 -1.31163e-09 -0.0201841)
(0.254236 -1.20502e-09 -0.0189586)
(0.264006 -1.10793e-09 -0.0177436)
(0.273158 -1.02036e-09 -0.0165445)
(0.281698 -9.4231e-10 -0.0153658)
(0.289634 -8.71873e-10 -0.0142111)
(0.296977 -8.0905e-10 -0.0130838)
(0.303739 -7.53366e-10 -0.0119866)
(0.309935 -7.04345e-10 -0.0109218)
(0.31558 -6.61987e-10 -0.00989127)
(0.32069 -6.26292e-10 -0.0088966)
(0.325282 -5.98687e-10 -0.00793897)
(0.329376 -5.7489e-10 -0.00701933)
(0.33299 -5.56803e-10 -0.00613834)
(0.336144 -5.43952e-10 -0.00529644)
(0.338856 -5.36812e-10 -0.00449383)
(0.341147 -5.33003e-10 -0.00373053)
(0.343038 -5.32525e-10 -0.00300637)
(0.344547 -5.35379e-10 -0.00232105)
(0.345695 -5.4204e-10 -0.00167409)
(0.346501 -5.49653e-10 -0.00106491)
(0.346985 -5.60121e-10 -0.0004928)
(0.347166 -5.74397e-10 4.30538e-05)
(0.347063 -5.91528e-10 0.000543633)
(0.346694 -6.08183e-10 0.00101)
(0.346077 -6.24838e-10 0.00144322)
(0.345229 -6.43397e-10 0.00184438)
(0.344167 -6.61004e-10 0.00221464)
(0.342907 -6.80515e-10 0.00255519)
(0.341466 -6.99074e-10 0.00286725)
(0.339856 -7.17633e-10 0.00315205)
(0.338094 -7.35716e-10 0.00341084)
(0.336193 -7.53323e-10 0.00364489)
(0.334166 -7.70454e-10 0.00385546)
(0.332024 -7.86633e-10 0.0040438)
(0.329781 -8.01385e-10 0.00421116)
(0.327447 -8.1566e-10 0.00435877)
(0.325032 -8.28508e-10 0.00448784)
(0.322547 -8.40881e-10 0.00459954)
(0.320001 -8.52301e-10 0.00469502)
(0.317401 -8.62769e-10 0.00477542)
(0.314757 -8.70858e-10 0.00484181)
(0.312076 -8.78472e-10 0.00489525)
(0.309365 -8.85133e-10 0.00493674)
(0.306629 -8.90843e-10 0.00496726)
(0.303876 -8.94649e-10 0.00498774)
(0.30111 -8.97979e-10 0.00499906)
(0.298336 -9.01785e-10 0.00500207)
(0.295559 -9.02735e-10 0.00499757)
(0.292783 -9.02258e-10 0.00498634)
(0.290011 -9.02257e-10 0.00496907)
(0.287247 -9.01305e-10 0.00494646)
(0.284494 -8.97496e-10 0.00491914)
(0.281754 -8.97971e-10 0.0048877)
(0.279029 -8.96067e-10 0.00485272)
(0.276322 -8.94163e-10 0.0048147)
(0.273635 -8.89879e-10 0.00477414)
(0.270967 -8.85595e-10 0.00473148)
(0.268321 -8.80835e-10 0.00468715)
(0.265698 -8.756e-10 0.00464153)
(0.263099 -8.70364e-10 0.00459498)
(0.260523 -8.64177e-10 0.00454783)
(0.257972 -8.60845e-10 0.00450038)
(0.255445 -8.54658e-10 0.0044529)
(0.252943 -8.48471e-10 0.00440566)
(0.250465 -8.43712e-10 0.00435887)
(0.248011 -8.38001e-10 0.00431276)
(0.245582 -8.3229e-10 0.0042675)
(0.243176 -8.25628e-10 0.00422329)
(0.240793 -8.19917e-10 0.00418026)
(0.238432 -8.14206e-10 0.00413857)
(0.236093 -8.08019e-10 0.00409834)
(0.233775 -8.02309e-10 0.00405969)
(0.231477 -7.97074e-10 0.00402272)
(0.229198 -7.91363e-10 0.00398752)
(0.226937 -7.85177e-10 0.00395419)
(0.224694 -7.80894e-10 0.00392279)
(0.222466 -7.75184e-10 0.00389339)
(0.220254 -7.70901e-10 0.00386605)
(0.218056 -7.65666e-10 0.00384083)
(0.215871 -7.60908e-10 0.00381778)
(0.213697 -7.55198e-10 0.00379693)
(0.211534 -7.50915e-10 0.00377833)
(0.209381 -7.46157e-10 0.00376201)
(0.207235 -7.41398e-10 0.003748)
(0.205096 -7.35688e-10 0.00373633)
(0.202963 -7.3093e-10 0.00372702)
(0.200834 -7.26647e-10 0.00372009)
(0.198707 -7.22841e-10 0.00371556)
(0.196583 -7.17131e-10 0.00371345)
(0.194459 -7.12848e-10 0.00371378)
(0.192334 -7.09042e-10 0.00371654)
(0.190206 -7.05235e-10 0.00372176)
(0.188075 -7.00001e-10 0.00372943)
(0.185939 -6.95243e-10 0.00373957)
(0.183797 -6.91437e-10 0.00375217)
(0.181647 -6.88582e-10 0.00376724)
(0.179489 -6.843e-10 0.00378478)
(0.177319 -6.81445e-10 0.00380478)
(0.175139 -6.77639e-10 0.00382723)
(0.172945 -6.74308e-10 0.00385213)
(0.170737 -6.70502e-10 0.00387946)
(0.168514 -6.68123e-10 0.00390922)
(0.166273 -6.65269e-10 0.00394137)
(0.164015 -6.63842e-10 0.00397591)
(0.161737 -6.5956e-10 0.0040128)
(0.159439 -6.56705e-10 0.00405202)
(0.157119 -6.54802e-10 0.00409354)
(0.154776 -6.52424e-10 0.00413732)
(0.152408 -6.50521e-10 0.00418331)
(0.150015 -6.4957e-10 0.00423149)
(0.147596 -6.45764e-10 0.00428178)
(0.145149 -6.44337e-10 0.00433415)
(0.142673 -6.41958e-10 0.00438852)
(0.140168 -6.39579e-10 0.00444483)
(0.137632 -6.40056e-10 0.00450302)
(0.135064 -6.41009e-10 0.00456299)
(0.132464 -6.39582e-10 0.00462466)
(0.129831 -6.38631e-10 0.00468794)
(0.127164 -6.40535e-10 0.00475272)
(0.124462 -6.44343e-10 0.00481891)
(0.121724 -6.45295e-10 0.00488636)
(0.118951 -6.49103e-10 0.00495497)
(0.116141 -6.55767e-10 0.00502459)
(0.113294 -6.61954e-10 0.00509507)
(0.110411 -6.70045e-10 0.00516625)
(0.107489 -6.80992e-10 0.00523796)
(0.104531 -6.9051e-10 0.00531002)
(0.101534 -7.02409e-10 0.00538223)
(0.0985009 -7.14307e-10 0.00545437)
(0.0954302 -7.25729e-10 0.00552622)
(0.0923227 -7.39055e-10 0.00559753)
(0.089179 -7.5476e-10 0.00566802)
(0.0859997 -7.68562e-10 0.00573743)
(0.0827856 -7.81888e-10 0.00580543)
(0.0795378 -7.93786e-10 0.00587169)
(0.0762575 -8.02353e-10 0.00593585)
(0.072946 -8.06636e-10 0.00599751)
(0.0696051 -8.10444e-10 0.00605626)
(0.0662367 -8.09969e-10 0.00611162)
(0.0628427 -8.0521e-10 0.00616308)
(0.0594259 -7.91409e-10 0.0062101)
(0.0559887 -7.75705e-10 0.00625205)
(0.0525344 -7.51434e-10 0.00628827)
(0.0490664 -7.19549e-10 0.00631802)
(0.0455885 -6.8814e-10 0.00634046)
(0.0421051 -6.53875e-10 0.00635469)
(0.038621 -6.26273e-10 0.00635969)
(0.0351415 -6.11996e-10 0.00635432)
(0.0316727 -6.25321e-10 0.0063373)
(0.028221 -6.79575e-10 0.00630719)
(0.0247941 -7.90936e-10 0.00626235)
(0.0214 -9.74635e-10 0.00620094)
(0.0180481 -1.23829e-09 0.0061208)
(0.0147486 -1.58855e-09 0.00601933)
(0.0115132 -2.01591e-09 0.00589364)
(0.00835466 -2.48991e-09 0.00573925)
(0.00528721 -2.9582e-09 0.00555112)
(0.00232715 -3.36081e-09 0.00532626)
(-0.000508872 -3.63018e-09 0.00506075)
(-0.00319838 -3.65873e-09 0.00474892)
(-0.00571904 -3.30466e-09 0.00438414)
(-0.00804601 -2.40235e-09 0.00395857)
(-0.0101511 -8.0807e-10 0.0034627)
(-0.0120033 1.49245e-09 0.00288533)
(-0.0135681 4.1832e-09 0.00221388)
(-0.0148079 6.42852e-09 0.00143384)
(-0.0156828 6.82066e-09 0.000529568)
(-0.0161522 3.85864e-09 -0.000512749)
(-0.0161739 -2.75642e-09 -0.00170228)
(-0.0157137 -1.04641e-08 -0.00303936)
(-0.01475 -1.34528e-08 -0.00449741)
(-0.0132856 -6.56364e-09 -0.00598581)
(-0.011366 5.82124e-09 -0.00727268)
(-0.00904591 7.13281e-09 -0.00783796)
(-0.00628766 -4.02807e-09 -0.0064012)
(-0.00366558 -1.36362e-07 -0.000934095)
(-0.00751747 3.47977e-08 0.0563734)
(-0.00882157 2.34693e-09 0.0299916)
(-0.00455607 4.15367e-09 0.00997503)
(0.00180221 2.5575e-09 -0.00620145)
(0.00985767 2.24484e-09 -0.0189182)
(0.0192937 2.03022e-09 -0.0285601)
(0.0299873 1.85461e-09 -0.0356485)
(0.0417516 1.69471e-09 -0.0406871)
(0.0543759 1.53814e-09 -0.0441222)
(0.0676513 1.38156e-09 -0.0463)
(0.0813903 1.24545e-09 -0.047505)
(0.0954157 1.12172e-09 -0.0479719)
(0.109564 1.02154e-09 -0.0478705)
(0.123699 9.3992e-10 -0.0473305)
(0.137708 8.77339e-10 -0.0464505)
(0.151495 8.26893e-10 -0.045306)
(0.164985 7.87632e-10 -0.0439561)
(0.178114 7.56222e-10 -0.0424476)
(0.190831 7.32666e-10 -0.0408177)
(0.203095 7.12917e-10 -0.0390967)
(0.214875 6.97688e-10 -0.0373094)
(0.226145 6.85792e-10 -0.0354765)
(0.236888 6.76036e-10 -0.033615)
(0.24709 6.66519e-10 -0.0317396)
(0.256743 6.59619e-10 -0.0298624)
(0.265843 6.52958e-10 -0.0279941)
(0.274389 6.47485e-10 -0.0261437)
(0.282382 6.42965e-10 -0.0243187)
(0.289828 6.37493e-10 -0.0225259)
(0.296735 6.33211e-10 -0.0207709)
(0.30311 6.27739e-10 -0.0190586)
(0.308966 6.22742e-10 -0.0173929)
(0.314313 6.17032e-10 -0.0157775)
(0.319167 6.10608e-10 -0.014215)
(0.323541 6.02995e-10 -0.0127078)
(0.327451 5.96571e-10 -0.0112577)
(0.330914 5.87529e-10 -0.00986612)
(0.333946 5.79201e-10 -0.00853397)
(0.336564 5.69208e-10 -0.00726189)
(0.338787 5.58501e-10 -0.00605014)