/*--------------------------------*- C++ -*----------------------------------*\
  =========                 |
  \\      /  F ield         | OpenFOAM: The Open Source CFD Toolbox
   \\    /   O peration     | Website:  https://openfoam.org
    \\  /    A nd           | Version:  8
     \\/     M anipulation  |
\*---------------------------------------------------------------------------*/
FoamFile
{
    version     2.0;
    format      ascii;
    class       volScalarField;
    location    "2400";
    object      alphat;
}
// * * * * * * * * * * * * * * * * * * * * * * * * * * * * * * * * * * * * * //

dimensions      [1 -1 -1 0 0 0 0];

internalField   nonuniform List<scalar> 
48000
(
8.2526e-05
7.234e-05
8.95371e-05
0.00010246
0.00011315
0.000122117
0.000129887
0.000136903
0.000143339
0.000149249
0.000154751
0.000159908
0.000164768
0.000169368
0.000173736
0.000177896
0.000181865
0.00018566
0.00018929
0.000192767
0.0001961
0.000199294
0.000202356
0.000205291
0.000208104
0.0002108
0.000213381
0.000215852
0.000218215
0.000220474
0.000222631
0.00022469
0.000226652
0.000228521
0.000230299
0.000231989
0.000233592
0.000235112
0.000236551
0.000237911
0.000239194
0.000240403
0.00024154
0.000242607
0.000243605
0.000244538
0.000245409
0.000246228
0.000246988
0.00024769
0.000248337
0.000248929
0.000249469
0.00024996
0.000250402
0.000250797
0.000251148
0.000251455
0.000251721
0.000251948
0.000252135
0.000252286
0.000252401
0.000252482
0.00025253
0.000252546
0.000252532
0.000252488
0.000252415
0.000252316
0.00025219
0.000252039
0.000251863
0.000251663
0.000251441
0.000251197
0.000250932
0.000250646
0.000250341
0.000250016
0.000249672
0.000249311
0.000248932
0.000248536
0.000248123
0.000247694
0.00024725
0.00024679
0.000246316
0.000245827
0.000245323
0.000244806
0.000244275
0.00024373
0.000243172
0.000242601
0.000242017
0.000241419
0.00024081
0.000240187
0.000239552
0.000238905
0.000238245
0.000237573
0.000236888
0.000236191
0.000235482
0.00023476
0.000234025
0.000233278
0.000232518
0.000231745
0.000230959
0.00023016
0.000229348
0.000228522
0.000227683
0.00022683
0.000225963
0.000225081
0.000224186
0.000223276
0.000222351
0.00022141
0.000220455
0.000219484
0.000218497
0.000217493
0.000216474
0.000215437
0.000214384
0.000213314
0.000212225
0.000211119
0.000209995
0.000208853
0.000207691
0.00020651
0.000205311
0.000204091
0.000202851
0.000201591
0.000200311
0.000199009
0.000197687
0.000196342
0.000194976
0.000193588
0.000192178
0.000190744
0.000189288
0.000187808
0.000186305
0.000184778
0.000183226
0.00018165
0.000180049
0.000178422
0.00017677
0.000175092
0.000173387
0.000171656
0.000169897
0.000168111
0.000166296
0.000164452
0.000162579
0.000160675
0.00015874
0.000156773
0.000154773
0.000152739
0.00015067
0.000148564
0.000146419
0.000144233
0.000142005
0.000139731
0.00013741
0.000135036
0.000132607
0.000130119
0.000127569
0.000124963
0.000122294
0.000119532
0.000116663
0.000113671
0.000110534
0.000107226
0.00010371
9.99384e-05
9.58581e-05
9.14206e-05
8.64528e-05
8.07381e-05
7.39413e-05
6.5648e-05
5.52089e-05
0.000140272
8.25243e-05
7.23409e-05
8.9538e-05
0.00010246
0.00011315
0.000122117
0.000129888
0.000136903
0.000143339
0.000149249
0.000154752
0.000159909
0.000164768
0.000169368
0.000173736
0.000177896
0.000181866
0.00018566
0.000189291
0.000192768
0.0001961
0.000199294
0.000202356
0.000205291
0.000208104
0.0002108
0.000213381
0.000215852
0.000218215
0.000220474
0.000222631
0.00022469
0.000226652
0.000228521
0.000230299
0.000231989
0.000233592
0.000235112
0.000236551
0.000237911
0.000239194
0.000240403
0.00024154
0.000242607
0.000243605
0.000244538
0.000245409
0.000246228
0.000246988
0.00024769
0.000248337
0.000248929
0.000249469
0.00024996
0.000250402
0.000250797
0.000251148
0.000251455
0.000251721
0.000251948
0.000252135
0.000252286
0.000252401
0.000252482
0.00025253
0.000252546
0.000252531
0.000252488
0.000252415
0.000252316
0.00025219
0.000252038
0.000251863
0.000251663
0.000251441
0.000251197
0.000250932
0.000250646
0.00025034
0.000250016
0.000249672
0.000249311
0.000248932
0.000248536
0.000248123
0.000247694
0.00024725
0.00024679
0.000246316
0.000245827
0.000245323
0.000244806
0.000244275
0.00024373
0.000243172
0.000242601
0.000242016
0.000241419
0.00024081
0.000240187
0.000239552
0.000238905
0.000238245
0.000237573
0.000236888
0.000236191
0.000235482
0.00023476
0.000234025
0.000233278
0.000232518
0.000231745
0.000230959
0.00023016
0.000229348
0.000228522
0.000227683
0.00022683
0.000225963
0.000225081
0.000224186
0.000223276
0.00022235
0.00022141
0.000220455
0.000219484
0.000218496
0.000217493
0.000216474
0.000215437
0.000214384
0.000213314
0.000212225
0.000211119
0.000209995
0.000208852
0.000207691
0.00020651
0.00020531
0.000204091
0.000202851
0.000201591
0.000200311
0.000199009
0.000197687
0.000196342
0.000194976
0.000193588
0.000192178
0.000190744
0.000189288
0.000187808
0.000186305
0.000184778
0.000183226
0.00018165
0.000180049
0.000178422
0.00017677
0.000175092
0.000173387
0.000171656
0.000169897
0.000168111
0.000166296
0.000164452
0.000162579
0.000160675
0.00015874
0.000156773
0.000154773
0.000152739
0.00015067
0.000148564
0.000146419
0.000144233
0.000142005
0.000139731
0.00013741
0.000135036
0.000132607
0.000130119
0.000127569
0.000124963
0.000122294
0.000119532
0.000116663
0.000113671
0.000110534
0.000107226
0.00010371
9.99385e-05
9.58581e-05
9.14206e-05
8.6453e-05
8.07383e-05
7.39387e-05
6.56347e-05
5.52403e-05
0.000140563
6.27307e-05
0.000461729
0.000733832
0.000923102
0.00106487
0.00118118
0.00128083
0.0013682
0.00144622
0.00151709
0.00158208
0.00164219
0.00169813
0.00175048
0.00179969
0.00184609
0.00188999
0.00193161
0.00197115
0.00200878
0.00204464
0.00207884
0.00211148
0.00214266
0.00217245
0.00220092
0.00222813
0.00225414
0.002279
0.00230274
0.00232541
0.00234706
0.00236771
0.0023874
0.00240617
0.00242403
0.00244103
0.00245718
0.00247252
0.00248707
0.00250086
0.0025139
0.00252623
0.00253786
0.0025488
0.00255906
0.00256859
0.00257736
0.00258551
0.00259309
0.00260013
0.00260665
0.00261268
0.00261824
0.00262334
0.00262799
0.00263221
0.00263602
0.00263944
0.00264246
0.00264511
0.0026474
0.00264935
0.00265095
0.00265223
0.0026532
0.00265386
0.00265423
0.00265431
0.00265412
0.00265366
0.00265294
0.00265197
0.00265075
0.0026493
0.00264762
0.00264572
0.00264361
0.00264128
0.00263875
0.00263602
0.0026331
0.00262999
0.0026267
0.00262322
0.00261957
0.00261574
0.00261175
0.00260759
0.00260327
0.00259879
0.00259415
0.00258936
0.00258442
0.00257932
0.00257407
0.00256868
0.00256314
0.00255745
0.00255162
0.00254564
0.00253952
0.00253326
0.00252686
0.00252031
0.00251361
0.00250678
0.00249979
0.00249267
0.00248539
0.00247797
0.00247041
0.00246269
0.00245482
0.0024468
0.00243862
0.00243029
0.00242179
0.00241314
0.00240433
0.00239535
0.00238621
0.00237689
0.00236741
0.00235775
0.00234791
0.00233789
0.00232769
0.00231731
0.00230674
0.00229597
0.00228501
0.00227386
0.00226251
0.00225095
0.00223918
0.00222721
0.00221502
0.00220262
0.00219
0.00217716
0.0021641
0.0021508
0.00213728
0.00212352
0.00210952
0.00209529
0.00208081
0.00206608
0.0020511
0.00203587
0.00202038
0.00200464
0.00198862
0.00197234
0.00195579
0.00193897
0.00192186
0.00190447
0.00188679
0.00186882
0.00185054
0.00183197
0.00181308
0.00179387
0.00177433
0.00175446
0.00173424
0.00171367
0.00169273
0.0016714
0.00164968
0.00162755
0.00160497
0.00158194
0.00155842
0.00153439
0.0015098
0.00148462
0.00145879
0.00143224
0.0014049
0.00137663
0.00134726
0.00131666
0.00128479
0.00125152
0.00121663
0.00117984
0.00114075
0.0010988
0.0010531
0.0010021
0.000943644
0.000876029
0.00079531
0.000695068
0.000566022
0.000401517
0.000398975
6.2731e-05
0.000461748
0.000733861
0.000923135
0.0010649
0.00118121
0.00128086
0.00136823
0.00144625
0.00151712
0.00158211
0.00164222
0.00169816
0.00175051
0.00179971
0.00184612
0.00189001
0.00193163
0.00197118
0.00200881
0.00204466
0.00207886
0.0021115
0.00214268
0.00217247
0.00220094
0.00222815
0.00225416
0.00227901
0.00230276
0.00232543
0.00234708
0.00236773
0.00238742
0.00240618
0.00242405
0.00244104
0.0024572
0.00247254
0.00248709
0.00250087
0.00251392
0.00252624
0.00253787
0.00254881
0.00255907
0.0025686
0.00257737
0.00258552
0.0025931
0.00260014
0.00260666
0.0026127
0.00261825
0.00262335
0.002628
0.00263222
0.00263603
0.00263945
0.00264247
0.00264512
0.00264741
0.00264936
0.00265096
0.00265224
0.00265321
0.00265387
0.00265424
0.00265432
0.00265413
0.00265366
0.00265294
0.00265197
0.00265076
0.00264931
0.00264763
0.00264573
0.00264362
0.00264129
0.00263876
0.00263603
0.00263311
0.00263
0.0026267
0.00262323
0.00261958
0.00261575
0.00261176
0.0026076
0.00260328
0.0025988
0.00259416
0.00258937
0.00258442
0.00257933
0.00257408
0.00256869
0.00256315
0.00255746
0.00255163
0.00254565
0.00253953
0.00253327
0.00252686
0.00252031
0.00251362
0.00250678
0.0024998
0.00249268
0.0024854
0.00247798
0.00247041
0.0024627
0.00245483
0.0024468
0.00243863
0.00243029
0.0024218
0.00241315
0.00240434
0.00239536
0.00238621
0.0023769
0.00236741
0.00235775
0.00234792
0.0023379
0.0023277
0.00231732
0.00230674
0.00229598
0.00228502
0.00227387
0.00226251
0.00225095
0.00223919
0.00222722
0.00221503
0.00220263
0.00219001
0.00217717
0.0021641
0.00215081
0.00213729
0.00212353
0.00210953
0.00209529
0.00208081
0.00206609
0.00205111
0.00203588
0.00202039
0.00200464
0.00198863
0.00197235
0.0019558
0.00193897
0.00192187
0.00190448
0.0018868
0.00186882
0.00185055
0.00183197
0.00181308
0.00179387
0.00177434
0.00175447
0.00173425
0.00171368
0.00169273
0.00167141
0.00164969
0.00162755
0.00160498
0.00158195
0.00155843
0.0015344
0.00150981
0.00148463
0.0014588
0.00143225
0.00140491
0.00137664
0.00134726
0.00131666
0.00128479
0.00125152
0.00121664
0.00117984
0.00114075
0.0010988
0.00105311
0.0010021
0.000943646
0.000876022
0.000795265
0.000694883
0.000565524
0.000401646
0.000398946
7.67944e-05
0.000699562
0.00124394
0.00165017
0.00197151
0.00223866
0.0024684
0.00267042
0.00285095
0.00301433
0.00316359
0.00330098
0.00342821
0.00354661
0.00365728
0.00376107
0.0038587
0.00395079
0.00403784
0.00412028
0.00419848
0.00427278
0.00434344
0.00441071
0.00447481
0.00453593
0.00459424
0.00464989
0.00470302
0.00475375
0.00480218
0.00484843
0.00489257
0.00493471
0.00497492
0.00501327
0.00504983
0.00508466
0.00511784
0.0051494
0.00517941
0.00520792
0.00523498
0.00526062
0.00528488
0.00530778
0.0053293
0.00534944
0.00536833
0.00538606
0.00540269
0.00541825
0.00543281
0.00544638
0.00545902
0.00547075
0.0054816
0.0054916
0.00550078
0.00550917
0.00551679
0.00552367
0.00552983
0.00553529
0.00554008
0.00554422
0.00554772
0.0055506
0.00555289
0.0055546
0.00555575
0.00555636
0.00555643
0.00555599
0.00555505
0.00555362
0.00555172
0.00554935
0.00554654
0.00554328
0.0055396
0.00553549
0.00553098
0.00552606
0.00552075
0.00551506
0.00550899
0.00550255
0.00549574
0.00548858
0.00548106
0.00547319
0.00546498
0.00545643
0.00544755
0.00543833
0.00542878
0.0054189
0.0054087
0.00539817
0.00538732
0.00537615
0.00536466
0.00535284
0.00534071
0.00532825
0.00531547
0.00530236
0.00528893
0.00527517
0.00526107
0.00524665
0.00523189
0.00521679
0.00520135
0.00518557
0.00516943
0.00515294
0.0051361
0.00511889
0.00510131
0.00508337
0.00506504
0.00504633
0.00502723
0.00500774
0.00498785
0.00496756
0.00494685
0.00492572
0.00490417
0.00488218
0.00485976
0.0048369
0.00481358
0.0047898
0.00476556
0.00474085
0.00471565
0.00468997
0.00466379
0.00463712
0.00460993
0.00458222
0.00455399
0.00452523
0.00449593
0.00446607
0.00443566
0.00440468
0.00437312
0.00434098
0.00430824
0.0042749
0.00424094
0.00420635
0.00417112
0.00413524
0.00409869
0.00406146
0.00402353
0.00398488
0.00394551
0.00390538
0.00386447
0.00382276
0.00378023
0.00373683
0.00369255
0.00364733
0.00360115
0.00355395
0.00350568
0.00345628
0.00340567
0.00335379
0.00330054
0.00324581
0.00318948
0.0031314
0.00307138
0.00300921
0.0029446
0.00287722
0.00280674
0.00273278
0.00265485
0.00257224
0.00248408
0.00238922
0.00228601
0.00217219
0.00204447
0.0018981
0.00172756
0.00152357
0.00127157
0.000949196
0.000526712
5.90965e-05
7.67948e-05
0.000699587
0.00124399
0.00165023
0.00197158
0.00223873
0.00246847
0.00267049
0.00285102
0.0030144
0.00316366
0.00330104
0.00342827
0.00354667
0.00365733
0.00376112
0.00385876
0.00395084
0.00403789
0.00412032
0.00419853
0.00427282
0.00434348
0.00441075
0.00447485
0.00453597
0.00459428
0.00464993
0.00470305
0.00475377
0.00480221
0.00484845
0.0048926
0.00493474
0.00497494
0.00501329
0.00504985
0.00508468
0.00511785
0.00514942
0.00517943
0.00520794
0.00523499
0.00526063
0.00528489
0.00530779
0.00532931
0.00534945
0.00536834
0.00538607
0.0054027
0.00541826
0.00543282
0.00544639
0.00545903
0.00547076
0.00548161
0.00549161
0.00550079
0.00550918
0.0055168
0.00552368
0.00552984
0.0055353
0.00554009
0.00554422
0.00554772
0.00555061
0.0055529
0.00555461
0.00555576
0.00555636
0.00555644
0.005556
0.00555505
0.00555363
0.00555172
0.00554936
0.00554654
0.00554328
0.0055396
0.00553549
0.00553098
0.00552607
0.00552076
0.00551506
0.00550899
0.00550255
0.00549575
0.00548858
0.00548106
0.0054732
0.00546499
0.00545644
0.00544755
0.00543833
0.00542878
0.0054189
0.0054087
0.00539817
0.00538732
0.00537615
0.00536466
0.00535284
0.00534071
0.00532825
0.00531547
0.00530236
0.00528893
0.00527517
0.00526107
0.00524665
0.00523189
0.00521679
0.00520135
0.00518557
0.00516943
0.00515294
0.0051361
0.00511889
0.00510131
0.00508336
0.00506504
0.00504633
0.00502723
0.00500774
0.00498785
0.00496755
0.00494685
0.00492572
0.00490417
0.00488218
0.00485976
0.0048369
0.00481358
0.0047898
0.00476556
0.00474084
0.00471565
0.00468997
0.00466379
0.00463712
0.00460993
0.00458222
0.00455399
0.00452523
0.00449593
0.00446607
0.00443566
0.00440468
0.00437312
0.00434098
0.00430824
0.0042749
0.00424094
0.00420635
0.00417112
0.00413524
0.00409869
0.00406145
0.00402353
0.00398488
0.00394551
0.00390537
0.00386447
0.00382276
0.00378022
0.00373683
0.00369255
0.00364733
0.00360115
0.00355395
0.00350568
0.00345628
0.00340567
0.00335379
0.00330054
0.00324581
0.00318948
0.0031314
0.00307138
0.00300921
0.0029446
0.00287722
0.00280674
0.00273278
0.00265485
0.00257224
0.00248408
0.00238922
0.00228601
0.00217219
0.00204447
0.0018981
0.00172755
0.00152356
0.00127152
0.000949143
0.000527009
5.91075e-05
8.71312e-05
0.00084044
0.00158089
0.00216904
0.00265008
0.00305679
0.0034097
0.00372188
0.00400204
0.0042563
0.00448905
0.00470358
0.00490242
0.00508757
0.00526063
0.00542292
0.00557553
0.00571937
0.00585525
0.00598383
0.0061057
0.00622137
0.0063313
0.00643587
0.00653544
0.00663033
0.0067208
0.00680712
0.00688951
0.00696818
0.0070433
0.00711505
0.00718358
0.00724905
0.00731156
0.00737126
0.00742824
0.00748263
0.00753451
0.00758397
0.00763111
0.007676
0.00771871
0.00775932
0.00779788
0.00783443
0.00786902
0.00790166
0.00793249
0.00796159
0.00798904
0.00801491
0.00803926
0.00806215
0.00808363
0.00810375
0.00812255
0.00814009
0.00815641
0.00817153
0.00818551
0.00819837
0.00821016
0.0082209
0.00823063
0.00823938
0.00824717
0.00825404
0.00826001
0.00826512
0.00826937
0.0082728
0.00827543
0.00827727
0.00827836
0.00827871
0.00827834
0.00827726
0.00827549
0.00827306
0.00826996
0.00826623
0.00826186
0.00825689
0.0082513
0.00824513
0.00823837
0.00823104
0.00822315
0.0082147
0.00820571
0.00819617
0.00818611
0.00817551
0.0081644
0.00815276
0.00814061
0.00812796
0.00811479
0.00810112
0.00808695
0.00807227
0.0080571
0.00804142
0.00802524
0.00800855
0.00799136
0.00797367
0.00795546
0.00793675
0.00791751
0.00789776
0.00787748
0.00785668
0.00783534
0.00781346
0.00779104
0.00776806
0.00774453
0.00772043
0.00769576
0.0076705
0.00764466
0.00761822
0.00759117
0.00756351
0.00753523
0.00750631
0.00747675
0.00744653
0.00741566
0.00738411
0.00735187
0.00731894
0.0072853
0.00725094
0.00721586
0.00718003
0.00714345
0.00710611
0.00706799
0.00702908
0.00698936
0.00694883
0.00690747
0.00686527
0.0068222
0.00677826
0.00673343
0.0066877
0.00664104
0.00659345
0.00654489
0.00649536
0.00644483
0.00639328
0.00634069
0.00628703
0.00623228
0.0061764
0.00611937
0.00606116
0.00600172
0.00594102
0.00587902
0.00581567
0.00575091
0.0056847
0.00561696
0.00554763
0.00547662
0.00540385
0.00532922
0.00525262
0.00517391
0.00509296
0.00500959
0.0049236
0.00483476
0.00474281
0.00464743
0.00454822
0.00444473
0.00433643
0.00422267
0.00410272
0.00397562
0.00384016
0.0036948
0.0035375
0.00336558
0.00317553
0.00296254
0.00272012
0.00243977
0.00210976
0.00171324
0.00122785
0.000634107
6.53392e-05
8.71319e-05
0.000840466
0.00158094
0.00216912
0.00265017
0.00305689
0.0034098
0.00372198
0.00400214
0.0042564
0.00448914
0.00470367
0.00490251
0.00508766
0.00526072
0.005423
0.0055756
0.00571945
0.00585532
0.0059839
0.00610577
0.00622144
0.00633136
0.00643593
0.0065355
0.00663038
0.00672085
0.00680717
0.00688956
0.00696822
0.00704334
0.00711509
0.00718362
0.00724908
0.00731159
0.00737129
0.00742827
0.00748265
0.00753453
0.00758399
0.00763113
0.00767602
0.00771873
0.00775934
0.00779789
0.00783445
0.00786903
0.00790167
0.0079325
0.0079616
0.00798905
0.00801492
0.00803927
0.00806215
0.00808363
0.00810375
0.00812256
0.0081401
0.00815641
0.00817153
0.00818551
0.00819837
0.00821016
0.0082209
0.00823063
0.00823938
0.00824717
0.00825404
0.00826002
0.00826512
0.00826937
0.0082728
0.00827543
0.00827727
0.00827836
0.00827871
0.00827833
0.00827726
0.00827549
0.00827305
0.00826996
0.00826623
0.00826186
0.00825688
0.0082513
0.00824512
0.00823837
0.00823104
0.00822314
0.0082147
0.0082057
0.00819617
0.0081861
0.00817551
0.00816439
0.00815276
0.00814061
0.00812795
0.00811479
0.00810112
0.00808694
0.00807227
0.00805709
0.00804141
0.00802523
0.00800855
0.00799136
0.00797366
0.00795546
0.00793674
0.00791751
0.00789775
0.00787748
0.00785667
0.00783533
0.00781345
0.00779103
0.00776805
0.00774452
0.00772042
0.00769575
0.00767049
0.00764465
0.00761821
0.00759117
0.00756351
0.00753522
0.0075063
0.00747674
0.00744653
0.00741565
0.0073841
0.00735186
0.00731893
0.00728529
0.00725094
0.00721585
0.00718002
0.00714345
0.0071061
0.00706798
0.00702907
0.00698935
0.00694882
0.00690746
0.00686526
0.00682219
0.00677825
0.00673342
0.00668769
0.00664103
0.00659344
0.00654488
0.00649535
0.00644482
0.00639327
0.00634068
0.00628702
0.00623227
0.00617639
0.00611936
0.00606115
0.00600171
0.00594101
0.00587901
0.00581566
0.0057509
0.00568469
0.00561695
0.00554762
0.00547661
0.00540384
0.00532921
0.00525261
0.00517391
0.00509295
0.00500958
0.00492359
0.00483475
0.0047428
0.00464742
0.00454821
0.00444473
0.00433642
0.00422267
0.00410271
0.00397561
0.00384015
0.00369479
0.00353749
0.00336558
0.00317552
0.00296254
0.00272012
0.00243977
0.00210976
0.00171324
0.00122786
0.000634196
6.53433e-05
9.54532e-05
0.000937803
0.00182148
0.00255358
0.00316651
0.00369203
0.00415216
0.00456185
0.00493144
0.00526828
0.00557778
0.00586398
0.00613002
0.00637837
0.00661103
0.00682964
0.00703556
0.00722995
0.0074138
0.00758796
0.00775318
0.00791011
0.00805934
0.00820138
0.00833668
0.00846567
0.00858871
0.00870614
0.00881826
0.00892536
0.00902768
0.00912546
0.00921891
0.00930822
0.00939359
0.00947517
0.00955312
0.00962759
0.00969871
0.00976662
0.00983143
0.00989325
0.00995218
0.0100083
0.0100618
0.0101126
0.0101608
0.0102066
0.01025
0.0102911
0.0103301
0.0103669
0.0104018
0.0104347
0.0104657
0.010495
0.0105225
0.0105483
0.0105725
0.0105951
0.0106162
0.0106359
0.0106541
0.0106709
0.0106864
0.0107006
0.0107136
0.0107253
0.0107358
0.0107452
0.0107535
0.0107606
0.0107667
0.0107718
0.0107758
0.0107789
0.010781
0.0107822
0.0107825
0.0107818
0.0107803
0.0107779
0.0107747
0.0107707
0.0107659
0.0107603
0.0107539
0.0107467
0.0107388
0.0107301
0.0107207
0.0107106
0.0106998
0.0106883
0.010676
0.0106631
0.0106495
0.0106351
0.0106201
0.0106045
0.0105881
0.0105711
0.0105534
0.010535
0.010516
0.0104962
0.0104758
0.0104547
0.0104329
0.0104105
0.0103873
0.0103634
0.0103389
0.0103136
0.0102876
0.0102608
0.0102334
0.0102052
0.0101762
0.0101465
0.010116
0.0100847
0.0100526
0.0100197
0.00998599
0.00995145
0.00991607
0.00987984
0.00984273
0.00980474
0.00976585
0.00972605
0.00968532
0.00964364
0.00960101
0.00955741
0.00951281
0.00946721
0.00942058
0.00937291
0.00932418
0.00927437
0.00922346
0.00917143
0.00911827
0.00906395
0.00900844
0.00895173
0.0088938
0.00883461
0.00877415
0.00871238
0.00864928
0.00858482
0.00851896
0.00845168
0.00838294
0.00831269
0.0082409
0.00816752
0.00809251
0.00801582
0.00793738
0.00785714
0.00777504
0.00769099
0.00760493
0.00751675
0.00742637
0.00733368
0.00723855
0.00714085
0.00704043
0.00693712
0.00683072
0.00672101
0.00660774
0.00649061
0.00636928
0.00624335
0.00611234
0.00597572
0.00583281
0.00568284
0.00552488
0.00535781
0.00518025
0.00499047
0.00478632
0.00456503
0.0043231
0.00405598
0.0037578
0.00342089
0.00303539
0.00258881
0.00206476
0.0014445
0.000720954
7.16375e-05
9.54539e-05
0.00093783
0.00182155
0.00255367
0.00316662
0.00369214
0.00415228
0.00456197
0.00493156
0.00526841
0.0055779
0.0058641
0.00613013
0.00637848
0.00661114
0.00682975
0.00703566
0.00723005
0.00741389
0.00758805
0.00775327
0.0079102
0.00805942
0.00820145
0.00833675
0.00846573
0.00858877
0.0087062
0.00881832
0.00892541
0.00902773
0.00912551
0.00921895
0.00930827
0.00939363
0.00947521
0.00955315
0.00962762
0.00969875
0.00976665
0.00983146
0.00989327
0.00995221
0.0100083
0.0100618
0.0101126
0.0101609
0.0102066
0.01025
0.0102911
0.0103301
0.0103669
0.0104018
0.0104347
0.0104657
0.010495
0.0105225
0.0105483
0.0105725
0.0105951
0.0106162
0.0106359
0.0106541
0.0106709
0.0106864
0.0107006
0.0107136
0.0107253
0.0107358
0.0107452
0.0107535
0.0107606
0.0107667
0.0107718
0.0107758
0.0107789
0.010781
0.0107822
0.0107824
0.0107818
0.0107803
0.0107779
0.0107747
0.0107707
0.0107659
0.0107603
0.0107539
0.0107467
0.0107388
0.0107301
0.0107207
0.0107106
0.0106998
0.0106882
0.010676
0.0106631
0.0106494
0.0106351
0.0106201
0.0106045
0.0105881
0.0105711
0.0105534
0.010535
0.010516
0.0104962
0.0104758
0.0104547
0.0104329
0.0104105
0.0103873
0.0103634
0.0103389
0.0103136
0.0102876
0.0102608
0.0102334
0.0102051
0.0101762
0.0101465
0.0101159
0.0100847
0.0100526
0.0100197
0.00998598
0.00995144
0.00991606
0.00987982
0.00984272
0.00980473
0.00976584
0.00972603
0.0096853
0.00964363
0.009601
0.0095574
0.0095128
0.0094672
0.00942057
0.0093729
0.00932417
0.00927436
0.00922345
0.00917142
0.00911826
0.00906393
0.00900843
0.00895172
0.00889379
0.0088346
0.00877414
0.00871237
0.00864927
0.00858481
0.00851895
0.00845167
0.00838292
0.00831267
0.00824088
0.00816751
0.0080925
0.0080158
0.00793737
0.00785713
0.00777502
0.00769098
0.00760491
0.00751674
0.00742636
0.00733366
0.00723853
0.00714084
0.00704042
0.00693711
0.00683071
0.006721
0.00660773
0.0064906
0.00636926
0.00624333
0.00611233
0.00597571
0.0058328
0.00568283
0.00552487
0.0053578
0.00518024
0.00499046
0.00478631
0.00456503
0.00432309
0.00405598
0.0037578
0.00342088
0.00303539
0.00258881
0.00206476
0.0014445
0.000720969
7.16383e-05
0.000102538
0.00101572
0.00200834
0.00285374
0.00357378
0.00419811
0.00474912
0.00524273
0.00569029
0.00610002
0.006478
0.00682884
0.00715611
0.00746261
0.00775061
0.00802197
0.00827825
0.00852075
0.00875059
0.00896874
0.00917606
0.0093733
0.00956111
0.0097401
0.0099108
0.0100737
0.0102292
0.0103778
0.0105198
0.0106555
0.0107852
0.0109093
0.0110279
0.0111414
0.01125
0.0113538
0.0114531
0.011548
0.0116388
0.0117255
0.0118084
0.0118875
0.011963
0.0120351
0.0121038
0.0121693
0.0122317
0.0122909
0.0123473
0.0124009
0.0124517
0.0125
0.0125458
0.0125891
0.0126302
0.012669
0.0127057
0.0127402
0.0127728
0.0128034
0.0128321
0.0128591
0.0128842
0.0129076
0.0129294
0.0129496
0.0129682
0.0129853
0.0130009
0.0130151
0.0130279
0.0130393
0.0130495
0.0130583
0.0130659
0.0130723
0.0130775
0.0130816
0.0130845
0.0130863
0.013087
0.0130866
0.0130853
0.0130829
0.0130795
0.0130751
0.0130697
0.0130634
0.0130562
0.013048
0.013039
0.013029
0.0130181
0.0130064
0.0129938
0.0129803
0.012966
0.0129508
0.0129348
0.0129179
0.0129002
0.0128816
0.0128622
0.012842
0.0128209
0.012799
0.0127762
0.0127525
0.0127281
0.0127027
0.0126765
0.0126494
0.0126215
0.0125926
0.0125628
0.0125322
0.0125006
0.0124681
0.0124346
0.0124002
0.0123649
0.0123285
0.0122912
0.0122528
0.0122135
0.012173
0.0121316
0.012089
0.0120454
0.0120007
0.0119548
0.0119078
0.0118596
0.0118102
0.0117597
0.0117079
0.0116548
0.0116005
0.0115449
0.011488
0.0114297
0.0113701
0.0113091
0.0112467
0.0111828
0.0111174
0.0110506
0.0109822
0.0109122
0.0108407
0.0107675
0.0106926
0.010616
0.0105377
0.0104576
0.0103756
0.0102918
0.010206
0.0101182
0.0100283
0.00993633
0.00984214
0.00974569
0.00964687
0.00954561
0.0094418
0.00933533
0.00922608
0.00911393
0.00899872
0.00888028
0.00875845
0.008633
0.00850371
0.00837032
0.00823252
0.00808998
0.0079423
0.00778903
0.00762963
0.00746349
0.00728988
0.00710794
0.00691666
0.00671483
0.00650098
0.00627335
0.00602976
0.00576752
0.00548329
0.0051729
0.00483113
0.0044514
0.00402546
0.00354301
0.00299146
0.00235598
0.0016221
0.000793093
7.70351e-05
0.000102539
0.00101575
0.00200841
0.00285383
0.00357389
0.00419824
0.00474925
0.00524287
0.00569043
0.00610016
0.00647814
0.00682898
0.00715625
0.00746274
0.00775074
0.0080221
0.00827837
0.00852087
0.0087507
0.00896885
0.00917617
0.0093734
0.00956121
0.00974019
0.00991089
0.0100738
0.0102293
0.0103779
0.0105198
0.0106555
0.0107853
0.0109093
0.011028
0.0111415
0.01125
0.0113539
0.0114531
0.0115481
0.0116388
0.0117255
0.0118084
0.0118875
0.0119631
0.0120352
0.0121039
0.0121694
0.0122317
0.012291
0.0123473
0.0124009
0.0124518
0.0125
0.0125458
0.0125892
0.0126302
0.012669
0.0127057
0.0127403
0.0127728
0.0128034
0.0128322
0.0128591
0.0128842
0.0129076
0.0129294
0.0129496
0.0129682
0.0129853
0.0130009
0.0130151
0.0130279
0.0130393
0.0130495
0.0130583
0.0130659
0.0130723
0.0130775
0.0130816
0.0130845
0.0130863
0.013087
0.0130866
0.0130853
0.0130829
0.0130795
0.0130751
0.0130697
0.0130634
0.0130562
0.013048
0.013039
0.013029
0.0130181
0.0130064
0.0129938
0.0129803
0.012966
0.0129508
0.0129348
0.0129179
0.0129002
0.0128816
0.0128622
0.012842
0.0128209
0.0127989
0.0127762
0.0127525
0.0127281
0.0127027
0.0126765
0.0126494
0.0126214
0.0125926
0.0125628
0.0125322
0.0125006
0.0124681
0.0124346
0.0124002
0.0123649
0.0123285
0.0122912
0.0122528
0.0122134
0.012173
0.0121316
0.012089
0.0120454
0.0120006
0.0119548
0.0119078
0.0118596
0.0118102
0.0117597
0.0117079
0.0116548
0.0116005
0.0115449
0.011488
0.0114297
0.0113701
0.0113091
0.0112466
0.0111828
0.0111174
0.0110505
0.0109822
0.0109122
0.0108406
0.0107675
0.0106926
0.010616
0.0105377
0.0104576
0.0103756
0.0102918
0.010206
0.0101182
0.0100283
0.00993631
0.00984213
0.00974567
0.00964686
0.00954559
0.00944178
0.00933532
0.00922607
0.00911392
0.0089987
0.00888027
0.00875843
0.00863299
0.0085037
0.00837031
0.00823251
0.00808997
0.00794229
0.00778901
0.00762962
0.00746347
0.00728986
0.00710793
0.00691665
0.00671481
0.00650097
0.00627334
0.00602975
0.00576751
0.00548328
0.00517289
0.00483112
0.00445139
0.00402546
0.00354301
0.00299146
0.00235598
0.00162211
0.000793093
7.70352e-05
0.000108985
0.00108227
0.00216247
0.00309878
0.00390609
0.00461228
0.00523968
0.00580475
0.00631948
0.00679267
0.0072309
0.00763917
0.00802134
0.00838047
0.00871901
0.00903897
0.00934201
0.00962953
0.00990274
0.0101627
0.0104102
0.0106462
0.0108713
0.0110863
0.0112916
0.0114877
0.0116753
0.0118547
0.0120262
0.0121904
0.0123475
0.0124979
0.0126419
0.0127796
0.0129115
0.0130378
0.0131586
0.0132742
0.0133848
0.0134906
0.0135918
0.0136885
0.013781
0.0138693
0.0139536
0.014034
0.0141107
0.0141838
0.0142534
0.0143197
0.0143827
0.0144427
0.0144997
0.0145538
0.0146052
0.0146539
0.0147
0.0147436
0.0147848
0.0148237
0.0148604
0.0148949
0.0149273
0.0149576
0.014986
0.0150124
0.015037
0.0150598
0.0150809
0.0151003
0.015118
0.0151341
0.0151486
0.0151616
0.0151732
0.0151832
0.0151919
0.0151992
0.0152052
0.0152098
0.0152132
0.0152153
0.0152162
0.0152158
0.0152143
0.0152116
0.0152078
0.0152028
0.0151967
0.0151895
0.0151813
0.015172
0.0151616
0.0151502
0.0151377
0.0151243
0.0151098
0.0150943
0.0150778
0.0150603
0.0150417
0.0150222
0.0150017
0.0149802
0.0149577
0.0149342
0.0149096
0.0148841
0.0148576
0.01483
0.0148014
0.0147718
0.0147411
0.0147093
0.0146765
0.0146426
0.0146076
0.0145715
0.0145343
0.014496
0.0144565
0.0144158
0.0143739
0.0143309
0.0142866
0.0142411
0.0141943
0.0141462
0.0140969
0.0140462
0.0139941
0.0139407
0.0138859
0.0138297
0.013772
0.0137129
0.0136522
0.01359
0.0135263
0.013461
0.0133941
0.0133255
0.0132552
0.0131832
0.0131095
0.013034
0.0129567
0.0128775
0.0127964
0.0127133
0.0126283
0.0125412
0.0124521
0.0123608
0.0122673
0.0121715
0.0120734
0.0119729
0.01187
0.0117645
0.0116565
0.0115457
0.011432
0.0113155
0.011196
0.0110732
0.0109472
0.0108178
0.0106847
0.0105478
0.0104069
0.0102618
0.0101121
0.00995771
0.00979816
0.00963312
0.00946216
0.00928478
0.00910042
0.00890843
0.00870804
0.00849837
0.00827836
0.00804678
0.00780217
0.00754275
0.00726643
0.00697065
0.00665228
0.00630754
0.00593176
0.00551925
0.00506301
0.00455453
0.00398355
0.003338
0.00260488
0.00177338
0.000855107
8.17735e-05
0.000108985
0.0010823
0.00216254
0.00309887
0.00390621
0.00461241
0.00523982
0.0058049
0.00631963
0.00679282
0.00723106
0.00763932
0.00802149
0.00838062
0.00871916
0.00903911
0.00934214
0.00962966
0.00990287
0.0101628
0.0104103
0.0106463
0.0108715
0.0110864
0.0112917
0.0114878
0.0116754
0.0118547
0.0120263
0.0121905
0.0123476
0.012498
0.0126419
0.0127797
0.0129116
0.0130378
0.0131586
0.0132743
0.0133849
0.0134907
0.0135919
0.0136886
0.013781
0.0138693
0.0139536
0.014034
0.0141107
0.0141838
0.0142534
0.0143197
0.0143828
0.0144427
0.0144997
0.0145538
0.0146052
0.0146539
0.0147
0.0147436
0.0147848
0.0148237
0.0148604
0.0148949
0.0149273
0.0149576
0.014986
0.0150124
0.015037
0.0150599
0.0150809
0.0151003
0.015118
0.0151341
0.0151486
0.0151616
0.0151732
0.0151832
0.0151919
0.0151992
0.0152052
0.0152098
0.0152132
0.0152153
0.0152162
0.0152158
0.0152143
0.0152116
0.0152078
0.0152028
0.0151967
0.0151895
0.0151813
0.015172
0.0151616
0.0151502
0.0151377
0.0151243
0.0151098
0.0150943
0.0150778
0.0150602
0.0150417
0.0150222
0.0150017
0.0149802
0.0149577
0.0149342
0.0149096
0.0148841
0.0148576
0.01483
0.0148014
0.0147717
0.0147411
0.0147093
0.0146765