/*--------------------------------*- C++ -*----------------------------------*\
  =========                 |
  \\      /  F ield         | OpenFOAM: The Open Source CFD Toolbox
   \\    /   O peration     | Website:  https://openfoam.org
    \\  /    A nd           | Version:  8
     \\/     M anipulation  |
\*---------------------------------------------------------------------------*/
FoamFile
{
    version     2.0;
    format      ascii;
    class       volScalarField;
    location    "2400";
    object      epsilon;
}
// * * * * * * * * * * * * * * * * * * * * * * * * * * * * * * * * * * * * * //

dimensions      [0 2 -3 0 0 0 0];

internalField   nonuniform List<scalar> 
48000
(
0.750679
2.97095
5.63426
8.44436
11.3729
14.2968
17.2034
20.1456
23.1217
26.1015
29.0963
32.1034
35.1205
38.1449
41.1736
44.203
47.2292
50.2479
53.2545
56.2445
59.2128
62.1545
65.0648
67.9388
70.7716
73.5587
76.2956
78.9781
81.6021
84.1641
86.6606
89.0885
91.445
93.7277
95.9343
98.0631
100.113
102.081
103.969
105.774
107.497
109.137
110.694
112.169
113.562
114.873
116.106
117.273
118.365
119.379
120.317
121.182
121.974
122.696
123.35
123.936
124.458
124.917
125.316
125.655
125.937
126.164
126.338
126.461
126.533
126.559
126.538
126.472
126.364
126.216
126.027
125.801
125.539
125.242
124.911
124.548
124.154
123.731
123.279
122.8
122.295
121.765
121.21
120.633
120.034
119.413
118.771
118.11
117.431
116.732
116.017
115.284
114.536
113.771
112.992
112.197
111.389
110.566
109.731
108.882
108.021
107.148
106.262
105.366
104.457
103.538
102.607
101.666
100.715
99.7531
98.7812
97.7994
96.8077
95.8064
94.7956
93.7754
92.7459
91.7073
90.6596
89.603
88.5375
87.4633
86.3806
85.2893
84.1897
83.0818
81.9658
80.8419
79.7101
78.5706
77.4236
76.2693
75.1079
73.9395
72.7644
71.5828
70.395
69.2012
68.0017
66.7968
65.5868
64.372
63.1529
61.9297
60.7028
59.4727
58.2398
57.0044
55.7671
54.5284
53.2887
52.0485
50.8083
49.5687
48.3302
47.0934
45.8587
44.6269
43.3984
42.1739
40.9539
39.739
38.5297
37.3267
36.1306
34.9418
33.7609
32.5886
31.4252
30.2713
29.1273
27.9938
26.8711
25.7596
24.6597
23.5717
22.4958
21.4324
20.3814
19.3432
18.3179
17.3058
16.308
15.3288
14.3673
13.4157
12.4726
11.5373
10.6082
9.68385
8.76216
7.84053
6.91883
6.00171
5.07513
4.13099
3.15642
2.12667
1.04158
0.201182
0.750717
2.97106
5.63444
8.44459
11.3732
14.297
17.2037
20.146
23.122
26.1019
29.0967
32.1037
35.1208
38.1452
41.1739
44.2033
47.2295
50.2482
53.2549
56.2448
59.2131
62.1548
65.0651
67.939
70.7719
73.5589
76.2958
78.9783
81.6023
84.1643
86.6608
89.0887
91.4452
93.7278
95.9344
98.0632
100.113
102.081
103.969
105.774
107.497
109.137
110.694
112.169
113.562
114.873
116.106
117.274
118.365
119.379
120.317
121.182
121.974
122.696
123.35
123.936
124.458
124.917
125.316
125.655
125.937
126.164
126.338
126.461
126.533
126.558
126.538
126.472
126.364
126.216
126.027
125.801
125.539
125.242
124.911
124.548
124.154
123.731
123.279
122.8
122.295
121.765
121.21
120.633
120.033
119.413
118.771
118.11
117.43
116.732
116.017
115.284
114.536
113.771
112.991
112.197
111.389
110.566
109.731
108.882
108.021
107.148
106.262
105.365
104.457
103.538
102.607
101.666
100.715
99.753
98.7811
97.7993
96.8077
95.8064
94.7956
93.7754
92.7459
91.7072
90.6595
89.6029
88.5375
87.4633
86.3805
85.2893
84.1896
83.0818
81.9658
80.8418
79.71
78.5706
77.4236
76.2693
75.1078
73.9395
72.7644
71.5828
70.395
69.2011
68.0016
66.7967
65.5867
64.372
63.1528
61.9296
60.7028
59.4727
58.2397
57.0044
55.7671
54.5284
53.2886
52.0484
50.8083
49.5687
48.3302
47.0933
45.8587
44.6269
43.3984
42.1739
40.9538
39.7389
38.5297
37.3267
36.1306
34.9418
33.7609
32.5886
31.4252
30.2713
29.1273
27.9938
26.8711
25.7596
24.6597
23.5717
22.4958
21.4324
20.3814
19.3432
18.3179
17.3059
16.308
15.3288
14.3673
13.4157
12.4726
11.5373
10.6082
9.68386
8.76216
7.84053
6.91883
6.00172
5.07515
4.13106
3.1567
2.12734
1.04111
0.20086
3.5084
3.0147
3.87477
4.93307
6.08395
7.27748
8.48865
9.72059
10.9725
12.2409
13.5252
14.8245
16.1377
17.4632
18.7992
20.1437
21.4944
22.8489
24.2046
25.5588
26.9085
28.2509
29.5832
30.9026
32.2061
33.4913
34.7554
35.996
37.2109
38.3979
39.555
40.6805
41.7728
42.8304
43.8521
44.837
45.7841
46.6927
47.5623
48.3926
49.1833
49.9343
50.6457
51.3176
51.9504
52.5448
53.1024
53.6256
54.1129
54.564
54.9793
55.3595
55.7054
56.0177
56.2975
56.5457
56.7631
56.9508
57.1097
57.2409
57.3452
57.4236
57.477
57.5065
57.5128
57.497
57.4598
57.4022
57.325
57.2289
57.1148
56.9835
56.8356
56.6719
56.4931
56.2999
56.0928
55.8725
55.6396
55.3946
55.1382
54.8707
54.5926
54.3046
54.0069
53.7001
53.3844
53.0604
52.7283
52.3885
52.0414
51.6871
51.3261
50.9586
50.5847
50.2049
49.8192
49.428
49.0313
48.6294
48.2225
47.8106
47.394
46.9728
46.547
46.1169
45.6825
45.244
44.8013
44.3546
43.9041
43.4496
42.9914
42.5295
42.0639
41.5947
41.122
40.6457
40.166
39.6829
39.1965
38.7067
38.2137
37.7174
37.218
36.7155
36.21
35.7014
35.19
34.6756
34.1585
33.6386
33.1162
32.5911
32.0637
31.5338
31.0017
30.4675
29.9313
29.3932
28.8534
28.3119
27.769
27.2248
26.6795
26.1332
25.5862
25.0386
24.4906
23.9424
23.3943
22.8465
22.2991
21.7525
21.2068
20.6623
20.1192
19.5778
19.0384
18.5012
17.9663
17.4342
16.9051
16.3791
15.8565
15.3377
14.8227
14.3119
13.8055
13.3036
12.8066
12.3145
11.8275
11.3459
10.8697
10.3991
9.93418
9.47506
9.0218
8.57446
8.13313
7.69791
7.26903
6.84688
6.43108
6.02029
5.61442
5.21345
4.81674
4.42398
4.03481
3.64915
3.26779
2.89198
2.51977
2.1515
1.78936
1.43576
1.0665
0.330612
3.50855
3.01468
3.87469
4.93297
6.08382
7.27733
8.48849
9.72042
10.9723
12.2407
13.525
14.8243
16.1375
17.4629
18.7989
20.1434
21.4942
22.8487
24.2044
25.5585
26.9082
28.2506
29.5829
30.9023
32.2058
33.491
34.7551
35.9957
37.2106
38.3976
39.5547
40.6802
41.7724
42.8301
43.8518
44.8367
45.7837
46.6924
47.562
48.3923
49.1829
49.934
50.6453
51.3173
51.9501
52.5445
53.1021
53.6252
54.1125
54.5636
54.979
55.3592
55.705
56.0174
56.2972
56.5453
56.7628
56.9505
57.1094
57.2405
57.3448
57.4232
57.4767
57.5061
57.5125
57.4967
57.4595
57.4019
57.3247
57.2286
57.1145
56.9832
56.8353
56.6716
56.4928
56.2996
56.0925
55.8722
55.6393
55.3943
55.1379
54.8704
54.5923
54.3043
54.0066
53.6998
53.3841
53.0601
52.728
52.3882
52.0411
51.6868
51.3258
50.9583
50.5845
50.2046
49.819
49.4277
49.031
48.6291
48.2222
47.8103
47.3937
46.9725
46.5468
46.1167
45.6823
45.2437
44.801
44.3544
43.9038
43.4494
42.9912
42.5293
42.0637
41.5945
41.1218
40.6455
40.1658
39.6827
39.1963
38.7065
38.2135
37.7172
37.2178
36.7153
36.2098
35.7012
35.1898
34.6754
34.1583
33.6384
33.116
32.5909
32.0635
31.5336
31.0016
30.4674
29.9311
29.393
28.8532
28.3117
27.7688
27.2246
26.6793
26.1331
25.586
25.0384
24.4904
23.9423
23.3942
22.8463
22.299
21.7523
21.2066
20.6621
20.1191
19.5777
19.0383
18.501
17.9662
17.4341
16.9049
16.379
15.8564
15.3376
14.8226
14.3118
13.8054
13.3036
12.8065
12.3144
11.8274
11.3458
10.8696
10.399
9.93411
9.47499
9.02173
8.5744
8.13307
7.69785
7.26897
6.84683
6.43103
6.02024
5.61437
5.21341
4.81671
4.42395
4.03478
3.64912
3.26777
2.89197
2.51977
2.15161
1.78982
1.43707
1.06644
0.330644
6.43776
4.04849
4.32543
4.96673
5.73914
6.57897
7.45945
8.3695
9.30312
10.2563
11.2265
12.2119
13.2109
14.2218
15.243
16.2727
17.309
18.3499
19.3932
20.4367
21.478
22.5148
23.5448
24.5655
25.5746
26.57
27.5495
28.5109
29.4524
30.3722
31.2686
32.1401
32.9854
33.8033
34.5927
35.3527
36.0827
36.782
37.4502
38.087
38.6921
39.2656
39.8074
40.3178
40.7971
41.2457
41.6645
42.0545
42.4156
42.748
43.0522
43.3285
43.5778
43.8006
43.9976
44.1697
44.3176
44.4421
44.5439
44.6239
44.6828
44.7214
44.7406
44.7409
44.7233
44.6884
44.637
44.5697
44.4872
44.3902
44.2794
44.1552
44.0185
43.8696
43.7093
43.5379
43.3561
43.1643
42.963
42.7527
42.5338
42.3066
42.0717
41.8293
41.5798
41.3236
41.061
40.7922
40.5177
40.2375
39.9521
39.6616
39.3663
39.0663
38.7619
38.4533
38.1406
37.8241
37.5037
37.1798
36.8524
36.5216
36.1876
35.8505
35.5103
35.1672
34.8212
34.4724
34.121
33.7668
33.4101
33.0508
32.6891
32.3249
31.9583
31.5894
31.2182
30.8447
30.4689
30.091
29.7109
29.3287
28.9444
28.5581
28.1697
27.7794
27.3872
26.993
26.5971
26.1993
25.7999
25.3987
24.996
24.5917
24.1859
23.7787
23.3702
22.9605
22.5497
22.1378
21.725
21.3113
20.8969
20.482
20.0665
19.6508
19.2348
18.8188
18.4029
17.9873
17.5721
17.1574
16.7435
16.3306
15.9187
15.5081
15.099
14.6916
14.286
13.8824
13.4811
13.0821
12.6858
12.2923
11.9017
11.5143
11.1301
10.7495
10.3726
9.99948
9.63033
9.26529
8.9045
8.54809
8.19615
7.84881
7.50614
7.16823
6.83514
6.50696
6.18374
5.86556
5.55251
5.24465
4.94187
4.64391
4.35071
4.0622
3.7783
3.49941
3.22565
2.95751
2.69594
2.44253
2.19914
1.97017
1.76579
1.61167
1.5962
2.63209
6.43798
4.04843
4.3253
4.96657
5.73896
6.57878
7.45924
8.36928
9.30289
10.2561
11.2263
12.2117
13.2106
14.2215
15.2427
16.2724
17.3087
18.3496
19.3929
20.4364
21.4777
22.5146
23.5445
24.5652
25.5744
26.5698
27.5492
28.5107
29.4522
30.372
31.2684
32.1399
32.9852
33.8031
34.5925
35.3525
36.0825
36.7818
37.45
38.0868
38.6919
39.2654
39.8072
40.3177
40.7969
41.2456
41.6644
42.0543
42.4154
42.7479
43.052
43.3284
43.5776
43.8004
43.9975
44.1696
44.3174
44.4419
44.5437
44.6237
44.6826
44.7213
44.7404
44.7408
44.7232
44.6883
44.6368
44.5696
44.4871
44.3901
44.2792
44.1551
44.0183
43.8695
43.7091
43.5378
43.356
43.1642
42.9629
42.7526
42.5336
42.3065
42.0715
41.8291
41.5797
41.3235
41.0609
40.7921
40.5175
40.2374
39.952
39.6615
39.3662
39.0662
38.7618
38.4532
38.1405
37.824
37.5036
37.1797
36.8523
36.5215
36.1875
35.8504
35.5102
35.1671
34.8211
34.4724
34.1209
33.7667
33.41
33.0507
32.689
32.3248
31.9582
31.5893
31.2181
30.8446
30.4689
30.0909
29.7108
29.3286
28.9443
28.558
28.1697
27.7793
27.3871
26.993
26.597
26.1993
25.7998
25.3987
24.9959
24.5916
24.1858
23.7787
23.3702
22.9605
22.5496
22.1377
21.7249
21.3112
20.8969
20.4819
20.0665
19.6507
19.2348
18.8188
18.4029
17.9872
17.572
17.1574
16.7435
16.3305
15.9187
15.5081
15.099
14.6916
14.286
13.8824
13.481
13.0821
12.6858
12.2922
11.9016
11.5142
11.1301
10.7495
10.3726
9.99945
9.6303
9.26526
8.90448
8.54806
8.19613
7.84878
7.50611
7.1682
6.83512
6.50694
6.18372
5.86555
5.5525
5.24464
4.94185
4.6439
4.35069
4.06219
3.77829
3.4994
3.22564
2.9575
2.69594
2.44252
2.19913
1.97016
1.76582
1.61171
1.59536
2.6314
9.40448
5.30359
5.14666
5.54526
6.1363
6.82382
7.56924
8.35373
9.16679
10.0019
10.855
11.7229
12.6033
13.4945
14.3945
15.3016
16.2141
17.1302
18.048
18.9655
19.8807
20.7916
21.6962
22.5923
23.4781
24.3515
25.2106
26.0536
26.8787
27.6845
28.4694
29.2321
29.9714
30.6861
31.3754
32.0384
32.6746
33.2833
33.8641
34.4169
34.9413
35.4374
35.9052
36.3449
36.7567
37.1411
37.4985
37.8296
38.1346
38.414
38.6682
38.8976
39.1028
39.2845
39.4433
39.5798
39.6949
39.7891
39.8632
39.9178
39.9538
39.9719
39.9726
39.9567
39.9249
39.8778
39.8162
39.7405
39.6515
39.5497
39.4357
39.3101
39.1735
39.0262
38.869
38.7021
38.5262
38.3416
38.1488
37.9481
37.7401
37.525
37.3031
37.075
36.8408
36.6008
36.3554
36.1048
35.8494
35.5892
35.3246
35.0558
34.7829
34.5063
34.2259
33.9421
33.655
33.3646
33.0712
32.7749
32.4758
32.174
31.8697
31.5628
31.2535
30.9418
30.6279
30.3119
29.9937
29.6734
29.3511
29.0268
28.7007
28.3726
28.0427
27.711
27.3776
27.0424
26.7056
26.3671
26.0269
25.6852
25.3419
24.997
24.6507
24.3029
23.9537
23.6031
23.2512
22.898
22.5435
22.1879
21.8311
21.4732
21.1143
20.7544
20.3937
20.0322
19.6699
19.307
18.9436
18.5797
18.2155
17.851
17.4863
17.1217
16.7572
16.3928
16.0289
15.6654
15.3026
14.9405
14.5794
14.2193
13.8605
13.503
13.1471
12.7929
12.4405
12.0902
11.742
11.3963
11.053
10.7124
10.3746
10.0398
9.70819
9.37983
9.0549
8.73353
8.41586
8.10201
7.7921
7.48624
7.18454
6.88709
6.59399
6.30532
6.02116
5.74159
5.46669
5.19655
4.93125
4.67085
4.4154
4.16492
3.91949
3.67926
3.44447
3.21557
2.9931
2.77808
2.57205
2.37732
2.1978
2.04094
1.92272
1.8849
2.08696
3.9453
9.40474
5.30351
5.14651
5.54507
6.1361
6.82361
7.56902
8.3535
9.16655
10.0017
10.8547
11.7226
12.6031
13.4942
14.3942
15.3014
16.2139
17.13
18.0477
18.9652
19.8804
20.7914
21.6959
22.5921
23.4779
24.3512
25.2103
26.0533
26.8785
27.6843
28.4692
29.2319
29.9712
30.6859
31.3752
32.0383
32.6744
33.2831
33.864
34.4167
34.9412
35.4373
35.9051
36.3448
36.7566
37.1409
37.4983
37.8294
38.1345
38.4139
38.668
38.8974
39.1027
39.2844
39.4432
39.5797
39.6948
39.789
39.8631
39.9178
39.9538
39.9718
39.9725
39.9566
39.9248
39.8777
39.8161
39.7404
39.6514
39.5496
39.4357
39.3101
39.1734
39.0262
38.8689
38.7021
38.5261
38.3415
38.1487
37.9481
37.74
37.5249
37.3031
37.0749
36.8407
36.6008
36.3554
36.1048
35.8493
35.5892
35.3246
35.0557
34.7829
34.5062
34.2259
33.9421
33.6549
33.3646
33.0712
32.7749
32.4758
32.174
31.8696
31.5627
31.2534
30.9418
30.6279
30.3118
29.9936
29.6733
29.3511
29.0268
28.7006
28.3726
28.0427
27.711
27.3776
27.0424
26.7056
26.367
26.0269
25.6851
25.3418
24.997
24.6507
24.3029
23.9537
23.6031
23.2512
22.898
22.5435
22.1878
21.831
21.4732
21.1143
20.7544
20.3937
20.0322
19.6699
19.307
18.9436
18.5797
18.2154
17.851
17.4863
17.1217
16.7571
16.3928
16.0289
15.6654
15.3026
14.9405
14.5794
14.2193
13.8604
13.503
13.1471
12.7928
12.4405
12.0902
11.742
11.3963
11.053
10.7124
10.3746
10.0398
9.70818
9.37982
9.05489
8.73352
8.41585
8.102
7.79209
7.48624
7.18454
6.88709
6.59399
6.30531
6.02115
5.74158
5.46669
5.19655
4.93124
4.67085
4.4154
4.16491
3.91948
3.67926
3.44447
3.21557
2.9931
2.77808
2.57205
2.37731
2.1978
2.04093
1.92272
1.8849
2.08674
3.94503
12.3644
6.66855
6.13044
6.34593
6.81798
7.41575
8.08724
8.80666
9.5594
10.3364
11.1318
11.9416
12.7625
13.5925
14.4294
15.2715
16.1172
16.9648
17.8125
18.6588
19.5019
20.34
21.1714
21.9943
22.8069
23.6075
24.3945
25.1662
25.921
26.6577
27.3749
28.0712
28.7458
29.3974
30.0255
30.6291
31.2077
31.7608
32.288
32.7892
33.264
33.7125
34.1347
34.5308
34.901
35.2456
35.5651
35.8599
36.1304
36.3769
36.6
36.8002
36.9779
37.1338
37.2684
37.3824
37.4765
37.5512
37.6073
37.6454
37.6662
37.6703
37.6584
37.6311
37.5891
37.5329
37.4633
37.3807
37.2858
37.1791
37.0611
36.9324
36.7936
36.645
36.4872
36.3205
36.1456
35.9627
35.7723
35.5747
35.3703
35.1596
34.9427
34.7201
34.4919
34.2586
34.0204
33.7775
33.5302
33.2787
33.0232
32.764
32.5012
32.2349
31.9655
31.6929
31.4175
31.1392
30.8583
30.5748
30.2889
30.0007
29.7102
29.4176
29.1229
28.8262
28.5276
28.2271
27.9249
27.6209
27.3152
27.0079
26.6989
26.3884
26.0764
25.7629
25.448
25.1316
24.8139
24.4948
24.1744
23.8527
23.5297
23.2055
22.8801
22.5536
22.2259
21.8971
21.5673
21.2365
20.9047
20.5721
20.2385
19.9042
19.5691
19.2333
18.8969
18.56
18.2226
17.8848
17.5467
17.2084
16.8699
16.5315
16.193
15.8548
15.5169
15.1793
14.8423
14.5059
14.1703
13.8356
13.502
13.1695
12.8384
12.5087
12.1806
11.8542
11.5297
11.2073
10.8871
10.5692
10.2538
9.941
9.63099
9.32388
9.01983
8.71895
8.42139
8.12728
7.83672
7.54985
7.26676
6.98759
6.71242
6.44135
6.1745
5.91194
5.65378
5.40012
5.15106
4.9067
4.66717
4.4326
4.20311
3.97888
3.76014
3.5472
3.34053
3.14077
2.94884
2.76612
2.59469
2.43777
2.30093
2.19448
2.14023
2.19556
2.58283
5.22676
12.3647
6.66845
6.13027
6.34572
6.81776
7.41552
8.087
8.80641
9.55914
10.3362
11.1316
11.9413
12.7623
13.5922
14.4291
15.2713
16.1169
16.9645
17.8123
18.6586
19.5017
20.3398
21.1712
21.9941
22.8067
23.6073
24.3942
25.1659
25.9208
26.6575
27.3747
28.071
28.7456
29.3973
30.0253
30.6289
31.2075
31.7606
32.2879
32.789
33.2638
33.7124
34.1346
34.5307
34.9009
35.2455
35.565
35.8598
36.1303
36.3768
36.5999
36.8001
36.9778
37.1337
37.2683
37.3823
37.4764
37.5511
37.6072
37.6453
37.6661
37.6702
37.6583
37.631
37.589
37.5329
37.4632
37.3806
37.2857
37.179
37.0611
36.9324
36.7935
36.6449
36.4871
36.3205
36.1455
35.9626
35.7722
35.5746
35.3703
35.1595
34.9427
34.72
34.4919
34.2586
34.0204
33.7775
33.5302
33.2787
33.0232
32.764
32.5011
32.2349
31.9655
31.6929
31.4174
31.1392
30.8583
30.5748
30.2889
30.0006
29.7102
29.4175
29.1229
28.8262
28.5276
28.2271
27.9249
27.6209
27.3152
27.0078
26.6989
26.3884
26.0764
25.7629
25.448
25.1316
24.8139
24.4948
24.1743
23.8526
23.5297
23.2055
22.8801
22.5535
22.2259
21.8971
21.5673
21.2365
20.9047
20.5721
20.2385
19.9042
19.5691
19.2333
18.8969
18.56
18.2226
17.8848
17.5467
17.2084
16.8699
16.5314
16.193
15.8548
15.5169
15.1793
14.8423
14.5059
14.1703
13.8356
13.502
13.1695
12.8384
12.5087
12.1806
11.8542
11.5297
11.2073
10.8871
10.5692
10.2538
9.941
9.63099
9.32388
9.01983
8.71895
8.42139
8.12728
7.83672
7.54985
7.26677
6.98759
6.71242
6.44136
6.1745
5.91194
5.65379
5.40012
5.15106
4.9067
4.66718
4.4326
4.20311
3.97888
3.76014
3.5472
3.34053
3.14077
2.94884
2.76612
2.59469
2.43777
2.30093
2.19448
2.14023
2.19557
2.5828
5.22671
15.3267
8.09839
7.21685
7.28136
7.66466
8.20161
8.82684
9.50793
10.2264
10.971
11.734
12.5103
13.2963
14.0893
14.887
15.6876
16.4896
17.2915
18.0917
18.8889
19.6815
20.468
21.2471
22.017
22.7764
23.5238
24.2576
24.9766
25.6793
26.3646
27.0311
27.6779
28.304
28.9084
29.4904
30.0494
30.5849
31.0962
31.5832
32.0456
32.4832
32.896
33.2841
33.6475
33.9865
34.3014
34.5925
34.8602
35.105
35.3271
35.5271
35.7055
35.8627
35.9993
36.1159
36.213
36.2913
36.3514
36.3939
36.4194
36.4286
36.422
36.4003
36.3641
36.314
36.2505
36.1743
36.0859
35.9859
35.8747
35.7529
35.621
35.4795
35.3288
35.1695
35.0018
34.8263
34.6433
34.4533
34.2565
34.0534
33.8442
33.6294
33.4091
33.1837
32.9535
32.7186
32.4795
32.2362
31.989
31.7381
31.4838
31.2261
30.9653
30.7015
30.4349
30.1656
29.8938
29.6195
29.3429
29.0641
28.7832
28.5003
28.2154
27.9287
27.6402
27.35
27.0582
26.7648
26.4698
26.1733
25.8754
25.5761
25.2754
24.9734
24.6702
24.3656
24.0599
23.753
23.4449
23.1357
22.8254
22.514
22.2016
21.8882
21.5739
21.2586
20.9424
20.6254
20.3075
19.9889
19.6696
19.3496
19.029
18.7078
18.3861
18.064
17.7415
17.4187
17.0956
16.7725
16.4492
16.126
15.8029
15.48
15.1575
14.8353
14.5137
14.1927
13.8725
13.5531
13.2348
12.9175
12.6015
12.2869
11.9738
11.6623
11.3526
11.0448
10.7391
10.4356
10.1344
9.8356
9.53944
9.24602
8.95545
8.66787
8.38341
8.10219
7.82433
7.54995
7.27917
7.01209
6.74883
6.48949
6.23419
5.98303
5.73611
5.49357
5.25551
5.02206
4.79338
4.56962
4.35097
4.13766
3.92996
3.72823
3.53294
3.34472
3.16446
2.99338
2.83325
2.68671
2.55792
2.45388
2.38762
2.3869
2.52469
3.08442
6.50196
15.3271
8.09827
7.21666
7.28113
7.66442
8.20135
8.82658
9.50766
10.2262
10.9707
11.7337
12.51
13.296
14.089
14.8867
15.6874
16.4894
17.2912
18.0915
18.8886
19.6812
20.4678
21.2468
22.0168
22.7762
23.5236
24.2574
24.9764
25.6791
26.3644
27.0309
27.6777
28.3038
28.9082
29.4903
30.0493
30.5847
31.0961
31.5831
32.0454
32.4831
32.8959
33.2839
33.6474
33.9864
34.3013
34.5924
34.8601
35.1049
35.327
35.527
35.7054
35.8626
35.9992
36.1158
36.2129
36.2912
36.3513
36.3938
36.4193
36.4285
36.4219
36.4002
36.364
36.3139
36.2505
36.1743
36.0859
35.9858
35.8746
35.7529
35.621
35.4795
35.3288
35.1694
35.0018
34.8263
34.6433
34.4532
34.2565
34.0534
33.8442
33.6293
33.4091
33.1837
32.9534
32.7186
32.4794
32.2362
31.989
31.7381
31.4838
31.2261
30.9653
30.7015
30.4349
30.1656
29.8938
29.6195
29.3429
29.0641
28.7832
28.5003
28.2154
27.9287
27.6402
27.35
27.0582
26.7647
26.4698
26.1733
25.8754
25.5761
25.2754
24.9734
24.6702
24.3656
24.0599
23.753
23.4449
23.1357
22.8254
22.514
22.2016
21.8882
21.5739
21.2586
20.9424
20.6254
20.3075
19.9889
19.6696
19.3496
19.029
18.7078
18.3861
18.064
17.7415
17.4187
17.0956
16.7725
16.4492
16.126
15.8029
15.48
15.1575
14.8353
14.5137
14.1927
13.8725
13.5531
13.2348
12.9175
12.6015
12.2869
11.9738
11.6623
11.3526
11.0448
10.7391
10.4356
10.1344
9.8356
9.53945
9.24602
8.95545
8.66787
8.38341
8.10219
7.82433
7.54995
7.27917
7.01209
6.74883
6.48949
6.23419
5.98303
5.73612
5.49357
5.25551
5.02206
4.79338
4.56962
4.35097
4.13766
3.92996
3.72823
3.53294
3.34472
3.16446
2.99338
2.83325
2.68671
2.55792
2.45388
2.38762
2.3869
2.5247
3.08444
6.50195
18.4058
9.5902
8.38551
8.31835
8.63073
9.12333
9.71759
10.3747
11.0725
11.7975
12.5405
13.2956
14.0584
14.8258
15.5955
16.3656
17.1347
17.9013
18.6642
19.4222
20.174
20.9185
21.6545
22.3806
23.0956
23.7984
24.4875
25.162
25.8205
26.462
27.0855
27.6901
28.2748
28.8389
29.3817
29.9026
30.4011
30.8768
31.3295
31.7588
32.1647
32.5472
32.9062
33.2419
33.5544
33.8442
34.1113
34.3562
34.5793
34.781
34.9617
35.1218
35.2619
35.3824
35.484
35.567
35.6323
35.6802
35.7113
35.7264
35.7259
35.7104
35.6806
35.6369
35.58
35.5104
35.4286
35.3352
35.2307
35.1156
34.9904
34.8556
34.7116
34.5588
34.3977
34.2288
34.0523
33.8687
33.6784
33.4817
33.2789
33.0704
32.8564
32.6373
32.4133
32.1846
31.9517
31.7146
31.4736
31.2289
30.9807
30.7292
30.4745
30.217
29.9566
29.6935
29.4279
29.1599
28.8897
28.6173
28.3428
28.0663
27.788
27.5079
27.2261
26.9426
26.6576
26.371
26.083
25.7936
25.5028
25.2107
24.9174
24.6228
24.327
24.0301
23.7321
23.433
23.1328
22.8316
22.5294
22.2263
21.9222
21.6173
21.3114
21.0048
20.6973
20.3891
20.0802
19.7706
19.4603
19.1495
18.8381
18.5262
18.2139
17.9013
17.5883
17.275
16.9616
16.6481
16.3345
16.021
15.7076
15.3945
15.0816
14.7692
14.4572
14.1459
13.8353
13.5255
13.2166
12.9088
12.6022
12.2969
11.993
11.6906
11.3899
11.0909
10.7939
10.499
10.2062
9.91573
9.62769
9.34222
9.05944
8.77946
8.50243
8.22845
7.95765
7.69015
7.42606
7.1655
6.90858
6.65542
6.40613
6.16082
5.91963
5.68267
5.45007
5.22199
4.99859
4.78005
4.56658
4.35843
4.15589
3.95936
3.76928
3.58628
3.41116
3.24502
3.08936
2.94635
2.81921
2.71295
2.63608
2.60428
2.65124
2.86551
3.59137
7.7774
18.4062
9.59005
8.38528
8.3181
8.63047
9.12305
9.7173
10.3744
11.0722
11.7972
12.5402
13.2953
14.0581
14.8255
15.5952
16.3653
17.1344
17.901
18.6639
19.4219
20.1738
20.9183
21.6542
22.3804
23.0954
23.7981
24.4873
25.1617
25.8203
26.4618
27.0853
27.6899
28.2746
28.8387
29.3815
29.9024
30.4009
30.8767
31.3293
31.7587
32.1646
32.547
32.9061
33.2418
33.5543
33.844
34.1112
34.3561
34.5793
34.7809
34.9616
35.1217
35.2618
35.3824
35.4839
35.567
35.6322
35.6801
35.7113
35.7263
35.7258
35.7104
35.6805
35.6369
35.5799
35.5103
35.4286
35.3352
35.2307
35.1156
34.9904
34.8555
34.7115
34.5588
34.3977
34.2287
34.0523
33.8687
33.6784
33.4817
33.2789
33.0703
32.8564
32.6372
32.4132
32.1846
31.9516
31.7145
31.4735
31.2288
30.9806
30.7291
30.4745
30.2169
29.9565
29.6935
29.4279
29.1599
28.8897
28.6172
28.3428
28.0663
27.788
27.5079
27.2261
26.9426
26.6576
26.371
26.083
25.7936
25.5028
25.2107
24.9174
24.6228
24.327
24.0301
23.7321
23.433
23.1328
22.8316
22.5294
22.2263
21.9222
21.6173
21.3114
21.0048
20.6973
20.3891
20.0802
19.7706
19.4603
19.1495
18.8381
18.5262
18.2139
17.9013
17.5883
17.275
16.9616
16.6481
16.3345
16.021
15.7076
15.3945
15.0816
14.7692
14.4572
14.1459
13.8353
13.5255
13.2166
12.9088
12.6022
12.2969
11.993
11.6906
11.3899
11.0909
10.7939
10.499
10.2062
9.91573
9.6277
9.34222
9.05944
8.77947
8.50243
8.22846
7.95766
7.69015
7.42607
7.1655
6.90859
6.65542
6.40613
6.16083
5.91963
5.68267
5.45008
5.222
4.9986
4.78005
4.56658
4.35843
4.1559
3.95936
3.76928
3.58628
3.41116
3.24502
3.08936
2.94636
2.81921
2.71295
2.63608
2.60428
2.65124
2.86552
3.5914
7.77741
21.6321
11.1533
9.63106
9.44349
9.69624
10.1549
10.7276
11.3692
12.0541
12.7666
13.4963
14.2363
14.9816
15.7291
16.476
17.2207
17.9617
18.6979
19.428
20.1513
20.8668
21.5735
22.2704
22.9567
23.6312
24.2931
24.9412
25.5746
26.1924
26.7935
27.3773
27.9427
28.4892
29.0159
29.5224
30.008
30.4724
30.9151
31.336
31.7348
32.1115
32.4659
32.7981
33.1083
33.3966
33.6632
33.9085
34.1326
34.3361
34.5192
34.6824
34.8261
34.9507
35.0568
35.1448
35.2153
35.2688
35.3059
35.327
35.3328
35.3238
35.3005
35.2634
35.2132
35.1503
35.0753
34.9887
34.891
34.7826
34.6641
34.5359
34.3984
34.2522
34.0975
33.9349
33.7648
33.5874
33.4032
33.2125
33.0156
32.8129
32.6047
32.3913
32.1729
31.9498
31.7223
31.4906
31.2549
31.0155
30.7726
30.5262
30.2767
30.0242
29.7689
29.5108
29.2503
28.9873
28.722
28.4545
28.185
27.9135
27.6401
27.365
27.0882
26.8097
26.5297
26.2482
25.9653
25.681
25.3954
25.1085
24.8204
24.5312
24.2408
23.9493
23.6567
23.3631
23.0686
22.773
22.4765
22.1792
21.8809
21.5819
21.282
20.9813
20.68
20.3779
20.0751
19.7718
19.4678
19.1633
18.8583
18.5529
18.2471
17.9409
17.6344
17.3277
17.0208
16.7139
16.4069
16.1
15.7932
15.4866
15.1802
14.8743
14.5688
14.2639
13.9597
13.6562
13.3536
13.052
12.7515
12.4521
12.1541
11.8575
11.5625
11.2691
10.9775
10.6878
10.4001
10.1146
9.8314
9.55058
9.27227
8.9966
8.72369
8.45366
8.18663
7.92271
7.66203
7.4047
7.15083
6.90055
6.65397
6.41121
6.17241
5.9377
5.70722
5.48113
5.2596
5.04283
4.83103
4.62448
4.42346
4.22837
4.03965
3.8579
3.68384
3.51845
3.36304
3.21938
3.09003
2.97875
2.89148
2.83816
2.83728
2.92838
3.21611
4.10674
9.06667
21.6325
11.1531
9.63081
9.44322
9.69595
10.1546
10.7273
11.3689
12.0538
12.7663
13.496
14.2359
14.9813
15.7288
16.4757
17.2205
17.9615
18.6976
19.4278
20.1511
20.8665
21.5732
22.2702
22.9564
23.631
24.2928
24.941
25.5744
26.1922
26.7933
27.3771
27.9426
28.489
29.0157
29.5222
30.0078
30.4722
30.915
31.3359
31.7347
32.1113
32.4658
32.798
33.1082
33.3965
33.6631
33.9084
34.1325
34.336
34.5191
34.6823
34.826
34.9506
35.0567
35.1448
35.2153
35.2688
35.3058
35.327
35.3327
35.3237
35.3004
35.2634
35.2132
35.1503
35.0753
34.9887
34.8909
34.7826
34.664
34.5358
34.3984
34.2521
34.0975
33.9349
33.7647
33.5874
33.4031
33.2124
33.0156
32.8129
32.6047
32.3913
32.1729
31.9498
31.7223
31.4906
31.2549
31.0155
30.7725
30.5262
30.2767
30.0242
29.7689
29.5108
29.2502
28.9872
28.722
28.4545
28.185
27.9135
27.6401
27.365
27.0881
26.8097
26.5297
26.2482
25.9653
25.681
25.3954
25.1085
24.8204
24.5312
24.2408
23.9493
23.6567
23.3631
23.0685
22.773
22.4765
22.1792
21.8809
21.5819
21.282
20.9813
20.68
20.3779
20.0751
19.7718
19.4678
19.1633
18.8583
18.5529
18.2471
17.9409
17.6344
17.3277
17.0208
16.7139
16.4069
16.1
15.7932
15.4866
15.1802
14.8743
14.5688
14.2639
13.9597
13.6562
13.3536
13.052
12.7515
12.4521
12.1541
11.8575
11.5625
11.2691
10.9775
10.6878
10.4001
10.1146
9.83141
9.55058
9.27227
8.9966
8.72369
8.45366
8.18663
7.92272
7.66203
7.4047
7.15083
6.90055
6.65397
6.41122
6.17242
5.93771
5.70723
5.48114
5.25961
5.04283
4.83104
4.62448
4.42347
4.22837
4.03966
3.8579
3.68384
3.51846
3.36304
3.21938
3.09003
2.97876
2.89148
2.83816
2.83728
2.92838
3.21613
4.10677
9.06668
24.9751
12.7879
10.9521
10.6518
10.8527
11.2844
11.8417
12.4731
13.1496
13.8535
14.5732
15.301
16.0316
16.7613
17.4877
18.209
18.9237
19.6311
20.3301
21.0203
21.7008
22.3711
23.0304
23.6781
24.3134
24.9356
25.5439
26.1375
26.7157
27.2777
27.8227
28.3501
28.8594
29.3498
29.8209
30.2722
30.7034
31.1141
31.5042
31.8734
32.2216
32.5489
32.8553
33.1408
33.4057
33.6501
33.8742
34.0785
34.2631
34.4285
34.575
34.7031
34.8131
34.9055
34.9808
35.0395
35.082
35.1089
35.1207
35.1179
35.1009
35.0704
35.0268
34.9706
34.9023
34.8225
34.7315
34.6298
34.518
34.3965
34.2657
34.126
33.9778
33.8216
33.6578
33.4866
33.3085
33.1238
32.9329
32.736
32.5335
32.3257
32.1128
31.8951
31.6729
31.4464
31.2158
30.9814
30.7433
30.5019
30.2571
30.0093
29.7586
29.5052
29.2491
28.9906
28.7297
28.4666
28.2014
27.9342
27.6651
27.3942
27.1216
26.8474
26.5716
26.2943
26.0156
25.7355
25.4541
25.1714
24.8876
24.6026
24.3164
24.0292
23.741
23.4517
23.1615
22.8704
22.5783
22.2854
21.9917
21.6971
21.4018
21.1057
20.809
20.5115
20.2134
19.9148
19.6155
19.3158
19.0156
18.7149
18.4139
18.1125
17.8109
17.509
17.2069
16.9048
16.6026
16.3004
15.9984
15.6965
15.3948
15.0936
14.7927
14.4923
14.1925
13.8935
13.5952
13.2978
13.0014
12.7061
12.412
12.1192
11.8278
11.538
11.2498
10.9634
10.6789
10.3964
10.1159
9.83776
9.56192
9.28854
9.01775
8.74965
8.48436
8.22201
7.9627
7.70656
7.45369
7.20423
6.95829
6.716
6.4775
6.24291
6.0124
5.78613
5.56426
5.34701
5.1346
4.9273
4.7254
4.52928
4.33938
4.15624
3.98054
3.81315
3.6552
3.5082
3.37419
3.2561
3.15828
3.08751
3.05527
3.08284
3.2157
3.57467
4.62834
10.3608
24.9756
12.7877
10.9518
10.6515
10.8523
11.2841
11.8414
12.4728
13.1493
13.8532
14.5729
15.3007
16.0313
16.761
17.4874
18.2087
18.9234
19.6308
20.3299
21.02
21.7006
22.3708
23.0302
23.6779
24.3132
24.9354
25.5437
26.1373
26.7155
27.2775
27.8225
28.35
28.8592
29.3496
29.8207
30.272
30.7032
31.114
31.504
31.8732
32.2215
32.5488
32.8552
33.1407
33.4056
33.65
33.8742
34.0784
34.263
34.4284
34.5749
34.703
34.813
34.9054
34.9808
35.0394
35.082
35.1089
35.1207
35.1178
35.1009
35.0704
35.0268
34.9706
34.9023
34.8224
34.7314
34.6298
34.518
34.3965
34.2656
34.1259
33.9778
33.8216
33.6577
33.4866
33.3085
33.1238
32.9328
32.736
32.5335
32.3256
32.1127
31.8951
31.6728
31.4463
31.2158
30.9814
30.7433
30.5019
30.2571
30.0093
29.7586
29.5051
29.2491
28.9905
28.7297
28.4666
28.2014
27.9342
27.6651
27.3942
27.1216
26.8474
26.5716
26.2943
26.0156
25.7355
25.4541
25.1714
24.8876
24.6026
24.3164
24.0292
23.741
23.4517
23.1615
22.8704
22.5783
22.2854
21.9917
21.6971
21.4018
21.1057
20.809
20.5115
20.2134
19.9148
19.6155
19.3158
19.0156
18.7149
18.4139
18.1125
17.8108
17.509
17.2069
16.9048
16.6026
16.3004
15.9984
15.6965
15.3948
15.0935
14.7927
14.4923
14.1925
13.8935
13.5952
13.2978
13.0014
12.7061
12.412
12.1192
11.8278
11.538
11.2498
10.9634
10.6789
10.3964
10.1159
9.83776
9.56192
9.28854
9.01775
8.74965
8.48437
8.22201
7.9627
7.70656
7.45369
7.20423
6.95829
6.716
6.4775
6.24292
6.01241
5.78613
5.56427
5.34702
5.13461
4.9273
4.7254
4.52928
4.33938
4.15624
3.98054
3.81316
3.65521
3.5082
3.37419
3.2561
3.15828
3.08751
3.05527
3.08284
3.2157
3.57468
4.62839
10.3608
28.4447
14.4983
12.3505
11.9429
12.0976
12.5074
13.0534
13.6779
14.3485
15.0456
15.7567
16.4732
17.1896
17.902
18.6079
19.3057
19.9941
20.6725
21.3403
21.9971
22.6425
23.2761
23.8976
24.5066
25.1025
25.6849
26.2532
26.8068
27.3453
27.8679
28.3742
28.8636
29.3355
29.7896
30.2253
30.6423
31.0403
31.4191
31.7783
32.118
32.4379
32.7382
33.0188
33.2798
33.5213
33.7436
33.9469
34.1314
34.2975
34.4454
34.5755
34.6882
34.7839
34.8629
34.9258
34.973
35.0049
35.022
35.0248
35.0137
34.9892
34.9518
34.9019
34.8401
34.7668
34.6824
34.5874
34.4822
34.3673
34.2431
34.1099
33.9683
33.8185
33.6611
33.4962
33.3243
33.1457
32.9608
32.7699
32.5732
32.3711
32.1638
31.9516
31.7347
31.5135
31.2881
31.0588
30.8257
30.5891
30.3492
30.106
29.8599
29.611
29.3594
29.1052
28.8486
28.5898
28.3287
28.0657
27.8006
27.5338
27.2651
26.9948
26.7229
26.4495
26.1746
25.8984
25.6208
25.3419
25.0619
24.7806
24.4983
24.2148
23.9303