/*--------------------------------*- C++ -*----------------------------------*\
  =========                 |
  \\      /  F ield         | OpenFOAM: The Open Source CFD Toolbox
   \\    /   O peration     | Website:  https://openfoam.org
    \\  /    A nd           | Version:  8
     \\/     M anipulation  |
\*---------------------------------------------------------------------------*/
FoamFile
{
    version     2.0;
    format      ascii;
    class       volScalarField;
    location    "2400";
    object      nut;
}
// * * * * * * * * * * * * * * * * * * * * * * * * * * * * * * * * * * * * * //

dimensions      [0 2 -1 0 0 0 0];

internalField   nonuniform List<scalar> 
48000
(
8.20726e-05
7.19425e-05
8.90452e-05
0.000101897
0.000112528
0.000121446
0.000129174
0.000136151
0.000142551
0.000148429
0.000153901
0.00015903
0.000163863
0.000168437
0.000172781
0.000176918
0.000180866
0.000184639
0.00018825
0.000191708
0.000195022
0.000198198
0.000201243
0.000204162
0.00020696
0.000209641
0.000212208
0.000214665
0.000217015
0.000219261
0.000221407
0.000223454
0.000225405
0.000227264
0.000229032
0.000230712
0.000232307
0.000233818
0.000235249
0.000236601
0.000237878
0.00023908
0.00024021
0.000241271
0.000242264
0.000243192
0.000244058
0.000244872
0.000245628
0.000246326
0.000246969
0.000247558
0.000248095
0.000248583
0.000249022
0.000249415
0.000249764
0.00025007
0.000250334
0.000250559
0.000250746
0.000250896
0.00025101
0.000251091
0.000251138
0.000251154
0.00025114
0.000251096
0.000251024
0.000250925
0.000250799
0.000250649
0.000250474
0.000250276
0.000250055
0.000249812
0.000249548
0.000249264
0.00024896
0.000248637
0.000248295
0.000247936
0.000247559
0.000247165
0.000246754
0.000246328
0.000245886
0.000245429
0.000244957
0.000244471
0.00024397
0.000243455
0.000242927
0.000242385
0.00024183
0.000241262
0.000240681
0.000240087
0.000239481
0.000238862
0.000238231
0.000237587
0.000236931
0.000236262
0.000235581
0.000234888
0.000234182
0.000233464
0.000232734
0.00023199
0.000231235
0.000230466
0.000229684
0.00022889
0.000228082
0.000227261
0.000226426
0.000225578
0.000224716
0.000223839
0.000222949
0.000222043
0.000221123
0.000220188
0.000219238
0.000218272
0.000217291
0.000216293
0.000215279
0.000214249
0.000213201
0.000212136
0.000211054
0.000209954
0.000208836
0.0002077
0.000206545
0.000205371
0.000204177
0.000202965
0.000201732
0.000200479
0.000199205
0.000197911
0.000196596
0.000195259
0.0001939
0.00019252
0.000191117
0.000189692
0.000188243
0.000186772
0.000185277
0.000183758
0.000182215
0.000180647
0.000179055
0.000177438
0.000175795
0.000174126
0.000172431
0.000170709
0.00016896
0.000167183
0.000165378
0.000163544
0.000161681
0.000159788
0.000157864
0.000155908
0.000153919
0.000151896
0.000149838
0.000147744
0.000145611
0.000143437
0.000141221
0.00013896
0.000136651
0.000134291
0.000131875
0.000129401
0.000126864
0.000124273
0.000121619
0.000118872
0.000116019
0.000113044
0.000109924
0.000106634
0.000103138
9.93869e-05
9.53291e-05
9.0916e-05
8.59757e-05
8.02926e-05
7.35332e-05
6.52857e-05
5.49042e-05
0.000139498
8.20709e-05
7.19435e-05
8.90461e-05
0.000101897
0.000112529
0.000121446
0.000129174
0.000136151
0.000142551
0.000148429
0.000153901
0.00015903
0.000163863
0.000168437
0.000172782
0.000176918
0.000180866
0.000184639
0.00018825
0.000191708
0.000195022
0.000198198
0.000201243
0.000204162
0.00020696
0.000209641
0.000212208
0.000214665
0.000217015
0.000219261
0.000221407
0.000223454
0.000225405
0.000227264
0.000229032
0.000230712
0.000232307
0.000233818
0.000235249
0.000236601
0.000237878
0.00023908
0.00024021
0.000241271
0.000242264
0.000243192
0.000244058
0.000244872
0.000245628
0.000246326
0.000246969
0.000247558
0.000248095
0.000248583
0.000249022
0.000249415
0.000249764
0.00025007
0.000250334
0.000250559
0.000250746
0.000250896
0.00025101
0.00025109
0.000251138
0.000251154
0.000251139
0.000251096
0.000251024
0.000250925
0.000250799
0.000250649
0.000250474
0.000250276
0.000250055
0.000249812
0.000249548
0.000249264
0.00024896
0.000248637
0.000248295
0.000247936
0.000247559
0.000247165
0.000246754
0.000246328
0.000245886
0.000245429
0.000244957
0.000244471
0.00024397
0.000243455
0.000242927
0.000242385
0.00024183
0.000241262
0.000240681
0.000240087
0.000239481
0.000238862
0.000238231
0.000237587
0.000236931
0.000236262
0.000235581
0.000234888
0.000234182
0.000233464
0.000232734
0.00023199
0.000231235
0.000230466
0.000229684
0.00022889
0.000228082
0.000227261
0.000226426
0.000225578
0.000224716
0.000223839
0.000222949
0.000222043
0.000221123
0.000220188
0.000219238
0.000218272
0.000217291
0.000216293
0.000215279
0.000214248
0.000213201
0.000212136
0.000211054
0.000209954
0.000208836
0.0002077
0.000206545
0.000205371
0.000204177
0.000202964
0.000201732
0.000200479
0.000199205
0.000197911
0.000196596
0.000195259
0.0001939
0.00019252
0.000191117
0.000189692
0.000188243
0.000186772
0.000185277
0.000183758
0.000182215
0.000180647
0.000179055
0.000177438
0.000175795
0.000174126
0.000172431
0.000170709
0.00016896
0.000167183
0.000165378
0.000163544
0.000161681
0.000159788
0.000157864
0.000155908
0.000153919
0.000151896
0.000149838
0.000147744
0.000145611
0.000143437
0.000141221
0.00013896
0.000136651
0.000134291
0.000131875
0.000129401
0.000126865
0.000124273
0.000121619
0.000118872
0.000116019
0.000113044
0.000109924
0.000106634
0.000103138
9.93869e-05
9.53291e-05
9.09161e-05
8.59759e-05
8.02927e-05
7.35307e-05
6.52725e-05
5.49355e-05
0.000139787
6.2386e-05
0.000459192
0.0007298
0.000918031
0.00105902
0.00117469
0.00127379
0.00136068
0.00143827
0.00150875
0.00157339
0.00163316
0.0016888
0.00174086
0.00178979
0.00183594
0.0018796
0.00192099
0.00196032
0.00199774
0.0020334
0.00206741
0.00209987
0.00213088
0.00216051
0.00218882
0.00221588
0.00224175
0.00226646
0.00229007
0.00231262
0.00233415
0.00235469
0.00237427
0.00239293
0.00241069
0.0024276
0.00244366
0.00245892
0.00247339
0.0024871
0.00250007
0.00251232
0.00252388
0.00253477
0.00254497
0.00255444
0.00256317
0.00257127
0.00257881
0.00258581
0.0025923
0.00259829
0.00260382
0.00260888
0.00261351
0.00261771
0.0026215
0.00262489
0.0026279
0.00263054
0.00263281
0.00263475
0.00263634
0.00263761
0.00263857
0.00263923
0.0026396
0.00263968
0.00263948
0.00263902
0.00263831
0.00263734
0.00263614
0.00263469
0.00263302
0.00263113
0.00262903
0.00262672
0.0026242
0.00262149
0.00261858
0.00261548
0.00261221
0.00260875
0.00260512
0.00260131
0.00259734
0.00259321
0.00258891
0.00258445
0.00257984
0.00257508
0.00257016
0.00256509
0.00255987
0.00255451
0.002549
0.00254334
0.00253754
0.0025316
0.00252551
0.00251928
0.00251291
0.0025064
0.00249974
0.00249294
0.002486
0.00247891
0.00247168
0.0024643
0.00245677
0.0024491
0.00244127
0.00243329
0.00242516
0.00241687
0.00240843
0.00239983
0.00239106
0.00238213
0.00237304
0.00236378
0.00235434
0.00234474
0.00233495
0.00232499
0.00231485
0.00230452
0.00229401
0.0022833
0.0022724
0.00226131
0.00225002
0.00223852
0.00222683
0.00221492
0.0022028
0.00219047
0.00217792
0.00216515
0.00215215
0.00213893
0.00212548
0.0021118
0.00209788
0.00208372
0.00206932
0.00205468
0.00203978
0.00202464
0.00200923
0.00199357
0.00197765
0.00196146
0.001945
0.00192827
0.00191125
0.00189396
0.00187638
0.0018585
0.00184033
0.00182186
0.00180307
0.00178397
0.00176454
0.00174478
0.00172467
0.00170421
0.00168339
0.00166218
0.00164058
0.00161856
0.00159612
0.00157321
0.00154982
0.00152592
0.00150147
0.00147643
0.00145074
0.00142434
0.00139715
0.00136903
0.00133982
0.00130939
0.0012777
0.00124461
0.00120992
0.00117332
0.00113445
0.00109273
0.00104729
0.000996568
0.000938437
0.000871195
0.000790921
0.000691232
0.000562898
0.000399301
0.000396773
6.23864e-05
0.000459212
0.000729829
0.000918063
0.00105905
0.00117472
0.00127382
0.00136071
0.00143831
0.00150878
0.00157342
0.00163319
0.00168883
0.00174089
0.00178982
0.00183597
0.00187962
0.00192102
0.00196034
0.00199776
0.00203342
0.00206743
0.00209989
0.0021309
0.00216053
0.00218884
0.0022159
0.00224176
0.00226648
0.00229009
0.00231264
0.00233416
0.0023547
0.00237428
0.00239294
0.00241071
0.00242761
0.00244368
0.00245893
0.0024734
0.00248711
0.00250008
0.00251234
0.0025239
0.00253478
0.00254498
0.00255446
0.00256318
0.00257128
0.00257882
0.00258582
0.00259231
0.0025983
0.00260383
0.00260889
0.00261352
0.00261772
0.00262151
0.0026249
0.00262791
0.00263055
0.00263282
0.00263475
0.00263635
0.00263762
0.00263858
0.00263924
0.00263961
0.00263969
0.00263949
0.00263903
0.00263832
0.00263735
0.00263614
0.0026347
0.00263303
0.00263114
0.00262904
0.00262672
0.00262421
0.00262149
0.00261859
0.00261549
0.00261221
0.00260876
0.00260513
0.00260132
0.00259735
0.00259322
0.00258892
0.00258446
0.00257985
0.00257508
0.00257016
0.0025651
0.00255988
0.00255451
0.002549
0.00254335
0.00253755
0.00253161
0.00252552
0.00251929
0.00251292
0.00250641
0.00249975
0.00249295
0.00248601
0.00247892
0.00247169
0.00246431
0.00245678
0.00244911
0.00244128
0.0024333
0.00242517
0.00241688
0.00240844
0.00239983
0.00239107
0.00238214
0.00237305
0.00236378
0.00235435
0.00234474
0.00233496
0.002325
0.00231486
0.00230453
0.00229401
0.00228331
0.00227241
0.00226132
0.00225003
0.00223853
0.00222683
0.00221493
0.00220281
0.00219047
0.00217793
0.00216516
0.00215216
0.00213894
0.00212549
0.00211181
0.00209789
0.00208373
0.00206933
0.00205468
0.00203979
0.00202464
0.00200924
0.00199358
0.00197766
0.00196147
0.00194501
0.00192827
0.00191126
0.00189397
0.00187638
0.00185851
0.00184034
0.00182186
0.00180308
0.00178397
0.00176455
0.00174478
0.00172468
0.00170422
0.00168339
0.00166219
0.00164059
0.00161857
0.00159612
0.00157322
0.00154983
0.00152593
0.00150148
0.00147643
0.00145075
0.00142435
0.00139715
0.00136904
0.00133983
0.00130939
0.0012777
0.00124461
0.00120992
0.00117333
0.00113446
0.00109274
0.00104729
0.000996572
0.000938439
0.000871187
0.000790876
0.000691048
0.000562403
0.00039943
0.000396744
7.63725e-05
0.000695718
0.00123711
0.0016411
0.00196068
0.00222636
0.00245484
0.00265575
0.00283529
0.00299777
0.00314621
0.00328284
0.00340937
0.00352712
0.00363718
0.0037404
0.0038375
0.00392908
0.00401564
0.00409763
0.0041754
0.00424929
0.00431956
0.00438646
0.00445021
0.00451099
0.00456898
0.00462432
0.00467716
0.0047276
0.00477577
0.00482175
0.00486566
0.00490756
0.00494755
0.00498568
0.00502204
0.00505668
0.00508967
0.00512106
0.0051509
0.00517926
0.00520616
0.00523166
0.00525578
0.00527855
0.00529996
0.00531998
0.00533877
0.0053564
0.00537293
0.00538841
0.00540288
0.00541638
0.00542895
0.00544061
0.0054514
0.00546134
0.00547047
0.00547881
0.00548639
0.00549323
0.00549935
0.00550478
0.00550954
0.00551365
0.00551713
0.00552
0.00552228
0.00552398
0.00552512
0.00552572
0.00552579
0.00552535
0.00552442
0.005523
0.0055211
0.00551875
0.00551595
0.00551271
0.00550904
0.00550496
0.00550047
0.00549558
0.0054903
0.00548464
0.0054786
0.00547219
0.00546543
0.0054583
0.00545082
0.005443
0.00543483
0.00542633
0.00541749
0.00540832
0.00539883
0.005389
0.00537886
0.00536839
0.0053576
0.00534649
0.00533506
0.00532331
0.00531124
0.00529885
0.00528613
0.0052731
0.00525974
0.00524606
0.00523204
0.0052177
0.00520302
0.00518801
0.00517265
0.00515695
0.00514091
0.00512451
0.00510775
0.00509064
0.00507316
0.00505531
0.00503709
0.00501848
0.00499949
0.00498011
0.00496033
0.00494014
0.00491955
0.00489854
0.0048771
0.00485524
0.00483294
0.0048102
0.00478701
0.00476337
0.00473926
0.00471468
0.00468963
0.00466409
0.00463806
0.00461153
0.00458449
0.00455694
0.00452886
0.00450026
0.00447111
0.00444143
0.00441118
0.00438037
0.00434899
0.00431702
0.00428447
0.00425131
0.00421753
0.00418314
0.0041481
0.00411242
0.00407607
0.00403904
0.00400132
0.00396289
0.00392373
0.00388382
0.00384314
0.00380166
0.00375936
0.00371621
0.00367217
0.00362721
0.00358128
0.00353434
0.00348633
0.0034372
0.00338688
0.00333528
0.00328233
0.0032279
0.00317188
0.00311412
0.00305443
0.0029926
0.00292835
0.00286134
0.00279125
0.0027177
0.0026402
0.00255805
0.00247037
0.00237603
0.0022734
0.0021602
0.00203318
0.00188762
0.00171802
0.00151516
0.00126455
0.000943957
0.000523805
5.87703e-05
7.63729e-05
0.000695744
0.00123716
0.00164116
0.00196075
0.00222643
0.00245491
0.00265582
0.00283536
0.00299784
0.00314627
0.0032829
0.00340943
0.00352718
0.00363723
0.00374045
0.00383755
0.00392913
0.00401569
0.00409767
0.00417545
0.00424933
0.0043196
0.0043865
0.00445024
0.00451103
0.00456901
0.00462435
0.00467718
0.00472763
0.00477579
0.00482178
0.00486568
0.00490759
0.00494757
0.0049857
0.00502206
0.0050567
0.00508969
0.00512108
0.00515092
0.00517927
0.00520617
0.00523167
0.0052558
0.00527856
0.00529997
0.00531999
0.00533878
0.00535641
0.00537294
0.00538842
0.00540289
0.00541639
0.00542895
0.00544062
0.0054514
0.00546135
0.00547048
0.00547882
0.0054864
0.00549324
0.00549936
0.00550479
0.00550955
0.00551366
0.00551714
0.00552001
0.00552228
0.00552398
0.00552512
0.00552572
0.0055258
0.00552536
0.00552442
0.005523
0.00552111
0.00551875
0.00551595
0.00551271
0.00550905
0.00550496
0.00550047
0.00549558
0.0054903
0.00548464
0.0054786
0.0054722
0.00546543
0.0054583
0.00545082
0.005443
0.00543483
0.00542633
0.00541749
0.00540832
0.00539883
0.005389
0.00537886
0.00536839
0.0053576
0.00534649
0.00533506
0.00532331
0.00531124
0.00529885
0.00528613
0.0052731
0.00525974
0.00524606
0.00523204
0.0052177
0.00520302
0.00518801
0.00517265
0.00515695
0.00514091
0.00512451
0.00510775
0.00509064
0.00507316
0.00505531
0.00503709
0.00501848
0.00499949
0.00498011
0.00496033
0.00494014
0.00491955
0.00489853
0.0048771
0.00485524
0.00483294
0.0048102
0.00478701
0.00476337
0.00473926
0.00471468
0.00468963
0.00466409
0.00463806
0.00461152
0.00458449
0.00455694
0.00452886
0.00450026
0.00447111
0.00444142
0.00441118
0.00438037
0.00434899
0.00431702
0.00428447
0.00425131
0.00421753
0.00418313
0.0041481
0.00411241
0.00407607
0.00403904
0.00400132
0.00396289
0.00392373
0.00388382
0.00384314
0.00380166
0.00375936
0.00371621
0.00367217
0.0036272
0.00358128
0.00353434
0.00348633
0.0034372
0.00338688
0.00333528
0.00328233
0.0032279
0.00317188
0.00311412
0.00305443
0.0029926
0.00292835
0.00286134
0.00279125
0.0027177
0.0026402
0.00255805
0.00247037
0.00237603
0.0022734
0.00216021
0.00203318
0.00188762
0.00171802
0.00151515
0.00126451
0.000943905
0.000524101
5.87813e-05
8.66526e-05
0.000835822
0.0015722
0.00215712
0.00263552
0.00304
0.00339097
0.00370143
0.00398005
0.00423291
0.00446438
0.00467773
0.00487548
0.00505961
0.00523172
0.00539312
0.00554488
0.00568794
0.00582306
0.00595094
0.00607214
0.00618717
0.00629649
0.00640048
0.00649951
0.00659387
0.00668384
0.00676969
0.00685162
0.00692985
0.00700456
0.00707591
0.00714406
0.00720916
0.00727133
0.0073307
0.00738737
0.00744145
0.00749304
0.00754223
0.0075891
0.00763374
0.00767622
0.0077166
0.00775495
0.0077913
0.00782569
0.00785815
0.0078888
0.00791774
0.00794504
0.00797076
0.00799497
0.00801773
0.00803909
0.0080591
0.0080778
0.00809524
0.00811146
0.0081265
0.0081404
0.00815319
0.00816491
0.00817559
0.00818526
0.00819396
0.00820171
0.00820854
0.00821448
0.00821955
0.00822378
0.00822718
0.0082298
0.00823163
0.00823271
0.00823306
0.00823268
0.00823161
0.00822985
0.00822743
0.00822435
0.00822063
0.00821629
0.00821134
0.00820579
0.00819964
0.00819292
0.00818563
0.00817778
0.00816938
0.00816044
0.00815095
0.00814094
0.00813041
0.00811935
0.00810778
0.0080957
0.00808311
0.00807002
0.00805642
0.00804233
0.00802773
0.00801264
0.00799705
0.00798095
0.00796436
0.00794727
0.00792967
0.00791156
0.00789295
0.00787382
0.00785418
0.00783401
0.00781332
0.0077921
0.00777034
0.00774804
0.00772519
0.00770179
0.00767782
0.00765329
0.00762817
0.00760247
0.00757618
0.00754928
0.00752177
0.00749364
0.00746489
0.00743549
0.00740544
0.00737473
0.00734335
0.0073113
0.00727855
0.00724509
0.00721093
0.00717604
0.00714041
0.00710403
0.00706689
0.00702898
0.00699029
0.00695079
0.00691048
0.00686935
0.00682738
0.00678455
0.00674085
0.00669627
0.00665079
0.00660439
0.00655706
0.00650877
0.00645952
0.00640926
0.006358
0.0063057
0.00625233
0.00619788
0.00614231
0.0060856
0.00602771
0.0059686
0.00590823
0.00584658
0.00578357
0.00571917
0.00565332
0.00558596
0.00551701
0.00544639
0.00537403
0.00529981
0.00522363
0.00514536
0.00506485
0.00498194
0.00489642
0.00480808
0.00471664
0.00462178
0.00452312
0.0044202
0.0043125
0.00419937
0.00408008
0.00395368
0.00381897
0.00367441
0.00351797
0.00334701
0.003158
0.00294619
0.00270511
0.0024263
0.00209812
0.00170379
0.00122107
0.000630607
6.49786e-05
8.66532e-05
0.000835849
0.00157226
0.0021572
0.00263561
0.0030401
0.00339107
0.00370153
0.00398015
0.00423301
0.00446448
0.00467783
0.00487557
0.0050597
0.00523181
0.0053932
0.00554496
0.00568801
0.00582314
0.005951
0.0060722
0.00618723
0.00629655
0.00640054
0.00649956
0.00659392
0.00668389
0.00676973
0.00685166
0.00692989
0.00700459
0.00707594
0.0071441
0.00720919
0.00727136
0.00733072
0.00738739
0.00744147
0.00749306
0.00754225
0.00758912
0.00763376
0.00767624
0.00771662
0.00775496
0.00779131
0.0078257
0.00785816
0.00788881
0.00791775
0.00794505
0.00797077
0.00799498
0.00801774
0.0080391
0.0080591
0.00807781
0.00809524
0.00811146
0.0081265
0.0081404
0.00815319
0.00816491
0.00817559
0.00818526
0.00819396
0.00820171
0.00820854
0.00821448
0.00821955
0.00822377
0.00822718
0.00822979
0.00823163
0.00823271
0.00823305
0.00823268
0.00823161
0.00822985
0.00822742
0.00822435
0.00822063
0.00821629
0.00821134
0.00820578
0.00819964
0.00819292
0.00818563
0.00817778
0.00816938
0.00816043
0.00815095
0.00814094
0.0081304
0.00811935
0.00810777
0.00809569
0.00808311
0.00807001
0.00805642
0.00804232
0.00802773
0.00801263
0.00799704
0.00798095
0.00796435
0.00794726
0.00792966
0.00791156
0.00789294
0.00787382
0.00785417
0.00783401
0.00781332
0.00779209
0.00777034
0.00774804
0.00772519
0.00770178
0.00767782
0.00765328
0.00762816
0.00760246
0.00757617
0.00754927
0.00752176
0.00749364
0.00746488
0.00743548
0.00740543
0.00737472
0.00734335
0.00731129
0.00727854
0.00724509
0.00721092
0.00717603
0.0071404
0.00710402
0.00706689
0.00702897
0.00699028
0.00695078
0.00691047
0.00686934
0.00682737
0.00678454
0.00674084
0.00669626
0.00665078
0.00660438
0.00655705
0.00650876
0.00645951
0.00640925
0.00635799
0.00630569
0.00625232
0.00619787
0.0061423
0.00608559
0.0060277
0.00596859
0.00590823
0.00584657
0.00578356
0.00571916
0.00565331
0.00558595
0.005517
0.00544639
0.00537402
0.0052998
0.00522362
0.00514535
0.00506484
0.00498193
0.00489641
0.00480807
0.00471663
0.00462177
0.00452311
0.0044202
0.00431249
0.00419936
0.00408007
0.00395367
0.00381896
0.0036744
0.00351797
0.00334701
0.003158
0.00294619
0.00270511
0.0024263
0.00209812
0.00170378
0.00122108
0.000630696
6.49827e-05
9.49288e-05
0.000932651
0.00181148
0.00253956
0.00314912
0.00367174
0.00412935
0.00453679
0.00490434
0.00523934
0.00554713
0.00583175
0.00609633
0.00634332
0.0065747
0.0067921
0.00699689
0.00719021
0.00737305
0.00754625
0.00771056
0.00786663
0.00801503
0.00815628
0.00829084
0.00841911
0.00854147
0.00865826
0.00876976
0.00887627
0.00897802
0.00907526
0.00916819
0.00925701
0.0093419
0.00942303
0.00950055
0.0095746
0.00964533
0.00971286
0.00977731
0.00983879
0.00989739
0.00995322
0.0100064
0.0100569
0.0101049
0.0101504
0.0101935
0.0102344
0.0102732
0.0103098
0.0103445
0.0103772
0.0104081
0.0104371
0.0104645
0.0104902
0.0105142
0.0105367
0.0105577
0.0105773
0.0105954
0.0106121
0.0106275
0.0106417
0.0106545
0.0106662
0.0106766
0.010686
0.0106942
0.0107013
0.0107073
0.0107124
0.0107164
0.0107195
0.0107216
0.0107227
0.010723
0.0107224
0.0107209
0.0107185
0.0107153
0.0107113
0.0107065
0.0107009
0.0106946
0.0106874
0.0106796
0.0106709
0.0106616
0.0106515
0.0106408
0.0106293
0.0106171
0.0106042
0.0105907
0.0105765
0.0105615
0.010546
0.0105297
0.0105128
0.0104952
0.0104769
0.0104579
0.0104383
0.010418
0.010397
0.0103754
0.010353
0.01033
0.0103063
0.0102818
0.0102567
0.0102308
0.0102042
0.0101769
0.0101488
0.01012
0.0100905
0.0100601
0.010029
0.00999711
0.0099644
0.00993088
0.00989654
0.00986135
0.00982531
0.00978841
0.00975063
0.00971195
0.00967237
0.00963187
0.00959042
0.00954803
0.00950466
0.00946031
0.00941496
0.00936859
0.00932118
0.00927272
0.00922319
0.00917256
0.00912082
0.00906795
0.00901392
0.00895873
0.00890233
0.00884472
0.00878586
0.00872573
0.0086643
0.00860155
0.00853744
0.00847195
0.00840504
0.00833667
0.00826681
0.00819542
0.00812245
0.00804785
0.00797158
0.00789358
0.00781378
0.00773213
0.00764855
0.00756295
0.00747527
0.00738539
0.0072932
0.0071986
0.00710144
0.00700157
0.00689883
0.00679302
0.00668392
0.00657127
0.00645479
0.00633413
0.00620889
0.00607861
0.00594274
0.00580062
0.00565148
0.00549439
0.00532824
0.00515166
0.00496293
0.0047599
0.00453984
0.00429924
0.0040336
0.00373706
0.00340201
0.00301864
0.00257452
0.00205336
0.00143653
0.000716975
7.12422e-05
9.49295e-05
0.000932678
0.00181154
0.00253964
0.00314922
0.00367186
0.00412947
0.00453691
0.00490447
0.00523946
0.00554725
0.00583187
0.00609645
0.00634343
0.00657481
0.00679221
0.00699699
0.00719031
0.00737314
0.00754634
0.00771064
0.00786671
0.00801511
0.00815636
0.00829091
0.00841918
0.00854154
0.00865832
0.00876982
0.00887632
0.00897807
0.00907531
0.00916824
0.00925705
0.00934194
0.00942307
0.00950058
0.00957464
0.00964536
0.00971289
0.00977734
0.00983881
0.00989742
0.00995325
0.0100064
0.0100569
0.0101049
0.0101504
0.0101936
0.0102345
0.0102732
0.0103098
0.0103445
0.0103772
0.0104081
0.0104371
0.0104645
0.0104902
0.0105142
0.0105367
0.0105577
0.0105773
0.0105954
0.0106121
0.0106275
0.0106417
0.0106545
0.0106662
0.0106766
0.010686
0.0106942
0.0107013
0.0107073
0.0107124
0.0107164
0.0107195
0.0107216
0.0107227
0.010723
0.0107223
0.0107208
0.0107185
0.0107153
0.0107113
0.0107065
0.0107009
0.0106945
0.0106874
0.0106795
0.0106709
0.0106616
0.0106515
0.0106408
0.0106293
0.0106171
0.0106042
0.0105907
0.0105765
0.0105615
0.010546
0.0105297
0.0105128
0.0104952
0.0104769
0.0104579
0.0104383
0.010418
0.010397
0.0103754
0.010353
0.01033
0.0103062
0.0102818
0.0102567
0.0102308
0.0102042
0.0101769
0.0101488
0.01012
0.0100905
0.0100601
0.010029
0.0099971
0.00996439
0.00993087
0.00989653
0.00986134
0.0098253
0.0097884
0.00975062
0.00971194
0.00967236
0.00963185
0.00959041
0.00954802
0.00950465
0.0094603
0.00941495
0.00936858
0.00932117
0.00927271
0.00922317
0.00917255
0.00912081
0.00906794
0.00901391
0.00895871
0.00890232
0.0088447
0.00878584
0.00872571
0.00866429
0.00860153
0.00853743
0.00847194
0.00840502
0.00833666
0.0082668
0.0081954
0.00812243
0.00804784
0.00797157
0.00789356
0.00781377
0.00773212
0.00764853
0.00756294
0.00747525
0.00738537
0.00729319
0.00719859
0.00710143
0.00700156
0.00689882
0.00679301
0.00668391
0.00657126
0.00645477
0.00633411
0.00620888
0.0060786
0.00594273
0.00580061
0.00565147
0.00549438
0.00532823
0.00515165
0.00496292
0.0047599
0.00453983
0.00429923
0.00403359
0.00373706
0.003402
0.00301864
0.00257452
0.00205336
0.00143653
0.00071699
7.12429e-05
0.000101975
0.00101014
0.00199731
0.00283807
0.00355415
0.00417505
0.00472303
0.00521393
0.00565903
0.0060665
0.00644241
0.00679132
0.00711679
0.0074216
0.00770802
0.00797789
0.00823275
0.00847391
0.00870249
0.00891944
0.00912562
0.00932176
0.00950854
0.00968654
0.0098563
0.0100183
0.010173
0.0103207
0.0104619
0.0105969
0.0107259
0.0108493
0.0109673
0.0110801
0.0111881
0.0112913
0.0113901
0.0114845
0.0115747
0.011661
0.0117434
0.0118221
0.0118972
0.0119689
0.0120372
0.0121023
0.0121643
0.0122233
0.0122793
0.0123326
0.0123831
0.0124311
0.0124767
0.0125198
0.0125606
0.0125992
0.0126357
0.01267
0.0127024
0.0127329
0.0127614
0.0127882
0.0128132
0.0128365
0.0128581
0.0128782
0.0128967
0.0129137
0.0129292
0.0129433
0.0129561
0.0129674
0.0129775
0.0129863
0.0129939
0.0130002
0.0130054
0.0130094
0.0130123
0.0130141
0.0130148
0.0130145
0.0130131
0.0130107
0.0130073
0.0130029
0.0129976
0.0129914
0.0129842
0.012976
0.012967
0.0129571
0.0129463
0.0129346
0.0129221
0.0129087
0.0128945
0.0128794
0.0128634
0.0128466
0.012829
0.0128105
0.0127912
0.0127711
0.0127501
0.0127283
0.0127057
0.0126822
0.0126578
0.0126326
0.0126066
0.0125796
0.0125518
0.0125231
0.0124935
0.012463
0.0124316
0.0123993
0.012366
0.0123318
0.0122966
0.0122605
0.0122234
0.0121852
0.0121461
0.0121059
0.0120646
0.0120223
0.0119789
0.0119344
0.0118888
0.0118421
0.0117942
0.0117451
0.0116948
0.0116433
0.0115905
0.0115365
0.0114812
0.0114246
0.0113667
0.0113074
0.0112467
0.0111846
0.0111211
0.0110561
0.0109896
0.0109216
0.010852
0.0107808
0.010708
0.0106336
0.0105574
0.0104795
0.0103999
0.0103184
0.010235
0.0101496
0.0100623
0.00997297
0.00988149
0.00978783
0.0096919
0.00959363
0.00949293
0.00938969
0.00928381
0.00917517
0.00906363
0.00894906
0.00883128
0.00871011
0.00858536
0.00845678
0.00832413
0.00818709
0.00804533
0.00789847
0.00774604
0.00758752
0.0074223
0.00724965
0.00706871
0.00687849
0.00667777
0.0064651
0.00623873
0.00599648
0.00573569
0.00545303
0.00514435
0.00480446
0.00442683
0.00400324
0.00352346
0.00297495
0.00234297
0.00161315
0.000788716
7.66099e-05
0.000101976
0.00101017
0.00199737
0.00283816
0.00355426
0.00417517
0.00472316
0.00521407
0.00565917
0.00606665
0.00644255
0.00679146
0.00711692
0.00742173
0.00770815
0.00797801
0.00823287
0.00847403
0.0087026
0.00891955
0.00912572
0.00932186
0.00950864
0.00968664
0.00985639
0.0100184
0.0101731
0.0103208
0.010462
0.0105969
0.010726
0.0108493
0.0109673
0.0110802
0.0111881
0.0112914
0.0113901
0.0114845
0.0115747
0.011661
0.0117434
0.0118221
0.0118972
0.0119689
0.0120372
0.0121023
0.0121643
0.0122233
0.0122793
0.0123326
0.0123832
0.0124312
0.0124767
0.0125198
0.0125606
0.0125992
0.0126357
0.01267
0.0127024
0.0127329
0.0127614
0.0127882
0.0128132
0.0128365
0.0128581
0.0128782
0.0128967
0.0129137
0.0129292
0.0129433
0.0129561
0.0129674
0.0129775
0.0129863
0.0129939
0.0130002
0.0130054
0.0130094
0.0130123
0.0130141
0.0130148
0.0130145
0.0130131
0.0130107
0.0130073
0.0130029
0.0129976
0.0129914
0.0129842
0.012976
0.012967
0.0129571
0.0129463
0.0129346
0.0129221
0.0129087
0.0128944
0.0128793
0.0128634
0.0128466
0.012829
0.0128105
0.0127912
0.0127711
0.0127501
0.0127283
0.0127057
0.0126822
0.0126578
0.0126326
0.0126065
0.0125796
0.0125518
0.0125231
0.0124935
0.012463
0.0124316
0.0123993
0.012366
0.0123318
0.0122966
0.0122605
0.0122233
0.0121852
0.012146
0.0121059
0.0120646
0.0120223
0.0119789
0.0119344
0.0118888
0.0118421
0.0117941
0.011745
0.0116948
0.0116433
0.0115905
0.0115365
0.0114812
0.0114246
0.0113666
0.0113073
0.0112467
0.0111846
0.011121
0.0110561
0.0109896
0.0109215
0.010852
0.0107808
0.010708
0.0106336
0.0105574
0.0104795
0.0103999
0.0103183
0.010235
0.0101496
0.0100623
0.00997295
0.00988148
0.00978781
0.00969189
0.00959362
0.00949291
0.00938968
0.00928379
0.00917515
0.00906362
0.00894904
0.00883126
0.0087101
0.00858534
0.00845677
0.00832411
0.00818708
0.00804532
0.00789846
0.00774603
0.00758751
0.00742228
0.00724963
0.0070687
0.00687848
0.00667776
0.00646509
0.00623872
0.00599647
0.00573568
0.00545302
0.00514435
0.00480446
0.00442683
0.00400324
0.00352346
0.00297496
0.00234298
0.00161315
0.000788716
7.661e-05
0.000108386
0.00107633
0.0021506
0.00308175
0.00388463
0.00458694
0.0052109
0.00577286
0.00628476
0.00675535
0.00719117
0.00759719
0.00797726
0.00833442
0.0086711
0.00898929
0.00929066
0.0095766
0.0098483
0.0101068
0.010353
0.0105877
0.0108116
0.0110253
0.0112295
0.0114246
0.0116111
0.0117895
0.0119601
0.0121234
0.0122796
0.0124292
0.0125723
0.0127093
0.0128405
0.012966
0.0130862
0.0132011
0.0133111
0.0134164
0.013517
0.0136132
0.0137051
0.0137929
0.0138767
0.0139567
0.014033
0.0141057
0.0141749
0.0142408
0.0143035
0.0143632
0.0144198
0.0144736
0.0145247
0.0145731
0.014619
0.0146624
0.0147033
0.014742
0.0147785
0.0148128
0.014845
0.0148752
0.0149034
0.0149297
0.0149541
0.0149768
0.0149978
0.015017
0.0150346
0.0150506
0.0150651
0.015078
0.0150895
0.0150995
0.0151081
0.0151154
0.0151213
0.0151259
0.0151293
0.0151314
0.0151322
0.0151319
0.0151304
0.0151277
0.0151239
0.0151189
0.0151129
0.0151057
0.0150975
0.0150883
0.015078
0.0150666
0.0150542
0.0150408
0.0150264
0.015011
0.0149946
0.0149772
0.0149587
0.0149393
0.0149189
0.0148975
0.0148751
0.0148518
0.0148274
0.014802
0.0147756
0.0147482
0.0147197
0.0146902
0.0146597
0.0146281
0.0145955
0.0145618
0.014527
0.0144911
0.0144541
0.014416
0.0143767
0.0143362
0.0142946
0.0142518
0.0142078
0.0141625
0.014116
0.0140682
0.0140191
0.0139687
0.0139169
0.0138638
0.0138093
0.0137534
0.013696
0.0136372
0.0135769
0.013515
0.0134517
0.0133867
0.0133201
0.0132519
0.0131821
0.0131105
0.0130372
0.0129621
0.0128852
0.0128064
0.0127258
0.0126432
0.0125586
0.012472
0.0123833
0.0122925
0.0121995
0.0121043
0.0120068
0.0119069
0.0118045
0.0116996
0.0115921
0.0114819
0.011369
0.0112531
0.0111342
0.0110121
0.0108868
0.0107581
0.0106257
0.0104896
0.0103495
0.0102051
0.0100563
0.00990276
0.00974409
0.00957996
0.00940994
0.00923353
0.00905019
0.00885926
0.00865998
0.00845147
0.00823267
0.00800237
0.00775911
0.00750113
0.00722633
0.00693218
0.00661557
0.00627273
0.00589903
0.00548879
0.00503507
0.00452939
0.00396156
0.00331958
0.0025905
0.00176359
0.000850388
8.13222e-05
0.000108387
0.00107636
0.00215066
0.00308185
0.00388475
0.00458707
0.00521104
0.00577301
0.00628491
0.0067555
0.00719133
0.00759735
0.00797742
0.00833457
0.00867124
0.00898943
0.0092908
0.00957674
0.00984843
0.0101069
0.0103531
0.0105878
0.0108117
0.0110254
0.0112296
0.0114247
0.0116112
0.0117895
0.0119602
0.0121234
0.0122797
0.0124292
0.0125724
0.0127094
0.0128405
0.0129661
0.0130862
0.0132012
0.0133112
0.0134164
0.013517
0.0136132
0.0137051
0.0137929
0.0138768
0.0139567
0.014033
0.0141057
0.0141749
0.0142408
0.0143035
0.0143632
0.0144198
0.0144737
0.0145247
0.0145731
0.014619
0.0146624
0.0147034
0.014742
0.0147785
0.0148128
0.014845
0.0148752
0.0149034
0.0149297
0.0149541
0.0149768
0.0149978
0.015017
0.0150346
0.0150506
0.0150651
0.015078
0.0150895
0.0150995
0.0151081
0.0151154
0.0151213
0.0151259
0.0151293
0.0151314
0.0151322
0.0151319
0.0151304
0.0151277
0.0151239
0.0151189
0.0151129
0.0151057
0.0150975
0.0150883
0.015078
0.0150666
0.0150542
0.0150408
0.0150264
0.015011
0.0149946
0.0149771
0.0149587
0.0149393
0.0149189
0.0148975
0.0148751
0.0148518
0.0148274
0.014802
0.0147756
0.0147482
0.0147197
0.0146902
0.0146597