/*--------------------------------*- C++ -*----------------------------------*\
  =========                 |
  \\      /  F ield         | OpenFOAM: The Open Source CFD Toolbox
   \\    /   O peration     | Website:  https://openfoam.org
    \\  /    A nd           | Version:  8
     \\/     M anipulation  |
\*---------------------------------------------------------------------------*/
FoamFile
{
    version     2.0;
    format      ascii;
    class       volVectorField;
    location    "2400";
    object      U;
}
// * * * * * * * * * * * * * * * * * * * * * * * * * * * * * * * * * * * * * //

dimensions      [0 1 -1 0 0 0 0];

internalField   nonuniform List<vector> 
48000
(
(-0.0162846 -8.24794e-07 0.0178111)
(-0.0309443 -1.21039e-07 0.0139751)
(-0.0416985 -7.97909e-08 0.00545681)
(-0.0423483 -1.05796e-07 -0.00186567)
(-0.0366684 -1.44243e-07 -0.00690589)
(-0.0266017 -1.76781e-07 -0.0101544)
(-0.0137873 -1.97188e-07 -0.0121899)
(0.000829199 -2.02701e-07 -0.0133246)
(0.0163139 -1.92749e-07 -0.013738)
(0.0320871 -1.75677e-07 -0.0137176)
(0.0479008 -1.59968e-07 -0.0134638)
(0.0634673 -1.4598e-07 -0.0130604)
(0.0786318 -1.34839e-07 -0.0125616)
(0.093283 -1.27423e-07 -0.0120036)
(0.107346 -1.2352e-07 -0.0114109)
(0.120774 -1.22092e-07 -0.0108006)
(0.133535 -1.21822e-07 -0.010185)
(0.145617 -1.21323e-07 -0.0095728)
(0.157013 -1.19378e-07 -0.00897019)
(0.167727 -1.15197e-07 -0.00838176)
(0.17777 -1.08451e-07 -0.00781077)
(0.187156 -9.94578e-08 -0.00725952)
(0.195902 -8.91476e-08 -0.00672958)
(0.20403 -7.86089e-08 -0.00622199)
(0.211562 -6.87823e-08 -0.00573731)
(0.218522 -6.03186e-08 -0.00527578)
(0.224934 -5.37624e-08 -0.00483735)
(0.230823 -4.92622e-08 -0.00442179)
(0.236216 -4.66123e-08 -0.00402866)
(0.241136 -4.51084e-08 -0.00365739)
(0.245608 -4.40043e-08 -0.00330734)
(0.249658 -4.27364e-08 -0.00297776)
(0.253307 -4.09203e-08 -0.00266785)
(0.25658 -3.81848e-08 -0.00237678)
(0.259498 -3.42652e-08 -0.00210369)
(0.262082 -2.91577e-08 -0.00184773)
(0.264352 -2.32621e-08 -0.00160803)
(0.266329 -1.72142e-08 -0.00138373)
(0.268029 -1.15337e-08 -0.001174)
(0.26947 -6.56711e-09 -0.000978034)
(0.270669 -2.40955e-09 -0.000795035)
(0.271642 8.7232e-10 -0.000624254)
(0.272404 3.09767e-09 -0.000464973)
(0.272967 4.06852e-09 -0.000316513)
(0.273346 3.68397e-09 -0.000178237)
(0.273552 2.15534e-09 -4.94823e-05)
(0.273598 -8.52532e-11 7.05228e-05)
(0.273495 -2.46671e-09 0.00018214)
(0.273252 -4.6521e-09 0.000285682)
(0.27288 -6.51767e-09 0.000381791)
(0.272387 -8.21952e-09 0.000470981)
(0.271783 -1.00413e-08 0.000553692)
(0.271074 -1.22057e-08 0.000630318)
(0.27027 -1.48213e-08 0.000701229)
(0.269376 -1.78843e-08 0.000766772)
(0.2684 -2.12785e-08 0.000827272)
(0.267348 -2.49906e-08 0.000883038)
(0.266225 -2.90796e-08 0.000934359)
(0.265038 -3.3694e-08 0.000981507)
(0.263792 -3.8908e-08 0.00102474)
(0.262491 -4.47559e-08 0.0010643)
(0.26114 -5.10589e-08 0.00110041)
(0.259743 -5.75026e-08 0.00113329)
(0.258306 -6.35828e-08 0.00116315)
(0.25683 -6.8892e-08 0.00119018)
(0.25532 -7.29886e-08 0.00121456)
(0.25378 -7.56632e-08 0.00123647)
(0.252211 -7.68625e-08 0.00125608)
(0.250618 -7.66378e-08 0.00127353)
(0.249003 -7.52386e-08 0.00128899)
(0.247368 -7.28915e-08 0.00130258)
(0.245716 -6.98361e-08 0.00131444)
(0.244049 -6.62706e-08 0.00132471)
(0.242368 -6.23263e-08 0.00133349)
(0.240677 -5.80755e-08 0.0013409)
(0.238975 -5.35411e-08 0.00134706)
(0.237266 -4.87592e-08 0.00135206)
(0.23555 -4.37146e-08 0.001356)
(0.233829 -3.8451e-08 0.00135897)
(0.232104 -3.30657e-08 0.00136107)
(0.230376 -2.75871e-08 0.00136238)
(0.228646 -2.21637e-08 0.00136297)
(0.226914 -1.6902e-08 0.00136292)
(0.225183 -1.19603e-08 0.0013623)
(0.223452 -7.45819e-09 0.00136119)
(0.221721 -3.50057e-09 0.00135964)
(0.219993 -2.07315e-10 0.00135771)
(0.218266 2.37018e-09 0.00135546)
(0.216542 4.19765e-09 0.00135295)
(0.214821 5.24463e-09 0.00135023)
(0.213102 5.57205e-09 0.00134734)
(0.211387 5.22368e-09 0.00134434)
(0.209675 4.31755e-09 0.00134126)
(0.207967 2.96788e-09 0.00133816)
(0.206262 1.2946e-09 0.00133507)
(0.20456 -5.69051e-10 0.00133203)
(0.202862 -2.486e-09 0.00132907)
(0.201167 -4.32871e-09 0.00132624)
(0.199476 -5.98105e-09 0.00132355)
(0.197787 -7.41257e-09 0.00132106)
(0.1961 -8.50145e-09 0.00131878)
(0.194417 -9.28955e-09 0.00131674)
(0.192735 -9.7883e-09 0.00131498)
(0.191055 -1.00662e-08 0.00131351)
(0.189376 -1.02071e-08 0.00131237)
(0.187699 -1.03023e-08 0.00131158)
(0.186022 -1.05041e-08 0.00131116)
(0.184344 -1.09038e-08 0.00131114)
(0.182667 -1.15853e-08 0.00131154)
(0.180988 -1.26742e-08 0.00131239)
(0.179308 -1.41971e-08 0.00131371)
(0.177626 -1.62149e-08 0.00131552)
(0.175941 -1.87696e-08 0.00131785)
(0.174252 -2.18154e-08 0.00132071)
(0.17256 -2.53523e-08 0.00132414)
(0.170863 -2.93156e-08 0.00132814)
(0.16916 -3.3595e-08 0.00133276)
(0.167451 -3.80723e-08 0.00133799)
(0.165735 -4.25876e-08 0.00134388)
(0.164011 -4.69583e-08 0.00135044)
(0.162278 -5.09712e-08 0.00135768)
(0.160536 -5.44243e-08 0.00136564)
(0.158783 -5.71008e-08 0.00137433)
(0.15702 -5.88826e-08 0.00138378)
(0.155244 -5.96897e-08 0.001394)
(0.153454 -5.95374e-08 0.00140502)
(0.151651 -5.85894e-08 0.00141686)
(0.149833 -5.71122e-08 0.00142954)
(0.147998 -5.54599e-08 0.00144308)
(0.146146 -5.40132e-08 0.00145751)
(0.144276 -5.30614e-08 0.00147283)
(0.142386 -5.27454e-08 0.00148908)
(0.140476 -5.29928e-08 0.00150626)
(0.138545 -5.34611e-08 0.00152441)
(0.13659 -5.37048e-08 0.00154352)
(0.134612 -5.31908e-08 0.00156362)
(0.132608 -5.14357e-08 0.00158472)
(0.130578 -4.82642e-08 0.00160684)
(0.128521 -4.37869e-08 0.00163)
(0.126435 -3.84187e-08 0.00165419)
(0.124319 -3.28335e-08 0.00167944)
(0.122172 -2.76291e-08 0.00170575)
(0.119993 -2.32507e-08 0.00173312)
(0.11778 -1.96796e-08 0.00176156)
(0.115532 -1.64701e-08 0.00179107)
(0.113248 -1.29217e-08 0.00182165)
(0.110928 -8.35686e-09 0.00185328)
(0.108569 -2.55465e-09 0.00188597)
(0.10617 4.27552e-09 0.00191968)
(0.103732 1.12732e-08 0.00195442)
(0.101251 1.75513e-08 0.00199015)
(0.0987281 2.23446e-08 0.00202685)
(0.0961615 2.55922e-08 0.00206449)
(0.0935505 2.79032e-08 0.00210302)
(0.0908941 3.00809e-08 0.00214241)
(0.0881918 3.28107e-08 0.0021826)
(0.0854426 3.59098e-08 0.00222353)
(0.0826462 3.85596e-08 0.00226511)
(0.079802 3.95495e-08 0.00230727)
(0.0769098 3.83845e-08 0.00234991)
(0.0739692 3.55786e-08 0.00239291)
(0.0709804 3.26965e-08 0.00243617)
(0.0679435 3.14097e-08 0.00247953)
(0.0648588 3.21216e-08 0.00252283)
(0.0617269 3.37435e-08 0.00256589)
(0.0585487 3.42308e-08 0.0026085)
(0.0553253 3.22168e-08 0.0026504)
(0.0520582 2.82991e-08 0.00269134)
(0.0487493 2.46785e-08 0.00273099)
(0.0454007 2.34487e-08 0.00276902)
(0.0420153 2.44577e-08 0.00280499)
(0.0385962 2.52115e-08 0.00283843)
(0.0351474 2.32127e-08 0.00286878)
(0.0316735 1.86021e-08 0.00289541)
(0.0281797 1.44066e-08 0.00291757)
(0.0246726 1.34319e-08 0.00293443)
(0.0211593 1.47492e-08 0.00294496)
(0.0176487 1.40868e-08 0.00294797)
(0.0141506 9.24396e-09 0.00294206)
(0.010677 3.95191e-09 0.00292556)
(0.00724137 4.66767e-09 0.00289643)
(0.00386154 1.21298e-08 0.00285206)
(0.00055514 1.86554e-08 0.00278655)
(-0.00265825 1.78711e-08 0.00269075)
(-0.00573637 1.42086e-08 0.00256385)
(-0.00865938 1.57239e-08 0.00240738)
(-0.0113848 1.84651e-08 0.00221644)
(-0.0138693 1.04699e-08 0.0019827)
(-0.0160591 -4.72858e-09 0.00169669)
(-0.0178898 -6.1068e-09 0.00134752)
(-0.0192838 8.26169e-09 0.000920704)
(-0.0201476 8.82516e-09 0.000398953)
(-0.0203714 -1.52365e-08 -0.00023672)
(-0.0198222 -3.47296e-08 -0.00100145)
(-0.0183688 -4.47047e-08 -0.00190455)
(-0.0158788 -6.83868e-08 -0.00293057)
(-0.0122453 -7.76418e-08 -0.00397534)
(-0.00782552 -5.61978e-08 -0.00467774)
(-0.00219928 6.86884e-08 -0.00357423)
(-1.25514e-05 3.62316e-08 0.00035101)
(-0.0162842 -8.24754e-07 0.0178113)
(-0.030944 -1.21036e-07 0.0139751)
(-0.0416981 -7.97893e-08 0.00545675)
(-0.0423478 -1.05794e-07 -0.00186576)
(-0.0366678 -1.4424e-07 -0.00690597)
(-0.0266011 -1.76778e-07 -0.0101545)
(-0.0137868 -1.97185e-07 -0.0121899)
(0.000829745 -2.02698e-07 -0.0133247)
(0.0163143 -1.92746e-07 -0.0137381)
(0.0320875 -1.75675e-07 -0.0137177)
(0.0479012 -1.59966e-07 -0.0134638)
(0.0634676 -1.45978e-07 -0.0130604)
(0.0786321 -1.34838e-07 -0.0125617)
(0.0932832 -1.27422e-07 -0.0120036)
(0.107347 -1.23519e-07 -0.0114109)
(0.120774 -1.22092e-07 -0.0108006)
(0.133535 -1.21821e-07 -0.010185)
(0.145617 -1.21323e-07 -0.00957278)
(0.157013 -1.19377e-07 -0.00897016)
(0.167727 -1.15197e-07 -0.00838172)
(0.17777 -1.0845e-07 -0.00781072)
(0.187156 -9.94574e-08 -0.00725947)
(0.195902 -8.91472e-08 -0.00672954)
(0.20403 -7.86086e-08 -0.00622194)
(0.211562 -6.8782e-08 -0.00573726)
(0.218521 -6.03184e-08 -0.00527572)
(0.224934 -5.37622e-08 -0.0048373)
(0.230823 -4.9262e-08 -0.00442173)
(0.236215 -4.66121e-08 -0.0040286)
(0.241135 -4.51082e-08 -0.00365733)
(0.245608 -4.40041e-08 -0.00330728)
(0.249658 -4.27363e-08 -0.00297769)
(0.253307 -4.09202e-08 -0.00266778)
(0.25658 -3.81847e-08 -0.00237671)
(0.259498 -3.42651e-08 -0.00210363)
(0.262082 -2.91576e-08 -0.00184767)
(0.264352 -2.3262e-08 -0.00160797)
(0.266328 -1.72141e-08 -0.00138368)
(0.268028 -1.15337e-08 -0.00117396)
(0.26947 -6.56709e-09 -0.000978002)
(0.270669 -2.40955e-09 -0.000795012)
(0.271642 8.72318e-10 -0.000624239)
(0.272403 3.09766e-09 -0.000464965)
(0.272967 4.06851e-09 -0.000316512)
(0.273346 3.68396e-09 -0.000178242)
(0.273552 2.15534e-09 -4.94946e-05)
(0.273598 -8.5253e-11 7.05044e-05)
(0.273495 -2.46671e-09 0.000182117)
(0.273252 -4.65209e-09 0.000285653)
(0.27288 -6.51766e-09 0.000381757)
(0.272387 -8.21951e-09 0.000470942)
(0.271782 -1.00413e-08 0.000553648)
(0.271074 -1.22057e-08 0.000630269)
(0.270269 -1.48213e-08 0.000701176)
(0.269376 -1.78843e-08 0.000766715)
(0.2684 -2.12784e-08 0.000827213)
(0.267347 -2.49905e-08 0.000882978)
(0.266225 -2.90795e-08 0.000934299)
(0.265038 -3.36939e-08 0.000981449)
(0.263791 -3.89079e-08 0.00102468)
(0.262491 -4.47559e-08 0.00106425)
(0.26114 -5.10588e-08 0.00110037)
(0.259743 -5.75025e-08 0.00113326)
(0.258305 -6.35827e-08 0.00116313)
(0.25683 -6.88919e-08 0.00119017)
(0.25532 -7.29885e-08 0.00121457)
(0.25378 -7.56631e-08 0.00123649)
(0.252211 -7.68624e-08 0.00125611)
(0.250618 -7.66377e-08 0.00127357)
(0.249003 -7.52385e-08 0.00128904)
(0.247368 -7.28914e-08 0.00130264)
(0.245716 -6.9836e-08 0.00131451)
(0.244049 -6.62705e-08 0.00132478)
(0.242368 -6.23262e-08 0.00133356)
(0.240677 -5.80754e-08 0.00134098)
(0.238975 -5.3541e-08 0.00134713)
(0.237266 -4.87591e-08 0.00135213)
(0.23555 -4.37145e-08 0.00135607)
(0.233829 -3.8451e-08 0.00135905)
(0.232104 -3.30657e-08 0.00136114)
(0.230376 -2.7587e-08 0.00136245)
(0.228645 -2.21636e-08 0.00136303)
(0.226914 -1.6902e-08 0.00136298)
(0.225183 -1.19602e-08 0.00136236)
(0.223451 -7.45818e-09 0.00136124)
(0.221721 -3.50057e-09 0.00135969)
(0.219993 -2.07315e-10 0.00135775)
(0.218266 2.37018e-09 0.0013555)
(0.216542 4.19764e-09 0.00135299)
(0.214821 5.24463e-09 0.00135026)
(0.213102 5.57204e-09 0.00134738)
(0.211387 5.22367e-09 0.00134437)
(0.209675 4.31755e-09 0.0013413)
(0.207967 2.96788e-09 0.00133819)
(0.206262 1.29459e-09 0.0013351)
(0.20456 -5.6905e-10 0.00133205)
(0.202862 -2.486e-09 0.00132909)
(0.201167 -4.3287e-09 0.00132626)
(0.199476 -5.98104e-09 0.00132357)
(0.197787 -7.41256e-09 0.00132107)
(0.1961 -8.50144e-09 0.00131879)
(0.194417 -9.28954e-09 0.00131675)
(0.192735 -9.78829e-09 0.00131498)
(0.191055 -1.00662e-08 0.00131351)
(0.189376 -1.02071e-08 0.00131236)
(0.187699 -1.03023e-08 0.00131157)
(0.186022 -1.05041e-08 0.00131115)
(0.184344 -1.09038e-08 0.00131112)
(0.182667 -1.15853e-08 0.00131153)
(0.180988 -1.26742e-08 0.00131237)
(0.179308 -1.41971e-08 0.00131369)
(0.177626 -1.62149e-08 0.0013155)
(0.175941 -1.87696e-08 0.00131783)
(0.174252 -2.18154e-08 0.00132069)
(0.17256 -2.53523e-08 0.00132412)
(0.170863 -2.93156e-08 0.00132813)
(0.16916 -3.35949e-08 0.00133275)
(0.167451 -3.80722e-08 0.00133799)
(0.165735 -4.25876e-08 0.00134388)
(0.164011 -4.69583e-08 0.00135044)
(0.162278 -5.09711e-08 0.00135769)
(0.160536 -5.44243e-08 0.00136565)
(0.158783 -5.71007e-08 0.00137435)
(0.15702 -5.88825e-08 0.0013838)
(0.155244 -5.96896e-08 0.00139402)
(0.153454 -5.95374e-08 0.00140505)
(0.151651 -5.85894e-08 0.00141689)
(0.149833 -5.71122e-08 0.00142958)
(0.147998 -5.54598e-08 0.00144313)
(0.146146 -5.40131e-08 0.00145755)
(0.144276 -5.30613e-08 0.00147288)
(0.142386 -5.27453e-08 0.00148913)
(0.140476 -5.29927e-08 0.00150632)
(0.138545 -5.3461e-08 0.00152447)
(0.13659 -5.37047e-08 0.00154358)
(0.134612 -5.31907e-08 0.00156369)
(0.132608 -5.14356e-08 0.00158479)
(0.130578 -4.82642e-08 0.00160692)
(0.128521 -4.37869e-08 0.00163007)
(0.126435 -3.84187e-08 0.00165427)
(0.124319 -3.28335e-08 0.00167952)
(0.122172 -2.7629e-08 0.00170583)
(0.119993 -2.32507e-08 0.00173321)
(0.11778 -1.96795e-08 0.00176165)
(0.115532 -1.647e-08 0.00179116)
(0.113248 -1.29217e-08 0.00182173)
(0.110928 -8.35685e-09 0.00185336)
(0.108569 -2.55464e-09 0.00188603)
(0.10617 4.27552e-09 0.00191974)
(0.103732 1.12732e-08 0.00195447)
(0.101251 1.75513e-08 0.00199019)
(0.0987281 2.23446e-08 0.00202689)
(0.0961615 2.55922e-08 0.00206452)
(0.0935505 2.79031e-08 0.00210305)
(0.0908942 3.00809e-08 0.00214243)
(0.0881918 3.28107e-08 0.00218261)
(0.0854427 3.59097e-08 0.00222353)
(0.0826463 3.85596e-08 0.00226511)
(0.0798021 3.95494e-08 0.00230726)
(0.0769098 3.83844e-08 0.00234988)
(0.0739693 3.55785e-08 0.00239289)
(0.0709804 3.26964e-08 0.00243614)
(0.0679435 3.14096e-08 0.0024795)
(0.0648588 3.21215e-08 0.0025228)
(0.0617269 3.37434e-08 0.00256585)
(0.0585487 3.42308e-08 0.00260845)
(0.0553253 3.22167e-08 0.00265035)
(0.0520583 2.82991e-08 0.00269129)
(0.0487493 2.46784e-08 0.00273095)
(0.0454008 2.34487e-08 0.00276897)
(0.0420154 2.44576e-08 0.00280495)
(0.0385963 2.52114e-08 0.00283838)
(0.0351475 2.32126e-08 0.00286873)
(0.0316735 1.86021e-08 0.00289535)
(0.0281798 1.44065e-08 0.00291752)
(0.0246726 1.34319e-08 0.00293438)
(0.0211594 1.47492e-08 0.00294491)
(0.0176487 1.40867e-08 0.00294792)
(0.0141506 9.24394e-09 0.00294201)
(0.010677 3.9519e-09 0.00292551)
(0.00724143 4.66766e-09 0.00289639)
(0.00386161 1.21298e-08 0.00285204)
(0.000555206 1.86554e-08 0.00278652)
(-0.0026582 1.78711e-08 0.00269072)
(-0.00573632 1.42086e-08 0.00256383)
(-0.00865931 1.57238e-08 0.00240738)
(-0.0113847 1.8465e-08 0.00221643)
(-0.0138693 1.04699e-08 0.00198267)
(-0.0160591 -4.72857e-09 0.00169666)
(-0.0178898 -6.10678e-09 0.0013475)
(-0.0192837 8.26167e-09 0.000920697)
(-0.0201476 8.82514e-09 0.000398942)
(-0.0203715 -1.52365e-08 -0.000236693)
(-0.0198222 -3.47294e-08 -0.00100137)
(-0.0183688 -4.47042e-08 -0.00190449)
(-0.0158789 -6.8384e-08 -0.00293053)
(-0.0122453 -7.76322e-08 -0.00397536)
(-0.00782562 -5.61916e-08 -0.00467785)
(-0.00220004 6.87067e-08 -0.00357426)
(-1.18698e-05 3.6258e-08 0.000352002)
(-0.0113341 -1.75535e-07 0.0349676)
(-0.0154977 1.94487e-08 0.0203541)
(-0.0142073 2.23574e-08 0.00625857)
(-0.00952772 1.74908e-08 -0.00546874)
(-0.00212243 1.16309e-08 -0.0139679)
(0.00745667 7.15034e-09 -0.0197227)
(0.0186062 4.86959e-09 -0.0234133)
(0.0308613 4.23081e-09 -0.0256052)
(0.0438085 4.21075e-09 -0.0267017)
(0.0571265 4.54954e-09 -0.0270519)
(0.0705624 4.74938e-09 -0.0269015)
(0.0839153 4.54946e-09 -0.0264022)
(0.0970394 3.8108e-09 -0.025662)
(0.109826 2.5572e-09 -0.0247556)
(0.122194 9.94267e-10 -0.0237368)
(0.134088 -5.46774e-10 -0.022645)
(0.145467 -1.7718e-09 -0.0215095)
(0.156307 -2.4362e-09 -0.0203523)
(0.166591 -2.31057e-09 -0.0191902)
(0.176312 -1.34542e-09 -0.0180362)
(0.185472 3.29789e-10 -0.0169)
(0.194075 2.40667e-09 -0.0157891)
(0.20213 4.57303e-09 -0.0147092)
(0.20965 6.57852e-09 -0.0136646)
(0.21665 8.20376e-09 -0.0126582)
(0.223147 9.30834e-09 -0.0116921)
(0.229159 9.83041e-09 -0.0107677)
(0.234705 9.85419e-09 -0.00988565)
(0.239806 9.55673e-09 -0.00904602)
(0.24448 9.15552e-09 -0.00824857)
(0.248748 8.79619e-09 -0.00749269)
(0.252631 8.58392e-09 -0.00677748)
(0.256147 8.60628e-09 -0.00610184)
(0.259316 8.92799e-09 -0.00546452)
(0.262157 9.54523e-09 -0.00486412)
(0.264688 1.03619e-08 -0.00429917)
(0.266927 1.12019e-08 -0.00376816)
(0.26889 1.19086e-08 -0.00326953)
(0.270593 1.24054e-08 -0.00280173)
(0.272052 1.26653e-08 -0.00236322)
(0.273282 1.27143e-08 -0.00195248)
(0.274296 1.2531e-08 -0.00156803)
(0.275109 1.20908e-08 -0.00120844)
(0.275731 1.13822e-08 -0.000872326)
(0.276177 1.04613e-08 -0.000558375)
(0.276456 9.45184e-09 -0.000265322)
(0.27658 8.48145e-09 8.03231e-06)
(0.276558 7.6605e-09 0.000262827)
(0.2764 7.03657e-09 0.000500172)
(0.276116 6.57684e-09 0.000721115)
(0.275714 6.20086e-09 0.000926629)
(0.275201 5.82869e-09 0.00111763)
(0.274585 5.42702e-09 0.00129496)
(0.273874 5.0006e-09 0.00145945)
(0.273075 4.58703e-09 0.00161184)
(0.272193 4.20011e-09 0.00175285)
(0.271234 3.83127e-09 0.00188316)
(0.270205 3.45673e-09 0.00200342)
(0.26911 3.02745e-09 0.00211421)
(0.267955 2.5187e-09 0.00221612)
(0.266743 1.95808e-09 0.00230968)
(0.265481 1.39936e-09 0.0023954)
(0.264171 9.32966e-10 0.00247376)
(0.262818 6.48845e-10 0.00254521)
(0.261426 6.28377e-10 0.0026102)
(0.259997 9.11537e-10 0.00266913)
(0.258535 1.4969e-09 0.00272238)
(0.257044 2.34068e-09 0.00277034)
(0.255525 3.38053e-09 0.00281335)
(0.253982 4.53793e-09 0.00285174)
(0.252417 5.7434e-09 0.00288584)
(0.250832 6.95172e-09 0.00291594)
(0.24923 8.12149e-09 0.00294232)
(0.247612 9.23511e-09 0.00296528)
(0.24598 1.02926e-08 0.00298505)
(0.244337 1.12901e-08 0.0030019)
(0.242683 1.22276e-08 0.00301605)
(0.24102 1.31028e-08 0.00302773)
(0.23935 1.39023e-08 0.00303715)
(0.237673 1.461e-08 0.00304451)
(0.23599 1.51972e-08 0.00305)
(0.234304 1.56308e-08 0.0030538)
(0.232614 1.58906e-08 0.00305609)
(0.230922 1.59444e-08 0.00305703)
(0.229228 1.57754e-08 0.00305678)
(0.227532 1.53718e-08 0.00305547)
(0.225836 1.47384e-08 0.00305326)
(0.22414 1.38856e-08 0.00305026)
(0.222445 1.28419e-08 0.00304662)
(0.22075 1.1655e-08 0.00304243)
(0.219056 1.03667e-08 0.00303783)
(0.217363 9.03799e-09 0.0030329)
(0.215672 7.73401e-09 0.00302777)
(0.213982 6.51093e-09 0.00302251)
(0.212294 5.41967e-09 0.00301723)
(0.210607 4.50403e-09 0.00301201)
(0.208922 3.79303e-09 0.00300693)
(0.207239 3.29047e-09 0.00300207)
(0.205557 3.00111e-09 0.0029975)
(0.203876 2.90403e-09 0.0029933)
(0.202196 2.96922e-09 0.00298954)
(0.200518 3.15197e-09 0.00298628)
(0.198839 3.4061e-09 0.00298359)
(0.197161 3.67974e-09 0.00298152)
(0.195483 3.92673e-09 0.00298014)
(0.193805 4.10805e-09 0.0029795)
(0.192125 4.19228e-09 0.00297966)
(0.190444 4.15944e-09 0.00298067)
(0.188762 4.01381e-09 0.00298259)
(0.187077 3.75682e-09 0.00298547)
(0.185389 3.40656e-09 0.00298937)
(0.183698 2.99299e-09 0.00299432)
(0.182003 2.54183e-09 0.00300038)
(0.180304 2.09067e-09 0.00300761)
(0.178599 1.67378e-09 0.00301604)
(0.176888 1.32304e-09 0.00302573)
(0.175171 1.06652e-09 0.00303672)
(0.173447 9.32318e-10 0.00304905)
(0.171715 9.34696e-10 0.00306278)
(0.169974 1.09983e-09 0.00307794)
(0.168223 1.43677e-09 0.00309459)
(0.166463 1.94551e-09 0.00311276)
(0.164691 2.62558e-09 0.0031325)
(0.162907 3.46507e-09 0.00315384)
(0.16111 4.41973e-09 0.00317684)
(0.159299 5.45387e-09 0.00320153)
(0.157474 6.49467e-09 0.00322796)
(0.155633 7.46504e-09 0.00325615)
(0.153776 8.2993e-09 0.00328616)
(0.1519 8.92559e-09 0.00331802)
(0.150007 9.33153e-09 0.00335176)
(0.148093 9.52761e-09 0.00338741)
(0.146159 9.58329e-09 0.00342502)
(0.144204 9.59471e-09 0.0034646)
(0.142226 9.68465e-09 0.00350618)
(0.140224 9.94116e-09 0.0035498)
(0.138197 1.04294e-08 0.00359546)
(0.136144 1.11205e-08 0.00364318)
(0.134064 1.19285e-08 0.00369299)
(0.131956 1.27076e-08 0.00374488)
(0.129819 1.33072e-08 0.00379886)
(0.127652 1.36118e-08 0.00385494)
(0.125453 1.36004e-08 0.0039131)
(0.123222 1.33472e-08 0.00397333)
(0.120958 1.30283e-08 0.00403562)
(0.118659 1.28018e-08 0.00409994)
(0.116325 1.27913e-08 0.00416625)
(0.113954 1.29722e-08 0.00423452)
(0.111546 1.32063e-08 0.00430468)
(0.1091 1.32701e-08 0.00437668)
(0.106614 1.29636e-08 0.00445044)
(0.104089 1.22288e-08 0.00452587)
(0.101523 1.11685e-08 0.00460288)
(0.0989157 1.00168e-08 0.00468135)
(0.0962665 8.99459e-09 0.00476115)
(0.0935749 8.19507e-09 0.00484212)
(0.0908404 7.48597e-09 0.0049241)
(0.0880629 6.61126e-09 0.00500689)
(0.085242 5.36439e-09 0.00509027)
(0.0823779 3.75774e-09 0.005174)
(0.0794706 2.08732e-09 0.0052578)
(0.0765205 7.60495e-10 0.00534137)
(0.0735279 1.71331e-11 0.00542436)
(0.0704937 -2.89349e-10 0.00550638)
(0.0674187 -6.01542e-10 0.005587)
(0.0643041 -1.35823e-09 0.00566572)
(0.0611514 -2.59272e-09 0.005742)
(0.0579625 -3.87957e-09 0.00581521)
(0.0547394 -4.66196e-09 0.00588468)
(0.0514848 -4.76475e-09 0.0059496)
(0.0482016 -4.64387e-09 0.00600908)
(0.0448934 -4.97224e-09 0.00606211)
(0.0415643 -5.9469e-09 0.00610754)
(0.038219 -6.97675e-09 0.00614405)
(0.0348629 -7.30513e-09 0.00617014)
(0.0315023 -6.93392e-09 0.00618406)
(0.0281445 -6.85397e-09 0.00618382)
(0.0247976 -7.88573e-09 0.00616709)
(0.0214711 -9.38673e-09 0.00613115)
(0.018176 -9.61897e-09 0.00607281)
(0.0149248 -7.86765e-09 0.00598817)
(0.0117318 -5.71846e-09 0.00587258)
(0.00861373 -5.24446e-09 0.00571973)
(0.00558864 -5.8936e-09 0.00552106)
(0.0026788 -5.37676e-09 0.00527035)
(-9.29316e-05 -4.04899e-09 0.00496099)
(-0.0026962 -5.55285e-09 0.00458251)
(-0.00509811 -1.02034e-08 0.00412267)
(-0.00726319 -1.20242e-08 0.00356654)
(-0.00915019 -8.13796e-09 0.00289614)
(-0.010714 -4.8942e-09 0.00208986)
(-0.0119051 -4.65625e-09 0.00112434)
(-0.012673 -8.29977e-10 -2.33245e-05)
(-0.0129664 2.34146e-10 -0.00136638)
(-0.0127401 -9.93502e-09 -0.0028991)
(-0.0119682 -1.31199e-08 -0.00456694)
(-0.0106412 -1.67292e-08 -0.00618566)
(-0.00882634 -3.20754e-08 -0.00732223)
(-0.00618871 -3.80517e-08 -0.00681047)
(-0.00353194 -2.57101e-07 -0.00275337)
(-0.0113339 -1.75531e-07 0.0349676)
(-0.0154975 1.9448e-08 0.0203539)
(-0.014207 2.23566e-08 0.00625836)
(-0.00952742 1.74902e-08 -0.00546892)
(-0.00212213 1.16305e-08 -0.013968)
(0.00745695 7.15015e-09 -0.0197229)
(0.0186064 4.86947e-09 -0.0234134)
(0.0308615 4.23072e-09 -0.0256053)
(0.0438086 4.21066e-09 -0.0267018)
(0.0571266 4.54946e-09 -0.027052)
(0.0705625 4.7493e-09 -0.0269015)
(0.0839154 4.54939e-09 -0.0264023)
(0.0970394 3.81074e-09 -0.025662)
(0.109826 2.55717e-09 -0.0247556)
(0.122194 9.94254e-10 -0.0237368)
(0.134088 -5.46767e-10 -0.022645)
(0.145467 -1.77178e-09 -0.0215095)
(0.156306 -2.43617e-09 -0.0203523)
(0.16659 -2.31054e-09 -0.0191902)
(0.176312 -1.34541e-09 -0.0180362)
(0.185472 3.29786e-10 -0.0169)
(0.194075 2.40665e-09 -0.0157891)
(0.20213 4.57299e-09 -0.0147092)
(0.20965 6.57847e-09 -0.0136646)
(0.21665 8.2037e-09 -0.0126582)
(0.223147 9.30828e-09 -0.0116921)
(0.229159 9.83034e-09 -0.0107677)
(0.234705 9.85412e-09 -0.00988564)
(0.239805 9.55667e-09 -0.00904601)
(0.24448 9.15547e-09 -0.00824856)
(0.248748 8.79614e-09 -0.00749267)
(0.252631 8.58388e-09 -0.00677746)
(0.256147 8.60623e-09 -0.00610183)
(0.259316 8.92794e-09 -0.0054645)
(0.262157 9.54519e-09 -0.0048641)
(0.264688 1.03618e-08 -0.00429916)
(0.266927 1.12018e-08 -0.00376815)
(0.268889 1.19085e-08 -0.00326953)
(0.270593 1.24054e-08 -0.00280173)
(0.272052 1.26652e-08 -0.00236322)
(0.273282 1.27142e-08 -0.00195249)
(0.274296 1.2531e-08 -0.00156804)
(0.275108 1.20908e-08 -0.00120845)
(0.275731 1.13821e-08 -0.000872338)
(0.276177 1.04612e-08 -0.000558389)
(0.276456 9.45181e-09 -0.000265338)
(0.276579 8.48142e-09 8.01511e-06)
(0.276558 7.66047e-09 0.000262808)
(0.2764 7.03655e-09 0.000500152)
(0.276116 6.57682e-09 0.000721094)
(0.275713 6.20084e-09 0.000926607)
(0.275201 5.82868e-09 0.0011176)
(0.274585 5.427e-09 0.00129494)
(0.273874 5.00058e-09 0.00145942)
(0.273075 4.58701e-09 0.00161181)
(0.272193 4.2001e-09 0.00175283)
(0.271234 3.83126e-09 0.00188314)
(0.270205 3.45672e-09 0.0020034)
(0.26911 3.02745e-09 0.00211419)
(0.267955 2.5187e-09 0.0022161)
(0.266743 1.95807e-09 0.00230966)
(0.265481 1.39936e-09 0.00239538)
(0.264171 9.32963e-10 0.00247375)
(0.262818 6.48843e-10 0.0025452)
(0.261426 6.28375e-10 0.00261019)
(0.259997 9.11535e-10 0.00266912)
(0.258535 1.4969e-09 0.00272238)
(0.257044 2.34067e-09 0.00277034)
(0.255525 3.38052e-09 0.00281335)
(0.253982 4.53792e-09 0.00285175)
(0.252417 5.74338e-09 0.00288585)
(0.250832 6.9517e-09 0.00291595)
(0.24923 8.12147e-09 0.00294234)
(0.247612 9.23508e-09 0.00296529)
(0.24598 1.02925e-08 0.00298506)
(0.244337 1.129e-08 0.00300191)
(0.242683 1.22276e-08 0.00301606)
(0.24102 1.31027e-08 0.00302774)
(0.239349 1.39023e-08 0.00303716)
(0.237673 1.46099e-08 0.00304451)
(0.23599 1.51972e-08 0.00305)
(0.234304 1.56307e-08 0.00305381)
(0.232614 1.58906e-08 0.0030561)
(0.230922 1.59443e-08 0.00305704)
(0.229227 1.57754e-08 0.00305678)
(0.227532 1.53718e-08 0.00305548)
(0.225836 1.47384e-08 0.00305326)
(0.22414 1.38855e-08 0.00305027)
(0.222445 1.28419e-08 0.00304662)
(0.22075 1.1655e-08 0.00304244)
(0.219056 1.03667e-08 0.00303783)
(0.217363 9.03797e-09 0.00303291)
(0.215672 7.73399e-09 0.00302777)
(0.213982 6.51091e-09 0.00302252)
(0.212294 5.41966e-09 0.00301724)
(0.210607 4.50402e-09 0.00301201)
(0.208922 3.79302e-09 0.00300693)
(0.207239 3.29046e-09 0.00300207)
(0.205557 3.00111e-09 0.0029975)
(0.203876 2.90402e-09 0.00299331)
(0.202196 2.96922e-09 0.00298954)
(0.200518 3.15196e-09 0.00298628)
(0.198839 3.40609e-09 0.00298359)
(0.197161 3.67973e-09 0.00298152)
(0.195483 3.92672e-09 0.00298013)
(0.193804 4.10804e-09 0.00297949)
(0.192125 4.19227e-09 0.00297965)
(0.190444 4.15943e-09 0.00298066)
(0.188762 4.0138e-09 0.00298258)
(0.187077 3.75681e-09 0.00298547)
(0.185389 3.40655e-09 0.00298936)
(0.183698 2.99299e-09 0.00299431)
(0.182003 2.54183e-09 0.00300038)
(0.180304 2.09067e-09 0.0030076)
(0.178599 1.67378e-09 0.00301603)
(0.176888 1.32304e-09 0.00302572)
(0.175171 1.06652e-09 0.00303671)
(0.173447 9.32316e-10 0.00304905)
(0.171715 9.34694e-10 0.00306278)
(0.169974 1.09983e-09 0.00307794)
(0.168223 1.43677e-09 0.00309459)
(0.166463 1.94551e-09 0.00311276)
(0.164691 2.62557e-09 0.0031325)
(0.162907 3.46506e-09 0.00315384)
(0.16111 4.41972e-09 0.00317684)
(0.159299 5.45386e-09 0.00320153)
(0.157474 6.49466e-09 0.00322796)
(0.155633 7.46503e-09 0.00325616)
(0.153776 8.29928e-09 0.00328617)
(0.1519 8.92557e-09 0.00331802)
(0.150007 9.33151e-09 0.00335176)
(0.148093 9.52759e-09 0.00338742)
(0.146159 9.58327e-09 0.00342502)
(0.144204 9.59469e-09 0.00346461)
(0.142226 9.68463e-09 0.00350619)
(0.140224 9.94114e-09 0.00354981)
(0.138197 1.04294e-08 0.00359547)
(0.136144 1.11204e-08 0.00364319)
(0.134064 1.19285e-08 0.003693)
(0.131956 1.27076e-08 0.00374489)
(0.129819 1.33072e-08 0.00379888)
(0.127652 1.36118e-08 0.00385495)
(0.125453 1.36004e-08 0.00391311)
(0.123222 1.33472e-08 0.00397335)
(0.120958 1.30283e-08 0.00403564)
(0.118659 1.28018e-08 0.00409995)
(0.116325 1.27913e-08 0.00416627)
(0.113954 1.29722e-08 0.00423453)
(0.111546 1.32063e-08 0.00430469)
(0.1091 1.32701e-08 0.00437668)
(0.106614 1.29636e-08 0.00445044)
(0.104089 1.22288e-08 0.00452587)
(0.101523 1.11685e-08 0.00460288)
(0.0989157 1.00168e-08 0.00468135)
(0.0962665 8.99457e-09 0.00476115)
(0.0935749 8.19505e-09 0.00484212)
(0.0908404 7.48595e-09 0.0049241)
(0.0880629 6.61124e-09 0.00500688)
(0.0852421 5.36438e-09 0.00509026)
(0.0823779 3.75773e-09 0.00517399)
(0.0794707 2.08731e-09 0.00525779)
(0.0765205 7.60493e-10 0.00534136)
(0.0735279 1.71331e-11 0.00542435)
(0.0704937 -2.89348e-10 0.00550637)
(0.0674187 -6.01541e-10 0.00558699)
(0.0643041 -1.35823e-09 0.0056657)
(0.0611514 -2.59272e-09 0.00574198)
(0.0579625 -3.87956e-09 0.0058152)
(0.0547394 -4.66194e-09 0.00588466)
(0.0514848 -4.76474e-09 0.00594958)
(0.0482016 -4.64386e-09 0.00600907)
(0.0448934 -4.97223e-09 0.0060621)
(0.0415643 -5.94688e-09 0.00610753)
(0.038219 -6.97673e-09 0.00614404)
(0.0348629 -7.30511e-09 0.00617013)
(0.0315023 -6.9339e-09 0.00618405)
(0.0281445 -6.85395e-09 0.00618381)
(0.0247976 -7.88571e-09 0.00616708)
(0.0214711 -9.3867e-09 0.00613114)
(0.0181761 -9.61894e-09 0.0060728)
(0.0149248 -7.86762e-09 0.00598816)
(0.0117319 -5.71845e-09 0.00587257)
(0.00861375 -5.24445e-09 0.00571973)
(0.00558867 -5.89358e-09 0.00552105)
(0.00267882 -5.37675e-09 0.00527035)
(-9.29079e-05 -4.04898e-09 0.00496099)
(-0.00269618 -5.55283e-09 0.00458251)
(-0.00509811 -1.02034e-08 0.00412267)
(-0.00726318 -1.20242e-08 0.00356654)
(-0.00915018 -8.13793e-09 0.00289614)
(-0.010714 -4.89418e-09 0.00208987)
(-0.0119051 -4.65623e-09 0.00112434)
(-0.012673 -8.29973e-10 -2.33126e-05)
(-0.0129664 2.34144e-10 -0.00136636)
(-0.0127401 -9.9349e-09 -0.00289907)
(-0.0119682 -1.31195e-08 -0.0045669)
(-0.0106412 -1.67287e-08 -0.00618563)
(-0.00882643 -3.20764e-08 -0.00732217)
(-0.00618913 -3.80548e-08 -0.00681043)
(-0.00353252 -2.57149e-07 -0.00275376)
(-0.00308291 -1.00695e-07 0.044709)
(-0.00167784 1.66003e-08 0.018169)
(0.00421273 1.09766e-08 -0.000321629)
(0.0114635 1.01621e-08 -0.0140357)
(0.0198269 9.74865e-09 -0.0240357)
(0.0291508 9.23829e-09 -0.0310548)
(0.039312 9.03687e-09 -0.0357519)
(0.05014 8.85547e-09 -0.0386829)
(0.0614505 8.76404e-09 -0.0402839)
(0.0730654 8.6988e-09 -0.0409076)
(0.0848125 8.31518e-09 -0.0408207)
(0.0965425 7.59318e-09 -0.0402161)
(0.108134 6.50949e-09 -0.0392362)
(0.11949 5.1117e-09 -0.0379865)
(0.130535 3.58303e-09 -0.0365459)
(0.141211 2.07436e-09 -0.0349743)
(0.151475 7.52249e-10 -0.0333175)
(0.161295 -1.29635e-10 -0.0316109)
(0.170653 -4.447e-10 -0.029882)
(0.179534 -2.89084e-10 -0.0281524)
(0.187933 2.08717e-10 -0.0264387)
(0.19585 9.89211e-10 -0.0247541)
(0.203288 1.9377e-09 -0.0231088)
(0.210255 2.84431e-09 -0.0215103)
(0.21676 3.52439e-09 -0.0199645)
(0.222816 3.91035e-09 -0.0184756)
(0.228437 4.03645e-09 -0.0170464)
(0.233637 3.96601e-09 -0.0156786)
(0.238433 3.74946e-09 -0.0143732)
(0.242842 3.46843e-09 -0.0131302)
(0.246879 3.22166e-09 -0.0119492)
(0.250563 3.10767e-09 -0.0108293)
(0.253909 3.19523e-09 -0.00976906)
(0.256935 3.48863e-09 -0.00876695)
(0.259656 3.9474e-09 -0.00782109)
(0.26209 4.50945e-09 -0.00692943)
(0.26425 5.1029e-09 -0.00608983)
(0.266153 5.66852e-09 -0.00530009)
(0.267813 6.16822e-09 -0.00455794)
(0.269243 6.56679e-09 -0.00386113)
(0.270457 6.83829e-09 -0.00320743)