/*--------------------------------*- C++ -*----------------------------------*\
  =========                 |
  \\      /  F ield         | OpenFOAM: The Open Source CFD Toolbox
   \\    /   O peration     | Website:  https://openfoam.org
    \\  /    A nd           | Version:  8
     \\/     M anipulation  |
\*---------------------------------------------------------------------------*/
FoamFile
{
    version     2.0;
    format      ascii;
    class       volScalarField;
    location    "4000";
    object      epsilon;
}
// * * * * * * * * * * * * * * * * * * * * * * * * * * * * * * * * * * * * * //

dimensions      [0 2 -3 0 0 0 0];

internalField   nonuniform List<scalar> 
48000
(
1.58415
6.10055
11.5803
17.2279
23.1645
29.1251
35.0629
40.9651
46.9239
52.9434
58.9569
64.9774
70.9952
77.0017
82.9883
88.9456
94.8638
100.733
106.542
112.281
117.938
123.504
128.968
134.32
139.551
144.652
149.613
154.428
159.089
163.591
167.927
172.093
176.085
179.899
183.534
186.987
190.259
193.347
196.254
198.979
201.525
203.893
206.086
208.105
209.985
211.718
213.29
214.705
215.967
217.082
218.054
218.889
219.593
220.171
220.629
220.973
221.207
221.336
221.367
221.303
221.151
220.914
220.598
220.206
219.744
219.214
218.622
217.97
217.263
216.504
215.696
214.842
213.944
213.007
212.032
211.021
209.977
208.903
207.799
206.667
205.511
204.33
203.126
201.901
200.656
199.392
198.11
196.811
195.496
194.165
192.82
191.46
190.086
188.699
187.299
185.886
184.462
183.025
181.576
180.116
178.645
177.161
175.667
174.161
172.643
171.115
169.575
168.023
166.46
164.886
163.299
161.701
160.091
158.469
156.835
155.189
153.531
151.86
150.177
148.482
146.774
145.053
143.32
141.575
139.816
138.045
136.262
134.466
132.658
130.838
129.005
127.161
125.305
123.437
121.558
119.669
117.768
115.857
113.937
112.007
110.067
108.119
106.163
104.2
102.229
100.251
98.2682
96.2798
94.2867
92.2896
90.2894
88.2866
86.2821
84.2766
82.2708
80.2656
78.2618
76.2601
74.2614
72.2665
70.2763
68.2914
66.3129
64.3413
62.3777
60.4226
58.4769
56.5414
54.6166
52.7034
50.8023
48.914
47.0389
45.1777
43.3308
41.4986
39.6814
37.8795
36.0935
34.3246
32.575
30.8542
29.1517
27.4605
25.7805
24.1101
22.448
20.7926
19.1417
17.4924
15.8415
14.1901
12.5433
10.8834
9.20156
7.4874
5.72658
3.90032
1.98806
0.207079
1.58419
6.10062
11.5804
17.2281
23.1646
29.1253
35.063
40.9652
46.9241
52.9436
58.9571
64.9776
70.9954
77.0019
82.9885
88.9457
94.8639
100.733
106.542
112.281
117.938
123.504
128.968
134.32
139.551
144.652
149.613
154.428
159.09
163.591
167.927
172.093
176.085
179.899
183.534
186.987
190.259
193.347
196.254
198.979
201.525
203.893
206.086
208.105
209.985
211.718
213.29
214.705
215.967
217.082
218.054
218.889
219.593
220.171
220.629
220.973
221.207
221.336
221.367
221.303
221.151
220.914
220.598
220.206
219.744
219.214
218.622
217.97
217.263
216.504
215.696
214.842
213.944
213.007
212.032
211.021
209.977
208.902
207.799
206.667
205.511
204.33
203.126
201.901
200.656
199.392
198.11
196.811
195.496
194.165
192.82
191.46
190.086
188.699
187.299
185.886
184.462
183.025
181.576
180.116
178.644
177.161
175.667
174.161
172.643
171.115
169.575
168.023
166.46
164.886
163.299
161.701
160.091
158.469
156.835
155.189
153.531
151.86
150.177
148.482
146.774
145.053
143.32
141.575
139.816
138.045
136.262
134.466
132.658
130.838
129.005
127.161
125.305
123.437
121.558
119.669
117.768
115.857
113.937
112.007
110.067
108.119
106.163
104.2
102.229
100.251
98.2682
96.2797
94.2867
92.2896
90.2894
88.2866
86.2821
84.2766
82.2708
80.2656
78.2618
76.2601
74.2614
72.2665
70.2763
68.2914
66.3129
64.3413
62.3777
60.4226
58.4769
56.5414
54.6166
52.7034
50.8023
48.914
47.0389
45.1777
43.3308
41.4986
39.6814
37.8795
36.0935
34.3247
32.575
30.8542
29.1517
27.4605
25.7805
24.1101
22.4481
20.7926
19.1417
17.4924
15.8415
14.1901
12.5434
10.8834
9.20157
7.48741
5.72662
3.90038
1.98799
0.207074
7.26789
6.22222
7.9595
10.0781
12.3833
14.779
17.2262
19.6929
22.1898
24.7172
27.2675
29.8383
32.4264
35.0281
37.6393
40.2556
42.8722
45.4837
48.0847
50.6695
53.2324
55.7673
58.2684
60.7299
63.1461
65.5116
67.8212
70.07
72.2533
74.3671
76.4075
78.3712
80.2553
82.0573
83.7751
85.4073
86.9527
88.4105
89.7803
91.0624
92.257
93.3651
94.388
95.3289
96.1956
96.9871
97.7016
98.3393
98.9021
99.3922
99.8121
100.165
100.452
100.678
100.844
100.955
101.011
101.017
100.975
100.887
100.756
100.585
100.376
100.131
99.8532
99.5436
99.2047
98.8384
98.4467
98.0312
97.5936
97.1354
96.6582
96.1632
95.6518
95.1252
94.5845
94.0308
93.465
92.888
92.3007
91.7037
91.0979
90.4839
89.8621
89.2333
88.5978
87.9561
87.3085
86.6555
85.9974
85.3344
84.6667
83.9946
83.3182
82.6377
81.9533
81.265
80.573
79.8772
79.1777
78.4746
77.7679
77.0576
76.3437
75.6261
74.9048
74.1799
73.4512
72.7187
71.9824
71.2422
70.498
69.7499
68.9976
68.2413
67.4808
66.7161
65.9472
65.1739
64.3963
63.6144
62.828
62.0373
61.2421
60.4426
59.6386
58.8302
58.0175
57.2005
56.3792
55.5537
54.7241
53.8905
53.053
52.2116
51.3666
50.518
49.666
48.8108
47.9526
47.0915
46.2278
45.3617
44.4934
43.6231
42.7512
41.8779
41.0034
40.1282
39.2523
38.3763
37.5003
36.6248
35.75
34.8763
34.004
33.1335
32.2652
31.3992
30.5361
29.6762
28.8198
27.9672
27.1187
26.2748
25.4357
24.6017
23.7732
22.9503
22.1333
21.3226
20.5183
19.7206
18.9298
18.1459
17.3692
16.5998
15.8378
15.0837
14.3378
13.601
12.8717
12.1484
11.432
10.7216
10.0168
9.31708
8.62201
7.93117
7.24448
6.56322
5.88837
5.21696
4.54855
3.88469
3.23157
2.60981
2.09999
2.44404
7.26799
6.2222
7.95945
10.078
12.3832
14.7789
17.2261
19.6928
22.1897
24.7171
27.2674
29.8382
32.4263
35.028
37.6392
40.2555
42.872
45.4835
48.0845
50.6694
53.2322
55.7671
58.2682
60.7297
63.1459
65.5114
67.821
70.0697
72.2531
74.3668
76.4073
78.371
80.255
82.057
83.7749
85.4071
86.9525
88.4102
89.7801
91.0621
92.2568
93.3648
94.3878
95.3286
96.1954
96.9869
97.7013
98.3391
98.9019
99.392
99.8119
100.164
100.452
100.678
100.844
100.954
101.011
101.017
100.975
100.887
100.756
100.585
100.376
100.131
99.8529
99.5433
99.2044
98.8382
98.4465
98.0309
97.5933
97.1352
96.6579
96.163
95.6516
95.125
94.5843
94.0306
93.4648
92.8878
92.3004
91.7035
91.0977
90.4836
89.8619
89.2331
88.5976
87.9559
87.3083
86.6553
85.9972
85.3342
84.6665
83.9944
83.318
82.6375
81.9531
81.2648
80.5728
79.877
79.1775
78.4744
77.7677
77.0574
76.3435
75.6259
74.9047
74.1797
73.451
72.7185
71.9822
71.242
70.4978
69.7497
68.9975
68.2412
67.4807
66.716
65.947
65.1738
64.3962
63.6142
62.8279
62.0371
61.242
60.4424
59.6384
58.8301
58.0174
57.2003
56.3791
55.5536
54.724
53.8904
53.0528
52.2115
51.3664
50.5178
49.6659
48.8107
47.9525
47.0914
46.2277
45.3616
44.4933
43.623
42.7511
41.8778
41.0033
40.1281
39.2522
38.3762
37.5002
36.6247
35.7499
34.8762
34.0039
33.1334
32.2651
31.3992
30.5361
29.6761
28.8197
27.9671
27.1187
26.2748
25.4356
24.6017
23.7731
22.9502
22.1333
21.3226
20.5182
19.7206
18.9297
18.1459
17.3691
16.5997
15.8378
15.0836
14.3378
13.6009
12.8717
12.1484
11.4319
10.7216
10.0167
9.31705
8.62198
7.93114
7.24446
6.56321
5.88835
5.21695
4.54854
3.88468
3.23157
2.60981
2.1
2.44415
13.5225
8.34314
8.8239
10.08
11.6051
13.2677
15.0134
16.8136
18.6564
20.5345
22.4415
24.373
26.3251
28.2942
30.2765
32.2684
34.2657
36.2643
38.2598
40.2475
42.2227
44.1806
46.1163
48.025
49.902
51.7426
53.5423
55.2969
57.0024
58.655
60.2513
61.7883
63.2633
64.6739
66.0181
67.2944
68.5015
69.6386
70.7051
71.701
72.6264
73.482
74.2689
74.9889
75.6447
76.2374
76.7672
77.235
77.6423
77.9909
78.2826
78.5197
78.7044
78.8389
78.9257
78.967
78.9651
78.9223
78.8409
78.7231
78.5711
78.3869
78.1725
77.93
77.6611
77.3677
77.0515
76.7141
76.357
75.9817
75.5896
75.182
74.7601
74.3251
73.878
73.4198
72.9514
72.4738
71.9877
71.4938
70.9928
70.4854
69.972
69.4534
68.9298
68.4017
67.8696
67.3338
66.7945
66.2521
65.7069
65.1589
64.6084
64.0557
63.5007
62.9437
62.3847
61.8238
61.2611
60.6965
60.1303
59.5622
58.9925
58.421
57.8477
57.2727
56.6959
56.1173
55.5367
54.9543
54.3699
53.7835
53.195
52.6044
52.0117
51.4168
50.8196
50.2201
49.6183
49.014
48.4074
47.7983
47.1868
46.5728
45.9563
45.3372
44.7157
44.0917
43.4652
42.8363
42.2049
41.5712
40.9352
40.2969
39.6565
39.0139
38.3694
37.7229
37.0747
36.4248
35.7733
35.1205
34.4664
33.8113
33.1553
32.4985
31.8412
31.1836
30.5259
29.8683
29.211
28.5542
27.8982
27.2433
26.5896
25.9374
25.287
24.6386
23.9924
23.3488
22.708
22.0702
21.4357
20.8047
20.1775
19.5544
18.9354
18.3209
17.7111
17.1062
16.5064
15.9118
15.3226
14.7391
14.1612
13.5893
13.0233
12.4635
11.9099
11.3628
10.8223
10.2884
9.761
9.23967
8.72445
8.21514
7.71187
7.21481
6.72398
6.23968
5.76252
5.29362
4.83464
4.38703
3.9544
3.54459
3.17541
2.89441
2.88447
4.80105
13.5226
8.34309
8.82382
10.0799
11.605
13.2676
15.0133
16.8135
18.6563
20.5343
22.4413
24.3728
26.3249
28.294
30.2764
32.2683
34.2656
36.2642
38.2596
40.2473
42.2225
44.1804
46.1162
48.0249
49.9019
51.7425
53.5422
55.2968
57.0022
58.6548
60.2512
61.7882
63.2632
64.6738
66.018
67.2943
68.5014
69.6385
70.705
71.7009
72.6263
73.4819
74.2688
74.9887
75.6446
76.2373
76.7671
77.2349
77.6422
77.9907
78.2825
78.5196
78.7043
78.8388
78.9256
78.9668
78.9649
78.9222
78.8408
78.723
78.571
78.3868
78.1724
77.9299
77.661
77.3676
77.0514
76.7139
76.3569
75.9816
75.5895
75.1819
74.76
74.325
73.8779
73.4197
72.9513
72.4737
71.9876
71.4937
70.9927
70.4853
69.972
69.4533
68.9297
68.4017
67.8695
67.3337
66.7944
66.2521
65.7068
65.1588
64.6084
64.0556
63.5006
62.9436
62.3846
61.8237
61.261
60.6965
60.1302
59.5622
58.9924
58.4209
57.8477
57.2727
56.6958
56.1172
55.5367
54.9542
54.3698
53.7834
53.195
52.6044
52.0116
51.4167
50.8195
50.22
49.6182
49.014
48.4074
47.7983
47.1868
46.5727
45.9562
45.3372
44.7157
44.0917
43.4652
42.8362
42.2049
41.5712
40.9352
40.2969
39.6564
39.0139
38.3693
37.7229
37.0746
36.4247
35.7733
35.1204
34.4664
33.8113
33.1552
32.4985
31.8412
31.1836
30.5259
29.8683
29.2109
28.5542
27.8982
27.2432
26.5895
25.9374
25.2869
24.6385
23.9924
23.3488
22.708
22.0702
21.4357
20.8047
20.1775
19.5543
18.9354
18.3209
17.7111
17.1062
16.5063
15.9118
15.3226
14.739
14.1612
13.5892
13.0233
12.4635
11.9099
11.3628
10.8222
10.2884
9.76098
9.23966
8.72444
8.21513
7.71186
7.2148
6.72397
6.23968
5.76251
5.29361
4.83464
4.38702
3.95439
3.54459
3.17541
2.89441
2.88447
4.801
19.6307
10.8542
10.4297
11.1727
12.312
13.6485
15.1028
16.6349
18.223
19.8536
21.5173
23.2074
24.9188
26.647
28.3879
30.1379
31.893
33.6495
35.4035
37.1509
38.8876
40.6094
42.3122
43.9916
45.6435
47.2638
48.8486
50.3939
51.8963
53.3522
54.7585
56.1125
57.4115
58.6534
59.8361
60.9583
62.0185
63.016
63.9502
64.8208
65.6279
66.372
67.0539
67.6749
68.2364
68.7396
69.1855
69.5751
69.9098
70.1913
70.4214
70.6019
70.7348
70.8224
70.8666
70.8696
70.8335
70.7604
70.6524
70.5116
70.3398
70.1392
69.9115
69.6585
69.382
69.0836
68.765
68.4276
68.0729
67.7022
67.3169
66.9181
66.5069
66.0845
65.6518
65.2097
64.7591
64.3008
63.8356
63.364
62.8868
62.4045
61.9177
61.4268
60.9322
60.4343
59.9336
59.4303
58.9246
58.4169
57.9074
57.3963
56.8837
56.3697
55.8546
55.3384
54.8212
54.303
53.7839
53.264
52.7433
52.2217
51.6993
51.1761
50.6521
50.1272
49.6014
49.0747
48.5471
48.0184
47.4887
46.9579
46.426
45.8928
45.3584
44.8228
44.2858
43.7474
43.2077
42.6664
42.1237
41.5795
41.0337
40.4863
39.9374
39.3869
38.8348
38.2812
37.7259
37.1692
36.6108
36.0511
35.4898
34.9272
34.3632
33.798
33.2316
32.6641
32.0956
31.5262
30.956
30.3851
29.8137
29.2419
28.6699
28.0977
27.5256
26.9538
26.3823
25.8115
25.2414
24.6723
24.1044
23.5378
22.9728
22.4096
21.8484
21.2895
20.7329
20.179
19.628
19.08
18.5353
17.9942
17.4567
16.9231
16.3936
15.8684
15.3477
14.8316
14.3203
13.814
13.3128
12.8169
12.3264
11.8415
11.3623
10.8889
10.4214
9.96006
9.50491
9.05609
8.61359
8.17745
7.74776
7.32466
6.90841
6.49937
6.09798
5.70523
5.32219
4.95058
4.59298
4.25334
3.93854
3.66182
3.45181
3.38382
3.74929
7.10731
19.6308
10.8541
10.4296
11.1726
12.3119
13.6484
15.1027
16.6348
18.2229
19.8534
21.5171
23.2073
24.9187
26.6468
28.3878
30.1377
31.8929
33.6494
35.4034
37.1508
38.8875
40.6093
42.312
43.9915
45.6434
47.2637
48.8485
50.3938
51.8961
53.3521
54.7584
56.1124
57.4114
58.6532
59.836
60.9581
62.0184
63.0159
63.9501
64.8207
65.6278
66.3719
67.0538
67.6748
68.2363
68.7396
69.1854
69.575
69.9097
70.1912
70.4213
70.6018
70.7348
70.8223
70.8665
70.8695
70.8334
70.7603
70.6523
70.5115
70.3398
70.1391
69.9114
69.6584
69.3819
69.0836
68.7649
68.4276
68.0729
67.7022
67.3168
66.918
66.5069
66.0844
65.6517
65.2096
64.759
64.3008
63.8355
63.364
62.8868
62.4045
61.9176
61.4267
60.9321
60.4343
59.9335
59.4302
58.9246
58.4169
57.9074
57.3962
56.8836
56.3697
55.8546
55.3384
54.8211
54.303
53.7839
53.264
52.7432
52.2217
51.6993
51.1761
50.6521
50.1272
49.6014
49.0747
48.547
48.0184
47.4887
46.9579
46.4259
45.8928
45.3584
44.8228
44.2858
43.7474
43.2076
42.6664
42.1237
41.5794
41.0337
40.4863
39.9374
39.3869
38.8348
38.2812
37.7259
37.1691
36.6108
36.051
35.4898
34.9272
34.3632
33.798
33.2316
32.6641
32.0956
31.5261
30.956
30.3851
29.8137
29.2419
28.6698
28.0977
27.5256
26.9538
26.3823
25.8115
25.2414
24.6723
24.1043
23.5378
22.9728
22.4096
21.8484
21.2895
20.7329
20.179
19.628
19.08
18.5353
17.9942
17.4567
16.9231
16.3936
15.8684
15.3476
14.8316
14.3203
13.814
13.3128
12.8169
12.3264
11.8415
11.3623
10.8889
10.4214
9.96005
9.50491
9.05608
8.61359
8.17745
7.74776
7.32466
6.90841
6.49937
6.09797
5.70523
5.32219
4.95058
4.59298
4.25334
3.93854
3.66182
3.45181
3.38382
3.74929
7.10729
25.7644
13.576
12.3502
12.6978
13.5765
14.7143
16.004
17.3921
18.8484
20.354
21.8961
23.4658
25.0561
26.6617
28.2781
29.9011
31.5272
33.1526
34.7737
36.387
37.9888
39.5754
41.1433
42.6886
44.2077
45.697
47.1529
48.5721
49.9513
51.2874
52.5776
53.8192
55.0099
56.1476
57.2305
58.2571
59.2262
60.1368
60.9885
61.7809
62.5141
63.1883
63.8041
64.3625
64.8646
65.3115
65.7042
66.0439
66.3319
66.5699
66.7594
66.9023
67.0005
67.0558
67.0703
67.046
66.9848
66.8888
66.7599
66.6001
66.4112
66.1951
65.9536
65.6885
65.4013
65.0936
64.7671
64.4231
64.0631
63.6882
63.2999
62.8992
62.4871
62.0649
61.6333
61.1933
60.7457
60.2913
59.8308
59.3648
58.894
58.4189
57.94
57.4577
56.9725
56.4848
55.9949
55.503
55.0095
54.5146
54.0186
53.5215
53.0237
52.5251
52.0259
51.5262
51.0262
50.5258
50.0251
49.5241
49.0229
48.5215
48.0198
47.5179
47.0157
46.5133
46.0105
45.5074
45.0039
44.5
43.9957
43.4908
42.9854
42.4793
41.9726
41.4652
40.9571
40.4481
39.9384
39.4278
38.9162
38.4038
37.8903
37.3759
36.8606
36.3442
35.8268
35.3083
34.7889
34.2685
33.7472
33.2249
32.7017
32.1777
31.6529
31.1273
30.6011
30.0743
29.5469
29.0192
28.4912
27.9629
27.4345
26.9062
26.3781
25.8502
25.3228
24.796
24.2699
23.7447
23.2206
22.6978
22.1764
21.6566
21.1386
20.6226
20.1088
19.5973
19.0883
18.5821
18.0789
17.5787
17.0819
16.5886
16.0989
15.6132
15.1314
14.6539
14.1808
13.7122
13.2483
12.7893
12.3353
11.8865
11.443
11.005
10.5725
10.1458
9.72503
9.31031
8.90182
8.49973
8.10418
7.71539
7.33359
6.95913
6.59248
6.23424
5.88527
5.54678
5.22041
4.90863
4.61516
4.34572
4.11018
3.92691
3.83509
3.93783
4.63504
9.39113
25.7646
13.5759
12.3501
12.6977
13.5764
14.7142
16.0038
17.392
18.8483
20.3539
21.896
23.4656
25.0559
26.6615
28.2779
29.901
31.5271
33.1524
34.7736
36.3868
37.9886
39.5753
41.1431
42.6884
44.2075
45.6968
47.1528
48.572
49.9511
51.2873
52.5774
53.8191
55.0098
56.1475
57.2304
58.257
59.2261
60.1367
60.9884
61.7808
62.514
63.1882
63.804
64.3624
64.8645
65.3114
65.7041
66.0438
66.3318
66.5698
66.7593
66.9022
67.0004
67.0558
67.0703
67.0459
66.9848
66.8888
66.7599
66.6
66.4112
66.1951
65.9536
65.6884
65.4012
65.0936
64.7671
64.4231
64.063
63.6882
63.2998
62.8991
62.4871
62.0648
61.6333
61.1933
60.7457
60.2913
59.8308
59.3648
58.894
58.4189
57.9399
57.4577
56.9725
56.4848
55.9948
55.503
55.0095
54.5146
54.0186
53.5215
53.0236
52.525
52.0259
51.5262
51.0262
50.5257
50.025
49.5241
49.0229
48.5214
48.0198
47.5179
47.0157
46.5132
46.0105
45.5074
45.0039
44.5
43.9957
43.4908
42.9853
42.4793
41.9726
41.4652
40.9571
40.4481
39.9384
39.4277
38.9162
38.4037
37.8903
37.3759
36.8605
36.3441
35.8267
35.3083
34.7889
34.2685
33.7472
33.2249
32.7017
32.1777
31.6529
31.1273
30.6011
30.0743
29.5469
29.0192
28.4911
27.9629
27.4345
26.9062
26.3781
25.8502
25.3228
24.796
24.2699
23.7447
23.2206
22.6978
22.1764
21.6566
21.1386
20.6226
20.1088
19.5973
19.0883
18.5821
18.0789
17.5787
17.0819
16.5886
16.0989
15.6132
15.1314
14.6539
14.1808
13.7122
13.2483
12.7893
12.3353
11.8865
11.443
11.005
10.5725
10.1458
9.72503
9.31031
8.90182
8.49973
8.10418
7.71539
7.33359
6.95913
6.59248
6.23424
5.88527
5.54678
5.22041
4.90863
4.61516
4.34572
4.11018
3.92691
3.83509
3.93783
4.63506
9.39112
31.8704
16.425
14.4603
14.4755
15.1541
16.1519
17.3337
18.6328
20.0109
21.4441
22.9164
24.4163
25.9356
27.4679
29.008
30.5516
32.0948
33.6343
35.1667
36.6887
38.1973
39.6891
41.1611
42.6101
44.0328
45.4261
46.7871
48.1126
49.3998
50.646
51.8486
53.0052
54.1138
55.1723
56.1791
57.1328
58.0322
58.8765
59.6651
60.3976
61.0741
61.6946
62.2598
62.7702
63.2268
63.6307
63.9827
64.2842
64.5364
64.7408
64.899
65.0126
65.0834
65.1133
65.1041
65.0578
64.9761
64.8611
64.7146
64.5384
64.3344
64.1043
63.85
63.5729
63.2748
62.9573
62.6216
62.2694
61.9019
61.5203
61.126
60.72
60.3034
59.8771
59.4422
58.9995
58.5497
58.0937
57.6322
57.1657
56.6949
56.2203
55.7424
55.2617
54.7785
54.2932
53.8062
53.3178
52.8282
52.3376
51.8463
51.3544
50.8621
50.3696
49.8769
49.3841
48.8914
48.3987
47.9061
47.4137
46.9215
46.4295
45.9376
45.4459
44.9544
44.463
43.9717
43.4805
42.9893
42.4981
42.0069
41.5156
41.0241
40.5324
40.0405
39.5483
39.0558
38.5629
38.0697
37.5759
37.0817
36.587
36.0917
35.5959
35.0994
34.6024
34.1048
33.6066
33.1078
32.6085
32.1086
31.6081
31.1071
30.6057
30.1039
29.6016
29.0991
28.5964
28.0935
27.5906
27.0876
26.5848
26.0822
25.5799
25.0781
24.5769
24.0763
23.5766
23.078
22.5804
22.0841
21.5893
21.0961
20.6047
20.1152
19.6278
19.1427
18.66
18.18
17.7028
17.2285
16.7575
16.2897
15.8255
15.3649
14.9082
14.4555
14.007
13.5628
13.1231
12.6881
12.2579
11.8327
11.4126
10.9977
10.5883
10.1846
9.78656
9.39454
9.00869
8.62922
8.25637
7.89042
7.53168
7.18055
6.83755
6.50333
6.17876
5.865
5.56361
5.27678
5.00768
4.761
4.54412
4.36971
4.26113
4.268
4.52117
5.52863
11.6622
31.8705
16.4249
14.4602
14.4754
15.154
16.1518
17.3336
18.6327
20.0108
21.444
22.9162
24.4162
25.9355
27.4678
29.0078
30.5514
32.0947
33.6342
35.1665
36.6886
38.1971
39.689
41.161
42.6099
44.0326
45.426
46.7869
48.1124
49.3997
50.6459
51.8485
53.0051
54.1137
55.1722
56.179
57.1327
58.0321
58.8764
59.665
60.3976
61.074
61.6945
62.2597
62.7701
63.2267
63.6306
63.9827
64.2842
64.5364
64.7408
64.8989
65.0125
65.0834
65.1133
65.1041
65.0577
64.9761
64.8611
64.7145
64.5383
64.3344
64.1043
63.8499
63.5729
63.2748
62.9572
62.6216
62.2694
61.9018
61.5203
61.126
60.72
60.3033
59.8771
59.4422
58.9994
58.5497
58.0937
57.6322
57.1657
56.6949
56.2203
55.7424
55.2617
54.7785
54.2932
53.8062
53.3178
52.8281
52.3376
51.8463
51.3544
50.8621
50.3696
49.8769
49.3841
48.8913
48.3987
47.9061
47.4137
46.9215
46.4294
45.9376
45.4459
44.9544
44.463
43.9717
43.4805
42.9893
42.4981
42.0069
41.5156
41.0241
40.5324
40.0405
39.5483
39.0558
38.5629
38.0696
37.5759
37.0817
36.587
36.0917
35.5958
35.0994
34.6024
34.1048
33.6066
33.1078
32.6085
32.1085
31.6081
31.1071
30.6057
30.1038
29.6016
29.0991
28.5964
28.0935
27.5905
27.0876
26.5848
26.0822
25.5799
25.0781
24.5769
24.0763
23.5766
23.078
22.5804
22.0841
21.5893
21.0961
20.6047
20.1152
19.6278
19.1427
18.66
18.18
17.7028
17.2285
16.7575
16.2897
15.8255
15.3649
14.9082
14.4555
14.007
13.5628
13.1231
12.6881
12.2579
11.8327
11.4126
10.9977
10.5883
10.1846
9.78656
9.39454
9.00869
8.62922
8.25637
7.89042
7.53168
7.18055
6.83755
6.50333
6.17876
5.865
5.56361
5.27678
5.00768
4.761
4.54412
4.36971
4.26113
4.26801
4.52117
5.52865
11.6622
38.0203
19.3646
16.7111
16.434
16.9483
17.8393
18.9445
20.1838
21.5115
22.8991
24.3272
25.7823
27.2548
28.7373
30.2239
31.7101
33.1922
34.6666
36.1304
37.5807
39.0148
40.43
41.8236
43.1929
44.5353
45.8481
47.1288
48.3747
49.5834
50.7525
51.8798
52.9631
54.0006
54.9905
55.9314
56.8218
57.6607
58.4473
59.1811
59.8616
60.4887
61.0627
61.5838
62.0527
62.4701
62.8369
63.1542
63.4229
63.6444
63.82
63.9512
64.0397
64.0871
64.095
64.0654
63.9999
63.9005
63.7688
63.6067
63.4161
63.1986
62.9559
62.6897
62.4017
62.0933
61.7662
61.4216
61.0611
60.6859
60.2971
59.8962
59.484
59.0617
58.6302
58.1905
57.7435
57.2898
56.8302
56.3655
55.8963
55.4231
54.9464
54.4669
53.9848
53.5006
53.0147
52.5273
52.0389
51.5496
51.0597
50.5693
50.0787
49.5881
49.0974
48.607
48.1168
47.6269
47.1374
46.6483
46.1597
45.6716
45.184
44.6968
44.2102
43.724
43.2383
42.753
42.2681
41.7835
41.2993
40.8153
40.3315
39.8479
39.3644
38.881
38.3977
37.9143
37.4309
36.9474
36.4638
35.98
35.496
35.0118
34.5274
34.0426
33.5576
33.0724
32.5868
32.101
31.6149
31.1285
30.6419
30.1551
29.6681
29.181
28.6938
28.2066
27.7194
27.2323
26.7454
26.2588
25.7725
25.2867
24.8015
24.3169
23.8331
23.3502
22.8683
22.3876
21.9081
21.4302
20.9538
20.4791
20.0063
19.5355
19.067
18.6007
18.137
17.676
17.2178
16.7626
16.3106
15.862
15.4168
14.9752
14.5375
14.1038
13.6742
13.2489
12.8281
12.4119
12.0005
11.594
11.1926
10.7965
10.4059
10.0209
9.64185
9.26883
8.90213
8.54204
8.18887
7.84297
7.50479
7.17486
6.85384
6.54258
6.24218
5.95409
5.68024
5.42332
5.18716
4.9775
4.8033
4.67973
4.63515
4.72963
5.12171
6.42738
13.9267
38.0205
19.3645
16.711
16.4339
16.9482
17.8392
18.9443
20.1836
21.5114
22.8989
24.327
25.7822
27.2547
28.7371
30.2238
31.71
33.192
34.6665
36.1303
37.5806
39.0147
40.4299
41.8235
43.1928
44.5352
45.848
47.1286
48.3745
49.5832
50.7524
51.8796
52.963
54.0005
54.9904
55.9313
56.8217
57.6606
58.4473
59.181
59.8615
60.4886
61.0626
61.5837
62.0526
62.47
62.8369
63.1541
63.4228
63.6443
63.8199
63.9512
64.0396
64.087
64.095
64.0653
63.9999
63.9004
63.7688
63.6067
63.416
63.1985
62.9558
62.6897
62.4017
62.0933
61.7662
61.4216
61.0611
60.6858
60.2971
59.8961
59.484
59.0617
58.6302
58.1905
57.7434
57.2898
56.8302
56.3655
55.8963
55.4231
54.9464
54.4668
53.9848
53.5006
53.0146
52.5273
52.0389
51.5496
51.0596
50.5693
50.0787
49.588
49.0974
48.607
48.1167
47.6269
47.1374
46.6483
46.1597
45.6716
45.184
44.6968
44.2102
43.724
43.2383
42.753
42.2681
41.7835
41.2992
40.8153
40.3315
39.8479
39.3644
38.881
38.3977
37.9143
37.4309
36.9474
36.4638
35.98
35.496
35.0118
34.5273
34.0426
33.5576
33.0724
32.5868
32.101
31.6149
31.1285
30.6419
30.1551
29.6681
29.181
28.6938
28.2066
27.7194
27.2323
26.7454
26.2588
25.7725
25.2867
24.8015
24.3169
23.8331
23.3502
22.8683
22.3876
21.9081
21.4302
20.9537
20.4791
20.0063
19.5355
19.0669
18.6007
18.137
17.676
17.2178
16.7626
16.3106
15.862
15.4168
14.9752
14.5375
14.1038
13.6742
13.2489
12.8281
12.4119
12.0005
11.594
11.1926
10.7965
10.4059
10.021
9.64185
9.26883
8.90214
8.54205
8.18887
7.84297
7.50479
7.17486
6.85384
6.54258
6.24218
5.95409
5.68024
5.42332
5.18717
4.9775
4.8033
4.67973
4.63515
4.72963
5.12172
6.4274
13.9267
44.4349
22.4131
19.0875
18.5414
18.9138
19.7186
20.7659
21.9627
23.2559
24.6124
26.01
27.4333
28.8712
30.3154
31.7596
33.1991
34.63
36.0491
37.4535
38.841
40.2091
41.5556
42.8784
44.1754
45.4444
46.6833
47.8899
49.0622
50.198
51.2954
52.3524
53.3673
54.3383
55.264
56.1429
56.974
57.7561
58.4886
59.1709
59.8026
60.3836
60.9139
61.394
61.8241
62.205
62.5376
62.8226
63.0612
63.2544
63.4036
63.5103
63.5758
63.6017
63.5898
63.5415
63.4587
63.3431
63.1964
63.0203
62.8165
62.5867
62.3326
62.0557
61.7576
61.4399
61.1039
60.7511
60.3828
60.0003
59.6047
59.1973
58.7791
58.3512
57.9145
57.4699
57.0182
56.5602
56.0967
55.6283
55.1556
54.6793
54.1998
53.7176
53.2332
52.747
52.2592
51.7703
51.2805
50.7902
50.2994
49.8085
49.3175
48.8267
48.3362
47.8462
47.3565
46.8675
46.3791
45.8914
45.4043
44.918
44.4324
43.9476
43.4635
42.9801
42.4974
42.0153
41.5339
41.0531
40.5728
40.0931
39.6138
39.135
38.6565
38.1784
37.7005
37.2229
36.7455
36.2682
35.7911
35.3141
34.8371
34.3602
33.8832
33.4063
32.9293
32.4523
31.9752
31.4981
31.021
30.5438
30.0666
29.5895
29.1124
28.6354
28.1586
27.6819
27.2055
26.7294
26.2536
25.7783
25.3036
24.8295
24.3561
23.8835
23.4118
22.9412
22.4718
22.0036
21.5368
21.0716
20.608
20.1462
19.6864
19.2287
18.7732
18.3201
17.8695
17.4216
16.9766
16.5345
16.0956
15.66
15.2279
14.7994
14.3747
13.9539
13.5372
13.1248
12.7168
12.3133
11.9146
11.5209
11.1322
10.7488
10.371
9.99883
9.63264
9.27266
8.91919
8.57257
8.23318
7.90147
7.57798
7.26338
6.95847
6.66428
6.38214
6.11375
5.86143
5.62833
5.41898
5.24007
5.10215
5.02297
5.03571
5.21096
5.73507
7.33194
16.1909
44.4351
22.413
19.0874
18.5413
18.9137
19.7184
20.7658
21.9625
23.2557
24.6122
26.0099
27.4332
28.8711
30.3152
31.7595
33.199
34.6299
36.0489
37.4534
38.8408
40.2089
41.5555
42.8783
44.1753
45.4443
46.6832
47.8898
49.062
50.1979
51.2952
52.3523
53.3672
54.3382
55.2639
56.1428
56.9739
57.756
58.4885
59.1708
59.8025
60.3835
60.9139
61.3939
61.824
62.205
62.5375
62.8225
63.0611
63.2543
63.4036
63.5102
63.5757
63.6017
63.5897
63.5415
63.4587
63.3431
63.1964
63.0202
62.8165
62.5867
62.3326
62.0557
61.7576
61.4398
61.1039
60.7511
60.3828
60.0002
59.6047
59.1973
58.7791
58.3512
57.9145
57.4698
57.0181
56.5602
56.0967
55.6283
55.1556
54.6793
54.1998
53.7176
53.2332
52.7469
52.2592
51.7703
51.2805
50.7901
50.2994
49.8084
49.3175
48.8267
48.3362
47.8461
47.3565
46.8675
46.3791
45.8913
45.4043
44.918
44.4324
43.9476
43.4635
42.9801
42.4974
42.0153
41.5339
41.0531
40.5728
40.0931
39.6138
39.135
38.6565
38.1783
37.7005
37.2229
36.7455
36.2682
35.7911
35.3141
34.8371
34.3602
33.8832
33.4063
32.9293
32.4522
31.9752
31.4981
31.0209
30.5438
30.0666
29.5895
29.1124
28.6354
28.1586
27.6819
27.2055
26.7294
26.2536
25.7783
25.3036
24.8295
24.3561
23.8835
23.4118
22.9412
22.4718
22.0036
21.5368
21.0716
20.608
20.1462
19.6864
19.2287
18.7732
18.3201
17.8695
17.4216
16.9766
16.5345
16.0956
15.66
15.2279
14.7994
14.3747
13.9539
13.5372
13.1248
12.7168
12.3133
11.9146
11.5209
11.1322
10.7488
10.371
9.99883
9.63264
9.27266
8.91919
8.57257
8.23318
7.90147
7.57798
7.26338
6.95847
6.66428
6.38214
6.11375
5.86143
5.62833
5.41898
5.24007
5.10215
5.02297
5.03571
5.21096
5.73508
7.33196
16.1909
51.0935
25.5792
21.5844
20.7825
21.0273
21.7592
22.7606
23.9252
25.1931
26.5266
27.901
29.2988
30.7078
32.1189
33.5255
34.9226
36.3064
37.6738
39.0224
40.3502
41.6553
42.936
44.1907
45.4178
46.6157
47.7828
48.9174
50.0179
51.0825
52.1098
53.0982
54.046
54.9519
55.8147
56.633
57.4058
58.1323
58.8117
59.4436
60.0275
60.5633
61.051
61.4909
61.8833
62.2289
62.5282
62.7821
62.9917
63.1578
63.2818
63.365
63.4087
63.4144
63.3836
63.3178
63.2188
63.0882
62.9274
62.7383
62.5225
62.2814
62.0168
61.7301
61.4229
61.0967
60.7527
60.3924
60.0172
59.6281
59.2264
58.8132
58.3896
57.9566
57.515
57.0659
56.61
56.1481
55.6808
55.209
54.7331
54.2537
53.7714
53.2866
52.7998
52.3113
51.8216
51.3309
50.8395
50.3477
49.8557
49.3637
48.8719
48.3805
47.8895
47.3991
46.9093
46.4204
45.9322
45.4449
44.9585
44.473
43.9884
43.5048
43.0221
42.5402
42.0593
41.5792
41.1
40.6215
40.1438
39.6668
39.1905
38.7148
38.2397
37.7651
37.291
36.8173
36.3441
35.8712
35.3986
34.9264
34.4543
33.9826
33.511
33.0396
32.5684
32.0973
31.6264
31.1556
30.685
30.2146
29.7443
29.2743
28.8045
28.3349
27.8656
27.3967
26.9282
26.4602
25.9927
25.5258
25.0595
24.594
24.1293
23.6656
23.2029
22.7413
22.281
21.822
21.3645
20.9086
20.4544
20.002
19.5516
19.1034
18.6573
18.2137
17.7726
17.3341
16.8985
16.4658
16.0363
15.61
15.1871
14.7678
14.3522
13.9405
13.5328
13.1293
12.7302
12.3356
11.9457
11.5607
11.1808
10.8062
10.4372
10.0739
9.71669
9.36582
9.02166
8.68459
8.35507
8.03363
7.72092
7.41771
7.12496
6.84388
6.57597
6.32325
6.08835
5.87491
5.68812
5.53567
5.42963
5.39043
5.45601
5.70773
6.36031
8.24742
18.4736
51.0937
25.5791
21.5843
20.7824
21.0272
21.759
22.7604
23.9251
25.1929
26.5265
27.9008
29.2987
30.7076
32.1188
33.5254
34.9225
36.3062
37.6736
39.0223
40.35
41.6551
42.9359
44.1906
45.4177
46.6156
47.7827
48.9173
50.0177
51.0824
52.1097
53.0981
54.0459
54.9518
55.8146
56.6329
57.4057
58.1322
58.8116
59.4435
60.0274
60.5632
61.0509
61.4908
61.8833
62.2288
62.5281
62.7821
62.9916
63.1578
63.2818
63.3649
63.4086
63.4143
63.3835
63.3178
63.2188
63.0881
62.9274
62.7383
62.5224
62.2814
62.0168
61.7301
61.4229
61.0966
60.7527
60.3924
60.0171
59.628
59.2264
58.8132
58.3896
57.9565
57.515
57.0659
56.61
56.148
55.6808
55.2089
54.733
54.2537
53.7714
53.2866
52.7998
52.3113
51.8216
51.3309
50.8395
50.3477
49.8557
49.3637
48.8719
48.3804
47.8895
47.3991
46.9093
46.4204
45.9322
45.4449
44.9585
44.473
43.9884
43.5048
43.0221
42.5402
42.0593
41.5792
41.1
40.6215
40.1438
39.6668
39.1905
38.7148
38.2397
37.7651
37.291
36.8173
36.3441
35.8712
35.3986
34.9264
34.4543
33.9826
33.511
33.0396
32.5684
32.0973
31.6264
31.1556
30.685
30.2146
29.7443
29.2743
28.8045
28.3349
27.8656
27.3967
26.9282
26.4602
25.9927
25.5257
25.0595
24.594
24.1293
23.6656
23.2029
22.7413
22.281
21.822
21.3645
20.9086
20.4544
20.002
19.5516
19.1034
18.6573
18.2137
17.7726
17.3341
16.8985
16.4658
16.0363
15.61
15.1871
14.7678
14.3522
13.9405
13.5328
13.1293
12.7302
12.3356
11.9457
11.5607
11.1808
10.8062
10.4372
10.0739
9.71669
9.36582
9.02166
8.68459
8.35507
8.03363
7.72092
7.41771
7.12497
6.84388
6.57597
6.32325
6.08835
5.87491
5.68812
5.53567
5.42963
5.39043
5.45601
5.70773
6.36032
8.24745
18.4736
57.9593
28.8622
24.1991
23.1501
23.2768
23.9445
24.9075
26.0464
27.2939
28.6085
29.9627
31.3374
32.7192
34.0986
35.4685
36.8238
38.1608
39.4767
40.7696
42.0376
43.2796
44.4943
45.6807
46.8377
47.9642
49.0592
50.1214
51.1498
52.143
53.0999
54.0192
54.8997
55.7403
56.5397
57.2971
58.0115
58.6821
59.3083
59.8896
60.4256
60.9161
61.3612
61.761
62.1158
62.4261
62.6924
62.9156
63.0965
63.236
63.3352
63.3954
63.4179
63.4039
63.3549
63.2723
63.1578
63.0128
62.8388
62.6375
62.4103
62.1588
61.8846
61.589
61.2735
60.9395
60.5884
60.2215
59.8401
59.4452
59.0382
58.62
58.1918
57.7544
57.3088
56.8559
56.3964
55.9311
55.4608
54.986
54.5074
54.0256
53.5409
53.054
52.5652
52.0749
51.5835
51.0913
50.5985
50.1055
49.6125
49.1196
48.627
48.1349
47.6435
47.1527
46.6628
46.1738
45.6858
45.1987
44.7127
44.2278
43.744
43.2612
42.7795
42.2988
41.8192
41.3406
40.863
40.3863
39.9105
39.4356