/*--------------------------------*- C++ -*----------------------------------*\
  =========                 |
  \\      /  F ield         | OpenFOAM: The Open Source CFD Toolbox
   \\    /   O peration     | Website:  https://openfoam.org
    \\  /    A nd           | Version:  8
     \\/     M anipulation  |
\*---------------------------------------------------------------------------*/
FoamFile
{
    version     2.0;
    format      ascii;
    class       volScalarField;
    location    "4000";
    object      nut;
}
// * * * * * * * * * * * * * * * * * * * * * * * * * * * * * * * * * * * * * //

dimensions      [0 2 -1 0 0 0 0];

internalField   nonuniform List<scalar> 
48000
(
5.26043e-05
9.13673e-05
0.000113129
0.000129146
0.000142541
0.000153847
0.000163663
0.000172374
0.000180356
0.00018776
0.000194616
0.000201027
0.00020705
0.000212732
0.000218108
0.000223207
0.000228052
0.000232661
0.00023705
0.000241232
0.000245218
0.000249016
0.000252636
0.000256083
0.000259365
0.000262488
0.000265455
0.000268273
0.000270946
0.000273477
0.000275873
0.000278136
0.00028027
0.000282279
0.000284168
0.000285939
0.000287597
0.000289145
0.000290587
0.000291926
0.000293165
0.000294309
0.00029536
0.000296322
0.000297211
0.000298026
0.000298763
0.000299422
0.000300007
0.000300522
0.00030097
0.000301353
0.000301676
0.00030194
0.000302149
0.000302306
0.000302412
0.000302471
0.000302485
0.000302456
0.000302386
0.000302278
0.000302133
0.000301954
0.000301742
0.000301499
0.000301227
0.000300927
0.000300601
0.00030025
0.000299876
0.000299479
0.000299061
0.000298623
0.000298167
0.000297692
0.0002972
0.000296692
0.000296168
0.000295629
0.000295076
0.00029451
0.00029393
0.000293338
0.000292733
0.000292117
0.00029149
0.000290851
0.000290201
0.000289541
0.00028887
0.000288189
0.000287498
0.000286797
0.000286086
0.000285365
0.000284634
0.000283892
0.000283141
0.00028238
0.000281609
0.000280827
0.000280035
0.000279232
0.000278419
0.000277595
0.000276759
0.000275913
0.000275054
0.000274184
0.000273302
0.000272408
0.0002715
0.00027058
0.000269647
0.000268701
0.00026774
0.000266765
0.000265776
0.000264772
0.000263753
0.000262718
0.000261668
0.000260601
0.000259518
0.000258417
0.0002573
0.000256164
0.000255011
0.000253839
0.000252649
0.000251439
0.00025021
0.00024896
0.000247691
0.000246401
0.000245089
0.000243757
0.000242402
0.000241026
0.000239627
0.000238205
0.00023676
0.000235291
0.000233798
0.000232281
0.000230739
0.000229172
0.00022758
0.000225962
0.000224317
0.000222647
0.000220949
0.000219223
0.00021747
0.000215689
0.000213879
0.00021204
0.000210172
0.000208273
0.000206343
0.000204382
0.000202389
0.000200363
0.000198304
0.00019621
0.000194081
0.000191916
0.000189713
0.000187472
0.00018519
0.000182867
0.0001805
0.000178087
0.000175627
0.000173116
0.000170551
0.00016793
0.000165248
0.000162503
0.000159694
0.000156831
0.000153892
0.000150857
0.000147715
0.000144454
0.000141055
0.000137499
0.000133759
0.000129802
0.000125582
0.000121058
0.000116181
0.000110812
0.000104782
9.78266e-05
8.94814e-05
7.88798e-05
6.54667e-05
0.00021723
5.26048e-05
9.13676e-05
0.00011313
0.000129146
0.000142542
0.000153847
0.000163663
0.000172374
0.000180356
0.00018776
0.000194616
0.000201027
0.00020705
0.000212732
0.000218108
0.000223207
0.000228052
0.000232661
0.00023705
0.000241232
0.000245218
0.000249016
0.000252636
0.000256083
0.000259365
0.000262488
0.000265455
0.000268273
0.000270946
0.000273478
0.000275873
0.000278136
0.00028027
0.000282279
0.000284168
0.000285939
0.000287597
0.000289145
0.000290587
0.000291926
0.000293165
0.000294309
0.00029536
0.000296322
0.000297211
0.000298026
0.000298763
0.000299422
0.000300007
0.000300522
0.00030097
0.000301353
0.000301676
0.00030194
0.000302149
0.000302306
0.000302412
0.000302471
0.000302485
0.000302456
0.000302386
0.000302278
0.000302133
0.000301954
0.000301742
0.000301499
0.000301227
0.000300927
0.000300601
0.00030025
0.000299876
0.000299479
0.000299061
0.000298623
0.000298167
0.000297692
0.0002972
0.000296692
0.000296168
0.000295629
0.000295076
0.00029451
0.00029393
0.000293338
0.000292733
0.000292117
0.00029149
0.000290851
0.000290201
0.000289541
0.00028887
0.000288189
0.000287498
0.000286797
0.000286086
0.000285365
0.000284634
0.000283892
0.000283141
0.00028238
0.000281609
0.000280827
0.000280035
0.000279232
0.000278419
0.000277595
0.000276759
0.000275913
0.000275054
0.000274184
0.000273302
0.000272408
0.0002715
0.00027058
0.000269647
0.0002687
0.00026774
0.000266765
0.000265776
0.000264772
0.000263753
0.000262718
0.000261668
0.000260601
0.000259518
0.000258417
0.0002573
0.000256164
0.000255011
0.000253839
0.000252649
0.000251439
0.00025021
0.00024896
0.000247691
0.000246401
0.000245089
0.000243757
0.000242402
0.000241026
0.000239627
0.000238205
0.000236759
0.000235291
0.000233798
0.000232281
0.000230739
0.000229172
0.00022758
0.000225962
0.000224317
0.000222647
0.000220949
0.000219223
0.00021747
0.000215689
0.000213879
0.00021204
0.000210172
0.000208273
0.000206343
0.000204382
0.000202389
0.000200363
0.000198304
0.00019621
0.000194081
0.000191916
0.000189713
0.000187472
0.00018519
0.000182867
0.0001805
0.000178087
0.000175627
0.000173116
0.000170551
0.00016793
0.000165248
0.000162503
0.000159694
0.000156831
0.000153892
0.000150857
0.000147715
0.000144454
0.000141055
0.000137499
0.000133759
0.000129802
0.000125582
0.000121058
0.000116181
0.000110812
0.000104782
9.78265e-05
8.94808e-05
7.88788e-05
6.54721e-05
0.000217238
7.94692e-05
0.000589133
0.000932994
0.00117354
0.00135358
0.00150003
0.00162557
0.00173597
0.00183442
0.0019233
0.00200464
0.00207962
0.00214917
0.00221398
0.00227462
0.00233153
0.00238506
0.00243552
0.00248315
0.00252817
0.00257076
0.00261108
0.00264927
0.00268545
0.00271972
0.0027522
0.00278296
0.00281209
0.00283966
0.00286574
0.0028904
0.00291369
0.00293568
0.00295641
0.00297593
0.0029943
0.00301155
0.00302774
0.00304289
0.00305705
0.00307025
0.00308253
0.0030939
0.00310434
0.00311368
0.0031221
0.00312975
0.0031367
0.003143
0.00314868
0.00315378
0.00315832
0.00316232
0.00316582
0.00316883
0.00317137
0.00317347
0.00317514
0.0031764
0.00317727
0.00317777
0.00317791
0.00317772
0.00317719
0.00317635
0.00317522
0.00317379
0.0031721
0.00317014
0.00316793
0.00316549
0.00316281
0.00315991
0.0031568
0.00315348
0.00314997
0.00314628
0.00314239
0.00313834
0.00313411
0.00312972
0.00312517
0.00312047
0.00311562
0.00311061
0.00310547
0.00310019
0.00309476
0.00308921
0.00308351
0.00307769
0.00307174
0.00306565
0.00305944
0.0030531
0.00304664
0.00304004
0.00303332
0.00302647
0.00301948
0.00301237
0.00300513
0.00299775
0.00299024
0.0029826
0.00297481
0.00296689
0.00295883
0.00295062
0.00294226
0.00293376
0.0029251
0.00291629
0.00290733
0.0028982
0.00288891
0.00287945
0.00286983
0.00286003
0.00285005
0.0028399
0.00282956
0.00281904
0.00280833
0.00279742
0.00278631
0.00277501
0.0027635
0.00275178
0.00273985
0.0027277
0.00271533
0.00270274
0.00268993
0.00267688
0.0026636
0.00265008
0.00263631
0.0026223
0.00260804
0.00259353
0.00257876
0.00256373
0.00254843
0.00253286
0.00251702
0.0025009
0.0024845
0.00246781
0.00245084
0.00243356
0.00241599
0.00239812
0.00237994
0.00236144
0.00234262
0.00232348
0.00230401
0.00228419
0.00226404
0.00224353
0.00222266
0.00220143
0.00217981
0.00215781
0.00213541
0.0021126
0.00208936
0.00206567
0.00204153
0.00201692
0.0019918
0.00196616
0.00193996
0.00191318
0.00188579
0.00185772
0.00182895
0.00179938
0.00176895
0.00173751
0.0017049
0.00167109
0.00163601
0.00159957
0.00156158
0.00152182
0.00148
0.00143575
0.00138852
0.00133753
0.00128134
0.00121839
0.00114729
0.00106508
0.000966762
0.000843312
0.000676522
0.000424931
5.69015e-05
7.94695e-05
0.00058914
0.000933004
0.00117355
0.00135359
0.00150004
0.00162558
0.00173598
0.00183443
0.00192331
0.00200465
0.00207963
0.00214918
0.00221399
0.00227463
0.00233154
0.00238507
0.00243553
0.00248316
0.00252818
0.00257077
0.00261109
0.00264928
0.00268545
0.00271973
0.0027522
0.00278296
0.00281209
0.00283966
0.00286575
0.00289041
0.0029137
0.00293569
0.00295642
0.00297594
0.00299431
0.00301156
0.00302774
0.00304289
0.00305706
0.00307026
0.00308254
0.00309391
0.00310435
0.00311368
0.00312211
0.00312975
0.0031367
0.003143
0.00314868
0.00315378
0.00315832
0.00316233
0.00316582
0.00316883
0.00317138
0.00317347
0.00317514
0.00317641
0.00317728
0.00317778
0.00317792
0.00317772
0.0031772
0.00317636
0.00317522
0.0031738
0.0031721
0.00317015
0.00316794
0.00316549
0.00316281
0.00315991
0.0031568
0.00315349
0.00314998
0.00314628
0.0031424
0.00313834
0.00313412
0.00312973
0.00312518
0.00312047
0.00311562
0.00311062
0.00310547
0.00310019
0.00309477
0.00308921
0.00308352
0.0030777
0.00307174
0.00306566
0.00305945
0.00305311
0.00304664
0.00304005
0.00303332
0.00302647
0.00301949
0.00301238
0.00300513
0.00299776
0.00299025
0.0029826
0.00297482
0.0029669
0.00295883
0.00295062
0.00294227
0.00293376
0.00292511
0.0029163
0.00290733
0.0028982
0.00288891
0.00287946
0.00286983
0.00286003
0.00285006
0.0028399
0.00282957
0.00281904
0.00280833
0.00279742
0.00278632
0.00277501
0.0027635
0.00275178
0.00273985
0.0027277
0.00271534
0.00270275
0.00268993
0.00267688
0.0026636
0.00265008
0.00263632
0.00262231
0.00260805
0.00259353
0.00257876
0.00256373
0.00254843
0.00253286
0.00251702
0.0025009
0.0024845
0.00246782
0.00245084
0.00243357
0.002416
0.00239812
0.00237994
0.00236144
0.00234262
0.00232348
0.00230401
0.0022842
0.00226404
0.00224354
0.00222267
0.00220143
0.00217982
0.00215782
0.00213541
0.0021126
0.00208936
0.00206568
0.00204154
0.00201692
0.0019918
0.00196616
0.00193996
0.00191319
0.00188579
0.00185773
0.00182895
0.00179939
0.00176895
0.00173752
0.00170491
0.00167109
0.00163602
0.00159957
0.00156158
0.00152182
0.00148
0.00143575
0.00138853
0.00133753
0.00128135
0.00121839
0.00114729
0.00106508
0.000966762
0.00084331
0.000676521
0.000424931
5.68954e-05
9.77425e-05
0.000893765
0.00158986
0.00211143
0.00252147
0.00286093
0.00315205
0.00340778
0.00363593
0.00384182
0.00402938
0.00420145
0.00436015
0.00450719
0.00464388
0.00477134
0.00489046
0.005002
0.00510663
0.00520491
0.00529733
0.00538432
0.00546627
0.00554352
0.00561639
0.00568515
0.00575006
0.00581134
0.00586921
0.00592386
0.00597546
0.00602419
0.00607019
0.00611359
0.00615454
0.00619315
0.00622954
0.0062638
0.00629603
0.00632632
0.00635474
0.00638137
0.00640625
0.00642937
0.00645068
0.00647035
0.00648854
0.00650536
0.0065209
0.00653524
0.00654844
0.00656056
0.00657165
0.00658175
0.0065909
0.00659915
0.00660652
0.00661307
0.00661881
0.00662379
0.00662802
0.00663155
0.0066344
0.00663659
0.00663815
0.0066391
0.00663947
0.00663928
0.00663854
0.00663728
0.00663552
0.00663327
0.00663054
0.00662737
0.00662375
0.0066197
0.00661524
0.00661038
0.00660513
0.0065995
0.00659349
0.00658713
0.0065804
0.00657334
0.00656593
0.00655818
0.00655011
0.00654171
0.006533
0.00652396
0.00651461
0.00650495
0.00649498
0.0064847
0.00647411
0.00646321
0.00645201
0.00644049
0.00642867
0.00641653
0.00640408
0.00639131
0.00637823
0.00636482
0.00635108
0.00633702
0.00632262
0.00630789
0.00629281
0.00627739
0.00626161
0.00624548
0.00622898
0.00621211
0.00619486
0.00617724
0.00615922
0.00614081
0.006122
0.00610278
0.00608314
0.00606308
0.00604259
0.00602166
0.00600029
0.00597846
0.00595616
0.0059334
0.00591016
0.00588644
0.00586221
0.00583749
0.00581225
0.0057865
0.00576021
0.00573339
0.00570602
0.00567809
0.0056496
0.00562054
0.00559089
0.00556065
0.00552981
0.00549835
0.00546627
0.00543355
0.00540019
0.00536618
0.0053315
0.00529613
0.00526008
0.00522332
0.00518585
0.00514764
0.00510868
0.00506896
0.00502847
0.00498717
0.00494506
0.00490211
0.0048583
0.00481361
0.00476801
0.00472148
0.00467398
0.00462548
0.00457594
0.00452533
0.00447359
0.00442069
0.00436655
0.00431114
0.00425436
0.00419614
0.0041364
0.00407502
0.00401189
0.00394685
0.00387974
0.00381035
0.0037384
0.00366362
0.00358576
0.0035045
0.00341942
0.00332998
0.00323552
0.00313519
0.00302787
0.00291206
0.0027857
0.00264589
0.00248868
0.00230966
0.00210157
0.00185327
0.00154704
0.00115414
0.000632826
6.92791e-05
9.77428e-05
0.000893774
0.00158988
0.00211145
0.00252149
0.00286096
0.00315208
0.0034078
0.00363595
0.00384184
0.00402941
0.00420147
0.00436017
0.0045072
0.0046439
0.00477135
0.00489047
0.00500202
0.00510665
0.00520492
0.00529734
0.00538433
0.00546628
0.00554354
0.00561641
0.00568517
0.00575007
0.00581135
0.00586922
0.00592387
0.00597547
0.0060242
0.00607019
0.0061136
0.00615455
0.00619316
0.00622954
0.0062638
0.00629603
0.00632632
0.00635475
0.00638138
0.00640625
0.00642937
0.00645069
0.00647036
0.00648854
0.00650536
0.0065209
0.00653524
0.00654845
0.00656057
0.00657165
0.00658175
0.00659091
0.00659915
0.00660653
0.00661307
0.00661881
0.00662379
0.00662803
0.00663155
0.0066344
0.00663659
0.00663815
0.0066391
0.00663947
0.00663928
0.00663854
0.00663728
0.00663552
0.00663327
0.00663055
0.00662737
0.00662375
0.00661971
0.00661525
0.00661039
0.00660513
0.0065995
0.0065935
0.00658713
0.00658041
0.00657334
0.00656593
0.00655819
0.00655011
0.00654172
0.006533
0.00652396
0.00651462
0.00650495
0.00649498
0.0064847
0.00647411
0.00646322
0.00645201
0.0064405
0.00642867
0.00641653
0.00640408
0.00639131
0.00637823
0.00636482
0.00635109
0.00633702
0.00632263
0.00630789
0.00629281
0.00627739
0.00626161
0.00624548
0.00622898
0.00621211
0.00619487
0.00617724
0.00615922
0.00614082
0.006122
0.00610278
0.00608315
0.00606309
0.00604259
0.00602166
0.00600029
0.00597846
0.00595617
0.0059334
0.00591016
0.00588644
0.00586222
0.00583749
0.00581225
0.0057865
0.00576021
0.00573339
0.00570602
0.0056781
0.00564961
0.00562054
0.00559089
0.00556065
0.00552981
0.00549835
0.00546627
0.00543355
0.00540019
0.00536618
0.0053315
0.00529613
0.00526008
0.00522332
0.00518585
0.00514764
0.00510868
0.00506897
0.00502847
0.00498717
0.00494506
0.00490211
0.0048583
0.00481361
0.00476801
0.00472148
0.00467398
0.00462548
0.00457594
0.00452533
0.00447359
0.00442069
0.00436656
0.00431114
0.00425436
0.00419614
0.0041364
0.00407502
0.00401189
0.00394685
0.00387974
0.00381035
0.0037384
0.00366362
0.00358576
0.0035045
0.00341942
0.00332998
0.00323552
0.00313519
0.00302787
0.00291206
0.0027857
0.00264589
0.00248868
0.00230966
0.00210157
0.00185327
0.00154703
0.00115414
0.000632828
6.92804e-05
0.000110673
0.00108062
0.00203341
0.00279017
0.00340746
0.00392793
0.00437833
0.00477572
0.00513138
0.0054531
0.00574653
0.00601587
0.00626434
0.00649446
0.00670827
0.00690746
0.00709341
0.00726732
0.00743021
0.00758298
0.00772642
0.00786122
0.00798801
0.00810736
0.00821978
0.00832572
0.00842563
0.00851987
0.00860881
0.00869278
0.00877207
0.00884695
0.00891769
0.00898452
0.00904766
0.0091073
0.00916364
0.00921683
0.00926705
0.00931442
0.00935908
0.00940114
0.00944068
0.00947777
0.00951246
0.00954489
0.00957522
0.0096036
0.00963013
0.00965492
0.00967807
0.00969965
0.00971974
0.00973841
0.00975571
0.00977171
0.00978645
0.00979999
0.00981237
0.00982364
0.00983384
0.00984301
0.00985119
0.0098584
0.0098647
0.0098701
0.00987464
0.00987834
0.00988124
0.00988336
0.00988473
0.00988536
0.00988528
0.00988451
0.00988307
0.00988098
0.00987824
0.00987489
0.00987093
0.00986638
0.00986125
0.00985555
0.00984929
0.00984248
0.00983513
0.00982725
0.00981884
0.00980991
0.00980046
0.00979051
0.00978004
0.00976907
0.0097576
0.00974562
0.00973314
0.00972016
0.00970668
0.00969269
0.00967819
0.00966319
0.00964767
0.00963164
0.00961509
0.00959801
0.0095804
0.00956225
0.00954356
0.00952432
0.00950453
0.00948417
0.00946323
0.00944172
0.00941962
0.00939692
0.00937362
0.0093497
0.00932515
0.00929996
0.00927413
0.00924764
0.00922048
0.00919264
0.00916411
0.00913488
0.00910493
0.00907425
0.00904283
0.00901066
0.00897772
0.008944
0.0089095
0.00887418
0.00883805
0.00880108
0.00876327
0.00872459
0.00868503
0.00864458
0.00860323
0.00856094
0.00851772
0.00847354
0.00842839
0.00838225
0.00833509
0.00828691
0.00823768
0.00818738
0.00813599
0.00808349
0.00802985
0.00797506
0.00791909
0.0078619
0.00780348
0.00774379
0.00768281
0.00762049
0.0075568
0.00749171
0.00742518
0.00735715
0.00728758
0.00721642
0.00714361
0.0070691
0.0069928
0.00691465
0.00683457
0.00675246
0.00666822
0.00658173
0.00649287
0.0064015
0.00630743
0.00621049
0.00611046
0.00600707
0.00590003
0.00578898
0.00567351
0.00555314
0.00542736
0.00529554
0.0051569
0.00501048
0.00485507
0.00468915
0.00451078
0.00431751
0.00410606
0.0038721
0.00360993
0.00331232
0.00296929
0.0025665
0.00208369
0.0014934
0.000770586
7.88831e-05
0.000110673
0.00108063
0.00203343
0.00279019
0.00340749
0.00392797
0.00437836
0.00477575
0.00513141
0.00545313
0.00574656
0.0060159
0.00626436
0.00649449
0.0067083
0.00690749
0.00709344
0.00726734
0.00743024
0.007583
0.00772644
0.00786124
0.00798803
0.00810738
0.00821979
0.00832574
0.00842564
0.00851989
0.00860883
0.00869279
0.00877208
0.00884697
0.00891771
0.00898454
0.00904767
0.00910731
0.00916365
0.00921684
0.00926706
0.00931443
0.00935909
0.00940115
0.00944069
0.00947778
0.00951246
0.0095449
0.00957523
0.0096036
0.00963013
0.00965493
0.00967807
0.00969966
0.00971975
0.00973841
0.00975572
0.00977171
0.00978645
0.00979999
0.00981238
0.00982364
0.00983384
0.00984301
0.00985119
0.0098584
0.0098647
0.0098701
0.00987464
0.00987834
0.00988124
0.00988336
0.00988473
0.00988536
0.00988528
0.00988451
0.00988307
0.00988098
0.00987824
0.00987489
0.00987093
0.00986638
0.00986125
0.00985555
0.00984929
0.00984248
0.00983513
0.00982725
0.00981884
0.00980991
0.00980046
0.00979051
0.00978004
0.00976907
0.0097576
0.00974562
0.00973314
0.00972016
0.00970668
0.00969269
0.00967819
0.00966319
0.00964767
0.00963164
0.00961508
0.00959801
0.0095804
0.00956225
0.00954356
0.00952432
0.00950452
0.00948416
0.00946323
0.00944172
0.00941962
0.00939692
0.00937362
0.0093497
0.00932515
0.00929996
0.00927413
0.00924764
0.00922048
0.00919264
0.00916411
0.00913487
0.00910492
0.00907424
0.00904283
0.00901066
0.00897772
0.008944
0.00890949
0.00887418
0.00883805
0.00880108
0.00876326
0.00872458
0.00868503
0.00864458
0.00860322
0.00856094
0.00851772
0.00847354
0.00842839
0.00838224
0.00833509
0.0082869
0.00823767
0.00818737
0.00813598
0.00808348
0.00802985
0.00797506
0.00791908
0.0078619
0.00780348
0.00774379
0.0076828
0.00762049
0.0075568
0.00749171
0.00742517
0.00735714
0.00728758
0.00721642
0.00714361
0.00706909
0.0069928
0.00691465
0.00683457
0.00675245
0.00666821
0.00658173
0.00649287
0.00640149
0.00630743
0.00621049
0.00611046
0.00600707
0.00590003
0.00578897
0.0056735
0.00555314
0.00542736
0.00529554
0.0051569
0.00501047
0.00485507
0.00468915
0.00451078
0.00431751
0.00410605
0.0038721
0.00360993
0.00331232
0.00296929
0.0025665
0.00208369
0.0014934
0.000770587
7.88835e-05
0.000121172
0.00120764
0.00235066
0.00329737
0.00408883
0.00476584
0.00535691
0.00588147
0.00635296
0.00678092
0.00717235
0.00753251
0.00786545
0.00817436
0.00846183
0.00872999
0.00898063
0.00921526
0.00943521
0.00964163
0.00983554
0.0100179
0.0101894
0.0103509
0.0105031
0.0106466
0.0107819
0.0109096
0.0110302
0.0111441
0.0112517
0.0113534
0.0114495
0.0115405
0.0116265
0.0117079
0.011785
0.0118578
0.0119268
0.0119921
0.0120538
0.0121121
0.0121672
0.0122192
0.0122681
0.0123143
0.0123578
0.0123987
0.0124373
0.0124736
0.0125078
0.01254
0.0125703
0.0125987
0.0126253
0.0126503
0.0126736
0.0126954
0.0127158
0.0127346
0.0127521
0.0127683
0.0127832
0.0127968
0.0128093
0.0128205
0.0128307
0.0128398
0.0128478
0.0128548
0.0128609
0.0128659
0.01287
0.0128733
0.0128756
0.012877
0.0128776
0.0128774
0.0128764
0.0128745
0.0128719
0.0128686
0.0128644
0.0128595
0.0128539
0.0128476
0.0128405
0.0128327
0.0128242
0.0128151
0.0128052
0.0127946
0.0127833
0.0127713
0.0127587
0.0127453
0.0127312
0.0127165
0.012701
0.0126848
0.0126679
0.0126503
0.012632
0.012613
0.0125932
0.0125726
0.0125513
0.0125293
0.0125064
0.0124828
0.0124584
0.0124332
0.0124072
0.0123803
0.0123526
0.0123241
0.0122947
0.0122644
0.0122332
0.0122011
0.012168
0.0121341
0.0120991
0.0120633
0.0120264
0.0119885
0.0119496
0.0119096
0.0118686
0.0118265
0.0117833
0.011739
0.0116936
0.011647
0.0115992
0.0115503
0.0115001
0.0114487
0.011396
0.011342
0.0112868
0.0112302
0.0111722
0.0111129
0.0110521
0.0109899
0.0109262
0.0108611
0.0107944
0.0107261
0.0106562
0.0105847
0.0105116
0.0104367
0.01036
0.0102816
0.0102013
0.0101191
0.0100349
0.00994877
0.00986052
0.00977012
0.0096775
0.00958259
0.00948528
0.0093855
0.00928313
0.00917807
0.00907018
0.00895932
0.00884536
0.0087281
0.00860735
0.0084829
0.0083545
0.00822186
0.00808465
0.0079425
0.00779498
0.00764156
0.00748167
0.00731461
0.0071396
0.00695568
0.00676171
0.00655629
0.00633771
0.00610383
0.00585199
0.00557884
0.0052801
0.00495036
0.00458269
0.00416807
0.00369522
0.00314893
0.00250967
0.00175485
0.00087562
8.65552e-05
0.000121172
0.00120765
0.00235068
0.0032974
0.00408886
0.00476588
0.00535695
0.00588151
0.006353
0.00678096
0.00717239
0.00753255
0.00786548
0.00817439
0.00846186
0.00873002
0.00898066
0.00921529
0.00943524
0.00964166
0.00983557
0.0100179
0.0101894
0.010351
0.0105032
0.0106466
0.0107819
0.0109096
0.0110302
0.0111441
0.0112517
0.0113534
0.0114496
0.0115405
0.0116265
0.0117079
0.011785
0.0118579
0.0119268
0.0119921
0.0120538
0.0121121
0.0121672
0.0122192
0.0122682
0.0123143
0.0123578
0.0123987
0.0124373
0.0124736
0.0125078
0.01254
0.0125703
0.0125987
0.0126253
0.0126503
0.0126736
0.0126955
0.0127158
0.0127346
0.0127521
0.0127683
0.0127832
0.0127968
0.0128093
0.0128206
0.0128307
0.0128398
0.0128478
0.0128548
0.0128609
0.0128659
0.01287
0.0128733
0.0128756
0.012877
0.0128776
0.0128774
0.0128764
0.0128745
0.0128719
0.0128685
0.0128644
0.0128595
0.0128539
0.0128476
0.0128405
0.0128327
0.0128242
0.0128151
0.0128052
0.0127946
0.0127833
0.0127713
0.0127587
0.0127453
0.0127312
0.0127165
0.012701
0.0126848
0.0126679
0.0126503
0.012632
0.012613
0.0125932
0.0125726
0.0125513
0.0125293
0.0125064
0.0124828
0.0124584
0.0124332
0.0124072
0.0123803
0.0123526
0.0123241
0.0122947
0.0122644
0.0122332
0.0122011
0.012168
0.0121341
0.0120991
0.0120632
0.0120264
0.0119885
0.0119496
0.0119096
0.0118686
0.0118265
0.0117833
0.011739
0.0116936
0.011647
0.0115992
0.0115503
0.0115001
0.0114487
0.011396
0.011342
0.0112868
0.0112302
0.0111722
0.0111129
0.0110521
0.0109899
0.0109262
0.0108611
0.0107944
0.0107261
0.0106562
0.0105847
0.0105116
0.0104367
0.01036
0.0102816
0.0102013
0.0101191
0.0100349
0.00994876
0.00986051
0.00977012
0.0096775
0.00958258
0.00948528
0.00938549
0.00928313
0.00917806
0.00907017
0.00895932
0.00884535
0.00872809
0.00860735
0.0084829
0.00835449
0.00822185
0.00808465
0.0079425
0.00779497
0.00764156
0.00748166
0.00731461
0.00713959
0.00695567
0.0067617
0.00655629
0.00633771
0.00610383
0.00585199
0.00557883
0.0052801
0.00495036
0.00458269
0.00416807
0.00369522
0.00314893
0.00250967
0.00175485
0.000875619
8.65552e-05
0.000130074
0.00130829
0.00259647
0.0036951
0.00463029
0.00543956
0.00615163
0.00678714
0.00736086
0.00788354
0.00836315
0.00880574
0.00921599
0.0095976
0.00995357
0.0102864
0.0105981
0.0108904
0.011165
0.0114231
0.011666
0.0118947
0.0121101
0.0123132
0.0125048
0.0126856
0.0128563
0.0130176
0.01317
0.0133141
0.0134504
0.0135794
0.0137015
0.0138171
0.0139266
0.0140304
0.0141287
0.0142219
0.0143103
0.0143941
0.0144735
0.0145487
0.0146201
0.0146876
0.0147516
0.0148121
0.0148694
0.0149236
0.0149749
0.0150235
0.0150695
0.0151131
0.0151542
0.0151932
0.01523
0.0152647
0.0152974
0.0153283
0.0153574
0.0153847
0.0154103
0.0154343
0.0154568
0.0154777
0.0154972
0.0155153
0.015532
0.0155474
0.0155615
0.0155744
0.015586
0.0155965
0.0156058
0.015614
0.0156211
0.0156271
0.0156321
0.0156361
0.015639
0.015641
0.015642
0.015642
0.0156411
0.0156393
0.0156365
0.0156328
0.0156282
0.0156227
0.0156164
0.0156091
0.015601
0.0155919
0.015582
0.0155712
0.0155596
0.015547
0.0155336
0.0155192
0.015504
0.0154879
0.0154708
0.0154529
0.015434
0.0154142
0.0153934
0.0153717
0.015349
0.0153254
0.0153008
0.0152752
0.0152485
0.0152209
0.0151922
0.0151624
0.0151316
0.0150996
0.0150666
0.0150325
0.0149972
0.0149607
0.0149231
0.0148843
0.0148442
0.0148029
0.0147604
0.0147165
0.0146714
0.0146249
0.0145771
0.0145279
0.0144773
0.0144253
0.0143718
0.0143169
0.0142605
0.0142025
0.0141429
0.0140818
0.0140191
0.0139547
0.0138886
0.0138208
0.0137513
0.0136799
0.0136068
0.0135318
0.0134549
0.013376
0.0132952
0.0132123
0.0131274
0.0130403
0.0129511
0.0128596
0.0127658
0.0126697
0.0125711
0.0124701
0.0123665
0.0122602
0.0121512
0.0120394
0.0119247
0.0118069
0.011686
0.0115617
0.0114341
0.0113029
0.0111679
0.011029
0.010886
0.0107386
0.0105865
0.0104295
0.0102673
0.0100994
0.00992534
0.00974475
0.00955699
0.0093614
0.0091572
0.0089435
0.00871924
0.00848317
0.0082338
0.00796932
0.00768756
0.00738585
0.00706092
0.00670874
0.00632429
0.00590137
0.00543219
0.00490698
0.00431387
0.00363811
0.00286211
0.00196862
0.00096188
9.30345e-05
0.000130074
0.0013083
0.00259649
0.00369513
0.00463032
0.0054396
0.00615167
0.00678718
0.0073609
0.00788358
0.00836319
0.00880578
0.00921603
0.00959764
0.00995361
0.0102864
0.0105981
0.0108905
0.0111651
0.0114232
0.011666
0.0118947
0.0121101
0.0123132
0.0125048
0.0126856
0.0128564
0.0130176
0.0131701
0.0133142
0.0134505
0.0135794
0.0137015
0.0138171
0.0139266
0.0140304
0.0141287
0.0142219
0.0143103
0.0143941
0.0144735
0.0145488
0.0146201
0.0146876
0.0147516
0.0148121
0.0148694
0.0149236
0.014975
0.0150236
0.0150696
0.0151131
0.0151542
0.0151932
0.01523
0.0152647
0.0152974
0.0153283
0.0153574
0.0153847
0.0154103
0.0154343
0.0154568
0.0154777
0.0154972
0.0155153
0.015532
0.0155474
0.0155615
0.0155744
0.015586
0.0155965
0.0156058
0.015614
0.0156211
0.0156271
0.0156321
0.0156361
0.015639
0.015641
0.015642
0.015642
0.0156411
0.0156393
0.0156365
0.0156328
0.0156282
0.0156227
0.0156164
0.0156091
0.015601
0.0155919
0.015582
0.0155712
0.0155596
0.015547
0.0155336
0.0155192
0.015504
0.0154878
0.0154708
0.0154529
0.015434
0.0154142
0.0153934
0.0153717
0.015349
0.0153254
0.0153008
0.0152752
0.0152485
0.0152209
0.0151922
0.0151624
0.0151316
0.0150996
0.0150666
0.0150325
0.0149972
0.0149607
0.0149231
0.0148843
0.0148442
0.0148029
0.0147604
0.0147165
0.0146714
0.0146249
0.0145771
0.0145279
0.0144773
0.0144253
0.0143718
0.0143169
0.0142605
0.0142025
0.0141429
0.0140818
0.0140191
0.0139547
0.0138886
0.0138208
0.0137513
0.0136799
0.0136068
0.0135318
0.0134549
0.013376
0.0132952
0.0132123
0.0131274
0.0130403
0.0129511
0.0128596
0.0127658
0.0126697
0.0125711
0.0124701
0.0123665
0.0122602
0.0121512
0.0120394
0.0119247
0.0118069
0.0116859
0.0115617
0.0114341
0.0113029
0.0111679
0.011029
0.010886
0.0107386
0.0105865
0.0104295
0.0102673
0.0100993
0.00992534
0.00974474
0.00955698
0.00936139
0.0091572
0.0089435
0.00871924
0.00848317
0.00823379
0.00796932
0.00768755
0.00738584
0.00706091
0.00670873
0.00632429
0.00590137
0.00543219
0.00490698
0.00431387
0.00363811
0.00286211
0.00196862
0.000961878
9.30345e-05
0.000137953
0.00139442
0.0027992
0.00402096
0.00507493
0.00599541
0.0068107
0.007542
0.00820489
0.00881095
0.00936886
0.00988522
0.0103652
0.0108129
0.0112316
0.0116241
0.0119925
0.0123389
0.0126649
0.0129721
0.0132617
0.0135349
0.0137927
0.0140362
0.0142663
0.0144838
0.0146895
0.014884
0.0150681
0.0152424
0.0154075
0.0155639
0.0157122
0.0158528
0.0159861
0.0161126
0.0162326
0.0163466
0.0164548
0.0165576
0.0166552
0.016748
0.016836
0.0169197
0.0169991
0.0170745
0.0171461
0.0172141
0.0172787
0.0173401
0.0173984
0.0174538
0.0175064
0.0175564
0.0176038
0.0176489
0.0176916
0.017732
0.0177704
0.0178067
0.017841
0.0178734
0.017904
0.0179329
0.01796
0.0179854
0.0180093
0.0180316
0.0180524
0.0180717
0.0180897
0.0181062
0.0181213
0.0181352
0.0181477
0.018159
0.0181691
0.0181779
0.0181856
0.0181921
0.0181974
0.0182016
0.0182046
0.0182066
0.0182074
0.0182072
0.0182058
0.0182034
0.0182
0.0181954
0.0181898
0.0181832
0.0181755
0.0181667
0.0181568
0.0181459
0.0181339
0.0181209
0.0181067
0.0180915
0.0180752
0.0180577
0.0180392
0.0180195
0.0179987
0.0179767
0.0179536
0.0179293
0.0179038
0.0178771
0.0178491
0.0178199
0.0177895
0.0177577
0.0177247
0.0176904
0.0176547
0.0176176
0.0175792
0.0175393
0.0174981
0.0174553
0.0174111
0.0173654
0.0173182
0.0172694
0.017219
0.017167
0.0171134
0.017058
0.017001
0.0169423
0.0168818
0.0168195
0.0167553
0.0166893
0.0166214
0.0165516
0.0164797
0.0164059
0.01633
0.016252
0.0161718
0.0160895
0.0160049
0.0159181
0.0158289
0.0157373
0.0156433
0.0155468
0.0154478
0.0153461
0.0152417
0.0151345
0.0150246
0.0149117
0.0147958
0.0146768
0.0145546
0.0144292
0.0143003
0.0141679
0.0140319
0.0138922
0.0137484
0.0136006
0.0134486
0.013292
0.0131308
0.0129647
0.0127933
0.0126165
0.0124339
0.0122452
0.0120498
0.0118473
0.0116372
0.0114189
0.0111917
0.0109546
0.0107069
0.0104473
0.0101746
0.00988727
0.00958347
0.00926106
0.00891745
0.00854955
0.00815359
0.00772501
0.00725828
0.00674664
0.00618188
0.00555402
0.0048511
0.0040593
0.00316319
0.00215052
0.00103586
9.87037e-05
0.000137954
0.00139443
0.00279921
0.00402099
0.00507496
0.00599545
0.00681075
0.00754204
0.00820494
0.008811
0.0093689
0.00988527
0.0103653
0.010813
0.0112317
0.0116241
0.0119925
0.0123389
0.012665
0.0129721
0.0132617
0.0135349
0.0137928
0.0140363
0.0142664
0.0144838
0.0146895
0.0148841
0.0150682
0.0152425
0.0154076
0.015564
0.0157122
0.0158528
0.0159861
0.0161126
0.0162327
0.0163466
0.0164548
0.0165576
0.0166552
0.016748
0.016836
0.0169197
0.0169991
0.0170745
0.0171461
0.0172141
0.0172787
0.0173401
0.0173984
0.0174538
0.0175064
0.0175564
0.0176038
0.0176489
0.0176916
0.017732
0.0177704
0.0178067
0.017841
0.0178735
0.017904
0.0179329
0.01796
0.0179854
0.0180093
0.0180316
0.0180524
0.0180717
0.0180897
0.0181062
0.0181213
0.0181352
0.0181477
0.018159
0.0181691
0.0181779
0.0181856
0.0181921
0.0181974
0.0182016
0.0182046
0.0182066
0.0182074
0.0182072
0.0182058
0.0182034
0.0182
0.0181954
0.0181898
0.0181832
0.0181755
0.0181667
0.0181568
0.0181459
0.0181339
0.0181209
0.0181067
0.0180915
0.0180752
0.0180577
0.0180392
0.0180195
0.0179987
0.0179767
0.0179536
0.0179293
0.0179038
0.017877
0.0178491
0.0178199
0.0177895
0.0177577
0.0177247
0.0176904
0.0176547
0.0176176
0.0175792
0.0175393
0.0174981
0.0174553
0.0174111
0.0173654
0.0173182
0.0172694
0.017219
0.017167
0.0171134
0.017058
0.017001
0.0169423
0.0168818
0.0168195
0.0167553
0.0166893
0.0166214
0.0165516
0.0164797