/*--------------------------------*- C++ -*----------------------------------*\
  =========                 |
  \\      /  F ield         | OpenFOAM: The Open Source CFD Toolbox
   \\    /   O peration     | Website:  https://openfoam.org
    \\  /    A nd           | Version:  8
     \\/     M anipulation  |
\*---------------------------------------------------------------------------*/
FoamFile
{
    version     2.0;
    format      ascii;
    class       volVectorField;
    location    "4000";
    object      U;
}
// * * * * * * * * * * * * * * * * * * * * * * * * * * * * * * * * * * * * * //

dimensions      [0 1 -1 0 0 0 0];

internalField   nonuniform List<vector> 
48000
(
(-0.016311 3.05166e-07 0.0178719)
(-0.0364766 4.07458e-08 0.0179123)
(-0.0507005 3.70604e-08 0.00949429)
(-0.0556746 1.56023e-08 0.0011105)
(-0.0524173 1.5228e-09 -0.00510292)
(-0.0437276 -8.97401e-09 -0.00934957)
(-0.0311619 -1.60709e-08 -0.0122007)
(-0.016121 -2.07577e-08 -0.014081)
(0.000638005 -2.45117e-08 -0.015197)
(0.0183058 -2.61945e-08 -0.0156624)
(0.0363331 -2.51056e-08 -0.0157163)
(0.0544984 -2.30839e-08 -0.0155393)
(0.0725084 -2.05634e-08 -0.0152036)
(0.0901973 -1.78145e-08 -0.0147575)
(0.107436 -1.49971e-08 -0.0142345)
(0.124129 -1.22558e-08 -0.0136584)
(0.140207 -9.64397e-09 -0.0130464)
(0.15562 -7.23773e-09 -0.0124114)
(0.17033 -5.03328e-09 -0.0117631)
(0.184313 -3.06488e-09 -0.0111091)
(0.197555 -1.30589e-09 -0.0104552)
(0.210047 2.45602e-10 -0.00980605)
(0.221789 1.62005e-09 -0.00916532)
(0.232783 2.80794e-09 -0.00853601)
(0.243039 3.84544e-09 -0.00792054)
(0.252567 4.72113e-09 -0.00732087)
(0.261383 5.45785e-09 -0.0067386)
(0.269503 6.06512e-09 -0.00617502)
(0.276948 6.55627e-09 -0.00563114)
(0.283738 6.94271e-09 -0.00510777)
(0.289897 7.22446e-09 -0.00460549)
(0.295446 7.40911e-09 -0.00412474)
(0.300413 7.53095e-09 -0.00366578)
(0.30482 7.57474e-09 -0.00322874)
(0.308695 7.5557e-09 -0.00281363)
(0.312063 7.48527e-09 -0.00242035)
(0.31495 7.36534e-09 -0.00204868)
(0.317382 7.20924e-09 -0.00169833)
(0.319384 7.01317e-09 -0.00136892)
(0.320983 6.77902e-09 -0.00106003)
(0.322202 6.54678e-09 -0.000771136)
(0.323067 6.28217e-09 -0.000501719)
(0.323601 6.01947e-09 -0.000251183)
(0.323827 5.73392e-09 -1.85421e-05)
(0.323767 5.45218e-09 0.000196826)
(0.323443 5.18758e-09 0.000395198)
(0.322876 4.92107e-09 0.000577358)
(0.322085 4.65836e-09 0.000744215)
(0.321089 4.40899e-09 0.000896568)
(0.319905 4.17674e-09 0.00103517)
(0.318552 3.94831e-09 0.00116075)
(0.317045 3.74272e-09 0.00127405)
(0.315398 3.55997e-09 0.00137579)
(0.313627 3.38483e-09 0.0014667)
(0.311745 3.23826e-09 0.00154746)
(0.309764 3.105e-09 0.00161876)
(0.307696 3.0003e-09 0.00168128)
(0.305552 2.90893e-09 0.00173564)
(0.303342 2.8385e-09 0.00178247)
(0.301074 2.7871e-09 0.00182235)
(0.298758 2.75284e-09 0.00185585)
(0.296402 2.74332e-09 0.00188351)
(0.294012 2.74713e-09 0.00190584)
(0.291595 2.76997e-09 0.00192331)
(0.289158 2.80995e-09 0.00193639)
(0.286705 2.85373e-09 0.00194549)
(0.284241 2.91846e-09 0.00195102)
(0.281771 2.9946e-09 0.00195334)
(0.279299 3.08979e-09 0.00195281)
(0.276828 3.19449e-09 0.00194974)
(0.274361 3.3068e-09 0.00194444)
(0.271902 3.42483e-09 0.00193718)
(0.269451 3.55427e-09 0.00192821)
(0.267012 3.68753e-09 0.00191777)
(0.264586 3.82268e-09 0.00190606)
(0.262176 3.96926e-09 0.00189329)
(0.259781 4.12726e-09 0.00187963)
(0.257403 4.27955e-09 0.00186525)
(0.255043 4.43184e-09 0.00185029)
(0.252702 4.58794e-09 0.00183488)
(0.250381 4.75736e-09 0.00181916)
(0.248078 4.90965e-09 0.00180322)
(0.245796 5.06574e-09 0.00178717)
(0.243534 5.22755e-09 0.0017711)
(0.241291 5.38745e-09 0.00175509)
(0.239069 5.55497e-09 0.00173921)
(0.236866 5.71106e-09 0.00172353)
(0.234683 5.86906e-09 0.00170811)
(0.232519 6.02135e-09 0.00169301)
(0.230373 6.16792e-09 0.00167826)
(0.228246 6.32592e-09 0.00166393)
(0.226136 6.46869e-09 0.00165004)
(0.224044 6.61336e-09 0.00163664)
(0.221968 6.76374e-09 0.00162375)
(0.219908 6.9008e-09 0.00161142)
(0.217863 7.03405e-09 0.00159966)
(0.215833 7.1673e-09 0.00158851)
(0.213816 7.29103e-09 0.001578)
(0.211812 7.41667e-09 0.00156813)
(0.20982 7.53469e-09 0.00155895)
(0.207839 7.65652e-09 0.00155046)
(0.205869 7.78025e-09 0.00154269)
(0.203908 7.89446e-09 0.00153565)
(0.201955 8.01439e-09 0.00152937)
(0.20001 8.11908e-09 0.00152387)
(0.198072 8.23139e-09 0.00151915)
(0.196139 8.33799e-09 0.00151524)
(0.19421 8.43507e-09 0.00151216)
(0.192285 8.53786e-09 0.00150991)
(0.190363 8.64066e-09 0.00150852)
(0.188442 8.73583e-09 0.001508)
(0.186521 8.83672e-09 0.00150836)
(0.1846 8.92999e-09 0.00150963)
(0.182676 9.02517e-09 0.00151181)
(0.180749 9.11844e-09 0.00151491)
(0.178819 9.2022e-09 0.00151896)
(0.176883 9.29738e-09 0.00152397)
(0.17494 9.38113e-09 0.00152994)
(0.17299 9.4725e-09 0.00153689)
(0.17103 9.55816e-09 0.00154483)
(0.169061 9.63811e-09 0.00155377)
(0.16708 9.71425e-09 0.00156373)
(0.165086 9.79991e-09 0.0015747)
(0.163079 9.88367e-09 0.00158671)
(0.161057 9.96171e-09 0.00159976)
(0.159018 1.00512e-08 0.00161385)
(0.156962 1.01292e-08 0.001629)
(0.154887 1.0213e-08 0.0016452)
(0.152791 1.03024e-08 0.00166246)
(0.150675 1.03862e-08 0.00168078)
(0.148535 1.04776e-08 0.00170016)
(0.146372 1.05613e-08 0.00172061)
(0.144184 1.06451e-08 0.00174211)
(0.141969 1.07365e-08 0.00176467)
(0.139727 1.08316e-08 0.00178828)
(0.137456 1.09306e-08 0.00181293)
(0.135155 1.10144e-08 0.00183861)
(0.132823 1.1121e-08 0.0018653)
(0.130459 1.122e-08 0.00189299)
(0.128061 1.13266e-08 0.00192167)
(0.125629 1.14408e-08 0.0019513)
(0.123161 1.1555e-08 0.00198188)
(0.120657 1.16654e-08 0.00201336)
(0.118115 1.17948e-08 0.00204572)
(0.115535 1.19243e-08 0.00207892)
(0.112916 1.20537e-08 0.00211293)
(0.110257 1.21908e-08 0.00214769)
(0.107557 1.23393e-08 0.00218317)
(0.104815 1.24992e-08 0.00221931)
(0.102031 1.26553e-08 0.00225605)
(0.0992054 1.28304e-08 0.00229332)
(0.0963364 1.30055e-08 0.00233107)
(0.0934243 1.32035e-08 0.0023692)
(0.0904687 1.34243e-08 0.00240763)
(0.0874696 1.36642e-08 0.00244627)
(0.0844272 1.39116e-08 0.00248503)
(0.0813415 1.4201e-08 0.00252378)
(0.0782129 1.45094e-08 0.0025624)
(0.075042 1.48406e-08 0.00260076)
(0.0718295 1.52251e-08 0.00263871)
(0.0685762 1.56173e-08 0.00267609)
(0.0652833 1.60627e-08 0.00271272)
(0.0619522 1.65272e-08 0.00274839)
(0.0585843 1.70031e-08 0.00278289)
(0.0551818 1.75057e-08 0.00281597)
(0.0517467 1.80006e-08 0.00284736)
(0.0482816 1.8507e-08 0.00287674)
(0.0447896 1.90019e-08 0.00290378)
(0.0412739 1.94588e-08 0.0029281)
(0.0377385 1.99233e-08 0.00294926)
(0.0341877 2.03497e-08 0.00296676)
(0.0306267 2.07646e-08 0.00298006)
(0.027061 2.11758e-08 0.00298852)
(0.0234971 2.16137e-08 0.00299143)
(0.0199423 2.20401e-08 0.00298796)
(0.016405 2.24665e-08 0.00297717)
(0.0128946 2.28891e-08 0.00295795)
(0.00942202 2.32393e-08 0.00292902)
(0.00599874 2.34678e-08 0.00288881)
(0.00264292 2.34602e-08 0.00283532)
(-0.000638736 2.28891e-08 0.00276169)
(-0.0038144 2.18535e-08 0.00266379)
(-0.00686587 2.07228e-08 0.00254345)
(-0.00976948 1.97024e-08 0.00240082)
(-0.0124951 1.91808e-08 0.0022323)
(-0.0150104 1.96758e-08 0.00203202)
(-0.0172756 2.18231e-08 0.00179468)
(-0.0192454 2.61176e-08 0.00151348)
(-0.0208657 3.24833e-08 0.00118)
(-0.0220731 3.99988e-08 0.000784118)
(-0.0227935 4.66157e-08 0.000313318)
(-0.0229396 4.91818e-08 -0.000245705)
(-0.0224093 4.52071e-08 -0.000904946)
(-0.021098 3.53083e-08 -0.00167594)
(-0.018891 2.49374e-08 -0.00256235)
(-0.0156918 2.38104e-08 -0.00353596)
(-0.011471 3.64961e-08 -0.00448356)
(-0.00650295 4.7179e-08 -0.00504699)
(-0.000970966 3.92144e-08 -0.00366161)
(0.00113411 -2.62851e-08 0.00156464)
(-0.0163121 3.05162e-07 0.017871)
(-0.0364769 4.07456e-08 0.0179119)
(-0.0507004 3.70602e-08 0.00949406)
(-0.0556745 1.56022e-08 0.00111029)
(-0.0524171 1.52279e-09 -0.00510312)
(-0.0437273 -8.97398e-09 -0.00934976)
(-0.0311617 -1.60708e-08 -0.0122009)
(-0.0161208 -2.07576e-08 -0.0140812)
(0.000638215 -2.45116e-08 -0.0151972)
(0.018306 -2.61944e-08 -0.0156626)
(0.0363333 -2.51055e-08 -0.0157164)
(0.0544986 -2.30838e-08 -0.0155394)
(0.0725085 -2.05634e-08 -0.0152037)
(0.0901974 -1.78145e-08 -0.0147576)
(0.107436 -1.49971e-08 -0.0142347)
(0.124129 -1.22558e-08 -0.0136585)
(0.140207 -9.64395e-09 -0.0130465)
(0.15562 -7.23771e-09 -0.0124115)
(0.17033 -5.03327e-09 -0.0117632)
(0.184313 -3.06488e-09 -0.0111092)
(0.197555 -1.30589e-09 -0.0104553)
(0.210047 2.45602e-10 -0.00980616)
(0.221789 1.62005e-09 -0.00916542)
(0.232783 2.80794e-09 -0.00853611)
(0.243038 3.84544e-09 -0.00792064)
(0.252567 4.72112e-09 -0.00732097)
(0.261382 5.45784e-09 -0.0067387)
(0.269503 6.06511e-09 -0.00617512)
(0.276948 6.55626e-09 -0.00563124)
(0.283738 6.94271e-09 -0.00510786)
(0.289896 7.22445e-09 -0.00460558)
(0.295446 7.40911e-09 -0.00412483)
(0.300413 7.53094e-09 -0.00366587)
(0.30482 7.57473e-09 -0.00322883)
(0.308695 7.5557e-09 -0.00281372)
(0.312063 7.48526e-09 -0.00242043)
(0.31495 7.36533e-09 -0.00204876)
(0.317382 7.20924e-09 -0.00169841)
(0.319384 7.01316e-09 -0.001369)
(0.320983 6.77901e-09 -0.0010601)
(0.322202 6.54677e-09 -0.000771211)
(0.323067 6.28216e-09 -0.000501793)
(0.323601 6.01946e-09 -0.000251256)
(0.323827 5.73392e-09 -1.86141e-05)
(0.323767 5.45218e-09 0.000196755)
(0.323443 5.18757e-09 0.000395128)
(0.322876 4.92106e-09 0.000577289)
(0.322085 4.65836e-09 0.000744147)
(0.321089 4.40899e-09 0.000896501)
(0.319905 4.17674e-09 0.0010351)
(0.318552 3.94831e-09 0.00116069)
(0.317044 3.74271e-09 0.00127399)
(0.315398 3.55997e-09 0.00137573)
(0.313627 3.38483e-09 0.00146663)
(0.311745 3.23825e-09 0.0015474)
(0.309764 3.105e-09 0.0016187)
(0.307696 3.0003e-09 0.00168122)
(0.305552 2.90893e-09 0.00173558)
(0.303341 2.8385e-09 0.00178241)
(0.301074 2.7871e-09 0.00182229)
(0.298758 2.75283e-09 0.0018558)
(0.296402 2.74332e-09 0.00188346)
(0.294012 2.74713e-09 0.00190578)
(0.291595 2.76997e-09 0.00192326)
(0.289158 2.80995e-09 0.00193633)
(0.286705 2.85373e-09 0.00194543)
(0.284241 2.91846e-09 0.00195096)
(0.281771 2.9946e-09 0.00195329)
(0.279299 3.08978e-09 0.00195275)
(0.276828 3.19448e-09 0.00194969)
(0.274361 3.3068e-09 0.00194439)
(0.271902 3.42482e-09 0.00193713)
(0.269451 3.55427e-09 0.00192816)
(0.267012 3.68752e-09 0.00191771)
(0.264586 3.82268e-09 0.00190601)
(0.262175 3.96926e-09 0.00189324)
(0.259781 4.12726e-09 0.00187958)
(0.257403 4.27955e-09 0.00186519)
(0.255043 4.43184e-09 0.00185023)
(0.252702 4.58793e-09 0.00183483)
(0.25038 4.75735e-09 0.0018191)
(0.248078 4.90964e-09 0.00180317)
(0.245796 5.06574e-09 0.00178712)
(0.243534 5.22754e-09 0.00177105)
(0.241291 5.38745e-09 0.00175504)
(0.239069 5.55496e-09 0.00173916)
(0.236866 5.71106e-09 0.00172348)
(0.234683 5.86906e-09 0.00170806)
(0.232519 6.02134e-09 0.00169295)
(0.230373 6.16792e-09 0.00167821)
(0.228246 6.32592e-09 0.00166387)
(0.226136 6.46869e-09 0.00164998)
(0.224044 6.61336e-09 0.00163658)
(0.221968 6.76374e-09 0.0016237)
(0.219908 6.9008e-09 0.00161136)
(0.217863 7.03405e-09 0.00159961)
(0.215833 7.1673e-09 0.00158846)
(0.213816 7.29103e-09 0.00157794)
(0.211812 7.41666e-09 0.00156808)
(0.20982 7.53469e-09 0.00155889)
(0.207839 7.65651e-09 0.0015504)
(0.205869 7.78024e-09 0.00154263)
(0.203908 7.89446e-09 0.00153559)
(0.201955 8.01438e-09 0.00152931)
(0.20001 8.11908e-09 0.00152381)
(0.198072 8.23139e-09 0.00151909)
(0.196139 8.33799e-09 0.00151518)
(0.19421 8.43507e-09 0.0015121)
(0.192285 8.53786e-09 0.00150985)
(0.190363 8.64065e-09 0.00150846)
(0.188442 8.73583e-09 0.00150794)
(0.186521 8.83672e-09 0.0015083)
(0.184599 8.92999e-09 0.00150957)
(0.182676 9.02517e-09 0.00151174)
(0.180749 9.11844e-09 0.00151485)
(0.178819 9.20219e-09 0.0015189)
(0.176883 9.29737e-09 0.0015239)
(0.17494 9.38113e-09 0.00152987)
(0.172989 9.4725e-09 0.00153682)
(0.17103 9.55816e-09 0.00154476)
(0.169061 9.63811e-09 0.0015537)
(0.16708 9.71425e-09 0.00156366)
(0.165086 9.79991e-09 0.00157464)
(0.163079 9.88366e-09 0.00158664)
(0.161057 9.96171e-09 0.00159969)
(0.159018 1.00512e-08 0.00161378)
(0.156962 1.01292e-08 0.00162893)
(0.154887 1.0213e-08 0.00164513)
(0.152791 1.03024e-08 0.00166239)
(0.150675 1.03862e-08 0.00168071)
(0.148535 1.04776e-08 0.00170009)
(0.146372 1.05613e-08 0.00172054)
(0.144184 1.06451e-08 0.00174204)
(0.141969 1.07365e-08 0.0017646)
(0.139727 1.08316e-08 0.00178821)
(0.137456 1.09306e-08 0.00181286)
(0.135155 1.10144e-08 0.00183853)
(0.132823 1.1121e-08 0.00186522)
(0.130459 1.122e-08 0.00189292)
(0.128061 1.13266e-08 0.00192159)
(0.125629 1.14408e-08 0.00195123)
(0.123161 1.1555e-08 0.0019818)
(0.120657 1.16654e-08 0.00201328)
(0.118115 1.17948e-08 0.00204564)
(0.115535 1.19243e-08 0.00207884)
(0.112916 1.20537e-08 0.00211285)
(0.110257 1.21908e-08 0.00214761)
(0.107557 1.23393e-08 0.00218309)
(0.104815 1.24992e-08 0.00221923)
(0.102031 1.26553e-08 0.00225596)
(0.0992054 1.28304e-08 0.00229324)
(0.0963364 1.30055e-08 0.00233098)
(0.0934243 1.32035e-08 0.00236911)
(0.0904687 1.34243e-08 0.00240754)
(0.0874696 1.36642e-08 0.00244618)
(0.0844272 1.39116e-08 0.00248494)
(0.0813415 1.4201e-08 0.00252368)
(0.0782129 1.45094e-08 0.00256231)
(0.0750421 1.48406e-08 0.00260067)
(0.0718295 1.52251e-08 0.00263862)
(0.0685763 1.56173e-08 0.002676)
(0.0652834 1.60627e-08 0.00271262)
(0.0619522 1.65272e-08 0.00274829)
(0.0585844 1.70031e-08 0.00278279)
(0.0551818 1.75056e-08 0.00281587)
(0.0517467 1.80006e-08 0.00284725)
(0.0482816 1.85069e-08 0.00287663)
(0.0447896 1.90019e-08 0.00290367)
(0.0412739 1.94588e-08 0.00292799)
(0.0377385 1.99232e-08 0.00294914)
(0.0341878 2.03496e-08 0.00296664)
(0.0306267 2.07646e-08 0.00297994)
(0.027061 2.11758e-08 0.0029884)
(0.0234971 2.16136e-08 0.00299131)
(0.0199423 2.204e-08 0.00298783)
(0.0164051 2.24665e-08 0.00297703)
(0.0128947 2.28891e-08 0.00295781)
(0.00942205 2.32393e-08 0.00292889)
(0.00599877 2.34678e-08 0.00288866)
(0.00264294 2.34601e-08 0.00283517)
(-0.000638714 2.28891e-08 0.00276154)
(-0.00381438 2.18535e-08 0.00266364)
(-0.00686584 2.07227e-08 0.0025433)
(-0.00976946 1.97024e-08 0.00240067)
(-0.0124951 1.91808e-08 0.00223214)
(-0.0150103 1.96758e-08 0.00203186)
(-0.0172756 2.1823e-08 0.00179452)
(-0.0192453 2.61176e-08 0.00151331)
(-0.0208656 3.24833e-08 0.00117983)
(-0.0220731 3.99987e-08 0.000783939)
(-0.0227934 4.66157e-08 0.000313128)
(-0.0229396 4.91817e-08 -0.000245911)
(-0.0224093 4.5207e-08 -0.00090517)
(-0.021098 3.53082e-08 -0.00167618)
(-0.0188911 2.49373e-08 -0.00256261)
(-0.0156918 2.38104e-08 -0.0035362)
(-0.0114711 3.64961e-08 -0.00448379)
(-0.00650314 4.71793e-08 -0.0050473)
(-0.000971334 3.92145e-08 -0.00366215)
(0.00113373 -2.62852e-08 0.00156347)
(-0.0147186 3.08537e-08 0.0411324)
(-0.0217495 3.51583e-09 0.0274823)
(-0.0223515 4.94942e-09 0.0126353)
(-0.0191861 5.06287e-10 -0.000690524)
(-0.0125549 -1.13751e-09 -0.0110773)
(-0.00321513 -2.51956e-09 -0.0185758)
(0.00832844 -3.62559e-09 -0.0237813)
(0.0214654 -4.42607e-09 -0.0272532)
(0.0357542 -4.99526e-09 -0.0294321)
(0.0507978 -5.24083e-09 -0.0306265)
(0.0662835 -5.20846e-09 -0.0311217)
(0.0819615 -5.0752e-09 -0.0311263)
(0.0976258 -4.85627e-09 -0.0307695)
(0.11312 -4.59356e-09 -0.0301467)
(0.128322 -4.30657e-09 -0.0293257)
(0.143136 -4.01531e-09 -0.0283571)
(0.157487 -3.72737e-09 -0.027279)
(0.171319 -3.45419e-09 -0.0261211)
(0.184588 -3.19767e-09 -0.0249065)
(0.197261 -2.95828e-09 -0.0236539)
(0.209317 -2.74126e-09 -0.0223783)
(0.220739 -2.54232e-09 -0.021092)
(0.23152 -2.36147e-09 -0.0198051)
(0.241655 -2.19728e-09 -0.0185263)
(0.251146 -2.04831e-09 -0.0172625)
(0.259998 -1.91696e-09 -0.0160199)
(0.268219 -1.79988e-09 -0.0148033)
(0.275821 -1.69946e-09 -0.0136171)
(0.282817 -1.61236e-09 -0.0124647)
(0.289223 -1.53669e-09 -0.011349)
(0.295057 -1.47387e-09 -0.0102724)
(0.300337 -1.42199e-09 -0.0092367)
(0.305082 -1.37963e-09 -0.00824335)
(0.309315 -1.34441e-09 -0.00729338)
(0.313056 -1.31918e-09 -0.00638747)
(0.316327 -1.30014e-09 -0.005526)
(0.31915 -1.28634e-09 -0.00470903)
(0.321548 -1.28015e-09 -0.00393639)
(0.323544 -1.27586e-09 -0.00320767)
(0.325159 -1.27681e-09 -0.00252225)
(0.326415 -1.27871e-09 -0.00187935)
(0.327335 -1.28347e-09 -0.00127803)
(0.327939 -1.28823e-09 -0.000717193)
(0.328248 -1.28965e-09 -0.000195644)
(0.328282 -1.29679e-09 0.000287948)
(0.328061 -1.30392e-09 0.00073505)
(0.327604 -1.30916e-09 0.00114715)
(0.326928 -1.31296e-09 0.00152576)
(0.326052 -1.31343e-09 0.0018724)
(0.324991 -1.31248e-09 0.00218863)
(0.323762 -1.31057e-09 0.00247602)
(0.322379 -1.30581e-09 0.00273614)
(0.320857 -1.2982e-09 0.00297054)
(0.319209 -1.29058e-09 0.00318077)
(0.317448 -1.27963e-09 0.00336834)
(0.315585 -1.26631e-09 0.00353474)
(0.313633 -1.25155e-09 0.00368141)
(0.3116 -1.23346e-09 0.00380975)
(0.309498 -1.2149e-09 0.0039211)
(0.307334 -1.19396e-09 0.00401677)
(0.305117 -1.17159e-09 0.004098)
(0.302855 -1.14779e-09 0.00416597)
(0.300555 -1.12257e-09 0.00422181)
(0.298223 -1.09735e-09 0.00426658)
(0.295866 -1.07212e-09 0.00430129)
(0.293487 -1.04499e-09 0.00432688)
(0.291094 -1.01834e-09 0.00434425)
(0.288689 -9.9169e-10 0.00435423)
(0.286277 -9.63611e-10 0.00435759)
(0.283861 -9.3696e-10 0.00435506)
(0.281446 -9.12688e-10 0.0043473)
(0.279032 -8.86513e-10 0.00433493)
(0.276624 -8.6129e-10 0.00431853)
(0.274223 -8.37018e-10 0.00429863)
(0.271831 -8.16078e-10 0.0042757)
(0.26945 -7.91807e-10 0.0042502)
(0.267081 -7.73723e-10 0.00422252)
(0.264726 -7.54211e-10 0.00419305)
(0.262386 -7.37554e-10 0.00416211)
(0.26006 -7.21374e-10 0.00413002)
(0.257751 -7.07097e-10 0.00409706)
(0.255459 -6.95676e-10 0.00406349)
(0.253183 -6.84255e-10 0.00402952)
(0.250925 -6.7569e-10 0.00399538)
(0.248684 -6.65696e-10 0.00396125)
(0.246461 -6.60938e-10 0.00392731)
(0.244255 -6.54276e-10 0.0038937)
(0.242066 -6.51422e-10 0.00386058)
(0.239894 -6.50947e-10 0.00382806)
(0.237739 -6.50948e-10 0.00379627)
(0.235601 -6.51425e-10 0.00376531)
(0.233478 -6.54282e-10 0.00373528)
(0.23137 -6.5809e-10 0.00370626)
(0.229278 -6.63326e-10 0.00367833)
(0.227199 -6.69515e-10 0.00365158)
(0.225135 -6.78082e-10 0.00362606)
(0.223083 -6.89029e-10 0.00360184)
(0.221044 -6.98549e-10 0.00357898)
(0.219016 -7.114e-10 0.00355754)
(0.217 -7.22347e-10 0.00353755)
(0.214993 -7.34722e-10 0.00351908)
(0.212995 -7.48048e-10 0.00350217)
(0.211006 -7.61851e-10 0.00348686)
(0.209025 -7.76606e-10 0.0034732)
(0.20705 -7.92788e-10 0.00346121)
(0.20508 -8.07542e-10 0.00345095)
(0.203116 -8.24676e-10 0.00344244)
(0.201155 -8.41334e-10 0.00343573)
(0.199197 -8.57041e-10 0.00343084)
(0.19724 -8.75602e-10 0.00342781)
(0.195285 -8.92261e-10 0.00342667)
(0.193329 -9.08919e-10 0.00342745)
(0.191372 -9.27004e-10 0.00343018)
(0.189413 -9.44614e-10 0.00343488)
(0.18745 -9.61748e-10 0.00344159)
(0.185482 -9.8031e-10 0.00345034)
(0.183509 -9.96968e-10 0.00346114)
(0.181529 -1.0141e-09 0.00347401)
(0.179541 -1.03028e-09 0.00348899)
(0.177544 -1.04742e-09 0.00350609)
(0.175537 -1.06408e-09 0.00352532)
(0.173519 -1.08121e-09 0.00354672)
(0.171488 -1.09692e-09 0.00357028)
(0.169443 -1.11453e-09 0.00359602)
(0.167384 -1.12928e-09 0.00362395)
(0.165308 -1.14451e-09 0.00365408)
(0.163215 -1.15831e-09 0.00368642)
(0.161104 -1.17545e-09 0.00372096)
(0.158973 -1.18782e-09 0.00375771)
(0.156821 -1.20115e-09 0.00379665)
(0.154647 -1.21447e-09 0.00383778)
(0.15245 -1.22685e-09 0.0038811)
(0.150229 -1.23875e-09 0.00392657)
(0.147983 -1.25207e-09 0.00397418)
(0.14571 -1.26207e-09 0.0040239)
(0.14341 -1.27492e-09 0.00407571)
(0.141081 -1.28586e-09 0.00412956)
(0.138722 -1.29681e-09 0.00418541)
(0.136333 -1.30585e-09 0.00424322)
(0.133911 -1.31728e-09 0.00430293)
(0.131458 -1.32727e-09 0.00436447)
(0.12897 -1.33632e-09 0.00442778)
(0.126449 -1.34679e-09 0.00449279)
(0.123892 -1.35583e-09 0.0045594)
(0.121299 -1.36297e-09 0.00462753)
(0.118669 -1.37344e-09 0.00469706)
(0.116002 -1.38201e-09 0.00476789)
(0.113297 -1.39152e-09 0.00483989)
(0.110554 -1.39866e-09 0.00491293)
(0.107772 -1.40723e-09 0.00498686)
(0.104951 -1.41627e-09 0.00506152)
(0.102091 -1.42341e-09 0.00513674)
(0.0991916 -1.43198e-09 0.00521232)
(0.0962526 -1.43626e-09 0.00528806)
(0.0932743 -1.44293e-09 0.00536375)
(0.090257 -1.44769e-09 0.00543913)
(0.0872011 -1.45292e-09 0.00551394)
(0.0841071 -1.45625e-09 0.0055879)
(0.0809759 -1.46292e-09 0.0056607)
(0.0778082 -1.46577e-09 0.005732)
(0.0746052 -1.47053e-09 0.00580143)
(0.0713683 -1.47482e-09 0.00586858)
(0.0680989 -1.48291e-09 0.00593302)
(0.0647989 -1.49718e-09 0.00599425)
(0.0614703 -1.51432e-09 0.00605175)
(0.0581156 -1.54002e-09 0.00610493)
(0.0547375 -1.56952e-09 0.00615313)
(0.051339 -1.60474e-09 0.00619565)
(0.0479236 -1.64947e-09 0.00623167)
(0.0444953 -1.69802e-09 0.00626031)
(0.0410584 -1.75322e-09 0.00628058)
(0.0376179 -1.80938e-09 0.00629134)
(0.0341794 -1.86649e-09 0.00629135)
(0.030749 -1.92169e-09 0.00627919)
(0.0273338 -1.97404e-09 0.00625324)
(0.0239416 -2.02544e-09 0.00621166)
(0.0205811 -2.07874e-09 0.00615234)
(0.0172623 -2.14346e-09 0.00607284)
(0.0139962 -2.22627e-09 0.00597013)
(0.0107957 -2.34715e-09 0.00584094)
(0.00767424 -2.49659e-09 0.00567962)
(0.00464789 -2.64602e-09 0.00548099)
(0.0017342 -2.7926e-09 0.00524186)
(-0.00104831 -2.91443e-09 0.00495685)
(-0.00367382 -2.92585e-09 0.00461939)
(-0.00611847 -2.73549e-09 0.00422137)
(-0.00835389 -2.25197e-09 0.00375325)
(-0.0103486 -1.41914e-09 0.00320345)
(-0.0120676 -3.14091e-10 0.00255848)
(-0.0134723 7.78584e-10 0.00180314)
(-0.0145212 1.32111e-09 0.000920317)
(-0.0151716 6.36764e-10 -0.000106693)
(-0.0153794 -1.66756e-09 -0.00128953)
(-0.0151054 -4.96557e-09 -0.00263146)
(-0.0143227 -6.88537e-09 -0.00411227)
(-0.0130273 -3.84149e-09 -0.00565078)
(-0.0112556 4.72667e-09 -0.00702902)
(-0.00905564 3.20948e-09 -0.00774944)
(-0.00639125 -1.55069e-08 -0.00656354)
(-0.00386385 -2.21826e-07 -0.00152517)
(-0.0147189 3.08535e-08 0.041132)
(-0.0217495 3.51579e-09 0.0274821)
(-0.0223515 4.94937e-09 0.0126351)
(-0.019186 5.06282e-10 -0.000690648)
(-0.0125548 -1.1375e-09 -0.0110774)
(-0.00321502 -2.51955e-09 -0.0185759)
(0.00832854 -3.62556e-09 -0.0237814)
(0.0214655 -4.42604e-09 -0.0272533)
(0.0357543 -4.99523e-09 -0.0294321)
(0.0507979 -5.2408e-09 -0.0306266)
(0.0662836 -5.20843e-09 -0.0311217)
(0.0819616 -5.07517e-09 -0.0311263)
(0.0976258 -4.85625e-09 -0.0307696)
(0.11312 -4.59354e-09 -0.0301467)
(0.128322 -4.30656e-09 -0.0293258)
(0.143136 -4.0153e-09 -0.0283571)
(0.157487 -3.72736e-09 -0.0272791)
(0.171319 -3.45418e-09 -0.0261211)
(0.184587 -3.19766e-09 -0.0249065)
(0.197261 -2.95827e-09 -0.0236539)
(0.209317 -2.74125e-09 -0.0223783)
(0.220739 -2.54232e-09 -0.021092)
(0.23152 -2.36147e-09 -0.0198051)
(0.241655 -2.19727e-09 -0.0185263)
(0.251146 -2.04831e-09 -0.0172626)
(0.259998 -1.91695e-09 -0.0160199)
(0.268219 -1.79988e-09 -0.0148034)
(0.275821 -1.69945e-09 -0.0136171)
(0.282817 -1.61236e-09 -0.0124647)
(0.289223 -1.53669e-09 -0.011349)
(0.295057 -1.47386e-09 -0.0102724)
(0.300336 -1.42199e-09 -0.00923672)
(0.305082 -1.37963e-09 -0.00824336)
(0.309315 -1.34441e-09 -0.00729339)
(0.313055 -1.31918e-09 -0.00638749)
(0.316326 -1.30014e-09 -0.00552601)
(0.31915 -1.28634e-09 -0.00470904)
(0.321548 -1.28015e-09 -0.0039364)
(0.323544 -1.27586e-09 -0.00320768)
(0.325159 -1.27681e-09 -0.00252227)
(0.326415 -1.27871e-09 -0.00187937)
(0.327335 -1.28347e-09 -0.00127804)
(0.327939 -1.28822e-09 -0.000717208)
(0.328248 -1.28965e-09 -0.000195659)
(0.328282 -1.29679e-09 0.000287933)
(0.328061 -1.30392e-09 0.000735035)
(0.327604 -1.30915e-09 0.00114714)
(0.326928 -1.31296e-09 0.00152574)
(0.326052 -1.31343e-09 0.00187238)
(0.324991 -1.31248e-09 0.00218862)
(0.323762 -1.31057e-09 0.00247601)
(0.322379 -1.30581e-09 0.00273612)
(0.320857 -1.2982e-09 0.00297052)
(0.319209 -1.29058e-09 0.00318075)
(0.317448 -1.27963e-09 0.00336832)
(0.315585 -1.2663e-09 0.00353472)
(0.313632 -1.25155e-09 0.00368139)
(0.3116 -1.23346e-09 0.00380973)
(0.309497 -1.2149e-09 0.00392108)
(0.307334 -1.19396e-09 0.00401676)
(0.305117 -1.17159e-09 0.00409798)
(0.302855 -1.14779e-09 0.00416595)
(0.300555 -1.12257e-09 0.00422179)
(0.298223 -1.09734e-09 0.00426656)
(0.295865 -1.07212e-09 0.00430127)
(0.293487 -1.04499e-09 0.00432686)
(0.291094 -1.01834e-09 0.00434423)
(0.288689 -9.91689e-10 0.00435421)
(0.286277 -9.6361e-10 0.00435757)
(0.283861 -9.36959e-10 0.00435504)
(0.281446 -9.12687e-10 0.00434728)
(0.279032 -8.86512e-10 0.00433492)
(0.276624 -8.61289e-10 0.00431852)
(0.274223 -8.37017e-10 0.00429861)
(0.271831 -8.16077e-10 0.00427569)
(0.26945 -7.91806e-10 0.00425018)
(0.267081 -7.73722e-10 0.00422251)
(0.264726 -7.5421e-10 0.00419303)
(0.262386 -7.37554e-10 0.0041621)
(0.26006 -7.21373e-10 0.00413001)
(0.257751 -7.07097e-10 0.00409705)
(0.255459 -6.95676e-10 0.00406347)
(0.253183 -6.84254e-10 0.00402951)
(0.250925 -6.75689e-10 0.00399536)
(0.248684 -6.65696e-10 0.00396124)
(0.246461 -6.60937e-10 0.00392729)
(0.244255 -6.54276e-10 0.00389369)
(0.242066 -6.51421e-10 0.00386056)
(0.239894 -6.50946e-10 0.00382805)
(0.237739 -6.50948e-10 0.00379626)
(0.235601 -6.51425e-10 0.0037653)
(0.233478 -6.54281e-10 0.00373526)
(0.23137 -6.5809e-10 0.00370624)
(0.229278 -6.63326e-10 0.00367832)
(0.227199 -6.69514e-10 0.00365156)
(0.225135 -6.78081e-10 0.00362605)
(0.223083 -6.89029e-10 0.00360183)
(0.221044 -6.98548e-10 0.00357897)
(0.219016 -7.11399e-10 0.00355752)
(0.217 -7.22346e-10 0.00353754)
(0.214993 -7.34721e-10 0.00351907)
(0.212995 -7.48048e-10 0.00350216)
(0.211006 -7.6185e-10 0.00348685)
(0.209025 -7.76605e-10 0.00347318)
(0.20705 -7.92787e-10 0.0034612)
(0.20508 -8.07542e-10 0.00345093)
(0.203116 -8.24676e-10 0.00344243)
(0.201155 -8.41334e-10 0.00343571)
(0.199197 -8.5704e-10 0.00343082)
(0.19724 -8.75602e-10 0.00342779)
(0.195285 -8.9226e-10 0.00342665)
(0.193329 -9.08918e-10 0.00342743)
(0.191372 -9.27004e-10 0.00343016)
(0.189413 -9.44613e-10 0.00343487)
(0.18745 -9.61747e-10 0.00344158)
(0.185482 -9.80309e-10 0.00345032)
(0.183509 -9.96967e-10 0.00346112)
(0.181529 -1.0141e-09 0.003474)
(0.179541 -1.03028e-09 0.00348898)
(0.177544 -1.04742e-09 0.00350607)
(0.175537 -1.06407e-09 0.00352531)
(0.173519 -1.08121e-09 0.0035467)
(0.171488 -1.09691e-09 0.00357026)
(0.169443 -1.11452e-09 0.003596)
(0.167384 -1.12928e-09 0.00362394)
(0.165308 -1.14451e-09 0.00365407)
(0.163215 -1.15831e-09 0.00368641)
(0.161104 -1.17544e-09 0.00372095)
(0.158973 -1.18782e-09 0.00375769)
(0.156821 -1.20115e-09 0.00379663)
(0.154647 -1.21447e-09 0.00383777)
(0.15245 -1.22685e-09 0.00388108)
(0.150229 -1.23875e-09 0.00392655)
(0.147983 -1.25207e-09 0.00397416)
(0.14571 -1.26207e-09 0.00402388)
(0.14341 -1.27492e-09 0.00407569)
(0.141081 -1.28586e-09 0.00412954)
(0.138722 -1.29681e-09 0.00418539)
(0.136333 -1.30585e-09 0.0042432)
(0.133911 -1.31728e-09 0.00430291)
(0.131458 -1.32727e-09 0.00436445)
(0.12897 -1.33631e-09 0.00442777)
(0.126449 -1.34678e-09 0.00449277)
(0.123892 -1.35583e-09 0.00455938)
(0.121299 -1.36297e-09 0.00462751)
(0.118669 -1.37344e-09 0.00469704)
(0.116002 -1.382e-09 0.00476787)
(0.113297 -1.39152e-09 0.00483987)
(0.110554 -1.39866e-09 0.00491291)
(0.107772 -1.40723e-09 0.00498684)
(0.104951 -1.41627e-09 0.0050615)
(0.102091 -1.42341e-09 0.00513672)
(0.0991916 -1.43198e-09 0.0052123)
(0.0962526 -1.43626e-09 0.00528804)
(0.0932743 -1.44292e-09 0.00536373)
(0.090257 -1.44768e-09 0.00543911)
(0.0872011 -1.45292e-09 0.00551392)
(0.0841071 -1.45625e-09 0.00558788)
(0.0809759 -1.46291e-09 0.00566068)
(0.0778082 -1.46577e-09 0.00573198)
(0.0746052 -1.47053e-09 0.00580141)
(0.0713683 -1.47481e-09 0.00586856)
(0.0680989 -1.4829e-09 0.00593299)
(0.0647989 -1.49718e-09 0.00599423)
(0.0614703 -1.51431e-09 0.00605173)
(0.0581156 -1.54001e-09 0.0061049)
(0.0547375 -1.56952e-09 0.00615311)
(0.051339 -1.60474e-09 0.00619562)
(0.0479236 -1.64947e-09 0.00623165)
(0.0444953 -1.69801e-09 0.00626029)
(0.0410584 -1.75322e-09 0.00628055)
(0.0376179 -1.80938e-09 0.00629132)
(0.0341794 -1.86649e-09 0.00629133)
(0.030749 -1.92169e-09 0.00627916)
(0.0273338 -1.97404e-09 0.00625321)
(0.0239416 -2.02544e-09 0.00621163)
(0.0205811 -2.07874e-09 0.00615232)
(0.0172623 -2.14346e-09 0.00607281)
(0.0139963 -2.22627e-09 0.0059701)
(0.0107958 -2.34715e-09 0.00584091)
(0.00767425 -2.49658e-09 0.0056796)
(0.0046479 -2.64602e-09 0.00548096)
(0.00173422 -2.79259e-09 0.00524183)
(-0.0010483 -2.91443e-09 0.00495682)
(-0.00367381 -2.92585e-09 0.00461936)
(-0.00611846 -2.73549e-09 0.00422133)
(-0.00835388 -2.25197e-09 0.00375322)
(-0.0103486 -1.41914e-09 0.00320341)
(-0.0120675 -3.14091e-10 0.00255845)
(-0.0134723 7.78583e-10 0.0018031)
(-0.0145212 1.32111e-09 0.000920278)
(-0.0151716 6.36764e-10 -0.000106736)
(-0.0153795 -1.66756e-09 -0.00128958)
(-0.0151054 -4.96557e-09 -0.00263151)
(-0.0143227 -6.88536e-09 -0.00411233)
(-0.0130273 -3.84149e-09 -0.00565084)
(-0.0112557 4.72669e-09 -0.00702909)
(-0.00905574 3.20951e-09 -0.00774955)
(-0.00639147 -1.55068e-08 -0.00656371)
(-0.00386437 -2.21823e-07 -0.00152561)
(-0.00642153 4.91822e-08 0.0550871)
(-0.00699946 3.65101e-09 0.0276404)
(-0.00212526 5.79182e-09 0.00728374)
(0.00472172 3.95006e-09 -0.00880176)
(0.0131593 3.88107e-09 -0.0212066)
(0.0229142 3.73259e-09 -0.0304465)
(0.0338568 3.51558e-09 -0.0371011)
(0.0457913 3.27667e-09 -0.0417106)
(0.0585061 2.98399e-09 -0.044731)
(0.0717935 2.67655e-09 -0.0465194)
(0.0854627 2.40433e-09 -0.047371)
(0.0993325 2.154e-09 -0.0475143)
(0.113244 1.94221e-09 -0.0471173)
(0.127065 1.7647e-09 -0.0463071)
(0.140685 1.61669e-09 -0.04518)
(0.154016 1.49224e-09 -0.0438101)
(0.166985 1.38754e-09 -0.0422551)
(0.179534 1.29831e-09 -0.0405608)
(0.191618 1.2224e-09 -0.0387639)
(0.2032 1.15435e-09 -0.0368942)
(0.214255 1.09438e-09 -0.034976)
(0.224761 1.0418e-09 -0.0330298)
(0.234708 9.93968e-10 -0.0310724)
(0.244085 9.49472e-10 -0.0291182)
(0.252891 9.10686e-10 -0.0271791)
(0.261126 8.74042e-10 -0.0252654)
(0.268795 8.39539e-10 -0.0233859)
(0.275905 8.07655e-10 -0.0215477)
(0.282465 7.76959e-10 -0.019757)
(0.288487 7.48168e-10 -0.018019)
(0.293986 7.21042e-10 -0.0163379)
(0.298976 6.94392e-10 -0.0147172)
(0.303475 6.6917e-10 -0.0131595)
(0.307499 6.45851e-10 -0.0116668)
(0.311067 6.22771e-10 -0.0102406)
(0.314198 6.00642e-10 -0.00888188)
(0.316912 5.79941e-10 -0.00759103)
(0.319229 5.5924e-10 -0.00636806)
(0.321167 5.39252e-10 -0.00521259)
(0.322748 5.19503e-10 -0.0041239)