/*--------------------------------*- C++ -*----------------------------------*\
  =========                 |
  \\      /  F ield         | OpenFOAM: The Open Source CFD Toolbox
   \\    /   O peration     | Website:  https://openfoam.org
    \\  /    A nd           | Version:  8
     \\/     M anipulation  |
\*---------------------------------------------------------------------------*/
FoamFile
{
    version     2.0;
    format      ascii;
    class       volScalarField;
    location    "600";
    object      alphat;
}
// * * * * * * * * * * * * * * * * * * * * * * * * * * * * * * * * * * * * * //

dimensions      [1 -1 -1 0 0 0 0];

internalField   nonuniform List<scalar> 
46000
(
2.74128e-07
1.16381e-06
2.38262e-06
3.78977e-06
5.20207e-06
6.59598e-06
7.91043e-06
9.13305e-06
1.02826e-05
1.13604e-05
1.23658e-05
1.32976e-05
1.41543e-05
1.49348e-05
1.5638e-05
1.62632e-05
1.68102e-05
1.72793e-05
1.76713e-05
1.79877e-05
1.82308e-05
1.84032e-05
1.85083e-05
1.85528e-05
1.85599e-05
1.85211e-05
1.8436e-05
1.83078e-05
1.81416e-05
1.79435e-05
1.77198e-05
1.74767e-05
1.72203e-05
1.69561e-05
1.66891e-05
1.64235e-05
1.61631e-05
1.59109e-05
1.56691e-05
1.54396e-05
1.52237e-05
1.5022e-05
1.4835e-05
1.46628e-05
1.45052e-05
1.43618e-05
1.4232e-05
1.41152e-05
1.40108e-05
1.39181e-05
1.38363e-05
1.37648e-05
1.37029e-05
1.36499e-05
1.36053e-05
1.35684e-05
1.35387e-05
1.35159e-05
1.35009e-05
1.34921e-05
1.34886e-05
1.34901e-05
1.3496e-05
1.35061e-05
1.352e-05
1.35375e-05
1.35583e-05
1.35821e-05
1.36086e-05
1.36376e-05
1.36687e-05
1.37018e-05
1.37366e-05
1.37729e-05
1.38105e-05
1.38492e-05
1.38888e-05
1.39293e-05
1.39705e-05
1.40123e-05
1.40548e-05
1.4098e-05
1.41417e-05
1.41862e-05
1.42314e-05
1.42775e-05
1.43246e-05
1.43728e-05
1.44223e-05
1.44731e-05
1.45255e-05
1.45795e-05
1.46353e-05
1.4693e-05
1.47526e-05
1.48141e-05
1.48777e-05
1.49432e-05
1.50106e-05
1.50798e-05
1.51506e-05
1.5223e-05
1.52968e-05
1.53717e-05
1.54475e-05
1.5524e-05
1.5601e-05
1.56782e-05
1.57554e-05
1.58324e-05
1.5909e-05
1.5985e-05
1.60603e-05
1.61347e-05
1.62083e-05
1.62808e-05
1.63524e-05
1.64229e-05
1.64925e-05
1.65612e-05
1.6629e-05
1.66961e-05
1.67625e-05
1.68283e-05
1.68938e-05
1.69589e-05
1.70238e-05
1.70886e-05
1.71534e-05
1.72183e-05
1.72833e-05
1.73485e-05
1.74141e-05
1.74799e-05
1.75461e-05
1.76128e-05
1.76799e-05
1.77476e-05
1.78159e-05
1.7885e-05
1.79548e-05
1.80255e-05
1.80973e-05
1.81704e-05
1.82449e-05
1.8321e-05
1.83989e-05
1.8479e-05
1.85615e-05
1.86467e-05
1.87348e-05
1.88261e-05
1.8921e-05
1.90197e-05
1.91224e-05
1.92293e-05
1.93407e-05
1.94566e-05
1.95771e-05
1.97022e-05
1.98317e-05
1.99653e-05
2.01025e-05
2.02428e-05
2.03851e-05
2.05283e-05
2.0671e-05
2.08111e-05
2.09463e-05
2.10738e-05
2.119e-05
2.12912e-05
2.13729e-05
2.14321e-05
2.14659e-05
2.14649e-05
2.1421e-05
2.13262e-05
2.11725e-05
2.09517e-05
2.06559e-05
2.02772e-05
1.98087e-05
1.92443e-05
1.85793e-05
1.78108e-05
1.6938e-05
1.59626e-05
1.48891e-05
1.37252e-05
1.24817e-05
1.1173e-05
9.81691e-06
8.4337e-06
7.04047e-06
5.60906e-06
4.25437e-06
2.89627e-06
1.61122e-06
4.27865e-07
2.7418e-07
1.16381e-06
2.38269e-06
3.78996e-06
5.20245e-06
6.59657e-06
7.91108e-06
9.13369e-06
1.02832e-05
1.13609e-05
1.23662e-05
1.32978e-05
1.41545e-05
1.49349e-05
1.56381e-05
1.62633e-05
1.68103e-05
1.72794e-05
1.76714e-05
1.79879e-05
1.8231e-05
1.84034e-05
1.85085e-05
1.8553e-05
1.85601e-05
1.85214e-05
1.84363e-05
1.83081e-05
1.81419e-05
1.79437e-05
1.772e-05
1.74769e-05
1.72205e-05
1.69563e-05
1.66893e-05
1.64237e-05
1.61633e-05
1.59111e-05
1.56693e-05
1.54398e-05
1.52239e-05
1.50222e-05
1.48352e-05
1.4663e-05
1.45054e-05
1.4362e-05
1.42322e-05
1.41154e-05
1.4011e-05
1.39183e-05
1.38365e-05
1.3765e-05
1.37031e-05
1.36501e-05
1.36054e-05
1.35686e-05
1.35389e-05
1.35161e-05
1.35011e-05
1.34922e-05
1.34888e-05
1.34903e-05
1.34962e-05
1.35063e-05
1.35202e-05
1.35377e-05
1.35585e-05
1.35823e-05
1.36088e-05
1.36378e-05
1.36689e-05
1.3702e-05
1.37368e-05
1.37731e-05
1.38107e-05
1.38494e-05
1.3889e-05
1.39295e-05
1.39707e-05
1.40126e-05
1.4055e-05
1.40982e-05
1.41419e-05
1.41864e-05
1.42316e-05
1.42777e-05
1.43248e-05
1.4373e-05
1.44225e-05
1.44733e-05
1.45257e-05
1.45797e-05
1.46355e-05
1.46932e-05
1.47528e-05
1.48144e-05
1.48779e-05
1.49434e-05
1.50108e-05
1.508e-05
1.51508e-05
1.52232e-05
1.5297e-05
1.53719e-05
1.54477e-05
1.55242e-05
1.56012e-05
1.56784e-05
1.57556e-05
1.58326e-05
1.59092e-05
1.59852e-05
1.60605e-05
1.61349e-05
1.62085e-05
1.6281e-05
1.63526e-05
1.64231e-05
1.64927e-05
1.65614e-05
1.66292e-05
1.66963e-05
1.67627e-05
1.68285e-05
1.6894e-05
1.69591e-05
1.7024e-05
1.70888e-05
1.71536e-05
1.72184e-05
1.72835e-05
1.73487e-05
1.74142e-05
1.74801e-05
1.75463e-05
1.7613e-05
1.76801e-05
1.77478e-05
1.78161e-05
1.78851e-05
1.7955e-05
1.80257e-05
1.80975e-05
1.81706e-05
1.8245e-05
1.83211e-05
1.83991e-05
1.84792e-05
1.85617e-05
1.86468e-05
1.87349e-05
1.88263e-05
1.89212e-05
1.90198e-05
1.91225e-05
1.92295e-05
1.93408e-05
1.94568e-05
1.95773e-05
1.97024e-05
1.98318e-05
1.99654e-05
2.01027e-05
2.02429e-05
2.03853e-05
2.05285e-05
2.06711e-05
2.08112e-05
2.09465e-05
2.10739e-05
2.11902e-05
2.12913e-05
2.13731e-05
2.14322e-05
2.14661e-05
2.14651e-05
2.14212e-05
2.13264e-05
2.11727e-05
2.09519e-05
2.0656e-05
2.02774e-05
1.98089e-05
1.92445e-05
1.85795e-05
1.7811e-05
1.69382e-05
1.59628e-05
1.48893e-05
1.37254e-05
1.24818e-05
1.11731e-05
9.81689e-06
8.43352e-06
7.04005e-06
5.60835e-06
4.25355e-06
2.89529e-06
1.6091e-06
4.2728e-07
1.00684e-06
2.11776e-05
4.04796e-05
5.45217e-05
6.56067e-05
7.49346e-05
8.30301e-05
9.01261e-05
9.63362e-05
0.000101754
0.000106458
0.000110515
0.000113982
0.000116912
0.000119351
0.000121344
0.000122931
0.000124151
0.000125038
0.000125628
0.000125949
0.000126031
0.000125892
0.00012553
0.000124924
0.000124194
0.000123368
0.000122473
0.000121533
0.000120568
0.000119596
0.000118632
0.000117688
0.000116776
0.000115903
0.000115075
0.000114298
0.000113572
0.000112901
0.000112284
0.000111721
0.000111209
0.000110746
0.00011033
0.000109958
0.000109627
0.000109334
0.000109076
0.000108851
0.000108655
0.000108487
0.000108345
0.000108227
0.00010813
0.000108054
0.000107997
0.000107958
0.000107933
0.000107918
0.000107917
0.00010793
0.000107957
0.000107997
0.000108049
0.000108113
0.000108188
0.000108273
0.000108367
0.000108469
0.000108579
0.000108695
0.000108817
0.000108944
0.000109075
0.000109211
0.000109349
0.000109491
0.000109635
0.000109782
0.000109931
0.000110083
0.000110237
0.000110394
0.000110553
0.000110716
0.000110882
0.000111052
0.000111227
0.000111406
0.000111591
0.000111781
0.000111976
0.000112178
0.000112386
0.0001126
0.000112821
0.000113047
0.000113278
0.000113515
0.000113757
0.000114002
0.000114251
0.000114503
0.000114756
0.000115011
0.000115265
0.000115519
0.000115772
0.000116023
0.000116271
0.000116517
0.000116758
0.000116997
0.000117231
0.000117461
0.000117687
0.000117909
0.000118128
0.000118343
0.000118556
0.000118765
0.000118972
0.000119177
0.000119381
0.000119583
0.000119785
0.000119987
0.000120188
0.000120389
0.000120591
0.000120794
0.000120997
0.000121202
0.000121407
0.000121614
0.000121822
0.000122032
0.000122243
0.000122457
0.000122673
0.000122892
0.000123114
0.00012334
0.00012357
0.000123806
0.000124047
0.000124295
0.000124551
0.000124815
0.000125089
0.000125372
0.000125667
0.000125974
0.000126294
0.000126628
0.000126975
0.000127337
0.000127714
0.000128106
0.000128512
0.000128931
0.000129362
0.000129804
0.000130254
0.000130708
0.000131163
0.000131612
0.00013205
0.000132467
0.000132855
0.000133201
0.000133493
0.000133715
0.000133852
0.000133858
0.000133718
0.000133409
0.000132908
0.000132188
0.00013122
0.000129976
0.000128428
0.000126548
0.000124312
0.000121696
0.000118683
0.000115259
0.000111416
0.000107154
0.00010248
9.74046e-05
9.19491e-05
8.61351e-05
7.99786e-05
7.3465e-05
6.64883e-05
5.82321e-05
4.65137e-05
2.58704e-05
1.59603e-06
1.007e-06
2.11781e-05
4.04802e-05
5.45223e-05
6.56073e-05
7.49352e-05
8.30307e-05
9.01267e-05
9.63368e-05
0.000101755
0.000106459
0.000110515
0.000113983
0.000116912
0.000119352
0.000121345
0.000122932
0.000124151
0.000125038
0.000125628
0.000125949
0.000126031
0.000125892
0.00012553
0.000124924
0.000124194
0.000123368
0.000122474
0.000121533
0.000120569
0.000119596
0.000118632
0.000117689
0.000116776
0.000115903
0.000115076
0.000114298
0.000113573
0.000112902
0.000112285
0.000111721
0.000111209
0.000110746
0.000110331
0.000109959
0.000109627
0.000109334
0.000109076
0.000108851
0.000108655
0.000108488
0.000108345
0.000108227
0.00010813
0.000108054
0.000107998
0.000107958
0.000107933
0.000107918
0.000107917
0.00010793
0.000107957
0.000107997
0.00010805
0.000108114
0.000108189
0.000108273
0.000108367
0.000108469
0.000108579
0.000108695
0.000108817
0.000108944
0.000109075
0.000109211
0.000109349
0.000109491
0.000109636
0.000109782
0.000109932
0.000110083
0.000110237
0.000110394
0.000110553
0.000110716
0.000110882
0.000111052
0.000111227
0.000111406
0.000111591
0.000111781
0.000111977
0.000112178
0.000112386
0.000112601
0.000112821
0.000113047
0.000113279
0.000113515
0.000113757
0.000114003
0.000114252
0.000114503
0.000114756
0.000115011
0.000115265
0.000115519
0.000115772
0.000116023
0.000116271
0.000116517
0.000116759
0.000116997
0.000117231
0.000117461
0.000117687
0.00011791
0.000118128
0.000118343
0.000118556
0.000118765
0.000118972
0.000119177
0.000119381
0.000119583
0.000119785
0.000119987
0.000120188
0.000120389
0.000120591
0.000120794
0.000120997
0.000121202
0.000121407
0.000121614
0.000121822
0.000122032
0.000122243
0.000122457
0.000122673
0.000122892
0.000123114
0.00012334
0.00012357
0.000123806
0.000124047
0.000124295
0.000124551
0.000124815
0.000125089
0.000125372
0.000125667
0.000125974
0.000126294
0.000126628
0.000126975
0.000127337
0.000127714
0.000128106
0.000128512
0.000128931
0.000129362
0.000129804
0.000130254
0.000130708
0.000131163
0.000131612
0.00013205
0.000132467
0.000132855
0.000133201
0.000133493
0.000133715
0.000133852
0.000133859
0.000133718
0.000133409
0.000132908
0.000132188
0.00013122
0.000129976
0.000128428
0.000126548
0.000124312
0.000121696
0.000118683
0.000115259
0.000111416
0.000107155
0.00010248
9.74048e-05
9.1949e-05
8.61344e-05
7.9977e-05
7.3462e-05
6.64834e-05
5.82252e-05
4.65051e-05
2.58647e-05
1.59538e-06
1.8694e-06
3.867e-05
7.64401e-05
0.000104594
0.00012706
0.000145734
0.000161571
0.000175102
0.000186658
0.000196479
0.000204756
0.000211654
0.000217319
0.000221884
0.000225472
0.000228196
0.000230162
0.000231468
0.000232203
0.000232448
0.000232275
0.000231745
0.000230906
0.000229786
0.000228389
0.000226839
0.000225187
0.00022348
0.000221754
0.000220041
0.000218366
0.000216751
0.00021521
0.000213758
0.000212401
0.000211145
0.000209993
0.000208945
0.000207999
0.000207152
0.000206398
0.000205732
0.000205147
0.000204637
0.000204196
0.000203816
0.000203491
0.000203216
0.000202986
0.000202796
0.000202641
0.000202519
0.000202425
0.000202358
0.000202316
0.000202295
0.000202293
0.000202308
0.000202335
0.000202377
0.000202435
0.000202508
0.000202596
0.000202699
0.000202815
0.000202944
0.000203085
0.000203236
0.000203398
0.00020357
0.000203749
0.000203936
0.000204129
0.000204329
0.000204533
0.000204743
0.000204957
0.000205175
0.000205398
0.000205625
0.000205856
0.000206092
0.000206333
0.000206579
0.000206832
0.000207091
0.000207357
0.000207631
0.000207913
0.000208204
0.000208504
0.000208813
0.000209132
0.00020946
0.000209796
0.000210142
0.000210495
0.000210855
0.000211222
0.000211593
0.000211969
0.000212348
0.000212728
0.000213108
0.000213488
0.000213865
0.000214239
0.000214609
0.000214973
0.000215332
0.000215684
0.00021603
0.000216369
0.000216701
0.000217026
0.000217345
0.000217657
0.000217965
0.000218267
0.000218566
0.000218861
0.000219154
0.000219444
0.000219733
0.000220022
0.00022031
0.000220599
0.000220889
0.00022118
0.000221473
0.000221767
0.000222064
0.000222362
0.000222663
0.000222966
0.000223272
0.000223581
0.000223894
0.00022421
0.000224531
0.000224857
0.000225189
0.000225527
0.000225874
0.000226229
0.000226595
0.000226973
0.000227364
0.000227769
0.000228191
0.00022863
0.000229088
0.000229568
0.000230069
0.000230593
0.000231141
0.000231714
0.000232313
0.000232936
0.000233585
0.000234256
0.00023495
0.000235662
0.000236389
0.000237126
0.000237866
0.0002386
0.000239318
0.000240007
0.000240652
0.000241236
0.000241736
0.000242128
0.000242382
0.00024245
0.0002423
0.000241898
0.000241206
0.000240185
0.000238791
0.000236981
0.000234712
0.000231941
0.000228625
0.000224726
0.000220205
0.00021503
0.000209169
0.000202594
0.000195279
0.000187195
0.000178301
0.000168531
0.000157744
0.000145629
0.000131452
0.000113412
8.76577e-05
4.72827e-05
3.27593e-06
1.86961e-06
3.86708e-05
7.6441e-05
0.000104595
0.000127061
0.000145735
0.000161572
0.000175103
0.000186659
0.00019648
0.000204757
0.000211655
0.00021732
0.000221885
0.000225472
0.000228196
0.000230162
0.000231468
0.000232203
0.000232448
0.000232275
0.000231745
0.000230906
0.000229787
0.000228389
0.000226839
0.000225188
0.00022348
0.000221755
0.000220041
0.000218367
0.000216751
0.000215211
0.000213758
0.000212401
0.000211146
0.000209994
0.000208946
0.000208
0.000207152
0.000206399
0.000205732
0.000205148
0.000204638
0.000204196
0.000203816
0.000203492
0.000203217
0.000202987
0.000202796
0.000202642
0.000202519
0.000202426
0.000202359
0.000202316
0.000202295
0.000202294
0.000202309
0.000202336
0.000202378
0.000202436
0.000202509
0.000202597
0.000202699
0.000202815
0.000202944
0.000203085
0.000203237
0.000203399
0.00020357
0.000203749
0.000203936
0.00020413
0.000204329
0.000204534
0.000204743
0.000204958
0.000205176
0.000205398
0.000205625
0.000205856
0.000206092
0.000206333
0.00020658
0.000206832
0.000207091
0.000207357
0.000207631
0.000207914
0.000208205
0.000208505
0.000208814
0.000209132
0.00020946
0.000209797
0.000210142
0.000210495
0.000210856
0.000211222
0.000211594
0.00021197
0.000212348
0.000212728
0.000213109
0.000213488
0.000213865
0.000214239
0.000214609
0.000214974
0.000215332
0.000215685
0.00021603
0.000216369
0.000216701
0.000217026
0.000217345
0.000217658
0.000217965
0.000218268
0.000218566
0.000218861
0.000219154
0.000219444
0.000219734
0.000220022
0.000220311
0.0002206
0.000220889
0.000221181
0.000221473
0.000221767
0.000222064
0.000222362
0.000222663
0.000222966
0.000223273
0.000223582
0.000223894
0.000224211
0.000224531
0.000224857
0.000225189
0.000225528
0.000225874
0.00022623
0.000226596
0.000226973
0.000227364
0.000227769
0.000228191
0.00022863
0.000229089
0.000229568
0.000230069
0.000230593
0.000231141
0.000231714
0.000232313
0.000232936
0.000233585
0.000234256
0.00023495
0.000235662
0.000236389
0.000237126
0.000237866
0.0002386
0.000239318
0.000240007
0.000240653
0.000241236
0.000241736
0.000242128
0.000242382
0.00024245
0.0002423
0.000241898
0.000241207
0.000240185
0.000238791
0.000236982
0.000234713
0.000231941
0.000228626
0.000224726
0.000220206
0.000215031
0.00020917
0.000202595
0.00019528
0.000187195
0.000178302
0.000168531
0.000157744
0.000145629
0.000131451
0.00011341
8.76556e-05
4.72815e-05
3.27494e-06
2.7935e-06
4.8736e-05
9.9069e-05
0.000138495
0.000170383
0.000196952
0.00021944
0.000238583
0.000254863
0.000268627
0.000280152
0.000289675
0.000297406
0.000303539
0.000308256
0.00031173
0.000314121
0.00031558
0.000316243
0.000316237
0.000315673
0.000314645
0.000313233
0.000311499
0.000309481
0.000307284
0.000304982
0.000302633
0.000300283
0.000297972
0.00029573
0.000293583
0.00029155
0.000289645
0.000287878
0.000286253
0.000284773
0.000283435
0.000282237
0.000281173
0.000280235
0.000279416
0.000278705
0.000278093
0.000277572
0.000277131
0.000276763
0.000276458
0.00027621
0.000276013
0.000275859
0.000275745
0.000275667
0.000275619
0.000275599
0.000275604
0.000275631
0.000275677
0.000275738
0.000275817
0.000275911
0.000276023
0.000276149
0.000276292
0.000276448
0.000276619
0.000276803
0.000276999
0.000277206
0.000277424
0.000277651
0.000277887
0.000278131
0.000278382
0.000278639
0.000278903
0.000279173
0.000279448
0.00027973
0.000280017
0.000280311
0.000280611
0.000280919
0.000281234
0.000281558
0.000281891
0.000282233
0.000282586
0.000282949
0.000283324
0.00028371
0.000284108
0.000284517
0.000284937
0.000285367
0.000285808
0.000286257
0.000286714
0.000287178
0.000287646
0.000288118
0.000288592
0.000289067
0.00028954
0.00029001
0.000290476
0.000290936
0.000291389
0.000291835
0.000292273
0.000292701
0.000293121
0.000293531
0.000293933
0.000294326
0.00029471
0.000295088
0.000295458
0.000295823
0.000296184
0.00029654
0.000296894
0.000297246
0.000297597
0.000297948
0.0002983
0.000298652
0.000299007
0.000299363
0.000299722
0.000300084
0.000300449
0.000300817
0.000301189
0.000301564
0.000301943
0.000302327
0.000302716
0.00030311
0.00030351
0.000303918
0.000304334
0.000304759
0.000305196
0.000305645
0.000306108
0.000306588
0.000307085
0.000307603
0.000308143
0.000308707
0.000309297
0.000309916
0.000310564
0.000311245
0.000311959
0.000312707
0.00031349
0.000314309
0.000315163
0.000316051
0.00031697
0.000317919
0.000318891
0.00031988
0.000320879
0.000321877
0.000322861
0.000323816
0.000324721
0.000325556
0.000326293
0.000326902
0.000327342
0.000327568
0.000327541
0.000327215
0.000326545
0.000325479
0.000323967
0.000321954
0.000319385
0.000316203
0.000312352
0.000307773
0.00030241
0.000296201
0.000289086
0.000280995
0.000271852
0.000261559
0.000249984
0.000236927
0.000222041
0.000204687
0.00018361
0.000156327
0.000118196
6.24942e-05
5.15546e-06
2.79366e-06
4.87369e-05
9.907e-05
0.000138496
0.000170384
0.000196954
0.000219442
0.000238585
0.000254864
0.000268628
0.000280153
0.000289676
0.000297407
0.000303539
0.000308257
0.000311731
0.000314122
0.00031558
0.000316244
0.000316238
0.000315673
0.000314646
0.000313234
0.0003115
0.000309482
0.000307285
0.000304983
0.000302634
0.000300284
0.000297973
0.000295731
0.000293584
0.000291551
0.000289647
0.000287879
0.000286254
0.000284774
0.000283437
0.000282239
0.000281175
0.000280237
0.000279417
0.000278706
0.000278095
0.000277573
0.000277132
0.000276764
0.000276459
0.000276212
0.000276014
0.000275861
0.000275747
0.000275668
0.00027562
0.0002756
0.000275605
0.000275633
0.000275678
0.00027574
0.000275818
0.000275913
0.000276024
0.000276151
0.000276293
0.00027645
0.000276621
0.000276804
0.000277
0.000277208
0.000277425
0.000277653
0.000277888
0.000278132
0.000278383
0.00027864
0.000278904
0.000279174
0.00027945
0.000279731
0.000280019
0.000280312
0.000280613
0.00028092
0.000281235
0.000281559
0.000281892
0.000282234
0.000282587
0.00028295
0.000283325
0.000283711
0.000284109
0.000284518
0.000284938
0.000285368
0.000285809
0.000286258
0.000286715
0.000287179
0.000287647
0.00028812
0.000288594
0.000289068
0.000289541
0.000290011
0.000290477
0.000290937
0.00029139
0.000291836
0.000292274
0.000292702
0.000293122
0.000293532
0.000293934
0.000294327
0.000294711
0.000295089
0.000295459
0.000295824
0.000296185
0.000296541
0.000296895
0.000297247
0.000297598
0.000297949
0.000298301
0.000298653
0.000299008
0.000299364
0.000299723
0.000300085
0.00030045
0.000300818
0.00030119
0.000301565
0.000301944
0.000302328
0.000302716
0.000303111
0.000303511
0.000303919
0.000304335
0.00030476
0.000305197
0.000305646
0.000306109
0.000306589
0.000307086
0.000307604
0.000308144
0.000308708
0.000309298
0.000309917
0.000310565
0.000311246
0.000311959
0.000312708
0.000313491
0.00031431
0.000315164
0.000316051
0.000316971
0.000317919
0.000318891
0.000319881
0.00032088
0.000321878
0.000322862
0.000323816
0.000324722
0.000325556
0.000326293
0.000326903
0.000327342
0.000327569
0.000327541
0.000327216
0.000326546
0.00032548
0.000323968
0.000321955
0.000319386
0.000316204
0.000312353
0.000307774
0.000302411
0.000296203
0.000289087
0.000280997
0.000271853
0.00026156
0.000249985
0.000236928
0.000222042
0.000204687
0.00018361
0.000156327
0.000118195
6.24941e-05
5.15501e-06
3.71214e-06
5.58387e-05
0.000114851
0.000162611
0.000201722
0.000234474
0.000262262
0.000285954
0.000306126
0.000323198
0.0003375
0.000349312
0.000358888
0.000366461
0.000372255
0.000376482
0.000379345
0.000381036
0.000381732
0.000381597
0.000380776
0.000379396
0.000377566
0.000375376
0.0003729
0.000370206
0.000367408
0.000364569
0.000361742
0.00035897
0.000356289
0.000353727
0.000351305
0.000349038
0.000346936
0.000345005
0.000343246
0.000341657
0.000340234
0.00033897
0.000337857
0.000336884
0.000336041
0.000335317
0.000334701
0.000334182
0.00033375
0.000333395
0.000333108
0.000332882
0.000332708
0.000332582
0.000332497
0.000332449
0.000332433
0.000332447
0.000332485
0.000332546
0.000332626
0.000332725
0.000332842
0.000332977
0.000333129
0.000333298
0.000333483
0.000333682
0.000333896
0.000334124
0.000334364
0.000334616
0.000334878
0.00033515
0.000335432
0.000335722
0.000336021
0.000336327
0.000336641
0.000336962
0.00033729
0.000337627
0.000337971
0.000338324
0.000338685
0.000339057
0.000339438
0.00033983
0.000340234
0.00034065
0.000341078
0.000341519
0.000341973
0.000342439
0.000342918
0.000343409
0.000343911
0.000344423
0.000344945
0.000345474
0.000346009
0.000346549
0.000347092
0.000347635
0.000348178
0.000348718
0.000349253
0.000349783
0.000350305
0.000350819
0.000351323
0.000351818
0.000352302
0.000352775
0.000353238
0.00035369
0.000354133
0.000354566
0.000354992
0.00035541
0.000355822
0.000356229
0.000356632
0.000357032
0.000357431
0.000357829
0.000358227
0.000358626
0.000359027
0.000359431
0.000359837
0.000360246
0.000360659
0.000361076
0.000361497
0.000361922
0.000362353
0.000362788
0.000363228
0.000363676
0.00036413
0.000364592
0.000365063
0.000365545
0.000366039
0.000366547
0.00036707
0.000367611
0.000368172
0.000368755
0.000369364
0.000369999
0.000370665
0.000371363
0.000372096
0.000372866
0.000373677
0.000374529
0.000375424
0.000376364
0.000377349
0.00037838
0.000379455
0.000380573
0.00038173
0.000382921
0.00038414
0.000385379
0.000386624
0.000387863
0.000389077
0.000390246
0.000391343
0.000392341
0.000393203
0.000393886
0.000394346
0.000394537
0.00039441
0.000393911
0.000392985
0.000391573
0.000389612
0.000387037
0.00038378
0.000379769
0.000374929
0.000369179
0.000362429
0.000354582
0.000345522
0.000335113
0.000323182
0.000309497
0.000293718
0.000275306
0.000253348
0.000226217
0.000190982
0.000142594
7.46885e-05
7.0112e-06
3.71236e-06
5.58397e-05
0.000114852
0.000162613
0.000201723
0.000234475
0.000262264
0.000285955
0.000306127
0.000323199
0.000337501
0.000349313
0.000358889
0.000366462
0.000372256
0.000376483
0.000379346
0.000381037
0.000381733
0.000381598
0.000380777
0.000379397
0.000377567
0.000375377
0.000372901
0.000370207
0.00036741
0.000364571
0.000361743
0.000358972
0.000356291
0.000353729
0.000351307
0.00034904
0.000346938
0.000345007
0.000343248
0.000341659
0.000340236
0.000338972
0.000337859
0.000336886
0.000336043
0.000335319
0.000334703
0.000334184
0.000333752
0.000333397
0.00033311
0.000332883
0.00033271
0.000332584
0.000332499
0.000332451
0.000332435
0.000332448
0.000332487
0.000332548
0.000332628
0.000332727
0.000332844
0.000332979
0.000333131
0.0003333
0.000333484
0.000333684
0.000333898
0.000334126
0.000334366
0.000334617
0.00033488
0.000335152
0.000335434
0.000335724
0.000336023
0.000336329
0.000336642
0.000336964
0.000337292
0.000337628
0.000337973
0.000338325
0.000338687
0.000339058
0.00033944
0.000339832
0.000340236
0.000340651
0.00034108
0.00034152
0.000341974
0.000342441
0.000342919
0.00034341
0.000343912
0.000344425
0.000344946
0.000345476
0.000346011
0.000346551
0.000347093
0.000347637
0.000348179
0.000348719
0.000349254
0.000349784
0.000350306
0.00035082
0.000351325
0.000351819
0.000352303
0.000352776
0.000353239
0.000353691
0.000354134
0.000354568
0.000354993
0.000355411
0.000355823
0.00035623
0.000356633
0.000357033
0.000357432
0.00035783
0.000358228
0.000358628
0.000359029
0.000359432
0.000359838
0.000360248
0.000360661
0.000361077
0.000361498
0.000361924
0.000362354
0.000362789
0.00036323
0.000363677
0.000364131
0.000364593
0.000365064
0.000365546
0.00036604
0.000366548
0.000367071
0.000367612
0.000368173
0.000368756
0.000369365
0.00037
0.000370666
0.000371364
0.000372097
0.000372867
0.000373678
0.00037453
0.000375425
0.000376365
0.00037735
0.000378381
0.000379456
0.000380574
0.000381731
0.000382922
0.000384141
0.000385379
0.000386625
0.000387864
0.000389078
0.000390246
0.000391344
0.000392341
0.000393204
0.000393887
0.000394347
0.000394538
0.000394411
0.000393912
0.000392987
0.000391574
0.000389613
0.000387038
0.000383781
0.00037977
0.000374931
0.00036918
0.000362431
0.000354583
0.000345524
0.000335115
0.000323184
0.000309499
0.000293719
0.000275307
0.000253349
0.000226218
0.000190982
0.000142594
7.46884e-05
7.01096e-06
4.66498e-06
6.17904e-05
0.000127227
0.000181191
0.00022577
0.000263261
0.000295152
0.000322398
0.000345643
0.000365353
0.000381895
0.000395579
0.000406683
0.000415468
0.000422183
0.000427068
0.000430358
0.000432274
0.000433026
0.000432808
0.000431796
0.000430144
0.000427987
0.000425438
0.000422589
0.000419517
0.000416337
0.00041312
0.000409925
0.0004068
0.000403782
0.0004009
0.000398177
0.000395629
0.000393264
0.000391088
0.000389103
0.000387306
0.000385692
0.000384255
0.000382984
0.000381869
0.000380899
0.000380063
0.000379348
0.000378742
0.000378236
0.000377817
0.000377476
0.000377205
0.000376995
0.000376839
0.000376731
0.000376666
0.000376638
0.000376643
0.000376678
0.000376739
0.000376822
0.000376927
0.000377052
0.000377198
0.000377362
0.000377544
0.000377745
0.000377961
0.000378194
0.000378441
0.000378703
0.000378978
0.000379265
0.000379563
0.000379873
0.000380193
0.000380522
0.000380861
0.000381209
0.000381566
0.000381933
0.000382308
0.000382694
0.000383089
0.000383495
0.000383912
0.000384341
0.000384782
0.000385235
0.000385702
0.000386182
0.000386675
0.000387182
0.000387702
0.000388235
0.00038878
0.000389337
0.000389903
0.000390478
0.00039106
0.000391647
0.000392238
0.000392831
0.000393424
0.000394014
0.000394601
0.000395182
0.000395756
0.000396321
0.000396877
0.000397422
0.000397956
0.000398479
0.00039899
0.00039949
0.000399978
0.000400457
0.000400926
0.000401386
0.000401839
0.000402286
0.000402728
0.000403166
0.000403601
0.000404035
0.000404469
0.000404903
0.000405339
0.000405777
0.000406217
0.000406661
0.000407109
0.000407561
0.000408017
0.000408478
0.000408944
0.000409416
0.000409894
0.000410379
0.000410871
0.000411372
0.000411882
0.000412403
0.000412937
0.000413485
0.000414049
0.000414632
0.000415236
0.000415863
0.000416516
0.000417199
0.000417913
0.000418663
0.000419451
0.00042028
0.000421153
0.000422074
0.000423044
0.000424066
0.000425142
0.000426274
0.000427461
0.000428704
0.000430001
0.000431348
0.000432743
0.000434177
0.000435643
0.000437128
0.000438617
0.000440093
0.000441533
0.000442911
0.000444194
0.000445347
0.000446326
0.000447085
0.000447576
0.000447749
0.000447545
0.000446905
0.000445764
0.000444054
0.0004417
0.000438623
0.000434736
0.000429945
0.000424144
0.000417212
0.00040901
0.000399376
0.000388109
0.00037496
0.000359597
0.000341551
0.000320116
0.000294163
0.000261793
0.000219778
0.000162849
8.50026e-05
8.82167e-06
4.66527e-06
6.17916e-05
0.000127228
0.000181192
0.000225772
0.000263262
0.000295153
0.0003224
0.000345644
0.000365354
0.000381896
0.00039558
0.000406684
0.000415469
0.000422183
0.000427069
0.000430359
0.000432275
0.000433027
0.000432809
0.000431797
0.000430145
0.000427988
0.000425439
0.00042259
0.000419518
0.000416338
0.000413121
0.000409927
0.000406801
0.000403783
0.000400902
0.000398179
0.00039563
0.000393265
0.00039109
0.000389105
0.000387308
0.000385694
0.000384256
0.000382985
0.000381871
0.000380901
0.000380065
0.00037935
0.000378744
0.000378237
0.000377819
0.000377478
0.000377207
0.000376997
0.000376841
0.000376733
0.000376667
0.000376639
0.000376645
0.00037668
0.00037674
0.000376824
0.000376929
0.000377054
0.000377199
0.000377364
0.000377546
0.000377746
0.000377963
0.000378196
0.000378443
0.000378705
0.000378979
0.000379266
0.000379565
0.000379874
0.000380194
0.000380524
0.000380863
0.000381211
0.000381568
0.000381934
0.00038231
0.000382695
0.000383091
0.000383497
0.000383914
0.000384342
0.000384783
0.000385237
0.000385703
0.000386183
0.000386677
0.000387184
0.000387704
0.000388237
0.000388782
0.000389338
0.000389905
0.000390479
0.000391061
0.000391649
0.00039224
0.000392833
0.000393425
0.000394016
0.000394603
0.000395184
0.000395757
0.000396323
0.000396879
0.000397424
0.000397958
0.00039848
0.000398991
0.000399491
0.00039998
0.000400458
0.000400927
0.000401388
0.000401841
0.000402287
0.000402729
0.000403167
0.000403603
0.000404037
0.00040447
0.000404905
0.00040534
0.000405778
0.000406219
0.000406662
0.00040711
0.000407562
0.000408018
0.000408479
0.000408946
0.000409417
0.000409895
0.00041038
0.000410872
0.000411373
0.000411883
0.000412404
0.000412938
0.000413486
0.00041405
0.000414633
0.000415237
0.000415864
0.000416517
0.0004172
0.000417914
0.000418664
0.000419452
0.000420281
0.000421154
0.000422075
0.000423045
0.000424067
0.000425143
0.000426275
0.000427462
0.000428705
0.000430001
0.000431349
0.000432744
0.000434178
0.000435644
0.000437129
0.000438618
0.000440094
0.000441534
0.000442912
0.000444195
0.000445348
0.000446327
0.000447086
0.000447578
0.00044775
0.000447546
0.000446906
0.000445766
0.000444055
0.000441701
0.000438624
0.000434738
0.000429947
0.000424146
0.000417214
0.000409012
0.000399378
0.000388111
0.000374962
0.000359598
0.000341552
0.000320117
0.000294163
0.000261794
0.000219779
0.000162849
8.50024e-05
8.82143e-06
5.60423e-06
6.72592e-05
0.000137753
0.000196449
0.000245185
0.000286278
0.000321287
0.000351235
0.000376816
0.000398537
0.00041679
0.000431909
0.000444189
0.000453908
0.000461332
0.000466721
0.000470328
0.0004724
0.000473169
0.000472855
0.000471658
0.000469756
0.000467307
0.000464442
0.000461271
0.000457882
0.000454385
0.00045086
0.000447369
0.000443964
0.000440682
0.000437552
0.000434597
0.00043183
0.000429261
0.000426894
0.00042473
0.000422766
0.000420996
0.000419412
0.000418006
0.000416766
0.00041568
0.000414738
0.000413927
0.000413234
0.000412649
0.00041216
0.000411757
0.000411431
0.000411173
0.000410976
0.000410832
0.000410737
0.000410683
0.000410668
0.000410686
0.000410734
0.000410808
0.000410906
0.000411028
0.000411171
0.000411336
0.000411521