/*--------------------------------*- C++ -*----------------------------------*\
  =========                 |
  \\      /  F ield         | OpenFOAM: The Open Source CFD Toolbox
   \\    /   O peration     | Website:  https://openfoam.org
    \\  /    A nd           | Version:  8
     \\/     M anipulation  |
\*---------------------------------------------------------------------------*/
FoamFile
{
    version     2.0;
    format      ascii;
    class       volScalarField;
    location    "600";
    object      epsilon;
}
// * * * * * * * * * * * * * * * * * * * * * * * * * * * * * * * * * * * * * //

dimensions      [0 2 -3 0 0 0 0];

internalField   nonuniform List<scalar> 
46000
(
5.03091
19.2378
39.227
62.2131
85.2009
107.862
129.197
149.035
167.683
185.167
201.478
216.597
230.504
243.18
254.608
264.777
273.683
281.331
287.735
292.917
296.913
299.765
301.527
302.315
302.491
301.921
300.597
298.571
295.928
292.764
289.183
285.287
281.171
276.927
272.635
268.364
264.175
260.116
256.226
252.532
249.057
245.812
242.804
240.034
237.498
235.192
233.106
231.231
229.555
228.068
226.757
225.612
224.623
223.778
223.067
222.482
222.014
221.657
221.427
221.296
221.251
221.286
221.393
221.568
221.804
222.099
222.447
222.842
223.282
223.762
224.277
224.823
225.396
225.993
226.611
227.246
227.896
228.56
229.235
229.921
230.616
231.321
232.037
232.764
233.502
234.255
235.024
235.81
236.617
237.446
238.3
239.181
240.09
241.03
242.001
243.004
244.039
245.106
246.204
247.331
248.486
249.665
250.866
252.086
253.321
254.566
255.819
257.076
258.333
259.586
260.832
262.069
263.294
264.505
265.701
266.881
268.045
269.192
270.323
271.439
272.541
273.631
274.711
275.781
276.844
277.903
278.957
280.01
281.063
282.117
283.174
284.233
285.298
286.367
287.443
288.526
289.616
290.715
291.824
292.944
294.077
295.225
296.39
297.574
298.782
300.016
301.28
302.578
303.914
305.294
306.721
308.2
309.736
311.333
312.995
314.726
316.529
318.405
320.355
322.38
324.475
326.638
328.859
331.13
333.435
335.755
338.066
340.337
342.53
344.598
346.486
348.132
349.464
350.433
350.992
350.99
350.293
348.772
346.297
342.735
337.956
331.832
324.247
315.103
304.32
291.849
277.675
261.821
244.358
225.406
205.137
183.78
161.62
138.98
116.135
92.6213
70.3016
47.9029
26.6666
7.85224
5.03135
19.2409
39.2312
62.2197
85.2088
107.871
129.207
149.045
167.693
185.177
201.487
216.605
230.512
243.187
254.615
264.784
273.69
281.337
287.74
292.923
296.919
299.77
301.532
302.319
302.495
301.925
300.601
298.575
295.932
292.768
289.187
285.29
281.175
276.931
272.639
268.368
264.179
260.12
256.23
252.537
249.062
245.817
242.808
240.038
237.503
235.197
233.111
231.236
229.56
228.072
226.762
225.617
224.628
223.782
223.072
222.487
222.019
221.662
221.431
221.301
221.256
221.291
221.398
221.573
221.81
222.104
222.452
222.848
223.288
223.767
224.282
224.828
225.401
225.998
226.616
227.251
227.902
228.565
229.24
229.926
230.621
231.327
232.042
232.769
233.508
234.26
235.029
235.815
236.622
237.451
238.305
239.186
240.095
241.035
242.006
243.009
244.044
245.111
246.209
247.336
248.491
249.67
250.871
252.091
253.325
254.571
255.824
257.081
258.338
259.591
260.837
262.074
263.299
264.51
265.706
266.886
268.05
269.197
270.328
271.444
272.547
273.636
274.716
275.786
276.849
277.907
278.962
280.015
281.068
282.122
283.178
284.238
285.302
286.372
287.448
288.53
289.621
290.72
291.828
292.949
294.082
295.229
296.394
297.579
298.787
300.021
301.284
302.582
303.919
305.298
306.725
308.204
309.74
311.337
312.999
314.73
316.533
318.409
320.359
322.383
324.479
326.642
328.863
331.134
333.439
335.759
338.07
340.341
342.534
344.602
346.491
348.136
349.468
350.437
350.996
350.994
350.297
348.777
346.302
342.74
337.96
331.836
324.252
315.108
304.325
291.854
277.679
261.826
244.363
225.41
205.141
183.785
161.625
138.985
116.139
92.6244
70.3038
47.9046
26.6686
7.85287
19.6215
17.6297
25.5116
35.1436
45.1589
55.2933
65.346
75.2255
84.9189
94.4029
103.644
112.603
121.23
129.475
137.279
144.585
151.337
157.481
162.969
167.761
171.829
175.156
177.741
179.622
180.902
181.549
181.578
181.023
179.938
178.386
176.438
174.169
171.65
168.953
166.141
163.273
160.4
157.567
154.808
152.152
149.623
147.235
145
142.924
141.008
139.252
137.653
136.207
134.906
133.745
132.715
131.809
131.019
130.338
129.758
129.273
128.876
128.562
128.331
128.174
128.082
128.05
128.072
128.144
128.262
128.422
128.62
128.854
129.119
129.413
129.733
130.075
130.437
130.816
131.21
131.617
132.034
132.459
132.893
133.332
133.778
134.228
134.684
135.145
135.611
136.084
136.565
137.054
137.554
138.065
138.589
139.128
139.683
140.256
140.847
141.458
142.09
142.741
143.414
144.107
144.82
145.551
146.3
147.064
147.842
148.632
149.431
150.238
151.049
151.863
152.677
153.489
154.297
155.099
155.895
156.682
157.461
158.229
158.988
159.737
160.476
161.207
161.929
162.644
163.352
164.055
164.753
165.448
166.142
166.834
167.526
168.219
168.913
169.61
170.31
171.014
171.722
172.435
173.154
173.88
174.614
175.356
176.108
176.872
177.649
178.442
179.252
180.082
180.934
181.811
182.716
183.651
184.62
185.625
186.669
187.753
188.881
190.053
191.27
192.533
193.839
195.186
196.571
197.987
199.426
200.876
202.324
203.75
205.132
206.443
207.649
208.714
209.596
210.255
210.654
210.716
210.365
209.525
208.117
206.062
203.283
199.707
195.269
189.913
183.6
176.307
168.032
158.794
148.638
137.632
125.866
113.453
100.53
87.2518
73.7914
60.3366
47.442
35.5861
26.7419
31.4111
19.6226
17.6313
25.5137
35.1463
45.1618
55.2965
65.3495
75.2294
84.9231
94.4074
103.649
112.607
121.235
129.479
137.283
144.589
151.341
157.484
162.972
167.764
171.832
175.158
177.743
179.624
180.903
181.551
181.579
181.024
179.939
178.387
176.439
174.17
171.652
168.954
166.142
163.274
160.402
157.568
154.809
152.154
149.625
147.237
145.002
142.925
141.01
139.254
137.655
136.209
134.908
133.747
132.717
131.811
131.022
130.341
129.761
129.275
128.878
128.564
128.334
128.176
128.084
128.052
128.074
128.146
128.264
128.424
128.622
128.856
129.122
129.416
129.735
130.078
130.44
130.819
131.213
131.619
132.036
132.462
132.895
133.335
133.78
134.23
134.686
135.147
135.613
136.087
136.567
137.057
137.556
138.067
138.591
139.13
139.686
140.258
140.85
141.461
142.092
142.744
143.416
144.109
144.822
145.553
146.302
147.066
147.844
148.634
149.433
150.24
151.051
151.865
152.679
153.491
154.299
155.102
155.897
156.684
157.463
158.231
158.99
159.739
160.479
161.209
161.931
162.646
163.354
164.057
164.755
165.451
166.144
166.836
167.528
168.221
168.915
169.612
170.312
171.016
171.724
172.437
173.156
173.882
174.616
175.358
176.11
176.874
177.651
178.444
179.254
180.084
180.936
181.813
182.718
183.653
184.622
185.627
186.67
187.755
188.883
190.055
191.272
192.534
193.841
195.188
196.573
197.989
199.428
200.878
202.325
203.751
205.134
206.444
207.651
208.716
209.598
210.257
210.655
210.717
210.367
209.527
208.119
206.064
203.285
199.709
195.27
189.915
183.602
176.309
168.033
158.796
148.64
137.633
125.867
113.455
100.532
87.2552
73.7959
60.3421
47.4485
35.5934
26.7493
31.4113
35.5797
24.225
28.9444
35.7803
43.3714
51.3153
59.4084
67.5343
75.6279
83.6445
91.5468
99.2984
106.86
114.188
121.236
127.95
134.276
140.159
145.546
150.388
154.641
158.274
161.266
163.618
165.353
166.477
167.003
166.961
166.393
165.353
163.902
162.103
160.022
157.725
155.272
152.721
150.123
147.523
144.959
142.462
140.06
137.77
135.607
133.581
131.698
129.96
128.366
126.915
125.602
124.422
123.37
122.438
121.621
120.91
120.301
119.785
119.358
119.013
118.747
118.554
118.426
118.359
118.348
118.387
118.474
118.603
118.772
118.977
119.214
119.48
119.772
120.087
120.422
120.774
121.142
121.522
121.913
122.313
122.72
123.134
123.553
123.977
124.405
124.837
125.274
125.717
126.165
126.62
127.084
127.557
128.042
128.539
129.05
129.576
130.118
130.678
131.257
131.854
132.47
133.106
133.761
134.433
135.123
135.829
136.548
137.281
138.024
138.776
139.534
140.296
141.06
141.825
142.588
143.347
144.101
144.849
145.59
146.322
147.046
147.76
148.466
149.164
149.853
150.535
151.21
151.879
152.543
153.203
153.86
154.516
155.17
155.824
156.479
157.135
157.793
158.454
159.118
159.787
160.461
161.14
161.826
162.52
163.222
163.935
164.659
165.397
166.15
166.921
167.711
168.523
169.359
170.222
171.115
172.039
172.997
173.992
175.024
176.096
177.207
178.357
179.547
180.772
182.03
183.315
184.619
185.932
187.241
188.529
189.777
190.959
192.045
193.003
193.794
194.379
194.71
194.728
194.37
193.57
192.261
190.376
187.848
184.618
180.633
175.85
170.24
163.788
156.497
148.389
139.501
129.891
119.631
108.814
97.5578
86.0166
74.4088
63.073
52.5924
43.9545
39.9564
63.779
35.5828
24.2272
28.947
35.7831
43.3743
51.3183
59.4115
67.5375
75.6312
83.6477
91.55
99.3014
106.863
114.191
121.238
127.952
134.278
140.161
145.548
150.389
154.643
158.275
161.267
163.619
165.354
166.477
167.003
166.961
166.393
165.354
163.902
162.103
160.023
157.725
155.273
152.722
150.123
147.523
144.959
142.463
140.06
137.77
135.608
133.582
131.699
129.961
128.367
126.916
125.603
124.423
123.371
122.439
121.622
120.911
120.302
119.786
119.359
119.014
118.748
118.555
118.427
118.36
118.349
118.388
118.475
118.604
118.773
118.978
119.215
119.481
119.773
120.088
120.423
120.775
121.143
121.523
121.914
122.314
122.722
123.135
123.554
123.978
124.406
124.838
125.275
125.718
126.166
126.621
127.085
127.559
128.043
128.54
129.051
129.577
130.119
130.679
131.258
131.855
132.472
133.107
133.762
134.434
135.124
135.83
136.549
137.282
138.025
138.777
139.535
140.297
141.061
141.826
142.589
143.348
144.102
144.85
145.591
146.323
147.047
147.761
148.467
149.165
149.854
150.536
151.211
151.88
152.544
153.204
153.861
154.517
155.171
155.825
156.48
157.136
157.794
158.455
159.119
159.788
160.461
161.141
161.827
162.52
163.223
163.936
164.66
165.398
166.151
166.921
167.711
168.523
169.36
170.223
171.115
172.04
172.998
173.993
175.025
176.096
177.207
178.358
179.547
180.773
182.031
183.315
184.619
185.933
187.242
188.53
189.778
190.959
192.046
193.004
193.795
194.38
194.711
194.729
194.371
193.571
192.262
190.377
187.849
184.619
180.634
175.851
170.24
163.789
156.498
148.39
139.502
129.891
119.631
108.814
97.5581
86.0169
74.4092
63.0735
52.5929
43.9555
39.9591
63.7782
52.2438
32.8145
35.2397
40.8344
47.5281
54.7314
62.1685
69.6814
77.1746
84.5883
91.8822
99.0261
105.993
112.756
119.282
125.538
131.482
137.072
142.26
147.002
151.255
154.98
158.149
160.744
162.76
164.197
165.064
165.383
165.187
164.519
163.43
161.977
160.219
158.215
156.023
153.699
151.293
148.851
146.413
144.013
141.679
139.434
137.295
135.275
133.384
131.625
130.001
128.513
127.158
125.933
124.833
123.853
122.988
122.232
121.577
121.019
120.552
120.169
119.866
119.637
119.477
119.38
119.342
119.358
119.423
119.534
119.687
119.878
120.103
120.359
120.643
120.951
121.282
121.631
121.996
122.375
122.766
123.167
123.577
123.993
124.415
124.842
125.274
125.71
126.151
126.597
127.049
127.508
127.974
128.45
128.935
129.433
129.943
130.468
131.009
131.566
132.141
132.734
133.345
133.975
134.624
135.29
135.973
136.672
137.386
138.112
138.85
139.597
140.351
141.11
141.873
142.636
143.399
144.16
144.916
145.667
146.412
147.15
147.879
148.601
149.314
150.019
150.716
151.406
152.088
152.765
153.437
154.104
154.768
155.429
156.088
156.747
157.406
158.066
158.727
159.39
160.057
160.727
161.402
162.082
162.768
163.462
164.164
164.877
165.6
166.337
167.088
167.857
168.644
169.453
170.285
171.144
172.031
172.948
173.899
174.885
175.907
176.968
178.066
179.203
180.378
181.587
182.827
184.093
185.378
186.67
187.958
189.226
190.452
191.614
192.681
193.623
194.399
194.97
195.286
195.294
194.935
194.15
192.876
191.053
188.621
185.528
181.729
177.188
171.88
165.796
158.938
151.323
142.984
133.962
124.32
114.134
103.517
92.6338
81.7417
71.2622
61.9129
55.1086
55.402
99.7679
52.2483
32.8172
35.2426
40.8372
47.5309
54.7342
62.1712
69.6841
77.1772
84.5908
91.8845
99.0282
105.995
112.757
119.284
125.539
131.483
137.073
142.261
147.003
151.255
154.98
158.149
160.744
162.76
164.197
165.064
165.382
165.186
164.518
163.43
161.977
160.218
158.214
156.023
153.698
151.292
148.85
146.412
144.012
141.678
139.433
137.295
135.275
133.383
131.625
130.001
128.513
127.158
125.933
124.833
123.853
122.988
122.232
121.577
121.019
120.552
120.169
119.866
119.637
119.477
119.38
119.342
119.358
119.423
119.534
119.687
119.878
120.103
120.359
120.643
120.951
121.282
121.631
121.996
122.375
122.766
123.167
123.577
123.993
124.415
124.842
125.274
125.71
126.151
126.597
127.049
127.508
127.974
128.45
128.935
129.433
129.943
130.468
131.009
131.566
132.141
132.734
133.345
133.975
134.624
135.29
135.973
136.672
137.386
138.112
138.85
139.597
140.351
141.11
141.873
142.636
143.399
144.16
144.916
145.667
146.412
147.15
147.879
148.601
149.314
150.019
150.716
151.405
152.088
152.765
153.437
154.104
154.768
155.429
156.088
156.747
157.406
158.065
158.727
159.39
160.057
160.727
161.402
162.082
162.768
163.462
164.164
164.876
165.6
166.337
167.088
167.856
168.644
169.453
170.285
171.143
172.03
172.948
173.899
174.885
175.907
176.967
178.066
179.203
180.377
181.586
182.827
184.093
185.377
186.67
187.958
189.225
190.452
191.613
192.681
193.622
194.399
194.97
195.286
195.294
194.935
194.15
192.876
191.053
188.621
185.528
181.729
177.188
171.88
165.796
158.938
151.323
142.983
133.962
124.319
114.134
103.517
92.6334
81.7413
71.2617
61.9121
55.1077
55.4018
99.7651
68.4938
41.9665
42.6472
47.4647
53.671
60.4891
67.5642
74.6961
81.7653
88.7007
95.4621
102.028
108.385
114.525
120.438
126.109
131.517
136.636
141.435
145.877
149.925
153.542
156.696
159.359
161.513
163.147
164.259
164.861
164.976
164.638
163.885
162.764
161.327
159.625
157.712
155.64
153.457
151.208
148.932
146.666
144.439
142.276
140.196
138.216
136.347
134.596
132.968
131.465
130.088
128.835
127.703
126.689
125.787
124.993
124.301
123.707
123.204
122.787
122.451
122.19
122
121.876
121.813
121.806
121.851
121.944
122.081
122.258
122.472
122.719
122.995
123.298
123.624
123.971
124.335
124.715
125.108
125.512
125.926
126.347
126.775
127.209
127.649
128.094
128.544
128.999
129.46
129.928
130.403
130.888
131.382
131.887
132.405
132.936
133.483
134.045
134.623
135.219
135.833
136.464
137.113
137.779
138.461
139.159
139.871
140.595
141.331
142.076
142.829
143.587
144.349
145.113
145.877
146.639
147.398
148.153
148.903
149.646
150.382
151.111
151.832
152.546
153.252
153.951
154.643
155.33
156.011
156.688
157.361
158.031
158.7
159.367
160.034
160.701
161.369
162.039
162.712
163.389
164.069
164.755
165.447
166.146
166.854
167.571
168.3
169.042
169.799
170.572
171.365
172.179
173.017
173.881
174.773
175.696
176.652
177.643
178.67
179.736
180.84
181.982
183.161
184.376
185.622
186.894
188.186
189.486
190.782
192.06
193.297
194.473
195.557
196.517
197.316
197.911
198.257
198.302
197.992
197.273
196.087
194.378
192.097
189.195
185.633
181.382
176.42
170.737
164.333
157.217
149.408
140.933
131.835
122.175
112.056
101.645
91.2282
81.2883
72.6829
67.2383
71.209
135.107
68.4986
41.9694
42.6503
47.4676
53.6738
60.4918
67.5667
74.6985
81.7675
88.7027
95.4639
102.029
108.386
114.526
120.439
126.109
131.517
136.637
141.435
145.877
149.924
153.541
156.695
159.358
161.512
163.146
164.257
164.86
164.975
164.636
163.883
162.763
161.325
159.624
157.711
155.639
153.456
151.206
148.931
146.665
144.438
142.275
140.195
138.215
136.346
134.595
132.967
131.464
130.088
128.835
127.703
126.688
125.786
124.992
124.301
123.706
123.203
122.786
122.45
122.19
122
121.875
121.812
121.805
121.85
121.943
122.08
122.258
122.471
122.718
122.994
123.297
123.623
123.97
124.335
124.714
125.107
125.511
125.925
126.346
126.775
127.209
127.648
128.093
128.543
128.998
129.459
129.927
130.403
130.887
131.381
131.886
132.404
132.936
133.482
134.044
134.623
135.218
135.832
136.463
137.112
137.778
138.46
139.158
139.87
140.594
141.33
142.075
142.828
143.586
144.348
145.112
145.876
146.638
147.398
148.153
148.902
149.645
150.382
151.11
151.831
152.545
153.251
153.95
154.642
155.329
156.01
156.687
157.36
158.031
158.699
159.366
160.033
160.7
161.368
162.038
162.711
163.388
164.068
164.754
165.446
166.145
166.853
167.57
168.299
169.041
169.798
170.571
171.364
172.178
173.016
173.88
174.772
175.695
176.651
177.642
178.67
179.735
180.839
181.981
183.16
184.375
185.621
186.893
188.185
189.485
190.781
192.059
193.297
194.472
195.556
196.516
197.315
197.91
198.256
198.301
197.992
197.272
196.086
194.378
192.096
189.194
185.632
181.381
176.419
170.736
164.332
157.216
149.407
140.932
131.834
122.174
112.055
101.644
91.2272
81.2873
72.6817
67.2366
71.2071
135.103
85.2421
51.359
50.5296
54.7612
60.6213
67.1475
73.9098
80.6711
87.2931
93.6987
99.8512
105.74
111.37
116.753
121.902
126.826
131.525
135.995
140.219
144.175
147.835
151.166
154.136
156.714
158.874
160.593
161.859
162.672
163.044
162.995
162.555
161.758
160.645
159.262
157.653
155.866
153.944
151.931
149.864
147.78
145.708
143.675
141.701
139.805
138
136.297
134.701
133.218
131.85
130.596
129.457
128.428
127.509
126.693
125.978
125.359
124.83
124.386
124.024
123.737
123.521
123.372
123.285
123.256
123.28
123.354
123.474
123.635
123.834
124.068
124.333
124.627
124.945
125.285
125.644
126.02
126.411
126.814
127.228
127.651
128.082
128.52
128.964
129.414
129.869
130.331
130.799
131.274
131.756
132.247
132.747
133.258
133.78
134.315
134.864
135.428
136.007
136.601
137.213
137.84
138.484
139.144
139.819
140.508
141.211
141.926
142.651
143.386
144.128
144.876
145.628
146.382
147.137
147.891
148.643
149.392
150.136
150.874
151.607
152.334
153.053
153.766
154.472
155.172
155.866
156.554
157.237
157.916
158.591
159.263
159.933
160.602
161.269
161.937
162.606
163.277
163.95
164.626
165.306
165.991
166.682
167.38
168.087
168.804
169.532
170.274
171.03
171.803
172.596
173.41
174.248
175.112
176.005
176.929
177.885
178.877
179.906
180.973
182.079
183.224
184.408
185.627
186.879
188.16
189.461
190.773
192.085
193.381
194.642
195.845
196.963
197.965
198.813
199.468
199.885
200.019
199.82
199.237
198.221
196.722
194.696
192.104
188.911
185.091
180.625
175.501
169.712
163.255
156.132
148.351
139.929
130.909
121.374
111.487
101.549
92.09
84.099
79.798
87.0809
169.377
85.2476
51.3623
50.5331
54.7644
60.6242
67.1501
73.9122
80.6733
87.2951
93.7004
99.8527
105.741
111.371
116.754
121.903
126.826
131.525
135.994
140.218
144.174
147.834
151.165
154.135
156.713
158.872
160.592
161.857
162.67
163.042
162.993
162.553
161.756
160.644
159.26
157.651
155.864
153.942
151.929
149.863
147.778
145.706
143.673
141.7
139.804
137.999
136.295
134.7
133.217
131.848
130.595
129.455
128.427
127.508
126.692
125.977
125.357
124.828
124.385
124.023
123.736
123.52
123.371
123.284
123.255
123.279
123.353
123.472
123.634
123.833
124.067
124.332
124.625
124.943
125.284
125.643
126.019
126.41
126.813
127.227
127.65
128.081
128.518
128.963
129.413
129.868
130.33
130.798
131.272
131.755
132.245
132.746
133.256
133.779
134.314
134.863
135.426
136.005
136.6
137.211
137.839
138.483
139.142
139.817
140.507
141.21
141.925
142.65
143.385
144.127
144.875
145.626
146.381
147.136
147.89
148.642
149.39
150.134
150.873
151.606
152.332
153.052
153.765
154.471
155.171
155.864
156.553
157.236
157.914
158.589
159.262
159.932
160.6
161.268
161.936
162.605
163.275
163.948
164.624
165.304
165.989
166.68
167.379
168.086
168.802
169.531
170.272
171.029
171.802
172.595
173.409
174.247
175.111
176.003
176.927
177.884
178.876
179.905
180.972
182.078
183.223
184.406
185.626
186.878
188.158
189.459
190.772
192.084
193.379
194.64
195.844
196.962
197.963
198.812
199.466
199.884
200.018
199.819
199.236
198.219
196.721
194.695
192.102
188.909
185.09
180.624
175.5
169.71
163.253
156.131
148.349
139.928
130.908
121.372
111.486
101.548
92.0886
84.0973
79.7957
87.0779
169.37
101.806
60.7124
58.5179
62.2527
67.8107
74.0495
80.4697
86.8031
92.8986
98.6782
104.113
109.206
113.983
118.476
122.724
126.757
130.603
134.274
137.773
141.093
144.216
147.116
149.763
152.124
154.169
155.868
157.196
158.143
158.709
158.902
158.738
158.241
157.442
156.375
155.079
153.593
151.957
150.208
148.384
146.518
144.64
142.775
140.948
139.175
137.473
135.853
134.324
132.892
131.562
130.335
129.213
128.193
127.275
126.456
125.733
125.101
124.558
124.097
123.716
123.409
123.173
123.002
122.894
122.843
122.847
122.9
123.001
123.143
123.325
123.542
123.792
124.071
124.376
124.704
125.053
125.42
125.802
126.199
126.607
127.026
127.454
127.89
128.333
128.782
129.239
129.701
130.17
130.646
131.13
131.621
132.122
132.632
133.153
133.685
134.23
134.788
135.36
135.946
136.547
137.162
137.792
138.436
139.094
139.765
140.448
141.143
141.847
142.559
143.279
144.004
144.733
145.465
146.199
146.932
147.664
148.393
149.119
149.841
150.558
151.27
151.976
152.676
153.371
154.06
154.743
155.422
156.096
156.766
157.432
158.096
158.757
159.417
160.076
160.735
161.394
162.055
162.718
163.384
164.054
164.729
165.41
166.098
166.795
167.501
168.219
168.95
169.697
170.46
171.243
172.047
172.876
173.73
174.613
175.528
176.475
177.459
178.479
179.538
180.637
181.776
182.955
184.171
185.423
186.705
188.01
189.332
190.657
191.973
193.26
194.499
195.663
196.723
197.643
198.388
198.918
199.191
199.163
198.791
198.031
196.843
195.189
193.037
190.359
187.131
183.334
178.952
173.97
168.37
162.134
155.244
147.692
139.491
130.703
121.476
112.113
103.181
95.7851
92.5069
102.693
200.762
101.812
60.7161
58.5218
62.2562
67.8137
74.0522
80.4721
86.8052
92.9004
98.6797
104.114
109.207
113.983
118.477
122.724
126.757
130.602
134.273
137.772
141.092
144.215
147.115
149.761
152.122
154.167
155.866
157.194
158.141
158.707
158.9
158.735
158.239
157.44
156.373
155.077
153.591
151.955
150.206
148.382
146.516
144.638
142.774
140.946
139.173
137.471
135.851
134.322
132.89
131.56
130.334
129.211
128.192
127.274
126.455
125.731
125.1
124.556
124.096
123.715
123.408
123.171
123.001
122.892
122.842
122.845
122.899
122.999
123.142
123.323
123.541
123.791
124.069
124.374
124.703
125.051
125.418
125.801
126.197
126.606
127.024
127.452
127.888
128.331
128.781
129.237
129.7
130.169
130.645
131.128
131.619
132.12
132.63
133.151
133.684
134.229
134.787
135.359
135.945
136.545
137.161
137.791
138.435
139.093
139.764
140.447
141.141
141.845
142.558
143.277
144.002
144.732
145.464
146.197
146.93
147.662
148.392
149.118
149.839
150.557
151.268
151.974
152.675
153.369
154.058
154.742
155.42
156.094
156.764
157.43
158.094
158.755
159.415
160.074
160.733
161.392
162.053
162.716
163.382
164.052
164.727
165.408
166.096
166.793
167.499
168.217
168.949
169.695
170.458
171.241
172.046
172.874
173.728
174.612
175.526
176.474
177.457
178.477
179.537
180.636
181.775
182.953
184.17
185.421
186.703
188.009
189.33
190.655
191.971
193.259
194.497
195.661
196.721
197.642
198.387
198.917
199.189
199.161
198.789
198.029
196.841
195.188
193.036
190.357
187.129
183.332
178.951
173.968
168.368
162.132
155.243
147.69
139.489
130.701
121.475
112.112
103.18
95.783
92.5041
102.689
200.754
118.108
69.8683
66.3824
69.6559
74.9132
80.8358
86.8601
92.6923
98.1743
103.232
107.848
112.042
115.86
119.36
122.601
125.641
128.528
131.294
133.962
136.538
139.014
141.372
143.586
145.623
147.449
149.032
150.336
151.339
152.029
152.403
152.466
152.23
151.715
150.945
149.95
148.762
147.414
145.941
144.374
142.745
141.083
139.413
137.757
136.136
134.564
133.055
131.62
130.266
128.999
127.822
126.739
125.748
124.85
124.044
123.327
122.696
122.149
121.681
121.289
120.969
120.717
120.53
120.403
120.333
120.317
120.35
120.43
120.552
120.714
120.912
121.142
121.402
121.69
122.001
122.334
122.686
123.055
123.439
123.836
124.244
124.663
125.091
125.526
125.969
126.42
126.877
127.34
127.811
128.289
128.775
129.269
129.771
130.283
130.806
131.339
131.884
132.44
133.009
133.591
134.185
134.791
135.41
136.041
136.684
137.336
137.999
138.67
139.35
140.035
140.726
141.421
142.119
142.819
143.519
144.219
144.917
145.613
146.306
146.995
147.68
148.361
149.037
149.708
150.374
151.036
151.694
152.348
152.998
153.644
154.289
154.931
155.571
156.211
156.85
157.49
158.132
158.775
159.421
160.071
160.725
161.386
162.054
162.73
163.416
164.114
164.825
165.551
166.294
167.056
167.84
168.648
169.482
170.345
171.239
172.166
173.13
174.13
175.171
176.251
177.373
178.536
179.739
180.98
182.254
183.557
184.881
186.215
187.548
188.862
190.14
191.357
192.488
193.501
194.363
195.04
195.496
195.694
195.6
195.176
194.392
193.217
191.627
189.598
187.111
184.145
180.68
176.689
172.137
166.984
161.186
154.703
147.517
139.659
131.258
122.608
114.301
107.54
105.237
118.057
230.288
118.115
69.8726
66.3866
69.6596
74.9164
80.8386
86.8625
92.6943
98.176
103.233
107.849
112.043
115.861
119.36
122.601
125.641
128.527
131.293
133.961
136.537
139.013
141.371
143.584
145.621
147.447
149.03
150.334
151.337
152.027
152.401
152.464
152.228
151.713
150.943
149.948
148.76
147.412
145.938
144.372
142.743
141.081
139.411
137.755
136.134
134.562
133.053
131.618
130.264
128.997
127.821
126.737
125.746
124.848
124.042
123.325
122.694
122.147
121.679
121.288
120.968
120.716
120.528
120.401
120.331
120.315
120.349
120.428
120.55
120.712
120.91
121.14
121.401
121.688
121.999
122.332
122.684
123.053
123.437
123.834
124.243
124.661
125.089
125.524
125.968
126.418
126.875
127.339
127.809
128.287
128.773
129.267
129.769
130.282
130.804
131.337
131.882
132.439
133.008
133.589
134.183
134.79
135.409
136.039
136.682
137.335
137.997
138.669
139.348
140.033
140.724
141.419
142.117
142.817
143.517
144.217
144.915
145.611
146.304
146.993
147.678
148.359
149.035
149.706
150.372
151.034
151.692
152.346
152.996
153.642
154.287
154.929
155.569
156.209
156.848
157.488
158.13
158.773
159.419
160.069
160.723
161.384
162.052
162.728
163.414
164.112
164.823
165.549
166.292
167.054
167.838
168.646
169.48
170.343
171.237
172.164
173.128
174.128
175.169
176.249
177.371
178.534
179.737
180.978
182.252
183.555
184.879
186.213
187.546
188.86
190.138
191.355
192.486
193.499
194.361
195.038
195.494
195.693
195.598
195.174
194.39
193.215
191.625
189.596
187.109
184.144
180.679
176.687
172.135
166.983
161.185
154.702
147.515
139.658
131.257
122.606
114.298
107.538
105.234
118.052
230.279
134.01
78.7033
73.9701
76.7926
81.7334
87.302
92.8754
98.1392
102.933
107.191
110.91
114.129
116.918
119.355
121.526
123.51
125.375
127.175
128.948
130.712
132.47
134.212
135.914
137.546
139.072
140.454
141.655
142.639
143.383
143.873
144.105
144.078
143.802
143.292
142.569
141.657
140.583
139.376
138.065
136.676
135.237
133.771
132.301
130.845
129.421
128.041
126.718
125.46
124.275
123.167
122.139
121.193
120.331
119.551
118.853
118.235
117.694
117.228
116.834
116.508
116.246
116.046
115.905
115.818
115.784
115.798
115.857
115.958
116.098
116.274
116.483
116.722
116.988
117.278
117.591
117.924
118.274
118.64
119.02
119.413
119.816
120.23
120.652
121.083
121.52
121.966
122.417
122.876
123.342
123.815
124.295
124.783
125.28
125.785
126.299
126.822
127.356
127.9
128.454
129.018
129.593
130.178
130.774
131.378
131.992
132.614
133.243
133.879
134.521
135.168
135.819
136.473
137.129
137.786
138.444
139.1
139.756
140.41
141.061
141.709
142.354
142.995
143.633
144.267
144.897
145.524
146.147
146.767
147.385
148
148.613
149.225
149.836
150.446
151.057
151.67
152.284
152.901
153.522
154.147
154.778
155.416
156.063
156.72
157.388
158.069
158.765
159.479
160.211
160.965
161.742
162.545
163.377
164.24
165.137
166.069
167.04
168.05
169.101
170.195
171.332
172.511
173.731
174.989
176.28
177.599
178.936
180.281
181.62
182.937
184.213
185.423
186.542
187.541
188.393
189.069
189.539
189.776
189.754
189.45
188.843
187.915
186.648
185.027
183.029
180.627
177.782
174.444
170.549
166.022
160.791
154.804
148.057
140.652
132.864
125.301
119.249
117.914
133.155
258.065
134.019
78.7083
73.9747
76.7964
81.7366
87.3048
92.8777
98.1412
102.935
107.192
110.91
114.13
116.918
119.355
121.525
123.509
125.374
127.174
128.947
130.71
132.468
134.21
135.912
137.544
139.07
140.452
141.653
142.636
143.38
143.871
144.102
144.076
143.8
143.29
142.567
141.655
140.581
139.374
138.062
136.674
135.234
133.769
132.299
130.843
129.419
128.039
126.716
125.459
124.273
123.165
122.137
121.191
120.329
119.549
118.851
118.233
117.692
117.226
116.832
116.506
116.244
116.044
115.903
115.816
115.782
115.796
115.855
115.956
116.096
116.272
116.481
116.72
116.986
117.276
117.589
117.922
118.272
118.638
119.018
119.411
119.814
120.228
120.65
121.081
121.519
121.964
122.416
122.874
123.34
123.813
124.293
124.781
125.278
125.783
126.297
126.82
127.354
127.898
128.452
129.016
129.591
130.176
130.772
131.376
131.99
132.612
133.241
133.877
134.519
135.166
135.817
136.471
137.127
137.784
138.442
139.098
139.754
140.407
141.059
141.707
142.352
142.993
143.631
144.265
144.895
145.522
146.145
146.765
147.383
147.998
148.611
149.223
149.834
150.444
151.055
151.668
152.282
152.899
153.519
154.145
154.776
155.414
156.061
156.718
157.386
158.067
158.763
159.476
160.209
160.962
161.74
162.543
163.375
164.238
165.135
166.067
167.037
168.048
169.099
170.193
171.33
172.509
173.729
174.987
176.278
177.597
178.934
180.279
181.618
182.935
184.211
185.421
186.54
187.539
188.391
189.067
189.537
189.774
189.752
189.448
188.841
187.913
186.646
185.025
183.027
180.625
177.78
174.443
170.547
166.021
160.79
154.802
148.056
140.65
132.862
125.298
119.246
117.91
133.15
258.054
149.251
87.0966
81.1676
83.5454
88.1527
93.3344
98.4127
103.057
107.11
110.516
113.289
115.491
117.211
118.554
119.628
120.532
121.355
122.167
123.019
123.942
124.948
126.032
127.175
128.347
129.512
130.63
131.66
132.555
133.286
133.827
134.165
134.289
134.199
133.902
133.409
132.739
131.91
130.947
129.873
128.712
127.489
126.225
124.941
123.656
122.385
121.143
119.942
118.792
117.7
116.671
115.712
114.823
114.008
113.266
112.597
112.001
111.476
111.02
110.63
110.304
110.039
109.832
109.679
109.58
109.53
109.526
109.566
109.646
109.764
109.918
110.103
110.318
110.561
110.827
111.117
111.426
111.754
112.098
112.457
112.829
113.212
113.606
114.01
114.422
114.842
115.269
115.703
116.144
116.591
117.045
117.505
117.972
118.446
118.927
119.416
119.912
120.416
120.928
121.448
121.976
122.513
123.057
123.61
124.17
124.738
125.312
125.893
126.479
127.07
127.666
128.266
128.869
129.474
130.08