/*--------------------------------*- C++ -*----------------------------------*\
  =========                 |
  \\      /  F ield         | OpenFOAM: The Open Source CFD Toolbox
   \\    /   O peration     | Website:  https://openfoam.org
    \\  /    A nd           | Version:  8
     \\/     M anipulation  |
\*---------------------------------------------------------------------------*/
FoamFile
{
    version     2.0;
    format      ascii;
    class       volScalarField;
    location    "600";
    object      k;
}
// * * * * * * * * * * * * * * * * * * * * * * * * * * * * * * * * * * * * * //

dimensions      [0 2 -2 0 0 0 0];

internalField   nonuniform List<scalar> 
46000
(
0.00397694
0.0159937
0.0326168
0.0517289
0.070852
0.0897013
0.107455
0.123964
0.139483
0.154035
0.16761
0.180196
0.191773
0.202326
0.211841
0.220309
0.227727
0.234097
0.239432
0.243752
0.247084
0.249463
0.250936
0.251595
0.251745
0.251276
0.250178
0.248496
0.2463
0.243669
0.240691
0.237448
0.234023
0.23049
0.226915
0.223358
0.219868
0.216486
0.213243
0.210164
0.207266
0.20456
0.20205
0.199739
0.197623
0.195698
0.193957
0.192391
0.190991
0.189749
0.188654
0.187697
0.186869
0.186162
0.185567
0.185078
0.184685
0.184385
0.184191
0.18408
0.184041
0.184068
0.184156
0.1843
0.184496
0.18474
0.185028
0.185357
0.185723
0.186122
0.18655
0.187005
0.187482
0.18798
0.188495
0.189024
0.189566
0.19012
0.190683
0.191255
0.191835
0.192424
0.193021
0.193628
0.194245
0.194873
0.195515
0.196172
0.196846
0.197538
0.198251
0.198986
0.199745
0.20053
0.20134
0.202177
0.203041
0.203931
0.204847
0.205788
0.206751
0.207734
0.208736
0.209753
0.210783
0.211822
0.212867
0.213915
0.214964
0.216009
0.217049
0.218081
0.219103
0.220113
0.221111
0.222096
0.223067
0.224025
0.224969
0.225901
0.226821
0.227731
0.228633
0.229526
0.230414
0.231298
0.232179
0.233058
0.233937
0.234818
0.2357
0.236585
0.237474
0.238367
0.239265
0.24017
0.24108
0.241998
0.242924
0.24386
0.244806
0.245765
0.246739
0.247729
0.248738
0.249769
0.250825
0.25191
0.253027
0.25418
0.255373
0.256609
0.257893
0.259229
0.260618
0.262065
0.263572
0.265141
0.266771
0.268463
0.270215
0.272023
0.27388
0.275777
0.277703
0.279642
0.281573
0.28347
0.285301
0.287028
0.288605
0.289978
0.291089
0.291896
0.292361
0.292357
0.291772
0.2905
0.288432
0.285457
0.281466
0.276354
0.270026
0.262398
0.253406
0.243009
0.231194
0.217982
0.203432
0.187644
0.170762
0.152979
0.134529
0.115682
0.0966667
0.0770931
0.0585205
0.039874
0.0221982
0.00620988
0.0039775
0.015995
0.0326189
0.051733
0.0708579
0.089709
0.107464
0.123972
0.139491
0.154042
0.167616
0.180201
0.191777
0.20233
0.211845
0.220313
0.22773
0.234101
0.239436
0.243755
0.247087
0.249467
0.25094
0.251598
0.251749
0.251279
0.250181
0.2485
0.246303
0.243672
0.240694
0.237451
0.234026
0.230493
0.226918
0.223361
0.219871
0.216489
0.213246
0.210167
0.207269
0.204563
0.202054
0.199742
0.197627
0.195702
0.19396
0.192394
0.190995
0.189752
0.188657
0.1877
0.186872
0.186165
0.185571
0.185081
0.184688
0.184388
0.184194
0.184083
0.184044
0.184071
0.184159
0.184303
0.184499
0.184744
0.185032
0.185361
0.185727
0.186126
0.186554
0.187009
0.187486
0.187983
0.188498
0.189028
0.18957
0.190123
0.190686
0.191258
0.191839
0.192427
0.193025
0.193631
0.194248
0.194877
0.195519
0.196176
0.196849
0.197541
0.198254
0.19899
0.199749
0.200533
0.201344
0.202181
0.203045
0.203935
0.204851
0.205791
0.206754
0.207738
0.208739
0.209757
0.210786
0.211825
0.212871
0.213919
0.214967
0.216012
0.217052
0.218084
0.219106
0.220117
0.221115
0.2221
0.223071
0.224028
0.224973
0.225905
0.226825
0.227735
0.228636
0.22953
0.230418
0.231301
0.232182
0.233061
0.233941
0.234821
0.235703
0.236588
0.237477
0.23837
0.239268
0.240173
0.241083
0.242001
0.242927
0.243863
0.24481
0.245769
0.246742
0.247732
0.248741
0.249772
0.250828
0.251913
0.25303
0.254183
0.255376
0.256612
0.257896
0.259231
0.260621
0.262068
0.263575
0.265143
0.266774
0.268466
0.270218
0.272025
0.273882
0.27578
0.277706
0.279645
0.281576
0.283473
0.285304
0.287031
0.288608
0.289981
0.291092
0.291899
0.292364
0.29236
0.291775
0.290503
0.288435
0.28546
0.281469
0.276358
0.27003
0.262402
0.253409
0.243012
0.231197
0.217985
0.203435
0.187647
0.170765
0.152981
0.134531
0.115683
0.0966656
0.0770895
0.0585157
0.0398679
0.0221845
0.00620588
0.0149683
0.0649271
0.107794
0.146661
0.182231
0.215394
0.246397
0.27537
0.30244
0.327694
0.351187
0.372951
0.393001
0.411343
0.427975
0.442896
0.456108
0.467617
0.47744
0.485603
0.492142
0.497105
0.50055
0.502536
0.503172
0.502668
0.501106
0.498593
0.495254
0.491221
0.486626
0.4816
0.476263
0.470732
0.465108
0.459482
0.453932
0.448523
0.443309
0.438331
0.43362
0.429196
0.425073
0.421256
0.417746
0.414538
0.411625
0.408996
0.406639
0.40454
0.402686
0.401063
0.399657
0.398453
0.39744
0.396605
0.395934
0.395417
0.395045
0.394811
0.394703
0.394711
0.394827
0.395042
0.395348
0.395739
0.396207
0.396745
0.397347
0.398007
0.398717
0.399472
0.400267
0.401095
0.401953
0.402836
0.40374
0.404662
0.4056
0.406551
0.407515
0.40849
0.409478
0.410479
0.411493
0.412524
0.413573
0.414642
0.415735
0.416855
0.418004
0.419186
0.420402
0.421655
0.422948
0.42428
0.425653
0.427066
0.42852
0.430011
0.431538
0.433098
0.434688
0.436304
0.437941
0.439594
0.44126
0.442932
0.444607
0.446279
0.447944
0.449599
0.45124
0.452864
0.454469
0.456054
0.457616
0.459157
0.460675
0.462173
0.46365
0.465109
0.466552
0.46798
0.469395
0.470801
0.472199
0.473591
0.47498
0.476368
0.477756
0.479146
0.480539
0.481937
0.483342
0.484753
0.486174
0.487604
0.489046
0.490502
0.491973
0.493463
0.494974
0.496509
0.498072
0.499667
0.5013
0.502975
0.504696
0.506471
0.508304
0.510201
0.512168
0.51421
0.516332
0.518538
0.520831
0.523215
0.525689
0.528253
0.530902
0.533632
0.536433
0.53929
0.542187
0.545097
0.547991
0.55083
0.553566
0.556143
0.558493
0.560537
0.562191
0.563367
0.56392
0.563716
0.56261
0.560446
0.557064
0.5523
0.545988
0.53797
0.528096
0.516234
0.502274
0.486136
0.467774
0.44718
0.424389
0.399475
0.372556
0.343783
0.313336
0.281403
0.248133
0.213539
0.177263
0.137241
0.0887383
0.0238874
0.0149699
0.0649306
0.1078
0.146667
0.182238
0.215402
0.246405
0.275378
0.302448
0.327703
0.351196
0.37296
0.39301
0.411351
0.427982
0.442903
0.456114
0.467623
0.477445
0.485607
0.492146
0.497109
0.500553
0.502539
0.503175
0.502671
0.501108
0.498595
0.495256
0.491223
0.486629
0.481602
0.476266
0.470734
0.46511
0.459484
0.453934
0.448526
0.443312
0.438334
0.433623
0.429199
0.425076
0.421259
0.417749
0.414542
0.411629
0.409
0.406643
0.404544
0.40269
0.401067
0.39966
0.398457
0.397444
0.396608
0.395938
0.395421
0.395049
0.394815
0.394707
0.394715
0.394831
0.395046
0.395352
0.395743
0.396211
0.396749
0.397351
0.398011
0.398721
0.399476
0.400271
0.401099
0.401957
0.40284
0.403744
0.404666
0.405604
0.406555
0.407519
0.408494
0.409482
0.410483
0.411497
0.412528
0.413577
0.414646
0.415739
0.416859
0.418008
0.419189
0.420406
0.421659
0.422951
0.424284
0.425657
0.42707
0.428523
0.430015
0.431542
0.433102
0.434692
0.436308
0.437945
0.439598
0.441263
0.442936
0.44461
0.446282
0.447948
0.449603
0.451244
0.452868
0.454473
0.456057
0.45762
0.45916
0.460679
0.462176
0.463654
0.465113
0.466555
0.467983
0.469398
0.470804
0.472202
0.473594
0.474983
0.476371
0.477759
0.479149
0.480542
0.481941
0.483345
0.484757
0.486177
0.487607
0.489049
0.490505
0.491976
0.493466
0.494976
0.496512
0.498075
0.49967
0.501303
0.502977
0.504699
0.506474
0.508307
0.510204
0.512171
0.514212
0.516334
0.51854
0.520834
0.523217
0.525691
0.528255
0.530905
0.533635
0.536435
0.539293
0.542189
0.545099
0.547993
0.550832
0.553568
0.556145
0.558495
0.56054
0.562193
0.56337
0.563923
0.563719
0.562612
0.560449
0.557067
0.552303
0.545991
0.537973
0.528099
0.516237
0.502277
0.486139
0.467777
0.447183
0.424392
0.399478
0.372559
0.343785
0.313339
0.281406
0.248135
0.213541
0.177264
0.137242
0.0887408
0.0238827
0.0273592
0.102502
0.157343
0.20448
0.248004
0.288804
0.327115
0.363024
0.396596
0.427894
0.456972
0.483877
0.508649
0.531318
0.551908
0.57044
0.586933
0.601409
0.613894
0.624419
0.633027
0.639768
0.644702
0.647897
0.649429
0.649508
0.648253
0.645801
0.642299
0.637901
0.632761
0.627033
0.620861
0.614383
0.607726
0.601001
0.594307
0.58773
0.581341
0.575195
0.569338
0.563802
0.55861
0.553775
0.549304
0.545195
0.541445
0.538043
0.534979
0.532237
0.529804
0.527664
0.5258
0.524196
0.522837
0.521707
0.520791
0.520074
0.519542
0.519187
0.518995
0.518955
0.519055
0.519285
0.519634
0.520094
0.520655
0.521308
0.522044
0.522855
0.523733
0.524671
0.52566
0.526694
0.527768
0.528874
0.530009
0.531168
0.532348
0.533546
0.534761
0.535991
0.537236
0.538497
0.539775
0.541072
0.54239
0.543733
0.545104
0.546505
0.547941
0.549415
0.550929
0.552487
0.554091
0.555742
0.557441
0.559189
0.560983
0.562824
0.564708
0.566633
0.568593
0.570586
0.572605
0.574646
0.576703
0.57877
0.580841
0.582911
0.584975
0.587028
0.589066
0.591086
0.593083
0.595057
0.597006
0.598928
0.600825
0.602696
0.604542
0.606366
0.608169
0.609953
0.611721
0.613476
0.61522
0.616956
0.618686
0.620413
0.622139
0.623866
0.625596
0.627331
0.629072
0.630821
0.632581
0.634352
0.636137
0.637938
0.639759
0.641602
0.643471
0.645369
0.647302
0.649275
0.651294
0.653363
0.655491
0.657683
0.659946
0.662288
0.664715
0.667233
0.66985
0.672569
0.675395
0.678331
0.681378
0.684535
0.687797
0.691159
0.694607
0.698126
0.701693
0.70528
0.708848
0.712351
0.715732
0.718923
0.72184
0.724391
0.726469
0.727954
0.728685
0.728509
0.727254
0.724742
0.720785
0.715192
0.707774
0.698347
0.686738
0.672795
0.656386
0.637412
0.615804
0.591527
0.564582
0.535001
0.502845
0.468198
0.431159
0.391831
0.350292
0.306513
0.260049
0.209046
0.146392
0.048677
0.0273619
0.102507
0.157351
0.204489
0.248013
0.288814
0.327125
0.363033
0.396605
0.427903
0.45698
0.483885
0.508657
0.531325
0.551914
0.570446
0.586939
0.601414
0.613898
0.624423
0.63303
0.639771
0.644704
0.647899
0.649431
0.649509
0.648254
0.645802
0.6423
0.637902
0.632763
0.627034
0.620862
0.614385
0.607727
0.601002
0.594309
0.587732
0.581343
0.575197
0.56934
0.563804
0.558612
0.553778
0.549306
0.545198
0.541447
0.538046
0.534981
0.53224
0.529807
0.527667
0.525803
0.5242
0.52284
0.52171
0.520794
0.520077
0.519545
0.51919
0.518998
0.518958
0.519058
0.519288
0.519637
0.520097
0.520658
0.521311
0.522047
0.522859
0.523737
0.524674
0.525663
0.526697
0.527771
0.528877
0.530012
0.531171
0.532351
0.533549
0.534764
0.535994
0.537239
0.5385
0.539778
0.541075
0.542393
0.543736
0.545107
0.546508
0.547944
0.549418
0.550932
0.55249
0.554094
0.555745
0.557444
0.559191
0.560986
0.562827
0.564711
0.566635
0.568596
0.570589
0.572608
0.574649
0.576706
0.578772
0.580844
0.582914
0.584978
0.587031
0.589069
0.591088
0.593086
0.59506
0.597008
0.598931
0.600827
0.602698
0.604544
0.606368
0.608171
0.609955
0.611723
0.613478
0.615222
0.616958
0.618689
0.620416
0.622142
0.623869
0.625598
0.627333
0.629074
0.630824
0.632583
0.634354
0.636139
0.637941
0.639761
0.641604
0.643473
0.645371
0.647304
0.649277
0.651296
0.653365
0.655493
0.657685
0.659948
0.66229
0.664717
0.667235
0.669851
0.67257
0.675396
0.678332
0.681379
0.684536
0.687799
0.69116
0.694608
0.698127
0.701695
0.705281
0.708849
0.712352
0.715734
0.718924
0.721842
0.724393
0.72647
0.727955
0.728687
0.72851
0.727256
0.724744
0.720787
0.715194
0.707776
0.698349
0.686741
0.672797
0.656389
0.637415
0.615806
0.591529
0.564584
0.535003
0.502847
0.468199
0.43116
0.391831
0.350292
0.306513
0.260049
0.209046
0.146395
0.0486694
0.0404079
0.133614
0.197282
0.250977
0.30023
0.346313
0.389535
0.42997
0.467654
0.502635
0.534976
0.564755
0.59205
0.616939
0.639496
0.659785
0.677867
0.693795
0.707618
0.719387
0.72915
0.736962
0.74288
0.746971
0.749303
0.750029
0.749289
0.747221
0.743975
0.739708
0.734579
0.728744
0.722359
0.715569
0.708511
0.70131
0.694077
0.686909
0.67989
0.673088
0.66656
0.660348
0.654484
0.64899
0.643878
0.639154
0.634818
0.630864
0.627284
0.624064
0.621191
0.618649
0.616423
0.614495
0.61285
0.611469
0.610338
0.609438
0.608756
0.608278
0.607992
0.607884
0.607942
0.608153
0.608506
0.60899
0.609594
0.610308
0.611121
0.612024
0.613007
0.614062
0.61518
0.616353
0.617574
0.618836
0.620133
0.621461
0.622816
0.624193
0.625592
0.627009
0.628445
0.6299
0.631376
0.632873
0.634394
0.635942
0.637521
0.639134
0.640784
0.642474
0.644209
0.64599
0.64782
0.649702
0.651635
0.65362
0.655656
0.657741
0.659874
0.66205
0.664266
0.666517
0.668798
0.671103
0.673427
0.675762
0.678103
0.680445
0.682781
0.685107
0.687418
0.68971
0.69198
0.694226
0.696444
0.698636
0.7008
0.702936
0.705046
0.707132
0.709194
0.711236
0.713259
0.715268
0.717263
0.719249
0.721228
0.723202
0.725173
0.727145
0.729119
0.731098
0.733083
0.735076
0.73708
0.739097
0.74113
0.743181
0.745254
0.747353
0.749481
0.751643
0.753845
0.756093
0.758392
0.760751
0.763175
0.765674
0.768254
0.770923
0.77369
0.776561
0.779544
0.782645
0.785868
0.789218
0.792696
0.7963
0.800027
0.803868
0.807813
0.811841
0.81593
0.820046
0.824148
0.828185
0.832092
0.835795
0.8392
0.842205
0.844689
0.846507
0.847502
0.847502
0.846328
0.843786
0.839677
0.833798
0.82595
0.815938
0.80358
0.788713
0.771192
0.750901
0.727744
0.701654
0.672583
0.640502
0.605397
0.567264
0.526113
0.481965
0.434839
0.384659
0.330915
0.271516
0.19797
0.0762993
0.0404108
0.13362
0.19729
0.250987
0.30024
0.346323
0.389545
0.42998
0.467663
0.502643
0.534984
0.564762
0.592056
0.616945
0.639501
0.659789
0.677871
0.693798
0.707621
0.719389
0.729152
0.736963
0.742881
0.746972
0.749303
0.750029
0.749288
0.747221
0.743975
0.739708
0.734578
0.728744
0.722359
0.715569
0.708511
0.70131
0.694077
0.686909
0.67989
0.673089
0.66656
0.660349
0.654485
0.648991
0.643879
0.639156
0.63482
0.630866
0.627285
0.624065
0.621192
0.618651
0.616424
0.614497
0.612851
0.611471
0.610339
0.60944
0.608757
0.60828
0.607994
0.607886
0.607943
0.608154
0.608507
0.608991
0.609595
0.610309
0.611123
0.612026
0.613009
0.614064
0.615182
0.616355
0.617575
0.618838
0.620135
0.621463
0.622817
0.624195
0.625593
0.627011
0.628447
0.629902
0.631377
0.632874
0.634396
0.635944
0.637523
0.639135
0.640785
0.642476
0.64421
0.645991
0.647822
0.649703
0.651636
0.653621
0.655657
0.657742
0.659875
0.662052
0.664268
0.666519
0.6688
0.671105
0.673428
0.675763
0.678105
0.680446
0.682783
0.685109
0.68742
0.689712
0.691981
0.694227
0.696445
0.698637
0.700801
0.702937
0.705047
0.707132
0.709195
0.711237
0.71326
0.715269
0.717264
0.71925
0.721229
0.723203
0.725174
0.727146
0.72912
0.731099
0.733083
0.735077
0.737081
0.739098
0.741131
0.743182
0.745255
0.747353
0.749481
0.751644
0.753846
0.756093
0.758393
0.760751
0.763176
0.765674
0.768254
0.770924
0.77369
0.776562
0.779545
0.782645
0.785869
0.789218
0.792696
0.7963
0.800027
0.803869
0.807813
0.811841
0.81593
0.820046
0.824148
0.828185
0.832093
0.835795
0.839201
0.842206
0.84469
0.846508
0.847502
0.847503
0.846329
0.843787
0.839678
0.833799
0.825951
0.815939
0.803581
0.788714
0.771194
0.750902
0.727745
0.701655
0.672584
0.640503
0.605397
0.567264
0.526113
0.481965
0.434839
0.384657
0.330913
0.271514
0.197969
0.076295
0.0532152
0.161461
0.233358
0.292868
0.346805
0.396892
0.443585
0.486997
0.527172
0.564175
0.598101
0.629073
0.65723
0.682718
0.705679
0.726243
0.74453
0.760641
0.774665
0.786679
0.796748
0.804933
0.811292
0.815884
0.818771
0.820031
0.819815
0.818247
0.815462
0.811605
0.806824
0.801269
0.795088
0.788426
0.781419
0.774194
0.766869
0.759545
0.752315
0.745254
0.738426
0.731883
0.725665
0.719802
0.714312
0.709208
0.704496
0.700173
0.696237
0.692676
0.689481
0.686638
0.684133
0.681948
0.68007
0.678479
0.677161
0.676099
0.675274
0.674676
0.674289
0.6741
0.674096
0.674264
0.674591
0.675066
0.675676
0.676411
0.677258
0.678209
0.679251
0.680376
0.681573
0.682836
0.684154
0.685522
0.686932
0.68838
0.68986
0.691368
0.692902
0.69446
0.696041
0.697644
0.69927
0.700921
0.702599
0.704305
0.706044
0.707819
0.709632
0.711487
0.713387
0.715335
0.717332
0.719381
0.721482
0.723635
0.72584
0.728095
0.730397
0.732744
0.735131
0.737554
0.740007
0.742485
0.744982
0.747491
0.750008
0.752526
0.75504
0.757544
0.760035
0.762507
0.764958
0.767385
0.769786
0.77216
0.774507
0.776827
0.779121
0.78139
0.783635
0.785859
0.788065
0.790254
0.79243
0.794596
0.796753
0.798904
0.801052
0.8032
0.805349
0.807503
0.809662
0.811831
0.81401
0.816203
0.818413
0.820643
0.822898
0.82518
0.827495
0.829848
0.832245
0.834692
0.837198
0.839768
0.842411
0.845136
0.847951
0.850865
0.853886
0.857023
0.860284
0.863675
0.867202
0.87087
0.874681
0.878635
0.882727
0.886951
0.891293
0.895736
0.900253
0.904812
0.909369
0.913869
0.918246
0.922419
0.926292
0.929754
0.932678
0.934909
0.93629
0.936647
0.935795
0.933538
0.929676
0.924005
0.916324
0.906439
0.894165
0.879333
0.861788
0.841392
0.81802
0.791557
0.761893
0.728918
0.692521
0.652592
0.60903
0.561754
0.510687
0.455653
0.395982
0.329155
0.245177
0.103473
0.0532186
0.161468
0.233368
0.292879
0.346816
0.396902
0.443595
0.487006
0.527181
0.564183
0.598108
0.629079
0.657235
0.682723
0.705682
0.726246
0.744532
0.760642
0.774666
0.786679
0.796748
0.804933
0.811291
0.815882
0.81877
0.82003
0.819813
0.818245
0.81546
0.811603
0.806822
0.801267
0.795086
0.788424
0.781417
0.774193
0.766868
0.759544
0.752314
0.745253
0.738425
0.731883
0.725665
0.719801
0.714312
0.709208
0.704495
0.700173
0.696236
0.692676
0.689481
0.686638
0.684133
0.681948
0.680069
0.678479
0.677161
0.676099
0.675275
0.674676
0.674289
0.6741
0.674096
0.674264
0.674591
0.675066
0.675676
0.676411
0.677258
0.678209
0.679251
0.680376
0.681573
0.682835
0.684154
0.685522
0.686932
0.68838
0.68986
0.691368
0.692902
0.69446
0.69604
0.697643
0.69927
0.700921
0.702598
0.704305
0.706044
0.707819
0.709632
0.711487
0.713387
0.715334
0.717332
0.71938
0.721481
0.723635
0.72584
0.728095
0.730397
0.732744
0.735131
0.737553
0.740006
0.742484
0.744981
0.747491
0.750008
0.752526
0.75504
0.757544
0.760034
0.762506
0.764957
0.767384
0.769785
0.77216
0.774507
0.776827
0.77912
0.781389
0.783634
0.785859
0.788064
0.790254
0.79243
0.794595
0.796752
0.798903
0.801051
0.803199
0.805348
0.807502
0.809661
0.81183
0.814009
0.816202
0.818412
0.820643
0.822897
0.825179
0.827494
0.829847
0.832244
0.834691
0.837197
0.839767
0.84241
0.845135
0.84795
0.850864
0.853885
0.857022
0.860283
0.863674
0.867201
0.870869
0.87468
0.878634
0.882726
0.886949
0.891292
0.895734
0.900252
0.904811
0.909368
0.913868
0.918245
0.922418
0.926291
0.929753
0.932677
0.934908
0.936289
0.936646
0.935794
0.933538
0.929676
0.924005
0.916324
0.906439
0.894165
0.879333
0.861788
0.841392
0.81802
0.791557
0.761892
0.728917
0.69252
0.652591
0.609029
0.561753
0.510685
0.45565
0.395979
0.329151
0.245174
0.103469
0.0664405
0.187667
0.267081
0.331781
0.389641
0.442799
0.49188
0.537075
0.578474
0.616183
0.65035
0.681163
0.70884
0.733608
0.755692
0.775306
0.792639
0.807857
0.821098
0.832475
0.842077
0.849976
0.85623
0.860889
0.863999
0.865607
0.865821
0.864744
0.862489
0.859177
0.854935
0.849895
0.84419
0.837953
0.831312
0.824389
0.817298
0.810143
0.803018
0.796002
0.789165
0.782564
0.776247
0.770248
0.764595
0.759305
0.75439
0.749855
0.745699
0.741918
0.738504
0.735448
0.732736
0.730356
0.728293
0.726532
0.725056
0.723849
0.722896
0.722181
0.721692
0.721414
0.721335
0.721441
0.721721
0.72216
0.722747
0.723471
0.724319
0.72528
0.726343
0.727499
0.728737
0.730048
0.731423
0.732856
0.734338
0.735865
0.73743
0.73903
0.74066
0.742319
0.744005
0.745718
0.747457
0.749223
0.751019
0.752845
0.754704
0.7566
0.758534
0.76051
0.76253
0.764596
0.76671
0.768874
0.771089
0.773353
0.775667
0.778029
0.780436
0.782885
0.785373
0.787894
0.790446
0.793021
0.795614
0.79822
0.800834
0.803449
0.806061
0.808665
0.811257
0.813832
0.816387
0.818921
0.821431
0.823916
0.826375
0.828809
0.831218
0.833604
0.835967
0.838311
0.840635
0.842944
0.84524
0.847525
0.849801
0.852071
0.854337
0.856602
0.858869
0.861139
0.863415
0.8657
0.867997
0.870308
0.872636
0.874987
0.877363
0.879769
0.882211
0.884694
0.887225
0.889811
0.892459
0.895178
0.897976
0.900862
0.903846
0.906936
0.910143
0.913475
0.916941
0.920549
0.924306
0.928218
0.932287
0.936513
0.940896
0.945427
0.950095
0.954882
0.959764
0.964707
0.969668
0.974592
0.979411
0.984045
0.988397
0.992352
0.99578
0.998531
1.00045
1.00136
1.00109
0.999444
0.996228
0.991247
0.984307
0.975218
0.9638
0.949878
0.933286
0.913862
0.891441
0.865849
0.836899
0.804382
0.768071
0.727727
0.683115
0.634018
0.580222
0.521395
0.456638
0.38296
0.289067
0.129881
0.0664447
0.187675
0.267091
0.331792
0.389652
0.442809
0.49189
0.537084
0.578482
0.61619
0.650355
0.681168
0.708843
0.73361
0.755694
0.775307
0.79264
0.807857
0.821098
0.832474
0.842076
0.849974
0.856228
0.860886
0.863996
0.865605
0.865818
0.864741
0.862486
0.859174
0.854932
0.849892
0.844187
0.83795
0.831309
0.824386
0.817296
0.810141
0.803015
0.795999
0.789162
0.782562
0.776245
0.770246
0.764593
0.759303
0.754388
0.749853
0.745697
0.741916
0.738503
0.735446
0.732735
0.730355
0.728292
0.72653
0.725054
0.723848
0.722894
0.72218
0.72169
0.721413
0.721333
0.72144
0.721719
0.722158
0.722746
0.723469
0.724317
0.725278
0.726342
0.727497
0.728735
0.730046
0.731422
0.732854
0.734337
0.735863
0.737428
0.739028
0.740658
0.742317
0.744004
0.745716
0.747455
0.749222
0.751017
0.752843
0.754703
0.756598
0.758532
0.760508
0.762528
0.764594
0.766708
0.768873
0.771087
0.773351
0.775665
0.778027
0.780434
0.782883
0.785371
0.787893
0.790444
0.793019
0.795612
0.798218
0.800832
0.803447
0.806059
0.808663
0.811254
0.813829
0.816385
0.818919
0.821429
0.823913
0.826373
0.828807
0.831216
0.833602
0.835965
0.838308
0.840633
0.842942
0.845238
0.847522
0.849798
0.852068
0.854335
0.8566
0.858866
0.861137
0.863413
0.865698
0.867994
0.870305
0.872634
0.874984
0.87736
0.879766
0.882208
0.884692
0.887223
0.889809
0.892457
0.895176
0.897974
0.90086
0.903843
0.906933
0.91014
0.913472
0.916938
0.920547
0.924304
0.928215
0.932284
0.936511
0.940893
0.945424
0.950092
0.95488
0.959762
0.964704
0.969665
0.974589
0.979409
0.984043
0.988395
0.99235
0.995778
0.998529
1.00045
1.00136
1.00109
0.999442
0.996227
0.991246
0.984305
0.975217
0.963798
0.949876
0.933285
0.913861
0.891439
0.865848
0.836897
0.80438
0.768069
0.727725
0.683112
0.634015
0.580218
0.521391
0.456633
0.382955
0.289062
0.129877
0.0795069
0.212711
0.298867
0.368118
0.429219
0.48466
0.535238
0.58124
0.622827
0.660168
0.693484
0.723043
0.749152
0.772132
0.792302
0.809966
0.825396
0.838827
0.850456
0.860439
0.868895
0.875909
0.881543
0.885838
0.888825
0.890528
0.891
0.890316
0.888557
0.885814
0.882185
0.877777
0.872699
0.867065
0.860989
0.854581
0.847948
0.841189
0.834394
0.827646
0.821015
0.814564
0.808342
0.802392
0.796745
0.791425
0.78645
0.78183
0.77757
0.77367
0.770126
0.766933
0.764082
0.761562
0.75936
0.757463
0.755858
0.754528
0.75346
0.752636
0.752046
0.751677
0.751515
0.751547
0.751762
0.752147
0.752689
0.753376
0.754197
0.755139
0.756193
0.757347
0.758592
0.759918
0.761316
0.762779
0.764299
0.765869
0.767485
0.769141
0.770834
0.77256
0.774318
0.776106
0.777924
0.779772
0.781651
0.783561
0.785505
0.787485
0.789503
0.79156
0.793659
0.795802
0.79799
0.800223
0.802503
0.804828
0.807199
0.809613
0.812068
0.814561
0.81709
0.819649
0.822235
0.824843
0.827467
0.830104
0.832747
0.835393
0.838036
0.840673
0.843299
0.84591
0.848506
0.851081
0.853637
0.85617
0.85868
0.861169
0.863635
0.866079
0.868504
0.87091
0.873299
0.875674
0.878035
0.880386
0.882729
0.885066
0.887399
0.889731
0.892064
0.8944
0.896742
0.899093
0.901456
0.903834
0.906231
0.90865
0.911097
0.913576
0.916093
0.918654
0.921267
0.923938
0.926675
0.929488
0.932385
0.935376
0.938471
0.94168
0.945013
0.94848
0.952091
0.955855
0.959779
0.963871
0.968135
0.972573
0.977184
0.981962
0.986899
0.991978
0.997175
1.00246
1.00779
1.01312
1.01837
1.02347
1.02833
1.03283
1.03684
1.04023
1.04284
1.04452
1.04508
1.04437
1.04219
1.03836
1.03269
1.02503
1.01517
1.00296
0.988197
0.970703
0.950262
0.926632
0.899532
0.868641
0.833598
0.794017
0.749505
0.699681
0.644159
0.582406
0.513255
0.43324
0.329907
0.154099
0.0795117
0.212719
0.298877
0.36813
0.42923
0.48467
0.535247
0.581248
0.622834
0.660174
0.693488
0.723047
0.749154
0.772133
0.792303
0.809966
0.825395
0.838826
0.850454
0.860437
0.868892
0.875906
0.881539
0.885834
0.888821
0.890524
0.890996
0.890312
0.888553
0.88581
0.882181
0.877773
0.872695
0.867061
0.860985
0.854577
0.847944
0.841185
0.834391
0.827642
0.821012
0.81456
0.808339
0.802388
0.796741
0.791422
0.786447
0.781827
0.777567
0.773667
0.770123
0.76693
0.764079
0.761559
0.759357
0.75746
0.755855
0.754525
0.753457
0.752633
0.752043
0.751674
0.751512
0.751544
0.751759
0.752144
0.752686
0.753373
0.754194
0.755136
0.75619
0.757344
0.758589
0.759915
0.761313
0.762776
0.764296
0.765866
0.767482
0.769138
0.770831
0.772557
0.774315
0.776103
0.777921
0.779769
0.781647
0.783558
0.785502
0.787482
0.789499
0.791557
0.793656
0.795799
0.797986
0.80022
0.802499
0.804825
0.807195
0.809609
0.812064
0.814558
0.817086
0.819646
0.822231
0.824839
0.827464
0.8301
0.832744
0.83539
0.838033
0.840669
0.843295
0.845907
0.848502
0.851078
0.853633
0.856166
0.858677
0.861165
0.863631
0.866076
0.8685
0.870906
0.873295
0.87567
0.878032
0.880383
0.882726
0.885062
0.887396
0.889727
0.89206
0.894396
0.896738
0.899089
0.901452
0.90383
0.906227
0.908646
0.911093
0.913572
0.916089
0.91865
0.921263
0.923934
0.926671
0.929484
0.932381
0.935372
0.938467
0.941676
0.945009
0.948476
0.952087
0.955851
0.959775
0.963867
0.968131
0.972569
0.97718
0.981958
0.986895
0.991974
0.997171
1.00246
1.00779
1.01311
1.01836
1.02347
1.02832
1.03282
1.03684
1.04023
1.04284
1.04451
1.04508
1.04437
1.04218
1.03835
1.03269
1.02502
1.01517
1.00295
0.988194
0.970701
0.95026
0.926629
0.899529
0.868638
0.833595
0.794014
0.749502
0.699678
0.644155
0.582401
0.513249
0.433233
0.3299
0.154094
0.0923367
0.236588
0.328752
0.401934
0.465646
0.522685
0.574009
0.620012
0.660942
0.697049
0.728639
0.756072
0.779752
0.800101
0.817539
0.832463
0.845233
0.856161
0.865504
0.873466
0.880198
0.885806
0.890354
0.89388
0.896397
0.89791
0.898421
0.897968
0.896596
0.894361
0.891327
0.887569
0.883169
0.878217
0.872806
0.867031
0.860987
0.854764
0.848447
0.842115
0.835839
0.829682
0.823697
0.81793
0.812417
0.807188
0.802264
0.797661
0.793389
0.789453
0.785855
0.782591
0.779657
0.777046
0.774747
0.772749
0.771041
0.76961
0.768441
0.76752
0.766835
0.766374
0.766126
0.766078
0.766218
0.766534
0.767013
0.767645
0.768417
0.769318
0.770337
0.771464
0.772688
0.774001
0.775393
0.776857
0.778384
0.779969
0.781605
0.783288
0.785012
0.786775
0.788574
0.790407
0.792273
0.794171
0.796101
0.798064
0.80006
0.802091
0.804157
0.806261
0.808402
0.810583
0.812804
0.815066
0.817369
0.819711
0.822093
0.824512
0.826967
0.829455
0.831972
0.834517
0.837084
0.83967
0.842271
0.844882
0.8475
0.850119
0.852737
0.85535
0.857955
0.860548
0.863127
0.86569
0.868237
0.870765
0.873274
0.875765
0.878237
0.88069
0.883126
0.885546
0.887952
0.890344
0.892725
0.895096
0.89746
0.899818
0.902173
0.904526
0.90688
0.909238
0.911602
0.913974
0.916359
0.91876
0.92118
0.923624
0.926097
0.928604
0.931152
0.933746
0.936394
0.939104
0.941884
0.944743
0.947691
0.950738
0.953895
0.957172
0.96058
0.964131
0.967834
0.9717
0.975739
0.979958
0.984364
0.98896
0.993748
0.998725
1.00388
1.00921
1.01468
1.02028
1.02596
1.03167
1.03735
1.04294
1.04833
1.05343
1.05812
1.06226
1.06572
1.06836
1.07001
1.07052
1.06973
1.06747
1.06358
1.05789
1.05024
1.04043
1.02828
1.01355
0.995987
0.975259
0.950989
0.922727
0.889969
0.852165
0.808746
0.759145
0.702775
0.638875
0.565988
0.480188
0.368003
0.176913
0.0923422
0.236597
0.328764
0.401945
0.465657
0.522695
0.574018
0.62002
0.660948
0.697054
0.728643
0.756075
0.779754
0.800102
0.817539
0.832462
0.845231
0.856158
0.865501
0.873462
0.880194
0.885801
0.89035
0.893875
0.896392
0.897905
0.898416
0.897963
0.896591
0.894356
0.891322
0.887564
0.883164
0.878212
0.872801
0.867027
0.860982
0.854759
0.848442
0.84211
0.835835
0.829678
0.823693
0.817926
0.812413
0.807184
0.80226
0.797657
0.793385
0.789449
0.785851
0.782587
0.779653
0.777042
0.774743
0.772745
0.771037
0.769606
0.768437
0.767515
0.766831
0.76637
0.766122
0.766074
0.766214
0.76653
0.767009
0.767641
0.768413
0.769314
0.770333
0.77146
0.772684
0.773997
0.775389
0.776853
0.77838
0.779965
0.781601
0.783283
0.785008
0.786771
0.78857
0.790403
0.792269
0.794167
0.796097
0.79806
0.800056
0.802086
0.804153
0.806256
0.808398
0.810579
0.8128
0.815062
0.817364
0.819707
0.822088
0.824508
0.826962
0.82945
0.831968
0.834512
0.83708
0.839666
0.842266
0.844878
0.847495
0.850115
0.852733
0.855346
0.85795
0.860543
0.863122
0.865686
0.868232
0.87076
0.87327
0.87576
0.878232
0.880685
0.883122
0.885542
0.887947
0.89034
0.89272
0.895092
0.897455
0.899813
0.902168
0.904521
0.906875
0.909233
0.911597
0.91397
0.916354
0.918755
0.921175
0.923619
0.926092
0.928599
0.931147
0.933741
0.936389
0.939099
0.941879
0.944738
0.947686
0.950733
0.95389
0.957167
0.960575
0.964126
0.967829
0.971695
0.975734
0.979953
0.984359
0.988955
0.993743
0.99872
1.00388
1.00921
1.01468
1.02027
1.02595
1.03166
1.03735
1.04293
1.04833
1.05343
1.05812
1.06226
1.06572
1.06835
1.07001
1.07052
1.06973
1.06747
1.06358
1.05789
1.05023
1.04043
1.02828
1.01355
0.995984
0.975256
0.950986
0.922725
0.889966
0.852161
0.808742
0.759141
0.70277
0.638869
0.565981
0.48018
0.367995
0.176907
0.104834
0.259175
0.356667
0.433199
0.49896
0.557007
0.608455
0.653808
0.69341
0.727604
0.756789
0.781428
0.802024
0.819104
0.833192
0.84478
0.854316
0.86219
0.868723
0.874167
0.87871
0.882475
0.885536
0.887925
0.889643
0.890671
0.890981
0.890559
0.889413
0.887562
0.885033
0.881867
0.878116
0.873842
0.869115
0.864011
0.858609
0.852988
0.847225
0.841393
0.83556
0.829789
0.824133
0.81864
0.81335
0.808297
0.803506
0.798997
0.794786
0.790881
0.787287
0.784007
0.781039
0.778379
0.776019
0.773952
0.772168
0.770655
0.769402
0.768396
0.767624
0.767077
0.766743
0.766612
0.766671
0.76691
0.767316
0.767879
0.768586
0.769428
0.770393
0.771472
0.772654
0.773931
0.775293
0.776733
0.778243
0.779816
0.781446
0.783128
0.784858
0.78663
0.788443
0.790293
0.792178
0.794097
0.79605
0.798035
0.800053
0.802103
0.804187
0.806304
0.808454
0.810639
0.812859
0.815113
0.817401
0.819722
0.822076
0.82446
0.826873
0.829313
0.831778
0.834263