/*--------------------------------*- C++ -*----------------------------------*\
  =========                 |
  \\      /  F ield         | OpenFOAM: The Open Source CFD Toolbox
   \\    /   O peration     | Website:  https://openfoam.org
    \\  /    A nd           | Version:  8
     \\/     M anipulation  |
\*---------------------------------------------------------------------------*/
FoamFile
{
    version     2.0;
    format      ascii;
    class       volScalarField;
    location    "600";
    object      nut;
}
// * * * * * * * * * * * * * * * * * * * * * * * * * * * * * * * * * * * * * //

dimensions      [0 2 -1 0 0 0 0];

internalField   nonuniform List<scalar> 
46000
(
2.82941e-07
1.1967e-06
2.44084e-06
3.87104e-06
5.30277e-06
6.71382e-06
8.0435e-06
9.2799e-06
1.04423e-05
1.15323e-05
1.25492e-05
1.34921e-05
1.43595e-05
1.51502e-05
1.58632e-05
1.64979e-05
1.70539e-05
1.75314e-05
1.79315e-05
1.82555e-05
1.85055e-05
1.86842e-05
1.8795e-05
1.88446e-05
1.88561e-05
1.88213e-05
1.87394e-05
1.86138e-05
1.84495e-05
1.82527e-05
1.80297e-05
1.77869e-05
1.75303e-05
1.72655e-05
1.69976e-05
1.6731e-05
1.64693e-05
1.62156e-05
1.59724e-05
1.57414e-05
1.55239e-05
1.53208e-05
1.51324e-05
1.49588e-05
1.47999e-05
1.46553e-05
1.45244e-05
1.44067e-05
1.43015e-05
1.42081e-05
1.41257e-05
1.40538e-05
1.39915e-05
1.39383e-05
1.38935e-05
1.38565e-05
1.38269e-05
1.38042e-05
1.37895e-05
1.3781e-05
1.3778e-05
1.37799e-05
1.37863e-05
1.3797e-05
1.38116e-05
1.38298e-05
1.38514e-05
1.3876e-05
1.39034e-05
1.39332e-05
1.39653e-05
1.39994e-05
1.40352e-05
1.40725e-05
1.41111e-05
1.41508e-05
1.41915e-05
1.4233e-05
1.42753e-05
1.43182e-05
1.43618e-05
1.4406e-05
1.44509e-05
1.44965e-05
1.45429e-05
1.45901e-05
1.46383e-05
1.46877e-05
1.47383e-05
1.47903e-05
1.48439e-05
1.48992e-05
1.49562e-05
1.50151e-05
1.5076e-05
1.51389e-05
1.52038e-05
1.52706e-05
1.53394e-05
1.541e-05
1.54823e-05
1.55561e-05
1.56313e-05
1.57077e-05
1.5785e-05
1.5863e-05
1.59414e-05
1.60201e-05
1.60988e-05
1.61773e-05
1.62553e-05
1.63328e-05
1.64096e-05
1.64855e-05
1.65604e-05
1.66344e-05
1.67074e-05
1.67793e-05
1.68502e-05
1.69202e-05
1.69894e-05
1.70578e-05
1.71255e-05
1.71927e-05
1.72594e-05
1.73258e-05
1.7392e-05
1.74581e-05
1.75242e-05
1.75903e-05
1.76567e-05
1.77232e-05
1.779e-05
1.78571e-05
1.79246e-05
1.79926e-05
1.80611e-05
1.81301e-05
1.81997e-05
1.827e-05
1.83412e-05
1.84133e-05
1.84865e-05
1.85609e-05
1.86368e-05
1.87143e-05
1.87938e-05
1.88754e-05
1.89594e-05
1.90462e-05
1.91359e-05
1.92289e-05
1.93255e-05
1.9426e-05
1.95306e-05
1.96394e-05
1.97528e-05
1.98708e-05
1.99935e-05
2.01208e-05
2.02526e-05
2.03886e-05
2.05282e-05
2.0671e-05
2.08158e-05
2.09616e-05
2.11068e-05
2.12494e-05
2.13871e-05
2.15169e-05
2.16353e-05
2.17384e-05
2.18218e-05
2.18824e-05
2.19172e-05
2.19167e-05
2.18725e-05
2.17768e-05
2.16212e-05
2.13975e-05
2.10977e-05
2.07137e-05
2.02385e-05
1.96658e-05
1.89909e-05
1.82107e-05
1.73244e-05
1.63334e-05
1.52424e-05
1.40587e-05
1.27933e-05
1.14605e-05
1.00781e-05
8.66612e-06
7.24161e-06
5.77515e-06
4.38423e-06
2.98717e-06
1.66308e-06
4.41993e-07
2.82995e-07
1.1967e-06
2.44091e-06
3.87124e-06
5.30316e-06
6.71441e-06
8.04416e-06
9.28055e-06
1.04429e-05
1.15328e-05
1.25496e-05
1.34923e-05
1.43596e-05
1.51503e-05
1.58633e-05
1.64979e-05
1.70539e-05
1.75315e-05
1.79316e-05
1.82556e-05
1.85057e-05
1.86844e-05
1.87952e-05
1.88448e-05
1.88564e-05
1.88216e-05
1.87397e-05
1.8614e-05
1.84497e-05
1.82529e-05
1.80299e-05
1.77871e-05
1.75305e-05
1.72658e-05
1.69979e-05
1.67312e-05
1.64695e-05
1.62158e-05
1.59726e-05
1.57416e-05
1.55241e-05
1.5321e-05
1.51326e-05
1.4959e-05
1.48001e-05
1.46555e-05
1.45246e-05
1.44069e-05
1.43017e-05
1.42083e-05
1.41259e-05
1.4054e-05
1.39917e-05
1.39384e-05
1.38936e-05
1.38567e-05
1.38271e-05
1.38044e-05
1.37897e-05
1.37812e-05
1.37782e-05
1.37801e-05
1.37865e-05
1.37972e-05
1.38118e-05
1.38301e-05
1.38516e-05
1.38762e-05
1.39036e-05
1.39334e-05
1.39655e-05
1.39996e-05
1.40354e-05
1.40727e-05
1.41113e-05
1.4151e-05
1.41917e-05
1.42332e-05
1.42755e-05
1.43184e-05
1.4362e-05
1.44062e-05
1.44511e-05
1.44967e-05
1.45431e-05
1.45903e-05
1.46385e-05
1.46879e-05
1.47385e-05
1.47906e-05
1.48441e-05
1.48994e-05
1.49564e-05
1.50154e-05
1.50762e-05
1.51391e-05
1.5204e-05
1.52708e-05
1.53396e-05
1.54102e-05
1.54825e-05
1.55563e-05
1.56315e-05
1.57079e-05
1.57852e-05
1.58631e-05
1.59416e-05
1.60203e-05
1.6099e-05
1.61775e-05
1.62555e-05
1.6333e-05
1.64098e-05
1.64857e-05
1.65606e-05
1.66346e-05
1.67076e-05
1.67795e-05
1.68504e-05
1.69204e-05
1.69896e-05
1.7058e-05
1.71257e-05
1.71929e-05
1.72596e-05
1.7326e-05
1.73922e-05
1.74583e-05
1.75244e-05
1.75905e-05
1.76568e-05
1.77234e-05
1.77902e-05
1.78573e-05
1.79248e-05
1.79928e-05
1.80612e-05
1.81302e-05
1.81999e-05
1.82702e-05
1.83414e-05
1.84135e-05
1.84866e-05
1.85611e-05
1.8637e-05
1.87145e-05
1.8794e-05
1.88756e-05
1.89596e-05
1.90463e-05
1.91361e-05
1.92291e-05
1.93257e-05
1.94262e-05
1.95307e-05
1.96396e-05
1.9753e-05
1.9871e-05
1.99937e-05
2.0121e-05
2.02528e-05
2.03887e-05
2.05284e-05
2.06711e-05
2.0816e-05
2.09618e-05
2.11069e-05
2.12496e-05
2.13872e-05
2.1517e-05
2.16355e-05
2.17386e-05
2.1822e-05
2.18825e-05
2.19173e-05
2.19168e-05
2.18727e-05
2.1777e-05
2.16214e-05
2.13977e-05
2.10979e-05
2.07139e-05
2.02387e-05
1.9666e-05
1.89911e-05
1.82109e-05
1.73246e-05
1.63336e-05
1.52426e-05
1.40589e-05
1.27935e-05
1.14606e-05
1.00781e-05
8.66593e-06
7.24118e-06
5.77441e-06
4.38338e-06
2.98616e-06
1.66089e-06
4.41388e-07
1.02767e-06
2.15204e-05
4.09919e-05
5.50838e-05
6.61829e-05
7.5516e-05
8.36171e-05
9.07215e-05
9.69429e-05
0.000102375
0.000107096
0.000111172
0.000114662
0.000117616
0.000120081
0.000122102
0.000123718
0.000124967
0.000125886
0.000126506
0.00012686
0.000126974
0.000126867
0.000126537
0.00012596
0.00012526
0.000124462
0.000123595
0.000122681
0.000121741
0.000120793
0.000119852
0.00011893
0.000118039
0.000117185
0.000116376
0.000115616
0.000114908
0.000114252
0.00011365
0.0001131
0.000112601
0.00011215
0.000111746
0.000111384
0.000111063
0.00011078
0.000110531
0.000110313
0.000110126
0.000109965
0.00010983
0.000109719
0.000109629
0.00010956
0.000109509
0.000109476
0.000109457
0.000109447
0.000109451
0.00010947
0.000109502
0.000109548
0.000109605
0.000109674
0.000109754
0.000109844
0.000109943
0.000110051
0.000110165
0.000110286
0.000110413
0.000110545
0.000110682
0.000110822
0.000110966
0.000111112
0.000111262
0.000111413
0.000111567
0.000111724
0.000111883
0.000112044
0.000112208
0.000112376
0.000112547
0.000112722
0.000112901
0.000113085
0.000113274
0.000113468
0.000113669
0.000113875
0.000114087
0.000114306
0.00011453
0.00011476
0.000114996
0.000115237
0.000115482
0.000115732
0.000115985
0.00011624
0.000116497
0.000116755
0.000117013
0.000117271
0.000117527
0.000117781
0.000118033
0.000118282
0.000118527
0.000118768
0.000119006
0.000119239
0.000119469
0.000119694
0.000119916
0.000120135
0.00012035
0.000120563
0.000120773
0.000120981
0.000121188
0.000121394
0.000121599
0.000121803
0.000122008
0.000122212
0.000122417
0.000122623
0.00012283
0.000123037
0.000123246
0.000123455
0.000123667
0.00012388
0.000124094
0.000124311
0.00012453
0.000124752
0.000124977
0.000125207
0.00012544
0.000125679
0.000125924
0.000126175
0.000126434
0.000126702
0.000126979
0.000127266
0.000127565
0.000127876
0.0001282
0.000128537
0.000128889
0.000129255
0.000129637
0.000130033
0.000130443
0.000130867
0.000131304
0.000131751
0.000132206
0.000132666
0.000133126
0.00013358
0.000134023
0.000134446
0.000134839
0.000135191
0.000135488
0.000135715
0.000135856
0.000135865
0.000135727
0.00013542
0.000134919
0.000134198
0.000133228
0.00013198
0.000130426
0.000128539
0.000126293
0.000123666
0.000120639
0.000117199
0.000113337
0.000109054
0.000104353
9.92472e-05
9.37549e-05
8.78958e-05
8.16821e-05
7.50938e-05
6.80167e-05
5.96093e-05
4.76351e-05
2.65017e-05
1.63493e-06
1.02783e-06
2.15208e-05
4.09925e-05
5.50843e-05
6.61834e-05
7.55166e-05
8.36177e-05
9.07221e-05
9.69436e-05
0.000102376
0.000107097
0.000111173
0.000114662
0.000117616
0.000120082
0.000122102
0.000123718
0.000124967
0.000125886
0.000126506
0.00012686
0.000126974
0.000126867
0.000126537
0.000125961
0.00012526
0.000124463
0.000123595
0.000122681
0.000121741
0.000120793
0.000119852
0.000118931
0.000118039
0.000117186
0.000116377
0.000115616
0.000114908
0.000114252
0.00011365
0.0001131
0.000112601
0.000112151
0.000111746
0.000111385
0.000111064
0.00011078
0.000110531
0.000110314
0.000110126
0.000109966
0.000109831
0.000109719
0.000109629
0.00010956
0.000109509
0.000109476
0.000109457
0.000109447
0.000109452
0.00010947
0.000109502
0.000109548
0.000109605
0.000109675
0.000109755
0.000109845
0.000109944
0.000110051
0.000110165
0.000110286
0.000110413
0.000110545
0.000110682
0.000110822
0.000110966
0.000111112
0.000111262
0.000111413
0.000111568
0.000111724
0.000111883
0.000112044
0.000112209
0.000112376
0.000112547
0.000112722
0.000112901
0.000113085
0.000113274
0.000113468
0.000113669
0.000113875
0.000114087
0.000114306
0.00011453
0.00011476
0.000114996
0.000115237
0.000115483
0.000115732
0.000115985
0.00011624
0.000116497
0.000116755
0.000117013
0.000117271
0.000117527
0.000117782
0.000118033
0.000118282
0.000118527
0.000118768
0.000119006
0.000119239
0.000119469
0.000119694
0.000119916
0.000120135
0.00012035
0.000120563
0.000120773
0.000120981
0.000121188
0.000121394
0.000121599
0.000121803
0.000122008
0.000122212
0.000122418
0.000122623
0.00012283
0.000123037
0.000123246
0.000123456
0.000123667
0.00012388
0.000124094
0.000124311
0.00012453
0.000124752
0.000124977
0.000125207
0.00012544
0.000125679
0.000125924
0.000126175
0.000126434
0.000126702
0.000126979
0.000127266
0.000127565
0.000127876
0.0001282
0.000128537
0.000128889
0.000129255
0.000129637
0.000130033
0.000130443
0.000130867
0.000131304
0.000131751
0.000132206
0.000132666
0.000133126
0.00013358
0.000134023
0.000134446
0.000134839
0.000135191
0.000135488
0.000135715
0.000135856
0.000135866
0.000135727
0.00013542
0.000134919
0.000134198
0.000133228
0.00013198
0.000130427
0.00012854
0.000126294
0.000123666
0.000120639
0.000117199
0.000113338
0.000109054
0.000104353
9.92474e-05
9.37548e-05
8.78951e-05
8.16805e-05
7.50907e-05
6.80117e-05
5.96022e-05
4.76263e-05
2.64958e-05
1.63427e-06
1.89342e-06
3.90337e-05
7.69791e-05
0.000105171
0.000127631
0.000146286
0.000162105
0.000175626
0.000187179
0.000197005
0.000205295
0.000212213
0.000217903
0.0002225
0.000226123
0.000228888
0.000230899
0.000232253
0.000233038
0.000233336
0.000233218
0.000232744
0.000231961
0.000230899
0.000229559
0.000228064
0.000226469
0.000224815
0.000223142
0.000221481
0.000219856
0.000218289
0.000216796
0.000215388
0.000214074
0.000212859
0.000211747
0.000210737
0.000209826
0.000209013
0.000208291
0.000207655
0.000207099
0.000206616
0.0002062
0.000205844
0.000205542
0.000205288
0.000205078
0.000204906
0.000204769
0.000204664
0.000204586
0.000204535
0.000204507
0.0002045
0.000204512
0.000204539
0.000204578
0.000204632
0.000204702
0.000204786
0.000204885
0.000204997
0.000205124
0.000205262
0.000205413
0.000205574
0.000205746
0.000205926
0.000206115
0.000206311
0.000206513
0.000206722
0.000206935
0.000207153
0.000207376
0.000207603
0.000207834
0.00020807
0.000208309
0.000208553
0.000208803
0.000209057
0.000209318
0.000209585
0.000209859
0.000210141
0.000210431
0.000210729
0.000211037
0.000211353
0.000211679
0.000212014
0.000212357
0.000212709
0.000213069
0.000213435
0.000213808
0.000214185
0.000214567
0.000214951
0.000215336
0.000215722
0.000216106
0.000216488
0.000216866
0.000217241
0.00021761
0.000217973
0.000218329
0.000218679
0.000219022
0.000219358
0.000219688
0.000220011
0.000220328
0.000220639
0.000220946
0.000221249
0.000221548
0.000221845
0.000222139
0.000222433
0.000222726
0.000223018
0.000223312
0.000223606
0.000223901
0.000224198
0.000224497
0.000224797
0.0002251
0.000225405
0.000225713
0.000226023
0.000226336
0.000226653
0.000226974
0.000227299
0.000227629
0.000227965
0.000228308
0.000228659
0.000229019
0.000229389
0.000229771
0.000230167
0.000230577
0.000231003
0.000231447
0.00023191
0.000232395
0.000232901
0.00023343
0.000233984
0.000234563
0.000235167
0.000235797
0.000236452
0.00023713
0.00023783
0.000238549
0.000239283
0.000240028
0.000240775
0.000241517
0.000242243
0.000242941
0.000243594
0.000244186
0.000244695
0.000245095
0.000245358
0.000245434
0.000245292
0.000244898
0.000244214
0.000243199
0.000241811
0.000240008
0.000237744
0.000234978
0.000231668
0.000227772
0.000223255
0.000218082
0.000212222
0.000205645
0.000198323
0.000190226
0.000181308
0.000171496
0.000160641
0.000148415
0.000134059
0.000115726
8.94792e-05
4.82716e-05
3.34358e-06
1.89363e-06
3.90345e-05
7.69799e-05
0.000105173
0.000127632
0.000146287
0.000162106
0.000175627
0.00018718
0.000197005
0.000205295
0.000212213
0.000217904
0.0002225
0.000226124
0.000228888
0.000230899
0.000232253
0.000233039
0.000233337
0.000233218
0.000232744
0.000231962
0.0002309
0.000229559
0.000228065
0.000226469
0.000224816
0.000223143
0.000221481
0.000219857
0.00021829
0.000216796
0.000215388
0.000214074
0.00021286
0.000211748
0.000210737
0.000209827
0.000209013
0.000208292
0.000207656
0.0002071
0.000206617
0.0002062
0.000205844
0.000205542
0.000205289
0.000205078
0.000204907
0.00020477
0.000204664
0.000204587
0.000204535
0.000204507
0.0002045
0.000204512
0.00020454
0.000204579
0.000204633
0.000204702
0.000204786
0.000204885
0.000204998
0.000205124
0.000205263
0.000205413
0.000205575
0.000205746
0.000205927
0.000206115
0.000206311
0.000206514
0.000206722
0.000206936
0.000207154
0.000207377
0.000207604
0.000207835
0.00020807
0.00020831
0.000208554
0.000208803
0.000209058
0.000209318
0.000209585
0.00020986
0.000210141
0.000210431
0.00021073
0.000211037
0.000211354
0.00021168
0.000212014
0.000212358
0.00021271
0.000213069
0.000213436
0.000213808
0.000214186
0.000214567
0.000214951
0.000215336
0.000215722
0.000216106
0.000216488
0.000216867
0.000217241
0.00021761
0.000217973
0.00021833
0.00021868
0.000219023
0.000219359
0.000219688
0.000220011
0.000220328
0.00022064
0.000220946
0.000221249
0.000221548
0.000221845
0.00022214
0.000222433
0.000222726
0.000223019
0.000223312
0.000223606
0.000223901
0.000224198
0.000224497
0.000224798
0.0002251
0.000225405
0.000225713
0.000226023
0.000226337
0.000226653
0.000226974
0.000227299
0.000227629
0.000227965
0.000228308
0.000228659
0.000229019
0.000229389
0.000229771
0.000230167
0.000230577
0.000231003
0.000231447
0.000231911
0.000232395
0.000232901
0.000233431
0.000233984
0.000234563
0.000235168
0.000235797
0.000236452
0.00023713
0.00023783
0.000238549
0.000239284
0.000240028
0.000240775
0.000241517
0.000242243
0.000242941
0.000243594
0.000244186
0.000244695
0.000245096
0.000245358
0.000245434
0.000245293
0.000244898
0.000244214
0.000243199
0.000241812
0.000240008
0.000237745
0.000234979
0.000231668
0.000227773
0.000223256
0.000218083
0.000212222
0.000205646
0.000198324
0.000190226
0.000181308
0.000171496
0.000160641
0.000148414
0.000134058
0.000115724
8.9477e-05
4.82704e-05
3.34258e-06
2.81281e-06
4.89642e-05
9.93992e-05
0.000138831
0.000170687
0.000197217
0.000219668
0.000238783
0.000255046
0.000268805
0.000280337
0.000289876
0.000297633
0.000303801
0.000308561
0.000312085
0.000314532
0.000316051
0.00031678
0.000316843
0.00031635
0.000315396
0.00031406
0.000312403
0.000310462
0.000308343
0.000306117
0.000303843
0.000301568
0.000299328
0.000297157
0.000295079
0.000293112
0.000291272
0.000289565
0.000288
0.000286575
0.000285292
0.000284145
0.00028313
0.000282238
0.000281462
0.000280792
0.00028022
0.000279735
0.000279329
0.000278993
0.00027872
0.000278501
0.000278331
0.000278203
0.000278114
0.000278058
0.000278033
0.000278034
0.000278059
0.000278105
0.00027817
0.000278248
0.000278343
0.000278454
0.000278581
0.000278723
0.00027888
0.000279051
0.000279235
0.000279433
0.000279642
0.000279862
0.000280092
0.000280332
0.00028058
0.000280836
0.000281099
0.000281368
0.000281643
0.000281925
0.000282212
0.000282505
0.000282803
0.000283108
0.00028342
0.000283738
0.000284064
0.000284399
0.000284742
0.000285095
0.000285458
0.000285831
0.000286216
0.000286611
0.000287018
0.000287436
0.000287865
0.000288304
0.000288753
0.00028921
0.000289675
0.000290146
0.000290621
0.0002911
0.000291581
0.000292061
0.00029254
0.000293016
0.000293487
0.000293953
0.000294411
0.000294862
0.000295305
0.000295738
0.000296162
0.000296577
0.000296984
0.000297381
0.00029777
0.000298152
0.000298528
0.000298898
0.000299263
0.000299624
0.000299983
0.00030034
0.000300696
0.000301052
0.000301408
0.000301766
0.000302126
0.000302487
0.000302851
0.000303218
0.000303588
0.000303961
0.000304338
0.000304718
0.000305102
0.000305491
0.000305884
0.000306283
0.000306689
0.000307101
0.000307522
0.000307953
0.000308395
0.000308849
0.000309317
0.000309802
0.000310305
0.000310828
0.000311373
0.000311943
0.000312539
0.000313163
0.000313818
0.000314504
0.000315225
0.000315979
0.000316769
0.000317595
0.000318456
0.000319352
0.000320279
0.000321235
0.000322216
0.000323214
0.000324223
0.000325231
0.000326225
0.00032719
0.000328107
0.000328953
0.000329703
0.000330325
0.000330778
0.000331019
0.000331006
0.000330696
0.000330042
0.000328994
0.0003275
0.000325506
0.000322958
0.000319798
0.00031597
0.000311417
0.000306079
0.000299897
0.000292807
0.00028474
0.000275613
0.000265328
0.000253744
0.00024065
0.000225686
0.000208188
0.000186868
0.000159182
0.000120397
6.36671e-05
5.25162e-06
2.81297e-06
4.89651e-05
9.94001e-05
0.000138832
0.000170689
0.000197218
0.000219669
0.000238784
0.000255047
0.000268806
0.000280338
0.000289877
0.000297634
0.000303802
0.000308562
0.000312086
0.000314532
0.000316052
0.000316781
0.000316843
0.00031635
0.000315397
0.000314061
0.000312404
0.000310463
0.000308344
0.000306118
0.000303845
0.000301569
0.00029933
0.000297159
0.00029508
0.000293114
0.000291273
0.000289567
0.000288001
0.000286577
0.000285293
0.000284147
0.000283131
0.00028224
0.000281463
0.000280794
0.000280221
0.000279736
0.00027933
0.000278995
0.000278721
0.000278502
0.000278332
0.000278205
0.000278115
0.00027806
0.000278034
0.000278035
0.000278061
0.000278107
0.000278171
0.00027825
0.000278345
0.000278456
0.000278582
0.000278724
0.000278881
0.000279052
0.000279237
0.000279434
0.000279643
0.000279863
0.000280094
0.000280333
0.000280581
0.000280837
0.0002811
0.000281369
0.000281645
0.000281926
0.000282213
0.000282506
0.000282805
0.00028311
0.000283421
0.000283739
0.000284066
0.0002844
0.000284743
0.000285096
0.000285459
0.000285832
0.000286217
0.000286612
0.000287019
0.000287437
0.000287866
0.000288305
0.000288754
0.000289211
0.000289676
0.000290147
0.000290622
0.000291101
0.000291582
0.000292062
0.000292541
0.000293017
0.000293488
0.000293954
0.000294412
0.000294863
0.000295306
0.000295739
0.000296163
0.000296579
0.000296985
0.000297382
0.000297771
0.000298153
0.000298529
0.000298899
0.000299264
0.000299625
0.000299984
0.000300341
0.000300697
0.000301053
0.00030141
0.000301767
0.000302127
0.000302488
0.000302852
0.000303219
0.000303589
0.000303962
0.000304339
0.000304719
0.000305103
0.000305492
0.000305885
0.000306284
0.00030669
0.000307102
0.000307523
0.000307954
0.000308395
0.00030885
0.000309318
0.000309803
0.000310306
0.000310829
0.000311374
0.000311944
0.00031254
0.000313164
0.000313819
0.000314505
0.000315225
0.00031598
0.00031677
0.000317596
0.000318457
0.000319352
0.00032028
0.000321236
0.000322216
0.000323215
0.000324223
0.000325231
0.000326225
0.000327191
0.000328107
0.000328954
0.000329703
0.000330326
0.000330779
0.00033102
0.000331007
0.000330697
0.000330043
0.000328995
0.000327501
0.000325507
0.000322959
0.000319799
0.000315972
0.000311418
0.000306081
0.000299899
0.000292809
0.000284741
0.000275615
0.000265329
0.000253745
0.000240651
0.000225687
0.000208189
0.000186868
0.000159182
0.000120396
6.3667e-05
5.25117e-06
3.72103e-06
5.59083e-05
0.000114921
0.000162636
0.000201685
0.000234375
0.000262108
0.000285757
0.0003059
0.000322956
0.000337257
0.000349082
0.000358681
0.00036629
0.000372129
0.000376411
0.000379336
0.000381096
0.000381868
0.000381812
0.000381075
0.000379782
0.000378042
0.000375944
0.000373559
0.000370958
0.000368253
0.000365505
0.000362767
0.000360084
0.000357489
0.00035501
0.000352669
0.00035048
0.000348453
0.000346594
0.000344904
0.000343381
0.000342021
0.000340817
0.00033976
0.000338841
0.000338049
0.000337372
0.000336802
0.000336325
0.000335933
0.000335616
0.000335365
0.000335173
0.000335031
0.000334935
0.000334879
0.000334858
0.000334868
0.000334906
0.000334968
0.000335051
0.000335152
0.000335272
0.000335408
0.000335562
0.000335733
0.000335919
0.000336121
0.000336337
0.000336567
0.000336811
0.000337066
0.000337333
0.00033761
0.000337897
0.000338193
0.000338498
0.00033881
0.00033913
0.000339458
0.000339792
0.000340134
0.000340484
0.000340841
0.000341207
0.000341581
0.000341965
0.000342359
0.000342764
0.00034318
0.000343607
0.000344047
0.000344499
0.000344964
0.000345441
0.00034593
0.000346431
0.000346943
0.000347465
0.000347995
0.000348533
0.000349076
0.000349624
0.000350173
0.000350724
0.000351273
0.000351819
0.000352361
0.000352896
0.000353424
0.000353944
0.000354453
0.000354953
0.000355442
0.00035592
0.000356388
0.000356845
0.000357293
0.000357731
0.000358162
0.000358585
0.000359002
0.000359414
0.000359823
0.000360228
0.000360632
0.000361036
0.000361439
0.000361844
0.000362251
0.00036266
0.000363071
0.000363486
0.000363905
0.000364327
0.000364754
0.000365184
0.00036562
0.00036606
0.000366507
0.000366959
0.000367419
0.000367886
0.000368363
0.00036885
0.000369349
0.000369862
0.000370391
0.000370938
0.000371505
0.000372094
0.000372708
0.000373349
0.00037402
0.000374725
0.000375464
0.000376241
0.000377057
0.000377916
0.000378818
0.000379765
0.000380758
0.000381796
0.00038288
0.000384006
0.000385172
0.000386373
0.000387602
0.000388851
0.000390107
0.000391358
0.000392586
0.000393768
0.000394881
0.000395894
0.000396775
0.000397476
0.000397956
0.000398169
0.000398066
0.000397594
0.000396696
0.000395315
0.000393388
0.000390851
0.000387634
0.000383668
0.000378875
0.000373174
0.000366476
0.00035868
0.000349669
0.000339302
0.000327399
0.00031372
0.000297911
0.000279415
0.00025729
0.00022987
0.000194161
0.00014502
7.59743e-05
7.13204e-06
3.72124e-06
5.59093e-05
0.000114922
0.000162637
0.000201687
0.000234376
0.00026211
0.000285758
0.000305901
0.000322957
0.000337258
0.000349083
0.000358682
0.000366291
0.00037213
0.000376412
0.000379337
0.000381097
0.000381869
0.000381813
0.000381076
0.000379783
0.000378043
0.000375945
0.000373561
0.000370959
0.000368254
0.000365506
0.000362769
0.000360085
0.00035749
0.000355012
0.00035267
0.000350481
0.000348455
0.000346596
0.000344906
0.000343383
0.000342023
0.000340819
0.000339762
0.000338842
0.00033805
0.000337374
0.000336803
0.000336327
0.000335935
0.000335618
0.000335367
0.000335174
0.000335033
0.000334937
0.00033488
0.000334859
0.00033487
0.000334907
0.00033497
0.000335053
0.000335154
0.000335273
0.00033541
0.000335564
0.000335734
0.000335921
0.000336122
0.000336339
0.000336569
0.000336812
0.000337068
0.000337334
0.000337612
0.000337899
0.000338195
0.000338499
0.000338812
0.000339132
0.000339459
0.000339794
0.000340136
0.000340485
0.000340843
0.000341208
0.000341583
0.000341967
0.000342361
0.000342765
0.000343181
0.000343609
0.000344049
0.000344501
0.000344965
0.000345443
0.000345932
0.000346433
0.000346944
0.000347466
0.000347996
0.000348534
0.000349077
0.000349625
0.000350175
0.000350725
0.000351275
0.000351821
0.000352362
0.000352898
0.000353426
0.000353945
0.000354455
0.000354954
0.000355444
0.000355922
0.000356389
0.000356847
0.000357294
0.000357733
0.000358163
0.000358586
0.000359003
0.000359416
0.000359824
0.00036023
0.000360634
0.000361037
0.000361441
0.000361846
0.000362252
0.000362661
0.000363073
0.000363488
0.000363906
0.000364328
0.000364755
0.000365186
0.000365621
0.000366062
0.000366508
0.00036696
0.00036742
0.000367887
0.000368364
0.000368851
0.000369351
0.000369864
0.000370392
0.000370939
0.000371506
0.000372095
0.000372709
0.00037335
0.000374021
0.000374726
0.000375465
0.000376242
0.000377058
0.000377917
0.000378819
0.000379766
0.000380759
0.000381797
0.00038288
0.000384007
0.000385173
0.000386373
0.000387603
0.000388851
0.000390108
0.000391359
0.000392586
0.000393769
0.000394882
0.000395895
0.000396776
0.000397477
0.000397957
0.00039817
0.000398067
0.000397595
0.000396698
0.000395317
0.00039339
0.000390852
0.000387636
0.000383669
0.000378876
0.000373176
0.000366478
0.000358682
0.000349671
0.000339303
0.000327401
0.000313722
0.000297912
0.000279416
0.000257291
0.00022987
0.000194161
0.00014502
7.59743e-05
7.1318e-06
4.66073e-06
6.17168e-05
0.000127052
0.000180914
0.000225397
0.0002628
0.000294618
0.000321807
0.000345009
0.000364694
0.000381226
0.000394916
0.000406041
0.000414859
0.000421619
0.000426561
0.000429917
0.000431907
0.00043274
0.000432609
0.000431688
0.000430132
0.000428074
0.000425626
0.00042288
0.000419911
0.000416834
0.00041372
0.000410625
0.000407599
0.000404678
0.000401891
0.000399259
0.000396799
0.000394519
0.000392425
0.000390518
0.000388795
0.000387253
0.000385882
0.000384675
0.000383621
0.000382709
0.000381927
0.000381263
0.000380706
0.000380245
0.000379869
0.000379568
0.000379335
0.000379161
0.00037904
0.000378964
0.000378929
0.000378931
0.000378964
0.000379025
0.000379111
0.000379218
0.000379346
0.000379493
0.00037966
0.000379844
0.000380047
0.000380266
0.000380501
0.000380752
0.000381017
0.000381295
0.000381587
0.00038189
0.000382205
0.000382531
0.000382866
0.000383211
0.000383565
0.000383929
0.000384301
0.000384682
0.000385072
0.000385472
0.000385882
0.000386302
0.000386733
0.000387176
0.00038763
0.000388097
0.000388576
0.000389069
0.000389574
0.000390093
0.000390625
0.000391169
0.000391725
0.000392291
0.000392867
0.000393452
0.000394043
0.000394639
0.000395238
0.000395838
0.000396438
0.000397035
0.000397628
0.000398216
0.000398795
0.000399366
0.000399928
0.000400478
0.000401018
0.000401545
0.000402061
0.000402566
0.00040306
0.000403543
0.000404018
0.000404483
0.000404941
0.000405394
0.000405841
0.000406284
0.000406725
0.000407165
0.000407604
0.000408044
0.000408485
0.000408929
0.000409375
0.000409825
0.000410279
0.000410736
0.000411198
0.000411665
0.000412137
0.000412615
0.000413098
0.000413588
0.000414086
0.000414593
0.000415108
0.000415635
0.000416175
0.000416728
0.000417298
0.000417886
0.000418496
0.000419129
0.000419788
0.000420476
0.000421196
0.000421952
0.000422746
0.000423581
0.000424461
0.000425388
0.000426365
0.000427394
0.000428478
0.000429616
0.000430812
0.000432063
0.000433368
0.000434725
0.00043613
0.000437575
0.000439052
0.00044055
0.000442053
0.000443544
0.000445001
0.000446396
0.000447699
0.000448874
0.000449877
0.000450662
0.000451183
0.000451388
0.000451221
0.000450621
0.000449525
0.000447864
0.000445564
0.000442547
0.000438725
0.000434004
0.000428276
0.000421421
0.000413296
0.000403735
0.000392534
0.000379433
0.000364091
0.000346024
0.000324503
0.000298369
0.000265683
0.000223149
0.000165408
8.63608e-05
8.96356e-06
4.66102e-06
6.1718e-05
0.000127053
0.000180916
0.000225398
0.000262802
0.00029462
0.000321808
0.00034501
0.000364695
0.000381227
0.000394917
0.000406041
0.00041486
0.00042162
0.000426562
0.000429918
0.000431908
0.000432741
0.00043261
0.000431689
0.000430134
0.000428075
0.000425627
0.000422881
0.000419913
0.000416836
0.000413721
0.000410627
0.000407601
0.000404679
0.000401892
0.000399261
0.0003968
0.00039452
0.000392426
0.000390519
0.000388797
0.000387254
0.000385884
0.000384677
0.000383623
0.000382711
0.000381928
0.000381265
0.000380708
0.000380246
0.00037987
0.00037957
0.000379337
0.000379163
0.000379042
0.000378966
0.000378931
0.000378932
0.000378965
0.000379027
0.000379112
0.00037922
0.000379348
0.000379495
0.000379662
0.000379846
0.000380049
0.000380268
0.000380503
0.000380753
0.000381018
0.000381297
0.000381589
0.000381892
0.000382207
0.000382532
0.000382868
0.000383213
0.000383567
0.00038393
0.000384303
0.000384684
0.000385074
0.000385474
0.000385884
0.000386304
0.000386735
0.000387177
0.000387631
0.000388098
0.000388578
0.00038907
0.000389576
0.000390095
0.000390627
0.000391171
0.000391727
0.000392293
0.000392869
0.000393453
0.000394044
0.00039464
0.000395239
0.00039584
0.000396439
0.000397037
0.00039763
0.000398217
0.000398797
0.000399368
0.000399929
0.00040048
0.000401019
0.000401547
0.000402063
0.000402568
0.000403061
0.000403545
0.000404019
0.000404485
0.000404943
0.000405395
0.000405842
0.000406286
0.000406727
0.000407166
0.000407606
0.000408045
0.000408487
0.00040893
0.000409377
0.000409826
0.00041028
0.000410737
0.000411199
0.000411666
0.000412138
0.000412616
0.000413099
0.00041359
0.000414088
0.000414594
0.00041511
0.000415636
0.000416176
0.000416729
0.000417299
0.000417888
0.000418497
0.00041913
0.000419789
0.000420477
0.000421197
0.000421953
0.000422747
0.000423582
0.000424462
0.000425389
0.000426366
0.000427395
0.000428478
0.000429617
0.000430812
0.000432063
0.000433369
0.000434726
0.000436131
0.000437576
0.000439053
0.000440551
0.000442054
0.000443545
0.000445001
0.000446397
0.0004477
0.000448875
0.000449878
0.000450663
0.000451185
0.000451389
0.000451222
0.000450623
0.000449527
0.000447866
0.000445566
0.000442549
0.000438727
0.000434006
0.000428278
0.000421423
0.000413298
0.000403737
0.000392536
0.000379435
0.000364093
0.000346025
0.000324505
0.00029837
0.000265683
0.000223149
0.000165409
8.63607e-05
8.96332e-06
5.58828e-06
6.70724e-05
0.000137375
0.000195911
0.000244513
0.000285493
0.000320409
0.000350283
0.00037581
0.000397494
0.000415729
0.000430847
0.000443142
0.000452891
0.000460359
0.000465803
0.000469478
0.000471625
0.000472478
0.000472255
0.000471154
0.000469354
0.000467009
0.000464251
0.00046119
0.00045791
0.000454523
0.000451108
0.000447725
0.000444426
0.000441248
0.00043822
0.000435362
0.000432691
0.000430213
0.000427934
0.000425854
0.00042397
0.000422276
0.000420766
0.000419428
0.000418253
0.00041723
0.000416346
0.000415589
0.000414949
0.000414412
0.000413969
0.00041361
0.000413325
0.000413106
0.000412945
0.000412837
0.000412774
0.000412752
0.000412766
0.000412812
0.000412887
0.000412987
0.000413109
0.000413254
0.00041342
0.000413607
0.000413813
0.000414038