/*--------------------------------*- C++ -*----------------------------------*\
  =========                 |
  \\      /  F ield         | OpenFOAM: The Open Source CFD Toolbox
   \\    /   O peration     | Website:  https://openfoam.org
    \\  /    A nd           | Version:  8
     \\/     M anipulation  |
\*---------------------------------------------------------------------------*/
FoamFile
{
    version     2.0;
    format      ascii;
    class       surfaceScalarField;
    location    "600";
    object      phi;
}
// * * * * * * * * * * * * * * * * * * * * * * * * * * * * * * * * * * * * * //

dimensions      [1 0 -1 0 0 0 0];

internalField   nonuniform List<scalar> 
114370
(
-3.00618e-09
-6.80999e-14
3.00625e-09
-5.14508e-09
-5.41364e-13
2.14607e-09
-5.40845e-09
-4.63235e-13
2.64125e-10
-3.93517e-09
-2.65171e-13
-1.47282e-09
-1.23486e-09
-1.06232e-13
-2.6999e-09
2.23951e-09
4.46543e-14
-3.4733e-09
6.13174e-09
1.13592e-13
-3.89088e-09
1.02011e-08
9.94523e-14
-4.06809e-09
1.42871e-08
4.72239e-14
-4.08494e-09
1.82754e-08
-1.52273e-14
-3.98751e-09
2.20839e-08
-7.53567e-14
-3.80781e-09
2.56529e-08
-1.26701e-13
-3.56865e-09
2.89402e-08
-1.64375e-13
-3.28705e-09
3.19166e-08
-1.84985e-13
-2.9763e-09
3.45638e-08
-1.87733e-13
-2.64719e-09
3.68725e-08
-1.74779e-13
-2.30874e-09
3.88411e-08
-1.50465e-13
-1.96861e-09
4.04744e-08
-1.20143e-13
-1.63336e-09
4.17829e-08
-8.84339e-14
-1.30857e-09
4.27818e-08
-5.78999e-14
-9.98988e-10
4.34902e-08
-2.93317e-14
-7.08581e-10
4.39308e-08
-2.84645e-15
-4.40693e-10
4.41288e-08
2.12941e-14
-1.98092e-10
4.41115e-08
4.24536e-14
1.72548e-11
4.39052e-08
5.98479e-14
2.06203e-10
4.35349e-08
7.2994e-14
3.70196e-10
4.30256e-08
8.18142e-14
5.09229e-10
4.24016e-08
8.65973e-14
6.2391e-10
4.16863e-08
8.79448e-14
7.15202e-10
4.09018e-08
8.66091e-14
7.84366e-10
4.00688e-08
8.32493e-14
8.32932e-10
3.92061e-08
7.83813e-14
8.62642e-10
3.83306e-08
7.25072e-14
8.75391e-10
3.74573e-08
6.61926e-14
8.73176e-10
3.65992e-08
5.99497e-14
8.58037e-10
3.57671e-08
5.40775e-14
8.32007e-10
3.497e-08
4.86368e-14
7.97067e-10
3.42148e-08
4.36268e-14
7.5511e-10
3.35068e-08
3.91239e-14
7.07904e-10
3.28496e-08
3.52332e-14
6.57073e-10
3.22455e-08
3.19047e-14
6.04074e-10
3.16952e-08
2.88633e-14
5.50188e-10
3.11986e-08
2.57191e-14
4.9651e-10
3.07546e-08
2.21931e-14
4.43955e-10
3.03613e-08
1.83098e-14
3.93258e-10
3.00162e-08
1.43965e-14
3.44987e-10
2.97165e-08
1.0892e-14
2.99555e-10
2.94592e-08
8.08508e-15
2.57236e-10
2.9241e-08
5.95924e-15
2.1818e-10
2.90584e-08
4.23021e-15
1.82433e-10
2.89084e-08
2.51266e-15
1.49952e-10
2.87876e-08
5.14302e-16
1.20627e-10
2.86932e-08
-1.83209e-15
9.42914e-11
2.86224e-08
-4.36758e-15
7.07409e-11
2.85725e-08
-6.77623e-15
4.9739e-11
2.85413e-08
-8.71911e-15
3.10264e-11
2.85269e-08
-9.86142e-15
1.43306e-11
2.85273e-08
-9.67433e-15
-5.99378e-13
2.8541e-08
-8.0244e-15
-1.37856e-11
2.85661e-08
-5.25707e-15
-2.52712e-11
2.86012e-08
-1.68461e-15
-3.52846e-11
2.86451e-08
2.22026e-15
-4.40021e-11
2.86965e-08
5.85711e-15
-5.15742e-11
2.87545e-08
8.62421e-15
-5.81269e-11
2.88181e-08
1.00688e-14
-6.37634e-11
2.88866e-08
1.00087e-14
-6.85665e-11
2.89591e-08
8.6081e-15
-7.26021e-11
2.90348e-08
6.37983e-15
-7.59231e-11
2.91133e-08
4.07415e-15
-7.85717e-11
2.91937e-08
2.44025e-15
-8.05837e-11
2.92756e-08
1.97816e-15
-8.1991e-11
2.93582e-08
2.80629e-15
-8.2825e-11
2.94412e-08
4.6308e-15
-8.3119e-11
2.95239e-08
6.77775e-15
-8.29108e-11
2.9606e-08
8.429e-15
-8.22445e-11
2.96871e-08
8.92295e-15
-8.11719e-11
2.97667e-08
7.92872e-15
-7.97521e-11
2.98447e-08
5.50463e-15
-7.80517e-11
2.99207e-08
2.16222e-15
-7.61441e-11
2.99947e-08
-1.22486e-15
-7.41087e-11
3.00667e-08
-3.72983e-15
-7.20286e-11
3.01366e-08
-4.67786e-15
-6.99901e-11
3.02045e-08
-3.75542e-15
-6.80806e-11
3.02708e-08
-1.0642e-15
-6.63874e-11
3.03357e-08
2.83916e-15
-6.49954e-11
3.03996e-08
7.10985e-15
-6.39852e-11
3.0463e-08
1.09132e-14
-6.34301e-11
3.05263e-08
1.36571e-14
-6.33935e-11
3.05901e-08
1.50447e-14
-6.39266e-11
3.06551e-08
1.50915e-14
-6.50654e-11
3.07218e-08
1.41027e-14
-6.68291e-11
3.0791e-08
1.24794e-14
-6.92187e-11
3.08631e-08
1.05422e-14
-7.22166e-11
3.09388e-08
8.49112e-15
-7.57864e-11
3.10186e-08
6.45717e-15
-7.98739e-11
3.1103e-08
4.49152e-15
-8.44078e-11
3.11922e-08
2.57379e-15
-8.93017e-11
3.12866e-08
7.0592e-16
-9.4456e-11
3.13863e-08
-9.83928e-16
-9.97606e-11
3.14914e-08
-2.30298e-15
-1.05098e-10
3.16017e-08
-3.10921e-15
-1.10346e-10
3.1717e-08
-3.36855e-15
-1.15385e-10
3.18371e-08
-3.14586e-15
-1.20097e-10
3.19614e-08
-2.60179e-15
-1.24375e-10
3.20894e-08
-2.00048e-15
-1.28122e-10
3.22206e-08
-1.61947e-15
-1.31259e-10
3.23543e-08
-1.62878e-15
-1.33723e-10
3.24897e-08
-2.05139e-15
-1.35475e-10
3.26262e-08
-2.76934e-15
-1.36491e-10
3.27629e-08
-3.57967e-15
-1.36772e-10
3.28992e-08
-4.22196e-15
-1.36339e-10
3.30345e-08
-4.45268e-15
-1.35229e-10
3.3168e-08
-4.1348e-15
-1.33501e-10
3.32992e-08
-3.26876e-15
-1.31224e-10
3.34276e-08
-1.94019e-15
-1.28484e-10
3.3553e-08
-2.56875e-16
-1.25377e-10
3.3675e-08
1.66843e-15
-1.22001e-10
3.37935e-08
3.69089e-15
-1.1846e-10
3.39083e-08
5.62227e-15
-1.14857e-10
3.40196e-08
7.249e-15
-1.11287e-10
3.41274e-08
8.37157e-15
-1.07841e-10
3.4232e-08
8.83561e-15
-1.04597e-10
3.43336e-08
8.59166e-15
-1.01622e-10
3.44325e-08
7.74966e-15
-9.89671e-11
3.45292e-08
6.5681e-15
-9.66704e-11
3.46239e-08
5.38003e-15
-9.47539e-11
3.47171e-08
4.45173e-15
-9.32243e-11
3.48092e-08
3.88513e-15
-9.20747e-11
3.49005e-08
3.59001e-15
-9.12858e-11
3.49913e-08
3.36384e-15
-9.08286e-11
3.50819e-08
3.01103e-15
-9.06661e-11
3.51727e-08
2.46632e-15
-9.07556e-11
3.52638e-08
1.8136e-15
-9.10515e-11
3.53553e-08
1.21337e-15
-9.15078e-11
3.54474e-08
7.54082e-16
-9.20809e-11
3.55401e-08
3.46629e-16
-9.27324e-11
3.56335e-08
-2.24749e-16
-9.34309e-11
3.57277e-08
-1.13027e-15
-9.41539e-11
3.58226e-08
-2.30489e-15
-9.48878e-11
3.59182e-08
-3.42877e-15
-9.56291e-11
3.60146e-08
-4.12112e-15
-9.63844e-11
3.61118e-08
-4.22584e-15
-9.717e-11
3.62098e-08
-3.93981e-15
-9.80114e-11
3.63087e-08
-3.67222e-15
-9.89412e-11
3.64087e-08
-3.70323e-15
-9.99973e-11
3.651e-08
-3.9281e-15
-1.01219e-10
3.66126e-08
-3.92442e-15
-1.02646e-10
3.67169e-08
-3.30318e-15
-1.04314e-10
3.68232e-08
-2.01884e-15
-1.06254e-10
3.69317e-08
-3.81907e-16
-1.08491e-10
3.70427e-08
1.22033e-15
-1.11038e-10
3.71566e-08
2.57297e-15
-1.13898e-10
3.72736e-08
3.62897e-15
-1.17058e-10
3.73941e-08
4.3365e-15
-1.20492e-10
3.75182e-08
4.54075e-15
-1.24158e-10
3.76462e-08
4.09425e-15
-1.27996e-10
3.77781e-08
3.0315e-15
-1.31928e-10
3.7914e-08
1.62679e-15
-1.35851e-10
3.80536e-08
2.32504e-16
-1.39644e-10
3.81967e-08
-9.35391e-16
-1.43161e-10
3.83429e-08
-1.86496e-15
-1.46234e-10
3.84916e-08
-2.54885e-15
-1.48669e-10
3.86418e-08
-2.7366e-15
-1.50236e-10
3.87925e-08
-2.02232e-15
-1.50668e-10
3.89421e-08
-3.41577e-16
-1.49653e-10
3.90889e-08
1.65294e-15
-1.46829e-10
3.92307e-08
2.89112e-15
-1.41774e-10
3.93647e-08
2.73697e-15
-1.34e-10
3.94876e-08
1.5897e-15
-1.22933e-10
3.95955e-08
6.33023e-16
-1.07908e-10
3.96837e-08
1.03356e-15
-8.8153e-11
3.97464e-08
3.20763e-15
-6.27737e-11
3.97771e-08
6.66602e-15
-3.07052e-11
3.97679e-08
1.04082e-14
9.19638e-12
3.97092e-08
1.33651e-14
5.87434e-11
3.95891e-08
1.4901e-14
1.20146e-10
3.93937e-08
1.4913e-14
1.95414e-10
3.9107e-08
1.34462e-14
2.86737e-10
3.87106e-08
1.06263e-14
3.96467e-10
3.81836e-08
6.99426e-15
5.27064e-10
3.75026e-08
3.57366e-15
6.81001e-10
3.66421e-08
1.30384e-15
8.60642e-10
3.55741e-08
3.49384e-16
1.06805e-09
3.42694e-08
1.9014e-17
1.30476e-09
3.26981e-08
-3.91351e-16
1.57142e-09
3.08308e-08
4.82995e-17
1.86744e-09
2.86404e-08
4.69487e-15
2.19044e-09
2.61049e-08
1.65009e-14
2.53559e-09
2.32102e-08
3.18878e-14
2.89473e-09
1.99551e-08
3.74674e-14
3.25515e-09
1.63573e-08
1.36252e-14
3.59788e-09
1.24624e-08
-6.05645e-14
3.89501e-09
8.35717e-09
-2.06442e-13
4.10548e-09
4.19064e-09
-4.49238e-13
4.16685e-09
2.0493e-10
-8.34254e-13
3.98616e-09
-3.17293e-09
-1.37719e-12
3.37841e-09
-5.3529e-09
-2.03279e-12
2.18031e-09
-5.64e-09
-2.98582e-12
2.86932e-10
-3.61903e-09
-4.4845e-12
-2.0215e-09
-5.75387e-12
-3.61765e-09
-3.00765e-09
3.00746e-09
-5.14518e-09
2.1464e-09
-5.40771e-09
2.64034e-10
-3.934e-09
-1.47353e-09
-1.23357e-09
-2.70117e-09
2.24051e-09
-3.4749e-09
6.1323e-09
-3.89242e-09
1.02013e-08
-4.06929e-09
1.42871e-08
-4.08567e-09
1.82754e-08
-3.98775e-09
2.20838e-08
-3.80761e-09
2.56529e-08
-3.56813e-09
2.89403e-08
-3.28634e-09
3.19168e-08
-2.97551e-09
3.45641e-08
-2.64643e-09
3.68729e-08
-2.30807e-09
3.88415e-08
-1.96806e-09
4.04748e-08
-1.63295e-09
4.17832e-08
-1.3083e-09
4.27821e-08
-9.98842e-10
4.34906e-08
-7.08551e-10
4.39311e-08
-4.40768e-10
4.41291e-08
-1.98258e-10
4.41117e-08
1.70127e-11
4.39054e-08
2.05901e-10
4.3535e-08
3.69849e-10
4.30257e-08
5.08853e-10
4.24017e-08
6.23519e-10
4.16863e-08
7.14805e-10
4.09019e-08
7.83974e-10
4.00688e-08
8.32551e-10
3.92061e-08
8.62277e-10
3.83306e-08
8.75046e-10
3.74574e-08
8.72853e-10
3.65993e-08
8.57737e-10
3.57672e-08
8.31729e-10
3.497e-08
7.96809e-10
3.42148e-08
7.5487e-10
3.35068e-08
7.07681e-10
3.28497e-08
6.56868e-10
3.22456e-08
6.03886e-10
3.16953e-08
5.50017e-10
3.11987e-08
4.96355e-10
3.07547e-08
4.43815e-10
3.03613e-08
3.93132e-10
3.00163e-08
3.44877e-10
2.97167e-08
2.99463e-10
2.94593e-08
2.57165e-10
2.92411e-08
2.18133e-10
2.90585e-08
1.82411e-10
2.89085e-08
1.49958e-10
2.87878e-08
1.20659e-10
2.86934e-08
9.43491e-11
2.86225e-08
7.08197e-11
2.85727e-08
4.98332e-11
2.85415e-08
3.11286e-11
2.85271e-08
1.44315e-11
2.85275e-08
-5.0937e-13
2.85412e-08
-1.37156e-11
2.85663e-08
-2.52286e-11
2.86015e-08
-3.52735e-11
2.86453e-08
-4.40225e-11
2.86967e-08
-5.16213e-11
2.87547e-08
-5.81924e-11
2.88183e-08
-6.38365e-11
2.88868e-08
-6.86364e-11
2.89592e-08
-7.26602e-11
2.9035e-08
-7.59642e-11
2.91134e-08
-7.85953e-11
2.91939e-08
-8.05933e-11
2.92757e-08
-8.1993e-11
2.93584e-08
-8.28263e-11
2.94414e-08
-8.31256e-11
2.95241e-08
-8.2926e-11
2.96062e-08
-8.22685e-11
2.96873e-08
-8.12017e-11
2.97669e-08
-7.97833e-11
2.98449e-08
-7.80804e-11
2.99209e-08
-7.61682e-11
2.99949e-08
-7.41285e-11
3.00668e-08
-7.2047e-11
3.01367e-08
-7.00112e-11
3.02047e-08
-6.81082e-11
3.0271e-08
-6.64234e-11
3.03359e-08
-6.50389e-11
3.03998e-08
-6.40326e-11
3.04631e-08
-6.34764e-11
3.05264e-08
-6.3434e-11
3.05902e-08
-6.39585e-11
3.06552e-08
-6.50888e-11
3.0722e-08
-6.68472e-11
3.07911e-08
-6.92363e-11
3.08633e-08
-7.22387e-11
3.0939e-08
-7.5816e-11
3.10188e-08
-7.99108e-11
3.11032e-08
-8.44483e-11
3.11924e-08
-8.93396e-11
3.12868e-08
-9.44844e-11
3.13865e-08
-9.97739e-11
3.14915e-08
-1.05093e-10
3.16018e-08
-1.10325e-10
3.17171e-08
-1.1535e-10
3.18372e-08
-1.20056e-10
3.19615e-08
-1.24334e-10
3.20896e-08
-1.28087e-10
3.22208e-08
-1.31235e-10
3.23545e-08
-1.33712e-10
3.24899e-08
-1.35476e-10
3.26264e-08
-1.36505e-10
3.27631e-08
-1.36798e-10
3.28994e-08
-1.36374e-10
3.30346e-08
-1.35272e-10
3.31681e-08
-1.3355e-10
3.32993e-08
-1.31278e-10
3.34278e-08
-1.28542e-10
3.35531e-08
-1.25436e-10
3.36751e-08
-1.22062e-10
3.37936e-08
-1.18522e-10
3.39084e-08
-1.14918e-10
3.40197e-08
-1.11347e-10
3.41275e-08
-1.07898e-10
3.42321e-08
-1.04647e-10
3.43337e-08
-1.01663e-10
3.44327e-08
-9.89978e-11
3.45293e-08
-9.66921e-11
3.46241e-08
-9.47689e-11
3.47173e-08
-9.32356e-11
3.48093e-08
-9.20847e-11
3.49006e-08
-9.12955e-11
3.49914e-08
-9.08372e-11
3.50821e-08
-9.0672e-11
3.51729e-08
-9.07576e-11
3.52639e-08
-9.10496e-11
3.53554e-08
-9.15033e-11
3.54475e-08
-9.20762e-11
3.55402e-08
-9.27302e-11
3.56336e-08
-9.34336e-11
3.57278e-08
-9.41631e-11
3.58227e-08
-9.49044e-11
3.59183e-08
-9.56532e-11
3.60147e-08
-9.64146e-11
3.61118e-08
-9.7204e-11
3.62099e-08
-9.80457e-11
3.63088e-08
-9.89722e-11
3.64088e-08
-1.00021e-10
3.651e-08
-1.01234e-10
3.66127e-08
-1.02651e-10
3.6717e-08
-1.0431e-10
3.68233e-08
-1.06246e-10
3.69318e-08
-1.08483e-10
3.70428e-08
-1.11035e-10
3.71567e-08
-1.139e-10
3.72738e-08
-1.17066e-10
3.73942e-08
-1.20502e-10
3.75184e-08
-1.24167e-10
3.76464e-08
-1.28004e-10
3.77783e-08
-1.31934e-10
3.79141e-08
-1.35859e-10
3.80537e-08
-1.39656e-10
3.81968e-08
-1.43181e-10
3.83431e-08
-1.46265e-10
3.84917e-08
-1.4871e-10
3.86419e-08
-1.50285e-10
3.87926e-08
-1.50721e-10
3.89422e-08
-1.49706e-10
3.9089e-08
-1.46882e-10
3.92308e-08
-1.41828e-10
3.93648e-08
-1.34052e-10
3.94877e-08
-1.22983e-10
3.95956e-08
-1.07957e-10
3.96838e-08
-8.82039e-11
3.97465e-08
-6.28284e-11
3.97772e-08
-3.07643e-11
3.9768e-08
9.13227e-12
3.97093e-08
5.86721e-11
3.95892e-08
1.20065e-10
3.93938e-08
1.95324e-10
3.91071e-08
2.86642e-10
3.87107e-08
3.96373e-10
3.81837e-08
5.26971e-10
3.75028e-08
6.80909e-10
3.66422e-08
8.60547e-10
3.55743e-08
1.06795e-09
3.42696e-08
1.30464e-09
3.26983e-08
1.57129e-09
3.0831e-08
1.86729e-09
2.86406e-08
2.19028e-09
2.61051e-08
2.53541e-09
2.32104e-08
2.89453e-09
1.99552e-08
3.25499e-09
1.63573e-08
3.59787e-09
1.24622e-08
3.89539e-09
8.35657e-09
4.10659e-09
4.18949e-09
4.16921e-09
2.0304e-10
3.99054e-09
-3.17541e-09
3.3854e-09
-5.35584e-09
2.19028e-09
-5.64355e-09
3.00369e-10
-3.62168e-09
-2.00657e-09
-3.61021e-09
-1.8932e-09
4.45039e-13
4.89245e-09
-1.8181e-09
-2.12264e-14
2.06786e-09
-2.04914e-10
-7.30365e-14
-1.35074e-09
2.35711e-09
-8.68149e-14
-4.03574e-09
5.55199e-09
-1.04643e-13
-5.89593e-09
9.1639e-09
-9.76562e-14
-7.08657e-09
1.30287e-08
-7.65025e-14
-7.75708e-09
1.70077e-08
-5.33159e-14
-8.04837e-09
2.0987e-08
-3.14858e-14
-8.06538e-09
2.48783e-08
-1.15573e-14
-7.87976e-09
2.86133e-08
4.34123e-15
-7.54357e-09
3.21396e-08
1.47427e-14
-7.0955e-09
3.54175e-08
1.93087e-14
-6.56546e-09
3.84184e-08
1.86658e-14
-5.97748e-09
4.11224e-08
1.43936e-14
-5.35148e-09
4.35179e-08
8.46851e-15
-4.70439e-09
4.55999e-08
2.38086e-15
-4.05074e-09
4.73696e-08
-3.18211e-15
-3.40313e-09
4.88334e-08
-8.08358e-15
-2.77236e-09
5.0002e-08
-1.24296e-14
-2.16766e-09
5.08902e-08
-1.63946e-14
-1.59676e-09
5.15155e-08
-2.00525e-14
-1.06599e-09
5.18977e-08
-2.32521e-14
-5.80318e-10
5.20583e-08
-2.56442e-14
-1.43322e-10
5.2021e-08
-2.69169e-14
2.43565e-10
5.18107e-08
-2.7091e-14
5.80561e-10
5.14516e-08
-2.63195e-14
8.68342e-10
5.09674e-08
-2.47862e-14
1.1081e-09
5.03809e-08
-2.26856e-14
1.30165e-09
4.97139e-08
-2.02672e-14
1.45137e-09
4.89867e-08
-1.78013e-14
1.56015e-09
4.8218e-08
-1.5463e-14
1.63128e-09
4.7425e-08
-1.32576e-14
1.66839e-09
4.66228e-08
-1.10751e-14
1.67528e-09
4.58249e-08
-8.82782e-15
1.65588e-09
4.50428e-08
-6.53126e-15
1.61412e-09
4.42859e-08
-4.27228e-15
1.55385e-09
4.35622e-08
-2.11631e-15
1.47876e-09
4.28776e-08
-6.80668e-17
1.39234e-09
4.22368e-08
1.88768e-15
1.2978e-09
4.16427e-08
3.7175e-15
1.19805e-09
4.10971e-08
5.30727e-15
1.09565e-09
4.06007e-08
6.49298e-15
9.9282e-10
4.0153e-08
7.13377e-15
8.91433e-10
3.97531e-08
7.18812e-15
7.93013e-10
3.93992e-08
6.73269e-15
6.98756e-10
3.9089e-08
5.93238e-15
6.09555e-10
3.88201e-08
4.97091e-15
5.26024e-10
3.85896e-08
3.99869e-15
4.48535e-10
3.83946e-08
3.11511e-15
3.77249e-10
3.82322e-08
2.36634e-15
3.12151e-10
3.80996e-08
1.75949e-15
2.53085e-10
3.79939e-08
1.26717e-15
1.99785e-10
3.79126e-08
8.30962e-16
1.51904e-10
3.78531e-08
3.77778e-16
1.09038e-10
3.78132e-08
-1.5548e-16
7.07528e-11
3.77908e-08
-7.8388e-16
3.66055e-11
3.77838e-08
-1.53711e-15
6.17559e-12
3.77907e-08
-2.37379e-15
-2.08028e-11
3.78098e-08
-3.15053e-15
-4.45628e-11
3.78398e-08
-3.75097e-15
-6.54303e-11
3.78794e-08
-4.06519e-15
-8.37013e-11
3.79273e-08
-4.02275e-15
-9.96388e-11
3.79824e-08
-3.61966e-15
-1.13469e-10
3.80439e-08
-2.92129e-15
-1.25382e-10
3.81107e-08
-2.05144e-15
-1.35535e-10
3.81819e-08
-1.16875e-15
-1.44055e-10
3.82569e-08
-4.10193e-16
-1.51051e-10
3.83348e-08
1.61832e-16
-1.56612e-10
3.84148e-08
5.53451e-16
-1.60818e-10
3.84964e-08
7.84774e-16
-1.63745e-10
3.85789e-08
8.84042e-16
-1.65466e-10
3.86617e-08
9.15763e-16
-1.66062e-10
3.87442e-08
9.35067e-16
-1.65619e-10
3.88261e-08
9.23682e-16
-1.64235e-10
3.89068e-08
8.05117e-16
-1.6202e-10
3.8986e-08
5.14538e-16
-1.59098e-10
3.90634e-08
2.0018e-17
-1.55605e-10
3.91389e-08
-6.77248e-16
-1.51693e-10
3.92122e-08
-1.516e-15
-1.47523e-10
3.92833e-08
-2.36781e-15
-1.43265e-10
3.93523e-08
-3.06425e-15
-1.39096e-10
3.94193e-08
-3.42019e-15
-1.35198e-10
3.94846e-08
-3.26985e-15
-1.31746e-10
3.95484e-08
-2.54993e-15
-1.28913e-10
3.96112e-08
-1.36375e-15
-1.26861e-10
3.96734e-08
5.47789e-17
-1.25735e-10
3.97355e-08
1.43828e-15
-1.25659e-10
3.97983e-08
2.54011e-15
-1.26732e-10
3.98621e-08
3.14157e-15
-1.29023e-10
3.99278e-08
3.08048e-15
-1.32571e-10
3.99959e-08
2.32453e-15
-1.37376e-10
4.0067e-08
1.02448e-15
-1.43403e-10
4.01417e-08
-5.12578e-16
-1.50576e-10
4.02205e-08
-1.9314e-15
-1.58787e-10
4.0304e-08
-2.94111e-15
-1.6789e-10
4.03923e-08
-3.37147e-15
-1.77709e-10
4.04858e-08
-3.18536e-15
-1.88042e-10
4.05846e-08
-2.47411e-15
-1.98668e-10
4.06888e-08
-1.43317e-15
-2.09351e-10
4.07982e-08
-3.14642e-16
-2.1985e-10
4.09126e-08
6.42337e-16
-2.29926e-10
4.10318e-08
1.26365e-15
-2.3935e-10
4.11553e-08
1.4689e-15
-2.47911e-10
4.12825e-08
1.28443e-15
-2.55419e-10
4.14129e-08
8.27125e-16
-2.61718e-10
4.15458e-08
2.47028e-16
-2.66686e-10
4.16805e-08
-3.39035e-16
-2.70239e-10
4.18163e-08
-8.66664e-16
-2.72336e-10
4.19524e-08
-1.29059e-15
-2.72974e-10
4.20882e-08
-1.55612e-15
-2.72193e-10
4.2223e-08
-1.615e-15
-2.70071e-10
4.23562e-08
-1.45195e-15
-2.66719e-10
4.24872e-08
-1.08198e-15
-2.62281e-10
4.26156e-08
-5.22486e-16
-2.56922e-10
4.2741e-08
2.16061e-16
-2.5083e-10
4.28632e-08
1.10818e-15
-2.44199e-10
4.29819e-08
2.0935e-15
-2.37232e-10
4.30971e-08
3.08141e-15
-2.30127e-10
4.32089e-08
3.96867e-15
-2.23072e-10
4.33172e-08
4.6509e-15
-2.16242e-10
4.34223e-08
5.04095e-15
-2.0979e-10
4.35245e-08
5.09744e-15
-2.03848e-10
4.3624e-08
4.85415e-15
-1.98517e-10
4.37212e-08
4.39998e-15
-1.93874e-10
4.38164e-08
3.81701e-15
-1.89962e-10
4.39099e-08
3.12942e-15
-1.86796e-10
4.40022e-08
2.30966e-15
-1.84367e-10
4.40935e-08
1.33692e-15
-1.82638e-10
4.41842e-08
2.50122e-16
-1.81555e-10
4.42746e-08
-8.56793e-16
-1.81049e-10
4.43649e-08
-1.87985e-15
-1.81037e-10
4.44553e-08
-2.75963e-15
-1.81433e-10
4.4546e-08
-3.49755e-15
-1.82147e-10
4.4637e-08
-4.13143e-15
-1.83098e-10
4.47285e-08
-4.69132e-15
-1.84212e-10
4.48205e-08
-5.15297e-15
-1.85429e-10
4.4913e-08
-5.42251e-15
-1.86708e-10
4.50061e-08
-5.35751e-15
-1.88022e-10
4.50999e-08
-4.83747e-15
-1.89367e-10
4.51942e-08
-3.83827e-15
-1.90753e-10
4.52893e-08
-2.45791e-15
-1.92212e-10
4.5385e-08
-8.6505e-16
-1.93793e-10
4.54816e-08
7.8744e-16
-1.95556e-10
4.55792e-08
2.41786e-15
-1.97571e-10
4.56778e-08
3.98892e-15
-1.99909e-10
4.57778e-08
5.43281e-15
-2.02643e-10
4.58793e-08
6.60201e-15
-2.05839e-10
4.59826e-08
7.3075e-15
-2.09554e-10
4.60879e-08
7.43024e-15
-2.13832e-10
4.61955e-08
6.99542e-15
-2.18697e-10
4.63057e-08
6.12957e-15
-2.24145e-10
4.64188e-08
4.91673e-15
-2.30148e-10
4.65349e-08
3.34615e-15
-2.36644e-10
4.66543e-08
1.4218e-15
-2.43544e-10
4.6777e-08
-6.92719e-16
-2.50722e-10
4.69031e-08
-2.67838e-15
-2.58015e-10
4.70324e-08
-4.24766e-15
-2.6522e-10
4.71649e-08
-5.28269e-15
-2.72086e-10
4.73e-08
-5.80049e-15
-2.78319e-10
4.74374e-08
-5.85056e-15
-2.83579e-10
4.75761e-08
-5.47677e-15
-2.87466e-10
4.77154e-08
-4.71759e-15
-2.89512e-10
4.78539e-08
-3.56214e-15
-2.89172e-10
4.799e-08
-1.97014e-15
-2.85807e-10
4.81219e-08
-4.72334e-17
-2.7868e-10
4.8247e-08
1.81529e-15
-2.66925e-10
4.83625e-08
3.09945e-15
-2.4952e-10
4.84648e-08
3.51484e-15
-2.25268e-10
4.85497e-08
3.12798e-15
-1.92767e-10
4.86119e-08
2.1498e-15
-1.50376e-10
4.86453e-08
7.63843e-16
-9.61625e-11
4.86425e-08
-7.41976e-16
-2.78575e-11
4.85944e-08
-1.88849e-15
5.72559e-11
4.84907e-08
-2.23815e-15
1.62528e-10
4.83191e-08
-1.83031e-15
2.91753e-10
4.80656e-08
-1.18181e-15
4.48964e-10
4.77139e-08
-6.80933e-16
6.38505e-10
4.72455e-08
-2.90538e-16
8.64966e-10
4.66396e-08
9.15522e-18
1.13306e-09
4.58733e-08
-1.37038e-16
1.44742e-09
4.49217e-08
-8.93045e-16
1.81238e-09
4.37584e-08
-1.62676e-15
2.23155e-09
4.2356e-08
-1.68192e-15
2.70736e-09
4.06872e-08
-1.62925e-15
3.24045e-09
3.8726e-08
-2.59244e-15
3.8289e-09
3.64496e-08
-4.0881e-15
4.46724e-09
3.38403e-08
-3.29551e-15
5.14525e-09
3.08892e-08
4.09511e-15
5.84634e-09
2.75994e-08
2.31137e-14
6.54549e-09
2.39914e-08
5.74415e-14
7.20642e-09
2.01096e-08
1.0763e-13
7.77746e-09
1.603e-08
1.76243e-13
8.18563e-09
1.18709e-08
2.73212e-13
8.32645e-09
7.80261e-09
4.0764e-13
8.05485e-09
4.02986e-09
5.7944e-13
7.1515e-09
8.24888e-10
8.16815e-13
5.386e-09
-1.43086e-09
1.05563e-12
2.54461e-09
-2.00117e-09
6.71086e-13
-1.44725e-09
-2.97078e-12
-5.62769e-09
-1.89392e-09
4.89263e-09
-1.81804e-09
2.06783e-09
-2.0474e-10
-1.35081e-09
2.35739e-09
-4.03581e-09
5.55242e-09
-5.89597e-09
9.16445e-09
-7.08663e-09
1.30293e-08
-7.75719e-09
1.70083e-08
-8.04852e-09
2.09875e-08
-8.06556e-09
2.48787e-08
-7.87995e-09
2.86137e-08
-7.54375e-09
3.21398e-08
-7.09565e-09
3.54178e-08
-6.56557e-09
3.84186e-08
-5.97755e-09
4.11226e-08
-5.35152e-09
4.35181e-08
-4.7044e-09
4.56001e-08
-4.05073e-09
4.73697e-08
-3.4031e-09
4.88335e-08
-2.77232e-09
5.00021e-08
-2.16761e-09
5.08902e-08
-1.5967e-09
5.15155e-08
-1.06593e-09
5.18978e-08
-5.80253e-10
5.20584e-08
-1.43255e-10
5.2021e-08
2.4363e-10
5.18107e-08
5.80621e-10
5.14516e-08
8.68394e-10
5.09674e-08
1.10815e-09
5.03809e-08
1.30169e-09
4.97139e-08
1.45139e-09
4.89867e-08
1.56016e-09
4.8218e-08
1.63129e-09
4.7425e-08
1.66839e-09
4.66228e-08
1.67528e-09
4.58249e-08
1.65588e-09
4.50427e-08
1.61412e-09
4.42859e-08
1.55384e-09
4.35622e-08
1.47876e-09
4.28776e-08
1.39234e-09
4.22368e-08
1.2978e-09
4.16427e-08
1.19805e-09
4.10971e-08
1.09565e-09
4.06007e-08
9.92816e-10
4.01531e-08
8.91428e-10
3.97532e-08
7.93005e-10
3.93993e-08
6.98746e-10
3.90891e-08
6.09543e-10
3.88202e-08
5.2601e-10
3.85896e-08
4.4852e-10
3.83947e-08
3.77233e-10
3.82323e-08
3.12135e-10
3.80997e-08
2.53069e-10
3.7994e-08
1.9977e-10
3.79126e-08
1.51891e-10
3.78532e-08
1.09027e-10
3.78133e-08
7.07443e-11
3.77908e-08
3.66002e-11
3.77839e-08
6.17423e-12
3.77908e-08
-2.07997e-11
3.78099e-08
-4.45557e-11
3.78399e-08
-6.54205e-11
3.78794e-08
-8.36904e-11
3.79273e-08
-9.96286e-11
3.79825e-08
-1.13461e-10
3.8044e-08
-1.25377e-10
3.81108e-08
-1.35534e-10
3.8182e-08
-1.44057e-10
3.8257e-08
-1.51055e-10
3.83348e-08
-1.56616e-10
3.84149e-08
-1.60821e-10
3.84965e-08
-1.63745e-10
3.85789e-08
-1.65464e-10
3.86617e-08
-1.66057e-10
3.87443e-08
-1.65613e-10
3.88262e-08
-1.6423e-10
3.89069e-08
-1.62016e-10
3.89861e-08
-1.59096e-10
3.90635e-08
-1.55606e-10
3.9139e-08
-1.51695e-10
3.92122e-08
-1.47524e-10
3.92834e-08
-1.43264e-10
3.93524e-08
-1.39093e-10
3.94194e-08
-1.35192e-10
3.94846e-08
-1.31738e-10
3.95484e-08
-1.28905e-10
3.96112e-08
-1.26853e-10
3.96734e-08
-1.25727e-10
3.97356e-08
-1.25652e-10
3.97983e-08
-1.26726e-10
3.98622e-08
-1.29019e-10
3.99279e-08
-1.32566e-10
3.99959e-08
-1.37371e-10
4.00671e-08
-1.43397e-10
4.01418e-08
-1.50571e-10
4.02206e-08
-1.58784e-10
4.0304e-08
-1.67889e-10
4.03924e-08
-1.77711e-10
4.04859e-08
-1.88047e-10
4.05847e-08
-1.98674e-10
4.06888e-08
-2.09357e-10
4.07982e-08
-2.19854e-10
4.09127e-08
-2.29928e-10
4.10319e-08
-2.39349e-10
4.11553e-08
-2.47906e-10
4.12825e-08
-2.55413e-10
4.14129e-08
-2.61711e-10
4.15458e-08
-2.6668e-10
4.16805e-08
-2.70235e-10
4.18163e-08
-2.72333e-10
4.19525e-08
-2.72972e-10
4.20883e-08
-2.72192e-10
4.22231e-08
-2.7007e-10
4.23562e-08
-2.66719e-10
4.24872e-08
-2.62279e-10
4.26156e-08
-2.5692e-10
4.2741e-08
-2.50827e-10
4.28632e-08
-2.44195e-10
4.29819e-08
-2.37227e-10
4.30972e-08
-2.30121e-10
4.32089e-08
-2.23066e-10
4.33172e-08
-2.16236e-10
4.34224e-08
-2.09785e-10
4.35246e-08
-2.03843e-10
4.36241e-08
-1.98513e-10
4.37212e-08
-1.93869e-10
4.38164e-08
-1.89956e-10
4.391e-08
-1.8679e-10
4.40022e-08
-1.84359e-10
4.40936e-08
-1.8263e-10
4.41843e-08
-1.81549e-10
4.42747e-08
-1.81043e-10
4.4365e-08
-1.81033e-10
4.44554e-08
-1.81429e-10
4.4546e-08
-1.82144e-10
4.4637e-08
-1.83095e-10
4.47285e-08
-1.84209e-10
4.48205e-08
-1.85428e-10
4.4913e-08
-1.86709e-10
4.50062e-08
-1.88026e-10
4.50999e-08
-1.89372e-10
4.51943e-08
-1.9076e-10
4.52893e-08
-1.92221e-10
4.53851e-08
-1.93804e-10
4.54816e-08
-1.95568e-10
4.55792e-08
-1.97584e-10
4.56779e-08
-1.99921e-10
4.57778e-08
-2.02652e-10
4.58793e-08
-2.05843e-10
4.59826e-08
-2.09554e-10
4.60879e-08
-2.13828e-10
4.61956e-08
-2.1869e-10
4.63058e-08
-2.24136e-10
4.64189e-08
-2.30138e-10
4.6535e-08
-2.36634e-10
4.66543e-08
-2.43534e-10
4.6777e-08
-2.50714e-10
4.69031e-08
-2.5801e-10
4.70325e-08
-2.65215e-10
4.71649e-08
-2.72081e-10
4.73e-08
-2.78316e-10
4.74374e-08
-2.8358e-10
4.75761e-08
-2.87471e-10
4.77154e-08
-2.8952e-10
4.78539e-08
-2.89179e-10
4.799e-08
-2.85815e-10
4.81219e-08
-2.7869e-10
4.8247e-08
-2.66935e-10
4.83625e-08
-2.49531e-10
4.84648e-08
-2.25277e-10
4.85497e-08
-1.92773e-10
4.86119e-08
-1.50378e-10
4.86453e-08
-9.61585e-11
4.86425e-08
-2.78454e-11
4.85945e-08
5.72729e-11
4.84907e-08
1.62542e-10
4.83192e-08
2.9176e-10
4.80657e-08
4.48964e-10
4.7714e-08
6.385e-10
4.72456e-08
8.64959e-10
4.66397e-08
1.13305e-09
4.58734e-08
1.44741e-09
4.49218e-08
1.81237e-09
4.37584e-08
2.23154e-09
4.2356e-08
2.70735e-09
4.06872e-08
3.24045e-09
3.87261e-08
3.8289e-09
3.64496e-08
4.46726e-09
3.38403e-08
5.14527e-09
3.08892e-08
5.84634e-09
2.75995e-08
6.54544e-09
2.39916e-08
7.20626e-09
2.01098e-08
7.77712e-09
1.60304e-08
8.18503e-09
1.18714e-08
8.3255e-09
7.80318e-09
8.05345e-09
4.0305e-09
7.14959e-09
8.25162e-10
5.38368e-09
-1.43357e-09
2.54266e-09
-2.01346e-09
-1.44668e-09
-5.62154e-09
-2.20975e-11
4.172e-13
4.91839e-09
1.69183e-09
8.5922e-14
3.54729e-10
4.15459e-09
5.13404e-14
-3.81331e-09
7.00577e-09
3.56794e-14
-6.88654e-09
1.01547e-08
1.52728e-14
-9.04455e-09
1.35266e-08
6.51814e-15
-1.04582e-08
1.705e-08
1.05235e-15
-1.12802e-08
2.06477e-08
-3.33287e-15
-1.16458e-08
2.42447e-08
-7.49466e-15
-1.16622e-08
2.77754e-08
-9.9876e-15
-1.14102e-08
3.1184e-08
-1.07078e-14
-1.0952e-08
3.4425e-08
-1.00586e-14
-1.03363e-08
3.74619e-08
-8.69726e-15
-9.60226e-09
4.02669e-08
-7.29812e-15
-8.78234e-09
4.28196e-08
-6.2657e-15
-7.90404e-09
4.51064e-08
-5.63411e-15
-6.99111e-09
4.712e-08
-5.28355e-15
-6.06423e-09
4.88583e-08
-5.06508e-15
-5.14146e-09
5.03244e-08
-4.88343e-15
-4.23846e-09
5.15254e-08
-4.80875e-15
-3.36866e-09
5.2472e-08
-5.00918e-15
-2.54339e-09
5.31779e-08
-5.51469e-15
-1.7719e-09
5.3659e-08
-6.14048e-15
-1.06148e-09
5.3933e-08
-6.63694e-15
-4.17401e-10
5.40195e-08
-6.86949e-15
1.56997e-10
5.39397e-08
-6.86018e-15
6.60268e-10
5.37151e-08
-6.64221e-15
1.09281e-09
5.3367e-08
-6.21296e-15
1.45611e-09
5.2916e-08
-5.57424e-15
1.75254e-09
5.2382e-08
-4.76676e-15
1.98533e-09
5.17836e-08
-3.85747e-15
2.15847e-09
5.11382e-08
-2.90139e-15
2.27655e-09
5.04619e-08
-1.91341e-15
2.34465e-09
4.97689e-08
-8.74533e-16
2.36817e-09
4.9072e-08
2.54871e-16
2.35266e-09
4.83823e-08
1.51372e-15
2.30376e-09
4.77091e-08
2.9146e-15
2.22696e-09
4.70602e-08
4.42736e-15
2.12761e-09
4.64418e-08
5.96808e-15
2.01072e-09
4.58586e-08
7.41029e-15
1.88097e-09
4.5314e-08
8.6162e-15
1.74257e-09
4.48103e-08
9.46119e-15
1.5993e-09
4.43486e-08
9.85492e-15
1.45443e-09
4.39293e-08
9.7572e-15
1.31071e-09
4.35518e-08
9.17864e-15
1.17045e-09
4.3215e-08
8.17323e-15
1.03544e-09
4.29175e-08
6.82218e-15
9.07059e-10
4.26572e-08
5.21764e-15
7.86285e-10
4.24319e-08
3.46191e-15
6.73737e-10
4.22394e-08
1.66975e-15
5.6973e-10
4.20772e-08
-4.01714e-17
4.74323e-10
4.19429e-08
-1.56085e-15
3.87367e-10
4.18341e-08
-2.81195e-15
3.08548e-10
4.17485e-08
-3.74571e-15
2.37436e-10
4.1684e-08
-4.34201e-15
1.73515e-10
4.16385e-08
-4.60037e-15
1.16228e-10
4.16101e-08
-4.52892e-15
6.50032e-11
4.1597e-08
-4.17156e-15
1.92956e-11
4.15975e-08
-3.59033e-15
-2.13617e-11
4.16102e-08
-2.8579e-15
-5.73783e-11
4.16339e-08
-2.07083e-15
-8.91665e-11
4.16673e-08
-1.31812e-15
-1.17119e-10
4.17092e-08
-6.76335e-16
-1.41588e-10
4.17585e-08
-2.05904e-16
-1.62883e-10
4.18144e-08
6.47099e-17
-1.81267e-10
4.18758e-08
1.51661e-16
-1.96965e-10
4.19418e-08
1.04282e-16
-2.10164e-10
4.20117e-08
-1.31345e-17
-2.21022e-10
4.20847e-08
-1.22526e-16
-2.29677e-10
4.21601e-08
-1.43391e-16
-2.36256e-10
4.22372e-08
-3.44758e-17
-2.40876e-10
4.23153e-08
1.80853e-16
-2.43659e-10
4.23939e-08
4.35592e-16
-2.4473e-10
4.24725e-08
6.62031e-16
-2.44229e-10
4.25505e-08
8.10026e-16
-2.42308e-10
4.26276e-08
8.34582e-16
-2.3914e-10
4.27034e-08
6.9076e-16
-2.34914e-10
4.27776e-08
3.69996e-16
-2.2984e-10
4.285e-08
-5.95677e-17
-2.24146e-10
4.29205e-08
-4.87395e-16
-2.18075e-10
4.29891e-08
-8.28971e-16
-2.11883e-10
4.30558e-08
-1.03898e-15
-2.05832e-10
4.31207e-08
-1.07328e-15
-2.0019e-10
4.31842e-08
-8.93568e-16
-1.95218e-10
4.32464e-08
-5.03082e-16
-1.9117e-10
4.33077e-08
5.06309e-17
-1.88282e-10
4.33687e-08
6.94116e-16
-1.86765e-10
4.34298e-08
1.32562e-15
-1.86799e-10
4.34916e-08
1.81986e-15
-1.88526e-10
4.35546e-08
2.08437e-15
-1.92045e-10
4.36194e-08
2.08129e-15
-1.97404e-10
4.36866e-08
1.796e-15
-2.046e-10
4.37567e-08
1.22968e-15
-2.13576e-10
4.38303e-08
4.49663e-16
-2.24219e-10
4.39079e-08
-3.96758e-16
-2.36362e-10
4.39898e-08
-1.15785e-15
-2.49792e-10
4.40763e-08
-1.74206e-15
-2.64248e-10
4.41677e-08
-2.10705e-15
-2.79433e-10
4.4264e-08
-2.23232e-15
-2.95024e-10
4.43653e-08
-2.14465e-15
-3.10677e-10
4.44715e-08
-1.9316e-15
-3.26043e-10
4.45823e-08
-1.69371e-15
-3.40775e-10
4.46975e-08
-1.48001e-15
-3.54542e-10
4.48166e-08
-1.28577e-15
-3.67038e-10
4.49392e-08
-1.09071e-15
-3.77995e-10
4.50646e-08
-8.7495e-16
-3.87186e-10
4.51924e-08
-6.11323e-16
-3.94437e-10
4.53218e-08
-2.76141e-16
-3.99631e-10
4.54521e-08
1.26855e-16
-4.02707e-10
4.55828e-08
5.68718e-16
-4.03665e-10
4.57132e-08
1.02088e-15
-4.02566e-10
4.58426e-08
1.4725e-15
-3.99522e-10
4.59706e-08
1.92206e-15
-3.94696e-10
4.60966e-08
2.37069e-15
-3.88296e-10
4.62202e-08
2.83104e-15
-3.80563e-10
4.63411e-08
3.32901e-15
-3.71765e-10
4.64591e-08
3.87891e-15
-3.62184e-10
4.65739e-08
4.45117e-15
-3.5211e-10
4.66856e-08
4.96559e-15
-3.41826e-10
4.67941e-08
5.31433e-15
-3.31604e-10
4.68996e-08
5.40218e-15
-3.21693e-10
4.70021e-08
5.18854e-15
-3.12316e-10
4.71019e-08
4.71231e-15
-3.03658e-10
4.71992e-08
4.07797e-15
-2.95869e-10
4.72944e-08
3.39702e-15
-2.89054e-10
4.73877e-08
2.71647e-15
-2.83278e-10
4.74794e-08
1.99575e-15
-2.78563e-10
4.757e-08
1.15284e-15
-2.74895e-10
4.76595e-08
1.52073e-16
-2.72225e-10
4.77485e-08
-9.48144e-16
-2.70476e-10
4.7837e-08