/*--------------------------------*- C++ -*----------------------------------*\
  =========                 |
  \\      /  F ield         | OpenFOAM: The Open Source CFD Toolbox
   \\    /   O peration     | Website:  https://openfoam.org
    \\  /    A nd           | Version:  8
     \\/     M anipulation  |
\*---------------------------------------------------------------------------*/
FoamFile
{
    version     2.0;
    format      ascii;
    class       volScalarField;
    location    "600";
    object      T;
}
// * * * * * * * * * * * * * * * * * * * * * * * * * * * * * * * * * * * * * //

dimensions      [0 0 0 1 0 0 0];

internalField   nonuniform List<scalar> 
46000
(
310.383
309.162
307.951
306.999
306.33
305.851
305.515
305.275
305.098
304.967
304.872
304.805
304.762
304.739
304.733
304.741
304.762
304.795
304.837
304.888
304.947
305.013
305.085
305.161
305.238
305.316
305.397
305.479
305.562
305.646
305.729
305.812
305.894
305.974
306.051
306.126
306.197
306.265
306.329
306.39
306.447
306.5
306.549
306.595
306.637
306.676
306.712
306.745
306.776
306.804
306.83
306.853
306.875
306.896
306.914
306.932
306.948
306.963
306.976
306.989
307
307.011
307.02
307.03
307.038
307.046
307.054
307.061
307.067
307.073
307.079
307.085
307.09
307.095
307.1
307.104
307.109
307.113
307.117
307.121
307.125
307.128
307.132
307.135
307.138
307.141
307.143
307.146
307.148
307.149
307.15
307.151
307.152
307.152
307.151
307.15
307.149
307.147
307.145
307.143
307.14
307.137
307.134
307.13
307.126
307.122
307.118
307.114
307.11
307.106
307.103
307.099
307.095
307.092
307.088
307.085
307.082
307.079
307.076
307.074
307.071
307.069
307.066
307.064
307.062
307.06
307.057
307.055
307.053
307.051
307.049
307.046
307.044
307.041
307.039
307.036
307.034
307.031
307.028
307.025
307.023
307.02
307.016
307.013
307.01
307.007
307.003
306.999
306.995
306.991
306.987
306.982
306.977
306.972
306.967
306.961
306.955
306.949
306.942
306.935
306.928
306.92
306.913
306.905
306.897
306.89
306.883
306.876
306.87
306.865
306.861
306.858
306.858
306.859
306.863
306.87
306.881
306.897
306.918
306.945
306.98
307.024
307.079
307.145
307.225
307.32
307.434
307.567
307.725
307.908
308.12
308.364
308.638
308.94
309.258
309.586
309.873
310.143
310.393
310.655
310.382
309.162
307.95
306.998
306.33
305.85
305.515
305.275
305.098
304.967
304.872
304.805
304.762
304.739
304.733
304.741
304.762
304.795
304.837
304.888
304.947
305.013
305.085
305.161
305.238
305.316
305.397
305.479
305.562
305.646
305.729
305.812
305.894
305.974
306.051
306.126
306.197
306.265
306.329
306.39
306.447
306.5
306.549
306.595
306.637
306.676
306.712
306.745
306.776
306.804
306.829
306.853
306.875
306.896
306.914
306.932
306.948
306.963
306.976
306.989
307
307.011
307.02
307.03
307.038
307.046
307.054
307.061
307.067
307.073
307.079
307.085
307.09
307.095
307.1
307.104
307.109
307.113
307.117
307.121
307.125
307.128
307.132
307.135
307.138
307.141
307.143
307.146
307.148
307.149
307.15
307.151
307.152
307.152
307.151
307.15
307.149
307.147
307.145
307.143
307.14
307.137
307.134
307.13
307.126
307.122
307.118
307.114
307.11
307.106
307.103
307.099
307.095
307.092
307.088
307.085
307.082
307.079
307.076
307.074
307.071
307.069
307.066
307.064
307.062
307.06
307.057
307.055
307.053
307.051
307.049
307.046
307.044
307.041
307.039
307.036
307.034
307.031
307.028
307.025
307.023
307.02
307.016
307.013
307.01
307.007
307.003
306.999
306.995
306.991
306.987
306.982
306.977
306.972
306.967
306.961
306.955
306.949
306.942
306.935
306.928
306.92
306.913
306.905
306.897
306.89
306.883
306.876
306.87
306.865
306.861
306.858
306.858
306.859
306.863
306.87
306.881
306.897
306.918
306.945
306.98
307.024
307.079
307.145
307.225
307.32
307.434
307.567
307.724
307.908
308.12
308.364
308.638
308.94
309.258
309.586
309.873
310.143
310.393
310.655
306.757
305.309
304.166
303.401
302.902
302.566
302.34
302.188
302.086
302.022
301.986
301.973
301.976
301.995
302.026
302.068
302.118
302.177
302.243
302.316
302.393
302.476
302.562
302.651
302.744
302.837
302.931
303.025
303.118
303.211
303.303
303.393
303.48
303.565
303.647
303.726
303.801
303.873
303.941
304.005
304.065
304.121
304.173
304.222
304.268
304.31
304.349
304.386
304.42
304.451
304.481
304.508
304.534
304.558
304.58
304.601
304.621
304.64
304.657
304.674
304.689
304.704
304.718
304.732
304.744
304.756
304.768
304.779
304.79
304.8
304.81
304.82
304.829
304.838
304.847
304.855
304.864
304.872
304.88
304.888
304.896
304.903
304.91
304.917
304.924
304.93
304.937
304.943
304.948
304.953
304.958
304.962
304.966
304.97
304.973
304.975
304.977
304.979
304.98
304.981
304.981
304.982
304.981
304.981
304.98
304.98
304.979
304.978
304.977
304.976
304.975
304.974
304.973
304.972
304.971
304.971
304.97
304.97
304.97
304.97
304.97
304.97
304.97
304.971
304.971
304.971
304.972
304.972
304.972
304.972
304.972
304.973
304.973
304.973
304.973
304.972
304.972
304.972
304.972
304.971
304.971
304.97
304.97
304.969
304.968
304.967
304.966
304.965
304.964
304.962
304.961
304.959
304.957
304.954
304.952
304.949
304.946
304.943
304.94
304.936
304.933
304.929
304.925
304.921
304.918
304.914
304.911
304.908
304.907
304.906
304.906
304.907
304.911
304.916
304.924
304.935
304.95
304.969
304.993
305.024
305.062
305.108
305.164
305.231
305.311
305.406
305.519
305.651
305.805
305.983
306.188
306.42
306.677
306.952
307.23
307.49
307.701
307.847
307.94
307.932
306.756
305.308
304.166
303.401
302.902
302.566
302.34
302.187
302.086
302.022
301.986
301.973
301.976
301.995
302.026
302.068
302.119
302.177
302.244
302.316
302.393
302.476
302.562
302.652
302.744
302.837
302.931
303.025
303.118
303.211
303.303
303.393
303.48
303.565
303.647
303.726
303.802
303.873
303.941
304.005
304.065
304.121
304.173
304.222
304.268
304.31
304.349
304.386
304.42
304.451
304.481
304.508
304.534
304.558
304.58
304.601
304.621
304.64
304.657
304.674
304.689
304.704
304.718
304.732
304.744
304.756
304.768
304.779
304.79
304.8
304.81
304.82
304.829
304.838
304.847
304.855
304.864
304.872
304.88
304.888
304.896
304.903
304.91
304.917
304.924
304.93
304.937
304.943
304.948
304.953
304.958
304.962
304.966
304.97
304.973
304.975
304.977
304.979
304.98
304.981
304.981
304.982
304.981
304.981
304.98
304.98
304.979
304.978
304.977
304.976
304.975
304.974
304.973
304.972
304.971
304.971
304.97
304.97
304.97
304.97
304.97
304.97
304.97
304.971
304.971
304.971
304.972
304.972
304.972
304.972
304.972
304.973
304.973
304.973
304.973
304.972
304.972
304.972
304.972
304.971
304.971
304.97
304.97
304.969
304.968
304.967
304.966
304.965
304.964
304.962
304.961
304.959
304.957
304.954
304.952
304.949
304.946
304.943
304.94
304.936
304.933
304.929
304.925
304.921
304.918
304.914
304.911
304.908
304.907
304.906
304.906
304.907
304.911
304.916
304.924
304.935
304.95
304.969
304.993
305.024
305.061
305.108
305.164
305.231
305.311
305.406
305.519
305.651
305.805
305.983
306.188
306.42
306.677
306.952
307.23
307.49
307.701
307.847
307.94
307.932
304.229
303.106
302.334
301.831
301.49
301.256
301.098
300.993
300.927
300.89
300.874
300.877
300.893
300.922
300.961
301.009
301.064
301.127
301.195
301.269
301.348
301.431
301.517
301.606
301.698
301.792
301.886
301.98
302.074
302.167
302.259
302.349
302.437
302.523
302.605
302.685
302.761
302.834
302.903
302.968
303.029
303.087
303.141
303.192
303.239
303.284
303.325
303.363
303.399
303.433
303.464
303.494
303.521
303.547
303.571
303.594
303.615
303.636
303.655
303.673
303.691
303.707
303.723
303.737
303.752
303.765
303.778
303.791
303.803
303.815
303.826
303.837
303.848
303.859
303.869
303.879
303.889
303.898
303.908
303.917
303.926
303.934
303.943
303.951
303.959
303.967
303.974
303.981
303.988
303.995
304
304.006
304.011
304.016
304.02
304.023
304.027
304.029
304.032
304.034
304.035
304.036
304.037
304.038
304.038
304.039
304.039
304.039
304.039
304.039
304.039
304.038
304.039
304.039
304.039
304.039
304.04
304.04
304.041
304.042
304.042
304.043
304.044
304.045
304.047
304.048
304.049
304.05
304.051
304.052
304.053
304.054
304.055
304.055
304.056
304.057
304.057
304.058
304.058
304.059
304.059
304.059
304.06
304.06
304.06
304.06
304.059
304.059
304.059
304.058
304.057
304.056
304.055
304.054
304.052
304.05
304.048
304.046
304.044
304.042
304.039
304.037
304.034
304.032
304.03
304.028
304.026
304.025
304.025
304.026
304.027
304.031
304.036
304.043
304.053
304.066
304.083
304.105
304.131
304.164
304.203
304.251
304.309
304.377
304.458
304.554
304.665
304.795
304.945
305.117
305.311
305.528
305.763
306.011
306.257
306.483
306.665
306.785
306.829
306.745
304.229
303.106
302.334
301.831
301.49
301.256
301.098
300.993
300.927
300.89
300.874
300.877
300.893
300.922
300.961
301.009
301.064
301.127
301.195
301.269
301.348
301.431
301.517
301.607
301.698
301.792
301.886
301.98
302.074
302.167
302.259
302.349
302.437
302.523
302.605
302.685
302.761
302.834
302.903
302.968
303.029
303.087
303.141
303.192
303.239
303.284
303.325
303.363
303.399
303.433
303.464
303.494
303.521
303.547
303.571
303.594
303.615
303.636
303.655
303.673
303.691
303.707
303.723
303.737
303.752
303.765
303.778
303.791
303.803
303.815
303.826
303.837
303.848
303.859
303.869
303.879
303.889
303.898
303.908
303.917
303.926
303.934
303.943
303.951
303.959
303.967
303.974
303.981
303.988
303.995
304
304.006
304.011
304.016
304.02
304.023
304.027
304.029
304.032
304.034
304.035
304.036
304.037
304.038
304.038
304.039
304.039
304.039
304.039
304.039
304.039
304.038
304.039
304.039
304.039
304.039
304.04
304.04
304.041
304.042
304.043
304.043
304.044
304.045
304.047
304.048
304.049
304.05
304.051
304.052
304.053
304.054
304.055
304.055
304.056
304.057
304.057
304.058
304.058
304.059
304.059
304.059
304.06
304.06
304.06
304.06
304.059
304.059
304.059
304.058
304.057
304.056
304.055
304.054
304.052
304.05
304.049
304.046
304.044
304.042
304.039
304.037
304.034
304.032
304.03
304.028
304.026
304.025
304.025
304.026
304.027
304.031
304.036
304.043
304.053
304.066
304.083
304.105
304.131
304.164
304.203
304.251
304.309
304.377
304.458
304.554
304.665
304.795
304.945
305.117
305.311
305.528
305.764
306.011
306.257
306.483
306.665
306.785
306.829
306.745
302.289
301.553
301.107
300.807
300.595
300.446
300.345
300.279
300.239
300.221
300.219
300.231
300.255
300.288
300.33
300.379
300.435
300.497
300.564
300.637
300.713
300.794
300.878
300.964
301.053
301.144
301.236
301.328
301.42
301.511
301.601
301.69
301.777
301.861
301.943
302.021
302.097
302.169
302.238
302.304
302.365
302.424
302.478
302.53
302.578
302.623
302.665
302.705
302.742
302.776
302.809
302.839
302.867
302.894
302.919
302.943
302.966
302.987
303.007
303.026
303.044
303.061
303.078
303.093
303.108
303.123
303.137
303.15
303.163
303.175
303.187
303.199
303.211
303.222
303.233
303.243
303.254
303.264
303.274
303.284
303.294
303.303
303.312
303.321
303.33
303.338
303.346
303.353
303.361
303.368
303.374
303.38
303.386
303.391
303.396
303.4
303.404
303.407
303.41
303.412
303.414
303.416
303.417
303.419
303.42
303.42
303.421
303.421
303.422
303.422
303.423
303.423
303.424
303.424
303.425
303.426
303.426
303.427
303.429
303.43
303.431
303.432
303.434
303.435
303.437
303.438
303.44
303.441
303.442
303.444
303.445
303.447
303.448
303.449
303.45
303.451
303.452
303.453
303.454
303.455
303.456
303.456
303.457
303.457
303.458
303.458
303.458
303.458
303.458
303.458
303.458
303.457
303.457
303.456
303.455
303.453
303.452
303.451
303.449
303.447
303.445
303.443
303.442
303.44
303.439
303.437
303.437
303.437
303.438
303.44
303.443
303.448
303.454
303.463
303.475
303.49
303.509
303.532
303.561
303.596
303.638
303.688
303.747
303.818
303.9
303.996
304.108
304.236
304.383
304.55
304.735
304.939
305.158
305.384
305.606
305.811
305.979
306.094
306.141
306.104
302.288
301.553
301.107
300.806
300.595
300.446
300.345
300.279
300.239
300.221
300.219
300.231
300.255
300.288
300.33
300.379
300.435
300.497
300.564
300.637
300.713
300.794
300.878
300.964
301.054
301.144
301.236
301.328
301.42
301.511
301.601
301.69
301.777
301.861
301.943
302.022
302.097
302.169
302.238
302.304
302.365
302.424
302.478
302.53
302.578
302.623
302.665
302.705
302.742
302.776
302.809
302.839
302.867
302.894
302.919
302.943
302.966
302.987
303.007
303.026
303.044
303.061
303.078
303.093
303.108
303.123
303.137
303.15
303.163
303.175
303.187
303.199
303.211
303.222
303.233
303.243
303.254
303.264
303.274
303.284
303.294
303.303
303.312
303.321
303.33
303.338
303.346
303.354
303.361
303.368
303.374
303.38
303.386
303.391
303.396
303.4
303.404
303.407
303.41
303.412
303.414
303.416
303.417
303.419
303.42
303.42
303.421
303.421
303.422
303.422
303.423
303.423
303.424
303.424
303.425
303.426
303.426
303.427
303.429
303.43
303.431
303.432
303.434
303.435
303.437
303.438
303.44
303.441
303.442
303.444
303.445
303.447
303.448
303.449
303.45
303.451
303.452
303.453
303.454
303.455
303.456
303.456
303.457
303.457
303.458
303.458
303.458
303.458
303.458
303.458
303.458
303.457
303.457
303.456
303.455
303.453
303.452
303.451
303.449
303.447
303.445
303.443
303.442
303.44
303.439
303.437
303.437
303.437
303.438
303.44
303.443
303.448
303.454
303.463
303.475
303.49
303.509
303.532
303.561
303.596
303.637
303.688
303.747
303.818
303.9
303.996
304.108
304.237
304.383
304.55
304.735
304.939
305.158
305.384
305.606
305.811
305.979
306.094
306.141
306.104
300.796
300.415
300.202
300.051
299.939
299.859
299.804
299.77
299.753
299.751
299.76
299.78
299.808
299.844
299.887
299.937
299.992
300.053
300.118
300.188
300.262
300.339
300.42
300.503
300.589
300.676
300.764
300.853
300.942
301.031
301.118
301.204
301.289
301.371
301.451
301.528
301.603
301.674
301.741
301.806
301.867
301.925
301.979
302.031
302.079
302.124
302.166
302.206
302.243
302.278
302.311
302.342
302.371
302.398
302.423
302.448
302.47
302.492
302.513
302.532
302.55
302.568
302.585
302.601
302.616
302.631
302.645
302.659
302.672
302.685
302.697
302.709
302.721
302.733
302.744
302.755
302.766
302.776
302.787
302.797
302.807
302.817
302.826
302.835
302.844
302.853
302.861
302.869
302.877
302.884
302.89
302.897
302.903
302.908
302.913
302.917
302.922
302.925
302.928
302.931
302.933
302.936
302.937
302.939
302.94
302.941
302.942
302.943
302.944
302.944
302.945
302.946
302.946
302.947
302.948
302.949
302.95
302.952
302.953
302.954
302.956
302.958
302.959
302.961
302.963
302.964
302.966
302.968
302.969
302.971
302.973
302.974
302.976
302.977
302.979
302.98
302.981
302.983
302.984
302.985
302.986
302.987
302.988
302.988
302.989
302.99
302.99
302.99
302.991
302.991
302.991
302.99
302.99
302.989
302.989
302.988
302.987
302.985
302.984
302.983
302.981
302.98
302.979
302.978
302.977
302.976
302.976
302.977
302.979
302.982
302.986
302.992
303
303.011
303.024
303.041
303.062
303.087
303.118
303.155
303.2
303.253
303.315
303.387
303.472
303.569
303.681
303.809
303.953
304.115
304.294
304.487
304.692
304.902
305.107
305.297
305.457
305.575
305.641
305.648
300.796
300.415
300.201
300.051
299.939
299.859
299.804
299.77
299.753
299.751
299.76
299.78
299.808
299.844
299.887
299.937
299.992
300.053
300.118
300.188
300.262
300.339
300.42
300.503
300.589
300.676
300.764
300.853
300.942
301.031
301.118
301.204
301.289
301.371
301.451
301.528
301.603
301.674
301.741
301.806
301.867
301.925
301.979
302.031
302.079
302.124
302.166
302.206
302.243
302.278
302.311
302.342
302.371
302.398
302.423
302.448
302.47
302.492
302.513
302.532
302.55
302.568
302.585
302.601
302.616
302.631
302.645
302.659
302.672
302.685
302.697
302.709
302.721
302.733
302.744
302.755
302.766
302.776
302.787
302.797
302.807
302.817
302.826
302.835
302.844
302.853
302.861
302.869
302.877
302.884
302.89
302.897
302.903
302.908
302.913
302.918
302.922
302.925
302.928
302.931
302.933
302.936
302.937
302.939
302.94
302.941
302.942
302.943
302.944
302.944
302.945
302.946
302.947
302.947
302.948
302.949
302.95
302.952
302.953
302.954
302.956
302.958
302.959
302.961
302.963
302.964
302.966
302.968
302.969
302.971
302.973
302.974
302.976
302.977
302.979
302.98
302.981
302.983
302.984
302.985
302.986
302.987
302.988
302.988
302.989
302.99
302.99
302.991
302.991
302.991
302.991
302.99
302.99
302.989
302.989
302.988
302.987
302.985
302.984
302.983
302.981
302.98
302.979
302.978
302.977
302.976
302.976
302.977
302.979
302.982
302.986
302.992
303
303.011
303.024
303.041
303.062
303.087
303.118
303.155
303.2
303.253
303.315
303.387
303.472
303.569
303.681
303.809
303.953
304.115
304.294
304.487
304.692
304.902
305.107
305.297
305.457
305.575
305.641
305.648
299.696
299.603
299.541
299.49
299.447
299.416
299.396
299.387
299.388
299.397
299.415
299.441
299.473
299.511
299.555
299.604
299.658
299.716
299.779
299.846
299.917
299.991
300.068
300.148
300.229
300.313
300.398
300.483
300.569
300.654
300.738
300.821
300.903
300.983
301.06
301.135
301.207
301.277
301.343
301.406
301.466
301.523
301.576
301.627
301.674
301.719
301.761
301.8
301.837
301.872
301.905
301.935
301.964
301.991
302.017
302.041
302.064
302.086
302.106
302.126
302.144
302.162
302.179
302.195
302.21
302.225
302.239
302.253
302.266
302.279
302.292
302.304
302.316
302.328
302.339
302.35
302.361
302.372
302.382
302.393
302.403
302.413
302.422
302.432
302.441
302.449
302.458
302.466
302.473
302.481
302.488
302.494
302.5
302.506
302.511
302.515
302.519
302.523
302.526
302.529
302.532
302.534
302.536
302.538
302.539
302.54
302.542
302.543
302.544
302.545
302.545
302.546
302.547
302.548
302.55
302.551
302.552
302.554
302.555
302.557
302.558
302.56
302.562
302.564
302.566
302.568
302.57
302.571
302.573
302.575
302.577
302.579
302.581
302.582
302.584
302.585
302.587
302.588
302.59
302.591
302.592
302.593
302.594
302.595
302.596
302.597
302.597
302.598
302.598
302.598
302.598
302.598
302.598
302.598
302.597
302.596
302.595
302.595
302.593
302.592
302.591
302.59
302.589
302.589
302.588
302.588
302.589
302.591
302.593
302.597
302.602
302.61
302.619
302.631
302.646
302.665
302.688
302.715
302.749
302.789
302.836
302.891
302.956
303.031
303.117
303.216
303.329
303.457
303.599
303.757
303.93
304.115
304.309
304.506
304.7
304.879
305.035
305.158
305.242
305.276
299.696
299.602
299.541
299.49
299.447
299.416
299.396
299.387
299.388
299.397
299.415
299.441
299.473
299.511
299.555
299.604
299.658
299.716
299.779
299.846
299.917
299.991
300.068
300.148
300.229
300.313
300.398
300.483
300.569
300.654
300.738
300.821
300.903
300.983
301.06
301.135
301.208
301.277
301.343
301.406
301.466
301.523
301.576
301.627
301.674
301.719
301.761
301.8
301.837
301.872
301.905
301.935
301.964
301.991
302.017
302.041
302.064
302.086
302.106
302.126
302.144
302.162
302.179
302.195
302.21
302.225
302.239
302.253
302.266
302.279
302.292
302.304
302.316
302.328
302.339
302.35
302.361
302.372
302.383
302.393
302.403
302.413
302.422
302.432
302.441
302.449
302.458
302.466
302.473
302.481
302.488
302.494
302.5
302.506
302.511
302.515
302.519
302.523
302.526
302.529
302.532
302.534
302.536
302.538
302.539
302.541
302.542
302.543
302.544
302.545
302.545
302.546
302.547
302.548
302.55
302.551
302.552
302.554
302.555
302.557
302.558
302.56
302.562
302.564
302.566
302.568
302.57
302.571
302.573
302.575
302.577
302.579
302.581
302.582
302.584
302.585
302.587
302.588
302.59
302.591
302.592
302.593
302.594
302.595
302.596
302.597
302.597
302.598
302.598
302.598
302.598
302.598
302.598
302.598
302.597
302.596
302.595
302.595
302.593
302.592
302.591
302.59
302.589
302.589
302.588
302.588
302.589
302.591
302.593
302.597
302.602
302.61
302.619
302.631
302.646
302.665
302.688
302.715
302.749
302.789
302.836
302.891
302.956
303.031
303.117
303.216
303.329
303.457
303.599
303.757
303.93
304.115
304.309
304.507
304.7
304.879
305.035
305.159
305.243
305.277
299.048
299.071
299.084
299.086
299.084
299.084
299.086
299.094
299.107
299.126
299.15
299.179
299.213
299.252
299.295
299.344
299.396
299.452
299.513
299.577
299.644
299.714
299.787
299.863
299.941
300.021
300.102
300.183
300.265
300.347
300.428
300.508
300.586
300.663
300.738
300.81
300.88
300.947
301.011
301.072
301.13
301.186
301.238
301.287
301.334
301.377
301.419
301.457
301.494
301.528
301.56
301.59
301.618
301.645
301.67
301.694
301.717
301.738
301.758
301.778
301.796
301.813
301.83
301.846
301.861
301.876
301.89
301.904
301.917
301.93
301.942
301.955
301.967
301.978
301.99
302.001
302.012
302.022
302.033
302.043
302.053
302.063
302.073
302.082
302.091
302.1
302.108
302.116
302.124
302.131
302.138
302.144
302.15
302.156
302.161
302.166
302.17
302.174
302.177
302.18
302.183
302.185
302.187
302.189
302.19
302.192
302.193
302.194
302.195
302.196
302.197
302.198
302.199
302.201
302.202
302.203
302.205
302.206
302.208
302.21
302.212
302.214
302.216
302.218
302.22
302.222
302.224
302.226
302.228
302.23
302.232
302.234
302.235
302.237
302.239
302.241
302.242
302.244
302.245
302.247
302.248
302.249
302.25
302.251
302.252
302.253
302.254
302.255
302.255
302.255
302.255
302.256
302.255
302.255
302.255
302.254
302.253
302.252
302.252
302.251
302.25
302.249
302.248
302.248
302.248
302.249
302.25
302.252
302.256
302.261
302.267
302.275
302.286
302.3
302.317
302.337
302.362
302.392
302.428
302.471
302.521
302.579
302.646
302.724
302.813
302.914
303.027
303.155
303.296
303.451
303.619
303.797
303.983
304.171
304.355
304.528
304.682
304.811
304.911
304.978
299.048
299.071
299.084
299.086
299.084
299.084
299.086
299.094
299.107
299.126
299.15
299.179
299.213
299.252
299.295
299.344
299.396
299.452
299.513
299.577
299.644
299.714
299.787
299.863
299.941
300.021
300.102
300.183
300.265
300.347
300.428
300.508
300.586
300.663
300.738
300.81
300.88
300.947
301.011
301.072
301.13
301.186
301.238
301.287
301.334
301.377
301.419
301.457
301.494
301.528
301.56
301.59
301.618
301.645
301.67
301.694
301.717
301.738
301.758
301.778
301.796
301.813
301.83
301.846
301.861
301.876
301.89
301.904
301.917
301.93
301.942
301.955
301.967
301.978
301.99
302.001
302.012
302.022
302.033
302.043
302.053
302.063
302.073
302.082
302.091
302.1
302.108
302.116
302.124
302.131
302.138
302.144
302.15
302.156
302.161
302.166
302.17
302.174
302.177
302.18
302.183
302.185
302.187
302.189
302.19
302.192
302.193
302.194
302.195
302.196
302.197
302.198
302.199
302.201
302.202
302.203
302.205
302.206
302.208
302.21
302.212
302.214
302.216
302.218
302.22
302.222
302.224
302.226
302.228
302.23
302.232
302.234
302.235
302.237
302.239
302.241
302.242
302.244
302.245
302.247
302.248
302.249
302.25
302.251
302.252
302.253
302.254
302.255
302.255
302.255
302.256
302.256
302.255
302.255
302.255
302.254
302.253
302.252
302.252
302.251
302.25
302.249
302.248
302.248
302.248
302.249
302.25
302.252
302.256
302.261
302.267
302.275
302.286
302.3
302.317
302.337
302.362
302.392
302.428
302.471
302.521
302.579
302.646
302.724
302.813
302.914
303.027
303.155
303.296
303.451
303.619
303.797
303.983
304.171
304.356
304.529
304.683
304.811
304.911
304.978
298.691
298.741
298.778
298.803
298.821
298.837
298.853
298.871
298.891
298.915
298.942
298.973
299.008
299.047
299.09
299.137
299.187
299.241
299.298
299.359
299.423
299.489
299.559
299.631
299.705
299.78
299.857
299.935
300.013
300.091
300.168
300.245
300.32
300.393
300.465
300.534
300.602
300.666
300.728
300.787
300.843
300.896
300.947
300.995
301.04
301.082
301.122
301.16
301.195
301.228
301.26
301.289
301.317
301.343
301.367
301.391
301.413
301.433
301.453
301.472
301.49
301.507
301.523
301.539
301.554
301.568
301.582
301.595
301.608
301.621
301.633
301.645
301.657
301.669
301.68
301.691
301.702
301.712
301.723
301.733
301.743
301.752
301.762
301.771
301.78
301.789
301.797
301.805
301.812
301.82
301.826
301.833
301.839
301.844
301.849
301.854
301.858
301.862
301.865
301.868
301.871
301.873
301.875
301.877
301.878
301.88
301.881
301.882
301.884
301.885
301.886
301.887
301.888
301.89
301.891
301.893
301.894
301.896
301.898
301.9
301.902
301.904
301.906
301.908
301.91
301.912
301.914
301.916
301.918
301.921
301.923
301.925
301.927
301.928
301.93
301.932
301.934
301.935
301.937
301.938
301.94
301.941
301.942
301.944
301.945
301.946
301.946
301.947
301.947
301.948
301.948
301.948
301.948
301.948
301.947
301.947
301.946
301.945
301.945
301.944
301.943
301.943
301.942
301.942
301.943
301.944
301.946
301.949
301.953
301.959
301.966
301.976
301.988
302.003
302.022
302.045
302.072
302.105
302.143
302.189
302.241
302.303
302.373
302.453
302.544
302.647
302.762
302.89
303.03
303.183
303.347
303.52
303.699
303.88
304.058
304.227
304.38
304.513
304.626
304.72
298.691
298.741
298.778
298.803
298.821
298.837
298.853
298.871
298.891
298.915
298.942
298.974
299.009
299.047
299.09
299.137
299.187
299.241
299.298
299.359
299.423
299.489
299.559
299.631
299.705
299.78
299.857
299.935
300.013
300.091
300.168
300.245
300.32
300.393
300.465
300.534
300.602
300.666
300.728
300.787
300.843
300.896
300.947
300.995
301.04
301.082
301.122
301.16
301.195
301.228
301.26
301.289
301.317
301.343
301.367
301.391
301.413
301.433
301.453
301.472
301.49
301.507
301.523
301.539
301.554
301.568
301.582
301.595
301.608
301.621
301.633
301.645
301.657
301.669
301.68
301.691
301.702
301.712
301.723
301.733
301.743
301.752
301.762
301.771
301.78
301.789
301.797
301.805
301.813
301.82
301.826
301.833
301.839
301.844
301.849
301.854
301.858
301.862
301.865
301.868
301.871
301.873
301.875
301.877
301.878
301.88
301.881
301.882
301.884
301.885
301.886
301.887
301.888
301.89
301.891
301.893
301.894
301.896
301.898
301.9
301.902
301.904
301.906
301.908
301.91
301.912
301.914
301.916
301.919
301.921
301.923
301.925
301.927
301.929
301.93
301.932
301.934
301.935
301.937
301.939
301.94
301.941
301.942
301.944
301.945
301.946
301.946
301.947
301.947
301.948
301.948
301.948
301.948
301.948
301.947
301.947
301.946
301.945
301.945
301.944
301.943
301.943
301.942
301.942
301.943
301.944
301.946
301.949
301.953
301.959
301.966
301.976
301.988
302.003
302.022
302.045
302.072
302.105
302.143
302.189
302.241
302.303
302.373
302.453
302.544
302.647
302.762
302.89
303.03
303.183
303.347
303.52
303.699
303.88
304.058
304.227
304.38
304.513
304.627
304.72
298.491
298.54
298.579
298.609
298.635
298.657
298.679
298.702
298.726
298.752
298.781
298.812
298.847
298.885
298.926
298.97
299.018
299.069
299.124
299.181
299.241
299.304
299.37
299.438
299.508
299.579
299.652
299.726
299.8
299.874
299.948
300.021
300.092
300.163
300.231
300.297
300.362
300.423
300.483
300.539
300.593
300.644
300.693
300.739
300.782
300.823
300.861
300.898
300.932
300.964
300.994
301.022
301.049
301.074
301.098
301.12
301.142
301.162
301.181
301.199
301.216
301.233
301.248
301.263
301.278
301.292
301.305
301.318
301.331
301.343
301.355
301.367
301.378
301.39
301.401
301.411
301.422
301.432
301.443
301.452
301.462
301.472
301.481
301.49
301.499
301.507
301.515
301.523
301.531
301.538
301.544
301.55
301.556
301.561
301.566
301.571
301.575
301.578
301.582
301.585
301.587
301.59
301.592
301.593
301.595
301.596
301.598
301.599
301.6
301.602
301.603
301.604
301.606
301.607
301.608
301.61
301.612
301.614
301.615
301.617
301.619
301.622
301.624
301.626
301.628
301.63
301.633
301.635
301.637
301.639
301.641
301.643
301.645
301.647
301.649
301.651
301.653
301.655
301.656
301.658
301.659
301.661
301.662
301.663
301.664
301.665
301.666
301.666
301.667
301.667
301.668
301.668
301.668
301.667
301.667
301.666
301.666
301.665
301.665
301.664
301.663
301.663
301.663
301.663
301.664
301.666
301.668
301.672
301.677
301.684
301.692
301.703
301.717
301.734
301.755
301.78
301.81
301.845
301.886
301.934
301.99
302.054
302.128
302.211
302.305
302.409
302.526
302.654
302.794
302.945
303.106
303.275
303.449
303.625
303.798
303.963
304.116
304.253
304.377
304.489
298.491
298.54
298.579
298.609
298.635
298.657
298.679
298.702
298.726
298.752
298.781
298.812
298.847
298.885
298.926
298.97
299.018
299.069
299.124
299.181
299.241
299.304
299.37
299.438
299.508
299.579
299.652
299.726
299.8
299.874
299.948
300.021
300.092
300.163
300.231
300.297
300.362
300.423
300.483
300.539
300.593
300.644
300.693
300.739
300.782
300.823
300.862
300.898
300.932
300.964
300.994
301.022
301.049
301.074
301.098
301.12
301.142
301.162
301.181
301.199
301.216
301.233
301.248
301.263
301.278
301.292
301.305
301.318
301.331
301.343
301.355
301.367
301.378
301.39
301.401
301.411
301.422
301.432
301.443
301.453
301.462
301.472
301.481
301.49
301.499
301.507
301.515
301.523
301.531
301.538
301.544
301.55
301.556
301.561
301.566
301.571
301.575
301.578
301.582
301.585
301.587
301.59
301.592
301.593
301.595
301.596
301.598
301.599
301.6
301.602
301.603
301.604
301.606
301.607
301.608
301.61
301.612
301.614
301.615
301.617
301.619
301.622
301.624
301.626
301.628
301.63
301.633
301.635
301.637
301.639
301.641
301.643
301.645
301.647
301.649
301.651
301.653
301.655
301.656
301.658
301.659
301.661
301.662
301.663
301.664
301.665
301.666
301.667
301.667
301.667
301.668
301.668
301.668
301.667
301.667
301.667
301.666
301.665
301.665
301.664
301.663
301.663
301.663
301.663
301.664
301.666
301.668
301.672
301.677
301.684
301.692
301.703
301.717
301.734
301.755
301.78
301.81
301.845
301.886
301.934
301.99
302.054
302.128
302.211
302.305
302.409
302.526
302.654
302.794
302.945
303.106
303.275
303.449
303.625
303.798
303.963
304.116
304.254
304.377
304.489
298.376
298.415
298.449
298.478
298.504
298.527
298.551
298.574
298.599
298.626
298.654
298.685
298.719
298.755
298.794
298.836
298.881
298.929
298.981
299.035
299.091
299.151
299.212
299.276
299.342
299.41
299.479
299.548
299.619
299.689
299.759
299.828
299.896
299.963
300.028
300.091
300.152
300.211
300.267
300.321
300.373
300.422
300.468
300.512
300.553
300.593
300.629
300.664
300.697
300.727
300.756
300.783
300.809
300.833
300.855
300.877
300.897
300.916
300.934
300.952
300.968
300.984
300.999
301.014
301.027
301.041
301.054
301.066
301.078
301.09
301.102
301.113
301.124
301.135
301.146
301.156
301.166
301.177
301.186
301.196
301.206
301.215
301.224
301.233
301.241
301.249
301.257
301.265
301.272
301.279
301.285
301.291
301.297
301.302
301.306
301.311
301.315
301.318
301.321
301.324
301.327
301.329
301.331
301.333
301.334
301.336
301.337
301.338
301.34
301.341
301.342
301.344
301.345
301.347
301.348
301.35