/*--------------------------------*- C++ -*----------------------------------*\
  =========                 |
  \\      /  F ield         | OpenFOAM: The Open Source CFD Toolbox
   \\    /   O peration     | Website:  https://openfoam.org
    \\  /    A nd           | Version:  8
     \\/     M anipulation  |
\*---------------------------------------------------------------------------*/
FoamFile
{
    version     2.0;
    format      ascii;
    class       volVectorField;
    location    "600";
    object      U;
}
// * * * * * * * * * * * * * * * * * * * * * * * * * * * * * * * * * * * * * //

dimensions      [0 1 -1 0 0 0 0];

internalField   nonuniform List<vector> 
46000
(
(-0.0123159 -1.89462e-07 0.013045)
(-0.0354438 -4.58771e-06 0.0120687)
(-0.044613 -4.41564e-06 0.00364641)
(-0.0386737 -2.45674e-06 -0.00559296)
(-0.0217517 -1.0088e-06 -0.012608)
(0.00293217 3.65018e-07 -0.0171558)
(0.031834 9.4474e-07 -0.0194442)
(0.0627171 6.98297e-07 -0.0202887)
(0.0943296 8.06268e-08 -0.020272)
(0.125547 -6.08172e-07 -0.0196668)
(0.155647 -1.23968e-06 -0.0186526)
(0.184102 -1.75363e-06 -0.0173547)
(0.210529 -2.11153e-06 -0.0158636)
(0.234662 -2.28862e-06 -0.0142483)
(0.256324 -2.28252e-06 -0.0125629)
(0.275414 -2.115e-06 -0.0108517)
(0.291891 -1.82935e-06 -0.0091512)
(0.305769 -1.48049e-06 -0.00749218)
(0.31711 -1.11895e-06 -0.00590019)
(0.326011 -7.74908e-07 -0.00439653)
(0.332606 -4.57436e-07 -0.00299896)
(0.337054 -1.64272e-07 -0.00172249)
(0.33954 1.07248e-07 -0.000578996)
(0.340254 3.54374e-07 0.000428072)
(0.339434 5.68471e-07 0.00130505)
(0.337244 7.39311e-07 0.00205778)
(0.333888 8.5974e-07 0.00268895)
(0.329555 9.28354e-07 0.00320323)
(0.324429 9.5096e-07 0.00360654)
(0.318684 9.38289e-07 0.00390577)
(0.312484 9.01201e-07 0.00410869)
(0.305983 8.48172e-07 0.00422389)
(0.299316 7.86099e-07 0.00426056)
(0.292608 7.21696e-07 0.00422825)
(0.285966 6.61111e-07 0.00413666)
(0.279481 6.08626e-07 0.00399538)
(0.27323 5.65767e-07 0.00381375)
(0.267274 5.32275e-07 0.00360065)
(0.261661 5.07151e-07 0.00336435)
(0.256425 4.88448e-07 0.00311246)
(0.251589 4.72067e-07 0.0028518)
(0.247164 4.51931e-07 0.00258834)
(0.243153 4.21927e-07 0.00232721)
(0.239551 3.78622e-07 0.00207266)
(0.236347 3.23327e-07 0.00182812)
(0.233524 2.61728e-07 0.0015962)
(0.231061 2.01234e-07 0.00137877)
(0.228936 1.47464e-07 0.00117704)
(0.227123 1.02142e-07 0.000991622)
(0.225599 6.32697e-08 0.000822641)
(0.224337 2.69297e-08 0.000669802)
(0.223312 -1.04843e-08 0.00053248)
(0.222501 -5.05004e-08 0.000409785)
(0.221881 -9.20601e-08 0.000300628)
(0.221433 -1.31955e-07 0.000203753)
(0.221137 -1.66071e-07 0.000117769)
(0.220976 -1.89055e-07 4.12163e-05)
(0.220936 -1.92475e-07 -2.69073e-05)
(0.221006 -1.73269e-07 -8.6693e-05)
(0.221169 -1.35137e-07 -0.000138508)
(0.221414 -8.21724e-08 -0.000183367)
(0.221731 -2.1192e-08 -0.000222139)
(0.222111 3.8542e-08 -0.000255574)
(0.222544 8.72724e-08 -0.000284313)
(0.223024 1.17009e-07 -0.000308878)
(0.223545 1.23485e-07 -0.000329683)
(0.224098 1.07939e-07 -0.000347055)
(0.22468 7.78614e-08 -0.000361248)
(0.225285 4.48382e-08 -0.000372462)
(0.225908 2.02777e-08 -0.000380852)
(0.226543 1.24226e-08 -0.000386554)
(0.227187 2.50956e-08 -0.000389698)
(0.227834 5.55884e-08 -0.000390414)
(0.228482 9.30035e-08 -0.000388852)
(0.229126 1.22863e-07 -0.000385199)
(0.229764 1.34008e-07 -0.000379681)
(0.230391 1.2063e-07 -0.000372562)
(0.231006 8.14267e-08 -0.000364143)
(0.231607 2.21456e-08 -0.000354763)
(0.232192 -4.27075e-08 -0.000344788)
(0.232762 -9.52945e-08 -0.000334599)
(0.233315 -1.21858e-07 -0.00032459)
(0.233852 -1.15226e-07 -0.000315166)
(0.234375 -7.50853e-08 -0.000306731)
(0.234886 -9.31501e-09 -0.000299677)
(0.235388 6.75645e-08 -0.000294383)
(0.235883 1.39668e-07 -0.00029121)
(0.236375 1.94168e-07 -0.000290475)
(0.236869 2.22481e-07 -0.000292426)
(0.237369 2.22052e-07 -0.000297245)
(0.23788 1.98064e-07 -0.000305037)
(0.238407 1.60227e-07 -0.000315814)
(0.238955 1.17252e-07 -0.000329489)
(0.239528 7.47616e-08 -0.000345887)
(0.24013 3.68706e-08 -0.000364756)
(0.240766 6.3056e-09 -0.000385774)
(0.241439 -1.69803e-08 -0.000408544)
(0.24215 -3.50246e-08 -0.000432612)
(0.242902 -4.88494e-08 -0.00045748)
(0.243695 -5.76914e-08 -0.000482606)
(0.244529 -6.05656e-08 -0.000507417)
(0.245403 -5.75192e-08 -0.000531328)
(0.246314 -4.93457e-08 -0.00055377)
(0.247261 -3.77128e-08 -0.000574207)
(0.248238 -2.61338e-08 -0.000592161)
(0.249243 -1.9154e-08 -0.00060722)
(0.250269 -1.9957e-08 -0.000619071)
(0.251312 -2.89291e-08 -0.000627501)
(0.252365 -4.39285e-08 -0.000632406)
(0.253424 -6.1449e-08 -0.000633782)
(0.254482 -7.68379e-08 -0.000631723)
(0.255534 -8.48982e-08 -0.000626415)
(0.256575 -8.15795e-08 -0.000618128)
(0.2576 -6.57629e-08 -0.000607203)
(0.258606 -3.94858e-08 -0.000594043)
(0.259589 -6.78886e-09 -0.000579101)
(0.260547 2.7736e-08 -0.000562865)
(0.261478 5.99813e-08 -0.000545834)
(0.262382 8.69823e-08 -0.000528505)
(0.263257 1.07354e-07 -0.000511346)
(0.264105 1.20745e-07 -0.000494788)
(0.264928 1.26512e-07 -0.000479211)
(0.265726 1.23015e-07 -0.000464937)
(0.266502 1.08709e-07 -0.00045222)
(0.267259 8.42588e-08 -0.000441247)
(0.268 5.42798e-08 -0.000432129)
(0.268727 2.64523e-08 -0.000424903)
(0.269444 8.38604e-09 -0.000419534)
(0.270153 3.55271e-09 -0.000415922)
(0.270858 9.16567e-09 -0.000413919)
(0.27156 1.74572e-08 -0.000413344)
(0.272262 2.03608e-08 -0.000413994)
(0.272966 1.46936e-08 -0.000415653)
(0.273672 4.35474e-09 -0.000418092)
(0.274382 -2.67672e-09 -0.000421084)
(0.275098 -9.05634e-10 -0.000424414)
(0.275818 7.58737e-09 -0.000427904)
(0.276544 1.37445e-08 -0.00043143)
(0.277275 8.37717e-09 -0.00043493)
(0.278012 -9.87543e-09 -0.000438397)
(0.278755 -3.22278e-08 -0.000441866)
(0.279504 -4.59124e-08 -0.000445404)
(0.280258 -4.44767e-08 -0.000449115)
(0.28102 -3.37554e-08 -0.000453146)
(0.281789 -2.73933e-08 -0.000457689)
(0.282567 -3.50117e-08 -0.000462962)
(0.283354 -5.30411e-08 -0.00046918)
(0.284153 -6.66475e-08 -0.000476527)
(0.284966 -6.15589e-08 -0.000485139)
(0.285795 -3.59915e-08 -0.000495119)
(0.286643 -2.13802e-09 -0.000506539)
(0.287511 2.39721e-08 -0.000519437)
(0.288401 3.56555e-08 -0.000533792)
(0.289318 3.96231e-08 -0.000549496)
(0.290261 4.66853e-08 -0.00056634)
(0.291233 5.81491e-08 -0.000584032)
(0.292236 6.28922e-08 -0.00060221)
(0.293268 5.0052e-08 -0.000620441)
(0.29433 2.33559e-08 -0.000638187)
(0.295421 -2.14129e-10 -0.000654778)
(0.296537 -7.21228e-09 -0.000669432)
(0.297674 4.55313e-10 -0.000681282)
(0.298828 1.26244e-08 -0.000689356)
(0.299989 2.58746e-08 -0.000692511)
(0.301148 4.54332e-08 -0.000689377)
(0.302293 7.2402e-08 -0.000678357)
(0.303409 9.48144e-08 -0.000657629)
(0.304477 9.57568e-08 -0.000625082)
(0.305473 7.01178e-08 -0.000578226)
(0.30637 3.21685e-08 -0.000514159)
(0.307135 7.42522e-09 -0.000429591)
(0.307729 1.49197e-08 -0.00032067)
(0.308104 5.5004e-08 -0.000182288)
(0.308203 1.11263e-07 -8.95165e-06)
(0.307966 1.63832e-07 0.000207102)
(0.307303 2.02256e-07 0.000476146)
(0.306119 2.23454e-07 0.000808404)
(0.304299 2.24521e-07 0.0012148)
(0.301709 2.05541e-07 0.00170724)
(0.298199 1.75739e-07 0.0022983)
(0.293598 1.47858e-07 0.00300086)
(0.287715 1.28218e-07 0.00382768)
(0.280343 1.17693e-07 0.00479083)
(0.27126 1.14292e-07 0.00590041)
(0.260233 1.10448e-07 0.0071629)
(0.247028 1.10973e-07 0.0085791)
(0.23142 1.63761e-07 0.0101418)
(0.21321 3.24267e-07 0.0118326)
(0.192246 5.48032e-07 0.0136169)
(0.168451 6.6136e-07 0.0154377)
(0.141866 4.59999e-07 0.0172052)
(0.112705 -2.53767e-07 0.0187813)
(0.0814506 -1.73311e-06 0.0199505)
(0.0488827 -4.27985e-06 0.0203694)
(0.0168348 -8.37195e-06 0.0194553)
(-0.0135076 -1.4266e-05 0.0157089)
(-0.0360581 -2.14967e-05 0.00843801)
(-0.0470209 -3.19505e-05 -0.00211652)
(-0.0406527 -4.8382e-05 -0.0128995)
(-0.0152573 -6.23935e-05 -0.0167362)
(-0.0123133 -1.89459e-07 0.0130398)
(-0.0354481 -4.58764e-06 0.0120604)
(-0.044614 -4.41561e-06 0.00364031)
(-0.0386669 -2.4567e-06 -0.00560086)
(-0.0217439 -1.0088e-06 -0.0126184)
(0.00293982 3.65012e-07 -0.0171676)
(0.0318395 9.44717e-07 -0.0194552)
(0.0627201 6.98284e-07 -0.0202971)
(0.0943307 8.06255e-08 -0.0202769)
(0.125547 -6.08165e-07 -0.0196681)
(0.155647 -1.23967e-06 -0.0186508)
(0.184102 -1.75362e-06 -0.0173506)
(0.21053 -2.11152e-06 -0.0158584)
(0.234664 -2.2886e-06 -0.0142427)
(0.256327 -2.2825e-06 -0.0125576)
(0.275416 -2.11498e-06 -0.0108471)
(0.291893 -1.82933e-06 -0.00914747)
(0.305772 -1.48048e-06 -0.00748932)
(0.317112 -1.11894e-06 -0.00589817)
(0.326014 -7.74904e-07 -0.00439528)
(0.332609 -4.57434e-07 -0.00299841)
(0.337056 -1.64272e-07 -0.00172252)
(0.339542 1.07247e-07 -0.000579504)
(0.340256 3.54372e-07 0.000427163)
(0.339435 5.68469e-07 0.00130381)
(0.337246 7.39308e-07 0.00205626)
(0.333889 8.59738e-07 0.00268722)
(0.329556 9.28351e-07 0.00320132)
(0.324429 9.50958e-07 0.0036045)
(0.318684 9.38287e-07 0.00390363)
(0.312485 9.01199e-07 0.0041065)
(0.305983 8.48169e-07 0.00422169)
(0.299317 7.86097e-07 0.00425839)
(0.292608 7.21694e-07 0.00422612)
(0.285966 6.61109e-07 0.00413457)
(0.279481 6.08624e-07 0.00399332)
(0.27323 5.65765e-07 0.0038117)
(0.267275 5.32273e-07 0.00359859)
(0.261662 5.07149e-07 0.00336231)
(0.256426 4.88446e-07 0.00311045)
(0.25159 4.72065e-07 0.00284983)
(0.247165 4.51929e-07 0.00258643)
(0.243154 4.21925e-07 0.00232537)
(0.239552 3.7862e-07 0.00207091)
(0.236348 3.23326e-07 0.00182648)
(0.233524 2.61727e-07 0.00159472)
(0.231062 2.01233e-07 0.00137751)
(0.228936 1.47463e-07 0.00117606)
(0.227124 1.02142e-07 0.000990979)
(0.2256 6.32694e-08 0.000822361)
(0.224338 2.69296e-08 0.000669888)
(0.223313 -1.04843e-08 0.000532909)
(0.222502 -5.05001e-08 0.000410515)
(0.221882 -9.20596e-08 0.000301601)
(0.221434 -1.31954e-07 0.000204897)
(0.221138 -1.6607e-07 0.000118999)
(0.220978 -1.89054e-07 4.24329e-05)
(0.220937 -1.92474e-07 -2.5799e-05)
(0.221007 -1.73268e-07 -8.57789e-05)
(0.221171 -1.35136e-07 -0.000137865)
(0.221416 -8.2172e-08 -0.000183039)
(0.221733 -2.11919e-08 -0.000222131)
(0.222113 3.85418e-08 -0.000255847)
(0.222546 8.72719e-08 -0.000284791)
(0.223026 1.17008e-07 -0.000309461)
(0.223546 1.23484e-07 -0.000330271)
(0.2241 1.07938e-07 -0.000347563)
(0.224682 7.78609e-08 -0.000361623)
(0.225286 4.4838e-08 -0.000372688)
(0.225909 2.02776e-08 -0.000380956)
(0.226544 1.24225e-08 -0.000386588)
(0.227188 2.50955e-08 -0.00038972)
(0.227836 5.55881e-08 -0.000390475)
(0.228484 9.3003e-08 -0.000388985)
(0.229128 1.22862e-07 -0.00038541)
(0.229765 1.34007e-07 -0.000379946)
(0.230392 1.2063e-07 -0.000372842)
(0.231008 8.14263e-08 -0.000364403)
(0.231608 2.21455e-08 -0.000354987)
(0.232194 -4.27072e-08 -0.000344981)
(0.232763 -9.5294e-08 -0.000334782)
(0.233316 -1.21857e-07 -0.000324797)
(0.233853 -1.15226e-07 -0.000315429)
(0.234377 -7.50849e-08 -0.000307066)
(0.234887 -9.31497e-09 -0.000300076)
(0.235389 6.75642e-08 -0.000294814)
(0.235884 1.39667e-07 -0.000291627)
(0.236376 1.94167e-07 -0.00029083)
(0.23687 2.2248e-07 -0.000292696)
(0.23737 2.22051e-07 -0.000297437)
(0.237881 1.98063e-07 -0.000305176)
(0.238408 1.60226e-07 -0.000315936)
(0.238956 1.17251e-07 -0.000329629)
(0.239529 7.47612e-08 -0.000346071)
(0.240132 3.68704e-08 -0.000364987)
(0.240768 6.30557e-09 -0.000386023)
(0.24144 -1.69802e-08 -0.000408764)
(0.242151 -3.50245e-08 -0.000432751)
(0.242903 -4.88492e-08 -0.000457498)
(0.243696 -5.76912e-08 -0.000482486)
(0.24453 -6.05654e-08 -0.000507172)
(0.245404 -5.7519e-08 -0.000530999)
(0.246315 -4.93455e-08 -0.000553412)
(0.247262 -3.77126e-08 -0.000573876)
(0.24824 -2.61337e-08 -0.000591899)
(0.249244 -1.91539e-08 -0.000607059)
(0.25027 -1.99569e-08 -0.00061903)
(0.251313 -2.89289e-08 -0.000627587)
(0.252367 -4.39283e-08 -0.000632614)
(0.253425 -6.14487e-08 -0.000634104)
(0.254483 -7.68375e-08 -0.000632152)
(0.255535 -8.48978e-08 -0.000626942)
(0.256576 -8.15792e-08 -0.00061874)
(0.257601 -6.57626e-08 -0.000607882)
(0.258607 -3.94856e-08 -0.000594774)
(0.25959 -6.78883e-09 -0.000579872)
(0.260548 2.77359e-08 -0.00056367)
(0.261479 5.9981e-08 -0.000546671)
(0.262382 8.6982e-08 -0.000529365)
(0.263258 1.07354e-07 -0.000512209)
(0.264106 1.20744e-07 -0.000495622)
(0.264928 1.26511e-07 -0.000479973)
(0.265727 1.23015e-07 -0.000465591)
(0.266503 1.08709e-07 -0.000452749)
(0.26726 8.42584e-08 -0.000441661)
(0.268 5.42795e-08 -0.000432456)
(0.268728 2.64522e-08 -0.000425175)
(0.269445 8.38601e-09 -0.000419764)
(0.270154 3.5527e-09 -0.000416103)
(0.270859 9.16564e-09 -0.000414029)
(0.271561 1.74572e-08 -0.000413361)
(0.272263 2.03607e-08 -0.000413911)
(0.272967 1.46936e-08 -0.000415479)
(0.273673 4.35472e-09 -0.000417855)
(0.274384 -2.67671e-09 -0.000420815)
(0.275099 -9.0563e-10 -0.000424147)
(0.275819 7.58734e-09 -0.000427672)
(0.276545 1.37444e-08 -0.000431267)
(0.277276 8.37714e-09 -0.00043487)
(0.278013 -9.8754e-09 -0.000438464)
(0.278756 -3.22277e-08 -0.000442062)
(0.279504 -4.59122e-08 -0.000445709)
(0.280259 -4.44765e-08 -0.000449489)
(0.28102 -3.37553e-08 -0.000453546)
(0.281789 -2.73932e-08 -0.000458082)
(0.282567 -3.50115e-08 -0.000463329)
(0.283355 -5.30409e-08 -0.000469517)
(0.284154 -6.66473e-08 -0.00047684)
(0.284967 -6.15587e-08 -0.000485446)
(0.285796 -3.59914e-08 -0.000495441)
(0.286644 -2.13801e-09 -0.000506895)
(0.287512 2.39721e-08 -0.000519827)
(0.288403 3.56554e-08 -0.000534183)
(0.289319 3.9623e-08 -0.000549828)
(0.290262 4.66852e-08 -0.000566556)
(0.291235 5.81489e-08 -0.000584109)
(0.292237 6.2892e-08 -0.000602177)
(0.293269 5.00519e-08 -0.000620363)
(0.294331 2.33559e-08 -0.000638132)
(0.295422 -2.14128e-10 -0.000654802)
(0.296538 -7.21226e-09 -0.00066957)
(0.297675 4.55311e-10 -0.000681546)
(0.298828 1.26244e-08 -0.000689733)
(0.299989 2.58745e-08 -0.000692972)
(0.301149 4.54331e-08 -0.0006899)
(0.302294 7.24018e-08 -0.000678947)
(0.30341 9.48141e-08 -0.000658299)
(0.304477 9.57565e-08 -0.000625825)
(0.305473 7.01176e-08 -0.000579009)
(0.306371 3.21684e-08 -0.00051495)
(0.307136 7.42519e-09 -0.000430357)
(0.30773 1.49197e-08 -0.000321377)
(0.308105 5.50038e-08 -0.000182909)
(0.308204 1.11262e-07 -9.50601e-06)
(0.307967 1.63831e-07 0.000206537)
(0.307304 2.02255e-07 0.000475481)
(0.30612 2.23454e-07 0.000807617)
(0.3043 2.2452e-07 0.00121393)
(0.301711 2.0554e-07 0.00170629)
(0.2982 1.75739e-07 0.00229725)
(0.293599 1.47858e-07 0.0029997)
(0.287716 1.28218e-07 0.00382645)
(0.280345 1.17692e-07 0.00478953)
(0.271261 1.14292e-07 0.00589895)
(0.260234 1.10448e-07 0.0071612)
(0.247029 1.10973e-07 0.00857722)
(0.231421 1.6376e-07 0.0101399)
(0.213211 3.24266e-07 0.0118304)
(0.192247 5.48028e-07 0.0136142)
(0.168452 6.61355e-07 0.0154341)
(0.141868 4.59995e-07 0.0172007)
(0.112705 -2.53765e-07 0.0187768)
(0.0814493 -1.73309e-06 0.0199479)
(0.0488785 -4.27981e-06 0.0203717)
(0.0168263 -8.37187e-06 0.0194668)
(-0.0135202 -1.42659e-05 0.0157327)
(-0.0360732 -2.14965e-05 0.00847396)
(-0.0470383 -3.19503e-05 -0.00206788)
(-0.0406694 -4.83811e-05 -0.0128491)
(-0.0152641 -6.23925e-05 -0.0167165)
(-0.0103414 3.92475e-06 0.0358764)
(-0.0183705 -5.27361e-07 0.0216457)
(-0.00978737 -9.87821e-07 -0.00173259)
(0.00690073 -1.00937e-06 -0.0214367)
(0.0293284 -1.17054e-06 -0.0350434)
(0.0556577 -1.08792e-06 -0.0436048)
(0.0844471 -8.48346e-07 -0.0482955)
(0.114576 -5.8886e-07 -0.0502824)
(0.145098 -3.49007e-07 -0.0504002)
(0.175245 -1.34354e-07 -0.0491744)
(0.204436 3.23563e-08 -0.0469755)
(0.232218 1.37416e-07 -0.044069)
(0.258247 1.79441e-07 -0.0406543)
(0.282265 1.66366e-07 -0.0368883)
(0.304093 1.14921e-07 -0.0328986)
(0.32361 4.5781e-08 -0.0287922)
(0.340756 -2.4793e-08 -0.0246602)
(0.355515 -8.8291e-08 -0.0205806)
(0.367918 -1.4206e-07 -0.0166205)
(0.378029 -1.86904e-07 -0.0128364)
(0.385945 -2.25676e-07 -0.00927604)
(0.391789 -2.60726e-07 -0.00597884)
(0.395704 -2.91324e-07 -0.00297676)
(0.397846 -3.13346e-07 -0.000293839)
(0.398379 -3.22389e-07 0.00206997)
(0.397498 -3.18186e-07 0.00412573)
(0.395386 -3.02987e-07 0.00587636)
(0.392226 -2.80302e-07 0.00732898)
(0.388195 -2.53784e-07 0.00849468)
(0.383464 -2.26785e-07 0.00938832)
(0.378191 -2.01675e-07 0.010028)
(0.372527 -1.78957e-07 0.0104345)
(0.366609 -1.57245e-07 0.0106304)
(0.36056 -1.34467e-07 0.0106399)
(0.35449 -1.0953e-07 0.0104874)
(0.348494 -8.29498e-08 0.0101976)
(0.342652 -5.61281e-08 0.00979471)
(0.337031 -3.00513e-08 0.0093018)
(0.331685 -4.92796e-09 0.00874064)
(0.326654 1.91855e-08 0.00813127)
(0.321968 4.16025e-08 0.0074918)
(0.317644 6.07507e-08 0.00683818)
(0.313692 7.45939e-08 0.00618419)
(0.310114 8.1573e-08 0.00554139)
(0.306903 8.15407e-08 0.00491917)
(0.30405 7.5944e-08 0.00432485)
(0.301539 6.73017e-08 0.00376384)
(0.299353 5.81843e-08 0.00323981)
(0.29747 5.04148e-08 0.00275491)
(0.295869 4.47932e-08 0.00230994)
(0.294527 4.11628e-08 0.00190463)
(0.293423 3.87437e-08 0.00153782)
(0.292536 3.64015e-08 0.00120766)
(0.291843 3.28303e-08 0.00091179)
(0.291327 2.68633e-08 0.000647469)
(0.290968 1.78561e-08 0.000411725)
(0.290751 6.19289e-09 0.000201498)
(0.290658 -7.74948e-09 1.38362e-05)
(0.290677 -2.26646e-08 -0.000152273)
(0.290795 -3.59546e-08 -0.000297745)
(0.291001 -4.57112e-08 -0.000424992)
(0.291285 -5.06282e-08 -0.00053606)
(0.291636 -5.02627e-08 -0.000632723)
(0.292047 -4.51204e-08 -0.000716482)
(0.292509 -3.6439e-08 -0.000788572)
(0.293016 -2.60397e-08 -0.000849998)
(0.293559 -1.59724e-08 -0.000901572)
(0.294134 -7.49575e-09 -0.000943953)
(0.294733 -4.0533e-10 -0.000977689)
(0.295352 6.10646e-09 -0.00100325)
(0.295985 1.22248e-08 -0.00102107)
(0.296627 1.79922e-08 -0.00103158)
(0.297273 2.39259e-08 -0.00103522)
(0.297919 2.96028e-08 -0.00103251)
(0.298561 3.27076e-08 -0.00102402)
(0.299195 3.07169e-08 -0.00101041)
(0.29982 2.27079e-08 -0.000992428)
(0.300431 8.87391e-09 -0.000970912)
(0.301027 -9.94069e-09 -0.000946789)
(0.301607 -3.1131e-08 -0.000921056)
(0.302171 -5.03037e-08 -0.000894765)
(0.302717 -6.30803e-08 -0.000869005)
(0.303247 -6.63423e-08 -0.000844881)
(0.303763 -5.8321e-08 -0.000823489)
(0.304266 -3.94415e-08 -0.000805894)
(0.304759 -1.33089e-08 -0.000793097)
(0.305245 1.43333e-08 -0.000786006)
(0.305729 3.80058e-08 -0.000785403)
(0.306214 5.36524e-08 -0.000791924)
(0.306705 5.86152e-08 -0.00080602)
(0.307207 5.19668e-08 -0.000827931)
(0.307725 3.5295e-08 -0.000857672)
(0.308264 1.25536e-08 -0.00089503)
(0.308828 -1.1121e-08 -0.000939555)
(0.309422 -3.08425e-08 -0.000990564)
(0.310048 -4.30672e-08 -0.00104716)
(0.310711 -4.62209e-08 -0.00110825)
(0.311413 -4.08263e-08 -0.00117258)
(0.312155 -2.89897e-08 -0.00123879)
(0.312938 -1.36195e-08 -0.00130538)
(0.313761 2.17084e-09 -0.00137087)
(0.314624 1.55665e-08 -0.00143375)
(0.315525 2.44466e-08 -0.00149257)
(0.31646 2.77424e-08 -0.001546)
(0.317426 2.55925e-08 -0.00159285)
(0.318419 1.91482e-08 -0.00163213)
(0.319434 9.9569e-09 -0.00166307)
(0.320465 -6.85591e-10 -0.00168514)
(0.321508 -1.18249e-08 -0.00169808)
(0.322556 -2.23588e-08 -0.00170188)
(0.323604 -3.06726e-08 -0.00169679)
(0.324646 -3.50177e-08 -0.0016833)
(0.325679 -3.42789e-08 -0.0016621)
(0.326697 -2.84401e-08 -0.0016341)
(0.327696 -1.84225e-08 -0.00160034)
(0.328674 -5.68884e-09 -0.00156198)
(0.329628 8.11353e-09 -0.00152029)
(0.330556 2.16186e-08 -0.00147652)
(0.331457 3.41169e-08 -0.00143192)
(0.332331 4.55105e-08 -0.0013877)
(0.333179 5.55725e-08 -0.00134494)
(0.334001 6.32482e-08 -0.00130461)
(0.3348 6.67935e-08 -0.00126753)
(0.335577 6.48649e-08 -0.00123436)
(0.336334 5.7596e-08 -0.00120555)
(0.337075 4.67702e-08 -0.0011814)
(0.337802 3.5056e-08 -0.001162)
(0.338517 2.47536e-08 -0.00114726)
(0.339225 1.67599e-08 -0.00113695)
(0.339926 1.02206e-08 -0.00113072)
(0.340623 3.10432e-09 -0.00112812)
(0.341319 -6.29565e-09 -0.00112865)
(0.342015 -1.78298e-08 -0.00113175)
(0.342712 -2.90985e-08 -0.00113686)
(0.343412 -3.68803e-08 -0.00114345)
(0.344115 -3.95447e-08 -0.00115102)
(0.344822 -3.8405e-08 -0.00115919)
(0.345533 -3.66649e-08 -0.0011677)
(0.346248 -3.64228e-08 -0.00117639)
(0.346967 -3.63852e-08 -0.00118525)
(0.347691 -3.24282e-08 -0.00119434)
(0.34842 -2.09142e-08 -0.00120386)
(0.349155 -2.14945e-09 -0.00121408)
(0.349895 1.90682e-08 -0.00122541)
(0.350642 3.67406e-08 -0.00123829)
(0.351396 4.80856e-08 -0.00125322)
(0.35216 5.52383e-08 -0.00127067)
(0.352934 6.24361e-08 -0.00129106)
(0.353721 7.12294e-08 -0.00131476)
(0.354523 7.84053e-08 -0.00134203)
(0.355341 7.86012e-08 -0.00137305)
(0.356178 6.91594e-08 -0.00140785)
(0.357035 5.24306e-08 -0.00144628)
(0.357915 3.38001e-08 -0.00148798)
(0.358819 1.71277e-08 -0.00153239)
(0.359748 1.61517e-09 -0.00157874)
(0.360703 -1.65027e-08 -0.00162608)
(0.361684 -3.83555e-08 -0.00167317)
(0.362689 -5.81774e-08 -0.0017185)
(0.363717 -6.67072e-08 -0.00176025)
(0.364763 -6.0636e-08 -0.00179631)
(0.365824 -4.71198e-08 -0.00182419)
(0.366892 -3.58596e-08 -0.00184107)
(0.36796 -2.72277e-08 -0.0018436)
(0.369017 -1.28859e-08 -0.00182791)
(0.370049 1.03939e-08 -0.00178944)
(0.37104 3.27359e-08 -0.00172286)
(0.371969 4.14663e-08 -0.00162201)
(0.372813 3.58376e-08 -0.00147969)
(0.373542 2.47597e-08 -0.00128742)
(0.374119 1.15599e-08 -0.00103529)
(0.374502 -9.48201e-09 -0.000711731)
(0.374638 -3.79582e-08 -0.000303317)
(0.374468 -5.81741e-08 0.000205395)
(0.373913 -5.37995e-08 0.000836274)
(0.372891 -2.92036e-08 0.00161499)
(0.3713 -5.56927e-09 0.00256668)
(0.369024 5.30859e-09 0.00371845)
(0.365931 1.02034e-08 0.00509929)
(0.361869 1.41613e-08 0.00673941)
(0.356672 7.6211e-09 0.00866909)
(0.350153 -1.35826e-08 0.0109171)
(0.342117 -3.17663e-08 0.0135083)
(0.332352 -3.27191e-08 0.0164608)
(0.320648 -3.32164e-08 0.0197825)
(0.306794 -5.37586e-08 0.0234657)
(0.290595 -7.70058e-08 0.0274812)
(0.271889 -6.33816e-08 0.0317698)
(0.250562 1.94256e-08 0.0362325)
(0.226576 2.14414e-07 0.0407153)
(0.200003 5.69076e-07 0.0449894)
(0.171068 1.09536e-06 0.0487196)
(0.140212 1.83082e-06 0.0514163)
(0.108133 2.89466e-06 0.0523415)
(0.0759871 4.36682e-06 0.0504304)
(0.0450987 6.24276e-06 0.0438441)
(0.0174434 8.83588e-06 0.030647)
(-0.00443394 1.14154e-05 0.00922348)
(-0.0179505 7.24305e-06 -0.0193468)
(-0.0112995 -3.19802e-05 -0.043379)
(-0.0103379 3.92472e-06 0.0358796)
(-0.0183704 -5.27353e-07 0.0216433)
(-0.00978655 -9.87803e-07 -0.00173563)
(0.00690312 -1.00935e-06 -0.0214401)
(0.0293313 -1.17052e-06 -0.0350469)
(0.0556614 -1.08791e-06 -0.0436085)
(0.0844513 -8.48337e-07 -0.0482991)
(0.11458 -5.88854e-07 -0.0502856)
(0.145102 -3.49004e-07 -0.0504026)
(0.175249 -1.34353e-07 -0.0491759)
(0.204439 3.23561e-08 -0.0469761)
(0.23222 1.37415e-07 -0.0440688)
(0.258248 1.7944e-07 -0.0406536)
(0.282267 1.66366e-07 -0.0368873)
(0.304094 1.1492e-07 -0.0328975)
(0.323611 4.57808e-08 -0.0287911)
(0.340757 -2.47929e-08 -0.0246592)
(0.355516 -8.82908e-08 -0.0205798)
(0.367919 -1.42059e-07 -0.0166198)
(0.37803 -1.86904e-07 -0.0128359)
(0.385946 -2.25675e-07 -0.00927567)
(0.39179 -2.60726e-07 -0.0059786)
(0.395704 -2.91324e-07 -0.00297664)
(0.397846 -3.13346e-07 -0.000293834)
(0.398379 -3.22389e-07 0.00206986)
(0.397498 -3.18186e-07 0.00412552)
(0.395386 -3.02987e-07 0.00587606)
(0.392226 -2.80302e-07 0.00732861)
(0.388195 -2.53783e-07 0.00849425)
(0.383463 -2.26784e-07 0.00938784)
(0.378191 -2.01675e-07 0.0100275)
(0.372527 -1.78957e-07 0.0104339)
(0.366609 -1.57244e-07 0.0106299)
(0.36056 -1.34467e-07 0.0106393)
(0.35449 -1.0953e-07 0.0104868)
(0.348494 -8.29496e-08 0.0101971)
(0.342652 -5.6128e-08 0.00979417)
(0.337031 -3.00512e-08 0.00930126)
(0.331685 -4.92795e-09 0.00874009)
(0.326654 1.91855e-08 0.00813073)
(0.321968 4.16024e-08 0.00749126)
(0.317644 6.07505e-08 0.00683765)
(0.313692 7.45937e-08 0.00618368)
(0.310114 8.15728e-08 0.00554089)
(0.306904 8.15405e-08 0.00491869)
(0.304051 7.59438e-08 0.0043244)
(0.30154 6.73015e-08 0.00376344)
(0.299353 5.81841e-08 0.00323947)
(0.29747 5.04146e-08 0.00275464)
(0.295869 4.47931e-08 0.00230976)
(0.294528 4.11627e-08 0.00190455)
(0.293424 3.87436e-08 0.00153784)
(0.292536 3.64014e-08 0.00120777)
(0.291844 3.28302e-08 0.000911969)
(0.291328 2.68632e-08 0.000647709)
(0.290969 1.78561e-08 0.000412007)
(0.290751 6.19287e-09 0.000201797)
(0.290659 -7.74946e-09 1.41319e-05)
(0.290678 -2.26645e-08 -0.000152003)
(0.290796 -3.59545e-08 -0.000297523)
(0.291002 -4.57111e-08 -0.000424837)
(0.291285 -5.06281e-08 -0.000535983)
(0.291637 -5.02626e-08 -0.000632725)
(0.292048 -4.51203e-08 -0.000716552)
(0.29251 -3.64389e-08 -0.000788693)
(0.293016 -2.60396e-08 -0.000850144)
(0.29356 -1.59724e-08 -0.000901716)
(0.294135 -7.49573e-09 -0.000944072)
(0.294734 -4.05329e-10 -0.000977766)
(0.295353 6.10645e-09 -0.00100328)
(0.295985 1.22248e-08 -0.00102106)
(0.296627 1.79921e-08 -0.00103153)
(0.297273 2.39258e-08 -0.00103517)
(0.297919 2.96027e-08 -0.00103247)
(0.298561 3.27075e-08 -0.001024)
(0.299196 3.07168e-08 -0.00101042)
(0.29982 2.27078e-08 -0.000992461)
(0.300431 8.87389e-09 -0.000970966)
(0.301028 -9.94067e-09 -0.000946853)
(0.301608 -3.11309e-08 -0.000921114)
(0.302171 -5.03036e-08 -0.000894811)
(0.302718 -6.30802e-08 -0.000869038)
(0.303248 -6.63422e-08 -0.000844904)
(0.303763 -5.83209e-08 -0.000823507)
(0.304266 -3.94414e-08 -0.00080591)
(0.304759 -1.33088e-08 -0.000793117)
(0.305245 1.43333e-08 -0.000786029)
(0.305729 3.80058e-08 -0.000785428)
(0.306214 5.36523e-08 -0.000791945)
(0.306705 5.86151e-08 -0.000806029)
(0.307208 5.19667e-08 -0.000827929)
(0.307726 3.52949e-08 -0.000857666)
(0.308265 1.25535e-08 -0.000895029)
(0.308829 -1.1121e-08 -0.000939568)
(0.309422 -3.08424e-08 -0.000990594)
(0.310049 -4.30671e-08 -0.0010472)
(0.310712 -4.62208e-08 -0.0011083)
(0.311413 -4.08262e-08 -0.00117263)
(0.312155 -2.89897e-08 -0.00123881)
(0.312938 -1.36195e-08 -0.00130537)
(0.313762 2.17084e-09 -0.00137081)
(0.314625 1.55665e-08 -0.00143364)
(0.315525 2.44466e-08 -0.00149243)
(0.316461 2.77424e-08 -0.00154583)
(0.317427 2.55924e-08 -0.00159268)
(0.31842 1.91482e-08 -0.00163198)
(0.319434 9.95689e-09 -0.00166296)
(0.320466 -6.8559e-10 -0.00168508)
(0.321508 -1.18249e-08 -0.00169807)
(0.322556 -2.23588e-08 -0.00170192)
(0.323604 -3.06725e-08 -0.00169687)
(0.324647 -3.50177e-08 -0.00168342)
(0.325679 -3.42788e-08 -0.00166225)
(0.326697 -2.84401e-08 -0.00163426)
(0.327697 -1.84225e-08 -0.00160051)
(0.328674 -5.68883e-09 -0.00156216)
(0.329628 8.11352e-09 -0.00152047)
(0.330556 2.16186e-08 -0.0014767)
(0.331457 3.41168e-08 -0.0014321)
(0.332332 4.55104e-08 -0.00138788)
(0.333179 5.55724e-08 -0.0013451)
(0.334002 6.32481e-08 -0.00130476)
(0.3348 6.67934e-08 -0.00126765)
(0.335577 6.48649e-08 -0.00123444)
(0.336334 5.75959e-08 -0.0012056)
(0.337075 4.67701e-08 -0.00118141)
(0.337802 3.50559e-08 -0.00116198)
(0.338518 2.47536e-08 -0.00114721)
(0.339225 1.67599e-08 -0.00113688)
(0.339926 1.02206e-08 -0.00113063)
(0.340624 3.10431e-09 -0.00112802)
(0.34132 -6.29564e-09 -0.00112854)
(0.342016 -1.78298e-08 -0.00113164)
(0.342713 -2.90984e-08 -0.00113674)
(0.343413 -3.68803e-08 -0.00114332)
(0.344115 -3.95446e-08 -0.00115089)
(0.344822 -3.84049e-08 -0.00115908)
(0.345533 -3.66649e-08 -0.00116762)
(0.346248 -3.64227e-08 -0.00117637)
(0.346967 -3.63851e-08 -0.00118528)
(0.347691 -3.24282e-08 -0.00119442)
(0.34842 -2.09141e-08 -0.00120398)
(0.349155 -2.14945e-09 -0.00121423)
(0.349895 1.90682e-08 -0.00122558)
(0.350642 3.67406e-08 -0.00123848)
(0.351396 4.80856e-08 -0.00125341)
(0.35216 5.52383e-08 -0.00127084)
(0.352935 6.24361e-08 -0.00129119)
(0.353721 7.12293e-08 -0.00131483)
(0.354523 7.84053e-08 -0.00134205)
(0.355341 7.86011e-08 -0.00137304)
(0.356178 6.91594e-08 -0.00140784)
(0.357035 5.24306e-08 -0.00144626)
(0.357915 3.38001e-08 -0.00148794)
(0.35882 1.71276e-08 -0.00153231)
(0.359749 1.61517e-09 -0.00157865)
(0.360704 -1.65027e-08 -0.00162599)
(0.361684 -3.83555e-08 -0.00167309)
(0.362689 -5.81774e-08 -0.00171843)
(0.363717 -6.67072e-08 -0.00176021)
(0.364763 -6.0636e-08 -0.0017963)
(0.365824 -4.71198e-08 -0.00182425)
(0.366892 -3.58596e-08 -0.00184118)
(0.36796 -2.72277e-08 -0.00184377)
(0.369017 -1.28859e-08 -0.0018281)
(0.370049 1.03939e-08 -0.00178964)
(0.37104 3.27359e-08 -0.00172309)
(0.37197 4.14663e-08 -0.00162227)
(0.372813 3.58376e-08 -0.00147995)
(0.373542 2.47596e-08 -0.00128764)
(0.374119 1.15599e-08 -0.00103547)
(0.374502 -9.482e-09 -0.000711866)
(0.374638 -3.79582e-08 -0.000303444)
(0.374468 -5.81741e-08 0.000205265)
(0.373914 -5.37994e-08 0.000836139)
(0.372891 -2.92035e-08 0.00161483)
(0.3713 -5.56927e-09 0.00256646)
(0.369025 5.30858e-09 0.00371818)
(0.365931 1.02034e-08 0.00509899)
(0.36187 1.41612e-08 0.0067391)
(0.356672 7.62109e-09 0.00866878)
(0.350154 -1.35826e-08 0.0109167)
(0.342117 -3.17663e-08 0.0135079)
(0.332353 -3.2719e-08 0.0164605)
(0.320648 -3.32163e-08 0.0197821)
(0.306794 -5.37585e-08 0.0234653)
(0.290596 -7.70056e-08 0.0274808)
(0.271889 -6.33814e-08 0.0317695)
(0.250562 1.94255e-08 0.0362321)
(0.226576 2.14413e-07 0.0407148)
(0.200003 5.69074e-07 0.0449887)
(0.171069 1.09535e-06 0.0487186)
(0.140214 1.83081e-06 0.0514151)
(0.108136 2.89465e-06 0.0523404)
(0.0759904 4.3668e-06 0.0504301)
(0.0451021 6.24274e-06 0.0438455)
(0.0174459 8.83584e-06 0.030652)
(-0.00443834 1.14154e-05 0.00923666)
(-0.0179803 7.24304e-06 -0.019318)
(-0.0113395 -3.19799e-05 -0.0433425)
(-0.00284389 4.52967e-06 0.0432173)
(0.0042695 7.85378e-07 0.0119602)
(0.0215258 4.07643e-07 -0.0198375)
(0.0418958 3.29832e-07 -0.0435586)
(0.0648945 1.50533e-07 -0.0600602)
(0.0898129 7.00349e-08 -0.070739)
(0.11615 1.66121e-08 -0.0768642)
(0.143347 -3.27365e-08 -0.0795649)
(0.170815 -8.53038e-08 -0.0797117)
(0.198015 -1.22354e-07 -0.0779366)
(0.22449 -1.39346e-07 -0.0747107)
(0.249856 -1.39606e-07 -0.0703926)
(0.273805 -1.29612e-07 -0.0652647)
(0.296093 -1.17859e-07 -0.0595568)
(0.31654 -1.09501e-07 -0.0534613)
(0.335017 -1.05502e-07 -0.0471428)
(0.351446 -1.0436e-07 -0.0407437)
(0.36579 -1.03795e-07 -0.0343876)
(0.378055 -1.0215e-07 -0.0281813)
(0.388277 -9.99476e-08 -0.0222162)
(0.396525 -9.93269e-08 -0.0165688)
(0.402891 -1.01241e-07 -0.011302)
(0.407486 -1.04259e-07 -0.00646462)
(0.410439 -1.05791e-07 -0.0020918)
(0.411888 -1.04301e-07 0.0017955)
(0.411988 -1.00092e-07 0.00519109)
(0.410903 -9.37264e-08 0.00810055)
(0.408795 -8.55318e-08 0.0105351)
(0.405823 -7.58189e-08 0.0125118)
(0.402139 -6.50464e-08 0.0140534)
(0.397891 -5.36133e-08 0.0151877)
(0.393217 -4.15574e-08 0.0159465)