/*--------------------------------*- C++ -*----------------------------------*\
  =========                 |
  \\      /  F ield         | OpenFOAM: The Open Source CFD Toolbox
   \\    /   O peration     | Website:  https://openfoam.org
    \\  /    A nd           | Version:  8
     \\/     M anipulation  |
\*---------------------------------------------------------------------------*/
FoamFile
{
    version     2.0;
    format      ascii;
    class       volScalarField;
    location    "3300";
    object      alphat;
}
// * * * * * * * * * * * * * * * * * * * * * * * * * * * * * * * * * * * * * //

dimensions      [1 -1 -1 0 0 0 0];

internalField   nonuniform List<scalar> 
48000
(
0.000121641
8.71356e-05
0.000106052
0.000121049
0.000133671
0.00014428
0.000153475
0.000161652
0.000169218
0.000176155
0.000182597
0.000188621
0.000194281
0.000199621
0.000204673
0.000209465
0.000214019
0.000218352
0.000222478
0.00022641
0.000230159
0.000233732
0.000237138
0.000240384
0.000243474
0.000246416
0.000249215
0.000251874
0.000254398
0.000256792
0.00025906
0.000261205
0.000263232
0.000265145
0.000266946
0.00026864
0.00027023
0.00027172
0.000273112
0.000274411
0.00027562
0.000276741
0.000277778
0.000278734
0.000279629
0.00028045
0.0002812
0.000281879
0.000282492
0.000283041
0.000283529
0.000283959
0.000284333
0.000284654
0.000284925
0.000285147
0.000285323
0.000285456
0.000285547
0.000285598
0.000285611
0.000285588
0.000285531
0.000285441
0.000285319
0.000285169
0.000284989
0.000284783
0.000284552
0.000284295
0.000284015
0.000283713
0.00028339
0.000283046
0.000282682
0.0002823
0.000281899
0.000281481
0.000281047
0.000280596
0.00028013
0.000279649
0.000279154
0.000278644
0.000278121
0.000277584
0.000277034
0.000276472
0.000275897
0.00027531
0.000274711
0.0002741
0.000273477
0.000272842
0.000272196
0.000271539
0.00027087
0.00027019
0.000269498
0.000268795
0.00026808
0.000267354
0.000266616
0.000265867
0.000265105
0.000264332
0.000263547
0.000262749
0.000261939
0.000261116
0.000260281
0.000259433
0.000258571
0.000257696
0.000256807
0.000255904
0.000254988
0.000254056
0.00025311
0.000252149
0.000251173
0.00025018
0.000249172
0.000248148
0.000247108
0.00024605
0.000244975
0.000243883
0.000242773
0.000241644
0.000240498
0.000239332
0.000238147
0.000236943
0.000235718
0.000234474
0.000233209
0.000231923
0.000230616
0.000229288
0.000227937
0.000226565
0.000225169
0.000223751
0.00022231
0.000220845
0.000219356
0.000217843
0.000216306
0.000214743
0.000213155
0.000211542
0.000209903
0.000208237
0.000206545
0.000204825
0.000203078
0.000201303
0.0001995
0.000197668
0.000195806
0.000193914
0.000191993
0.00019004
0.000188055
0.000186037
0.000183986
0.000181901
0.000179781
0.000177624
0.000175429
0.000173195
0.00017092
0.000168603
0.000166241
0.000163831
0.000161372
0.000158859
0.00015629
0.000153661
0.000150969
0.000148214
0.000145405
0.000142514
0.000139523
0.000136421
0.000133192
0.000129817
0.000126271
0.000122523
0.000118531
0.00011424
0.000109627
0.000104559
9.88725e-05
9.23168e-05
8.44546e-05
7.44634e-05
6.18375e-05
0.000183472
0.000121648
8.71307e-05
0.000106053
0.00012105
0.000133672
0.000144281
0.000153475
0.000161653
0.000169219
0.000176155
0.000182598
0.000188622
0.000194282
0.000199621
0.000204673
0.000209465
0.000214019
0.000218352
0.000222478
0.000226411
0.000230159
0.000233732
0.000237138
0.000240384
0.000243475
0.000246417
0.000249215
0.000251874
0.000254398
0.000256792
0.00025906
0.000261206
0.000263233
0.000265145
0.000266946
0.00026864
0.00027023
0.00027172
0.000273112
0.000274411
0.00027562
0.000276741
0.000277778
0.000278734
0.000279629
0.00028045
0.0002812
0.000281879
0.000282492
0.000283041
0.000283529
0.000283959
0.000284333
0.000284654
0.000284925
0.000285147
0.000285323
0.000285456
0.000285547
0.000285598
0.000285611
0.000285588
0.000285531
0.000285441
0.000285319
0.000285169
0.000284989
0.000284783
0.000284551
0.000284295
0.000284015
0.000283713
0.00028339
0.000283046
0.000282682
0.0002823
0.000281899
0.000281481
0.000281047
0.000280596
0.00028013
0.000279649
0.000279154
0.000278644
0.000278121
0.000277584
0.000277034
0.000276472
0.000275897
0.00027531
0.000274711
0.0002741
0.000273477
0.000272842
0.000272196
0.000271539
0.00027087
0.00027019
0.000269498
0.000268795
0.00026808
0.000267354
0.000266616
0.000265867
0.000265105
0.000264332
0.000263547
0.000262749
0.000261939
0.000261116
0.000260281
0.000259433
0.000258571
0.000257696
0.000256807
0.000255904
0.000254988
0.000254056
0.00025311
0.000252149
0.000251173
0.00025018
0.000249172
0.000248148
0.000247107
0.00024605
0.000244975
0.000243883
0.000242773
0.000241644
0.000240498
0.000239332
0.000238147
0.000236943
0.000235718
0.000234474
0.000233209
0.000231923
0.000230616
0.000229288
0.000227937
0.000226565
0.000225169
0.000223751
0.00022231
0.000220845
0.000219356
0.000217843
0.000216306
0.000214743
0.000213155
0.000211542
0.000209903
0.000208237
0.000206545
0.000204825
0.000203078
0.000201303
0.0001995
0.000197668
0.000195806
0.000193914
0.000191993
0.00019004
0.000188055
0.000186037
0.000183986
0.000181901
0.000179781
0.000177624
0.000175429
0.000173195
0.00017092
0.000168603
0.000166241
0.000163831
0.000161372
0.000158859
0.00015629
0.000153661
0.00015097
0.000148214
0.000145405
0.000142514
0.000139523
0.000136421
0.000133193
0.000129817
0.000126271
0.000122523
0.000118531
0.00011424
0.000109627
0.000104559
9.88725e-05
9.23166e-05
8.44539e-05
7.44623e-05
6.18425e-05
0.000183481
7.56743e-05
0.000551203
0.000872235
0.00109745
0.00126502
0.00140222
0.0015199
0.00162336
0.00171536
0.00179873
0.00187501
0.00194533
0.00201057
0.00207139
0.00212831
0.00218175
0.00223204
0.00227947
0.00232428
0.00236666
0.00240679
0.00244482
0.00248087
0.00251507
0.00254751
0.00257829
0.0026075
0.0026352
0.00266146
0.00268636
0.00270995
0.00273228
0.00275341
0.00277339
0.00279225
0.00281005
0.00282683
0.00284262
0.00285747
0.0028714
0.00288446
0.00289666
0.00290801
0.0029185
0.00292794
0.00293661
0.00294459
0.00295193
0.00295867
0.00296483
0.00297046
0.00297555
0.00298015
0.00298426
0.00298791
0.00299112
0.00299391
0.00299629
0.00299827
0.00299988
0.00300113
0.00300204
0.00300261
0.00300286
0.00300281
0.00300246
0.00300183
0.00300093
0.00299977
0.00299836
0.0029967
0.00299481
0.00299269
0.00299036
0.00298782
0.00298507
0.00298213
0.00297899
0.00297567
0.00297218
0.0029685
0.00296466
0.00296065
0.00295648
0.00295215
0.00294766
0.00294302
0.00293823
0.0029333
0.00292821
0.00292298
0.00291761
0.0029121
0.00290644
0.00290065
0.00289472
0.00288864
0.00288243
0.00287608
0.00286959
0.00286296
0.00285618
0.00284927
0.00284221
0.00283501
0.00282767
0.00282018
0.00281254
0.00280475
0.00279681
0.00278871
0.00278046
0.00277205
0.00276348
0.00275475
0.00274586
0.00273679
0.00272756
0.00271815
0.00270857
0.00269881
0.00268887
0.00267874
0.00266842
0.00265791
0.00264721
0.00263631
0.00262521
0.00261391
0.0026024
0.00259068
0.00257874
0.00256659
0.00255422
0.00254162
0.00252879
0.00251573
0.00250244
0.00248891
0.00247514
0.00246112
0.00244686
0.00243234
0.00241757
0.00240254
0.00238724
0.00237168
0.00235585
0.00233974
0.00232335
0.00230669
0.00228974
0.00227249
0.00225496
0.00223712
0.00221898
0.00220053
0.00218177
0.00216268
0.00214328
0.00212353
0.00210345
0.00208302
0.00206224
0.00204108
0.00201956
0.00199765
0.00197533
0.00195261
0.00192946
0.00190586
0.00188179
0.00185724
0.00183218
0.00180657
0.00178039
0.0017536
0.00172615
0.00169798
0.00166902
0.00163917
0.0016083
0.00157622
0.00154292
0.00150832
0.00147229
0.0014346
0.00139501
0.00135316
0.00130857
0.00126055
0.00120797
0.00114865
0.00108163
0.00100412
0.00091141
0.000794944
0.000637457
0.000399768
5.3771e-05
7.56688e-05
0.000551207
0.000872251
0.00109747
0.00126504
0.00140224
0.00151992
0.00162337
0.00171538
0.00179875
0.00187502
0.00194535
0.00201059
0.00207141
0.00212833
0.00218176
0.00223205
0.00227949
0.00232429
0.00236667
0.0024068
0.00244483
0.00248088
0.00251508
0.00254752
0.00257831
0.00260751
0.00263521
0.00266148
0.00268637
0.00270996
0.00273229
0.00275342
0.0027734
0.00279226
0.00281006
0.00282684
0.00284263
0.00285748
0.00287141
0.00288446
0.00289666
0.00290802
0.00291851
0.00292795
0.00293662
0.00294459
0.00295194
0.00295867
0.00296484
0.00297046
0.00297556
0.00298016
0.00298427
0.00298792
0.00299113
0.00299392
0.00299629
0.00299828
0.00299989
0.00300114
0.00300205
0.00300262
0.00300287
0.00300282
0.00300247
0.00300184
0.00300094
0.00299978
0.00299836
0.00299671
0.00299481
0.0029927
0.00299037
0.00298782
0.00298508
0.00298213
0.002979
0.00297568
0.00297218
0.00296851
0.00296467
0.00296066
0.00295649
0.00295216
0.00294767
0.00294303
0.00293824
0.0029333
0.00292822
0.00292299
0.00291762
0.0029121
0.00290645
0.00290066
0.00289472
0.00288865
0.00288244
0.00287608
0.00286959
0.00286296
0.00285619
0.00284927
0.00284222
0.00283502
0.00282767
0.00282018
0.00281254
0.00280475
0.00279681
0.00278872
0.00278047
0.00277206
0.00276349
0.00275476
0.00274586
0.0027368
0.00272757
0.00271816
0.00270858
0.00269881
0.00268887
0.00267874
0.00266843
0.00265792
0.00264722
0.00263632
0.00262522
0.00261392
0.00260241
0.00259068
0.00257875
0.0025666
0.00255422
0.00254162
0.0025288
0.00251574
0.00250245
0.00248892
0.00247515
0.00246113
0.00244686
0.00243235
0.00241757
0.00240254
0.00238724
0.00237168
0.00235585
0.00233974
0.00232336
0.00230669
0.00228974
0.0022725
0.00225496
0.00223713
0.00221899
0.00220054
0.00218177
0.00216269
0.00214328
0.00212354
0.00210346
0.00208303
0.00206224
0.00204109
0.00201956
0.00199765
0.00197534
0.00195261
0.00192946
0.00190586
0.0018818
0.00185725
0.00183218
0.00180658
0.0017804
0.0017536
0.00172615
0.00169798
0.00166902
0.00163918
0.00160831
0.00157623
0.00154293
0.00150833
0.00147229
0.00143461
0.00139501
0.00135317
0.00130858
0.00126056
0.00120797
0.00114865
0.00108163
0.00100412
0.00091141
0.000794945
0.000637463
0.000399764
5.37627e-05
9.14286e-05
0.000834048
0.00148278
0.00196816
0.00235022
0.00266699
0.00293895
0.00317793
0.00339111
0.00358365
0.0037591
0.00392012
0.00406871
0.00420644
0.00433456
0.00445412
0.00456595
0.00467078
0.00476924
0.00486184
0.00494905
0.00503128
0.00510889
0.00518221
0.00525151
0.00531705
0.00537907
0.00543778
0.00549338
0.00554603
0.0055959
0.00564313
0.00568786
0.00573022
0.00577031
0.00580826
0.00584414
0.00587807
0.00591011
0.00594035
0.00596886
0.00599569
0.00602088
0.00604442
0.00606626
0.00608661
0.00610558
0.00612328
0.00613977
0.00615513
0.0061694
0.00618263
0.00619486
0.00620613
0.00621649
0.00622596
0.00623458
0.00624239
0.00624941
0.00625567
0.0062612
0.00626603
0.00627018
0.00627368
0.00627655
0.00627881
0.00628048
0.00628158
0.00628213
0.00628215
0.00628166
0.00628067
0.00627919
0.00627725
0.00627485
0.00627201
0.00626873
0.00626504
0.00626094
0.00625644
0.00625154
0.00624627
0.00624062
0.0062346
0.00622822
0.00622148
0.0062144
0.00620696
0.00619919
0.00619108
0.00618263
0.00617385
0.00616474
0.0061553
0.00614553
0.00613543
0.00612501
0.00611427
0.00610319
0.00609179
0.00608006
0.00606801
0.00605562
0.00604289
0.00602983
0.00601643
0.0060027
0.00598861
0.00597418
0.00595939
0.00594425
0.00592875
0.00591288
0.00589664
0.00588003
0.00586304
0.00584566
0.00582789
0.00580973
0.00579116
0.00577218
0.00575279
0.00573297
0.00571273
0.00569206
0.00567094
0.00564937
0.00562735
0.00560486
0.0055819
0.00555847
0.00553455
0.00551014
0.00548523
0.00545981
0.00543387
0.00540741
0.00538041
0.00535288
0.0053248
0.00529616
0.00526695
0.00523717
0.0052068
0.00517584
0.00514428
0.00511211
0.00507931
0.00504588
0.00501181
0.00497708
0.00494169
0.00490562
0.00486885
0.00483139
0.0047932
0.00475428
0.00471461
0.00467418
0.00463296
0.00459093
0.00454808
0.00450438
0.0044598
0.00441433
0.00436791
0.00432054
0.00427215
0.00422273
0.00417222
0.00412056
0.00406771
0.00401359
0.00395814
0.00390128
0.00384289
0.00378289
0.00372112
0.00365745
0.00359167
0.00352355
0.00345283
0.00337918
0.00330233
0.00322193
0.00313746
0.0030483
0.00295368
0.00285254
0.0027435
0.00262466
0.00249332
0.00234559
0.00217709
0.00198114
0.00174718
0.00145846
0.00108783
0.00059601
6.54188e-05
9.14294e-05
0.000834062
0.00148281
0.0019682
0.00235026
0.00266703
0.00293899
0.00317797
0.00339115
0.00358368
0.00375914
0.00392016
0.00406874
0.00420647
0.00433459
0.00445415
0.00456598
0.00467081
0.00476926
0.00486186
0.00494907
0.00503131
0.00510892
0.00518223
0.00525152
0.00531707
0.00537909
0.0054378
0.00549339
0.00554604
0.00559591
0.00564314
0.00568787
0.00573023
0.00577033
0.00580827
0.00584415
0.00587808
0.00591012
0.00594036
0.00596887
0.0059957
0.00602089
0.00604443
0.00606627
0.00608661
0.00610559
0.00612328
0.00613978
0.00615514
0.0061694
0.00618263
0.00619486
0.00620614
0.00621649
0.00622596
0.00623459
0.00624239
0.00624941
0.00625567
0.00626121
0.00626604
0.00627019
0.00627368
0.00627655
0.00627881
0.00628048
0.00628158
0.00628213
0.00628215
0.00628166
0.00628067
0.00627919
0.00627725
0.00627485
0.00627201
0.00626874
0.00626504
0.00626094
0.00625644
0.00625155
0.00624627
0.00624062
0.0062346
0.00622822
0.00622149
0.0062144
0.00620697
0.00619919
0.00619108
0.00618263
0.00617385
0.00616474
0.0061553
0.00614553
0.00613544
0.00612502
0.00611427
0.0061032
0.00609179
0.00608007
0.00606801
0.00605562
0.00604289
0.00602983
0.00601644
0.0060027
0.00598861
0.00597418
0.00595939
0.00594425
0.00592875
0.00591288
0.00589664
0.00588003
0.00586304
0.00584566
0.00582789
0.00580973
0.00579116
0.00577218
0.00575279
0.00573298
0.00571273
0.00569206
0.00567094
0.00564937
0.00562735
0.00560486
0.0055819
0.00555847
0.00553455
0.00551014
0.00548523
0.00545981
0.00543387
0.00540741
0.00538042
0.00535288
0.0053248
0.00529616
0.00526695
0.00523717
0.0052068
0.00517584
0.00514428
0.00511211
0.00507931
0.00504588
0.00501181
0.00497708
0.00494169
0.00490562
0.00486885
0.00483139
0.0047932
0.00475428
0.00471461
0.00467418
0.00463296
0.00459093
0.00454808
0.00450438
0.0044598
0.00441433
0.00436791
0.00432054
0.00427215
0.00422273
0.00417222
0.00412056
0.00406771
0.00401359
0.00395814
0.00390128
0.00384289
0.00378289
0.00372112
0.00365745
0.00359167
0.00352355
0.00345283
0.00337919
0.00330233
0.00322193
0.00313746
0.0030483
0.00295368
0.00285254
0.0027435
0.00262466
0.00249332
0.00234559
0.00217709
0.00198114
0.00174718
0.00145846
0.00108783
0.000596006
6.54199e-05
0.000103486
0.00100626
0.00189225
0.00259517
0.00316891
0.00365305
0.00407234
0.00444255
0.00477409
0.0050742
0.00534812
0.00559974
0.00583205
0.0060474
0.0062477
0.0064345
0.00660911
0.00677265
0.00692608
0.00707023
0.00720583
0.00733355
0.00745395
0.00756757
0.00767487
0.00777627
0.00787218
0.00796292
0.00804884
0.00813021
0.00820732
0.0082804
0.00834968
0.00841536
0.00847765
0.00853671
0.00859271
0.00864579
0.00869609
0.00874374
0.00878884
0.00883149
0.00887177
0.00890973
0.0089454
0.00897896
0.00901054
0.00904025
0.00906819
0.00909445
0.00911912
0.00914226
0.00916394
0.00918421
0.00920313
0.00922076
0.00923714
0.00925232
0.00926634
0.00927925
0.00929107
0.00930186
0.00931165
0.00932046
0.00932833
0.0093353
0.00934139
0.00934662
0.00935103
0.00935464
0.00935747
0.00935954
0.00936088
0.0093615
0.00936142
0.00936067
0.00935925
0.00935718
0.00935448
0.00935115
0.00934722
0.00934269
0.00933757
0.00933187
0.0093256
0.00931877
0.00931139
0.00930345
0.00929497
0.00928596
0.00927641
0.00926633
0.00925572
0.00924458
0.00923292
0.00922073
0.00920802
0.00919479
0.00918103
0.00916675
0.00915194
0.0091366
0.00912073
0.00910432
0.00908737
0.00906988
0.00905184
0.00903325
0.0090141
0.00899438
0.0089741
0.00895324
0.00893179
0.00890975
0.00888712
0.00886387
0.00884002
0.00881554
0.00879042
0.00876467
0.00873827
0.0087112
0.00868347
0.00865505
0.00862595
0.00859614
0.00856562
0.00853438
0.0085024
0.00846967
0.00843619
0.00840194
0.0083669
0.00833107
0.00829443
0.00825697
0.00821867
0.00817953
0.00813952
0.00809864
0.00805687
0.00801419
0.00797059
0.00792606
0.00788057
0.00783411
0.00778666
0.00773821
0.00768873
0.00763821
0.00758662
0.00753395
0.00748017
0.00742526
0.00736919
0.00731194
0.00725347
0.00719376
0.00713277
0.00707048
0.00700684
0.0069418
0.00687534
0.00680739
0.00673791
0.00666685
0.00659413
0.00651969
0.00644345
0.00636533
0.00628523
0.00620305
0.00611867
0.00603194
0.00594273
0.00585086
0.00575611
0.00565826
0.00555702
0.00545208
0.00534304
0.00522946
0.00511081
0.00498652
0.00485586
0.00471794
0.00457165
0.00441555
0.00424784
0.00406618
0.00386752
0.00364778
0.00340155
0.00312165
0.00279884
0.00241953
0.00196456
0.00140796
0.00072627
7.44949e-05
0.000103487
0.00100628
0.00189229
0.00259522
0.00316896
0.0036531
0.00407239
0.0044426
0.00477414
0.00507425
0.00534817
0.00559979
0.0058321
0.00604745
0.00624774
0.00643454
0.00660915
0.00677269
0.00692612
0.00707026
0.00720587
0.00733358
0.00745398
0.0075676
0.00767489
0.0077763
0.0078722
0.00796295
0.00804886
0.00813024
0.00820734
0.00828042
0.00834969
0.00841538
0.00847766
0.00853672
0.00859272
0.0086458
0.0086961
0.00874375
0.00878885
0.0088315
0.00887178
0.00890974
0.00894541
0.00897897
0.00901054
0.00904025
0.00906819
0.00909446
0.00911913
0.00914227
0.00916394
0.00918421
0.00920314
0.00922076
0.00923714
0.00925232
0.00926634
0.00927925
0.00929108
0.00930186
0.00931165
0.00932046
0.00932833
0.0093353
0.00934139
0.00934662
0.00935103
0.00935464
0.00935747
0.00935954
0.00936088
0.0093615
0.00936142
0.00936067
0.00935925
0.00935718
0.00935448
0.00935115
0.00934722
0.00934269
0.00933757
0.00933187
0.0093256
0.00931877
0.00931139
0.00930345
0.00929497
0.00928596
0.00927641
0.00926632
0.00925571
0.00924458
0.00923292
0.00922073
0.00920802
0.00919479
0.00918103
0.00916675
0.00915194
0.0091366
0.00912073
0.00910432
0.00908737
0.00906988
0.00905184
0.00903325
0.0090141
0.00899438
0.0089741
0.00895323
0.00893179
0.00890975
0.00888711
0.00886387
0.00884001
0.00881553
0.00879042
0.00876467
0.00873826
0.0087112
0.00868346
0.00865505
0.00862594
0.00859613
0.00856561
0.00853437
0.00850239
0.00846967
0.00843619
0.00840193
0.0083669
0.00833106
0.00829442
0.00825696
0.00821867
0.00817952
0.00813952
0.00809864
0.00805686
0.00801419
0.00797059
0.00792605
0.00788056
0.0078341
0.00778665
0.0077382
0.00768872
0.0076382
0.00758662
0.00753395
0.00748017
0.00742526
0.00736919
0.00731193
0.00725347
0.00719376
0.00713277
0.00707047
0.00700683
0.0069418
0.00687533
0.00680739
0.00673791
0.00666684
0.00659412
0.00651968
0.00644344
0.00636532
0.00628522
0.00620304
0.00611866
0.00603194
0.00594273
0.00585085
0.0057561
0.00565825
0.00555702
0.00545207
0.00534303
0.00522945
0.00511081
0.00498651
0.00485586
0.00471794
0.00457164
0.00441555
0.00424784
0.00406617
0.00386752
0.00364778
0.00340155
0.00312165
0.00279884
0.00241953
0.00196456
0.00140797
0.000726269
7.44953e-05
0.000113314
0.00112375
0.00218446
0.00306213
0.00379583
0.00442373
0.00497233
0.00545962
0.005898
0.00629632
0.00666102
0.00699695
0.00730785
0.00759669
0.00786585
0.0081173
0.0083527
0.00857346
0.0087808
0.00897579
0.00915938
0.00933241
0.00949564
0.00964976
0.00979538
0.00993308
0.0100634
0.0101867
0.0103036
0.0104143
0.0105194
0.010619
0.0107136
0.0108033
0.0108885
0.0109695
0.0110463
0.0111194
0.0111887
0.0112545
0.0113171
0.0113764
0.0114326
0.0114858
0.0115362
0.0115839
0.011629
0.0116717
0.0117121
0.0117503
0.0117864
0.0118205
0.0118527
0.011883
0.0119116
0.0119385
0.0119638
0.0119875
0.0120096
0.0120304
0.0120497
0.0120676
0.0120843
0.0120997
0.0121138
0.0121268
0.0121386
0.0121492
0.0121588
0.0121673
0.0121748
0.0121813
0.0121868
0.0121914
0.012195
0.0121978
0.0121996
0.0122006
0.0122007
0.0122
0.0121985
0.0121961
0.012193
0.0121891
0.0121844
0.0121789
0.0121727
0.0121657
0.012158
0.0121496
0.0121404
0.0121305
0.0121199
0.0121086
0.0120965
0.0120837
0.0120702
0.012056
0.0120411
0.0120254
0.012009
0.0119919
0.011974
0.0119554
0.0119361
0.011916
0.0118952
0.0118736
0.0118513
0.0118281
0.0118042
0.0117795
0.011754
0.0117277
0.0117005
0.0116725
0.0116437
0.011614
0.0115835
0.0115521
0.0115197
0.0114865
0.0114524
0.0114173
0.0113813
0.0113443
0.0113063
0.0112674
0.0112274
0.0111864
0.0111444
0.0111013
0.0110571
0.0110119
0.0109655
0.010918
0.0108694
0.0108195
0.0107685
0.0107163
0.0106629
0.0106082
0.0105522
0.0104949
0.0104363
0.0103764
0.010315
0.0102523
0.0101882
0.0101225
0.0100554
0.00998679
0.00991659
0.00984479
0.00977136
0.00969626
0.00961943
0.00954084
0.00946042
0.00937814
0.00929393
0.00920773
0.00911947
0.00902907
0.00893647
0.00884156
0.00874426
0.00864447
0.00854205
0.00843689
0.00832884
0.00821774
0.00810341
0.00798564
0.00786421
0.00773885
0.00760926
0.00747509
0.00733593
0.00719131
0.00704067
0.00688337
0.00671866
0.00654564
0.00636324
0.00617017
0.0059648
0.00574514
0.0055087
0.0052523
0.00497192
0.00466241
0.00431714
0.00392757
0.00348286
0.00296867
0.0023665
0.00165494
0.000825728
8.17511e-05
0.000113314
0.00112377
0.00218449
0.00306217
0.00379589
0.00442379
0.0049724
0.00545968
0.00589807
0.00629638
0.00666108
0.00699701
0.00730791
0.00759675
0.0078659
0.00811735
0.00835275
0.00857351
0.00878085
0.00897584
0.00915942
0.00933245
0.00949568
0.0096498
0.00979542
0.00993312
0.0100634
0.0101868
0.0103036
0.0104144
0.0105194
0.010619
0.0107136
0.0108033
0.0108886
0.0109695
0.0110464
0.0111194
0.0111887
0.0112546
0.0113171
0.0113764
0.0114326
0.0114859
0.0115362
0.0115839
0.011629
0.0116717
0.0117121
0.0117503
0.0117864
0.0118205
0.0118527
0.011883
0.0119116
0.0119385
0.0119638
0.0119875
0.0120096
0.0120304
0.0120497
0.0120676
0.0120843
0.0120997
0.0121138
0.0121268
0.0121386
0.0121492
0.0121588
0.0121673
0.0121748
0.0121813
0.0121868
0.0121914
0.012195
0.0121978
0.0121996
0.0122006
0.0122007
0.0122
0.0121985
0.0121961
0.012193
0.012189
0.0121844
0.0121789
0.0121727
0.0121657
0.012158
0.0121496
0.0121404
0.0121305
0.0121199
0.0121085
0.0120965
0.0120837
0.0120702
0.012056
0.012041
0.0120254
0.012009
0.0119919
0.011974
0.0119554
0.0119361
0.011916
0.0118952
0.0118736
0.0118513
0.0118281
0.0118042
0.0117795
0.011754
0.0117277
0.0117005
0.0116725
0.0116437
0.011614
0.0115835
0.011552
0.0115197
0.0114865
0.0114524
0.0114173
0.0113813
0.0113443
0.0113063
0.0112674
0.0112274
0.0111864
0.0111444
0.0111013
0.0110571
0.0110119
0.0109655
0.010918
0.0108694
0.0108195
0.0107685
0.0107163
0.0106629
0.0106082
0.0105522
0.0104949
0.0104363
0.0103764
0.010315
0.0102523
0.0101882
0.0101225
0.0100554
0.00998678
0.00991658
0.00984479
0.00977136
0.00969625
0.00961942
0.00954083
0.00946042
0.00937813
0.00929392
0.00920772
0.00911946
0.00902907
0.00893646
0.00884156
0.00874426
0.00864446
0.00854204
0.00843688
0.00832883
0.00821773
0.0081034
0.00798563
0.0078642
0.00773884
0.00760925
0.00747508
0.00733592
0.0071913
0.00704066
0.00688337
0.00671865
0.00654563
0.00636324
0.00617016
0.0059648
0.00574514
0.00550869
0.00525229
0.00497192
0.00466241
0.00431714
0.00392757
0.00348286
0.00296867
0.0023665
0.00165494
0.000825726
8.17512e-05
0.000121685
0.00121728
0.00241101
0.00342761
0.00429253
0.00504114
0.00570028
0.0062891
0.00682127
0.0073067
0.00775273
0.00816491
0.00854754
0.00890403
0.00923712
0.00954909
0.00984184
0.010117
0.010376
0.01062
0.0108501
0.0110674
0.0112727
0.0114668
0.0116504
0.0118243
0.011989
0.0121451
0.0122931
0.0124336
0.0125669
0.0126936
0.0128139
0.0129282
0.0130369
0.0131403
0.0132386
0.0133321
0.0134211
0.0135058
0.0135863
0.0136629
0.0137357
0.0138049
0.0138706
0.013933
0.0139923
0.0140486
0.0141021
0.0141528
0.014201
0.0142467
0.0142901
0.0143312
0.0143702
0.014407
0.0144419
0.0144748
0.0145059
0.0145352
0.0145628
0.0145887
0.014613
0.0146357
0.0146569
0.0146766
0.0146949
0.0147119
0.0147275
0.0147417
0.0147548
0.0147665
0.0147771
0.0147865
0.0147947
0.0148019
0.0148079
0.0148128
0.0148167
0.0148195
0.0148213
0.0148221
0.0148219
0.0148207
0.0148186
0.0148155
0.0148114
0.0148064
0.0148005
0.0147937
0.0147859
0.0147772
0.0147676
0.0147571
0.0147457
0.0147333
0.0147201
0.014706
0.0146909
0.0146749
0.014658
0.0146402
0.0146215
0.0146018
0.0145812
0.0145596
0.0145371
0.0145136
0.0144891
0.0144637
0.0144373
0.0144098
0.0143814
0.0143519
0.0143214
0.0142898
0.0142571
0.0142234
0.0141886
0.0141526
0.0141156
0.0140773
0.014038
0.0139974
0.0139556
0.0139126
0.0138684
0.0138229
0.0137762
0.0137281
0.0136787
0.013628
0.0135759
0.0135224
0.0134675
0.0134111
0.0133533
0.013294
0.0132332
0.0131708
0.0131069
0.0130413
0.0129742
0.0129053
0.0128348
0.0127625
0.0126885
0.0126126
0.0125349
0.0124553
0.0123738
0.0122903
0.0122048
0.0121172
0.0120275
0.0119356
0.0118415
0.0117451
0.0116462
0.011545
0.0114412
0.0113348
0.0112257
0.0111137
0.0109989
0.010881
0.01076
0.0106357
0.0105079
0.0103764
0.0102411
0.0101018
0.00995813
0.00980992
0.00965683
0.00949849
0.00933452
0.00916443
0.00898771
0.00880371
0.00861172
0.00841089
0.00820023
0.00797856
0.00774449
0.00749633
0.00723202
0.00694905
0.00664436
0.00631412
0.00595359
0.00555686
0.00511654
0.00462339
0.00406582
0.00343
0.00269924
0.00185706
0.000907478
8.78833e-05
0.000121686
0.00121729
0.00241104
0.00342765
0.00429259
0.00504121
0.00570035
0.00628917
0.00682134
0.00730677
0.0077528
0.00816498
0.00854761
0.0089041
0.00923719
0.00954916
0.00984191
0.0101171
0.010376
0.01062
0.0108502
0.0110675
0.0112727
0.0114668
0.0116505
0.0118243
0.011989
0.0121451
0.0122932
0.0124336
0.012567
0.0126936
0.0128139
0.0129282
0.0130369
0.0131403
0.0132386
0.0133322
0.0134211
0.0135058
0.0135863
0.0136629
0.0137357
0.0138049
0.0138706
0.013933
0.0139923
0.0140486
0.0141021
0.0141528
0.014201
0.0142467
0.0142901
0.0143312
0.0143702
0.014407
0.0144419
0.0144749
0.0145059
0.0145352
0.0145628
0.0145887
0.014613
0.0146357
0.0146569
0.0146766
0.0146949
0.0147119
0.0147275
0.0147417
0.0147548
0.0147665
0.0147771
0.0147865
0.0147947
0.0148019
0.0148079
0.0148128
0.0148167
0.0148195
0.0148213
0.0148221
0.0148219
0.0148207
0.0148186
0.0148155
0.0148114
0.0148064
0.0148005
0.0147937
0.0147859
0.0147772
0.0147676
0.0147571
0.0147457
0.0147333
0.0147201
0.014706
0.0146909
0.0146749
0.014658
0.0146402
0.0146215
0.0146018
0.0145812
0.0145596
0.0145371
0.0145136
0.0144891
0.0144637
0.0144373
0.0144098
0.0143814
0.0143519
0.0143214
0.0142898
0.0142571
0.0142234
0.0141886
0.0141526
0.0141156
0.0140773
0.0140379
0.0139974
0.0139556
0.0139126
0.0138684
0.0138229
0.0137761
0.0137281
0.0136787
0.013628
0.0135759
0.0135224
0.0134675
0.0134111
0.0133533
0.013294
0.0132332
0.0131708
0.0131069
0.0130413
0.0129742
0.0129053
0.0128348
0.0127625
0.0126885
0.0126126
0.0125349
0.0124553
0.0123738
0.0122903
0.0122048
0.0121172
0.0120275
0.0119356
0.0118415
0.0117451
0.0116462
0.011545
0.0114412
0.0113348
0.0112257
0.0111137
0.0109989
0.010881
0.01076
0.0106357
0.0105078
0.0103764
0.0102411
0.0101018
0.00995813
0.00980991
0.00965682
0.00949849
0.00933451
0.00916443
0.0089877
0.0088037
0.00861171
0.00841088
0.00820022
0.00797856
0.00774449
0.00749632
0.00723201
0.00694905
0.00664435
0.00631411
0.00595358
0.00555686
0.00511654
0.00462339
0.00406582
0.00343
0.00269925
0.00185706
0.000907476
8.78833e-05
0.000129124
0.00129739
0.00259808
0.00372678
0.00469954
0.00554908
0.00630197
0.00697796
0.00759149
0.00815323
0.00867114
0.0091513
0.00959842
0.0100162
0.0104077
0.0107755
0.0111214
0.0114475
0.0117551
0.0120456
0.0123202
0.0125799
0.0128259
0.0130588
0.0132796
0.013489
0.0136877
0.0138762
0.0140553
0.0142255
0.0143872
0.014541
0.0146872
0.0148264
0.0149589
0.015085
0.0152052
0.0153196
0.0154286
0.0155325
0.0156315
0.0157258
0.0158156
0.0159012
0.0159827
0.0160603
0.0161342
0.0162045
0.0162715
0.0163353
0.0163961
0.0164539
0.0165089
0.0165613
0.0166111
0.0166584
0.0167033
0.016746
0.0167865
0.0168248
0.0168611
0.0168954
0.0169279
0.0169584
0.0169872
0.0170143
0.0170396
0.0170634
0.0170855
0.0171061
0.0171252
0.0171428
0.017159
0.0171738
0.0171873
0.0171994
0.0172102
0.0172197
0.0172279
0.0172349
0.0172407
0.0172453
0.0172487
0.0172509
0.017252
0.0172519
0.0172507
0.0172483
0.0172449
0.0172403
0.0172346
0.0172279
0.01722
0.017211
0.017201
0.0171898
0.0171776
0.0171643
0.0171499
0.0171343
0.0171177
0.0170999
0.0170811
0.0170611
0.01704
0.0170177
0.0169943
0.0169698
0.016944
0.0169171
0.016889
0.0168596
0.0168291
0.0167973
0.0167642
0.0167299
0.0166943
0.0166574
0.0166192
0.0165796
0.0165386
0.0164963
0.0164526
0.0164074
0.0163608
0.0163127
0.0162631
0.016212
0.0161593
0.0161051
0.0160493
0.0159918
0.0159327
0.0158719
0.0158094
0.0157452
0.0156791
0.0156113
0.0155416
0.01547
0.0153965
0.0153211
0.0152437
0.0151642
0.0150827
0.014999
0.0149132
0.0148251
0.0147348
0.0146422
0.0145472
0.0144498
0.0143499
0.0142474
0.0141424
0.0140346
0.0139241
0.0138107
0.0136943
0.013575
0.0134525
0.0133268
0.0131977
0.0130651
0.0129289
0.0127889
0.0126449
0.0124969
0.0123445
0.0121876
0.0120258
0.0118591
0.0116869
0.011509
0.0113251
0.0111345
0.0109369
0.0107317
0.0105182
0.0102956
0.0100631
0.00981955
0.00956381
0.00929442
0.00900968
0.00870759
0.00838569
0.00804106
0.00767014
0.00726863
0.00683125
0.0063516
0.00582183
0.00523245
0.00457199
0.00382726
0.00298365
0.00202909
0.000977591
9.32518e-05
0.000129125
0.00129741
0.00259811
0.00372683
0.0046996
0.00554915
0.00630204
0.00697803
0.00759157
0.00815331
0.00867122
0.00915138
0.00959849
0.0100163
0.0104078
0.0107755
0.0111215
0.0114475
0.0117551
0.0120456
0.0123202
0.01258
0.0128259
0.0130589
0.0132797
0.0134891
0.0136877
0.0138763
0.0140554
0.0142255
0.0143872
0.014541
0.0146873
0.0148264
0.0149589
0.0150851
0.0152052
0.0153196
0.0154287
0.0155325
0.0156315
0.0157258
0.0158156
0.0159012
0.0159827
0.0160603
0.0161342
0.0162046
0.0162716
0.0163354
0.0163961
0.0164539
0.016509
0.0165613
0.0166111
0.0166584
0.0167033
0.016746
0.0167865
0.0168248
0.0168611
0.0168954
0.0169279
0.0169584
0.0169872
0.0170143
0.0170396
0.0170634
0.0170855
0.0171061
0.0171252
0.0171428
0.017159
0.0171738
0.0171873
0.0171994
0.0172102
0.0172197
0.0172279
0.0172349
0.0172407
0.0172453
0.0172487
0.0172509
0.017252
0.0172519
0.0172507
0.0172483
0.0172449
0.0172403
0.0172346
0.0172279
0.01722
0.017211
0.017201
0.0171898
0.0171776
0.0171643
0.0171499
0.0171343
0.0171177
0.0170999
0.0170811
0.0170611
0.01704
0.0170177
0.0169943
0.0169697
0.016944
0.0169171
0.016889
0.0168596
0.0168291
0.0167973
0.0167642
0.0167299
0.0166943
0.0166574
0.0166192
0.0165796
0.0165386
0.0164963
0.0164526
0.0164074
0.0163608
0.0163127
0.0162631