/*--------------------------------*- C++ -*----------------------------------*\
  =========                 |
  \\      /  F ield         | OpenFOAM: The Open Source CFD Toolbox
   \\    /   O peration     | Website:  https://openfoam.org
    \\  /    A nd           | Version:  8
     \\/     M anipulation  |
\*---------------------------------------------------------------------------*/
FoamFile
{
    version     2.0;
    format      ascii;
    class       volScalarField;
    location    "3300";
    object      k;
}
// * * * * * * * * * * * * * * * * * * * * * * * * * * * * * * * * * * * * * //

dimensions      [0 2 -2 0 0 0 0];

internalField   nonuniform List<scalar> 
48000
(
0.0324693
0.0687746
0.104709
0.136556
0.166538
0.194028
0.219546
0.243566
0.266901
0.28923
0.310774
0.331618
0.351819
0.371422
0.390461
0.40896
0.426935
0.444397
0.461353
0.477806
0.493759
0.50921
0.52416
0.538606
0.552547
0.565982
0.578909
0.59133
0.603243
0.614652
0.625557
0.635963
0.645873
0.655293
0.664228
0.672686
0.680674
0.6882
0.695274
0.701906
0.708104
0.713879
0.719241
0.724202
0.728859
0.733152
0.737077
0.740647
0.743873
0.746769
0.749348
0.751624
0.753608
0.755314
0.756753
0.757936
0.758876
0.759583
0.760069
0.760342
0.760415
0.760294
0.759991
0.759514
0.758872
0.758071
0.757121
0.756028
0.7548
0.753442
0.751961
0.750364
0.748655
0.74684
0.744924
0.742912
0.740807
0.738614
0.736337
0.733979
0.731545
0.729035
0.726455
0.723806
0.72109
0.718311
0.715469
0.712568
0.709608
0.706592
0.70352
0.700394
0.697215
0.693984
0.690702
0.68737
0.683988
0.680556
0.677076
0.673548
0.669971
0.666346
0.662674
0.658953
0.655185
0.651368
0.647503
0.64359
0.639627
0.635616
0.631555
0.627444
0.623283
0.619072
0.614808
0.610494
0.606126
0.601706
0.597233
0.592705
0.588123
0.583486
0.578794
0.574045
0.569239
0.564377
0.559456
0.554478
0.549441
0.544345
0.539191
0.533976
0.528702
0.523367
0.517973
0.512518
0.507002
0.501426
0.49579
0.490094
0.484337
0.478521
0.472645
0.46671
0.460716
0.454664
0.448554
0.442387
0.436163
0.429884
0.42355
0.417162
0.410721
0.404227
0.397683
0.391088
0.384445
0.377753
0.371015
0.364231
0.357402
0.35053
0.343615
0.336659
0.329663
0.322627
0.315553
0.30844
0.301291
0.294104
0.28688
0.27962
0.272322
0.264987
0.257613
0.250199
0.242743
0.235242
0.227695
0.220098
0.212455
0.204768
0.19708
0.189321
0.181457
0.173479
0.165364
0.157089
0.148624
0.139932
0.130961
0.121651
0.112024
0.101906
0.0911219
0.0794342
0.0664577
0.051522
0.0336107
0.0191602
0.0324709
0.0687743
0.10471
0.136557
0.16654
0.194029
0.219547
0.243567
0.266903
0.289231
0.310775
0.331619
0.35182
0.371423
0.390462
0.408961
0.426936
0.444398
0.461354
0.477807
0.49376
0.509211
0.52416
0.538606
0.552547
0.565982
0.57891
0.59133
0.603244
0.614652
0.625558
0.635963
0.645873
0.655293
0.664228
0.672686
0.680674
0.6882
0.695275
0.701906
0.708104
0.71388
0.719241
0.724202
0.72886
0.733152
0.737078
0.740647
0.743873
0.746769
0.749348
0.751624
0.753608
0.755314
0.756753
0.757936
0.758876
0.759583
0.760069
0.760342
0.760414
0.760294
0.759991
0.759514
0.758872
0.758071
0.757121
0.756028
0.7548
0.753442
0.751961
0.750364
0.748655
0.74684
0.744924
0.742912
0.740807
0.738614
0.736337
0.733979
0.731544
0.729035
0.726455
0.723806
0.72109
0.718311
0.715469
0.712568
0.709608
0.706592
0.70352
0.700394
0.697215
0.693984
0.690702
0.68737
0.683988
0.680556
0.677076
0.673548
0.669971
0.666346
0.662674
0.658953
0.655184
0.651368
0.647503
0.643589
0.639627
0.635616
0.631555
0.627444
0.623283
0.619072
0.614808
0.610494
0.606126
0.601706
0.597233
0.592705
0.588123
0.583486
0.578794
0.574045
0.569239
0.564377
0.559456
0.554478
0.549441
0.544345
0.53919
0.533976
0.528702
0.523367
0.517973
0.512518
0.507002
0.501426
0.49579
0.490094
0.484337
0.478521
0.472645
0.46671
0.460716
0.454664
0.448554
0.442387
0.436163
0.429884
0.42355
0.417162
0.410721
0.404227
0.397683
0.391088
0.384445
0.377753
0.371015
0.364231
0.357402
0.35053
0.343615
0.336659
0.329663
0.322627
0.315553
0.30844
0.301291
0.294104
0.28688
0.27962
0.272322
0.264987
0.257613
0.250199
0.242743
0.235242
0.227695
0.220098
0.212455
0.204768
0.19708
0.189321
0.181457
0.173479
0.165364
0.157089
0.148624
0.139932
0.130961
0.121651
0.112024
0.101906
0.091122
0.0794342
0.0664576
0.0515219
0.0336114
0.0191607
0.0697811
0.174752
0.248992
0.314576
0.374704
0.431232
0.484774
0.535803
0.584857
0.632214
0.67809
0.722639
0.765975
0.808177
0.8493
0.889382
0.928443
0.966496
1.00354
1.03958
1.0746
1.1086
1.14155
1.17345
1.20429
1.23406
1.26274
1.29032
1.31681
1.3422
1.36649
1.38968
1.41177
1.43278
1.45271
1.47157
1.48939
1.50617
1.52194
1.53671
1.55051
1.56336
1.57528
1.58629
1.59644
1.60574
1.61424
1.62195
1.6289
1.63512
1.64064
1.64548
1.64969
1.65327
1.65626
1.65869
1.66058
1.66196
1.66285
1.66326
1.66324
1.66279
1.66194
1.6607
1.6591
1.65716
1.65489
1.6523
1.64942
1.64625
1.64282
1.63913
1.6352
1.63104
1.62666
1.62207
1.61728
1.6123
1.60714
1.60181
1.59631
1.59065
1.58483
1.57887
1.57277
1.56653
1.56015
1.55365
1.54703
1.54028
1.53342
1.52644
1.51935
1.51215
1.50484
1.49743
1.4899
1.48228
1.47455
1.46672
1.45879
1.45076
1.44263
1.43439
1.42606
1.41762
1.40908
1.40044
1.3917
1.38285
1.3739
1.36485
1.35568
1.34642
1.33704
1.32755
1.31796
1.30825
1.29843
1.28849
1.27844
1.26828
1.258
1.2476
1.23708
1.22644
1.21567
1.20479
1.19378
1.18265
1.17139
1.16001
1.1485
1.13687
1.12511
1.11322
1.10121
1.08906
1.0768
1.0644
1.05188
1.03924
1.02647
1.01357
1.00055
0.987415
0.974156
0.960777
0.947282
0.93367
0.919945
0.906108
0.892161
0.878107
0.863947
0.849683
0.835319
0.820857
0.806299
0.791647
0.776905
0.762073
0.747156
0.732155
0.717072
0.70191
0.686669
0.671352
0.655959
0.640492
0.624951
0.609335
0.593644
0.577877
0.562031
0.546102
0.530088
0.513981
0.497776
0.481464
0.465036
0.448481
0.431784
0.414913
0.397831
0.380538
0.362986
0.345128
0.326909
0.308259
0.289088
0.269276
0.24866
0.227088
0.204283
0.179852
0.153202
0.123307
0.0876502
0.0347329
0.0697805
0.174753
0.248993
0.314577
0.374705
0.431232
0.484774
0.535804
0.584858
0.632215
0.67809
0.72264
0.765976
0.808177
0.8493
0.889382
0.928443
0.966496
1.00354
1.03958
1.0746
1.10859
1.14155
1.17345
1.20429
1.23406
1.26273
1.29032
1.31681
1.3422
1.36649
1.38968
1.41177
1.43278
1.45271
1.47157
1.48939
1.50617
1.52194
1.53671
1.55051
1.56336
1.57528
1.58629
1.59644
1.60574
1.61424
1.62195
1.6289
1.63512
1.64064
1.64548
1.64969
1.65327
1.65626
1.65869
1.66058
1.66196
1.66284
1.66326
1.66324
1.66279
1.66194
1.6607
1.6591
1.65716
1.65489
1.6523
1.64942
1.64625
1.64282
1.63913
1.6352
1.63104
1.62666
1.62207
1.61728
1.6123
1.60714
1.60181
1.59631
1.59064
1.58483
1.57887
1.57276
1.56652
1.56015
1.55365
1.54703
1.54028
1.53342
1.52644
1.51935
1.51215
1.50484
1.49742
1.4899
1.48228
1.47455
1.46672
1.45879
1.45076
1.44263
1.43439
1.42606
1.41762
1.40908
1.40044
1.3917
1.38285
1.3739
1.36485
1.35568
1.34641
1.33704
1.32755
1.31795
1.30825
1.29843
1.28849
1.27844
1.26828
1.258
1.2476
1.23707
1.22643
1.21567
1.20479
1.19378
1.18265
1.17139
1.16001
1.1485
1.13687
1.12511
1.11322
1.10121
1.08906
1.0768
1.0644
1.05188
1.03923
1.02646
1.01357
1.00055
0.987414
0.974155
0.960777
0.947281
0.93367
0.919945
0.906108
0.892161
0.878106
0.863946
0.849683
0.835319
0.820856
0.806298
0.791646
0.776904
0.762073
0.747156
0.732155
0.717072
0.701909
0.686669
0.671351
0.655959
0.640492
0.62495
0.609335
0.593644
0.577876
0.56203
0.546102
0.530087
0.513981
0.497775
0.481464
0.465036
0.44848
0.431783
0.414913
0.397831
0.380538
0.362985
0.345127
0.326909
0.308259
0.289088
0.269276
0.248659
0.227088
0.204283
0.179852
0.153202
0.123307
0.0876504
0.0347323
0.104634
0.249089
0.342266
0.421966
0.495181
0.56437
0.630488
0.694064
0.755477
0.814985
0.872779
0.929005
0.983769
1.03715
1.0892
1.13996
1.18945
1.23768
1.28464
1.33035
1.37477
1.41791
1.45974
1.50025
1.53942
1.57724
1.61369
1.64875
1.68243
1.71472
1.74561
1.77511
1.80322
1.82994
1.8553
1.8793
1.90196
1.9233
1.94334
1.96211
1.97964
1.99595
2.01108
2.02505
2.03791
2.04969
2.06043
2.07015
2.07891
2.08673
2.09365
2.0997
2.10492
2.10935
2.11302
2.11597
2.11822
2.11981
2.12078
2.12114
2.12093
2.12018
2.11892
2.11716
2.11494
2.11228
2.1092
2.10571
2.10185
2.09763
2.09307
2.08818
2.08299
2.0775
2.07174
2.06571
2.05942
2.0529
2.04614
2.03917
2.03199
2.0246
2.01703
2.00927
2.00133
1.99322
1.98494
1.9765
1.96791
1.95917
1.95028
1.94125
1.93207
1.92276
1.91332
1.90375
1.89404
1.88421
1.87424
1.86415
1.85394
1.8436
1.83314
1.82255
1.81183
1.80099
1.79003
1.77893
1.76772
1.75637
1.74489
1.73329
1.72155
1.70968
1.69768
1.68555
1.67327
1.66086
1.64831
1.63562
1.62279
1.60981
1.59669
1.58342
1.57
1.55644
1.54272
1.52886
1.51484
1.50066
1.48634
1.47185
1.45722
1.44242
1.42747
1.41236
1.3971
1.38167
1.3661
1.35036
1.33447
1.31842
1.30222
1.28587
1.26936
1.25271
1.2359
1.21895
1.20186
1.18462
1.16724
1.14973
1.13207
1.11429
1.09638
1.07833
1.06017
1.04188
1.02348
1.00496
0.986332
0.967594
0.948751
0.929805
0.910759
0.891615
0.872376
0.853043
0.833619
0.814104
0.794498
0.774802
0.755014
0.735133
0.715157
0.695081
0.6749
0.654608
0.634197
0.613657
0.592975
0.572136
0.551121
0.529903
0.50845
0.48673
0.464695
0.442305
0.419499
0.396196
0.372301
0.347688
0.322191
0.295618
0.267688
0.237974
0.205781
0.169685
0.125416
0.0535997
0.104635
0.24909
0.342266
0.421966
0.495181
0.56437
0.630488
0.694064
0.755476
0.814984
0.872779
0.929005
0.983769
1.03715
1.0892
1.13996
1.18945
1.23767
1.28464
1.33035
1.37477
1.41791
1.45974
1.50025
1.53942
1.57724
1.61368
1.64875
1.68243
1.71472
1.74561
1.77511
1.80322
1.82994
1.8553
1.8793
1.90196
1.92329
1.94334
1.96211
1.97964
1.99595
2.01107
2.02505
2.0379
2.04969
2.06042
2.07015
2.07891
2.08673
2.09364
2.0997
2.10492
2.10935
2.11302
2.11597
2.11822
2.11981
2.12077
2.12114
2.12093
2.12018
2.11892
2.11716
2.11494
2.11228
2.10919
2.10571
2.10185
2.09763
2.09307
2.08818
2.08299
2.0775
2.07174
2.06571
2.05942
2.0529
2.04614
2.03917
2.03199
2.0246
2.01703
2.00926
2.00133
1.99321
1.98494
1.9765
1.96791
1.95917
1.95028
1.94124
1.93207
1.92276
1.91332
1.90374
1.89404
1.8842
1.87424
1.86415
1.85394
1.8436
1.83313
1.82254
1.81183
1.80099
1.79003
1.77893
1.76771
1.75637
1.74489
1.73329
1.72155
1.70968
1.69768
1.68554
1.67327
1.66086
1.64831
1.63562
1.62279
1.60981
1.59669
1.58342
1.57
1.55644
1.54272
1.52886
1.51484
1.50066
1.48634
1.47185
1.45722
1.44242
1.42747
1.41236
1.3971
1.38167
1.36609
1.35036
1.33447
1.31842
1.30222
1.28587
1.26936
1.25271
1.2359
1.21895
1.20186
1.18462
1.16724
1.14972
1.13207
1.11429
1.09637
1.07833
1.06017
1.04188
1.02348
1.00496
0.986332
0.967594
0.94875
0.929804
0.910758
0.891614
0.872375
0.853043
0.833618
0.814103
0.794497
0.774801
0.755013
0.735133
0.715156
0.69508
0.674899
0.654608
0.634197
0.613656
0.592974
0.572136
0.551121
0.529902
0.508449
0.486729
0.464694
0.442304
0.419498
0.396196
0.372301
0.347688
0.322191
0.295618
0.267687
0.237974
0.205781
0.169685
0.125416
0.0536
0.13429
0.312501
0.420982
0.510933
0.59326
0.671144
0.745822
0.817893
0.887707
0.955493
1.02142
1.0856
1.14814
1.2091
1.26854
1.32648
1.38296
1.43799
1.49157
1.54368
1.59434
1.64351
1.6912
1.73737
1.78202
1.82513
1.86668
1.90667
1.94508
1.9819
2.01714
2.0508
2.08287
2.11338
2.14232
2.16971
2.19558
2.21994
2.24283
2.26425
2.28426
2.30288
2.32013
2.33607
2.35073
2.36416
2.37638
2.38744
2.39739
2.40625
2.41408
2.42091
2.42679
2.43175
2.43584
2.43909
2.44154
2.44323
2.44419
2.44447
2.44408
2.44307
2.44146
2.43929
2.43658
2.43336
2.42966
2.4255
2.4209
2.41589
2.41048
2.40471
2.39858
2.39211
2.38532
2.37823
2.37085
2.36319
2.35527
2.3471
2.33869
2.33005
2.32119
2.31212
2.30285
2.29338
2.28372
2.27389
2.26387
2.25369
2.24333
2.23282
2.22215
2.21132
2.20034
2.18921
2.17793
2.16651
2.15495
2.14324
2.13139
2.1194
2.10727
2.095
2.08258
2.07003
2.05733
2.0445
2.03152
2.01839
2.00513
1.99171
1.97815
1.96444
1.95058
1.93657
1.9224
1.90808
1.8936
1.87897
1.86418
1.84922
1.8341
1.81882
1.80337
1.78775
1.77196
1.75601
1.73988
1.72358
1.70711
1.69046
1.67364
1.65664
1.63946
1.62211
1.60458
1.58688
1.569
1.55094
1.53271
1.51431
1.49573
1.47698
1.45806
1.43898
1.41972
1.4003
1.38072
1.36098
1.34108
1.32103
1.30082
1.28047
1.25997
1.23932
1.21854
1.19763
1.17658
1.1554
1.1341
1.11268
1.09114
1.06949
1.04772
1.02584
1.00386
0.981774
0.959585
0.937294
0.914902
0.89241
0.869816
0.847119
0.824317
0.801404
0.778377
0.755228
0.731948
0.708529
0.684955
0.661211
0.637276
0.613126
0.58873
0.564053
0.539052
0.513678
0.487866
0.461538
0.434608
0.40695
0.3784
0.348741
0.317687
0.28476
0.249099
0.208788
0.15786
0.0695984
0.134292
0.312502
0.420982
0.510933
0.59326
0.671144
0.745822
0.817893
0.887706
0.955493
1.02142
1.0856
1.14814
1.2091
1.26854
1.32648
1.38296
1.43799
1.49156
1.54368
1.59434
1.64351
1.6912
1.73737
1.78202
1.82513
1.86668
1.90667
1.94508
1.9819
2.01714
2.0508
2.08287
2.11338
2.14232
2.16971
2.19558
2.21994
2.24282
2.26425
2.28426
2.30287
2.32013
2.33607
2.35073
2.36416
2.37638
2.38744
2.39739
2.40625
2.41408
2.42091
2.42679
2.43175
2.43584
2.43909
2.44154
2.44323
2.44419
2.44446
2.44408
2.44307
2.44146
2.43929
2.43658
2.43336
2.42966
2.4255
2.4209
2.41589
2.41048
2.40471
2.39857
2.39211
2.38532
2.37823
2.37085
2.36319
2.35527
2.3471
2.33869
2.33005
2.32119
2.31212
2.30285
2.29338
2.28372
2.27388
2.26387
2.25368
2.24333
2.23282
2.22214
2.21132
2.20034
2.18921
2.17793
2.16651
2.15495
2.14324
2.13139
2.1194
2.10727
2.09499
2.08258
2.07003
2.05733
2.0445
2.03152
2.01839
2.00512
1.99171
1.97815
1.96444
1.95058
1.93657
1.9224
1.90808
1.8936
1.87897
1.86417
1.84922
1.8341
1.81882
1.80337
1.78775
1.77196
1.75601
1.73988
1.72358
1.70711
1.69046
1.67363
1.65664
1.63946
1.62211
1.60458
1.58688
1.569
1.55094
1.53271
1.51431
1.49573
1.47698
1.45806
1.43897
1.41972
1.4003
1.38072
1.36098
1.34108
1.32102
1.30082
1.28046
1.25997
1.23932
1.21854
1.19763
1.17658
1.1554
1.1341
1.11268
1.09114
1.06949
1.04772
1.02584
1.00386
0.981774
0.959584
0.937293
0.914902
0.892409
0.869816
0.847119
0.824316
0.801404
0.778376
0.755227
0.731948
0.708528
0.684954
0.66121
0.637276
0.613126
0.58873
0.564053
0.539052
0.513677
0.487865
0.461538
0.434608
0.406949
0.3784
0.34874
0.317687
0.28476
0.249099
0.208788
0.15786
0.0695985
0.161035
0.369677
0.492797
0.592551
0.682964
0.768222
0.849947
0.928879
1.0054
1.07975
1.15208
1.22249
1.29106
1.35787
1.42297
1.48638
1.54814
1.60827
1.66676
1.72363
1.77887
1.83248
1.88443
1.93473
1.98336
2.0303
2.07555
2.1191
2.16092
2.20103
2.23942
2.27609
2.31104
2.34429
2.37584
2.40571
2.43392
2.4605
2.48546
2.50885
2.53068
2.55099
2.56983
2.58722
2.60322
2.61785
2.63118
2.64323
2.65406
2.6637
2.6722
2.67961
2.68597
2.69132
2.69571
2.69917
2.70176
2.7035
2.70445
2.70463
2.70409
2.70285
2.70096
2.69845
2.69534
2.69167
2.68747
2.68276
2.67757
2.67192
2.66584
2.65935
2.65246
2.64521
2.6376
2.62966
2.6214
2.61284
2.60399
2.59486
2.58546
2.57582
2.56593
2.55581
2.54547
2.53491
2.52415
2.51319
2.50203
2.49069
2.47917
2.46746
2.45559
2.44354
2.43134
2.41896
2.40643
2.39374
2.38089
2.36788
2.35472
2.34141
2.32795
2.31433
2.30056
2.28663
2.27256
2.25832
2.24394
2.22939
2.21469
2.19983
2.18482
2.16964
2.15429
2.13879
2.12311
2.10727
2.09126
2.07508
2.05872
2.04219
2.02549
2.0086
1.99154
1.97429
1.95686
1.93925
1.92145
1.90346
1.88528
1.86692
1.84837
1.82963
1.81069
1.79157
1.77225
1.75274
1.73305
1.71316
1.69308
1.67282
1.65236
1.63173
1.6109
1.5899
1.56871
1.54735
1.52581
1.50409
1.48221
1.46016
1.43794
1.41557
1.39303
1.37034
1.34751
1.32452
1.30139
1.27812
1.25472
1.23118
1.20752
1.18373
1.15982
1.13579
1.11164
1.08739
1.06302
1.03853
1.01394
0.989246
0.964438
0.939518
0.914485
0.889334
0.864061
0.838659
0.813119
0.787432
0.761584
0.73556
0.709339
0.682898
0.656209
0.629237
0.601941
0.574272
0.546169
0.517557
0.488342
0.458398
0.427563
0.395606
0.362195
0.326771
0.288269
0.244248
0.187179
0.0838268
0.161036
0.369678
0.492797
0.592551
0.682964
0.768222
0.849947
0.928879
1.0054
1.07975
1.15208
1.22248
1.29106
1.35787
1.42297
1.48638
1.54814
1.60826
1.66676
1.72363
1.77887
1.83247
1.88443
1.93473
1.98336
2.0303
2.07555
2.11909
2.16092
2.20103
2.23942
2.27609
2.31104
2.34429
2.37584
2.40571
2.43392
2.4605
2.48546
2.50884
2.53067
2.55099
2.56982
2.58722
2.60321
2.61785
2.63118
2.64323
2.65406
2.6637
2.6722
2.67961
2.68597
2.69132
2.6957
2.69917
2.70175
2.7035
2.70445
2.70463
2.70408
2.70285
2.70096
2.69845
2.69534
2.69167
2.68747
2.68276
2.67757
2.67192
2.66584
2.65935
2.65246
2.64521
2.6376
2.62966
2.6214
2.61284
2.60398
2.59485
2.58546
2.57582
2.56593
2.55581
2.54547
2.53491
2.52415
2.51319
2.50203
2.49069
2.47916
2.46746
2.45559
2.44354
2.43133
2.41896
2.40643
2.39374
2.38089
2.36788
2.35472
2.34141
2.32795
2.31433
2.30056
2.28663
2.27255
2.25832
2.24394
2.22939
2.21469
2.19983
2.18482
2.16964
2.15429
2.13879
2.12311
2.10727
2.09126
2.07508
2.05872
2.04219
2.02549
2.0086
1.99154
1.97429
1.95686
1.93925
1.92145
1.90346
1.88528
1.86692
1.84837
1.82962
1.81069
1.79157
1.77225
1.75274
1.73305
1.71316
1.69308
1.67282
1.65236
1.63173
1.6109
1.5899
1.56871
1.54735
1.52581
1.50409
1.48221
1.46016
1.43794
1.41557
1.39303
1.37034
1.3475
1.32452
1.30139
1.27812
1.25472
1.23118
1.20752
1.18373
1.15982
1.13579
1.11164
1.08738
1.06301
1.03853
1.01394
0.989246
0.964437
0.939518
0.914484
0.889333
0.86406
0.838658
0.813119
0.787432
0.761584
0.735559
0.709339
0.682898
0.656209
0.629237
0.601941
0.574272
0.546169
0.517557
0.488342
0.458398
0.427563
0.395606
0.362195
0.326771
0.288269
0.244248
0.187179
0.0838268
0.18571
0.423686
0.560909
0.670336
0.768543
0.860677
0.948775
1.03376
1.1161
1.19605
1.27377
1.34937
1.42294
1.49453
1.56419
1.63198
1.69793
1.76205
1.82437
1.8849
1.94365
2.00062
2.0558
2.10919
2.16079
2.21059
2.25858
2.30476
2.34912
2.39166
2.43238
2.47128
2.50837
2.54365
2.57715
2.60887
2.63884
2.66707
2.6936
2.71846
2.74167
2.76328
2.78331
2.80182
2.81884
2.83441
2.84858
2.8614
2.87291
2.88315
2.89218
2.90003
2.90676
2.91241
2.91703
2.92066
2.92335
2.92514
2.92607
2.92617
2.9255
2.92408
2.92196
2.91917
2.91574
2.9117
2.90709
2.90193
2.89626
2.89009
2.88346
2.87638
2.86888
2.86098
2.8527
2.84407
2.83508
2.82577
2.81615
2.80623
2.79602
2.78555
2.77481
2.76383
2.7526
2.74114
2.72946
2.71757
2.70547
2.69317
2.68067
2.66798
2.65511
2.64205
2.62882
2.61541
2.60183
2.58808
2.57416
2.56007
2.54582
2.53141
2.51683
2.50209
2.48718
2.47212
2.45688
2.44149
2.42593
2.4102
2.3943
2.37824
2.362
2.34559
2.32901
2.31226
2.29532
2.27821
2.26092
2.24345
2.22579
2.20794
2.18991
2.17169
2.15327
2.13467
2.11587
2.09687
2.07767
2.05828
2.03869
2.01889
1.9989
1.9787
1.9583
1.9377
1.91689
1.89588
1.87467
1.85326
1.83164
1.80983
1.78781
1.7656
1.74319
1.72059
1.6978
1.67481
1.65164
1.62828
1.60475
1.58103
1.55714
1.53307
1.50884
1.48445
1.45989
1.43517
1.4103
1.38529
1.36012
1.33482
1.30938
1.2838
1.25809
1.23225
1.20629
1.18021
1.154
1.12768
1.10124
1.07468
1.04801
1.02121
0.994296
0.967255
0.940085
0.91278
0.885332
0.857731
0.829965
0.802018
0.773873
0.745507
0.716892
0.687998
0.658784
0.629203
0.599196
0.568688
0.537582
0.505751
0.473019
0.439129
0.403681
0.366029
0.324886
0.277304
0.214345
0.0968753
0.185711
0.423687
0.560909
0.670336
0.768542
0.860676
0.948774
1.03376
1.1161
1.19605
1.27377
1.34937
1.42294
1.49453
1.56419
1.63198
1.69793
1.76205
1.82437
1.8849
1.94365
2.00061
2.0558
2.10919
2.16079
2.21059
2.25858
2.30476
2.34912
2.39166
2.43238
2.47128
2.50837
2.54365
2.57715
2.60887
2.63884
2.66707
2.6936
2.71846
2.74167
2.76328
2.78331
2.80182
2.81884
2.83441
2.84858
2.8614
2.87291
2.88315
2.89217
2.90003
2.90676
2.91241
2.91703
2.92066
2.92335
2.92514
2.92606
2.92617
2.9255
2.92408
2.92196
2.91917
2.91574
2.9117
2.90709
2.90193
2.89626
2.89009
2.88346
2.87638
2.86888
2.86098
2.8527
2.84406
2.83508
2.82577
2.81615
2.80623
2.79602
2.78555
2.77481
2.76382
2.7526
2.74114
2.72946
2.71757
2.70547
2.69317
2.68067
2.66798
2.65511
2.64205
2.62882
2.61541
2.60183
2.58808
2.57416
2.56007
2.54582
2.53141
2.51683
2.50209
2.48718
2.47212
2.45688
2.44149
2.42592
2.4102
2.3943
2.37823
2.362
2.34559
2.32901
2.31226
2.29532
2.27821
2.26092
2.24345
2.22579
2.20794
2.18991
2.17169
2.15327
2.13467
2.11587
2.09687
2.07767
2.05828
2.03869
2.01889
1.9989
1.9787
1.9583
1.9377
1.91689
1.89588
1.87467
1.85326
1.83164
1.80983
1.78781
1.7656
1.74319
1.72059
1.6978
1.67481
1.65164
1.62828
1.60475
1.58103
1.55714
1.53307
1.50884
1.48444
1.45989
1.43517
1.4103
1.38529
1.36012
1.33482
1.30938
1.2838
1.25809
1.23225
1.20629
1.18021
1.154
1.12768
1.10124
1.07468
1.04801
1.02121
0.994295
0.967255
0.940085
0.91278
0.885332
0.857731
0.829964
0.802018
0.773872
0.745506
0.716892
0.687998
0.658784
0.629203
0.599196
0.568687
0.537582
0.505751
0.473019
0.439129
0.403681
0.366029
0.324886
0.277305
0.214345
0.0968753
0.209113
0.475325
0.626685
0.745813
0.851747
0.950552
1.04468
1.13527
1.22288
1.30781
1.39027
1.47036
1.54817
1.62378
1.69725
1.76863
1.83796
1.90528
1.97062
2.03401
2.09547
2.155
2.21263
2.26835
2.32216
2.37408
2.4241
2.47221
2.51843
2.56275
2.60518
2.64571
2.68437
2.72115
2.75608
2.78917
2.82044
2.84991
2.87762
2.90358
2.92783
2.95042
2.97136
2.99072
3.00852
3.02481
3.03963
3.05304
3.06508
3.07579
3.08523
3.09343
3.10046
3.10635
3.11115
3.11492
3.11769
3.11951
3.12043
3.12047
3.1197
3.11814
3.11583
3.11282
3.10912
3.10479
3.09985
3.09433
3.08826
3.08167
3.07458
3.06702
3.05902
3.05059
3.04176
3.03255
3.02297
3.01304
3.00278
2.9922
2.98132
2.97016
2.95871
2.947
2.93504
2.92283
2.91039
2.89771
2.88482
2.87171
2.85839
2.84488
2.83116
2.81725
2.80316
2.78887
2.77441
2.75976
2.74494
2.72994
2.71477
2.69942
2.6839
2.66821
2.65234
2.6363
2.62009
2.6037
2.58714
2.5704
2.55349
2.5364
2.51913
2.50167
2.48404
2.46622
2.44821
2.43002
2.41163
2.39306
2.37429
2.35532
2.33616
2.3168
2.29723
2.27747
2.25749
2.23732
2.21693
2.19634
2.17553
2.15452
2.13329
2.11185
2.0902
2.06833
2.04625
2.02396
2.00146
1.97874
1.95581
1.93267
1.90932
1.88576
1.862
1.83803
1.81386
1.78949
1.76492
1.74015
1.7152
1.69005
1.66472
1.63921
1.61351
1.58765
1.56161
1.53541
1.50904
1.48251
1.45583
1.42899
1.40201
1.37488
1.34762
1.32021
1.29267
1.265
1.2372
1.20927
1.18121
1.15303
1.12472
1.09628
1.06771
1.03902
1.01018
0.981204
0.952078
0.922794
0.893341
0.863704
0.833867
0.803809
0.773504
0.742922
0.712025
0.680766
0.649085
0.616907
0.584132
0.550622
0.516183
0.480527
0.443194
0.403415
0.359691
0.308601
0.239926
0.109073
0.209114
0.475326
0.626686
0.745813
0.851746
0.950551
1.04468
1.13527
1.22288
1.30781
1.39027
1.47036
1.54817
1.62378
1.69725
1.76863
1.83796
1.90528
1.97062
2.03401
2.09547
2.155
2.21263
2.26834
2.32216
2.37408
2.42409
2.47221
2.51843
2.56275
2.60518
2.64571
2.68437
2.72115
2.75608
2.78917
2.82044
2.84991
2.87762
2.90358
2.92783
2.95042
2.97136
2.99072
3.00852
3.02481
3.03963
3.05304
3.06508
3.07579
3.08522
3.09343
3.10046
3.10635
3.11115
3.11492
3.11769
3.11951
3.12042
3.12047
3.1197
3.11814
3.11583
3.11281
3.10912
3.10479
3.09985
3.09433
3.08826
3.08167
3.07458
3.06702
3.05902
3.05059
3.04176
3.03255
3.02297
3.01304
3.00278
2.9922
2.98132
2.97016
2.95871
2.947
2.93504
2.92283
2.91038
2.89771
2.88482
2.87171
2.85839
2.84488
2.83116
2.81725
2.80316
2.78887
2.77441
2.75976
2.74494
2.72994
2.71477
2.69942
2.6839
2.6682
2.65234
2.6363
2.62009
2.6037
2.58714
2.5704
2.55349
2.5364
2.51913
2.50167
2.48404
2.46622
2.44821
2.43002
2.41163
2.39306
2.37429
2.35532
2.33616
2.3168
2.29723
2.27746
2.25749
2.23732
2.21693
2.19634
2.17553
2.15452
2.13329
2.11185
2.0902
2.06833
2.04625
2.02396
2.00146
1.97874
1.95581
1.93267
1.90932
1.88576
1.862
1.83803
1.81386
1.78948
1.76492
1.74015
1.71519
1.69005
1.66472
1.63921
1.61351
1.58765
1.56161
1.53541
1.50904
1.48251
1.45583
1.42899
1.40201
1.37488
1.34762
1.32021
1.29267
1.265
1.2372
1.20927
1.18121
1.15303
1.12472
1.09628
1.06771
1.03901
1.01018
0.981203
0.952078
0.922794
0.893341
0.863704
0.833867
0.803809
0.773504
0.742922
0.712025
0.680766
0.649085
0.616907
0.584132
0.550622
0.516183
0.480527
0.443194
0.403415
0.359691
0.308601
0.239926
0.109073
0.232514
0.525743
0.691041
0.819845
0.933475
1.03884
1.1388
1.23469
1.32719
1.41668
1.50338
1.58743
1.66894
1.74799
1.82466
1.89901
1.97111
2.041
2.10873
2.17435
2.23788
2.29936
2.3588
2.41623
2.47166
2.5251
2.57657
2.62607
2.6736
2.71918
2.76281
2.80451
2.84427
2.88212
2.91806
2.95213
2.98433
3.01469
3.04324
3.07001
3.09503
3.11833
3.13995
3.15993
3.17832
3.19515
3.21047
3.22432
3.23676
3.24784
3.25759
3.26607
3.27332
3.2794
3.28436
3.28823
3.29107
3.29292
3.29382
3.29383
3.29297
3.2913
3.28885
3.28566
3.28176
3.27719
3.27199
3.26617
3.25979
3.25285
3.2454
3.23746
3.22904
3.22018
3.2109
3.20121
3.19114
3.18071
3.16992
3.15881
3.14737
3.13563
3.1236
3.11129
3.09871
3.08588
3.07279
3.05946
3.04591
3.03212
3.01812
3.0039
2.98948
2.97485
2.96003
2.94501
2.9298
2.91439
2.8988
2.88303
2.86707
2.85093
2.83461
2.8181
2.80142
2.78455
2.7675
2.75027
2.73285
2.71525
2.69747
2.6795
2.66134
2.64299
2.62446
2.60572
2.5868
2.56767
2.54835
2.52883
2.5091
2.48917
2.46904
2.44869
2.42814
2.40737
2.38639
2.3652
2.34379
2.32216
2.30031
2.27824
2.25595
2.23344
2.21071
2.18775
2.16457
2.14117
2.11754
2.0937
2.06963
2.04534
2.02084
1.99611
1.97117
1.94602
1.92065
1.89507
1.86929
1.8433
1.81711
1.79072
1.76413
1.73735
1.71038
1.68323
1.6559
1.62839
1.6007
1.57285
1.54483
1.51664
1.4883
1.45981
1.43116
1.40236
1.37342
1.34434
1.31511
1.28575
1.25625
1.22661
1.19684
1.16693
1.13688
1.10669
1.07636
1.04587
1.01524
0.984432
0.953454
0.922289
0.890921
0.85933
0.827493
0.795379
0.762952
0.730163
0.696954
0.663243
0.628924
0.593847
0.557797
0.520448
0.48128
0.439395
0.3931
0.338546
0.264304
0.12066
0.232515
0.525744
0.691041
0.819845
0.933474
1.03884
1.1388
1.23469
1.32719
1.41668
1.50338
1.58743
1.66894
1.74799
1.82466
1.89901
1.97111
2.041
2.10873
2.17435
2.23788
2.29935
2.3588
2.41623
2.47166
2.5251
2.57657
2.62607
2.6736
2.71918
2.76281
2.80451
2.84427
2.88212
2.91806
2.95213
2.98433
3.01469
3.04324
3.07001
3.09503
3.11833
3.13995
3.15993
3.17831
3.19515
3.21047
3.22432
3.23676
3.24784
3.25759
3.26607
3.27332
3.2794
3.28435
3.28823
3.29107
3.29292
3.29382
3.29383
3.29297
3.2913
3.28885
3.28566
3.28176
3.27719
3.27199
3.26617
3.25979
3.25285
3.2454
3.23746
3.22904
3.22018
3.2109
3.20121
3.19114
3.18071
3.16992
3.1588
3.14737
3.13563
3.1236
3.11129
3.09871
3.08587
3.07279
3.05946
3.04591
3.03212
3.01812
3.0039
2.98948
2.97485
2.96003
2.94501
2.9298
2.91439
2.8988
2.88303
2.86707
2.85093
2.83461
2.8181
2.80142
2.78455
2.7675
2.75027
2.73285
2.71525
2.69747
2.6795
2.66134
2.64299
2.62445
2.60572
2.5868
2.56767
2.54835
2.52883
2.5091
2.48917
2.46904
2.44869
2.42814
2.40737
2.38639
2.3652
2.34378
2.32216
2.30031
2.27824
2.25595
2.23344
2.2107
2.18775
2.16457
2.14117
2.11754
2.0937
2.06963
2.04534
2.02084
1.99611
1.97117
1.94602
1.92065
1.89507
1.86929
1.8433
1.81711
1.79071
1.76413
1.73735
1.71038
1.68323
1.6559
1.62839
1.6007
1.57285
1.54483
1.51664
1.4883
1.45981
1.43116
1.40236
1.37342
1.34434
1.31511
1.28575
1.25625
1.22661
1.19684
1.16693
1.13688
1.10669
1.07636
1.04587
1.01523
0.984432
0.953454
0.922289
0.890921
0.85933
0.827493
0.795379
0.762952
0.730163
0.696954
0.663243
0.628924
0.593847
0.557797
0.520448
0.48128
0.439395
0.3931
0.338546
0.264304
0.12066
0.25549
0.575423
0.754514
0.892963
1.01426
1.12611
1.23174
1.33271
1.42982
1.52352
1.61407
1.70166
1.78641
1.86843
1.94781
2.02464
2.09899
2.17093
2.24053
2.30785
2.37294
2.43584
2.49659
2.55522
2.61177
2.66625
2.71869
2.76911
2.81751
2.86392
2.90833
2.95078
2.99127
3.02981
3.06643
3.10114
3.13396
3.16492
3.19404
3.22136
3.2469
3.27069
3.29279
3.31321
3.33201
3.34923
3.36491
3.37909
3.39183
3.40316
3.41315
3.42183
3.42926
3.43549
3.44055
3.44451
3.4474
3.44928
3.45018
3.45015
3.44924
3.44749
3.44492
3.4416
3.43754
3.43278
3.42737
3.42133
3.4147
3.40749
3.39975
3.39149
3.38275
3.37355
3.3639
3.35383
3.34337
3.33252
3.32131
3.30975
3.29786
3.28565
3.27314
3.26034
3.24725
3.2339
3.22028
3.20642
3.19231
3.17796
3.16339
3.14859
3.13358
3.11835
3.10291
3.08727
3.07143
3.05539
3.03916
3.02273
3.0061
2.98929
2.97229
2.9551
2.93771
2.92014
2.90238
2.88443
2.86629
2.84795
2.82943
2.81071
2.79179
2.77268
2.75336
2.73385
2.71413
2.69421
2.67408
2.65375
2.6332
2.61244
2.59147
2.57028
2.54887
2.52724
2.50539
2.48332
2.46102
2.4385
2.41575
2.39277
2.36956
2.34612
2.32245
2.29855
2.27441
2.25005
2.22545
2.20063
2.17557
2.15028
2.12477
2.09902
2.07306
2.04687
2.02045
1.99382
1.96697
1.93991
1.91263
1.88514
1.85745
1.82956
1.80147
1.77318
1.7447
1.71603
1.68717
1.65814
1.62893
1.59954
1.56999
1.54026
1.51038
1.48033
1.45013
1.41977
1.38926
1.3586
1.32779
1.29684
1.26573
1.23448
1.20308
1.17153
1.13982
1.10795
1.07592
1.04372
1.01134
0.978763
0.94598
0.91297
0.87971
0.846171
0.812316
0.778096
0.743448
0.708286
0.672495
0.63591
0.598291
0.559274
0.518275
0.474285
0.425411
0.367399
0.287688
0.131793
0.255491
0.575424
0.754514
0.892963
1.01426
1.12611
1.23174
1.33271
1.42982
1.52352
1.61407
1.70166
1.78641
1.86843
1.94781
2.02464
2.09899
2.17093
2.24053
2.30785
2.37294
2.43583
2.49658
2.55522
2.61177
2.66625
2.71869
2.76911
2.81751
2.86391
2.90833
2.95078
2.99127
3.02981
3.06643
3.10114
3.13396
3.16492
3.19404
3.22136
3.2469
3.27069
3.29279
3.31321
3.33201
3.34923
3.36491
3.37909
3.39183
3.40316
3.41315
3.42183
3.42926
3.43549
3.44055
3.44451
3.4474
3.44928
3.45018
3.45015
3.44924
3.44748
3.44492
3.44159
3.43754
3.43278
3.42737
3.42133
3.4147
3.40749
3.39975
3.39149
3.38275
3.37355
3.3639
3.35383
3.34337
3.33252
3.32131
3.30975
3.29786
3.28565
3.27314
3.26034
3.24725
3.2339
3.22028
3.20642
3.19231
3.17796
3.16339
3.14859
3.13358
3.11835
3.10291
3.08727
3.07143
3.05539
3.03915
3.02273
3.0061
2.98929
2.97229
2.9551
2.93771
2.92014
2.90238
2.88443
2.86629
2.84795
2.82943
2.81071
2.79179
2.77267
2.75336
2.73385
2.71413
2.69421
2.67408
2.65375
2.6332
2.61244
2.59147
2.57028
2.54887
2.52724
2.50539
2.48332
2.46102
2.4385
2.41575
2.39277
2.36956
2.34612
2.32245
2.29855
2.27441
2.25005
2.22545
2.20062
2.17557
2.15028
2.12477
2.09902
2.07306
2.04687
2.02045
1.99382
1.96697
1.93991
1.91263
1.88514
1.85745
1.82956
1.80147
1.77318
1.7447
1.71603
1.68717
1.65814
1.62893
1.59954
1.56999
1.54026
1.51038
1.48033
1.45013
1.41977
1.38926
1.3586
1.32779
1.29684
1.26573
1.23448
1.20308
1.17153
1.13982
1.10795
1.07592
1.04372
1.01134
0.978763
0.94598