/*--------------------------------*- C++ -*----------------------------------*\
  =========                 |
  \\      /  F ield         | OpenFOAM: The Open Source CFD Toolbox
   \\    /   O peration     | Website:  https://openfoam.org
    \\  /    A nd           | Version:  8
     \\/     M anipulation  |
\*---------------------------------------------------------------------------*/
FoamFile
{
    version     2.0;
    format      ascii;
    class       volScalarField;
    location    "1900";
    object      alphat;
}
// * * * * * * * * * * * * * * * * * * * * * * * * * * * * * * * * * * * * * //

dimensions      [1 -1 -1 0 0 0 0];

internalField   nonuniform List<scalar> 
46000
(
6.41367e-08
3.3315e-07
7.10634e-07
1.09275e-06
1.46547e-06
1.82953e-06
2.18661e-06
2.53785e-06
2.88393e-06
3.22524e-06
3.56198e-06
3.89425e-06
4.22204e-06
4.54535e-06
4.86412e-06
5.17829e-06
5.48781e-06
5.79261e-06
6.09261e-06
6.38776e-06
6.67798e-06
6.9632e-06
7.24334e-06
7.51832e-06
7.78804e-06
8.05238e-06
8.31124e-06
8.56445e-06
8.81187e-06
9.05332e-06
9.28859e-06
9.51747e-06
9.73972e-06
9.95509e-06
1.01633e-05
1.03641e-05
1.05571e-05
1.07421e-05
1.09187e-05
1.10866e-05
1.12456e-05
1.13952e-05
1.15352e-05
1.16654e-05
1.17853e-05
1.18949e-05
1.19937e-05
1.20818e-05
1.21587e-05
1.22245e-05
1.22791e-05
1.23222e-05
1.23539e-05
1.23743e-05
1.23833e-05
1.23811e-05
1.23677e-05
1.23433e-05
1.23082e-05
1.22625e-05
1.22065e-05
1.21408e-05
1.20664e-05
1.19844e-05
1.18937e-05
1.17945e-05
1.16873e-05
1.15725e-05
1.14507e-05
1.13224e-05
1.1188e-05
1.10482e-05
1.09034e-05
1.07542e-05
1.06012e-05
1.04448e-05
1.02856e-05
1.01242e-05
9.96098e-06
9.79653e-06
9.63133e-06
9.46584e-06
9.30053e-06
9.13582e-06
8.97215e-06
8.80991e-06
8.64947e-06
8.4912e-06
8.33542e-06
8.18245e-06
8.03256e-06
7.88603e-06
7.74309e-06
7.60397e-06
7.46886e-06
7.33793e-06
7.21133e-06
7.0892e-06
6.97165e-06
6.85878e-06
6.75065e-06
6.64733e-06
6.54886e-06
6.45525e-06
6.36654e-06
6.28271e-06
6.20374e-06
6.12962e-06
6.0603e-06
5.99573e-06
5.93586e-06
5.88061e-06
5.8299e-06
5.78367e-06
5.74177e-06
5.70418e-06
5.67075e-06
5.64132e-06
5.61576e-06
5.59404e-06
5.57598e-06
5.56146e-06
5.55034e-06
5.54248e-06
5.53774e-06
5.53598e-06
5.53705e-06
5.54081e-06
5.54711e-06
5.55578e-06
5.56668e-06
5.57965e-06
5.59451e-06
5.61109e-06
5.62924e-06
5.64875e-06
5.66945e-06
5.69115e-06
5.71364e-06
5.73671e-06
5.76015e-06
5.78373e-06
5.80721e-06
5.83034e-06
5.85286e-06
5.87451e-06
5.89498e-06
5.914e-06
5.93124e-06
5.94639e-06
5.95911e-06
5.96905e-06
5.97586e-06
5.97916e-06
5.97859e-06
5.97376e-06
5.96428e-06
5.94977e-06
5.92984e-06
5.9041e-06
5.87219e-06
5.83374e-06
5.78841e-06
5.73586e-06
5.67578e-06
5.608e-06
5.53362e-06
5.45208e-06
5.36249e-06
5.26463e-06
5.15842e-06
5.0439e-06
4.92113e-06
4.79028e-06
4.65155e-06
4.50521e-06
4.35162e-06
4.19118e-06
4.02435e-06
3.85167e-06
3.67371e-06
3.4911e-06
3.30453e-06
3.11467e-06
2.92226e-06
2.72802e-06
2.53267e-06
2.33689e-06
2.14127e-06
1.94604e-06
1.75097e-06
1.55839e-06
1.36649e-06
1.1749e-06
9.8249e-07
7.90182e-07
5.95838e-07
3.92617e-07
1.87084e-07
3.6043e-08
6.41434e-08
3.33181e-07
7.10686e-07
1.09281e-06
1.46554e-06
1.8296e-06
2.18669e-06
2.53792e-06
2.88401e-06
3.22532e-06
3.56207e-06
3.89433e-06
4.22212e-06
4.54543e-06
4.8642e-06
5.17838e-06
5.4879e-06
5.79269e-06
6.0927e-06
6.38784e-06
6.67806e-06
6.96328e-06
7.24343e-06
7.51841e-06
7.78813e-06
8.05247e-06
8.31133e-06
8.56455e-06
8.81197e-06
9.05341e-06
9.28869e-06
9.51757e-06
9.73982e-06
9.95519e-06
1.01634e-05
1.03642e-05
1.05572e-05
1.07422e-05
1.09188e-05
1.10867e-05
1.12457e-05
1.13953e-05
1.15354e-05
1.16655e-05
1.17855e-05
1.1895e-05
1.19939e-05
1.20819e-05
1.21589e-05
1.22247e-05
1.22792e-05
1.23223e-05
1.23541e-05
1.23744e-05
1.23834e-05
1.23812e-05
1.23678e-05
1.23434e-05
1.23083e-05
1.22626e-05
1.22066e-05
1.21409e-05
1.20665e-05
1.19845e-05
1.18938e-05
1.17946e-05
1.16874e-05
1.15726e-05
1.14508e-05
1.13225e-05
1.11881e-05
1.10483e-05
1.09035e-05
1.07543e-05
1.06012e-05
1.04449e-05
1.02857e-05
1.01242e-05
9.96103e-06
9.79659e-06
9.63138e-06
9.46589e-06
9.30057e-06
9.13586e-06
8.97219e-06
8.80994e-06
8.6495e-06
8.49123e-06
8.33544e-06
8.18247e-06
8.03258e-06
7.88604e-06
7.74311e-06
7.60398e-06
7.46886e-06
7.33793e-06
7.21133e-06
7.0892e-06
6.97165e-06
6.85877e-06
6.75064e-06
6.64732e-06
6.54884e-06
6.45524e-06
6.36652e-06
6.28269e-06
6.20372e-06
6.1296e-06
6.06028e-06
5.99571e-06
5.93583e-06
5.88058e-06
5.82988e-06
5.78364e-06
5.74174e-06
5.70415e-06
5.67072e-06
5.64129e-06
5.61573e-06
5.59401e-06
5.57595e-06
5.56143e-06
5.5503e-06
5.54244e-06
5.5377e-06
5.53594e-06
5.53701e-06
5.54077e-06
5.54707e-06
5.55574e-06
5.56664e-06
5.57961e-06
5.59447e-06
5.61105e-06
5.6292e-06
5.64871e-06
5.66941e-06
5.69111e-06
5.71359e-06
5.73667e-06
5.76011e-06
5.78368e-06
5.80716e-06
5.83029e-06
5.85282e-06
5.87446e-06
5.89494e-06
5.91396e-06
5.9312e-06
5.94635e-06
5.95907e-06
5.96901e-06
5.97582e-06
5.97912e-06
5.97855e-06
5.97372e-06
5.96424e-06
5.94973e-06
5.9298e-06
5.90406e-06
5.87215e-06
5.83371e-06
5.78837e-06
5.73582e-06
5.67575e-06
5.60797e-06
5.53358e-06
5.45204e-06
5.36246e-06
5.2646e-06
5.1584e-06
5.04387e-06
4.92111e-06
4.79026e-06
4.65153e-06
4.50519e-06
4.3516e-06
4.19116e-06
4.02433e-06
3.85165e-06
3.67369e-06
3.49109e-06
3.30451e-06
3.11466e-06
2.92225e-06
2.72801e-06
2.53266e-06
2.33688e-06
2.14127e-06
1.94603e-06
1.75096e-06
1.55839e-06
1.36649e-06
1.1749e-06
9.8249e-07
7.90183e-07
5.95839e-07
3.92618e-07
1.87085e-07
3.60431e-08
3.07003e-07
1.19395e-05
2.45185e-05
3.32177e-05
3.99093e-05
4.54509e-05
5.02443e-05
5.45042e-05
5.83587e-05
6.18907e-05
6.51571e-05
6.81989e-05
7.10469e-05
7.37252e-05
7.62526e-05
7.86447e-05
8.09143e-05
8.30722e-05
8.51277e-05
8.70887e-05
8.89621e-05
9.0754e-05
9.24697e-05
9.41139e-05
9.56907e-05
9.72037e-05
9.8656e-05
0.000100051
0.00010139
0.000102675
0.000103909
0.000105092
0.000106227
0.000107313
0.000108351
0.000109343
0.000110288
0.000111187
0.000112039
0.000112845
0.000113604
0.000114316
0.000114982
0.0001156
0.00011617
0.000116693
0.000117167
0.000117592
0.000117968
0.000118296
0.000118573
0.000118802
0.000118981
0.00011911
0.000119191
0.000119222
0.000119204
0.000119138
0.000119024
0.000118862
0.000118653
0.000118394
0.000118083
0.000117721
0.000117315
0.000116868
0.000116382
0.000115859
0.0001153
0.000114708
0.000114083
0.000113428
0.000112745
0.000112036
0.000111302
0.000110546
0.000109769
0.000108974
0.000108163
0.000107337
0.0001065
0.000105652
0.000104797
0.000103936
0.000103072
0.000102205
0.00010134
0.000100476
9.96166e-05
9.87635e-05
9.79183e-05
9.70828e-05
9.62588e-05
9.54479e-05
9.46517e-05
9.38716e-05
9.31091e-05
9.23655e-05
9.1642e-05
9.09399e-05
9.02601e-05
8.96036e-05
8.89714e-05
8.83641e-05
8.77825e-05
8.72271e-05
8.66984e-05
8.61968e-05
8.57227e-05
8.52761e-05
8.48573e-05
8.44661e-05
8.41026e-05
8.37665e-05
8.34575e-05
8.31752e-05
8.29192e-05
8.26889e-05
8.24837e-05
8.23027e-05
8.21452e-05
8.20106e-05
8.18979e-05
8.18064e-05
8.17351e-05
8.16829e-05
8.1649e-05
8.16323e-05
8.16316e-05
8.1646e-05
8.16743e-05
8.17152e-05
8.17676e-05
8.18304e-05
8.19022e-05
8.19817e-05
8.20676e-05
8.21586e-05
8.22532e-05
8.23501e-05
8.24477e-05
8.25445e-05
8.26389e-05
8.27293e-05
8.28139e-05
8.28911e-05
8.2959e-05
8.30157e-05
8.30594e-05
8.3088e-05
8.30994e-05
8.30915e-05
8.30622e-05
8.30093e-05
8.29304e-05
8.28233e-05
8.26855e-05
8.25148e-05
8.23088e-05
8.20649e-05
8.17809e-05
8.14543e-05
8.10826e-05
8.06633e-05
8.01933e-05
7.96679e-05
7.9076e-05
7.842e-05
7.77009e-05
7.69184e-05
7.60715e-05
7.51592e-05
7.41802e-05
7.31338e-05
7.20189e-05
7.08349e-05
6.95812e-05
6.82574e-05
6.6863e-05
6.53978e-05
6.38614e-05
6.22537e-05
6.05741e-05
5.88219e-05
5.6996e-05
5.50949e-05
5.31158e-05
5.1055e-05
4.89069e-05
4.66644e-05
4.43147e-05
4.18224e-05
3.91442e-05
3.62096e-05
3.28759e-05
2.88249e-05
2.3773e-05
1.7117e-05
7.73201e-06
1.64536e-07
3.07034e-07
1.19411e-05
2.45214e-05
3.32209e-05
3.99126e-05
4.54543e-05
5.02477e-05
5.45076e-05
5.83622e-05
6.18942e-05
6.51606e-05
6.82024e-05
7.10505e-05
7.37288e-05
7.62563e-05
7.86484e-05
8.09181e-05
8.30761e-05
8.51316e-05
8.70926e-05
8.89661e-05
9.0758e-05
9.24738e-05
9.41181e-05
9.56949e-05
9.7208e-05
9.86605e-05
0.000100055
0.000101394
0.00010268
0.000103914
0.000105097
0.000106232
0.000107318
0.000108356
0.000109348
0.000110293
0.000111192
0.000112044
0.00011285
0.000113609
0.000114322
0.000114987
0.000115606
0.000116176
0.000116698
0.000117172
0.000117598
0.000117974
0.000118301
0.000118579
0.000118808
0.000118987
0.000119116
0.000119196
0.000119228
0.00011921
0.000119144
0.00011903
0.000118868
0.000118658
0.0001184
0.000118089
0.000117727
0.000117321
0.000116874
0.000116388
0.000115865
0.000115306
0.000114713
0.000114088
0.000113434
0.00011275
0.000112041
0.000111307
0.00011055
0.000109774
0.000108978
0.000108167
0.000107342
0.000106504
0.000105657
0.000104801
0.00010394
0.000103076
0.000102209
0.000101343
0.00010048
9.96202e-05
9.87669e-05
9.79216e-05
9.7086e-05
9.62619e-05
9.54509e-05
9.46546e-05
9.38744e-05
9.31118e-05
9.23681e-05
9.16446e-05
9.09423e-05
9.02625e-05
8.96059e-05
8.89735e-05
8.83662e-05
8.77844e-05
8.7229e-05
8.67002e-05
8.61986e-05
8.57243e-05
8.52777e-05
8.48588e-05
8.44675e-05
8.41039e-05
8.37678e-05
8.34587e-05
8.31763e-05
8.29202e-05
8.26898e-05
8.24845e-05
8.23035e-05
8.2146e-05
8.20113e-05
8.18986e-05
8.1807e-05
8.17356e-05
8.16834e-05
8.16494e-05
8.16326e-05
8.16319e-05
8.16463e-05
8.16745e-05
8.17154e-05
8.17678e-05
8.18305e-05
8.19022e-05
8.19816e-05
8.20675e-05
8.21585e-05
8.22531e-05
8.23499e-05
8.24475e-05
8.25442e-05
8.26386e-05
8.2729e-05
8.28136e-05
8.28907e-05
8.29586e-05
8.30153e-05
8.3059e-05
8.30875e-05
8.30989e-05
8.3091e-05
8.30617e-05
8.30087e-05
8.29298e-05
8.28226e-05
8.26849e-05
8.25142e-05
8.23081e-05
8.20643e-05
8.17802e-05
8.14536e-05
8.10819e-05
8.06626e-05
8.01926e-05
7.96672e-05
7.90753e-05
7.84194e-05
7.77003e-05
7.69178e-05
7.60709e-05
7.51585e-05
7.41796e-05
7.31332e-05
7.20183e-05
7.08344e-05
6.95807e-05
6.82568e-05
6.68625e-05
6.53973e-05
6.3861e-05
6.22532e-05
6.05736e-05
5.88215e-05
5.69957e-05
5.50945e-05
5.31155e-05
5.10547e-05
4.89066e-05
4.66641e-05
4.43145e-05
4.18222e-05
3.9144e-05
3.62095e-05
3.28758e-05
2.88248e-05
2.37729e-05
1.7117e-05
7.732e-06
1.64536e-07
6.66876e-07
2.39735e-05
5.35664e-05
7.57557e-05
9.29191e-05
0.000106904
0.000118751
0.000129067
0.000138229
0.000146484
0.000154004
0.000160912
0.0001673
0.000173239
0.000178785
0.000183982
0.000188868
0.000193472
0.000197821
0.000201937
0.000205838
0.000209542
0.000213063
0.000216412
0.000219601
0.00022264
0.000225537
0.0002283
0.000230934
0.000233445
0.000235839
0.000238119
0.00024029
0.000242354
0.000244315
0.000246174
0.000247933
0.000249595
0.00025116
0.00025263
0.000254005
0.000255288
0.000256478
0.000257576
0.000258582
0.000259497
0.000260322
0.000261057
0.000261702
0.000262258
0.000262725
0.000263104
0.000263395
0.000263599
0.000263716
0.000263747
0.000263693
0.000263555
0.000263333
0.000263028
0.000262639
0.000262165
0.000261603
0.000260955
0.000260229
0.00025943
0.000258562
0.000257628
0.000256632
0.000255575
0.000254461
0.000253293
0.000252074
0.000250807
0.000249495
0.000248142
0.00024675
0.000245323
0.000243865
0.000242379
0.000240868
0.000239337
0.000237788
0.000236225
0.000234651
0.000233071
0.000231488
0.000229904
0.000228324
0.000226751
0.000225188
0.000223639
0.000222105
0.000220591
0.000219099
0.000217632
0.000216192
0.000214783
0.000213406
0.000212063
0.000210757
0.000209489
0.000208261
0.000207075
0.000205931
0.000204832
0.000203777
0.000202768
0.000201806
0.00020089
0.000200021
0.0001992
0.000198426
0.000197699
0.000197017
0.000196381
0.00019579
0.000195241
0.000194736
0.000194271
0.000193846
0.000193459
0.00019311
0.000192796
0.000192515
0.000192267
0.000192049
0.000191859
0.000191696
0.000191557
0.00019144
0.000191344
0.000191265
0.000191202
0.000191153
0.000191115
0.000191085
0.000191062
0.000191042
0.000191023
0.000191002
0.000190976
0.000190943
0.000190899
0.000190841
0.000190767
0.000190672
0.000190554
0.000190408
0.000190232
0.000190021
0.000189772
0.000189481
0.000189144
0.000188757
0.000188317
0.000187818
0.000187257
0.00018663
0.000185933
0.000185162
0.000184312
0.00018338
0.00018236
0.000181247
0.000180034
0.000178711
0.000177273
0.000175721
0.000174054
0.000172272
0.00017037
0.000168349
0.000166204
0.000163935
0.000161537
0.000159008
0.000156346
0.000153547
0.000150607
0.000147522
0.000144287
0.000140895
0.00013734
0.000133611
0.000129696
0.000125581
0.000121244
0.000116657
0.000111782
0.000106559
0.000100895
9.46506e-05
8.75901e-05
7.93237e-05
6.92153e-05
5.62725e-05
3.91196e-05
1.64334e-05
3.56714e-07
6.66925e-07
2.39762e-05
5.35727e-05
7.57637e-05
9.29279e-05
0.000106913
0.00011876
0.000129076
0.000138238
0.000146493
0.000154013
0.000160921
0.000167309
0.000173248
0.000178794
0.000183991
0.000188876
0.000193481
0.00019783
0.000201946
0.000205847
0.000209551
0.000213072
0.000216421
0.00021961
0.000222649
0.000225546
0.000228309
0.000230943
0.000233455
0.000235848
0.000238129
0.0002403
0.000242364
0.000244325
0.000246184
0.000247943
0.000249605
0.00025117
0.00025264
0.000254016
0.000255298
0.000256488
0.000257586
0.000258592
0.000259508
0.000260333
0.000261068
0.000261713
0.000262269
0.000262736
0.000263115
0.000263406
0.000263609
0.000263726
0.000263758
0.000263704
0.000263565
0.000263343
0.000263038
0.000262649
0.000262175
0.000261613
0.000260965
0.000260239
0.00025944
0.000258572
0.000257638
0.000256641
0.000255584
0.00025447
0.000253302
0.000252083
0.000250815
0.000249503
0.00024815
0.000246758
0.000245331
0.000243872
0.000242386
0.000240875
0.000239344
0.000237794
0.000236231
0.000234658
0.000233077
0.000231494
0.00022991
0.00022833
0.000226757
0.000225193
0.000223643
0.00022211
0.000220595
0.000219103
0.000217636
0.000216196
0.000214787
0.000213409
0.000212066
0.00021076
0.000209492
0.000208264
0.000207077
0.000205934
0.000204834
0.000203779
0.00020277
0.000201807
0.000200892
0.000200023
0.000199201
0.000198427
0.000197699
0.000197018
0.000196382
0.00019579
0.000195242
0.000194736
0.000194271
0.000193846
0.000193459
0.000193109
0.000192795
0.000192515
0.000192266
0.000192048
0.000191858
0.000191695
0.000191556
0.000191439
0.000191342
0.000191264
0.000191201
0.000191151
0.000191113
0.000191083
0.00019106
0.00019104
0.000191021
0.000191
0.000190974
0.000190941
0.000190897
0.000190839
0.000190765
0.00019067
0.000190551
0.000190406
0.00019023
0.000190019
0.00018977
0.000189479
0.000189142
0.000188755
0.000188314
0.000187815
0.000187255
0.000186628
0.000185931
0.000185159
0.00018431
0.000183377
0.000182357
0.000181245
0.000180032
0.000178708
0.000177271
0.000175719
0.000174052
0.000172269
0.000170368
0.000168347
0.000166202
0.000163933
0.000161535
0.000159007
0.000156345
0.000153545
0.000150606
0.000147521
0.000144285
0.000140894
0.000137338
0.00013361
0.000129695
0.00012558
0.000121243
0.000116656
0.000111781
0.000106558
0.000100895
9.46501e-05
8.75898e-05
7.93235e-05
6.92151e-05
5.62724e-05
3.91195e-05
1.64334e-05
3.56713e-07
1.03692e-06
3.2365e-05
7.50475e-05
0.00010967
0.000137476
0.00016048
0.000180049
0.000197072
0.000212139
0.000225654
0.000237907
0.000249109
0.000259419
0.000268961
0.000277833
0.000286113
0.000293865
0.000301143
0.000307993
0.000314452
0.000320553
0.000326325
0.000331791
0.000336974
0.000341892
0.00034656
0.000350995
0.000355207
0.000359208
0.000363007
0.000366613
0.000370034
0.000373276
0.000376345
0.000379245
0.000381982
0.000384559
0.00038698
0.000389248
0.000391366
0.000393336
0.000395162
0.000396845
0.000398387
0.000399791
0.000401058
0.000402189
0.000403188
0.000404054
0.00040479
0.000405398
0.000405878
0.000406233
0.000406463
0.000406572
0.000406559
0.000406427
0.000406177
0.000405811
0.000405328
0.000404731
0.000404018
0.000403191
0.000402249
0.000401202
0.000400054
0.00039881
0.000397476
0.000396055
0.000394551
0.000392968
0.000391311
0.000389583
0.000387789
0.000385933
0.000384019
0.000382051
0.000380035
0.000377975
0.000375876
0.000373741
0.000371577
0.000369387
0.000367176
0.00036495
0.000362713
0.00036047
0.000358224
0.000355982
0.000353747
0.000351524
0.000349317
0.00034713
0.000344967
0.000342833
0.00034073
0.000338663
0.000336634
0.000334646
0.000332704
0.000330808
0.000328962
0.000327168
0.000325428
0.000323743
0.000322115
0.000320545
0.000319034
0.000317584
0.000316194
0.000314864
0.000313596
0.000312388
0.000311239
0.00031015
0.000309118
0.000308142
0.000307221
0.000306353
0.000305538
0.000304773
0.000304056
0.000303386
0.000302759
0.000302175
0.00030163
0.000301123
0.00030065
0.000300209
0.000299798
0.000299414
0.000299053
0.000298713
0.000298392
0.000298085
0.000297789
0.000297502
0.00029722
0.000296939
0.000296657
0.000296368
0.00029607
0.000295758
0.000295428
0.000295076
0.000294698
0.000294289
0.000293845
0.000293361
0.000292831
0.000292252
0.000291619
0.000290925
0.000290166
0.000289337
0.000288432
0.000287446
0.000286374
0.000285211
0.000283952
0.00028259
0.000281121
0.000279539
0.000277838
0.000276012
0.000274052
0.000271951
0.000269701
0.0002673
0.000264746
0.000262035
0.000259166
0.000256133
0.000252933
0.00024956
0.000246011
0.000242278
0.000238356
0.000234237
0.000229911
0.000225369
0.000220598
0.000215584
0.000210308
0.00020475
0.000198882
0.00019267
0.000186071
0.000179025
0.000171451
0.000163236
0.000154212
0.000144131
0.000132619
0.000119102
0.000102713
8.21508e-05
5.57094e-05
2.29101e-05
5.63197e-07
1.03698e-06
3.2368e-05
7.50552e-05
0.000109681
0.000137489
0.000160493
0.000180063
0.000197086
0.000212153
0.000225669
0.000237922
0.000249123
0.000259434
0.000268975
0.000277847
0.000286127
0.000293879
0.000301157
0.000308007
0.000314466
0.000320567
0.000326338
0.000331805
0.000336988
0.000341905
0.000346574
0.000351008
0.00035522
0.000359221
0.000363021
0.000366627
0.000370048
0.00037329
0.000376359
0.000379259
0.000381996
0.000384573
0.000386994
0.000389262
0.00039138
0.00039335
0.000395176
0.000396859
0.000398402
0.000399805
0.000401072
0.000402204
0.000403202
0.000404068
0.000404804
0.000405412
0.000405892
0.000406246
0.000406477
0.000406585
0.000406573
0.000406441
0.000406191
0.000405824
0.000405341
0.000404744
0.000404031
0.000403203
0.000402262
0.000401214
0.000400066
0.000398822
0.000397487
0.000396066
0.000394562
0.000392979
0.000391322
0.000389594
0.000387799
0.000385943
0.000384028
0.000382061
0.000380045
0.000377984
0.000375884
0.000373749
0.000371585
0.000369395
0.000367184
0.000364958
0.00036272
0.000360476
0.000358231
0.000355988
0.000353753
0.00035153
0.000349322
0.000347135
0.000344972
0.000342837
0.000340734
0.000338667
0.000336637
0.00033465
0.000332707
0.000330811
0.000328965
0.00032717
0.00032543
0.000323745
0.000322117
0.000320547
0.000319036
0.000317585
0.000316195
0.000314865
0.000313596
0.000312388
0.000311239
0.00031015
0.000309117
0.000308141
0.00030722
0.000306352
0.000305537
0.000304772
0.000304055
0.000303384
0.000302758
0.000302173
0.000301628
0.000301121
0.000300648
0.000300207
0.000299796
0.000299411
0.00029905
0.000298711
0.000298389
0.000298082
0.000297786
0.000297499
0.000297217
0.000296936
0.000296653
0.000296364
0.000296066
0.000295754
0.000295424
0.000295072
0.000294694
0.000294285
0.000293841
0.000293357
0.000292827
0.000292248
0.000291614
0.00029092
0.000290162
0.000289332
0.000288427
0.000287442
0.00028637
0.000285207
0.000283947
0.000282586
0.000281117
0.000279535
0.000277834
0.000276008
0.000274048
0.000271947
0.000269697
0.000267296
0.000264742
0.000262032
0.000259162
0.00025613
0.00025293
0.000249557
0.000246008
0.000242276
0.000238354
0.000234235
0.000229909
0.000225367
0.000220596
0.000215582
0.000210306
0.000204748
0.00019888
0.000192669
0.00018607
0.000179024
0.00017145
0.000163235
0.000154211
0.000144131
0.000132618
0.000119102
0.000102713
8.21508e-05
5.57095e-05
2.29102e-05
5.63196e-07
1.40504e-06
3.89133e-05
9.16503e-05
0.000136677
0.000174016
0.000205475
0.0002325
0.000256122
0.00027707
0.000295866
0.000312893
0.000328439
0.000342725
0.000355924
0.000368173
0.000379584
0.000390249
0.000400244
0.000409634
0.000418472
0.000426806
0.000434676
0.000442116
0.000449157
0.000455826
0.000462144
0.000468133
0.00047381
0.000479191
0.000484288
0.000489115
0.000493682
0.000497998
0.000502071
0.00050591
0.000509521
0.00051291
0.000516082
0.000519043
0.000521796
0.000524348
0.000526701
0.000528859
0.000530827
0.000532607
0.000534203
0.000535618
0.000536855
0.000537918
0.000538809
0.000539531
0.000540087
0.000540479
0.000540712
0.000540786
0.000540705
0.000540472
0.000540089
0.000539558
0.000538881
0.00053806
0.000537097
0.000535994
0.000534753
0.000533381
0.000531884
0.000530268
0.000528539
0.000526702
0.000524762
0.000522724
0.000520593
0.000518375
0.000516075
0.000513698
0.00051125
0.000508736
0.000506161
0.000503532
0.000500855
0.000498134
0.000495376
0.000492587
0.000489772
0.000486938
0.00048409
0.000481234
0.000478376
0.000475521
0.000472674
0.000469842
0.000467029
0.000464241
0.000461481
0.000458756
0.000456069
0.000453424
0.000450825
0.000448277
0.000445782
0.000443343
0.000440964
0.000438646
0.000436393
0.000434205
0.000432085
0.000430033
0.000428052
0.000426141
0.0004243
0.000422531
0.000420833
0.000419204
0.000417644
0.000416151
0.000414725
0.000413362
0.000412063
0.000410824
0.000409645
0.000408522
0.000407453
0.000406435
0.000405467
0.000404546
0.000403668
0.000402831
0.000402031
0.000401266
0.000400533
0.000399827
0.000399146
0.000398487
0.000397845
0.000397217
0.000396599
0.000395988
0.000395379
0.000394767
0.00039415
0.000393522
0.000392879
0.000392216
0.000391528
0.00039081
0.000390057
0.000389263
0.000388424
0.000387533
0.000386585
0.000385574
0.000384494
0.000383339
0.000382103
0.00038078
0.000379364
0.000377849
0.000376228
0.000374496
0.000372646
0.000370672
0.000368568
0.000366328
0.000363945
0.000361411
0.000358719
0.000355861
0.000352829
0.000349618
0.000346225
0.000342644
0.000338871
0.0003349
0.000330724
0.000326336
0.000321729
0.000316891
0.000311813
0.000306481
0.000300881
0.000294995
0.000288803
0.00028228
0.000275398
0.000268122
0.000260407
0.000252202
0.000243436
0.000234019
0.00022383
0.000212703
0.000200402
0.000186594
0.000170796
0.000152309
0.000130133
0.000102877
6.88603e-05
2.8228e-05
7.76614e-07
1.4051e-06
3.89163e-05
9.16586e-05
0.000136689
0.000174031
0.000205491
0.000232518
0.000256141
0.000277089
0.000295885
0.000312912
0.000328458
0.000342744
0.000355943
0.000368192
0.000379603
0.000390268
0.000400263
0.000409652
0.000418491
0.000426825
0.000434694
0.000442135
0.000449176
0.000455844
0.000462163
0.000468152
0.000473828
0.000479209
0.000484306
0.000489133
0.0004937
0.000498016
0.00050209
0.000505929
0.000509539
0.000512928
0.0005161
0.000519061
0.000521815
0.000524366
0.000526719
0.000528877
0.000530845
0.000532625
0.000534221
0.000535636
0.000536873
0.000537935
0.000538826
0.000539548
0.000540104
0.000540496
0.000540728
0.000540803
0.000540722
0.000540488
0.000540105
0.000539573
0.000538896
0.000538075
0.000537112
0.000536008
0.000534767
0.000533395
0.000531898
0.000530282
0.000528552
0.000526715
0.000524775
0.000522736
0.000520606
0.000518387
0.000516087
0.00051371
0.000511261
0.000508747
0.000506172
0.000503543
0.000500865
0.000498144
0.000495385
0.000492596
0.000489781
0.000486947
0.000484098
0.000481242
0.000478383
0.000475528
0.000472681
0.000469849
0.000467036
0.000464247
0.000461487
0.000458761
0.000456074
0.000453428
0.00045083
0.000448281
0.000445786
0.000443347
0.000440967
0.000438649
0.000436396
0.000434208
0.000432087
0.000430035
0.000428053
0.000426142
0.000424301
0.000422532
0.000420833
0.000419204
0.000417644
0.000416151
0.000414724
0.000413362
0.000412062
0.000410824
0.000409644
0.00040852
0.000407451
0.000406434
0.000405466
0.000404544
0.000403666
0.000402828
0.000402029
0.000401264
0.00040053
0.000399824
0.000399143
0.000398483
0.000397841
0.000397213
0.000396596
0.000395984
0.000395375
0.000394763
0.000394146
0.000393518
0.000392874
0.000392211
0.000391523
0.000390805
0.000390052
0.000389258
0.000388419
0.000387528
0.00038658
0.000385569
0.000384489
0.000383334
0.000382098
0.000380775
0.000379359
0.000377844
0.000376223
0.000374491
0.000372641
0.000370667
0.000368563
0.000366323
0.00036394
0.000361406
0.000358714
0.000355856
0.000352824
0.000349614
0.000346221
0.00034264
0.000338867
0.000334896
0.00033072
0.000326333
0.000321725
0.000316888
0.00031181
0.000306479
0.000300879
0.000294993
0.000288801
0.000282278
0.000275396
0.00026812
0.000260406
0.0002522
0.000243434
0.000234018
0.000223829
0.000212702
0.000200402
0.000186594
0.000170796
0.000152309
0.000130133
0.000102877
6.88605e-05
2.82282e-05
7.76615e-07
1.7746e-06
4.44357e-05
0.000105269
0.00015898
0.000204606
0.000243653
0.000277532
0.000307324
0.000333837
0.000357671
0.000379283
0.000399019
0.000417152
0.000433897
0.000449428
0.000463887
0.00047739
0.000490035
0.000501904
0.000513066
0.000523583
0.000533506
0.000542878
0.00055174
0.000560123
0.000568059
0.000575573
0.000582687
0.000589422
0.000595794
0.000601819
0.000607512
0.000612883
0.000617944
0.000622705
0.000627175
0.00063136
0.00063527
0.00063891
0.000642286
0.000645406
0.000648274
0.000650896
0.000653276
0.000655421
0.000657334
0.00065902
0.000660485
0.000661731
0.000662765
0.000663589
0.000664209
0.000664628
0.00066485
0.000664879
0.000664719
0.000664375
0.000663848
0.000663144
0.000662265
0.000661216
0.000659998
0.000658615
0.000657072
0.000655375
0.000653531
0.000651546
0.000649428
0.000647181
0.000644814
0.000642331
0.000639739
0.000637045
0.000634255
0.000631375
0.000628412
0.000625372
0.000622262
0.000619089
0.00061586
0.000612582
0.00060926
0.000605904
0.000602518
0.000599111
0.000595688
0.000592257
0.000588825
0.000585398
0.000581981
0.000578583
0.000575207
0.000571861
0.00056855
0.00056528
0.000562054
0.000558879
0.000555758
0.000552696
0.000549696
0.000546762
0.000543896
0.000541102
0.000538382
0.000535737
0.00053317
0.000530681
0.000528272
0.000525942
0.000523692
0.000521522
0.000519431
0.000517417
0.000515479
0.000513616
0.000511825
0.000510105
0.000508453
0.000506866
0.000505343
0.000503881
0.000502476
0.000501126
0.000499827
0.000498577
0.000497372
0.000496208
0.000495083
0.000493992
0.000492932
0.000491899
0.00049089
0.0004899
0.000488926
0.000487962
0.000487006
0.000486053
0.000485097
0.000484135
0.000483162
0.000482172
0.000481161
0.000480124
0.000479054
0.000477946
0.000476795
0.000475594
0.000474338
0.00047302
0.000471634
0.000470173
0.000468631
0.000467002
0.000465278
0.000463453
0.00046152
0.000459473
0.000457304
0.000455008
0.000452577
0.000450005
0.000447285
0.00044441
0.000441372
0.000438165
0.000434781
0.000431211
0.000427446
0.000423482
0.000419311
0.000414927
0.000410324
0.000405493
0.000400425
0.00039511
0.000389537
0.000383691
0.000377557
0.000371117
0.000364348
0.000357227
0.000349725
0.000341807
0.000333432
0.000324554
0.000315111
0.000305033
0.000294225
0.000282569
0.000269908
0.000256031
0.000240647
0.000223355
0.000203593
0.000180578
0.000153229
0.000120124
7.97104e-05
3.27061e-05
9.98247e-07
1.77467e-06
4.44387e-05
0.000105277
0.000158993
0.000204622
0.000243672
0.000277552
0.000307345
0.000333859
0.000357694
0.000379305
0.000399042
0.000417175
0.00043392
0.000449452
0.00046391
0.000477413
0.000490058
0.000501927
0.00051309
0.000523607
0.000533529
0.000542902
0.000551763
0.000560147
0.000568082
0.000575596
0.00058271
0.000589445
0.000595817
0.000601842
0.000607534
0.000612906
0.000617967
0.000622728
0.000627197
0.000631383
0.000635292
0.000638932
0.000642308
0.000645428
0.000648295
0.000650917
0.000653298
0.000655442
0.000657355
0.000659041
0.000660505
0.000661752
0.000662785
0.000663609
0.000664229
0.000664647
0.000664869
0.000664898
0.000664738
0.000664393
0.000663867
0.000663162
0.000662283
0.000661233
0.000660015
0.000658632
0.000657089
0.000655392
0.000653547
0.000651562
0.000649443
0.000647196
0.000644829
0.000642345
0.000639754
0.000637059
0.000634269
0.000631388
0.000628425
0.000625384
0.000622274
0.000619101
0.000615872
0.000612593
0.000609271
0.000605914
0.000602528
0.000599121
0.000595698
0.000592267
0.000588834
0.000585406
0.000581989
0.00057859
0.000575215
0.000571869
0.000568557
0.000565286
0.000562061
0.000558885
0.000555764
0.000552701
0.000549701
0.000546766
0.000543901
0.000541106
0.000538386
0.000535741
0.000533173
0.000530684
0.000528274
0.000525944
0.000523695
0.000521524
0.000519433
0.000517419
0.00051548
0.000513617
0.000511826
0.000510105
0.000508453
0.000506866
0.000505343
0.00050388
0.000502475
0.000501125
0.000499826
0.000498576
0.00049737
0.000496207
0.000495081
0.00049399
0.00049293
0.000491897
0.000490887
0.000489897
0.000488922
0.000487959
0.000487003
0.000486049
0.000485093
0.000484131
0.000483158
0.000482168
0.000481157
0.000480119
0.000479049
0.000477941
0.00047679
0.000475589
0.000474333
0.000473015
0.000471628
0.000470168
0.000468626
0.000466996
0.000465272
0.000463447
0.000461515
0.000459467
0.000457299
0.000455003
0.000452572
0.00045
0.000447279
0.000444404
0.000441367
0.00043816
0.000434776
0.000431206
0.000427442
0.000423477
0.000419307
0.000414923
0.00041032
0.000405489
0.000400422
0.000395107
0.000389534
0.000383688
0.000377554
0.000371114
0.000364346
0.000357225
0.000349723
0.000341805
0.000333431
0.000324552
0.00031511
0.000305032
0.000294224
0.000282568
0.000269908
0.000256031
0.000240647
0.000223355
0.000203594
0.000180578
0.000153229
0.000120124
7.97108e-05
3.27062e-05
9.98248e-07
2.15091e-06
4.9334e-05
0.000116972
0.00017806
0.00023088
0.000276654
0.00031671
0.000352135
0.00038378
0.000412295
0.000438189
0.000461856
0.00048361
0.000503703
0.000522339
0.000539685
0.000555881
0.000571043
0.000585271
0.000598648
0.000611247
0.000623129
0.000634348
0.00064495
0.000654977
0.000664463
0.00067344
0.000681935
0.000689972
0.00069757
0.000704751
0.000711528
0.000717918
0.000723933
0.000729585
0.000734885
0.000739842
0.000744466
0.000748764
0.000752744
0.000756415
0.000759782
0.000762852
0.000765633
0.00076813
0.00077035
0.000772298
0.00077398
0.000775403
0.000776571
0.00077749
0.000778167
0.000778606
0.000778812
0.000778791
0.000778548
0.000778088
0.000777415
0.000776536
0.000775454
0.000774174
0.000772701
0.000771041
0.000769197