/*--------------------------------*- C++ -*----------------------------------*\
  =========                 |
  \\      /  F ield         | OpenFOAM: The Open Source CFD Toolbox
   \\    /   O peration     | Website:  https://openfoam.org
    \\  /    A nd           | Version:  8
     \\/     M anipulation  |
\*---------------------------------------------------------------------------*/
FoamFile
{
    version     2.0;
    format      ascii;
    class       volScalarField;
    location    "1900";
    object      epsilon;
}
// * * * * * * * * * * * * * * * * * * * * * * * * * * * * * * * * * * * * * //

dimensions      [0 2 -3 0 0 0 0];

internalField   nonuniform List<scalar> 
46000
(
1.16803
5.46533
11.6389
17.873
23.9441
29.8672
35.6711
41.3755
46.9926
52.5291
57.9888
63.3735
68.6838
73.9198
79.0808
84.1663
89.1754
94.1071
98.9607
103.735
108.429
113.042
117.573
122.02
126.381
130.656
134.841
138.936
142.936
146.84
150.644
154.344
157.937
161.419
164.785
168.03
171.15
174.139
176.993
179.707
182.274
184.691
186.953
189.054
190.99
192.758
194.353
195.772
197.013
198.073
198.95
199.644
200.153
200.478
200.619
200.579
200.358
199.96
199.388
198.646
197.738
196.672
195.466
194.138
192.669
191.063
189.327
187.471
185.5
183.424
181.251
178.99
176.649
174.238
171.764
169.236
166.664
164.055
161.418
158.761
156.092
153.419
150.749
148.089
145.445
142.825
140.235
137.679
135.164
132.695
130.275
127.91
125.604
123.359
121.179
119.067
117.025
115.055
113.16
111.34
109.597
107.932
106.346
104.838
103.41
102.061
100.79
99.5986
98.4845
97.4475
96.4865
95.6005
94.7882
94.0483
93.3788
92.779
92.2467
91.7792
91.3745
91.0319
90.7488
90.5231
90.3524
90.2347
90.1676
90.1488
90.176
90.2468
90.3588
90.5094
90.6961
90.9163
91.1673
91.4464
91.7508
92.0775
92.4235
92.7858
93.1609
93.5456
93.9364
94.3294
94.721
95.107
95.4832
95.8452
96.1884
96.508
96.7988
97.0557
97.2732
97.4457
97.5674
97.6322
97.634
97.5667
97.4238
97.1991
96.8863
96.4791
95.9713
95.3571
94.6306
93.7866
92.8199
91.7274
90.5266
89.2092
87.7603
86.176
84.4551
82.5979
80.6056
78.4806
76.2261
73.8465
71.3474
68.7352
66.0174
63.2026
60.3
57.32
54.2732
51.1712
48.0254
44.8478
41.6499
38.443
35.2369
32.0349
28.8336
25.6712
22.5181
19.3682
16.2029
13.0373
9.83636
6.48644
3.09401
0.662494
1.16816
5.46586
11.6397
17.874
23.9452
29.8684
35.6723
41.3768
46.9939
52.5304
57.9901
63.3748
68.6852
73.9211
79.0822
84.1677
89.1767
94.1085
98.962
103.736
108.431
113.044
117.574
122.021
126.383
130.657
134.843
138.937
142.938
146.842
150.645
154.346
157.939
161.421
164.786
168.032
171.151
174.141
176.995
179.708
182.276
184.693
186.955
189.056
190.992
192.76
194.355
195.774
197.015
198.075
198.952
199.645
200.155
200.48
200.621
200.581
200.36
199.962
199.39
198.648
197.74
196.673
195.468
194.14
192.67
191.064
189.329
187.472
185.501
183.426
181.253
178.991
176.651
174.239
171.765
169.237
166.665
164.056
161.419
158.762
156.093
153.42
150.75
148.089
145.446
142.826
140.235
137.68
135.165
132.695
130.276
127.911
125.604
123.359
121.179
119.067
117.025
115.055
113.16
111.34
109.597
107.932
106.346
104.838
103.41
102.061
100.79
99.5983
98.4842
97.4472
96.4862
95.6002
94.7879
94.0479
93.3784
92.7786
92.2462
91.7787
91.374
91.0314
90.7483
90.5225
90.3519
90.2341
90.167
90.1482
90.1755
90.2462
90.3582
90.5088
90.6955
90.9157
91.1667
91.4458
91.7502
92.0769
92.4229
92.7851
93.1602
93.5449
93.9357
94.3287
94.7203
95.1063
95.4825
95.8445
96.1877
96.5072
96.7981
97.055
97.2725
97.445
97.5667
97.6315
97.6333
97.566
97.4231
97.1985
96.8857
96.4784
95.9707
95.3565
94.63
93.786
92.8193
91.7269
90.526
89.2087
87.7598
86.1755
84.4546
82.5975
80.6052
78.4802
76.2257
73.8462
71.3471
68.7349
66.0171
63.2023
60.2998
57.3198
54.2731
51.171
48.0253
44.8476
41.6498
38.4429
35.2368
32.0348
28.8335
25.6712
22.5181
19.3682
16.2029
13.0373
9.83638
6.48645
3.09402
0.662496
5.99586
5.09016
7.09073
9.39884
11.7532
14.1052
16.445
18.7717
21.0855
23.3868
25.6755
27.9512
30.2131
32.4603
34.6917
36.9062
39.1025
41.2795
43.4358
45.5701
47.6812
49.7677
51.8282
53.8612
55.865
57.8382
59.7789
61.6853
63.5553
65.3867
67.1775
68.925
70.6269
72.2803
73.8826
75.4309
76.9222
78.3536
79.722
81.0244
82.2578
83.4192
84.5059
85.5152
86.4444
87.2912
88.0535
88.7293
89.3171
89.8156
90.2236
90.5407
90.7664
90.9008
90.9443
90.8977
90.7622
90.5391
90.2306
89.8389
89.3672
88.82
88.2047
87.5257
86.7805
85.9705
85.0989
84.1697
83.1869
82.1546
81.0774
79.9595
78.8056
77.6199
76.407
75.1712
73.9169
72.6483
71.3696
70.0847
68.7975
67.5118
66.231
64.9586
63.6978
62.4516
61.2228
60.014
58.8277
57.6662
56.5315
55.4254
54.3496
53.3057
52.295
51.3185
50.3773
49.4722
48.604
47.773
46.9798
46.2245
45.5074
44.8286
44.1879
43.5852
43.0202
42.4928
42.0024
41.5486
41.131
40.7488
40.4014
40.0882
39.8081
39.5612
39.3463
39.1623
39.0084
38.8836
38.7872
38.7179
38.675
38.6573
38.6638
38.6936
38.7455
38.8186
38.9116
39.0235
39.1532
39.2995
39.4612
39.6371
39.8259
40.0263
40.237
40.4565
40.6834
40.9162
41.1532
41.3928
41.6332
41.8726
42.1091
42.3405
42.5648
42.7797
42.9829
43.1719
43.3441
43.4968
43.6273
43.7328
43.8101
43.8564
43.8685
43.8433
43.7776
43.6684
43.5124
43.3068
43.0486
42.7352
42.3644
41.9353
41.4512
40.9091
40.3047
39.6354
38.9
38.0982
37.23
36.2964
35.2987
34.2388
33.1191
31.9428
30.7133
29.4349
28.1121
26.7498
25.3533
23.9283
22.4806
21.0159
19.54
18.0586
16.5766
15.0979
13.6258
12.1664
10.716
9.28458
7.87911
6.51023
5.17996
3.89671
2.80439
3.27285
5.9965
5.09004
7.09031
9.39825
11.7525
14.1043
16.4441
18.7706
21.0843
23.3855
25.6741
27.9497
30.2115
32.4586
34.6899
36.9042
39.1004
41.2773
43.4334
45.5677
47.6787
49.7651
51.8254
53.8582
55.862
57.835
59.7756
61.6818
63.5517
65.383
67.1736
68.9211
70.6228
72.2761
73.8783
75.4264
76.9176
78.3489
79.7172
81.0194
82.2527
83.4141
84.5007
85.5099
86.439
87.2857
88.0479
88.7237
89.3115
89.8099
90.2179
90.5349
90.7606
90.895
90.9385
90.8919
90.7563
90.5333
90.2248
89.8331
89.3615
88.8143
88.199
87.5202
86.7749
85.965
85.0935
84.1644
83.1816
82.1495
81.0723
79.9545
78.8006
77.6151
76.4022
75.1666
73.9124
72.6439
71.3652
70.0805
68.7934
67.5077
66.2271
64.9548
63.6941
62.448
61.2193
60.0106
58.8245
57.663
56.5284
55.4224
54.3468
53.3029
52.2923
51.3159
50.3748
49.4698
48.6016
47.7707
46.9776
46.2224
45.5054
44.8266
44.186
43.5833
43.0185
42.4911
42.0008
41.5471
41.1294
40.7473
40.4
40.0869
39.8068
39.5599
39.3451
39.1611
39.0072
38.8826
38.7861
38.7169
38.674
38.6564
38.6629
38.6928
38.7447
38.8178
38.9109
39.0228
39.1526
39.2989
39.4606
39.6365
39.8254
40.0258
40.2365
40.456
40.683
40.9158
41.1528
41.3924
41.6329
41.8723
42.1087
42.3402
42.5645
42.7794
42.9826
43.1716
43.3439
43.4966
43.6272
43.7326
43.81
43.8563
43.8684
43.8432
43.7776
43.6683
43.5124
43.3069
43.0487
42.7353
42.3645
41.9354
41.4513
40.9092
40.3048
39.6355
38.9001
38.0983
37.2302
36.2966
35.2989
34.2389
33.1193
31.9429
30.7135
29.4351
28.1122
26.7499
25.3535
23.9285
22.4807
21.016
19.5401
18.0587
16.5767
15.098
13.6258
12.1664
10.716
9.28462
7.87914
6.51025
5.17998
3.89672
2.80439
3.27285
12.781
7.39563
7.80348
8.99879
10.4159
11.9229
13.4735
15.0479
16.6363
18.2328
19.8339
21.4367
23.0392
24.6393
26.2355
27.8262
29.4098
30.9851
32.5506
34.1051
35.647
37.1752
38.6883
40.1847
41.6632
43.1221
44.5598
45.9748
47.3652
48.7292
50.0648
51.3701
52.6428
53.8809
55.0819
56.2436
57.3636
58.4393
59.4685
60.4486
61.3772
62.2519
63.0705
63.8308
64.5307
65.1684
65.742
66.25
66.6912
67.0643
67.3687
67.6036
67.7689
67.8645
67.8906
67.8479
67.7373
67.5599
67.3173
67.0114
66.6446
66.2199
65.7409
65.2106
64.6297
63.9999
63.3236
62.6038
61.8434
61.0458
60.2142
59.3522
58.4632
57.5505
56.6177
55.6681
54.7051
53.7319
52.7518
51.7677
50.7828
49.7997
48.8214
47.8503
46.8889
45.9395
45.0042
44.0851
43.184
42.3026
41.4424
40.6048
39.7912
39.0026
38.24
37.5043
36.7961
36.1161
35.4648
34.8425
34.2496
33.6862
33.1525
32.6485
32.174
31.729
31.3134
30.9268
30.5689
30.2395
29.938
29.6641
29.4172
29.1971
29.0031
28.8348
28.6914
28.5723
28.4767
28.4041
28.3537
28.3248
28.3166
28.3285
28.3597
28.4094
28.4768
28.5612
28.6618
28.7777
28.908
29.052
29.2087
29.3772
29.5566
29.7459
29.944
30.15
30.3626
30.5808
30.8032
31.0287
31.2559
31.4834
31.7096
31.933
32.152
32.3647
32.5694
32.7641
32.9467
33.1152
33.2674
33.4009
33.5134
33.6024
33.6655
33.7
33.7035
33.6733
33.607
33.5019
33.3558
33.1665
32.932
32.6513
32.3241
31.9487
31.523
31.0451
30.5141
29.9293
29.2909
28.5992
27.8553
27.0605
26.2169
25.3267
24.3929
23.4186
22.4077
21.3641
20.2921
19.1963
18.0814
16.9524
15.8142
14.6716
13.5295
12.3926
11.2656
10.1542
9.06338
8.00175
6.9797
6.01517
5.13869
4.42077
4.17309
6.99908
12.782
7.39522
7.8027
8.99785
10.4149
11.9218
13.4723
15.0467
16.635
18.2315
19.8325
21.4353
23.0376
24.6377
26.2338
27.8244
29.408
30.9832
32.5487
34.103
35.6449
37.173
38.686
40.1824
41.6607
43.1195
44.5572
45.9721
47.3624
48.7263
50.0619
51.367
52.6397
53.8777
55.0786
56.2403
57.3601
58.4358
59.4649
60.4449
61.3734
62.2481
63.0667
63.8269
64.5268
65.1644
65.7379
66.246
66.6871
67.0602
67.3645
67.5995
67.7647
67.8603
67.8864
67.8438
67.7332
67.5558
67.3132
67.0073
66.6406
66.2159
65.7369
65.2067
64.6258
63.9961
63.3199
62.6001
61.8398
61.0422
60.2108
59.3488
58.4598
57.5473
56.6145
55.665
54.7021
53.729
52.7489
51.7649
50.7801
49.7971
48.8189
47.8478
46.8865
45.9372
45.002
44.083
43.1819
42.3006
41.4405
40.603
39.7895
39.0009
38.2384
37.5027
36.7946
36.1147
35.4634
34.8412
34.2484
33.6851
33.1514
32.6474
32.173
31.7281
31.3124
30.9259
30.5681
30.2387
29.9372
29.6634
29.4165
29.1964
29.0025
28.8342
28.6909
28.5718
28.4763
28.4037
28.3533
28.3244
28.3163
28.3282
28.3594
28.4091
28.4766
28.561
28.6616
28.7775
28.9078
29.0519
29.2086
29.3771
29.5565
29.7458
29.944
30.1499
30.3626
30.5808
30.8033
31.0288
31.256
31.4835
31.7097
31.9331
32.1521
32.3649
32.5695
32.7642
32.9469
33.1154
33.2676
33.4011
33.5136
33.6027
33.6657
33.7003
33.7038
33.6736
33.6073
33.5022
33.3561
33.1668
32.9324
32.6516
32.3244
31.949
31.5233
31.0454
30.5144
29.9296
29.2912
28.5995
27.8556
27.0608
26.2171
25.3269
24.3931
23.4189
22.4079
21.3643
20.2922
19.1964
18.0816
16.9526
15.8143
14.6717
13.5296
12.3926
11.2657
10.1542
9.06343
8.0018
6.97973
6.0152
5.13871
4.42078
4.17309
6.99908
19.6326
9.98373
9.24107
9.79098
10.725
11.8266
13.017
14.2604
15.5377
16.8382
18.1545
19.482
20.8169
22.1563
23.4979
24.8396
26.1796
27.5162
28.8478
30.173
31.4901
32.7979
34.0949
35.3795
36.6503
37.9058
39.1443
40.3642
41.5638
42.7412
43.8947
45.0222
46.1219
47.1916
48.2293
49.2327
50.1999
51.1285
52.0163
52.8614
53.6614
54.4143
55.1183
55.7712
56.3715
56.9173
57.4073
57.8401
58.2147
58.5299
58.7853
58.9802
59.1145
59.1881
59.2014
59.1548
59.0492
58.8856
58.6654
58.3901
58.0618
57.6828
57.2557
56.7827
56.2654
55.7057
55.1057
54.468
53.7953
53.0902
52.3558
51.595
50.8109
50.0063
49.1843
48.348
47.5001
46.6435
45.7811
44.9155
44.0494
43.1852
42.3254
41.4721
40.6276
39.7939
38.9728
38.1662
37.3755
36.6024
35.8482
35.1141
34.4012
33.7106
33.043
32.3992
31.7799
31.1857
30.6168
30.0738
29.5568
29.0661
28.6017
28.1636
27.7519
27.3663
27.0069
26.6733
26.3654
26.0827
25.8251
25.5922
25.3837
25.1991
25.038
24.8998
24.7841
24.6902
24.6176
24.5658
24.534
24.5218
24.5284
24.5534
24.596
24.6555
24.7314
24.8229
24.9293
25.05
25.1842
25.3311
25.49
25.6601
25.8406
26.0305
26.2291
26.4353
26.6482
26.8667
27.0898
27.3163
27.5451
27.7748
28.0041
28.2316
28.4558
28.6752
28.888
29.0924
29.2867
29.469
29.6371
29.7891
29.9227
30.0357
30.1258
30.1906
30.2278
30.2351
30.2101
30.1504
30.0539
29.9186
29.7426
29.5246
29.2633
28.9575
28.6054
28.2059
27.7579
27.2609
26.715
26.1205
25.4781
24.7892
24.0555
23.2789
22.4621
21.6078
20.7195
19.8006
18.855
17.8869
16.9004
15.9003
14.891
13.8775
12.8649
11.8586
10.8646
9.88979
8.9427
8.0346
7.18135
6.40814
5.762
5.36607
5.73543
10.956
19.6338
9.98315
9.24013
9.78992
10.7239
11.8255
13.0158
14.2591
15.5364
16.8368
18.1532
19.4806
20.8154
22.1548
23.4964
24.838
26.178
27.5145
28.8461
30.1712
31.4883
32.796
34.0929
35.3775
36.6483
37.9037
39.1421
40.362
41.5615
42.7389
43.8923
45.0198
46.1194
47.189
48.2266
49.23
50.1971
51.1257
52.0135
52.8585
53.6585
54.4114
55.1152
55.7682
56.3684
56.9142
57.4042
57.837
58.2115
58.5268
58.7821
58.977
59.1113
59.185
59.1983
59.1517
59.0461
58.8825
58.6623
58.3871
58.0588
57.6799
57.2527
56.7798
56.2626
55.7029
55.103
54.4654
53.7926
53.0877
52.3533
51.5926
50.8085
50.004
49.1821
48.3458
47.4979
46.6415
45.7791
44.9136
44.0476
43.1834
42.3237
41.4705
40.626
39.7924
38.9713
38.1647
37.3741
36.6011
35.8469
35.1129
34.4001
33.7095
33.0419
32.3982
31.779
31.1848
30.616
30.073
29.5561
29.0654
28.601
28.1629
27.7512
27.3657
27.0063
26.6728
26.3649
26.0823
25.8246
25.5918
25.3833
25.1988
25.0377
24.8995
24.7838
24.69
24.6174
24.5656
24.5338
24.5216
24.5283
24.5533
24.5958
24.6554
24.7313
24.8228
24.9293
25.05
25.1842
25.3311
25.4901
25.6602
25.8407
26.0306
26.2292
26.4354
26.6483
26.8668
27.09
27.3165
27.5453
27.775
28.0043
28.2319
28.4561
28.6754
28.8882
29.0927
29.287
29.4693
29.6375
29.7894
29.923
30.036
30.1261
30.191
30.2282
30.2355
30.2104
30.1508
30.0543
29.919
29.743
29.5249
29.2637
28.9578
28.6058
28.2062
27.7582
27.2613
26.7153
26.1208
25.4784
24.7895
24.0557
23.2791
22.4623
21.6081
20.7197
19.8008
18.8552
17.887
16.9006
15.9004
14.8911
13.8776
12.865
11.8587
10.8646
9.88984
8.94273
8.03463
7.18137
6.40815
5.762
5.36607
5.73542
10.956
26.3816
12.6556
10.9272
10.9847
11.5827
12.4211
13.3899
14.4383
15.5394
16.6769
17.8406
19.0236
20.2206
21.4277
22.6418
23.8602
25.0807
26.3012
27.5198
28.7348
29.9445
31.1473
32.3416
33.5257
34.6981
35.8569
37.0007
38.1275
39.2356
40.3231
41.3882
42.429
43.4433
44.4292
45.3847
46.3078
47.1963
48.0482
48.8615
49.6342
50.3644
51.0502
51.6898
52.2816
52.8241
53.3157
53.7553
54.1416
54.4738
54.7511
54.9729
55.1389
55.249
55.3032
55.3019
55.2456
55.1351
54.9713
54.7556
54.4894
54.1746
53.8129
53.4066
52.9578
52.4682
51.9396
51.3741
50.7742
50.1421
49.4805
48.792
48.0794
47.3453
46.5925
45.8238
45.0418
44.2493
43.4489
42.6432
41.8346
41.0255
40.2183
39.4151
38.6181
37.8293
37.0504
36.2834
35.5298
34.7911
34.0687
33.3639
32.6779
32.0116
31.3661
30.7421
30.1404
29.5615
29.006
28.4743
27.9667
27.4836
27.025
26.5911
26.1819
25.7974
25.4376
25.1023
24.7913
24.5045
24.2416
24.0025
23.7868
23.5942
23.4243
23.2766
23.1506
23.046
22.9623
22.8988
22.8551
22.8307
22.825
22.8375
22.8675
22.9146
22.978
23.0573
23.1518
23.2608
23.3838
23.5199
23.6686
23.8291
24.0007
24.1826
24.374
24.574
24.7819
24.9965
25.2171
25.4425
25.6717
25.9036
26.1369
26.3703
26.6025
26.8321
27.0576
27.2773
27.4897
27.6928
27.885
28.0642
28.2284
28.3756
28.5036
28.6103
28.6933
28.7505
28.7796
28.7784
28.7446
28.6762
28.5712
28.4278
28.2446
28.0201
27.753
27.4421
27.0861
26.6843
26.2363
25.742
25.2018
24.6163
23.9867
23.3146
22.6017
21.8503
21.0631
20.2428
19.3928
18.5166
17.6178
16.7005
15.769
14.8277
13.8817
12.9363
11.9976
11.0726
10.1699
9.30018
8.47798
7.72405
7.07214
6.58777
6.44137
7.35335
15.0224
26.3828
12.6549
10.9262
10.9835
11.5815
12.4198
13.3886
14.4371
15.5381
16.6756
17.8393
19.0222
20.2192
21.4263
22.6403
23.8587
25.0791
26.2995
27.5181
28.7331
29.9428
31.1455
32.3398
33.5238
34.6961
35.855
36.9987
38.1254
39.2335
40.321
41.3861
42.4267
43.441
44.4269
45.3824
46.3054
47.1939
48.0457
48.859
49.6317
50.3618
51.0476
51.6873
52.2791
52.8215
53.3131
53.7526
54.139
54.4711
54.7484
54.9703
55.1363
55.2464
55.3006
55.2993
55.243
55.1325
54.9688
54.7531
54.487
54.1721
53.8105
53.4043
52.9555
52.4659
51.9373
51.372
50.772
50.14
49.4785
48.79
48.0774
47.3434
46.5907
45.822
45.0401
44.2477
43.4473
42.6416
41.8331
41.024
40.2169
39.4138
38.6168
37.828
37.0492
36.2822
35.5286
34.79
34.0677
33.3629
32.6769
32.0107
31.3653
30.7413
30.1396
29.5608
29.0053
28.4736
27.9661
27.483
27.0244
26.5905
26.1814
25.7969
25.4371
25.1019
24.7909
24.5041
24.2412
24.0022
23.7865
23.5939
23.424
23.2763
23.1504
23.0458
22.9621
22.8986
22.855
22.8306
22.8249
22.8374
22.8674
22.9145
22.978
23.0573
23.1518
23.2608
23.3838
23.5199
23.6687
23.8292
24.0008
24.1827
24.3741
24.5741
24.782
24.9967
25.2173
25.4427
25.6719
25.9038
26.1371
26.3705
26.6028
26.8324
27.0579
27.2776
27.49
27.6931
27.8853
28.0645
28.2287
28.3759
28.504
28.6106
28.6937
28.7509
28.78
28.7787
28.745
28.6765
28.5716
28.4282
28.2449
28.0204
27.7534
27.4424
27.0864
26.6846
26.2366
25.7423
25.202
24.6166
23.987
23.3148
22.6019
21.8505
21.0632
20.243
19.393
18.5167
17.6179
16.7006
15.7691
14.8278
13.8818
12.9364
11.9976
11.0726
10.1699
9.3002
8.47798
7.72405
7.07213
6.58775
6.44136
7.35332
15.0224
33.1161
15.4032
12.7684
12.4054
12.7365
13.3786
14.1911
15.1088
16.0968
17.1343
18.2079
19.3084
20.4293
21.5655
22.713
23.8686
25.0295
26.1931
27.3574
28.5202
29.6797
30.8338
31.9809
33.1189
34.2462
35.3609
36.461
37.5446
38.6099
39.6548
40.6774
41.6755
42.6472
43.5903
44.503
45.383
46.2284
47.0373
47.8077
48.5377
49.2256
49.8697
50.4684
51.0202
51.5237
51.9778
52.3814
52.7335
53.0334
53.2806
53.4746
53.6153
53.7027
53.7369
53.7184
53.6477
53.5257
53.3534
53.132
52.863
52.548
52.1887
51.787
51.3451
50.8645
50.3472
49.7952
49.2107
48.596
47.9535
47.2857
46.595
45.8842
45.1557
44.4121
43.656
42.8899
42.1164
41.3377
40.5563
39.7744
38.9943
38.218
37.4475
36.6848
35.9315
35.1895
34.4602
33.7452
33.0456
32.3629
31.6981
31.0522
30.4261
29.8206
29.2364
28.6742
28.1344
27.6174
27.1237
26.6534
26.2068
25.7839
25.3849
25.0098
24.6585
24.3309
24.0269
23.7463
23.4892
23.2551
23.0438
22.855
22.6883
22.5432
22.4194
22.3165
22.2339
22.1713
22.1281
22.1039
22.0981
22.1102
22.1397
22.186
22.2486
22.3269
22.4204
22.5283
22.6502
22.7853
22.933
23.0926
23.2634
23.4446
23.6355
23.8352
24.043
24.2578
24.4788
24.7049
24.9352
25.1684
25.4034
25.639
25.8738
26.1064
26.3354
26.5592
26.7761
26.9845
27.1825
27.3682
27.5397
27.695
27.832
27.9486
28.0426
28.1118
28.1541
28.1674
28.1495
28.0985
28.0124
27.8895
27.7284
27.5276
27.2858
27.0019
26.675
26.3043
25.8894
25.4305
24.9277
24.3817
23.7936
23.1646
22.4965
21.7911
21.0509
20.2783
19.4763
18.6479
17.7965
16.9258
16.0398
15.1429
14.2402
13.3372
12.4407
11.5585
10.7006
9.88
9.11404
8.4285
7.86602
7.51141
7.58781
9.02218
19.2312
33.1173
15.4023
12.7673
12.4042
12.7352
13.3773
14.1898
15.1075
16.0955
17.1329
18.2065
19.307
20.4279
21.564
22.7115
23.8671
25.0279
26.1915
27.3558
28.5186
29.678
30.8321
31.9791
33.1171
34.2444
35.359
36.4591
37.5427
38.6079
39.6528
40.6753
41.6734
42.645
43.5882
44.5008
45.3808
46.2262
47.035
47.8054
48.5354
49.2233
49.8674
50.466
51.0178
51.5214
51.9754
52.379
52.7311
53.0311
53.2782
53.4723
53.613
53.7004
53.7346
53.7161
53.6454
53.5235
53.3512
53.1299
52.8609
52.5458
52.1866
51.785
51.3431
50.8626
50.3453
49.7934
49.2089
48.5942
47.9518
47.284
46.5934
45.8826
45.1541
44.4106
43.6546
42.8885
42.115
41.3364
40.555
39.7732
38.9931
38.2169
37.4464
36.6837
35.9305
35.1885
34.4593
33.7443
33.0448
32.3621
31.6973
31.0514
30.4253
29.8199
29.2358
28.6736
28.1338
27.6168
27.1231
26.6529
26.2063
25.7835
25.3845
25.0094
24.6581
24.3305
24.0265
23.746
23.4889
23.2548
23.0436
22.8547
22.688
22.543
22.4192
22.3163
22.2338
22.1712
22.128
22.1038
22.098
22.1101
22.1396
22.1859
22.2486
22.3269
22.4204
22.5283
22.6502
22.7853
22.933
23.0926
23.2634
23.4447
23.6356
23.8353
24.0431
24.2579
24.4789
24.7051
24.9353
25.1686
25.4036
25.6392
25.874
26.1067
26.3357
26.5594
26.7764
26.9847
27.1827
27.3685
27.54
27.6953
27.8323
27.9489
28.0429
28.1121
28.1544
28.1677
28.1498
28.0988
28.0127
27.8898
27.7287
27.5279
27.2861
27.0022
26.6752
26.3045
25.8897
25.4307
24.9279
24.3819
23.7938
23.1648
22.4966
21.7913
21.0511
20.2785
19.4764
18.648
17.7966
16.9258
16.0398
15.143
14.2402
13.3373
12.4407
11.5585
10.7007
9.88
9.11403
8.42848
7.86599
7.51138
7.58777
9.02214
19.2312
39.9445
18.2525
14.7473
14.002
14.1049
14.5891
15.2832
16.1076
17.0198
17.9942
19.0144
20.0694
21.1508
22.2527
23.3701
24.4991
25.6364
26.7791
27.9246
29.0703
30.2142
31.354
32.4875
33.6127
34.7275
35.8298
36.9175
37.9884
39.0404
40.0713
41.079
42.0613
43.016
43.9411
44.8343
45.6936
46.5171
47.3028
48.0488
48.7534
49.4149
50.0318
50.6027
51.1262
51.6012
52.0268
52.402
52.7261
52.9986
53.2192
53.3877
53.5039
53.5682
53.5807
53.5422
53.4532
53.3146
53.1275
52.8932
52.6131
52.2887
51.9218
51.5142
51.0677
50.5842
50.0655
49.5135
48.9304
48.3184
47.6798
47.0169
46.3321
45.6279
44.9068
44.1712
43.4235
42.6662
41.9016
41.132
40.3597
39.587
38.8158
38.0483
37.2863
36.5317
35.7862
35.0515
34.3291
33.6204
32.9267
32.2493
31.5892
30.9474
30.3249
29.7224
29.1406
28.5802
28.0417
27.5254
27.0318
26.5612
26.1137
25.6895
25.2886
24.9112
24.5572
24.2265
23.9191
23.635
23.374
23.1357
22.92
22.7265
22.5549
22.4048
22.2758
22.1675
22.0795
22.0114
21.9626
21.9328
21.9214
21.928
21.952
21.9929
22.0502
22.1233
22.2116
22.3146
22.4317
22.5622
22.7055
22.8609
23.0276
23.2051
23.3925
23.589
23.7937
24.0058
24.2243
24.4483
24.6767
24.9083
25.1421
25.3767
25.6109
25.8432
26.0723
26.2965
26.5143
26.724
26.9237
27.1117
27.2859
27.4446
27.5856
27.7069
27.8064
27.882
27.9317
27.9533
27.945
27.9047
27.8308
27.7216
27.5755
27.3913
27.1678
26.904
26.599
26.2522
25.8634
25.4325
24.9598
24.446
23.8919
23.2986
22.6676
22.0005
21.2994
20.5665
19.8041
19.015
18.2022
17.369
16.5191
15.6568
14.7871
13.9157
13.0499
12.1983
11.3723
10.5866
9.86161
9.22808
8.73769
8.49508
8.77768
10.7261
23.4908
39.9458
18.2515
14.7461
14.0008
14.1036
14.5879
15.2819
16.1063
17.0184
17.9928
19.0131
20.0679
21.1494
22.2512
23.3686
24.4976
25.6349
26.7775
27.9229
29.0687
30.2125
31.3522
32.4857
33.6109
34.7257
35.8279
36.9156
37.9864
39.0384
40.0693
41.077
42.0592
43.0139
43.9389
44.8321
45.6915
46.5149
47.3006
48.0466
48.7512
49.4127
50.0296
50.6005
51.124
51.599
52.0246
52.3998
52.7239
52.9964
53.217
53.3855
53.5018
53.566
53.5786
53.5401
53.4511
53.3125
53.1255
52.8912
52.6111
52.2868
51.9199
51.5123
51.0659
50.5825
50.0638
49.5118
48.9288
48.3168
47.6782
47.0153
46.3306
45.6265
44.9054
44.1698
43.4222
42.6649
41.9003
41.1308
40.3586
39.5858
38.8147
38.0472
37.2853
36.5307
35.7853
35.0506
34.3282
33.6196
32.9259
32.2485
31.5885
30.9467
30.3242
29.7217
29.14
28.5796
28.0411
27.5249
27.0313
26.5607
26.1132
25.689
25.2882
24.9108
24.5568
24.2261
23.9188
23.6347
23.3736
23.1354
22.9197
22.7262
22.5546
22.4045
22.2756
22.1673
22.0793
22.0112
21.9625
21.9327
21.9213
21.9279
21.9519
21.9928
22.0501
22.1232
22.2116
22.3146
22.4317
22.5622
22.7055
22.8609
23.0277
23.2051
23.3925
23.589
23.7938
24.0059
24.2244
24.4484
24.6768
24.9084
25.1422
25.3768
25.611
25.8434
26.0725
26.2967
26.5145
26.7242
26.9239
27.1119
27.2862
27.4448
27.5859
27.7071
27.8066
27.8823
27.9319
27.9536
27.9452
27.905
27.8311
27.7218
27.5758
27.3916
27.1681
26.9042
26.5992
26.2524
25.8636
25.4327
24.96
24.4462
23.892
23.2987
22.6677
22.0007
21.2996
20.5666
19.8042
19.0151
18.2023
17.3691
16.5192
15.6569
14.7871
13.9157
13.0499
12.1983
11.3723
10.5865
9.86158
9.22803
8.73764
8.49503
8.77763
10.7261
23.4909
46.9695
21.2374
16.8704
15.7624
15.6603
16.0112
16.6118
17.3681
18.2296
19.1662
20.1585
21.1932
22.2607
23.3537
24.4665
25.5945
26.7336
27.8806
29.0324
30.1861
31.3391
32.4888
33.6329
34.7689
35.8944
37.0071
38.1045
39.1842
40.2439
41.2811
42.2935
43.2788
44.2346
45.1587
46.0488
46.9029
47.7189
48.495
49.2292
49.92
50.5657
51.165
51.7166
52.2194
52.6724
53.0749
53.4262
53.7258
53.9735
54.169
54.3124
54.4039
54.4438
54.4326
54.3711
54.26
54.1003
53.8932
53.64
53.3421
53.0011
52.6188
52.1969
51.7373
51.2417
50.7119
50.1499
49.5577
48.9376
48.2916
47.6221
46.9314
46.2219
45.4959
44.7557
44.0039
43.2425
42.4741
41.7007
40.9246
40.1479
39.3727
38.601
37.8345
37.0752
36.3247
35.5846
34.8565
34.1417
33.4416
32.7573
32.09
31.4406
30.81
30.1991
29.6086
29.0391
28.4911
27.9651
27.4615
26.9805
26.5224
26.0874
25.6755
25.2869
24.9214
24.5793
24.2604
23.9648
23.6922
23.4423
23.2149
23.0098
22.8266
22.6649
22.5245
22.4048
22.3055
22.2263
22.1665
22.1259
22.1039
22.1
22.1138
22.1447
22.1922
22.2557
22.3348
22.4287
22.537
22.659
22.7941
22.9415
23.1007
23.2708
23.451
23.6407
23.8389
24.0448
24.2573
24.4756
24.6986
24.9251
25.154
25.384
25.6139
25.8422
26.0676
26.2884
26.5031
26.71
26.9073
27.0933
27.2661
27.4238
27.5644
27.686
27.7864
27.8639
27.9163
27.9417
27.9383
27.9042
27.8379
27.7378
27.6024
27.4306
27.2214
26.9737
26.6869
26.3605
25.9943
25.5882
25.1426
24.658
24.135
23.5747
22.9782
22.3469
21.6824
20.9864
20.2611
19.5086
18.7315
17.9327
17.1156
16.2842
15.4435
14.5993
13.7592
12.9326
12.132
11.3739
10.6816
10.0907
9.66205
9.52022
9.99719
12.4539
27.7451
46.9709
21.2363
16.8691
15.7611
15.659
16.0099
16.6104
17.3667
18.2282
19.1648
20.157
21.1917
22.2592
23.3521
24.4649
25.5929
26.732
27.879
29.0307
30.1844
31.3373
32.487
33.6311
34.7671
35.8925
37.0052
38.1025
39.1822
40.2419
41.2791
42.2915
43.2767
44.2325
45.1566
46.0467
46.9008
47.7168
48.4928
49.227
49.9178
50.5635
51.1628
51.7144
52.2172
52.6703
53.0727
53.424
53.7237
53.9713
54.1669
54.3103
54.4018
54.4417
54.4306
54.369
54.258
54.0983
53.8912
53.6381
53.3402
52.9993
52.617
52.1952
51.7356
51.24
50.7102
50.1483
49.5562
48.936
48.2901
47.6206
46.93
46.2205
45.4945
44.7544
44.0026
43.2413
42.4729
41.6995
40.9235
40.1469
39.3717
38.6
37.8336
37.0743
36.3238
35.5838
34.8557
34.1409
33.4408
32.7566
32.0892
31.4399
30.8094
30.1985
29.608
29.0385
28.4905
27.9646
27.4609
26.98
26.5219
26.0869
25.6751
25.2864
24.921
24.5789
24.2601
23.9644
23.6918
23.442
23.2146
23.0095
22.8263
22.6647
22.5242
22.4046
22.3053
22.2261
22.1664
22.1257
22.1037
22.0999
22.1136
22.1445
22.192
22.2556
22.3347
22.4287
22.537
22.659
22.7941
22.9415
23.1007
23.2708
23.451
23.6407
23.8389
24.0448
24.2574
24.4757
24.6986
24.9252
25.1541
25.3841
25.614
25.8423
26.0677
26.2885
26.5032
26.7101
26.9075
27.0935
27.2663
27.424
27.5646
27.6862
27.7866
27.8641
27.9165
27.9419
27.9385
27.9045
27.8381
27.738
27.6026
27.4308
27.2215
26.9739
26.687
26.3606
25.9944
25.5884
25.1428
24.6581
24.1351
23.5748
22.9783
22.347
21.6824
20.9865
20.2611
19.5086
18.7315
17.9327
17.1156
16.2842
15.4435
14.5993
13.7592
12.9326
12.1319
11.3738
10.6815
10.0906
9.66198
9.52015
9.99712
12.4539
27.7452
54.2874
24.3938
19.1539
17.6906
17.3973
17.6313
18.1562
18.8629
19.6927
20.6108
21.5947
22.6289
23.7023
24.8065
25.9349
27.0819
28.2432
29.4147
30.5928
31.7743
32.9562
34.1355
35.3094
36.4751
37.6299
38.7711
39.8959
41.0017
42.0857
43.1454
44.178
45.1811
46.1521
47.0887
47.9884
48.8492
49.6689
50.4456
51.1776
51.8632
52.501
53.0896
53.6281
54.1155
54.551
54.9341
55.2643
55.5414
55.7653
55.9362
56.0543
56.12
56.1338
56.0964
56.0088
55.8719
55.6867
55.4547
55.1772
54.8557
54.4918
54.0873
53.644
53.1636
52.648
52.099
51.5185
50.9084
50.271
49.6084
48.9228
48.2165
47.4917
46.7507
45.9959
45.2295
44.4538
43.671
42.8833
42.0929
41.3018
40.512
39.7254
38.944
38.1695
37.4036
36.6478
35.9037
35.1727
34.456
33.7549
33.0705
32.4037
31.7556
31.1269
30.5184
29.9306
29.3642
28.8197
28.2974
27.7976
27.3207
26.8667
26.4359
26.0282
25.6438
25.2829
24.9454
24.6312
24.3402
24.072
23.8265
23.6034
23.4024
23.2232
23.0654
22.9287
22.8127
22.7169
22.6409
22.5844
22.5467
22.5275
22.5263
22.5426
22.5757
22.6253
22.6907
22.7714
22.8667
22.9761
23.0988
23.2343
23.3818
23.5405
23.7098
23.8888
24.0766
24.2723
24.475
24.6837
24.8974
25.1149
25.335
25.5565
25.7781
25.9985
26.2161
26.4295
26.637
26.8371
27.028
27.208
27.3753
27.5279
27.664
27.7818
27.8792
27.9545
28.0058
28.0312
28.029
27.9977
27.9355
27.8413
27.7136
27.5514
27.3538
27.1201
26.8495
26.5417
26.1966
25.8142
25.3947
24.9384
24.446
23.9182
23.3559
22.7602
22.1323
21.4734
20.7852
20.0693
19.3279
18.5635
17.7789
16.9781
16.1656
15.3475
14.5316
13.7279
12.9499
12.2159
11.5518
10.9982
10.6249
10.5763
11.2382
14.1876
31.968
54.2888
24.3925
19.1525
17.6892
17.3959
17.6299
18.1548
18.8615
19.6913
20.6094
21.5932
22.6274
23.7008
24.8049
25.9332
27.0803
28.2415
29.4129
30.591
31.7725
32.9544
34.1336
35.3075
36.4732
37.628
38.7691
39.8939
40.9997
42.0837
43.1433
44.1759
45.179
46.15
47.0865
47.9863
48.847
49.6667
50.4434
51.1754
51.861
52.4988
53.0875
53.626
54.1133
54.5489
54.9319
55.2621
55.5393
55.7632
55.9341
56.0522
56.1179
56.1317
56.0944
56.0068
55.8699
55.6848
55.4528
55.1753
54.8538
54.49
54.0855
53.6422
53.1619
52.6464
52.0974
51.5169
50.9069
50.2695
49.607
48.9214
48.2151
47.4904
46.7494
45.9947
45.2283
44.4526
43.6699
42.8822
42.0918
41.3007
40.5109
39.7244
38.9431
38.1686
37.4027
36.6469
35.9029
35.1719
34.4552
33.7541
33.0697
32.403
31.7549
31.1263
30.5177
29.93
29.3636
28.8191
28.2968
27.7971
27.3201
26.8662
26.4354
26.0278
25.6434
25.2825
24.945
24.6309
24.3398
24.0716
23.8262
23.6031
23.4021
23.2229
23.0652
22.9285
22.8124
22.7166
22.6407
22.5841
22.5465
22.5273
22.5261
22.5424
22.5756
22.6252
22.6906
22.7713
22.8666
22.976
23.0987
23.2342
23.3817
23.5405
23.7098
23.8887
24.0765
24.2723
24.475
24.6838
24.8974
25.1149
25.335
25.5566
25.7782
25.9986
26.2162
26.4296
26.6371
26.8372
27.0282
27.2082
27.3754
27.528
27.6642
27.7819
27.8794
27.9547
28.0059
28.0314
28.0292
27.9978
27.9357
27.8414
27.7137
27.5516
27.354
27.1202
26.8496
26.5418
26.1967
25.8143
25.3947
24.9385
24.4461
23.9183
23.356
22.7603
22.1323
21.4734
20.7852
20.0693
19.3279
18.5635
17.7789
16.9781
16.1656
15.3475
14.5316
13.7279
12.9499
12.2158
11.5518
10.9981
10.6248
10.5762
11.2381
14.1875
31.9681
61.9899
27.7584
21.6186
19.7985
19.3213
19.4497
19.9124
20.5841
21.3977
22.3132
23.305
24.3555
25.4519
26.5845
27.7457
28.9294
30.1303
31.3438
32.5658
33.7926
35.0207
36.2466
37.4672
38.6792
39.8796
41.0652
42.2329
43.3796
44.5025
45.5985
46.6647
47.6983
48.6966
49.657
50.5771
51.4546
52.2872
53.0732
53.8107
54.4982
55.1343
55.7179
56.248
56.724
57.1452
57.5114
57.8223
58.078
58.2786
58.4246
58.5164
58.5547
58.5402
58.474
58.3569
58.1904
57.9755
57.7137
57.4066
57.0558
56.6629
56.2299
55.7584
55.2504
54.7075
54.1317
53.5248
52.8889
52.226
51.5383
50.828
50.0972
49.3483
48.5834
47.8047
47.0146
46.2153
45.4088
44.5975
43.7833
42.9683
42.1545
41.3439
40.5381
39.7391
38.9485
38.1678
37.3986
36.6422
35.9
35.1731
34.4628
33.77
33.0957
32.4406
31.8057
31.1914
30.5985
30.0273
29.4784
28.9521
28.4487
27.9683
27.5111
27.0773
26.6669
26.2803
25.9174
25.5779
25.2618
24.969
24.6991
24.4519
24.2272
24.0246
23.8437
23.6844
23.546
23.4284
23.3309