/*--------------------------------*- C++ -*----------------------------------*\
  =========                 |
  \\      /  F ield         | OpenFOAM: The Open Source CFD Toolbox
   \\    /   O peration     | Website:  https://openfoam.org
    \\  /    A nd           | Version:  8
     \\/     M anipulation  |
\*---------------------------------------------------------------------------*/
FoamFile
{
    version     2.0;
    format      ascii;
    class       volScalarField;
    location    "1900";
    object      k;
}
// * * * * * * * * * * * * * * * * * * * * * * * * * * * * * * * * * * * * * //

dimensions      [0 2 -2 0 0 0 0];

internalField   nonuniform List<scalar> 
46000
(
0.000928248
0.00457283
0.00973748
0.0149526
0.020031
0.0249854
0.02984
0.0346115
0.0393099
0.043941
0.048508
0.0530124
0.0574547
0.061835
0.0661529
0.0704076
0.0745987
0.0787252
0.0827865
0.0867817
0.0907101
0.0945706
0.0983623
0.102084
0.105735
0.109313
0.112816
0.116243
0.119592
0.12286
0.126045
0.129143
0.132151
0.135066
0.137884
0.140601
0.143213
0.145716
0.148106
0.150378
0.152528
0.154552
0.156445
0.158205
0.159827
0.161307
0.162643
0.163832
0.164871
0.165759
0.166494
0.167075
0.167502
0.167775
0.167895
0.167862
0.167678
0.167346
0.166868
0.166247
0.165488
0.164596
0.163588
0.162476
0.161247
0.159904
0.158452
0.156898
0.155249
0.153512
0.151693
0.149801
0.147842
0.145823
0.143753
0.141637
0.139484
0.1373
0.135093
0.132869
0.130635
0.128397
0.126161
0.123934
0.12172
0.119527
0.117357
0.115217
0.113111
0.111043
0.109017
0.107036
0.105103
0.103223
0.101396
0.0996268
0.0979158
0.0962653
0.0946769
0.0931518
0.0916909
0.0902952
0.0889652
0.0877011
0.0865033
0.0853716
0.0843059
0.0833057
0.0823707
0.0815001
0.0806931
0.0799488
0.0792662
0.078644
0.0780808
0.0775759
0.0771275
0.0767333
0.0763916
0.0761019
0.075862
0.07567
0.0755241
0.0754225
0.0753632
0.0753444
0.0753641
0.0754202
0.0755107
0.0756336
0.0757867
0.0759678
0.0761747
0.076405
0.0766565
0.0769267
0.0772131
0.0775129
0.0778236
0.0781423
0.0784661
0.0787917
0.0791162
0.0794359
0.0797476
0.0800473
0.0803313
0.0805956
0.0808359
0.0810479
0.081227
0.0813684
0.0814674
0.081519
0.081518
0.0814592
0.0813374
0.0811473
0.0808837
0.0805413
0.080115
0.0795999
0.0789911
0.0782843
0.0774752
0.0765611
0.0755569
0.0744554
0.0732442
0.0719201
0.0704822
0.0689306
0.0672665
0.0654917
0.063609
0.0616222
0.0595357
0.057355
0.0550863
0.0527369
0.0503144
0.0478274
0.0452848
0.0426962
0.0400712
0.0374198
0.0347516
0.0320758
0.0294008
0.0267292
0.0240582
0.0214197
0.0187889
0.0161607
0.0135196
0.0108783
0.0082073
0.00541199
0.00258132
0.000524484
0.00092835
0.00457326
0.00973819
0.0149534
0.0200319
0.0249864
0.029841
0.0346125
0.039311
0.0439421
0.0485091
0.0530135
0.0574558
0.0618361
0.066154
0.0704088
0.0745998
0.0787264
0.0827876
0.0867829
0.0907112
0.0945717
0.0983635
0.102085
0.105736
0.109314
0.112817
0.116245
0.119594
0.122862
0.126046
0.129144
0.132152
0.135067
0.137885
0.140602
0.143214
0.145717
0.148107
0.150379
0.152529
0.154553
0.156447
0.158206
0.159828
0.161309
0.162645
0.163833
0.164873
0.165761
0.166496
0.167077
0.167504
0.167777
0.167896
0.167863
0.167679
0.167347
0.166869
0.166248
0.165489
0.164597
0.163589
0.162478
0.161249
0.159905
0.158453
0.156899
0.15525
0.153513
0.151695
0.149802
0.147843
0.145824
0.143754
0.141638
0.139485
0.137301
0.135094
0.13287
0.130635
0.128397
0.126161
0.123934
0.121721
0.119527
0.117358
0.115218
0.113111
0.111043
0.109017
0.107036
0.105104
0.103223
0.101397
0.0996268
0.0979158
0.0962654
0.0946769
0.0931517
0.0916909
0.0902951
0.088965
0.087701
0.0865031
0.0853714
0.0843056
0.0833055
0.0823705
0.0814998
0.0806928
0.0799485
0.0792658
0.0786437
0.0780804
0.0775755
0.0771271
0.0767329
0.0763911
0.0761014
0.0758615
0.0756695
0.0755236
0.075422
0.0753628
0.0753439
0.0753636
0.0754197
0.0755102
0.0756331
0.0757862
0.0759673
0.0761741
0.0764045
0.076656
0.0769262
0.0772125
0.0775124
0.0778231
0.0781417
0.0784655
0.0787912
0.0791156
0.0794353
0.079747
0.0800467
0.0803307
0.080595
0.0808353
0.0810473
0.0812264
0.0813678
0.0814668
0.0815184
0.0815174
0.0814586
0.0813368
0.0811468
0.0808832
0.0805407
0.0801145
0.0795993
0.0789906
0.0782838
0.0774747
0.0765607
0.0755565
0.0744549
0.0732438
0.0719197
0.0704818
0.0689302
0.0672661
0.0654913
0.0636087
0.0616219
0.0595354
0.0573547
0.0550861
0.0527367
0.0503142
0.0478272
0.0452847
0.0426961
0.0400711
0.0374197
0.0347515
0.0320758
0.0294007
0.0267292
0.0240582
0.0214197
0.0187889
0.0161607
0.0135196
0.0108783
0.00820732
0.00541201
0.00258133
0.000524486
0.00457968
0.0262903
0.0444283
0.0594987
0.0728923
0.0851827
0.0966734
0.107545
0.117915
0.12786
0.137436
0.146685
0.155636
0.164315
0.172739
0.180925
0.188886
0.196631
0.204171
0.211513
0.218664
0.22563
0.232414
0.239021
0.245454
0.251716
0.257807
0.263729
0.269481
0.275064
0.280476
0.285715
0.290778
0.295663
0.300367
0.304885
0.309213
0.313346
0.31728
0.32101
0.324531
0.327838
0.330925
0.333789
0.336424
0.338826
0.340991
0.342917
0.3446
0.346037
0.347228
0.34817
0.348864
0.34931
0.349509
0.349463
0.349174
0.348646
0.347883
0.346889
0.34567
0.344233
0.342585
0.340739
0.338698
0.33647
0.334062
0.331484
0.328747
0.32586
0.322833
0.319679
0.316407
0.313028
0.309554
0.305997
0.302366
0.298674
0.294931
0.291148
0.287337
0.283506
0.279668
0.27583
0.272004
0.268198
0.264422
0.260683
0.256991
0.253352
0.249774
0.246264
0.242829
0.239473
0.236204
0.233025
0.229942
0.226959
0.224079
0.221306
0.218642
0.216091
0.213654
0.211332
0.209128
0.207042
0.205075
0.203227
0.201498
0.199887
0.198394
0.197018
0.195757
0.19461
0.193574
0.19265
0.191833
0.191121
0.190512
0.190002
0.189587
0.189266
0.189034
0.188889
0.188826
0.188842
0.188932
0.189094
0.189323
0.189616
0.189967
0.190373
0.190829
0.19133
0.191873
0.192452
0.193063
0.1937
0.194358
0.195032
0.195716
0.196404
0.197091
0.197769
0.198433
0.199075
0.199688
0.200265
0.200798
0.201279
0.2017
0.202052
0.202326
0.202512
0.202602
0.202586
0.202454
0.202195
0.2018
0.201259
0.200561
0.199698
0.198658
0.197433
0.196013
0.194391
0.192561
0.190517
0.18825
0.185754
0.183023
0.180054
0.176846
0.173397
0.169707
0.16578
0.161617
0.157224
0.152606
0.147771
0.142727
0.137483
0.13205
0.126437
0.120655
0.114716
0.108629
0.102402
0.0960417
0.0895482
0.0829163
0.076129
0.0691343
0.061904
0.0543487
0.046269
0.037491
0.0276012
0.0157442
0.00248229
0.00458015
0.0262918
0.0444296
0.0594997
0.0728931
0.0851833
0.0966739
0.107546
0.117915
0.12786
0.137436
0.146685
0.155636
0.164314
0.172739
0.180925
0.188885
0.196631
0.20417
0.211513
0.218663
0.225628
0.232413
0.23902
0.245453
0.251714
0.257805
0.263727
0.26948
0.275062
0.280474
0.285713
0.290776
0.295661
0.300365
0.304883
0.309211
0.313344
0.317278
0.321008
0.324529
0.327836
0.330923
0.333786
0.336421
0.338823
0.340989
0.342915
0.344597
0.346035
0.347225
0.348167
0.348862
0.349307
0.349506
0.34946
0.349171
0.348643
0.34788
0.346886
0.345667
0.34423
0.342582
0.340736
0.338696
0.336467
0.334059
0.331482
0.328744
0.325857
0.322831
0.319676
0.316404
0.313025
0.309552
0.305994
0.302363
0.298671
0.294928
0.291146
0.287334
0.283504
0.279665
0.275828
0.272001
0.268196
0.264419
0.260681
0.256988
0.253349
0.249772
0.246262
0.242826
0.239471
0.236201
0.233023
0.22994
0.226956
0.224076
0.221303
0.21864
0.216088
0.213651
0.21133
0.209126
0.20704
0.205073
0.203225
0.201496
0.199885
0.198392
0.197016
0.195755
0.194608
0.193573
0.192648
0.191831
0.19112
0.19051
0.19
0.189586
0.189265
0.189033
0.188887
0.188824
0.18884
0.188931
0.189093
0.189322
0.189614
0.189965
0.190371
0.190827
0.191329
0.191872
0.192451
0.193062
0.193699
0.194357
0.195031
0.195715
0.196403
0.19709
0.197768
0.198432
0.199074
0.199687
0.200264
0.200797
0.201278
0.201699
0.202051
0.202325
0.202511
0.202601
0.202585
0.202453
0.202194
0.201799
0.201258
0.200561
0.199697
0.198657
0.197432
0.196013
0.194391
0.19256
0.190516
0.188249
0.185753
0.183022
0.180054
0.176845
0.173396
0.169707
0.165779
0.161617
0.157224
0.152606
0.147771
0.142727
0.137483
0.132049
0.126436
0.120655
0.114716
0.108629
0.102402
0.0960417
0.0895482
0.0829163
0.0761289
0.0691343
0.061904
0.0543487
0.046269
0.037491
0.0276012
0.0157442
0.00248229
0.00982359
0.0447802
0.0687227
0.0877247
0.104487
0.119872
0.134268
0.147898
0.160902
0.173374
0.185383
0.196979
0.208201
0.219079
0.229636
0.239892
0.249864
0.259564
0.269004
0.278194
0.287142
0.295854
0.304337
0.312593
0.320628
0.328443
0.33604
0.34342
0.350582
0.357526
0.36425
0.370752
0.377028
0.383075
0.388889
0.394466
0.399799
0.404884
0.409716
0.414289
0.418597
0.422635
0.426397
0.429879
0.433074
0.435979
0.438589
0.440901
0.442912
0.44462
0.446023
0.44712
0.447912
0.448398
0.448582
0.448465
0.448051
0.447343
0.446348
0.445072
0.44352
0.441703
0.439627
0.437305
0.434744
0.431954
0.428943
0.425725
0.42231
0.418711
0.414941
0.411012
0.406938
0.402732
0.398408
0.393979
0.389459
0.384862
0.380201
0.375489
0.370739
0.365965
0.361179
0.356393
0.351619
0.346868
0.342153
0.337483
0.332868
0.328318
0.323844
0.319452
0.315152
0.31095
0.306855
0.302872
0.299008
0.295268
0.291657
0.28818
0.284839
0.281639
0.278582
0.275671
0.272908
0.270293
0.267828
0.265513
0.263349
0.261335
0.25947
0.257754
0.256183
0.254759
0.253477
0.252336
0.251333
0.250463
0.249724
0.249112
0.248623
0.248252
0.247997
0.247851
0.247812
0.247873
0.248031
0.248281
0.248616
0.249033
0.249525
0.250087
0.250715
0.251401
0.25214
0.252926
0.253753
0.254614
0.255502
0.256412
0.257334
0.258263
0.259191
0.260109
0.261009
0.261883
0.262721
0.263515
0.264253
0.264927
0.265526
0.266039
0.266454
0.266761
0.266946
0.266999
0.266907
0.266657
0.266236
0.265633
0.264834
0.263827
0.2626
0.261141
0.259438
0.257482
0.255264
0.252774
0.250003
0.246943
0.243587
0.23993
0.235969
0.231701
0.227126
0.222245
0.217062
0.211578
0.205802
0.199738
0.193397
0.186785
0.179915
0.172795
0.165438
0.157852
0.150048
0.142033
0.133811
0.125383
0.11674
0.107864
0.0987188
0.0892453
0.0793337
0.0688078
0.0573545
0.0443635
0.0279427
0.00533274
0.00982432
0.0447815
0.0687233
0.0877248
0.104487
0.119871
0.134268
0.147898
0.160901
0.173373
0.185382
0.196978
0.2082
0.219077
0.229634
0.23989
0.249862
0.259562
0.269002
0.278192
0.28714
0.295852
0.304334
0.312591
0.320625
0.32844
0.336037
0.343417
0.350579
0.357523
0.364247
0.370749
0.377025
0.383072
0.388886
0.394462
0.399795
0.40488
0.409712
0.414285
0.418593
0.422631
0.426393
0.429874
0.433069
0.435974
0.438584
0.440896
0.442907
0.444615
0.446018
0.447115
0.447907
0.448394
0.448577
0.44846
0.448046
0.447338
0.446343
0.445067
0.443515
0.441698
0.439623
0.437301
0.43474
0.431949
0.428939
0.42572
0.422305
0.418707
0.414936
0.411007
0.406933
0.402727
0.398403
0.393975
0.389455
0.384857
0.380196
0.375484
0.370735
0.365961
0.361175
0.356389
0.351615
0.346864
0.342149
0.337479
0.332864
0.328315
0.32384
0.319448
0.315148
0.310947
0.306852
0.302869
0.299005
0.295265
0.291654
0.288177
0.284836
0.281636
0.278579
0.275668
0.272905
0.27029
0.267825
0.265511
0.263347
0.261333
0.259468
0.257751
0.256181
0.254756
0.253475
0.252334
0.251331
0.250461
0.249722
0.24911
0.248621
0.24825
0.247995
0.24785
0.24781
0.247872
0.24803
0.248279
0.248615
0.249031
0.249523
0.250086
0.250713
0.251399
0.252139
0.252925
0.253751
0.254612
0.255501
0.25641
0.257333
0.258262
0.25919
0.260108
0.261008
0.261882
0.26272
0.263514
0.264252
0.264926
0.265525
0.266038
0.266453
0.26676
0.266945
0.266998
0.266906
0.266656
0.266236
0.265632
0.264834
0.263827
0.262599
0.26114
0.259438
0.257482
0.255263
0.252774
0.250003
0.246943
0.243587
0.23993
0.235968
0.231701
0.227126
0.222245
0.217061
0.211578
0.205802
0.199738
0.193396
0.186785
0.179915
0.172795
0.165438
0.157852
0.150048
0.142033
0.133811
0.125383
0.11674
0.107864
0.0987188
0.0892453
0.0793337
0.0688078
0.0573545
0.0443635
0.0279426
0.00533273
0.0151511
0.0603456
0.0883815
0.109943
0.128798
0.146095
0.162314
0.177707
0.192425
0.20657
0.220213
0.233407
0.246192
0.258598
0.270652
0.282373
0.293778
0.30488
0.315692
0.326223
0.336481
0.346471
0.356201
0.365672
0.374889
0.383853
0.392565
0.401025
0.409231
0.417182
0.424876
0.432308
0.439475
0.446373
0.452997
0.459341
0.465399
0.471166
0.476637
0.481804
0.486662
0.491205
0.495427
0.499324
0.50289
0.506121
0.509013
0.511562
0.513767
0.515625
0.517135
0.518298
0.519112
0.519581
0.519706
0.51949
0.518939
0.518057
0.51685
0.515326
0.513493
0.51136
0.508937
0.506235
0.503264
0.500034
0.496557
0.492846
0.488913
0.484772
0.480439
0.475926
0.47125
0.466424
0.461464
0.456387
0.451206
0.445937
0.440595
0.435196
0.429754
0.424283
0.418799
0.413314
0.407843
0.402398
0.396993
0.391639
0.386348
0.38113
0.375998
0.37096
0.366026
0.361205
0.356505
0.351933
0.347497
0.343203
0.339056
0.335062
0.331225
0.32755
0.324038
0.320694
0.31752
0.314517
0.311686
0.309028
0.306544
0.304232
0.302093
0.300125
0.298328
0.296699
0.295235
0.293934
0.292791
0.291804
0.290968
0.290279
0.289732
0.289324
0.289049
0.288903
0.288879
0.288973
0.289179
0.289492
0.289905
0.290412
0.291008
0.291686
0.292439
0.293261
0.294145
0.295085
0.296072
0.297099
0.298159
0.299243
0.300344
0.301453
0.30256
0.303658
0.304735
0.305783
0.30679
0.307747
0.308642
0.309462
0.310197
0.310834
0.31136
0.311761
0.312025
0.312137
0.312084
0.311851
0.311424
0.310789
0.309931
0.308837
0.307492
0.305883
0.303999
0.301826
0.299356
0.296576
0.293477
0.29005
0.286287
0.282182
0.277731
0.272931
0.267782
0.262282
0.256435
0.250244
0.243714
0.23685
0.229661
0.222155
0.214341
0.206228
0.197826
0.189144
0.180192
0.170975
0.161499
0.151764
0.141765
0.131485
0.120893
0.109936
0.0985096
0.0864277
0.0733033
0.0582606
0.0386295
0.0083715
0.0151519
0.0603465
0.0883815
0.109942
0.128797
0.146094
0.162313
0.177706
0.192424
0.206569
0.220212
0.233405
0.24619
0.258596
0.27065
0.282371
0.293775
0.304878
0.31569
0.32622
0.336478
0.346468
0.356198
0.365669
0.374886
0.38385
0.392562
0.401021
0.409228
0.417179
0.424872
0.432304
0.439471
0.446369
0.452993
0.459336
0.465395
0.471162
0.476632
0.481799
0.486657
0.4912
0.495422
0.499319
0.502885
0.506116
0.509008
0.511557
0.513762
0.51562
0.51713
0.518293
0.519107
0.519576
0.519701
0.519485
0.518934
0.518052
0.516845
0.515321
0.513488
0.511355
0.508932
0.50623
0.503259
0.500029
0.496552
0.492841
0.488908
0.484768
0.480434
0.475921
0.471245
0.466419
0.46146
0.456382
0.451201
0.445932
0.440591
0.435191
0.429749
0.424279
0.418795
0.41331
0.407839
0.402394
0.396989
0.391635
0.386344
0.381127
0.375994
0.370957
0.366023
0.361202
0.356502
0.35193
0.347494
0.3432
0.339053
0.335059
0.331223
0.327547
0.324036
0.320692
0.317517
0.314514
0.311683
0.309026
0.306541
0.30423
0.30209
0.300123
0.298326
0.296697
0.295233
0.293932
0.292789
0.291802
0.290966
0.290277
0.289731
0.289323
0.289048
0.288901
0.288878
0.288972
0.289178
0.28949
0.289903
0.290411
0.291007
0.291685
0.292438
0.29326
0.294144
0.295083
0.29607
0.297098
0.298158
0.299242
0.300343
0.301452
0.302559
0.303657
0.304734
0.305782
0.30679
0.307746
0.308641
0.309462
0.310197
0.310833
0.311359
0.311761
0.312024
0.312137
0.312084
0.311851
0.311424
0.310789
0.309931
0.308836
0.307491
0.305883
0.303998
0.301826
0.299356
0.296576
0.293477
0.29005
0.286287
0.282182
0.277731
0.272931
0.267782
0.262282
0.256435
0.250244
0.243714
0.23685
0.229661
0.222155
0.214341
0.206228
0.197826
0.189144
0.180192
0.170975
0.1615
0.151765
0.141765
0.131485
0.120893
0.109936
0.0985097
0.0864278
0.0733033
0.0582606
0.0386295
0.00837149
0.0204161
0.0744046
0.106085
0.129865
0.150443
0.16926
0.186907
0.203679
0.219745
0.235214
0.250161
0.264638
0.278687
0.292338
0.305618
0.318544
0.331134
0.343401
0.355356
0.367007
0.378362
0.389427
0.400205
0.4107
0.420912
0.430844
0.440494
0.449861
0.458943
0.467737
0.476239
0.484444
0.492349
0.499946
0.507231
0.514197
0.520839
0.52715
0.533123
0.538753
0.544034
0.548959
0.553524
0.557723
0.561552
0.565007
0.568084
0.570782
0.573097
0.57503
0.576579
0.577746
0.578531
0.578937
0.578968
0.578627
0.57792
0.576853
0.575433
0.573669
0.571569
0.569144
0.566405
0.563362
0.560028
0.556413
0.552531
0.548395
0.544019
0.539418
0.534608
0.529604
0.524422
0.519078
0.513589
0.507971
0.502241
0.496415
0.49051
0.484543
0.478529
0.472484
0.466423
0.460362
0.454316
0.448299
0.442324
0.436405
0.430555
0.424786
0.41911
0.413537
0.408077
0.402742
0.397539
0.392477
0.387563
0.382806
0.37821
0.373783
0.369528
0.365451
0.361555
0.357843
0.354318
0.350982
0.347836
0.344882
0.342119
0.339547
0.337167
0.334978
0.332978
0.331163
0.329531
0.32808
0.326805
0.325702
0.324768
0.323997
0.323385
0.322927
0.322617
0.32245
0.32242
0.322522
0.322749
0.323094
0.323552
0.324115
0.324778
0.325532
0.32637
0.327286
0.328272
0.329319
0.33042
0.331566
0.332749
0.333961
0.335191
0.33643
0.337669
0.338898
0.340104
0.341279
0.34241
0.343485
0.344491
0.345418
0.34625
0.346974
0.347576
0.348043
0.348359
0.348508
0.348477
0.34825
0.34781
0.347143
0.346234
0.345067
0.343628
0.341902
0.339877
0.33754
0.334879
0.331882
0.32854
0.324843
0.320782
0.316352
0.311548
0.306367
0.300806
0.294865
0.288546
0.28185
0.274783
0.267348
0.259551
0.2514
0.242902
0.234063
0.224893
0.215399
0.205587
0.195465
0.185036
0.174301
0.163257
0.151892
0.140178
0.128065
0.115447
0.102121
0.0876428
0.0709078
0.0485087
0.0115002
0.020417
0.0744053
0.106085
0.129864
0.150441
0.169259
0.186906
0.203678
0.219744
0.235213
0.250159
0.264636
0.278685
0.292336
0.305615
0.318542
0.331132
0.343399
0.355353
0.367005
0.37836
0.389424
0.400202
0.410697
0.420909
0.430841
0.440491
0.449858
0.45894
0.467734
0.476235
0.484441
0.492345
0.499942
0.507227
0.514193
0.520835
0.527146
0.533119
0.538749
0.544029
0.548955
0.553519
0.557718
0.561547
0.565002
0.56808
0.570777
0.573093
0.575025
0.576575
0.577741
0.578526
0.578933
0.578963
0.578622
0.577915
0.576848
0.575429
0.573664
0.571565
0.569139
0.5664
0.563358
0.560023
0.556408
0.552526
0.54839
0.544015
0.539414
0.534604
0.529599
0.524417
0.519073
0.513584
0.507967
0.502237
0.496411
0.490507
0.484539
0.478525
0.47248
0.466419
0.460359
0.454313
0.448295
0.442321
0.436402
0.430552
0.424783
0.419107
0.413534
0.408074
0.402739
0.397536
0.392474
0.387561
0.382803
0.378208
0.37378
0.369526
0.365448
0.361552
0.357841
0.354316
0.35098
0.347834
0.34488
0.342117
0.339545
0.337165
0.334976
0.332976
0.331161
0.32953
0.328078
0.326803
0.325701
0.324766
0.323996
0.323384
0.322925
0.322616
0.322449
0.322419
0.322521
0.322747
0.323093
0.323551
0.324114
0.324777
0.325531
0.326369
0.327285
0.328271
0.329318
0.330419
0.331565
0.332749
0.33396
0.33519
0.33643
0.337669
0.338897
0.340104
0.341278
0.342409
0.343484
0.344491
0.345417
0.346249
0.346973
0.347576
0.348043
0.348358
0.348508
0.348477
0.348249
0.34781
0.347143
0.346234
0.345067
0.343628
0.341902
0.339877
0.33754
0.334879
0.331882
0.32854
0.324843
0.320782
0.316352
0.311548
0.306367
0.300806
0.294865
0.288546
0.28185
0.274783
0.267348
0.259551
0.2514
0.242902
0.234064
0.224893
0.215399
0.205587
0.195465
0.185036
0.174301
0.163257
0.151892
0.140179
0.128065
0.115447
0.102121
0.0876429
0.0709078
0.0485087
0.0115002
0.0256802
0.0876313
0.122788
0.148717
0.170927
0.191145
0.210079
0.228077
0.245335
0.261974
0.278073
0.293689
0.308862
0.323625
0.338001
0.35201
0.365667
0.378985
0.391973
0.40464
0.416991
0.42903
0.440761
0.452185
0.463302
0.474112
0.484612
0.494799
0.504671
0.514222
0.523448
0.532342
0.5409
0.549113
0.556976
0.564482
0.571625
0.578397
0.584792
0.590804
0.596428
0.601657
0.606487
0.610914
0.614933
0.618542
0.621738
0.62452
0.626886
0.628837
0.630373
0.631495
0.632208
0.632513
0.632416
0.631921
0.631036
0.629766
0.628121
0.626109
0.623742
0.621028
0.617982
0.614613
0.610935
0.60696
0.602702
0.598175
0.593394
0.588375
0.583134
0.577687
0.572052
0.566245
0.560284
0.554187
0.54797
0.541652
0.53525
0.528781
0.522262
0.51571
0.509142
0.502573
0.49602
0.489497
0.48302
0.476602
0.470257
0.463999
0.457839
0.45179
0.445863
0.440067
0.434414
0.428911
0.423568
0.418391
0.413389
0.408567
0.40393
0.399484
0.395232
0.391179
0.387327
0.383678
0.380234
0.376997
0.373966
0.371144
0.368529
0.366119
0.363913
0.361908
0.360102
0.35849
0.35707
0.355837
0.354786
0.353913
0.353213
0.352679
0.352308
0.352091
0.352025
0.352101
0.352314
0.352656
0.353121
0.353702
0.35439
0.355179
0.35606
0.357026
0.358068
0.359178
0.360347
0.361566
0.362826
0.364117
0.365429
0.366752
0.368075
0.369387
0.370677
0.371932
0.37314
0.374289
0.375365
0.376354
0.377243
0.378016
0.378659
0.379157
0.379493
0.379653
0.379619
0.379376
0.378908
0.378199
0.377232
0.375992
0.374465
0.372635
0.370488
0.368013
0.365197
0.362028
0.358495
0.35459
0.350305
0.345632
0.340566
0.335105
0.329245
0.322985
0.316325
0.309267
0.301813
0.293965
0.285727
0.277103
0.268098
0.258718
0.248966
0.238847
0.228368
0.217532
0.206341
0.194799
0.182901
0.170638
0.157985
0.144887
0.131234
0.116796
0.101062
0.0827471
0.0577984
0.0147421
0.0256812
0.0876318
0.122788
0.148716
0.170926
0.191143
0.210077
0.228075
0.245334
0.261972
0.278071
0.293687
0.30886
0.323622
0.337999
0.352008
0.365665
0.378982
0.391971
0.404637
0.416988
0.429027
0.440758
0.452182
0.463299
0.474109
0.484609
0.494796
0.504668
0.514219
0.523445
0.532339
0.540896
0.549109
0.556973
0.564479
0.571621
0.578393
0.584788
0.590801
0.596424
0.601653
0.606483
0.61091
0.614929
0.618538
0.621734
0.624516
0.626882
0.628832
0.630368
0.631491
0.632204
0.632509
0.632412
0.631917
0.631031
0.629762
0.628117
0.626105
0.623737
0.621024
0.617977
0.614609
0.610931
0.606956
0.602698
0.598171
0.59339
0.588371
0.58313
0.577683
0.572048
0.566241
0.56028
0.554183
0.547967
0.541649
0.535246
0.528777
0.522259
0.515707
0.509139
0.50257
0.496017
0.489494
0.483017
0.476599
0.470254
0.463996
0.457836
0.451787
0.44586
0.440065
0.434411
0.428909
0.423565
0.418389
0.413387
0.408564
0.403928
0.399482
0.39523
0.391177
0.387325
0.383676
0.380233
0.376995
0.373964
0.371142
0.368527
0.366117
0.363912
0.361907
0.360101
0.358489
0.357069
0.355836
0.354785
0.353912
0.353211
0.352678
0.352306
0.35209
0.352024
0.3521
0.352313
0.352655
0.35312
0.353701
0.354389
0.355178
0.356059
0.357025
0.358067
0.359178
0.360347
0.361566
0.362826
0.364117
0.365429
0.366751
0.368074
0.369387
0.370676
0.371931
0.37314
0.374289
0.375364
0.376354
0.377243
0.378016
0.378659
0.379157
0.379493
0.379653
0.379619
0.379376
0.378908
0.378199
0.377232
0.375992
0.374464
0.372634
0.370488
0.368013
0.365197
0.362028
0.358495
0.35459
0.350305
0.345632
0.340566
0.335105
0.329245
0.322985
0.316325
0.309267
0.301813
0.293965
0.285727
0.277103
0.268099
0.258718
0.248966
0.238848
0.228368
0.217532
0.206342
0.194799
0.182901
0.170638
0.157985
0.144887
0.131234
0.116796
0.101062
0.0827471
0.0577984
0.0147421
0.0310253
0.100435
0.139
0.167092
0.190949
0.212559
0.232752
0.251934
0.270333
0.288084
0.305276
0.32197
0.338209
0.354025
0.369442
0.38448
0.399153
0.413472
0.427446
0.441082
0.454384
0.467354
0.479995
0.492306
0.504286
0.515931
0.527239
0.538205
0.548824
0.559089
0.568994
0.578533
0.587696
0.596478
0.604871
0.612868
0.62046
0.627642
0.634407
0.640749
0.646662
0.652142
0.657184
0.661785
0.665942
0.669653
0.672917
0.675734
0.678103
0.680026
0.681505
0.682543
0.683145
0.683314
0.683057
0.68238
0.681291
0.679797
0.677909
0.675636
0.672989
0.669981
0.666624
0.66293
0.658913
0.654585
0.649962
0.645058
0.639889
0.634471
0.628822
0.622958
0.616897
0.610657
0.604257
0.597713
0.591045
0.58427
0.577407
0.570474
0.563489
0.556469
0.549431
0.542393
0.53537
0.52838
0.521436
0.514555
0.50775
0.501036
0.494426
0.487931
0.481564
0.475336
0.469257
0.463337
0.457585
0.452009
0.446616
0.441414
0.436407
0.431602
0.427002
0.422613
0.418436
0.414474
0.41073
0.407205
0.403901
0.400818
0.397955
0.395311
0.392884
0.390671
0.388669
0.386875
0.385285
0.383895
0.382699
0.381694
0.380874
0.380232
0.379764
0.379462
0.379321
0.379334
0.379493
0.379791
0.380221
0.380775
0.381446
0.382225
0.383104
0.384074
0.385126
0.386252
0.387442
0.388686
0.389974
0.391296
0.392642
0.394
0.395359
0.396707
0.398032
0.399321
0.400561
0.401738
0.402839
0.403849
0.404752
0.405534
0.40618
0.406672
0.406996
0.407133
0.407069
0.406787
0.406269
0.4055
0.404463
0.403144
0.401526
0.399595
0.397337
0.39474
0.391793
0.388481
0.384797
0.380731
0.376274
0.371421
0.366166
0.360504
0.354433
0.34795
0.341054
0.333744
0.32602
0.317883
0.309333
0.300371
0.290999
0.281216
0.271026
0.260428
0.249424
0.238017
0.226208
0.213995
0.201377
0.188343
0.174865
0.160886
0.146284
0.130799
0.113853
0.0939932
0.066601
0.0180265
0.0310263
0.100435
0.138999
0.167091
0.190947
0.212557
0.23275
0.251932
0.270331
0.288082
0.305274
0.321968
0.338206
0.354023
0.36944
0.384478
0.399151
0.41347
0.427444
0.44108
0.454381
0.467352
0.479992
0.492303
0.504283
0.515928
0.527236
0.538202
0.548821
0.559086
0.568991
0.578529
0.587693
0.596475
0.604868
0.612864
0.620457
0.627639
0.634404
0.640745
0.646659
0.652138
0.657181
0.661782
0.665939
0.66965
0.672913
0.67573
0.678099
0.680022
0.681501
0.68254
0.683141
0.68331
0.683053
0.682376
0.681287
0.679793
0.677905
0.675632
0.672985
0.669977
0.66662
0.662926
0.658909
0.654581
0.649958
0.645054
0.639885
0.634468
0.628818
0.622955
0.616894
0.610654
0.604253
0.59771
0.591041
0.584267
0.577404
0.570471
0.563486
0.556466
0.549428
0.54239
0.535368
0.528377
0.521434
0.514552
0.507748
0.501034
0.494423
0.487929
0.481562
0.475334
0.469255
0.463335
0.457583
0.452007
0.446614
0.441412
0.436405
0.4316
0.427001
0.422611
0.418434
0.414472
0.410728
0.407203
0.4039
0.400817
0.397954
0.39531
0.392883
0.39067
0.388668
0.386874
0.385284
0.383894
0.382698
0.381693
0.380873
0.380231
0.379763
0.379462
0.37932
0.379333
0.379492
0.37979
0.38022
0.380775
0.381445
0.382224
0.383103
0.384073
0.385125
0.386251
0.387441
0.388685
0.389974
0.391296
0.392642
0.394
0.395359
0.396707
0.398032
0.399321
0.400561
0.401738
0.402839
0.403848
0.404752
0.405534
0.406179
0.406672
0.406995
0.407133
0.407069
0.406787
0.406269
0.4055
0.404463
0.403144
0.401526
0.399595
0.397337
0.39474
0.391793
0.388482
0.384797
0.380731
0.376274
0.371421
0.366166
0.360504
0.354433
0.34795
0.341054
0.333744
0.32602
0.317883
0.309333
0.300371
0.290999
0.281216
0.271026
0.260428
0.249425
0.238017
0.226208
0.213996
0.201377
0.188343
0.174865
0.160886
0.146284
0.130799
0.113853
0.0939932
0.066601
0.0180265
0.0365299
0.113098
0.155058
0.185364
0.210923
0.233971
0.255451
0.275834
0.295379
0.314241
0.33252
0.350283
0.367577
0.384436
0.400883
0.416939
0.432616
0.447926
0.462876
0.477471
0.491713
0.505605
0.519146
0.532333
0.545163
0.557632
0.569735
0.581464
0.592814
0.603775
0.61434
0.624501
0.634248
0.643574
0.65247
0.660928
0.66894
0.6765
0.6836
0.690236
0.696403
0.702096
0.707311
0.712047
0.716303
0.720076
0.723368
0.726179
0.728512
0.73037
0.731755
0.732673
0.73313
0.73313
0.732683
0.731795
0.730475
0.728734
0.726581
0.724027
0.721086
0.717769
0.71409
0.710062
0.705699
0.701016
0.696026
0.690747
0.685193
0.679383
0.673334
0.667062
0.660587
0.653927
0.647101
0.640126
0.633022
0.625809
0.618503
0.611125
0.603692
0.596222
0.588734
0.581245
0.573772
0.566331
0.558939
0.551611
0.544362
0.537206
0.530158
0.523229
0.516434
0.509782
0.503285
0.496954
0.490797
0.484823
0.479041
0.473456
0.468076
0.462906
0.457951
0.453216
0.448703
0.444415
0.440355
0.436527
0.432931
0.429567
0.426434
0.423531
0.420855
0.418406
0.416179
0.414171
0.412379
0.410798
0.409422
0.408248
0.40727
0.406481
0.405876
0.405448
0.40519
0.405095
0.405156
0.405365
0.405715
0.406197
0.406803
0.407524
0.408353
0.409278
0.410292
0.411385
0.412546
0.413766
0.415033
0.416338
0.417668
0.419012
0.420358
0.421694
0.423006
0.424281
0.425505
0.426665
0.427745
0.428731
0.429607
0.430357
0.430965
0.431415
0.43169
0.431774
0.43165
0.431301
0.43071
0.429862
0.42874
0.427329
0.425615
0.423582
0.421218
0.41851
0.415447
0.412018
0.408212
0.404021
0.399438
0.394456
0.389069
0.383274
0.377064
0.370438
0.363392
0.355923
0.348029
0.339706
0.330952
0.321763
0.312136
0.302068
0.291556
0.280596
0.269186
0.257324
0.245007
0.232233
0.218997
0.205284
0.191066
0.176278
0.160781
0.144287
0.126153
0.10477
0.0750558
0.0213099
0.0365309
0.113099
0.155057
0.185363
0.210921
0.233969
0.255449
0.275832
0.295377
0.314239
0.332518
0.350281
0.367575
0.384433
0.400881
0.416937
0.432614
0.447924
0.462874
0.477468
0.491711
0.505603
0.519143
0.53233
0.54516
0.557629
0.569732
0.581461
0.592811
0.603772
0.614337
0.624498
0.634245
0.643571
0.652467
0.660924
0.668937
0.676496
0.683597
0.690233
0.6964
0.702092
0.707308
0.712044
0.716299
0.720072
0.723364
0.726176
0.728509
0.730366
0.731751
0.73267
0.733126
0.733127
0.732679
0.731791
0.730472
0.72873
0.726577
0.724024
0.721082
0.717765
0.714086
0.710059
0.705696
0.701012
0.696023
0.690743
0.68519
0.67938
0.67333
0.667059
0.660584
0.653924
0.647098
0.640123
0.63302
0.625806
0.6185
0.611122
0.603689
0.59622
0.588732
0.581243
0.573769
0.566329
0.558936
0.551608
0.544359
0.537204
0.530156
0.523227
0.516432
0.50978
0.503283
0.496952
0.490795
0.484821
0.479039
0.473454
0.468075
0.462905
0.45795
0.453214
0.448701
0.444413
0.440354
0.436526
0.43293
0.429566
0.426433
0.423529
0.420854
0.418405
0.416178
0.41417
0.412378
0.410797
0.409421
0.408247
0.407269
0.40648
0.405875
0.405447
0.405189
0.405094
0.405155
0.405364
0.405714
0.406196
0.406802
0.407524
0.408352
0.409278
0.410292
0.411384
0.412546
0.413765
0.415033
0.416338
0.417668
0.419012
0.420358
0.421693
0.423005
0.424281
0.425505
0.426665
0.427745
0.428731
0.429607
0.430357
0.430965
0.431415
0.43169
0.431774
0.43165
0.4313
0.43071
0.429862
0.42874
0.427329
0.425615
0.423582
0.421218
0.41851
0.415447
0.412018
0.408212
0.404021
0.399438
0.394456
0.38907
0.383274
0.377064
0.370438
0.363392
0.355923
0.348029
0.339706
0.330952
0.321763
0.312136
0.302069
0.291556
0.280596
0.269186
0.257324
0.245007
0.232233
0.218997
0.205284
0.191066
0.176278
0.160781
0.144287
0.126153
0.10477
0.0750558
0.0213099
0.0422683
0.125835
0.171215
0.203807
0.231144
0.2557
0.27853
0.300163
0.320894
0.340901
0.360296
0.379154
0.397525
0.415445
0.432942
0.450033
0.466732
0.483049
0.49899
0.514559
0.529756
0.544582
0.559034
0.573108
0.586798
0.600099
0.613002
0.625499
0.637581
0.649238
0.660461
0.671239
0.681563
0.691422
0.700809
0.709714
0.718129
0.726048
0.733463
0.740371
0.746766
0.752644
0.758005
0.762847
0.76717
0.770974
0.774261
0.777035
0.779299
0.781058
0.782317