/*--------------------------------*- C++ -*----------------------------------*\
  =========                 |
  \\      /  F ield         | OpenFOAM: The Open Source CFD Toolbox
   \\    /   O peration     | Website:  https://openfoam.org
    \\  /    A nd           | Version:  8
     \\/     M anipulation  |
\*---------------------------------------------------------------------------*/
FoamFile
{
    version     2.0;
    format      ascii;
    class       volScalarField;
    location    "1900";
    object      nut;
}
// * * * * * * * * * * * * * * * * * * * * * * * * * * * * * * * * * * * * * //

dimensions      [0 2 -1 0 0 0 0];

internalField   nonuniform List<scalar> 
46000
(
6.63924e-08
3.44346e-07
7.33203e-07
1.12584e-06
1.50816e-06
1.88113e-06
2.24659e-06
2.60579e-06
2.95949e-06
3.30813e-06
3.65195e-06
3.99107e-06
4.32553e-06
4.65534e-06
4.98045e-06
5.30083e-06
5.61642e-06
5.92717e-06
6.23303e-06
6.53392e-06
6.82978e-06
7.12056e-06
7.40616e-06
7.68651e-06
7.9615e-06
8.23103e-06
8.49497e-06
8.75317e-06
9.00548e-06
9.25169e-06
9.49162e-06
9.72504e-06
9.9517e-06
1.01713e-05
1.03837e-05
1.05884e-05
1.07852e-05
1.09739e-05
1.1154e-05
1.13252e-05
1.14872e-05
1.16397e-05
1.17825e-05
1.19151e-05
1.20373e-05
1.21489e-05
1.22496e-05
1.23392e-05
1.24176e-05
1.24845e-05
1.254e-05
1.25838e-05
1.26161e-05
1.26367e-05
1.26457e-05
1.26433e-05
1.26295e-05
1.26045e-05
1.25686e-05
1.25219e-05
1.24647e-05
1.23976e-05
1.23217e-05
1.22381e-05
1.21455e-05
1.20443e-05
1.1935e-05
1.1818e-05
1.16938e-05
1.1563e-05
1.1426e-05
1.12835e-05
1.11359e-05
1.09839e-05
1.08279e-05
1.06685e-05
1.05063e-05
1.03418e-05
1.01755e-05
1.00079e-05
9.83958e-06
9.67095e-06
9.5025e-06
9.33467e-06
9.16789e-06
9.00256e-06
8.83907e-06
8.67779e-06
8.51904e-06
8.36315e-06
8.2104e-06
8.06108e-06
7.91541e-06
7.77362e-06
7.63592e-06
7.50248e-06
7.37346e-06
7.24899e-06
7.12918e-06
7.01414e-06
6.90394e-06
6.79863e-06
6.69827e-06
6.60288e-06
6.51247e-06
6.42703e-06
6.34657e-06
6.27104e-06
6.20041e-06
6.13463e-06
6.07363e-06
6.01736e-06
5.96573e-06
5.91865e-06
5.87601e-06
5.83777e-06
5.80377e-06
5.77385e-06
5.74789e-06
5.72584e-06
5.70755e-06
5.69286e-06
5.68164e-06
5.67376e-06
5.66906e-06
5.66741e-06
5.66866e-06
5.67265e-06
5.67923e-06
5.68825e-06
5.69954e-06
5.71294e-06
5.72828e-06
5.74539e-06
5.76409e-06
5.7842e-06
5.80552e-06
5.82787e-06
5.85102e-06
5.87478e-06
5.89892e-06
5.9232e-06
5.94739e-06
5.97124e-06
5.99446e-06
6.0168e-06
6.03795e-06
6.05762e-06
6.07549e-06
6.09123e-06
6.10449e-06
6.11493e-06
6.12218e-06
6.12586e-06
6.12559e-06
6.12098e-06
6.11164e-06
6.09717e-06
6.07718e-06
6.05127e-06
6.01906e-06
5.98018e-06
5.93427e-06
5.881e-06
5.82005e-06
5.75122e-06
5.67564e-06
5.59275e-06
5.50163e-06
5.40203e-06
5.29389e-06
5.17723e-06
5.05213e-06
4.91872e-06
4.77723e-06
4.62792e-06
4.47114e-06
4.3073e-06
4.13687e-06
3.96038e-06
3.77841e-06
3.59161e-06
3.40065e-06
3.20624e-06
3.0091e-06
2.80999e-06
2.60962e-06
2.40869e-06
2.20782e-06
2.00721e-06
1.80664e-06
1.60851e-06
1.41096e-06
1.2136e-06
1.01526e-06
8.16912e-07
6.16324e-07
4.06397e-07
1.93824e-07
3.73702e-08
6.63993e-08
3.44378e-07
7.33256e-07
1.12591e-06
1.50823e-06
1.88121e-06
2.24667e-06
2.60587e-06
2.95957e-06
3.30821e-06
3.65203e-06
3.99115e-06
4.32562e-06
4.65542e-06
4.98053e-06
5.30091e-06
5.61651e-06
5.92726e-06
6.23311e-06
6.534e-06
6.82987e-06
7.12064e-06
7.40625e-06
7.68659e-06
7.96159e-06
8.23112e-06
8.49506e-06
8.75327e-06
9.00557e-06
9.25179e-06
9.49172e-06
9.72514e-06
9.9518e-06
1.01714e-05
1.03838e-05
1.05885e-05
1.07854e-05
1.0974e-05
1.11541e-05
1.13253e-05
1.14873e-05
1.16399e-05
1.17826e-05
1.19152e-05
1.20374e-05
1.2149e-05
1.22497e-05
1.23393e-05
1.24177e-05
1.24847e-05
1.25401e-05
1.25839e-05
1.26162e-05
1.26368e-05
1.26458e-05
1.26434e-05
1.26296e-05
1.26047e-05
1.25687e-05
1.2522e-05
1.24649e-05
1.23977e-05
1.23218e-05
1.22382e-05
1.21456e-05
1.20444e-05
1.19351e-05
1.18181e-05
1.16939e-05
1.15631e-05
1.14261e-05
1.12836e-05
1.1136e-05
1.09839e-05
1.0828e-05
1.06686e-05
1.05064e-05
1.03419e-05
1.01756e-05
1.0008e-05
9.83963e-06
9.671e-06
9.50254e-06
9.33471e-06
9.16792e-06
9.00259e-06
8.8391e-06
8.67781e-06
8.51906e-06
8.36317e-06
8.21042e-06
8.06109e-06
7.91542e-06
7.77363e-06
7.63593e-06
7.50248e-06
7.37346e-06
7.24898e-06
7.12918e-06
7.01413e-06
6.90393e-06
6.79862e-06
6.69826e-06
6.60286e-06
6.51245e-06
6.42702e-06
6.34655e-06
6.27102e-06
6.20039e-06
6.1346e-06
6.07361e-06
6.01734e-06
5.9657e-06
5.91863e-06
5.87598e-06
5.83774e-06
5.80373e-06
5.77382e-06
5.74786e-06
5.72581e-06
5.70751e-06
5.69282e-06
5.6816e-06
5.67372e-06
5.66902e-06
5.66737e-06
5.66862e-06
5.67261e-06
5.67919e-06
5.68821e-06
5.6995e-06
5.7129e-06
5.72824e-06
5.74535e-06
5.76405e-06
5.78416e-06
5.80548e-06
5.82782e-06
5.85098e-06
5.87474e-06
5.89887e-06
5.92316e-06
5.94735e-06
5.97119e-06
5.99442e-06
6.01676e-06
6.03791e-06
6.05758e-06
6.07545e-06
6.09118e-06
6.10445e-06
6.11489e-06
6.12213e-06
6.12581e-06
6.12555e-06
6.12094e-06
6.1116e-06
6.09713e-06
6.07714e-06
6.05123e-06
6.01902e-06
5.98014e-06
5.93423e-06
5.88096e-06
5.82001e-06
5.75119e-06
5.67561e-06
5.59271e-06
5.50159e-06
5.402e-06
5.29386e-06
5.1772e-06
5.0521e-06
4.9187e-06
4.77721e-06
4.6279e-06
4.47113e-06
4.30729e-06
4.13685e-06
3.96036e-06
3.7784e-06
3.5916e-06
3.40064e-06
3.20623e-06
3.00909e-06
2.80998e-06
2.60961e-06
2.40868e-06
2.20781e-06
2.0072e-06
1.80664e-06
1.60851e-06
1.41095e-06
1.2136e-06
1.01526e-06
8.16913e-07
6.16325e-07
4.06398e-07
1.93824e-07
3.73704e-08
3.1482e-07
1.22209e-05
2.50537e-05
3.38987e-05
4.06864e-05
4.62985e-05
5.11472e-05
5.54529e-05
5.93467e-05
6.29131e-05
6.62106e-05
6.92808e-05
7.21555e-05
7.48588e-05
7.74102e-05
7.98254e-05
8.21174e-05
8.42973e-05
8.63742e-05
8.83564e-05
9.02507e-05
9.20633e-05
9.37995e-05
9.54639e-05
9.70607e-05
9.85934e-05
0.000100065
0.000101479
0.000102837
0.000104141
0.000105392
0.000106593
0.000107745
0.000108847
0.000109902
0.000110908
0.000111868
0.00011278
0.000113645
0.000114463
0.000115233
0.000115956
0.000116631
0.000117258
0.000117836
0.000118365
0.000118846
0.000119276
0.000119657
0.000119988
0.000120268
0.000120498
0.000120678
0.000120808
0.000120888
0.000120918
0.000120899
0.00012083
0.000120713
0.000120547
0.000120334
0.00012007
0.000119753
0.000119385
0.000118973
0.000118518
0.000118025
0.000117493
0.000116926
0.000116325
0.000115691
0.000115027
0.000114334
0.000113615
0.000112871
0.000112105
0.000111318
0.000110513
0.000109691
0.000108855
0.000108007
0.000107149
0.000106283
0.000105412
0.000104537
0.00010366
0.000102784
0.00010191
0.000101041
0.000100177
9.93225e-05
9.84774e-05
9.7644e-05
9.68239e-05
9.60188e-05
9.523e-05
9.44592e-05
9.37075e-05
9.29762e-05
9.22666e-05
9.15797e-05
9.09164e-05
9.02777e-05
8.96643e-05
8.90769e-05
8.85162e-05
8.79826e-05
8.74764e-05
8.69981e-05
8.65478e-05
8.61255e-05
8.57314e-05
8.53653e-05
8.50271e-05
8.47163e-05
8.44326e-05
8.41756e-05
8.39447e-05
8.37393e-05
8.35584e-05
8.34014e-05
8.32676e-05
8.31562e-05
8.30661e-05
8.29966e-05
8.29466e-05
8.29151e-05
8.29011e-05
8.29034e-05
8.2921e-05
8.29527e-05
8.29973e-05
8.30536e-05
8.31204e-05
8.31965e-05
8.32804e-05
8.33709e-05
8.34666e-05
8.35661e-05
8.36679e-05
8.37705e-05
8.38725e-05
8.39721e-05
8.40677e-05
8.41576e-05
8.42401e-05
8.43133e-05
8.43753e-05
8.44242e-05
8.4458e-05
8.44746e-05
8.44718e-05
8.44475e-05
8.43994e-05
8.43252e-05
8.42227e-05
8.40893e-05
8.39228e-05
8.37208e-05
8.34807e-05
8.32001e-05
8.28767e-05
8.25079e-05
8.2091e-05
8.16231e-05
8.10993e-05
8.05082e-05
7.98525e-05
7.91329e-05
7.83492e-05
7.75004e-05
7.65854e-05
7.56029e-05
7.45521e-05
7.34319e-05
7.22415e-05
7.09803e-05
6.96477e-05
6.82433e-05
6.67667e-05
6.52173e-05
6.35949e-05
6.18987e-05
6.01278e-05
5.82811e-05
5.63565e-05
5.43512e-05
5.22612e-05
5.00804e-05
4.78014e-05
4.54111e-05
4.28727e-05
4.0142e-05
3.71465e-05
3.37399e-05
2.95956e-05
2.44213e-05
1.75954e-05
7.95512e-06
1.69442e-07
3.14851e-07
1.22226e-05
2.50566e-05
3.3902e-05
4.06898e-05
4.6302e-05
5.11507e-05
5.54564e-05
5.93502e-05
6.29167e-05
6.62141e-05
6.92844e-05
7.21591e-05
7.48625e-05
7.74139e-05
7.98292e-05
8.21212e-05
8.43011e-05
8.63782e-05
8.83604e-05
9.02548e-05
9.20674e-05
9.38036e-05
9.54681e-05
9.7065e-05
9.85978e-05
0.00010007
0.000101483
0.000102841
0.000104145
0.000105397
0.000106598
0.00010775
0.000108852
0.000109907
0.000110914
0.000111873
0.000112785
0.00011365
0.000114468
0.000115239
0.000115962
0.000116637
0.000117264
0.000117842
0.000118371
0.000118851
0.000119282
0.000119663
0.000119993
0.000120274
0.000120504
0.000120684
0.000120814
0.000120894
0.000120924
0.000120905
0.000120836
0.000120719
0.000120553
0.000120339
0.000120076
0.000119759
0.000119391
0.000118978
0.000118524
0.00011803
0.000117499
0.000116931
0.00011633
0.000115696
0.000115032
0.000114339
0.00011362
0.000112876
0.00011211
0.000111323
0.000110517
0.000109695
0.00010886
0.000108011
0.000107153
0.000106288
0.000105416
0.000104541
0.000103664
0.000102788
0.000101914
0.000101044
0.000100181
9.93258e-05
9.84807e-05
9.76472e-05
9.6827e-05
9.60218e-05
9.52329e-05
9.44619e-05
9.37101e-05
9.29788e-05
9.22691e-05
9.1582e-05
9.09187e-05
9.02799e-05
8.96664e-05
8.90789e-05
8.85181e-05
8.79844e-05
8.74782e-05
8.69998e-05
8.65494e-05
8.6127e-05
8.57328e-05
8.53666e-05
8.50283e-05
8.47175e-05
8.44338e-05
8.41767e-05
8.39457e-05
8.37402e-05
8.35592e-05
8.34022e-05
8.32683e-05
8.31568e-05
8.30667e-05
8.29971e-05
8.29471e-05
8.29155e-05
8.29014e-05
8.29037e-05
8.29212e-05
8.29529e-05
8.29974e-05
8.30537e-05
8.31205e-05
8.31965e-05
8.32804e-05
8.33709e-05
8.34665e-05
8.3566e-05
8.36677e-05
8.37703e-05
8.38722e-05
8.39718e-05
8.40674e-05
8.41573e-05
8.42397e-05
8.43129e-05
8.43749e-05
8.44238e-05
8.44575e-05
8.44741e-05
8.44712e-05
8.44469e-05
8.43988e-05
8.43246e-05
8.4222e-05
8.40887e-05
8.39222e-05
8.37201e-05
8.348e-05
8.31994e-05
8.2876e-05
8.25071e-05
8.20903e-05
8.16224e-05
8.10986e-05
8.05076e-05
7.98518e-05
7.91322e-05
7.83485e-05
7.74997e-05
7.65847e-05
7.56023e-05
7.45515e-05
7.34313e-05
7.22409e-05
7.09798e-05
6.96472e-05
6.82428e-05
6.67662e-05
6.52169e-05
6.35944e-05
6.18982e-05
6.01274e-05
5.82807e-05
5.63561e-05
5.43509e-05
5.22608e-05
5.00801e-05
4.78011e-05
4.54108e-05
4.28725e-05
4.01418e-05
3.71464e-05
3.37398e-05
2.95955e-05
2.44213e-05
1.75954e-05
7.9551e-06
1.69442e-07
6.79542e-07
2.44028e-05
5.44697e-05
7.69666e-05
9.43352e-05
0.000108466
0.000120423
0.000130825
0.000140058
0.000148374
0.000155946
0.000162902
0.000169333
0.000175313
0.000180897
0.000186132
0.000191054
0.000195694
0.000200079
0.000204231
0.000208168
0.000211907
0.000215463
0.000218847
0.000222072
0.000225145
0.000228077
0.000230873
0.000233541
0.000236086
0.000238512
0.000240824
0.000243025
0.000245119
0.000247107
0.000248993
0.000250778
0.000252464
0.000254052
0.000255543
0.000256938
0.000258239
0.000259445
0.000260557
0.000261577
0.000262504
0.000263339
0.000264082
0.000264734
0.000265295
0.000265766
0.000266147
0.000266438
0.000266642
0.000266757
0.000266786
0.000266728
0.000266585
0.000266356
0.000266044
0.000265647
0.000265164
0.000264592
0.000263933
0.000263195
0.000262384
0.000261503
0.000260556
0.000259545
0.000258474
0.000257345
0.000256162
0.000254927
0.000253645
0.000252317
0.000250947
0.000249539
0.000248096
0.000246622
0.000245119
0.000243592
0.000242044
0.000240479
0.0002389
0.00023731
0.000235714
0.000234115
0.000232516
0.000230921
0.000229333
0.000227755
0.000226191
0.000224644
0.000223116
0.000221611
0.000220131
0.000218679
0.000217258
0.000215869
0.000214516
0.000213199
0.000211922
0.000210685
0.00020949
0.000208338
0.000207231
0.00020617
0.000205154
0.000204186
0.000203266
0.000202393
0.000201568
0.00020079
0.00020006
0.000199378
0.00019874
0.000198148
0.000197599
0.000197094
0.00019663
0.000196207
0.000195823
0.000195476
0.000195165
0.000194888
0.000194644
0.00019443
0.000194246
0.000194088
0.000193954
0.000193844
0.000193754
0.000193682
0.000193626
0.000193585
0.000193554
0.000193532
0.000193517
0.000193505
0.000193495
0.000193483
0.000193466
0.000193442
0.000193407
0.000193359
0.000193293
0.000193208
0.000193099
0.000192963
0.000192796
0.000192595
0.000192355
0.000192074
0.000191747
0.000191369
0.000190938
0.000190448
0.000189897
0.000189279
0.000188591
0.000187828
0.000186987
0.000186063
0.000185051
0.000183947
0.000182741
0.000181424
0.000179992
0.000178446
0.000176784
0.000175005
0.000173107
0.000171088
0.000168944
0.000166674
0.000164275
0.000161744
0.000159077
0.000156271
0.000153322
0.000150225
0.000146975
0.000143566
0.000139988
0.000136232
0.000132286
0.000128132
0.00012375
0.000119109
0.000114171
0.000108874
0.000103123
9.67725e-05
8.95835e-05
8.11561e-05
7.08386e-05
5.76135e-05
4.00678e-05
1.68391e-05
3.65681e-07
6.79592e-07
2.44055e-05
5.44761e-05
7.69747e-05
9.43441e-05
0.000108475
0.000120432
0.000130835
0.000140067
0.000148383
0.000155955
0.000162911
0.000169342
0.000175322
0.000180906
0.000186141
0.000191063
0.000195703
0.000200088
0.000204239
0.000208177
0.000211916
0.000215472
0.000218856
0.000222081
0.000225155
0.000228086
0.000230883
0.00023355
0.000236095
0.000238521
0.000240833
0.000243035
0.000245128
0.000247117
0.000249003
0.000250788
0.000252474
0.000254062
0.000255553
0.000256949
0.000258249
0.000259455
0.000260568
0.000261588
0.000262515
0.000263349
0.000264093
0.000264744
0.000265305
0.000265776
0.000266157
0.000266449
0.000266653
0.000266768
0.000266796
0.000266739
0.000266595
0.000266367
0.000266054
0.000265657
0.000265174
0.000264602
0.000263943
0.000263205
0.000262394
0.000261513
0.000260565
0.000259554
0.000258483
0.000257354
0.000256171
0.000254936
0.000253653
0.000252325
0.000250955
0.000249547
0.000248104
0.000246629
0.000245127
0.000243599
0.000242051
0.000240486
0.000238906
0.000237317
0.000235721
0.000234121
0.000232522
0.000230927
0.000229338
0.000227761
0.000226196
0.000224649
0.000223121
0.000221615
0.000220135
0.000218683
0.000217262
0.000215873
0.000214519
0.000213203
0.000211925
0.000210687
0.000209492
0.00020834
0.000207233
0.000206172
0.000205156
0.000204188
0.000203267
0.000202394
0.000201569
0.000200791
0.000200061
0.000199378
0.000198741
0.000198148
0.0001976
0.000197094
0.00019663
0.000196207
0.000195822
0.000195475
0.000195164
0.000194888
0.000194643
0.00019443
0.000194245
0.000194087
0.000193953
0.000193843
0.000193753
0.000193681
0.000193625
0.000193583
0.000193552
0.000193531
0.000193515
0.000193504
0.000193493
0.000193481
0.000193464
0.00019344
0.000193405
0.000193356
0.000193291
0.000193206
0.000193097
0.000192961
0.000192794
0.000192592
0.000192353
0.000192071
0.000191744
0.000191367
0.000190935
0.000190446
0.000189894
0.000189276
0.000188588
0.000187826
0.000186985
0.000186061
0.000185049
0.000183944
0.000182739
0.000181422
0.00017999
0.000178444
0.000176782
0.000175003
0.000173105
0.000171086
0.000168942
0.000166672
0.000164273
0.000161742
0.000159075
0.000156269
0.00015332
0.000150224
0.000146974
0.000143564
0.000139987
0.000136231
0.000132284
0.000128131
0.000123749
0.000119109
0.00011417
0.000108874
0.000103122
9.6772e-05
8.95831e-05
8.11558e-05
7.08384e-05
5.76134e-05
4.00678e-05
1.68391e-05
3.6568e-07
1.05233e-06
3.28277e-05
7.60751e-05
0.000111109
0.000139207
0.000162425
0.000182156
0.000199307
0.000214476
0.000228078
0.000240406
0.000251674
0.000262044
0.000271642
0.000280566
0.000288897
0.0002967
0.000304027
0.000310926
0.000317434
0.000323584
0.000329405
0.000334921
0.000340153
0.00034512
0.000349838
0.000354321
0.000358582
0.000362631
0.000366477
0.00037013
0.000373596
0.000376881
0.000379992
0.000382933
0.000385708
0.000388321
0.000390777
0.000393077
0.000395225
0.000397223
0.000399075
0.00040078
0.000402343
0.000403765
0.000405048
0.000406193
0.000407202
0.000408078
0.00040882
0.000409433
0.000409916
0.000410271
0.000410501
0.000410606
0.000410589
0.000410451
0.000410193
0.000409817
0.000409325
0.000408716
0.00040799
0.000407148
0.000406192
0.000405128
0.000403963
0.000402702
0.000401349
0.000399909
0.000398386
0.000396784
0.000395106
0.000393358
0.000391543
0.000389666
0.000387731
0.000385742
0.000383705
0.000381624
0.000379503
0.000377347
0.000375162
0.000372951
0.000370721
0.000368474
0.000366217
0.000363954
0.000361689
0.000359428
0.000357174
0.000354933
0.000352708
0.000350504
0.000348325
0.000346174
0.000344056
0.000341973
0.00033993
0.000337929
0.000335974
0.000334066
0.000332208
0.000330403
0.000328653
0.000326958
0.000325322
0.000323744
0.000322227
0.00032077
0.000319374
0.00031804
0.000316767
0.000315556
0.000314405
0.000313314
0.000312281
0.000311304
0.000310384
0.000309518
0.000308704
0.000307941
0.000307228
0.000306561
0.000305939
0.00030536
0.00030482
0.000304319
0.000303853
0.000303419
0.000303015
0.000302639
0.000302286
0.000301955
0.000301643
0.000301345
0.00030106
0.000300783
0.000300511
0.000300241
0.000299969
0.000299691
0.000299404
0.000299104
0.000298786
0.000298446
0.00029808
0.000297684
0.000297252
0.00029678
0.000296263
0.000295697
0.000295076
0.000294395
0.00029365
0.000292834
0.000291942
0.00029097
0.000289912
0.000288762
0.000287516
0.000286168
0.000284713
0.000283145
0.000281457
0.000279645
0.000277698
0.00027561
0.000273372
0.000270984
0.000268441
0.000265741
0.000262882
0.000259858
0.000256666
0.000253301
0.000249757
0.000246028
0.000242108
0.000237987
0.000233657
0.000229107
0.000224324
0.000219293
0.000213994
0.000208406
0.0002025
0.00019624
0.000189582
0.000182464
0.000174803
0.000166481
0.000157328
0.000147089
0.00013538
0.000121617
0.00010491
8.39298e-05
5.69292e-05
2.34161e-05
5.757e-07
1.05238e-06
3.28306e-05
7.60829e-05
0.00011112
0.00013922
0.000162439
0.000182171
0.000199321
0.000214491
0.000228093
0.00024042
0.000251688
0.000262058
0.000271656
0.000280581
0.000288911
0.000296714
0.000304041
0.00031094
0.000317448
0.000323598
0.000329419
0.000334935
0.000340167
0.000345134
0.000349852
0.000354335
0.000358596
0.000362645
0.000366491
0.000370144
0.00037361
0.000376895
0.000380006
0.000382947
0.000385722
0.000388335
0.000390791
0.000393091
0.000395239
0.000397238
0.000399089
0.000400795
0.000402358
0.00040378
0.000405062
0.000406207
0.000407217
0.000408092
0.000408835
0.000409447
0.00040993
0.000410285
0.000410515
0.00041062
0.000410603
0.000410464
0.000410207
0.000409831
0.000409338
0.000408729
0.000408003
0.000407161
0.000406204
0.00040514
0.000403975
0.000402714
0.000401361
0.000399921
0.000398397
0.000396795
0.000395117
0.000393368
0.000391553
0.000389676
0.00038774
0.000385752
0.000383714
0.000381633
0.000379512
0.000377356
0.00037517
0.000372959
0.000370728
0.000368481
0.000366224
0.00036396
0.000361696
0.000359434
0.00035718
0.000354939
0.000352714
0.000350509
0.00034833
0.000346179
0.00034406
0.000341978
0.000339934
0.000337933
0.000335977
0.000334069
0.000332211
0.000330406
0.000328655
0.000326961
0.000325324
0.000323746
0.000322228
0.000320771
0.000319375
0.00031804
0.000316768
0.000315556
0.000314405
0.000313314
0.00031228
0.000311304
0.000310383
0.000309517
0.000308703
0.00030794
0.000307226
0.000306559
0.000305937
0.000305358
0.000304818
0.000304317
0.00030385
0.000303417
0.000303013
0.000302636
0.000302284
0.000301953
0.00030164
0.000301342
0.000301056
0.000300779
0.000300507
0.000300237
0.000299965
0.000299688
0.000299401
0.0002991
0.000298782
0.000298442
0.000298076
0.00029768
0.000297248
0.000296776
0.000296259
0.000295693
0.000295072
0.000294391
0.000293645
0.000292829
0.000291938
0.000290966
0.000289907
0.000288758
0.000287512
0.000286164
0.000284709
0.00028314
0.000281453
0.000279641
0.000277694
0.000275606
0.000273369
0.00027098
0.000268437
0.000265738
0.000262878
0.000259855
0.000256663
0.000253298
0.000249754
0.000246026
0.000242105
0.000237985
0.000233655
0.000229105
0.000224322
0.000219291
0.000213992
0.000208404
0.000202498
0.000196239
0.000189581
0.000182463
0.000174802
0.000166481
0.000157327
0.000147088
0.00013538
0.000121617
0.00010491
8.39298e-05
5.69293e-05
2.34161e-05
5.757e-07
1.42195e-06
3.93695e-05
9.26917e-05
0.000138179
0.000175863
0.000207584
0.000234811
0.000258594
0.000279672
0.000298576
0.000315697
0.000331325
0.000345686
0.000358954
0.000371269
0.000382743
0.00039347
0.000403526
0.000412976
0.000421875
0.00043027
0.000438202
0.000445704
0.000452807
0.000459537
0.000465918
0.000471969
0.000477707
0.000483148
0.000488306
0.000493191
0.000497815
0.000502187
0.000506314
0.000510204
0.000513864
0.0005173
0.000520516
0.000523518
0.00052631
0.000528897
0.000531282
0.00053347
0.000535463
0.000537267
0.000538883
0.000540315
0.000541566
0.00054264
0.000543539
0.000544267
0.000544826
0.00054522
0.00054545
0.000545521
0.000545434
0.000545193
0.0005448
0.000544257
0.000543567
0.000542731
0.000541752
0.000540631
0.000539371
0.000537979
0.000536462
0.000534824
0.000533073
0.000531213
0.000529249
0.000527187
0.000525032
0.00052279
0.000520465
0.000518063
0.000515589
0.00051305
0.00051045
0.000507796
0.000505094
0.000502348
0.000499566
0.000496752
0.000493914
0.000491056
0.000488185
0.000485306
0.000482426
0.000479549
0.000476681
0.000473829
0.000470996
0.000468188
0.00046541
0.000462666
0.000459962
0.0004573
0.000454686
0.000452123
0.000449613
0.000447161
0.00044477
0.00044244
0.000440176
0.000437978
0.000435849
0.000433789
0.0004318
0.000429883
0.000428037
0.000426263
0.000424561
0.000422929
0.000421367
0.000419873
0.000418446
0.000417084
0.000415786
0.000414549
0.000413372
0.000412252
0.000411187
0.000410175
0.000409212
0.000408297
0.000407425
0.000406595
0.000405803
0.000405047
0.000404322
0.000403626
0.000402955
0.000402305
0.000401674
0.000401057
0.000400451
0.000399851
0.000399254
0.000398655
0.00039805
0.000397435
0.000396805
0.000396155
0.000395481
0.000394777
0.000394038
0.00039326
0.000392435
0.000391559
0.000390627
0.000389631
0.000388567
0.000387428
0.000386209
0.000384902
0.000383503
0.000382005
0.000380402
0.000378687
0.000376856
0.0003749
0.000372815
0.000370594
0.000368229
0.000365715
0.000363042
0.000360204
0.000357191
0.000353999
0.000350625
0.000347062
0.000343307
0.000339352
0.000335193
0.00033082
0.000326225
0.000321398
0.000316329
0.000311002
0.000305404
0.000299515
0.000293314
0.000286776
0.000279871
0.000272562
0.000264805
0.000256543
0.000247706
0.0002382
0.000227902
0.000216639
0.000204171
0.000190158
0.000174104
0.000155298
0.000132716
0.000104939
7.02509e-05
2.88003e-05
7.92348e-07
1.42201e-06
3.93725e-05
9.27001e-05
0.000138191
0.000175879
0.0002076
0.000234829
0.000258612
0.000279691
0.000298595
0.000315716
0.000331345
0.000345705
0.000358973
0.000371288
0.000382762
0.000393489
0.000403545
0.000412995
0.000421894
0.000430289
0.00043822
0.000445722
0.000452825
0.000459556
0.000465936
0.000471987
0.000477725
0.000483167
0.000488324
0.000493209
0.000497833
0.000502205
0.000506332
0.000510223
0.000513883
0.000517318
0.000520534
0.000523536
0.000526328
0.000528915
0.0005313
0.000533488
0.000535481
0.000537285
0.0005389
0.000540333
0.000541584
0.000542658
0.000543557
0.000544284
0.000544843
0.000545237
0.000545467
0.000545537
0.000545451
0.000545209
0.000544816
0.000544273
0.000543583
0.000542747
0.000541767
0.000540646
0.000539386
0.000537994
0.000536476
0.000534838
0.000533087
0.000531226
0.000529262
0.0005272
0.000525045
0.000522802
0.000520477
0.000518074
0.0005156
0.000513061
0.000510461
0.000507807
0.000505104
0.000502358
0.000499575
0.000496762
0.000493923
0.000491065
0.000488193
0.000485314
0.000482433
0.000479556
0.000476688
0.000473835
0.000471002
0.000468194
0.000465415
0.000462672
0.000459967
0.000457305
0.000454691
0.000452127
0.000449617
0.000447165
0.000444773
0.000442443
0.000440179
0.000437981
0.000435851
0.000433791
0.000431802
0.000429884
0.000428038
0.000426264
0.000424561
0.000422929
0.000421367
0.000419873
0.000418445
0.000417083
0.000415785
0.000414548
0.000413371
0.000412251
0.000411186
0.000410173
0.00040921
0.000408295
0.000407423
0.000406593
0.000405801
0.000405044
0.000404319
0.000403623
0.000402951
0.000402302
0.00040167
0.000401053
0.000400447
0.000399847
0.00039925
0.000398651
0.000398046
0.000397431
0.000396801
0.000396151
0.000395476
0.000394772
0.000394034
0.000393255
0.00039243
0.000391554
0.000390621
0.000389626
0.000388562
0.000387423
0.000386203
0.000384897
0.000383498
0.000382
0.000380397
0.000378682
0.00037685
0.000374895
0.00037281
0.000370589
0.000368224
0.00036571
0.000363038
0.000360199
0.000357187
0.000353995
0.00035062
0.000347058
0.000343303
0.000339349
0.000335189
0.000330816
0.000326222
0.000321395
0.000316326
0.000311
0.000305401
0.000299512
0.000293312
0.000286774
0.000279869
0.00027256
0.000264803
0.000256542
0.000247705
0.000238199
0.000227901
0.000216638
0.000204171
0.000190157
0.000174104
0.000155298
0.000132716
0.000104939
7.02511e-05
2.88004e-05
7.92349e-07
1.79227e-06
4.48695e-05
0.000106272
0.000160455
0.00020645
0.000245786
0.000279892
0.000309868
0.00033653
0.000360491
0.00038221
0.000402041
0.00042026
0.000437086
0.000452693
0.000467224
0.000480798
0.000493513
0.000505452
0.000516686
0.000527274
0.000537268
0.000546712
0.000555646
0.000564103
0.000572112
0.000579698
0.000586885
0.000593691
0.000600134
0.000606229
0.00061199
0.000617427
0.000622552
0.000627375
0.000631903
0.000636144
0.000640106
0.000643795
0.000647218
0.00065038
0.000653287
0.000655944
0.000658356
0.000660528
0.000662465
0.000664173
0.000665654
0.000666914
0.000667958
0.000668789
0.000669413
0.000669833
0.000670053
0.000670078
0.000669911
0.000669557
0.00066902
0.000668302
0.000667408
0.00066634
0.000665104
0.000663701
0.000662136
0.000660416
0.000658548
0.000656538
0.000654394
0.000652121
0.000649726
0.000647216
0.000644597
0.000641874
0.000639056
0.000636147
0.000633156
0.000630087
0.000626949
0.000623748
0.000620491
0.000617185
0.000613837
0.000610453
0.000607041
0.000603608
0.00060016
0.000596704
0.000593247
0.000589796
0.000586357
0.000582936
0.000579539
0.000576173
0.000572842
0.000569552
0.000566308
0.000563115
0.000559978
0.0005569
0.000553885
0.000550937
0.000548059
0.000545253
0.000542522
0.000539868
0.000537291
0.000534794
0.000532378
0.000530042
0.000527788
0.000525614
0.000523519
0.000521503
0.000519564
0.0005177
0.000515909
0.00051419
0.00051254
0.000510957
0.000509438
0.00050798
0.00050658
0.000505236
0.000503944
0.000502701
0.000501503
0.000500348
0.000499232
0.00049815
0.000497101
0.000496078
0.00049508
0.000494102
0.000493139
0.000492188
0.000491245
0.000490304
0.000489362
0.000488414
0.000487455
0.00048648
0.000485484
0.000484462
0.000483408
0.000482316
0.000481181
0.000479997
0.000478758
0.000477457
0.000476089
0.000474647
0.000473123
0.000471513
0.000469809
0.000468004
0.000466091
0.000464065
0.000461918
0.000459644
0.000457236
0.000454687
0.000451991
0.00044914
0.000446127
0.000442946
0.000439587
0.000436043
0.000432304
0.000428366
0.000424221
0.000419863
0.000415286
0.000410479
0.000405436
0.000400143
0.000394591
0.000388764
0.000382645
0.000376216
0.000369455
0.000362336
0.000354829
0.000346898
0.000338502
0.000329589
0.0003201
0.000309958
0.000299069
0.00028731
0.000274519
0.000260481
0.000244898
0.000227361
0.000207295
0.000183902
0.000156079
0.000122377
8.12141e-05
3.33244e-05
1.01708e-06
1.79233e-06
4.48725e-05
0.000106281
0.000160468
0.000206467
0.000245805
0.000279913
0.000309889
0.000336552
0.000360513
0.000382233
0.000402064
0.000420284
0.000437109
0.000452716
0.000467248
0.000480822
0.000493537
0.000505476
0.000516709
0.000527297
0.000537291
0.000546736
0.000555669
0.000564126
0.000572135
0.000579721
0.000586908
0.000593714
0.000600157
0.000606252
0.000612012
0.00061745
0.000622575
0.000627397
0.000631925
0.000636166
0.000640128
0.000643818
0.00064724
0.000650402
0.000653309
0.000655965
0.000658377
0.00066055
0.000662487
0.000664194
0.000665675
0.000666935
0.000667979
0.00066881
0.000669433
0.000669853
0.000670073
0.000670097
0.00066993
0.000669576
0.000669038
0.00066832
0.000667426
0.000666358
0.000665121
0.000663718
0.000662153
0.000660433
0.000658564
0.000656554
0.000654409
0.000652136
0.000649741
0.000647231
0.000644611
0.000641888
0.000639069
0.000636161
0.000633169
0.0006301
0.000626962
0.00062376
0.000620503
0.000617196
0.000613848
0.000610464
0.000607051
0.000603618
0.000600169
0.000596713
0.000593256
0.000589805
0.000586365
0.000582944
0.000579547
0.00057618
0.000572849
0.000569558
0.000566314
0.000563121
0.000559984
0.000556905
0.000553891
0.000550942
0.000548064
0.000545258
0.000542526
0.000539871
0.000537295
0.000534798
0.000532381
0.000530045
0.00052779
0.000525615
0.000523521
0.000521504
0.000519565
0.000517701
0.00051591
0.000514191
0.00051254
0.000510957
0.000509437
0.000507979
0.000506579
0.000505235
0.000503942
0.000502699
0.000501502
0.000500346
0.00049923
0.000498148
0.000497098
0.000496076
0.000495077
0.000494099
0.000493136
0.000492185
0.000491241
0.000490301
0.000489359
0.00048841
0.000487451
0.000486476
0.00048548
0.000484457
0.000483403
0.000482311
0.000481176
0.000479992
0.000478753
0.000477452
0.000476084
0.000474641
0.000473118
0.000471507
0.000469803
0.000467998
0.000466086
0.00046406
0.000461913
0.000459639
0.00045723
0.000454682
0.000451985
0.000449135
0.000446122
0.00044294
0.000439582
0.000436038
0.0004323
0.000428362
0.000424217
0.000419859
0.000415282
0.000410476
0.000405432
0.00040014
0.000394588
0.000388761
0.000382642
0.000376214
0.000369453
0.000362334
0.000354827
0.000346896
0.0003385
0.000329588
0.000320099
0.000309957
0.000299068
0.000287309
0.000274519
0.00026048
0.000244898
0.000227361
0.000207296
0.000183902
0.000156079
0.000122378
8.12145e-05
3.33246e-05
1.01708e-06
2.16879e-06
4.9738e-05
0.000117912
0.000179459
0.000232651
0.000278723
0.000319017
0.000354638
0.000386443
0.000415096
0.000441107
0.000464878
0.000486726
0.000506906
0.000525625
0.000543051
0.000559325
0.000574565
0.00058887
0.000602325
0.000615002
0.000626964
0.000638263
0.000648947
0.000659055
0.000668623
0.000677682
0.000686259
0.000694376
0.000702055
0.000709314
0.000716169
0.000722634
0.000728722
0.000734444
0.00073981
0.000744831
0.000749515
0.00075387
0.000757903
0.000761622
0.000765034
0.000768145
0.000770962
0.000773491
0.000775739
0.000777711
0.000779413
0.000780852
0.000782032
0.00078296
0.000783642
0.000784082
0.000784286
0.000784261
0.00078401
0.00078354
0.000782855
0.00078196
0.000780861
0.000779562
0.000778069
0.000776385
0.000774517