/*--------------------------------*- C++ -*----------------------------------*\
  =========                 |
  \\      /  F ield         | OpenFOAM: The Open Source CFD Toolbox
   \\    /   O peration     | Website:  https://openfoam.org
    \\  /    A nd           | Version:  8
     \\/     M anipulation  |
\*---------------------------------------------------------------------------*/
FoamFile
{
    version     2.0;
    format      ascii;
    class       surfaceScalarField;
    location    "1900";
    object      phi;
}
// * * * * * * * * * * * * * * * * * * * * * * * * * * * * * * * * * * * * * //

dimensions      [1 0 -1 0 0 0 0];

internalField   nonuniform List<scalar> 
114370
(
2.91577e-11
2.61346e-15
-2.91602e-11
5.19162e-12
-1.93679e-16
2.35367e-11
-6.82251e-11
9.63409e-16
7.30968e-11
-1.64267e-10
1.39389e-15
9.57809e-11
-2.63588e-10
2.49808e-15
9.90793e-11
-3.56304e-10
3.24307e-15
9.2487e-11
-4.3856e-10
3.4577e-15
8.20358e-11
-5.10075e-10
3.3207e-15
7.13017e-11
-5.72558e-10
2.98256e-15
6.2276e-11
-6.28761e-10
2.55255e-15
5.60003e-11
-6.81914e-10
2.16033e-15
5.29544e-11
-7.35395e-10
1.89826e-15
5.32858e-11
-7.92531e-10
1.78801e-15
5.69437e-11
-8.56481e-10
1.79186e-15
6.37584e-11
-9.30159e-10
1.87596e-15
7.34875e-11
-1.0162e-09
2.00302e-15
8.58442e-11
-1.11691e-09
2.17389e-15
1.00515e-10
-1.23427e-09
2.38946e-15
1.1717e-10
-1.36995e-09
2.6536e-15
1.35471e-10
-1.52523e-09
2.96807e-15
1.55077e-10
-1.70109e-09
3.33112e-15
1.75649e-10
-1.89815e-09
3.73364e-15
1.9685e-10
-2.11673e-09
4.16089e-15
2.18355e-10
-2.3568e-09
4.60594e-15
2.39846e-10
-2.61806e-09
5.05663e-15
2.61023e-10
-2.8999e-09
5.50517e-15
2.81599e-10
-3.20145e-09
5.94548e-15
3.01307e-10
-3.52161e-09
6.37605e-15
3.19901e-10
-3.85903e-09
6.7921e-15
3.37159e-10
-4.21218e-09
7.19081e-15
3.52883e-10
-4.57935e-09
7.56699e-15
3.66901e-10
-4.95871e-09
7.92279e-15
3.79067e-10
-5.34826e-09
8.25302e-15
3.89263e-10
-5.74596e-09
8.55811e-15
3.97399e-10
-6.14968e-09
8.83437e-15
4.03412e-10
-6.55726e-09
9.08159e-15
4.07264e-10
-6.96653e-09
9.29629e-15
4.08945e-10
-7.37533e-09
9.4774e-15
4.08468e-10
-7.78153e-09
9.62643e-15
4.05867e-10
-8.18308e-09
9.7412e-15
4.012e-10
-8.57797e-09
9.81956e-15
3.94542e-10
-8.96431e-09
9.86151e-15
3.85985e-10
-9.34031e-09
9.86725e-15
3.75633e-10
-9.70428e-09
9.83527e-15
3.63606e-10
-1.00547e-08
9.76773e-15
3.50031e-10
-1.03901e-08
9.66443e-15
3.35041e-10
-1.07093e-08
9.52731e-15
3.18777e-10
-1.1011e-08
9.35745e-15
3.01382e-10
-1.12944e-08
9.15854e-15
2.82998e-10
-1.15586e-08
8.93124e-15
2.6377e-10
-1.18028e-08
8.67987e-15
2.43839e-10
-1.20265e-08
8.4066e-15
2.23341e-10
-1.22293e-08
8.11383e-15
2.02409e-10
-1.24109e-08
7.80588e-15
1.81169e-10
-1.2571e-08
7.48492e-15
1.59744e-10
-1.27097e-08
7.15248e-15
1.38244e-10
-1.28268e-08
6.81396e-15
1.16777e-10
-1.29227e-08
6.46938e-15
9.54402e-11
-1.29974e-08
6.12328e-15
7.4326e-11
-1.30513e-08
5.77372e-15
5.35194e-11
-1.30847e-08
5.42524e-15
3.30999e-11
-1.30983e-08
5.07048e-15
1.31419e-11
-1.30923e-08
4.7318e-15
-6.29592e-12
-1.30675e-08
4.40782e-15
-2.52055e-11
-1.30243e-08
4.07929e-15
-4.35705e-11
-1.29633e-08
3.75098e-15
-6.13409e-11
-1.28852e-08
3.42527e-15
-7.84779e-11
-1.27906e-08
3.10195e-15
-9.49517e-11
-1.26802e-08
2.77972e-15
-1.10741e-10
-1.25547e-08
2.46008e-15
-1.2583e-10
-1.24148e-08
2.14197e-15
-1.40211e-10
-1.22612e-08
1.82125e-15
-1.53879e-10
-1.20947e-08
1.50075e-15
-1.66832e-10
-1.19159e-08
1.17982e-15
-1.79073e-10
-1.17256e-08
8.59316e-16
-1.90609e-10
-1.15245e-08
5.37298e-16
-2.01448e-10
-1.13132e-08
2.1528e-16
-2.11599e-10
-1.10924e-08
-1.07388e-16
-2.21077e-10
-1.08627e-08
-4.2919e-16
-2.29895e-10
-1.06249e-08
-7.46656e-16
-2.38069e-10
-1.03796e-08
-1.0613e-15
-2.45616e-10
-1.01272e-08
-1.36923e-15
-2.52553e-10
-9.86859e-09
-1.67217e-15
-2.589e-10
-9.60414e-09
-1.96774e-15
-2.64677e-10
-9.33447e-09
-2.25637e-15
-2.69902e-10
-9.06009e-09
-2.53308e-15
-2.74598e-10
-8.78151e-09
-2.80349e-15
-2.78784e-10
-8.49923e-09
-3.06156e-15
-2.82482e-10
-8.21372e-09
-3.30769e-15
-2.85712e-10
-7.92541e-09
-3.54082e-15
-2.88496e-10
-7.63474e-09
-3.7579e-15
-2.90855e-10
-7.34211e-09
-3.95764e-15
-2.92809e-10
-7.0479e-09
-4.13699e-15
-2.9438e-10
-6.75248e-09
-4.29532e-15
-2.95587e-10
-6.45618e-09
-4.43131e-15
-2.96451e-10
-6.15935e-09
-4.54259e-15
-2.96991e-10
-5.86227e-09
-4.62763e-15
-2.97226e-10
-5.56523e-09
-4.68666e-15
-2.97175e-10
-5.26851e-09
-4.72053e-15
-2.96857e-10
-4.97236e-09
-4.73099e-15
-2.96288e-10
-4.677e-09
-4.71543e-15
-2.95486e-10
-4.38265e-09
-4.67732e-15
-2.94469e-10
-4.08951e-09
-4.6223e-15
-2.93253e-10
-3.79777e-09
-4.54603e-15
-2.91854e-10
-3.5076e-09
-4.45415e-15
-2.90288e-10
-3.21913e-09
-4.34537e-15
-2.8857e-10
-2.93252e-09
-4.21923e-15
-2.86716e-10
-2.64788e-09
-4.08009e-15
-2.84739e-10
-2.36532e-09
-3.92664e-15
-2.82654e-10
-2.08495e-09
-3.75974e-15
-2.80468e-10
-1.80684e-09
-3.57984e-15
-2.78204e-10
-1.53107e-09
-3.3839e-15
-2.75866e-10
-1.25767e-09
-3.17971e-15
-2.73488e-10
-9.86744e-10
-2.97076e-15
-2.71014e-10
-7.183e-10
-2.75704e-15
-2.68533e-10
-4.52301e-10
-2.53378e-15
-2.66088e-10
-1.8884e-10
-2.30141e-15
-2.63549e-10
7.1995e-11
-2.08119e-15
-2.60925e-10
3.30062e-10
-1.8796e-15
-2.58157e-10
5.85281e-10
-1.69707e-15
-2.5531e-10
8.37654e-10
-1.55443e-15
-2.52465e-10
1.08718e-09
-1.43564e-15
-2.49619e-10
1.33387e-09
-1.3303e-15
-2.46781e-10
1.57772e-09
-1.23536e-15
-2.43953e-10
1.81876e-09
-1.14475e-15
-2.4114e-10
2.05701e-09
-1.05544e-15
-2.38348e-10
2.29249e-09
-9.60056e-16
-2.35583e-10
2.52523e-09
-8.50792e-16
-2.3285e-10
2.75528e-09
-7.23746e-16
-2.30157e-10
2.98267e-09
-5.72846e-16
-2.27506e-10
3.20745e-09
-3.95923e-16
-2.24905e-10
3.42968e-09
-1.93845e-16
-2.22355e-10
3.64941e-09
3.55559e-17
-2.19861e-10
3.8667e-09
2.93148e-16
-2.17423e-10
4.0816e-09
5.74595e-16
-2.15042e-10
4.29417e-09
8.78595e-16
-2.12715e-10
4.50445e-09
1.20211e-15
-2.10438e-10
4.7125e-09
1.53951e-15
-2.08204e-10
4.91834e-09
1.88428e-15
-2.06004e-10
5.12199e-09
2.2321e-15
-2.03825e-10
5.32346e-09
2.58035e-15
-2.01651e-10
5.52274e-09
2.91949e-15
-1.99463e-10
5.71978e-09
3.24606e-15
-1.97235e-10
5.91453e-09
3.55703e-15
-1.9494e-10
6.10687e-09
3.84501e-15
-1.92544e-10
6.29666e-09
4.10914e-15
-1.90009e-10
6.48374e-09
4.34509e-15
-1.87292e-10
6.66786e-09
4.55242e-15
-1.84342e-10
6.84873e-09
4.72723e-15
-1.81105e-10
7.02602e-09
4.86907e-15
-1.77521e-10
7.19931e-09
4.97363e-15
-1.73524e-10
7.3681e-09
5.04349e-15
-1.69042e-10
7.53185e-09
5.07866e-15
-1.63998e-10
7.68991e-09
5.07871e-15
-1.5831e-10
7.84154e-09
5.04667e-15
-1.51892e-10
7.98593e-09
4.9847e-15
-1.44652e-10
8.12217e-09
4.89585e-15
-1.36497e-10
8.24923e-09
4.78445e-15
-1.2733e-10
8.36601e-09
4.65354e-15
-1.17055e-10
8.47132e-09
4.50224e-15
-1.05574e-10
8.56383e-09
4.33576e-15
-9.27923e-11
8.64218e-09
4.15584e-15
-7.86216e-11
8.70489e-09
3.96204e-15
-6.29814e-11
8.75042e-09
3.75306e-15
-4.58069e-11
8.7772e-09
3.5302e-15
-2.70553e-11
8.78364e-09
3.26701e-15
-6.72527e-12
8.76808e-09
3.02976e-15
1.52937e-11
8.72862e-09
2.82598e-15
3.91779e-11
8.66338e-09
2.59401e-15
6.49702e-11
8.57046e-09
2.35683e-15
9.26506e-11
8.44801e-09
2.11879e-15
1.22177e-10
8.29426e-09
1.88898e-15
1.53481e-10
8.10754e-09
1.66958e-15
1.86462e-10
7.88629e-09
1.46578e-15
2.20985e-10
7.62916e-09
1.28149e-15
2.56871e-10
7.33501e-09
1.12279e-15
2.93892e-10
7.003e-09
9.89223e-16
3.31763e-10
6.63262e-09
8.82973e-16
3.70138e-10
6.22378e-09
8.09239e-16
4.08599e-10
5.77689e-09
7.62815e-16
4.46648e-10
5.29296e-09
7.52375e-16
4.83696e-10
4.77367e-09
7.74449e-16
5.19051e-10
4.22155e-09
8.34673e-16
5.51898e-10
3.64004e-09
9.36951e-16
5.81283e-10
3.03373e-09
1.08258e-15
6.06082e-10
2.40855e-09
1.26897e-15
6.2496e-10
1.77201e-09
1.48614e-15
6.36324e-10
1.13355e-09
1.71761e-15
6.38241e-10
5.05e-10
1.95863e-15
6.28335e-10
-9.87274e-11
2.19445e-15
6.03513e-10
-6.57977e-10
2.38218e-15
5.59038e-10
-1.14878e-09
2.56175e-15
4.90598e-10
-1.54308e-09
2.76089e-15
3.94094e-10
-1.80733e-09
2.89721e-15
2.64053e-10
-1.90311e-09
2.87619e-15
9.55909e-11
-1.7941e-09
2.56911e-15
-1.09204e-10
-1.46142e-09
1.96186e-15
-3.32886e-10
-9.36172e-10
1.41272e-15
-5.25458e-10
-3.5928e-10
1.59004e-15
-5.77122e-10
1.05353e-16
-3.5953e-10
2.90679e-11
-2.92383e-11
5.13079e-12
2.34477e-11
-6.82701e-11
7.30378e-11
-1.64305e-10
9.5733e-11
-2.63618e-10
9.90361e-11
-3.56325e-10
9.24457e-11
-4.38572e-10
8.19953e-11
-5.10076e-10
7.12617e-11
-5.72548e-10
6.22365e-11
-6.28741e-10
5.59617e-11
-6.81884e-10
5.29166e-11
-7.35355e-10
5.32487e-11
-7.92483e-10
5.69073e-11
-8.56424e-10
6.37223e-11
-9.30096e-10
7.34517e-11
-1.01613e-09
8.58085e-11
-1.11683e-09
1.00479e-10
-1.23419e-09
1.17134e-10
-1.36986e-09
1.35435e-10
-1.52514e-09
1.55042e-10
-1.70099e-09
1.75613e-10
-1.89806e-09
1.96814e-10
-2.11663e-09
2.18319e-10
-2.3567e-09
2.39811e-10
-2.61795e-09
2.60987e-10
-2.89979e-09
2.81563e-10
-3.20134e-09
3.0127e-10
-3.52149e-09
3.19864e-10
-3.85891e-09
3.37122e-10
-4.21206e-09
3.52846e-10
-4.57923e-09
3.66862e-10
-4.95858e-09
3.79028e-10
-5.34814e-09
3.89223e-10
-5.74584e-09
3.97359e-10
-6.14956e-09
4.03371e-10
-6.55714e-09
4.07222e-10
-6.9664e-09
4.08903e-10
-7.3752e-09
4.08424e-10
-7.78141e-09
4.05823e-10
-8.18295e-09
4.01156e-10
-8.57785e-09
3.94497e-10
-8.96419e-09
3.85939e-10
-9.34019e-09
3.75587e-10
-9.70416e-09
3.63559e-10
-1.00546e-08
3.49983e-10
-1.039e-08
3.34992e-10
-1.07091e-08
3.18728e-10
-1.10109e-08
3.01331e-10
-1.12943e-08
2.82947e-10
-1.15585e-08
2.63719e-10
-1.18027e-08
2.43787e-10
-1.20264e-08
2.23288e-10
-1.22292e-08
2.02355e-10
-1.24108e-08
1.81116e-10
-1.25709e-08
1.5969e-10
-1.27095e-08
1.3819e-10
-1.28267e-08
1.16722e-10
-1.29225e-08
9.53857e-11
-1.29973e-08
7.42714e-11
-1.30512e-08
5.3465e-11
-1.30846e-08
3.30456e-11
-1.30981e-08
1.30879e-11
-1.30922e-08
-6.34965e-12
-1.30674e-08
-2.52588e-11
-1.30242e-08
-4.36235e-11
-1.29632e-08
-6.13934e-11
-1.28851e-08
-7.85299e-11
-1.27905e-08
-9.50033e-11
-1.26801e-08
-1.10792e-10
-1.25546e-08
-1.25881e-10
-1.24147e-08
-1.40261e-10
-1.22611e-08
-1.53928e-10
-1.20946e-08
-1.6688e-10
-1.19158e-08
-1.79121e-10
-1.17255e-08
-1.90656e-10
-1.15244e-08
-2.01494e-10
-1.1313e-08
-2.11645e-10
-1.10922e-08
-2.21123e-10
-1.08626e-08
-2.2994e-10
-1.06248e-08
-2.38113e-10
-1.03794e-08
-2.4566e-10
-1.01271e-08
-2.52597e-10
-9.86848e-09
-2.58943e-10
-9.60404e-09
-2.64719e-10
-9.33436e-09
-2.69944e-10
-9.05998e-09
-2.74639e-10
-8.78141e-09
-2.78824e-10
-8.49913e-09
-2.82522e-10
-8.21362e-09
-2.85751e-10
-7.92531e-09
-2.88535e-10
-7.63464e-09
-2.90893e-10
-7.34201e-09
-2.92847e-10
-7.0478e-09
-2.94417e-10
-6.75238e-09
-2.95624e-10
-6.45609e-09
-2.96487e-10
-6.15925e-09
-2.97026e-10
-5.86217e-09
-2.97261e-10
-5.56514e-09
-2.97209e-10
-5.26842e-09
-2.9689e-10
-4.97226e-09
-2.9632e-10
-4.6769e-09
-2.95518e-10
-4.38255e-09
-2.945e-10
-4.08942e-09
-2.93283e-10
-3.79768e-09
-2.91883e-10
-3.5075e-09
-2.90316e-10
-3.21904e-09
-2.88598e-10
-2.93243e-09
-2.86743e-10
-2.64779e-09
-2.84766e-10
-2.36524e-09
-2.8268e-10
-2.08487e-09
-2.80493e-10
-1.80676e-09
-2.78229e-10
-1.53098e-09
-2.7589e-10
-1.25759e-09
-2.73512e-10
-9.86663e-10
-2.71037e-10
-7.1822e-10
-2.68556e-10
-4.52222e-10
-2.66111e-10
-1.88763e-10
-2.63571e-10
7.20701e-11
-2.60946e-10
3.30135e-10
-2.58178e-10
5.85352e-10
-2.55331e-10
8.37723e-10
-2.52486e-10
1.08725e-09
-2.49641e-10
1.33393e-09
-2.46803e-10
1.57779e-09
-2.43975e-10
1.81883e-09
-2.41163e-10
2.05707e-09
-2.38372e-10
2.29255e-09
-2.35608e-10
2.52529e-09
-2.32876e-10
2.75534e-09
-2.30183e-10
2.98273e-09
-2.27533e-10
3.20751e-09
-2.24932e-10
3.42974e-09
-2.22384e-10
3.64947e-09
-2.1989e-10
3.86676e-09
-2.17453e-10
4.08166e-09
-2.15072e-10
4.29423e-09
-2.12745e-10
4.50451e-09
-2.10468e-10
4.71255e-09
-2.08235e-10
4.91839e-09
-2.06035e-10
5.12204e-09
-2.03857e-10
5.32351e-09
-2.01683e-10
5.52279e-09
-1.99495e-10
5.71983e-09
-1.97267e-10
5.91457e-09
-1.94973e-10
6.10691e-09
-1.92577e-10
6.29671e-09
-1.90043e-10
6.48378e-09
-1.87326e-10
6.6679e-09
-1.84376e-10
6.84877e-09
-1.8114e-10
7.02606e-09
-1.77557e-10
7.19934e-09
-1.7356e-10
7.36814e-09
-1.69078e-10
7.53188e-09
-1.64035e-10
7.68994e-09
-1.58348e-10
7.84157e-09
-1.5193e-10
7.98596e-09
-1.44691e-10
8.1222e-09
-1.36537e-10
8.24926e-09
-1.27371e-10
8.36604e-09
-1.17096e-10
8.47134e-09
-1.05615e-10
8.56386e-09
-9.2834e-11
8.64221e-09
-7.86635e-11
8.70492e-09
-6.30234e-11
8.75045e-09
-4.58489e-11
8.77722e-09
-2.70972e-11
8.78367e-09
-6.76699e-12
8.7681e-09
1.52521e-11
8.72865e-09
3.91361e-11
8.66341e-09
6.49284e-11
8.57048e-09
9.26089e-11
8.44804e-09
1.22135e-10
8.29429e-09
1.53439e-10
8.10756e-09
1.86421e-10
7.88632e-09
2.20945e-10
7.62919e-09
2.56831e-10
7.33504e-09
2.93852e-10
7.00303e-09
3.31724e-10
6.63264e-09
3.70099e-10
6.2238e-09
4.08561e-10
5.77691e-09
4.46611e-10
5.29298e-09
4.8366e-10
4.77369e-09
5.19015e-10
4.22157e-09
5.51863e-10
3.64005e-09
5.81249e-10
3.03375e-09
6.06048e-10
2.40857e-09
6.24926e-10
1.77202e-09
6.36291e-10
1.13356e-09
6.38208e-10
5.05008e-10
6.28302e-10
-9.87199e-11
6.0348e-10
-6.57969e-10
5.59007e-10
-1.14877e-09
4.90568e-10
-1.54307e-09
3.94066e-10
-1.80732e-09
2.64025e-10
-1.90311e-09
9.55626e-11
-1.7941e-09
-1.09232e-10
-1.46142e-09
-3.32916e-10
-9.36185e-10
-5.25489e-10
-3.59303e-10
-5.77159e-10
-3.5957e-10
-2.68467e-11
-1.69815e-15
-2.73105e-12
-1.05187e-10
-2.52092e-15
1.01274e-10
-2.0017e-10
-5.71663e-16
1.67721e-10
-2.95313e-10
-3.04035e-16
1.90635e-10
-3.83936e-10
2.70555e-16
1.8744e-10
-4.63227e-10
5.95677e-16
1.71533e-10
-5.3287e-10
7.05805e-16
1.51445e-10
-5.94159e-10
6.96693e-16
1.32365e-10
-6.49383e-10
6.44124e-16
1.17282e-10
-7.01403e-10
5.78168e-16
1.07807e-10
-7.53349e-10
5.20681e-16
1.04691e-10
-8.08421e-10
4.81824e-16
1.08151e-10
-8.69752e-10
4.61142e-16
1.1807e-10
-9.40314e-10
4.49295e-16
1.34116e-10
-1.02286e-09
4.41284e-16
1.55824e-10
-1.11986e-09
4.34283e-16
1.8264e-10
-1.23351e-09
4.32297e-16
2.13953e-10
-1.36567e-09
4.38031e-16
2.49118e-10
-1.51789e-09
4.53649e-16
2.87468e-10
-1.69136e-09
4.78717e-16
3.28326e-10
-1.88696e-09
5.10737e-16
3.71017e-10
-2.10521e-09
5.47216e-16
4.14873e-10
-2.34634e-09
5.84248e-16
4.59241e-10
-2.61022e-09
6.1934e-16
5.03488e-10
-2.89646e-09
6.50648e-16
5.47009e-10
-3.20435e-09
6.77196e-16
5.89233e-10
-3.53294e-09
6.97466e-16
6.29626e-10
-3.881e-09
7.11457e-16
6.67696e-10
-4.24712e-09
7.18519e-16
7.02997e-10
-4.62966e-09
7.18869e-16
7.35133e-10
-5.02681e-09
7.11313e-16
7.63761e-10
-5.43664e-09
6.96828e-16
7.88591e-10
-5.85708e-09
6.74545e-16
8.09388e-10
-6.28597e-09
6.45224e-16
8.25972e-10
-6.7211e-09
6.09407e-16
8.38217e-10
-7.16022e-09
5.67201e-16
8.46049e-10
-7.60107e-09
5.18174e-16
8.49449e-10
-8.04139e-09
4.63951e-16
8.48442e-10
-8.47898e-09
4.04262e-16
8.43099e-10
-8.91168e-09
3.39701e-16
8.33536e-10
-9.33741e-09
2.70107e-16
8.19901e-10
-9.75418e-09
1.96563e-16
8.0238e-10
-1.01601e-08
1.18961e-16
7.81184e-10
-1.05534e-08
3.70289e-17
7.56549e-10
-1.09325e-08
-4.82035e-17
7.28731e-10
-1.12959e-08
-1.36628e-16
6.98e-10
-1.16421e-08
-2.27812e-16
6.64637e-10
-1.19701e-08
-3.20833e-16
6.28928e-10
-1.22787e-08
-4.1526e-16
5.91164e-10
-1.25669e-08
-5.10115e-16
5.51632e-10
-1.28341e-08
-6.04099e-16
5.10617e-10
-1.30796e-08
-6.97591e-16
4.68395e-10
-1.33028e-08
-7.88532e-16
4.25237e-10
-1.35034e-08
-8.76705e-16
3.81397e-10
-1.36812e-08
-9.61244e-16
3.3712e-10
-1.3836e-08
-1.04117e-15
2.92635e-10
-1.39678e-08
-1.11627e-15
2.48158e-10
-1.40766e-08
-1.18536e-15
2.03887e-10
-1.41627e-08
-1.24891e-15
1.60005e-10
-1.42262e-08
-1.30676e-15
1.16681e-10
-1.42676e-08
-1.35757e-15
7.40669e-11
-1.42871e-08
-1.40014e-15
3.22978e-11
-1.42853e-08
-1.43811e-15
-8.51084e-12
-1.42626e-08
-1.47109e-15
-4.82753e-11
-1.42196e-08
-1.49484e-15
-8.6921e-11
-1.41569e-08
-1.51193e-15
-1.2437e-10
-1.40752e-08
-1.5236e-15
-1.60556e-10
-1.39751e-08
-1.52979e-15
-1.95427e-10
-1.38572e-08
-1.53104e-15
-2.28941e-10
-1.37223e-08
-1.5284e-15
-2.61069e-10
-1.35711e-08
-1.52228e-15
-2.91791e-10
-1.34042e-08
-1.51372e-15
-3.21095e-10
-1.32223e-08
-1.50219e-15
-3.48977e-10
-1.30263e-08
-1.48788e-15
-3.75442e-10
-1.28167e-08
-1.4713e-15
-4.00499e-10
-1.25943e-08
-1.45272e-15
-4.24163e-10
-1.23597e-08
-1.43186e-15
-4.46452e-10
-1.21137e-08
-1.4098e-15
-4.67391e-10
-1.18568e-08
-1.38666e-15
-4.87005e-10
-1.15898e-08
-1.36293e-15
-5.05323e-10
-1.13133e-08
-1.33789e-15
-5.22378e-10
-1.10279e-08
-1.31177e-15
-5.38201e-10
-1.07342e-08
-1.28451e-15
-5.52829e-10
-1.04328e-08
-1.2559e-15
-5.66299e-10
-1.01243e-08
-1.2262e-15
-5.78646e-10
-9.80922e-09
-1.19542e-15
-5.89909e-10
-9.48809e-09
-1.16355e-15
-6.00126e-10
-9.16144e-09
-1.13006e-15
-6.09336e-10
-8.82977e-09
-1.09538e-15
-6.17578e-10
-8.49356e-09
-1.05864e-15
-6.2489e-10
-8.15329e-09
-1.02038e-15
-6.3131e-10
-7.8094e-09
-9.79838e-16
-6.36876e-10
-7.46233e-09
-9.36917e-16
-6.41626e-10
-7.11248e-09
-8.91719e-16
-6.45596e-10
-6.76027e-09
-8.4392e-16
-6.48823e-10
-6.40607e-09
-7.93303e-16
-6.51342e-10
-6.05026e-09
-7.39868e-16
-6.53187e-10
-5.69318e-09
-6.83723e-16
-6.54393e-10
-5.33518e-09
-6.25303e-16
-6.54992e-10
-4.97659e-09
-5.64607e-16
-6.55017e-10
-4.6177e-09
-5.01526e-16
-6.54499e-10
-4.25882e-09
-4.36712e-16
-6.53472e-10
-3.90023e-09
-3.71356e-16
-6.51964e-10
-3.54219e-09
-3.05676e-16
-6.50008e-10
-3.18496e-09
-2.40213e-16
-6.47633e-10
-2.82877e-09
-1.75076e-16
-6.44869e-10
-2.47384e-09
-1.11025e-16
-6.41745e-10
-2.1204e-09
-4.8275e-17
-6.3829e-10
-1.76862e-09
1.33898e-17
-6.3453e-10
-1.4187e-09
7.29937e-17
-6.30488e-10
-1.0708e-09
1.29019e-16
-6.26205e-10
-7.25067e-10
1.80815e-16
-6.2169e-10
-3.81663e-10
2.30443e-16
-6.16987e-10
-4.06627e-11
2.75733e-16
-6.12108e-10
2.97662e-10
3.1116e-16
-6.06951e-10
6.3303e-10
3.39332e-16
-6.0155e-10
9.6536e-10
3.65338e-16
-5.95973e-10
1.29455e-09
3.84946e-16
-5.90207e-10
1.62052e-09
3.98266e-16
-5.84223e-10
1.94319e-09
4.01938e-16
-5.7808e-10
2.26248e-09
3.90758e-16
-5.71852e-10
2.57832e-09
3.69389e-16
-5.65558e-10
2.89065e-09
3.39131e-16
-5.59218e-10
3.19945e-09
3.01612e-16
-5.52849e-10
3.50467e-09
2.57481e-16
-5.46469e-10
3.8063e-09
2.08473e-16
-5.40095e-10
4.10435e-09
1.5784e-16
-5.33743e-10
4.39881e-09
1.06667e-16
-5.27431e-10
4.6897e-09
5.64704e-17
-5.21174e-10
4.97706e-09
8.8777e-18
-5.14987e-10
5.2609e-09
-3.52441e-17
-5.08884e-10
5.54128e-09
-7.45941e-17
-5.02874e-10
5.81825e-09
-1.09389e-16
-4.96967e-10
6.09184e-09
-1.38328e-16
-4.91168e-10
6.36212e-09
-1.61844e-16
-4.85479e-10
6.62914e-09
-1.79287e-16
-4.79896e-10
6.89295e-09
-1.90982e-16
-4.74413e-10
7.15359e-09
-1.98446e-16
-4.69016e-10
7.41109e-09
-2.02438e-16
-4.63685e-10
7.66547e-09
-2.03176e-16
-4.58396e-10
7.91674e-09
-2.01851e-16
-4.53113e-10
8.16487e-09
-1.9868e-16
-4.47795e-10
8.40982e-09
-1.94206e-16
-4.42391e-10
8.65151e-09
-1.90054e-16
-4.36842e-10
8.88982e-09
-1.86983e-16
-4.31075e-10
9.12459e-09
-1.85644e-16
-4.25011e-10
9.35562e-09
-1.86472e-16
-4.18555e-10
9.58265e-09
-1.8979e-16
-4.11605e-10
9.80534e-09
-1.96359e-16
-4.04043e-10
1.00233e-08
-2.05745e-16
-3.95742e-10
1.02361e-08
-2.18489e-16
-3.86563e-10
1.04432e-08
-2.33833e-16
-3.76354e-10
1.06438e-08
-2.51453e-16
-3.64952e-10
1.08374e-08
-2.70805e-16
-3.52185e-10
1.10232e-08
-2.91565e-16
-3.37868e-10
1.12e-08
-3.13299e-16
-3.21812e-10
1.13671e-08
-3.35358e-16
-3.03817e-10
1.15231e-08
-3.5785e-16
-2.83678e-10
1.1667e-08
-3.79583e-16
-2.61191e-10
1.17973e-08
-4.00991e-16
-2.36148e-10
1.19125e-08
-4.21099e-16
-2.08346e-10
1.20112e-08
-4.40124e-16
-1.77588e-10
1.20916e-08
-4.5839e-16
-1.43691e-10
1.2152e-08
-4.75466e-16
-1.06489e-10
1.21905e-08
-4.90808e-16
-6.5838e-11
1.22051e-08
-5.00187e-16
-2.16211e-11
1.21938e-08
-5.11176e-16
2.63143e-11
1.21546e-08
-5.23158e-16
7.81525e-11
1.20853e-08
-5.28316e-16
1.3399e-10
1.19838e-08
-5.30659e-16
1.93835e-10
1.18481e-08
-5.30187e-16
2.57643e-10
1.1676e-08
-5.27117e-16
3.25302e-10
1.14655e-08
-5.21452e-16
3.96635e-10
1.12148e-08
-5.12866e-16
4.71386e-10
1.09222e-08
-5.01144e-16
5.49209e-10
1.05862e-08
-4.86179e-16
6.29658e-10
1.02055e-08
-4.68189e-16
7.12172e-10
9.77937e-09
-4.47716e-16
7.96061e-10
9.30723e-09
-4.24546e-16
8.8049e-10
8.78917e-09
-3.98461e-16
9.6446e-10
8.22584e-09
-3.71199e-16
1.04678e-09
7.61859e-09
-3.407e-16
1.12606e-09
6.96959e-09
-3.06747e-16
1.20066e-09
6.28201e-09
-2.69883e-16
1.26863e-09
5.56015e-09
-2.28264e-16
1.32771e-09
4.80967e-09
-1.83516e-16
1.37522e-09
4.0378e-09
-1.40624e-16
1.40796e-09
3.2537e-09
-1.00669e-16
1.42211e-09
2.4688e-09
-6.28851e-17
1.41301e-09
1.69716e-09
-1.91338e-17
1.37494e-09
9.55518e-10
5.35845e-17
1.30046e-09
2.6423e-10
1.61468e-16
1.18167e-09
-3.51336e-10
2.74618e-16
1.00945e-09
-8.61219e-10
3.49269e-16
7.73722e-10
-1.23216e-09
3.24284e-16
4.6631e-10
-1.42646e-09
1.73782e-16
8.48728e-11
-1.40428e-09
-1.11666e-16
-3.55313e-10
-1.1262e-09
-4.34782e-16
-8.03817e-10
-5.75603e-10
-4.96705e-16
-1.12806e-09
-2.67466e-15
-9.35366e-10
-2.69504e-11
-2.76961e-12
-1.05259e-10
1.01218e-10
-2.00222e-10
1.67682e-10
-2.9535e-10
1.90605e-10
-3.83957e-10
1.87413e-10
-4.63234e-10
1.71507e-10
-5.32864e-10
1.5142e-10
-5.94141e-10
1.3234e-10
-6.49354e-10
1.17258e-10
-7.01365e-10
1.07784e-10
-7.53302e-10
1.04669e-10
-8.08365e-10
1.0813e-10
-8.69688e-10
1.18049e-10
-9.40244e-10
1.34096e-10
-1.02278e-09
1.55805e-10
-1.11978e-09
1.82622e-10
-1.23342e-09
2.13936e-10
-1.36558e-09
2.49102e-10
-1.51779e-09
2.87452e-10
-1.69126e-09
3.28311e-10
-1.88685e-09
3.71003e-10
-2.1051e-09
4.1486e-10
-2.34622e-09
4.59229e-10
-2.61011e-09
5.03477e-10
-2.89634e-09
5.46999e-10
-3.20423e-09
5.89224e-10
-3.53281e-09
6.29618e-10
-3.88088e-09
6.67688e-10
-4.24699e-09
7.0299e-10
-4.62952e-09
7.35127e-10
-5.02668e-09
7.63755e-10
-5.4365e-09
7.88586e-10
-5.85694e-09
8.09383e-10
-6.28583e-09
8.25967e-10
-6.72096e-09
8.38212e-10
-7.16008e-09
8.46046e-10
-7.60092e-09
8.49445e-10
-8.04125e-09
8.48439e-10
-8.47883e-09
8.43097e-10
-8.91153e-09
8.33533e-10
-9.33726e-09
8.19899e-10
-9.75403e-09
8.02378e-10
-1.016e-08
7.81181e-10
-1.05533e-08
7.56547e-10
-1.09324e-08
7.28729e-10
-1.12957e-08
6.97997e-10
-1.1642e-08
6.64634e-10
-1.19699e-08
6.28925e-10
-1.22785e-08
5.9116e-10
-1.25668e-08
5.51627e-10
-1.28339e-08
5.10612e-10
-1.30794e-08
4.6839e-10
-1.33026e-08
4.25231e-10
-1.35033e-08
3.81391e-10
-1.3681e-08
3.37113e-10
-1.38358e-08
2.92628e-10
-1.39676e-08
2.48151e-10
-1.40765e-08
2.03879e-10
-1.41625e-08
1.59997e-10
-1.42261e-08
1.16673e-10
-1.42674e-08
7.40586e-11
-1.4287e-08
3.22895e-11
-1.42851e-08
-8.51928e-12
-1.42624e-08
-4.82838e-11
-1.42195e-08
-8.69295e-11
-1.41568e-08
-1.24378e-10
-1.40751e-08
-1.60565e-10
-1.39749e-08
-1.95436e-10
-1.38571e-08
-2.2895e-10
-1.37222e-08
-2.61078e-10
-1.35709e-08
-2.91799e-10
-1.3404e-08
-3.21103e-10
-1.32222e-08
-3.48986e-10
-1.30261e-08
-3.75451e-10
-1.28165e-08
-4.00508e-10
-1.25941e-08
-4.24172e-10
-1.23596e-08
-4.46462e-10
-1.21135e-08
-4.674e-10
-1.18567e-08
-4.87014e-10
-1.15897e-08
-5.05333e-10
-1.13132e-08
-5.22388e-10
-1.10278e-08
-5.38212e-10
-1.07341e-08
-5.5284e-10
-1.04327e-08
-5.66309e-10
-1.01242e-08
-5.78657e-10
-9.80909e-09
-5.8992e-10
-9.48796e-09
-6.00137e-10
-9.16131e-09
-6.09348e-10
-8.82964e-09
-6.1759e-10
-8.49344e-09
-6.24902e-10
-8.15317e-09
-6.31322e-10
-7.80928e-09
-6.36888e-10
-7.46221e-09
-6.41638e-10
-7.11237e-09
-6.45609e-10
-6.76015e-09
-6.48836e-10
-6.40596e-09
-6.51355e-10
-6.05015e-09
-6.532e-10
-5.69307e-09
-6.54405e-10
-5.33508e-09
-6.55004e-10
-4.97648e-09
-6.55028e-10
-4.6176e-09
-6.54511e-10
-4.25872e-09
-6.53483e-10
-3.90013e-09
-6.51975e-10
-3.54209e-09
-6.50018e-10
-3.18486e-09
-6.47643e-10
-2.82867e-09
-6.44879e-10
-2.47375e-09
-6.41755e-10
-2.12031e-09
-6.38299e-10
-1.76853e-09
-6.34539e-10
-1.41861e-09
-6.30496e-10
-1.07071e-09
-6.26213e-10
-7.24983e-10
-6.21698e-10
-3.8158e-10
-6.16995e-10
-4.05817e-11
-6.12115e-10
2.97741e-10
-6.06958e-10
6.33108e-10
-6.01557e-10
9.65437e-10
-5.9598e-10
1.29462e-09
-5.90213e-10
1.62059e-09
-5.84229e-10
1.94327e-09
-5.78086e-10
2.26255e-09
-5.71858e-10
2.57839e-09
-5.65563e-10
2.89072e-09
-5.59224e-10
3.19952e-09
-5.52856e-10
3.50474e-09
-5.46476e-10
3.80637e-09
-5.40103e-10
4.10441e-09
-5.33751e-10
4.39887e-09
-5.2744e-10
4.68977e-09
-5.21183e-10
4.97712e-09
-5.14997e-10
5.26096e-09
-5.08893e-10
5.54134e-09
-5.02884e-10
5.81831e-09
-4.96977e-10
6.0919e-09
-4.91178e-10
6.36218e-09
-4.85489e-10
6.6292e-09
-4.79906e-10
6.893e-09
-4.74422e-10
7.15364e-09
-4.69024e-10
7.41114e-09
-4.63693e-10
7.66552e-09
-4.58403e-10
7.91679e-09
-4.5312e-10
8.16492e-09
-4.47801e-10
8.40987e-09
-4.42397e-10
8.65155e-09
-4.36847e-10
8.88986e-09
-4.31081e-10
9.12464e-09
-4.25016e-10
9.35567e-09
-4.18561e-10
9.58269e-09
-4.1161e-10
9.80538e-09
-4.04048e-10
1.00234e-08
-3.95747e-10
1.02361e-08
-3.86568e-10
1.04432e-08
-3.76359e-10
1.06439e-08
-3.64957e-10
1.08375e-08
-3.5219e-10
1.10232e-08
-3.37874e-10
1.12001e-08
-3.21818e-10
1.13671e-08
-3.03823e-10
1.15232e-08
-2.83686e-10
1.1667e-08
-2.61199e-10
1.17973e-08
-2.36156e-10
1.19126e-08
-2.08354e-10
1.20113e-08
-1.77596e-10
1.20917e-08
-1.437e-10
1.21521e-08
-1.06498e-10
1.21906e-08
-6.5846e-11
1.22052e-08
-2.1629e-11
1.21939e-08
2.63064e-11
1.21546e-08
7.81445e-11
1.20853e-08
1.33981e-10
1.19838e-08
1.93827e-10
1.18481e-08
2.57634e-10
1.1676e-08
3.25293e-10
1.14656e-08
3.96627e-10
1.12149e-08
4.71377e-10
1.09223e-08
5.49201e-10
1.05863e-08
6.2965e-10
1.02056e-08
7.12165e-10
9.77941e-09
7.96055e-10
9.30727e-09
8.80485e-10
8.78921e-09
9.64456e-10
8.22587e-09
1.04678e-09
7.61862e-09
1.12606e-09
6.96962e-09
1.20065e-09
6.28204e-09
1.26863e-09
5.56018e-09
1.32771e-09
4.80969e-09
1.37522e-09
4.03782e-09
1.40796e-09
3.25372e-09
1.42211e-09
2.46882e-09
1.41301e-09
1.69717e-09
1.37494e-09
9.55529e-10
1.30046e-09
2.6424e-10
1.18167e-09
-3.51328e-10
1.00945e-09
-8.61212e-10
7.73719e-10
-1.23215e-09
4.66306e-10
-1.42646e-09
8.48665e-11
-1.40428e-09
-3.5532e-10
-1.1262e-09
-8.03826e-10
-5.75625e-10
-1.12807e-09
-9.35384e-10
-7.56312e-11
-9.33407e-16
7.25909e-11
-1.70811e-10
-9.97455e-16
1.96095e-10
-2.54836e-10
3.15148e-16
2.51604e-10
-3.28407e-10
2.91067e-16
2.64108e-10
-3.93654e-10
6.09818e-16
2.52607e-10
-4.51924e-10
7.48449e-16
2.29732e-10
-5.04508e-10
7.63299e-16
2.03964e-10
-5.5298e-10
7.53704e-16
1.80777e-10
-5.99289e-10
7.55615e-16
1.63534e-10
-6.4569e-10
7.5087e-16
1.54154e-10
-6.9464e-10
7.2908e-16
1.53589e-10
-7.48684e-10
6.97976e-16
1.62145e-10
-8.1036e-10
6.67027e-16
1.79696e-10
-8.82119e-10
6.40343e-16
2.05825e-10
-9.66263e-10
6.18512e-16
2.39918e-10
-1.0649e-09
6.01257e-16
2.81226e-10
-1.1799e-09
5.89279e-16
3.28905e-10
-1.31288e-09
5.82737e-16
3.82053e-10
-1.46519e-09
5.81628e-16
4.39725e-10
-1.63788e-09
5.85137e-16
5.00958e-10
-1.83169e-09
5.91691e-16
5.64782e-10
-2.04711e-09
5.99826e-16
6.30232e-10
-2.28428e-09
6.0813e-16
6.96361e-10
-2.5431e-09
6.15845e-16
7.62251e-10
-2.82317e-09
6.21832e-16
8.2702e-10
-3.12383e-09
6.2571e-16
8.89833e-10
-3.44418e-09
6.2721e-16
9.49909e-10
-3.78307e-09
6.26113e-16
1.00653e-09
-4.13917e-09
6.22311e-16
1.05903e-09
-4.51095e-09
6.15804e-16
1.10685e-09
-4.89672e-09
6.0643e-16
1.14946e-09
-5.29465e-09
5.94106e-16
1.18644e-09
-5.70279e-09
5.78806e-16
1.21745e-09
-6.11911e-09
5.60773e-16
1.24222e-09
-6.54153e-09
5.40171e-16
1.26055e-09
-6.9679e-09
5.17324e-16
1.27234e-09
-7.39609e-09
4.92015e-16
1.27755e-09
-7.82395e-09
4.64786e-16
1.27621e-09
-8.24937e-09
4.35963e-16
1.26843e-09
-8.67029e-09
4.05436e-16
1.25437e-09
-9.08471e-09
3.73749e-16
1.23423e-09
-9.49071e-09
3.40765e-16
1.20829e-09
-9.88648e-09
3.06701e-16
1.17686e-09
-1.02703e-08
2.71556e-16
1.14027e-09
-1.06406e-08
2.35629e-16
1.0989e-09
-1.09958e-08
1.98811e-16
1.05314e-09
-1.13347e-08
1.61428e-16
1.00341e-09
-1.1656e-08
1.23613e-16
9.50128e-10
-1.19586e-08
8.58015e-17
8.93712e-10
-1.22417e-08
4.79924e-17
8.34592e-10
-1.25044e-08
1.09718e-17
7.73186e-10
-1.2746e-08
-2.52606e-17
7.09905e-10
-1.2966e-08
-6.02712e-17
6.45145e-10
-1.3164e-08
-9.36537e-17
5.79289e-10
-1.33397e-08
-1.24866e-16
5.12699e-10
-1.34929e-08
-1.53854e-16
4.45717e-10
-1.36235e-08
-1.80375e-16
3.78663e-10
-1.37315e-08
-2.04102e-16
3.11836e-10
-1.38171e-08
-2.25254e-16
2.45509e-10
-1.38805e-08
-2.43775e-16
1.79932e-10
-1.39219e-08
-2.59423e-16
1.1533e-10
-1.39416e-08
-2.71926e-16
5.19045e-11
-1.394e-08
-2.81475e-16
-1.01695e-11
-1.39176e-08
-2.87878e-16
-7.07404e-11
-1.3875e-08
-2.90947e-16
-1.29677e-10
-1.38126e-08
-2.90762e-16
-1.86865e-10
-1.3731e-08
-2.88057e-16
-2.42208e-10
-1.36309e-08
-2.82694e-16
-2.95627e-10
-1.35129e-08
-2.75407e-16
-3.47059e-10
-1.33776e-08
-2.66304e-16
-3.96457e-10
-1.32257e-08
-2.56008e-16
-4.43788e-10
-1.30578e-08
-2.44519e-16
-4.89032e-10
-1.28747e-08
-2.3181e-16
-5.32179e-10
-1.2677e-08
-2.17827e-16
-5.73232e-10
-1.24654e-08
-2.02706e-16
-6.12201e-10
-1.22405e-08
-1.86554e-16
-6.49104e-10
-1.20031e-08
-1.69317e-16
-6.83966e-10
-1.17537e-08
-1.51566e-16
-7.1682e-10
-1.14931e-08
-1.33625e-16
-7.477e-10
-1.12218e-08
-1.15521e-16
-7.76646e-10
-1.09406e-08
-9.73086e-17
-8.03703e-10
-1.06499e-08
-7.8771e-17
-8.28917e-10
-1.03505e-08
-6.0125e-17
-8.52337e-10
-1.00428e-08
-4.11266e-17
-8.74015e-10
-9.72751e-09
-2.20741e-17
-8.94002e-10
-9.40513e-09
-2.45234e-18
-9.12351e-10
-9.07619e-09
1.68441e-17
-9.29117e-10
-8.74122e-09
3.69537e-17
-9.44354e-10
-8.40074e-09
5.72259e-17
-9.58116e-10
-8.05522e-09
7.81485e-17
-9.70457e-10
-7.70514e-09
9.94505e-17
-9.81431e-10
-7.35097e-09
1.21403e-16
-9.91092e-10
-6.99315e-09
1.43843e-16
-9.99491e-10
-6.63211e-09
1.66771e-16
-1.00668e-09
-6.26826e-09
1.90131e-16
-1.01271e-09
-5.902e-09
2.13872e-16
-1.01764e-09
-5.53373e-09
2.38533e-16
-1.0215e-09
-5.16381e-09
2.63573e-16
-1.02435e-09
-4.7926e-09
2.89047e-16
-1.02624e-09
-4.42045e-09
3.14953e-16
-1.0272e-09
-4.04768e-09
3.41402e-16
-1.0273e-09
-3.67462e-09
3.68175e-16
-1.02657e-09
-3.30156e-09
3.94732e-16
-1.02505e-09
-2.9288e-09
4.21016e-16
-1.0228e-09
-2.55661e-09
4.46867e-16
-1.01985e-09
-2.18526e-09
4.72447e-16
-1.01625e-09
-1.81498e-09
4.97321e-16
-1.01205e-09
-1.446e-09
5.21544e-16
-1.00729e-09
-1.07856e-09
5.44629e-16
-1.002e-09
-7.12845e-10
5.65491e-16
-9.96226e-10
-3.49055e-10
5.85322e-16
-9.90019e-10
1.2628e-11
6.01684e-16
-9.83397e-10
3.71928e-10
6.15173e-16
-9.7631e-10
7.28584e-10
6.27852e-16
-9.68787e-10
1.08245e-09
6.35814e-16
-9.60844e-10
1.43339e-09
6.39872e-16
-9.52507e-10
1.78123e-09
6.41167e-16
-9.43842e-10
2.12587e-09
6.38179e-16
-9.34865e-10
2.46721e-09
6.31397e-16
-9.25592e-10