/*--------------------------------*- C++ -*----------------------------------*\
  =========                 |
  \\      /  F ield         | OpenFOAM: The Open Source CFD Toolbox
   \\    /   O peration     | Website:  https://openfoam.org
    \\  /    A nd           | Version:  8
     \\/     M anipulation  |
\*---------------------------------------------------------------------------*/
FoamFile
{
    version     2.0;
    format      ascii;
    class       volScalarField;
    location    "1900";
    object      T;
}
// * * * * * * * * * * * * * * * * * * * * * * * * * * * * * * * * * * * * * //

dimensions      [0 0 0 1 0 0 0];

internalField   nonuniform List<scalar> 
46000
(
311.325
310.838
310.26
309.798
309.436
309.144
308.9
308.691
308.511
308.352
308.212
308.087
307.975
307.876
307.786
307.705
307.633
307.568
307.509
307.456
307.409
307.366
307.328
307.294
307.263
307.235
307.209
307.187
307.166
307.147
307.13
307.115
307.1
307.087
307.074
307.063
307.051
307.041
307.031
307.021
307.012
307.003
306.994
306.986
306.978
306.97
306.962
306.955
306.948
306.942
306.936
306.93
306.925
306.921
306.917
306.913
306.91
306.908
306.907
306.906
306.906
306.907
306.908
306.909
306.912
306.915
306.919
306.923
306.929
306.935
306.943
306.951
306.959
306.969
306.979
306.99
307.002
307.014
307.027
307.041
307.055
307.07
307.085
307.101
307.117
307.133
307.15
307.167
307.185
307.202
307.22
307.238
307.256
307.275
307.293
307.311
307.329
307.347
307.365
307.383
307.401
307.418
307.436
307.452
307.469
307.485
307.501
307.517
307.532
307.547
307.562
307.576
307.589
307.602
307.615
307.628
307.64
307.651
307.662
307.673
307.684
307.694
307.703
307.713
307.722
307.73
307.739
307.747
307.755
307.763
307.77
307.777
307.785
307.792
307.799
307.806
307.813
307.82
307.827
307.834
307.842
307.849
307.857
307.865
307.874
307.883
307.893
307.903
307.914
307.926
307.938
307.952
307.967
307.982
307.999
308.018
308.037
308.059
308.082
308.107
308.133
308.162
308.193
308.227
308.262
308.301
308.341
308.384
308.43
308.478
308.53
308.585
308.643
308.704
308.77
308.838
308.911
308.987
309.066
309.15
309.237
309.328
309.422
309.519
309.62
309.723
309.829
309.937
310.047
310.158
310.272
310.387
310.504
310.627
310.76
310.907
311.079
311.302
311.59
311.839
311.325
310.838
310.26
309.798
309.436
309.143
308.899
308.691
308.51
308.352
308.212
308.087
307.975
307.875
307.786
307.705
307.633
307.568
307.509
307.456
307.409
307.366
307.328
307.294
307.263
307.235
307.209
307.187
307.166
307.147
307.13
307.115
307.1
307.087
307.074
307.063
307.051
307.041
307.031
307.021
307.012
307.003
306.994
306.986
306.978
306.97
306.962
306.955
306.948
306.942
306.936
306.93
306.925
306.921
306.917
306.913
306.91
306.908
306.907
306.906
306.906
306.907
306.908
306.909
306.912
306.915
306.919
306.923
306.929
306.935
306.943
306.951
306.959
306.969
306.979
306.99
307.002
307.014
307.027
307.041
307.055
307.07
307.085
307.101
307.117
307.133
307.15
307.167
307.185
307.202
307.22
307.238
307.256
307.275
307.293
307.311
307.329
307.347
307.365
307.383
307.401
307.418
307.436
307.452
307.469
307.485
307.501
307.517
307.532
307.547
307.562
307.576
307.589
307.602
307.615
307.628
307.64
307.651
307.662
307.673
307.684
307.694
307.703
307.713
307.722
307.73
307.739
307.747
307.755
307.763
307.77
307.777
307.785
307.792
307.799
307.806
307.813
307.82
307.827
307.834
307.842
307.849
307.857
307.865
307.874
307.883
307.893
307.903
307.914
307.926
307.938
307.952
307.967
307.982
307.999
308.018
308.037
308.059
308.082
308.107
308.133
308.162
308.193
308.227
308.262
308.301
308.341
308.384
308.43
308.478
308.53
308.585
308.643
308.704
308.77
308.838
308.911
308.987
309.066
309.15
309.237
309.328
309.422
309.519
309.62
309.723
309.829
309.937
310.047
310.158
310.272
310.387
310.504
310.627
310.76
310.907
311.079
311.302
311.59
311.839
308.276
307.676
307.12
306.697
306.367
306.102
305.885
305.703
305.549
305.417
305.304
305.206
305.121
305.048
304.985
304.93
304.884
304.844
304.811
304.783
304.76
304.741
304.726
304.714
304.705
304.699
304.694
304.692
304.691
304.691
304.692
304.694
304.696
304.699
304.702
304.704
304.707
304.709
304.711
304.712
304.713
304.714
304.714
304.713
304.712
304.711
304.709
304.706
304.704
304.7
304.697
304.693
304.689
304.685
304.681
304.677
304.672
304.668
304.664
304.66
304.656
304.652
304.649
304.646
304.643
304.64
304.638
304.636
304.634
304.633
304.633
304.633
304.633
304.634
304.635
304.636
304.639
304.641
304.644
304.648
304.652
304.656
304.661
304.666
304.672
304.678
304.684
304.691
304.698
304.705
304.713
304.721
304.729
304.737
304.746
304.755
304.764
304.774
304.783
304.793
304.803
304.813
304.823
304.834
304.844
304.855
304.865
304.876
304.887
304.898
304.909
304.92
304.931
304.942
304.953
304.964
304.975
304.987
304.998
305.009
305.021
305.032
305.044
305.055
305.067
305.078
305.09
305.102
305.113
305.125
305.137
305.149
305.161
305.173
305.186
305.198
305.211
305.224
305.237
305.25
305.264
305.278
305.292
305.307
305.322
305.338
305.354
305.371
305.389
305.407
305.426
305.447
305.468
305.49
305.514
305.538
305.565
305.592
305.622
305.653
305.686
305.721
305.758
305.797
305.839
305.883
305.93
305.98
306.032
306.087
306.146
306.207
306.273
306.341
306.414
306.49
306.57
306.654
306.742
306.834
306.93
307.03
307.133
307.24
307.35
307.462
307.577
307.693
307.811
307.929
308.047
308.166
308.285
308.407
308.536
308.68
308.849
309.063
309.348
309.651
308.276
307.676
307.12
306.697
306.367
306.102
305.885
305.703
305.549
305.417
305.304
305.206
305.121
305.048
304.985
304.93
304.884
304.844
304.811
304.783
304.759
304.741
304.726
304.714
304.705
304.699
304.694
304.692
304.691
304.691
304.692
304.694
304.696
304.699
304.702
304.704
304.707
304.709
304.711
304.712
304.713
304.714
304.714
304.713
304.712
304.711
304.709
304.706
304.704
304.7
304.697
304.693
304.689
304.685
304.681
304.677
304.672
304.668
304.664
304.66
304.656
304.652
304.649
304.646
304.643
304.64
304.638
304.636
304.634
304.633
304.633
304.633
304.633
304.634
304.635
304.636
304.639
304.641
304.644
304.648
304.652
304.656
304.661
304.666
304.672
304.678
304.684
304.691
304.698
304.705
304.713
304.721
304.729
304.737
304.746
304.755
304.764
304.774
304.783
304.793
304.803
304.813
304.823
304.834
304.844
304.855
304.865
304.876
304.887
304.898
304.909
304.92
304.931
304.942
304.953
304.964
304.975
304.987
304.998
305.009
305.021
305.032
305.044
305.055
305.067
305.078
305.09
305.102
305.113
305.125
305.137
305.149
305.161
305.173
305.186
305.198
305.211
305.224
305.237
305.25
305.264
305.278
305.292
305.307
305.322
305.338
305.354
305.371
305.389
305.407
305.426
305.447
305.468
305.49
305.514
305.538
305.565
305.592
305.622
305.653
305.686
305.721
305.758
305.797
305.839
305.883
305.93
305.98
306.032
306.087
306.146
306.207
306.273
306.341
306.414
306.49
306.57
306.654
306.742
306.834
306.93
307.03
307.133
307.24
307.35
307.462
307.577
307.693
307.811
307.929
308.047
308.166
308.285
308.407
308.536
308.68
308.849
309.063
309.348
309.651
306.213
305.864
305.528
305.244
305.004
304.8
304.628
304.48
304.353
304.245
304.151
304.071
304.002
303.942
303.892
303.85
303.815
303.786
303.762
303.744
303.73
303.72
303.713
303.709
303.708
303.709
303.712
303.716
303.722
303.728
303.735
303.743
303.751
303.759
303.767
303.774
303.782
303.788
303.795
303.8
303.805
303.809
303.812
303.815
303.817
303.818
303.818
303.818
303.817
303.815
303.813
303.811
303.808
303.804
303.801
303.797
303.792
303.788
303.784
303.779
303.774
303.77
303.765
303.761
303.757
303.752
303.749
303.745
303.741
303.738
303.736
303.733
303.731
303.729
303.728
303.727
303.726
303.726
303.726
303.727
303.727
303.729
303.73
303.732
303.735
303.738
303.741
303.744
303.748
303.752
303.757
303.762
303.767
303.772
303.778
303.784
303.791
303.797
303.804
303.811
303.819
303.826
303.834
303.842
303.851
303.859
303.868
303.877
303.886
303.896
303.905
303.915
303.925
303.935
303.946
303.956
303.967
303.978
303.989
304
304.011
304.023
304.035
304.046
304.058
304.07
304.083
304.095
304.108
304.121
304.133
304.147
304.16
304.173
304.187
304.201
304.215
304.229
304.244
304.259
304.274
304.29
304.306
304.322
304.339
304.357
304.375
304.394
304.413
304.433
304.455
304.477
304.5
304.524
304.549
304.576
304.604
304.633
304.664
304.697
304.732
304.769
304.807
304.848
304.892
304.937
304.985
305.036
305.09
305.147
305.207
305.27
305.336
305.406
305.479
305.556
305.637
305.722
305.81
305.902
305.998
306.097
306.2
306.305
306.414
306.524
306.636
306.75
306.863
306.976
307.089
307.199
307.309
307.417
307.526
307.638
307.759
307.888
308.032
308.174
306.213
305.864
305.528
305.244
305.004
304.8
304.628
304.48
304.353
304.245
304.151
304.071
304.001
303.942
303.892
303.85
303.815
303.786
303.762
303.744
303.73
303.719
303.713
303.709
303.708
303.709
303.712
303.716
303.722
303.728
303.735
303.743
303.751
303.759
303.767
303.774
303.782
303.788
303.795
303.8
303.805
303.809
303.812
303.815
303.817
303.818
303.818
303.818
303.817
303.815
303.813
303.811
303.808
303.804
303.801
303.797
303.792
303.788
303.784
303.779
303.774
303.77
303.765
303.761
303.757
303.752
303.749
303.745
303.741
303.738
303.736
303.733
303.731
303.729
303.728
303.727
303.726
303.726
303.726
303.727
303.727
303.729
303.73
303.732
303.735
303.738
303.741
303.744
303.748
303.752
303.757
303.762
303.767
303.773
303.778
303.784
303.791
303.797
303.804
303.811
303.819
303.826
303.834
303.842
303.851
303.859
303.868
303.877
303.886
303.896
303.905
303.915
303.925
303.935
303.946
303.956
303.967
303.978
303.989
304
304.011
304.023
304.035
304.046
304.058
304.07
304.083
304.095
304.108
304.121
304.133
304.147
304.16
304.173
304.187
304.201
304.215
304.229
304.244
304.259
304.274
304.29
304.306
304.322
304.339
304.357
304.375
304.394
304.413
304.433
304.455
304.477
304.5
304.524
304.549
304.576
304.604
304.633
304.664
304.697
304.732
304.769
304.807
304.848
304.892
304.937
304.985
305.036
305.09
305.147
305.207
305.27
305.336
305.406
305.479
305.556
305.637
305.722
305.81
305.902
305.998
306.097
306.2
306.305
306.414
306.524
306.636
306.75
306.863
306.976
307.089
307.199
307.309
307.417
307.526
307.638
307.759
307.888
308.032
308.174
304.88
304.698
304.503
304.317
304.146
303.993
303.857
303.738
303.633
303.543
303.464
303.397
303.338
303.289
303.248
303.213
303.185
303.162
303.145
303.132
303.123
303.117
303.115
303.116
303.118
303.123
303.13
303.138
303.147
303.157
303.167
303.178
303.189
303.199
303.21
303.22
303.23
303.239
303.247
303.255
303.262
303.268
303.273
303.278
303.281
303.284
303.285
303.286
303.287
303.286
303.285
303.283
303.281
303.278
303.275
303.272
303.268
303.263
303.259
303.254
303.25
303.245
303.24
303.235
303.231
303.226
303.221
303.217
303.213
303.209
303.205
303.202
303.199
303.196
303.193
303.191
303.189
303.188
303.187
303.186
303.186
303.186
303.186
303.187
303.188
303.189
303.191
303.193
303.195
303.198
303.201
303.205
303.209
303.213
303.217
303.222
303.227
303.233
303.238
303.244
303.251
303.257
303.264
303.271
303.278
303.286
303.294
303.302
303.311
303.319
303.328
303.337
303.347
303.356
303.366
303.376
303.387
303.397
303.408
303.419
303.43
303.441
303.453
303.464
303.476
303.489
303.501
303.513
303.526
303.539
303.552
303.565
303.579
303.593
303.607
303.621
303.635
303.65
303.665
303.681
303.697
303.713
303.729
303.746
303.764
303.782
303.801
303.82
303.84
303.861
303.883
303.906
303.93
303.955
303.981
304.008
304.037
304.067
304.099
304.132
304.168
304.205
304.245
304.286
304.33
304.376
304.425
304.477
304.531
304.588
304.649
304.712
304.779
304.849
304.923
305
305.08
305.165
305.253
305.344
305.439
305.537
305.638
305.742
305.848
305.955
306.064
306.174
306.283
306.391
306.498
306.601
306.702
306.799
306.892
306.981
307.065
307.142
307.203
307.239
304.88
304.698
304.503
304.317
304.146
303.993
303.857
303.737
303.633
303.543
303.464
303.396
303.338
303.289
303.248
303.213
303.185
303.162
303.145
303.132
303.123
303.117
303.115
303.116
303.118
303.123
303.13
303.138
303.147
303.157
303.167
303.178
303.189
303.199
303.21
303.22
303.23
303.239
303.247
303.255
303.262
303.268
303.273
303.278
303.281
303.284
303.285
303.286
303.287
303.286
303.285
303.283
303.281
303.278
303.275
303.272
303.268
303.263
303.259
303.254
303.25
303.245
303.24
303.235
303.231
303.226
303.221
303.217
303.213
303.209
303.205
303.202
303.199
303.196
303.193
303.191
303.189
303.188
303.187
303.186
303.186
303.186
303.186
303.187
303.188
303.189
303.191
303.193
303.195
303.198
303.201
303.205
303.209
303.213
303.217
303.222
303.227
303.233
303.238
303.244
303.251
303.257
303.264
303.271
303.278
303.286
303.294
303.302
303.311
303.319
303.328
303.337
303.347
303.356
303.366
303.376
303.387
303.397
303.408
303.419
303.43
303.441
303.453
303.464
303.476
303.489
303.501
303.513
303.526
303.539
303.552
303.565
303.579
303.593
303.607
303.621
303.635
303.65
303.665
303.681
303.697
303.713
303.729
303.746
303.764
303.782
303.801
303.82
303.84
303.861
303.883
303.906
303.93
303.955
303.981
304.008
304.037
304.067
304.099
304.132
304.168
304.205
304.245
304.286
304.33
304.376
304.425
304.477
304.531
304.588
304.649
304.712
304.779
304.849
304.923
305
305.08
305.165
305.253
305.344
305.439
305.537
305.638
305.742
305.848
305.955
306.064
306.174
306.283
306.391
306.498
306.601
306.702
306.799
306.892
306.981
307.065
307.142
307.203
307.239
303.964
303.863
303.745
303.622
303.501
303.386
303.281
303.186
303.101
303.026
302.961
302.904
302.855
302.814
302.78
302.751
302.729
302.711
302.698
302.689
302.684
302.682
302.683
302.687
302.692
302.7
302.709
302.719
302.73
302.742
302.755
302.768
302.78
302.793
302.805
302.817
302.829
302.839
302.849
302.859
302.867
302.874
302.881
302.886
302.891
302.895
302.898
302.9
302.901
302.901
302.901
302.9
302.898
302.896
302.893
302.89
302.886
302.882
302.878
302.874
302.869
302.864
302.859
302.854
302.85
302.845
302.84
302.835
302.831
302.826
302.822
302.818
302.815
302.811
302.808
302.805
302.803
302.801
302.799
302.797
302.796
302.796
302.795
302.795
302.795
302.796
302.797
302.798
302.8
302.802
302.804
302.807
302.81
302.814
302.817
302.821
302.826
302.83
302.835
302.841
302.846
302.852
302.858
302.865
302.872
302.879
302.886
302.894
302.902
302.91
302.918
302.927
302.936
302.945
302.955
302.964
302.974
302.984
302.995
303.005
303.016
303.027
303.039
303.05
303.062
303.074
303.086
303.099
303.111
303.124
303.137
303.15
303.164
303.178
303.192
303.206
303.22
303.235
303.25
303.266
303.282
303.298
303.315
303.332
303.35
303.368
303.387
303.407
303.428
303.449
303.471
303.494
303.518
303.543
303.57
303.597
303.627
303.657
303.69
303.723
303.759
303.797
303.837
303.879
303.923
303.97
304.019
304.071
304.125
304.183
304.243
304.307
304.374
304.444
304.517
304.594
304.675
304.759
304.846
304.936
305.03
305.126
305.226
305.327
305.431
305.535
305.641
305.747
305.852
305.955
306.056
306.153
306.246
306.334
306.415
306.487
306.55
306.598
306.623
306.619
303.964
303.863
303.745
303.622
303.501
303.386
303.281
303.186
303.101
303.026
302.96
302.904
302.855
302.814
302.779
302.751
302.728
302.711
302.698
302.689
302.684
302.682
302.683
302.686
302.692
302.7
302.709
302.719
302.73
302.742
302.755
302.768
302.78
302.793
302.805
302.817
302.829
302.839
302.849
302.859
302.867
302.874
302.881
302.886
302.891
302.895
302.898
302.9
302.901
302.901
302.901
302.9
302.898
302.896
302.893
302.89
302.886
302.882
302.878
302.874
302.869
302.864
302.859
302.854
302.85
302.845
302.84
302.835
302.831
302.826
302.822
302.818
302.815
302.811
302.808
302.805
302.803
302.801
302.799
302.797
302.796
302.796
302.795
302.795
302.795
302.796
302.797
302.798
302.8
302.802
302.804
302.807
302.81
302.814
302.817
302.821
302.826
302.83
302.835
302.841
302.846
302.852
302.858
302.865
302.872
302.879
302.886
302.894
302.902
302.91
302.918
302.927
302.936
302.945
302.955
302.964
302.974
302.984
302.995
303.005
303.016
303.027
303.039
303.05
303.062
303.074
303.086
303.099
303.111
303.124
303.137
303.15
303.164
303.178
303.192
303.206
303.22
303.235
303.25
303.266
303.282
303.298
303.315
303.332
303.35
303.368
303.387
303.407
303.428
303.449
303.471
303.494
303.518
303.543
303.57
303.597
303.627
303.657
303.689
303.723
303.759
303.797
303.837
303.879
303.923
303.97
304.019
304.071
304.125
304.183
304.243
304.307
304.374
304.444
304.517
304.594
304.675
304.759
304.846
304.936
305.03
305.126
305.226
305.327
305.431
305.535
305.641
305.747
305.852
305.955
306.056
306.153
306.246
306.334
306.415
306.487
306.55
306.598
306.623
306.619
303.285
303.223
303.148
303.065
302.978
302.893
302.811
302.736
302.668
302.607
302.553
302.506
302.466
302.432
302.404
302.381
302.363
302.35
302.34
302.335
302.333
302.334
302.338
302.343
302.351
302.361
302.372
302.384
302.397
302.411
302.425
302.439
302.453
302.467
302.481
302.494
302.507
302.519
302.53
302.54
302.549
302.558
302.565
302.572
302.577
302.582
302.586
302.589
302.59
302.592
302.592
302.591
302.59
302.589
302.586
302.583
302.58
302.577
302.573
302.568
302.564
302.559
302.554
302.549
302.544
302.539
302.534
302.53
302.525
302.52
302.516
302.512
302.508
302.504
302.501
302.497
302.495
302.492
302.49
302.488
302.486
302.485
302.484
302.484
302.483
302.483
302.484
302.485
302.486
302.488
302.489
302.492
302.494
302.497
302.5
302.504
302.508
302.512
302.516
302.521
302.526
302.532
302.538
302.544
302.55
302.557
302.564
302.571
302.579
302.586
302.595
302.603
302.611
302.62
302.63
302.639
302.649
302.658
302.669
302.679
302.69
302.7
302.711
302.723
302.734
302.746
302.758
302.77
302.782
302.795
302.808
302.821
302.834
302.848
302.862
302.876
302.891
302.905
302.921
302.936
302.952
302.968
302.985
303.002
303.02
303.039
303.058
303.077
303.098
303.119
303.142
303.165
303.189
303.215
303.241
303.269
303.299
303.33
303.362
303.396
303.432
303.47
303.511
303.553
303.597
303.644
303.694
303.746
303.801
303.858
303.919
303.983
304.049
304.119
304.193
304.269
304.349
304.432
304.519
304.608
304.7
304.795
304.892
304.992
305.093
305.195
305.297
305.399
305.5
305.599
305.695
305.786
305.873
305.953
306.025
306.087
306.137
306.172
306.185
306.171
303.285
303.223
303.148
303.065
302.978
302.893
302.811
302.736
302.668
302.607
302.553
302.506
302.466
302.432
302.403
302.381
302.363
302.35
302.34
302.335
302.333
302.334
302.338
302.343
302.351
302.361
302.372
302.384
302.397
302.411
302.425
302.439
302.453
302.467
302.481
302.494
302.507
302.519
302.53
302.54
302.549
302.558
302.565
302.572
302.577
302.582
302.586
302.589
302.59
302.592
302.592
302.591
302.59
302.589
302.586
302.583
302.58
302.577
302.573
302.568
302.564
302.559
302.554
302.549
302.544
302.539
302.534
302.53
302.525
302.52
302.516
302.512
302.508
302.504
302.501
302.497
302.495
302.492
302.49
302.488
302.486
302.485
302.484
302.484
302.483
302.483
302.484
302.485
302.486
302.488
302.489
302.492
302.494
302.497
302.5
302.504
302.508
302.512
302.516
302.521
302.526
302.532
302.538
302.544
302.55
302.557
302.564
302.571
302.579
302.586
302.594
302.603
302.611
302.62
302.63
302.639
302.649
302.658
302.669
302.679
302.69
302.7
302.711
302.723
302.734
302.746
302.758
302.77
302.782
302.795
302.808
302.821
302.834
302.848
302.862
302.876
302.891
302.905
302.921
302.936
302.952
302.968
302.985
303.002
303.02
303.039
303.058
303.077
303.098
303.119
303.142
303.165
303.189
303.215
303.241
303.269
303.299
303.33
303.362
303.396
303.432
303.47
303.511
303.553
303.597
303.644
303.694
303.746
303.801
303.858
303.919
303.983
304.049
304.119
304.193
304.269
304.349
304.432
304.519
304.608
304.7
304.795
304.892
304.992
305.093
305.195
305.297
305.399
305.5
305.599
305.695
305.786
305.873
305.953
306.025
306.087
306.137
306.172
306.185
306.171
302.749
302.708
302.658
302.6
302.537
302.473
302.411
302.352
302.298
302.249
302.205
302.167
302.134
302.106
302.084
302.066
302.053
302.043
302.037
302.035
302.036
302.039
302.045
302.053
302.063
302.074
302.086
302.1
302.114
302.129
302.145
302.16
302.175
302.19
302.205
302.219
302.233
302.246
302.258
302.269
302.279
302.288
302.297
302.304
302.31
302.316
302.32
302.324
302.326
302.328
302.329
302.329
302.328
302.327
302.325
302.322
302.32
302.316
302.312
302.308
302.304
302.299
302.295
302.29
302.285
302.28
302.275
302.27
302.265
302.261
302.256
302.252
302.248
302.244
302.24
302.237
302.234
302.231
302.228
302.226
302.224
302.222
302.221
302.22
302.22
302.22
302.22
302.22
302.221
302.222
302.224
302.225
302.228
302.23
302.233
302.236
302.24
302.244
302.248
302.252
302.257
302.262
302.268
302.274
302.28
302.286
302.293
302.3
302.307
302.315
302.322
302.33
302.339
302.347
302.356
302.365
302.375
302.384
302.394
302.404
302.415
302.425
302.436
302.447
302.458
302.47
302.482
302.494
302.506
302.518
302.531
302.544
302.557
302.57
302.584
302.598
302.612
302.627
302.642
302.658
302.673
302.69
302.706
302.724
302.741
302.76
302.779
302.799
302.819
302.841
302.863
302.886
302.911
302.936
302.963
302.991
303.021
303.052
303.085
303.119
303.156
303.194
303.234
303.277
303.322
303.369
303.419
303.471
303.526
303.584
303.644
303.708
303.775
303.845
303.918
303.994
304.073
304.155
304.241
304.329
304.42
304.513
304.609
304.706
304.804
304.904
305.003
305.101
305.198
305.293
305.385
305.472
305.553
305.627
305.693
305.749
305.792
305.821
305.833
305.821
302.749
302.708
302.658
302.6
302.537
302.473
302.411
302.352
302.298
302.249
302.205
302.167
302.134
302.106
302.084
302.066
302.053
302.043
302.037
302.035
302.036
302.039
302.045
302.053
302.063
302.074
302.086
302.1
302.114
302.129
302.145
302.16
302.175
302.19
302.205
302.219
302.233
302.246
302.258
302.269
302.279
302.288
302.297
302.304
302.31
302.316
302.32
302.324
302.326
302.328
302.329
302.329
302.328
302.327
302.325
302.322
302.32
302.316
302.312
302.308
302.304
302.299
302.295
302.29
302.285
302.28
302.275
302.27
302.265
302.261
302.256
302.252
302.248
302.244
302.24
302.237
302.234
302.231
302.228
302.226
302.224
302.222
302.221
302.22
302.22
302.22
302.22
302.22
302.221
302.222
302.224
302.225
302.228
302.23
302.233
302.236
302.24
302.244
302.248
302.252
302.257
302.262
302.268
302.274
302.28
302.286
302.293
302.3
302.307
302.315
302.322
302.33
302.339
302.347
302.356
302.365
302.375
302.384
302.394
302.404
302.415
302.425
302.436
302.447
302.458
302.47
302.482
302.494
302.506
302.518
302.531
302.544
302.557
302.57
302.584
302.598
302.612
302.627
302.642
302.658
302.673
302.69
302.706
302.724
302.741
302.76
302.779
302.799
302.819
302.841
302.863
302.886
302.911
302.936
302.963
302.991
303.021
303.052
303.085
303.119
303.156
303.194
303.234
303.277
303.322
303.369
303.419
303.471
303.526
303.584
303.644
303.708
303.775
303.845
303.918
303.994
304.073
304.155
304.241
304.329
304.42
304.513
304.609
304.706
304.804
304.904
305.003
305.101
305.198
305.293
305.385
305.472
305.553
305.627
305.693
305.749
305.792
305.821
305.833
305.821
302.307
302.278
302.243
302.202
302.156
302.108
302.061
302.015
301.972
301.933
301.899
301.868
301.842
301.82
301.803
301.789
301.78
301.774
301.771
301.771
301.775
301.78
301.788
301.798
301.809
301.822
301.836
301.85
301.866
301.882
301.898
301.914
301.93
301.946
301.962
301.977
301.991
302.005
302.018
302.029
302.04
302.05
302.059
302.067
302.074
302.08
302.085
302.089
302.092
302.095
302.096
302.096
302.096
302.095
302.094
302.092
302.089
302.086
302.083
302.079
302.075
302.07
302.066
302.061
302.056
302.051
302.046
302.041
302.036
302.032
302.027
302.023
302.018
302.014
302.011
302.007
302.004
302.001
301.998
301.995
301.993
301.991
301.99
301.989
301.988
301.988
301.987
301.988
301.988
301.989
301.99
301.992
301.994
301.996
301.999
302.002
302.005
302.009
302.013
302.017
302.022
302.027
302.032
302.037
302.043
302.049
302.056
302.062
302.069
302.077
302.084
302.092
302.1
302.109
302.117
302.126
302.135
302.145
302.154
302.164
302.174
302.185
302.195
302.206
302.217
302.228
302.24
302.252
302.264
302.276
302.288
302.301
302.314
302.327
302.341
302.355
302.369
302.383
302.398
302.413
302.429
302.445
302.462
302.479
302.497
302.515
302.534
302.554
302.575
302.596
302.619
302.642
302.667
302.692
302.719
302.748
302.778
302.809
302.842
302.877
302.913
302.952
302.992
303.035
303.08
303.127
303.177
303.23
303.285
303.343
303.404
303.467
303.534
303.604
303.676
303.752
303.831
303.912
303.997
304.084
304.174
304.265
304.359
304.454
304.55
304.647
304.743
304.839
304.932
305.023
305.111
305.194
305.271
305.341
305.403
305.455
305.496
305.523
305.536
305.531
302.307
302.278
302.243
302.202
302.156
302.108
302.061
302.015
301.972
301.933
301.899
301.868
301.842
301.82
301.803
301.789
301.78
301.774
301.771
301.771
301.775
301.78
301.788
301.798
301.809
301.822
301.836
301.85
301.866
301.882
301.898
301.914
301.93
301.946
301.962
301.977
301.991
302.005
302.018
302.029
302.04
302.05
302.059
302.067
302.074
302.08
302.085
302.089
302.092
302.095
302.096
302.096
302.096
302.095
302.094
302.092
302.089
302.086
302.083
302.079
302.075
302.07
302.066
302.061
302.056
302.051
302.046
302.041
302.036
302.032
302.027
302.023
302.018
302.014
302.011
302.007
302.004
302.001
301.998
301.995
301.993
301.991
301.99
301.989
301.988
301.988
301.987
301.988
301.988
301.989
301.99
301.992
301.994
301.996
301.999
302.002
302.005
302.009
302.013
302.017
302.022
302.027
302.032
302.037
302.043
302.049
302.056
302.062
302.069
302.077
302.084
302.092
302.1
302.109
302.117
302.126
302.135
302.145
302.154
302.164
302.174
302.185
302.195
302.206
302.217
302.228
302.24
302.252
302.264
302.276
302.288
302.301
302.314
302.327
302.341
302.355
302.369
302.383
302.398
302.413
302.429
302.445
302.462
302.479
302.497
302.515
302.534
302.554
302.575
302.596
302.619
302.642
302.667
302.692
302.719
302.748
302.778
302.809
302.842
302.877
302.913
302.952
302.992
303.035
303.08
303.127
303.177
303.23
303.285
303.343
303.404
303.467
303.534
303.604
303.676
303.752
303.831
303.912
303.997
304.084
304.174
304.265
304.359
304.454
304.55
304.647
304.743
304.839
304.932
305.023
305.111
305.194
305.271
305.341
305.403
305.455
305.496
305.523
305.536
305.531
301.932
301.91
301.885
301.855
301.821
301.786
301.749
301.714
301.681
301.651
301.623
301.6
301.579
301.563
301.55
301.541
301.535
301.532
301.532
301.535
301.54
301.547
301.557
301.568
301.581
301.595
301.61
301.625
301.642
301.659
301.676
301.693
301.709
301.726
301.742
301.758
301.773
301.787
301.8
301.813
301.824
301.835
301.844
301.853
301.86
301.867
301.872
301.877
301.88
301.883
301.885
301.886
301.886
301.886
301.884
301.883
301.88
301.877
301.874
301.871
301.867
301.862
301.858
301.853
301.849
301.844
301.839
301.834
301.829
301.824
301.82
301.815
301.811
301.807
301.803
301.799
301.796
301.793
301.79
301.787
301.785
301.783
301.781
301.78
301.779
301.778
301.778
301.778
301.778
301.779
301.78
301.782
301.783
301.785
301.788
301.791
301.794
301.797
301.801
301.805
301.809
301.814
301.819
301.825
301.83
301.836
301.842
301.849
301.856
301.863
301.87
301.878
301.886
301.894
301.903
301.911
301.92
301.929
301.939
301.949
301.958
301.969
301.979
301.99
302
302.011
302.023
302.034
302.046
302.058
302.07
302.083
302.095
302.109
302.122
302.136
302.15
302.164
302.179
302.194
302.209
302.225
302.242
302.259
302.277
302.295
302.314
302.334
302.355
302.376
302.399
302.422
302.447
302.473
302.5
302.529
302.559
302.59
302.623
302.658
302.695
302.734
302.775
302.818
302.863
302.911
302.961
303.013
303.069
303.127
303.188
303.251
303.318
303.387
303.46
303.535
303.613
303.694
303.778
303.864
303.952
304.042
304.134
304.227
304.321
304.415
304.509
304.602
304.692
304.78
304.865
304.945
305.018
305.086
305.145
305.195
305.234
305.263
305.278
305.28
301.932
301.91
301.885
301.855
301.821
301.786
301.749
301.714
301.681
301.651
301.623
301.6
301.579
301.563
301.55
301.541
301.535
301.532
301.532
301.535
301.54
301.547
301.557
301.568
301.581
301.595
301.61
301.625
301.642
301.659
301.676
301.693
301.709
301.726
301.742
301.758
301.773
301.787
301.8
301.813
301.824
301.835
301.844
301.853
301.86
301.867
301.872
301.877
301.88
301.883
301.885
301.886
301.886
301.886
301.884
301.883
301.88
301.877
301.874
301.871
301.867
301.862
301.858
301.853
301.849
301.844
301.839
301.834
301.829
301.824
301.82
301.815
301.811
301.807
301.803
301.799
301.796
301.793
301.79
301.787
301.785
301.783
301.781
301.78
301.779
301.778
301.778
301.778
301.778
301.779
301.78
301.782
301.783
301.785
301.788
301.791
301.794
301.797
301.801
301.805
301.809
301.814
301.819
301.825
301.83
301.836
301.842
301.849
301.856
301.863
301.87
301.878
301.886
301.894
301.903
301.911
301.92
301.929
301.939
301.949
301.958
301.969
301.979
301.99
302
302.011
302.023
302.034
302.046
302.058
302.07
302.083
302.095
302.109
302.122
302.136
302.15
302.164
302.179
302.194
302.209
302.225
302.242
302.259
302.277
302.295
302.314
302.334
302.355
302.376
302.399
302.422
302.447
302.473
302.5
302.529
302.559
302.59
302.623
302.658
302.695
302.734
302.775
302.818
302.863
302.911
302.961
303.013
303.069
303.127
303.188
303.251
303.318
303.387
303.46
303.535
303.613
303.694
303.778
303.864
303.952
304.042
304.134
304.227
304.321
304.415
304.509
304.602
304.692
304.78
304.865
304.945
305.018
305.086
305.145
305.195
305.234
305.262
305.278
305.28
301.605
301.589
301.57
301.548
301.523
301.497
301.47
301.443
301.417
301.394
301.373
301.355
301.34
301.328
301.32
301.314
301.311
301.311
301.313
301.318
301.325
301.335
301.345
301.358
301.372
301.387
301.403
301.419
301.437
301.454
301.472
301.489
301.507
301.524
301.54
301.557
301.572
301.587
301.6
301.613
301.625
301.636
301.646
301.655
301.663
301.67
301.676
301.681
301.685
301.688
301.69
301.691
301.692
301.692
301.691
301.689
301.687
301.685
301.682
301.678
301.675
301.671
301.666
301.662
301.657
301.652
301.648
301.643
301.638
301.633
301.629
301.624
301.62
301.616
301.612
301.608
301.604
301.601
301.598
301.596
301.593
301.591
301.589
301.588
301.587
301.586
301.585
301.585
301.585
301.586
301.587
301.588
301.59
301.592
301.594
301.597
301.6
301.603
301.607
301.611
301.615
301.619
301.624
301.629
301.635
301.641
301.647
301.653
301.66
301.667
301.674
301.682
301.69
301.698
301.706
301.714
301.723
301.732
301.741