/*--------------------------------*- C++ -*----------------------------------*\
  =========                 |
  \\      /  F ield         | OpenFOAM: The Open Source CFD Toolbox
   \\    /   O peration     | Website:  https://openfoam.org
    \\  /    A nd           | Version:  8
     \\/     M anipulation  |
\*---------------------------------------------------------------------------*/
FoamFile
{
    version     2.0;
    format      ascii;
    class       volVectorField;
    location    "1900";
    object      U;
}
// * * * * * * * * * * * * * * * * * * * * * * * * * * * * * * * * * * * * * //

dimensions      [0 1 -1 0 0 0 0];

internalField   nonuniform List<vector> 
46000
(
(0.000169898 1.30659e-08 -0.000182797)
(0.000251073 -2.28831e-08 -3.03374e-06)
(-0.000187324 8.75425e-09 0.000261472)
(-0.000893036 1.95861e-08 0.000409168)
(-0.00167907 3.86748e-08 0.000450259)
(-0.00243659 5.04041e-08 0.000432833)
(-0.00311895 5.35566e-08 0.00038949)
(-0.00371359 5.08407e-08 0.000340146)
(-0.00422844 4.53854e-08 0.00029617)
(-0.00468225 3.92921e-08 0.000263749)
(-0.00509914 3.39901e-08 0.000245966)
(-0.0055053 3.032e-08 0.000244055)
(-0.00592709 2.86296e-08 0.000258128)
(-0.00638986 2.86739e-08 0.000287614)
(-0.00691728 3.0242e-08 0.000331507)
(-0.00753092 3.28546e-08 0.000388531)
(-0.00824998 3.63896e-08 0.000457233)
(-0.00909114 4.06917e-08 0.000536044)
(-0.0100685 4.56462e-08 0.000623328)
(-0.0111934 5.11788e-08 0.000717411)
(-0.0124747 5.72289e-08 0.000816608)
(-0.0139185 6.36888e-08 0.000919245)
(-0.0155284 7.03701e-08 0.00102368)
(-0.0173055 7.71922e-08 0.00112831)
(-0.0192485 8.40004e-08 0.0012316)
(-0.0213538 9.0721e-08 0.00133212)
(-0.0236157 9.72464e-08 0.00142849)
(-0.0260264 1.03563e-07 0.00151948)
(-0.0285765 1.09611e-07 0.00160396)
(-0.0312546 1.1536e-07 0.00168093)
(-0.0340483 1.20739e-07 0.00174952)
(-0.0369437 1.25772e-07 0.001809)
(-0.0399259 1.30405e-07 0.00185881)
(-0.0429793 1.34635e-07 0.00189848)
(-0.0460875 1.38429e-07 0.00192773)
(-0.049234 1.41775e-07 0.00194638)
(-0.0524018 1.44624e-07 0.00195441)
(-0.0555743 1.4699e-07 0.00195189)
(-0.0587346 1.48858e-07 0.00193904)
(-0.0618667 1.50216e-07 0.00191615)
(-0.0649546 1.51033e-07 0.00188362)
(-0.0679834 1.51302e-07 0.00184193)
(-0.0709386 1.51035e-07 0.00179163)
(-0.0738069 1.50209e-07 0.00173331)
(-0.0765756 1.4886e-07 0.00166763)
(-0.0792335 1.46993e-07 0.00159525)
(-0.0817699 1.44626e-07 0.00151688)
(-0.0841757 1.41796e-07 0.00143322)
(-0.0864427 1.38543e-07 0.00134498)
(-0.0885637 1.34891e-07 0.00125287)
(-0.0905328 1.30906e-07 0.00115758)
(-0.0923451 1.26616e-07 0.00105978)
(-0.0939967 1.22071e-07 0.000960095)
(-0.0954849 1.17321e-07 0.000859147)
(-0.0968077 1.1242e-07 0.000757511)
(-0.0979641 1.07383e-07 0.000655726)
(-0.0989541 1.02295e-07 0.000554295)
(-0.0997782 9.71467e-08 0.000453688)
(-0.100438 9.20057e-08 0.000354342)
(-0.100935 8.68616e-08 0.000256664)
(-0.101273 8.17682e-08 0.000161025)
(-0.101455 7.66145e-08 6.77142e-05)
(-0.101483 7.17235e-08 -2.30378e-05)
(-0.101364 6.70671e-08 -0.000111082)
(-0.1011 6.23773e-08 -0.000196344)
(-0.100696 5.7711e-08 -0.000278707)
(-0.100157 5.3112e-08 -0.000357986)
(-0.0994886 4.85466e-08 -0.000434031)
(-0.0986949 4.40182e-08 -0.00050674)
(-0.0977818 3.95233e-08 -0.000576048)
(-0.0967546 3.50518e-08 -0.000641917)
(-0.0956189 3.05466e-08 -0.000704331)
(-0.0943801 2.60379e-08 -0.000763293)
(-0.0930439 2.15156e-08 -0.000818825)
(-0.0916156 1.69763e-08 -0.000870958)
(-0.0901007 1.24031e-08 -0.000919739)
(-0.0885046 7.8094e-09 -0.000965226)
(-0.0868324 3.18517e-09 -0.00100748)
(-0.0850893 -1.43606e-09 -0.00104658)
(-0.0832803 -6.02071e-09 -0.00108261)
(-0.0814104 -1.05755e-08 -0.00111564)
(-0.0794844 -1.50635e-08 -0.00114577)
(-0.0775067 -1.94881e-08 -0.0011731)
(-0.075482 -2.38258e-08 -0.00119773)
(-0.0734145 -2.80765e-08 -0.00121974)
(-0.0713084 -3.21798e-08 -0.00123926)
(-0.0691677 -3.61962e-08 -0.00125639)
(-0.0669963 -4.00583e-08 -0.00127122)
(-0.0647979 -4.37662e-08 -0.00128388)
(-0.0625759 -4.72998e-08 -0.00129447)
(-0.0603338 -5.06152e-08 -0.0013031)
(-0.0580747 -5.36787e-08 -0.00130987)
(-0.0558017 -5.64602e-08 -0.0013149)
(-0.0535177 -5.89494e-08 -0.00131828)
(-0.0512254 -6.11059e-08 -0.00132013)
(-0.0489274 -6.29129e-08 -0.00132055)
(-0.0466261 -6.43232e-08 -0.00131964)
(-0.0443238 -6.53569e-08 -0.00131749)
(-0.0420226 -6.60206e-08 -0.0013142)
(-0.0397246 -6.63412e-08 -0.00130986)
(-0.0374317 -6.62985e-08 -0.00130457)
(-0.0351455 -6.59193e-08 -0.00129841)
(-0.0328677 -6.53045e-08 -0.00129147)
(-0.0305998 -6.43935e-08 -0.00128382)
(-0.0283432 -6.32535e-08 -0.00127556)
(-0.026099 -6.1871e-08 -0.00126676)
(-0.0238684 -6.02797e-08 -0.00125749)
(-0.0216525 -5.84796e-08 -0.00124782)
(-0.0194521 -5.65041e-08 -0.00123782)
(-0.017268 -5.43266e-08 -0.00122752)
(-0.015101 -5.19737e-08 -0.00121703)
(-0.0129517 -4.94455e-08 -0.00120633)
(-0.0108203 -4.67824e-08 -0.00119563)
(-0.00870795 -4.40585e-08 -0.00118449)
(-0.00661417 -4.13073e-08 -0.00117403)
(-0.00453967 -3.84684e-08 -0.00116454)
(-0.00248452 -3.5535e-08 -0.00115459)
(-0.000449206 -3.28505e-08 -0.00114367)
(0.00156704 -3.04889e-08 -0.00113048)
(0.003559 -2.83624e-08 -0.00111595)
(0.0055302 -2.68081e-08 -0.00110162)
(0.00747918 -2.56444e-08 -0.00108752)
(0.00940622 -2.47297e-08 -0.00107366)
(0.0113113 -2.39832e-08 -0.00106002)
(0.0131946 -2.32704e-08 -0.00104662)
(0.0150562 -2.25641e-08 -0.00103346)
(0.0168962 -2.17231e-08 -0.00102058)
(0.0187149 -2.06462e-08 -0.00100797)
(0.0205126 -1.92256e-08 -0.000995652)
(0.0222896 -1.74074e-08 -0.000983648)
(0.0240461 -1.51242e-08 -0.000971966)
(0.0257828 -1.23693e-08 -0.000960616)
(0.0274998 -9.12918e-09 -0.000949601)
(0.0291977 -5.37682e-09 -0.00093892)
(0.0308769 -1.17285e-09 -0.000928565)
(0.0325378 3.45581e-09 -0.000918522)
(0.0341809 8.46877e-09 -0.000908766)
(0.0358065 1.37717e-08 -0.00089926)
(0.0374149 1.92703e-08 -0.000889958)
(0.0390064 2.4904e-08 -0.000880798)
(0.0405811 3.06122e-08 -0.000871705)
(0.0421388 3.62398e-08 -0.000862587)
(0.0436795 4.17465e-08 -0.000853333)
(0.0452028 4.70581e-08 -0.000843812)
(0.046708 5.20938e-08 -0.000833874)
(0.0481942 5.68199e-08 -0.000823342)
(0.0496602 6.11757e-08 -0.000812019)
(0.0511044 6.51209e-08 -0.000799681)
(0.0525248 6.86216e-08 -0.000786081)
(0.053919 7.1651e-08 -0.000770945)
(0.0552841 7.41618e-08 -0.000753976)
(0.0566166 7.61675e-08 -0.000734851)
(0.0579124 7.76749e-08 -0.000713223)
(0.059167 7.86704e-08 -0.000688722)
(0.0603751 7.91944e-08 -0.000660961)
(0.0615305 7.92805e-08 -0.000629531)
(0.0626267 7.89625e-08 -0.000594013)
(0.0636562 7.83145e-08 -0.000553978)
(0.0646107 7.73566e-08 -0.000508997)
(0.0654813 7.61022e-08 -0.000458645)
(0.0662582 7.46053e-08 -0.000402515)
(0.0669311 7.28928e-08 -0.00034023)
(0.0674887 7.09376e-08 -0.000271472)
(0.0679194 6.87126e-08 -0.000196019)
(0.0682112 6.62313e-08 -0.000113799)
(0.0683507 6.31156e-08 -2.48501e-05)
(0.0683273 6.03224e-08 7.13716e-05)
(0.068126 5.79214e-08 0.000175701)
(0.0677315 5.50477e-08 0.000288348)
(0.0671294 5.20117e-08 0.000409175)
(0.066305 4.88806e-08 0.000537884)
(0.0652441 4.57963e-08 0.000674053)
(0.0639329 4.27585e-08 0.00081712)
(0.0623587 3.98754e-08 0.000966355)
(0.0605099 3.71739e-08 0.00112083)
(0.0583766 3.47353e-08 0.00127939)
(0.0559505 3.25663e-08 0.00144061)
(0.053226 3.06737e-08 0.00160278)
(0.0502005 2.91254e-08 0.00176388)
(0.0468745 2.78404e-08 0.00192148)
(0.0432533 2.68999e-08 0.00207279)
(0.0393466 2.62772e-08 0.00221452)
(0.0351702 2.60131e-08 0.00234284)
(0.0307468 2.61892e-08 0.00245332)
(0.0261071 2.68464e-08 0.00254078)
(0.0212914 2.79921e-08 0.00259913)
(0.0163514 2.96268e-08 0.00262118)
(0.0113523 3.16696e-08 0.00259829)
(0.0063765 3.42295e-08 0.00251999)
(0.00153276 3.70767e-08 0.00236991)
(-0.00307371 3.94109e-08 0.00211816)
(-0.00722144 4.19313e-08 0.00175225)
(-0.0107502 4.48829e-08 0.00126843)
(-0.0133995 4.67102e-08 0.000648596)
(-0.0148878 4.61415e-08 -0.000123429)
(-0.0148994 4.1373e-08 -0.00101222)
(-0.0131783 3.19261e-08 -0.00189263)
(-0.00969699 2.32219e-08 -0.0024425)
(-0.00500909 2.43939e-08 -0.00209622)
(-0.000953877 -3.25472e-09 -0.00100389)
(0.000169295 1.30659e-08 -0.000183371)
(0.000250411 -2.28829e-08 -3.73679e-06)
(-0.000187652 8.75406e-09 0.000260977)
(-0.000893368 1.95856e-08 0.000408739)
(-0.00167933 3.86739e-08 0.000449859)
(-0.00243679 5.04029e-08 0.000432444)
(-0.00311908 5.35554e-08 0.000389104)
(-0.00371363 5.08396e-08 0.000339761)
(-0.0042284 4.53844e-08 0.000295785)
(-0.00468213 3.92913e-08 0.000263365)
(-0.00509894 3.39894e-08 0.000245584)
(-0.00550502 3.03194e-08 0.000243675)
(-0.00592674 2.86291e-08 0.00025775)
(-0.00638945 2.86733e-08 0.000287236)
(-0.00691681 3.02415e-08 0.00033113)
(-0.0075304 3.2854e-08 0.000388153)
(-0.00824942 3.6389e-08 0.000456852)
(-0.00909053 4.0691e-08 0.00053566)
(-0.0100678 4.56454e-08 0.000622942)
(-0.0111927 5.11779e-08 0.000717023)
(-0.0124739 5.72279e-08 0.000816218)
(-0.0139177 6.36877e-08 0.000918852)
(-0.0155276 7.03689e-08 0.00102328)
(-0.0173047 7.71909e-08 0.00112791)
(-0.0192477 8.3999e-08 0.0012312)
(-0.021353 9.07195e-08 0.00133171)
(-0.0236148 9.72448e-08 0.00142808)
(-0.0260255 1.03562e-07 0.00151907)
(-0.0285756 1.09609e-07 0.00160354)
(-0.0312537 1.15358e-07 0.00168051)
(-0.0340474 1.20737e-07 0.00174909)
(-0.0369428 1.2577e-07 0.00180857)
(-0.039925 1.30403e-07 0.00185837)
(-0.0429783 1.34633e-07 0.00189804)
(-0.0460866 1.38426e-07 0.00192728)
(-0.049233 1.41773e-07 0.00194593)
(-0.0524009 1.44622e-07 0.00195395)
(-0.0555733 1.46987e-07 0.00195143)
(-0.0587337 1.48856e-07 0.00193857)
(-0.0618657 1.50213e-07 0.00191568)
(-0.0649537 1.5103e-07 0.00188315)
(-0.0679824 1.513e-07 0.00184146)
(-0.0709377 1.51032e-07 0.00179115)
(-0.0738059 1.50207e-07 0.00173283)
(-0.0765747 1.48857e-07 0.00166714)
(-0.0792325 1.46991e-07 0.00159476)
(-0.081769 1.44624e-07 0.00151638)
(-0.0841748 1.41794e-07 0.00143272)
(-0.0864418 1.38541e-07 0.00134448)
(-0.0885628 1.34888e-07 0.00125237)
(-0.0905319 1.30903e-07 0.00115708)
(-0.0923442 1.26613e-07 0.00105927)
(-0.0939958 1.22068e-07 0.000959586)
(-0.095484 1.17319e-07 0.000858637)
(-0.0968067 1.12419e-07 0.000757)
(-0.0979632 1.07381e-07 0.000655213)
(-0.0989532 1.02293e-07 0.000553782)
(-0.0997773 9.71451e-08 0.000453174)
(-0.100437 9.20042e-08 0.000353828)
(-0.100934 8.68602e-08 0.000256151)
(-0.101272 8.17668e-08 0.000160513)
(-0.101454 7.66132e-08 6.72031e-05)
(-0.101482 7.17223e-08 -2.3547e-05)
(-0.101363 6.7066e-08 -0.000111588)
(-0.101099 6.23762e-08 -0.000196848)
(-0.100695 5.77101e-08 -0.000279209)
(-0.100157 5.31111e-08 -0.000358485)
(-0.0994877 4.85458e-08 -0.000434528)
(-0.098694 4.40175e-08 -0.000507234)
(-0.0977809 3.95226e-08 -0.000576539)
(-0.0967537 3.50513e-08 -0.000642405)
(-0.095618 3.05462e-08 -0.000704816)
(-0.0943793 2.60375e-08 -0.000763776)
(-0.093043 2.15153e-08 -0.000819304)
(-0.0916148 1.6976e-08 -0.000871435)
(-0.0900999 1.24029e-08 -0.000920215)
(-0.0885037 7.80929e-09 -0.000965699)
(-0.0868315 3.18512e-09 -0.00100795)
(-0.0850884 -1.43604e-09 -0.00104705)
(-0.0832795 -6.02063e-09 -0.00108308)
(-0.0814096 -1.05754e-08 -0.00111611)
(-0.0794835 -1.50633e-08 -0.00114624)
(-0.0775059 -1.94879e-08 -0.00117356)
(-0.0754812 -2.38255e-08 -0.00119819)
(-0.0734137 -2.80762e-08 -0.0012202)
(-0.0713076 -3.21794e-08 -0.00123972)
(-0.0691669 -3.61957e-08 -0.00125684)
(-0.0669955 -4.00578e-08 -0.00127168)
(-0.0647971 -4.37657e-08 -0.00128433)
(-0.0625751 -4.72992e-08 -0.00129492)
(-0.060333 -5.06146e-08 -0.00130354)
(-0.0580739 -5.36782e-08 -0.00131031)
(-0.0558009 -5.64596e-08 -0.00131534)
(-0.0535169 -5.89488e-08 -0.00131872)
(-0.0512246 -6.11053e-08 -0.00132057)
(-0.0489266 -6.29123e-08 -0.00132098)
(-0.0466253 -6.43226e-08 -0.00132006)
(-0.044323 -6.53563e-08 -0.00131791)
(-0.0420219 -6.602e-08 -0.00131461)
(-0.0397239 -6.63407e-08 -0.00131027)
(-0.0374309 -6.6298e-08 -0.00130497)
(-0.0351448 -6.59188e-08 -0.00129881)
(-0.032867 -6.5304e-08 -0.00129186)
(-0.0305991 -6.4393e-08 -0.00128421)
(-0.0283425 -6.32531e-08 -0.00127595)
(-0.0260983 -6.18706e-08 -0.00126714)
(-0.0238677 -6.02794e-08 -0.00125786)
(-0.0216518 -5.84792e-08 -0.00124819)
(-0.0194514 -5.65038e-08 -0.00123818)
(-0.0172673 -5.43263e-08 -0.00122787)
(-0.0151003 -5.19734e-08 -0.00121738)
(-0.012951 -4.94453e-08 -0.00120668)
(-0.0108197 -4.67822e-08 -0.00119597)
(-0.00870731 -4.40583e-08 -0.00118482)
(-0.00661354 -4.13072e-08 -0.00117436)
(-0.00453906 -3.84683e-08 -0.00116486)
(-0.00248391 -3.55349e-08 -0.00115491)
(-0.000448615 -3.28504e-08 -0.00114399)
(0.00156761 -3.04887e-08 -0.00113079)
(0.00355956 -2.83623e-08 -0.00111625)
(0.00553075 -2.6808e-08 -0.00110192)
(0.00747972 -2.56443e-08 -0.00108782)
(0.00940674 -2.47296e-08 -0.00107396)
(0.0113118 -2.39832e-08 -0.00106032)
(0.0131951 -2.32703e-08 -0.00104692)
(0.0150566 -2.25641e-08 -0.00103377)
(0.0168967 -2.1723e-08 -0.00102088)
(0.0187154 -2.06461e-08 -0.00100828)
(0.0205131 -1.92255e-08 -0.000995965)
(0.02229 -1.74073e-08 -0.000983964)
(0.0240466 -1.51242e-08 -0.000972285)
(0.0257832 -1.23693e-08 -0.000960936)
(0.0275002 -9.12917e-09 -0.000949922)
(0.0291981 -5.37682e-09 -0.000939243)
(0.0308773 -1.17285e-09 -0.00092889)
(0.0325383 3.45581e-09 -0.000918848)
(0.0341814 8.46877e-09 -0.000909092)
(0.035807 1.37717e-08 -0.000899587)
(0.0374154 1.92703e-08 -0.000890286)
(0.0390068 2.4904e-08 -0.000881127)
(0.0405815 3.06122e-08 -0.000872035)
(0.0421392 3.62398e-08 -0.000862919)
(0.0436799 4.17465e-08 -0.000853666)
(0.0452032 4.70581e-08 -0.000844148)
(0.0467083 5.20938e-08 -0.000834213)
(0.0481945 5.68199e-08 -0.000823684)
(0.0496605 6.11758e-08 -0.000812365)
(0.0511047 6.51209e-08 -0.000800031)
(0.0525251 6.86217e-08 -0.000786435)
(0.0539193 7.16511e-08 -0.000771304)
(0.0552844 7.41619e-08 -0.00075434)
(0.0566168 7.61677e-08 -0.00073522)
(0.0579127 7.7675e-08 -0.000713597)
(0.0591673 7.86705e-08 -0.000689103)
(0.0603753 7.91945e-08 -0.000661348)
(0.0615308 7.92807e-08 -0.000629925)
(0.062627 7.89627e-08 -0.000594414)
(0.0636564 7.83147e-08 -0.000554386)
(0.0646109 7.73568e-08 -0.000509411)
(0.0654815 7.61024e-08 -0.000459065)
(0.0662585 7.46055e-08 -0.000402939)
(0.0669313 7.2893e-08 -0.000340659)
(0.067489 7.09378e-08 -0.000271905)
(0.0679196 6.87128e-08 -0.000196456)
(0.0682114 6.62315e-08 -0.000114238)
(0.068351 6.31157e-08 -2.5292e-05)
(0.0683275 6.03226e-08 7.09269e-05)
(0.0681262 5.79215e-08 0.000175253)
(0.0677317 5.50479e-08 0.000287897)
(0.0671296 5.20118e-08 0.000408722)
(0.0663052 4.88807e-08 0.000537429)
(0.0652443 4.57964e-08 0.000673596)
(0.0639331 4.27586e-08 0.000816663)
(0.0623589 3.98755e-08 0.000965898)
(0.0605101 3.7174e-08 0.00112037)
(0.0583768 3.47354e-08 0.00127893)
(0.0559507 3.25663e-08 0.00144016)
(0.0532262 3.06738e-08 0.00160234)
(0.0502007 2.91255e-08 0.00176344)
(0.0468747 2.78404e-08 0.00192105)
(0.0432534 2.69e-08 0.00207236)
(0.0393467 2.62773e-08 0.00221409)
(0.0351703 2.60131e-08 0.00234242)
(0.030747 2.61892e-08 0.00245291)
(0.0261073 2.68465e-08 0.00254037)
(0.0212915 2.79922e-08 0.00259873)
(0.0163515 2.96269e-08 0.00262078)
(0.0113524 3.16696e-08 0.00259789)
(0.00637656 3.42296e-08 0.00251961)
(0.00153282 3.70768e-08 0.00236954)
(-0.00307365 3.94109e-08 0.0021178)
(-0.00722138 4.19314e-08 0.00175191)
(-0.0107502 4.48829e-08 0.00126811)
(-0.0133994 4.67103e-08 0.000648289)
(-0.0148878 4.61415e-08 -0.000123729)
(-0.0148993 4.1373e-08 -0.00101252)
(-0.0131782 3.19261e-08 -0.00189292)
(-0.00969704 2.32219e-08 -0.0024428)
(-0.00500928 2.43938e-08 -0.00209652)
(-0.000954018 -3.25472e-09 -0.00100415)
(-1.48625e-05 -3.49772e-08 -0.000255869)
(-0.000456944 -3.64032e-08 0.000446113)
(-0.00117633 -1.26855e-09 0.0010062)
(-0.00192661 2.17197e-09 0.00123208)
(-0.00264422 1.07324e-08 0.00124261)
(-0.00329281 1.50415e-08 0.00114633)
(-0.00386419 1.60375e-08 0.0010116)
(-0.00436349 1.51967e-08 0.000878718)
(-0.00480569 1.3736e-08 0.000770134)
(-0.00521138 1.22149e-08 0.000697553)
(-0.00560415 1.09064e-08 0.000666258)
(-0.00600872 9.8965e-09 0.000677694)
(-0.0064497 9.2127e-09 0.000731)
(-0.00695072 8.78258e-09 0.000823906)
(-0.00753389 8.55063e-09 0.000953283)
(-0.00821939 8.44139e-09 0.00111547)
(-0.00902522 8.45802e-09 0.00130646)
(-0.00996696 8.582e-09 0.00152209)
(-0.0110577 8.80154e-09 0.00175805)
(-0.0123081 9.09821e-09 0.00201004)
(-0.0137261 9.43858e-09 0.00227374)
(-0.0153169 9.79925e-09 0.00254493)
(-0.0170836 1.01318e-08 0.00281947)
(-0.0190265 1.04179e-08 0.00309338)
(-0.0211436 1.06358e-08 0.00336285)
(-0.0234305 1.07772e-08 0.0036243)
(-0.025881 1.08204e-08 0.00387436)
(-0.0284866 1.0772e-08 0.00410997)
(-0.031237 1.0622e-08 0.00432833)
(-0.0341206 1.03771e-08 0.00452698)
(-0.037124 1.00223e-08 0.00470378)
(-0.0402327 9.57582e-09 0.00485692)
(-0.0434313 9.02941e-09 0.00498495)
(-0.0467035 8.39052e-09 0.00508676)
(-0.0500324 7.67168e-09 0.00516158)
(-0.0534008 6.87704e-09 0.00520898)
(-0.0567911 6.00326e-09 0.00522884)
(-0.0601861 5.07036e-09 0.00522135)
(-0.0635684 4.07834e-09 0.00518698)
(-0.0669212 3.03386e-09 0.00512647)
(-0.0702282 1.9386e-09 0.00504077)
(-0.0734736 7.99232e-10 0.00493106)
(-0.0766425 -3.78407e-10 0.00479867)
(-0.0797208 -1.60016e-09 0.00464511)
(-0.0826955 -2.8535e-09 0.00447197)
(-0.0855544 -4.1376e-09 0.00428096)
(-0.0882866 -5.44496e-09 0.00407384)
(-0.0908821 -6.76556e-09 0.0038524)
(-0.0933322 -8.0944e-09 0.00361845)
(-0.0956292 -9.41229e-09 0.00337379)
(-0.0977666 -1.07092e-08 0.0031202)
(-0.0997389 -1.19852e-08 0.0028594)
(-0.101542 -1.32161e-08 0.00259305)
(-0.103172 -1.43951e-08 0.00232274)
(-0.104627 -1.55115e-08 0.00204999)
(-0.105905 -1.65519e-08 0.00177621)
(-0.107006 -1.75155e-08 0.00150273)
(-0.10793 -1.83848e-08 0.00123077)
(-0.108678 -1.91681e-08 0.00096149)
(-0.109252 -1.98655e-08 0.000695923)
(-0.109654 -2.04569e-08 0.000435037)
(-0.109886 -2.09266e-08 0.000179719)
(-0.109952 -2.13296e-08 -6.932e-05)
(-0.109855 -2.16566e-08 -0.000311781)
(-0.109601 -2.18526e-08 -0.000547321)
(-0.109192 -2.19552e-08 -0.00077538)
(-0.108635 -2.19818e-08 -0.000995524)
(-0.107933 -2.19352e-08 -0.00120741)
(-0.107093 -2.18226e-08 -0.00141078)
(-0.106119 -2.16634e-08 -0.00160546)
(-0.105017 -2.14624e-08 -0.00179134)
(-0.103792 -2.1234e-08 -0.00196834)
(-0.102449 -2.09748e-08 -0.00213647)
(-0.100994 -2.06855e-08 -0.00229575)
(-0.099433 -2.03721e-08 -0.00244625)
(-0.0977704 -2.00404e-08 -0.00258807)
(-0.0960118 -1.96869e-08 -0.00272134)
(-0.0941626 -1.93286e-08 -0.00284622)
(-0.0922278 -1.89652e-08 -0.00296287)
(-0.0902125 -1.85976e-08 -0.00307149)
(-0.0881216 -1.82268e-08 -0.00317228)
(-0.08596 -1.78485e-08 -0.00326546)
(-0.0837324 -1.74601e-08 -0.00335125)
(-0.0814434 -1.70635e-08 -0.00342989)
(-0.0790974 -1.66518e-08 -0.00350162)
(-0.0766986 -1.62352e-08 -0.00356668)
(-0.0742514 -1.58052e-08 -0.00362533)
(-0.0717598 -1.53618e-08 -0.00367781)
(-0.0692276 -1.49001e-08 -0.00372437)
(-0.0666587 -1.44134e-08 -0.00376527)
(-0.0640566 -1.39067e-08 -0.00380074)
(-0.0614249 -1.33682e-08 -0.00383105)
(-0.058767 -1.27981e-08 -0.00385642)
(-0.0560861 -1.21945e-08 -0.00387711)
(-0.0533854 -1.15509e-08 -0.00389333)
(-0.0506679 -1.08656e-08 -0.00390533)
(-0.0479364 -1.01335e-08 -0.00391332)
(-0.0451938 -9.35966e-09 -0.00391753)
(-0.0424426 -8.55243e-09 -0.00391817)
(-0.0396855 -7.70345e-09 -0.00391544)
(-0.0369248 -6.82272e-09 -0.00390956)
(-0.0341629 -5.91359e-09 -0.00390072)
(-0.0314021 -4.99439e-09 -0.00388913)
(-0.0286443 -4.06848e-09 -0.00387497)
(-0.0258916 -3.14252e-09 -0.00385843)
(-0.0231459 -2.22152e-09 -0.00383971)
(-0.0204089 -1.31217e-09 -0.00381899)
(-0.0176824 -4.21126e-10 -0.00379643)
(-0.0149678 4.51593e-10 -0.00377221)
(-0.0122666 1.2893e-09 -0.00374644)
(-0.00958023 2.07863e-09 -0.00371938)
(-0.00690987 2.79787e-09 -0.00369113)
(-0.00425641 3.48377e-09 -0.0036622)
(-0.00162192 4.10793e-09 -0.00363244)
(0.000995333 4.59189e-09 -0.00360128)
(0.00358913 4.96418e-09 -0.00356899)
(0.00616056 5.29976e-09 -0.0035357)
(0.00870825 5.51346e-09 -0.00350121)
(0.0112317 5.62863e-09 -0.0034649)
(0.0137301 5.60689e-09 -0.00342741)
(0.0162031 5.37307e-09 -0.00338963)
(0.0186498 4.98227e-09 -0.00335161)
(0.0210699 4.45785e-09 -0.00331349)
(0.023463 3.81817e-09 -0.00327534)
(0.0258289 3.08494e-09 -0.00323725)
(0.0281673 2.2832e-09 -0.00319931)
(0.0304783 1.45804e-09 -0.00316161)
(0.0327617 6.2617e-10 -0.00312425)
(0.0350178 -1.85695e-10 -0.0030873)
(0.0372466 -9.47475e-10 -0.00305086)
(0.0394485 -1.64914e-09 -0.003015)
(0.0416236 -2.26897e-09 -0.00297978)
(0.0437724 -2.81029e-09 -0.00294524)
(0.0458952 -3.25138e-09 -0.00291141)
(0.0479924 -3.60056e-09 -0.0028783)
(0.0500645 -3.84949e-09 -0.00284589)
(0.0521118 -4.00148e-09 -0.00281413)
(0.0541347 -4.08661e-09 -0.00278294)
(0.0561335 -4.10821e-09 -0.0027522)
(0.0581085 -4.07796e-09 -0.00272175)
(0.0600597 -4.01091e-09 -0.00269139)
(0.0619871 -3.9154e-09 -0.00266086)
(0.0638904 -3.79978e-09 -0.00262985)
(0.0657692 -3.69247e-09 -0.002598)
(0.0676227 -3.6035e-09 -0.00256488)
(0.06945 -3.53957e-09 -0.00253)
(0.0712496 -3.51739e-09 -0.00249278)
(0.0730197 -3.53364e-09 -0.00245259)
(0.0747581 -3.60671e-09 -0.00240872)
(0.0764622 -3.73159e-09 -0.0023604)
(0.0781286 -3.915e-09 -0.00230677)
(0.0797534 -4.14021e-09 -0.00224691)
(0.0813323 -4.40892e-09 -0.00217982)
(0.0828599 -4.71109e-09 -0.00210444)
(0.0843304 -5.04007e-09 -0.00201965)
(0.0857372 -5.39084e-09 -0.00192427)
(0.0870728 -5.75506e-09 -0.00181708)
(0.0883289 -6.1294e-09 -0.00169683)
(0.0894964 -6.50048e-09 -0.00156226)
(0.0905654 -6.86833e-09 -0.00141208)
(0.0915249 -7.22793e-09 -0.00124507)
(0.0923635 -7.56758e-09 -0.00106002)
(0.0930685 -7.90737e-09 -0.00085582)
(0.0936267 -8.23058e-09 -0.000631527)
(0.0940241 -8.53385e-09 -0.000386366)
(0.0942457 -8.75689e-09 -0.000119917)
(0.0942757 -8.99655e-09 0.000168985)
(0.0940986 -9.25171e-09 0.000482048)
(0.0936982 -9.40995e-09 0.000819926)
(0.0930583 -9.5265e-09 0.00118259)
(0.0921623 -9.60805e-09 0.00156969)
(0.0909938 -9.65293e-09 0.00198052)
(0.0895368 -9.65611e-09 0.00241399)
(0.0877761 -9.61757e-09 0.0028685)
(0.0856975 -9.53733e-09 0.00334194)
(0.0832884 -9.41033e-09 0.00383156)
(0.0805377 -9.24158e-09 0.0043339)
(0.0774369 -9.04115e-09 0.0048447)
(0.0739805 -8.80903e-09 0.00535878)
(0.0701662 -8.54686e-09 0.00586993)
(0.065996 -8.28486e-09 0.00637075)
(0.0614771 -7.99112e-09 0.00685248)
(0.0566223 -7.67568e-09 0.00730477)
(0.0514515 -7.32674e-09 0.00771543)
(0.0459927 -6.92405e-09 0.00806998)
(0.0402837 -6.46753e-09 0.00835123)
(0.0343736 -5.98738e-09 0.00853853)
(0.0283251 -5.45317e-09 0.00860678)
(0.0222169 -4.82432e-09 0.00852496)
(0.0161483 -4.01466e-09 0.00825387)
(0.0102355 -2.7574e-09 0.00773771)
(0.00462774 -1.01299e-09 0.00692095)
(-0.000510481 6.86412e-10 0.00574227)
(-0.00494976 1.73386e-09 0.00412992)
(-0.0084442 1.38265e-09 0.00202723)
(-0.0107276 -9.03846e-10 -0.000566962)
(-0.0114696 -5.77583e-09 -0.00348719)
(-0.0103681 -1.20163e-08 -0.00623863)
(-0.00719594 -1.63446e-08 -0.00761776)
(-0.00195534 -5.67663e-08 -0.00525712)
(-1.56231e-05 -3.49764e-08 -0.000256387)
(-0.000457681 -3.64009e-08 0.000445508)
(-0.00117675 -1.26845e-09 0.00100583)
(-0.00192696 2.17182e-09 0.00123181)
(-0.00264444 1.07317e-08 0.00124238)
(-0.00329292 1.50406e-08 0.00114611)
(-0.00386419 1.60367e-08 0.00101139)
(-0.0043634 1.51959e-08 0.000878507)
(-0.00480551 1.37354e-08 0.000769926)
(-0.00521112 1.22144e-08 0.00069735)
(-0.00560382 1.0906e-08 0.00066606)
(-0.00600832 9.89608e-09 0.000677502)
(-0.00644923 9.21231e-09 0.000730812)
(-0.0069502 8.78223e-09 0.000823724)
(-0.00753332 8.55029e-09 0.000953105)
(-0.00821878 8.44106e-09 0.00111529)
(-0.00902456 8.45769e-09 0.00130629)
(-0.00996627 8.58167e-09 0.00152192)
(-0.011057 8.80121e-09 0.00175789)
(-0.0123074 9.09788e-09 0.00200988)
(-0.0137253 9.43823e-09 0.00227359)
(-0.0153161 9.79889e-09 0.00254478)
(-0.0170828 1.01314e-08 0.00281933)
(-0.0190256 1.04175e-08 0.00309324)
(-0.0211427 1.06354e-08 0.00336272)
(-0.0234296 1.07768e-08 0.00362417)
(-0.02588 1.082e-08 0.00387424)
(-0.0284856 1.07716e-08 0.00410985)
(-0.0312361 1.06216e-08 0.00432822)
(-0.0341196 1.03767e-08 0.00452687)
(-0.037123 1.00219e-08 0.00470367)
(-0.0402317 9.57547e-09 0.00485681)
(-0.0434303 9.02908e-09 0.00498484)
(-0.0467025 8.39022e-09 0.00508665)
(-0.0500314 7.6714e-09 0.00516147)
(-0.0533997 6.87679e-09 0.00520887)
(-0.05679 6.00304e-09 0.00522873)
(-0.060185 5.07017e-09 0.00522124)
(-0.0635673 4.07819e-09 0.00518687)
(-0.0669201 3.03375e-09 0.00512636)
(-0.070227 1.93853e-09 0.00504066)
(-0.0734724 7.99202e-10 0.00493095)
(-0.0766413 -3.78393e-10 0.00479856)
(-0.0797196 -1.6001e-09 0.004645)
(-0.0826943 -2.85339e-09 0.00447186)
(-0.0855532 -4.13745e-09 0.00428084)
(-0.0882854 -5.44475e-09 0.00407371)
(-0.0908809 -6.76531e-09 0.00385227)
(-0.093331 -8.09409e-09 0.00361832)
(-0.095628 -9.41194e-09 0.00337366)
(-0.0977654 -1.07088e-08 0.00312006)
(-0.0997377 -1.19848e-08 0.00285925)
(-0.101541 -1.32156e-08 0.0025929)
(-0.103171 -1.43946e-08 0.00232259)
(-0.104625 -1.55109e-08 0.00204983)
(-0.105904 -1.65513e-08 0.00177605)
(-0.107005 -1.75149e-08 0.00150257)
(-0.107929 -1.83841e-08 0.00123061)
(-0.108677 -1.91674e-08 0.000961326)
(-0.109251 -1.98648e-08 0.000695757)
(-0.109652 -2.04562e-08 0.000434871)
(-0.109885 -2.09258e-08 0.000179553)
(-0.109951 -2.13288e-08 -6.94859e-05)
(-0.109854 -2.16558e-08 -0.000311946)
(-0.109599 -2.18518e-08 -0.000547486)
(-0.109191 -2.19544e-08 -0.000775544)
(-0.108634 -2.19811e-08 -0.000995688)
(-0.107932 -2.19344e-08 -0.00120757)
(-0.107092 -2.18218e-08 -0.00141095)
(-0.106118 -2.16626e-08 -0.00160563)
(-0.105016 -2.14617e-08 -0.0017915)
(-0.103791 -2.12333e-08 -0.0019685)
(-0.102448 -2.09741e-08 -0.00213663)
(-0.100993 -2.06848e-08 -0.00229591)
(-0.0994319 -2.03714e-08 -0.0024464)
(-0.0977693 -2.00397e-08 -0.00258823)
(-0.0960107 -1.96863e-08 -0.0027215)
(-0.0941615 -1.93279e-08 -0.00284638)
(-0.0922267 -1.89646e-08 -0.00296303)
(-0.0902114 -1.85971e-08 -0.00307165)
(-0.0881205 -1.82263e-08 -0.00317244)
(-0.085959 -1.78479e-08 -0.00326561)
(-0.0837314 -1.74596e-08 -0.0033514)
(-0.0814424 -1.7063e-08 -0.00343004)
(-0.0790963 -1.66514e-08 -0.00350177)
(-0.0766976 -1.62347e-08 -0.00356684)
(-0.0742505 -1.58048e-08 -0.00362549)
(-0.0717588 -1.53614e-08 -0.00367797)
(-0.0692266 -1.48998e-08 -0.00372453)
(-0.0666577 -1.44131e-08 -0.00376543)
(-0.0640557 -1.39063e-08 -0.00380091)
(-0.061424 -1.33679e-08 -0.00383121)
(-0.0587661 -1.27978e-08 -0.00385659)
(-0.0560852 -1.21942e-08 -0.00387727)
(-0.0533845 -1.15506e-08 -0.00389349)
(-0.050667 -1.08653e-08 -0.00390549)
(-0.0479355 -1.01333e-08 -0.00391348)
(-0.0451929 -9.35947e-09 -0.00391769)
(-0.0424418 -8.55226e-09 -0.00391832)
(-0.0396847 -7.7033e-09 -0.00391559)
(-0.036924 -6.8226e-09 -0.0039097)
(-0.0341621 -5.91348e-09 -0.00390086)
(-0.0314013 -4.99431e-09 -0.00388926)
(-0.0286435 -4.06841e-09 -0.0038751)
(-0.0258909 -3.14247e-09 -0.00385856)
(-0.0231452 -2.22149e-09 -0.00383984)
(-0.0204082 -1.31215e-09 -0.00381911)
(-0.0176817 -4.21121e-10 -0.00379655)
(-0.0149671 4.51588e-10 -0.00377232)
(-0.012266 1.28928e-09 -0.00374655)
(-0.00957957 2.0786e-09 -0.00371949)
(-0.00690922 2.79784e-09 -0.00369124)
(-0.00425577 3.48374e-09 -0.0036623)
(-0.00162129 4.10789e-09 -0.00363254)
(0.000995952 4.59185e-09 -0.00360138)
(0.00358974 4.96413e-09 -0.00356909)
(0.00616116 5.29972e-09 -0.00353579)
(0.00870884 5.51342e-09 -0.0035013)
(0.0112323 5.6286e-09 -0.00346498)
(0.0137307 5.60686e-09 -0.00342749)
(0.0162037 5.37304e-09 -0.00338971)
(0.0186504 4.98224e-09 -0.0033517)
(0.0210705 4.45783e-09 -0.00331358)
(0.0234636 3.81816e-09 -0.00327543)
(0.0258294 3.08493e-09 -0.00323735)
(0.0281679 2.2832e-09 -0.00319941)
(0.0304788 1.45804e-09 -0.00316172)
(0.0327623 6.26169e-10 -0.00312436)
(0.0350183 -1.85695e-10 -0.00308742)
(0.0372471 -9.47474e-10 -0.00305098)
(0.0394489 -1.64914e-09 -0.00301512)
(0.0416241 -2.26897e-09 -0.0029799)
(0.0437728 -2.81029e-09 -0.00294536)
(0.0458956 -3.25138e-09 -0.00291153)
(0.0479928 -3.60057e-09 -0.00287842)
(0.0500649 -3.8495e-09 -0.00284601)
(0.0521122 -4.00149e-09 -0.00281425)
(0.0541351 -4.08662e-09 -0.00278305)
(0.056134 -4.10822e-09 -0.00275231)
(0.0581089 -4.07798e-09 -0.00272186)
(0.0600601 -4.01092e-09 -0.0026915)
(0.0619875 -3.91541e-09 -0.00266097)
(0.0638908 -3.79979e-09 -0.00262996)
(0.0657695 -3.69249e-09 -0.00259811)
(0.0676231 -3.60352e-09 -0.00256499)
(0.0694503 -3.53959e-09 -0.0025301)
(0.0712499 -3.51741e-09 -0.00249288)
(0.07302 -3.53366e-09 -0.00245269)
(0.0747585 -3.60673e-09 -0.00240883)
(0.0764625 -3.73161e-09 -0.00236051)
(0.0781289 -3.91502e-09 -0.00230688)
(0.0797538 -4.14024e-09 -0.00224702)
(0.0813326 -4.40894e-09 -0.00217994)
(0.0828602 -4.71112e-09 -0.00210456)
(0.0843308 -5.0401e-09 -0.00201977)
(0.0857376 -5.39088e-09 -0.0019244)
(0.0870732 -5.7551e-09 -0.00181721)
(0.0883293 -6.12944e-09 -0.00169697)
(0.0894968 -6.50053e-09 -0.0015624)
(0.0905657 -6.86838e-09 -0.00141223)
(0.0915253 -7.22798e-09 -0.00124522)
(0.0923638 -7.56764e-09 -0.00106017)
(0.0930688 -7.90743e-09 -0.000855971)
(0.093627 -8.23064e-09 -0.000631679)
(0.0940244 -8.53392e-09 -0.000386518)
(0.094246 -8.75695e-09 -0.000120069)
(0.094276 -8.99662e-09 0.000168832)
(0.0940989 -9.25178e-09 0.000481892)
(0.0936986 -9.41002e-09 0.000819768)
(0.0930587 -9.52657e-09 0.00118243)
(0.0921627 -9.60812e-09 0.00156953)
(0.0909941 -9.653e-09 0.00198036)
(0.0895372 -9.65617e-09 0.00241382)
(0.0877765 -9.61764e-09 0.00286834)
(0.0856979 -9.53739e-09 0.00334178)
(0.0832887 -9.41039e-09 0.0038314)
(0.080538 -9.24164e-09 0.00433375)
(0.0774373 -9.04121e-09 0.00484456)
(0.0739808 -8.80908e-09 0.00535864)
(0.0701665 -8.54691e-09 0.0058698)
(0.0659963 -8.28492e-09 0.00637062)
(0.0614774 -7.99117e-09 0.00685235)
(0.0566225 -7.67573e-09 0.00730465)
(0.0514517 -7.32678e-09 0.00771531)
(0.0459929 -6.92409e-09 0.00806986)
(0.0402839 -6.46757e-09 0.00835111)
(0.0343738 -5.98741e-09 0.00853841)
(0.0283253 -5.4532e-09 0.00860667)
(0.022217 -4.82435e-09 0.00852484)
(0.0161484 -4.01467e-09 0.00825376)
(0.0102356 -2.75741e-09 0.0077376)
(0.00462782 -1.013e-09 0.00692085)
(-0.000510413 6.86415e-10 0.00574216)
(-0.0049497 1.73386e-09 0.00412981)
(-0.00844414 1.38265e-09 0.00202711)
(-0.0107276 -9.03848e-10 -0.000567096)
(-0.0114696 -5.77584e-09 -0.00348734)