/*--------------------------------*- C++ -*----------------------------------*\
  =========                 |
  \\      /  F ield         | OpenFOAM: The Open Source CFD Toolbox
   \\    /   O peration     | Website:  https://openfoam.org
    \\  /    A nd           | Version:  8
     \\/     M anipulation  |
\*---------------------------------------------------------------------------*/
FoamFile
{
    version     2.0;
    format      ascii;
    class       volScalarField;
    location    "800";
    object      epsilon;
}
// * * * * * * * * * * * * * * * * * * * * * * * * * * * * * * * * * * * * * //

dimensions      [0 2 -3 0 0 0 0];

internalField   nonuniform List<scalar> 
48000
(
0.177409
0.186688
0.959364
1.04299
0.907584
1.11709
1.34844
1.58311
1.82034
2.06353
2.31327
2.56806
2.82825
3.09381
3.36473
3.64099
3.92249
4.20913
4.50075
4.79716
5.09815
5.40349
5.71291
6.02614
6.3429
6.66287
6.98574
7.31119
7.63889
7.9685
8.29967
8.63207
8.96532
9.29909
9.633
9.9667
10.2998
10.632
10.9629
11.2921
11.6194
11.9442
12.2663
12.5854
12.9011
13.2131
13.521
13.8246
14.1236
14.4176
14.7063
14.9896
15.2671
15.5386
15.8039
16.0627
16.3149
16.5602
16.7984
17.0294
17.253
17.4691
17.6775
17.8781
18.0708
18.2555
18.4322
18.6006
18.7608
18.9127
19.0563
19.1915
19.3182
19.4366
19.5464
19.6478
19.7406
19.8257
19.9026
19.9712
20.0315
20.0836
20.1276
20.1634
20.1911
20.2108
20.2225
20.2264
20.2225
20.2109
20.1917
20.165
20.1308
20.0894
20.0407
19.985
19.9223
19.8527
19.7764
19.6934
19.6039
19.5081
19.406
19.2977
19.1834
19.0633
18.9374
18.8058
18.6688
18.5263
18.3786
18.2258
18.0679
17.9051
17.7375
17.5653
17.3885
17.2073
17.0218
16.8321
16.6383
16.4406
16.239
16.0336
15.8246
15.6122
15.3963
15.1771
14.9548
14.7295
14.5013
14.2702
14.0365
13.8003
13.5617
13.3208
13.0778
12.8328
12.5859
12.3373
12.0872
11.8357
11.5829
11.329
11.0741
10.8185
10.5623
10.3056
10.0486
9.79157
9.53454
9.27775
9.02136
8.76554
8.51048
8.25634
8.0033
7.75154
7.50123
7.25256
7.00568
6.76078
6.51802
6.27757
6.03961
5.80429
5.57177
5.34222
5.1158
4.89264
4.67291
4.45674
4.24428
4.03565
3.83099
3.63042
3.43405
3.24199
3.05433
2.87116
2.69256
2.51858
2.34928
2.18469
2.02483
1.86977
1.71976
1.57484
1.43669
1.30236
1.17158
1.0495
0.977421
1.09308
0.984557
0.857811
0.87798
0.185431
0.154247
0.140708
0.177446
0.18676
0.959903
1.04294
0.907479
1.11711
1.3485
1.58319
1.82042
2.06362
2.31336
2.56815
2.82833
3.09389
3.36481
3.64107
3.92257
4.20921
4.50083
4.79724
5.09823
5.40356
5.71299
6.02622
6.34297
6.66293
6.9858
7.31125
7.63894
7.96855
8.29972
8.63211
8.96537
9.29913
9.63304
9.96674
10.2999
10.632
10.9629
11.2922
11.6194
11.9442
12.2664
12.5854
12.9011
13.2131
13.521
13.8246
14.1235
14.4175
14.7063
14.9896
15.2671
15.5386
15.8039
16.0627
16.3148
16.5601
16.7983
17.0293
17.253
17.469
17.6774
17.8781
18.0708
18.2555
18.4321
18.6005
18.7607
18.9126
19.0562
19.1914
19.3182
19.4365
19.5463
19.6477
19.7405
19.8256
19.9025
19.9711
20.0314
20.0836
20.1275
20.1633
20.191
20.2107
20.2224
20.2263
20.2224
20.2108
20.1916
20.1649
20.1307
20.0893
20.0406
19.9849
19.9222
19.8526
19.7763
19.6933
19.6038
19.508
19.4059
19.2976
19.1833
19.0632
18.9373
18.8057
18.6687
18.5262
18.3785
18.2256
18.0678
17.905
17.7374
17.5652
17.3884
17.2072
17.0217
16.832
16.6382
16.4405
16.2389
16.0335
15.8245
15.6121
15.3962
15.1771
14.9548
14.7294
14.5012
14.2701
14.0365
13.8002
13.5616
13.3207
13.0777
12.8327
12.5858
12.3372
12.0871
11.8356
11.5828
11.3289
11.0741
10.8184
10.5622
10.3055
10.0486
9.7915
9.53447
9.27768
9.02129
8.76548
8.51041
8.25627
8.00324
7.75148
7.50118
7.2525
7.00562
6.76072
6.51796
6.27752
6.03956
5.80424
5.57173
5.34218
5.11576
4.8926
4.67287
4.4567
4.24424
4.03562
3.83096
3.63039
3.43403
3.24197
3.05431
2.87115
2.69254
2.51857
2.34927
2.18467
2.02482
1.86976
1.71975
1.57484
1.43668
1.30234
1.17151
1.04926
0.976837
1.09264
0.984701
0.858201
0.878196
0.185405
0.154231
0.140705
0.262037
0.256201
0.38334
0.452381
0.490486
0.572833
0.665624
0.762409
0.861674
0.963729
1.0687
1.17647
1.28706
1.40048
1.51675
1.63586
1.75777
1.88247
2.0099
2.13999
2.27265
2.40778
2.54528
2.68503
2.82689
2.97072
3.11637
3.26368
3.41248
3.56262
3.7139
3.86616
4.01921
4.17286
4.32693
4.48123
4.63557
4.78977
4.94363
5.09697
5.24961
5.40137
5.55206
5.70151
5.84955
5.99601
6.14073
6.28355
6.42432
6.56289
6.69912
6.83286
6.964
7.09241
7.21797
7.34057
7.4601
7.57647
7.68958
7.79934
7.90569
8.00853
8.10781
8.20346
8.29543
8.38366
8.46812
8.54877
8.62556
8.69847
8.76748
8.83256
8.89371
8.9509
9.00414
9.05342
9.09883
9.14051
9.17832
9.21225
9.2423
9.26849
9.29083
9.30934
9.32406
9.335
9.3422
9.34571
9.34554
9.34175
9.33438
9.32347
9.30906
9.29121
9.26996
9.24536
9.21748
9.18635
9.15204
9.1146
9.07409
9.03057
8.98409
8.93472
8.88251
8.82752
8.76981
8.70944
8.64648
8.58097
8.51298
8.44258
8.3698
8.29473
8.2174
8.13789
8.05624
7.97251
7.88676
7.79905
7.70942
7.61794
7.52466
7.42963
7.33291
7.23455
7.13461
7.03314
6.93021
6.82586
6.72015
6.61314
6.50489
6.39547
6.28492
6.17331
6.06071
5.94719
5.83279
5.7176
5.60168
5.48511
5.36794
5.25026
5.13214
5.01365
4.89487
4.77588
4.65675
4.53757
4.41842
4.29937
4.18052
4.06193
3.94371
3.82592
3.70865
3.592
3.47603
3.36084
3.24651
3.13312
3.02076
2.90951
2.79944
2.69064
2.58318
2.47715
2.37262
2.26966
2.16835
2.06875
1.97093
1.87495
1.78087
1.68876
1.59865
1.51061
1.42467
1.34087
1.25924
1.1798
1.10258
1.02758
0.954817
0.884311
0.816097
0.750214
0.68678
0.625556
0.566978
0.513516
0.47187
0.449883
0.403805
0.350666
0.308568
0.204793
0.176371
0.212407
0.262009
0.255476
0.382857
0.45296
0.491153
0.572964
0.665609
0.762367
0.861626
0.963677
1.06864
1.17641
1.287
1.40042
1.51668
1.63578
1.7577
1.8824
2.00982
2.1399
2.27256
2.40769
2.54519
2.68494
2.82679
2.97062
3.11626
3.26357
3.41238
3.56251
3.71379
3.86604
4.01909
4.17274
4.32681
4.4811
4.63544
4.78964
4.9435
5.09684
5.24948
5.40123
5.55192
5.70137
5.8494
5.99586
6.14058
6.2834
6.42417
6.56273
6.69896
6.83271
6.96385
7.09225
7.21781
7.34041
7.45994
7.5763
7.68941
7.79918
7.90552
8.00836
8.10764
8.20329
8.29526
8.38349
8.46795
8.54859
8.62538
8.69829
8.7673
8.83239
8.89353
8.95072
9.00396
9.05325
9.09865
9.14034
9.17814
9.21207
9.24213
9.26831
9.29065
9.30917
9.32388
9.33483
9.34203
9.34553
9.34537
9.34158
9.33421
9.3233
9.30889
9.29104
9.26979
9.2452
9.21731
9.18618
9.15188
9.11444
9.07393
9.03041
8.98393
8.93456
8.88235
8.82736
8.76966
8.70929
8.64633
8.58082
8.51284
8.44243
8.36966
8.29458
8.21726
8.13774
8.0561
7.97237
7.88663
7.79891
7.70929
7.61781
7.52453
7.4295
7.33278
7.23442
7.13449
7.03302
6.93009
6.82574
6.72003
6.61303
6.50478
6.39535
6.28481
6.1732
6.06061
5.94708
5.83269
5.7175
5.60158
5.48501
5.36784
5.25016
5.13204
5.01356
4.89478
4.77579
4.65667
4.53749
4.41834
4.29929
4.18044
4.06186
3.94363
3.82585
3.70858
3.59193
3.47596
3.36078
3.24645
3.13306
3.0207
2.90945
2.79938
2.69058
2.58313
2.4771
2.37257
2.26961
2.1683
2.0687
1.97088
1.8749
1.78083
1.68872
1.59862
1.51057
1.42463
1.34083
1.25921
1.17977
1.10255
1.02755
0.954791
0.884287
0.816074
0.750192
0.686757
0.625525
0.566917
0.513401
0.471805
0.449857
0.403674
0.350224
0.308623
0.205388
0.176624
0.212415
0.330737
0.301998
0.3502
0.400164
0.451456
0.511163
0.576306
0.645298
0.71739
0.792314
0.869933
0.950139
1.03287
1.1181
1.20578
1.29591
1.38843
1.48333
1.58055
1.68004
1.78174
1.88557
1.99145
2.09929
2.20899
2.32043
2.4335
2.54808
2.66403
2.78123
2.89952
3.01877
3.13883
3.25955
3.38077
3.50234
3.6241
3.74591
3.86759
3.98901
4.11
4.23042
4.35012
4.46894
4.58675
4.70341
4.81878
4.93272
5.04512
5.15585
5.26479
5.37182
5.47684
5.57974
5.68043
5.77881
5.87479
5.96829
6.05923
6.14755
6.23316
6.31602
6.39606
6.47323
6.54748
6.61878
6.68708
6.75235
6.81455
6.87368
6.92969
6.98258
7.03234
7.07894
7.1224
7.16271
7.1999
7.234
7.26504
7.29296
7.31779
7.33952
7.35817
7.37377
7.38632
7.39585
7.40239
7.40596
7.40659
7.40431
7.39916
7.39116
7.38036
7.3668
7.3505
7.33152
7.30989
7.28566
7.25887
7.22956
7.19778
7.16358
7.127
7.0881
7.0469
7.00348
6.95787
6.91012
6.86028
6.80839
6.75452
6.69869
6.64097
6.58139
6.52001
6.45687
6.39202
6.3255
6.25737
6.18765
6.1164
6.04367
5.9695
5.89393
5.817
5.73877
5.65927
5.57855
5.49666
5.41364
5.32954
5.2444
5.15828
5.07121
4.98326
4.89446
4.80487
4.71454
4.62353
4.53188
4.43966
4.34692
4.25371
4.1601
4.06614
3.9719
3.87744
3.78281
3.68809
3.59334
3.49862
3.404
3.30955
3.21533
3.12141
3.02786
2.93475
2.84216
2.75013
2.65876
2.5681
2.47822
2.3892
2.30109
2.21397
2.1279
2.04295
1.95918
1.87665
1.79542
1.71556
1.63711
1.56014
1.48469
1.41082
1.33856
1.26797
1.19908
1.13192
1.06653
1.00293
0.941147
0.881194
0.82309
0.766851
0.712495
0.660051
0.609553
0.56105
0.514591
0.470411
0.429218
0.392449
0.359902
0.32493
0.288631
0.256388
0.225591
0.218253
0.278963
0.330808
0.30261
0.350648
0.400665
0.451658
0.511182
0.576269
0.645248
0.717336
0.792258
0.869875
0.95008
1.03281
1.11804
1.20572
1.29584
1.38837
1.48326
1.58048
1.67997
1.78167
1.8855
1.99138
2.09922
2.20891
2.32035
2.43342
2.548
2.66396
2.78115
2.89945
3.0187
3.13876
3.25947
3.38069
3.50226
3.62403
3.74583
3.86752
3.98893
4.10992
4.23034
4.35004
4.46886
4.58667
4.70333
4.8187
4.93265
5.04505
5.15578
5.26471
5.37174
5.47676
5.57967
5.68035
5.77873
5.87471
5.96822
6.05916
6.14747
6.23309
6.31595
6.39599
6.47316
6.54742
6.61871
6.68701
6.75228
6.81449
6.87361
6.92963
6.98252
7.03227
7.07888
7.12234
7.16265
7.19984
7.23395
7.26498
7.2929
7.31773
7.33946
7.35812
7.37372
7.38627
7.3958
7.40234
7.40591
7.40654
7.40426
7.39911
7.39112
7.38032
7.36675
7.35046
7.33148
7.30985
7.28562
7.25882
7.22952
7.19774
7.16354
7.12696
7.08806
7.04687
7.00344
6.95783
6.91008
6.86024
6.80836
6.75448
6.69866
6.64093
6.58136
6.51998
6.45684
6.39199
6.32547
6.25734
6.18762
6.11638
6.04364
5.96947
5.8939
5.81697
5.73874
5.65924
5.57853
5.49664
5.41362
5.32952
5.24438
5.15826
5.07119
4.98324
4.89444
4.80485
4.71452
4.62351
4.53187
4.43965
4.3469
4.2537
4.16009
4.06613
3.97189
3.87742
3.7828
3.68808
3.59333
3.49861
3.40399
3.30953
3.21532
3.1214
3.02785
2.93475
2.84215
2.75013
2.65875
2.56809
2.47821
2.38919
2.30108
2.21396
2.1279
2.04294
1.95917
1.87664
1.79542
1.71555
1.63711
1.56013
1.48469
1.41081
1.33856
1.26797
1.19907
1.13192
1.06653
1.00293
0.941142
0.881189
0.823086
0.766846
0.712491
0.660047
0.609549
0.561047
0.514586
0.470396
0.429182
0.392446
0.359948
0.325047
0.288763
0.256824
0.225949
0.218515
0.278963
0.344966
0.372726
0.408248
0.438027
0.476253
0.52304
0.576084
0.633795
0.69524
0.759887
0.827415
0.897611
0.970337
1.0455
1.12301
1.20283
1.28491
1.36918
1.4556
1.54411
1.63465
1.72715
1.82155
1.91775
2.01568
2.11523
2.21631
2.31881
2.42261
2.52761
2.63366
2.74066
2.84846
2.95694
3.06596
3.17537
3.28505
3.39484
3.50462
3.61423
3.72353
3.8324
3.9407
4.04828
4.15501
4.26078
4.36544
4.46889
4.571
4.67165
4.77073
4.86815
4.96379
5.05756
5.14936
5.23912
5.32674
5.41215
5.49527
5.57604
5.65439
5.73026
5.80359
5.87435
5.94247
6.00793
6.07068
6.13069
6.18793
6.24238
6.29401
6.34281
6.38877
6.43187
6.4721
6.50948
6.54401
6.5757
6.60455
6.63059
6.6538
6.67419
6.69177
6.70655
6.71856
6.72781
6.73433
6.73813
6.73924
6.73769
6.73351
6.72673
6.71738
6.70549
6.69111
6.67426
6.65498
6.63332
6.6093
6.58298
6.55439
6.52357
6.49057
6.45543
6.4182
6.3789
6.3376
6.29434
6.24915
6.20208
6.15318
6.10249
6.05006
5.99592
5.94012
5.8827
5.82371
5.76319
5.70118
5.63772
5.57286
5.50662
5.43907
5.37023
5.30015
5.22887
5.15643
5.08287
5.00824
4.93257
4.85591
4.7783
4.69979
4.62041
4.54023
4.45927
4.37759
4.29524
4.21226
4.1287
4.04463
3.96007
3.8751
3.78976
3.70412
3.61821
3.53211
3.44587
3.35955
3.27321
3.18691
3.10071
3.01468
2.92887
2.84335
2.75819
2.67344
2.58918
2.50546
2.42235
2.33991
2.25822
2.17732
2.0973
2.01819
1.94008
1.86301
1.78705
1.71226
1.63869
1.56639
1.49542
1.42582
1.35765
1.29096
1.22577
1.16213
1.10008
1.03964
0.98085
0.923733
0.868312
0.814607
0.76264
0.712434
0.664016
0.617423
0.572701
0.529915
0.489159
0.450582
0.414432
0.381112
0.350668
0.322237
0.296512
0.276193
0.264668
0.269875
0.32533
0.345031
0.373651
0.407988
0.43792
0.476221
0.523003
0.576037
0.633743
0.695185
0.759831
0.827357
0.897553
0.970278
1.04544
1.12295
1.20277
1.28484
1.36911
1.45553
1.54404
1.63458
1.72709
1.82148
1.91769
2.01561
2.11517
2.21624
2.31874
2.42255
2.52754
2.6336
2.74059
2.8484
2.95688
3.0659
3.17531
3.28499
3.39478
3.50455
3.61417
3.72348
3.83234
3.94064
4.04822
4.15496
4.26072
4.36539
4.46884
4.57094
4.6716
4.77068
4.8681
4.96374
5.05751
5.14932
5.23907
5.3267
5.4121
5.49523
5.576
5.65435
5.73022
5.80356
5.87431
5.94244
6.0079
6.07065
6.13066
6.1879
6.24235
6.29398
6.34278
6.38874
6.43184
6.47208
6.50946
6.54399
6.57567
6.60453
6.63057
6.65378
6.67417
6.69175
6.70654
6.71855
6.7278
6.73431
6.73811
6.73923
6.73768
6.7335
6.72672
6.71737
6.70548
6.6911
6.67425
6.65497
6.63331
6.6093
6.58297
6.55438
6.52357
6.49057
6.45543
6.41819
6.3789
6.3376
6.29434
6.24915
6.20208
6.15318
6.10249
6.05006
5.99592
5.94012
5.88271
5.82372
5.7632
5.70118
5.63773
5.57286
5.50663
5.43907
5.37024
5.30016
5.22888
5.15644
5.08288
5.00824
4.93258
4.85592
4.77831
4.69979
4.62042
4.54023
4.45928
4.3776
4.29525
4.21227
4.12871
4.04463
3.96008
3.87511
3.78977
3.70413
3.61822
3.53212
3.44588
3.35956
3.27322
3.18692
3.10072
3.01469
2.92888
2.84336
2.7582
2.67345
2.58919
2.50547
2.42236
2.33992
2.25823
2.17733
2.0973
2.0182
1.94009
1.86302
1.78706
1.71227
1.63869
1.56639
1.49542
1.42583
1.35766
1.29096
1.22577
1.16213
1.10008
1.03964
0.980854
0.923737
0.868315
0.81461
0.762643
0.712437
0.664019
0.617425
0.572703
0.529918
0.489162
0.450585
0.414435
0.381139
0.350723
0.322314
0.296583
0.27636
0.265025
0.270478
0.325242
0.281752
0.466546
0.487255
0.498232
0.523916
0.561701
0.607656
0.659391
0.715561
0.775379
0.838354
0.904164
0.972587
1.04346
1.11668
1.19213
1.26975
1.34946
1.4312
1.51491
1.60052
1.68796
1.77717
1.86806
1.96056
2.05459
2.15005
2.24685
2.34489
2.44406
2.54425
2.64535
2.74724
2.8498
2.95291
3.05643
3.16024
3.26421
3.36821
3.47211
3.57578
3.67908
3.78189
3.88408
3.98552
4.08609
4.18568
4.28416
4.38141
4.47734
4.57182
4.66477
4.75607
4.84564
4.93338
5.01921
5.10304
5.18481
5.26443
5.34184
5.41697
5.48977
5.56019
5.62817
5.69366
5.75662
5.81703
5.87483
5.93001
5.98254
6.03239
6.07955
6.124
6.16573
6.20474
6.24101
6.27456
6.30538
6.33349
6.35889
6.38158
6.40158
6.41889
6.43351
6.44548
6.4548
6.4615
6.46559
6.4671
6.46606
6.46248
6.45641
6.44786
6.43688
6.42349
6.40773
6.38962
6.36922
6.34656
6.32166
6.29459
6.26536
6.23403
6.20063
6.1652
6.12779
6.08844
6.04719
6.00408
5.95916
5.91246
5.86403
5.81391
5.76215
5.70877
5.65384
5.59738
5.53944
5.48005
5.41926
5.35712
5.29365
5.2289
5.16291
5.09572
5.02736
4.95789
4.88733
4.81573
4.74314
4.66958
4.59511
4.51977
4.44359
4.36663
4.28893
4.21053
4.13148
4.05183
3.97163
3.89092
3.80976
3.72819
3.64628
3.56407
3.48162
3.39898
3.31621
3.23337
3.15052
3.06771
2.98501
2.90247
2.82016
2.73814
2.65647
2.57521
2.49443
2.41419
2.33454
2.25556
2.17731
2.09984
2.02322
1.94751
1.87277
1.79905
1.72642
1.65492
1.58462
1.51555
1.44779
1.38136
1.31632
1.25271
1.19056
1.12992
1.07082
1.01329
0.957361
0.903054
0.850398
0.799418
0.750141
0.702597
0.656824
0.612869
0.570797
0.530692
0.492671
0.456894
0.423575
0.393012
0.365581
0.341839
0.323352
0.313755
0.320173
0.348988
0.300623
0.281773
0.467281
0.486343
0.497862
0.52381
0.561648
0.607606
0.659337
0.715505
0.775322
0.838296
0.904105
0.972528
1.0434
1.11662
1.19207
1.26969
1.3494
1.43114
1.51485
1.60045
1.6879
1.7771
1.868
1.9605
2.05453
2.14999
2.24679
2.34482
2.44399
2.54419
2.64529
2.74718
2.84974
2.95285
3.05637
3.16018
3.26416
3.36816
3.47206
3.57572
3.67903
3.78184
3.88402
3.98547
4.08604
4.18563
4.28411
4.38137
4.47729
4.57178
4.66472
4.75603
4.8456
4.93334
5.01917
5.10301
5.18477
5.26439
5.3418
5.41694
5.48975
5.56016
5.62814
5.69363
5.7566
5.817
5.87481
5.92999
5.98252
6.03237
6.07953
6.12398
6.16572
6.20472
6.241
6.27455
6.30537
6.33348
6.35888
6.38158
6.40157
6.41888
6.43351
6.44547
6.4548
6.46149
6.46559
6.4671
6.46605
6.46248
6.45641
6.44786
6.43688
6.42349
6.40773
6.38963
6.36923
6.34656
6.32167
6.29459
6.26537
6.23403
6.20063
6.16521
6.1278
6.08845
6.0472
6.00409
5.95916
5.91247
5.86404
5.81392
5.76216
5.70878
5.65385
5.59739
5.53945
5.48006
5.41928
5.35713
5.29366
5.22891
5.16292
5.09573
5.02738
4.9579
4.88734
4.81575
4.74315
4.6696
4.59512
4.51978
4.44361
4.36665
4.28894
4.21054
4.1315
4.05185
3.97164
3.89093
3.80977
3.72821
3.64629
3.56408
3.48163
3.39899
3.31623
3.23339
3.15053
3.06772
2.98502
2.90248
2.82017
2.73815
2.65648
2.57523
2.49444
2.4142
2.33456
2.25558
2.17732
2.09985
2.02324
1.94752
1.87278
1.79906
1.72643
1.65493
1.58463
1.51556
1.4478
1.38137
1.31633
1.25272
1.19057
1.12993
1.07083
1.0133
0.957367
0.90306
0.850404
0.799424
0.750146
0.702602
0.656829
0.612874
0.570801
0.530696
0.492675
0.456898
0.423578
0.39302
0.365595
0.341856
0.323375
0.313906
0.320874
0.349269
0.300608
0.312786
0.561007
0.569386
0.566666
0.583215
0.614838
0.65637
0.704733
0.758201
0.815759
0.876765
0.940791
1.00754
1.07678
1.14836
1.22215
1.29803
1.37592
1.45574
1.5374
1.62085
1.70601
1.79282
1.88119
1.97105
2.06234
2.15496
2.24883
2.34386
2.43996
2.53703
2.63496
2.73364
2.83298
2.93285
3.03313
3.13371
3.23447
3.33528
3.43603
3.53658
3.63682
3.73661
3.83585
3.93441
4.03217
4.12901
4.22482
4.31948
4.4129
4.50496
4.59557
4.68462
4.77202
4.85769
4.94153
5.02347
5.10343
5.18134
5.25712
5.33071
5.40207
5.47112
5.53781
5.60211
5.66397
5.72335
5.78021
5.83452
5.88626
5.9354
5.98193
6.02582
6.06706
6.10565
6.14157
6.17483
6.20542
6.23336
6.25864
6.28127
6.30125
6.31861
6.33334
6.34546
6.35499
6.36195
6.36634
6.36821
6.36756
6.36443
6.35884
6.35081
6.34039
6.3276
6.31248
6.29505
6.27535
6.25342
6.2293
6.20301
6.17461
6.14413
6.1116
6.07708
6.04059
6.00218
5.9619
5.91977
5.87585
5.83017
5.78278
5.73372
5.68302
5.63073
5.57689
5.52154
5.46472
5.40647
5.34683
5.28584
5.22354
5.15997
5.09516
5.02917
4.96202
4.89376
4.82443
4.75406
4.68271
4.61041
4.53719
4.46312
4.38822
4.31254
4.23612
4.15902
4.08128
4.00294
3.92405
3.84467
3.76483
3.6846
3.60403
3.52317
3.44207
3.36079
3.27938
3.19791
3.11642
3.03499
2.95366
2.8725
2.79158
2.71094
2.63065
2.55079
2.47139
2.39254
2.31429
2.2367
2.15983
2.08375
2.00852
1.93419
1.86083
1.78848
1.71721
1.64708
1.57812
1.5104
1.44396
1.37884
1.3151
1.25277
1.19189
1.13249
1.07461
1.01827
0.963519
0.91037
0.858856
0.809005
0.760851
0.714431
0.669795
0.627003
0.586135
0.5473
0.51064
0.476352
0.444706
0.416094
0.391135
0.370926
0.357709
0.356352
0.377137
0.42673
0.31473
0.312812
0.5613
0.568074
0.566165
0.583075
0.614778
0.656318
0.704678
0.758145
0.815701
0.876706
0.940731
1.00748
1.07672
1.1483
1.22209
1.29797
1.37586
1.45567
1.53734
1.62079
1.70595
1.79275
1.88112
1.97099
2.06228
2.1549
2.24877
2.3438
2.4399
2.53697
2.6349
2.73358
2.83292
2.93279
3.03307
3.13365
3.23441
3.33523
3.43597
3.53653
3.63676
3.73656
3.8358
3.93436
4.03212
4.12896
4.22477
4.31944
4.41286
4.50492
4.59553
4.68458
4.77199
4.85765
4.9415
5.02344
5.1034
5.1813
5.25709
5.33069
5.40204
5.47109
5.53779
5.60209
5.66395
5.72333
5.78019
5.8345
5.88624
5.93539
5.98191
6.0258
6.06705
6.10563
6.14156
6.17482
6.20541
6.23335
6.25863
6.28126
6.30125
6.3186
6.33334
6.34546
6.35499
6.36194
6.36634
6.36821
6.36756
6.36443
6.35884
6.35082
6.3404
6.32761
6.31248
6.29505
6.27536
6.25343
6.2293
6.20302
6.17462
6.14414
6.11161
6.07709
6.0406
6.00219
5.96191
5.91978
5.87586
5.83019
5.7828
5.73373
5.68303
5.63074
5.57691
5.52156
5.46474
5.40649
5.34685
5.28585
5.22355
5.15998
5.09518
5.02918
4.96203
4.89378
4.82444
4.75408
4.68273
4.61042
4.53721
4.46313
4.38823
4.31255
4.23614
4.15904
4.08129
4.00295
3.92407
3.84468
3.76485
3.68462
3.60405
3.52318
3.44208
3.3608
3.2794
3.19792
3.11644
3.035
2.95368
2.87252
2.79159
2.71095
2.63067
2.5508
2.47141
2.39255
2.3143
2.23671
2.15985
2.08377
2.00853
1.9342
1.86084
1.78849
1.71723
1.64709
1.57813
1.51041
1.44397
1.37885
1.31511
1.25278
1.19189
1.13249
1.07461
1.01828
0.963526
0.910377
0.858862
0.809011
0.760857
0.714437
0.6698
0.627008
0.58614
0.547304
0.510645
0.476357
0.44471
0.416097
0.391138
0.370924
0.357694
0.356345
0.37731
0.425532
0.314904
0.350878
0.667916
0.651926
0.639098
0.649946
0.677808
0.716789
0.763426
0.81574
0.872541
0.933063
0.996785
1.06333
1.13243
1.20387
1.27747
1.35311
1.43067
1.51005
1.59117
1.67394
1.7583
1.84418
1.93149
2.02018
2.11018
2.2014
2.29377
2.38721
2.48164
2.57697
2.6731
2.76995
2.8674
2.96536
3.06373
3.16238
3.26121
3.3601
3.45895
3.55762
3.65601
3.754
3.85147
3.9483
4.04438
4.1396
4.23384
4.32701
4.41898
4.50965
4.59894
4.68673
4.77294
4.85747
4.94025
5.02119
5.10021
5.17724
5.25222
5.32506
5.39572
5.46414
5.53027
5.59405
5.65545
5.71441
5.77092
5.82492
5.8764
5.92533
5.97169
6.01545
6.05661
6.09515
6.13106
6.16435
6.195
6.22302
6.24841
6.27117
6.29132
6.30887
6.32381
6.33616
6.34595
6.35318
6.35787
6.36004
6.35972
6.35693
6.3517
6.34405
6.33401
6.32161
6.30688
6.28986
6.27058
6.24907
6.22537
6.19952
6.17155
6.1415
6.10941
6.07532
6.03927
6.0013
5.96145
5.91976
5.87626
5.83101
5.78404
5.73539
5.6851
5.63322
5.57978
5.52483
5.4684
5.41053
5.35126
5.29064
5.22871
5.16549
5.10104
5.03539
4.96858
4.90066
4.83166
4.76162
4.69058
4.6186
4.5457
4.47193
4.39733
4.32195
4.24584
4.16903
4.09158
4.01353
3.93494
3.85584
3.7763
3.69636
3.61607
3.5355
3.45469
3.3737
3.29258
3.2114
3.13021
3.04908
2.96805
2.8872
2.80658
2.72625
2.64628
2.56673
2.48766
2.40913
2.33121
2.25396
2.17743
2.1017
2.02681
1.95283
1.87982
1.80782
1.73691
1.66712
1.59852
1.53115
1.46505
1.40028
1.33687
1.27486
1.21429
1.1552
1.09761
1.04156
0.98708
0.934196
0.882941
0.833348
0.785457
0.739315
0.694981
0.652529
0.612059
0.573701
0.537629
0.504084
0.473404
0.446092
0.422958
0.405421
0.39631
0.402533
0.447206
0.63869
1.67015
0.350817
0.667045
0.650258
0.638489
0.649768
0.677735
0.716732
0.763369
0.815681
0.872481
0.933002
0.996723
1.06327
1.13237
1.2038
1.27741
1.35304
1.4306
1.50998
1.5911
1.67388
1.75824
1.84411
1.93143
2.02012
2.11011
2.20133
2.29371
2.38715
2.48158
2.57691
2.67304
2.76989
2.86734
2.96531
3.06367
3.16232
3.26115
3.36005
3.45889
3.55757
3.65596
3.75395
3.85142
3.94825
4.04434
4.13956
4.2338
4.32696
4.41893
4.50961
4.5989
4.68669
4.7729
4.85744
4.94022
5.02116
5.10018
5.17721
5.25219
5.32503
5.3957
5.46412
5.53024
5.59403
5.65542
5.71439
5.7709
5.8249
5.87639
5.92532
5.97167
6.01544
6.0566
6.09514
6.13105
6.16434
6.19499
6.22301
6.2484
6.27117
6.29132
6.30886
6.3238
6.33616
6.34595
6.35318
6.35787
6.36004
6.35972
6.35694
6.3517
6.34405
6.33401
6.32161
6.30689
6.28987
6.27059
6.24908
6.22538
6.19953
6.17156
6.14151
6.10942
6.07533
6.03928
6.00131
5.96146
5.91977
5.87627
5.83102
5.78405
5.7354
5.68512
5.63323
5.57979
5.52484
5.46841
5.41054
5.35128
5.29066
5.22872
5.16551
5.10105
5.03541
4.9686
4.90067
4.83167
4.76163
4.6906
4.61861
4.54571
4.47194
4.39734
4.32197
4.24585
4.16905
4.0916
4.01355
3.93495
3.85586
3.77631
3.69637
3.61609
3.53551
3.4547
3.37371
3.2926
3.21142
3.13023
3.04909
2.96807
2.88721
2.80659
2.72627
2.6463
2.56674
2.48767
2.40915
2.33123
2.25397
2.17744
2.10171
2.02682
1.95284
1.87983
1.80783
1.73692
1.66713
1.59853
1.53116
1.46506
1.40029
1.33688
1.27487
1.2143
1.15521
1.09762
1.04157
0.987087
0.934203
0.882947
0.833354
0.785463
0.739321
0.694986
0.652534
0.612064
0.573706
0.537634
0.504089
0.473408
0.446096
0.42296
0.405417
0.396261
0.402232
0.446008
0.637706
1.67097
1.79864
0.888209
0.74979
0.717726
0.723474
0.748986
0.786678
0.832705
0.884901
0.941939
1.00295
1.06732
1.13462
1.20451
1.27673
1.35108
1.42739
1.50554
1.58539
1.66685
1.74985
1.83428
1.9201
2.00721
2.09557
2.1851
2.27574
2.36742
2.46007
2.55361
2.64797
2.74306
2.83881
2.93511
3.03189
3.12903
3.22644
3.32402
3.42167
3.51926
3.6167
3.71388
3.81067
3.90698
4.00268
4.09767
4.19183
4.28507
4.37727
4.46832
4.55813
4.6466
4.73363
4.81912
4.903
4.98516
5.06554
5.14405
5.22062
5.29517
5.36765
5.43799
5.50614
5.57203
5.63562
5.69686
5.75571
5.81213
5.86609
5.91756
5.96651
6.01291
6.05675
6.098
6.13667
6.17272
6.20617
6.237
6.26521
6.29081
6.31379
6.33417
6.35195
6.36713
6.37974
6.38978
6.39727
6.40223
6.40468
6.40463
6.40211
6.39715
6.38976
6.37999
6.36785
6.35338
6.33661
6.31757
6.2963
6.27283
6.2472
6.21944
6.18959
6.15769
6.12378
6.08789
6.05007
6.01036
5.96879
5.92541
5.88025
5.83336
5.78477
5.73453
5.68268
5.62926
5.57431
5.51786
5.45996
5.40065
5.33997
5.27796
5.21465
5.1501
5.08433
5.01739
4.94931
4.88015
4.80994
4.73872
4.66654
4.59343
4.51944
4.44462
4.369
4.29264
4.21558
4.13787
4.05956
3.98069
3.90132
3.82149
3.74126
3.66069
3.57982
3.49871
3.41743
3.33602
3.25454
3.17305
3.09162
3.0103
2.92916
2.84825
2.76764
2.68739
2.60757
2.52823
2.44943
2.37125
2.29374
2.21697
2.14099
2.06586
1.99164
1.9184
1.84618
1.77505
1.70504
1.63622
1.56862
1.5023
1.4373
1.37366
1.31142
1.25061
1.19127
1.13342
1.07711
1.02236
0.969197
0.917663
0.867795
0.819638
0.773248
0.728694
0.686066
0.645482
0.607095
0.571113
0.537817
0.507611
0.481094
0.459219
0.443617
0.437356
0.447464
0.498449
0.733031
2.03979
1.79763
0.886974
0.748988
0.717415
0.723357
0.748919
0.786619
0.832645
0.88484
0.941877
1.00289
1.06726
1.13455
1.20444
1.27666
1.35101
1.42733
1.50547
1.58532
1.66679
1.74978
1.83422
1.92003
2.00715
2.09551
2.18504
2.27568
2.36736
2.46001
2.55355
2.64791
2.743
2.83875
2.93505
3.03183
3.12897
3.22639
3.32397
3.42161
3.51921
3.61665
3.71382
3.81062
3.90693
4.00263
4.09762
4.19179
4.28503
4.37722
4.46828
4.55809
4.64656
4.73359
4.81908
4.90296
4.98513
5.06551
5.14402
5.22059
5.29515
5.36763
5.43797
5.50611
5.572
5.63559
5.69683
5.75569
5.81211
5.86607
5.91754
5.96649
6.01289
6.05673
6.09799
6.13665
6.17271
6.20616
6.23699
6.2652
6.2908
6.31379
6.33416
6.35194
6.36713
6.37974
6.38978
6.39727
6.40223
6.40468
6.40463
6.40211
6.39715
6.38976
6.37999
6.36785
6.35338
6.33662
6.31758
6.29631
6.27284
6.24721
6.21945
6.1896
6.1577
6.12379
6.0879
6.05008
6.01037
5.9688
5.92541
5.88026
5.83337
5.78478
5.73454
5.68269
5.62927
5.57432
5.51787
5.45998
5.40067
5.33999
5.27797
5.21467
5.15011
5.08434
5.0174
4.94933
4.88017
4.80995
4.73873
4.66655
4.59344
4.51945
4.44463
4.36902
4.29266
4.2156
4.13789
4.05957
3.9807
3.90133
3.8215
3.74128
3.6607
3.57983
3.49873
3.41744
3.33603
3.25455
3.17307
3.09164
3.01032
2.92917
2.84826
2.76765
2.6874
2.60758
2.52824
2.44944
2.37126
2.29375
2.21698
2.141
2.06587
1.99165
1.91841
1.84619
1.77505
1.70505
1.63622
1.56863
1.50231
1.43731
1.37367
1.31143
1.25062
1.19127
1.13343
1.07712
1.02236
0.969203
0.917669
0.867801
0.819644
0.773253
0.728699
0.686071
0.645487
0.6071
0.571117
0.537822
0.507616
0.481099
0.459225
0.44363
0.437384
0.447434
0.497951
0.734904
2.0403
2.09395
1.02243
0.845789
0.802631
0.80433
0.828126
0.865222
0.911354
0.964141
1.02211
1.08429
1.14998
1.21869
1.29001
1.36365
1.43937
1.51698
1.5963
1.67722
1.75961
1.84338
1.92845
2.01474
2.10219
2.19073
2.2803
2.37085
2.46231
2.55462
2.64773
2.74155
2.83603
2.93109
3.02665
3.12262
3.21893
3.31547
3.41217
3.50891
3.6056
3.70213
3.79841
3.89433
3.98977
4.08464
4.17883
4.27222
4.36472
4.45621
4.54661
4.6358
4.72369
4.81018
4.89519
4.97862
5.06038
5.1404
5.21859
5.29488
5.3692
5.44148
5.51166
5.57968
5.64548
5.70902
5.77023
5.82909
5.88555
5.93957
5.99112
6.04018
6.08671
6.1307
6.17212
6.21096
6.24722
6.28087
6.31191
6.34035
6.36617
6.38939
6.41
6.42801
6.44344
6.45628
6.46656
6.47428
6.47947
6.48213
6.4823
6.47999
6.47523
6.46804
6.45845
6.44649
6.43218
6.41556
6.39665
6.3755
6.35214
6.3266
6.29891
6.26912
6.23726
6.20337
6.16748
6.12965
6.08989
6.04827
6.00481
5.95955
5.91254
5.86382
5.81342
5.76139
5.70777
5.65259
5.5959
5.53774
5.47814
5.41715
5.35481
5.29116
5.22624
5.16008
5.09274
5.02425
4.95464
4.88398
4.81229
4.73962
4.66601
4.5915
4.51615
4.44
4.36308
4.28546
4.20718
4.12828
4.04882
3.96884
3.88841
3.80757
3.72638
3.64489
3.56315
3.48124
3.39919
3.31708
3.23496
3.1529
3.07095
2.98917
2.90764
2.8264
2.74553
2.66508
2.58513
2.50573
2.42694
2.34883
2.27147
2.1949
2.11919
2.04439
1.97058
1.89779
1.82608
1.75551
1.68612
1.61795
1.55107
1.48549
1.42127
1.35844
1.29704
1.2371
1.17865
1.12171
1.06634
1.01255
0.960383
0.909886
0.86111
0.814118
0.768991
0.725835
0.684784
0.646016
0.609768
0.576365
0.546264
0.520145
0.499074
0.484838
0.480568
0.491746
0.526945
0.59586
0.34378
2.09379
1.02206
0.845537
0.802504
0.804254
0.828063
0.86516
0.911291
0.964077
1.02205
1.08423
1.14992
1.21862
1.28994
1.36359
1.43931
1.51691
1.59624
1.67715
1.75954
1.84332
1.92838
2.01468
2.10212
2.19066
2.28024
2.37078
2.46224
2.55456
2.64766
2.74149
2.83597
2.93103
3.02659
3.12256
3.21887
3.31542
3.41211
3.50885
3.60554
3.70208
3.79836
3.89428
3.98972
4.08459
4.17878
4.27217
4.36467
4.45617
4.54657
4.63576
4.72365
4.81015
4.89515
4.97858
5.06034
5.14036
5.21856
5.29485
5.36917
5.44145
5.51163
5.57965
5.64546
5.70899
5.77021
5.82907
5.88553
5.93955
5.9911
6.04016
6.08669
6.13068
6.17211
6.21095
6.2472
6.28086
6.3119
6.34034
6.36617
6.38938
6.40999
6.42801
6.44343
6.45628
6.46655
6.47428
6.47946
6.48213
6.4823
6.47999
6.47523
6.46804
6.45845
6.44649
6.43218
6.41556
6.39666
6.37551
6.35214
6.3266
6.29892
6.26912
6.23726
6.20337
6.16749
6.12965
6.0899
6.04828
6.00482
5.95956
5.91255
5.86383
5.81343
5.7614
5.70778
5.6526
5.59591
5.53775
5.47815
5.41716
5.35482
5.29117
5.22625
5.16009
5.09275
5.02426
4.95466
4.88399
4.8123
4.73963
4.66602
4.59152
4.51616
4.44001
4.3631
4.28547
4.20719
4.12829
4.04883
3.96886
3.88842
3.80758
3.72639
3.6449
3.56316
3.48125
3.3992
3.31709
3.23498
3.15291
3.07096
2.98918
2.90765
2.82641
2.74554
2.66509
2.58514
2.50574
2.42695
2.34884
2.27148
2.19491
2.1192
2.0444
1.97058
1.8978
1.82609
1.75551
1.68612
1.61796
1.55107
1.4855
1.42128
1.35845
1.29705
1.23711
1.17865
1.12172
1.06634
1.01255
0.960388
0.909891
0.861115
0.814123
0.768996
0.72584
0.684789
0.646021
0.609773
0.57637
0.546269
0.52015
0.49908
0.484858
0.480665
0.492126
0.528018
0.597046
0.343698
2.39314
1.15774
0.949478
0.895672
0.893126
0.915322
0.952172
0.998868
1.05274
1.11215
1.176
1.24351
1.3141
1.38733
1.46285
1.54038
1.6197
1.70062
1.783
1.8667
1.95162
2.03768
2.12479
2.2129
2.30194
2.39185
2.4826
2.57412
2.66636
2.75928
2.85282
2.94691
3.0415
3.13652
3.2319
3.32756
3.42342
3.5194
3.6154
3.71135
3.80713
3.90266
3.99783
4.09255
4.18671
4.28021
4.37294
4.46481
4.55571
4.64554