/*--------------------------------*- C++ -*----------------------------------*\
  =========                 |
  \\      /  F ield         | OpenFOAM: The Open Source CFD Toolbox
   \\    /   O peration     | Website:  https://openfoam.org
    \\  /    A nd           | Version:  8
     \\/     M anipulation  |
\*---------------------------------------------------------------------------*/
FoamFile
{
    version     2.0;
    format      ascii;
    class       volScalarField;
    location    "800";
    object      nut;
}
// * * * * * * * * * * * * * * * * * * * * * * * * * * * * * * * * * * * * * //

dimensions      [0 2 -1 0 0 0 0];

internalField   nonuniform List<scalar> 
48000
(
0.000131275
0.000181838
3.79658e-05
4.26043e-05
4.88661e-05
5.21602e-05
5.54355e-05
5.84583e-05
6.12389e-05
6.38566e-05
6.63336e-05
6.86834e-05
7.09272e-05
7.30795e-05
7.51519e-05
7.71534e-05
7.90913e-05
8.09715e-05
8.27987e-05
8.45766e-05
8.63086e-05
8.79972e-05
8.96446e-05
9.12526e-05
9.2823e-05
9.4357e-05
9.58559e-05
9.73208e-05
9.87524e-05
0.000100152
0.000101519
0.000102855
0.000104161
0.000105437
0.000106683
0.000107899
0.000109087
0.000110246
0.000111377
0.000112479
0.000113554
0.000114601
0.000115621
0.000116614
0.00011758
0.000118519
0.000119431
0.000120317
0.000121177
0.000122011
0.000122819
0.000123601
0.000124358
0.00012509
0.000125797
0.000126478
0.000127136
0.000127769
0.000128377
0.000128962
0.000129523
0.000130061
0.000130575
0.000131066
0.000131534
0.00013198
0.000132403
0.000132805
0.000133184
0.000133542
0.000133878
0.000134193
0.000134487
0.00013476
0.000135013
0.000135245
0.000135457
0.000135651
0.000135825
0.000135981
0.000136117
0.000136234
0.000136333
0.000136413
0.000136475
0.000136519
0.000136545
0.000136553
0.000136544
0.000136517
0.000136473
0.000136412
0.000136335
0.000136241
0.000136131
0.000136004
0.000135861
0.000135702
0.000135528
0.000135338
0.000135132
0.000134911
0.000134675
0.000134424
0.000134158
0.000133877
0.000133582
0.000133272
0.000132947
0.000132608
0.000132254
0.000131887
0.000131505
0.000131109
0.000130699
0.000130274
0.000129836
0.000129383
0.000128917
0.000128436
0.000127942
0.000127433
0.00012691
0.000126373
0.000125822
0.000125257
0.000124677
0.000124083
0.000123475
0.000122852
0.000122214
0.000121562
0.000120896
0.000120214
0.000119518
0.000118806
0.00011808
0.000117339
0.000116582
0.00011581
0.000115023
0.00011422
0.000113402
0.000112568
0.000111719
0.000110853
0.000109972
0.000109075
0.000108161
0.000107232
0.000106286
0.000105325
0.000104346
0.000103352
0.00010234
0.000101313
0.000100268
9.92066e-05
9.81283e-05
9.7033e-05
9.59206e-05
9.47909e-05
9.36439e-05
9.24793e-05
9.1297e-05
9.0097e-05
8.88789e-05
8.76426e-05
8.63879e-05
8.51145e-05
8.38223e-05
8.25108e-05
8.11798e-05
7.98289e-05
7.84576e-05
7.70654e-05
7.56517e-05
7.42158e-05
7.2757e-05
7.12742e-05
6.97662e-05
6.82317e-05
6.66689e-05
6.50758e-05
6.34499e-05
6.17887e-05
6.00912e-05
5.83556e-05
5.65974e-05
5.47704e-05
5.28153e-05
5.04235e-05
4.55274e-05
3.32947e-05
3.04747e-05
3.08405e-05
3.39537e-05
0.000176072
0.000154492
0.000103485
0.000131245
0.000181634
3.79375e-05
4.26269e-05
4.89094e-05
5.21721e-05
5.54389e-05
5.84598e-05
6.124e-05
6.38577e-05
6.63346e-05
6.86843e-05
7.09282e-05
7.30805e-05
7.51528e-05
7.71543e-05
7.90922e-05
8.09723e-05
8.27994e-05
8.45773e-05
8.63092e-05
8.79977e-05
8.96451e-05
9.12531e-05
9.28235e-05
9.43575e-05
9.58564e-05
9.73212e-05
9.87528e-05
0.000100152
0.00010152
0.000102856
0.000104162
0.000105437
0.000106683
0.0001079
0.000109087
0.000110246
0.000111377
0.00011248
0.000113554
0.000114602
0.000115621
0.000116614
0.00011758
0.000118519
0.000119431
0.000120317
0.000121177
0.000122011
0.000122819
0.000123601
0.000124358
0.00012509
0.000125797
0.000126478
0.000127136
0.000127769
0.000128377
0.000128962
0.000129523
0.000130061
0.000130575
0.000131066
0.000131534
0.00013198
0.000132403
0.000132805
0.000133184
0.000133542
0.000133878
0.000134193
0.000134487
0.00013476
0.000135013
0.000135245
0.000135457
0.000135651
0.000135825
0.00013598
0.000136117
0.000136234
0.000136333
0.000136413
0.000136475
0.000136519
0.000136544
0.000136553
0.000136543
0.000136517
0.000136473
0.000136412
0.000136335
0.000136241
0.00013613
0.000136004
0.000135861
0.000135702
0.000135528
0.000135338
0.000135132
0.000134911
0.000134675
0.000134424
0.000134158
0.000133877
0.000133582
0.000133271
0.000132947
0.000132608
0.000132254
0.000131887
0.000131505
0.000131108
0.000130698
0.000130274
0.000129836
0.000129383
0.000128917
0.000128436
0.000127941
0.000127433
0.00012691
0.000126373
0.000125822
0.000125256
0.000124677
0.000124083
0.000123474
0.000122852
0.000122214
0.000121562
0.000120895
0.000120214
0.000119518
0.000118806
0.00011808
0.000117338
0.000116582
0.00011581
0.000115023
0.00011422
0.000113402
0.000112568
0.000111718
0.000110853
0.000109972
0.000109074
0.000108161
0.000107232
0.000106286
0.000105324
0.000104346
0.000103351
0.00010234
0.000101312
0.000100268
9.92064e-05
9.81281e-05
9.70328e-05
9.59203e-05
9.47907e-05
9.36436e-05
9.24791e-05
9.12968e-05
9.00967e-05
8.88786e-05
8.76423e-05
8.63876e-05
8.51143e-05
8.38221e-05
8.25106e-05
8.11796e-05
7.98287e-05
7.84574e-05
7.70652e-05
7.56515e-05
7.42157e-05
7.27568e-05
7.1274e-05
6.97661e-05
6.82316e-05
6.66688e-05
6.50757e-05
6.34497e-05
6.17886e-05
6.00911e-05
5.83555e-05
5.65975e-05
5.47713e-05
5.28207e-05
5.04458e-05
4.55827e-05
3.33184e-05
3.04605e-05
3.08025e-05
3.39363e-05
0.000176176
0.000154517
0.000103478
0.000148683
0.000261365
0.00027134
0.000338999
0.000445562
0.00050504
0.000549588
0.000588015
0.000622559
0.000654085
0.000683197
0.000710416
0.000736069
0.000760399
0.000783591
0.000805783
0.000827088
0.000847595
0.000867376
0.000886491
0.000904992
0.000922921
0.000940315
0.000957205
0.000973618
0.00098958
0.00100511
0.00102023
0.00103495
0.00104929
0.00106327
0.00107689
0.00109016
0.0011031
0.00111571
0.001128
0.00113997
0.00115164
0.00116301
0.00117408
0.00118486
0.00119536
0.00120557
0.00121549
0.00122515
0.00123453
0.00124363
0.00125247
0.00126105
0.00126936
0.00127741
0.0012852
0.00129274
0.00130002
0.00130705
0.00131384
0.00132037
0.00132666
0.00133271
0.00133852
0.00134409
0.00134942
0.00135452
0.00135939
0.00136403
0.00136845
0.00137264
0.0013766
0.00138035
0.00138388
0.00138719
0.00139029
0.00139318
0.00139586
0.00139833
0.00140059
0.00140262
0.0014044
0.00140598
0.00140737
0.00140857
0.00140958
0.00141041
0.00141105
0.00141151
0.00141179
0.00141188
0.00141181
0.00141155
0.00141113
0.00141053
0.00140976
0.00140883
0.00140773
0.00140646
0.00140503
0.00140345
0.0014017
0.00139979
0.00139773
0.00139551
0.00139313
0.00139061
0.00138793
0.0013851
0.00138213
0.001379
0.00137573
0.00137231
0.00136874
0.00136503
0.00136117
0.00135717
0.00135302
0.00134873
0.0013443
0.00133972
0.001335
0.00133013
0.00132512
0.00131997
0.00131467
0.00130922
0.00130363
0.00129789
0.00129201
0.00128598
0.0012798
0.00127347
0.001267
0.00126037
0.00125359
0.00124667
0.00123959
0.00123236
0.00122497
0.00121744
0.00120975
0.0012019
0.0011939
0.00118574
0.00117743
0.00116896
0.00116033
0.00115154
0.0011426
0.00113349
0.00112423
0.0011148
0.00110522
0.00109547
0.00108556
0.00107548
0.00106525
0.00105485
0.00104428
0.00103355
0.00102265
0.00101159
0.00100036
0.000988956
0.000977384
0.000965641
0.000953725
0.000941633
0.000929366
0.00091692
0.000904294
0.000891485
0.00087849
0.000865306
0.000851929
0.000838355
0.00082458
0.000810598
0.000796401
0.000781983
0.000767333
0.000752442
0.000737295
0.000721876
0.000706164
0.000690134
0.000673751
0.000656968
0.000639718
0.000621894
0.000603353
0.00058382
0.0005631
0.000540393
0.00051289
0.000472153
0.000407532
0.000364816
0.000328234
0.000281202
0.000318707
0.00024768
0.000118155
0.000148718
0.000262056
0.000271707
0.00033863
0.00044498
0.000504924
0.000549602
0.000588053
0.000622601
0.000654126
0.000683237
0.000710456
0.000736108
0.000760438
0.000783629
0.00080582
0.000827125
0.00084763
0.000867411
0.000886526
0.000905026
0.000922954
0.000940347
0.000957236
0.000973649
0.00098961
0.00100514
0.00102026
0.00103498
0.00104932
0.0010633
0.00107691
0.00109019
0.00110312
0.00111573
0.00112802
0.00114
0.00115167
0.00116303
0.00117411
0.00118489
0.00119538
0.00120559
0.00121552
0.00122517
0.00123455
0.00124365
0.00125249
0.00126107
0.00126938
0.00127743
0.00128522
0.00129276
0.00130004
0.00130707
0.00131385
0.00132039
0.00132668
0.00133273
0.00133854
0.00134411
0.00134944
0.00135454
0.00135941
0.00136405
0.00136846
0.00137265
0.00137662
0.00138037
0.0013839
0.00138721
0.00139031
0.0013932
0.00139588
0.00139835
0.00140061
0.00140264
0.00140441
0.001406
0.00140739
0.00140859
0.0014096
0.00141042
0.00141106
0.00141152
0.0014118
0.0014119
0.00141182
0.00141157
0.00141114
0.00141054
0.00140978
0.00140884
0.00140774
0.00140647
0.00140505
0.00140346
0.00140171
0.0013998
0.00139774
0.00139552
0.00139315
0.00139062
0.00138794
0.00138511
0.00138214
0.00137901
0.00137574
0.00137232
0.00136875
0.00136504
0.00136118
0.00135718
0.00135303
0.00134874
0.00134431
0.00133973
0.00133501
0.00133014
0.00132513
0.00131998
0.00131468
0.00130923
0.00130364
0.0012979
0.00129202
0.00128599
0.00127981
0.00127348
0.001267
0.00126038
0.0012536
0.00124668
0.0012396
0.00123237
0.00122498
0.00121745
0.00120976
0.00120191
0.00119391
0.00118575
0.00117744
0.00116897
0.00116034
0.00115155
0.0011426
0.0011335
0.00112423
0.00111481
0.00110522
0.00109547
0.00108556
0.00107549
0.00106525
0.00105485
0.00104429
0.00103356
0.00102266
0.0010116
0.00100036
0.000988963
0.000977391
0.000965648
0.000953731
0.00094164
0.000929373
0.000916927
0.000904301
0.000891492
0.000878497
0.000865313
0.000851936
0.000838362
0.000824587
0.000810605
0.000796408
0.00078199
0.000767341
0.000752449
0.000737302
0.000721883
0.000706172
0.000690142
0.000673759
0.000656976
0.000639726
0.000621902
0.000603362
0.000583832
0.000563124
0.000540453
0.000513014
0.000472232
0.000407553
0.000364922
0.000328632
0.000281146
0.000317766
0.000247326
0.000118159
0.000195216
0.00038817
0.000548863
0.000706543
0.000856537
0.000978858
0.00108202
0.00117216
0.0012528
0.00132605
0.00139341
0.00145596
0.00151451
0.00156966
0.00162186
0.00167148
0.00171879
0.00176404
0.00180742
0.00184907
0.00188915
0.00192776
0.001965
0.00200097
0.00203574
0.00206938
0.00210196
0.00213352
0.00216413
0.00219382
0.00222263
0.00225061
0.00227779
0.00230419
0.00232985
0.00235479
0.00237902
0.00240258
0.00242548
0.00244774
0.00246937
0.00249039
0.00251081
0.00253063
0.00254988
0.00256856
0.00258667
0.00260423
0.00262125
0.00263773
0.00265368
0.0026691
0.002684
0.00269839
0.00271227
0.00272565
0.00273854
0.00275093
0.00276283
0.00277425
0.0027852
0.00279567
0.00280567
0.00281521
0.0028243
0.00283293
0.00284111
0.00284885
0.00285615
0.00286301
0.00286944
0.00287545
0.00288103
0.0028862
0.00289095
0.00289527
0.00289918
0.00290264
0.00290566
0.0029083
0.00291056
0.00291243
0.00291394
0.00291507
0.00291584
0.00291625
0.00291631
0.002916
0.00291535
0.00291435
0.00291301
0.00291133
0.00290932
0.00290697
0.0029043
0.0029013
0.00289798
0.00289434
0.00289038
0.00288611
0.00288153
0.00287664
0.00287145
0.00286595
0.00286015
0.00285406
0.00284766
0.00284097
0.00283399
0.00282671
0.00281914
0.00281128
0.00280312
0.00279468
0.00278595
0.00277692
0.00276761
0.00275801
0.00274812
0.00273793
0.00272746
0.00271669
0.00270563
0.00269428
0.00268263
0.00267069
0.00265845
0.00264592
0.00263308
0.00261995
0.00260651
0.00259278
0.00257873
0.00256439
0.00254974
0.00253478
0.00251952
0.00250394
0.00248806
0.00247186
0.00245535
0.00243853
0.0024214
0.00240395
0.00238618
0.00236809
0.00234969
0.00233097
0.00231192
0.00229255
0.00227286
0.00225285
0.0022325
0.00221183
0.00219083
0.0021695
0.00214783
0.00212582
0.00210348
0.00208079
0.00205775
0.00203437
0.00201063
0.00198652
0.00196205
0.00193721
0.00191199
0.00188638
0.00186037
0.00183395
0.00180711
0.00177983
0.0017521
0.00172389
0.00169519
0.00166597
0.0016362
0.00160584
0.00157486
0.00154319
0.00151078
0.00147756
0.00144342
0.00140826
0.00137192
0.0013342
0.00129481
0.00125339
0.0012094
0.00116216
0.00111037
0.00105134
0.000979858
0.000894169
0.000808016
0.000717927
0.000610108
0.00049696
0.00033609
0.000153862
0.000195233
0.000387299
0.000548164
0.000705651
0.000856124
0.000978801
0.00108208
0.00117225
0.00125289
0.00132614
0.0013935
0.00145605
0.00151459
0.00156974
0.00162194
0.00167155
0.00171887
0.00176411
0.00180748
0.00184914
0.00188921
0.00192782
0.00196506
0.00200102
0.00203579
0.00206943
0.00210201
0.00213357
0.00216417
0.00219386
0.00222268
0.00225065
0.00227783
0.00230423
0.00232988
0.00235482
0.00237906
0.00240261
0.00242551
0.00244777
0.0024694
0.00249042
0.00251083
0.00253065
0.0025499
0.00256858
0.00258669
0.00260425
0.00262127
0.00263775
0.00265369
0.00266911
0.00268402
0.0026984
0.00271229
0.00272566
0.00273855
0.00275094
0.00276284
0.00277426
0.0027852
0.00279567
0.00280568
0.00281522
0.0028243
0.00283293
0.00284111
0.00284885
0.00285615
0.00286301
0.00286944
0.00287545
0.00288103
0.0028862
0.00289095
0.00289527
0.00289917
0.00290264
0.00290566
0.0029083
0.00291055
0.00291243
0.00291393
0.00291507
0.00291584
0.00291625
0.0029163
0.002916
0.00291534
0.00291435
0.00291301
0.00291133
0.00290931
0.00290696
0.00290429
0.00290129
0.00289797
0.00289433
0.00289037
0.0028861
0.00288152
0.00287663
0.00287144
0.00286594
0.00286014
0.00285405
0.00284765
0.00284096
0.00283397
0.0028267
0.00281913
0.00281126
0.00280311
0.00279467
0.00278593
0.00277691
0.0027676
0.002758
0.0027481
0.00273792
0.00272745
0.00271668
0.00270562
0.00269427
0.00268262
0.00267068
0.00265844
0.0026459
0.00263307
0.00261993
0.0026065
0.00259276
0.00257872
0.00256437
0.00254972
0.00253477
0.0025195
0.00250393
0.00248804
0.00247185
0.00245534
0.00243852
0.00242138
0.00240393
0.00238616
0.00236808
0.00234967
0.00233095
0.0023119
0.00229254
0.00227285
0.00225283
0.00223249
0.00221182
0.00219081
0.00216948
0.00214781
0.00212581
0.00210346
0.00208077
0.00205774
0.00203435
0.00201061
0.00198651
0.00196204
0.0019372
0.00191197
0.00188636
0.00186035
0.00183394
0.00180709
0.00177982
0.00175208
0.00172388
0.00169518
0.00166596
0.00163619
0.00160583
0.00157484
0.00154318
0.00151077
0.00147754
0.00144341
0.00140825
0.00137191
0.00133419
0.0012948
0.00125338
0.00120939
0.00116216
0.0011104
0.00105142
0.00097984
0.00089404
0.000807711
0.000717556
0.000609044
0.000496175
0.000335729
0.000153896
0.000243295
0.000464704
0.000710084
0.000954588
0.00117223
0.00135859
0.00151953
0.00166113
0.00178789
0.00190298
0.00200867
0.00210662
0.0021981
0.00228404
0.00236517
0.00244208
0.00251522
0.00258498
0.00265166
0.00271552
0.00277679
0.00283566
0.0028923
0.00294684
0.00299943
0.00305018
0.00309919
0.00314656
0.00319237
0.0032367
0.00327963
0.00332121
0.00336151
0.00340058
0.00343846
0.00347521
0.00351087
0.00354546
0.00357903
0.00361161
0.00364322
0.00367388
0.00370363
0.00373248
0.00376045
0.00378757
0.00381384
0.00383928
0.00386391
0.00388773
0.00391077
0.00393303
0.00395452
0.00397525
0.00399524
0.00401448
0.004033
0.0040508
0.00406789
0.00408427
0.00409995
0.00411495
0.00412927
0.00414291
0.00415589
0.00416821
0.00417987
0.0041909
0.00420128
0.00421104
0.00422017
0.00422869
0.00423659
0.00424389
0.00425059
0.00425668
0.00426217
0.00426706
0.00427135
0.00427504
0.00427819
0.00428079
0.00428285
0.00428437
0.00428537
0.00428585
0.00428581
0.00428526
0.00428421
0.00428266
0.00428062
0.00427808
0.00427507
0.00427158
0.00426761
0.00426318
0.00425829
0.00425293
0.00424713
0.00424087
0.00423416
0.00422702
0.00421943
0.00421141
0.00420295
0.00419406
0.00418475
0.00417501
0.00416484
0.00415426
0.00414325
0.00413182
0.00411998
0.00410771
0.00409503
0.00408193
0.00406842
0.00405448
0.00404013
0.00402536
0.00401016
0.00399455
0.00397852
0.00396206
0.00394518
0.00392787
0.00391014
0.00389198
0.00387339
0.00385436
0.00383491
0.00381501
0.00379469
0.00377392
0.00375272
0.00373107
0.00370899
0.00368645
0.00366348
0.00364005
0.00361618
0.00359185
0.00356708
0.00354185
0.00351616
0.00349002
0.00346342
0.00343636
0.00340884
0.00338085
0.0033524
0.00332347
0.00329407
0.0032642
0.00323384
0.003203
0.00317168
0.00313986
0.00310754
0.00307471
0.00304137
0.00300751
0.00297312
0.00293818
0.0029027
0.00286664
0.00283
0.00279276
0.0027549
0.0027164
0.00267722
0.00263735
0.00259674
0.00255535
0.00251315
0.00247007
0.00242606
0.00238104
0.00233493
0.00228763
0.00223901
0.00218894
0.00213722
0.00208364
0.00202791
0.00196966
0.00190842
0.00184356
0.00177424
0.00169936
0.00161735
0.00152597
0.0014219
0.00130278
0.00116901
0.00101623
0.000836055
0.000626086
0.000391976
0.000179942
0.000243342
0.000463411
0.000710477
0.000954791
0.00117229
0.00135867
0.00151964
0.00166125
0.00178802
0.0019031
0.00200879
0.00210675
0.00219822
0.00228415
0.00236528
0.00244219
0.00251533
0.00258508
0.00265176
0.00271562
0.00277688
0.00283575
0.00289238
0.00294692
0.00299951
0.00305025
0.00309926
0.00314662
0.00319243
0.00323676
0.00327969
0.00332126
0.00336156
0.00340063
0.00343851
0.00347526
0.00351091
0.0035455
0.00357907
0.00361164
0.00364325
0.00367391
0.00370366
0.00373251
0.00376048
0.00378759
0.00381386
0.0038393
0.00386392
0.00388775
0.00391078
0.00393304
0.00395453
0.00397526
0.00399524
0.00401449
0.00403301
0.0040508
0.00406789
0.00408427
0.00409995
0.00411495
0.00412926
0.00414291
0.00415588
0.0041682
0.00417987
0.00419089
0.00420127
0.00421103
0.00422016
0.00422868
0.00423658
0.00424388
0.00425057
0.00425667
0.00426216
0.00426704
0.00427133
0.00427502
0.00427817
0.00428077
0.00428283
0.00428435
0.00428535
0.00428583
0.00428579
0.00428524
0.00428419
0.00428264
0.00428059
0.00427806
0.00427505
0.00427155
0.00426759
0.00426316
0.00425826
0.00425291
0.0042471
0.00424084
0.00423414
0.00422699
0.0042194
0.00421138
0.00420292
0.00419404
0.00418472
0.00417498
0.00416482
0.00415423
0.00414322
0.00413179
0.00411995
0.00410768
0.004095
0.0040819
0.00406838
0.00405445
0.0040401
0.00402532
0.00401013
0.00399452
0.00397848
0.00396203
0.00394515
0.00392784
0.00391011
0.00389194
0.00387335
0.00385433
0.00383487
0.00381498
0.00379465
0.00377389
0.00375268
0.00373104
0.00370895
0.00368642
0.00366344
0.00364002
0.00361614
0.00359182
0.00356704
0.00354181
0.00351613
0.00348999
0.00346339
0.00343633
0.0034088
0.00338082
0.00335236
0.00332343
0.00329404
0.00326416
0.00323381
0.00320297
0.00317164
0.00313982
0.0031075
0.00307467
0.00304133
0.00300747
0.00297308
0.00293815
0.00290266
0.00286661
0.00282997
0.00279273
0.00275487
0.00271636
0.00267719
0.00263731
0.0025967
0.00255532
0.00251311
0.00247003
0.00242602
0.00238101
0.0023349
0.0022876
0.00223898
0.00218891
0.00213719
0.00208361
0.00202788
0.00196963
0.00190839
0.00184353
0.00177422
0.00169934
0.00161733
0.00152595
0.00142179
0.00130257
0.00116874
0.00101597
0.000835519
0.000625253
0.000391175
0.0001801
0.0003057
0.000510469
0.000818079
0.00113358
0.00141686
0.00166196
0.00187516
0.00206354
0.00223258
0.00238624
0.00252743
0.0026583
0.00278048
0.0028952
0.00300344
0.00310597
0.0032034
0.00329624
0.00338491
0.00346976
0.00355108
0.00362914
0.00370415
0.00377631
0.0038458
0.00391278
0.00397738
0.00403974
0.00409997
0.00415818
0.00421446
0.00426891
0.0043216
0.00437261
0.00442201
0.00446987
0.00451623
0.00456116
0.00460471
0.00464691
0.0046878
0.00472744
0.00476584
0.00480304
0.00483907
0.00487396
0.00490773
0.00494041
0.004972
0.00500255
0.00503205
0.00506053
0.00508802
0.00511451
0.00514002
0.00516458
0.00518818
0.00521086
0.00523261
0.00525344
0.00527338
0.00529243
0.0053106
0.00532791
0.00534436
0.00535996
0.00537473
0.00538866
0.00540179
0.0054141
0.00542562
0.00543634
0.00544629
0.00545546
0.00546386
0.0054715
0.00547839
0.00548452
0.00548989
0.00549453
0.00549845
0.00550167
0.00550421
0.00550606
0.00550725
0.00550777
0.00550764
0.00550686
0.00550544
0.00550338
0.0055007
0.00549741
0.0054935
0.00548898
0.00548387
0.00547816
0.00547187
0.005465
0.00545755
0.00544953
0.00544095
0.00543181
0.00542211
0.00541186
0.00540106
0.00538971
0.00537783
0.0053654
0.00535244
0.00533895
0.00532492
0.00531036
0.00529528
0.00527966
0.00526351
0.00524684
0.00522964
0.00521191
0.00519365
0.00517486
0.00515554
0.00513568
0.0051153
0.00509438
0.00507292
0.00505093
0.00502839
0.00500532
0.0049817
0.00495753
0.00493282
0.00490756
0.00488175
0.00485539
0.00482847
0.00480099
0.00477296
0.00474436
0.0047152
0.00468548
0.00465519
0.00462433
0.0045929
0.00456089
0.00452831
0.00449515
0.00446141
0.00442709
0.00439218
0.00435667
0.00432058
0.00428388
0.00424658
0.00420867
0.00417015
0.00413101
0.00409123
0.00405082
0.00400977
0.00396805
0.00392567
0.00388261
0.00383884
0.00379436
0.00374915
0.00370318
0.00365643
0.00360886
0.00356045
0.00351116
0.00346095
0.00340977
0.00335757
0.00330428
0.00324983
0.00319414
0.00313711
0.00307863
0.00301857
0.00295677
0.00289305
0.00282718
0.0027589
0.00268786
0.00261365
0.00253575
0.00245347
0.00236595
0.00227209
0.00217041
0.00205902
0.00193548
0.00179663
0.00163882
0.00145785
0.00124717
0.000998405
0.000709247
0.000403938
0.000196981
0.000305645
0.000509498
0.000819525
0.00113443
0.00141717
0.00166212
0.0018753
0.0020637
0.00223273
0.0023864
0.00252759
0.00265845
0.00278062
0.00289534
0.00300358
0.0031061
0.00320353
0.00329637
0.00338504
0.00346988
0.0035512
0.00362925
0.00370426
0.00377642
0.0038459
0.00391288
0.00397748
0.00403983
0.00410006
0.00415826
0.00421454
0.00426898
0.00432167
0.00437268
0.00442208
0.00446993
0.00451629
0.00456122
0.00460476
0.00464695
0.00468785
0.00472748
0.00476588
0.00480308
0.00483911
0.00487399
0.00490776
0.00494043
0.00497203
0.00500257
0.00503207
0.00506055
0.00508803
0.00511452
0.00514003
0.00516459
0.00518819
0.00521086
0.00523261
0.00525345
0.00527338
0.00529243
0.0053106
0.00532791
0.00534435
0.00535995
0.00537472
0.00538866
0.00540178
0.00541409
0.0054256
0.00543633
0.00544627
0.00545544
0.00546385
0.00547149
0.00547837
0.0054845
0.00548987
0.00549451
0.00549842
0.00550165
0.00550418
0.00550604
0.00550722
0.00550774
0.00550761
0.00550683
0.00550541
0.00550335
0.00550067
0.00549738
0.00549347
0.00548895
0.00548384
0.00547813
0.00547184
0.00546497
0.00545752
0.0054495
0.00544092
0.00543177
0.00542207
0.00541182
0.00540102
0.00538968
0.00537779
0.00536537
0.00535241
0.00533891
0.00532489
0.00531033
0.00529524
0.00527962
0.00526348
0.0052468
0.0052296
0.00521187
0.00519361
0.00517482
0.0051555
0.00513564
0.00511526
0.00509434
0.00507288
0.00505088
0.00502835
0.00500527
0.00498165
0.00495749
0.00493278
0.00490752
0.00488171
0.00485534
0.00482842
0.00480095
0.00477291
0.00474432
0.00471516
0.00468543
0.00465514
0.00462428
0.00459285
0.00456085
0.00452827
0.00449511
0.00446137
0.00442704
0.00439213
0.00435663
0.00432053
0.00428384
0.00424654
0.00420863
0.0041701
0.00413096
0.00409119
0.00405078
0.00400972
0.00396801
0.00392563
0.00388256
0.0038388
0.00379432
0.0037491
0.00370313
0.00365638
0.00360882
0.00356041
0.00351112
0.00346091
0.00340973
0.00335753
0.00330423
0.00324979
0.00319409
0.00313706
0.00307859
0.00301853
0.00295673
0.00289301
0.00282715
0.00275886
0.00268783
0.00261362
0.00253571
0.00245344
0.00236592
0.00227206
0.00217038
0.00205899
0.00193546
0.00179659
0.00163875
0.00145776
0.00124705
0.000997863
0.000707704
0.000403708
0.000197029
0.000368691
0.000558247
0.000910004
0.00127944
0.00161623
0.00191089
0.00216912
0.00239841
0.00260483
0.00279289
0.00296595
0.00312651
0.00327651
0.00341743
0.00355043
0.00367645
0.00379622
0.00391037
0.00401939
0.00412372
0.00422371
0.00431967
0.00441188
0.00450057
0.00458595
0.00466821
0.00474752
0.00482403
0.0048979
0.00496923
0.00503816
0.00510479
0.00516922
0.00523155
0.00529186
0.00535023
0.00540673
0.00546143
0.0055144
0.00556568
0.00561533
0.00566341
0.00570995
0.00575499
0.00579858
0.00584075
0.00588153
0.00592096
0.00595906
0.00599585
0.00603137
0.00606563
0.00609866
0.00613048
0.00616111
0.00619056
0.00621885
0.00624601
0.00627204
0.00629697
0.0063208
0.00634356
0.00636526
0.00638591
0.00640552
0.00642411
0.00644169
0.00645828
0.00647388
0.00648851
0.00650219
0.00651491
0.0065267
0.00653756
0.00654751
0.00655655
0.00656468
0.00657193
0.00657829
0.00658377
0.00658839
0.00659218
0.00659514
0.0065973
0.00659866
0.00659923
0.00659901
0.00659803
0.00659629
0.00659379
0.00659055
0.00658657
0.00658187
0.00657645
0.00657032
0.00656349
0.00655596
0.00654775
0.00653885
0.00652928
0.00651903
0.00650813
0.00649656
0.00648435
0.00647148
0.00645797
0.00644381
0.00642902
0.0064136
0.00639754
0.00638085
0.00636353
0.00634559
0.00632702
0.00630783
0.00628801
0.00626756
0.0062465
0.0062248
0.00620248
0.00617953
0.00615595
0.00613175
0.00610691
0.00608143
0.00605533
0.00602858
0.0060012
0.00597317
0.0059445
0.00591519
0.00588522
0.00585461
0.00582334
0.00579142
0.00575883
0.00572559
0.00569169
0.00565712
0.00562188
0.00558598
0.0055494
0.00551214
0.00547421
0.00543559
0.00539629
0.00535629
0.00531561
0.00527422
0.00523213
0.00518933
0.00514582
0.00510159
0.00505663
0.00501093
0.00496448
0.00491728
0.0048693
0.00482054
0.00477099
0.00472061
0.0046694
0.00461734
0.00456439
0.00451053
0.00445573
0.00439996
0.00434317
0.00428531
0.00422634
0.0041662
0.00410482
0.00404212
0.00397803
0.00391244
0.00384523
0.00377628
0.00370544
0.00363252
0.00355732
0.00347959
0.00339902
0.00331527
0.00322788
0.00313632
0.00303991
0.0029378
0.00282892
0.00271189
0.00258498
0.00244596
0.002292
0.00211953
0.00192398
0.00169952
0.00143847
0.00113242
0.00078185
0.000428218
0.00023081
0.000368579
0.000557766
0.000912057
0.00128063
0.00161667
0.00191109
0.00216928
0.00239858
0.00260501
0.00279307
0.00296612
0.00312669
0.00327668
0.0034176
0.0035506
0.00367661
0.00379638
0.00391052
0.00401954
0.00412386
0.00422385
0.00431981
0.00441201
0.0045007
0.00458607
0.00466833
0.00474763
0.00482414
0.004898
0.00496933
0.00503825
0.00510488
0.00516931
0.00523163
0.00529194
0.0053503
0.0054068
0.0054615
0.00551446
0.00556574
0.00561539
0.00566346
0.00571
0.00575504
0.00579863
0.00584079
0.00588157
0.005921
0.00595909
0.00599588
0.0060314
0.00606566
0.00609868
0.0061305
0.00616112
0.00619057
0.00621887
0.00624602
0.00627205
0.00629698
0.00632081
0.00634357
0.00636526
0.00638591
0.00640552
0.00642411
0.00644169
0.00645827
0.00647387
0.00648851
0.00650218
0.0065149
0.00652669
0.00653755
0.0065475
0.00655653
0.00656467
0.00657191
0.00657827
0.00658375
0.00658837
0.00659215
0.00659512
0.00659728
0.00659864
0.0065992
0.00659899
0.00659801
0.00659626
0.00659376
0.00659052
0.00658655
0.00658184
0.00657642
0.00657029
0.00656346
0.00655593
0.00654772
0.00653882
0.00652924
0.006519
0.00650809
0.00649653
0.00648431
0.00647144
0.00645793
0.00644378
0.00642899
0.00641356
0.0063975
0.00638081
0.0063635
0.00634555
0.00632698
0.00630779
0.00628797
0.00626753
0.00624646
0.00622476
0.00620244
0.00617949
0.00615591
0.00613171
0.00610687
0.00608139
0.00605528
0.00602854
0.00600115
0.00597313
0.00594446
0.00591514
0.00588518
0.00585456
0.00582329
0.00579137
0.00575879
0.00572555
0.00569164
0.00565708
0.00562184
0.00558593
0.00554935
0.0055121
0.00547416
0.00543554
0.00539624
0.00535624
0.00531556
0.00527417
0.00523208
0.00518929
0.00514578
0.00510154
0.00505658
0.00501088
0.00496443
0.00491723
0.00486925
0.00482049
0.00477094
0.00472057
0.00466936
0.00461729
0.00456434
0.00451049
0.00445569
0.00439991
0.00434312
0.00428526
0.00422629
0.00416615
0.00410477
0.00404208
0.00397799
0.00391239
0.00384519
0.00377624
0.0037054
0.00363248
0.00355728
0.00347955
0.00339898
0.00331523
0.00322784
0.00313628
0.00303988
0.00293777
0.00282888
0.00271186
0.00258495
0.00244593
0.00229198
0.0021195
0.00192396
0.00169952
0.00143851
0.00113242
0.000781494
0.0004295
0.000230496
0.000414849
0.000589284
0.000993173
0.00140733
0.00178637
0.0021214
0.00241749
0.00268192
0.00292088
0.00313917
0.00334043
0.00352742
0.0037023
0.00386675
0.00402208
0.00416936
0.00430944
0.00444301
0.00457067
0.00469288
0.00481007
0.00492258
0.00503073
0.00513478
0.00523497
0.00533151
0.0054246
0.0055144
0.00560108
0.00568478
0.00576564
0.00584378
0.00591932
0.00599236
0.006063
0.00613133
0.00619744
0.0062614
0.0063233
0.00638319
0.00644114
0.00649721
0.00655145
0.00660391
0.00665464
0.00670369
0.00675109
0.00679688
0.0068411
0.00688377
0.00692494
0.00696463
0.00700286
0.00703967
0.00707508
0.00710911
0.00714178
0.00717312
0.00720315
0.00723188
0.00725934
0.00728554
0.00731051
0.00733426
0.0073568
0.00737816
0.00739835
0.00741739
0.00743528
0.00745206
0.00746772
0.00748229
0.00749579
0.00750821
0.00751958
0.0075299
0.0075392
0.00754747
0.00755474
0.00756101
0.00756628
0.0075706
0.00757398
0.00757643
0.00757796
0.00757859
0.00757833
0.00757718
0.00757516
0.00757229
0.00756856
0.00756399
0.0075586
0.00755239
0.00754536
0.00753754
0.00752892
0.00751952
0.00750934
0.0074984
0.00748669
0.00747422
0.00746101
0.00744705
0.00743236
0.00741693
0.00740077
0.00738389
0.00736628
0.00734796
0.00732892
0.00730916
0.0072887
0.00726752
0.00724563
0.00722304
0.00719973
0.00717571
0.00715099
0.00712555
0.0070994
0.00707254
0.00704496
0.00701667
0.00698766
0.00695792
0.00692747
0.00689629
0.00686438
0.00683174
0.00679838
0.00676427
0.00672943
0.00669385
0.00665752
0.00662045
0.00658263
0.00654406
0.00650473
0.00646464
0.0064238
0.00638219
0.0063398
0.00629665
0.00625272
0.00620801
0.00616251
0.00611622
0.00606913
0.00602124
0.00597253
0.00592301
0.00587265
0.00582146
0.00576941
0.00571651
0.00566272
0.00560804
0.00555245
0.00549592
0.00543844
0.00537998
0.00532051
0.00526
0.00519841
0.0051357
0.00507182
0.00500673
0.00494035
0.00487264
0.00480351
0.00473287
0.00466064
0.0045867
0.00451093
0.00443318
0.00435329
0.00427106
0.00418629
0.00409869
0.00400797
0.00391376
0.00381562
0.00371301
0.00360527
0.00349159
0.00337098
0.00324217
0.00310358
0.00295322
0.00278858
0.00260648
0.00240291
0.00217277
0.00190949
0.0016045
0.00124563
0.000816593
0.000339986
4.40033e-05
0.000414783
0.000589919
0.0009957
0.00140872
0.00178691
0.00212164
0.00241767
0.0026821
0.00292107
0.00313936
0.00334062
0.00352761
0.00370249
0.00386694
0.00402227
0.00416954
0.00430961
0.00444318
0.00457083
0.00469304
0.00481023
0.00492274
0.00503088
0.00513493
0.00523511
0.00533165
0.00542473
0.00551452
0.0056012
0.0056849
0.00576575
0.00584389
0.00591942
0.00599246
0.00606309