/*--------------------------------*- C++ -*----------------------------------*\
  =========                 |
  \\      /  F ield         | OpenFOAM: The Open Source CFD Toolbox
   \\    /   O peration     | Website:  https://openfoam.org
    \\  /    A nd           | Version:  8
     \\/     M anipulation  |
\*---------------------------------------------------------------------------*/
FoamFile
{
    version     2.0;
    format      ascii;
    class       surfaceScalarField;
    location    "800";
    object      phi;
}
// * * * * * * * * * * * * * * * * * * * * * * * * * * * * * * * * * * * * * //

dimensions      [1 0 -1 0 0 0 0];

internalField   nonuniform List<scalar> 
119360
(
-5.72472e-08
3.59151e-12
5.72441e-08
-1.09671e-07
-5.90133e-13
5.23036e-08
-1.49393e-07
-5.10307e-14
3.96752e-08
-1.7239e-07
3.05624e-13
2.29588e-08
-1.74072e-07
7.30143e-13
1.63363e-09
-1.5384e-07
4.33875e-14
-2.03039e-08
-1.1928e-07
-7.07463e-13
-3.46367e-08
-7.41482e-08
-9.91463e-13
-4.51989e-08
-2.11808e-08
-1.26525e-12
-5.30299e-08
3.75271e-08
-1.21818e-12
-5.87653e-08
1.00336e-07
-1.18332e-12
-6.28631e-08
1.66036e-07
-1.26138e-12
-6.5751e-08
2.33735e-07
-1.1905e-12
-6.77467e-08
3.02732e-07
-8.75253e-13
-6.9041e-08
3.72465e-07
-5.09827e-13
-6.97755e-08
4.42475e-07
-3.20704e-13
-7.00526e-08
5.12383e-07
-3.62951e-13
-6.99498e-08
5.81867e-07
-5.45364e-13
-6.95269e-08
6.50659e-07
-7.61693e-13
-6.88316e-08
7.18524e-07
-9.642e-13
-6.79032e-08
7.85265e-07
-1.143e-12
-6.67754e-08
8.50712e-07
-1.27407e-12
-6.54774e-08
9.1472e-07
-1.29633e-12
-6.40351e-08
9.7717e-07
-1.14628e-12
-6.24719e-08
1.03796e-06
-8.0628e-13
-6.08088e-08
1.09701e-06
-3.2994e-13
-5.90653e-08
1.15425e-06
1.7743e-13
-5.72596e-08
1.20965e-06
6.022e-13
-5.54082e-08
1.26316e-06
8.60881e-13
-5.35264e-08
1.31477e-06
9.22275e-13
-5.16279e-08
1.36447e-06
8.03758e-13
-4.97246e-08
1.41228e-06
5.58231e-13
-4.78271e-08
1.4582e-06
2.53419e-13
-4.59442e-08
1.50227e-06
-4.16795e-14
-4.40834e-08
1.5445e-06
-2.70775e-13
-4.22509e-08
1.58494e-06
-3.97952e-13
-4.04518e-08
1.62362e-06
-4.13051e-13
-3.86902e-08
1.66058e-06
-3.2873e-13
-3.69695e-08
1.69587e-06
-1.7713e-13
-3.52922e-08
1.72952e-06
1.33777e-15
-3.36602e-08
1.7616e-06
1.66872e-13
-3.2075e-08
1.79213e-06
2.89606e-13
-3.05373e-08
1.82118e-06
3.55331e-13
-2.90477e-08
1.84878e-06
3.64795e-13
-2.76061e-08
1.87499e-06
3.33181e-13
-2.62122e-08
1.89985e-06
2.80945e-13
-2.48652e-08
1.92342e-06
2.28709e-13
-2.35645e-08
1.94572e-06
1.90433e-13
-2.23089e-08
1.96682e-06
1.70449e-13
-2.10973e-08
1.98675e-06
1.65453e-13
-1.99283e-08
2.00555e-06
1.66313e-13
-1.88007e-08
2.02326e-06
1.63343e-13
-1.77133e-08
2.03993e-06
1.4941e-13
-1.66645e-08
2.05559e-06
1.22625e-13
-1.5653e-08
2.07027e-06
8.67095e-14
-1.46775e-08
2.08401e-06
4.87397e-14
-1.37367e-08
2.09684e-06
1.73481e-14
-1.28292e-08
2.1088e-06
-6.93168e-16
-1.19536e-08
2.11992e-06
-1.47041e-15
-1.11087e-08
2.13022e-06
1.44335e-14
-1.02934e-08
2.13974e-06
4.26886e-14
-9.50623e-09
2.14849e-06
7.70221e-14
-8.74623e-09
2.15651e-06
1.09968e-13
-8.01224e-09
2.16383e-06
1.35642e-13
-7.30321e-09
2.17045e-06
1.50075e-13
-6.6181e-09
2.17642e-06
1.51573e-13
-5.95591e-09
2.18175e-06
1.40693e-13
-5.31567e-09
2.18645e-06
1.20015e-13
-4.69644e-09
2.19056e-06
9.28981e-14
-4.09727e-09
2.19409e-06
6.26445e-14
-3.51728e-09
2.19706e-06
3.22244e-14
-2.95559e-09
2.19948e-06
3.71936e-15
-2.41134e-09
2.20138e-06
-2.15937e-14
-1.88372e-09
2.20276e-06
-4.38815e-14
-1.37195e-09
2.20365e-06
-6.33659e-14
-8.75313e-10
2.20406e-06
-8.05466e-14
-3.93119e-10
2.20399e-06
-9.74498e-14
7.53966e-11
2.20348e-06
-1.15102e-13
5.31022e-10
2.20252e-06
-1.34032e-13
9.74418e-10
2.20112e-06
-1.54626e-13
1.40619e-09
2.19931e-06
-1.77358e-13
1.82698e-09
2.19709e-06
-2.0256e-13
2.23738e-09
2.19447e-06
-2.29927e-13
2.63794e-09
2.19145e-06
-2.58765e-13
3.02918e-09
2.18806e-06
-2.88519e-13
3.41156e-09
2.18429e-06
-3.18107e-13
3.78555e-09
2.18016e-06
-3.46723e-13
4.15157e-09
2.17566e-06
-3.73534e-13
4.51e-09
2.17082e-06
-3.98265e-13
4.86118e-09
2.16564e-06
-4.20552e-13
5.20543e-09
2.16011e-06
-4.40592e-13
5.54303e-09
2.15426e-06
-4.58938e-13
5.87422e-09
2.14808e-06
-4.75925e-13
6.19922e-09
2.14159e-06
-4.9219e-13
6.5182e-09
2.13478e-06
-5.08454e-13
6.83134e-09
2.12766e-06
-5.24858e-13
7.13875e-09
2.12025e-06
-5.41678e-13
7.44056e-09
2.11253e-06
-5.5847e-13
7.73687e-09
2.10453e-06
-5.75234e-13
8.02778e-09
2.09624e-06
-5.91416e-13
8.31338e-09
2.08767e-06
-6.06432e-13
8.59376e-09
2.07883e-06
-6.19782e-13
8.86902e-09
2.06972e-06
-6.31134e-13
9.13928e-09
2.06034e-06
-6.40321e-13
9.40467e-09
2.0507e-06
-6.47093e-13
9.66533e-09
2.04081e-06
-6.51673e-13
9.92144e-09
2.03066e-06
-6.54282e-13
1.01732e-08
2.02027e-06
-6.5517e-13
1.04208e-08
2.00963e-06
-6.54504e-13
1.06647e-08
1.99876e-06
-6.52339e-13
1.09049e-08
1.98764e-06
-6.48981e-13
1.1142e-08
1.97629e-06
-6.44512e-13
1.13763e-08
1.96471e-06
-6.39266e-13
1.16081e-08
1.95291e-06
-6.33105e-13
1.18381e-08
1.94087e-06
-6.26221e-13
1.20666e-08
1.9286e-06
-6.18311e-13
1.22941e-08
1.91611e-06
-6.09818e-13
1.25213e-08
1.90339e-06
-6.00742e-13
1.27487e-08
1.89044e-06
-5.91582e-13
1.29769e-08
1.87726e-06
-5.82007e-13
1.32065e-08
1.86386e-06
-5.73014e-13
1.3438e-08
1.85021e-06
-5.64743e-13
1.36722e-08
1.83633e-06
-5.57443e-13
1.39096e-08
1.82221e-06
-5.51392e-13
1.41508e-08
1.80784e-06
-5.46341e-13
1.43963e-08
1.79322e-06
-5.41511e-13
1.46467e-08
1.77835e-06
-5.36432e-13
1.49027e-08
1.76321e-06
-5.29909e-13
1.51646e-08
1.74781e-06
-5.2075e-13
1.54329e-08
1.73213e-06
-5.08649e-13
1.57081e-08
1.71617e-06
-4.93439e-13
1.59907e-08
1.69991e-06
-4.75869e-13
1.6281e-08
1.68336e-06
-4.57023e-13
1.65793e-08
1.6665e-06
-4.38677e-13
1.6886e-08
1.64933e-06
-4.22606e-13
1.72014e-08
1.63183e-06
-4.10394e-13
1.75258e-08
1.614e-06
-4.02067e-13
1.78594e-08
1.59582e-06
-3.97099e-13
1.82025e-08
1.57729e-06
-3.93241e-13
1.85553e-08
1.5584e-06
-3.87634e-13
1.8918e-08
1.53913e-06
-3.78031e-13
1.92909e-08
1.51949e-06
-3.63265e-13
1.96741e-08
1.49944e-06
-3.44502e-13
2.00679e-08
1.479e-06
-3.25073e-13
2.04725e-08
1.45813e-06
-3.10196e-13
2.08882e-08
1.43684e-06
-3.057e-13
2.13152e-08
1.41511e-06
-3.15914e-13
2.17538e-08
1.39293e-06
-3.42282e-13
2.22044e-08
1.37029e-06
-3.82527e-13
2.26674e-08
1.34717e-06
-4.3171e-13
2.31432e-08
1.32356e-06
-4.83058e-13
2.36323e-08
1.29945e-06
-5.31297e-13
2.41354e-08
1.27482e-06
-5.73985e-13
2.46531e-08
1.24966e-06
-6.11178e-13
2.51861e-08
1.22395e-06
-6.42597e-13
2.57352e-08
1.19767e-06
-6.6569e-13
2.63014e-08
1.17082e-06
-6.71685e-13
2.68856e-08
1.14335e-06
-6.48037e-13
2.74888e-08
1.11527e-06
-5.8431e-13
2.81123e-08
1.08654e-06
-4.79672e-13
2.87571e-08
1.05715e-06
-3.50442e-13
2.94246e-08
1.02706e-06
-2.27818e-13
3.01158e-08
9.96252e-07
-1.4877e-13
3.0832e-08
9.64704e-07
-1.38778e-13
3.15744e-08
9.32386e-07
-1.97176e-13
3.23439e-08
8.99269e-07
-2.94598e-13
3.31417e-08
8.65325e-07
-3.84026e-13
3.39688e-08
8.30523e-07
-4.2838e-13
3.48259e-08
7.94835e-07
-4.2033e-13
3.57134e-08
7.58228e-07
-3.85136e-13
3.66313e-08
7.20675e-07
-3.62821e-13
3.75786e-08
6.82147e-07
-3.79585e-13
3.85537e-08
6.42619e-07
-4.27935e-13
3.95537e-08
6.02071e-07
-4.77951e-13
4.05744e-08
5.60487e-07
-4.97768e-13
4.16101e-08
5.1786e-07
-4.72511e-13
4.2653e-08
4.74195e-07
-4.0179e-13
4.36929e-08
4.29508e-07
-2.8727e-13
4.47161e-08
3.83833e-07
-1.32283e-13
4.5705e-08
3.37226e-07
3.04201e-14
4.66367e-08
2.89772e-07
1.2812e-13
4.74819e-08
2.41594e-07
8.78187e-14
4.82037e-08
1.92862e-07
-8.84847e-14
4.8756e-08
1.43807e-07
-2.97984e-13
4.90807e-08
9.4731e-08
-4.11893e-13
4.91039e-08
4.60343e-08
-3.90465e-13
4.87268e-08
-1.76508e-09
-3.0187e-13
4.78306e-08
-4.79226e-08
-1.98064e-13
4.61888e-08
-9.15052e-08
-7.33857e-14
4.3614e-08
-1.31393e-07
1.24567e-13
3.992e-08
-1.66067e-07
4.58411e-13
3.47054e-08
-1.93178e-07
8.53762e-13
2.71445e-08
-2.07715e-07
-9.14823e-14
1.45731e-08
-2.11632e-07
-2.1172e-12
3.95789e-09
-2.04475e-07
-2.1021e-12
-7.1137e-09
-1.80495e-07
-3.18523e-13
-2.39461e-08
-1.43322e-07
1.03823e-12
-3.71497e-08
-9.80101e-08
1.07103e-12
-4.52951e-08
-4.72588e-08
7.01439e-13
-5.07312e-08
7.86704e-13
-4.72302e-08
-5.72825e-08
5.72234e-08
-1.0968e-07
5.22866e-08
-1.49397e-07
3.9665e-08
-1.72394e-07
2.29493e-08
-1.74077e-07
1.61585e-09
-1.53844e-07
-2.03213e-08
-1.19283e-07
-3.46523e-08
-7.41513e-08
-4.52136e-08
-2.1182e-08
-5.30427e-08
3.7527e-08
-5.87767e-08
1.00337e-07
-6.28739e-08
1.66037e-07
-6.57613e-08
2.33737e-07
-6.77559e-08
3.02734e-07
-6.90493e-08
3.72467e-07
-6.97831e-08
4.42476e-07
-7.006e-08
5.12382e-07
-6.9957e-08
5.81867e-07
-6.95337e-08
6.50657e-07
-6.88378e-08
7.18523e-07
-6.79088e-08
7.85263e-07
-6.67804e-08
8.5071e-07
-6.54818e-08
9.14718e-07
-6.4039e-08
9.77168e-07
-6.24752e-08
1.03796e-06
-6.08115e-08
1.09701e-06
-5.90676e-08
1.15425e-06
-5.72616e-08
1.20965e-06
-5.54102e-08
1.26316e-06
-5.35284e-08
1.31477e-06
-5.16299e-08
1.36447e-06
-4.97267e-08
1.41228e-06
-4.78291e-08
1.4582e-06
-4.5946e-08
1.50227e-06
-4.4085e-08
1.5445e-06
-4.22521e-08
1.58494e-06
-4.04526e-08
1.62362e-06
-3.86907e-08
1.66058e-06
-3.69696e-08
1.69586e-06
-3.5292e-08
1.72952e-06
-3.36599e-08
1.76159e-06
-3.20745e-08
1.79213e-06
-3.05368e-08
1.82117e-06
-2.90471e-08
1.84878e-06
-2.76055e-08
1.87499e-06
-2.62115e-08
1.89985e-06
-2.48646e-08
1.92341e-06
-2.35638e-08
1.94572e-06
-2.23082e-08
1.96682e-06
-2.10964e-08
1.98674e-06
-1.99274e-08
2.00554e-06
-1.87997e-08
2.02326e-06
-1.77121e-08
2.03993e-06
-1.66632e-08
2.05558e-06
-1.56516e-08
2.07026e-06
-1.4676e-08
2.08401e-06
-1.37351e-08
2.09684e-06
-1.28274e-08
2.1088e-06
-1.19518e-08
2.11992e-06
-1.11069e-08
2.13022e-06
-1.02914e-08
2.13973e-06
-9.50427e-09
2.14849e-06
-8.74424e-09
2.15651e-06
-8.01023e-09
2.16382e-06
-7.30117e-09
2.17045e-06
-6.61602e-09
2.17642e-06
-5.9538e-09
2.18174e-06
-5.31352e-09
2.18645e-06
-4.69424e-09
2.19056e-06
-4.09505e-09
2.19409e-06
-3.51503e-09
2.19705e-06
-2.95331e-09
2.19948e-06
-2.40905e-09
2.20137e-06
-1.88142e-09
2.20276e-06
-1.36964e-09
2.20365e-06
-8.73006e-10
2.20405e-06
-3.90808e-10
2.20399e-06
7.77138e-11
2.20347e-06
5.33348e-10
2.20251e-06
9.76761e-10
2.20112e-06
1.40856e-09
2.19931e-06
1.82938e-09
2.19709e-06
2.23982e-09
2.19446e-06
2.64043e-09
2.19145e-06
3.03171e-09
2.18806e-06
3.41416e-09
2.18429e-06
3.78821e-09
2.18015e-06
4.15429e-09
2.17566e-06
4.51278e-09
2.17082e-06
4.86403e-09
2.16564e-06
5.20834e-09
2.16011e-06
5.546e-09
2.15426e-06
5.87724e-09
2.14808e-06
6.20229e-09
2.14159e-06
6.52133e-09
2.13478e-06
6.8345e-09
2.12766e-06
7.14195e-09
2.12025e-06
7.44379e-09
2.11253e-06
7.74013e-09
2.10453e-06
8.03106e-09
2.09624e-06
8.31668e-09
2.08767e-06
8.59708e-09
2.07883e-06
8.87237e-09
2.06972e-06
9.14264e-09
2.06034e-06
9.40804e-09
2.0507e-06
9.66872e-09
2.04081e-06
9.92484e-09
2.03066e-06
1.01766e-08
2.02027e-06
1.04243e-08
2.00963e-06
1.06681e-08
1.99875e-06
1.09084e-08
1.98764e-06
1.11455e-08
1.97629e-06
1.13797e-08
1.96471e-06
1.16116e-08
1.9529e-06
1.18416e-08
1.94087e-06
1.20701e-08
1.9286e-06
1.22976e-08
1.91611e-06
1.25249e-08
1.90339e-06
1.27523e-08
1.89044e-06
1.29805e-08
1.87726e-06
1.321e-08
1.86386e-06
1.34416e-08
1.85021e-06
1.36758e-08
1.83633e-06
1.39131e-08
1.82221e-06
1.41543e-08
1.80784e-06
1.43998e-08
1.79322e-06
1.46502e-08
1.77835e-06
1.49062e-08
1.76321e-06
1.5168e-08
1.74781e-06
1.54364e-08
1.73213e-06
1.57116e-08
1.71617e-06
1.59941e-08
1.69991e-06
1.62844e-08
1.68336e-06
1.65827e-08
1.6665e-06
1.68894e-08
1.64933e-06
1.72048e-08
1.63183e-06
1.75292e-08
1.614e-06
1.78628e-08
1.59582e-06
1.82059e-08
1.57729e-06
1.85587e-08
1.5584e-06
1.89213e-08
1.53913e-06
1.92942e-08
1.51949e-06
1.96774e-08
1.49944e-06
2.00711e-08
1.479e-06
2.04757e-08
1.45813e-06
2.08913e-08
1.43684e-06
2.13183e-08
1.41511e-06
2.17569e-08
1.39293e-06
2.22075e-08
1.37029e-06
2.26705e-08
1.34717e-06
2.31463e-08
1.32356e-06
2.36354e-08
1.29945e-06
2.41385e-08
1.27482e-06
2.46563e-08
1.24966e-06
2.51893e-08
1.22395e-06
2.57385e-08
1.19767e-06
2.63047e-08
1.17082e-06
2.6889e-08
1.14336e-06
2.74923e-08
1.11527e-06
2.81158e-08
1.08654e-06
2.87607e-08
1.05715e-06
2.94281e-08
1.02706e-06
3.01193e-08
9.96253e-07
3.08355e-08
9.64705e-07
3.15777e-08
9.32387e-07
3.23471e-08
8.9927e-07
3.31449e-08
8.65326e-07
3.39719e-08
8.30524e-07
3.48291e-08
7.94836e-07
3.57167e-08
7.5823e-07
3.66346e-08
7.20677e-07
3.7582e-08
6.82149e-07
3.85571e-08
6.4262e-07
3.95571e-08
6.02072e-07
4.05778e-08
5.60488e-07
4.16136e-08
5.17862e-07
4.26566e-08
4.74198e-07
4.36967e-08
4.29511e-07
4.47201e-08
3.83836e-07
4.57091e-08
3.37228e-07
4.66407e-08
2.89773e-07
4.74857e-08
2.41595e-07
4.82073e-08
1.92864e-07
4.87596e-08
1.4381e-07
4.90847e-08
9.47349e-08
4.91084e-08
4.60383e-08
4.87314e-08
-1.7613e-09
4.78351e-08
-4.79186e-08
4.61934e-08
-9.15004e-08
4.36189e-08
-1.31388e-07
3.99252e-08
-1.66058e-07
3.47102e-08
-1.93167e-07
2.71501e-08
-2.07703e-07
1.4577e-08
-2.11621e-07
3.95932e-09
-2.04466e-07
-7.11173e-09
-1.80484e-07
-2.39443e-08
-1.43317e-07
-3.71418e-08
-9.80082e-08
-4.52882e-08
-4.72563e-08
-5.07266e-08
-4.72189e-08
-4.87015e-08
9.86558e-13
1.05833e-07
-7.64383e-08
-9.31891e-13
7.99377e-08
-8.40363e-08
-1.55848e-13
4.72172e-08
-7.44614e-08
-5.67153e-15
1.33306e-08
-5.34912e-08
-9.60423e-14
-1.94086e-08
-2.57663e-08
-4.02885e-13
-4.81011e-08
1.01986e-08
-6.44447e-13
-7.06646e-08
5.30772e-08
-7.2583e-13
-8.81351e-08
1.01547e-07
-6.41609e-13
-1.01553e-07
1.54482e-07
-5.88224e-13
-1.11749e-07
2.10938e-07
-6.36673e-13
-1.19366e-07
2.70109e-07
-6.90715e-13
-1.24966e-07
3.31303e-07
-6.7634e-13
-1.28982e-07
3.93942e-07
-6.21607e-13
-1.3172e-07
4.5754e-07
-5.91424e-13
-1.33412e-07
5.2168e-07
-6.11798e-13
-1.34232e-07
5.86007e-07
-6.62106e-13
-1.34316e-07
6.50217e-07
-7.10999e-13
-1.33773e-07
7.14042e-07
-7.44445e-13
-1.3269e-07
7.77252e-07
-7.64985e-13
-1.31144e-07
8.39648e-07
-7.75145e-13
-1.29198e-07
9.01057e-07
-7.66597e-13
-1.26909e-07
9.6133e-07
-7.24423e-13
-1.24328e-07
1.02034e-06
-6.41379e-13
-1.215e-07
1.07798e-06
-5.2643e-13
-1.18466e-07
1.13417e-06
-4.03987e-13
-1.15266e-07
1.18883e-06
-3.02749e-13
-1.11934e-07
1.24191e-06
-2.44144e-13
-1.08502e-07
1.29337e-06
-2.35748e-13
-1.04999e-07
1.34317e-06
-2.7129e-13
-1.0145e-07
1.39131e-06
-3.35336e-13
-9.7879e-08
1.43777e-06
-4.08736e-13
-9.43061e-08
1.48256e-06
-4.73484e-13
-9.0749e-08
1.52568e-06
-5.15804e-13
-8.7223e-08
1.56716e-06
-5.27899e-13
-8.37409e-08
1.60701e-06
-5.08616e-13
-8.03137e-08
1.64527e-06
-4.63146e-13
-7.69504e-08
1.68195e-06
-4.01113e-13
-7.3658e-08
1.7171e-06
-3.34548e-13
-7.04423e-08
1.75074e-06
-2.74971e-13
-6.73076e-08
1.78292e-06
-2.30896e-13
-6.42569e-08
1.81368e-06
-2.06173e-13
-6.12922e-08
1.84304e-06
-1.99685e-13
-5.84146e-08
1.87106e-06
-2.06354e-13
-5.56245e-08
1.89777e-06
-2.19142e-13
-5.29217e-08
1.92321e-06
-2.31091e-13
-5.03052e-08
1.94742e-06
-2.37503e-13
-4.77738e-08
1.97043e-06
-2.36594e-13
-4.53261e-08
1.9923e-06
-2.29551e-13
-4.296e-08
2.01304e-06
-2.19441e-13
-4.06737e-08
2.03271e-06
-2.09658e-13
-3.84648e-08
2.05133e-06
-2.02844e-13
-3.63312e-08
2.06894e-06
-1.99957e-13
-3.42705e-08
2.08557e-06
-2.00082e-13
-3.22802e-08
2.10126e-06
-2.0122e-13
-3.0358e-08
2.11603e-06
-2.00714e-13
-2.85014e-08
2.12991e-06
-1.96606e-13
-2.67082e-08
2.14294e-06
-1.87863e-13
-2.49759e-08
2.15515e-06
-1.74825e-13
-2.33022e-08
2.16655e-06
-1.59004e-13
-2.16849e-08
2.17717e-06
-1.42566e-13
-2.01218e-08
2.18704e-06
-1.27814e-13
-1.86107e-08
2.19619e-06
-1.16497e-13
-1.71496e-08
2.20463e-06
-1.09648e-13
-1.57364e-08
2.21239e-06
-1.07414e-13
-1.43692e-08
2.21949e-06
-1.09031e-13
-1.3046e-08
2.22595e-06
-1.13236e-13
-1.1765e-08
2.23179e-06
-1.18586e-13
-1.05245e-08
2.23703e-06
-1.23637e-13
-9.32249e-09
2.24168e-06
-1.2719e-13
-8.15745e-09
2.24576e-06
-1.28675e-13
-7.02768e-09
2.2493e-06
-1.27745e-13
-5.93158e-09
2.25229e-06
-1.24588e-13
-4.86759e-09
2.25477e-06
-1.19682e-13
-3.83423e-09
2.25673e-06
-1.13534e-13
-2.83004e-09
2.25821e-06
-1.07046e-13
-1.85364e-09
2.2592e-06
-1.0035e-13
-9.03652e-10
2.25972e-06
-9.38138e-14
2.12547e-11
2.25979e-06
-8.81794e-14
9.22308e-10
2.25941e-06
-8.35234e-14
1.80069e-09
2.25859e-06
-7.98736e-14
2.65761e-09
2.25735e-06
-7.70078e-14
3.49419e-09
2.25569e-06
-7.46972e-14
4.31151e-09
2.25363e-06
-7.2678e-14
5.11054e-09
2.25116e-06
-7.05061e-14
5.89222e-09
2.24831e-06
-6.80011e-14
6.6574e-09
2.24507e-06
-6.47815e-14
7.40686e-09
2.24146e-06
-6.07847e-14
8.14135e-09
2.23748e-06
-5.59483e-14
8.8615e-09
2.23313e-06
-5.02515e-14
9.5679e-09
2.22843e-06
-4.39787e-14
1.02611e-08
2.22339e-06
-3.71994e-14
1.09415e-08
2.218e-06
-3.01564e-14
1.16096e-08
2.21227e-06
-2.30857e-14
1.22657e-08
2.20621e-06
-1.60705e-14
1.29102e-08
2.19983e-06
-9.25647e-15
1.35432e-08
2.19313e-06
-2.60207e-15
1.4165e-08
2.18611e-06
3.976e-15
1.4776e-08
2.17879e-06
1.05471e-14
1.53761e-08
2.17116e-06
1.71321e-14
1.59657e-08
2.16323e-06
2.38421e-14
1.6545e-08
2.15501e-06
3.06907e-14
1.71141e-08
2.1465e-06
3.76574e-14
1.76733e-08
2.13771e-06
4.46102e-14
1.82229e-08
2.12864e-06
5.15421e-14
1.87632e-08
2.11929e-06
5.82381e-14
1.92946e-08
2.10967e-06
6.46219e-14
1.98174e-08
2.09979e-06
7.0638e-14
2.03322e-08
2.08964e-06
7.61266e-14
2.08394e-08
2.07923e-06
8.10949e-14
2.13398e-08
2.06856e-06
8.54178e-14
2.1834e-08
2.05764e-06
8.92619e-14
2.23228e-08
2.04647e-06
9.2551e-14
2.28069e-08
2.03505e-06
9.52433e-14
2.32874e-08
2.02337e-06
9.75331e-14
2.37651e-08
2.01145e-06
9.94205e-14
2.42412e-08
1.99929e-06
1.0085e-13
2.47166e-08
1.98687e-06
1.01974e-13
2.51924e-08
1.9742e-06
1.02765e-13
2.56699e-08
1.96129e-06
1.03285e-13
2.61502e-08
1.94812e-06
1.03431e-13
2.66344e-08
1.93469e-06
1.0323e-13
2.71237e-08
1.92101e-06
1.0264e-13
2.76192e-08
1.90706e-06
1.01745e-13
2.81222e-08
1.89285e-06
1.00663e-13
2.86337e-08
1.87837e-06
9.94829e-14
2.91549e-08
1.86361e-06
9.84698e-14
2.96866e-08
1.84857e-06
9.77204e-14
3.023e-08
1.83324e-06
9.74151e-14
3.0786e-08
1.81762e-06
9.74984e-14
3.13553e-08
1.8017e-06
9.78107e-14
3.19389e-08
1.78547e-06
9.80258e-14
3.25375e-08
1.76892e-06
9.77135e-14
3.31517e-08
1.75205e-06
9.64714e-14
3.37823e-08
1.73485e-06
9.4029e-14
3.44297e-08
1.7173e-06
9.01848e-14
3.50947e-08
1.69941e-06
8.53415e-14
3.57776e-08
1.68116e-06
7.99222e-14
3.64789e-08
1.66254e-06
7.47874e-14
3.71991e-08
1.64354e-06
7.07351e-14
3.79387e-08
1.62416e-06
6.8362e-14
3.8698e-08
1.60438e-06
6.77028e-14
3.94775e-08
1.58419e-06
6.82579e-14
4.02776e-08
1.56358e-06
6.90281e-14
4.10988e-08
1.54255e-06
6.86812e-14
4.19416e-08
1.52108e-06
6.62109e-14
4.28066e-08
1.49917e-06
6.09929e-14
4.36942e-08
1.47679e-06
5.34919e-14
4.46053e-08
1.45394e-06
4.50473e-14
4.55404e-08
1.4306e-06
3.72272e-14
4.65005e-08
1.40677e-06
3.1454e-14
4.74865e-08
1.38243e-06
2.82205e-14
4.84994e-08
1.35756e-06
2.6916e-14
4.95403e-08
1.33216e-06
2.63678e-14
5.06105e-08
1.30621e-06
2.57294e-14
5.17114e-08
1.27969e-06
2.5549e-14
5.28443e-08
1.25259e-06
2.81858e-14
5.40111e-08
1.22489e-06
3.66929e-14
5.52132e-08
1.19658e-06
5.31103e-14
5.64527e-08
1.16763e-06
7.57033e-14
5.77313e-08
1.13803e-06
9.88098e-14
5.9051e-08
1.10775e-06
1.13798e-13
6.04137e-08
1.07679e-06
1.13243e-13
6.18214e-08
1.04511e-06
9.52988e-14
6.32758e-08
1.0127e-06
6.5975e-14
6.47785e-08
9.79531e-07
3.71647e-14
6.63309e-08
9.45588e-07
2.05252e-14
6.79338e-08
9.10849e-07
2.03726e-14
6.95874e-08
8.75294e-07
3.10724e-14
7.12912e-08
8.38904e-07
4.07174e-14
7.30436e-08
8.01665e-07
3.92186e-14
7.48415e-08
7.63561e-07
2.57572e-14
7.66803e-08
7.24585e-07
8.29891e-15
7.85531e-08
6.84733e-07
-3.17802e-15
8.04503e-08
6.44008e-07
-4.32987e-15
8.23591e-08
6.02423e-07
3.01148e-15
8.42626e-08
5.60003e-07
1.64868e-14
8.61389e-08
5.16786e-07
3.71092e-14
8.79601e-08
4.72825e-07
6.47538e-14
8.9691e-08
4.28199e-07
8.83044e-14
9.12872e-08
3.83011e-07
8.91925e-14
9.26934e-08
3.37396e-07
5.89112e-14
9.38405e-08
2.91533e-07
1.38084e-14
9.4643e-08
2.45644e-07
-1.67644e-14
9.49941e-08
2.00014e-07
-1.94011e-14
9.47609e-08
1.54995e-07
-6.60582e-15
9.37729e-08
1.11028e-07
8.28505e-15
9.1825e-08
6.86325e-08
3.339e-14
8.86129e-08
2.8445e-08
8.14765e-14
8.38305e-08
-8.74532e-09
1.1087e-13
7.71406e-08
-4.20416e-08
3.83582e-14
6.80333e-08
-7.07382e-08
-3.03923e-14
5.5873e-08
-9.60737e-08
-2.6118e-14
3.99397e-08
-1.13884e-07
-1.16296e-14
2.18021e-08
-1.22149e-07
2.37477e-13
1.18764e-09
-1.2318e-07
2.22517e-13
-2.28855e-08
-1.13486e-07
2.7911e-13
-4.6822e-08
-8.99566e-08
3.33095e-13
-6.88017e-08
-5.26484e-08
1.96343e-13
-8.80082e-08
1.30373e-12
-9.9852e-08
-4.87108e-08
1.05818e-07
-7.64436e-08
7.99291e-08
-8.40407e-08
4.72103e-08
-7.44639e-08
1.33224e-08
-5.34951e-08
-1.94174e-08
-2.57699e-08
-4.81096e-08
1.01961e-08
-7.06722e-08
5.30755e-08
-8.8142e-08
1.01546e-07
-1.01559e-07
1.5448e-07
-1.11755e-07
2.10937e-07
-1.19371e-07
2.70108e-07
-1.2497e-07
3.31302e-07
-1.28986e-07
3.93941e-07
-1.31724e-07
4.57538e-07
-1.33415e-07
5.21678e-07
-1.34235e-07
5.86005e-07
-1.34319e-07
6.50214e-07
-1.33775e-07
7.14039e-07
-1.32693e-07
7.7725e-07
-1.31146e-07
8.39645e-07
-1.292e-07
9.01054e-07
-1.26911e-07
9.61327e-07
-1.2433e-07
1.02034e-06
-1.21501e-07
1.07798e-06
-1.18468e-07
1.13417e-06
-1.15267e-07
1.18883e-06
-1.11935e-07
1.24191e-06
-1.08503e-07
1.29336e-06
-1.04999e-07
1.34317e-06
-1.01451e-07
1.39131e-06
-9.78795e-08
1.43777e-06
-9.43065e-08
1.48255e-06
-9.07493e-08
1.52568e-06
-8.72231e-08
1.56716e-06
-8.3741e-08
1.60701e-06
-8.03137e-08
1.64526e-06
-7.69503e-08
1.68195e-06
-7.36579e-08
1.7171e-06
-7.04422e-08
1.75074e-06
-6.73074e-08
1.78292e-06
-6.42566e-08
1.81368e-06
-6.12919e-08
1.84304e-06
-5.84143e-08
1.87106e-06
-5.56242e-08
1.89777e-06
-5.29213e-08
1.92321e-06
-5.03048e-08
1.94741e-06
-4.77734e-08
1.97043e-06
-4.53256e-08
1.99229e-06
-4.29596e-08
2.01304e-06
-4.06732e-08
2.03271e-06
-3.84644e-08
2.05133e-06
-3.63307e-08
2.06894e-06
-3.427e-08
2.08557e-06
-3.22797e-08
2.10125e-06
-3.03574e-08
2.11603e-06
-2.85009e-08
2.12991e-06
-2.67076e-08
2.14294e-06
-2.49753e-08
2.15514e-06
-2.33016e-08
2.16654e-06
-2.16843e-08
2.17717e-06
-2.01212e-08
2.18704e-06
-1.86102e-08
2.19619e-06
-1.7149e-08
2.20463e-06
-1.57359e-08
2.21239e-06
-1.43687e-08
2.21949e-06
-1.30455e-08
2.22595e-06
-1.17645e-08
2.23179e-06
-1.05239e-08
2.23703e-06
-9.32196e-09
2.24168e-06
-8.15693e-09
2.24576e-06
-7.02717e-09
2.24929e-06
-5.93108e-09
2.25229e-06
-4.86711e-09
2.25477e-06
-3.83376e-09
2.25673e-06
-2.82959e-09
2.25821e-06
-1.85321e-09
2.2592e-06
-9.03243e-10
2.25972e-06
2.16483e-11
2.25979e-06
9.22689e-10
2.25941e-06
1.80106e-09
2.25859e-06
2.65797e-09
2.25735e-06
3.49455e-09
2.25569e-06
4.31186e-09
2.25363e-06
5.1109e-09
2.25116e-06
5.89258e-09
2.24831e-06
6.65775e-09
2.24507e-06
7.40722e-09
2.24146e-06
8.1417e-09
2.23747e-06
8.86185e-09
2.23313e-06
9.56825e-09
2.22843e-06
1.02614e-08
2.22339e-06
1.09419e-08
2.218e-06
1.161e-08
2.21227e-06
1.22661e-08
2.20621e-06
1.29105e-08
2.19983e-06
1.35435e-08
2.19313e-06
1.41653e-08
2.18611e-06
1.47762e-08
2.17879e-06
1.53764e-08
2.17116e-06
1.59659e-08
2.16323e-06
1.65452e-08
2.15501e-06
1.71143e-08
2.1465e-06
1.76735e-08
2.13771e-06
1.82231e-08
2.12864e-06
1.87634e-08
2.11929e-06
1.92947e-08
2.10967e-06
1.98175e-08
2.09978e-06
2.03323e-08
2.08964e-06
2.08396e-08
2.07923e-06
2.13399e-08
2.06856e-06
2.18341e-08
2.05764e-06
2.23229e-08
2.04647e-06
2.28071e-08
2.03505e-06
2.32875e-08
2.02337e-06
2.37653e-08
2.01145e-06
2.42413e-08
1.99928e-06
2.47167e-08
1.98687e-06
2.51926e-08
1.9742e-06
2.56701e-08
1.96128e-06
2.61503e-08
1.94812e-06
2.66345e-08
1.93469e-06
2.71238e-08
1.92101e-06
2.76194e-08
1.90706e-06
2.81224e-08
1.89285e-06
2.86339e-08
1.87837e-06
2.9155e-08
1.86361e-06
2.96868e-08
1.84857e-06
3.02302e-08
1.83324e-06
3.07861e-08
1.81762e-06
3.13555e-08
1.8017e-06
3.19391e-08
1.78547e-06
3.25376e-08
1.76892e-06
3.31519e-08
1.75205e-06
3.37824e-08
1.73484e-06
3.44299e-08
1.7173e-06
3.50948e-08
1.69941e-06
3.57777e-08
1.68116e-06
3.64791e-08
1.66254e-06
3.71993e-08
1.64354e-06
3.79389e-08
1.62415e-06
3.86982e-08
1.60437e-06
3.94777e-08
1.58419e-06
4.02778e-08
1.56358e-06
4.1099e-08
1.54255e-06
4.19418e-08
1.52108e-06
4.28068e-08
1.49917e-06
4.36944e-08
1.47679e-06
4.46054e-08
1.45394e-06
4.55406e-08
1.4306e-06
4.65007e-08
1.40677e-06
4.74867e-08
1.38243e-06
4.84996e-08
1.35756e-06
4.95405e-08
1.33216e-06
5.06107e-08
1.30621e-06
5.17115e-08
1.27969e-06
5.28445e-08
1.25259e-06
5.40112e-08
1.22489e-06
5.52134e-08
1.19658e-06
5.64529e-08
1.16763e-06
5.77315e-08
1.13803e-06
5.90511e-08
1.10775e-06
6.04139e-08
1.07679e-06
6.18215e-08
1.04511e-06
6.32759e-08
1.0127e-06
6.47787e-08
9.79531e-07
6.6331e-08
9.45588e-07
6.79339e-08
9.10849e-07
6.95876e-08
8.75294e-07
7.12914e-08
8.38905e-07
7.30437e-08
8.01665e-07
7.48417e-08
7.63562e-07
7.66805e-08
7.24585e-07
7.85533e-08
6.84733e-07
8.04506e-08
6.44008e-07
8.23594e-08
6.02424e-07
8.42628e-08
5.60004e-07
8.61391e-08
5.16787e-07
8.79604e-08
4.72826e-07
8.96914e-08
4.282e-07
9.12876e-08
3.83011e-07
9.26937e-08
3.37397e-07
9.38409e-08
2.91534e-07
9.46434e-08
2.45645e-07
9.49946e-08
2.00015e-07
9.47615e-08
1.54996e-07
9.37735e-08
1.1103e-07
9.18256e-08
6.86341e-08
8.86136e-08
2.84468e-08
8.38313e-08
-8.74396e-09
7.71414e-08
-4.20411e-08
6.80343e-08
-7.07376e-08
5.58745e-08
-9.60722e-08
3.99395e-08
-1.13883e-07
2.17995e-08
-1.2215e-07
1.18566e-09
-1.23181e-07
-2.28852e-08
-1.13485e-07
-4.68187e-08
-8.99542e-08
-6.87974e-08
-5.26463e-08
-8.80044e-08
-9.98457e-08
-2.84584e-08
-2.03442e-13
1.34235e-07
-3.49047e-08
-9.3013e-13
8.63169e-08
-2.39111e-08
-2.32172e-13
3.61924e-08
-1.98548e-09
-1.95412e-13
-8.61831e-09
2.63626e-08
-7.05492e-14
-4.77752e-08
5.91735e-08
-5.78298e-14
-8.09273e-08
9.65259e-08
-1.99443e-13
-1.0803e-07
1.38198e-07
-2.52119e-13
-1.29819e-07
1.83759e-07
-2.18565e-13
-1.47123e-07
2.32702e-07
-2.10684e-13
-1.60702e-07
2.84527e-07
-2.4447e-13
-1.712e-07
3.38724e-07
-2.6678e-13
-1.7917e-07
3.94798e-07
-2.59953e-13
-1.85064e-07
4.523e-07
-2.51232e-13
-1.8923e-07
5.10828e-07
-2.63556e-13
-1.91947e-07
5.7002e-07
-2.94199e-13
-1.93432e-07
6.2956e-07
-3.28339e-13
-1.93863e-07
6.89163e-07
-3.56484e-13
-1.93383e-07
7.48581e-07
-3.77766e-13
-1.92115e-07
8.07593e-07
-3.9383e-13
-1.90163e-07
8.66006e-07
-4.02955e-13
-1.87617e-07
9.2365e-07
-3.98876e-13
-1.84558e-07
9.80378e-07
-3.74854e-13
-1.8106e-07
1.03606e-06
-3.29522e-13
-1.77188e-07
1.0906e-06
-2.69994e-13
-1.73003e-07
1.14389e-06
-2.10327e-13
-1.6856e-07
1.19586e-06
-1.65495e-13
-1.6391e-07
1.24645e-06
-1.45414e-13
-1.591e-07
1.29562e-06
-1.52062e-13
-1.54171e-07
1.34333e-06
-1.79894e-13
-1.49162e-07
1.38956e-06
-2.19335e-13
-1.44107e-07
1.43428e-06
-2.59886e-13
-1.39035e-07
1.4775e-06
-2.92749e-13
-1.33972e-07
1.51921e-06
-3.1189e-13
-1.28942e-07
1.55943e-06
-3.1433e-13
-1.23963e-07
1.59817e-06
-3.00455e-13
-1.19052e-07
1.63544e-06
-2.73602e-13
-1.14224e-07
1.67127e-06
-2.39428e-13
-1.09488e-07
1.70568e-06
-2.04699e-13
-1.04854e-07
1.7387e-06
-1.75632e-13
-1.00329e-07
1.77036e-06
-1.56408e-13
-9.59171e-08
1.80069e-06
-1.48318e-13
-9.16229e-08
1.82973e-06
-1.49782e-13
-8.74483e-08
1.8575e-06
-1.57068e-13
-8.33943e-08
1.88404e-06
-1.65717e-13
-7.94612e-08
1.90938e-06
-1.71976e-13
-7.56483e-08
1.93356e-06
-1.73801e-13
-7.19543e-08
1.95661e-06
-1.71123e-13
-6.83774e-08
1.97857e-06
-1.65447e-13
-6.49154e-08
1.99946e-06
-1.59192e-13
-6.15658e-08
2.01932e-06
-1.54456e-13
-5.83257e-08
2.03818e-06
-1.52513e-13
-5.51921e-08
2.05607e-06
-1.53405e-13
-5.2162e-08
2.07303e-06
-1.56097e-13
-4.92321e-08
2.08907e-06
-1.58814e-13
-4.63992e-08
2.10423e-06
-1.59886e-13
-4.36601e-08
2.11853e-06
-1.57981e-13
-4.10115e-08
2.13201e-06
-1.52805e-13
-3.84502e-08
2.14468e-06
-1.44773e-13
-3.59729e-08
2.15658e-06
-1.35069e-13
-3.35767e-08
2.16771e-06
-1.25223e-13
-3.12583e-08
2.17812e-06
-1.16632e-13
-2.90149e-08
2.18782e-06
-1.10446e-13
-2.68435e-08
2.19682e-06
-1.07091e-13
-2.47412e-08
2.20516e-06
-1.06519e-13
-2.27053e-08
2.21285e-06
-1.08146e-13
-2.0733e-08
2.21991e-06
-1.11067e-13
-1.88217e-08
2.22636e-06
-1.14315e-13
-1.69688e-08
2.23221e-06
-1.16955e-13
-1.51719e-08
2.23748e-06
-1.18381e-13
-1.34285e-08
2.24219e-06
-1.18249e-13
-1.17362e-08
2.24636e-06
-1.16417e-13
-1.00928e-08
2.24999e-06
-1.13146e-13
-8.49603e-09
2.2531e-06
-1.08739e-13
-6.94375e-09
2.25571e-06
-1.03632e-13
-5.43388e-09
2.25782e-06
-9.82999e-14
-3.96441e-09
2.25946e-06
-9.31408e-14
-2.53338e-09
2.26062e-06
-8.8405e-14
-1.1389e-09
2.26132e-06
-8.44082e-14
2.20799e-10
2.26158e-06
-8.12094e-14
1.5474e-09
2.2614e-06
-7.88362e-14
2.84256e-09
2.26079e-06
-7.71501e-14
4.10789e-09
2.25976e-06
-7.5967e-14
5.34494e-09
2.25832e-06
-7.50892e-14
6.5551e-09
2.25647e-06
-7.42496e-14
7.73971e-09
2.25423e-06
-7.32192e-14
8.9e-09
2.25161e-06
-7.1828e-14
1.00371e-08
2.2486e-06
-6.99198e-14
1.1152e-08
2.24522e-06
-6.74495e-14
1.22458e-08
2.24147e-06
-6.44623e-14
1.33191e-08
2.23737e-06
-6.10241e-14
1.43729e-08
2.23291e-06
-5.72389e-14
1.54077e-08
2.2281e-06
-5.32178e-14
1.64242e-08
2.22294e-06
-4.90684e-14
1.74229e-08
2.21745e-06
-4.48738e-14
1.84042e-08
2.21163e-06
-4.06689e-14
1.93686e-08
2.20549e-06
-3.64431e-14
2.03163e-08
2.19902e-06
-3.21687e-14
2.12478e-08
2.19224e-06
-2.78284e-14
2.21634e-08
2.18515e-06
-2.34153e-14
2.30634e-08
2.17775e-06
-1.88981e-14
2.3948e-08
2.17005e-06
-1.43115e-14
2.48177e-08
2.16206e-06
-9.66588e-15
2.56728e-08
2.15377e-06
-5.07233e-15
2.65137e-08
2.1452e-06
-5.5511e-16
2.73409e-08
2.13635e-06
3.74354e-15
2.8155e-08
2.12721e-06
7.78197e-15
2.89566e-08
2.1178e-06
1.147e-14
2.97465e-08
2.10812e-06
1.47833e-14
3.05255e-08
2.09817e-06
1.76872e-14
3.12944e-08
2.08796e-06
2.01852e-14
3.20544e-08
2.07748e-06
2.22912e-14
3.28065e-08
2.06674e-06
2.39878e-14
3.35521e-08
2.05574e-06
2.532e-14
3.42924e-08
2.04449e-06
2.63262e-14
3.50288e-08
2.03297e-06
2.70686e-14
3.57628e-08
2.0212e-06
2.75509e-14
3.6496e-08
2.00917e-06
2.7759e-14
3.72301e-08
1.99688e-06
2.78111e-14
3.79666e-08
1.98432e-06
2.76931e-14
3.87072e-08
1.97151e-06
2.73878e-14
3.94537e-08
1.95843e-06
2.69125e-14
4.02078e-08
1.94509e-06
2.62776e-14
4.0971e-08
1.93147e-06
2.55455e-14
4.17452e-08
1.91758e-06
2.47823e-14
4.25318e-08
1.90341e-06
2.40502e-14
4.33325e-08
1.88895e-06
2.34396e-14
4.41487e-08
1.8742e-06
2.30475e-14
4.49818e-08
1.85916e-06
2.28463e-14
4.58333e-08
1.84382e-06
2.28012e-14
4.67044e-08
1.82817e-06
2.27804e-14
4.75961e-08
1.8122e-06
2.25549e-14
4.85098e-08
1.79591e-06
2.18922e-14
4.94462e-08
1.77929e-06