/*--------------------------------*- C++ -*----------------------------------*\
  =========                 |
  \\      /  F ield         | OpenFOAM: The Open Source CFD Toolbox
   \\    /   O peration     | Website:  https://openfoam.org
    \\  /    A nd           | Version:  8
     \\/     M anipulation  |
\*---------------------------------------------------------------------------*/
FoamFile
{
    version     2.0;
    format      ascii;
    class       volVectorField;
    location    "800";
    object      U;
}
// * * * * * * * * * * * * * * * * * * * * * * * * * * * * * * * * * * * * * //

dimensions      [0 1 -1 0 0 0 0];

internalField   nonuniform List<vector> 
48000
(
(-0.00283656 4.9978e-07 0.00297343)
(-0.00575364 -4.06922e-08 0.00315548)
(-0.00913216 7.97057e-09 0.00285442)
(-0.0112807 3.8943e-08 0.00223025)
(-0.0122544 5.72064e-08 0.000871233)
(-0.0115288 -3.71812e-08 -0.00108651)
(-0.00954428 -1.39752e-07 -0.00200773)
(-0.00677289 -1.86246e-07 -0.00265396)
(-0.00338204 -2.4264e-07 -0.00313048)
(0.000480772 -2.67814e-07 -0.0034719)
(0.00466969 -2.75291e-07 -0.00369547)
(0.00908502 -2.82602e-07 -0.0038375)
(0.0136717 -2.74477e-07 -0.00392681)
(0.0183683 -2.39069e-07 -0.00397606)
(0.0231334 -1.91349e-07 -0.00399402)
(0.0279325 -1.56208e-07 -0.00398703)
(0.0327367 -1.44002e-07 -0.00395979)
(0.0375223 -1.46766e-07 -0.00391589)
(0.042269 -1.51709e-07 -0.00385813)
(0.0469595 -1.5282e-07 -0.00378875)
(0.0515791 -1.5142e-07 -0.00370968)
(0.0561151 -1.49562e-07 -0.00362255)
(0.0605566 -1.44719e-07 -0.0035288)
(0.0648947 -1.31462e-07 -0.00342971)
(0.0691219 -1.06289e-07 -0.00332641)
(0.073232 -7.12772e-08 -0.00321993)
(0.0772202 -3.31514e-08 -0.00311118)
(0.0810829 2.53372e-10 -0.00300099)
(0.0848175 2.3112e-08 -0.0028901)
(0.0884224 3.33382e-08 -0.00277919)
(0.0918967 3.19826e-08 -0.00266885)
(0.0952405 2.21369e-08 -0.00255958)
(0.0984545 7.61591e-09 -0.00245182)
(0.10154 -7.60561e-09 -0.00234593)
(0.104499 -2.01316e-08 -0.00224222)
(0.107333 -2.75406e-08 -0.00214092)
(0.110044 -2.8896e-08 -0.00204223)
(0.112637 -2.47005e-08 -0.00194629)
(0.115112 -1.67358e-08 -0.0018532)
(0.117475 -7.43099e-09 -0.00176302)
(0.119727 8.34473e-10 -0.00167577)
(0.121872 6.30161e-09 -0.00159147)
(0.123913 8.23944e-09 -0.00151007)
(0.125854 6.78121e-09 -0.00143156)
(0.127698 3.03864e-09 -0.00135587)
(0.129449 -1.62909e-09 -0.00128294)
(0.131108 -5.87039e-09 -0.00121271)
(0.13268 -8.77916e-09 -0.0011451)
(0.134168 -1.01308e-08 -0.00108004)
(0.135574 -1.02107e-08 -0.00101743)
(0.136901 -9.68157e-09 -0.000957183)
(0.138153 -9.27041e-09 -0.000899217)
(0.139331 -9.54075e-09 -0.000843437)
(0.140439 -1.07058e-08 -0.000789755)
(0.141479 -1.25828e-08 -0.000738084)
(0.142454 -1.47605e-08 -0.000688343)
(0.143365 -1.67022e-08 -0.000640452)
(0.144215 -1.80081e-08 -0.000594338)
(0.145006 -1.84041e-08 -0.000549928)
(0.14574 -1.79282e-08 -0.000507153)
(0.14642 -1.68508e-08 -0.000465945)
(0.147046 -1.55258e-08 -0.000426237)
(0.147621 -1.43837e-08 -0.000387962)
(0.148147 -1.37136e-08 -0.000351056)
(0.148626 -1.37022e-08 -0.000315456)
(0.149058 -1.43609e-08 -0.000281102)
(0.149445 -1.56134e-08 -0.000247936)
(0.149789 -1.72505e-08 -0.000215901)
(0.150092 -1.90552e-08 -0.000184943)
(0.150355 -2.08522e-08 -0.000155013)
(0.150578 -2.2516e-08 -0.000126061)
(0.150763 -2.39932e-08 -9.80424e-05)
(0.150912 -2.52724e-08 -7.09128e-05)
(0.151025 -2.64679e-08 -4.46324e-05)
(0.151103 -2.76519e-08 -1.91658e-05)
(0.151148 -2.88702e-08 5.52856e-06)
(0.151161 -3.03094e-08 2.95184e-05)
(0.151141 -3.20531e-08 5.28317e-05)
(0.151091 -3.39948e-08 7.54757e-05)
(0.151011 -3.61116e-08 9.74943e-05)
(0.150902 -3.83617e-08 0.00011893)
(0.150764 -4.07031e-08 0.000139817)
(0.150599 -4.3056e-08 0.000160188)
(0.150406 -4.53441e-08 0.000180072)
(0.150187 -4.75409e-08 0.000199494)
(0.149942 -4.95892e-08 0.000218481)
(0.149671 -5.14814e-08 0.000237055)
(0.149376 -5.32175e-08 0.000255238)
(0.149056 -5.48394e-08 0.000273046)
(0.148713 -5.63661e-08 0.000290499)
(0.148346 -5.78319e-08 0.000307609)
(0.147956 -5.92862e-08 0.000324391)
(0.147544 -6.07368e-08 0.000340856)
(0.147109 -6.22102e-08 0.000357012)
(0.146653 -6.37369e-08 0.000372869)
(0.146176 -6.5294e-08 0.000388434)
(0.145678 -6.68816e-08 0.000403713)
(0.145159 -6.84464e-08 0.000418711)
(0.14462 -6.99921e-08 0.000433433)
(0.144062 -7.15036e-08 0.000447883)
(0.143484 -7.29389e-08 0.000462065)
(0.142887 -7.42753e-08 0.000475983)
(0.142271 -7.5505e-08 0.000489643)
(0.141637 -7.66281e-08 0.000503051)
(0.140985 -7.76104e-08 0.000516212)
(0.140315 -7.84708e-08 0.000529137)
(0.139628 -7.92056e-08 0.000541834)
(0.138923 -7.98338e-08 0.000554317)
(0.138202 -8.03364e-08 0.000566597)
(0.137464 -8.06905e-08 0.000578692)
(0.13671 -8.09189e-08 0.00059062)
(0.13594 -8.09836e-08 0.0006024)
(0.135154 -8.09075e-08 0.000614055)
(0.134352 -8.06638e-08 0.000625609)
(0.133534 -8.0264e-08 0.00063709)
(0.132701 -7.96853e-08 0.000648524)
(0.131852 -7.89506e-08 0.000659942)
(0.130987 -7.80901e-08 0.000671376)
(0.130107 -7.71764e-08 0.000682856)
(0.129212 -7.61827e-08 0.000694417)
(0.1283 -7.52347e-08 0.000706091)
(0.127373 -7.4359e-08 0.000717911)
(0.126429 -7.35862e-08 0.000729911)
(0.125469 -7.29922e-08 0.000742123)
(0.124492 -7.2543e-08 0.00075458)
(0.123499 -7.21737e-08 0.000767311)
(0.122488 -7.18424e-08 0.000780347)
(0.121459 -7.1397e-08 0.000793716)
(0.120412 -7.07231e-08 0.000807444)
(0.119346 -6.97599e-08 0.000821557)
(0.118262 -6.84692e-08 0.000836078)
(0.117157 -6.69083e-08 0.00085103)
(0.116033 -6.51608e-08 0.000866433)
(0.114888 -6.34209e-08 0.000882307)
(0.113721 -6.18903e-08 0.000898669)
(0.112532 -6.07406e-08 0.000915537)
(0.111321 -5.99943e-08 0.000932926)
(0.110087 -5.95755e-08 0.000950851)
(0.108829 -5.92405e-08 0.000969328)
(0.107546 -5.86009e-08 0.000988369)
(0.106238 -5.72988e-08 0.00100799)
(0.104904 -5.51211e-08 0.0010282)
(0.103544 -5.20753e-08 0.00104902)
(0.102156 -4.84127e-08 0.00107047)
(0.10074 -4.46817e-08 0.00109256)
(0.0992951 -4.15064e-08 0.00111532)
(0.0978204 -3.94734e-08 0.00113875)
(0.0963151 -3.89175e-08 0.0011629)
(0.0947785 -3.99074e-08 0.00118777)
(0.0932096 -4.22603e-08 0.00121341)
(0.0916075 -4.56411e-08 0.00123984)
(0.0899713 -4.98976e-08 0.00126709)
(0.0883001 -5.50373e-08 0.0012952)
(0.0865927 -6.12051e-08 0.00132422)
(0.0848483 -6.82332e-08 0.00135421)
(0.0830655 -7.54898e-08 0.00138521)
(0.0812434 -8.13681e-08 0.0014173)
(0.0793806 -8.37058e-08 0.00145056)
(0.0774759 -8.04849e-08 0.00148506)
(0.0755278 -7.08983e-08 0.00152089)
(0.0735347 -5.63318e-08 0.00155814)
(0.0714951 -4.02348e-08 0.00159691)
(0.0694073 -2.72598e-08 0.00163729)
(0.0672694 -2.11987e-08 0.00167937)
(0.0650796 -2.31632e-08 0.00172325)
(0.062836 -3.10061e-08 0.00176902)
(0.0605366 -4.02196e-08 0.00181676)
(0.0581793 -4.6768e-08 0.00186655)
(0.0557621 -4.92884e-08 0.00191846)
(0.0532831 -4.96615e-08 0.00197254)
(0.05074 -5.15195e-08 0.00202882)
(0.0481311 -5.74435e-08 0.00208728)
(0.0454544 -6.6855e-08 0.00214784)
(0.0427084 -7.66472e-08 0.00221033)
(0.0398918 -8.2754e-08 0.00227452)
(0.0370039 -8.18707e-08 0.00234008)
(0.0340445 -7.19187e-08 0.00240655)
(0.0310142 -5.23419e-08 0.00247329)
(0.0279147 -2.58435e-08 0.00253939)
(0.024749 -7.84289e-10 0.00260361)
(0.0215216 1.08659e-08 0.00266434)
(0.0182396 1.49244e-09 0.00271949)
(0.014913 -2.33917e-08 0.00276641)
(0.0115552 -4.69204e-08 0.00280173)
(0.00818464 -5.45197e-08 0.00282101)
(0.00482245 -4.73773e-08 0.00281821)
(0.00151354 -3.86968e-08 0.00278466)
(-0.00174062 -3.35798e-08 0.00269366)
(-0.00482276 -2.68029e-08 0.00253558)
(-0.00770772 -1.1711e-08 0.00231081)
(-0.0102949 1.41781e-08 0.00199039)
(-0.0124581 5.64861e-08 0.00147889)
(-0.0139772 1.64672e-08 0.00035756)
(-0.0145869 -6.38364e-08 -0.000159227)
(-0.0146288 -5.95989e-08 -0.000695284)
(-0.0134282 2.26849e-09 -0.00214536)
(-0.0111809 8.9568e-08 -0.00280156)
(-0.00845613 1.03643e-07 -0.00278969)
(-0.00494688 7.41358e-08 -0.00272389)
(-0.00215404 7.10268e-08 -0.00216175)
(-0.00283883 4.99653e-07 0.00297174)
(-0.00575494 -4.069e-08 0.00315408)
(-0.00913256 7.96982e-09 0.00285353)
(-0.011281 3.89326e-08 0.00222936)
(-0.0122548 5.71801e-08 0.000869292)
(-0.0115291 -3.71729e-08 -0.00108804)
(-0.00954458 -1.39739e-07 -0.00200902)
(-0.00677314 -1.86235e-07 -0.00265516)
(-0.00338227 -2.42628e-07 -0.00313155)
(0.000480673 -2.67802e-07 -0.00347283)
(0.00466969 -2.75281e-07 -0.0036963)
(0.00908505 -2.82592e-07 -0.00383824)
(0.0136718 -2.74468e-07 -0.00392744)
(0.0183684 -2.39062e-07 -0.00397656)
(0.0231336 -1.91344e-07 -0.00399443)
(0.0279326 -1.56204e-07 -0.00398738)
(0.0327368 -1.43999e-07 -0.0039601)
(0.0375223 -1.46763e-07 -0.00391615)
(0.042269 -1.51705e-07 -0.00385834)
(0.0469595 -1.52817e-07 -0.00378892)
(0.051579 -1.51417e-07 -0.00370981)
(0.056115 -1.49559e-07 -0.00362265)
(0.0605565 -1.44717e-07 -0.00352888)
(0.0648946 -1.3146e-07 -0.00342977)
(0.0691217 -1.06287e-07 -0.00332645)
(0.0732318 -7.12762e-08 -0.00321993)
(0.07722 -3.3151e-08 -0.00311115)
(0.0810828 2.53369e-10 -0.00300092)
(0.0848174 2.31117e-08 -0.00289001)
(0.0884222 3.33378e-08 -0.00277908)
(0.0918965 3.19823e-08 -0.00266872)
(0.0952404 2.21367e-08 -0.00255943)
(0.0984544 7.61583e-09 -0.00245166)
(0.10154 -7.60553e-09 -0.00234576)
(0.104498 -2.01314e-08 -0.00224203)
(0.107332 -2.75403e-08 -0.00214073)
(0.110044 -2.88958e-08 -0.00204203)
(0.112636 -2.47003e-08 -0.00194609)
(0.115112 -1.67357e-08 -0.00185299)
(0.117474 -7.43093e-09 -0.0017628)
(0.119726 8.34467e-10 -0.00167554)
(0.121872 6.30157e-09 -0.00159122)
(0.123913 8.23938e-09 -0.00150982)
(0.125854 6.78117e-09 -0.00143129)
(0.127698 3.03862e-09 -0.00135559)
(0.129448 -1.62908e-09 -0.00128266)
(0.131108 -5.87036e-09 -0.00121242)
(0.13268 -8.77911e-09 -0.00114481)
(0.134167 -1.01307e-08 -0.00107974)
(0.135573 -1.02107e-08 -0.00101712)
(0.136901 -9.68152e-09 -0.000956871)
(0.138153 -9.27037e-09 -0.000898892)
(0.139331 -9.54071e-09 -0.000843099)
(0.140439 -1.07057e-08 -0.000789403)
(0.141479 -1.25827e-08 -0.000737721)
(0.142453 -1.47605e-08 -0.000687972)
(0.143365 -1.67022e-08 -0.000640078)
(0.144215 -1.80081e-08 -0.000593963)
(0.145006 -1.8404e-08 -0.000549555)
(0.14574 -1.79281e-08 -0.000506782)
(0.146419 -1.68507e-08 -0.000465575)
(0.147046 -1.55258e-08 -0.000425866)
(0.147621 -1.43836e-08 -0.000387588)
(0.148147 -1.37136e-08 -0.000350677)
(0.148625 -1.37021e-08 -0.00031507)
(0.149057 -1.43608e-08 -0.000280709)
(0.149445 -1.56134e-08 -0.000247535)
(0.149789 -1.72505e-08 -0.000215493)
(0.150092 -1.90551e-08 -0.000184531)
(0.150354 -2.08521e-08 -0.000154598)
(0.150578 -2.25159e-08 -0.000125647)
(0.150763 -2.39931e-08 -9.763e-05)
(0.150912 -2.52723e-08 -7.05042e-05)
(0.151025 -2.64678e-08 -4.4229e-05)
(0.151103 -2.76518e-08 -1.87683e-05)
(0.151148 -2.88702e-08 5.92063e-06)
(0.151161 -3.03093e-08 2.99048e-05)
(0.151141 -3.2053e-08 5.32126e-05)
(0.151091 -3.39947e-08 7.58525e-05)
(0.151011 -3.61115e-08 9.78683e-05)
(0.150902 -3.83616e-08 0.000119302)
(0.150764 -4.0703e-08 0.000140189)
(0.150599 -4.30559e-08 0.00016056)
(0.150406 -4.5344e-08 0.000180443)
(0.150187 -4.75408e-08 0.000199867)
(0.149942 -4.95891e-08 0.000218854)
(0.149671 -5.14812e-08 0.000237429)
(0.149376 -5.32173e-08 0.000255612)
(0.149056 -5.48392e-08 0.000273421)
(0.148713 -5.63659e-08 0.000290873)
(0.148346 -5.78317e-08 0.000307984)
(0.147956 -5.92861e-08 0.000324765)
(0.147544 -6.07366e-08 0.000341228)
(0.147109 -6.221e-08 0.000357383)
(0.146653 -6.37367e-08 0.000373238)
(0.146176 -6.52939e-08 0.000388801)
(0.145678 -6.68815e-08 0.000404077)
(0.145159 -6.84462e-08 0.000419072)
(0.14462 -6.9992e-08 0.000433791)
(0.144062 -7.15034e-08 0.000448237)
(0.143484 -7.29388e-08 0.000462415)
(0.142887 -7.42751e-08 0.00047633)
(0.142271 -7.55048e-08 0.000489986)
(0.141637 -7.6628e-08 0.00050339)
(0.140985 -7.76102e-08 0.000516548)
(0.140315 -7.84707e-08 0.000529469)
(0.139627 -7.92055e-08 0.000542164)
(0.138923 -7.98337e-08 0.000554644)
(0.138202 -8.03362e-08 0.000566923)
(0.137464 -8.06903e-08 0.000579016)
(0.13671 -8.09187e-08 0.000590943)
(0.13594 -8.09834e-08 0.000602723)
(0.135154 -8.09073e-08 0.000614378)
(0.134352 -8.06636e-08 0.000625933)
(0.133534 -8.02639e-08 0.000637415)
(0.132701 -7.96852e-08 0.000648851)
(0.131852 -7.89504e-08 0.000660271)
(0.130987 -7.809e-08 0.000671706)
(0.130107 -7.71762e-08 0.000683189)
(0.129212 -7.61825e-08 0.000694751)
(0.1283 -7.52345e-08 0.000706426)
(0.127373 -7.43589e-08 0.000718247)
(0.126429 -7.3586e-08 0.000730248)
(0.125469 -7.29921e-08 0.00074246)
(0.124492 -7.25428e-08 0.000754916)
(0.123499 -7.21735e-08 0.000767647)
(0.122488 -7.18423e-08 0.000780682)
(0.121459 -7.13969e-08 0.00079405)
(0.120412 -7.0723e-08 0.000807777)
(0.119346 -6.97598e-08 0.00082189)
(0.118262 -6.84691e-08 0.000836412)
(0.117157 -6.69081e-08 0.000851365)
(0.116033 -6.51606e-08 0.000866771)
(0.114888 -6.34207e-08 0.000882647)
(0.113721 -6.18902e-08 0.000899013)
(0.112532 -6.07404e-08 0.000915884)
(0.111321 -5.99942e-08 0.000933276)
(0.110087 -5.95754e-08 0.000951204)
(0.108829 -5.92404e-08 0.000969681)
(0.107546 -5.86008e-08 0.000988723)
(0.106238 -5.72987e-08 0.00100834)
(0.104904 -5.5121e-08 0.00102855)
(0.103544 -5.20752e-08 0.00104937)
(0.102156 -4.84127e-08 0.00107082)
(0.10074 -4.46816e-08 0.00109291)
(0.0992951 -4.15063e-08 0.00111566)
(0.0978204 -3.94733e-08 0.0011391)
(0.0963152 -3.89174e-08 0.00116324)
(0.0947785 -3.99073e-08 0.00118811)
(0.0932096 -4.22602e-08 0.00121374)
(0.0916076 -4.5641e-08 0.00124016)
(0.0899714 -4.98975e-08 0.00126741)
(0.0883001 -5.50372e-08 0.00129552)
(0.0865928 -6.12049e-08 0.00132454)
(0.0848483 -6.8233e-08 0.00135453)
(0.0830656 -7.54896e-08 0.00138554)
(0.0812434 -8.1368e-08 0.00141764)
(0.0793807 -8.37056e-08 0.0014509)
(0.0774759 -8.04847e-08 0.0014854)
(0.0755278 -7.08981e-08 0.00152124)
(0.0735348 -5.63317e-08 0.0015585)
(0.0714952 -4.02347e-08 0.00159727)
(0.0694073 -2.72597e-08 0.00163765)
(0.0672695 -2.11986e-08 0.00167974)
(0.0650797 -2.31631e-08 0.00172362)
(0.0628361 -3.1006e-08 0.00176938)
(0.0605366 -4.02195e-08 0.00181711)
(0.0581793 -4.67679e-08 0.0018669)
(0.0557622 -4.92883e-08 0.00191881)
(0.0532831 -4.96614e-08 0.0019729)
(0.0507401 -5.15193e-08 0.00202919)
(0.0481312 -5.74434e-08 0.00208767)
(0.0454545 -6.68548e-08 0.00214823)
(0.0427084 -7.6647e-08 0.00221072)
(0.0398919 -8.27538e-08 0.00227492)
(0.037004 -8.18705e-08 0.0023405)
(0.0340446 -7.19184e-08 0.002407)
(0.0310144 -5.23416e-08 0.00247377)
(0.027915 -2.58434e-08 0.00253989)
(0.0247491 -7.84285e-10 0.0026041)
(0.0215217 1.08658e-08 0.0026648)
(0.0182397 1.49243e-09 0.00271993)
(0.0149131 -2.33915e-08 0.00276687)
(0.0115554 -4.69201e-08 0.00280223)
(0.0081849 -5.45193e-08 0.00282155)
(0.00482273 -4.73769e-08 0.00281876)
(0.00151379 -3.86965e-08 0.00278519)
(-0.00174038 -3.35797e-08 0.0026942)
(-0.00482247 -2.68028e-08 0.00253615)
(-0.00770739 -1.1711e-08 0.00231141)
(-0.0102945 1.41782e-08 0.00199104)
(-0.0124575 5.6482e-08 0.00147975)
(-0.0139758 1.64577e-08 0.000358148)
(-0.0145856 -6.38123e-08 -0.000158997)
(-0.0146286 -5.9613e-08 -0.000695245)
(-0.0134277 2.26972e-09 -0.00214561)
(-0.0111804 8.96001e-08 -0.00280094)
(-0.00845589 1.03637e-07 -0.00278894)
(-0.00494665 7.41329e-08 -0.00272334)
(-0.00215387 7.10285e-08 -0.00216083)
(-0.00249984 7.35822e-08 0.00659533)
(-0.00453825 -1.26351e-07 0.00547759)
(-0.0058018 -4.44979e-08 0.00372333)
(-0.00565505 -3.47946e-08 0.00161974)
(-0.00452396 -5.015e-08 -0.000610486)
(-0.00285582 -8.15539e-08 -0.00261823)
(-0.000659129 -1.03522e-07 -0.00419726)
(0.00206668 -1.12727e-07 -0.00539833)
(0.00521809 -1.07962e-07 -0.00630416)
(0.00871253 -1.03296e-07 -0.00697869)
(0.012478 -1.06073e-07 -0.00746968)
(0.016455 -1.09117e-07 -0.00782186)
(0.020593 -1.05091e-07 -0.00806897)
(0.0248482 -9.57554e-08 -0.00823276)
(0.0291847 -8.78724e-08 -0.00832954)
(0.0335716 -8.52949e-08 -0.00837118)
(0.0379827 -8.65076e-08 -0.00836678)
(0.0423955 -8.78783e-08 -0.00832343)
(0.0467905 -8.74005e-08 -0.00824687)
(0.0511506 -8.55388e-08 -0.00814187)
(0.0554612 -8.34524e-08 -0.00801251)
(0.0597096 -8.12061e-08 -0.00786234)
(0.0638847 -7.76216e-08 -0.00769454)
(0.0679771 -7.16366e-08 -0.00751196)
(0.0719789 -6.33729e-08 -0.00731718)
(0.0758836 -5.43668e-08 -0.00711256)
(0.0796858 -4.66514e-08 -0.00690027)
(0.0833811 -4.17191e-08 -0.00668225)
(0.0869664 -4.00287e-08 -0.00646029)
(0.0904392 -4.10929e-08 -0.00623597)
(0.093798 -4.3897e-08 -0.0060107)
(0.097042 -4.73103e-08 -0.00578574)
(0.100171 -5.03142e-08 -0.00556216)
(0.103186 -5.21208e-08 -0.00534091)
(0.106086 -5.22341e-08 -0.00512277)
(0.108875 -5.05152e-08 -0.00490839)
(0.111553 -4.722e-08 -0.0046983)
(0.114122 -4.29102e-08 -0.00449294)
(0.116584 -3.83254e-08 -0.00429263)
(0.118942 -3.42012e-08 -0.00409762)
(0.121199 -3.10621e-08 -0.00390806)
(0.123356 -2.91214e-08 -0.00372405)
(0.125417 -2.826e-08 -0.00354565)
(0.127384 -2.8103e-08 -0.00337286)
(0.12926 -2.81677e-08 -0.00320564)
(0.131047 -2.79993e-08 -0.00304391)
(0.132749 -2.73283e-08 -0.0028876)
(0.134368 -2.60938e-08 -0.00273659)
(0.135906 -2.44395e-08 -0.00259075)
(0.137366 -2.26435e-08 -0.00244994)
(0.138752 -2.09816e-08 -0.00231402)
(0.140064 -1.96577e-08 -0.00218284)
(0.141306 -1.87363e-08 -0.00205623)
(0.14248 -1.81319e-08 -0.00193405)
(0.143587 -1.76836e-08 -0.00181613)
(0.144631 -1.71801e-08 -0.00170233)
(0.145614 -1.64644e-08 -0.00159248)
(0.146536 -1.54631e-08 -0.00148644)
(0.147401 -1.42076e-08 -0.00138407)
(0.14821 -1.28132e-08 -0.00128521)
(0.148965 -1.14398e-08 -0.00118973)
(0.149668 -1.02538e-08 -0.0010975)
(0.150319 -9.36484e-09 -0.00100837)
(0.150922 -8.82707e-09 -0.000922235)
(0.151478 -8.62148e-09 -0.000838952)
(0.151987 -8.66527e-09 -0.000758406)
(0.152452 -8.84421e-09 -0.000680477)
(0.152874 -9.03743e-09 -0.000605054)
(0.153253 -9.14118e-09 -0.000532024)
(0.153592 -9.07265e-09 -0.000461281)
(0.153892 -8.809e-09 -0.000392722)
(0.154153 -8.34927e-09 -0.000326246)
(0.154377 -7.7325e-09 -0.000261757)
(0.154564 -7.02055e-09 -0.000199163)
(0.154716 -6.27242e-09 -0.000138376)
(0.154834 -5.56999e-09 -7.93117e-05)
(0.154919 -4.90943e-09 -2.18921e-05)
(0.154971 -4.30503e-09 3.39766e-05)
(0.154991 -3.83008e-09 8.83796e-05)
(0.15498 -3.45982e-09 0.000141387)
(0.154939 -3.17904e-09 0.000193075)
(0.154869 -2.95251e-09 0.000243512)
(0.154769 -2.75358e-09 0.000292766)
(0.154642 -2.55751e-09 0.000340897)
(0.154486 -2.33193e-09 0.000387964)
(0.154304 -2.07018e-09 0.000434019)
(0.154095 -1.75037e-09 0.000479113)
(0.15386 -1.38012e-09 0.00052329)
(0.1536 -9.60373e-10 0.00056659)
(0.153314 -4.89227e-10 0.000609051)
(0.153004 1.2376e-11 0.000650704)
(0.15267 5.43486e-10 0.000691579)
(0.152312 1.09458e-09 0.000731701)
(0.151931 1.6552e-09 0.000771091)
(0.151527 2.22724e-09 0.000809768)
(0.1511 2.80118e-09 0.000847749)
(0.150651 3.38749e-09 0.000885048)
(0.150181 3.98142e-09 0.000921679)
(0.149689 4.58772e-09 0.000957653)
(0.149176 5.20449e-09 0.000992981)
(0.148643 5.83174e-09 0.00102768)
(0.148089 6.46088e-09 0.00106175)
(0.147515 7.08812e-09 0.00109521)
(0.146922 7.70109e-09 0.00112809)
(0.146309 8.30168e-09 0.00116039)
(0.145677 8.86896e-09 0.00119214)
(0.145027 9.40197e-09 0.00122336)
(0.144358 9.90262e-09 0.00125408)
(0.143671 1.03566e-08 0.00128434)
(0.142966 1.07716e-08 0.00131417)
(0.142243 1.11352e-08 0.00134362)
(0.141503 1.14626e-08 0.00137273)
(0.140745 1.17558e-08 0.00140155)
(0.13997 1.20023e-08 0.00143014)
(0.139178 1.22241e-08 0.00145855)
(0.138369 1.24135e-08 0.00148686)
(0.137543 1.25705e-08 0.00151512)
(0.1367 1.27019e-08 0.00154341)
(0.13584 1.28056e-08 0.00157179)
(0.134963 1.28827e-08 0.00160034)
(0.134068 1.29237e-08 0.00162912)
(0.133156 1.29313e-08 0.00165822)
(0.132227 1.28999e-08 0.0016877)
(0.131279 1.28342e-08 0.00171764)
(0.130314 1.27495e-08 0.0017481)
(0.12933 1.26476e-08 0.00177916)
(0.128328 1.2561e-08 0.00181087)
(0.127306 1.24953e-08 0.00184329)
(0.126265 1.24696e-08 0.00187649)
(0.125204 1.24782e-08 0.00191052)
(0.124122 1.25068e-08 0.00194542)
(0.12302 1.2522e-08 0.00198125)
(0.121896 1.24792e-08 0.00201805)
(0.12075 1.23307e-08 0.00205585)
(0.119582 1.20499e-08 0.00209469)
(0.11839 1.16121e-08 0.00213461)
(0.117175 1.1061e-08 0.00217564)
(0.115936 1.04537e-08 0.0022178)
(0.114672 9.88929e-09 0.00226113)
(0.113382 9.47335e-09 0.00230565)
(0.112066 9.28584e-09 0.00235139)
(0.110723 9.34105e-09 0.00239838)
(0.109353 9.59042e-09 0.00244664)
(0.107955 9.92355e-09 0.0024962)
(0.106527 1.01777e-08 0.00254709)
(0.10507 1.02224e-08 0.00259935)
(0.103582 9.94925e-09 0.00265302)
(0.102063 9.36484e-09 0.00270814)
(0.100513 8.56056e-09 0.00276476)
(0.0989291 7.64873e-09 0.00282293)
(0.0973119 6.73404e-09 0.0028827)
(0.0956601 5.83363e-09 0.00294414)
(0.0939729 4.87802e-09 0.00300733)
(0.0922494 3.77487e-09 0.00307235)
(0.0904885 2.51468e-09 0.00313928)
(0.0886894 1.28875e-09 0.00320823)
(0.0868508 5.27302e-10 0.0032793)
(0.0849718 7.30989e-10 0.00335262)
(0.0830512 2.26911e-09 0.0034283)
(0.0810878 5.01793e-09 0.00350648)
(0.0790802 8.31309e-09 0.00358729)
(0.0770273 1.10486e-08 0.00367088)
(0.0749276 1.21679e-08 0.00375738)
(0.0727797 1.11876e-08 0.00384693)
(0.0705822 8.53201e-09 0.00393965)
(0.0683337 5.39104e-09 0.00403565)
(0.0660326 3.07815e-09 0.004135)
(0.0636776 2.23104e-09 0.00423777)
(0.0612673 2.46899e-09 0.00434396)
(0.0588003 2.70694e-09 0.0044535)
(0.0562756 1.92836e-09 0.00456628)
(0.053692 -5.71126e-12 0.00468204)
(0.0510488 -2.34906e-09 0.00480042)
(0.0483455 -4.02806e-09 0.00492087)
(0.0455821 -4.31741e-09 0.00504266)
(0.0427592 -2.94299e-09 0.00516479)
(0.0398779 1.69422e-10 0.00528598)
(0.0369404 4.84281e-09 0.00540454)
(0.0339498 1.00206e-08 0.0055183)
(0.0309104 1.3293e-08 0.00562452)
(0.0278284 1.23107e-08 0.00571971)
(0.0247119 7.21853e-09 0.00579949)
(0.0215715 1.45056e-09 0.00585838)
(0.0184208 -1.16692e-09 0.00588949)
(0.0152771 -1.97976e-10 0.00588408)
(0.0121616 1.53432e-09 0.00583049)
(0.00910271 2.37191e-09 0.00571507)
(0.00613026 4.02997e-09 0.00551322)
(0.00328734 8.32264e-09 0.00520328)
(0.000619441 1.15303e-08 0.00476369)
(-0.00181203 8.2811e-09 0.004153)
(-0.00393706 1.08187e-08 0.00331656)
(-0.00580062 1.33894e-08 0.00219771)
(-0.00736464 1.09147e-08 0.000926719)
(-0.00827004 3.25663e-08 -0.000437583)
(-0.00856927 2.59331e-08 -0.00200503)
(-0.00829506 2.66682e-08 -0.0034784)
(-0.00719012 3.5059e-08 -0.00472864)
(-0.00506894 2.53404e-08 -0.0056404)
(-0.00251885 1.25775e-07 -0.00584481)
(-0.00250023 7.36251e-08 0.00659405)
(-0.00453873 -1.26534e-07 0.00547666)
(-0.00580221 -4.45311e-08 0.00372262)
(-0.00565525 -3.47817e-08 0.00161899)
(-0.00452413 -5.01123e-08 -0.000611341)
(-0.00285609 -8.15219e-08 -0.00261914)
(-0.00065932 -1.03506e-07 -0.00419805)
(0.00206653 -1.12718e-07 -0.00539903)
(0.00521796 -1.07954e-07 -0.00630479)
(0.00871243 -1.0329e-07 -0.00697926)
(0.012478 -1.06067e-07 -0.00747019)
(0.0164549 -1.09112e-07 -0.00782232)
(0.0205929 -1.05086e-07 -0.00806938)
(0.0248482 -9.57511e-08 -0.00823312)
(0.0291846 -8.78686e-08 -0.00832986)
(0.0335715 -8.52914e-08 -0.00837147)
(0.0379826 -8.65042e-08 -0.00836704)
(0.0423954 -8.7875e-08 -0.00832367)
(0.0467903 -8.73974e-08 -0.00824708)
(0.0511505 -8.55359e-08 -0.00814206)
(0.0554611 -8.34497e-08 -0.00801268)
(0.0597094 -8.12037e-08 -0.0078625)
(0.0638845 -7.76193e-08 -0.00769469)
(0.0679769 -7.16346e-08 -0.00751209)
(0.0719787 -6.33712e-08 -0.00731729)
(0.0758834 -5.43654e-08 -0.00711266)
(0.0796855 -4.66502e-08 -0.00690036)
(0.0833809 -4.17181e-08 -0.00668233)
(0.0869661 -4.00278e-08 -0.00646035)
(0.090439 -4.1092e-08 -0.00623601)
(0.0937978 -4.38961e-08 -0.00601073)
(0.0970418 -4.73093e-08 -0.00578576)
(0.100171 -5.03132e-08 -0.00556218)
(0.103185 -5.21198e-08 -0.00534091)
(0.106086 -5.22332e-08 -0.00512276)
(0.108875 -5.05143e-08 -0.00490838)
(0.111553 -4.72192e-08 -0.00469829)
(0.114122 -4.29095e-08 -0.00449293)
(0.116584 -3.83247e-08 -0.00429261)
(0.118942 -3.42006e-08 -0.00409759)
(0.121199 -3.10616e-08 -0.00390802)
(0.123356 -2.91209e-08 -0.00372401)
(0.125417 -2.82596e-08 -0.00354561)
(0.127383 -2.81026e-08 -0.00337281)
(0.129259 -2.81673e-08 -0.00320558)
(0.131047 -2.79989e-08 -0.00304386)
(0.132749 -2.73279e-08 -0.00288754)
(0.134367 -2.60935e-08 -0.00273653)
(0.135906 -2.44392e-08 -0.00259068)
(0.137366 -2.26432e-08 -0.00244987)
(0.138751 -2.09814e-08 -0.00231395)
(0.140064 -1.96574e-08 -0.00218276)
(0.141306 -1.87361e-08 -0.00205615)
(0.142479 -1.81317e-08 -0.00193397)
(0.143587 -1.76835e-08 -0.00181605)
(0.144631 -1.718e-08 -0.00170224)
(0.145613 -1.64642e-08 -0.00159239)
(0.146536 -1.54629e-08 -0.00148635)
(0.147401 -1.42075e-08 -0.00138398)
(0.14821 -1.28131e-08 -0.00128512)
(0.148965 -1.14397e-08 -0.00118964)
(0.149667 -1.02537e-08 -0.00109741)
(0.150319 -9.36476e-09 -0.00100829)
(0.150922 -8.827e-09 -0.000922147)
(0.151478 -8.62141e-09 -0.000838864)
(0.151987 -8.6652e-09 -0.000758316)
(0.152452 -8.84414e-09 -0.000680387)
(0.152873 -9.03736e-09 -0.000604962)
(0.153253 -9.14111e-09 -0.000531932)
(0.153592 -9.07258e-09 -0.000461189)
(0.153892 -8.80893e-09 -0.00039263)
(0.154153 -8.34921e-09 -0.000326155)
(0.154376 -7.73244e-09 -0.000261668)
(0.154564 -7.0205e-09 -0.000199076)
(0.154716 -6.27238e-09 -0.000138291)
(0.154834 -5.56995e-09 -7.92287e-05)
(0.154919 -4.9094e-09 -2.1811e-05)
(0.154971 -4.305e-09 3.4056e-05)
(0.154991 -3.83005e-09 8.84578e-05)
(0.15498 -3.4598e-09 0.000141465)
(0.154939 -3.17902e-09 0.000193151)
(0.154869 -2.95249e-09 0.000243589)
(0.154769 -2.75357e-09 0.000292842)
(0.154641 -2.55749e-09 0.000340974)
(0.154486 -2.33192e-09 0.000388041)
(0.154304 -2.07017e-09 0.000434097)
(0.154095 -1.75036e-09 0.000479191)
(0.15386 -1.38011e-09 0.000523368)
(0.153599 -9.60368e-10 0.000566669)
(0.153314 -4.89225e-10 0.00060913)
(0.153004 1.2376e-11 0.000650783)
(0.15267 5.43483e-10 0.000691658)
(0.152312 1.09458e-09 0.000731779)
(0.151931 1.65519e-09 0.000771168)
(0.151526 2.22722e-09 0.000809845)
(0.1511 2.80116e-09 0.000847825)
(0.150651 3.38747e-09 0.000885123)
(0.150181 3.9814e-09 0.000921753)
(0.149689 4.5877e-09 0.000957725)
(0.149176 5.20447e-09 0.000993052)
(0.148642 5.83171e-09 0.00102775)
(0.148089 6.46085e-09 0.00106182)
(0.147515 7.08809e-09 0.00109528)
(0.146921 7.70105e-09 0.00112815)
(0.146309 8.30164e-09 0.00116045)
(0.145677 8.86892e-09 0.0011922)
(0.145027 9.40193e-09 0.00122342)
(0.144358 9.90258e-09 0.00125414)
(0.143671 1.03566e-08 0.0012844)
(0.142966 1.07716e-08 0.00131424)
(0.142243 1.11352e-08 0.00134368)
(0.141503 1.14626e-08 0.00137279)
(0.140745 1.17557e-08 0.00140161)
(0.13997 1.20023e-08 0.0014302)
(0.139178 1.2224e-08 0.00145862)
(0.138369 1.24134e-08 0.00148692)
(0.137543 1.25705e-08 0.00151518)
(0.1367 1.27018e-08 0.00154347)
(0.13584 1.28056e-08 0.00157185)
(0.134963 1.28827e-08 0.0016004)
(0.134068 1.29236e-08 0.00162919)
(0.133156 1.29312e-08 0.00165829)
(0.132227 1.28998e-08 0.00168777)
(0.131279 1.28341e-08 0.00171771)
(0.130314 1.27494e-08 0.00174817)
(0.12933 1.26476e-08 0.00177922)
(0.128328 1.2561e-08 0.00181093)
(0.127306 1.24953e-08 0.00184336)
(0.126265 1.24696e-08 0.00187656)
(0.125204 1.24782e-08 0.00191058)
(0.124122 1.25067e-08 0.00194549)
(0.12302 1.25219e-08 0.00198132)
(0.121896 1.24791e-08 0.00201811)
(0.12075 1.23306e-08 0.00205591)
(0.119582 1.20499e-08 0.00209476)
(0.11839 1.1612e-08 0.00213468)
(0.117175 1.10609e-08 0.00217571)
(0.115936 1.04537e-08 0.00221787)
(0.114672 9.88926e-09 0.0022612)
(0.113382 9.47332e-09 0.00230572)
(0.112066 9.28581e-09 0.00235146)
(0.110723 9.34102e-09 0.00239845)
(0.109353 9.59039e-09 0.0024467)
(0.107955 9.92352e-09 0.00249626)
(0.106527 1.01777e-08 0.00254716)
(0.10507 1.02224e-08 0.00259942)
(0.103582 9.94922e-09 0.00265309)
(0.102063 9.36481e-09 0.00270821)
(0.100513 8.56054e-09 0.00276482)
(0.0989291 7.64871e-09 0.00282299)
(0.0973119 6.73402e-09 0.00288276)
(0.0956601 5.83361e-09 0.0029442)
(0.0939729 4.878e-09 0.00300739)
(0.0922494 3.77486e-09 0.00307241)
(0.0904885 2.51467e-09 0.00313934)
(0.0886894 1.28874e-09 0.00320829)
(0.0868508 5.273e-10 0.00327936)
(0.0849719 7.30986e-10 0.00335268)
(0.0830512 2.2691e-09 0.00342836)
(0.0810878 5.01792e-09 0.00350654)
(0.0790803 8.31307e-09 0.00358736)
(0.0770273 1.10486e-08 0.00367095)
(0.0749276 1.21679e-08 0.00375745)
(0.0727797 1.11875e-08 0.003847)
(0.0705822 8.53198e-09 0.00393971)
(0.0683337 5.39102e-09 0.00403571)
(0.0660326 3.07814e-09 0.00413506)
(0.0636776 2.23103e-09 0.00423783)
(0.0612673 2.46898e-09 0.00434401)
(0.0588004 2.70693e-09 0.00445356)
(0.0562756 1.92836e-09 0.00456634)
(0.053692 -5.71124e-12 0.00468211)
(0.0510488 -2.34905e-09 0.00480048)
(0.0483455 -4.02804e-09 0.00492094)
(0.0455821 -4.31739e-09 0.00504273)
(0.0427592 -2.94298e-09 0.00516487)
(0.039878 1.69421e-10 0.00528606)
(0.0369405 4.84278e-09 0.00540463)
(0.0339498 1.00206e-08 0.00551839)
(0.0309104 1.32929e-08 0.00562461)
(0.0278284 1.23106e-08 0.00571979)
(0.0247119 7.21848e-09 0.00579957)
(0.0215715 1.45055e-09 0.00585847)
(0.0184209 -1.16691e-09 0.00588959)
(0.0152772 -1.97974e-10 0.00588419)
(0.0121617 1.53431e-09 0.00583061)
(0.00910279 2.37189e-09 0.00571518)
(0.00613035 4.02993e-09 0.00551334)
(0.00328745 8.32256e-09 0.00520342)
(0.00061956 1.15301e-08 0.00476384)
(-0.00181192 8.28034e-09 0.0041532)
(-0.00393706 1.0814e-08 0.00331685)
(-0.00580052 1.33754e-08 0.00219771)
(-0.00736454 1.09083e-08 0.000926242)
(-0.00827008 3.25906e-08 -0.000438005)
(-0.00856941 2.59823e-08 -0.00200504)
(-0.00829508 2.67091e-08 -0.00347795)
(-0.00718982 3.50625e-08 -0.00472821)
(-0.00506889 2.53262e-08 -0.00564007)
(-0.00251876 1.25746e-07 -0.00584419)
(-0.00174377 -3.80711e-08 0.009934)
(-0.00240377 -1.20863e-07 0.00705388)
(-0.00224568 -5.4003e-08 0.00364348)
(-0.00101137 -5.15423e-08 0.000375368)
(0.000754953 -3.59524e-08 -0.00256628)
(0.00285654 -3.44847e-08 -0.00506261)
(0.00526285 -4.51537e-08 -0.00707353)
(0.00797909 -4.73614e-08 -0.0086644)
(0.0109785 -4.40128e-08 -0.00990813)
(0.0142278 -4.32762e-08 -0.0108693)
(0.0176919 -4.53589e-08 -0.0116009)
(0.021336 -4.603e-08 -0.0121481)
(0.0251254 -4.40321e-08 -0.0125467)
(0.0290274 -4.16078e-08 -0.0128237)
(0.0330128 -4.0854e-08 -0.0129998)
(0.0370555 -4.18582e-08 -0.0130911)
(0.0411323 -4.34193e-08 -0.0131105)
(0.0452225 -4.44987e-08 -0.0130682)
(0.0493082 -4.48652e-08 -0.0129727)
(0.053373 -4.48033e-08 -0.0128312)