/*--------------------------------*- C++ -*----------------------------------*\
  =========                 |
  \\      /  F ield         | OpenFOAM: The Open Source CFD Toolbox
   \\    /   O peration     | Website:  https://openfoam.org
    \\  /    A nd           | Version:  8
     \\/     M anipulation  |
\*---------------------------------------------------------------------------*/
FoamFile
{
    version     2.0;
    format      ascii;
    class       volScalarField;
    location    "2700";
    object      nut;
}
// * * * * * * * * * * * * * * * * * * * * * * * * * * * * * * * * * * * * * //

dimensions      [0 2 -1 0 0 0 0];

internalField   nonuniform List<scalar> 
48000
(
3.78791e-05
7.55002e-05
9.52706e-05
0.000109018
0.000120406
0.000129971
0.000138246
0.000145665
0.000152515
0.000158787
0.000164621
0.000170081
0.000175219
0.000180073
0.000184674
0.000189047
0.00019321
0.00019718
0.00020097
0.00020459
0.000208051
0.000211359
0.000214521
0.000217544
0.000220433
0.000223192
0.000225827
0.00022834
0.000230737
0.000233019
0.000235192
0.000237258
0.000239221
0.000241083
0.000242848
0.000244518
0.000246097
0.000247588
0.000248992
0.000250314
0.000251555
0.000252718
0.000253806
0.000254821
0.000255766
0.000256651
0.000257476
0.000258238
0.000258939
0.000259581
0.000260166
0.000260697
0.000261175
0.000261604
0.000261984
0.000262318
0.000262608
0.000262855
0.000263061
0.000263228
0.000263358
0.000263451
0.00026351
0.000263535
0.000263529
0.000263491
0.000263425
0.00026333
0.000263208
0.00026306
0.000262886
0.000262689
0.000262468
0.000262225
0.00026196
0.000261674
0.000261368
0.000261043
0.000260698
0.000260336
0.000259956
0.000259559
0.000259145
0.000258715
0.000258269
0.000257808
0.000257332
0.000256842
0.000256337
0.000255818
0.000255286
0.00025474
0.000254181
0.000253609
0.000253023
0.000252425
0.000251815
0.000251192
0.000250556
0.000249908
0.000249247
0.000248575
0.00024789
0.000247192
0.000246483
0.000245761
0.000245026
0.000244279
0.000243519
0.000242746
0.000241961
0.000241163
0.000240351
0.000239526
0.000238688
0.000237836
0.00023697
0.00023609
0.000235195
0.000234287
0.000233363
0.000232424
0.000231471
0.000230501
0.000229516
0.000228515
0.000227498
0.000226464
0.000225413
0.000224345
0.000223259
0.000222155
0.000221034
0.000219894
0.000218735
0.000217557
0.00021636
0.000215144
0.000213907
0.00021265
0.000211372
0.000210074
0.000208754
0.000207413
0.00020605
0.000204665
0.000203257
0.000201827
0.000200373
0.000198896
0.000197396
0.000195871
0.000194322
0.000192748
0.000191149
0.000189525
0.000187875
0.000186199
0.000184497
0.000182767
0.00018101
0.000179226
0.000177413
0.000175571
0.0001737
0.000171799
0.000169867
0.000167903
0.000165907
0.000163877
0.000161813
0.000159713
0.000157576
0.000155399
0.000153183
0.000150923
0.000148618
0.000146265
0.000143861
0.000141403
0.000138885
0.000136307
0.000133666
0.000130973
0.000128197
0.00012532
0.00012233
0.000119208
0.000115933
0.000112475
0.000108797
0.000104847
0.000100584
9.59308e-05
9.07118e-05
8.46911e-05
7.74723e-05
6.83923e-05
5.54865e-05
0.000120116
3.78768e-05
7.55096e-05
9.52711e-05
0.000109019
0.000120406
0.000129971
0.000138247
0.000145665
0.000152515
0.000158787
0.000164621
0.000170081
0.000175219
0.000180073
0.000184674
0.000189047
0.00019321
0.00019718
0.00020097
0.000204591
0.000208051
0.000211359
0.000214521
0.000217544
0.000220433
0.000223193
0.000225827
0.00022834
0.000230737
0.00023302
0.000235192
0.000237258
0.000239221
0.000241083
0.000242848
0.000244518
0.000246097
0.000247588
0.000248992
0.000250313
0.000251555
0.000252718
0.000253806
0.000254821
0.000255765
0.000256651
0.000257476
0.000258238
0.000258939
0.000259581
0.000260166
0.000260697
0.000261175
0.000261604
0.000261984
0.000262318
0.000262608
0.000262855
0.000263061
0.000263228
0.000263358
0.000263451
0.00026351
0.000263535
0.000263529
0.000263491
0.000263425
0.00026333
0.000263208
0.00026306
0.000262886
0.000262689
0.000262468
0.000262225
0.00026196
0.000261674
0.000261368
0.000261043
0.000260698
0.000260336
0.000259956
0.000259559
0.000259145
0.000258715
0.000258269
0.000257808
0.000257332
0.000256842
0.000256337
0.000255818
0.000255286
0.00025474
0.000254181
0.000253608
0.000253023
0.000252425
0.000251815
0.000251191
0.000250556
0.000249908
0.000249247
0.000248575
0.00024789
0.000247192
0.000246483
0.00024576
0.000245026
0.000244279
0.000243519
0.000242746
0.000241961
0.000241162
0.000240351
0.000239526
0.000238688
0.000237836
0.00023697
0.00023609
0.000235195
0.000234287
0.000233363
0.000232424
0.000231471
0.000230501
0.000229516
0.000228515
0.000227498
0.000226464
0.000225413
0.000224345
0.000223259
0.000222155
0.000221034
0.000219894
0.000218735
0.000217557
0.00021636
0.000215144
0.000213907
0.00021265
0.000211372
0.000210074
0.000208754
0.000207413
0.00020605
0.000204665
0.000203257
0.000201827
0.000200373
0.000198896
0.000197395
0.000195871
0.000194322
0.000192748
0.000191149
0.000189525
0.000187875
0.000186199
0.000184497
0.000182767
0.00018101
0.000179226
0.000177413
0.000175571
0.0001737
0.000171799
0.000169867
0.000167903
0.000165907
0.000163877
0.000161813
0.000159713
0.000157576
0.000155399
0.000153183
0.000150923
0.000148618
0.000146265
0.000143861
0.000141403
0.000138885
0.000136307
0.000133666
0.000130973
0.000128197
0.00012532
0.00012233
0.000119208
0.000115933
0.000112475
0.000108797
0.000104847
0.000100584
9.5931e-05
9.07124e-05
8.46917e-05
7.74682e-05
6.83687e-05
5.54902e-05
0.000120084
6.55742e-05
0.000491594
0.000782071
0.000984244
0.0011351
0.00125886
0.00136487
0.00145795
0.00154085
0.00161611
0.00168505
0.0017487
0.00180785
0.0018631
0.00191491
0.00196367
0.00200968
0.00205319
0.00209442
0.00213354
0.00217071
0.00220606
0.0022397
0.00227173
0.00230224
0.00233131
0.00235901
0.00238541
0.00241055
0.00243449
0.00245729
0.00247899
0.00249962
0.00251923
0.00253786
0.00255554
0.00257231
0.0025882
0.00260323
0.00261744
0.00263086
0.0026435
0.0026554
0.00266657
0.00267699
0.00268655
0.0026954
0.00270361
0.00271123
0.0027183
0.00272483
0.00273086
0.0027364
0.00274147
0.00274609
0.00275026
0.00275402
0.00275737
0.00276033
0.00276291
0.00276513
0.00276699
0.00276852
0.00276972
0.0027706
0.00277118
0.00277146
0.00277145
0.00277118
0.00277063
0.00276983
0.00276877
0.00276748
0.00276595
0.0027642
0.00276222
0.00276003
0.00275763
0.00275503
0.00275223
0.00274924
0.00274607
0.00274271
0.00273917
0.00273545
0.00273157
0.00272751
0.0027233
0.00271892
0.00271438
0.00270968
0.00270483
0.00269982
0.00269467
0.00268936
0.00268391
0.00267831
0.00267256
0.00266667
0.00266063
0.00265445
0.00264812
0.00264164
0.00263503
0.00262826
0.00262135
0.0026143
0.00260709
0.00259974
0.00259224
0.00258459
0.00257678
0.00256883
0.00256071
0.00255244
0.00254401
0.00253542
0.00252667
0.00251775
0.00250867
0.00249941
0.00248998
0.00248038
0.0024706
0.00246064
0.0024505
0.00244017
0.00242965
0.00241894
0.00240803
0.00239693
0.00238563
0.00237412
0.00236241
0.00235048
0.00233835
0.002326
0.00231342
0.00230063
0.00228761
0.00227436
0.00226088
0.00224716
0.0022332
0.002219
0.00220456
0.00218987
0.00217492
0.00215972
0.00214426
0.00212854
0.00211255
0.0020963
0.00207977
0.00206296
0.00204587
0.00202849
0.00201083
0.00199286
0.0019746
0.00195603
0.00193715
0.00191795
0.00189842
0.00187856
0.00185836
0.0018378
0.00181688
0.00179558
0.0017739
0.00175181
0.00172931
0.00170636
0.00168295
0.00165905
0.00163464
0.00160968
0.00158412
0.00155793
0.00153105
0.0015034
0.00147486
0.00144532
0.00141457
0.0013826
0.0013493
0.00131453
0.00127803
0.00123952
0.00119855
0.00115451
0.00110644
0.00105248
0.000991114
0.00092004
0.000834929
0.000727916
0.000583332
0.000363557
4.53032e-05
6.55832e-05
0.000491622
0.000782096
0.000984271
0.00113513
0.00125889
0.00136489
0.00145798
0.00154088
0.00161614
0.00168507
0.00174872
0.00180787
0.00186312
0.00191493
0.00196369
0.0020097
0.00205321
0.00209444
0.00213356
0.00217073
0.00220607
0.00223971
0.00227175
0.00230226
0.00233133
0.00235903
0.00238542
0.00241056
0.00243451
0.0024573
0.002479
0.00249963
0.00251925
0.00253788
0.00255556
0.00257232
0.00258821
0.00260324
0.00261745
0.00263087
0.00264351
0.00265541
0.00266658
0.002677
0.00268656
0.00269541
0.00270362
0.00271124
0.00271831
0.00272484
0.00273087
0.00273641
0.00274148
0.00274609
0.00275027
0.00275403
0.00275738
0.00276034
0.00276292
0.00276514
0.002767
0.00276853
0.00276972
0.00277061
0.00277118
0.00277147
0.00277146
0.00277118
0.00277064
0.00276984
0.00276878
0.00276749
0.00276596
0.0027642
0.00276223
0.00276004
0.00275764
0.00275504
0.00275224
0.00274925
0.00274607
0.00274271
0.00273917
0.00273546
0.00273157
0.00272752
0.0027233
0.00271892
0.00271438
0.00270969
0.00270484
0.00269983
0.00269468
0.00268937
0.00268392
0.00267832
0.00267257
0.00266668
0.00266064
0.00265445
0.00264812
0.00264165
0.00263503
0.00262827
0.00262136
0.0026143
0.0026071
0.00259975
0.00259225
0.0025846
0.00257679
0.00256883
0.00256072
0.00255245
0.00254402
0.00253543
0.00252668
0.00251776
0.00250867
0.00249942
0.00248999
0.00248039
0.00247061
0.00246065
0.0024505
0.00244017
0.00242965
0.00241894
0.00240804
0.00239694
0.00238563
0.00237413
0.00236241
0.00235049
0.00233835
0.002326
0.00231343
0.00230063
0.00228761
0.00227436
0.00226088
0.00224716
0.00223321
0.00221901
0.00220457
0.00218987
0.00217493
0.00215973
0.00214427
0.00212855
0.00211256
0.0020963
0.00207977
0.00206296
0.00204587
0.0020285
0.00201083
0.00199287
0.00197461
0.00195604
0.00193716
0.00191795
0.00189843
0.00187857
0.00185836
0.00183781
0.00181689
0.00179559
0.00177391
0.00175182
0.00172931
0.00170636
0.00168295
0.00165906
0.00163464
0.00160968
0.00158413
0.00155794
0.00153106
0.0015034
0.00147487
0.00144533
0.00141458
0.0013826
0.00134931
0.00131453
0.00127804
0.00123952
0.00119855
0.00115452
0.00110644
0.00105248
0.000991118
0.00092004
0.000834909
0.000727816
0.000583057
0.000363539
4.52894e-05
8.18107e-05
0.000746274
0.00132762
0.00176123
0.00210357
0.00238786
0.00263225
0.00284709
0.00303893
0.00321238
0.00337067
0.00351616
0.00365066
0.00377561
0.00389212
0.00400114
0.00410343
0.00419964
0.00429032
0.00437594
0.00445691
0.00453358
0.00460627
0.00467525
0.00474077
0.00480304
0.00486226
0.0049186
0.00497223
0.00502328
0.00507189
0.00511817
0.00516223
0.00520417
0.00524409
0.00528206
0.00531818
0.00535251
0.00538513
0.00541609
0.00544546
0.00547328
0.00549961
0.00552448
0.00554789
0.00556981
0.00559036
0.00560963
0.0056277
0.00564465
0.00566051
0.00567534
0.00568918
0.00570206
0.00571402
0.0057251
0.00573531
0.00574469
0.00575327
0.00576108
0.00576815
0.00577448
0.00578012
0.00578508
0.00578938
0.00579305
0.0057961
0.00579856
0.00580044
0.00580175
0.00580252
0.00580276
0.00580248
0.00580171
0.00580044
0.0057987
0.0057965
0.00579385
0.00579076
0.00578723
0.00578329
0.00577893
0.00577417
0.00576902
0.00576348
0.00575755
0.00575126
0.00574459
0.00573756
0.00573017
0.00572243
0.00571434
0.00570591
0.00569713
0.00568802
0.00567856
0.00566878
0.00565865
0.0056482
0.00563742
0.0056263
0.00561486
0.00560309
0.00559098
0.00557855
0.00556578
0.00555268
0.00553924
0.00552547
0.00551135
0.0054969
0.00548209
0.00546694
0.00545144
0.00543558
0.00541936
0.00540278
0.00538583
0.00536851
0.00535081
0.00533272
0.00531425
0.00529538
0.00527612
0.00525645
0.00523637
0.00521587
0.00519495
0.0051736
0.00515181
0.00512958
0.0051069
0.00508377
0.00506017
0.0050361
0.00501155
0.00498652
0.004961
0.00493497
0.00490844
0.0048814
0.00485383
0.00482573
0.00479709
0.00476791
0.00473817
0.00470786
0.00467698
0.00464552
0.00461347
0.00458082
0.00454755
0.00451366
0.00447914
0.00444398
0.00440815
0.00437166
0.00433448
0.0042966
0.004258
0.00421867
0.00417859
0.00413774
0.0040961
0.00405363
0.00401032
0.00396614
0.00392104
0.00387501
0.00382799
0.00377995
0.00373082
0.00368056
0.0036291
0.00357636
0.00352226
0.00346671
0.00340958
0.00335074
0.00329003
0.00322725
0.00316215
0.00309445
0.0030238
0.00294989
0.00287233
0.00279054
0.00270378
0.00261116
0.0025114
0.0024028
0.00228294
0.00214835
0.00199423
0.00181484
0.00160029
0.00133499
0.000994429
0.000545881
6.04953e-05
8.18111e-05
0.000746297
0.00132766
0.00176128
0.00210363
0.00238792
0.00263231
0.00284715
0.00303899
0.00321244
0.00337072
0.00351621
0.00365071
0.00377565
0.00389217
0.00400119
0.00410348
0.00419968
0.00429036
0.00437598
0.00445694
0.00453361
0.0046063
0.00467528
0.0047408
0.00480307
0.00486228
0.00491863
0.00497225
0.0050233
0.00507191
0.00511819
0.00516225
0.00520419
0.0052441
0.00528208
0.0053182
0.00535253
0.00538514
0.0054161
0.00544547
0.00547329
0.00549962
0.00552449
0.0055479
0.00556982
0.00559036
0.00560963
0.00562771
0.00564466
0.00566052
0.00567535
0.00568919
0.00570207
0.00571403
0.0057251
0.00573531
0.0057447
0.00575328
0.00576109
0.00576815
0.00577449
0.00578012
0.00578508
0.00578939
0.00579305
0.00579611
0.00579856
0.00580044
0.00580175
0.00580252
0.00580276
0.00580249
0.00580171
0.00580045
0.00579871
0.00579651
0.00579385
0.00579076
0.00578724
0.00578329
0.00577893
0.00577418
0.00576902
0.00576348
0.00575756
0.00575126
0.00574459
0.00573756
0.00573018
0.00572244
0.00571435
0.00570591
0.00569713
0.00568802
0.00567856
0.00566878
0.00565866
0.0056482
0.00563742
0.00562631
0.00561486
0.00560309
0.00559098
0.00557855
0.00556578
0.00555268
0.00553924
0.00552547
0.00551135
0.0054969
0.00548209
0.00546694
0.00545144
0.00543558
0.00541936
0.00540278
0.00538583
0.00536851
0.00535081
0.00533272
0.00531425
0.00529538
0.00527612
0.00525645
0.00523637
0.00521587
0.00519495
0.0051736
0.00515181
0.00512958
0.0051069
0.00508377
0.00506017
0.0050361
0.00501155
0.00498652
0.004961
0.00493497
0.00490844
0.0048814
0.00485383
0.00482573
0.00479709
0.00476791
0.00473817
0.00470786
0.00467698
0.00464552
0.00461347
0.00458082
0.00454755
0.00451366
0.00447914
0.00444397
0.00440815
0.00437166
0.00433448
0.0042966
0.004258
0.00421867
0.00417859
0.00413774
0.00409609
0.00405363
0.00401032
0.00396614
0.00392104
0.00387501
0.00382799
0.00377995
0.00373082
0.00368056
0.0036291
0.00357636
0.00352226
0.00346671
0.00340958
0.00335074
0.00329003
0.00322725
0.00316215
0.00309445
0.0030238
0.00294989
0.00287233
0.00279054
0.00270378
0.00261116
0.0025114
0.0024028
0.00228294
0.00214835
0.00199424
0.00181484
0.0016003
0.00133499
0.000994426
0.00054604
6.05061e-05
9.28858e-05
0.000898669
0.00168966
0.00231724
0.00283
0.00326316
0.00363875
0.00397075
0.00426845
0.00453833
0.00478507
0.00501216
0.00522228
0.00541754
0.00559965
0.00577001
0.0059298
0.00607999
0.00622144
0.0063549
0.00648099
0.00660029
0.0067133
0.00682047
0.00692218
0.00701881
0.00711066
0.00719804
0.00728119
0.00736036
0.00743577
0.00750762
0.00757607
0.00764131
0.00770348
0.00776272
0.00781916
0.00787293
0.00792413
0.00797286
0.00801923
0.00806331
0.00810518
0.00814489
0.00818251
0.00821805
0.00825163
0.00828336
0.00831331
0.00834159
0.00836826
0.00839338
0.00841703
0.00843925
0.0084601
0.00847963
0.00849788
0.00851489
0.00853072
0.00854538
0.00855893
0.0085714
0.00858282
0.00859323
0.00860265
0.00861112
0.00861866
0.0086253
0.00863107
0.00863599
0.00864009
0.00864338
0.00864589
0.00864763
0.00864863
0.00864891
0.00864848
0.00864735
0.00864555
0.00864309
0.00863997
0.00863622
0.00863185
0.00862686
0.00862127
0.00861509
0.00860833
0.00860099
0.00859308
0.00858462
0.0085756
0.00856603
0.00855592
0.00854527
0.00853409
0.00852238
0.00851015
0.00849738
0.0084841
0.00847029
0.00845596
0.00844112
0.00842575
0.00840986
0.00839344
0.0083765
0.00835904
0.00834105
0.00832252
0.00830345
0.00828385
0.0082637
0.008243
0.00822175
0.00819994
0.00817756
0.00815461
0.00813107
0.00810695
0.00808224
0.00805693
0.008031
0.00800445
0.00797728
0.00794947
0.00792102
0.00789191
0.00786214
0.00783169
0.00780055
0.00776872
0.00773618
0.00770293
0.00766894
0.00763422
0.00759874
0.0075625
0.00752548
0.00748767
0.00744906
0.00740964
0.00736939
0.00732829
0.00728634
0.00724352
0.00719981
0.00715521
0.00710968
0.00706322
0.00701582
0.00696744
0.00691807
0.0068677
0.0068163
0.00676384
0.00671032
0.00665569
0.00659994
0.00654303
0.00648494
0.00642563
0.00636507
0.00630321
0.00624002
0.00617545
0.00610945
0.00604195
0.00597291
0.00590225
0.0058299
0.00575577
0.00567977
0.00560179
0.00552171
0.00543939
0.00535468
0.0052674
0.00517733
0.00508422
0.0049878
0.00488771
0.00478355
0.00467484
0.004561
0.00444139
0.00431523
0.00418149
0.00403889
0.0038858
0.00372006
0.00353887
0.00333853
0.00311402
0.00285854
0.0025635
0.00221639
0.00179953
0.00128929
0.000665175
6.84296e-05
9.28862e-05
0.000898691
0.0016897
0.0023173
0.00283007
0.00326324
0.00363883
0.00397083
0.00426853
0.00453841
0.00478515
0.00501224
0.00522235
0.00541761
0.00559972
0.00577008
0.00592986
0.00608005
0.0062215
0.00635495
0.00648104
0.00660034
0.00671335
0.00682051
0.00692223
0.00701885
0.0071107
0.00719807
0.00728122
0.00736039
0.0074358
0.00750764
0.0075761
0.00764133
0.0077035
0.00776274
0.00781918
0.00787295
0.00792415
0.00797288
0.00801924
0.00806332
0.00810519
0.0081449
0.00818252
0.00821806
0.00825164
0.00828336
0.00831332
0.00834159
0.00836826
0.00839339
0.00841704
0.00843926
0.00846011
0.00847964
0.00849788
0.0085149
0.00853072
0.00854538
0.00855893
0.0085714
0.00858282
0.00859323
0.00860265
0.00861112
0.00861866
0.0086253
0.00863107
0.00863599
0.00864009
0.00864338
0.00864589
0.00864763
0.00864863
0.00864891
0.00864848
0.00864735
0.00864555
0.00864308
0.00863997
0.00863622
0.00863185
0.00862686
0.00862127
0.00861509
0.00860833
0.00860099
0.00859308
0.00858461
0.00857559
0.00856603
0.00855592
0.00854527
0.00853409
0.00852238
0.00851014
0.00849738
0.00848409
0.00847029
0.00845596
0.00844111
0.00842574
0.00840985
0.00839344
0.0083765
0.00835903
0.00834104
0.00832251
0.00830345
0.00828385
0.0082637
0.008243
0.00822175
0.00819993
0.00817755
0.0081546
0.00813107
0.00810695
0.00808224
0.00805692
0.00803099
0.00800445
0.00797728
0.00794947
0.00792101
0.0078919
0.00786213
0.00783168
0.00780054
0.00776871
0.00773618
0.00770292
0.00766894
0.00763421
0.00759873
0.00756249
0.00752547
0.00748766
0.00744906
0.00740963
0.00736938
0.00732828
0.00728633
0.00724351
0.00719981
0.0071552
0.00710968
0.00706322
0.00701581
0.00696743
0.00691807
0.00686769
0.00681629
0.00676384
0.00671031
0.00665568
0.00659993
0.00654303
0.00648494
0.00642563
0.00636506
0.00630321
0.00624002
0.00617544
0.00610944
0.00604195
0.0059729
0.00590225
0.00582989
0.00575576
0.00567976
0.00560178
0.0055217
0.00543939
0.00535468
0.00526739
0.00517732
0.00508422
0.00498779
0.00488771
0.00478355
0.00467483
0.00456099
0.00444139
0.00431522
0.00418148
0.00403889
0.00388579
0.00372005
0.00353886
0.00333853
0.00311401
0.00285854
0.0025635
0.0022164
0.00179952
0.00128929
0.000665216
6.84322e-05
0.000101757
0.00100311
0.001948
0.00272987
0.00338382
0.003944
0.00443403
0.00486991
0.00526269
0.00562023
0.00594827
0.00625112
0.00653211
0.00679389
0.00703857
0.00726792
0.0074834
0.00768624
0.00787754
0.00805822
0.0082291
0.00839091
0.00854429
0.00868984
0.00882806
0.00895943
0.00908438
0.0092033
0.00931654
0.00942442
0.00952723
0.00962526
0.00971874
0.00980791
0.00989297
0.00997412
0.0100515
0.0101254
0.0101958
0.010263
0.010327
0.010388
0.0104461
0.0105014
0.010554
0.0106039
0.0106512
0.0106962
0.0107388
0.0107792
0.0108175
0.0108538
0.0108881
0.0109205
0.0109512
0.01098
0.0110072
0.0110328
0.0110568
0.0110792
0.0111002
0.0111198
0.011138
0.0111548
0.0111704
0.0111847
0.0111977
0.0112096
0.0112203
0.0112299
0.0112384
0.0112458
0.0112522
0.0112575
0.0112619
0.0112653
0.0112678
0.0112693
0.01127
0.0112697
0.0112686
0.0112666
0.0112638
0.0112602
0.0112557
0.0112505
0.0112445
0.0112377
0.0112301
0.0112218
0.0112127
0.0112029
0.0111923
0.0111811
0.0111691
0.0111563
0.0111429
0.0111288
0.0111139
0.0110984
0.0110821
0.0110651
0.0110474
0.011029
0.0110099
0.0109901
0.0109696
0.0109484
0.0109264
0.0109037
0.0108802
0.0108561
0.0108311
0.0108055
0.010779
0.0107518
0.0107238
0.0106951
0.0106655
0.0106351
0.0106039
0.0105719
0.010539
0.0105053
0.0104707
0.0104353
0.0103989
0.0103617
0.0103235
0.0102844
0.0102443
0.0102033
0.0101613
0.0101183
0.0100743
0.0100293
0.00998322
0.00993608
0.00988787
0.00983856
0.00978813
0.00973656
0.00968384
0.00962994
0.00957484
0.00951851
0.00946094
0.00940211
0.00934197
0.00928052
0.00921772
0.00915354
0.00908795
0.00902092
0.00895242
0.00888241
0.00881084
0.00873769
0.0086629
0.00858643
0.00850823
0.00842824
0.0083464
0.00826264
0.0081769
0.0080891
0.00799915
0.00790696
0.00781241
0.00771541
0.00761582
0.00751348
0.00740826
0.00729995
0.00718835
0.00707323
0.00695431
0.00683129
0.00670379
0.00657139
0.00643359
0.0062898
0.00613933
0.00598136
0.00581492
0.00563882
0.0054516
0.00525145
0.00503608
0.0048026
0.00454731
0.00426547
0.00395093
0.00359575
0.00318969
0.00271967
0.00216859
0.00151679
0.000756876
7.5098e-05
0.000101757
0.00100313
0.00194805
0.00272994
0.00338391
0.00394409
0.00443412
0.00487001
0.0052628
0.00562033
0.00594837
0.00625121
0.00653221
0.00679398
0.00703866
0.00726801
0.00748348
0.00768632
0.00787762
0.00805829
0.00822917
0.00839097
0.00854436
0.0086899
0.00882811
0.00895948
0.00908443
0.00920335
0.00931658
0.00942446
0.00952727
0.0096253
0.00971878
0.00980794
0.009893
0.00997415
0.0100516
0.0101254
0.0101958
0.010263
0.010327
0.0103881
0.0104462
0.0105014
0.010554
0.0106039
0.0106513
0.0106962
0.0107388
0.0107792
0.0108175
0.0108538
0.0108881
0.0109205
0.0109512
0.01098
0.0110072
0.0110328
0.0110568
0.0110792
0.0111002
0.0111198
0.011138
0.0111548
0.0111704
0.0111847
0.0111977
0.0112096
0.0112203
0.0112299
0.0112384
0.0112458
0.0112522
0.0112575
0.0112619
0.0112653
0.0112678
0.0112693
0.01127
0.0112697
0.0112686
0.0112666
0.0112638
0.0112602
0.0112557
0.0112505
0.0112445
0.0112377
0.0112301
0.0112218
0.0112127
0.0112029
0.0111923
0.0111811
0.0111691
0.0111563
0.0111429
0.0111288
0.0111139
0.0110984
0.0110821
0.0110651
0.0110474
0.011029
0.0110099
0.0109901
0.0109696
0.0109483
0.0109264
0.0109037
0.0108802
0.0108561
0.0108311
0.0108055
0.010779
0.0107518
0.0107238
0.0106951
0.0106655
0.0106351
0.0106039
0.0105719
0.010539
0.0105053
0.0104707
0.0104353
0.0103989
0.0103617
0.0103235
0.0102844
0.0102443
0.0102033
0.0101613
0.0101183
0.0100743
0.0100293
0.00998321
0.00993608
0.00988786
0.00983855
0.00978812
0.00973655
0.00968383
0.00962993
0.00957483
0.0095185
0.00946093
0.0094021
0.00934196
0.00928051
0.00921771
0.00915353
0.00908794
0.00902091
0.00895241
0.0088824
0.00881083
0.00873768
0.00866289
0.00858642
0.00850822
0.00842823
0.00834639
0.00826263
0.00817689
0.00808909
0.00799914
0.00790695
0.0078124
0.0077154
0.00761581
0.00751347
0.00740825
0.00729994
0.00718834
0.00707322
0.0069543
0.00683128
0.00670378
0.00657138
0.00643358
0.00628979
0.00613932
0.00598135
0.00581491
0.00563881
0.00545159
0.00525144
0.00503607
0.00480259
0.0045473
0.00426547
0.00395092
0.00359575
0.00318969
0.00271968
0.00216859
0.00151679
0.000756881
7.50983e-05
0.000109306
0.00108651
0.0021485
0.00305221
0.00382119
0.0044873
0.00507455
0.0056
0.00607581
0.00651076
0.00691136
0.00728252
0.00762806
0.00795098
0.00825371
0.00853825
0.00880626
0.00905917
0.00929821
0.00952443
0.00973878
0.00994209
0.0101351
0.0103185
0.0104929
0.0106589
0.0108169
0.0109674
0.0111109
0.0112478
0.0113783
0.0115028
0.0116217
0.0117352
0.0118436
0.0119471
0.0120459
0.0121403
0.0122304
0.0123165
0.0123987
0.0124771
0.0125519
0.0126233
0.0126913
0.012756
0.0128177
0.0128763
0.0129322
0.0129852
0.0130357
0.0130836
0.0131291
0.0131723
0.0132133
0.013252
0.0132887
0.0133234
0.0133561
0.013387
0.013416
0.0134433
0.0134688
0.0134927
0.013515
0.0135357
0.013555
0.0135727
0.013589
0.0136039
0.0136175
0.0136297
0.0136407
0.0136503
0.0136588
0.0136661
0.0136721
0.0136771
0.0136809
0.0136836
0.0136852
0.0136858
0.0136853
0.0136838
0.0136813
0.0136778
0.0136733
0.0136678
0.0136614
0.0136541
0.0136458
0.0136365
0.0136264
0.0136154
0.0136034
0.0135906
0.0135768
0.0135622
0.0135466
0.0135302
0.0135129
0.0134947
0.0134757
0.0134557
0.0134348
0.0134131
0.0133904
0.0133669
0.0133424
0.013317
0.0132907
0.0132635
0.0132354
0.0132062
0.0131762
0.0131451
0.0131131
0.0130801
0.0130461
0.0130111
0.0129751
0.012938
0.0128998
0.0128606
0.0128203
0.0127789
0.0127364
0.0126927
0.0126479
0.0126019
0.0125547
0.0125063
0.0124567
0.0124058
0.0123536
0.0123001
0.0122453
0.0121892
0.0121317
0.0120728
0.0120124
0.0119507
0.0118874
0.0118227
0.0117564
0.0116886
0.0116192
0.0115481
0.0114754
0.011401
0.0113249
0.011247
0.0111673
0.0110857
0.0110022
0.0109167
0.0108293
0.0107398
0.0106481
0.0105543
0.0104582
0.0103597
0.0102589
0.0101555
0.0100495
0.00994081
0.00982928
0.00971479
0.0095972
0.00947635
0.00935206
0.00922415
0.00909238
0.00895652
0.00881629
0.00867136
0.00852138
0.00836591
0.00820449
0.00803654
0.00786142
0.00767834
0.00748641
0.00728456
0.0070715
0.00684571
0.0066053
0.006348
0.00607098
0.00577073
0.00544288
0.00508198
0.00468118
0.00423188
0.00372334
0.00314255
0.00247415
0.00170291
0.00083237
8.07515e-05
0.000109307
0.00108653
0.00214855
0.00305228
0.00382128
0.0044874
0.00507466
0.00560011
0.00607592
0.00651087
0.00691147
0.00728263
0.00762817
0.00795109
0.00825381
0.00853835
0.00880636
0.00905927
0.0092983
0.00952451
0.00973886
0.00994217
0.0101352
0.0103186
0.010493
0.010659
0.010817
0.0109675
0.011111
0.0112478
0.0113783
0.0115029
0.0116217
0.0117352
0.0118436
0.0119471
0.0120459
0.0121403
0.0122305
0.0123166
0.0123987
0.0124772
0.012552
0.0126233
0.0126913
0.0127561
0.0128177
0.0128764
0.0129322
0.0129852
0.0130357
0.0130836
0.0131291
0.0131723
0.0132133
0.013252
0.0132887
0.0133234
0.0133561
0.013387
0.013416
0.0134433
0.0134688
0.0134927
0.013515
0.0135357
0.013555
0.0135727
0.013589
0.0136039
0.0136175
0.0136297
0.0136407
0.0136503
0.0136588
0.0136661
0.0136721
0.0136771
0.0136809
0.0136836
0.0136852
0.0136858
0.0136853
0.0136838
0.0136813
0.0136778
0.0136733
0.0136678
0.0136614
0.0136541
0.0136458
0.0136365
0.0136264
0.0136154
0.0136034
0.0135906
0.0135768
0.0135622
0.0135466
0.0135302
0.0135129
0.0134947
0.0134756
0.0134557
0.0134348
0.0134131
0.0133904
0.0133669
0.0133424
0.013317
0.0132907
0.0132635
0.0132353
0.0132062
0.0131762
0.0131451
0.0131131
0.0130801
0.0130461
0.0130111
0.0129751
0.012938
0.0128998
0.0128606
0.0128203
0.0127789
0.0127364
0.0126927
0.0126479
0.0126019
0.0125547
0.0125063
0.0124567
0.0124058
0.0123536
0.0123001
0.0122453
0.0121892
0.0121317
0.0120728
0.0120124
0.0119507
0.0118874
0.0118227
0.0117564
0.0116886
0.0116192
0.0115481
0.0114754
0.011401
0.0113249
0.011247
0.0111672
0.0110857
0.0110022
0.0109167
0.0108293
0.0107398
0.0106481
0.0105543
0.0104582
0.0103597
0.0102589
0.0101555
0.0100495
0.0099408
0.00982927
0.00971478
0.00959719
0.00947633
0.00935205
0.00922413
0.00909237
0.00895651
0.00881628
0.00867135
0.00852136
0.0083659
0.00820448
0.00803653
0.00786141
0.00767833
0.0074864
0.00728455
0.00707149
0.0068457
0.00660529
0.00634799
0.00607097
0.00577072
0.00544288
0.00508198
0.00468118
0.00423188
0.00372334
0.00314255
0.00247415
0.00170291
0.000832367
8.07515e-05
0.000116105
0.0011579
0.00231401
0.00331565
0.00417863
0.00493275
0.00560194
0.00620383
0.00675127
0.00725371
0.00771818
0.00815005
0.00855346
0.0089317
0.00928739
0.00962271
0.00993946
0.0102392
0.0105232
0.0107926
0.0110484
0.0112916
0.011523
0.0117432
0.0119529
0.0121529
0.0123435
0.0125253
0.0126988
0.0128645
0.0130227
0.0131738
0.0133182
0.0134562
0.0135881
0.0137142
0.0138347
0.01395
0.0140601
0.0141654
0.0142661
0.0143622
0.0144541
0.0145419
0.0146256
0.0147056
0.0147819
0.0148546
0.0149239
0.01499
0.015053
0.0151129
0.01517
0.0152243
0.0152759
0.015325
0.0153716
0.0154157
0.0154576
0.0154972
0.0155347
0.01557
0.0156033
0.0156347
0.0156641
0.0156917
0.0157175
0.0157415
0.0157638
0.0157845
0.0158036
0.015821
0.015837
0.0158515
0.0158645
0.015876
0.0158862
0.015895
0.0159025
0.0159087
0.0159135
0.0159172
0.0159195
0.0159207
0.0159206
0.0159194
0.015917
0.0159134
0.0159087
0.0159029
0.0158959
0.0158879
0.0158787
0.0158685
0.0158572
0.0158448
0.0158314
0.0158169
0.0158013
0.0157846
0.015767
0.0157482
0.0157284
0.0157075
0.0156856
0.0156626
0.0156385
0.0156133
0.0155871
0.0155597
0.0155313
0.0155017
0.0154711
0.0154393
0.0154063
0.0153722
0.0153369
0.0153005
0.0152628
0.0152239
0.0151838
0.0151425
0.0150999
0.0150559
0.0150107
0.0149642
0.0149163
0.0148671
0.0148164
0.0147644
0.0147109
0.0146559
0.0145995
0.0145416
0.0144821
0.014421
0.0143584
0.0142941
0.0142282
0.0141606
0.0140913
0.0140202
0.0139473
0.0138726
0.0137961
0.0137176
0.0136373
0.0135549
0.0134705
0.0133841
0.0132955
0.0132047
0.0131118
0.0130165
0.012919
0.012819
0.0127165
0.0126115
0.0125039
0.0123935
0.0122804
0.0121644
0.0120453
0.0119232
0.0117978
0.0116691
0.0115368
0.0114009
0.0112611
0.0111172
0.010969
0.0108164
0.0106589
0.0104963
0.0103282
0.0101543
0.00997408
0.009787
0.00959248
0.00938983
0.00917823
0.00895675
0.00872428
0.00847951
0.0082209
0.00794659
0.00765437
0.00734154
0.00700484
0.00664029
0.00624303
0.00580711
0.00532527
0.00478865
0.0041866
0.00350663
0.00273531
0.00186139
0.000897105
8.57041e-05
0.000116105
0.00115792
0.00231407
0.00331573
0.00417872
0.00493286
0.00560205
0.00620395
0.00675139
0.00725383
0.00771831
0.00815018
0.00855359
0.00893181
0.0092875
0.00962282
0.00993957
0.0102393
0.0105233
0.0107927
0.0110485
0.0112917
0.0115231
0.0117433
0.011953
0.0121529
0.0123435
0.0125254
0.0126989
0.0128646
0.0130228
0.0131739
0.0133183
0.0134563
0.0135882
0.0137142
0.0138348
0.01395
0.0140601
0.0141654
0.0142661
0.0143623
0.0144541
0.0145419
0.0146257
0.0147056
0.0147819
0.0148546
0.0149239
0.01499
0.015053
0.0151129
0.01517
0.0152243
0.015276
0.015325
0.0153716
0.0154157
0.0154576
0.0154972
0.0155347
0.01557
0.0156033
0.0156347
0.0156641
0.0156917
0.0157175
0.0157415
0.0157638
0.0157845
0.0158036
0.0158211
0.015837
0.0158515
0.0158645
0.015876
0.0158862
0.015895
0.0159025
0.0159087
0.0159135
0.0159172
0.0159195
0.0159207
0.0159206
0.0159194
0.015917
0.0159134
0.0159087
0.0159029
0.0158959
0.0158879
0.0158787
0.0158685
0.0158572
0.0158448
0.0158314
0.0158169
0.0158013
0.0157846
0.0157669
0.0157482
0.0157284
0.0157075
0.0156856
0.0156626
0.0156385
0.0156133
0.0155871
0.0155597
0.0155313
0.0155017
0.0154711
0.0154393
0.0154063
0.0153722
0.0153369
0.0153005
0.0152628
0.0152239
0.0151838