/*--------------------------------*- C++ -*----------------------------------*\
  =========                 |
  \\      /  F ield         | OpenFOAM: The Open Source CFD Toolbox
   \\    /   O peration     | Website:  https://openfoam.org
    \\  /    A nd           | Version:  8
     \\/     M anipulation  |
\*---------------------------------------------------------------------------*/
FoamFile
{
    version     2.0;
    format      ascii;
    class       surfaceScalarField;
    location    "2700";
    object      phi;
}
// * * * * * * * * * * * * * * * * * * * * * * * * * * * * * * * * * * * * * //

dimensions      [1 0 -1 0 0 0 0];

internalField   nonuniform List<scalar> 
119360
(
-3.34194e-07
-1.60798e-11
3.3421e-07
-5.69318e-07
-5.04484e-12
2.3526e-07
-6.6575e-07
-3.02851e-12
9.64792e-08
-6.41228e-07
-2.26546e-12
-2.44817e-08
-5.30478e-07
-2.0126e-12
-1.10712e-07
-3.6235e-07
-1.93639e-12
-1.68091e-07
-1.57639e-07
-1.81909e-12
-2.04674e-07
6.9031e-08
-1.69808e-12
-2.26632e-07
3.07051e-07
-1.54023e-12
-2.37984e-07
5.49107e-07
-1.32918e-12
-2.42022e-07
7.90519e-07
-1.16176e-12
-2.41382e-07
1.028e-06
-1.05126e-12
-2.37454e-07
1.25926e-06
-9.75492e-13
-2.31241e-07
1.48271e-06
-9.2309e-13
-2.23429e-07
1.69724e-06
-9.05438e-13
-2.14509e-07
1.9021e-06
-9.06659e-13
-2.04841e-07
2.09681e-06
-8.84289e-13
-1.94694e-07
2.2811e-06
-8.20812e-13
-1.84271e-07
2.45485e-06
-7.38072e-13
-1.73731e-07
2.61806e-06
-6.59663e-13
-1.63198e-07
2.77084e-06
-5.82669e-13
-1.52768e-07
2.91337e-06
-4.93463e-13
-1.42517e-07
3.04589e-06
-3.93931e-13
-1.32505e-07
3.16869e-06
-3.04864e-13
-1.22779e-07
3.28207e-06
-2.45356e-13
-1.13375e-07
3.3864e-06
-2.16934e-13
-1.0432e-07
3.48205e-06
-2.07081e-13
-9.56343e-08
3.56939e-06
-2.03834e-13
-8.73301e-08
3.64881e-06
-2.06762e-13
-7.94157e-08
3.72071e-06
-2.23804e-13
-7.18945e-08
3.78548e-06
-2.5965e-13
-6.47659e-08
3.84352e-06
-3.07751e-13
-5.80262e-08
3.89519e-06
-3.5284e-13
-5.16687e-08
3.94089e-06
-3.80637e-13
-4.56849e-08
3.98096e-06
-3.87992e-13
-4.0064e-08
4.01576e-06
-3.8419e-13
-3.47941e-08
4.04563e-06
-3.83746e-13
-2.98621e-08
4.0709e-06
-3.96194e-13
-2.52542e-08
4.09187e-06
-4.20924e-13
-2.0956e-08
4.10883e-06
-4.49096e-13
-1.69525e-08
4.12207e-06
-4.71648e-13
-1.32288e-08
4.13185e-06
-4.85789e-13
-9.77021e-09
4.13843e-06
-4.9642e-13
-6.562e-09
4.14203e-06
-5.12435e-13
-3.58996e-09
4.14289e-06
-5.39663e-13
-8.39306e-10
4.1412e-06
-5.76855e-13
1.70348e-09
4.13716e-06
-6.16907e-13
4.05103e-09
4.13096e-06
-6.50366e-13
6.21638e-09
4.12277e-06
-6.70225e-13
8.21176e-09
4.11274e-06
-6.74777e-13
1.00486e-08
4.10102e-06
-6.67047e-13
1.17376e-08
4.08775e-06
-6.51948e-13
1.32888e-08
4.07306e-06
-6.32256e-13
1.47115e-08
4.05706e-06
-6.07373e-13
1.60147e-08
4.03988e-06
-5.73414e-13
1.72067e-08
4.0216e-06
-5.25563e-13
1.82954e-08
4.00233e-06
-4.61226e-13
1.9288e-08
3.98216e-06
-3.824e-13
2.01915e-08
3.96117e-06
-2.95109e-13
2.10121e-08
3.93943e-06
-2.08956e-13
2.17557e-08
3.91702e-06
-1.33696e-13
2.24279e-08
3.894e-06
-7.67558e-14
2.30338e-08
3.87044e-06
-4.16867e-14
2.3578e-08
3.84639e-06
-2.70873e-14
2.4065e-08
3.8219e-06
-2.78922e-14
2.44989e-08
3.79702e-06
-3.6774e-14
2.48836e-08
3.77181e-06
-4.69187e-14
2.52229e-08
3.7463e-06
-5.26919e-14
2.552e-08
3.72053e-06
-5.10544e-14
2.57782e-08
3.69453e-06
-4.24779e-14
2.60004e-08
3.66835e-06
-2.89749e-14
2.61895e-08
3.64201e-06
-1.42089e-14
2.6348e-08
3.61553e-06
-2.1353e-15
2.64784e-08
3.58895e-06
4.12355e-15
2.6583e-08
3.56229e-06
2.97166e-15
2.66639e-08
3.53557e-06
-6.15996e-15
2.67232e-08
3.50881e-06
-2.26052e-14
2.67628e-08
3.48203e-06
-4.41713e-14
2.67844e-08
3.45524e-06
-6.90681e-14
2.67899e-08
3.42847e-06
-9.49363e-14
2.67807e-08
3.40171e-06
-1.2018e-13
2.67586e-08
3.37499e-06
-1.44258e-13
2.67249e-08
3.34831e-06
-1.66851e-13
2.6681e-08
3.32169e-06
-1.88251e-13
2.66282e-08
3.29512e-06
-2.09331e-13
2.65677e-08
3.26862e-06
-2.30689e-13
2.65008e-08
3.2422e-06
-2.53338e-13
2.64286e-08
3.21585e-06
-2.77846e-13
2.6352e-08
3.18958e-06
-3.04255e-13
2.62721e-08
3.1634e-06
-3.32608e-13
2.61898e-08
3.1373e-06
-3.62278e-13
2.6106e-08
3.11128e-06
-3.92546e-13
2.60215e-08
3.08535e-06
-4.2248e-13
2.59372e-08
3.0595e-06
-4.50638e-13
2.58538e-08
3.03374e-06
-4.76201e-13
2.5772e-08
3.00805e-06
-4.98003e-13
2.56925e-08
2.98244e-06
-5.14546e-13
2.5616e-08
2.95691e-06
-5.25287e-13
2.55431e-08
2.93144e-06
-5.29756e-13
2.54743e-08
2.90604e-06
-5.27938e-13
2.54103e-08
2.8807e-06
-5.20055e-13
2.53516e-08
2.85541e-06
-5.06969e-13
2.52988e-08
2.83017e-06
-4.89122e-13
2.52522e-08
2.80497e-06
-4.68111e-13
2.52125e-08
2.7798e-06
-4.44713e-13
2.518e-08
2.75466e-06
-4.19997e-13
2.51553e-08
2.72954e-06
-3.95322e-13
2.51388e-08
2.70442e-06
-3.7123e-13
2.5131e-08
2.6793e-06
-3.48138e-13
2.51322e-08
2.65417e-06
-3.26294e-13
2.5143e-08
2.62902e-06
-3.05477e-13
2.51636e-08
2.60384e-06
-2.84994e-13
2.51946e-08
2.57862e-06
-2.64205e-13
2.52364e-08
2.55334e-06
-2.41695e-13
2.52892e-08
2.528e-06
-2.16909e-13
2.53536e-08
2.50258e-06
-1.88488e-13
2.54298e-08
2.47707e-06
-1.56402e-13
2.55183e-08
2.45146e-06
-1.20598e-13
2.56194e-08
2.42574e-06
-8.12124e-14
2.57334e-08
2.39989e-06
-3.9468e-14
2.58607e-08
2.3739e-06
3.66412e-15
2.60017e-08
2.34775e-06
4.67408e-14
2.61566e-08
2.32143e-06
8.83463e-14
2.63257e-08
2.29493e-06
1.26927e-13
2.65094e-08
2.26823e-06
1.6176e-13
2.67079e-08
2.24131e-06
1.92124e-13
2.69216e-08
2.21417e-06
2.17576e-13
2.71508e-08
2.18678e-06
2.39226e-13
2.73956e-08
2.15912e-06
2.58099e-13
2.76564e-08
2.13119e-06
2.75252e-13
2.79335e-08
2.10297e-06
2.91573e-13
2.8227e-08
2.07443e-06
3.07005e-13
2.85372e-08
2.04557e-06
3.20105e-13
2.88642e-08
2.01636e-06
3.28238e-13
2.92083e-08
1.98678e-06
3.27627e-13
2.95696e-08
1.95683e-06
3.14388e-13
2.99482e-08
1.92648e-06
2.8555e-13
3.03441e-08
1.89572e-06
2.39947e-13
3.07574e-08
1.86453e-06
1.78885e-13
3.1188e-08
1.83289e-06
1.07275e-13
3.16359e-08
1.80078e-06
3.22521e-14
3.21011e-08
1.76819e-06
-3.73589e-14
3.25835e-08
1.73511e-06
-9.39248e-14
3.30829e-08
1.7015e-06
-1.32894e-13
3.35991e-08
1.66737e-06
-1.54404e-13
3.41319e-08
1.63269e-06
-1.64785e-13
3.4681e-08
1.59744e-06
-1.74138e-13
3.52458e-08
1.56161e-06
-1.9279e-13
3.58259e-08
1.52519e-06
-2.27401e-13
3.64207e-08
1.48816e-06
-2.78166e-13
3.70295e-08
1.45051e-06
-3.36009e-13
3.76514e-08
1.41222e-06
-3.88134e-13
3.82856e-08
1.37329e-06
-4.20441e-13
3.89312e-08
1.33371e-06
-4.25715e-13
3.95871e-08
1.29346e-06
-4.07202e-13
4.02519e-08
1.25254e-06
-3.77504e-13
4.09244e-08
1.21094e-06
-3.53217e-13
4.1603e-08
1.16866e-06
-3.45002e-13
4.22857e-08
1.1257e-06
-3.5158e-13
4.29706e-08
1.08205e-06
-3.56826e-13
4.36556e-08
1.03772e-06
-3.40256e-13
4.43381e-08
9.9271e-07
-2.89602e-13
4.50156e-08
9.47033e-07
-2.12802e-13
4.5685e-08
9.00697e-07
-1.36752e-13
4.63428e-08
8.53719e-07
-9.30922e-14
4.69853e-08
8.06117e-07
-9.48963e-14
4.76081e-08
7.57917e-07
-1.22236e-13
4.82065e-08
7.09148e-07
-1.31173e-13
4.87751e-08
6.59846e-07
-8.29614e-14
4.9308e-08
6.10052e-07
2.31204e-14
4.97987e-08
5.59818e-07
1.4061e-13
5.02394e-08
5.09201e-07
2.09138e-13
5.06213e-08
4.5827e-07
2.0281e-13
5.09345e-08
4.07104e-07
1.60788e-13
5.11675e-08
3.55798e-07
1.58179e-13
5.13075e-08
3.04459e-07
2.35367e-13
5.134e-08
2.53212e-07
3.48638e-13
5.12476e-08
2.02201e-07
4.03122e-13
5.10104e-08
1.51595e-07
3.51164e-13
5.06047e-08
1.01589e-07
2.62623e-13
5.0003e-08
5.24148e-08
2.61347e-13
4.91704e-08
4.34183e-09
3.84082e-13
4.80691e-08
-4.22883e-08
5.18308e-13
4.66255e-08
-8.7076e-08
5.41123e-13
4.47819e-08
-1.29579e-07
4.91385e-13
4.2496e-08
-1.69291e-07
5.11258e-13
3.97047e-08
-2.05613e-07
6.09235e-13
3.63152e-08
-2.37819e-07
5.95579e-13
3.21985e-08
-2.6505e-07
3.82416e-13
2.72215e-08
-2.86273e-07
2.04448e-13
2.12133e-08
-3.00254e-07
2.91212e-13
1.39714e-08
-3.05525e-07
4.71567e-13
5.26035e-09
-3.00396e-07
5.50171e-13
-5.14124e-09
-2.83014e-07
7.79821e-13
-1.73933e-08
-2.51492e-07
1.15008e-12
-3.15339e-08
-2.04351e-07
9.94371e-13
-4.71526e-08
-1.41786e-07
4.98268e-13
-6.25795e-08
-6.87232e-08
1.09324e-12
-7.30782e-08
-5.71789e-09
3.27316e-12
-6.30288e-08
6.24389e-12
-5.7589e-09
-3.34177e-07
3.3423e-07
-5.69314e-07
2.35268e-07
-6.65744e-07
9.64833e-08
-6.41221e-07
-2.44792e-08
-5.30471e-07
-1.1071e-07
-3.62342e-07
-1.68089e-07
-1.57631e-07
-2.04672e-07
6.90388e-08
-2.2663e-07
3.07058e-07
-2.37982e-07
5.49113e-07
-2.4202e-07
7.90524e-07
-2.4138e-07
1.028e-06
-2.37453e-07
1.25927e-06
-2.31239e-07
1.48272e-06
-2.23428e-07
1.69724e-06
-2.14508e-07
1.9021e-06
-2.0484e-07
2.09681e-06
-1.94692e-07
2.2811e-06
-1.8427e-07
2.45485e-06
-1.7373e-07
2.61806e-06
-1.63197e-07
2.77084e-06
-1.52767e-07
2.91337e-06
-1.42516e-07
3.04589e-06
-1.32504e-07
3.16868e-06
-1.22778e-07
3.28207e-06
-1.13374e-07
3.3864e-06
-1.04319e-07
3.48204e-06
-9.56334e-08
3.56938e-06
-8.73293e-08
3.64881e-06
-7.94149e-08
3.72071e-06
-7.18937e-08
3.78548e-06
-6.47651e-08
3.84351e-06
-5.80253e-08
3.89519e-06
-5.16678e-08
3.94088e-06
-4.56838e-08
3.98096e-06
-4.00628e-08
4.01576e-06
-3.47929e-08
4.04563e-06
-2.98608e-08
4.0709e-06
-2.52529e-08
4.09186e-06
-2.09546e-08
4.10883e-06
-1.6951e-08
4.12207e-06
-1.32273e-08
4.13185e-06
-9.7686e-09
4.13843e-06
-6.56035e-09
4.14203e-06
-3.58827e-09
4.14288e-06
-8.37579e-10
4.1412e-06
1.70525e-09
4.13716e-06
4.05286e-09
4.13096e-06
6.21827e-09
4.12277e-06
8.21372e-09
4.11274e-06
1.00506e-08
4.10102e-06
1.17397e-08
4.08775e-06
1.32908e-08
4.07306e-06
1.47136e-08
4.05706e-06
1.60167e-08
4.03988e-06
1.72087e-08
4.0216e-06
1.82974e-08
4.00233e-06
1.92899e-08
3.98216e-06
2.01933e-08
3.96117e-06
2.10138e-08
3.93943e-06
2.17573e-08
3.91702e-06
2.24294e-08
3.894e-06
2.3035e-08
3.87044e-06
2.3579e-08
3.84638e-06
2.40659e-08
3.8219e-06
2.44997e-08
3.79702e-06
2.48843e-08
3.77181e-06
2.52235e-08
3.7463e-06
2.55205e-08
3.72053e-06
2.57786e-08
3.69453e-06
2.60008e-08
3.66835e-06
2.61899e-08
3.642e-06
2.63484e-08
3.61553e-06
2.64788e-08
3.58895e-06
2.65834e-08
3.56229e-06
2.66643e-08
3.53557e-06
2.67235e-08
3.50881e-06
2.67631e-08
3.48203e-06
2.67847e-08
3.45524e-06
2.67902e-08
3.42846e-06
2.6781e-08
3.40171e-06
2.67589e-08
3.37499e-06
2.67252e-08
3.34831e-06
2.66813e-08
3.32168e-06
2.66285e-08
3.29512e-06
2.6568e-08
3.26862e-06
2.65011e-08
3.2422e-06
2.64288e-08
3.21585e-06
2.63522e-08
3.18958e-06
2.62723e-08
3.1634e-06
2.619e-08
3.1373e-06
2.61062e-08
3.11128e-06
2.60218e-08
3.08535e-06
2.59376e-08
3.0595e-06
2.58542e-08
3.03373e-06
2.57725e-08
3.00805e-06
2.56932e-08
2.98244e-06
2.56168e-08
2.95691e-06
2.5544e-08
2.93144e-06
2.54753e-08
2.90604e-06
2.54115e-08
2.8807e-06
2.53528e-08
2.85541e-06
2.53e-08
2.83017e-06
2.52536e-08
2.80497e-06
2.52139e-08
2.7798e-06
2.51814e-08
2.75466e-06
2.51568e-08
2.72954e-06
2.51403e-08
2.70442e-06
2.51324e-08
2.6793e-06
2.51336e-08
2.65417e-06
2.51444e-08
2.62902e-06
2.5165e-08
2.60384e-06
2.5196e-08
2.57861e-06
2.52377e-08
2.55334e-06
2.52905e-08
2.528e-06
2.53548e-08
2.50258e-06
2.5431e-08
2.47707e-06
2.55195e-08
2.45146e-06
2.56206e-08
2.42574e-06
2.57346e-08
2.39989e-06
2.58618e-08
2.3739e-06
2.60027e-08
2.34775e-06
2.61575e-08
2.32143e-06
2.63266e-08
2.29493e-06
2.65102e-08
2.26823e-06
2.67087e-08
2.24131e-06
2.69223e-08
2.21417e-06
2.71513e-08
2.18678e-06
2.7396e-08
2.15912e-06
2.76567e-08
2.13119e-06
2.79336e-08
2.10297e-06
2.8227e-08
2.07443e-06
2.85371e-08
2.04556e-06
2.88641e-08
2.01636e-06
2.92081e-08
1.98678e-06
2.95693e-08
1.95683e-06
2.99478e-08
1.92648e-06
3.03436e-08
1.89572e-06
3.07568e-08
1.86453e-06
3.11874e-08
1.83289e-06
3.16354e-08
1.80078e-06
3.21006e-08
1.76819e-06
3.25829e-08
1.73511e-06
3.30824e-08
1.7015e-06
3.35987e-08
1.66737e-06
3.41315e-08
1.63269e-06
3.46806e-08
1.59744e-06
3.52456e-08
1.56161e-06
3.58258e-08
1.52519e-06
3.64206e-08
1.48816e-06
3.70294e-08
1.45051e-06
3.76514e-08
1.41222e-06
3.82857e-08
1.37329e-06
3.89314e-08
1.33371e-06
3.95873e-08
1.29346e-06
4.02523e-08
1.25254e-06
4.09249e-08
1.21094e-06
4.16034e-08
1.16866e-06
4.22862e-08
1.1257e-06
4.29712e-08
1.08205e-06
4.36561e-08
1.03772e-06
4.43387e-08
9.92711e-07
4.50162e-08
9.47033e-07
4.56856e-08
9.00698e-07
4.63435e-08
8.53719e-07
4.6986e-08
8.06118e-07
4.76087e-08
7.57918e-07
4.8207e-08
7.09149e-07
4.87756e-08
6.59846e-07
4.93085e-08
6.10053e-07
4.97992e-08
5.59819e-07
5.02398e-08
5.09202e-07
5.06216e-08
4.5827e-07
5.09346e-08
4.07105e-07
5.11676e-08
3.55799e-07
5.13076e-08
3.0446e-07
5.134e-08
2.53213e-07
5.12476e-08
2.02202e-07
5.10102e-08
1.51595e-07
5.06044e-08
1.01589e-07
5.00026e-08
5.24158e-08
4.917e-08
4.34295e-09
4.80688e-08
-4.22874e-08
4.66251e-08
-8.70753e-08
4.47813e-08
-1.29578e-07
4.24954e-08
-1.6929e-07
3.97042e-08
-2.05612e-07
3.63146e-08
-2.37819e-07
3.21975e-08
-2.6505e-07
2.72203e-08
-2.86272e-07
2.12124e-08
-3.00253e-07
1.39707e-08
-3.05524e-07
5.25928e-09
-3.00395e-07
-5.14293e-09
-2.83013e-07
-1.73954e-08
-2.51491e-07
-3.15367e-08
-2.04351e-07
-4.71561e-08
-1.41785e-07
-6.25834e-08
-6.87219e-08
-7.30847e-08
-5.71666e-09
-6.30359e-08
-5.76706e-09
-2.08775e-07
-1.49997e-12
5.43103e-07
-2.46276e-07
6.03866e-13
2.7285e-07
-2.08565e-07
4.4715e-13
5.88099e-08
-1.22759e-07
3.13533e-13
-1.10251e-07
1.45232e-09
2.35608e-13
-2.34889e-07
1.55697e-07
2.22028e-13
-3.22302e-07
3.31793e-07
2.25025e-13
-3.80737e-07
5.22826e-07
2.21291e-13
-4.17634e-07
7.23195e-07
2.22054e-13
-4.38325e-07
9.28401e-07
2.18869e-13
-4.47202e-07
1.13479e-06
2.02528e-13
-4.47749e-07
1.33959e-06
1.8269e-13
-4.42229e-07
1.54068e-06
1.64357e-13
-4.32317e-07
1.73649e-06
1.41577e-13
-4.19221e-07
1.92583e-06
1.15098e-13
-4.03836e-07
2.10784e-06
9.58839e-14
-3.86839e-07
2.28191e-06
9.03536e-14
-3.68745e-07
2.44761e-06
9.27544e-14
-3.49957e-07
2.60468e-06
9.42532e-14
-3.30791e-07
2.753e-06
9.32748e-14
-3.11497e-07
2.89251e-06
9.45689e-14
-2.92273e-07
3.02329e-06
1.00578e-13
-2.73279e-07
3.14544e-06
1.07527e-13
-2.54641e-07
3.25913e-06
1.09508e-13
-2.36461e-07
3.36458e-06
1.04849e-13
-2.18816e-07
3.46203e-06
9.70113e-14
-2.01768e-07
3.55177e-06
9.04921e-14
-1.85362e-07
3.63408e-06
8.64953e-14
-1.6963e-07
3.70926e-06
8.2502e-14
-1.54596e-07
3.77765e-06
7.55839e-14
-1.4027e-07
3.83954e-06
6.58902e-14
-1.26658e-07
3.89528e-06
5.69391e-14
-1.13757e-07
3.94518e-06
5.29839e-14
-1.01559e-07
3.98955e-06
5.58114e-14
-9.00514e-08
4.02872e-06
6.34442e-14
-7.92176e-08
4.06297e-06
7.17882e-14
-6.90381e-08
4.09261e-06
7.74885e-14
-5.94908e-08
4.11792e-06
8.00004e-14
-5.05516e-08
4.13917e-06
8.1343e-14
-4.21953e-08
4.15662e-06
8.43822e-14
-3.43957e-08
4.17053e-06
9.04433e-14
-2.7126e-08
4.18113e-06
9.86867e-14
-2.03594e-08
4.18865e-06
1.06639e-13
-1.40691e-08
4.1933e-06
1.1212e-13
-8.22887e-09
4.19529e-06
1.14462e-13
-2.81252e-09
4.1948e-06
1.14684e-13
2.20472e-09
4.19202e-06
1.14837e-13
6.84694e-09
4.18712e-06
1.16988e-13
1.11379e-08
4.18025e-06
1.21658e-13
1.51001e-08
4.17156e-06
1.28114e-13
1.87547e-08
4.16119e-06
1.34845e-13
2.2122e-08
4.14928e-06
1.4057e-13
2.52209e-08
4.13594e-06
1.45017e-13
2.80694e-08
4.12128e-06
1.48834e-13
3.06844e-08
4.10543e-06
1.53205e-13
3.30819e-08
4.08846e-06
1.59003e-13
3.52766e-08
4.07049e-06
1.66306e-13
3.72827e-08
4.05158e-06
1.74091e-13
3.91131e-08
4.03183e-06
1.80558e-13
4.07801e-08
4.01131e-06
1.8367e-13
4.22952e-08
3.99008e-06
1.82047e-13
4.3669e-08
3.96821e-06
1.74997e-13
4.49114e-08
3.94577e-06
1.63131e-13
4.60319e-08
3.92281e-06
1.47907e-13
4.70391e-08
3.89937e-06
1.31289e-13
4.7941e-08
3.87552e-06
1.1526e-13
4.87453e-08
3.85129e-06
1.01326e-13
4.94592e-08
3.82673e-06
9.02311e-14
5.00891e-08
3.80187e-06
8.20918e-14
5.06414e-08
3.77675e-06
7.63567e-14
5.11219e-08
3.75141e-06
7.2124e-14
5.15361e-08
3.72587e-06
6.84914e-14
5.18891e-08
3.70017e-06
6.46334e-14
5.21857e-08
3.67432e-06
6.01404e-14
5.24304e-08
3.64836e-06
5.49016e-14
5.26277e-08
3.62231e-06
4.91422e-14
5.27813e-08
3.59618e-06
4.31991e-14
5.28953e-08
3.56999e-06
3.76479e-14
5.29732e-08
3.54377e-06
3.28358e-14
5.30183e-08
3.51751e-06
2.9113e-14
5.30338e-08
3.49125e-06
2.64936e-14
5.30229e-08
3.46499e-06
2.48699e-14
5.29883e-08
3.43874e-06
2.41031e-14
5.29328e-08
3.41252e-06
2.38637e-14
5.28591e-08
3.38632e-06
2.38498e-14
5.27694e-08
3.36016e-06
2.38324e-14
5.26662e-08
3.33404e-06
2.36624e-14
5.25516e-08
3.30796e-06
2.32807e-14
5.24278e-08
3.28194e-06
2.27464e-14
5.22967e-08
3.25598e-06
2.21843e-14
5.21602e-08
3.23007e-06
2.1768e-14
5.20202e-08
3.20422e-06
2.17575e-14
5.18782e-08
3.17842e-06
2.23335e-14
5.17359e-08
3.15269e-06
2.37386e-14
5.15948e-08
3.12701e-06
2.61533e-14
5.14564e-08
3.10139e-06
2.9647e-14
5.13221e-08
3.07582e-06
3.4303e-14
5.1193e-08
3.0503e-06
4.00553e-14
5.10705e-08
3.02482e-06
4.67062e-14
5.09558e-08
2.99939e-06
5.40649e-14
5.08499e-08
2.974e-06
6.18295e-14
5.0754e-08
2.94864e-06
6.97086e-14
5.06691e-08
2.92331e-06
7.73656e-14
5.05963e-08
2.898e-06
8.4478e-14
5.05364e-08
2.8727e-06
9.07785e-14
5.04905e-08
2.84741e-06
9.61353e-14
5.04595e-08
2.82211e-06
1.00378e-13
5.04443e-08
2.79681e-06
1.03456e-13
5.04457e-08
2.77149e-06
1.05433e-13
5.04647e-08
2.74614e-06
1.0636e-13
5.05021e-08
2.72076e-06
1.06533e-13
5.05588e-08
2.69533e-06
1.06141e-13
5.06354e-08
2.66984e-06
1.05402e-13
5.07329e-08
2.64429e-06
1.04625e-13
5.0852e-08
2.61866e-06
1.03948e-13
5.09934e-08
2.59294e-06
1.03476e-13
5.11578e-08
2.56713e-06
1.03136e-13
5.13461e-08
2.5412e-06
1.02887e-13
5.15588e-08
2.51514e-06
1.02498e-13
5.17967e-08
2.48895e-06
1.01714e-13
5.20604e-08
2.46261e-06
1.00323e-13
5.23505e-08
2.43611e-06
9.80988e-14
5.26677e-08
2.40943e-06
9.48444e-14
5.30125e-08
2.38255e-06
9.0459e-14
5.33857e-08
2.35548e-06
8.49496e-14
5.37877e-08
2.32819e-06
7.83923e-14
5.42191e-08
2.30066e-06
7.10787e-14
5.46805e-08
2.27289e-06
6.338e-14
5.51723e-08
2.24485e-06
5.57403e-14
5.5695e-08
2.21653e-06
4.84579e-14
5.62492e-08
2.18793e-06
4.17133e-14
5.68352e-08
2.15901e-06
3.54266e-14
5.74533e-08
2.12977e-06
2.9251e-14
5.8104e-08
2.10019e-06
2.2548e-14
5.87874e-08
2.07025e-06
1.46932e-14
5.95039e-08
2.03994e-06
5.11057e-15
6.02535e-08
2.00925e-06
-6.27963e-15
6.10364e-08
1.97815e-06
-1.92033e-14
6.18526e-08
1.94663e-06
-3.2755e-14
6.27019e-08
1.91467e-06
-4.53803e-14
6.35844e-08
1.88227e-06
-5.53654e-14
6.44997e-08
1.8494e-06
-6.10379e-14
6.54474e-08
1.81606e-06
-6.14404e-14
6.64273e-08
1.78221e-06
-5.66873e-14
6.74386e-08
1.74786e-06
-4.81628e-14
6.84808e-08
1.71299e-06
-3.83478e-14
6.95529e-08
1.67758e-06
-2.98788e-14
7.06541e-08
1.64162e-06
-2.4862e-14
7.17831e-08
1.6051e-06
-2.38975e-14
7.29388e-08
1.56801e-06
-2.54796e-14
7.41195e-08
1.53034e-06
-2.67563e-14
7.53237e-08
1.49208e-06
-2.44873e-14
7.65495e-08
1.45322e-06
-1.63896e-14
7.77946e-08
1.41376e-06
-2.67839e-15
7.90567e-08
1.37368e-06
1.38709e-14
8.03332e-08
1.33299e-06
2.8956e-14
8.16211e-08
1.29168e-06
3.88439e-14
8.2917e-08
1.24975e-06
4.2695e-14
8.42173e-08
1.20721e-06
4.33473e-14
8.55179e-08
1.16406e-06
4.59355e-14
8.68144e-08
1.1203e-06
5.48173e-14
8.81017e-08
1.07595e-06
6.99718e-14
8.93743e-08
1.03101e-06
8.60909e-14
9.06261e-08
9.85509e-07
9.49657e-14
9.18501e-08
9.39461e-07
9.11424e-14
9.30389e-08
8.9289e-07
7.67164e-14
9.41841e-08
8.45826e-07
6.15966e-14
9.52762e-08
7.98301e-07
5.73916e-14
9.63048e-08
7.50355e-07
6.82024e-14
9.72581e-08
7.02035e-07
8.60076e-14
9.81231e-08
6.53393e-07
9.48686e-14
9.88848e-08
6.0449e-07
8.37871e-14
9.95268e-08
5.55396e-07
5.77316e-14
1.0003e-07
5.06191e-07
3.54786e-14
1.00373e-07
4.56967e-07
3.3154e-14
1.00532e-07
4.07829e-07
4.6449e-14
1.00479e-07
3.58894e-07
5.18266e-14
1.00181e-07
3.10299e-07
2.9754e-14
9.96034e-08
2.62199e-07
-1.05332e-14
9.87018e-08
2.14772e-07
-3.55271e-14
9.74271e-08
1.6822e-07
-2.43416e-14
9.57187e-08
1.22776e-07
3.76782e-15
9.35089e-08
7.86988e-08
1.03945e-14
9.0698e-08
3.6282e-08
-9.28424e-15
8.7193e-08
-4.13589e-09
-1.81244e-14
8.29079e-08
-4.21515e-08
1.18656e-15
7.77141e-08
-7.7313e-08
8.74305e-16
7.14698e-08
-1.09129e-07
-6.29982e-14
6.40067e-08
-1.37042e-07
-1.35336e-13
5.51262e-08
-1.60432e-07
-1.283e-13
4.45947e-08
-1.78624e-07
-8.32806e-14
3.21547e-08
-1.90914e-07
-1.11244e-13
1.75406e-08
-1.96584e-07
-1.61995e-13
5.19276e-10
-1.9498e-07
-1.26177e-13
-1.90079e-08
-1.85646e-07
-1.06373e-13
-4.08793e-08
-1.68472e-07
-1.10675e-13
-6.43398e-08
-1.43781e-07
7.28584e-15
-8.7283e-08
-1.11732e-07
-1.32006e-13
-1.05144e-07
-6.85643e-08
-3.36842e-13
-1.06225e-07
-1.06293e-12
-7.43436e-08
-2.08767e-07
5.43096e-07
-2.46274e-07
2.72847e-07
-2.08562e-07
5.88069e-08
-1.22756e-07
-1.10253e-07
1.45619e-09
-2.34891e-07
1.55701e-07
-3.22304e-07
3.31796e-07
-3.80739e-07
5.22829e-07
-4.17635e-07
7.23198e-07
-4.38326e-07
9.28402e-07
-4.47203e-07
1.13479e-06
-4.4775e-07
1.33959e-06
-4.42229e-07
1.54068e-06
-4.32318e-07
1.73649e-06
-4.19222e-07
1.92583e-06
-4.03837e-07
2.10784e-06
-3.86839e-07
2.28191e-06
-3.68745e-07
2.44761e-06
-3.49957e-07
2.60468e-06
-3.30791e-07
2.75299e-06
-3.11497e-07
2.89251e-06
-2.92273e-07
3.02329e-06
-2.73279e-07
3.14543e-06
-2.54641e-07
3.25913e-06
-2.36461e-07
3.36458e-06
-2.18816e-07
3.46203e-06
-2.01767e-07
3.55177e-06
-1.85362e-07
3.63407e-06
-1.6963e-07
3.70926e-06
-1.54596e-07
3.77764e-06
-1.4027e-07
3.83954e-06
-1.26658e-07
3.89528e-06
-1.13757e-07
3.94518e-06
-1.01559e-07
3.98955e-06
-9.00513e-08
4.02872e-06
-7.92175e-08
4.06297e-06
-6.9038e-08
4.09261e-06
-5.94907e-08
4.11791e-06
-5.05515e-08
4.13916e-06
-4.21952e-08
4.15662e-06
-3.43956e-08
4.17053e-06
-2.71259e-08
4.18113e-06
-2.03594e-08
4.18865e-06
-1.40691e-08
4.1933e-06
-8.2289e-09
4.19529e-06
-2.81257e-09
4.1948e-06
2.20464e-09
4.19202e-06
6.84685e-09
4.18712e-06
1.11378e-08
4.18024e-06
1.50999e-08
4.17156e-06
1.87545e-08
4.16119e-06
2.21218e-08
4.14927e-06
2.52207e-08
4.13593e-06
2.80692e-08
4.12128e-06
3.06842e-08
4.10543e-06
3.30816e-08
4.08846e-06
3.52763e-08
4.07049e-06
3.72824e-08
4.05158e-06
3.91128e-08
4.03183e-06
4.07798e-08
4.01131e-06
4.22949e-08
3.99008e-06
4.36687e-08
3.96821e-06
4.49112e-08
3.94577e-06
4.60316e-08
3.9228e-06
4.70388e-08
3.89937e-06
4.79408e-08
3.87552e-06
4.87451e-08
3.85129e-06
4.9459e-08
3.82672e-06
5.0089e-08
3.80187e-06
5.06413e-08
3.77675e-06
5.11218e-08
3.75141e-06
5.1536e-08
3.72587e-06
5.1889e-08
3.70017e-06
5.21856e-08
3.67432e-06
5.24304e-08
3.64836e-06
5.26276e-08
3.62231e-06
5.27813e-08
3.59618e-06
5.28953e-08
3.56999e-06
5.29731e-08
3.54376e-06
5.30182e-08
3.51751e-06
5.30338e-08
3.49125e-06
5.30228e-08
3.46499e-06
5.29882e-08
3.43874e-06
5.29327e-08
3.41252e-06
5.28589e-08
3.38632e-06
5.27692e-08
3.36016e-06
5.2666e-08
3.33404e-06
5.25514e-08
3.30796e-06
5.24276e-08
3.28194e-06
5.22965e-08
3.25598e-06
5.216e-08
3.23007e-06
5.20199e-08
3.20422e-06
5.1878e-08
3.17842e-06
5.17357e-08
3.15269e-06
5.15947e-08
3.12701e-06
5.14563e-08
3.10139e-06
5.1322e-08
3.07582e-06
5.1193e-08
3.0503e-06
5.10705e-08
3.02482e-06
5.09558e-08
2.99939e-06
5.08499e-08
2.974e-06
5.0754e-08
2.94864e-06
5.06692e-08
2.92331e-06
5.05963e-08
2.898e-06
5.05364e-08
2.8727e-06
5.04905e-08
2.84741e-06
5.04595e-08
2.82211e-06
5.04442e-08
2.79681e-06
5.04457e-08
2.77149e-06
5.04647e-08
2.74614e-06
5.0502e-08
2.72076e-06
5.05587e-08
2.69533e-06
5.06353e-08
2.66984e-06
5.07328e-08
2.64429e-06
5.08519e-08
2.61866e-06
5.09933e-08
2.59294e-06
5.11578e-08
2.56713e-06
5.13461e-08
2.5412e-06
5.15588e-08
2.51514e-06
5.17967e-08
2.48895e-06
5.20604e-08
2.46261e-06
5.23505e-08
2.43611e-06
5.26677e-08
2.40942e-06
5.30126e-08
2.38255e-06
5.33857e-08
2.35548e-06
5.37877e-08
2.32819e-06
5.42191e-08
2.30066e-06
5.46805e-08
2.27289e-06
5.51723e-08
2.24485e-06
5.5695e-08
2.21653e-06
5.62492e-08
2.18793e-06
5.68351e-08
2.15901e-06
5.74533e-08
2.12977e-06
5.81039e-08
2.10019e-06
5.87874e-08
2.07025e-06
5.95038e-08
2.03994e-06
6.02535e-08
2.00925e-06
6.10364e-08
1.97815e-06
6.18525e-08
1.94663e-06
6.27019e-08
1.91467e-06
6.35843e-08
1.88227e-06
6.44996e-08
1.8494e-06
6.54474e-08
1.81606e-06
6.64272e-08
1.78221e-06
6.74385e-08
1.74786e-06
6.84807e-08
1.71299e-06
6.95528e-08
1.67758e-06
7.0654e-08
1.64162e-06
7.1783e-08
1.6051e-06
7.29387e-08
1.56801e-06
7.41194e-08
1.53034e-06
7.53236e-08
1.49208e-06
7.65494e-08
1.45322e-06
7.77945e-08
1.41376e-06
7.90566e-08
1.37368e-06
8.03331e-08
1.33299e-06
8.16209e-08
1.29168e-06
8.29168e-08
1.24975e-06
8.42172e-08
1.20721e-06
8.55178e-08
1.16406e-06
8.68143e-08
1.1203e-06
8.81016e-08
1.07595e-06
8.93742e-08
1.03101e-06
9.06259e-08
9.85509e-07
9.185e-08
9.39461e-07
9.30388e-08
8.92891e-07
9.4184e-08
8.45826e-07
9.52761e-08
7.98301e-07
9.63047e-08
7.50356e-07
9.7258e-08
7.02035e-07
9.8123e-08
6.53393e-07
9.88847e-08
6.0449e-07
9.95267e-08
5.55396e-07
1.0003e-07
5.06192e-07
1.00373e-07
4.56968e-07
1.00532e-07
4.07829e-07
1.00479e-07
3.58894e-07
1.00181e-07
3.10299e-07
9.96034e-08
2.622e-07
9.87019e-08
2.14773e-07
9.74272e-08
1.68221e-07
9.57188e-08
1.22777e-07
9.3509e-08
7.86991e-08
9.06981e-08
3.62823e-08
8.71931e-08
-4.13552e-09
8.2908e-08
-4.21511e-08
7.77142e-08
-7.73128e-08
7.14699e-08
-1.09129e-07
6.40068e-08
-1.37042e-07
5.51264e-08
-1.60432e-07
4.45949e-08
-1.78624e-07
3.21548e-08
-1.90914e-07
1.75409e-08
-1.96584e-07
5.19721e-10
-1.9498e-07
-1.90075e-08
-1.85646e-07
-4.0879e-08
-1.68471e-07
-6.43394e-08
-1.43782e-07
-8.7283e-08
-1.11733e-07
-1.05144e-07
-6.85642e-08
-1.06225e-07
-7.4346e-08
-5.52636e-08
-9.41741e-13
5.98415e-07
-2.32074e-09
5.95662e-13
2.19958e-07
9.25874e-08
3.70654e-13
-3.60859e-08
2.08004e-07
2.52288e-13
-2.25658e-07
3.39992e-07
2.06171e-13
-3.66869e-07
4.86695e-07
1.85888e-13
-4.68998e-07
6.45849e-07
1.69707e-13
-5.39884e-07
8.14573e-07
1.61702e-13
-5.86352e-07
9.90104e-07
1.58951e-13
-6.1385e-07
1.16977e-06
1.5255e-13
-6.26859e-07
1.351e-06
1.42235e-13
-6.28975e-07
1.53165e-06
1.3174e-13
-6.22875e-07
1.70994e-06
1.20225e-13
-6.10604e-07
1.88444e-06
1.06569e-13
-5.9372e-07
2.05403e-06
9.36071e-14
-5.7342e-07
2.21783e-06
8.52596e-14
-5.50634e-07
2.37518e-06
8.20468e-14
-5.26093e-07
2.5256e-06
8.04543e-14
-5.00376e-07
2.66876e-06
7.70994e-14
-4.73944e-07
2.80444e-06
7.26897e-14
-4.47171e-07
2.93252e-06
7.03998e-14
-4.20356e-07
3.05299e-06
7.11215e-14
-3.93741e-07
3.16587e-06
7.21189e-14
-3.67522e-07
3.27127e-06
7.04189e-14
-3.41857e-07
3.36933e-06
6.61723e-14
-3.16869e-07
3.46022e-06
6.20644e-14
-2.92658e-07
3.54416e-06
6.00244e-14
-2.69297e-07
3.62137e-06
5.93929e-14
-2.46844e-07
3.69211e-06
5.78907e-14
-2.25337e-07
3.75664e-06
5.42512e-14
-2.048e-07
3.81523e-06
4.93402e-14
-1.85247e-07
3.86816e-06
4.53989e-14
-1.66679e-07
3.91569e-06
4.42002e-14
-1.49091e-07
3.95811e-06
4.58551e-14
-1.32468e-07
3.99568e-06
4.89498e-14
-1.16792e-07
4.02868e-06
5.16854e-14
-1.02038e-07
4.05737e-06
5.30212e-14
-8.81763e-08
4.082e-06
5.31478e-14
-7.51769e-08
4.10281e-06
5.31859e-14
-6.30055e-08
4.12004e-06
5.42198e-14
-5.16268e-08
4.13392e-06
5.65877e-14
-4.10044e-08
4.14467e-06
5.97431e-14
-3.11016e-08
4.15248e-06
6.25846e-14
-2.18814e-08
4.15756e-06
6.41476e-14
-1.33071e-08
4.1601e-06
6.41979e-14
-5.34291e-09
4.16026e-06
6.32195e-14
2.04618e-09
4.15821e-06
6.21196e-14
8.89395e-09
4.15412e-06
6.17831e-14
1.52334e-08
4.14813e-06
6.25307e-14
2.10962e-08
4.14037e-06
6.40954e-14
2.65124e-08
4.13099e-06
6.58753e-14
3.15106e-08
4.12009e-06
6.73654e-14
3.61179e-08
4.10781e-06
6.83333e-14
4.03599e-08
4.09423e-06
6.90619e-14
4.42609e-08
4.07948e-06
7.00194e-14
4.78437e-08
4.06363e-06
7.15963e-14
5.11296e-08
4.04677e-06
7.39139e-14
5.41388e-08
4.029e-06
7.65853e-14
5.68901e-08
4.01038e-06
7.89411e-14
5.94013e-08
3.99099e-06
8.01675e-14
6.16888e-08
3.9709e-06
7.96089e-14
6.37681e-08
3.95016e-06
7.69773e-14
6.56536e-08
3.92884e-06
7.24271e-14
6.7359e-08
3.90698e-06
6.65568e-14
6.88969e-08
3.88464e-06
6.01487e-14
7.02791e-08
3.86187e-06
5.39956e-14
7.15167e-08
3.83872e-06
4.87065e-14
7.26201e-08
3.81521e-06
4.45709e-14
7.3599e-08
3.79139e-06
4.16166e-14
7.44625e-08
3.76729e-06
3.95367e-14
7.52192e-08
3.74295e-06
3.79546e-14
7.58772e-08
3.7184e-06
3.64263e-14
7.6444e-08
3.69366e-06
3.46326e-14
7.69266e-08
3.66876e-06
3.23462e-14
7.73319e-08
3.64372e-06
2.95307e-14
7.76661e-08
3.61857e-06
2.63024e-14
7.79352e-08
3.59332e-06
2.28607e-14
7.81447e-08
3.56799e-06
1.94433e-14
7.83e-08
3.5426e-06
1.62756e-14
7.84061e-08
3.51717e-06
1.35244e-14
7.84677e-08
3.4917e-06
1.12709e-14
7.84894e-08
3.46622e-06
9.55702e-15
7.84753e-08
3.44072e-06
8.32883e-15
7.84295e-08
3.41522e-06
7.53084e-15
7.83559e-08
3.38974e-06
7.10235e-15
7.8258e-08
3.36426e-06
7.0104e-15
7.81393e-08
3.33881e-06
7.22549e-15
7.8003e-08
3.31339e-06
7.74416e-15
7.78523e-08
3.288e-06
8.62019e-15
7.769e-08
3.26264e-06
9.84316e-15
7.75191e-08
3.23732e-06
1.14651e-14
7.7342e-08
3.21204e-06
1.34878e-14
7.71614e-08
3.1868e-06
1.59181e-14
7.69796e-08
3.16159e-06
1.87249e-14
7.67989e-08
3.13643e-06
2.18561e-14
7.66215e-08
3.1113e-06
2.52492e-14
7.64493e-08
3.08621e-06
2.87932e-14
7.62844e-08
3.06116e-06
3.24014e-14
7.61286e-08
3.03613e-06
3.59316e-14
7.59837e-08
3.01113e-06
3.92813e-14
7.58513e-08
2.98615e-06
4.23119e-14
7.57332e-08
2.96119e-06
4.49538e-14
7.56309e-08
2.93625e-06
4.71257e-14
7.55459e-08
2.91131e-06
4.88032e-14
7.54796e-08
2.88636e-06
4.99724e-14
7.54336e-08
2.86142e-06
5.06593e-14
7.54092e-08
2.83646e-06
5.0923e-14
7.54077e-08
2.81147e-06
5.08258e-14
7.54304e-08
2.78646e-06
5.04823e-14
7.54787e-08
2.76141e-06
4.99862e-14
7.55538e-08
2.73632e-06
4.94588e-14
7.56569e-08
2.71117e-06
4.89853e-14
7.57892e-08
2.68595e-06
4.86487e-14
7.59518e-08
2.66066e-06
4.85117e-14
7.61459e-08
2.63528e-06
4.85828e-14
7.63726e-08
2.60981e-06
4.88066e-14
7.66329e-08
2.58423e-06
4.90615e-14
7.6928e-08
2.55853e-06
4.92472e-14
7.72587e-08
2.5327e-06
4.91986e-14
7.76261e-08
2.50673e-06
4.87423e-14
7.80311e-08
2.48061e-06
4.77761e-14
7.84748e-08
2.45432e-06
4.61576e-14
7.89579e-08
2.42785e-06
4.38539e-14
7.94814e-08
2.40119e-06
4.08268e-14
8.00461e-08
2.37433e-06
3.71804e-14
8.06529e-08
2.34725e-06
3.30413e-14
8.13024e-08
2.31993e-06
2.85918e-14
8.19956e-08
2.29237e-06
2.4137e-14
8.2733e-08
2.26455e-06
1.99459e-14
8.35153e-08
2.23646e-06
1.61902e-14
8.43432e-08
2.20808e-06
1.29792e-14
8.52171e-08
2.17939e-06
1.02332e-14
8.61377e-08
2.15039e-06
7.7369e-15
8.71051e-08
2.12106e-06
5.16951e-15
8.81199e-08
2.09138e-06
2.15629e-15
8.91822e-08
2.06134e-06
-1.59592e-15
9.02923e-08
2.03093e-06
-6.1912e-15
9.145e-08
2.00012e-06
-1.14283e-14
9.26554e-08
1.96891e-06
-1.68563e-14
9.39083e-08
1.93729e-06
-2.16736e-14
9.52083e-08
1.90523e-06
-2.49852e-14
9.6555e-08
1.87273e-06
-2.60521e-14
9.79478e-08
1.83977e-06
-2.44683e-14