/*--------------------------------*- C++ -*----------------------------------*\
  =========                 |
  \\      /  F ield         | OpenFOAM: The Open Source CFD Toolbox
   \\    /   O peration     | Website:  https://openfoam.org
    \\  /    A nd           | Version:  8
     \\/     M anipulation  |
\*---------------------------------------------------------------------------*/
FoamFile
{
    version     2.0;
    format      ascii;
    class       volScalarField;
    location    "500";
    object      alphat;
}
// * * * * * * * * * * * * * * * * * * * * * * * * * * * * * * * * * * * * * //

dimensions      [1 -1 -1 0 0 0 0];

internalField   nonuniform List<scalar> 
48000
(
7.71817e-05
0.000126912
0.000162635
0.000194493
0.000222084
0.000247031
0.000290666
0.000297865
3.77158e-05
4.70901e-05
5.05476e-05
5.25766e-05
5.43964e-05
5.61291e-05
5.77933e-05
5.93986e-05
6.09511e-05
6.24558e-05
6.39174e-05
6.53396e-05
6.67254e-05
6.80775e-05
6.93979e-05
7.06885e-05
7.1951e-05
7.31866e-05
7.43966e-05
7.55817e-05
7.67427e-05
7.78801e-05
7.89945e-05
8.00861e-05
8.11555e-05
8.22026e-05
8.32279e-05
8.42312e-05
8.52128e-05
8.61726e-05
8.71108e-05
8.80274e-05
8.89225e-05
8.97962e-05
9.06483e-05
9.1479e-05
9.22883e-05
9.30762e-05
9.38427e-05
9.45882e-05
9.53126e-05
9.6016e-05
9.66986e-05
9.73604e-05
9.80015e-05
9.8622e-05
9.92221e-05
9.9802e-05
0.000100362
0.000100902
0.000101423
0.000101924
0.000102406
0.000102868
0.000103312
0.000103737
0.000104143
0.000104531
0.000104901
0.000105253
0.000105587
0.000105903
0.000106202
0.000106484
0.000106749
0.000106996
0.000107227
0.000107442
0.00010764
0.000107821
0.000107987
0.000108136
0.00010827
0.000108387
0.00010849
0.000108576
0.000108648
0.000108704
0.000108745
0.000108771
0.000108783
0.000108779
0.000108762
0.000108732
0.000108687
0.000108628
0.000108555
0.000108467
0.000108366
0.00010825
0.000108121
0.000107978
0.000107822
0.000107653
0.000107471
0.000107275
0.000107066
0.000106845
0.000106611
0.000106364
0.000106105
0.000105833
0.000105548
0.000105252
0.000104943
0.000104621
0.000104287
0.000103941
0.000103583
0.000103212
0.000102829
0.000102434
0.000102026
0.000101606
0.000101173
0.000100728
0.00010027
9.97987e-05
9.93151e-05
9.88187e-05
9.83095e-05
9.77874e-05
9.72523e-05
9.67038e-05
9.6142e-05
9.55667e-05
9.49778e-05
9.43754e-05
9.37594e-05
9.31297e-05
9.24861e-05
9.18284e-05
9.11565e-05
9.04704e-05
8.977e-05
8.90554e-05
8.83266e-05
8.75835e-05
8.6826e-05
8.60541e-05
8.52676e-05
8.44666e-05
8.3651e-05
8.28208e-05
8.19761e-05
8.11169e-05
8.02431e-05
7.93545e-05
7.84512e-05
7.75332e-05
7.66004e-05
7.56528e-05
7.46907e-05
7.37139e-05
7.27225e-05
7.17165e-05
7.06957e-05
6.96603e-05
6.86101e-05
6.7545e-05
6.64651e-05
6.53702e-05
6.42603e-05
6.31353e-05
6.19949e-05
6.08391e-05
5.96674e-05
5.84798e-05
5.7276e-05
5.60553e-05
5.48174e-05
5.35617e-05
5.22891e-05
5.10135e-05
4.9865e-05
4.99744e-05
4.45381e-05
3.7014e-05
3.10568e-05
3.06425e-05
0.000230461
0.000217652
3.50802e-05
3.3723e-05
3.38736e-05
0.000183128
0.000176954
0.000157929
0.000134127
0.000107515
7.86289e-05
4.17192e-05
7.71767e-05
0.000126905
0.000162623
0.000194486
0.000222135
0.000247217
0.000290795
0.000297951
3.7706e-05
4.70472e-05
5.05349e-05
5.25746e-05
5.43967e-05
5.61297e-05
5.77938e-05
5.9399e-05
6.09513e-05
6.24561e-05
6.39177e-05
6.53399e-05
6.67256e-05
6.80776e-05
6.93979e-05
7.06885e-05
7.1951e-05
7.31867e-05
7.43966e-05
7.55817e-05
7.67427e-05
7.78802e-05
7.89945e-05
8.00862e-05
8.11556e-05
8.22028e-05
8.32281e-05
8.42314e-05
8.5213e-05
8.61728e-05
8.7111e-05
8.80277e-05
8.89228e-05
8.97964e-05
9.06486e-05
9.14792e-05
9.22884e-05
9.30762e-05
9.38428e-05
9.45882e-05
9.53126e-05
9.6016e-05
9.66985e-05
9.73602e-05
9.80012e-05
9.86217e-05
9.92218e-05
9.98018e-05
0.000100362
0.000100902
0.000101422
0.000101923
0.000102405
0.000102868
0.000103311
0.000103736
0.000104142
0.00010453
0.0001049
0.000105252
0.000105586
0.000105903
0.000106202
0.000106484
0.000106748
0.000106996
0.000107227
0.000107441
0.000107639
0.000107821
0.000107986
0.000108136
0.000108269
0.000108387
0.000108489
0.000108576
0.000108647
0.000108704
0.000108745
0.000108771
0.000108782
0.000108779
0.000108762
0.000108732
0.000108687
0.000108628
0.000108554
0.000108467
0.000108365
0.00010825
0.000108121
0.000107978
0.000107822
0.000107653
0.00010747
0.000107275
0.000107066
0.000106845
0.000106611
0.000106364
0.000106105
0.000105833
0.000105548
0.000105251
0.000104942
0.000104621
0.000104287
0.000103941
0.000103583
0.000103212
0.000102829
0.000102433
0.000102026
0.000101605
0.000101173
0.000100727
0.000100269
9.97984e-05
9.93149e-05
9.88186e-05
9.83095e-05
9.77873e-05
9.7252e-05
9.67035e-05
9.61417e-05
9.55664e-05
9.49777e-05
9.43754e-05
9.37594e-05
9.31297e-05
9.24859e-05
9.18281e-05
9.11561e-05
9.047e-05
8.97697e-05
8.90551e-05
8.83264e-05
8.75833e-05
8.68258e-05
8.60538e-05
8.52673e-05
8.44662e-05
8.36507e-05
8.28206e-05
8.1976e-05
8.11168e-05
8.02429e-05
7.93543e-05
7.84509e-05
7.75328e-05
7.66e-05
7.56525e-05
7.46904e-05
7.37137e-05
7.27223e-05
7.17163e-05
7.06956e-05
6.96601e-05
6.86099e-05
6.75448e-05
6.64649e-05
6.537e-05
6.42601e-05
6.31351e-05
6.19947e-05
6.08388e-05
5.96672e-05
5.84796e-05
5.72758e-05
5.60553e-05
5.48174e-05
5.35616e-05
5.22884e-05
5.10108e-05
4.98563e-05
4.99543e-05
4.45503e-05
3.707e-05
3.10722e-05
3.06441e-05
0.000230416
0.000217583
3.5342e-05
3.572e-05
0.000195482
0.000193528
0.000178483
0.000157909
0.000133978
0.00010743
7.85937e-05
4.17099e-05
8.97676e-05
0.000223721
0.000321353
0.000389727
0.00043646
0.00046499
0.00048141
0.0004903
0.000434501
0.000476115
0.000508121
0.000532575
0.000553867
0.000573483
0.000591991
0.000609621
0.000626506
0.000642737
0.000658381
0.000673494
0.000688121
0.000702302
0.000716068
0.000729449
0.000742469
0.000755149
0.000767507
0.000779558
0.000791316
0.00080279
0.000813992
0.000824928
0.000835606
0.000846032
0.00085621
0.000866144
0.000875837
0.000885294
0.000894516
0.000903507
0.000912267
0.0009208
0.000929107
0.000937189
0.000945049
0.000952687
0.000960107
0.000967309
0.000974296
0.000981069
0.00098763
0.000993981
0.00100012
0.00100606
0.00101179
0.00101732
0.00102265
0.00102778
0.00103272
0.00103746
0.00104201
0.00104637
0.00105054
0.00105453
0.00105833
0.00106196
0.0010654
0.00106867
0.00107176
0.00107467
0.00107742
0.00108
0.00108241
0.00108465
0.00108672
0.00108864
0.00109039
0.00109198
0.00109342
0.00109469
0.00109581
0.00109678
0.00109759
0.00109825
0.00109876
0.00109912
0.00109934
0.0010994
0.00109932
0.00109909
0.00109869
0.00109813
0.00109742
0.00109657
0.00109558
0.00109444
0.00109318
0.00109177
0.00109023
0.00108856
0.00108676
0.00108483
0.00108277
0.00108058
0.00107827
0.00107583
0.00107326
0.00107057
0.00106775
0.00106481
0.00106175
0.00105857
0.00105526
0.00105183
0.00104827
0.00104459
0.00104079
0.00103686
0.00103281
0.00102864
0.00102434
0.00101991
0.00101536
0.00101067
0.00100586
0.00100092
0.000995852
0.000990651
0.000985319
0.000979854
0.000974256
0.000968524
0.000962657
0.000956653
0.000950514
0.000944237
0.000937823
0.000931271
0.00092458
0.000917749
0.000910778
0.000903667
0.000896416
0.000889023
0.000881491
0.000873818
0.000866003
0.000858049
0.000849953
0.000841716
0.000833339
0.000824822
0.000816165
0.000807369
0.000798434
0.000789359
0.000780146
0.000770795
0.000761307
0.000751683
0.000741924
0.000732029
0.000722
0.000711837
0.00070154
0.000691109
0.000680545
0.000669848
0.000659016
0.000648051
0.00063695
0.000625714
0.00061434
0.000602826
0.00059117
0.000579366
0.000567408
0.000555287
0.000542987
0.000530482
0.000517702
0.000504379
0.000489083
0.000463614
0.000394829
0.000387199
0.000367104
0.00036183
0.00042344
0.000405856
0.000297877
0.000276612
0.00028051
0.000391189
0.000405529
0.000376417
0.000327652
0.000262145
0.000172381
5.64292e-05
8.97506e-05
0.000223616
0.000321024
0.000389007
0.000435365
0.000463928
0.000481071
0.000491002
0.000435091
0.000476278
0.000508132
0.000532592
0.000553897
0.000573517
0.000592026
0.000609655
0.00062654
0.00064277
0.000658413
0.000673525
0.000688152
0.000702332
0.000716097
0.000729477
0.000742497
0.000755176
0.000767534
0.000779584
0.000791341
0.000802816
0.000814017
0.000824953
0.00083563
0.000846056
0.000856233
0.000866167
0.00087586
0.000885316
0.000894538
0.000903528
0.000912288
0.000920821
0.000929127
0.000937209
0.000945068
0.000952706
0.000960125
0.000967327
0.000974313
0.000981086
0.000987647
0.000993997
0.00100014
0.00100607
0.00101181
0.00101734
0.00102266
0.0010278
0.00103273
0.00103747
0.00104202
0.00104638
0.00105055
0.00105454
0.00105835
0.00106197
0.00106541
0.00106868
0.00107177
0.00107469
0.00107743
0.00108001
0.00108242
0.00108466
0.00108674
0.00108865
0.0010904
0.00109199
0.00109343
0.0010947
0.00109582
0.00109679
0.0010976
0.00109826
0.00109877
0.00109914
0.00109935
0.00109941
0.00109933
0.0010991
0.0010987
0.00109814
0.00109743
0.00109658
0.00109559
0.00109445
0.00109319
0.00109178
0.00109024
0.00108857
0.00108677
0.00108484
0.00108278
0.00108059
0.00107828
0.00107584
0.00107327
0.00107058
0.00106776
0.00106482
0.00106176
0.00105857
0.00105527
0.00105183
0.00104828
0.0010446
0.0010408
0.00103687
0.00103282
0.00102865
0.00102434
0.00101992
0.00101536
0.00101068
0.00100587
0.00100093
0.000995859
0.000990659
0.000985326
0.000979861
0.000974263
0.00096853
0.000962663
0.00095666
0.00095052
0.000944244
0.00093783
0.000931277
0.000924586
0.000917754
0.000910783
0.000903672
0.00089642
0.000889028
0.000881496
0.000873822
0.000866008
0.000858053
0.000849957
0.000841721
0.000833344
0.000824827
0.00081617
0.000807373
0.000798437
0.000789363
0.000780149
0.000770798
0.00076131
0.000751686
0.000741927
0.000732032
0.000722003
0.00071184
0.000701543
0.000691112
0.000680548
0.000669851
0.000659019
0.000648054
0.000636953
0.000625717
0.000614343
0.000602829
0.000591173
0.000579369
0.000567411
0.00055529
0.000542991
0.000530485
0.000517708
0.000504411
0.000489258
0.000464241
0.000395006
0.000386646
0.000366804
0.000361313
0.000423154
0.000408325
0.000302674
0.000293892
0.000399527
0.000427936
0.000412929
0.000377428
0.00032763
0.000262058
0.000172333
5.64182e-05
0.000120129
0.000303231
0.000458268
0.000575371
0.000664748
0.000736287
0.00079934
0.00085939
0.000904766
0.000966714
0.00102425
0.00107536
0.00112191
0.00116519
0.00120593
0.00124456
0.00128136
0.00131653
0.00135023
0.0013826
0.00141375
0.00144377
0.00147275
0.00150077
0.00152787
0.00155414
0.0015796
0.00160432
0.00162831
0.00165163
0.0016743
0.00169634
0.00171778
0.00173863
0.00175892
0.00177866
0.00179786
0.00181654
0.00183471
0.00185237
0.00186954
0.00188622
0.00190242
0.00191814
0.00193341
0.00194821
0.00196256
0.00197646
0.00198992
0.00200295
0.00201554
0.00202771
0.00203946
0.0020508
0.00206172
0.00207225
0.00208237
0.0020921
0.00210145
0.00211041
0.00211899
0.0021272
0.00213504
0.00214251
0.00214963
0.00215639
0.0021628
0.00216887
0.00217459
0.00217998
0.00218503
0.00218975
0.00219414
0.00219821
0.00220196
0.0022054
0.00220852
0.00221133
0.00221383
0.00221603
0.00221792
0.00221952
0.00222082
0.00222182
0.00222253
0.00222295
0.00222309
0.00222293
0.00222249
0.00222176
0.00222073
0.00221941
0.00221779
0.0022159
0.00221373
0.00221129
0.00220858
0.00220561
0.00220238
0.00219889
0.00219514
0.00219114
0.00218689
0.00218239
0.00217764
0.00217264
0.00216739
0.0021619
0.00215616
0.00215018
0.00214396
0.0021375
0.00213079
0.00212383
0.00211664
0.00210919
0.00210151
0.00209357
0.00208539
0.00207696
0.00206828
0.00205935
0.00205017
0.00204073
0.00203103
0.00202108
0.00201087
0.0020004
0.00198967
0.00197867
0.00196741
0.00195588
0.00194408
0.00193202
0.00191968
0.00190707
0.0018942
0.00188104
0.00186762
0.00185392
0.00183994
0.0018257
0.00181117
0.00179637
0.00178129
0.00176594
0.00175032
0.00173442
0.00171824
0.0017018
0.00168508
0.00166809
0.00165083
0.0016333
0.00161551
0.00159745
0.00157912
0.00156053
0.00154168
0.00152256
0.00150319
0.00148356
0.00146368
0.00144353
0.00142314
0.00140248
0.00138157
0.0013604
0.00133897
0.00131728
0.00129532
0.00127308
0.00125057
0.00122776
0.00120465
0.00118121
0.00115742
0.00113323
0.00110859
0.0010834
0.00105748
0.00103054
0.00100196
0.000969408
0.000918248
0.000880402
0.000843237
0.000813604
0.000803372
0.000782346
0.000732665
0.000697755
0.000672906
0.000676243
0.000644603
0.000584083
0.000499082
0.000386918
0.000241651
8.04581e-05
0.000120129
0.000303227
0.000458229
0.00057534
0.000664971
0.000736973
0.000800597
0.000860836
0.000905428
0.00096685
0.00102427
0.0010754
0.00112197
0.00116525
0.001206
0.00124463
0.00128142
0.00131659
0.00135029
0.00138266
0.0014138
0.00144382
0.0014728
0.00150081
0.00152792
0.00155418
0.00157964
0.00160435
0.00162835
0.00165166
0.00167433
0.00169637
0.0017178
0.00173866
0.00175895
0.00177868
0.00179789
0.00181656
0.00183473
0.00185239
0.00186955
0.00188623
0.00190243
0.00191816
0.00193342
0.00194822
0.00196257
0.00197647
0.00198993
0.00200295
0.00201554
0.00202771
0.00203946
0.0020508
0.00206172
0.00207224
0.00208237
0.0020921
0.00210144
0.0021104
0.00211898
0.00212719
0.00213503
0.0021425
0.00214962
0.00215638
0.00216279
0.00216885
0.00217458
0.00217996
0.00218501
0.00218973
0.00219413
0.0021982
0.00220195
0.00220538
0.0022085
0.00221131
0.00221381
0.00221601
0.00221791
0.0022195
0.0022208
0.0022218
0.00222251
0.00222293
0.00222307
0.00222291
0.00222247
0.00222174
0.00222071
0.00221938
0.00221777
0.00221587
0.0022137
0.00221126
0.00220856
0.00220559
0.00220236
0.00219887
0.00219512
0.00219112
0.00218687
0.00218236
0.00217761
0.00217261
0.00216736
0.00216187
0.00215614
0.00215016
0.00214393
0.00213747
0.00213076
0.00212381
0.00211661
0.00210917
0.00210148
0.00209354
0.00208536
0.00207693
0.00206825
0.00205932
0.00205014
0.0020407
0.002031
0.00202105
0.00201084
0.00200037
0.00198964
0.00197864
0.00196738
0.00195585
0.00194405
0.00193198
0.00191965
0.00190704
0.00189416
0.00188101
0.00186759
0.00185389
0.00183991
0.00182566
0.00181114
0.00179634
0.00178126
0.00176591
0.00175028
0.00173438
0.00171821
0.00170176
0.00168505
0.00166806
0.0016508
0.00163327
0.00161547
0.00159741
0.00157908
0.00156049
0.00154164
0.00152253
0.00150316
0.00148353
0.00146364
0.0014435
0.0014231
0.00140245
0.00138154
0.00136037
0.00133894
0.00131724
0.00129528
0.00127305
0.00125054
0.00122773
0.00120462
0.00118118
0.00115739
0.0011332
0.00110856
0.00108336
0.00105744
0.00103049
0.00100193
0.00096948
0.000917449
0.000879719
0.000842666
0.00081296
0.000803289
0.000782843
0.000732495
0.000701603
0.000706641
0.000689484
0.000647768
0.000584455
0.000498982
0.000386831
0.000241609
8.04523e-05
0.00015006
0.000368311
0.000571396
0.000739718
0.000879272
0.000998743
0.00110517
0.00120354
0.00129365
0.0013808
0.00146205
0.00153708
0.00160681
0.00167215
0.00173379
0.00179223
0.00184784
0.0019009
0.00195167
0.00200033
0.00204706
0.002092
0.00213528
0.00217702
0.0022173
0.00225623
0.00229388
0.00233033
0.00236562
0.00239983
0.002433
0.00246517
0.00249639
0.00252669
0.0025561
0.00258464
0.00261235
0.00263925
0.00266536
0.00269069
0.00271527
0.0027391
0.00276221
0.00278461
0.00280631
0.00282732
0.00284766
0.00286734
0.00288636
0.00290474
0.00292249
0.00293962
0.00295613
0.00297204
0.00298736
0.00300209
0.00301625
0.00302984
0.00304287
0.00305535
0.00306729
0.00307869
0.00308957
0.00309993
0.00310978
0.00311912
0.00312796
0.00313631
0.00314418
0.00315157
0.00315849
0.00316493
0.00317092
0.00317645
0.00318153
0.00318616
0.00319035
0.00319411
0.00319743
0.00320032
0.00320278
0.00320482
0.00320645
0.00320766
0.00320845
0.00320884
0.00320883
0.0032084
0.00320758
0.00320636
0.00320472
0.00320268
0.00320024
0.0031974
0.00319418
0.00319058
0.00318661
0.00318226
0.00317754
0.00317245
0.00316701
0.0031612
0.00315503
0.00314851
0.00314164
0.00313442
0.00312684
0.00311892
0.00311065
0.00310203
0.00309307
0.00308376
0.0030741
0.0030641
0.00305374
0.00304304
0.00303199
0.00302058
0.00300882
0.00299671
0.00298424
0.0029714
0.00295821
0.00294466
0.00293073
0.00291644
0.00290179
0.00288675
0.00287135
0.00285556
0.0028394
0.00282286
0.00280594
0.00278863
0.00277094
0.00275287
0.0027344
0.00271555
0.00269631
0.00267669
0.00265667
0.00263626
0.00261546
0.00259427
0.0025727
0.00255073
0.00252838
0.00250564
0.00248252
0.00245901
0.00243511
0.00241084
0.00238619
0.00236117
0.00233576
0.00230999
0.00228385
0.00225733
0.00223045
0.00220321
0.00217561
0.00214764
0.00211932
0.00209063
0.00206159
0.00203218
0.00200241
0.00197227
0.00194175
0.00191086
0.00187957
0.00184789
0.00181578
0.00178323
0.0017502
0.00171667
0.00168257
0.00164783
0.00161234
0.00157597
0.00153848
0.00149957
0.00145888
0.00141598
0.00136756
0.00131896
0.0012705
0.00122379
0.00118123
0.00113802
0.00108902
0.00103891
0.000986016
0.000930407
0.000857066
0.000761266
0.000639249
0.000485667
0.000298014
0.000104181
0.000150072
0.000368347
0.000571517
0.000739848
0.000879531
0.000999156
0.00110573
0.0012041
0.00129392
0.0013809
0.00146211
0.00153715
0.00160689
0.00167224
0.00173388
0.00179232
0.00184792
0.00190099
0.00195175
0.00200041
0.00204713
0.00209207
0.00213535
0.00217708
0.00221736
0.00225629
0.00229393
0.00233037
0.00236567
0.00239987
0.00243304
0.00246521
0.00249642
0.00252672
0.00255612
0.00258467
0.00261238
0.00263927
0.00266538
0.00269071
0.00271528
0.00273911
0.00276222
0.00278462
0.00280632
0.00282733
0.00284766
0.00286734
0.00288636
0.00290474
0.00292248
0.00293961
0.00295612
0.00297203
0.00298734
0.00300208
0.00301623
0.00302982
0.00304285
0.00305533
0.00306727
0.00307867
0.00308955
0.0030999
0.00310975
0.00311909
0.00312793
0.00313628
0.00314415
0.00315154
0.00315845
0.0031649
0.00317089
0.00317642
0.00318149
0.00318613
0.00319032
0.00319407
0.00319739
0.00320028
0.00320274
0.00320478
0.0032064
0.00320761
0.00320841
0.0032088
0.00320878
0.00320836
0.00320754
0.00320631
0.00320467
0.00320263
0.00320019
0.00319736
0.00319414
0.00319053
0.00318656
0.00318221
0.00317749
0.0031724
0.00316695
0.00316115
0.00315498
0.00314846
0.00314159
0.00313436
0.00312679
0.00311887
0.0031106
0.00310198
0.00309301
0.0030837
0.00307404
0.00306404
0.00305369
0.00304298
0.00303193
0.00302052
0.00300876
0.00299665
0.00298418
0.00297135
0.00295815
0.0029446
0.00293067
0.00291638
0.00290172
0.00288669
0.00287129
0.0028555
0.00283934
0.0028228
0.00280588
0.00278857
0.00277088
0.0027528
0.00273434
0.00271549
0.00269625
0.00267662
0.0026566
0.0026362
0.0026154
0.00259421
0.00257263
0.00255067
0.00252831
0.00250557
0.00248245
0.00245894
0.00243505
0.00241078
0.00238613
0.0023611
0.0023357
0.00230992
0.00228378
0.00225727
0.00223039
0.00220315
0.00217554
0.00214758
0.00211925
0.00209057
0.00206152
0.00203211
0.00200234
0.0019722
0.00194169
0.0019108
0.00187951
0.00184782
0.00181572
0.00178316
0.00175014
0.00171661
0.0016825
0.00164776
0.00161228
0.0015759
0.00153842
0.00149951
0.00145882
0.00141597
0.00136722
0.00131854
0.00127004
0.00122327
0.00118089
0.00113777
0.00108807
0.00103811
0.000990669
0.000932661
0.000857521
0.00076119
0.000639145
0.00048562
0.000297991
0.000104181
0.000175629
0.00041585
0.00065556
0.00087023
0.00105516
0.00121617
0.00135945
0.00148959
0.00160906
0.00172012
0.0018234
0.00191965
0.00200977
0.00209458
0.00217478
0.00225091
0.00232339
0.00239258
0.00245878
0.00252222
0.00258312
0.00264167
0.00269801
0.0027523
0.00280465
0.00285519
0.00290401
0.00295121
0.00299686
0.00304104
0.00308382
0.00312525
0.00316538
0.00320428
0.00324197
0.00327851
0.00331392
0.00334824
0.00338151
0.00341373
0.00344496
0.0034752
0.00350448
0.00353281
0.00356023
0.00358675
0.00361239
0.00363716
0.00366108
0.00368416
0.00370643
0.00372789
0.00374856
0.00376846
0.00378759
0.00380598
0.00382363
0.00384056
0.00385677
0.00387229
0.00388711
0.00390126
0.00391474
0.00392757
0.00393975
0.00395129
0.00396221
0.00397251
0.0039822
0.00399129
0.00399978
0.00400769
0.00401502
0.00402178
0.00402798
0.00403362
0.00403871
0.00404325
0.00404725
0.00405071
0.00405365
0.00405606
0.00405794
0.00405931
0.00406017
0.00406052
0.00406036
0.0040597
0.00405855
0.00405689
0.00405473
0.00405207
0.00404892
0.00404529
0.00404117
0.00403658
0.00403153
0.004026
0.00402002
0.00401358
0.00400669
0.00399934
0.00399155
0.00398332
0.00397464
0.00396553
0.00395597
0.00394598
0.00393555
0.00392469
0.00391339
0.00390165
0.00388948
0.00387688
0.00386383
0.00385035
0.00383643
0.00382206
0.00380725
0.00379199
0.00377629
0.00376013
0.00374352
0.00372645
0.00370892
0.00369093
0.00367248
0.00365355
0.00363416
0.0036143
0.00359396
0.00357314
0.00355185
0.00353008
0.00350782
0.00348508
0.00346186
0.00343815
0.00341396
0.00338928
0.00336411
0.00333846
0.00331232
0.00328569
0.00325858
0.00323099
0.00320291
0.00317435
0.00314531
0.00311579
0.0030858
0.00305534
0.00302441
0.00299301
0.00296114
0.00292881
0.00289603
0.00286279
0.00282909
0.00279495
0.00276035
0.00272531
0.00268981
0.00265387
0.00261748
0.00258063
0.00254332
0.00250555
0.0024673
0.00242856
0.00238932
0.00234955
0.00230922
0.00226831
0.00222676
0.00218453
0.00214153
0.00209766
0.0020528
0.00200678
0.00195939
0.00191037
0.00185945
0.00180649
0.00175092
0.0016935
0.00163473
0.00157494
0.00151432
0.00145174
0.00138541
0.00131419
0.00123558
0.0011464
0.00104048
0.000912379
0.000756612
0.000567895
0.000346778
0.000127411
0.00017567
0.000415751
0.000655739
0.000870308
0.00105528
0.00121635
0.00135966
0.0014898
0.00160921
0.00172022
0.0018235
0.00191975
0.00200987
0.00209469
0.00217489
0.00225101
0.00232349
0.00239268
0.00245888
0.00252232
0.00258321
0.00264175
0.00269809
0.00275238
0.00280473
0.00285526
0.00290408
0.00295127
0.00299692
0.0030411
0.00308387
0.00312529
0.00316543
0.00320432
0.00324201
0.00327855
0.00331396
0.00334827
0.00338153
0.00341376
0.00344498
0.00347521
0.00350449
0.00353283
0.00356024
0.00358676
0.00361239
0.00363716
0.00366108
0.00368416
0.00370642
0.00372788
0.00374855
0.00376845
0.00378758
0.00380597
0.00382361
0.00384054
0.00385675
0.00387226
0.00388709
0.00390124
0.00391472
0.00392754
0.00393972
0.00395126
0.00396218
0.00397247
0.00398216
0.00399125
0.00399974
0.00400765
0.00401498
0.00402174
0.00402794
0.00403358
0.00403866
0.0040432
0.0040472
0.00405067
0.0040536
0.00405601
0.00405789
0.00405926
0.00406012
0.00406047
0.00406031
0.00405965
0.00405849
0.00405683
0.00405467
0.00405202
0.00404887
0.00404523
0.00404112
0.00403653
0.00403147
0.00402594
0.00401996
0.00401352
0.00400662
0.00399928
0.00399149
0.00398326
0.00397458
0.00396546
0.00395591
0.00394591
0.00393549
0.00392462
0.00391332
0.00390159
0.00388942
0.00387681
0.00386377
0.00385028
0.00383636
0.00382199
0.00380718
0.00379192
0.00377622
0.00376006
0.00374345
0.00372638
0.00370885
0.00369086
0.0036724
0.00365348
0.00363409
0.00361422
0.00359388
0.00357307
0.00355177
0.00353
0.00350774
0.00348501
0.00346178
0.00343808
0.00341388
0.0033892
0.00336403
0.00333838
0.00331224
0.00328561
0.0032585
0.00323091
0.00320283
0.00317427
0.00314523
0.00311571
0.00308572
0.00305526
0.00302433
0.00299292
0.00296106
0.00292873
0.00289595
0.00286271
0.00282901
0.00279487
0.00276027
0.00272523
0.00268973
0.00265379
0.0026174
0.00258055
0.00254324
0.00250547
0.00246722
0.00242848
0.00238924
0.00234947
0.00230914
0.00226823
0.00222669
0.00218445
0.00214145
0.00209759
0.00205273
0.00200671
0.00195932
0.00191031
0.00185939
0.00180646
0.00175083
0.00169337
0.00163456
0.00157473
0.00151413
0.00145155
0.00138498
0.00131359
0.00123577
0.00114648
0.00104039
0.000912295
0.000756597
0.000567927
0.000346791
0.000127416
0.000191659
0.000434866
0.000702965
0.0009639
0.00119213
0.00139045
0.00156579
0.00172355
0.00186742
0.00200004
0.00212315
0.00223812
0.00234605
0.00244787
0.00254432
0.00263599
0.00272338
0.00280688
0.00288683
0.0029635
0.00303713
0.00310793
0.00317608
0.00324175
0.00330508
0.00336619
0.00342521
0.00348224
0.00353736
0.00359068
0.00364226
0.00369217
0.00374048
0.00378726
0.00383254
0.00387639
0.00391884
0.00395995
0.00399974
0.00403825
0.00407552
0.00411158
0.00414646
0.00418018
0.00421277
0.00424426
0.00427467
0.00430403
0.00433235
0.00435966
0.00438597
0.00441131
0.0044357
0.00445915
0.00448168
0.00450332
0.00452407
0.00454395
0.00456299
0.00458118
0.00459856
0.00461513
0.00463091
0.00464591
0.00466014
0.00467362
0.00468635
0.00469836
0.00470964
0.00472022
0.0047301
0.00473929
0.0047478
0.00475564
0.00476281
0.00476933
0.0047752
0.00478044
0.00478504
0.00478901
0.00479236
0.00479509
0.00479722
0.00479874
0.00479966
0.00479998
0.00479971
0.00479886
0.00479743
0.00479541
0.00479281
0.00478964
0.00478589
0.00478158
0.00477671
0.00477128
0.00476531
0.00475879
0.00475174
0.00474415
0.00473603
0.00472738
0.0047182
0.00470851
0.0046983
0.00468757
0.00467632
0.00466456
0.00465229
0.00463951
0.00462621
0.00461241
0.00459809
0.00458326
0.00456791
0.00455205
0.00453567
0.00451876
0.00450134
0.00448339
0.00446491
0.0044459
0.00442636
0.00440628
0.00438567
0.0043645
0.0043428
0.00432054
0.00429774
0.00427437
0.00425046
0.00422598
0.00420094
0.00417534
0.00414918
0.00412245
0.00409515
0.00406729
0.00403885
0.00400985
0.00398028
0.00395013
0.00391942
0.00388814
0.0038563
0.00382389
0.00379092
0.00375738
0.00372329
0.00368864
0.00365344
0.00361768
0.00358138
0.00354454
0.00350716
0.00346924
0.00343078
0.0033918
0.00335228
0.00331224
0.00327167
0.00323058
0.00318897
0.00314683
0.00310415
0.00306094
0.00301719
0.00297287
0.00292799
0.00288252
0.00283644
0.00278971
0.00274231
0.00269418
0.00264527
0.0025955
0.00254478
0.002493
0.00244001
0.00238565
0.00232971
0.00227197
0.00221222
0.00215028
0.00208598
0.00201931
0.00195026
0.00187861
0.0018039
0.00172519
0.00164105
0.00154957
0.00144803
0.00133287
0.00119941
0.00104243
0.000856452
0.000637321
0.000388948
0.00014945
0.000191799
0.000434144
0.000702971
0.000963752
0.00119208
0.00139051
0.0015659
0.00172368
0.00186755
0.00200016
0.00212327
0.00223824
0.00234618
0.002448
0.00254444
0.00263612
0.0027235
0.002807
0.00288694
0.00296361
0.00303723
0.00310803
0.00317618
0.00324185
0.00330517
0.00336628
0.0034253
0.00348232
0.00353744
0.00359075
0.00364232
0.00369223
0.00374054
0.00378731
0.0038326
0.00387644
0.00391889
0.00395999
0.00399978
0.00403829
0.00407555
0.00411161
0.00414648
0.0041802
0.00421279
0.00424428
0.00427469
0.00430404
0.00433236
0.00435966
0.00438598
0.00441131
0.0044357
0.00445915
0.00448168
0.00450331
0.00452406
0.00454394
0.00456297
0.00458117
0.00459854
0.00461511
0.00463089
0.00464588
0.00466011
0.00467359
0.00468633
0.00469833
0.00470961
0.00472019
0.00473007
0.00473926
0.00474776
0.0047556
0.00476277
0.00476929
0.00477516
0.0047804
0.00478499
0.00478896
0.00479231
0.00479505
0.00479717
0.00479869
0.00479961
0.00479993
0.00479966
0.00479881
0.00479737
0.00479536
0.00479276
0.00478958
0.00478583
0.00478152
0.00477665
0.00477123
0.00476525
0.00475873
0.00475168
0.00474409
0.00473596
0.00472731
0.00471814
0.00470845
0.00469823
0.0046875
0.00467626
0.0046645
0.00465223
0.00463944
0.00462615
0.00461234
0.00459802
0.00458319
0.00456784
0.00455198
0.00453559
0.00451869
0.00450127
0.00448332
0.00446484
0.00444583
0.00442629
0.00440621
0.00438559
0.00436443
0.00434272
0.00432047
0.00429766
0.0042743
0.00425038
0.0042259
0.00420087
0.00417527
0.0041491
0.00412237
0.00409507
0.00406721
0.00403877
0.00400977
0.00398019
0.00395005
0.00391934
0.00388806
0.00385622
0.00382381
0.00379083
0.0037573
0.0037232
0.00368855
0.00365335
0.0036176
0.0035813
0.00354446
0.00350707
0.00346915
0.0034307
0.00339171
0.0033522
0.00331215
0.00327159
0.0032305
0.00318888
0.00314674
0.00310407
0.00306086
0.0030171
0.00297279
0.00292791
0.00288244
0.00283636
0.00278963
0.00274223
0.0026941
0.00264519
0.00259542
0.0025447
0.00249292
0.00243994
0.00238558
0.00232964
0.00227191
0.00221216
0.00215024
0.00208593
0.00201926
0.00195019
0.00187853
0.00180382
0.00172511
0.00164091
0.00154936
0.00144791
0.00133279
0.00119937
0.00104247
0.000856616
0.000637566
0.000389085
0.000149456
0.00019393
0.000410671
0.000722459
0.00103098
0.0013003
0.00153238
0.001736
0.00191801
0.00208321
0.00223494
0.00237562
0.00250703
0.00263052
0.00274716
0.0028578
0.00296309
0.00306357
0.00315969
0.0032518
0.00334021
0.0034252
0.00350697
0.00358572
0.00366164
0.00373488
0.00380557
0.00387384
0.00393981
0.00400356
0.00406521
0.00412484
0.00418251
0.00423831
0.0042923
0.00434454
0.00439509
0.004444
0.00449131
0.00453709
0.00458135
0.00462416
0.00466554
0.00470553
0.00474417
0.00478148
0.0048175
0.00485226
0.00488579
0.00491811
0.00494924
0.00497923
0.00500808
0.00503582
0.00506249
0.00508809
0.00511265
0.00513619
0.00515873
0.0051803
0.0052009
0.00522057
0.0052393
0.00525714
0.00527408
0.00529014
0.00530535
0.00531971
0.00533324
0.00534595
0.00535785
0.00536896
0.00537929
0.00538885
0.00539765
0.0054057
0.00541301
0.00541959
0.00542544
0.00543058
0.00543501
0.00543874
0.00544177
0.00544412
0.00544578
0.00544678
0.0054471
0.00544675
0.00544575
0.00544409
0.00544178
0.00543881
0.0054352
0.00543096
0.00542607
0.00542056
0.00541443
0.00540768
0.00540032
0.00539235
0.00538378
0.00537461
0.00536484
0.00535449
0.00534354
0.00533201
0.0053199
0.00530721
0.00529393
0.00528008
0.00526564
0.00525063
0.00523505
0.00521888
0.00520213
0.0051848
0.00516688
0.00514839
0.0051293
0.00510962
0.00508935
0.00506849
0.00504702
0.00502495
0.00500228
0.004979
0.0049551
0.00493059
0.00490547
0.00487972
0.00485334
0.00482634
0.00479871
0.00477045
0.00474156
0.00471203
0.00468186
0.00465105
0.00461961
0.00458752
0.0045548
0.00452144
0.00448743
0.00445279
0.00441751
0.0043816
0.00434505
0.00430787
0.00427006
0.00423163
0.00419257
0.00415289
0.0041126
0.00407169
0.00403018
0.00398806
0.00394533
0.00390202
0.0038581
0.00381359
0.0037685
0.00372281
0.00367653
0.00362966
0.00358219
0.00353412
0.00348544
0.00343614
0.0033862
0.00333561
0.00328433
0.00323234
0.0031796
0.00312606
0.00307167
0.00301636
0.00296003
0.00290259
0.0028439
0.00278382
0.00272217
0.00265875
0.00259333
0.0025257
0.00245562
0.00238287
0.0023072
0.00222828
0.00214557
0.00205832
0.00196539
0.00186518
0.00175557
0.00163371
0.00149598
0.00133789
0.00115419
0.000939313
0.000690334
0.000417989
0.000168303
0.000194064
0.000410054
0.000723128
0.00103105
0.00130022
0.00153239
0.00173607
0.00191812
0.00208333
0.00223507
0.00237575
0.00250716
0.00263065
0.0027473
0.00285793
0.00296322
0.0030637
0.00315981
0.00325192
0.00334034