/*--------------------------------*- C++ -*----------------------------------*\
  =========                 |
  \\      /  F ield         | OpenFOAM: The Open Source CFD Toolbox
   \\    /   O peration     | Website:  https://openfoam.org
    \\  /    A nd           | Version:  8
     \\/     M anipulation  |
\*---------------------------------------------------------------------------*/
FoamFile
{
    version     2.0;
    format      ascii;
    class       volScalarField;
    location    "500";
    object      nut;
}
// * * * * * * * * * * * * * * * * * * * * * * * * * * * * * * * * * * * * * //

dimensions      [0 2 -1 0 0 0 0];

internalField   nonuniform List<scalar> 
48000
(
7.67559e-05
0.000126212
0.000161738
0.00019342
0.000220858
0.000245668
0.000289062
0.000296222
3.75077e-05
4.68303e-05
5.02687e-05
5.22866e-05
5.40963e-05
5.58194e-05
5.74744e-05
5.90709e-05
6.06148e-05
6.21112e-05
6.35648e-05
6.49791e-05
6.63573e-05
6.77018e-05
6.90149e-05
7.02984e-05
7.15539e-05
7.27828e-05
7.3986e-05
7.51646e-05
7.63192e-05
7.74504e-05
7.85586e-05
7.96442e-05
8.07076e-05
8.1749e-05
8.27686e-05
8.37664e-05
8.47425e-05
8.56971e-05
8.66301e-05
8.75416e-05
8.84318e-05
8.93006e-05
9.01481e-05
9.09742e-05
9.1779e-05
9.25625e-05
9.33248e-05
9.40661e-05
9.47865e-05
9.54861e-05
9.61649e-05
9.68231e-05
9.74606e-05
9.80777e-05
9.86745e-05
9.92512e-05
9.98081e-05
0.000100345
0.000100863
0.000101361
0.00010184
0.0001023
0.000102742
0.000103164
0.000103568
0.000103954
0.000104322
0.000104672
0.000105004
0.000105319
0.000105616
0.000105896
0.000106159
0.000106406
0.000106635
0.000106849
0.000107045
0.000107226
0.000107391
0.000107539
0.000107672
0.000107789
0.000107891
0.000107977
0.000108048
0.000108104
0.000108145
0.000108171
0.000108182
0.000108179
0.000108162
0.000108132
0.000108087
0.000108028
0.000107955
0.000107868
0.000107767
0.000107653
0.000107524
0.000107383
0.000107227
0.000107059
0.000106877
0.000106683
0.000106476
0.000106255
0.000106023
0.000105777
0.000105519
0.000105249
0.000104966
0.000104671
0.000104363
0.000104044
0.000103712
0.000103368
0.000103011
0.000102642
0.000102261
0.000101868
0.000101463
0.000101045
0.000100615
0.000100172
9.97162e-05
9.9248e-05
9.8767e-05
9.82734e-05
9.7767e-05
9.72478e-05
9.67155e-05
9.61701e-05
9.56114e-05
9.50392e-05
9.44536e-05
9.38546e-05
9.3242e-05
9.26157e-05
9.19757e-05
9.13216e-05
9.06535e-05
8.99711e-05
8.92746e-05
8.85639e-05
8.78391e-05
8.71001e-05
8.63469e-05
8.55792e-05
8.47971e-05
8.40004e-05
8.31893e-05
8.23637e-05
8.15237e-05
8.06692e-05
7.98002e-05
7.89166e-05
7.80183e-05
7.71053e-05
7.61776e-05
7.52353e-05
7.42785e-05
7.33071e-05
7.23212e-05
7.13207e-05
7.03056e-05
6.92759e-05
6.82314e-05
6.71723e-05
6.60983e-05
6.50095e-05
6.39057e-05
6.27869e-05
6.16528e-05
6.05033e-05
5.93381e-05
5.81571e-05
5.69599e-05
5.5746e-05
5.45149e-05
5.32661e-05
5.20005e-05
5.0732e-05
4.95898e-05
4.96985e-05
4.42923e-05
3.68097e-05
3.08854e-05
3.04734e-05
0.00022919
0.000216451
3.48866e-05
3.35369e-05
3.36866e-05
0.000182117
0.000175978
0.000157057
0.000133386
0.000106922
7.8195e-05
4.14889e-05
7.67509e-05
0.000126205
0.000161726
0.000193413
0.000220909
0.000245853
0.000289191
0.000296307
3.7498e-05
4.67877e-05
5.02561e-05
5.22845e-05
5.40966e-05
5.582e-05
5.7475e-05
5.90713e-05
6.06151e-05
6.21115e-05
6.3565e-05
6.49793e-05
6.63574e-05
6.77019e-05
6.9015e-05
7.02985e-05
7.1554e-05
7.27828e-05
7.39861e-05
7.51647e-05
7.63192e-05
7.74504e-05
7.85586e-05
7.96443e-05
8.07077e-05
8.17492e-05
8.27688e-05
8.37666e-05
8.47427e-05
8.56973e-05
8.66303e-05
8.75419e-05
8.84321e-05
8.93009e-05
9.01483e-05
9.09743e-05
9.17791e-05
9.25625e-05
9.33249e-05
9.40662e-05
9.47866e-05
9.54861e-05
9.61648e-05
9.68229e-05
9.74604e-05
9.80774e-05
9.86742e-05
9.9251e-05
9.98079e-05
0.000100345
0.000100863
0.000101361
0.00010184
0.0001023
0.000102741
0.000103164
0.000103568
0.000103954
0.000104321
0.000104671
0.000105004
0.000105318
0.000105616
0.000105896
0.000106159
0.000106405
0.000106635
0.000106848
0.000107045
0.000107226
0.00010739
0.000107539
0.000107672
0.000107789
0.000107891
0.000107977
0.000108048
0.000108104
0.000108145
0.000108171
0.000108182
0.000108179
0.000108162
0.000108132
0.000108087
0.000108028
0.000107955
0.000107868
0.000107767
0.000107652
0.000107524
0.000107382
0.000107227
0.000107059
0.000106877
0.000106683
0.000106475
0.000106255
0.000106022
0.000105777
0.000105519
0.000105248
0.000104966
0.000104671
0.000104363
0.000104043
0.000103712
0.000103367
0.000103011
0.000102642
0.000102261
0.000101868
0.000101463
0.000101045
0.000100614
0.000100171
9.97158e-05
9.92476e-05
9.87668e-05
9.82733e-05
9.77669e-05
9.72476e-05
9.67153e-05
9.61698e-05
9.56111e-05
9.5039e-05
9.44535e-05
9.38546e-05
9.3242e-05
9.26157e-05
9.19755e-05
9.13213e-05
9.06531e-05
8.99707e-05
8.92742e-05
8.85637e-05
8.78389e-05
8.70999e-05
8.63466e-05
8.55789e-05
8.47967e-05
8.40001e-05
8.3189e-05
8.23635e-05
8.15236e-05
8.06691e-05
7.98001e-05
7.89164e-05
7.8018e-05
7.71049e-05
7.61773e-05
7.5235e-05
7.42782e-05
7.33069e-05
7.2321e-05
7.13205e-05
7.03054e-05
6.92757e-05
6.82312e-05
6.71721e-05
6.60981e-05
6.50093e-05
6.39055e-05
6.27866e-05
6.16526e-05
6.0503e-05
5.93379e-05
5.81569e-05
5.69597e-05
5.57459e-05
5.45148e-05
5.3266e-05
5.19998e-05
5.07293e-05
4.95811e-05
4.96786e-05
4.43045e-05
3.68655e-05
3.09007e-05
3.0475e-05
0.000229144
0.000216382
3.51469e-05
3.55228e-05
0.000194403
0.00019246
0.000177498
0.000157038
0.000133239
0.000106838
7.81599e-05
4.14797e-05
8.92723e-05
0.000222487
0.00031958
0.000387577
0.000434052
0.000462425
0.000478754
0.000487595
0.000432104
0.000473488
0.000505318
0.000529637
0.000550811
0.000570319
0.000588725
0.000606258
0.00062305
0.000639191
0.000654748
0.000669778
0.000684324
0.000698426
0.000712117
0.000725424
0.000738372
0.000750982
0.000763271
0.000775256
0.000786949
0.00079836
0.0008095
0.000820376
0.000830995
0.000841363
0.000851484
0.000861364
0.000871004
0.000880408
0.00088958
0.00089852
0.000907232
0.000915718
0.000923979
0.000932017
0.000939833
0.000947429
0.000954808
0.00096197
0.000968919
0.000975654
0.000982179
0.000988495
0.000994603
0.00100051
0.00100621
0.00101171
0.00101701
0.00102211
0.00102702
0.00103173
0.00103626
0.00104059
0.00104474
0.00104871
0.00105249
0.00105609
0.00105952
0.00106277
0.00106584
0.00106874
0.00107147
0.00107404
0.00107643
0.00107866
0.00108073
0.00108263
0.00108437
0.00108596
0.00108738
0.00108865
0.00108977
0.00109073
0.00109154
0.00109219
0.0010927
0.00109306
0.00109327
0.00109333
0.00109325
0.00109302
0.00109263
0.00109207
0.00109137
0.00109052
0.00108953
0.0010884
0.00108714
0.00108575
0.00108422
0.00108256
0.00108077
0.00107884
0.0010768
0.00107462
0.00107232
0.00106989
0.00106734
0.00106466
0.00106186
0.00105894
0.00105589
0.00105272
0.00104943
0.00104602
0.00104249
0.00103883
0.00103505
0.00103114
0.00102711
0.00102296
0.00101868
0.00101428
0.00100975
0.0010051
0.00100031
0.000995398
0.000990356
0.000985184
0.000979881
0.000974447
0.00096888
0.000963179
0.000957344
0.000951374
0.000945268
0.000939026
0.000932647
0.000926131
0.000919477
0.000912684
0.000905752
0.00089868
0.000891468
0.000884117
0.000876626
0.000868995
0.000861224
0.000853313
0.000845262
0.000837071
0.00082874
0.00082027
0.000811661
0.000802913
0.000794027
0.000785003
0.000775841
0.000766541
0.000757106
0.000747535
0.000737829
0.000727989
0.000718015
0.000707908
0.000697668
0.000687295
0.000676789
0.000666151
0.000655379
0.000644474
0.000633435
0.000622261
0.00061095
0.000599499
0.000587907
0.000576168
0.000564276
0.000552222
0.000539991
0.000527554
0.000514845
0.000501596
0.000486384
0.000461056
0.00039265
0.000385062
0.000365078
0.000359833
0.000421103
0.000403616
0.000296233
0.000275086
0.000278962
0.00038903
0.000403291
0.00037434
0.000325843
0.000260698
0.000171429
5.61178e-05
8.92555e-05
0.000222382
0.000319253
0.000386861
0.000432963
0.000461369
0.000478417
0.000488293
0.000432691
0.000473651
0.000505329
0.000529653
0.000550841
0.000570353
0.000588759
0.000606292
0.000623083
0.000639223
0.00065478
0.000669809
0.000684355
0.000698456
0.000712146
0.000725452
0.0007384
0.000751009
0.000763298
0.000775282
0.000786974
0.000798385
0.000809525
0.0008204
0.000831019
0.000841387
0.000851508
0.000861386
0.000871026
0.00088043
0.000889601
0.000898542
0.000907254
0.000915739
0.000923999
0.000932036
0.000939852
0.000947448
0.000954826
0.000961988
0.000968936
0.000975672
0.000982196
0.000988511
0.000994619
0.00100052
0.00100622
0.00101172
0.00101702
0.00102212
0.00102703
0.00103175
0.00103627
0.00104061
0.00104476
0.00104872
0.0010525
0.00105611
0.00105953
0.00106278
0.00106585
0.00106876
0.00107149
0.00107405
0.00107644
0.00107867
0.00108074
0.00108264
0.00108438
0.00108597
0.00108739
0.00108866
0.00108978
0.00109074
0.00109155
0.0010922
0.00109271
0.00109307
0.00109328
0.00109334
0.00109326
0.00109303
0.00109264
0.00109208
0.00109138
0.00109053
0.00108954
0.00108841
0.00108715
0.00108576
0.00108423
0.00108257
0.00108077
0.00107885
0.0010768
0.00107463
0.00107233
0.0010699
0.00106735
0.00106467
0.00106187
0.00105895
0.0010559
0.00105273
0.00104944
0.00104603
0.00104249
0.00103884
0.00103505
0.00103115
0.00102712
0.00102297
0.00101869
0.00101429
0.00100976
0.0010051
0.00100032
0.000995405
0.000990363
0.000985191
0.000979888
0.000974454
0.000968886
0.000963185
0.00095735
0.00095138
0.000945275
0.000939033
0.000932654
0.000926138
0.000919483
0.000912689
0.000905757
0.000898685
0.000891473
0.000884122
0.000876631
0.000869
0.000861229
0.000853317
0.000845266
0.000837075
0.000828745
0.000820275
0.000811665
0.000802917
0.000794031
0.000785006
0.000775844
0.000766544
0.000757109
0.000747538
0.000737832
0.000727992
0.000718018
0.000707911
0.000697671
0.000687298
0.000676792
0.000666154
0.000655382
0.000644477
0.000633438
0.000622264
0.000610952
0.000599502
0.00058791
0.000576171
0.00056428
0.000552226
0.000539994
0.000527557
0.00051485
0.000501627
0.000486558
0.000461679
0.000392826
0.000384512
0.00036478
0.000359319
0.000420819
0.000406071
0.000301003
0.00029227
0.000397322
0.000425575
0.000410651
0.000375345
0.000325822
0.000260611
0.000171382
5.61069e-05
0.000119466
0.000301558
0.00045574
0.000572197
0.000661081
0.000732225
0.00079493
0.000854649
0.000899775
0.000961381
0.0010186
0.00106943
0.00111572
0.00115876
0.00119928
0.0012377
0.00127429
0.00130927
0.00134278
0.00137497
0.00140595
0.00143581
0.00146463
0.00149248
0.00151944
0.00154556
0.00157089
0.00159546
0.00161933
0.00164252
0.00166506
0.00168698
0.0017083
0.00172904
0.00174921
0.00176885
0.00178794
0.00180652
0.00182458
0.00184215
0.00185922
0.00187581
0.00189192
0.00190756
0.00192274
0.00193746
0.00195173
0.00196555
0.00197894
0.00199189
0.00200442
0.00201652
0.00202821
0.00203948
0.00205035
0.00206081
0.00207088
0.00208056
0.00208985
0.00209876
0.00210729
0.00211546
0.00212325
0.00213069
0.00213776
0.00214449
0.00215087
0.0021569
0.00216259
0.00216794
0.00217297
0.00217766
0.00218203
0.00218608
0.00218981
0.00219323
0.00219633
0.00219912
0.00220161
0.0022038
0.00220568
0.00220727
0.00220856
0.00220956
0.00221027
0.00221069
0.00221082
0.00221066
0.00221023
0.0022095
0.00220848
0.00220716
0.00220555
0.00220367
0.00220151
0.00219908
0.00219639
0.00219344
0.00219023
0.00218676
0.00218303
0.00217905
0.00217482
0.00217034
0.00216562
0.00216064
0.00215543
0.00214997
0.00214426
0.00213832
0.00213213
0.0021257
0.00211903
0.00211211
0.00210495
0.00209755
0.00208991
0.00208202
0.00207388
0.0020655
0.00205687
0.00204799
0.00203885
0.00202947
0.00201983
0.00200993
0.00199977
0.00198936
0.00197869
0.00196775
0.00195655
0.00194508
0.00193335
0.00192135
0.00190909
0.00189655
0.00188374
0.00187066
0.00185731
0.00184369
0.00182979
0.00181562
0.00180117
0.00178646
0.00177146
0.0017562
0.00174066
0.00172485
0.00170876
0.00169241
0.00167578
0.00165888
0.00164172
0.00162429
0.00160659
0.00158863
0.0015704
0.00155192
0.00153317
0.00151416
0.0014949
0.00147538
0.0014556
0.00143557
0.00141528
0.00139474
0.00137395
0.00135289
0.00133158
0.00131001
0.00128817
0.00126606
0.00124367
0.00122099
0.001198
0.00117469
0.00115103
0.00112698
0.00110247
0.00107742
0.00105164
0.00102485
0.000996427
0.000964058
0.000913181
0.000875543
0.000838583
0.000809114
0.000798938
0.000778028
0.000728621
0.000693904
0.000669192
0.000672511
0.000641046
0.00058086
0.000496328
0.000384783
0.000240317
8.0014e-05
0.000119466
0.000301555
0.000455701
0.000572166
0.000661303
0.000732908
0.000796181
0.000856086
0.000900433
0.000961517
0.00101862
0.00106947
0.00111578
0.00115882
0.00119934
0.00123776
0.00127435
0.00130933
0.00134284
0.00137503
0.001406
0.00143586
0.00146467
0.00149253
0.00151949
0.0015456
0.00157092
0.0015955
0.00161936
0.00164255
0.00166509
0.00168701
0.00170832
0.00172906
0.00174924
0.00176887
0.00178796
0.00180654
0.0018246
0.00184216
0.00185923
0.00187582
0.00189193
0.00190757
0.00192275
0.00193747
0.00195174
0.00196556
0.00197895
0.0019919
0.00200442
0.00201652
0.00202821
0.00203948
0.00205034
0.00206081
0.00207088
0.00208055
0.00208984
0.00209875
0.00210729
0.00211545
0.00212324
0.00213068
0.00213775
0.00214448
0.00215085
0.00215689
0.00216258
0.00216793
0.00217295
0.00217765
0.00218202
0.00218607
0.0021898
0.00219321
0.00219631
0.00219911
0.0022016
0.00220378
0.00220567
0.00220725
0.00220854
0.00220954
0.00221025
0.00221067
0.0022108
0.00221064
0.0022102
0.00220948
0.00220846
0.00220714
0.00220553
0.00220365
0.00220149
0.00219906
0.00219637
0.00219342
0.0021902
0.00218673
0.002183
0.00217903
0.0021748
0.00217032
0.00216559
0.00216062
0.0021554
0.00214994
0.00214424
0.00213829
0.0021321
0.00212567
0.002119
0.00211208
0.00210493
0.00209753
0.00208988
0.00208199
0.00207385
0.00206547
0.00205684
0.00204796
0.00203882
0.00202944
0.0020198
0.0020099
0.00199974
0.00198933
0.00197866
0.00196772
0.00195652
0.00194505
0.00193332
0.00192132
0.00190905
0.00189652
0.00188371
0.00187063
0.00185728
0.00184365
0.00182976
0.00181559
0.00180114
0.00178642
0.00177143
0.00175616
0.00174062
0.00172481
0.00170873
0.00169237
0.00167575
0.00165885
0.00164169
0.00162425
0.00160656
0.00158859
0.00157037
0.00155188
0.00153313
0.00151413
0.00149486
0.00147534
0.00145557
0.00143553
0.00141525
0.00139471
0.00137391
0.00135286
0.00133155
0.00130998
0.00128814
0.00126603
0.00124363
0.00122095
0.00119797
0.00117466
0.001151
0.00112695
0.00110244
0.00107738
0.0010516
0.00102481
0.000996396
0.00096413
0.000912386
0.000874864
0.000838015
0.000808474
0.000798856
0.000778522
0.000728452
0.000697731
0.000702741
0.000685678
0.000644193
0.00058123
0.000496228
0.000384696
0.000240275
8.00083e-05
0.000149233
0.00036628
0.000568243
0.000735637
0.000874422
0.000993233
0.00109907
0.0011969
0.00128651
0.00137319
0.00145398
0.0015286
0.00159794
0.00166292
0.00172423
0.00178234
0.00183764
0.00189042
0.0019409
0.0019893
0.00203577
0.00208046
0.0021235
0.002165
0.00220507
0.00224378
0.00228122
0.00231747
0.00235257
0.00238659
0.00241957
0.00245157
0.00248261
0.00251274
0.00254199
0.00257038
0.00259794
0.00262469
0.00265065
0.00267584
0.00270028
0.00272399
0.00274697
0.00276924
0.00279082
0.00281172
0.00283195
0.00285151
0.00287043
0.00288871
0.00290636
0.00292339
0.00293982
0.00295564
0.00297087
0.00298552
0.0029996
0.00301312
0.00302608
0.00303849
0.00305036
0.0030617
0.00307252
0.00308282
0.00309261
0.0031019
0.0031107
0.003119
0.00312683
0.00313418
0.00314105
0.00314747
0.00315342
0.00315892
0.00316397
0.00316858
0.00317275
0.00317648
0.00317978
0.00318265
0.0031851
0.00318714
0.00318875
0.00318995
0.00319075
0.00319113
0.00319112
0.0031907
0.00318988
0.00318866
0.00318703
0.003185
0.00318258
0.00317976
0.00317656
0.00317298
0.00316902
0.00316469
0.00316
0.00315494
0.00314953
0.00314375
0.00313762
0.00313114
0.0031243
0.00311712
0.00310959
0.00310171
0.00309348
0.00308491
0.003076
0.00306674
0.00305714
0.00304719
0.00303689
0.00302625
0.00301525
0.00300391
0.00299222
0.00298017
0.00296777
0.00295501
0.00294189
0.00292841
0.00291456
0.00290035
0.00288577
0.00287082
0.0028555
0.0028398
0.00282373
0.00280728
0.00279045
0.00277324
0.00275565
0.00273767
0.00271931
0.00270057
0.00268143
0.00266191
0.00264201
0.00262171
0.00260103
0.00257996
0.0025585
0.00253666
0.00251443
0.00249181
0.00246881
0.00244544
0.00242168
0.00239754
0.00237302
0.00234813
0.00232287
0.00229724
0.00227124
0.00224487
0.00221814
0.00219105
0.0021636
0.00213579
0.00210762
0.00207909
0.00205021
0.00202096
0.00199136
0.00196138
0.00193104
0.00190031
0.0018692
0.00183769
0.00180576
0.00177338
0.00174054
0.00170719
0.00167328
0.00163873
0.00160344
0.00156727
0.00152999
0.0014913
0.00145082
0.00140817
0.00136002
0.00131168
0.00126349
0.00121704
0.00117472
0.00113174
0.00108301
0.00103317
0.000980575
0.000925272
0.000852336
0.000757065
0.000635721
0.000482987
0.00029637
0.000103606
0.000149244
0.000366315
0.000568364
0.000735767
0.000874679
0.000993644
0.00109963
0.00119746
0.00128679
0.00137328
0.00145404
0.00152867
0.00159803
0.00166301
0.00172431
0.00178243
0.00183772
0.0018905
0.00194098
0.00198937
0.00203584
0.00208053
0.00212357
0.00216506
0.00220513
0.00224384
0.00228128
0.00231751
0.00235261
0.00238663
0.00241961
0.00245161
0.00248265
0.00251277
0.00254202
0.0025704
0.00259796
0.00262471
0.00265067
0.00267586
0.00270029
0.002724
0.00274698
0.00276925
0.00279083
0.00281172
0.00283195
0.00285151
0.00287043
0.0028887
0.00290635
0.00292338
0.0029398
0.00295563
0.00297086
0.00298551
0.00299958
0.0030131
0.00302606
0.00303847
0.00305034
0.00306168
0.00307249
0.00308279
0.00309259
0.00310187
0.00311067
0.00311897
0.0031268
0.00313414
0.00314102
0.00314743
0.00315339
0.00315889
0.00316394
0.00316854
0.00317271
0.00317644
0.00317974
0.00318261
0.00318506
0.00318709
0.00318871
0.00318991
0.0031907
0.00319109
0.00319107
0.00319065
0.00318983
0.00318861
0.00318699
0.00318496
0.00318253
0.00317971
0.00317651
0.00317293
0.00316897
0.00316464
0.00315995
0.00315489
0.00314948
0.0031437
0.00313757
0.00313108
0.00312425
0.00311706
0.00310953
0.00310165
0.00309343
0.00308486
0.00307594
0.00306668
0.00305708
0.00304713
0.00303683
0.00302619
0.0030152
0.00300385
0.00299216
0.00298011
0.00296771
0.00295495
0.00294183
0.00292835
0.0029145
0.00290029
0.00288571
0.00287076
0.00285544
0.00283974
0.00282367
0.00280722
0.00279039
0.00277318
0.00275559
0.00273761
0.00271925
0.0027005
0.00268137
0.00266185
0.00264194
0.00262165
0.00260096
0.00257989
0.00255844
0.00253659
0.00251436
0.00249175
0.00246875
0.00244537
0.00242161
0.00239747
0.00237296
0.00234807
0.00232281
0.00229718
0.00227118
0.00224481
0.00221808
0.00219099
0.00216354
0.00213572
0.00210755
0.00207903
0.00205014
0.0020209
0.00199129
0.00196132
0.00193097
0.00190025
0.00186914
0.00183763
0.00180569
0.00177332
0.00174048
0.00170713
0.00167322
0.00163867
0.00160338
0.00156721
0.00152993
0.00149123
0.00145077
0.00140816
0.00135968
0.00131127
0.00126303
0.00121652
0.00117438
0.00113149
0.00108207
0.00103238
0.000985202
0.000927514
0.000852788
0.000756989
0.000635618
0.00048294
0.000296346
0.000103606
0.000174661
0.000413556
0.000651943
0.00086543
0.00104934
0.00120947
0.00135195
0.00148137
0.00160018
0.00171063
0.00181334
0.00190906
0.00199868
0.00208303
0.00216278
0.00223849
0.00231057
0.00237938
0.00244521
0.00250831
0.00256887
0.00262709
0.00268312
0.00273711
0.00278918
0.00283943
0.00288799
0.00293492
0.00298032
0.00302426
0.0030668
0.003108
0.00314792
0.0031866
0.00322408
0.00326042
0.00329563
0.00332977
0.00336284
0.0033949
0.00342595
0.00345602
0.00348513
0.00351332
0.00354059
0.00356696
0.00359245
0.00361708
0.00364087
0.00366383
0.00368597
0.00370732
0.00372788
0.00374766
0.00376669
0.00378498
0.00380253
0.00381936
0.00383549
0.00385091
0.00386566
0.00387973
0.00389314
0.00390589
0.00391801
0.00392949
0.00394034
0.00395058
0.00396022
0.00396926
0.00397771
0.00398557
0.00399286
0.00399959
0.00400575
0.00401136
0.00401642
0.00402093
0.00402491
0.00402836
0.00403128
0.00403367
0.00403555
0.00403691
0.00403776
0.00403811
0.00403796
0.0040373
0.00403615
0.0040345
0.00403235
0.00402971
0.00402658
0.00402296
0.00401887
0.00401431
0.00400928
0.00400378
0.00399783
0.00399143
0.00398457
0.00397727
0.00396952
0.00396134
0.00395271
0.00394364
0.00393414
0.0039242
0.00391383
0.00390303
0.00389179
0.00388012
0.00386802
0.00385548
0.00384251
0.0038291
0.00381525
0.00380097
0.00378624
0.00377107
0.00375545
0.00373938
0.00372286
0.00370588
0.00368845
0.00367056
0.00365221
0.00363339
0.0036141
0.00359435
0.00357412
0.00355342
0.00353225
0.00351059
0.00348846
0.00346585
0.00344275
0.00341918
0.00339512
0.00337057
0.00334555
0.00332003
0.00329404
0.00326756
0.0032406
0.00321315
0.00318523
0.00315683
0.00312795
0.0030986
0.00306877
0.00303848
0.00300771
0.00297649
0.0029448
0.00291265
0.00288005
0.00284699
0.00281348
0.00277952
0.00274512
0.00271027
0.00267497
0.00263922
0.00260303
0.00256639
0.00252929
0.00249172
0.00245368
0.00241516
0.00237613
0.00233658
0.00229648
0.00225579
0.00221447
0.00217247
0.00212971
0.00208608
0.00204147
0.00199571
0.00194858
0.00189983
0.00184919
0.00179652
0.00174126
0.00168416
0.00162571
0.00156625
0.00150596
0.00144373
0.00137776
0.00130694
0.00122876
0.00114008
0.00103474
0.000907344
0.000752436
0.000564761
0.000344865
0.000126708
0.000174701
0.000413457
0.000652122
0.000865507
0.00104946
0.00120964
0.00135216
0.00148159
0.00160033
0.00171073
0.00181344
0.00190916
0.00199879
0.00208314
0.00216289
0.00223859
0.00231067
0.00237948
0.00244531
0.0025084
0.00256896
0.00262718
0.0026832
0.00273719
0.00278925
0.00283951
0.00288805
0.00293499
0.00298038
0.00302431
0.00306685
0.00310805
0.00314796
0.00318664
0.00322412
0.00326045
0.00329567
0.0033298
0.00336287
0.00339492
0.00342597
0.00345604
0.00348515
0.00351333
0.0035406
0.00356696
0.00359246
0.00361709
0.00364087
0.00366383
0.00368597
0.00370731
0.00372787
0.00374765
0.00376668
0.00378496
0.00380251
0.00381934
0.00383547
0.00385089
0.00386564
0.00387971
0.00389311
0.00390587
0.00391798
0.00392945
0.00394031
0.00395055
0.00396019
0.00396922
0.00397767
0.00398553
0.00399283
0.00399955
0.00400571
0.00401132
0.00401637
0.00402089
0.00402487
0.00402831
0.00403123
0.00403362
0.0040355
0.00403686
0.00403771
0.00403806
0.0040379
0.00403725
0.00403609
0.00403445
0.0040323
0.00402965
0.00402652
0.00402291
0.00401881
0.00401425
0.00400922
0.00400373
0.00399777
0.00399137
0.00398451
0.00397721
0.00396946
0.00396127
0.00395264
0.00394358
0.00393407
0.00392414
0.00391377
0.00390296
0.00389172
0.00388006
0.00386795
0.00385541
0.00384244
0.00382903
0.00381519
0.0038009
0.00378617
0.003771
0.00375538
0.00373931
0.00372279
0.00370581
0.00368838
0.00367049
0.00365213
0.00363332
0.00361403
0.00359428
0.00357405
0.00355335
0.00353217
0.00351052
0.00348839
0.00346577
0.00344268
0.0034191
0.00339504
0.0033705
0.00334547
0.00331996
0.00329396
0.00326748
0.00324052
0.00321307
0.00318515
0.00315675
0.00312787
0.00309852
0.00306869
0.0030384
0.00300763
0.00297641
0.00294472
0.00291257
0.00287997
0.00284691
0.0028134
0.00277944
0.00274504
0.00271019
0.00267489
0.00263914
0.00260295
0.00256631
0.00252921
0.00249164
0.0024536
0.00241508
0.00237605
0.0023365
0.0022964
0.00225571
0.0022144
0.0021724
0.00212963
0.00208601
0.0020414
0.00199563
0.00194851
0.00189976
0.00184913
0.00179649
0.00174117
0.00168402
0.00162554
0.00156604
0.00150577
0.00144354
0.00137733
0.00130634
0.00122895
0.00114015
0.00103465
0.000907261
0.000752422
0.000564793
0.000344877
0.000126712
0.000190601
0.000432468
0.000699087
0.000958583
0.00118555
0.00138278
0.00155715
0.00171404
0.00185712
0.001989
0.00211144
0.00222577
0.00233311
0.00243437
0.00253028
0.00262145
0.00270836
0.0027914
0.0028709
0.00294714
0.00302037
0.00309078
0.00315856
0.00322386
0.00328684
0.00334762
0.00340631
0.00346302
0.00351784
0.00357086
0.00362216
0.00367179
0.00371984
0.00376636
0.00381139
0.003855
0.00389722
0.00393809
0.00397766
0.00401596
0.00405303
0.00408889
0.00412357
0.00415711
0.00418952
0.00422084
0.00425108
0.00428028
0.00430844
0.0043356
0.00436176
0.00438697
0.00441122
0.00443454
0.00445695
0.00447847
0.0044991
0.00451888
0.0045378
0.0045559
0.00457318
0.00458966
0.00460535
0.00462027
0.00463442
0.00464782
0.00466049
0.00467243
0.00468365
0.00469417
0.00470399
0.00471313
0.0047216
0.00472939
0.00473653
0.00474301
0.00474885
0.00475405
0.00475863
0.00476258
0.00476591
0.00476863
0.00477074
0.00477225
0.00477317
0.00477349
0.00477323
0.00477238
0.00477095
0.00476894
0.00476636
0.0047632
0.00475948
0.00475519
0.00475035
0.00474495
0.00473901
0.00473253
0.00472551
0.00471796
0.00470989
0.00470129
0.00469216
0.00468252
0.00467237
0.0046617
0.00465051
0.00463882
0.00462662
0.0046139
0.00460068
0.00458695
0.00457271
0.00455796
0.0045427
0.00452692
0.00451063
0.00449383
0.0044765
0.00445865
0.00444027
0.00442137
0.00440193
0.00438197
0.00436146
0.00434042
0.00431883
0.0042967
0.00427402
0.00425078
0.004227
0.00420266
0.00417776
0.0041523
0.00412628
0.0040997
0.00407255
0.00404484
0.00401656
0.00398772
0.00395831
0.00392833
0.00389779
0.00386669
0.00383502
0.00380279
0.00377
0.00373665
0.00370274
0.00366828
0.00363327
0.00359772
0.00356162
0.00352498
0.0034878
0.00345009
0.00341185
0.00337308
0.00333378
0.00329396
0.00325362
0.00321275
0.00317137
0.00312946
0.00308702
0.00304405
0.00300053
0.00295647
0.00291183
0.00286661
0.00282079
0.00277432
0.00272718
0.00267931
0.00263067
0.00258117
0.00253074
0.00247924
0.00242655
0.00237248
0.00231685
0.00225944
0.00220001
0.00213841
0.00207446
0.00200816
0.00193949
0.00186824
0.00179394
0.00171567
0.00163199
0.00154102
0.00144004
0.00132552
0.00119279
0.00103668
0.000851726
0.000633804
0.000386801
0.000148625
0.000190741
0.00043175
0.000699093
0.000958436
0.00118551
0.00138284
0.00155726
0.00171417
0.00185724
0.00198912
0.00211156
0.0022259
0.00233324
0.00243449
0.00253041
0.00262157
0.00270848
0.00279151
0.00287101
0.00294725
0.00302047
0.00309088
0.00315866
0.00322396
0.00328693
0.00334771
0.00340639
0.0034631
0.00351792
0.00357093
0.00362222
0.00367186
0.0037199
0.00376641
0.00381145
0.00385505
0.00389726
0.00393814
0.0039777
0.004016
0.00405306
0.00408892
0.0041236
0.00415713
0.00418954
0.00422086
0.0042511
0.00428029
0.00430845
0.0043356
0.00436177
0.00438697
0.00441122
0.00443454
0.00445695
0.00447846
0.00449909
0.00451887
0.00453779
0.00455589
0.00457317
0.00458964
0.00460533
0.00462024
0.0046344
0.0046478
0.00466046
0.0046724
0.00468362
0.00469414
0.00470396
0.0047131
0.00472156
0.00472936
0.00473649
0.00474297
0.00474881
0.00475401
0.00475859
0.00476253
0.00476586
0.00476858
0.00477069
0.00477221
0.00477312
0.00477344
0.00477318
0.00477233
0.0047709
0.00476889
0.00476631
0.00476315
0.00475942
0.00475513
0.00475029
0.00474489
0.00473895
0.00473247
0.00472545
0.0047179
0.00470983
0.00470123
0.0046921
0.00468246
0.0046723
0.00466163
0.00465045
0.00463875
0.00462655
0.00461384
0.00460062
0.00458689
0.00457264
0.00455789
0.00454263
0.00452685
0.00451056
0.00449375
0.00447643
0.00445857
0.0044402
0.00442129
0.00440186
0.00438189
0.00436139
0.00434034
0.00431875
0.00429662
0.00427394
0.00425071
0.00422692
0.00420258
0.00417768
0.00415222
0.0041262
0.00409962
0.00407247
0.00404476
0.00401648
0.00398764
0.00395823
0.00392825
0.00389771
0.0038666
0.00383493
0.0038027
0.00376991
0.00373656
0.00370266
0.0036682
0.00363319
0.00359763
0.00356153
0.00352489
0.00348772
0.00345001
0.00341176
0.00337299
0.0033337
0.00329388
0.00325353
0.00321267
0.00317128
0.00312937
0.00308694
0.00304396
0.00300045
0.00295638
0.00291175
0.00286653
0.0028207
0.00277424
0.0027271
0.00267923
0.00263059
0.0025811
0.00253066
0.00247917
0.00242647
0.00237241
0.00231678
0.00225937
0.00219995
0.00213837
0.00207442
0.00200811
0.00193943
0.00186817
0.00179386
0.00171559
0.00163185
0.00154081
0.00143992
0.00132543
0.00119275
0.00103672
0.000851889
0.000634048
0.000386937
0.000148631
0.000192861
0.000408406
0.000718474
0.00102529
0.00129313
0.00152393
0.00172642
0.00190743
0.00207171
0.00222261
0.00236252
0.0024932
0.00261601
0.00273201
0.00284203
0.00294674
0.00304667
0.00314225
0.00323386
0.00332179
0.0034063
0.00348762
0.00356594
0.00364144
0.00371427
0.00378457
0.00385247
0.00391806
0.00398147
0.00404278
0.00410207
0.00415943
0.00421492
0.00426861
0.00432056
0.00437083
0.00441947
0.00446653
0.00451205
0.00455607
0.00459864
0.00463979
0.00467956
0.00471799
0.00475509
0.00479092
0.00482548
0.00485882
0.00489096
0.00492193
0.00495175
0.00498044
0.00500803
0.00503455
0.00506001
0.00508443
0.00510784
0.00513026
0.00515171
0.0051722
0.00519175
0.00521039
0.00522812
0.00524497
0.00526095
0.00527607
0.00529035
0.0053038
0.00531644
0.00532828
0.00533933
0.00534961
0.00535911
0.00536786
0.00537587
0.00538314
0.00538968
0.0053955
0.00540061
0.00540501
0.00540872
0.00541174
0.00541407
0.00541573
0.00541672
0.00541703
0.00541669
0.00541569
0.00541404
0.00541174
0.0054088
0.00540521
0.00540098
0.00539613
0.00539065
0.00538455
0.00537784
0.00537051
0.00536259
0.00535407
0.00534495
0.00533524
0.00532494
0.00531405
0.00530259
0.00529054
0.00527792
0.00526471
0.00525094
0.00523658
0.00522166
0.00520615
0.00519007
0.00517342
0.00515618
0.00513837
0.00511997
0.00510099
0.00508142
0.00506127
0.00504051
0.00501917
0.00499722
0.00497467
0.00495152
0.00492776
0.00490338
0.00487839
0.00485279
0.00482656
0.00479971
0.00477223
0.00474412
0.00471539
0.00468602
0.00465602
0.00462539
0.00459411
0.00456221
0.00452966
0.00449648
0.00446267
0.00442822
0.00439313
0.00435742
0.00432107
0.0042841
0.0042465
0.00420827
0.00416943
0.00412997
0.0040899
0.00404922
0.00400793
0.00396605
0.00392356
0.00388048
0.00383681
0.00379255
0.0037477
0.00370226
0.00365624
0.00360963
0.00356242
0.00351462
0.00346621
0.00341718
0.00336752
0.0033172
0.0032662
0.0032145
0.00316205
0.00310881
0.00305472
0.00299971
0.00294369
0.00288657
0.00282821
0.00276846
0.00270715
0.00264407
0.00257902
0.00251176
0.00244207
0.00236972
0.00229447
0.00221598
0.00213373
0.00204696
0.00195454
0.00185489
0.00174588
0.00162469
0.00148772
0.00133051
0.00114782
0.000934129
0.000686524
0.000415682
0.000167375
0.000192993
0.000407792
0.000719139
0.00102536
0.00129305
0.00152394
0.0017265
0.00190754
0.00207183
0.00222274
0.00236265
0.00249333
0.00261614
0.00273214
0.00284216
0.00294687
0.0030468