/*--------------------------------*- C++ -*----------------------------------*\
  =========                 |
  \\      /  F ield         | OpenFOAM: The Open Source CFD Toolbox
   \\    /   O peration     | Website:  https://openfoam.org
    \\  /    A nd           | Version:  8
     \\/     M anipulation  |
\*---------------------------------------------------------------------------*/
FoamFile
{
    version     2.0;
    format      ascii;
    class       surfaceScalarField;
    location    "500";
    object      phi;
}
// * * * * * * * * * * * * * * * * * * * * * * * * * * * * * * * * * * * * * //

dimensions      [1 0 -1 0 0 0 0];

internalField   nonuniform List<scalar> 
119360
(
-4.29435e-08
-1.89666e-11
4.29624e-08
-9.36961e-08
-5.69693e-12
5.08582e-08
-1.39548e-07
-3.52741e-12
4.58944e-08
-1.74905e-07
-2.01713e-12
3.53905e-08
-1.97829e-07
-2.17629e-13
2.29516e-08
-2.09248e-07
5.41543e-13
1.14443e-08
-2.06031e-07
-1.63264e-12
-3.18456e-09
-1.86337e-07
-4.09598e-12
-1.96419e-08
-1.58568e-07
-2.98299e-12
-2.77125e-08
-1.20084e-07
-3.93071e-13
-3.84363e-08
-7.12045e-08
2.66068e-13
-4.88363e-08
-1.69994e-08
-7.13929e-13
-5.41622e-08
4.07907e-08
-1.50252e-12
-5.77467e-08
1.00869e-07
-1.8759e-12
-6.00336e-08
1.62297e-07
-2.19309e-12
-6.13851e-08
2.24384e-07
-2.46233e-12
-6.20467e-08
2.8657e-07
-2.34975e-12
-6.21493e-08
3.48413e-07
-1.84139e-12
-6.18068e-08
4.09559e-07
-1.3348e-12
-6.11101e-08
4.69729e-07
-1.1661e-12
-6.01347e-08
5.28707e-07
-1.29778e-12
-5.89428e-08
5.86328e-07
-1.47885e-12
-5.75862e-08
6.42469e-07
-1.5145e-12
-5.6108e-08
6.97043e-07
-1.38271e-12
-5.45439e-08
7.49994e-07
-1.18748e-12
-5.29236e-08
8.01291e-07
-1.04887e-12
-5.12715e-08
8.50924e-07
-1.02278e-12
-4.9607e-08
8.98895e-07
-1.05615e-12
-4.79459e-08
9.45222e-07
-9.97973e-13
-4.63002e-08
9.89927e-07
-7.05707e-13
-4.46798e-08
1.03304e-06
-1.88566e-13
-4.30919e-08
1.07461e-06
3.92135e-13
-4.15422e-08
1.11466e-06
8.59261e-13
-4.00347e-08
1.15325e-06
1.13093e-12
-3.85721e-08
1.19041e-06
1.24173e-12
-3.71557e-08
1.22621e-06
1.32128e-12
-3.5786e-08
1.26068e-06
1.52312e-12
-3.44626e-08
1.29387e-06
1.9072e-12
-3.31848e-08
1.32582e-06
2.36544e-12
-3.19517e-08
1.35658e-06
2.68363e-12
-3.07623e-08
1.38619e-06
2.68136e-12
-2.96155e-08
1.41469e-06
2.31537e-12
-2.851e-08
1.44212e-06
1.71041e-12
-2.74442e-08
1.46852e-06
1.10412e-12
-2.64161e-08
1.49393e-06
7.23366e-13
-2.54238e-08
1.51837e-06
6.46761e-13
-2.44652e-08
1.54189e-06
7.46736e-13
-2.35387e-08
1.56452e-06
7.7588e-13
-2.26429e-08
1.58628e-06
5.29465e-13
-2.17765e-08
1.6072e-06
-2.42028e-14
-2.09384e-08
1.62731e-06
-7.2603e-13
-2.01271e-08
1.64664e-06
-1.31972e-12
-1.93411e-08
1.66522e-06
-1.58884e-12
-1.85788e-08
1.68305e-06
-1.46633e-12
-1.78386e-08
1.70016e-06
-1.0616e-12
-1.71195e-08
1.71658e-06
-6.01963e-13
-1.64204e-08
1.73232e-06
-3.17524e-13
-1.57408e-08
1.74741e-06
-3.31346e-13
-1.50802e-08
1.76185e-06
-6.04239e-13
-1.44378e-08
1.77566e-06
-9.67282e-13
-1.38128e-08
1.78888e-06
-1.21209e-12
-1.32044e-08
1.80149e-06
-1.1976e-12
-1.26115e-08
1.81353e-06
-9.11993e-13
-1.20332e-08
1.82501e-06
-4.6696e-13
-1.14688e-08
1.83593e-06
-3.73035e-14
-1.09179e-08
1.84631e-06
2.2593e-13
-1.03799e-08
1.85617e-06
2.61402e-13
-9.85477e-09
1.86551e-06
1.12965e-13
-9.34195e-09
1.87435e-06
-1.08247e-13
-8.84096e-09
1.8827e-06
-2.86216e-13
-8.35118e-09
1.89057e-06
-3.51219e-13
-7.87192e-09
1.89797e-06
-3.01537e-13
-7.40253e-09
1.9049e-06
-1.93845e-13
-6.94246e-09
1.91139e-06
-1.08635e-13
-6.49123e-09
1.91743e-06
-1.13631e-13
-6.04845e-09
1.92303e-06
-2.34646e-13
-5.61378e-09
1.92821e-06
-4.39537e-13
-5.1868e-09
1.93297e-06
-6.54532e-13
-4.76706e-09
1.93732e-06
-7.92588e-13
-4.35398e-09
1.94126e-06
-7.92588e-13
-3.94699e-09
1.94479e-06
-6.36546e-13
-3.54549e-09
1.94794e-06
-3.46612e-13
-3.14894e-09
1.95069e-06
3.28626e-14
-2.75688e-09
1.95305e-06
4.54581e-13
-2.36898e-09
1.95502e-06
8.73968e-13
-1.98498e-09
1.95662e-06
1.25494e-12
-1.6047e-09
1.95783e-06
1.57019e-12
-1.22804e-09
1.95867e-06
1.80722e-12
-8.54913e-10
1.95914e-06
1.96415e-12
-4.85256e-10
1.95924e-06
2.04464e-12
-1.18858e-10
1.95897e-06
2.04969e-12
2.44271e-10
1.95835e-06
1.97725e-12
6.04095e-10
1.95736e-06
1.83192e-12
9.60732e-10
1.95602e-06
1.63036e-12
1.31406e-09
1.95434e-06
1.39899e-12
1.6639e-09
1.9523e-06
1.15302e-12
2.01005e-09
1.94993e-06
8.85125e-13
2.35229e-09
1.94722e-06
5.66935e-13
2.69045e-09
1.94417e-06
1.77636e-13
3.02437e-09
1.9408e-06
-2.59404e-13
3.3539e-09
1.9371e-06
-6.55753e-13
3.67888e-09
1.93309e-06
-8.71636e-13
3.9992e-09
1.92876e-06
-7.60392e-13
4.31472e-09
1.92412e-06
-2.35034e-13
4.6253e-09
1.91917e-06
6.79179e-13
4.93077e-09
1.91392e-06
1.81893e-12
5.23092e-09
1.90837e-06
2.90817e-12
5.52558e-09
1.90253e-06
3.63176e-12
5.81472e-09
1.89641e-06
3.73873e-12
6.09849e-09
1.89001e-06
3.14343e-12
6.37725e-09
1.88333e-06
1.97792e-12
6.65143e-09
1.87638e-06
5.76317e-13
6.92143e-09
1.86917e-06
-6.19782e-13
7.18757e-09
1.8617e-06
-1.19921e-12
7.45015e-09
1.85396e-06
-9.20486e-13
7.70958e-09
1.84596e-06
1.88349e-13
7.96657e-09
1.8377e-06
1.81322e-12
8.22211e-09
1.82919e-06
3.42787e-12
8.47733e-09
1.82041e-06
4.46149e-12
8.7333e-09
1.81138e-06
4.51494e-12
8.99094e-09
1.80208e-06
3.5475e-12
9.25098e-09
1.79252e-06
1.93651e-12
9.51409e-09
1.78269e-06
3.51774e-13
9.7809e-09
1.77259e-06
-5.25746e-13
1.0052e-08
1.76222e-06
-3.16913e-13
1.03281e-08
1.75156e-06
8.63587e-13
1.06096e-08
1.7406e-06
2.44776e-12
1.08973e-08
1.72936e-06
3.67856e-12
1.11918e-08
1.71781e-06
3.98037e-12
1.1494e-08
1.70595e-06
3.24812e-12
1.18043e-08
1.69377e-06
1.91108e-12
1.2123e-08
1.68127e-06
7.16316e-13
1.24498e-08
1.66843e-06
3.43337e-13
1.27845e-08
1.65524e-06
1.04283e-12
1.31266e-08
1.64171e-06
2.50688e-12
1.34764e-08
1.62781e-06
4.03599e-12
1.38338e-08
1.61355e-06
4.90485e-12
1.41991e-08
1.59891e-06
4.72788e-12
1.4572e-08
1.5839e-06
3.63248e-12
1.49521e-08
1.5685e-06
2.17365e-12
1.53392e-08
1.55271e-06
1.03628e-12
1.57331e-08
1.53652e-06
6.78346e-13
1.61344e-08
1.51992e-06
1.09701e-12
1.65437e-08
1.5029e-06
1.85485e-12
1.69615e-08
1.48546e-06
2.35434e-12
1.73884e-08
1.46758e-06
2.19397e-12
1.78243e-08
1.44926e-06
1.39022e-12
1.82692e-08
1.43049e-06
3.55993e-13
1.8723e-08
1.41126e-06
-3.28848e-13
1.91859e-08
1.39155e-06
-2.27374e-13
1.96582e-08
1.37136e-06
7.08988e-13
2.01407e-08
1.35069e-06
2.09388e-12
2.0634e-08
1.3295e-06
3.31141e-12
2.11387e-08
1.30781e-06
3.85486e-12
2.16552e-08
1.28558e-06
3.57486e-12
2.21837e-08
1.26281e-06
2.707e-12
2.27244e-08
1.23949e-06
1.71307e-12
2.32777e-08
1.21561e-06
1.04666e-12
2.38442e-08
1.19113e-06
9.53127e-13
2.44254e-08
1.16606e-06
1.38839e-12
2.50227e-08
1.14037e-06
2.09921e-12
2.56383e-08
1.11405e-06
2.78266e-12
2.62742e-08
1.08707e-06
3.19744e-12
2.69321e-08
1.05941e-06
3.24263e-12
2.76137e-08
1.03105e-06
2.99588e-12
2.83205e-08
1.00195e-06
2.65926e-12
2.90542e-08
9.72083e-07
2.44565e-12
2.98172e-08
9.41423e-07
2.52143e-12
3.06126e-08
9.09932e-07
2.95636e-12
3.1444e-08
8.77568e-07
3.57925e-12
3.23152e-08
8.44287e-07
3.97837e-12
3.32293e-08
8.1004e-07
3.8724e-12
3.41893e-08
7.74777e-07
3.43919e-12
3.51982e-08
7.38447e-07
3.14426e-12
3.62593e-08
7.00995e-07
3.27205e-12
3.7376e-08
6.62366e-07
3.70937e-12
3.855e-08
6.22505e-07
4.19709e-12
3.97802e-08
5.81363e-07
4.64562e-12
4.1061e-08
5.38906e-07
4.93749e-12
4.23778e-08
4.95127e-07
4.51383e-12
4.37004e-08
4.50101e-07
2.912e-12
4.49453e-08
4.04062e-07
1.1442e-12
4.59544e-08
3.57459e-07
1.05072e-12
4.65166e-08
3.04155e-07
2.01483e-12
5.323e-08
2.52572e-07
3.00604e-12
5.15285e-08
2.11873e-07
7.21234e-12
4.06488e-08
1.66984e-07
5.79747e-12
4.48146e-08
1.22794e-07
-4.03066e-12
4.41072e-08
8.13244e-08
-2.09285e-11
4.13918e-08
4.14976e-08
-4.21154e-11
3.97753e-08
4.594e-09
-4.69695e-11
3.68919e-08
-2.73051e-08
-1.30215e-10
3.19962e-08
-5.43988e-08
-1.26574e-10
2.71882e-08
-7.57805e-08
2.28061e-11
2.13254e-08
-8.96608e-08
5.38393e-11
1.37916e-08
-9.38671e-08
4.78166e-11
4.12087e-09
-8.64629e-08
4.37689e-11
-7.49192e-09
-6.64247e-08
3.59015e-11
-2.01292e-08
-3.55673e-08
2.72673e-11
-3.09594e-08
2.97666e-11
-3.57184e-08
-4.29339e-08
4.29668e-08
-9.37061e-08
5.08599e-08
-1.39562e-07
4.58963e-08
-1.74919e-07
3.53899e-08
-1.97835e-07
2.29466e-08
-2.09244e-07
1.14429e-08
-2.06017e-07
-3.17987e-09
-1.86319e-07
-1.96413e-08
-1.58559e-07
-2.77057e-08
-1.20084e-07
-3.8424e-08
-7.12008e-08
-4.88315e-08
-1.69895e-08
-5.41593e-08
4.08043e-08
-5.7743e-08
1.00881e-07
-6.00298e-08
1.62306e-07
-6.13821e-08
2.24389e-07
-6.2044e-08
2.86574e-07
-6.21465e-08
3.48417e-07
-6.18036e-08
4.09563e-07
-6.11068e-08
4.69734e-07
-6.01314e-08
5.28712e-07
-5.89396e-08
5.86331e-07
-5.75833e-08
6.4247e-07
-5.61055e-08
6.97043e-07
-5.45418e-08
7.49993e-07
-5.29219e-08
8.01291e-07
-5.12699e-08
8.50924e-07
-4.96053e-08
8.98896e-07
-4.79438e-08
9.45223e-07
-4.6298e-08
9.89928e-07
-4.46775e-08
1.03304e-06
-4.30897e-08
1.07461e-06
-4.15401e-08
1.11466e-06
-4.00327e-08
1.15325e-06
-3.85701e-08
1.19042e-06
-3.71536e-08
1.22621e-06
-3.57839e-08
1.26068e-06
-3.44606e-08
1.29387e-06
-3.31829e-08
1.32583e-06
-3.19501e-08
1.35658e-06
-3.07609e-08
1.38619e-06
-2.96145e-08
1.41469e-06
-2.85094e-08
1.44212e-06
-2.7444e-08
1.46852e-06
-2.64163e-08
1.49393e-06
-2.54242e-08
1.51837e-06
-2.44659e-08
1.54189e-06
-2.35395e-08
1.56452e-06
-2.26438e-08
1.58628e-06
-2.17775e-08
1.6072e-06
-2.09394e-08
1.62731e-06
-2.01282e-08
1.64664e-06
-1.93422e-08
1.66521e-06
-1.85799e-08
1.68304e-06
-1.78398e-08
1.70016e-06
-1.71205e-08
1.71658e-06
-1.64213e-08
1.73232e-06
-1.57416e-08
1.7474e-06
-1.50808e-08
1.76185e-06
-1.44383e-08
1.77566e-06
-1.38134e-08
1.78887e-06
-1.3205e-08
1.80149e-06
-1.26123e-08
1.81353e-06
-1.20341e-08
1.82501e-06
-1.14699e-08
1.83593e-06
-1.09192e-08
1.84631e-06
-1.03814e-08
1.85617e-06
-9.85647e-09
1.86551e-06
-9.34386e-09
1.87436e-06
-8.84309e-09
1.8827e-06
-8.35351e-09
1.89057e-06
-7.87443e-09
1.89797e-06
-7.40516e-09
1.90491e-06
-6.94512e-09
1.91139e-06
-6.49385e-09
1.91743e-06
-6.05094e-09
1.92304e-06
-5.61605e-09
1.92822e-06
-5.18879e-09
1.93297e-06
-4.76873e-09
1.93732e-06
-4.35533e-09
1.94126e-06
-3.94803e-09
1.94479e-06
-3.54626e-09
1.94793e-06
-3.1495e-09
1.95068e-06
-2.75731e-09
1.95304e-06
-2.36936e-09
1.95502e-06
-1.98541e-09
1.95661e-06
-1.60526e-09
1.95783e-06
-1.22878e-09
1.95867e-06
-8.55894e-10
1.95914e-06
-4.86506e-10
1.95924e-06
-1.20389e-10
1.95897e-06
2.42477e-10
1.95835e-06
6.02092e-10
1.95737e-06
9.586e-10
1.95603e-06
1.31192e-09
1.95434e-06
1.66187e-09
1.95231e-06
2.00822e-09
1.94993e-06
2.35075e-09
1.94722e-06
2.6892e-09
1.94418e-06
3.02335e-09
1.9408e-06
3.35298e-09
1.9371e-06
3.67789e-09
1.93309e-06
3.99796e-09
1.92875e-06
4.3131e-09
1.92411e-06
4.62328e-09
1.91916e-06
4.92844e-09
1.91391e-06
5.2285e-09
1.90837e-06
5.52337e-09
1.90254e-06
5.81298e-09
1.89642e-06
6.09731e-09
1.89002e-06
6.37645e-09
1.88334e-06
6.65057e-09
1.87639e-06
6.91991e-09
1.86917e-06
7.18487e-09
1.86169e-06
7.44609e-09
1.85395e-06
7.7045e-09
1.84595e-06
7.9612e-09
1.8377e-06
8.21726e-09
1.82919e-06
8.47347e-09
1.82041e-06
8.73034e-09
1.81138e-06
8.98823e-09
1.80209e-06
9.24769e-09
1.79253e-06
9.50963e-09
1.78269e-06
9.77524e-09
1.77259e-06
1.00456e-08
1.76221e-06
1.03216e-08
1.75155e-06
1.06037e-08
1.7406e-06
1.0892e-08
1.72936e-06
1.11871e-08
1.71781e-06
1.14893e-08
1.70595e-06
1.17993e-08
1.69377e-06
1.21174e-08
1.68127e-06
1.24437e-08
1.66842e-06
1.27781e-08
1.65524e-06
1.31204e-08
1.6417e-06
1.34708e-08
1.62781e-06
1.38291e-08
1.61355e-06
1.4195e-08
1.59891e-06
1.45682e-08
1.5839e-06
1.49482e-08
1.5685e-06
1.53349e-08
1.55271e-06
1.57286e-08
1.53652e-06
1.613e-08
1.51992e-06
1.65397e-08
1.5029e-06
1.6958e-08
1.48546e-06
1.73851e-08
1.46758e-06
1.78207e-08
1.44926e-06
1.8265e-08
1.43049e-06
1.87182e-08
1.41125e-06
1.91807e-08
1.39154e-06
1.96532e-08
1.37136e-06
2.01363e-08
1.35068e-06
2.06306e-08
1.3295e-06
2.11362e-08
1.30781e-06
2.16531e-08
1.28559e-06
2.21816e-08
1.26282e-06
2.27218e-08
1.2395e-06
2.32744e-08
1.21561e-06
2.38405e-08
1.19113e-06
2.44214e-08
1.16606e-06
2.50189e-08
1.14037e-06
2.56349e-08
1.11405e-06
2.62713e-08
1.08707e-06
2.69296e-08
1.05942e-06
2.76114e-08
1.03105e-06
2.83179e-08
1.00195e-06
2.90512e-08
9.72089e-07
2.98138e-08
9.4143e-07
3.06092e-08
9.0994e-07
3.14407e-08
8.77576e-07
3.23118e-08
8.44294e-07
3.32252e-08
8.10046e-07
3.4184e-08
7.74781e-07
3.51917e-08
7.3845e-07
3.62522e-08
7.00998e-07
3.73686e-08
6.62371e-07
3.85424e-08
6.22513e-07
3.97726e-08
5.81377e-07
4.10538e-08
5.38923e-07
4.23711e-08
4.95145e-07
4.36938e-08
4.50121e-07
4.49403e-08
4.04087e-07
4.5949e-08
3.57487e-07
4.65035e-08
3.04188e-07
5.32172e-08
2.52609e-07
5.15271e-08
2.11899e-07
4.06482e-08
1.67003e-07
4.47928e-08
1.22799e-07
4.41006e-08
8.12678e-08
4.14097e-08
4.13021e-08
3.98216e-08
4.25269e-09
3.69397e-08
-2.80082e-08
3.20899e-08
-5.50712e-08
2.68964e-08
-7.62467e-08
2.11565e-08
-8.99819e-08
1.3746e-08
-9.40983e-08
4.11664e-09
-8.66206e-08
-7.49134e-09
-6.65269e-08
-2.01317e-08
-3.56354e-08
-3.09692e-08
-3.57585e-08
-5.20928e-08
-7.80051e-12
9.51564e-08
-8.97195e-08
-9.67029e-13
8.85684e-08
-1.15874e-07
3.29232e-13
7.20918e-08
-1.30386e-07
1.0689e-12
4.99369e-08
-1.33043e-07
1.34007e-12
2.56385e-08
-1.2254e-07
7.51903e-13
9.76936e-10
-1.02412e-07
7.334e-14
-2.32582e-08
-7.68569e-08
1.02426e-13
-4.51408e-08
-4.14197e-08
2.58326e-13
-6.31014e-08
-1.09287e-11
2.53576e-13
-7.98022e-08
4.46215e-08
1.6284e-13
-9.34279e-08
9.36342e-08
6.7303e-14
-1.03135e-07
1.46025e-07
-3.37294e-14
-1.10098e-07
2.00861e-07
-1.6854e-13
-1.14833e-07
2.57339e-07
-2.66325e-13
-1.17828e-07
3.14783e-07
-2.32118e-13
-1.19458e-07
3.72652e-07
-5.34982e-14
-1.19986e-07
4.30511e-07
1.58525e-13
-1.19633e-07
4.88007e-07
2.82466e-13
-1.18574e-07
5.44857e-07
3.01131e-13
-1.16954e-07
6.00836e-07
2.75955e-13
-1.14892e-07
6.55766e-07
2.67753e-13
-1.12488e-07
7.0951e-07
3.03584e-13
-1.09826e-07
7.61966e-07
3.74138e-13
-1.06975e-07
8.13059e-07
4.41778e-13
-1.03994e-07
8.6274e-07
4.60359e-13
-1.0093e-07
9.10978e-07
4.14215e-13
-9.78225e-08
9.57759e-07
3.41994e-13
-9.47032e-08
1.00308e-06
3.0655e-13
-9.15977e-08
1.04695e-06
3.32237e-13
-8.8526e-08
1.08938e-06
3.855e-13
-8.55037e-08
1.13039e-06
4.12533e-13
-8.25427e-08
1.17002e-06
3.7906e-13
-7.96515e-08
1.2083e-06
2.83386e-13
-7.6836e-08
1.24525e-06
1.5886e-13
-7.41001e-08
1.28092e-06
5.95646e-14
-7.14458e-08
1.31533e-06
2.37875e-14
-6.88738e-08
1.34853e-06
3.99133e-14
-6.63838e-08
1.38056e-06
5.47207e-14
-6.39749e-08
1.41143e-06
1.0506e-14
-6.16454e-08
1.4412e-06
-1.17919e-13
-5.93931e-08
1.46989e-06
-3.08295e-13
-5.72155e-08
1.49755e-06
-4.97033e-13
-5.51098e-08
1.52419e-06
-6.10012e-13
-5.30732e-08
1.54985e-06
-6.07694e-13
-5.11029e-08
1.57457e-06
-5.13797e-13
-4.91961e-08
1.59836e-06
-4.02178e-13
-4.73501e-08
1.62127e-06
-3.4879e-13
-4.55622e-08
1.64331e-06
-3.84373e-13
-4.383e-08
1.66451e-06
-4.7852e-13
-4.21508e-08
1.68489e-06
-5.60565e-13
-4.05222e-08
1.70448e-06
-5.60357e-13
-3.89419e-08
1.72331e-06
-4.45075e-13
-3.74077e-08
1.74138e-06
-2.36144e-13
-3.59176e-08
1.75873e-06
2.387e-15
-3.44696e-08
1.77537e-06
1.95344e-13
-3.3062e-08
1.79133e-06
2.9364e-13
-3.16931e-08
1.80661e-06
2.96124e-13
-3.03613e-08
1.82124e-06
2.47441e-13
-2.9065e-08
1.83524e-06
2.12663e-13
-2.78026e-08
1.84861e-06
2.4343e-13
-2.65728e-08
1.86138e-06
3.53759e-13
-2.53742e-08
1.87356e-06
5.15657e-13
-2.42056e-08
1.88515e-06
6.75016e-13
-2.30657e-08
1.89619e-06
7.77864e-13
-2.19533e-08
1.90668e-06
7.94559e-13
-2.08674e-08
1.91663e-06
7.30124e-13
-1.98067e-08
1.92606e-06
6.16091e-13
-1.87702e-08
1.93497e-06
4.91683e-13
-1.77569e-08
1.94338e-06
3.8574e-13
-1.67656e-08
1.9513e-06
3.07698e-13
-1.57953e-08
1.95873e-06
2.48739e-13
-1.4845e-08
1.9657e-06
1.89695e-13
-1.39137e-08
1.9722e-06
1.11432e-13
-1.30002e-08
1.97824e-06
4.24662e-15
-1.21037e-08
1.98385e-06
-1.26045e-13
-1.12231e-08
1.98901e-06
-2.59549e-13
-1.03576e-08
1.99374e-06
-3.70606e-13
-9.50621e-09
1.99805e-06
-4.38372e-13
-8.66809e-09
2.00193e-06
-4.53998e-13
-7.84236e-09
2.00541e-06
-4.20289e-13
-7.02818e-09
2.00848e-06
-3.46438e-13
-6.22472e-09
2.01115e-06
-2.43867e-13
-5.43121e-09
2.01341e-06
-1.25636e-13
-4.64694e-09
2.01529e-06
-7.58419e-15
-3.87132e-09
2.01678e-06
9.278e-14
-3.10382e-09
2.01788e-06
1.60552e-13
-2.34402e-09
2.0186e-06
1.89168e-13
-1.59156e-09
2.01894e-06
1.82403e-13
-8.46159e-10
2.01891e-06
1.51039e-13
-1.07607e-10
2.01851e-06
1.06588e-13
6.2422e-10
2.01775e-06
5.9501e-14
1.34941e-09
2.01662e-06
1.89293e-14
2.06798e-09
2.01513e-06
-8.72218e-15
2.77975e-09
2.01329e-06
-2.29538e-14
3.48448e-09
2.0111e-06
-3.61239e-14
4.18184e-09
2.00856e-06
-7.65152e-14
4.87146e-09
2.00568e-06
-1.80168e-13
5.55291e-09
2.00246e-06
-3.68934e-13
6.22567e-09
1.99891e-06
-6.23841e-13
6.88917e-09
1.99503e-06
-8.71532e-13
7.54283e-09
1.99083e-06
-9.99027e-13
8.18619e-09
1.98631e-06
-8.98226e-13
8.81892e-09
1.98148e-06
-5.23949e-13
9.44085e-09
1.97634e-06
6.26721e-14
1.00519e-08
1.9709e-06
6.9196e-13
1.06522e-08
1.96516e-06
1.13607e-12
1.12415e-08
1.95913e-06
1.19647e-12
1.182e-08
1.95282e-06
7.95926e-13
1.2388e-08
1.94623e-06
3.0656e-14
1.29459e-08
1.93936e-06
-8.46691e-13
1.34945e-08
1.93222e-06
-1.51665e-12
1.40349e-08
1.92482e-06
-1.72237e-12
1.45682e-08
1.91715e-06
-1.38341e-12
1.50957e-08
1.90921e-06
-6.39461e-13
1.56185e-08
1.901e-06
2.01825e-13
1.6138e-08
1.89253e-06
7.95197e-13
1.66556e-08
1.8838e-06
9.07316e-13
1.71726e-08
1.8748e-06
5.17489e-13
1.76907e-08
1.86554e-06
-1.79842e-13
1.82115e-08
1.85601e-06
-8.70207e-13
1.87368e-08
1.84621e-06
-1.26638e-12
1.92684e-08
1.83614e-06
-1.23479e-12
1.98078e-08
1.82579e-06
-8.41299e-13
2.03563e-08
1.81516e-06
-3.01772e-13
2.09147e-08
1.80423e-06
1.30201e-13
2.14836e-08
1.79302e-06
2.78763e-13
2.2064e-08
1.7815e-06
1.10162e-13
2.26568e-08
1.76968e-06
-2.70978e-13
2.32633e-08
1.75755e-06
-6.81344e-13
2.38846e-08
1.7451e-06
-9.4344e-13
2.45211e-08
1.73233e-06
-9.60607e-13
2.5173e-08
1.71922e-06
-7.54549e-13
2.58401e-08
1.70577e-06
-4.50348e-13
2.65221e-08
1.69197e-06
-2.13954e-13
2.72192e-08
1.67781e-06
-1.73916e-13
2.79316e-08
1.6633e-06
-3.63196e-13
2.86598e-08
1.64841e-06
-7.08003e-13
2.94038e-08
1.63315e-06
-1.06379e-12
3.01636e-08
1.61749e-06
-1.28147e-12
3.09391e-08
1.60145e-06
-1.27935e-12
3.17303e-08
1.58499e-06
-1.08723e-12
3.25374e-08
1.56813e-06
-8.33167e-13
3.33605e-08
1.55084e-06
-6.72129e-13
3.41997e-08
1.53313e-06
-6.9568e-13
3.50554e-08
1.51498e-06
-8.80546e-13
3.5928e-08
1.49638e-06
-1.10491e-12
3.68177e-08
1.47734e-06
-1.21693e-12
3.77251e-08
1.45783e-06
-1.11607e-12
3.86507e-08
1.43785e-06
-8.12281e-13
3.95947e-08
1.4174e-06
-4.30711e-13
4.05576e-08
1.39645e-06
-1.47923e-13
4.15401e-08
1.37501e-06
-9.12048e-14
4.25429e-08
1.35306e-06
-2.70228e-13
4.35673e-08
1.33059e-06
-5.83936e-13
4.46147e-08
1.30759e-06
-8.83807e-13
4.56864e-08
1.28405e-06
-1.0467e-12
4.6784e-08
1.25994e-06
-1.02834e-12
4.79091e-08
1.23526e-06
-8.73135e-13
4.90634e-08
1.20999e-06
-6.73184e-13
5.02493e-08
1.18411e-06
-5.12937e-13
5.14691e-08
1.15762e-06
-4.43243e-13
5.27256e-08
1.13049e-06
-4.75203e-13
5.40216e-08
1.1027e-06
-5.73333e-13
5.53603e-08
1.07424e-06
-6.75709e-13
5.6745e-08
1.04507e-06
-7.40991e-13
5.81796e-08
1.01518e-06
-7.60253e-13
5.96679e-08
9.84537e-07
-7.26322e-13
6.12146e-08
9.53112e-07
-6.30912e-13
6.28242e-08
9.20879e-07
-4.97435e-13
6.45013e-08
8.87804e-07
-3.94337e-13
6.62506e-08
8.53858e-07
-3.89536e-13
6.80764e-08
8.19009e-07
-4.52e-13
6.99826e-08
7.83229e-07
-4.45519e-13
7.19718e-08
7.4649e-07
-3.10446e-13
7.40448e-08
7.0877e-07
-1.55181e-13
7.61989e-08
6.70053e-07
-7.99499e-14
7.84268e-08
6.30329e-07
-6.83065e-14
8.07147e-08
5.89599e-07
-1.00364e-13
8.30383e-08
5.47864e-07
-1.78968e-13
8.53649e-08
5.05104e-07
-2.43583e-13
8.76398e-08
4.61212e-07
-4.54609e-13
8.97802e-08
4.1585e-07
-9.95398e-13
9.18094e-08
3.74935e-07
-7.06712e-13
9.40879e-08
3.3375e-07
-5.05623e-13
9.26648e-08
2.84419e-07
-8.33472e-13
8.99007e-08
2.39376e-07
4.44367e-14
8.97476e-08
1.95059e-07
1.34648e-12
8.8323e-08
1.50962e-07
2.36106e-12
8.53901e-08
1.09031e-07
4.90943e-12
8.16288e-08
7.04644e-08
7.25239e-12
7.54072e-08
3.49048e-08
-1.86657e-11
6.75346e-08
4.40767e-09
-9.02425e-12
5.76543e-08
-2.00883e-08
1.39888e-11
4.5766e-08
-3.80294e-08
3.0474e-11
3.1658e-08
-4.88669e-08
2.505e-11
1.4883e-08
-5.19456e-08
1.90701e-11
-4.49406e-09
-4.6512e-08
1.34107e-11
-2.56574e-08
-3.0734e-08
8.17585e-12
-4.68694e-08
3.6714e-12
-6.65746e-08
-5.20885e-08
9.51473e-08
-8.97218e-08
8.85646e-08
-1.15877e-07
7.20902e-08
-1.3039e-07
4.99343e-08
-1.33046e-07
2.56329e-08
-1.22541e-07
9.71736e-10
-1.02412e-07
-2.32617e-08
-7.68578e-08
-4.51448e-08
-4.14167e-08
-6.31041e-08
-1.36277e-12
-7.98035e-08
4.46306e-08
-9.343e-08
9.3642e-08
-1.03137e-07
1.46031e-07
-1.101e-07
2.00866e-07
-1.14835e-07
2.57342e-07
-1.1783e-07
3.14785e-07
-1.19459e-07
3.72654e-07
-1.19987e-07
4.30513e-07
-1.19634e-07
4.88009e-07
-1.18575e-07
5.44859e-07
-1.16954e-07
6.00838e-07
-1.14892e-07
6.55768e-07
-1.12488e-07
7.09511e-07
-1.09826e-07
7.61966e-07
-1.06976e-07
8.1306e-07
-1.03994e-07
8.62741e-07
-1.0093e-07
9.1098e-07
-9.78229e-08
9.5776e-07
-9.47035e-08
1.00308e-06
-9.15979e-08
1.04695e-06
-8.85261e-08
1.08938e-06
-8.55037e-08
1.13039e-06
-8.25426e-08
1.17002e-06
-7.96512e-08
1.2083e-06
-7.68355e-08
1.24525e-06
-7.40994e-08
1.28092e-06
-7.14448e-08
1.31534e-06
-6.88727e-08
1.34854e-06
-6.63827e-08
1.38056e-06
-6.39737e-08
1.41143e-06
-6.16442e-08
1.4412e-06
-5.93918e-08
1.4699e-06
-5.72142e-08
1.49755e-06
-5.51086e-08
1.52419e-06
-5.30721e-08
1.54985e-06
-5.1102e-08
1.57457e-06
-4.91953e-08
1.59836e-06
-4.73495e-08
1.62127e-06
-4.55618e-08
1.64331e-06
-4.38296e-08
1.66451e-06
-4.21505e-08
1.68489e-06
-4.05221e-08
1.70448e-06
-3.8942e-08
1.72331e-06
-3.7408e-08
1.74138e-06
-3.5918e-08
1.75873e-06
-3.44702e-08
1.77537e-06
-3.30626e-08
1.79133e-06
-3.16937e-08
1.80661e-06
-3.03618e-08
1.82124e-06
-2.90654e-08
1.83524e-06
-2.7803e-08
1.84861e-06
-2.65733e-08
1.86138e-06
-2.53749e-08
1.87355e-06
-2.42064e-08
1.88516e-06
-2.30666e-08
1.89619e-06
-2.19543e-08
1.90668e-06
-2.08684e-08
1.91663e-06
-1.98078e-08
1.92606e-06
-1.87714e-08
1.93497e-06
-1.77582e-08
1.94338e-06
-1.6767e-08
1.9513e-06
-1.57969e-08
1.95874e-06
-1.48467e-08
1.9657e-06
-1.39154e-08
1.9722e-06
-1.30019e-08
1.97825e-06
-1.21053e-08
1.98385e-06
-1.12245e-08
1.98901e-06
-1.03587e-08
1.99374e-06
-9.50707e-09
1.99805e-06
-8.66865e-09
2.00194e-06
-7.84262e-09
2.00541e-06
-7.02816e-09
2.00848e-06
-6.22443e-09
2.01114e-06
-5.4307e-09
2.01341e-06
-4.64627e-09
2.01529e-06
-3.87054e-09
2.01678e-06
-3.103e-09
2.01788e-06
-2.34321e-09
2.0186e-06
-1.59082e-09
2.01894e-06
-8.45525e-10
2.01891e-06
-1.07119e-10
2.01851e-06
6.24548e-10
2.01775e-06
1.34961e-09
2.01662e-06
2.06812e-09
2.01513e-06
2.77996e-09
2.01329e-06
3.48487e-09
2.0111e-06
4.1825e-09
2.00856e-06
4.87239e-09
2.00568e-06
5.55401e-09
2.00246e-06
6.22678e-09
1.99891e-06
6.8901e-09
1.99503e-06
7.54342e-09
1.99083e-06
8.18637e-09
1.9863e-06
8.81874e-09
1.98147e-06
9.44046e-09
1.97633e-06
1.00516e-08
1.9709e-06
1.0652e-08
1.96516e-06
1.12418e-08
1.95914e-06
1.18208e-08
1.95283e-06
1.23891e-08
1.94623e-06
1.29471e-08
1.93937e-06
1.34956e-08
1.93223e-06
1.40354e-08
1.92482e-06
1.4568e-08
1.91714e-06
1.50947e-08
1.9092e-06
1.56172e-08
1.901e-06
1.61369e-08
1.89253e-06
1.66551e-08
1.8838e-06
1.7173e-08
1.87481e-06
1.76917e-08
1.86554e-06
1.82126e-08
1.85602e-06
1.87374e-08
1.84622e-06
1.92683e-08
1.83614e-06
1.98072e-08
1.82579e-06
2.03556e-08
1.81515e-06
2.09142e-08
1.80423e-06
2.14837e-08
1.79302e-06
2.20644e-08
1.7815e-06
2.26574e-08
1.76968e-06
2.32638e-08
1.75755e-06
2.38848e-08
1.7451e-06
2.45211e-08
1.73233e-06
2.51729e-08
1.71922e-06
2.58399e-08
1.70577e-06
2.65222e-08
1.69197e-06
2.72197e-08
1.67781e-06
2.79326e-08
1.6633e-06
2.86611e-08
1.64841e-06
2.94051e-08
1.63315e-06
3.01647e-08
1.6175e-06
3.094e-08
1.60145e-06
3.17312e-08
1.58499e-06
3.25383e-08
1.56813e-06
3.33617e-08
1.55084e-06
3.42012e-08
1.53313e-06
3.50569e-08
1.51498e-06
3.5929e-08
1.49638e-06
3.68182e-08
1.47734e-06
3.77251e-08
1.45783e-06
3.86503e-08
1.43785e-06
3.95944e-08
1.41739e-06
4.05577e-08
1.39645e-06
4.15405e-08
1.37501e-06
4.25438e-08
1.35306e-06
4.35684e-08
1.3306e-06
4.46158e-08
1.3076e-06
4.56873e-08
1.28405e-06
4.67847e-08
1.25994e-06
4.79097e-08
1.23526e-06
4.90641e-08
1.20999e-06
5.02502e-08
1.18411e-06
5.14702e-08
1.15762e-06
5.27268e-08
1.13049e-06
5.40229e-08
1.10271e-06
5.53616e-08
1.07424e-06
5.67462e-08
1.04508e-06
5.81806e-08
1.01518e-06
5.96689e-08
9.84539e-07
6.12156e-08
9.53115e-07
6.28252e-08
9.20881e-07
6.45023e-08
8.87807e-07
6.62514e-08
8.5386e-07
6.80769e-08
8.19011e-07
6.99828e-08
7.83231e-07
7.19719e-08
7.46493e-07
7.40449e-08
7.08775e-07
7.61991e-08
6.7006e-07
7.84274e-08
6.30339e-07
8.07155e-08
5.89611e-07
8.30387e-08
5.47878e-07
8.53646e-08
5.05119e-07
8.76393e-08
4.61228e-07
8.97794e-08
4.15865e-07
9.18081e-08
3.74949e-07
9.40883e-08
3.33764e-07
9.26667e-08
2.8445e-07
8.98963e-08
2.39414e-07
8.97369e-08
1.95114e-07
8.83108e-08
1.5107e-07
8.53782e-08
1.09228e-07
8.16157e-08
7.07735e-08
7.53669e-08
3.5293e-08
6.75181e-08
4.36018e-09
5.77854e-08
-2.03171e-08
4.58109e-08
-3.82064e-08
3.16248e-08
-4.89716e-08
1.48591e-08
-5.19992e-08
-4.50368e-09
-4.65378e-08
-2.56578e-08
-3.07566e-08
-4.68655e-08
-6.65771e-08
-4.08349e-08
-4.49677e-12
1.36042e-07
-6.54622e-08
4.73076e-13
1.13248e-07
-7.65782e-08
1.21946e-12
8.32286e-08
-7.65256e-08
1.11734e-12
4.99005e-08
-6.65387e-08
7.99237e-13
1.56655e-08
-4.78287e-08
4.19357e-13
-1.77202e-08
-2.22717e-08
1.87082e-13
-4.88036e-08
8.92352e-09
3.20389e-13
-7.63257e-08
4.56883e-08
2.62433e-13
-9.98566e-08
8.6022e-08
-1.10381e-13
-1.20127e-07
1.29322e-07
-2.50826e-13
-1.3672e-07
1.75725e-07
-1.49908e-13
-1.49529e-07
2.24748e-07
-1.30162e-13
-1.59113e-07
2.75855e-07
-1.94438e-13
-1.65932e-07
3.28485e-07
-1.9736e-13
-1.70452e-07
3.82117e-07
-9.14249e-14
-1.73082e-07
4.36295e-07
5.2917e-14
-1.74158e-07
4.90635e-07
1.48326e-13
-1.73967e-07
5.44812e-07
1.61766e-13
-1.72745e-07
5.98559e-07
1.24705e-13
-1.70694e-07
6.51655e-07
9.5956e-14
-1.67981e-07
7.03923e-07
1.09445e-13
-1.64749e-07
7.5522e-07
1.57517e-13
-1.61117e-07
8.05436e-07
2.1148e-13
-1.57186e-07
8.54488e-07
2.40921e-13
-1.53041e-07
9.02313e-07
2.24601e-13
-1.4875e-07
9.48869e-07
1.66022e-13
-1.44373e-07
9.94127e-07
9.75002e-14
-1.39956e-07
1.03807e-06
5.65257e-14
-1.35539e-07
1.0807e-06
5.32434e-14
-1.31151e-07
1.12202e-06
6.49074e-14
-1.26817e-07
1.16204e-06
5.8003e-14
-1.22556e-07
1.20077e-06
1.28792e-14
-1.18381e-07
1.23824e-06
-6.54819e-14
-1.14304e-07
1.27448e-06
-1.49373e-13
-1.10329e-07
1.30949e-06
-2.05877e-13
-1.06463e-07
1.34333e-06
-2.21697e-13
-1.02707e-07
1.37601e-06
-2.13836e-13
-9.9062e-08
1.40756e-06
-2.1632e-13
-9.55277e-08
1.43802e-06
-2.55844e-13
-9.21024e-08
1.46741e-06
-3.35849e-13
-8.87839e-08
1.49576e-06
-4.33507e-13
-8.55693e-08
1.5231e-06
-5.09086e-13
-8.24554e-08
1.54946e-06
-5.26419e-13
-7.94388e-08
1.57487e-06
-4.76917e-13
-7.6516e-08
1.59936e-06
-3.87857e-13
-7.36834e-08
1.62294e-06
-3.06276e-13
-7.09376e-08
1.64565e-06
-2.68743e-13
-6.8275e-08
1.66751e-06
-2.79679e-13
-6.56922e-08
1.68854e-06
-3.10654e-13
-6.31858e-08
1.70877e-06
-3.17732e-13
-6.07526e-08
1.72822e-06
-2.65794e-13
-5.83896e-08
1.7469e-06
-1.47014e-13
-5.60937e-08
1.76484e-06
1.46896e-14
-5.38623e-08
1.78207e-06
1.75505e-13
-5.16926e-08
1.79859e-06
2.93314e-13
-4.95822e-08
1.81442e-06
3.47992e-13
-4.75286e-08
1.82959e-06
3.49942e-13
-4.55295e-08
1.84411e-06
3.3315e-13
-4.35826e-08
1.85799e-06
3.37279e-13
-4.16859e-08
1.87126e-06
3.88183e-13
-3.98374e-08
1.88392e-06
4.86465e-13
-3.80351e-08
1.89599e-06
6.08485e-13
-3.62773e-08
1.90749e-06
7.18849e-13
-3.45621e-08
1.91842e-06
7.87516e-13
-3.28879e-08
1.92881e-06
8.02441e-13
-3.12528e-08
1.93866e-06
7.72229e-13
-2.96553e-08
1.94798e-06
7.18613e-13
-2.80936e-08
1.95679e-06
6.64156e-13
-2.65664e-08
1.96509e-06
6.22814e-13
-2.5072e-08
1.9729e-06
5.96113e-13
-2.36089e-08
1.98023e-06
5.74402e-13
-2.21756e-08
1.98709e-06
5.41879e-13
-2.07707e-08
1.99348e-06
4.83086e-13
-1.93927e-08
1.99941e-06
3.89966e-13
-1.80401e-08
2.0049e-06
2.65517e-13
-1.67115e-08
2.00994e-06
1.22395e-13
-1.54055e-08
2.01455e-06
-2.23294e-14
-1.41209e-08
2.01874e-06
-1.53183e-13
-1.28562e-08
2.02251e-06
-2.59195e-13
-1.16104e-08
2.02586e-06
-3.34038e-13
-1.03821e-08
2.0288e-06
-3.74575e-13
-9.17018e-09
2.03134e-06
-3.80682e-13
-7.97358e-09
2.03348e-06
-3.56389e-13
-6.79128e-09
2.03523e-06
-3.10078e-13
-5.62239e-09
2.03659e-06
-2.52152e-13
-4.46614e-09
2.03757e-06
-1.90334e-13
-3.32187e-09
2.03816e-06
-1.25948e-13
-2.18907e-09
2.03838e-06
-5.38181e-14
-1.06733e-09
2.03822e-06
3.24463e-14
4.35953e-11
2.0377e-06
1.33435e-13
1.1439e-09
2.03681e-06
2.39059e-13
2.23368e-09
2.03556e-06
3.28848e-13
3.31288e-09
2.03395e-06
3.75269e-13
4.3813e-09
2.03199e-06
3.50685e-13
5.43856e-09
2.02968e-06
2.33931e-13
6.48416e-09
2.02703e-06
1.93387e-14
7.51755e-09
2.02404e-06
-2.73503e-13
8.53811e-09
2.02072e-06
-5.91811e-13
9.54523e-09
2.01707e-06
-8.5057e-13
1.05383e-08
2.01309e-06
-9.51197e-13
1.15168e-08
2.00879e-06
-8.17166e-13
1.24801e-08
2.00418e-06
-4.36026e-13
1.34277e-08
1.99926e-06
1.13055e-13
1.43592e-08
1.99403e-06
6.65669e-13
1.52744e-08
1.9885e-06
1.02047e-12
1.6173e-08
1.98268e-06
1.01702e-12
1.70553e-08
1.97658e-06
6.12899e-13
1.79216e-08
1.97019e-06
-7.69524e-14
1.87728e-08
1.96352e-06
-8.06161e-13
1.96099e-08
1.95657e-06
-1.2881e-12
2.04342e-08
1.94936e-06
-1.31917e-12
2.12469e-08
1.94187e-06
-8.78478e-13
2.20496e-08
1.93412e-06
-1.51018e-13
2.28437e-08
1.9261e-06
5.45737e-13
2.3631e-08
1.91781e-06
9.0495e-13
2.44134e-08
1.90927e-06
7.74568e-13
2.51933e-08
1.90046e-06
2.30302e-13
2.59732e-08
1.89138e-06
-4.62561e-13
2.67553e-08
1.88204e-06
-9.80438e-13
2.7542e-08
1.87244e-06
-1.0992e-12
2.83352e-08
1.86256e-06
-7.97591e-13
2.91372e-08
1.85241e-06
-2.56066e-13
2.99498e-08
1.84197e-06
2.45089e-13
3.07749e-08
1.83126e-06
4.70075e-13
3.16142e-08
1.82027e-06
3.3909e-13
3.24692e-08
1.80898e-06
-4.71984e-14
3.33412e-08
1.79739e-06
-4.74003e-13
3.42318e-08
1.7855e-06
-7.28695e-13
3.51422e-08
1.7733e-06
-7.04367e-13
3.60735e-08
1.76078e-06
-4.43777e-13
3.70265e-08
1.74794e-06
-1.07123e-13
3.80013e-08
1.73477e-06
1.1606e-13
3.89979e-08
1.72126e-06
1.05214e-13
4.00165e-08
1.70741e-06
-1.32727e-13