/*--------------------------------*- C++ -*----------------------------------*\
  =========                 |
  \\      /  F ield         | OpenFOAM: The Open Source CFD Toolbox
   \\    /   O peration     | Website:  https://openfoam.org
    \\  /    A nd           | Version:  8
     \\/     M anipulation  |
\*---------------------------------------------------------------------------*/
FoamFile
{
    version     2.0;
    format      ascii;
    class       volScalarField;
    location    "2800";
    object      alphat;
}
// * * * * * * * * * * * * * * * * * * * * * * * * * * * * * * * * * * * * * //

dimensions      [1 -1 -1 0 0 0 0];

internalField   nonuniform List<scalar> 
48000
(
4.2679e-05
7.74935e-05
9.77236e-05
0.000111811
0.000123487
0.000133297
0.000141786
0.00014938
0.000156404
0.000162829
0.000168806
0.000174398
0.000179657
0.000184624
0.00018933
0.0001938
0.000198054
0.000202108
0.000205975
0.000209668
0.000213194
0.000216563
0.000219781
0.000222855
0.00022579
0.000228591
0.000231263
0.00023381
0.000236236
0.000238544
0.000240739
0.000242824
0.000244803
0.000246677
0.000248452
0.000250129
0.000251713
0.000253205
0.000254609
0.000255928
0.000257165
0.000258322
0.000259402
0.000260408
0.000261342
0.00026222
0.000263033
0.000263781
0.000264467
0.000265093
0.000265661
0.000266175
0.000266635
0.000267045
0.000267406
0.000267721
0.000267991
0.000268219
0.000268405
0.000268552
0.000268661
0.000268735
0.000268774
0.000268779
0.000268753
0.000268696
0.00026861
0.000268496
0.000268355
0.000268188
0.000267997
0.000267781
0.000267542
0.000267282
0.000266999
0.000266697
0.000266374
0.000266032
0.000265672
0.000265294
0.000264898
0.000264486
0.000264057
0.000263613
0.000263153
0.000262677
0.000262188
0.000261683
0.000261165
0.000260633
0.000260087
0.000259528
0.000258956
0.000258371
0.000257773
0.000257163
0.00025654
0.000255904
0.000255256
0.000254596
0.000253924
0.000253239
0.000252542
0.000251832
0.00025111
0.000250376
0.000249629
0.000248869
0.000248097
0.000247312
0.000246514
0.000245703
0.000244878
0.000244041
0.000243189
0.000242324
0.000241444
0.000240551
0.000239643
0.00023872
0.000237782
0.000236829
0.000235861
0.000234876
0.000233876
0.00023286
0.000231827
0.000230777
0.00022971
0.000228625
0.000227522
0.000226402
0.000225263
0.000224106
0.000222929
0.000221733
0.000220517
0.000219282
0.000218026
0.000216749
0.000215452
0.000214133
0.000212793
0.000211431
0.000210046
0.000208639
0.00020721
0.000205757
0.00020428
0.00020278
0.000201256
0.000199707
0.000198134
0.000196535
0.000194911
0.000193261
0.000191585
0.000189883
0.000188153
0.000186396
0.000184611
0.000182798
0.000180956
0.000179085
0.000177184
0.000175252
0.000173288
0.000171292
0.000169264
0.000167201
0.000165102
0.000162967
0.000160794
0.000158581
0.000156327
0.000154029
0.000151684
0.00014929
0.000146844
0.000144342
0.000141781
0.000139157
0.000136472
0.000133731
0.000130902
0.00012797
0.000124921
0.000121738
0.000118396
0.000114868
0.000111114
0.000107083
0.000102734
9.79834e-05
9.26567e-05
8.65176e-05
7.91552e-05
6.9834e-05
5.82109e-05
0.000147157
4.2674e-05
7.74969e-05
9.7725e-05
0.000111811
0.000123488
0.000133297
0.000141786
0.00014938
0.000156404
0.00016283
0.000168806
0.000174398
0.000179657
0.000184624
0.00018933
0.0001938
0.000198054
0.000202108
0.000205975
0.000209668
0.000213194
0.000216563
0.000219781
0.000222855
0.00022579
0.000228591
0.000231263
0.00023381
0.000236236
0.000238544
0.000240739
0.000242824
0.000244803
0.000246677
0.000248452
0.000250129
0.000251713
0.000253205
0.000254609
0.000255928
0.000257165
0.000258322
0.000259402
0.000260408
0.000261342
0.00026222
0.000263033
0.000263781
0.000264467
0.000265093
0.000265661
0.000266175
0.000266635
0.000267045
0.000267406
0.000267721
0.000267991
0.000268219
0.000268405
0.000268552
0.000268661
0.000268735
0.000268774
0.000268779
0.000268753
0.000268696
0.00026861
0.000268496
0.000268355
0.000268188
0.000267997
0.000267781
0.000267542
0.000267281
0.000266999
0.000266697
0.000266374
0.000266032
0.000265672
0.000265294
0.000264898
0.000264486
0.000264057
0.000263613
0.000263152
0.000262677
0.000262187
0.000261683
0.000261165
0.000260633
0.000260087
0.000259528
0.000258956
0.000258371
0.000257773
0.000257163
0.00025654
0.000255904
0.000255256
0.000254596
0.000253924
0.000253239
0.000252542
0.000251832
0.00025111
0.000250376
0.000249629
0.000248869
0.000248097
0.000247312
0.000246514
0.000245703
0.000244878
0.000244041
0.000243189
0.000242324
0.000241444
0.000240551
0.000239643
0.00023872
0.000237782
0.000236829
0.000235861
0.000234876
0.000233876
0.00023286
0.000231827
0.000230777
0.000229709
0.000228625
0.000227522
0.000226402
0.000225263
0.000224105
0.000222929
0.000221733
0.000220517
0.000219282
0.000218026
0.000216749
0.000215452
0.000214133
0.000212793
0.000211431
0.000210046
0.000208639
0.00020721
0.000205757
0.00020428
0.00020278
0.000201256
0.000199707
0.000198134
0.000196535
0.000194911
0.000193261
0.000191585
0.000189883
0.000188153
0.000186396
0.000184611
0.000182798
0.000180956
0.000179085
0.000177184
0.000175252
0.000173288
0.000171292
0.000169264
0.000167201
0.000165102
0.000162967
0.000160794
0.000158581
0.000156327
0.000154029
0.000151684
0.00014929
0.000146844
0.000144342
0.000141781
0.000139157
0.000136472
0.000133731
0.000130902
0.00012797
0.000124921
0.000121738
0.000118396
0.000114868
0.000111114
0.000107083
0.000102734
9.79834e-05
9.26568e-05
8.65176e-05
7.91553e-05
6.9835e-05
5.82147e-05
0.000147173
6.74917e-05
0.000504627
0.000802614
0.00101018
0.00116491
0.0012918
0.00140052
0.00149601
0.001581
0.00165814
0.00172878
0.00179398
0.00185454
0.00191108
0.00196407
0.00201391
0.00206091
0.00210533
0.00214739
0.00218726
0.00222512
0.00226109
0.0022953
0.00232784
0.0023588
0.00238828
0.00241634
0.00244305
0.00246847
0.00249266
0.00251567
0.00253753
0.00255831
0.00257804
0.00259676
0.00261451
0.00263132
0.00264722
0.00266226
0.00267645
0.00268983
0.00270243
0.00271426
0.00272534
0.00273563
0.00274502
0.00275371
0.00276178
0.00276927
0.0027762
0.00278259
0.00278848
0.00279387
0.00279879
0.00280326
0.00280728
0.00281089
0.00281408
0.00281689
0.00281932
0.00282138
0.00282309
0.00282446
0.00282551
0.00282624
0.00282667
0.00282681
0.00282666
0.00282624
0.00282555
0.00282461
0.00282342
0.00282199
0.00282033
0.00281844
0.00281634
0.00281402
0.0028115
0.00280878
0.00280586
0.00280275
0.00279946
0.00279598
0.00279233
0.00278851
0.00278451
0.00278035
0.00277603
0.00277154
0.0027669
0.0027621
0.00275714
0.00275203
0.00274678
0.00274137
0.00273581
0.00273011
0.00272426
0.00271827
0.00271213
0.00270584
0.00269941
0.00269283
0.0026861
0.00267923
0.00267222
0.00266505
0.00265774
0.00265027
0.00264266
0.00263489
0.00262697
0.00261889
0.00261066
0.00260226
0.00259371
0.00258499
0.0025761
0.00256705
0.00255783
0.00254843
0.00253886
0.00252911
0.00251918
0.00250907
0.00249877
0.00248829
0.00247761
0.00246673
0.00245566
0.00244438
0.00243291
0.00242122
0.00240932
0.00239721
0.00238489
0.00237234
0.00235957
0.00234657
0.00233335
0.00231989
0.00230619
0.00229225
0.00227807
0.00226365
0.00224897
0.00223404
0.00221886
0.00220341
0.0021877
0.00217173
0.00215548
0.00213896
0.00212216
0.00210508
0.00208771
0.00207005
0.00205209
0.00203383
0.00201526
0.00199639
0.00197719
0.00195766
0.00193781
0.00191761
0.00189706
0.00187616
0.00185488
0.00183321
0.00181115
0.00178868
0.00176577
0.00174242
0.00171859
0.00169426
0.0016694
0.00164398
0.00161796
0.00159127
0.00156388
0.00153569
0.00150659
0.00147644
0.00144507
0.00141245
0.00137849
0.00134301
0.00130576
0.00126645
0.00122461
0.00117963
0.00113049
0.00107529
0.00101261
0.000940058
0.000853239
0.000744151
0.000596716
0.000374596
5.05542e-05
6.74952e-05
0.000504648
0.000802632
0.0010102
0.00116494
0.00129183
0.00140055
0.00149604
0.00158103
0.00165817
0.00172881
0.001794
0.00185456
0.0019111
0.00196409
0.00201393
0.00206093
0.00210535
0.0021474
0.00218728
0.00222514
0.00226111
0.00229531
0.00232785
0.00235882
0.0023883
0.00241636
0.00244307
0.00246849
0.00249268
0.00251568
0.00253755
0.00255832
0.00257805
0.00259677
0.00261452
0.00263133
0.00264723
0.00266227
0.00267646
0.00268984
0.00270244
0.00271427
0.00272535
0.00273564
0.00274503
0.00275372
0.00276179
0.00276928
0.00277621
0.0027826
0.00278849
0.00279388
0.0027988
0.00280326
0.00280729
0.00281089
0.00281409
0.0028169
0.00281932
0.00282139
0.0028231
0.00282447
0.00282552
0.00282625
0.00282668
0.00282681
0.00282667
0.00282624
0.00282556
0.00282462
0.00282343
0.002822
0.00282034
0.00281845
0.00281635
0.00281403
0.00281151
0.00280878
0.00280587
0.00280276
0.00279947
0.00279599
0.00279234
0.00278851
0.00278452
0.00278036
0.00277603
0.00277155
0.0027669
0.0027621
0.00275715
0.00275204
0.00274678
0.00274138
0.00273582
0.00273012
0.00272427
0.00271827
0.00271213
0.00270585
0.00269941
0.00269284
0.00268611
0.00267924
0.00267222
0.00266506
0.00265774
0.00265028
0.00264267
0.0026349
0.00262698
0.0026189
0.00261066
0.00260227
0.00259371
0.00258499
0.00257611
0.00256706
0.00255783
0.00254844
0.00253887
0.00252912
0.00251919
0.00250908
0.00249878
0.00248829
0.00247761
0.00246674
0.00245566
0.00244439
0.00243291
0.00242123
0.00240933
0.00239722
0.00238489
0.00237235
0.00235958
0.00234658
0.00233335
0.00231989
0.00230619
0.00229226
0.00227808
0.00226365
0.00224898
0.00223405
0.00221886
0.00220342
0.00218771
0.00217173
0.00215549
0.00213897
0.00212217
0.00210508
0.00208771
0.00207005
0.00205209
0.00203384
0.00201527
0.00199639
0.00197719
0.00195767
0.00193781
0.00191762
0.00189707
0.00187616
0.00185488
0.00183322
0.00181116
0.00178868
0.00176578
0.00174242
0.00171859
0.00169427
0.00166941
0.00164399
0.00161796
0.00159128
0.00156388
0.0015357
0.0015066
0.00147645
0.00144507
0.00141245
0.00137849
0.00134301
0.00130577
0.00126645
0.00122462
0.00117963
0.0011305
0.00107529
0.00101262
0.000940061
0.00085324
0.000744147
0.000596701
0.000374591
5.05478e-05
8.39994e-05
0.000766244
0.00136297
0.00180831
0.00215968
0.00245138
0.00270208
0.00292244
0.00311916
0.00329699
0.00345921
0.00360827
0.00374601
0.00387389
0.00399307
0.00410452
0.00420901
0.00430721
0.00439969
0.00448693
0.00456936
0.00464734
0.0047212
0.00479122
0.00485766
0.00492074
0.00498067
0.00503764
0.0050918
0.0051433
0.00519229
0.00523889
0.00528321
0.00532537
0.00536544
0.00540353
0.00543973
0.0054741
0.00550672
0.00553765
0.00556696
0.00559471
0.00562093
0.00564566
0.00566889
0.00569058
0.00571091
0.00572997
0.00574784
0.00576457
0.00578023
0.00579485
0.00580848
0.00582115
0.00583289
0.00584375
0.00585375
0.00586292
0.00587129
0.00587889
0.00588574
0.00589187
0.00589731
0.00590206
0.00590617
0.00590964
0.0059125
0.00591477
0.00591646
0.00591759
0.00591819
0.00591825
0.00591781
0.00591686
0.00591544
0.00591354
0.00591118
0.00590837
0.00590513
0.00590146
0.00589737
0.00589287
0.00588797
0.00588267
0.005877
0.00587094
0.00586451
0.00585771
0.00585054
0.00584302
0.00583515
0.00582693
0.00581836
0.00580945
0.0058002
0.00579061
0.00578068
0.00577042
0.00575982
0.00574889
0.00573763
0.00572604
0.00571411
0.00570184
0.00568925
0.00567631
0.00566304
0.00564942
0.00563547
0.00562117
0.00560652
0.00559152
0.00557616
0.00556045
0.00554437
0.00552793
0.00551112
0.00549393
0.00547636
0.00545841
0.00544007
0.00542133
0.00540219
0.00538264
0.00536268
0.00534231
0.0053215
0.00530026
0.00527859
0.00525647
0.0052339
0.00521087
0.00518738
0.00516341
0.00513896
0.00511403
0.0050886
0.00506267
0.00503623
0.00500927
0.00498179
0.00495377
0.00492521
0.00489611
0.00486644
0.00483621
0.0048054
0.00477401
0.00474202
0.00470943
0.00467622
0.00464239
0.00460793
0.00457282
0.00453705
0.0045006
0.00446348
0.00442565
0.00438711
0.00434783
0.00430781
0.00426702
0.00422544
0.00418304
0.00413981
0.00409571
0.00405072
0.0040048
0.00395791
0.00391002
0.00386107
0.00381101
0.0037598
0.00370735
0.00365359
0.00359844
0.00354179
0.00348353
0.00342351
0.00336157
0.00329751
0.00323106
0.00316193
0.00308979
0.00301433
0.00293511
0.00285156
0.00276293
0.00266829
0.00256634
0.00245533
0.00233279
0.00219516
0.00203768
0.00185448
0.0016356
0.00136529
0.0010181
0.000557574
6.13506e-05
8.40005e-05
0.000766261
0.00136301
0.00180836
0.00215973
0.00245143
0.00270213
0.0029225
0.00311922
0.00329704
0.00345927
0.00360832
0.00374605
0.00387393
0.00399312
0.00410456
0.00420905
0.00430725
0.00439973
0.00448697
0.00456939
0.00464737
0.00472123
0.00479125
0.00485769
0.00492077
0.0049807
0.00503766
0.00509182
0.00514332
0.00519231
0.00523891
0.00528323
0.00532538
0.00536546
0.00540355
0.00543974
0.00547411
0.00550673
0.00553766
0.00556698
0.00559472
0.00562094
0.00564567
0.0056689
0.00569059
0.00571092
0.00572998
0.00574784
0.00576458
0.00578024
0.00579486
0.00580848
0.00582115
0.0058329
0.00584376
0.00585375
0.00586292
0.0058713
0.00587889
0.00588575
0.00589188
0.00589731
0.00590207
0.00590617
0.00590965
0.00591251
0.00591477
0.00591646
0.0059176
0.00591819
0.00591825
0.00591781
0.00591687
0.00591544
0.00591354
0.00591118
0.00590837
0.00590513
0.00590146
0.00589737
0.00589287
0.00588797
0.00588268
0.005877
0.00587094
0.00586451
0.00585771
0.00585055
0.00584303
0.00583515
0.00582693
0.00581836
0.00580945
0.0058002
0.00579061
0.00578068
0.00577042
0.00575983
0.0057489
0.00573763
0.00572604
0.00571411
0.00570185
0.00568925
0.00567631
0.00566304
0.00564942
0.00563547
0.00562117
0.00560652
0.00559152
0.00557616
0.00556045
0.00554437
0.00552793
0.00551112
0.00549393
0.00547636
0.00545841
0.00544007
0.00542133
0.00540219
0.00538264
0.00536268
0.00534231
0.0053215
0.00530027
0.00527859
0.00525647
0.0052339
0.00521087
0.00518738
0.00516341
0.00513896
0.00511403
0.0050886
0.00506267
0.00503623
0.00500927
0.00498179
0.00495377
0.00492521
0.00489611
0.00486644
0.00483621
0.0048054
0.00477401
0.00474202
0.00470943
0.00467622
0.00464239
0.00460793
0.00457282
0.00453705
0.0045006
0.00446348
0.00442565
0.00438711
0.00434783
0.00430781
0.00426702
0.00422544
0.00418304
0.00413981
0.00409571
0.00405072
0.0040048
0.00395791
0.00391002
0.00386107
0.00381101
0.0037598
0.00370735
0.00365359
0.00359844
0.00354179
0.00348353
0.00342351
0.00336157
0.00329751
0.00323106
0.00316193
0.00308979
0.00301433
0.00293511
0.00285156
0.00276293
0.00266829
0.00256634
0.00245533
0.00233279
0.00219517
0.00203768
0.00185448
0.0016356
0.00136529
0.00101809
0.000557579
6.13503e-05
9.53235e-05
0.00092313
0.00173556
0.00238008
0.00290655
0.00335119
0.00373664
0.00407728
0.00438264
0.00465938
0.0049123
0.00514497
0.00536015
0.00556
0.00574628
0.00592041
0.00608361
0.00623689
0.00638113
0.00651709
0.00664543
0.00676673
0.00688153
0.00699028
0.00709339
0.00719124
0.00728416
0.00737246
0.00745642
0.00753627
0.00761226
0.00768458
0.00775344
0.00781899
0.00788141
0.00794084
0.00799741
0.00805126
0.0081025
0.00815124
0.00819757
0.00824158
0.00828334
0.00832292
0.00836037
0.0083957
0.00842908
0.00846059
0.00849034
0.0085184
0.00854487
0.00856979
0.00859323
0.00861525
0.0086359
0.00865523
0.00867328
0.0086901
0.00870573
0.00872022
0.00873359
0.00874588
0.00875713
0.00876737
0.00877663
0.00878494
0.00879234
0.00879883
0.00880446
0.00880925
0.00881322
0.00881638
0.00881877
0.0088204
0.00882129
0.00882146
0.00882093
0.00881971
0.00881781
0.00881525
0.00881205
0.00880821
0.00880375
0.00879868
0.00879301
0.00878674
0.0087799
0.00877247
0.00876448
0.00875593
0.00874683
0.00873717
0.00872697
0.00871622
0.00870494
0.00869313
0.00868078
0.00866791
0.0086545
0.00864057
0.00862611
0.00861113
0.00859561
0.00857957
0.00856299
0.00854588
0.00852824
0.00851006
0.00849133
0.00847206
0.00845224
0.00843187
0.00841093
0.00838943
0.00836735
0.0083447
0.00832146
0.00829763
0.0082732
0.00824817
0.00822252
0.00819624
0.00816933
0.00814178
0.00811359
0.00808473
0.0080552
0.00802499
0.00799409
0.00796249
0.00793018
0.00789715
0.00786338
0.00782887
0.00779361
0.00775757
0.00772075
0.00768314
0.00764472
0.00760548
0.00756541
0.0075245
0.00748272
0.00744007
0.00739653
0.00735208
0.00730672
0.00726041
0.00721315
0.00716492
0.0071157
0.00706547
0.0070142
0.00696189
0.0069085
0.00685401
0.00679839
0.00674163
0.00668368
0.00662452
0.00656411
0.00650242
0.0064394
0.00637501
0.00630921
0.00624194
0.00617315
0.00610277
0.00603073
0.00595696
0.00588136
0.00580385
0.0057243
0.0056426
0.00555861
0.00547216
0.00538307
0.00529112
0.00519607
0.00509761
0.00499538
0.00488898
0.0047779
0.00466158
0.00453935
0.0044104
0.00427369
0.00412792
0.00397139
0.00380191
0.00361662
0.00341176
0.00318217
0.00292099
0.00261948
0.00226491
0.00183925
0.00131814
0.000679771
6.98695e-05
9.5324e-05
0.000923149
0.00173561
0.00238014
0.00290662
0.00335126
0.00373672
0.00407736
0.00438272
0.00465945
0.00491237
0.00514504
0.00536022
0.00556007
0.00574634
0.00592048
0.00608367
0.00623695
0.00638119
0.00651714
0.00664548
0.00676678
0.00688157
0.00699032
0.00709343
0.00719128
0.0072842
0.0073725
0.00745645
0.0075363
0.00761229
0.00768461
0.00775346
0.00781901
0.00788143
0.00794086
0.00799743
0.00805128
0.00810252
0.00815125
0.00819758
0.00824159
0.00828335
0.00832294
0.00836038
0.00839571
0.00842908
0.0084606
0.00849034
0.00851841
0.00854487
0.00856979
0.00859324
0.00861525
0.0086359
0.00865523
0.00867328
0.00869011
0.00870574
0.00872022
0.00873359
0.00874588
0.00875713
0.00876737
0.00877663
0.00878494
0.00879234
0.00879883
0.00880446
0.00880925
0.00881322
0.00881638
0.00881877
0.0088204
0.00882129
0.00882146
0.00882093
0.0088197
0.00881781
0.00881525
0.00881205
0.00880821
0.00880375
0.00879868
0.00879301
0.00878674
0.0087799
0.00877247
0.00876448
0.00875593
0.00874682
0.00873717
0.00872696
0.00871622
0.00870494
0.00869313
0.00868078
0.0086679
0.0086545
0.00864057
0.00862611
0.00861112
0.00859561
0.00857956
0.00856299
0.00854588
0.00852824
0.00851006
0.00849133
0.00847206
0.00845224
0.00843186
0.00841093
0.00838942
0.00836735
0.0083447
0.00832146
0.00829763
0.0082732
0.00824816
0.00822251
0.00819623
0.00816933
0.00814178
0.00811358
0.00808472
0.00805519
0.00802498
0.00799409
0.00796249
0.00793018
0.00789714
0.00786338
0.00782887
0.0077936
0.00775756
0.00772074
0.00768313
0.00764471
0.00760548
0.00756541
0.00752449
0.00748272
0.00744006
0.00739652
0.00735208
0.00730671
0.0072604
0.00721314
0.00716491
0.00711569
0.00706546
0.0070142
0.00696188
0.00690849
0.006854
0.00679839
0.00674162
0.00668367
0.00662451
0.0065641
0.00650241
0.00643939
0.00637501
0.00630921
0.00624194
0.00617314
0.00610276
0.00603073
0.00595695
0.00588135
0.00580384
0.00572429
0.00564259
0.0055586
0.00547215
0.00538306
0.00529112
0.00519606
0.0050976
0.00499538
0.00488897
0.00477789
0.00466157
0.00453934
0.0044104
0.00427369
0.00412791
0.00397138
0.0038019
0.00361662
0.00341175
0.00318217
0.00292099
0.00261948
0.00226491
0.00183925
0.00131814
0.000679772
6.98696e-05
0.000104418
0.0010305
0.00200139
0.00280464
0.00347637
0.00405164
0.00455474
0.00500212
0.00540513
0.00577183
0.00610813
0.00641845
0.00670623
0.00697416
0.00722443
0.00745884
0.0076789
0.00788589
0.00808093
0.00826497
0.00843887
0.00860338
0.00875917
0.00890684
0.00904695
0.00917998
0.00930638
0.00942656
0.00954088
0.0096497
0.00975331
0.009852
0.00994604
0.0100357
0.0101211
0.0102025
0.0102802
0.0103542
0.0104247
0.010492
0.010556
0.010617
0.0106751
0.0107303
0.0107827
0.0108324
0.0108797
0.0109244
0.0109669
0.0110072
0.0110453
0.0110814
0.0111156
0.0111479
0.0111784
0.0112071
0.0112342
0.0112596
0.0112835
0.0113058
0.0113267
0.0113462
0.0113643
0.0113811
0.0113966
0.0114108
0.0114238
0.0114356
0.0114463
0.0114558
0.0114643
0.0114717
0.0114781
0.0114835
0.0114878
0.0114913
0.0114937
0.0114953
0.0114959
0.0114957
0.0114946
0.0114927
0.0114899
0.0114863
0.0114819
0.0114766
0.0114706
0.0114639
0.0114563
0.011448
0.0114389
0.0114291
0.0114186
0.0114073
0.0113953
0.0113826
0.0113691
0.0113549
0.01134
0.0113244
0.0113081
0.011291
0.0112732
0.0112548
0.0112355
0.0112156
0.0111949
0.0111735
0.0111514
0.0111285
0.0111049
0.0110805
0.0110553
0.0110294
0.0110027
0.0109752
0.0109469
0.0109178
0.0108879
0.0108572
0.0108256
0.0107932
0.0107599
0.0107257
0.0106907
0.0106547
0.0106179
0.0105801
0.0105414
0.0105017
0.0104611
0.0104195
0.0103768
0.0103332
0.0102885
0.0102428
0.010196
0.0101481
0.0100991
0.010049
0.0099977
0.00994527
0.00989166
0.00983685
0.0097808
0.00972351
0.00966494
0.00960507
0.00954387
0.00948133
0.0094174
0.00935206
0.00928528
0.00921702
0.00914725
0.00907594
0.00900304
0.0089285
0.0088523
0.00877437
0.00869466
0.00861311
0.00852968
0.00844427
0.00835684
0.00826728
0.00817553
0.00808147
0.00798501
0.00788601
0.00778437
0.00767991
0.00757248
0.0074619
0.00734794
0.00723036
0.00710889
0.00698321
0.00685293
0.00671763
0.00657679
0.00642981
0.00627597
0.00611446
0.00594426
0.00576417
0.0055727
0.00536797
0.00514767
0.00490883
0.00464768
0.00435939
0.00403767
0.00367447
0.00325934
0.00277895
0.00221584
0.00154987
0.000773316
7.66905e-05
0.000104418
0.00103052
0.00200144
0.00280471
0.00347645
0.00405173
0.00455484
0.00500222
0.00540523
0.00577193
0.00610822
0.00641854
0.00670632
0.00697424
0.00722451
0.00745892
0.00767898
0.00788597
0.008081
0.00826504
0.00843894
0.00860344
0.00875923
0.0089069
0.009047
0.00918003
0.00930643
0.0094266
0.00954092
0.00964974
0.00975335
0.00985204
0.00994608
0.0100357
0.0101211
0.0102026
0.0102802
0.0103542
0.0104248
0.010492
0.010556
0.010617
0.0106751
0.0107303
0.0107827
0.0108325
0.0108797
0.0109245
0.0109669
0.0110072
0.0110453
0.0110814
0.0111156
0.0111479
0.0111784
0.0112071
0.0112342
0.0112596
0.0112835
0.0113058
0.0113267
0.0113462
0.0113643
0.0113811
0.0113966
0.0114108
0.0114238
0.0114356
0.0114463
0.0114558
0.0114643
0.0114717
0.0114781
0.0114835
0.0114878
0.0114913
0.0114937
0.0114953
0.0114959
0.0114957
0.0114946
0.0114927
0.0114899
0.0114863
0.0114819
0.0114766
0.0114706
0.0114638
0.0114563
0.011448
0.0114389
0.0114291
0.0114186
0.0114073
0.0113953
0.0113825
0.0113691
0.0113549
0.01134
0.0113244
0.0113081
0.011291
0.0112732
0.0112547
0.0112355
0.0112156
0.0111949
0.0111735
0.0111514
0.0111285
0.0111049
0.0110805
0.0110553
0.0110294
0.0110027
0.0109752
0.0109469
0.0109178
0.0108879
0.0108572
0.0108256
0.0107932
0.0107599
0.0107257
0.0106907
0.0106547
0.0106179
0.0105801
0.0105414
0.0105017
0.0104611
0.0104194
0.0103768
0.0103332
0.0102885
0.0102428
0.0101959
0.0101481
0.0100991
0.0100489
0.00999769
0.00994526
0.00989165
0.00983684
0.00978079
0.0097235
0.00966493
0.00960506
0.00954386
0.00948132
0.00941739
0.00935205
0.00928527
0.00921701
0.00914724
0.00907593
0.00900303
0.00892849
0.00885229
0.00877436
0.00869465
0.0086131
0.00852967
0.00844426
0.00835683
0.00826727
0.00817552
0.00808146
0.007985
0.00788601
0.00778436
0.0076799
0.00757247
0.00746189
0.00734793
0.00723035
0.00710888
0.0069832
0.00685292
0.00671762
0.00657678
0.0064298
0.00627597
0.00611445
0.00594425
0.00576416
0.00557269
0.00536797
0.00514766
0.00490882
0.00464768
0.00435939
0.00403767
0.00367447
0.00325934
0.00277895
0.00221585
0.00154987
0.000773313
7.66906e-05
0.000112161
0.00111619
0.00220764
0.00313641
0.00392662
0.00461097
0.00521412
0.00575361
0.00624194
0.00668814
0.0070989
0.00747927
0.00783316
0.00816367
0.0084733
0.00876411
0.00903781
0.00929587
0.00953955
0.00976997
0.00998809
0.0101948
0.0103908
0.0105769
0.0107537
0.0109217
0.0110816
0.0112337
0.0113786
0.0115167
0.0116482
0.0117736
0.0118933
0.0120074
0.0121163
0.0122202
0.0123194
0.0124141
0.0125044
0.0125906
0.0126729
0.0127514
0.0128263
0.0128976
0.0129655
0.0130302
0.0130918
0.0131504
0.0132061
0.0132591
0.0133095
0.0133574
0.0134028
0.013446
0.0134869
0.0135256
0.0135623
0.0135969
0.0136297
0.0136605
0.0136896
0.0137169
0.0137424
0.0137664
0.0137888
0.0138096
0.0138289
0.0138467
0.0138631
0.0138781
0.0138918
0.0139042
0.0139153
0.0139251
0.0139337
0.0139411
0.0139474
0.0139525
0.0139565
0.0139594
0.0139612
0.0139619
0.0139616
0.0139603
0.0139579
0.0139546
0.0139503
0.013945
0.0139387
0.0139315
0.0139234
0.0139143
0.0139043
0.0138934
0.0138815
0.0138688
0.0138551
0.0138406
0.0138251
0.0138087
0.0137915
0.0137733
0.0137542
0.0137342
0.0137133
0.0136915
0.0136688
0.0136452
0.0136206
0.0135951
0.0135687
0.0135413
0.0135129
0.0134836
0.0134533
0.013422
0.0133897
0.0133563
0.013322
0.0132866
0.0132502
0.0132127
0.0131741
0.0131344
0.0130936
0.0130517
0.0130086
0.0129643
0.0129189
0.0128723
0.0128244
0.0127753
0.0127249
0.0126732
0.0126203
0.012566
0.0125103
0.0124533
0.0123948
0.012335
0.0122736
0.0122108
0.0121465
0.0120807
0.0120133
0.0119442
0.0118736
0.0118013
0.0117273
0.0116515
0.011574
0.0114946
0.0114134
0.0113303
0.0112452
0.0111581
0.011069
0.0109777
0.0108843
0.0107886
0.0106906
0.0105902
0.0104873
0.0103818
0.0102737
0.0101627
0.0100489
0.009932
0.00981194
0.00968853
0.0095616
0.00943094
0.00929633
0.00915752
0.00901423
0.00886611
0.00871281
0.00855388
0.00838885
0.00821712
0.00803802
0.00785077
0.00765445
0.00744796
0.00722998
0.00699896
0.00675297
0.00648968
0.00620621
0.00589897
0.00556351
0.00519425
0.00478423
0.00432468
0.00380465
0.00321088
0.00252775
0.00173967
0.000850287
8.24572e-05
0.000112161
0.00111621
0.00220769
0.00313648
0.00392671
0.00461106
0.00521422
0.00575372
0.00624205
0.00668825
0.00709901
0.00747937
0.00783327
0.00816378
0.0084734
0.0087642
0.0090379
0.00929596
0.00953964
0.00977005
0.00998816
0.0101948
0.0103909
0.010577
0.0107538
0.0109218
0.0110817
0.0112338
0.0113787
0.0115167
0.0116483
0.0117737
0.0118933
0.0120074
0.0121163
0.0122202
0.0123194
0.0124141
0.0125044
0.0125907
0.012673
0.0127514
0.0128263
0.0128976
0.0129656
0.0130302
0.0130918
0.0131504
0.0132061
0.0132591
0.0133095
0.0133574
0.0134028
0.013446
0.0134869
0.0135256
0.0135623
0.0135969
0.0136297
0.0136605
0.0136896
0.0137169
0.0137424
0.0137664
0.0137888
0.0138096
0.0138289
0.0138467
0.0138631
0.0138781
0.0138918
0.0139042
0.0139153
0.0139251
0.0139337
0.0139411
0.0139474
0.0139525
0.0139565
0.0139594
0.0139612
0.0139619
0.0139616
0.0139603
0.0139579
0.0139546
0.0139503
0.013945
0.0139387
0.0139315
0.0139234
0.0139143
0.0139043
0.0138934
0.0138815
0.0138688
0.0138551
0.0138406
0.0138251
0.0138087
0.0137915
0.0137733
0.0137542
0.0137342
0.0137133
0.0136915
0.0136688
0.0136452
0.0136206
0.0135951
0.0135686
0.0135412
0.0135129
0.0134836
0.0134533
0.013422
0.0133897
0.0133563
0.013322
0.0132866
0.0132502
0.0132127
0.0131741
0.0131344
0.0130936
0.0130517
0.0130086
0.0129643
0.0129189
0.0128723
0.0128244
0.0127753
0.0127249
0.0126732
0.0126203
0.012566
0.0125103
0.0124533
0.0123948
0.012335
0.0122736
0.0122108
0.0121465
0.0120807
0.0120132
0.0119442
0.0118736
0.0118013
0.0117272
0.0116515
0.011574
0.0114946
0.0114134
0.0113303
0.0112452
0.0111581
0.011069
0.0109777
0.0108843
0.0107886
0.0106906
0.0105902
0.0104873
0.0103818
0.0102737
0.0101627
0.0100489
0.00993199
0.00981193
0.00968852
0.00956159
0.00943093
0.00929632
0.00915751
0.00901421
0.0088661
0.0087128
0.00855387
0.00838883
0.0082171
0.00803801
0.00785076
0.00765444
0.00744795
0.00722997
0.00699895
0.00675296
0.00648968
0.0062062
0.00589896
0.0055635
0.00519425
0.00478422
0.00432467
0.00380465
0.00321088
0.00252775
0.00173967
0.000850284
8.24572e-05
0.000119112
0.00118956
0.00237793
0.00340765
0.00429477
0.00506984
0.0057574
0.00637559
0.0069376
0.00745316
0.0079295
0.00837213
0.00878533
0.00917247
0.00953627
0.00987896
0.0102024
0.0105082
0.0107977
0.0110721
0.0113324
0.0115796
0.0118146
0.012038
0.0122506
0.0124531
0.0126459
0.0128297
0.013005
0.0131721
0.0133316
0.0134839
0.0136292
0.013768
0.0139006
0.0140273
0.0141483
0.0142639
0.0143744
0.01448
0.0145808
0.0146772
0.0147692
0.014857
0.0149409
0.0150208
0.0150971
0.0151699
0.0152393
0.0153054
0.0153684
0.0154284
0.0154855
0.0155399
0.0155916
0.0156407
0.0156874
0.0157317
0.0157737
0.0158134
0.015851
0.0158865
0.0159201
0.0159516
0.0159813
0.0160091
0.0160351
0.0160594
0.016082
0.016103
0.0161223
0.0161401
0.0161564
0.0161712
0.0161845
0.0161965
0.016207
0.0162161
0.016224
0.0162305
0.0162357
0.0162397
0.0162424
0.0162439
0.0162442
0.0162433
0.0162413
0.016238
0.0162337
0.0162282
0.0162215
0.0162138
0.0162049
0.016195
0.0161839
0.0161718
0.0161586
0.0161443
0.0161289
0.0161124
0.0160949
0.0160763
0.0160566
0.0160358
0.016014
0.015991
0.0159669
0.0159418
0.0159155
0.0158881
0.0158596
0.0158299
0.0157991
0.0157672
0.015734
0.0156997
0.0156642
0.0156274
0.0155894
0.0155502
0.0155097
0.0154679
0.0154249
0.0153805
0.0153347
0.0152877
0.0152392
0.0151893
0.015138
0.0150852
0.015031
0.0149753
0.014918
0.0148592
0.0147989
0.0147369
0.0146732
0.0146079
0.0145409
0.0144722
0.0144017
0.0143295
0.0142554
0.0141794
0.0141015
0.0140217
0.0139398
0.013856
0.01377
0.013682
0.0135918
0.0134993
0.0134046
0.0133075
0.013208
0.0131061
0.0130016
0.0128945
0.0127847
0.0126721
0.0125567
0.0124383
0.0123168
0.0121921
0.0120641
0.0119326
0.0117975
0.0116587
0.0115159
0.0113689
0.0112175
0.0110614
0.0109005
0.0107342
0.0105624
0.0103846
0.0102002
0.0100089
0.00980993
0.0096026
0.00938611
0.00915947
0.00892157
0.00867106
0.00840636
0.00812559
0.00782646
0.00750624
0.00716159
0.00678845
0.00638185
0.00593575
0.00544273
0.00489377
0.00427803
0.00358281
0.0027944
0.00190136
0.000916299
8.7509e-05
0.000119113
0.00118958
0.00237798
0.00340772
0.00429486
0.00506994
0.00575751
0.0063757
0.00693772
0.00745327
0.00792961
0.00837225
0.00878544
0.00917258
0.00953637
0.00987906
0.0102025
0.0105083
0.0107978
0.0110722
0.0113325
0.0115797
0.0118147
0.0120381
0.0122507
0.0124531
0.012646
0.0128298
0.013005
0.0131722
0.0133317
0.0134839
0.0136293
0.0137681
0.0139007
0.0140273
0.0141483
0.014264
0.0143744
0.01448
0.0145809
0.0146772
0.0147692
0.014857
0.0149409
0.0150209
0.0150972
0.0151699
0.0152393
0.0153054
0.0153684
0.0154284
0.0154855
0.0155399
0.0155916
0.0156407
0.0156874
0.0157317
0.0157737
0.0158134
0.015851
0.0158866
0.0159201
0.0159516
0.0159813
0.0160091
0.0160351
0.0160594
0.016082
0.016103
0.0161223
0.0161401
0.0161564
0.0161712
0.0161845
0.0161965
0.016207
0.0162161
0.016224
0.0162305
0.0162357
0.0162397
0.0162424
0.0162439
0.0162442
0.0162433
0.0162413
0.016238
0.0162337
0.0162282
0.0162215
0.0162138
0.0162049
0.016195
0.0161839
0.0161718
0.0161586
0.0161443
0.0161289
0.0161124
0.0160949
0.0160763
0.0160566
0.0160358
0.016014
0.015991
0.0159669
0.0159418
0.0159155
0.0158881
0.0158596
0.0158299
0.0157991
0.0157672
0.015734
0.0156997
0.0156641
0.0156274