/*--------------------------------*- C++ -*----------------------------------*\
  =========                 |
  \\      /  F ield         | OpenFOAM: The Open Source CFD Toolbox
   \\    /   O peration     | Website:  https://openfoam.org
    \\  /    A nd           | Version:  8
     \\/     M anipulation  |
\*---------------------------------------------------------------------------*/
FoamFile
{
    version     2.0;
    format      ascii;
    class       volScalarField;
    location    "2800";
    object      epsilon;
}
// * * * * * * * * * * * * * * * * * * * * * * * * * * * * * * * * * * * * * //

dimensions      [0 2 -3 0 0 0 0];

internalField   nonuniform List<scalar> 
48000
(
1.41107
3.8988
7.35266
10.9833
14.7941
18.6071
22.3931
26.1886
30.0589
33.9179
37.7915
41.6733
45.5588
49.4432
53.3215
57.1883
61.0377
64.8636
68.6596
72.4191
76.1359
79.8033
83.4151
86.9651
90.4475
93.8568
97.1876
100.435
103.595
106.663
109.636
112.511
115.285
117.955
120.521
122.98
125.332
127.576
129.712
131.741
133.662
135.476
137.184
138.787
140.288
141.708
143.031
144.257
145.387
146.424
147.37
148.227
149
149.69
150.3
150.833
151.291
151.678
151.996
152.247
152.435
152.561
152.628
152.639
152.595
152.5
152.355
152.162
151.923
151.641
151.317
150.952
150.55
150.111
149.636
149.129
148.589
148.018
147.418
146.79
146.135
145.454
144.748
144.019
143.266
142.492
141.696
140.881
140.045
139.191
138.319
137.429
136.523
135.6
134.661
133.706
132.737
131.753
130.755
129.743
128.717
127.678
126.627
125.562
124.485
123.396
122.295
121.182
120.057
118.921
117.774
116.615
115.445
114.263
113.071
111.868
110.655
109.43
108.196
106.95
105.695
104.429
103.153
101.866
100.57
99.2645
97.9489
96.6238
95.2894
93.9457
92.593
91.2315
89.8614
88.4829
87.0963
85.7018
84.2997
82.8904
81.474
80.0511
78.6219
77.1868
75.7463
74.3007
72.8505
71.3962
69.9383
68.4772
67.0135
65.5477
64.0805
62.6123
61.1437
59.6755
58.2081
56.7422
55.2785
53.8176
52.3601
50.9068
49.4582
48.015
46.5779
45.1476
43.7246
42.3095
40.9031
39.5059
38.1185
36.7414
35.3752
34.0204
32.6773
31.3466
30.0284
28.7232
27.4313
26.1529
24.8882
23.6375
22.401
21.1801
19.9774
18.7977
17.6298
16.4713
15.3219
14.18
13.0441
11.9124
10.7822
9.65067
8.52194
7.39343
6.25193
5.08942
3.89528
2.65452
1.34381
0.206289
1.41122
3.89887
7.35281
10.9835
14.7944
18.6074
22.3934
26.1889
30.0593
33.9182
37.7918
41.6736
45.5591
49.4435
53.3218
57.1886
61.038
64.8639
68.6598
72.4194
76.1361
79.8035
83.4153
86.9653
90.4477
93.857
97.1878
100.435
103.595
106.664
109.637
112.511
115.285
117.956
120.521
122.98
125.332
127.576
129.713
131.741
133.662
135.476
137.184
138.788
140.288
141.708
143.031
144.257
145.387
146.424
147.37
148.227
149
149.69
150.3
150.833
151.291
151.678
151.996
152.247
152.435
152.561
152.628
152.639
152.595
152.5
152.355
152.162
151.923
151.641
151.317
150.952
150.55
150.111
149.636
149.129
148.589
148.018
147.418
146.79
146.135
145.454
144.748
144.019
143.266
142.492
141.696
140.881
140.045
139.191
138.319
137.429
136.523
135.6
134.661
133.706
132.737
131.753
130.755
129.743
128.717
127.678
126.627
125.562
124.485
123.396
122.295
121.182
120.057
118.921
117.774
116.615
115.445
114.263
113.071
111.868
110.655
109.43
108.196
106.95
105.695
104.429
103.153
101.866
100.57
99.2644
97.9489
96.6238
95.2893
93.9457
92.593
91.2315
89.8614
88.4829
87.0963
85.7018
84.2997
82.8903
81.474
80.051
78.6219
77.1868
75.7462
74.3007
72.8505
71.3962
69.9382
68.4772
67.0135
65.5477
64.0804
62.6122
61.1437
59.6754
58.208
56.7422
55.2785
53.8175
52.3601
50.9067
49.4581
48.015
46.5779
45.1475
43.7245
42.3095
40.9031
39.5059
38.1185
36.7414
35.3752
34.0204
32.6773
31.3466
30.0284
28.7232
27.4313
26.1529
24.8883
23.6375
22.401
21.1801
19.9774
18.7977
17.6298
16.4713
15.3219
14.18
13.0441
11.9124
10.7822
9.65068
8.52194
7.39344
6.25194
5.08943
3.8953
2.65453
1.34372
0.206284
4.60189
3.9416
5.05647
6.42583
7.91758
9.47022
11.0438
12.639
14.2601
15.8994
17.5563
19.2292
20.9159
22.6142
24.3215
26.0348
27.7509
29.4665
31.178
32.8816
34.5736
36.2503
37.9078
39.5424
41.1508
42.7293
44.2749
45.7844
47.2552
48.6847
50.0707
51.4111
52.7042
53.9486
55.143
56.2866
57.3786
58.4186
59.4063
60.3417
61.225
62.0565
62.8368
63.5668
64.2486
64.8867
65.4786
66.024
66.5236
66.9783
67.3892
67.7578
68.0853
68.3732
68.6228
68.8356
69.0128
69.156
69.2665
69.3455
69.3945
69.4146
69.4072
69.3734
69.3144
69.2314
69.1254
68.9976
68.8488
68.6802
68.4926
68.2869
68.064
67.8248
67.5699
67.3002
67.0164
66.7191
66.409
66.0867
65.7527
65.4077
65.0521
64.6864
64.3111
63.9266
63.5333
63.1316
62.7219
62.3045
61.8797
61.4478
61.0091
60.5638
60.1122
59.6545
59.1909
58.7216
58.2468
57.7666
57.2811
56.7906
56.2951
55.7948
55.2897
54.78
54.2657
53.7469
53.2237
52.6961
52.1643
51.6283
51.088
50.5437
49.9952
49.4427
48.8862
48.3257
47.7612
47.1929
46.6207
46.0447
45.465
44.8814
44.2943
43.7034
43.109
42.5111
41.9097
41.3049
40.6968
40.0855
39.4711
38.8536
38.2332
37.6099
36.984
36.3554
35.7245
35.0912
34.4558
33.8185
33.1793
32.5386
31.8964
31.253
30.6086
29.9634
29.3176
28.6715
28.0254
27.3794
26.7338
26.089
25.445
24.8024
24.1612
23.5218
22.8845
22.2495
21.6172
20.9877
20.3615
19.7388
19.1198
18.5048
17.8942
17.288
16.6866
16.0903
15.4992
14.9135
14.3335
13.7592
13.191
12.6288
12.0729
11.5232
10.98
10.4434
9.91331
9.39017
8.87428
8.36579
7.86316
7.36571
6.87394
6.38703
5.90461
5.42626
4.95166
4.48091
4.01561
3.55522
3.0983
2.64552
2.20094
1.7783
1.43094
1.65372
4.60198
3.94156
5.05644
6.42574
7.91746
9.47008
11.0437
12.6388
14.26
15.8992
17.5561
19.229
20.9157
22.614
24.3213
26.0345
27.7507
29.4663
31.1777
32.8813
34.5734
36.25
37.9075
39.5422
41.1505
42.729
44.2746
45.7841
47.2549
48.6844
50.0704
51.4108
52.7039
53.9483
55.1427
56.2863
57.3783
58.4182
59.4059
60.3414
61.2246
62.0561
62.8364
63.5665
64.2483
64.8864
65.4783
66.0237
66.5233
66.9779
67.3889
67.7575
68.085
68.3729
68.6225
68.8352
69.0125
69.1557
69.2662
69.3452
69.3942
69.4143
69.4069
69.3731
69.3141
69.2311
69.1251
68.9973
68.8485
68.6799
68.4923
68.2866
68.0637
67.8245
67.5697
67.3
67.0161
66.7188
66.4087
66.0864
65.7525
65.4074
65.0518
64.6861
64.3108
63.9263
63.533
63.1314
62.7217
62.3042
61.8794
61.4476
61.0088
60.5636
60.112
59.6543
59.1907
58.7214
58.2465
57.7663
57.2809
56.7904
56.2949
55.7945
55.2894
54.7797
54.2654
53.7466
53.2235
52.6959
52.1641
51.628
51.0878
50.5434
49.995
49.4425
48.886
48.3255
47.761
47.1927
46.6205
46.0445
45.4648
44.8812
44.2941
43.7032
43.1088
42.5109
41.9095
41.3047
40.6967
40.0854
39.4709
38.8534
38.233
37.6097
36.9838
36.3553
35.7243
35.091
34.4557
33.8183
33.1792
32.5384
31.8962
31.2528
30.6084
29.9632
29.3175
28.6714
28.0252
27.3793
26.7337
26.0888
25.4449
24.8022
24.1611
23.5217
22.8843
22.2494
21.617
20.9876
20.3614
19.7387
19.1197
18.5047
17.8941
17.2879
16.6866
16.0902
15.4991
14.9134
14.3334
13.7592
13.1909
12.6287
12.0728
11.5232
10.98
10.4433
9.91325
9.39012
8.87423
8.36574
7.86311
7.36567
6.8739
6.387
5.90458
5.42623
4.95163
4.48088
4.01559
3.5552
3.09829
2.64552
2.20095
1.77835
1.43097
1.6541
8.45394
5.28546
5.63286
6.46164
7.46159
8.5499
9.69029
10.8675
12.0739
13.3039
14.5537
15.8208
17.1025
18.3967
19.7008
21.0124
22.3289
23.6474
24.965
26.2787
27.5855
28.8821
30.1654
31.4325
32.6802
33.9057
35.1063
36.2793
37.4224
38.5333
39.6101
40.6511
41.6546
42.6194
43.5444
44.4287
45.2717
46.0729
46.8321
47.5493
48.2245
48.8581
49.4505
50.0026
50.5155
50.9908
51.4285
51.829
52.193
52.5212
52.8146
53.0742
53.3012
53.4966
53.6616
53.7974
53.9051
53.9859
54.0408
54.071
54.0776
54.0615
54.024
53.9658
53.8881
53.7917
53.6776
53.5466
53.3996
53.2374
53.0606
52.8702
52.6667
52.4508
52.2233
51.9846
51.7354
51.4762
51.2076
50.93
50.6438
50.3497
50.0478
49.7387
49.4228
49.1002
48.7715
48.4369
48.0966
47.751
47.4002
47.0446
46.6844
46.3196
45.9506
45.5775
45.2005
44.8196
44.4352
44.0471
43.6557
43.2609
42.863
42.4619
42.0577
41.6506
41.2405
40.8276
40.4119
39.9934
39.5723
39.1484
38.7219
38.2928
37.8612
37.427
36.9903
36.5511
36.1095
35.6654
35.2189
34.7701
34.3189
33.8653
33.4096
32.9515
32.4913
32.0289
31.5644
31.0978
30.6292
30.1587
29.6863
29.212
28.7361
28.2585
27.7794
27.2988
26.8168
26.3336
25.8493
25.364
24.8778
24.3909
23.9034
23.4154
22.9272
22.4388
21.9505
21.4624
20.9748
20.4877
20.0015
19.5162
19.0321
18.5495
18.0684
17.5891
17.1119
16.6369
16.1643
15.6944
15.2273
14.7633
14.3026
13.8454
13.3918
12.9421
12.4964
12.055
11.6179
11.1853
10.7574
10.3343
9.91614
9.50302
9.09503
8.69228
8.29484
7.9028
7.51626
7.13532
6.76007
6.39047
6.02625
5.66723
5.3134
4.96457
4.62113
4.28312
3.95083
3.62492
3.30662
2.99753
2.69982
2.41872
2.16637
1.97527
1.97003
3.2756
8.45413
5.28544
5.63276
6.46149
7.46142
8.54971
9.6901
10.8673
12.0737
13.3037
14.5535
15.8205
17.1023
18.3964
19.7006
21.0122
22.3286
23.6471
24.9648
26.2785
27.5852
28.8818
30.1652
31.4322
32.6799
33.9055
35.106
36.2791
37.4222
38.5331
39.6099
40.6509
41.6544
42.6192
43.5442
44.4285
45.2715
46.0727
46.8319
47.5491
48.2243
48.8579
49.4504
50.0024
50.5153
50.9906
51.4283
51.8289
52.1928
52.521
52.8144
53.0741
53.301
53.4964
53.6615
53.7973
53.905
53.9857
54.0407
54.0709
54.0774
54.0614
54.0238
53.9657
53.888
53.7916
53.6775
53.5465
53.3995
53.2372
53.0605
52.87
52.6666
52.4507
52.2232
51.9845
51.7353
51.4761
51.2075
50.9298
50.6437
50.3495
50.0477
49.7386
49.4227
49.1001
48.7714
48.4368
48.0965
47.7509
47.4001
47.0445
46.6843
46.3195
45.9505
45.5774
45.2004
44.8195
44.4351
44.047
43.6556
43.2608
42.8629
42.4618
42.0576
41.6505
41.2404
40.8275
40.4118
39.9933
39.5722
39.1483
38.7218
38.2928
37.8611
37.4269
36.9902
36.551
36.1094
35.6653
35.2188
34.77
34.3188
33.8653
33.4095
32.9514
32.4912
32.0288
31.5643
31.0977
30.6291
30.1586
29.6862
29.212
28.736
28.2585
27.7793
27.2987
26.8168
26.3336
25.8493
25.364
24.8778
24.3908
23.9033
23.4154
22.9271
22.4388
21.9505
21.4624
20.9748
20.4877
20.0014
19.5162
19.0321
18.5494
18.0683
17.5891
17.1118
16.6368
16.1642
15.6943
15.2273
14.7633
14.3026
13.8454
13.3918
12.9421
12.4964
12.0549
11.6178
11.1853
10.7574
10.3343
9.91612
9.50299
9.09501
8.69226
8.29482
7.90279
7.51624
7.13531
6.76005
6.39046
6.02624
5.66721
5.31339
4.96456
4.62112
4.28311
3.95082
3.62491
3.30661
2.99752
2.69981
2.41872
2.16637
1.97527
1.97
3.27559
12.3247
6.91049
6.69236
7.20326
7.9657
8.85393
9.81715
10.8304
11.8798
12.9565
14.0548
15.1703
16.2999
17.4408
18.5903
19.7461
20.9058
22.0668
23.2265
24.3824
25.5317
26.6718
27.8
28.9136
30.0099
31.0864
32.1408
33.1706
34.1737
35.1482
36.0922
37.0042
37.8827
38.7265
39.5347
40.3063
41.0409
41.7379
42.3972
43.0186
43.6023
44.1486
44.6578
45.1306
45.5677
45.9703
46.3387
46.6735
46.9755
47.2454
47.4842
47.6926
47.8719
48.0229
48.1467
48.2444
48.3171
48.3656
48.3912
48.3947
48.3773
48.3397
48.2831
48.2083
48.1162
48.0077
47.8835
47.7445
47.5914
47.4251
47.2461
47.0551
46.8529
46.6399
46.4168
46.1842
45.9426
45.6924
45.4341
45.1682
44.8952
44.6153
44.3291
44.0367
43.7387
43.4352
43.1266
42.8131
42.4951
42.1727
41.8462
41.5157
41.1816
40.8439
40.5028
40.1585
39.8111
39.4607
39.1076
38.7517
38.3931
38.0321
37.6686
37.3027
36.9346
36.5642
36.1916
35.8169
35.4401
35.0613
34.6805
34.2977
33.9129
33.5263
33.1378
32.7474
32.3552
31.9612
31.5654
31.1678
30.7685
30.3675
29.9647
29.5604
29.1544
28.7467
28.3375
27.9268
27.5146
27.1009
26.6859
26.2695
25.8518
25.4329
25.0128
24.5916
24.1694
23.7463
23.3224
22.8977
22.4724
22.0466
21.6203
21.1938
20.7671
20.3403
19.9136
19.4872
19.0611
18.6356
18.2108
17.7868
17.3638
16.9421
16.5216
16.1028
15.6856
15.2703
14.8571
14.4461
14.0376
13.6317
13.2286
12.8284
12.4314
12.0377
11.6474
11.2608
10.878
10.4992
10.1244
9.75382
9.38761
9.02588
8.66874
8.3163
7.96866
7.62591
7.28816
6.95549
6.62801
6.30581
5.98898
5.67757
5.3716
5.07112
4.77626
4.48721
4.20434
3.92812
3.65932
3.39921
3.14954
2.91314
2.69474
2.50336
2.35853
2.31175
2.56222
4.85356
12.3249
6.91042
6.69222
7.20308
7.96551
8.85372
9.81693
10.8302
11.8796
12.9563
14.0546
15.1701
16.2997
17.4405
18.5901
19.7459
20.9056
22.0665
23.2263
24.3821
25.5315
26.6716
27.7998
28.9134
30.0097
31.0862
32.1406
33.1704
34.1735
35.148
36.092
37.004
37.8825
38.7264
39.5345
40.3062
41.0407
41.7377
42.397
43.0185
43.6022
44.1484
44.6576
45.1304
45.5676
45.9701
46.3385
46.6734
46.9754
47.2453
47.484
47.6925
47.8718
48.0228
48.1466
48.2443
48.317
48.3655
48.3911
48.3946
48.3772
48.3397
48.2831
48.2082
48.1161
48.0076
47.8834
47.7444
47.5914
47.425
47.246
47.055
46.8528
46.6398
46.4168
46.1842
45.9425
45.6923
45.4341
45.1682
44.8951
44.6153
44.329
44.0367
43.7386
43.4351
43.1265
42.8131
42.495
42.1727
41.8461
41.5157
41.1815
40.8438
40.5027
40.1584
39.811
39.4607
39.1075
38.7516
38.3931
38.032
37.6686
37.3027
36.9345
36.5641
36.1916
35.8169
35.4401
35.0612
34.6804
34.2976
33.9129
33.5263
33.1377
32.7474
32.3552
31.9611
31.5653
31.1678
30.7685
30.3674
29.9647
29.5603
29.1543
28.7467
28.3375
27.9268
27.5146
27.1009
26.6859
26.2694
25.8518
25.4328
25.0128
24.5916
24.1694
23.7463
23.3224
22.8977
22.4724
22.0466
21.6203
21.1938
20.7671
20.3403
19.9136
19.4872
19.0611
18.6356
18.2108
17.7868
17.3638
16.942
16.5216
16.1027
15.6856
15.2703
14.8571
14.4461
14.0376
13.6317
13.2286
12.8284
12.4314
12.0377
11.6474
11.2608
10.878
10.4991
10.1244
9.75381
9.38761
9.02588
8.66874
8.3163
7.96865
7.62591
7.28815
6.95549
6.628
6.30581
5.98898
5.67757
5.37159
5.07111
4.77625
4.4872
4.20434
3.92812
3.65932
3.39921
3.14954
2.91314
2.69474
2.50336
2.35853
2.31175
2.56222
4.85356
16.1966
8.67636
7.961
8.2317
8.83765
9.60773
10.4738
11.4019
12.3728
13.3743
14.3984
15.4393
16.493
17.556
18.6256
19.6993
20.7747
21.8495
22.9215
23.9883
25.0477
26.0973
27.1347
28.1577
29.164
30.1513
31.1175
32.0606
32.9786
33.8697
34.7324
35.5651
36.3666
37.1358
37.8717
38.5736
39.2409
39.8733
40.4704
41.0322
41.5589
42.0506
42.5077
42.9307
43.3203
43.6772
44.002
44.2955
44.5582
44.791
44.9947
45.1702
45.3185
45.4404
45.5371
45.6094
45.6584
45.685
45.6902
45.675
45.6402
45.5869
45.5158
45.4279
45.324
45.2048
45.0713
44.9241
44.764
44.5916
44.4076
44.2127
44.0074
43.7923
43.5681
43.3352
43.094
42.8451
42.589
42.326
42.0566
41.781
41.4998
41.2131
40.9214
40.6249
40.3239
40.0186
39.7093
39.3963
39.0796
38.7596
38.4364
38.1102
37.7811
37.4493
37.1149
36.778
36.4388
36.0973
35.7536
35.4079
35.0602
34.7105
34.359
34.0057
33.6506
33.2939
32.9354
32.5754
32.2137
31.8505
31.4858
31.1196
30.7519
30.3828
30.0122
29.6402
29.2669
28.8921
28.516
28.1386
27.7599
27.38
26.9987
26.6163
26.2327
25.8479
25.462
25.075
24.687
24.298
23.9081
23.5173
23.1257
22.7334
22.3404
21.9468
21.5526
21.1581
20.7632
20.3681
19.9729
19.5776
19.1824
18.7875
18.3928
17.9987
17.6051
17.2123
16.8203
16.4294
16.0396
15.6511
15.2642
14.8788
14.4953
14.1137
13.7343
13.3571
12.9823
12.6102
12.2409
11.8744
11.5111
11.151
10.7942
10.4411
10.0915
9.74586
9.40412
9.06647
8.73302
8.4039
8.07922
7.7591
7.44364
7.13297
6.82718
6.52641
6.23076
5.94037
5.65537
5.37592
5.10216
4.83431
4.57266
4.31762
4.06975
3.82986
3.59909
3.37912
3.17244
2.9831
2.81782
2.68924
2.62412
2.693
3.16949
6.41914
16.1969
8.67626
7.96084
8.2315
8.83744
9.60751
10.4736
11.4017
12.3726
13.3741
14.3981
15.4391
16.4928
17.5558
18.6254
19.6991
20.7745
21.8493
22.9213
23.9881
25.0475
26.0971
27.1345
28.1575
29.1638
30.1511
31.1173
32.0604
32.9784
33.8695
34.7322
35.5649
36.3664
37.1356
37.8715
38.5734
39.2408
39.8731
40.4703
41.0321
41.5588
42.0505
42.5076
42.9306
43.3202
43.6771
44.0019
44.2954
44.5581
44.7909
44.9946
45.1701
45.3184
45.4404
45.537
45.6094
45.6583
45.6849
45.6902
45.6749
45.6402
45.5868
45.5157
45.4278
45.3239
45.2048
45.0713
44.9241
44.7639
44.5915
44.4075
44.2126
44.0073
43.7923
43.5681
43.3351
43.094
42.8451
42.589
42.326
42.0565
41.781
41.4997
41.2131
40.9214
40.6249
40.3238
40.0186
39.7093
39.3962
39.0796
38.7596
38.4364
38.1102
37.7811
37.4493
37.1149
36.778
36.4388
36.0973
35.7536
35.4079
35.0601
34.7105
34.359
34.0057
33.6506
33.2938
32.9354
32.5753
32.2137
31.8505
31.4858
31.1196
30.7519
30.3828
30.0122
29.6402
29.2668
28.8921
28.516
28.1386
27.7599
27.3799
26.9987
26.6163
26.2326
25.8479
25.462
25.075
24.687
24.298
23.9081
23.5173
23.1257
22.7334
22.3403
21.9467
21.5526
21.1581
20.7632
20.3681
19.9729
19.5776
19.1824
18.7875
18.3928
17.9987
17.6051
17.2123
16.8203
16.4294
16.0396
15.6511
15.2642
14.8788
14.4953
14.1137
13.7342
13.3571
12.9823
12.6102
12.2409
11.8744
11.5111
11.151
10.7942
10.4411
10.0915
9.74586
9.40412
9.06647
8.73302
8.4039
8.07922
7.7591
7.44364
7.13297
6.82718
6.52641
6.23076
5.94037
5.65538
5.37592
5.10216
4.83431
4.57266
4.31762
4.06976
3.82986
3.59909
3.37912
3.17244
2.9831
2.81782
2.68924
2.62412
2.69301
3.16951
6.41914
20.0728
10.534
9.36299
9.43383
9.92236
10.612
11.4171
12.295
13.2215
14.1811
15.1637
16.1623
17.1718
18.1882
19.2085
20.2302
21.2508
22.2684
23.2808
24.2862
25.2826
26.2679
27.2402
28.1975
29.1379
30.0595
30.9604
31.8387
32.693
33.5215
34.3228
35.0956
35.8388
36.5514
37.2325
37.8814
38.4976
39.0807
39.6306
40.1471
40.6303
41.0804
41.4978
41.8829
42.2362
42.5584
42.8502
43.1122
43.345
43.5495
43.7265
43.8767
44.0012
44.1008
44.1764
44.229
44.2595
44.2689
44.2579
44.2277
44.179
44.1127
44.0297
43.9308
43.8167
43.6883
43.5464
43.3915
43.2245
43.046
42.8566
42.6569
42.4475
42.2289
42.0018
41.7665
41.5236
41.2735
41.0167
40.7534
40.4842
40.2094
39.9294
39.6443
39.3547
39.0606
38.7624
38.4604
38.1547
37.8457
37.5334
37.2181
36.8999
36.5791
36.2557
35.9299
35.6018
35.2716
34.9394
34.6051
34.269
33.9312
33.5916
33.2504
32.9076
32.5633
32.2176
31.8704
31.5218
31.1719
30.8207
30.4682
30.1144
29.7594
29.4032
29.0458
28.6873
28.3276
27.9668
27.6049
27.242
26.8779
26.5129
26.1468
25.7798
25.4117
25.0428
24.6729
24.3022
23.9307
23.5584
23.1854
22.8117
22.4373
22.0624
21.687
21.3112
20.935
20.5584
20.1817
19.8049
19.428
19.0512
18.6746
18.2982
17.9222
17.5467
17.1719
16.7978
16.4245
16.0523
15.6812
15.3113
14.9429
14.5761
14.2109
13.8476
13.4863
13.1272
12.7704
12.416
12.0642
11.7152
11.3691
11.026
10.6861
10.3496
10.0165
9.68703
9.3613
9.03944
8.72157
8.40783
8.09834
7.79322
7.49259
7.19657
6.90531
6.61892
6.33755
6.06137
5.79054
5.52526
5.26575
5.01228
4.7652
4.52494
4.29209
4.06744
3.85206
3.64744
3.45577
3.28025
3.126
3.00158
2.92306
2.92444
3.09526
3.78338
7.97881
20.0731
10.5339
9.3628
9.43362
9.92214
10.6118
11.4169
12.2948
13.2212
14.1808
15.1635
16.1621
17.1715
18.188
19.2083
20.2299
21.2506
22.2681
23.2806
24.286
25.2823
26.2677
27.24
28.1973
29.1377
30.0593
30.9602
31.8385
32.6928
33.5213
34.3226
35.0955
35.8387
36.5512
37.2323
37.8812
38.4974
39.0806
39.6304
40.1469
40.6301
41.0803
41.4977
41.8827
42.2361
42.5583
42.8501
43.1121
43.3449
43.5494
43.7264
43.8767
44.0011
44.1007
44.1764
44.229
44.2595
44.2688
44.2579
44.2276
44.1789
44.1127
44.0296
43.9307
43.8167
43.6883
43.5463
43.3915
43.2245
43.0459
42.8565
42.6568
42.4474
42.2289
42.0017
41.7665
41.5236
41.2735
41.0166
40.7534
40.4842
40.2094
39.9293
39.6443
39.3546
39.0606
38.7624
38.4604
38.1547
37.8456
37.5334
37.2181
36.8999
36.5791
36.2557
35.9299
35.6018
35.2716
34.9393
34.6051
34.269
33.9312
33.5916
33.2504
32.9076
32.5633
32.2175
31.8704
31.5218
31.1719
30.8206
30.4681
30.1144
29.7594
29.4032
29.0458
28.6873
28.3276
27.9668
27.6049
27.242
26.8779
26.5129
26.1468
25.7797
25.4117
25.0428
24.6729
24.3022
23.9307
23.5584
23.1854
22.8117
22.4373
22.0624
21.687
21.3112
20.9349
20.5584
20.1817
19.8049
19.428
19.0512
18.6746
18.2982
17.9222
17.5467
17.1719
16.7978
16.4245
16.0523
15.6812
15.3113
14.9429
14.5761
14.2109
13.8476
13.4863
13.1272
12.7704
12.416
12.0642
11.7152
11.3691
11.026
10.6861
10.3496
10.0165
9.68703
9.3613
9.03944
8.72157
8.40784
8.09834
7.79322
7.49259
7.19658
6.90531
6.61892
6.33756
6.06137
5.79054
5.52526
5.26575
5.01228
4.7652
4.52494
4.2921
4.06744
3.85206
3.64744
3.45577
3.28026
3.126
3.00158
2.92306
2.92444
3.09527
3.7834
7.97881
24.0443
12.4613
10.8683
10.7655
11.16
11.7907
12.5547
13.4012
14.3008
15.2354
16.1929
17.1648
18.1453
19.1298
20.1152
21.0987
22.0782
23.0516
24.0174
24.9737
25.9191
26.8518
27.7702
28.6728
29.5579
30.424
31.2694
32.0927
32.8924
33.6672
34.4158
35.1371
35.83
36.4937
37.1274
37.7305
38.3026
38.8432
39.3522
39.8295
40.2752
40.6894
41.0726
41.425
41.7472
42.0397
42.3032
42.5383
42.7457
42.926
43.0802
43.2089
43.3131
43.3936
43.4513
43.487
43.5017
43.4963
43.4715
43.4284
43.3677
43.2902
43.1968
43.0882
42.9652
42.8286
42.6791
42.5173
42.3439
42.1596
41.965
41.7606
41.5469
41.3247
41.0942
40.8561
40.6108
40.3586
40.1001
39.8356
39.5655
39.29
39.0097
38.7247
38.4353
38.1419
37.8447
37.5438
37.2396
36.9323
36.622
36.3089
35.9932
35.675
35.3546
35.0319
34.7072
34.3806
34.0521
33.7219
33.39
33.0566
32.7216
32.3853
32.0475
31.7084
31.3681
31.0265
30.6837
30.3398
29.9948
29.6487
29.3015
28.9533
28.6041
28.2539
27.9027
27.5505
27.1975
26.8435
26.4887
26.1329
25.7764
25.419
25.0608
24.7018
24.3421
23.9817
23.6207
23.2589
22.8966
22.5338
22.1704
21.8066
21.4424
21.0778
20.713
20.348
19.9828
19.6176
19.2525
18.8874
18.5226
18.158
17.7939
17.4303
17.0672
16.705
16.3435
15.983
15.6237
15.2655
14.9087
14.5533
14.1996
13.8476
13.4975
13.1494
12.8035
12.46
12.1188
11.7803
11.4444
11.1115
10.7815
10.4547
10.1312
9.81107
9.4945
9.18161
8.87253
8.56738
8.2663
7.96941
7.67685
7.38875
7.10525
6.8265
6.55266
6.28391
6.02044
5.76246
5.51024
5.26408
5.02434
4.79148
4.56608
4.34889
4.14089
3.94342
3.75834
3.58828
3.43717
3.31118
3.22071
3.18505
3.24548
3.5106
4.40264
9.53695
24.0446
12.4611
10.8681
10.7653
11.1597
11.7904
12.5545
13.4009
14.3005
15.2351
16.1926
17.1645
18.145
19.1296
20.1149
21.0985
22.0779
23.0514
24.0171
24.9735
25.9188
26.8516
27.77
28.6726
29.5577
30.4238
31.2692
32.0925
32.8922
33.667
34.4156
35.1369
35.8299
36.4936
37.1273
37.7304
38.3024
38.843
39.352
39.8293
40.2751
40.6893
41.0725
41.4249
41.7471
42.0396
42.3031
42.5382
42.7456
42.9259
43.0801
43.2088
43.313
43.3935
43.4512
43.487
43.5017
43.4962
43.4715
43.4283
43.3676
43.2901
43.1967
43.0881
42.9652
42.8286
42.679
42.5173
42.3439
42.1596
41.9649
41.7605
41.5469
41.3246
41.0942
40.8561
40.6107
40.3586
40.1001
39.8356
39.5654
39.29
39.0097
38.7247
38.4353
38.1419
37.8446
37.5438
37.2396
36.9323
36.6219
36.3089
35.9932
35.675
35.3545
35.0319
34.7072
34.3806
34.0521
33.7219
33.39
33.0566
32.7216
32.3852
32.0475
31.7084
31.3681
31.0265
30.6837
30.3398
29.9948
29.6487
29.3015
28.9533
28.6041
28.2539
27.9027
27.5505
27.1975
26.8435
26.4887
26.1329
25.7764
25.419
25.0608
24.7018
24.3421
23.9817
23.6206
23.2589
22.8966
22.5338
22.1704
21.8066
21.4424
21.0778
20.713
20.348
19.9828
19.6176
19.2525
18.8874
18.5226
18.158
17.7939
17.4303
17.0672
16.705
16.3435
15.983
15.6237
15.2655
14.9087
14.5533
14.1996
13.8476
13.4975
13.1494
12.8035
12.46
12.1188
11.7803
11.4444
11.1115
10.7815
10.4547
10.1312
9.81107
9.4945
9.18162
8.87253
8.56739
8.2663
7.96942
7.67686
7.38875
7.10526
6.82651
6.55267
6.28391
6.02044
5.76246
5.51024
5.26408
5.02435
4.79149
4.56608
4.34889
4.14089
3.94343
3.75834
3.58828
3.43717
3.31118
3.22071
3.18505
3.24549
3.51061
4.40267
9.53695
28.241
14.4824
12.4714
12.2089
12.5238
13.109
13.8442
14.6702
15.5531
16.4719
17.4127
18.3659
19.3249
20.2847
21.2419
22.1938
23.1382
24.0735
24.9982
25.911
26.8106
27.6957
28.5651
29.4176
30.252
31.0668
31.8609
32.6331
33.3821
34.1069
34.8064
35.4795
36.1255
36.7436
37.333
37.8933
38.424
38.9249
39.3957
39.8364
40.2472
40.628
40.9793
41.3014
41.5947
41.8597
42.0972
42.3075
42.4914
42.6496
42.7829
42.892
42.9777
43.0408
43.0821
43.1026
43.103
43.0842
43.0469
42.9921
42.9205
42.8329
42.7301
42.6129
42.4819
42.3379
42.1815
42.0134
41.8343
41.6447
41.4452
41.2364
41.0189
40.7931
40.5594
40.3185
40.0707
39.8164
39.5561
39.2901
39.0187
38.7423
38.4612
38.1757
37.8861
37.5927
37.2956
36.9952
36.6916
36.385
36.0757
35.7638
35.4494
35.1328
34.814
34.4932
34.1705
33.8461
33.5199
33.1922
32.8629
32.5323
32.2003
31.8669
31.5324
31.1967
30.8598
30.5219
30.1829
29.8429
29.502
29.16
28.8172
28.4735
28.1289
27.7834
27.4371
27.09
26.7422
26.3935
26.0441
25.694
25.3432
24.9917
24.6395
24.2867
23.9333
23.5794
23.2249
22.8699
22.5144
22.1585
21.8023
21.4457
21.0889
20.7318
20.3746
20.0174
19.6601
19.3028
18.9458
18.5889
18.2323
17.8762
17.5205
17.1655
16.8111
16.4575
16.1049
15.7533
15.4028
15.0536
14.7058
14.3594
14.0148
13.6718
13.3308
12.9918
12.655
12.3204
11.9883
11.6588
11.3319
11.0079
10.6868
10.3688
10.054
9.74262
9.43469
9.13038
8.8298
8.53311
8.24043
7.9519
7.66766
7.38787
7.11267
6.84224
6.57678
6.31647
6.06157
5.81234
5.56909
5.3322
5.10213
4.87943
4.66481
4.45919
4.26374
4.08005
3.91031
3.75762
3.62661
3.52451
3.46352
3.46629
3.58136
3.93675
5.02974
11.1069
28.2414
14.4822
12.4712
12.2087
12.5235
13.1087
13.8439
14.6699
15.5528
16.4716
17.4124
18.3657
19.3246
20.2845
21.2417
22.1935
23.1379
24.0732
24.998
25.9108
26.8103
27.6955
28.5649
29.4174
30.2517
31.0666
31.8607
32.6329
33.382
34.1067
34.8062
35.4794
36.1254
36.7434
37.3328
37.8931
38.4239
38.9247
39.3956
39.8363
40.247
40.6279
40.9792
41.3013
41.5946
41.8597
42.0971
42.3074
42.4913
42.6496
42.7828
42.8919
42.9776
43.0407
43.0821
43.1025
43.1029
43.0841
43.0469
42.9921
42.9205
42.8329
42.7301
42.6128
42.4818
42.3378
42.1814
42.0134
41.8342
41.6446
41.4452
41.2364
41.0188
40.793
40.5594
40.3185
40.0707
39.8164
39.5561
39.29
39.0186
38.7423
38.4612
38.1757
37.8861
37.5926
37.2956
36.9952
36.6916
36.385
36.0757
35.7638
35.4494
35.1328
34.814
34.4932
34.1705
33.846
33.5199
33.1922
32.8629
32.5323
32.2002
31.8669
31.5324
31.1967
30.8598
30.5219
30.1829
29.8429
29.5019
29.16
28.8172
28.4735
28.1289
27.7834
27.4371
27.09
26.7422
26.3935
26.0441
25.694
25.3432
24.9917
24.6395
24.2867
23.9333
23.5794
23.2249
22.8699
22.5144
22.1585
21.8023
21.4457
21.0889
20.7318
20.3746
20.0174
19.6601
19.3028
18.9458
18.5889
18.2323
17.8762
17.5205
17.1655
16.8111
16.4575
16.1049
15.7533
15.4028
15.0536
14.7058
14.3594
14.0148
13.6718
13.3308
12.9918
12.655
12.3204
11.9883
11.6588
11.3319
11.0079
10.6868
10.3688
10.054
9.74262
9.43469
9.13038
8.82981
8.53311
8.24043
7.9519
7.66766
7.38787
7.11267
6.84225
6.57678
6.31648
6.06157
5.81234
5.56909
5.33221
5.10213
4.87943
4.66482
4.45919
4.26374
4.08005
3.91031
3.75762
3.62661
3.52451
3.46353
3.46629
3.58136
3.93676
5.02977
11.1069
32.584
16.5938
14.1694
13.7567
14.0016
14.5502
15.2644
16.0767
16.9487
17.8568
18.7853
19.7236
20.6644
21.6024
22.534
23.4566
24.3682
25.2674
26.153
27.024
27.8794
28.7186
29.5405
30.3443
31.1292
31.8941
32.6381
33.3604
34.0599
34.7358
35.3871
36.0132
36.6132
37.1865
37.7326
38.2509
38.7412
39.2032
39.6367
40.0418
40.4183
40.7666
41.0868
41.3794
41.6447
41.8831
42.0953
42.2818
42.4432
42.5801
42.6934
42.7837
42.8517
42.8983
42.9242
42.9301
42.917
42.8856
42.8366
42.7709
42.6892
42.5923
42.4808
42.3555
42.2171
42.0663
41.9036
41.7298
41.5455
41.3511
41.1473
40.9346
40.7135
40.4845
40.2481
40.0047
39.7546
39.4985
39.2365
38.969
38.6965
38.4192
38.1374
37.8514
37.5615
37.268
36.971
36.6708
36.3676
36.0615
35.7529
35.4418
35.1284
34.8129
34.4954
34.1759
33.8547
33.5318
33.2074
32.8815
32.5542
32.2256
31.8957
31.5646
31.2325
30.8992
30.5649
30.2297
29.8935
29.5564
29.2184
28.8796
28.5399
28.1995
27.8583
27.5164
27.1737
26.8303
26.4863
26.1415
25.7962
25.4502
25.1036
24.7564
24.4087
24.0605
23.7117
23.3625
23.0129
22.6629
22.3125
21.9618
21.6108
21.2596
20.9082
20.5567
20.2051
19.8536
19.5021
19.1508
18.7996
18.4488
18.0984
17.7484
17.399
17.0502
16.7022
16.355
16.0088
15.6636
15.3196
14.9769
14.6356
14.2958
13.9577
13.6213
13.2868
12.9542
12.6239
12.2957
11.97
11.6468
11.3262
11.0084
10.6935
10.3816
10.0728
9.76736
9.46532
9.16682
8.87199
8.58099
8.29394
8.011
7.73231
7.45805
7.1884
6.92354
6.66369
6.40909
6.16002
5.91679
5.67979
5.44944
5.2263
5.01103
4.80445
4.60762
4.42192
4.24917
4.0919
3.95367
3.83979
3.75857
3.72403
3.76225
3.92894
4.37195
5.66453
12.685
32.5845
16.5936
14.1692
13.7564
14.0013
14.5499
15.2642
16.0764
16.9485
17.8565
18.785
19.7233
20.6641
21.6021
22.5338
23.4564
24.368
25.2672
26.1527
27.0237
27.8792
28.7183
29.5403
30.3441
31.129
31.8939
32.6379
33.3602
34.0597
34.7356
35.3869
36.013
36.613
37.1863
37.7324
38.2508
38.7411
39.2031
39.6366
40.0416
40.4182
40.7665
41.0868
41.3793
41.6446
41.883
42.0952
42.2817
42.4431
42.5801
42.6933
42.7836
42.8517
42.8982
42.9241
42.9301
42.917
42.8856
42.8366
42.7709
42.6892
42.5922
42.4808
42.3555
42.2171
42.0663
41.9036
41.7298
41.5454
41.3511
41.1473
40.9346
40.7135
40.4845
40.2481
40.0046
39.7546
39.4984
39.2364
38.969
38.6965
38.4192
38.1374
37.8514
37.5615
37.2679
36.971
36.6707
36.3675
36.0615
35.7529
35.4418
35.1284
34.8129
34.4953
34.1759
33.8547
33.5318
33.2074
32.8815
32.5542
32.2255
31.8957
31.5646
31.2324
30.8992
30.5649
30.2297
29.8935
29.5564
29.2184
28.8796
28.5399
28.1995
27.8583
27.5164
27.1737
26.8303
26.4863
26.1415
25.7962
25.4502
25.1036
24.7564
24.4087
24.0605
23.7117
23.3625
23.0129
22.6629
22.3125
21.9618
21.6108
21.2596
20.9082
20.5567
20.2051
19.8536
19.5021
19.1508
18.7996
18.4488
18.0984
17.7484
17.399
17.0502
16.7022
16.355
16.0088
15.6636
15.3196
14.9769
14.6356
14.2958
13.9577
13.6213
13.2868
12.9542
12.6239
12.2957
11.97
11.6468
11.3262
11.0084
10.6935
10.3816
10.0728
9.76737
9.46532
9.16682
8.872
8.58099
8.29394
8.011
7.73232
7.45806
7.1884
6.92354
6.66369
6.40909
6.16002
5.91679
5.67979
5.44945
5.22631
5.01103
4.80445
4.60762
4.42192
4.24917
4.0919
3.95368
3.83979
3.75857
3.72403
3.76225
3.92895
4.37196
5.66457
12.685
37.0941
18.8011
15.9638
15.4072
15.5889
16.107
16.8054
17.6081
18.4724
19.3721
20.2899
21.2144
22.1377
23.0543
23.9605
24.8538
25.7323
26.595
27.4411
28.2698
29.0807
29.8734
30.6474
31.4021
32.137
32.8516
33.5452
34.2171
34.8667
35.4934
36.0963
36.675
37.2287
37.7571
38.2596
38.7358
39.1855
39.6085
40.0046
40.3738
40.7161
41.0318
41.321
41.584
41.8213
42.0333
42.2204
42.3832
42.5223
42.6383
42.7318
42.8036
42.8543
42.8847
42.8955
42.8874
42.8612
42.8176
42.7573
42.6811
42.5898
42.4839
42.3642
42.2314
42.0861
41.9289
41.7605
41.5815
41.3923
41.1936
40.986
40.7698
40.5456
40.3138
40.075
39.8294
39.5776
39.3198
39.0565
38.788
38.5147
38.2367
37.9545
37.6682
37.3782
37.0848
36.788
36.4881
36.1854
35.88
35.5722
35.2619
34.9495
34.6351
34.3187
34.0006
33.6807
33.3593
33.0365
32.7122
32.3866
32.0598
31.7318
31.4028
31.0727
30.7415
30.4095
30.0765
29.7427
29.408
29.0725
28.7363