/*--------------------------------*- C++ -*----------------------------------*\
  =========                 |
  \\      /  F ield         | OpenFOAM: The Open Source CFD Toolbox
   \\    /   O peration     | Website:  https://openfoam.org
    \\  /    A nd           | Version:  8
     \\/     M anipulation  |
\*---------------------------------------------------------------------------*/
FoamFile
{
    version     2.0;
    format      ascii;
    class       volScalarField;
    location    "2800";
    object      nut;
}
// * * * * * * * * * * * * * * * * * * * * * * * * * * * * * * * * * * * * * //

dimensions      [0 2 -1 0 0 0 0];

internalField   nonuniform List<scalar> 
48000
(
4.24446e-05
7.70679e-05
9.71869e-05
0.000111197
0.000122809
0.000132565
0.000141007
0.000148559
0.000155545
0.000161935
0.000167878
0.00017344
0.00017867
0.00018361
0.00018829
0.000192735
0.000196966
0.000200997
0.000204844
0.000208516
0.000212023
0.000215373
0.000218573
0.00022163
0.000224549
0.000227335
0.000229992
0.000232525
0.000234937
0.000237233
0.000239416
0.000241489
0.000243457
0.000245321
0.000247086
0.000248754
0.000250328
0.000251812
0.000253209
0.000254521
0.00025575
0.000256901
0.000257975
0.000258975
0.000259904
0.000260777
0.000261585
0.000262329
0.000263011
0.000263634
0.000264199
0.000264709
0.000265167
0.000265575
0.000265934
0.000266247
0.000266515
0.000266741
0.000266927
0.000267073
0.000267182
0.000267254
0.000267293
0.000267298
0.000267272
0.000267216
0.00026713
0.000267017
0.000266876
0.00026671
0.00026652
0.000266305
0.000266068
0.000265808
0.000265528
0.000265226
0.000264906
0.000264566
0.000264207
0.000263831
0.000263438
0.000263028
0.000262601
0.000262159
0.000261701
0.000261229
0.000260742
0.00026024
0.000259725
0.000259195
0.000258653
0.000258097
0.000257528
0.000256946
0.000256351
0.000255744
0.000255125
0.000254493
0.000253848
0.000253192
0.000252523
0.000251842
0.000251148
0.000250443
0.000249725
0.000248994
0.000248252
0.000247496
0.000246728
0.000245947
0.000245154
0.000244347
0.000243527
0.000242694
0.000241847
0.000240987
0.000240112
0.000239223
0.00023832
0.000237403
0.00023647
0.000235522
0.000234559
0.00023358
0.000232586
0.000231575
0.000230547
0.000229503
0.000228442
0.000227363
0.000226267
0.000225153
0.00022402
0.000222869
0.000221699
0.000220509
0.0002193
0.000218072
0.000216823
0.000215553
0.000214263
0.000212951
0.000211619
0.000210264
0.000208887
0.000207488
0.000206066
0.000204621
0.000203153
0.000201661
0.000200145
0.000198605
0.00019704
0.000195451
0.000193836
0.000192195
0.000190528
0.000188835
0.000187115
0.000185368
0.000183593
0.00018179
0.000179958
0.000178097
0.000176206
0.000174284
0.000172332
0.000170347
0.000168329
0.000166278
0.000164191
0.000162068
0.000159907
0.000157706
0.000155464
0.000153179
0.000150847
0.000148467
0.000146034
0.000143546
0.000140998
0.000138389
0.000135719
0.000132993
0.00013018
0.000127264
0.000124232
0.000121066
0.000117743
0.000114234
0.000110501
0.000106492
0.000102167
9.74427e-05
9.21454e-05
8.60401e-05
7.87183e-05
6.94486e-05
5.78896e-05
0.000146345
4.24396e-05
7.70712e-05
9.71883e-05
0.000111197
0.00012281
0.000132565
0.000141007
0.000148559
0.000155545
0.000161935
0.000167879
0.00017344
0.000178671
0.00018361
0.00018829
0.000192736
0.000196966
0.000200998
0.000204844
0.000208516
0.000212023
0.000215373
0.000218574
0.00022163
0.000224549
0.000227335
0.000229992
0.000232525
0.000234937
0.000237233
0.000239416
0.000241489
0.000243457
0.000245321
0.000247086
0.000248754
0.000250328
0.000251812
0.000253209
0.000254521
0.00025575
0.000256901
0.000257975
0.000258975
0.000259904
0.000260777
0.000261585
0.000262329
0.000263011
0.000263634
0.000264199
0.000264709
0.000265167
0.000265575
0.000265934
0.000266247
0.000266515
0.000266741
0.000266927
0.000267073
0.000267182
0.000267254
0.000267293
0.000267298
0.000267272
0.000267216
0.00026713
0.000267017
0.000266876
0.00026671
0.00026652
0.000266305
0.000266068
0.000265808
0.000265527
0.000265226
0.000264906
0.000264566
0.000264207
0.000263831
0.000263438
0.000263028
0.000262601
0.000262159
0.000261701
0.000261229
0.000260741
0.00026024
0.000259725
0.000259195
0.000258653
0.000258097
0.000257528
0.000256946
0.000256351
0.000255744
0.000255125
0.000254493
0.000253848
0.000253192
0.000252523
0.000251842
0.000251148
0.000250443
0.000249725
0.000248994
0.000248251
0.000247496
0.000246728
0.000245947
0.000245154
0.000244347
0.000243527
0.000242694
0.000241847
0.000240987
0.000240112
0.000239223
0.00023832
0.000237402
0.00023647
0.000235522
0.000234559
0.00023358
0.000232586
0.000231575
0.000230547
0.000229503
0.000228442
0.000227363
0.000226267
0.000225153
0.00022402
0.000222869
0.000221699
0.000220509
0.0002193
0.000218072
0.000216823
0.000215553
0.000214263
0.000212951
0.000211618
0.000210264
0.000208887
0.000207488
0.000206066
0.000204621
0.000203153
0.000201661
0.000200145
0.000198605
0.00019704
0.000195451
0.000193836
0.000192195
0.000190528
0.000188835
0.000187115
0.000185368
0.000183593
0.00018179
0.000179958
0.000178097
0.000176206
0.000174284
0.000172332
0.000170347
0.000168329
0.000166278
0.000164191
0.000162068
0.000159907
0.000157706
0.000155464
0.000153179
0.000150847
0.000148467
0.000146034
0.000143546
0.000140998
0.000138389
0.000135719
0.000132993
0.00013018
0.000127264
0.000124232
0.000121066
0.000117743
0.000114234
0.000110501
0.000106492
0.000102167
9.74427e-05
9.21454e-05
8.60401e-05
7.87184e-05
6.94496e-05
5.78934e-05
0.000146361
6.7121e-05
0.000501855
0.000798206
0.00100463
0.00115851
0.00128471
0.00139283
0.00148779
0.00157232
0.00164903
0.00171929
0.00178413
0.00184435
0.00190058
0.00195328
0.00200285
0.00204959
0.00209376
0.00213559
0.00217525
0.00221289
0.00224867
0.00228268
0.00231504
0.00234584
0.00237516
0.00240306
0.00242962
0.00245491
0.00247896
0.00250183
0.00252358
0.00254424
0.00256386
0.00258248
0.00260013
0.00261684
0.00263266
0.00264761
0.00266173
0.00267503
0.00268756
0.00269933
0.00271034
0.00272057
0.00272991
0.00273856
0.00274658
0.00275403
0.00276091
0.00276727
0.00277313
0.00277849
0.00278338
0.00278782
0.00279182
0.00279541
0.00279858
0.00280137
0.00280379
0.00280584
0.00280754
0.0028089
0.00280994
0.00281067
0.0028111
0.00281123
0.00281108
0.00281066
0.00280998
0.00280904
0.00280786
0.00280644
0.00280478
0.00280291
0.00280081
0.00279851
0.002796
0.00279329
0.00279039
0.0027873
0.00278402
0.00278057
0.00277693
0.00277313
0.00276916
0.00276502
0.00276072
0.00275625
0.00275163
0.00274686
0.00274193
0.00273685
0.00273162
0.00272625
0.00272072
0.00271505
0.00270923
0.00270327
0.00269716
0.00269091
0.00268451
0.00267797
0.00267128
0.00266445
0.00265747
0.00265035
0.00264307
0.00263565
0.00262808
0.00262035
0.00261247
0.00260444
0.00259625
0.0025879
0.00257939
0.00257072
0.00256189
0.00255289
0.00254371
0.00253437
0.00252485
0.00251516
0.00250528
0.00249523
0.00248498
0.00247455
0.00246393
0.00245312
0.00244211
0.00243089
0.00241948
0.00240786
0.00239603
0.00238398
0.00237173
0.00235925
0.00234655
0.00233362
0.00232047
0.00230708
0.00229346
0.0022796
0.0022655
0.00225115
0.00223656
0.00222171
0.00220661
0.00219125
0.00217563
0.00215974
0.00214359
0.00212716
0.00211045
0.00209346
0.00207619
0.00205862
0.00204076
0.0020226
0.00200414
0.00198537
0.00196628
0.00194686
0.00192711
0.00190703
0.00188659
0.0018658
0.00184464
0.0018231
0.00180116
0.00177881
0.00175603
0.0017328
0.0017091
0.00168491
0.00166019
0.00163491
0.00160903
0.00158249
0.00155525
0.00152722
0.00149828
0.0014683
0.00143709
0.00140465
0.00137088
0.0013356
0.00129856
0.00125946
0.00121785
0.00117312
0.00112425
0.00106936
0.00100703
0.00093487
0.00084853
0.000740044
0.000593422
0.000372529
5.02752e-05
6.71245e-05
0.000501876
0.000798224
0.00100465
0.00115854
0.00128473
0.00139285
0.00148782
0.00157234
0.00164906
0.00171931
0.00178415
0.00184438
0.0019006
0.0019533
0.00200287
0.00204961
0.00209378
0.00213561
0.00217526
0.00221291
0.00224868
0.0022827
0.00231506
0.00234586
0.00237517
0.00240308
0.00242964
0.00245492
0.00247897
0.00250185
0.00252359
0.00254426
0.00256388
0.00258249
0.00260014
0.00261685
0.00263267
0.00264762
0.00266174
0.00267504
0.00268757
0.00269934
0.00271035
0.00272058
0.00272992
0.00273857
0.00274659
0.00275404
0.00276092
0.00276728
0.00277313
0.0027785
0.00278339
0.00278783
0.00279183
0.00279541
0.00279859
0.00280138
0.00280379
0.00280584
0.00280755
0.00280891
0.00280995
0.00281068
0.0028111
0.00281124
0.00281109
0.00281067
0.00280999
0.00280905
0.00280786
0.00280644
0.00280479
0.00280291
0.00280082
0.00279852
0.00279601
0.0027933
0.0027904
0.0027873
0.00278403
0.00278057
0.00277694
0.00277314
0.00276916
0.00276502
0.00276072
0.00275626
0.00275164
0.00274687
0.00274194
0.00273686
0.00273163
0.00272625
0.00272073
0.00271506
0.00270924
0.00270328
0.00269717
0.00269092
0.00268452
0.00267798
0.00267129
0.00266446
0.00265748
0.00265035
0.00264308
0.00263566
0.00262808
0.00262036
0.00261248
0.00260445
0.00259626
0.00258791
0.0025794
0.00257073
0.00256189
0.00255289
0.00254372
0.00253438
0.00252486
0.00251516
0.00250529
0.00249523
0.00248499
0.00247456
0.00246394
0.00245312
0.00244211
0.0024309
0.00241949
0.00240786
0.00239603
0.00238399
0.00237173
0.00235925
0.00234655
0.00233363
0.00232047
0.00230709
0.00229347
0.00227961
0.00226551
0.00225116
0.00223657
0.00222172
0.00220662
0.00219126
0.00217564
0.00215975
0.00214359
0.00212716
0.00211045
0.00209347
0.00207619
0.00205863
0.00204077
0.00202261
0.00200415
0.00198537
0.00196628
0.00194687
0.00192712
0.00190703
0.0018866
0.00186581
0.00184464
0.0018231
0.00180116
0.00177881
0.00175603
0.00173281
0.00170911
0.00168492
0.0016602
0.00163491
0.00160903
0.0015825
0.00155525
0.00152722
0.00149829
0.0014683
0.0014371
0.00140466
0.00137088
0.0013356
0.00129856
0.00125946
0.00121786
0.00117312
0.00112426
0.00106936
0.00100703
0.000934873
0.000848531
0.00074004
0.000593408
0.000372524
5.02688e-05
8.35381e-05
0.000762036
0.00135549
0.00179838
0.00214782
0.00243792
0.00268723
0.00290639
0.00310203
0.00327888
0.00344021
0.00358845
0.00372543
0.00385261
0.00397114
0.00408197
0.00418588
0.00428354
0.00437551
0.00446228
0.00454425
0.0046218
0.00469525
0.00476489
0.00483096
0.0048937
0.0049533
0.00500994
0.0050638
0.00511503
0.00516375
0.00521009
0.00525416
0.00529608
0.00533594
0.00537382
0.00540981
0.00544399
0.00547642
0.00550719
0.00553634
0.00556393
0.00559
0.00561459
0.00563769
0.00565926
0.00567948
0.00569843
0.0057162
0.00573284
0.00574841
0.00576295
0.0057765
0.00578909
0.00580077
0.00581157
0.00582151
0.00583063
0.00583895
0.00584651
0.00585332
0.00585941
0.00586481
0.00586954
0.00587363
0.00587708
0.00587992
0.00588217
0.00588385
0.00588498
0.00588557
0.00588563
0.00588518
0.00588425
0.00588282
0.00588093
0.00587859
0.0058758
0.00587257
0.00586892
0.00586485
0.00586037
0.0058555
0.00585023
0.00584458
0.00583856
0.00583216
0.0058254
0.00581827
0.0058108
0.00580297
0.00579479
0.00578627
0.0057774
0.0057682
0.00575866
0.00574879
0.00573859
0.00572805
0.00571718
0.00570598
0.00569444
0.00568258
0.00567039
0.00565786
0.00564499
0.00563179
0.00561825
0.00560437
0.00559015
0.00557558
0.00556066
0.00554539
0.00552977
0.00551378
0.00549743
0.00548071
0.00546361
0.00544614
0.00542829
0.00541005
0.00539141
0.00537238
0.00535294
0.00533309
0.00531282
0.00529213
0.00527102
0.00524946
0.00522746
0.00520502
0.00518212
0.00515875
0.00513492
0.0051106
0.00508581
0.00506052
0.00503473
0.00500844
0.00498163
0.0049543
0.00492643
0.00489803
0.00486909
0.00483958
0.00480952
0.00477888
0.00474766
0.00471585
0.00468344
0.00465042
0.00461677
0.0045825
0.00454758
0.00451201
0.00447577
0.00443884
0.00440123
0.0043629
0.00432384
0.00428404
0.00424347
0.00420212
0.00415996
0.00411696
0.00407311
0.00402836
0.0039827
0.00393607
0.00388844
0.00383976
0.00378998
0.00373905
0.00368689
0.00363343
0.00357858
0.00352224
0.0034643
0.00340462
0.00334302
0.00327931
0.00321323
0.00314448
0.00307274
0.00299769
0.00291891
0.00283582
0.00274768
0.00265356
0.00255218
0.00244178
0.00231992
0.00218305
0.00202644
0.00184425
0.00162658
0.00135776
0.00101248
0.000554496
6.1012e-05
8.35391e-05
0.000762052
0.00135552
0.00179843
0.00214787
0.00243797
0.00268729
0.00290645
0.00310208
0.00327893
0.00344026
0.0035885
0.00372548
0.00385265
0.00397118
0.00408201
0.00418592
0.00428358
0.00437555
0.00446231
0.00454428
0.00462183
0.00469528
0.00476492
0.00483099
0.00489372
0.00495332
0.00500997
0.00506383
0.00511505
0.00516377
0.00521011
0.00525418
0.0052961
0.00533595
0.00537383
0.00540982
0.005444
0.00547644
0.0055072
0.00553635
0.00556394
0.00559002
0.0056146
0.0056377
0.00565927
0.00567948
0.00569844
0.0057162
0.00573285
0.00574841
0.00576295
0.0057765
0.0057891
0.00580078
0.00581157
0.00582151
0.00583063
0.00583896
0.00584651
0.00585332
0.00585942
0.00586482
0.00586955
0.00587363
0.00587708
0.00587992
0.00588218
0.00588386
0.00588498
0.00588557
0.00588563
0.00588519
0.00588425
0.00588283
0.00588094
0.00587859
0.0058758
0.00587257
0.00586892
0.00586485
0.00586037
0.0058555
0.00585024
0.00584459
0.00583856
0.00583216
0.0058254
0.00581828
0.0058108
0.00580297
0.00579479
0.00578627
0.00577741
0.0057682
0.00575867
0.00574879
0.00573859
0.00572805
0.00571718
0.00570598
0.00569445
0.00568258
0.00567039
0.00565786
0.00564499
0.00563179
0.00561825
0.00560437
0.00559015
0.00557558
0.00556066
0.00554539
0.00552977
0.00551378
0.00549743
0.00548071
0.00546362
0.00544614
0.00542829
0.00541005
0.00539141
0.00537238
0.00535294
0.00533309
0.00531282
0.00529213
0.00527102
0.00524946
0.00522746
0.00520502
0.00518212
0.00515875
0.00513492
0.0051106
0.00508581
0.00506052
0.00503473
0.00500844
0.00498163
0.00495429
0.00492643
0.00489803
0.00486909
0.00483958
0.00480952
0.00477888
0.00474766
0.00471585
0.00468344
0.00465042
0.00461677
0.0045825
0.00454758
0.00451201
0.00447577
0.00443884
0.00440122
0.0043629
0.00432384
0.00428404
0.00424347
0.00420212
0.00415996
0.00411696
0.00407311
0.00402836
0.0039827
0.00393607
0.00388844
0.00383976
0.00378998
0.00373905
0.00368689
0.00363343
0.00357858
0.00352224
0.0034643
0.00340462
0.00334302
0.00327931
0.00321323
0.00314448
0.00307274
0.00299769
0.00291891
0.00283582
0.00274768
0.00265356
0.00255218
0.00244178
0.00231992
0.00218305
0.00202644
0.00184425
0.00162658
0.00135776
0.00101248
0.000554502
6.10117e-05
9.48e-05
0.00091806
0.00172603
0.00236701
0.00289059
0.00333278
0.00371612
0.00405489
0.00435857
0.00463379
0.00488531
0.00511671
0.0053307
0.00552946
0.00571471
0.00588789
0.00605019
0.00620263
0.00634607
0.00648128
0.00660891
0.00672955
0.00684371
0.00695186
0.0070544
0.00715171
0.00724412
0.00733194
0.00741543
0.00749484
0.00757041
0.00764233
0.0077108
0.00777599
0.00783806
0.00789716
0.00795343
0.00800698
0.00805793
0.00810639
0.00815247
0.00819623
0.00823776
0.00827712
0.00831436
0.0083495
0.00838268
0.00841402
0.0084436
0.00847151
0.00849782
0.0085226
0.00854591
0.00856781
0.00858834
0.00860756
0.00862551
0.00864224
0.00865778
0.00867218
0.00868547
0.00869769
0.00870888
0.00871906
0.00872827
0.00873653
0.00874388
0.00875034
0.00875594
0.0087607
0.00876464
0.00876778
0.00877016
0.00877178
0.00877266
0.00877283
0.0087723
0.00877108
0.00876919
0.00876664
0.00876346
0.00875964
0.0087552
0.00875016
0.00874452
0.00873828
0.00873147
0.00872409
0.00871614
0.00870764
0.00869858
0.00868897
0.00867883
0.00866814
0.00865692
0.00864517
0.00863289
0.00862009
0.00860676
0.0085929
0.00857852
0.00856362
0.00854819
0.00853223
0.00851575
0.00849873
0.00848119
0.0084631
0.00844448
0.00842532
0.00840561
0.00838534
0.00836452
0.00834313
0.00832118
0.00829865
0.00827554
0.00825184
0.00822755
0.00820265
0.00817714
0.00815101
0.00812425
0.00809685
0.00806881
0.00804011
0.00801075
0.0079807
0.00794998
0.00791855
0.00788642
0.00785357
0.00781999
0.00778567
0.00775059
0.00771476
0.00767814
0.00764074
0.00760253
0.00756351
0.00752366
0.00748297
0.00744143
0.00739901
0.00735571
0.00731151
0.00726639
0.00722034
0.00717334
0.00712538
0.00707643
0.00702647
0.00697549
0.00692347
0.00687037
0.00681618
0.00676088
0.00670442
0.00664679
0.00658796
0.00652788
0.00646653
0.00640386
0.00633983
0.00627439
0.0062075
0.00613908
0.00606909
0.00599745
0.00592408
0.0058489
0.00577181
0.00569271
0.00561146
0.00552793
0.00544196
0.00535336
0.00526192
0.00516739
0.00506947
0.00496781
0.00486199
0.00475153
0.00463585
0.0045143
0.00438606
0.00425011
0.00410514
0.00394947
0.00378092
0.00359666
0.00339293
0.00316461
0.00290487
0.00260503
0.00225241
0.0018291
0.00131087
0.00067602
6.94839e-05
9.48005e-05
0.000918079
0.00172608
0.00236707
0.00289066
0.00333286
0.00371619
0.00405496
0.00435864
0.00463386
0.00488539
0.00511678
0.00533077
0.00552953
0.00571477
0.00588795
0.00605025
0.00620268
0.00634612
0.00648133
0.00660896
0.0067296
0.00684376
0.0069519
0.00705444
0.00715175
0.00724416
0.00733197
0.00741546
0.00749487
0.00757043
0.00764235
0.00771082
0.00777601
0.00783809
0.00789718
0.00795344
0.00800699
0.00805795
0.00810641
0.00815248
0.00819624
0.00823777
0.00827713
0.00831437
0.00834951
0.00838269
0.00841403
0.00844361
0.00847152
0.00849783
0.00852261
0.00854592
0.00856781
0.00858835
0.00860756
0.00862551
0.00864224
0.00865778
0.00867218
0.00868547
0.0086977
0.00870888
0.00871906
0.00872827
0.00873653
0.00874388
0.00875034
0.00875594
0.0087607
0.00876464
0.00876778
0.00877016
0.00877178
0.00877266
0.00877283
0.00877229
0.00877108
0.00876919
0.00876664
0.00876346
0.00875964
0.0087552
0.00875016
0.00874451
0.00873828
0.00873147
0.00872409
0.00871614
0.00870763
0.00869858
0.00868897
0.00867882
0.00866814
0.00865692
0.00864517
0.00863289
0.00862009
0.00860675
0.0085929
0.00857852
0.00856361
0.00854818
0.00853223
0.00851574
0.00849873
0.00848118
0.0084631
0.00844448
0.00842531
0.0084056
0.00838534
0.00836451
0.00834313
0.00832118
0.00829865
0.00827554
0.00825184
0.00822754
0.00820265
0.00817714
0.00815101
0.00812425
0.00809685
0.00806881
0.00804011
0.00801074
0.0079807
0.00794997
0.00791855
0.00788641
0.00785356
0.00781998
0.00778566
0.00775059
0.00771475
0.00767814
0.00764073
0.00760253
0.00756351
0.00752366
0.00748297
0.00744142
0.007399
0.0073557
0.0073115
0.00726638
0.00722034
0.00717334
0.00712537
0.00707642
0.00702647
0.00697549
0.00692346
0.00687036
0.00681618
0.00676087
0.00670442
0.00664679
0.00658795
0.00652788
0.00646652
0.00640385
0.00633982
0.00627439
0.00620749
0.00613908
0.00606908
0.00599744
0.00592408
0.0058489
0.00577181
0.0056927
0.00561145
0.00552792
0.00544195
0.00535336
0.00526192
0.00516739
0.00506947
0.00496781
0.00486199
0.00475152
0.00463584
0.00451429
0.00438606
0.0042501
0.00410513
0.00394946
0.00378092
0.00359666
0.00339293
0.00316461
0.00290487
0.00260503
0.00225241
0.0018291
0.00131087
0.00067602
6.9484e-05
0.000103845
0.00102484
0.0019904
0.00278924
0.00345728
0.00402939
0.00452973
0.00497465
0.00537544
0.00574013
0.00607458
0.0063832
0.00666939
0.00693584
0.00718474
0.00741786
0.00763671
0.00784257
0.00803653
0.00821956
0.0083925
0.0085561
0.00871103
0.00885789
0.00899723
0.00912952
0.00925522
0.00937474
0.00948843
0.00959664
0.00969968
0.00979783
0.00989135
0.00998048
0.0100654
0.0101464
0.0102236
0.0102972
0.0103674
0.0104343
0.010498
0.0105586
0.0106163
0.0106712
0.0107234
0.0107728
0.0108198
0.0108643
0.0109065
0.0109466
0.0109845
0.0110204
0.0110544
0.0110865
0.0111168
0.0111454
0.0111723
0.0111976
0.0112213
0.0112436
0.0112643
0.0112837
0.0113017
0.0113184
0.0113338
0.0113479
0.0113608
0.0113726
0.0113832
0.0113927
0.0114011
0.0114085
0.0114148
0.0114202
0.0114245
0.0114279
0.0114304
0.0114319
0.0114326
0.0114323
0.0114312
0.0114293
0.0114265
0.0114229
0.0114185
0.0114133
0.0114074
0.0114006
0.0113931
0.0113848
0.0113758
0.0113661
0.0113556
0.0113444
0.0113324
0.0113198
0.0113064
0.0112923
0.0112775
0.0112619
0.0112457
0.0112287
0.011211
0.0111927
0.0111735
0.0111537
0.0111332
0.0111119
0.0110899
0.0110671
0.0110436
0.0110193
0.0109943
0.0109685
0.010942
0.0109146
0.0108865
0.0108576
0.0108278
0.0107972
0.0107658
0.0107336
0.0107005
0.0106665
0.0106317
0.0105959
0.0105593
0.0105217
0.0104832
0.0104438
0.0104034
0.010362
0.0103196
0.0102761
0.0102317
0.0101862
0.0101397
0.0100921
0.0100433
0.0099935
0.00994252
0.00989039
0.00983707
0.00978256
0.00972682
0.00966985
0.0096116
0.00955206
0.0094912
0.009429
0.00936542
0.00930045
0.00923403
0.00916615
0.00909677
0.00902585
0.00895335
0.00887923
0.00880344
0.00872594
0.00864667
0.00856558
0.0084826
0.00839767
0.00831072
0.00822166
0.00813041
0.00803687
0.00794094
0.00784249
0.00774141
0.00763753
0.00753069
0.00742072
0.00730738
0.00719046
0.00706966
0.00694467
0.00681511
0.00668056
0.00654049
0.00639432
0.00624134
0.00608071
0.00591146
0.00573236
0.00554194
0.00533835
0.00511926
0.00488174
0.00462203
0.00433533
0.00401539
0.00365419
0.00324136
0.00276361
0.00220362
0.00154132
0.000769048
7.62673e-05
0.000103845
0.00102486
0.00199045
0.00278931
0.00345736
0.00402948
0.00452982
0.00497474
0.00537554
0.00574023
0.00607467
0.00638329
0.00666948
0.00693593
0.00718482
0.00741794
0.00763679
0.00784264
0.0080366
0.00821963
0.00839256
0.00855616
0.00871109
0.00885795
0.00899728
0.00912957
0.00925527
0.00937478
0.00948847
0.00959668
0.00969972
0.00979787
0.00989138
0.00998051
0.0100655
0.0101465
0.0102237
0.0102973
0.0103674
0.0104343
0.010498
0.0105586
0.0106163
0.0106712
0.0107234
0.0107728
0.0108198
0.0108643
0.0109065
0.0109466
0.0109845
0.0110204
0.0110544
0.0110865
0.0111168
0.0111454
0.0111723
0.0111976
0.0112213
0.0112436
0.0112643
0.0112837
0.0113017
0.0113184
0.0113338
0.0113479
0.0113608
0.0113726
0.0113832
0.0113927
0.0114011
0.0114085
0.0114148
0.0114202
0.0114245
0.0114279
0.0114304
0.0114319
0.0114326
0.0114323
0.0114312
0.0114293
0.0114265
0.0114229
0.0114185
0.0114133
0.0114074
0.0114006
0.0113931
0.0113848
0.0113758
0.0113661
0.0113556
0.0113444
0.0113324
0.0113198
0.0113064
0.0112923
0.0112774
0.0112619
0.0112457
0.0112287
0.011211
0.0111927
0.0111735
0.0111537
0.0111332
0.0111119
0.0110898
0.0110671
0.0110436
0.0110193
0.0109943
0.0109685
0.010942
0.0109146
0.0108865
0.0108576
0.0108278
0.0107972
0.0107658
0.0107336
0.0107005
0.0106665
0.0106317
0.0105959
0.0105593
0.0105217
0.0104832
0.0104438
0.0104033
0.0103619
0.0103195
0.0102761
0.0102317
0.0101862
0.0101397
0.0100921
0.0100433
0.00999349
0.00994251
0.00989038
0.00983706
0.00978255
0.00972681
0.00966984
0.00961159
0.00955205
0.00949119
0.00942899
0.00936541
0.00930044
0.00923402
0.00916614
0.00909676
0.00902584
0.00895334
0.00887922
0.00880343
0.00872593
0.00864666
0.00856557
0.00848259
0.00839766
0.00831071
0.00822165
0.0081304
0.00803686
0.00794093
0.00784248
0.0077414
0.00763752
0.00753068
0.00742071
0.00730738
0.00719045
0.00706965
0.00694466
0.0068151
0.00668055
0.00654048
0.00639431
0.00624133
0.0060807
0.00591145
0.00573235
0.00554193
0.00533834
0.00511926
0.00488173
0.00462203
0.00433533
0.00401538
0.00365419
0.00324136
0.00276361
0.00220362
0.00154132
0.000769045
7.62673e-05
0.000111545
0.00111006
0.00219552
0.00311919
0.00390506
0.00458564
0.00518548
0.00572201
0.00620766
0.00665141
0.00705991
0.00743819
0.00779013
0.00811883
0.00842676
0.00871596
0.00898815
0.00924479
0.00948714
0.00971628
0.0099332
0.0101387
0.0103337
0.0105188
0.0106946
0.0108617
0.0110207
0.011172
0.0113161
0.0114533
0.0115842
0.0117089
0.0118279
0.0119414
0.0120497
0.012153
0.0122516
0.0123458
0.0124356
0.0125214
0.0126032
0.0126812
0.0127557
0.0128266
0.0128942
0.0129585
0.0130197
0.013078
0.0131334
0.0131861
0.0132362
0.0132838
0.013329
0.0133719
0.0134126
0.0134511
0.0134876
0.013522
0.0135546
0.0135853
0.0136141
0.0136413
0.0136667
0.0136905
0.0137128
0.0137335
0.0137526
0.0137704
0.0137867
0.0138016
0.0138152
0.0138275
0.0138386
0.0138483
0.0138569
0.0138643
0.0138705
0.0138756
0.0138795
0.0138824
0.0138842
0.0138849
0.0138846
0.0138833
0.013881
0.0138776
0.0138733
0.0138681
0.0138619
0.0138547
0.0138466
0.0138376
0.0138276
0.0138167
0.013805
0.0137923
0.0137787
0.0137642
0.0137488
0.0137325
0.0137154
0.0136973
0.0136783
0.0136585
0.0136377
0.013616
0.0135934
0.0135699
0.0135455
0.0135201
0.0134938
0.0134665
0.0134383
0.0134092
0.013379
0.0133479
0.0133158
0.0132826
0.0132485
0.0132133
0.0131771
0.0131398
0.0131014
0.0130619
0.0130214
0.0129797
0.0129368
0.0128928
0.0128476
0.0128012
0.0127536
0.0127048
0.0126547
0.0126033
0.0125506
0.0124966
0.0124413
0.0123845
0.0123264
0.0122669
0.0122059
0.0121434
0.0120795
0.012014
0.011947
0.0118783
0.0118081
0.0117361
0.0116625
0.0115872
0.0115101
0.0114312
0.0113504
0.0112678
0.0111832
0.0110966
0.0110079
0.0109172
0.0108242
0.0107291
0.0106316
0.0105317
0.0104294
0.0103245
0.010217
0.0101066
0.00999343
0.00987719
0.00975779
0.00963506
0.00950883
0.00937889
0.00924503
0.00910699
0.00896448
0.00881718
0.00866472
0.00850668
0.00834255
0.00817177
0.00799366
0.00780745
0.00761221
0.00740685
0.00719008
0.00696033
0.0067157
0.00645387
0.00617196
0.00586641
0.0055328
0.00516559
0.00475782
0.00430081
0.00378365
0.00319316
0.0025138
0.00173007
0.000845595
8.20021e-05
0.000111545
0.00111008
0.00219556
0.00311925
0.00390514
0.00458574
0.00518558
0.00572212
0.00620777
0.00665152
0.00706001
0.00743829
0.00779024
0.00811893
0.00842685
0.00871605
0.00898825
0.00924488
0.00948722
0.00971637
0.00993328
0.0101388
0.0103338
0.0105188
0.0106946
0.0108618
0.0110207
0.011172
0.0113161
0.0114534
0.0115842
0.0117089
0.0118279
0.0119414
0.0120497
0.012153
0.0122517
0.0123458
0.0124357
0.0125214
0.0126032
0.0126813
0.0127557
0.0128266
0.0128942
0.0129585
0.0130198
0.013078
0.0131334
0.0131861
0.0132362
0.0132838
0.013329
0.0133719
0.0134126
0.0134511
0.0134876
0.013522
0.0135546
0.0135853
0.0136141
0.0136413
0.0136667
0.0136905
0.0137128
0.0137335
0.0137526
0.0137704
0.0137867
0.0138016
0.0138152
0.0138275
0.0138386
0.0138483
0.0138569
0.0138643
0.0138705
0.0138756
0.0138795
0.0138824
0.0138842
0.0138849
0.0138846
0.0138833
0.013881
0.0138776
0.0138733
0.0138681
0.0138619
0.0138547
0.0138466
0.0138376
0.0138276
0.0138167
0.013805
0.0137923
0.0137787
0.0137642
0.0137488
0.0137325
0.0137154
0.0136973
0.0136783
0.0136585
0.0136377
0.013616
0.0135934
0.0135699
0.0135454
0.0135201
0.0134938
0.0134665
0.0134383
0.0134092
0.013379
0.0133479
0.0133158
0.0132826
0.0132485
0.0132133
0.0131771
0.0131398
0.0131014
0.0130619
0.0130213
0.0129796
0.0129368
0.0128928
0.0128476
0.0128012
0.0127536
0.0127048
0.0126547
0.0126033
0.0125506
0.0124966
0.0124413
0.0123845
0.0123264
0.0122669
0.0122059
0.0121434
0.0120795
0.012014
0.0119469
0.0118783
0.011808
0.0117361
0.0116625
0.0115872
0.0115101
0.0114312
0.0113504
0.0112678
0.0111832
0.0110966
0.0110079
0.0109172
0.0108242
0.0107291
0.0106316
0.0105317
0.0104294
0.0103245
0.010217
0.0101066
0.00999342
0.00987718
0.00975778
0.00963505
0.00950882
0.00937888
0.00924502
0.00910697
0.00896447
0.00881717
0.00866471
0.00850667
0.00834254
0.00817176
0.00799365
0.00780744
0.0076122
0.00740684
0.00719007
0.00696032
0.0067157
0.00645386
0.00617195
0.00586641
0.0055328
0.00516558
0.00475782
0.00430081
0.00378365
0.00319316
0.0025138
0.00173007
0.000845592
8.20021e-05
0.000118458
0.00118303
0.00236487
0.00338894
0.00427119
0.005042
0.00572578
0.00634057
0.0068995
0.00741222
0.00788594
0.00832614
0.00873707
0.00912208
0.00948388
0.00982469
0.0101464
0.0104505
0.0107384
0.0110113
0.0112702
0.011516
0.0117497
0.0119719
0.0121833
0.0123846
0.0125764
0.0127592
0.0129335
0.0130997
0.0132583
0.0134097
0.0135543
0.0136923
0.0138242
0.0139501
0.0140705
0.0141855
0.0142953
0.0144003
0.0145006
0.0145964
0.0146879
0.0147753
0.0148586
0.0149382
0.015014
0.0150864
0.0151554
0.0152211
0.0152837
0.0153434
0.0154002
0.0154543
0.0155057
0.0155546
0.015601
0.015645
0.0156868
0.0157263
0.0157637
0.015799
0.0158323
0.0158637
0.0158932
0.0159209
0.0159467
0.0159709
0.0159934
0.0160142
0.0160335
0.0160512
0.0160673
0.0160821
0.0160953
0.0161072
0.0161176
0.0161267
0.0161345
0.016141
0.0161462
0.0161501
0.0161528
0.0161543
0.0161546
0.0161537
0.0161517
0.0161485
0.0161441
0.0161386
0.016132
0.0161243
0.0161155
0.0161056
0.0160947
0.0160826
0.0160694
0.0160552
0.0160399
0.0160236
0.0160061
0.0159876
0.015968
0.0159473
0.0159256
0.0159028
0.0158788
0.0158538
0.0158277
0.0158004
0.0157721
0.0157426
0.0157119
0.0156802
0.0156472
0.015613
0.0155777
0.0155412
0.0155034
0.0154644
0.0154241
0.0153826
0.0153397
0.0152956
0.0152501
0.0152033
0.0151551
0.0151055
0.0150545
0.015002
0.0149481
0.0148926
0.0148357
0.0147772
0.0147172
0.0146555
0.0145923
0.0145273
0.0144607
0.0143924
0.0143223
0.0142504
0.0141767
0.0141011
0.0140237
0.0139443
0.0138629
0.0137795
0.0136941
0.0136065
0.0135168
0.0134248
0.0133306
0.0132341
0.0131351
0.0130337
0.0129298
0.0128233
0.0127141
0.0126022
0.0124874
0.0123696
0.0122488
0.0121248
0.0119975
0.0118668
0.0117324
0.0115943
0.0114523
0.0113061
0.0111556
0.0110004
0.0108403
0.010675
0.0105041
0.0103273
0.010144
0.00995367
0.00975579
0.00954961
0.00933431
0.00910892
0.00887233
0.00862321
0.00835997
0.00808075
0.00778327
0.00746482
0.00712207
0.00675098
0.00634663
0.00590299
0.00541269
0.00486677
0.00425442
0.00356304
0.00277898
0.00189087
0.000911242
8.7026e-05
0.000118459
0.00118305
0.00236492
0.00338901
0.00427127
0.00504209
0.00572589
0.00634068
0.00689961
0.00741234
0.00788606
0.00832626
0.00873718
0.00912219
0.00948399
0.00982479
0.0101465
0.0104506
0.0107385
0.0110113
0.0112702
0.0115161
0.0117497
0.0119719
0.0121834
0.0123847
0.0125765
0.0127592
0.0129335
0.0130998
0.0132584
0.0134098
0.0135543
0.0136924
0.0138242
0.0139502
0.0140705
0.0141855
0.0142954
0.0144003
0.0145006
0.0145964
0.0146879
0.0147753
0.0148586
0.0149382
0.0150141
0.0150864
0.0151554
0.0152211
0.0152838
0.0153434
0.0154002
0.0154543
0.0155057
0.0155546
0.015601
0.015645
0.0156868
0.0157263
0.0157637
0.015799
0.0158323
0.0158637
0.0158932
0.0159209
0.0159468
0.0159709
0.0159934
0.0160142
0.0160335
0.0160512
0.0160673
0.0160821
0.0160953
0.0161072
0.0161176
0.0161267
0.0161345
0.016141
0.0161462
0.0161501
0.0161528
0.0161543
0.0161546
0.0161537
0.0161517
0.0161485
0.0161441
0.0161386
0.016132
0.0161243
0.0161155
0.0161056
0.0160946
0.0160826
0.0160694
0.0160552
0.0160399
0.0160235
0.0160061
0.0159876
0.015968
0.0159473
0.0159256
0.0159028
0.0158788
0.0158538
0.0158277
0.0158004
0.0157721
0.0157426
0.0157119