/*--------------------------------*- C++ -*----------------------------------*\
  =========                 |
  \\      /  F ield         | OpenFOAM: The Open Source CFD Toolbox
   \\    /   O peration     | Website:  https://openfoam.org
    \\  /    A nd           | Version:  8
     \\/     M anipulation  |
\*---------------------------------------------------------------------------*/
FoamFile
{
    version     2.0;
    format      ascii;
    class       surfaceScalarField;
    location    "2800";
    object      phi;
}
// * * * * * * * * * * * * * * * * * * * * * * * * * * * * * * * * * * * * * //

dimensions      [1 0 -1 0 0 0 0];

internalField   nonuniform List<scalar> 
119360
(
-3.38262e-07
-1.73469e-11
3.38279e-07
-5.7877e-07
-5.46872e-12
2.40654e-07
-6.80123e-07
-3.4892e-12
1.01401e-07
-6.59054e-07
-2.46263e-12
-2.10294e-08
-5.50106e-07
-2.0191e-12
-1.08911e-07
-3.82376e-07
-1.90697e-12
-1.67695e-07
-1.76919e-07
-1.84291e-12
-2.05422e-07
5.14598e-08
-1.79861e-12
-2.28344e-07
2.91955e-07
-1.69358e-12
-2.40461e-07
5.37019e-07
-1.488e-12
-2.45032e-07
7.81844e-07
-1.29532e-12
-2.44795e-07
1.02303e-06
-1.14378e-12
-2.41158e-07
1.2582e-06
-1.02351e-12
-2.35147e-07
1.48569e-06
-9.29558e-13
-2.27463e-07
1.70432e-06
-8.73353e-13
-2.18608e-07
1.91329e-06
-8.43405e-13
-2.08949e-07
2.11207e-06
-8.08517e-13
-1.98764e-07
2.30035e-06
-7.59389e-13
-1.88262e-07
2.47797e-06
-7.1462e-13
-1.77607e-07
2.64492e-06
-6.82506e-13
-1.66928e-07
2.80126e-06
-6.45758e-13
-1.56325e-07
2.94715e-06
-5.8353e-13
-1.45879e-07
3.08282e-06
-4.99098e-13
-1.35654e-07
3.20853e-06
-4.14943e-13
-1.257e-07
3.3246e-06
-3.4808e-13
-1.16057e-07
3.43137e-06
-2.97037e-13
-1.06756e-07
3.5292e-06
-2.5224e-13
-9.78183e-08
3.61847e-06
-2.11869e-13
-8.92613e-08
3.69957e-06
-1.8639e-13
-8.1095e-08
3.7729e-06
-1.87347e-13
-7.33254e-08
3.83887e-06
-2.1538e-13
-6.59541e-08
3.89785e-06
-2.56986e-13
-5.89793e-08
3.95025e-06
-2.93277e-13
-5.23961e-08
3.99646e-06
-3.13538e-13
-4.61971e-08
4.03684e-06
-3.20075e-13
-4.03729e-08
4.07176e-06
-3.25071e-13
-3.49124e-08
4.10157e-06
-3.40544e-13
-2.98033e-08
4.1266e-06
-3.69493e-13
-2.5032e-08
4.1472e-06
-4.05423e-13
-2.05844e-08
4.16365e-06
-4.37342e-13
-1.64457e-08
4.17626e-06
-4.57423e-13
-1.26008e-08
4.1853e-06
-4.66846e-13
-9.03455e-09
4.19104e-06
-4.73396e-13
-5.73214e-09
4.19373e-06
-4.8665e-13
-2.67867e-09
4.1936e-06
-5.11602e-13
1.41576e-10
4.19087e-06
-5.46019e-13
2.74252e-09
4.18574e-06
-5.82989e-13
5.1373e-09
4.17841e-06
-6.14381e-13
7.34e-09
4.16906e-06
-6.35753e-13
9.36359e-09
4.15786e-06
-6.48479e-13
1.12202e-08
4.14495e-06
-6.58846e-13
1.29212e-08
4.13049e-06
-6.73292e-13
1.44774e-08
4.1146e-06
-6.94206e-13
1.58989e-08
4.09743e-06
-7.18506e-13
1.71954e-08
4.07907e-06
-7.37519e-13
1.83759e-08
4.05964e-06
-7.40919e-13
1.94489e-08
4.03923e-06
-7.20102e-13
2.04224e-08
4.01795e-06
-6.72501e-13
2.13037e-08
3.99587e-06
-6.01697e-13
2.20998e-08
3.97307e-06
-5.17403e-13
2.28171e-08
3.94963e-06
-4.32249e-13
2.34614e-08
3.92561e-06
-3.58322e-13
2.40383e-08
3.90108e-06
-3.03741e-13
2.45528e-08
3.87609e-06
-2.71753e-13
2.50096e-08
3.85069e-06
-2.60054e-13
2.54132e-08
3.82494e-06
-2.62524e-13
2.57676e-08
3.79888e-06
-2.71406e-13
2.60767e-08
3.77255e-06
-2.78595e-13
2.6344e-08
3.74599e-06
-2.78831e-13
2.65729e-08
3.71923e-06
-2.69408e-13
2.67664e-08
3.69232e-06
-2.51172e-13
2.69275e-08
3.66527e-06
-2.26803e-13
2.70588e-08
3.63812e-06
-2.00602e-13
2.71629e-08
3.61089e-06
-1.76801e-13
2.7242e-08
3.5836e-06
-1.58899e-13
2.72983e-08
3.55628e-06
-1.48865e-13
2.73339e-08
3.52894e-06
-1.472e-13
2.73506e-08
3.50159e-06
-1.52765e-13
2.73504e-08
3.47427e-06
-1.63423e-13
2.73348e-08
3.44697e-06
-1.76912e-13
2.73054e-08
3.41971e-06
-1.90429e-13
2.72639e-08
3.39251e-06
-2.02073e-13
2.72116e-08
3.36537e-06
-2.10802e-13
2.71499e-08
3.33829e-06
-2.15951e-13
2.70801e-08
3.3113e-06
-2.18324e-13
2.70034e-08
3.28438e-06
-2.18726e-13
2.69209e-08
3.25756e-06
-2.19032e-13
2.68337e-08
3.23082e-06
-2.20905e-13
2.67428e-08
3.20418e-06
-2.25971e-13
2.66493e-08
3.17763e-06
-2.3556e-13
2.6554e-08
3.15118e-06
-2.50465e-13
2.64577e-08
3.12483e-06
-2.71198e-13
2.63614e-08
3.09857e-06
-2.97094e-13
2.62658e-08
3.07241e-06
-3.27515e-13
2.61717e-08
3.04634e-06
-3.6121e-13
2.60797e-08
3.02035e-06
-3.96529e-13
2.59906e-08
2.99446e-06
-4.31654e-13
2.59049e-08
2.96864e-06
-4.64919e-13
2.58234e-08
2.94291e-06
-4.94492e-13
2.57466e-08
2.91724e-06
-5.19334e-13
2.5675e-08
2.89164e-06
-5.38263e-13
2.56092e-08
2.8661e-06
-5.50906e-13
2.55498e-08
2.84062e-06
-5.56929e-13
2.54973e-08
2.81518e-06
-5.56734e-13
2.5452e-08
2.78978e-06
-5.50656e-13
2.54146e-08
2.7644e-06
-5.39887e-13
2.53854e-08
2.73905e-06
-5.25523e-13
2.53649e-08
2.71371e-06
-5.08634e-13
2.53536e-08
2.68838e-06
-4.90746e-13
2.53517e-08
2.66303e-06
-4.7251e-13
2.53599e-08
2.63767e-06
-4.5533e-13
2.53784e-08
2.61228e-06
-4.39509e-13
2.54077e-08
2.58685e-06
-4.25298e-13
2.54481e-08
2.56136e-06
-4.12586e-13
2.55001e-08
2.53581e-06
-4.00679e-13
2.55639e-08
2.51019e-06
-3.88661e-13
2.564e-08
2.48447e-06
-3.74977e-13
2.57288e-08
2.45866e-06
-3.5899e-13
2.58305e-08
2.43273e-06
-3.38951e-13
2.59456e-08
2.40667e-06
-3.14276e-13
2.60744e-08
2.38046e-06
-2.84494e-13
2.62171e-08
2.3541e-06
-2.498e-13
2.63742e-08
2.32757e-06
-2.10998e-13
2.6546e-08
2.30085e-06
-1.6978e-13
2.67327e-08
2.27393e-06
-1.28119e-13
2.69346e-08
2.24679e-06
-8.73465e-14
2.7152e-08
2.21941e-06
-4.93213e-14
2.73852e-08
2.19179e-06
-1.45991e-14
2.76344e-08
2.1639e-06
1.73753e-14
2.78999e-08
2.13573e-06
4.76288e-14
2.81818e-08
2.10725e-06
7.85208e-14
2.84805e-08
2.07847e-06
1.12383e-13
2.8796e-08
2.04934e-06
1.5124e-13
2.91286e-08
2.01987e-06
1.95594e-13
2.94785e-08
1.99003e-06
2.44693e-13
2.98457e-08
1.9598e-06
2.95569e-13
3.02304e-08
1.92917e-06
3.43559e-13
3.06325e-08
1.89812e-06
3.83638e-13
3.10522e-08
1.86663e-06
4.10644e-13
3.14893e-08
1.83468e-06
4.22523e-13
3.19437e-08
1.80226e-06
4.19637e-13
3.24153e-08
1.76935e-06
4.05592e-13
3.29041e-08
1.73594e-06
3.87274e-13
3.34096e-08
1.702e-06
3.72008e-13
3.39318e-08
1.66753e-06
3.65597e-13
3.44703e-08
1.63249e-06
3.69621e-13
3.50246e-08
1.59689e-06
3.81945e-13
3.55945e-08
1.5607e-06
3.95739e-13
3.61792e-08
1.52392e-06
4.024e-13
3.67782e-08
1.48652e-06
3.95684e-13
3.73906e-08
1.44849e-06
3.74117e-13
3.80156e-08
1.40983e-06
3.41949e-13
3.86522e-08
1.37052e-06
3.07504e-13
3.92994e-08
1.33055e-06
2.79221e-13
3.99561e-08
1.28992e-06
2.61569e-13
4.06209e-08
1.24861e-06
2.52437e-13
4.12923e-08
1.20664e-06
2.42806e-13
4.19687e-08
1.16398e-06
2.23571e-13
4.26482e-08
1.12064e-06
1.9032e-13
4.33287e-08
1.07662e-06
1.47465e-13
4.40081e-08
1.03193e-06
1.07275e-13
4.46837e-08
9.86563e-07
8.15737e-14
4.53528e-08
9.40542e-07
7.41629e-14
4.60123e-08
8.93874e-07
7.41907e-14
4.66589e-08
8.46578e-07
6.35881e-14
4.72885e-08
7.98673e-07
2.69507e-14
4.78968e-08
7.50187e-07
-3.51108e-14
4.8479e-08
7.0115e-07
-1.03584e-13
4.90296e-08
6.51602e-07
-1.51851e-13
4.95427e-08
6.01586e-07
-1.65146e-13
5.00114e-08
5.51154e-07
-1.54932e-13
5.04282e-08
5.00367e-07
-1.5099e-13
5.0784e-08
4.49295e-07
-1.76609e-13
5.1069e-08
3.98022e-07
-2.26097e-13
5.12717e-08
3.46642e-07
-2.66925e-13
5.13791e-08
2.95266e-07
-2.69867e-13
5.13765e-08
2.4402e-07
-2.41585e-13
5.12466e-08
1.93053e-07
-2.21628e-13
5.09693e-08
1.42534e-07
-2.42417e-13
5.05212e-08
9.26623e-08
-2.88713e-13
4.98742e-08
4.36723e-08
-3.09031e-13
4.89935e-08
-4.16232e-09
-2.74114e-13
4.78392e-08
-5.04946e-08
-2.18492e-13
4.63374e-08
-9.49252e-08
-2.00562e-13
4.44359e-08
-1.37016e-07
-2.14939e-13
4.2096e-08
-1.7626e-07
-1.93845e-13
3.92497e-08
-2.12054e-07
-1.17406e-13
3.58012e-08
-2.43675e-07
-6.66134e-14
3.16278e-08
-2.70267e-07
-1.00364e-13
2.65978e-08
-2.90802e-07
-1.43052e-13
2.05411e-08
-3.04055e-07
-1.04527e-13
1.32598e-08
-3.08571e-07
-4.87388e-14
4.52217e-09
-3.02682e-07
-2.65898e-14
-5.88351e-09
-2.84562e-07
8.78187e-14
-1.81144e-08
-2.52345e-07
2.24765e-13
-3.22111e-08
-2.0457e-07
1.08691e-13
-4.77698e-08
-1.4139e-07
5.51781e-14
-6.31751e-08
-6.73569e-08
1.90625e-13
-7.40274e-08
-4.45513e-09
2.58349e-13
-6.28974e-08
8.55315e-13
-4.44836e-09
-3.38248e-07
3.38305e-07
-5.78764e-07
2.40665e-07
-6.80117e-07
1.01407e-07
-6.59047e-07
-2.10263e-08
-5.50099e-07
-1.08909e-07
-3.82369e-07
-1.67693e-07
-1.76912e-07
-2.0542e-07
5.14663e-08
-2.28341e-07
2.91961e-07
-2.40459e-07
5.37025e-07
-2.4503e-07
7.81849e-07
-2.44793e-07
1.02303e-06
-2.41157e-07
1.25821e-06
-2.35146e-07
1.48569e-06
-2.27462e-07
1.70432e-06
-2.18607e-07
1.91329e-06
-2.08948e-07
2.11207e-06
-1.98762e-07
2.30035e-06
-1.88261e-07
2.47797e-06
-1.77606e-07
2.64492e-06
-1.66927e-07
2.80126e-06
-1.56324e-07
2.94715e-06
-1.45878e-07
3.08282e-06
-1.35653e-07
3.20853e-06
-1.25699e-07
3.3246e-06
-1.16056e-07
3.43137e-06
-1.06755e-07
3.5292e-06
-9.78175e-08
3.61847e-06
-8.92605e-08
3.69957e-06
-8.10943e-08
3.7729e-06
-7.33248e-08
3.83886e-06
-6.59536e-08
3.89785e-06
-5.89788e-08
3.95025e-06
-5.23956e-08
3.99646e-06
-4.61965e-08
4.03683e-06
-4.03723e-08
4.07175e-06
-3.49118e-08
4.10156e-06
-2.98027e-08
4.1266e-06
-2.50314e-08
4.14719e-06
-2.05837e-08
4.16365e-06
-1.64449e-08
4.17626e-06
-1.25999e-08
4.1853e-06
-9.03365e-09
4.19104e-06
-5.73117e-09
4.19373e-06
-2.67764e-09
4.1936e-06
1.4267e-10
4.19086e-06
2.74369e-09
4.18574e-06
5.13855e-09
4.17841e-06
7.34134e-09
4.16906e-06
9.36502e-09
4.15785e-06
1.12217e-08
4.14495e-06
1.29228e-08
4.13049e-06
1.44791e-08
4.1146e-06
1.59007e-08
4.09742e-06
1.71972e-08
4.07907e-06
1.83778e-08
4.05964e-06
1.94509e-08
4.03923e-06
2.04244e-08
4.01795e-06
2.13058e-08
3.99587e-06
2.21019e-08
3.97307e-06
2.28191e-08
3.94963e-06
2.34634e-08
3.92561e-06
2.40401e-08
3.90108e-06
2.45545e-08
3.87609e-06
2.50113e-08
3.85069e-06
2.54147e-08
3.82494e-06
2.5769e-08
3.79888e-06
2.6078e-08
3.77255e-06
2.63453e-08
3.74599e-06
2.65741e-08
3.71923e-06
2.67676e-08
3.69232e-06
2.69286e-08
3.66527e-06
2.70599e-08
3.63812e-06
2.71639e-08
3.61089e-06
2.72429e-08
3.5836e-06
2.72992e-08
3.55628e-06
2.73347e-08
3.52893e-06
2.73515e-08
3.50159e-06
2.73512e-08
3.47427e-06
2.73355e-08
3.44697e-06
2.73062e-08
3.41971e-06
2.72647e-08
3.39251e-06
2.72124e-08
3.36537e-06
2.71507e-08
3.33829e-06
2.70809e-08
3.3113e-06
2.70042e-08
3.28438e-06
2.69217e-08
3.25756e-06
2.68345e-08
3.23082e-06
2.67436e-08
3.20418e-06
2.665e-08
3.17763e-06
2.65547e-08
3.15118e-06
2.64585e-08
3.12483e-06
2.63622e-08
3.09857e-06
2.62666e-08
3.07241e-06
2.61724e-08
3.04634e-06
2.60805e-08
3.02035e-06
2.59914e-08
2.99446e-06
2.59058e-08
2.96864e-06
2.58243e-08
2.94291e-06
2.57475e-08
2.91724e-06
2.56761e-08
2.89164e-06
2.56104e-08
2.8661e-06
2.55511e-08
2.84062e-06
2.54986e-08
2.81518e-06
2.54534e-08
2.78978e-06
2.5416e-08
2.7644e-06
2.53869e-08
2.73905e-06
2.53665e-08
2.71371e-06
2.53551e-08
2.68838e-06
2.53534e-08
2.66303e-06
2.53615e-08
2.63767e-06
2.538e-08
2.61228e-06
2.54093e-08
2.58684e-06
2.54497e-08
2.56136e-06
2.55017e-08
2.53581e-06
2.55655e-08
2.51019e-06
2.56416e-08
2.48447e-06
2.57303e-08
2.45866e-06
2.58321e-08
2.43273e-06
2.59471e-08
2.40667e-06
2.60758e-08
2.38046e-06
2.62186e-08
2.3541e-06
2.63756e-08
2.32757e-06
2.65473e-08
2.30085e-06
2.6734e-08
2.27393e-06
2.69358e-08
2.24679e-06
2.71532e-08
2.21941e-06
2.73863e-08
2.19179e-06
2.76354e-08
2.1639e-06
2.79008e-08
2.13573e-06
2.81826e-08
2.10725e-06
2.84812e-08
2.07847e-06
2.87966e-08
2.04934e-06
2.91291e-08
2.01987e-06
2.94789e-08
1.99003e-06
2.9846e-08
1.9598e-06
3.02305e-08
1.92917e-06
3.06325e-08
1.89812e-06
3.1052e-08
1.86663e-06
3.1489e-08
1.83468e-06
3.19433e-08
1.80226e-06
3.24148e-08
1.76935e-06
3.29034e-08
1.73594e-06
3.34089e-08
1.702e-06
3.3931e-08
1.66753e-06
3.44694e-08
1.63249e-06
3.50237e-08
1.59689e-06
3.55935e-08
1.5607e-06
3.61782e-08
1.52392e-06
3.67771e-08
1.48652e-06
3.73894e-08
1.44849e-06
3.80144e-08
1.40983e-06
3.8651e-08
1.37052e-06
3.92982e-08
1.33055e-06
3.99549e-08
1.28992e-06
4.06197e-08
1.24862e-06
4.12911e-08
1.20664e-06
4.19675e-08
1.16398e-06
4.2647e-08
1.12064e-06
4.33276e-08
1.07662e-06
4.4007e-08
1.03193e-06
4.46826e-08
9.86563e-07
4.53518e-08
9.40542e-07
4.60114e-08
8.93875e-07
4.66581e-08
8.46578e-07
4.72877e-08
7.98673e-07
4.78961e-08
7.50187e-07
4.84783e-08
7.01151e-07
4.9029e-08
6.51602e-07
4.95422e-08
6.01586e-07
5.00111e-08
5.51154e-07
5.04279e-08
5.00367e-07
5.07838e-08
4.49296e-07
5.10688e-08
3.98022e-07
5.12716e-08
3.46642e-07
5.13792e-08
2.95266e-07
5.13767e-08
2.44021e-07
5.12469e-08
1.93053e-07
5.09697e-08
1.42534e-07
5.05215e-08
9.2663e-08
4.98746e-08
4.36733e-08
4.89941e-08
-4.16137e-09
4.78399e-08
-5.04938e-08
4.63381e-08
-9.49246e-08
4.44366e-08
-1.37015e-07
4.20968e-08
-1.76259e-07
3.92506e-08
-2.12053e-07
3.58021e-08
-2.43675e-07
3.16286e-08
-2.70266e-07
2.65984e-08
-2.90801e-07
2.05419e-08
-3.04054e-07
1.32606e-08
-3.0857e-07
4.52277e-09
-3.02681e-07
-5.88308e-09
-2.84561e-07
-1.81141e-08
-2.52345e-07
-3.22113e-08
-2.0457e-07
-4.77701e-08
-1.4139e-07
-6.31748e-08
-6.73576e-08
-7.40277e-08
-4.45451e-09
-6.28976e-08
-4.44624e-09
-2.14087e-07
-4.03914e-13
5.52487e-07
-2.5474e-07
8.15054e-13
2.81398e-07
-2.18917e-07
4.66605e-13
6.5619e-08
-1.34103e-07
3.08119e-13
-1.05808e-07
-1.01061e-08
2.28702e-13
-2.32876e-07
1.44685e-07
2.05498e-13
-3.22454e-07
3.22019e-07
2.01869e-13
-3.82725e-07
5.14862e-07
2.02452e-13
-4.21157e-07
7.17517e-07
2.07871e-13
-4.43088e-07
9.25417e-07
2.09425e-13
-4.52906e-07
1.13482e-06
2.00564e-13
-4.54177e-07
1.34288e-06
1.88719e-13
-4.49193e-07
1.54741e-06
1.77221e-13
-4.39661e-07
1.74678e-06
1.60797e-13
-4.26811e-07
1.93974e-06
1.40688e-13
-4.11556e-07
2.1254e-06
1.25415e-13
-3.94586e-07
2.30308e-06
1.17998e-13
-3.76431e-07
2.47234e-06
1.12474e-13
-3.57504e-07
2.63287e-06
1.03523e-13
-3.3813e-07
2.78453e-06
9.42459e-14
-3.18568e-07
2.92724e-06
9.11511e-14
-2.99025e-07
3.06104e-06
9.55642e-14
-2.79669e-07
3.18603e-06
1.02139e-13
-2.60633e-07
3.30237e-06
1.05015e-13
-2.42026e-07
3.41026e-06
1.03485e-13
-2.23932e-07
3.50993e-06
1.00817e-13
-2.0642e-07
3.60166e-06
9.93286e-14
-1.8954e-07
3.68574e-06
9.72885e-14
-1.73331e-07
3.76247e-06
9.08909e-14
-1.57819e-07
3.83217e-06
7.84876e-14
-1.43022e-07
3.89517e-06
6.28959e-14
-1.28948e-07
3.9518e-06
4.94587e-14
-1.15599e-07
4.00237e-06
4.22908e-14
-1.02969e-07
4.04723e-06
4.15727e-14
-9.10499e-08
4.08669e-06
4.38208e-14
-7.9826e-08
4.12107e-06
4.5056e-14
-6.92798e-08
4.15066e-06
4.32588e-14
-5.93905e-08
4.17577e-06
3.96956e-14
-5.01352e-08
4.19668e-06
3.74336e-14
-4.1489e-08
4.21367e-06
3.91266e-14
-3.34258e-08
4.22699e-06
4.51079e-14
-2.59188e-08
4.23691e-06
5.33652e-14
-1.89407e-08
4.24365e-06
6.10327e-14
-1.24642e-08
4.24744e-06
6.61536e-14
-6.46178e-09
4.2485e-06
6.84191e-14
-9.06342e-10
4.24702e-06
6.95154e-14
4.22806e-09
4.24321e-06
7.19579e-14
8.96686e-09
4.23722e-06
7.71031e-14
1.33353e-08
4.22924e-06
8.48191e-14
1.73571e-08
4.21942e-06
9.34095e-14
2.10551e-08
4.2079e-06
1.00841e-13
2.44509e-08
4.19483e-06
1.05816e-13
2.75649e-08
4.18033e-06
1.08415e-13
3.04164e-08
4.16452e-06
1.10254e-13
3.30238e-08
4.14751e-06
1.13629e-13
3.54041e-08
4.1294e-06
1.20592e-13
3.75736e-08
4.11029e-06
1.31875e-13
3.95473e-08
4.09027e-06
1.46717e-13
4.13394e-08
4.06943e-06
1.62927e-13
4.29632e-08
4.04783e-06
1.77498e-13
4.44309e-08
4.02556e-06
1.87636e-13
4.57541e-08
4.00267e-06
1.91525e-13
4.69433e-08
3.97923e-06
1.88711e-13
4.80087e-08
3.95529e-06
1.80097e-13
4.89594e-08
3.93092e-06
1.67628e-13
4.98042e-08
3.90615e-06
1.53739e-13
5.0551e-08
3.88103e-06
1.40562e-13
5.12073e-08
3.85561e-06
1.29738e-13
5.17801e-08
3.82991e-06
1.22049e-13
5.22759e-08
3.80399e-06
1.17303e-13
5.27009e-08
3.77787e-06
1.14861e-13
5.30606e-08
3.75158e-06
1.13591e-13
5.33603e-08
3.72514e-06
1.1238e-13
5.3605e-08
3.6986e-06
1.10434e-13
5.37994e-08
3.67195e-06
1.07262e-13
5.39478e-08
3.64524e-06
1.02811e-13
5.40542e-08
3.61848e-06
9.73641e-14
5.41225e-08
3.59168e-06
9.14348e-14
5.41563e-08
3.56486e-06
8.56165e-14
5.4159e-08
3.53804e-06
8.04678e-14
5.41337e-08
3.51123e-06
7.62802e-14
5.40835e-08
3.48443e-06
7.32374e-14
5.40112e-08
3.45767e-06
7.12806e-14
5.39196e-08
3.43095e-06
7.01114e-14
5.38111e-08
3.40427e-06
6.94106e-14
5.36881e-08
3.37764e-06
6.86681e-14
5.35529e-08
3.35108e-06
6.76376e-14
5.34078e-08
3.32457e-06
6.58613e-14
5.32546e-08
3.29813e-06
6.32522e-14
5.30954e-08
3.27176e-06
5.98278e-14
5.29321e-08
3.24546e-06
5.57443e-14
5.27663e-08
3.21923e-06
5.12444e-14
5.25998e-08
3.19307e-06
4.67514e-14
5.24341e-08
3.16697e-06
4.26228e-14
5.22707e-08
3.14095e-06
3.93511e-14
5.21112e-08
3.11499e-06
3.7311e-14
5.19567e-08
3.0891e-06
3.67732e-14
5.18087e-08
3.06326e-06
3.79736e-14
5.16684e-08
3.03748e-06
4.09782e-14
5.15369e-08
3.01175e-06
4.57139e-14
5.14153e-08
2.98606e-06
5.19797e-14
5.13049e-08
2.96042e-06
5.95396e-14
5.12065e-08
2.9348e-06
6.79739e-14
5.11213e-08
2.90922e-06
7.69458e-14
5.105e-08
2.88365e-06
8.60809e-14
5.09938e-08
2.85809e-06
9.49141e-14
5.09535e-08
2.83254e-06
1.03064e-13
5.09299e-08
2.80698e-06
1.10363e-13
5.0924e-08
2.78141e-06
1.16491e-13
5.09366e-08
2.75582e-06
1.21389e-13
5.09685e-08
2.73019e-06
1.24991e-13
5.10204e-08
2.70452e-06
1.27409e-13
5.10933e-08
2.67879e-06
1.288e-13
5.11879e-08
2.653e-06
1.29418e-13
5.13048e-08
2.62713e-06
1.29477e-13
5.14449e-08
2.60118e-06
1.29359e-13
5.1609e-08
2.57512e-06
1.29241e-13
5.17975e-08
2.54895e-06
1.29424e-13
5.20114e-08
2.52266e-06
1.2998e-13
5.22512e-08
2.49623e-06
1.3093e-13
5.25176e-08
2.46965e-06
1.32256e-13
5.28112e-08
2.4429e-06
1.33629e-13
5.31326e-08
2.41598e-06
1.34771e-13
5.34824e-08
2.38886e-06
1.35298e-13
5.38612e-08
2.36153e-06
1.34792e-13
5.42695e-08
2.33399e-06
1.33033e-13
5.47079e-08
2.3062e-06
1.29803e-13
5.51768e-08
2.27817e-06
1.25237e-13
5.56767e-08
2.24987e-06
1.19595e-13
5.6208e-08
2.22129e-06
1.13354e-13
5.67712e-08
2.19241e-06
1.06991e-13
5.73666e-08
2.16321e-06
1.00961e-13
5.79946e-08
2.13369e-06
9.55903e-14
5.86553e-08
2.10382e-06
9.08198e-14
5.93491e-08
2.0736e-06
8.62401e-14
6.0076e-08
2.04299e-06
8.11123e-14
6.08363e-08
2.01199e-06
7.45516e-14
6.16298e-08
1.98059e-06
6.57045e-14
6.24567e-08
1.94876e-06
5.41998e-14
6.33166e-08
1.91649e-06
4.01381e-14
6.42096e-08
1.88377e-06
2.43001e-14
6.51351e-08
1.85057e-06
8.19836e-15
6.60928e-08
1.81689e-06
-6.60924e-15
6.70823e-08
1.78272e-06
-1.8676e-14
6.81027e-08
1.74803e-06
-2.73357e-14
6.91535e-08
1.71281e-06
-3.30326e-14
7.02336e-08
1.67706e-06
-3.70537e-14
7.1342e-08
1.64075e-06
-4.12378e-14
7.24775e-08
1.60388e-06
-4.72191e-14
7.36386e-08
1.56644e-06
-5.56915e-14
7.48238e-08
1.52841e-06
-6.59819e-14
7.60313e-08
1.4898e-06
-7.64943e-14
7.72591e-08
1.45058e-06
-8.49945e-14
7.85049e-08
1.41076e-06
-9.01362e-14
7.97663e-08
1.37033e-06
-9.20444e-14
8.10403e-08
1.32929e-06
-9.23081e-14
8.23241e-08
1.28764e-06
-9.33489e-14
8.3614e-08
1.24537e-06
-9.68669e-14
8.49064e-08
1.20249e-06
-1.02481e-13
8.6197e-08
1.15901e-06
-1.07907e-13
8.74812e-08
1.11493e-06
-1.09961e-13
8.8754e-08
1.07027e-06
-1.06998e-13
9.00095e-08
1.02503e-06
-1.00156e-13
9.12417e-08
9.79241e-07
-9.34461e-14
9.24436e-08
9.32915e-07
-9.11562e-14
9.36073e-08
8.86082e-07
-9.47575e-14
9.47245e-08
8.3877e-07
-1.0103e-13
9.57856e-08
7.91015e-07
-1.0375e-13
9.67799e-08
7.42858e-07
-9.82825e-14
9.76957e-08
6.94346e-07
-8.53623e-14
9.85197e-08
6.45535e-07
-7.15539e-14
9.9237e-08
5.96486e-07
-6.4046e-14
9.98307e-08
5.47272e-07
-6.40044e-14
1.00282e-07
4.97975e-07
-6.50452e-14
1.00569e-07
4.48686e-07
-5.85712e-14
1.00668e-07
3.99514e-07
-4.31807e-14
1.0055e-07
3.50578e-07
-2.71658e-14
1.00184e-07
3.02016e-07
-2.07334e-14
9.95332e-08
2.53986e-07
-2.38212e-14
9.85542e-08
2.06666e-07
-2.43625e-14
9.71972e-08
1.60262e-07
-1.2032e-14
9.5402e-08
1.15006e-07
7.91034e-15
9.30992e-08
7.11586e-08
1.97897e-14
9.01895e-08
2.90143e-08
1.99354e-14
8.6585e-08
-1.10835e-08
2.45221e-14
8.21991e-08
-4.87322e-08
4.45755e-14
7.6904e-08
-8.34846e-08
6.26096e-14
7.05592e-08
-1.1485e-07
5.61426e-14
6.29983e-08
-1.42273e-07
3.99958e-14
5.40262e-08
-1.65138e-07
4.6102e-14
4.34121e-08
-1.82779e-07
5.9841e-14
3.09058e-08
-1.94501e-07
4.54359e-14
1.62489e-08
-1.99601e-07
3.21548e-14
-7.78911e-10
-1.97447e-07
4.90719e-14
-2.02637e-08
-1.87621e-07
3.19744e-14
-4.20335e-08
-1.70067e-07
4.91274e-15
-6.53207e-08
-1.45212e-07
5.5872e-14
-8.80253e-08
-1.13728e-07
4.45893e-14
-1.05506e-07
-7.07352e-08
9.17044e-14
-1.05884e-07
1.22014e-12
-7.51768e-08
-2.14081e-07
5.52479e-07
-2.54738e-07
2.81395e-07
-2.18914e-07
6.56166e-08
-1.34099e-07
-1.0581e-07
-1.01026e-08
-2.32877e-07
1.44688e-07
-3.22456e-07
3.22022e-07
-3.82727e-07
5.14865e-07
-4.21158e-07
7.17519e-07
-4.43089e-07
9.25419e-07
-4.52906e-07
1.13482e-06
-4.54177e-07
1.34288e-06
-4.49193e-07
1.54741e-06
-4.39662e-07
1.74678e-06
-4.26811e-07
1.93974e-06
-4.11556e-07
2.1254e-06
-3.94586e-07
2.30308e-06
-3.76431e-07
2.47233e-06
-3.57504e-07
2.63287e-06
-3.3813e-07
2.78452e-06
-3.18568e-07
2.92724e-06
-2.99025e-07
3.06104e-06
-2.79669e-07
3.18603e-06
-2.60633e-07
3.30237e-06
-2.42026e-07
3.41025e-06
-2.23932e-07
3.50993e-06
-2.0642e-07
3.60166e-06
-1.8954e-07
3.68573e-06
-1.73331e-07
3.76246e-06
-1.57819e-07
3.83217e-06
-1.43022e-07
3.89517e-06
-1.28948e-07
3.95179e-06
-1.15599e-07
4.00237e-06
-1.0297e-07
4.04723e-06
-9.105e-08
4.08669e-06
-7.98261e-08
4.12106e-06
-6.92799e-08
4.15066e-06
-5.93906e-08
4.17577e-06
-5.01353e-08
4.19668e-06
-4.1489e-08
4.21367e-06
-3.34259e-08
4.22699e-06
-2.59189e-08
4.23691e-06
-1.89408e-08
4.24365e-06
-1.24643e-08
4.24744e-06
-6.46187e-09
4.2485e-06
-9.0644e-10
4.24702e-06
4.22796e-09
4.2432e-06
8.96676e-09
4.23722e-06
1.33351e-08
4.22924e-06
1.7357e-08
4.21942e-06
2.1055e-08
4.2079e-06
2.44508e-08
4.19483e-06
2.75648e-08
4.18033e-06
3.04163e-08
4.16452e-06
3.30236e-08
4.1475e-06
3.54039e-08
4.1294e-06
3.75734e-08
4.11029e-06
3.95471e-08
4.09027e-06
4.13393e-08
4.06943e-06
4.2963e-08
4.04783e-06
4.44307e-08
4.02556e-06
4.57539e-08
4.00267e-06
4.69431e-08
3.97923e-06
4.80085e-08
3.95529e-06
4.89592e-08
3.93092e-06
4.9804e-08
3.90615e-06
5.05508e-08
3.88103e-06
5.12071e-08
3.8556e-06
5.17799e-08
3.82991e-06
5.22758e-08
3.80399e-06
5.27007e-08
3.77787e-06
5.30604e-08
3.75158e-06
5.33601e-08
3.72514e-06
5.36049e-08
3.69859e-06
5.37993e-08
3.67195e-06
5.39477e-08
3.64524e-06
5.40541e-08
3.61848e-06
5.41224e-08
3.59168e-06
5.41562e-08
3.56486e-06
5.41589e-08
3.53804e-06
5.41336e-08
3.51123e-06
5.40834e-08
3.48443e-06
5.40112e-08
3.45767e-06
5.39195e-08
3.43095e-06
5.3811e-08
3.40427e-06
5.3688e-08
3.37764e-06
5.35528e-08
3.35108e-06
5.34077e-08
3.32457e-06
5.32545e-08
3.29813e-06
5.30953e-08
3.27176e-06
5.2932e-08
3.24546e-06
5.27662e-08
3.21923e-06
5.25997e-08
3.19307e-06
5.2434e-08
3.16697e-06
5.22706e-08
3.14095e-06
5.21111e-08
3.11499e-06
5.19566e-08
3.0891e-06
5.18086e-08
3.06326e-06
5.16683e-08
3.03748e-06
5.15368e-08
3.01175e-06
5.14153e-08
2.98606e-06
5.13048e-08
2.96041e-06
5.12065e-08
2.9348e-06
5.11212e-08
2.90922e-06
5.105e-08
2.88365e-06
5.09938e-08
2.85809e-06
5.09535e-08
2.83254e-06
5.09299e-08
2.80698e-06
5.0924e-08
2.78141e-06
5.09365e-08
2.75582e-06
5.09684e-08
2.73019e-06
5.10204e-08
2.70452e-06
5.10932e-08
2.67879e-06
5.11878e-08
2.653e-06
5.13047e-08
2.62713e-06
5.14449e-08
2.60118e-06
5.16089e-08
2.57512e-06
5.17975e-08
2.54895e-06
5.20113e-08
2.52266e-06
5.22511e-08
2.49623e-06
5.25175e-08
2.46965e-06
5.28111e-08
2.4429e-06
5.31325e-08
2.41598e-06
5.34823e-08
2.38886e-06
5.38611e-08
2.36153e-06
5.42694e-08
2.33399e-06
5.47078e-08
2.3062e-06
5.51767e-08
2.27817e-06
5.56766e-08
2.24987e-06
5.6208e-08
2.22129e-06
5.67712e-08
2.19241e-06
5.73666e-08
2.16321e-06
5.79945e-08
2.13369e-06
5.86552e-08
2.10382e-06
5.9349e-08
2.0736e-06
6.00759e-08
2.04299e-06
6.08362e-08
2.01199e-06
6.16297e-08
1.98059e-06
6.24566e-08
1.94876e-06
6.33166e-08
1.91649e-06
6.42095e-08
1.88377e-06
6.5135e-08
1.85057e-06
6.60928e-08
1.81689e-06
6.70822e-08
1.78272e-06
6.81027e-08
1.74803e-06
6.91534e-08
1.71281e-06
7.02335e-08
1.67706e-06
7.13419e-08
1.64075e-06
7.24774e-08
1.60388e-06
7.36386e-08
1.56644e-06
7.48238e-08
1.52841e-06
7.60313e-08
1.4898e-06
7.72591e-08
1.45058e-06
7.85049e-08
1.41076e-06
7.97662e-08
1.37033e-06
8.10403e-08
1.32929e-06
8.2324e-08
1.28764e-06
8.3614e-08
1.24537e-06
8.49064e-08
1.20249e-06
8.6197e-08
1.15901e-06
8.74812e-08
1.11493e-06
8.8754e-08
1.07027e-06
9.00095e-08
1.02503e-06
9.12417e-08
9.79241e-07
9.24436e-08
9.32916e-07
9.36073e-08
8.86082e-07
9.47245e-08
8.3877e-07
9.57856e-08
7.91015e-07
9.67799e-08
7.42858e-07
9.76958e-08
6.94347e-07
9.85198e-08
6.45535e-07
9.9237e-08
5.96487e-07
9.98307e-08
5.47273e-07
1.00282e-07
4.97975e-07
1.00569e-07
4.48687e-07
1.00668e-07
3.99514e-07
1.0055e-07
3.50578e-07
1.00184e-07
3.02017e-07
9.95332e-08
2.53986e-07
9.85542e-08
2.06667e-07
9.71973e-08
1.60262e-07
9.5402e-08
1.15006e-07
9.30992e-08
7.11589e-08
9.01896e-08
2.90146e-08
8.6585e-08
-1.10832e-08
8.21992e-08
-4.87319e-08
7.69041e-08
-8.34845e-08
7.05593e-08
-1.1485e-07
6.29983e-08
-1.42273e-07
5.40263e-08
-1.65138e-07
4.34122e-08
-1.82779e-07
3.09058e-08
-1.94501e-07
1.62491e-08
-1.99601e-07
-7.78714e-10
-1.97447e-07
-2.02636e-08
-1.87621e-07
-4.20334e-08
-1.70066e-07
-6.53205e-08
-1.45212e-07
-8.80253e-08
-1.13728e-07
-1.05506e-07
-7.07338e-08
-1.05884e-07
-7.51774e-08
-5.98449e-08
-7.8527e-13
6.12383e-07
-8.76957e-09
6.9551e-13
2.30376e-07
8.55896e-08
3.98596e-13
-2.87276e-08
2.01203e-07
2.47666e-13
-2.21412e-07
3.33868e-07
1.85229e-13
-3.65533e-07
4.81685e-07
1.56557e-13
-4.70264e-07
6.4236e-07
1.37652e-13
-5.43394e-07
8.12967e-07
1.32978e-13
-5.91758e-07
9.90702e-07
1.34376e-13
-6.20817e-07
1.17287e-06
1.31268e-13
-6.35068e-07
1.35686e-06
1.2386e-13
-6.38157e-07
1.54046e-06
1.15926e-13
-6.32793e-07
1.72186e-06
1.06395e-13
-6.21052e-07
1.89957e-06
9.47795e-14
-6.04517e-07
2.07242e-06
8.39652e-14
-5.84407e-07
2.23951e-06
7.63428e-14
-5.61669e-07
2.40013e-06
7.09583e-14
-5.37051e-07
2.55378e-06
6.51539e-14
-5.11146e-07
2.70008e-06
5.81248e-14
-4.84429e-07
2.8388e-06
5.21816e-14
-4.57284e-07
2.9698e-06
5.01138e-14
-4.30022e-07
3.09304e-06
5.16161e-14
-4.02898e-07
3.20852e-06
5.3644e-14
-3.76118e-07
3.31635e-06
5.37723e-14
-3.49849e-07
3.41664e-06
5.24747e-14
-3.24224e-07
3.50958e-06
5.16559e-14
-2.99352e-07
3.59536e-06
5.17878e-14
-2.75316e-07
3.67421e-06
5.11546e-14
-2.5218e-07
3.74638e-06
4.76678e-14
-2.2999e-07
3.81214e-06
4.13204e-14
-2.08777e-07
3.87175e-06
3.44908e-14
-1.88561e-07
3.9255e-06
3.01002e-14
-1.69348e-07
3.97368e-06
2.94931e-14
-1.51139e-07
4.01655e-06
3.15834e-14
-1.33922e-07
4.0544e-06
3.40849e-14
-1.17681e-07
4.08752e-06
3.52072e-14
-1.02395e-07
4.11617e-06
3.48065e-14
-8.80373e-08
4.14061e-06
3.41872e-14
-7.45777e-08
4.16111e-06
3.49626e-14
-6.19833e-08
4.1779e-06
3.79082e-14
-5.02191e-08
4.19124e-06
4.25156e-14
-3.92485e-08
4.20133e-06
4.74005e-14
-2.90343e-08
4.20841e-06
5.12117e-14
-1.95387e-08
4.21267e-06
5.33628e-14
-1.07238e-08
4.21432e-06
5.4185e-14
-2.55206e-09
4.21354e-06
5.47418e-14
5.01292e-09
4.2105e-06
5.60151e-14
1.20068e-08
4.20537e-06
5.83882e-14
1.84646e-08
4.19831e-06
6.14187e-14
2.44199e-08
4.18946e-06
6.42012e-14
2.99049e-08
4.17897e-06
6.58128e-14
3.49502e-08
4.16695e-06
6.58804e-14
3.95849e-08
4.15353e-06
6.47563e-14
4.38366e-08
4.13883e-06
6.3431e-14
4.77315e-08
4.12294e-06
6.311e-14
5.12942e-08
4.10597e-06
6.46921e-14
5.45479e-08
4.08801e-06
6.84269e-14
5.75143e-08
4.06914e-06
7.37699e-14
6.02138e-08
4.04944e-06
7.95482e-14
6.26655e-08
4.02898e-06
8.4369e-14
6.48872e-08
4.00785e-06
8.70231e-14
6.68956e-08
3.98609e-06
8.67542e-14
6.87062e-08
3.96377e-06
8.36005e-14
7.03336e-08
3.94094e-06
7.81638e-14
7.17912e-08
3.91765e-06
7.15094e-14
7.30916e-08
3.89396e-06
6.48116e-14
7.42467e-08
3.8699e-06
5.91079e-14
7.52672e-08
3.84552e-06
5.50902e-14
7.61636e-08
3.82086e-06
5.29808e-14
7.69453e-08
3.79594e-06
5.26321e-14
7.76212e-08
3.7708e-06
5.35133e-14
7.81998e-08
3.74548e-06
5.50347e-14
7.86887e-08
3.71999e-06
5.6556e-14
7.90954e-08
3.69436e-06
5.75916e-14
7.94265e-08
3.66862e-06
5.78674e-14
7.96887e-08
3.64279e-06
5.73088e-14
7.98879e-08
3.61689e-06
5.59384e-14
8.00297e-08
3.59093e-06
5.3999e-14
8.01196e-08
3.56492e-06
5.16848e-14
8.01625e-08
3.5389e-06
4.92319e-14
8.01631e-08
3.51285e-06
4.67773e-14
8.01261e-08
3.48681e-06
4.43781e-14
8.00554e-08
3.46078e-06
4.20432e-14
7.99553e-08
3.43476e-06
3.97204e-14
7.98294e-08
3.40877e-06
3.73143e-14
7.96812e-08
3.38281e-06
3.47365e-14
7.95143e-08
3.35688e-06
3.19661e-14
7.93318e-08
3.331e-06
2.90188e-14
7.91367e-08
3.30517e-06
2.60021e-14
7.89319e-08
3.27938e-06
2.30045e-14
7.87202e-08
3.25365e-06
2.02619e-14
7.85043e-08
3.22796e-06
1.79564e-14
7.82864e-08
3.20233e-06
1.62928e-14
7.80691e-08
3.17674e-06
1.5455e-14
7.78546e-08
3.15121e-06
1.55833e-14
7.7645e-08
3.12573e-06
1.67265e-14
7.74423e-08
3.10029e-06
1.89088e-14
7.72485e-08
3.0749e-06
2.20312e-14
7.70655e-08
3.04954e-06
2.59587e-14
7.68949e-08
3.02422e-06
3.04897e-14
7.67385e-08
2.99893e-06
3.53938e-14
7.6598e-08
2.97366e-06
4.04106e-14
7.64748e-08
2.94841e-06
4.53303e-14
7.63706e-08
2.92318e-06
4.99203e-14
7.62866e-08
2.89795e-06
5.39935e-14
7.62244e-08
2.87272e-06
5.74542e-14
7.61852e-08
2.84748e-06
6.02176e-14
7.61704e-08
2.82223e-06
6.22802e-14
7.61814e-08
2.79695e-06
6.36489e-14
7.62192e-08
2.77163e-06
6.44486e-14
7.62852e-08
2.74628e-06
6.47574e-14
7.63805e-08
2.72087e-06
6.47088e-14
7.65063e-08
2.69539e-06
6.44798e-14
7.66638e-08
2.66985e-06
6.41675e-14
7.6854e-08
2.64422e-06
6.39576e-14
7.7078e-08
2.61849e-06
6.39125e-14
7.73369e-08
2.59266e-06
6.41138e-14
7.76317e-08
2.56671e-06
6.45891e-14
7.79633e-08
2.54063e-06
6.53055e-14
7.83329e-08
2.51441e-06
6.62006e-14
7.87412e-08
2.48803e-06
6.71512e-14
7.91892e-08
2.46149e-06
6.79839e-14
7.96779e-08
2.43477e-06
6.85199e-14
8.02079e-08
2.40785e-06
6.85616e-14
8.07802e-08
2.38073e-06
6.79093e-14
8.13954e-08
2.35338e-06
6.64781e-14
8.20544e-08
2.3258e-06
6.42213e-14
8.27579e-08
2.29797e-06
6.12167e-14
8.35063e-08
2.26988e-06
5.76328e-14
8.43005e-08
2.24152e-06
5.37175e-14
8.51408e-08
2.21286e-06
4.97589e-14
8.60277e-08
2.18389e-06
4.5998e-14
8.69618e-08
2.1546e-06
4.25979e-14
8.79432e-08
2.12498e-06
3.95517e-14
8.89722e-08
2.09501e-06
3.67016e-14
9.0049e-08
2.06467e-06
3.36675e-14
9.11737e-08
2.03395e-06
3.00715e-14
9.23461e-08
2.00284e-06
2.55456e-14
9.35662e-08
1.97133e-06
1.98505e-14
9.48337e-08
1.93939e-06
1.3118e-14
9.6148e-08
1.90701e-06
5.71594e-15
9.75087e-08