/*--------------------------------*- C++ -*----------------------------------*\
  =========                 |
  \\      /  F ield         | OpenFOAM: The Open Source CFD Toolbox
   \\    /   O peration     | Website:  https://openfoam.org
    \\  /    A nd           | Version:  8
     \\/     M anipulation  |
\*---------------------------------------------------------------------------*/
FoamFile
{
    version     2.0;
    format      ascii;
    class       volScalarField;
    location    "4900";
    object      alphat;
}
// * * * * * * * * * * * * * * * * * * * * * * * * * * * * * * * * * * * * * //

dimensions      [1 -1 -1 0 0 0 0];

internalField   nonuniform List<scalar> 
46000
(
3.04156e-06
1.057e-05
1.81849e-05
2.51755e-05
3.17555e-05
3.8107e-05
4.43022e-05
5.03672e-05
5.63357e-05
6.22332e-05
6.8081e-05
7.38849e-05
7.96203e-05
8.53085e-05
9.09552e-05
9.65615e-05
0.000102126
0.000107647
0.000113121
0.000118543
0.00012391
0.000129215
0.000134453
0.000139619
0.000144704
0.000149704
0.000154609
0.000159412
0.000164105
0.000168677
0.000173117
0.00017741
0.000181536
0.000185467
0.000189169
0.000192594
0.000195693
0.000198421
0.000200753
0.00020266
0.000203997
0.000204252
0.000202629
0.000202332
0.000201604
0.000199733
0.00019754
0.000202693
0.000203654
0.000198265
0.000188076
0.000193338
0.000203798
0.000209716
0.000212247
0.000212626
0.000211966
0.000210048
0.000209235
0.000208946
0.000208863
0.000208426
0.000207791
0.000209054
0.000206709
0.000206056
0.000199471
0.000195094
0.000186831
3.32766e-05
3.18338e-05
3.17087e-05
3.18102e-05
3.18548e-05
3.17863e-05
3.17002e-05
3.16381e-05
3.15788e-05
3.153e-05
3.17873e-05
3.37235e-05
0.000193468
0.000202369
0.000202661
0.000201098
0.000199017
0.000196718
0.000194291
0.000191773
0.000189187
0.00018655
0.000183874
0.000181169
0.000178441
0.000175699
0.000172946
0.000170187
0.000167428
0.000164671
0.00016192
0.000159177
0.000156446
0.00015373
0.00015103
0.000148349
0.000145688
0.000143051
0.000140437
0.00013785
0.000135289
0.000132757
0.000130255
0.000127783
0.000125342
0.000122933
0.000120557
0.000118214
0.000115905
0.000113629
0.000111387
0.00010918
0.000107006
0.000104866
0.000102761
0.000100689
9.86501e-05
9.66446e-05
9.46717e-05
9.27311e-05
9.08224e-05
8.89449e-05
8.70981e-05
8.52815e-05
8.34944e-05
8.17362e-05
8.00063e-05
7.83039e-05
7.66285e-05
7.49793e-05
7.33555e-05
7.17566e-05
7.01818e-05
6.86303e-05
6.71016e-05
6.55949e-05
6.41096e-05
6.26449e-05
6.12002e-05
5.97749e-05
5.83683e-05
5.69799e-05
5.56089e-05
5.42549e-05
5.29173e-05
5.15956e-05
5.02891e-05
4.89975e-05
4.77201e-05
4.64566e-05
4.52064e-05
4.39692e-05
4.27444e-05
4.15318e-05
4.03308e-05
3.91411e-05
3.79622e-05
3.67939e-05
3.56357e-05
3.44873e-05
3.33483e-05
3.22182e-05
3.10968e-05
2.99836e-05
2.88782e-05
2.77803e-05
2.66893e-05
2.56047e-05
2.45262e-05
2.34532e-05
2.2385e-05
2.13211e-05
2.02608e-05
1.92033e-05
1.81478e-05
1.70933e-05
1.60387e-05
1.49829e-05
1.39245e-05
1.28617e-05
1.17927e-05
1.07152e-05
9.62639e-06
8.52267e-06
7.39961e-06
6.25133e-06
5.06919e-06
3.84377e-06
2.56647e-06
1.26098e-06
2.53937e-07
3.03906e-06
1.05656e-05
1.81814e-05
2.5174e-05
3.17552e-05
3.81071e-05
4.43023e-05
5.03673e-05
5.63357e-05
6.22332e-05
6.8081e-05
7.38849e-05
7.96203e-05
8.53085e-05
9.09552e-05
9.65614e-05
0.000102126
0.000107647
0.000113121
0.000118543
0.00012391
0.000129215
0.000134453
0.000139619
0.000144704
0.000149703
0.000154609
0.000159412
0.000164105
0.000168678
0.000173118
0.000177411
0.000181538
0.000185473
0.00018918
0.000192615
0.000195727
0.000198455
0.000200682
0.00020199
0.000200586
0.000189071
3.31459e-05
3.20657e-05
3.39203e-05
0.000194266
0.000203087
0.00020718
0.000207953
0.000206898
0.000203234
0.000195443
0.000187115
0.000191345
0.000196756
0.000196126
0.000189611
3.38469e-05
3.26132e-05
3.25166e-05
3.26174e-05
3.26132e-05
3.2504e-05
3.25064e-05
3.26599e-05
3.28766e-05
3.4755e-05
0.000195654
0.000201309
0.000203288
0.00020261
0.000203493
0.0002013
0.000203709
0.000204272
0.000203862
0.000203203
0.000202614
0.000202177
0.000202004
0.000202529
0.000204497
0.000204274
0.00020296
0.000201129
0.000199012
0.000196713
0.000194288
0.000191772
0.000189187
0.00018655
0.000183874
0.000181168
0.000178441
0.000175698
0.000172945
0.000170187
0.000167428
0.000164671
0.000161919
0.000159177
0.000156446
0.000153729
0.00015103
0.000148348
0.000145688
0.00014305
0.000140437
0.000137849
0.000135289
0.000132757
0.000130255
0.000127783
0.000125342
0.000122933
0.000120557
0.000118214
0.000115905
0.000113629
0.000111387
0.000109179
0.000107006
0.000104866
0.000102761
0.000100689
9.86499e-05
9.66444e-05
9.46715e-05
9.27309e-05
9.08222e-05
8.89447e-05
8.70979e-05
8.52813e-05
8.34942e-05
8.1736e-05
8.00061e-05
7.83038e-05
7.66283e-05
7.49791e-05
7.33554e-05
7.17564e-05
7.01816e-05
6.86302e-05
6.71015e-05
6.55948e-05
6.41094e-05
6.26447e-05
6.12001e-05
5.97748e-05
5.83682e-05
5.69797e-05
5.56088e-05
5.42548e-05
5.29172e-05
5.15955e-05
5.0289e-05
4.89973e-05
4.772e-05
4.64565e-05
4.52063e-05
4.39691e-05
4.27443e-05
4.15317e-05
4.03307e-05
3.9141e-05
3.79622e-05
3.67938e-05
3.56357e-05
3.44872e-05
3.33482e-05
3.22181e-05
3.10967e-05
2.99835e-05
2.88782e-05
2.77802e-05
2.66892e-05
2.56047e-05
2.45262e-05
2.34531e-05
2.2385e-05
2.13211e-05
2.02607e-05
1.92032e-05
1.81477e-05
1.70932e-05
1.60387e-05
1.49829e-05
1.39244e-05
1.28617e-05
1.17927e-05
1.07152e-05
9.62637e-06
8.52265e-06
7.3996e-06
6.25132e-06
5.06918e-06
3.84377e-06
2.56647e-06
1.26098e-06
2.53937e-07
9.79495e-06
6.94692e-05
0.000114563
0.000146208
0.000170948
0.000191614
0.000209543
0.000225683
0.000240553
0.000254468
0.000267624
0.000280175
0.000292236
0.000303871
0.000315131
0.000326054
0.000336672
0.000347004
0.00035707
0.000366882
0.000376449
0.000385777
0.000394872
0.000403736
0.00041237
0.000420774
0.000428947
0.000436885
0.000444585
0.000452041
0.000459245
0.000466185
0.000472842
0.00047919
0.000485188
0.000490781
0.000495899
0.00050046
0.000504344
0.000507263
0.00050826
0.000504575
0.000492125
0.000490353
0.000488895
0.00048201
0.000447895
0.000485694
0.000494549
0.000473544
0.000424383
0.000428823
0.000479006
0.000502508
0.000513428
0.000514153
0.000512017
0.000499999
0.000497107
0.000496271
0.000496151
0.000495861
0.000494709
0.000493046
0.000491357
0.000485868
0.000470765
0.00043815
0.000421964
0.000281558
0.00026461
0.000261712
0.000261688
0.000261864
0.000261561
0.000261026
0.00026045
0.000259892
0.000259912
0.000263493
0.00028526
0.000454443
0.000504836
0.000513239
0.000512542
0.000509854
0.00050659
0.000503064
0.000499369
0.000495546
0.00049162
0.00048761
0.000483529
0.00047939
0.000475201
0.00047097
0.000466705
0.00046241
0.000458092
0.000453755
0.000449404
0.000445043
0.000440676
0.000436307
0.000431939
0.000427576
0.00042322
0.000418875
0.000414542
0.000410226
0.000405927
0.000401647
0.00039739
0.000393156
0.000388947
0.000384765
0.000380611
0.000376485
0.00037239
0.000368325
0.000364291
0.00036029
0.000356321
0.000352384
0.000348481
0.00034461
0.000340772
0.000336966
0.000333193
0.000329453
0.000325743
0.000322065
0.000318417
0.0003148
0.000311211
0.00030765
0.000304117
0.00030061
0.000297128
0.000293672
0.000290238
0.000286827
0.000283436
0.000280066
0.000276714
0.00027338
0.000270062
0.00026676
0.000263471
0.000260194
0.000256928
0.000253672
0.000250425
0.000247184
0.000243949
0.000240718
0.00023749
0.000234262
0.000231035
0.000227805
0.000224572
0.000221333
0.000218087
0.000214832
0.000211567
0.000208289
0.000204995
0.000201684
0.000198354
0.000195001
0.000191622
0.000188215
0.000184777
0.000181302
0.000177788
0.00017423
0.000170622
0.000166959
0.000163235
0.000159441
0.00015557
0.000151611
0.000147554
0.000143385
0.000139089
0.000134647
0.000130036
0.00012523
0.000120193
0.000114883
0.000109245
0.000103202
9.66539e-05
8.94534e-05
8.13785e-05
7.20664e-05
6.0851e-05
4.63193e-05
2.50551e-05
1.15061e-06
9.79882e-06
6.94733e-05
0.000114564
0.000146209
0.00017095
0.000191616
0.000209545
0.000225686
0.000240555
0.00025447
0.000267626
0.000280178
0.000292238
0.000303873
0.000315133
0.000326057
0.000336674
0.000347007
0.000357073
0.000366885
0.000376451
0.00038578
0.000394875
0.000403739
0.000412373
0.000420777
0.000428949
0.000436888
0.000444588
0.000452044
0.000459248
0.000466188
0.000472846
0.000479194
0.000485194
0.000490788
0.000495894
0.000500363
0.000503742
0.000504109
0.000492877
0.000437239
0.000279185
0.00026622
0.000285921
0.000447372
0.000489313
0.000497464
0.000497209
0.000492199
0.000481813
0.000462691
0.000422275
0.000426643
0.000459804
0.000437063
0.00042524
0.000285397
0.000270092
0.000267971
0.000268
0.000268047
0.000267809
0.000268035
0.000268956
0.000272611
0.000292879
0.000449115
0.000485319
0.000467068
0.000459861
0.000466642
0.000483222
0.000493285
0.000496726
0.000496954
0.000496144
0.000495229
0.000494604
0.000494801
0.000497737
0.000511689
0.000515655
0.000515062
0.000512815
0.000509882
0.000506589
0.000503064
0.000499371
0.000495548
0.000491623
0.000487613
0.000483532
0.000479393
0.000475204
0.000470973
0.000466707
0.000462413
0.000458094
0.000453757
0.000449406
0.000445045
0.000440678
0.000436309
0.000431941
0.000427578
0.000423222
0.000418877
0.000414545
0.000410228
0.000405929
0.00040165
0.000397392
0.000393158
0.00038895
0.000384767
0.000380613
0.000376487
0.000372392
0.000368327
0.000364293
0.000360292
0.000356323
0.000352386
0.000348482
0.000344611
0.000340773
0.000336968
0.000333195
0.000329454
0.000325745
0.000322067
0.000318419
0.000314801
0.000311212
0.000307651
0.000304118
0.000300611
0.00029713
0.000293673
0.000290239
0.000286828
0.000283438
0.000280067
0.000276716
0.000273381
0.000270064
0.000266761
0.000263472
0.000260195
0.000256929
0.000253673
0.000250426
0.000247185
0.00024395
0.000240719
0.00023749
0.000234263
0.000231035
0.000227806
0.000224572
0.000221334
0.000218088
0.000214833
0.000211568
0.000208289
0.000204996
0.000201685
0.000198354
0.000195001
0.000191623
0.000188216
0.000184777
0.000181303
0.000177789
0.000174231
0.000170623
0.00016696
0.000163235
0.000159442
0.00015557
0.000151612
0.000147555
0.000143386
0.000139089
0.000134647
0.000130037
0.00012523
0.000120194
0.000114884
0.000109245
0.000103202
9.66542e-05
8.94537e-05
8.13787e-05
7.20666e-05
6.08511e-05
4.63194e-05
2.5055e-05
1.15062e-06
1.72113e-05
0.000111251
0.000198938
0.000265008
0.000316559
0.000358455
0.0003938
0.000424561
0.000451979
0.000476882
0.000499835
0.000521233
0.000541359
0.000560416
0.00057855
0.000595877
0.000612485
0.000628443
0.000643807
0.000658621
0.000672921
0.000686736
0.000700089
0.000712999
0.000725482
0.000737549
0.000749211
0.000760475
0.000771345
0.000781823
0.000791907
0.000801589
0.000810851
0.000819659
0.000827956
0.000835651
0.000842627
0.000848751
0.000853915
0.000858053
0.000860998
0.000862001
0.000859519
0.000858214
0.000853127
0.000838601
0.000826589
0.00084254
0.000846058
0.000827592
0.000802918
0.000809714
0.000837932
0.00085646
0.000866351
0.000868067
0.000869004
0.000864924
0.000862375
0.000861503
0.000861908
0.000862423
0.000861596
0.000860988
0.000859657
0.000855661
0.000842309
0.000832691
0.000833373
0.000771292
0.000751614
0.000748026
0.000749221
0.000750148
0.000749805
0.000748749
0.000747565
0.000746586
0.000746288
0.000748746
0.000763381
0.000840416
0.00086988
0.000876187
0.000875188
0.00087199
0.000867994
0.000863601
0.000858948
0.000854098
0.000849088
0.000843944
0.000838687
0.00083333
0.000827886
0.000822366
0.000816778
0.00081113
0.000805427
0.000799677
0.000793886
0.000788058
0.000782198
0.000776313
0.000770405
0.000764479
0.00075854
0.000752591
0.000746636
0.000740677
0.000734719
0.000728764
0.000722814
0.000716873
0.000710943
0.000705026
0.000699124
0.000693238
0.00068737
0.000681523
0.000675696
0.000669891
0.000664108
0.00065835
0.000652615
0.000646905
0.000641219
0.000635559
0.000629923
0.000624312
0.000618724
0.000613161
0.000607621
0.000602103
0.000596607
0.000591132
0.000585677
0.00058024
0.000574821
0.000569418
0.000564029
0.000558654
0.000553291
0.000547938
0.000542593
0.000537256
0.000531923
0.000526593
0.000521264
0.000515935
0.000510602
0.000505264
0.000499919
0.000494564
0.000489197
0.000483815
0.000478416
0.000472997
0.000467554
0.000462086
0.000456589
0.00045106
0.000445494
0.000439888
0.000434239
0.000428541
0.00042279
0.000416981
0.000411108
0.000405166
0.000399147
0.000393044
0.000386848
0.000380552
0.000374145
0.000367615
0.00036095
0.000354134
0.000347153
0.000339986
0.000332611
0.000325005
0.000317135
0.000308968
0.000300462
0.000291567
0.000282222
0.000272351
0.000261861
0.000250632
0.000238508
0.000225284
0.000210674
0.000194275
0.000175484
0.000153356
0.000126313
9.15875e-05
4.50988e-05
2.35314e-06
1.7213e-05
0.000111255
0.000198942
0.000265012
0.000316563
0.000358459
0.000393804
0.000424565
0.000451983
0.000476886
0.000499839
0.000521237
0.000541363
0.000560419
0.000578554
0.000595881
0.000612488
0.000628447
0.000643811
0.000658625
0.000672925
0.00068674
0.000700093
0.000713003
0.000725486
0.000737553
0.000749215
0.000760478
0.000771348
0.000781827
0.000791911
0.000801594
0.000810857
0.000819667
0.000827968
0.000835674
0.000842664
0.000848792
0.000853854
0.000857287
0.000856574
0.000840418
0.00076599
0.000747257
0.000755826
0.000821478
0.00083947
0.000841666
0.000840669
0.000838322
0.000833159
0.000818989
0.000801555
0.000808356
0.00082379
0.000828085
0.000835832
0.000777461
0.000759303
0.000754861
0.00075421
0.000754233
0.000753948
0.000753908
0.000754572
0.000756714
0.00076727
0.000828739
0.000841116
0.000827899
0.00082291
0.000833164
0.000849442
0.000859976
0.000863887
0.000864247
0.000863525
0.000862982
0.000863112
0.000864091
0.00086662
0.000875043
0.000878438
0.000877949
0.000875482
0.000872017
0.000867989
0.000863599
0.000858949
0.0008541
0.000849091
0.000843947
0.00083869
0.000833333
0.000827889
0.000822369
0.000816781
0.000811132
0.00080543
0.00079968
0.000793888
0.00078806
0.000782201
0.000776315
0.000770407
0.000764482
0.000758542
0.000752593
0.000746638
0.000740679
0.000734721
0.000728765
0.000722816
0.000716875
0.000710945
0.000705028
0.000699125
0.000693239
0.000687372
0.000681524
0.000675697
0.000669892
0.00066411
0.000658351
0.000652616
0.000646906
0.000641221
0.00063556
0.000629924
0.000624313
0.000618726
0.000613162
0.000607622
0.000602104
0.000596608
0.000591133
0.000585678
0.000580241
0.000574822
0.000569418
0.00056403
0.000558655
0.000553292
0.000547939
0.000542594
0.000537256
0.000531923
0.000526593
0.000521265
0.000515935
0.000510602
0.000505265
0.000499919
0.000494564
0.000489197
0.000483815
0.000478416
0.000472997
0.000467555
0.000462087
0.00045659
0.00045106
0.000445494
0.000439889
0.000434239
0.000428541
0.00042279
0.000416981
0.000411109
0.000405166
0.000399147
0.000393044
0.000386849
0.000380552
0.000374145
0.000367615
0.00036095
0.000354135
0.000347153
0.000339986
0.000332612
0.000325005
0.000317135
0.000308968
0.000300462
0.000291567
0.000282222
0.000272351
0.000261861
0.000250632
0.000238508
0.000225284
0.000210674
0.000194275
0.000175484
0.000153356
0.000126313
9.15875e-05
4.50986e-05
2.35315e-06
2.42067e-05
0.000141465
0.000261911
0.000359597
0.000438591
0.000503779
0.000558949
0.000606734
0.000648951
0.000686873
0.000721408
0.000753214
0.000782775
0.00081045
0.000836511
0.000861167
0.000884585
0.000906894
0.0009282
0.000948588
0.00096813
0.000986882
0.00100489
0.0010222
0.00103885
0.00105486
0.00107025
0.00108505
0.00109928
0.00111294
0.00112603
0.00113857
0.00115052
0.00116185
0.00117247
0.00118227
0.00119106
0.00119866
0.00120493
0.00120997
0.00121404
0.00121735
0.00121966
0.00122163
0.00122134
0.00121578
0.00121195
0.00121724
0.00121977
0.00121367
0.00120544
0.00120888
0.00122007
0.0012288
0.00123399
0.00123516
0.00123528
0.00123352
0.00123207
0.00123188
0.00123304
0.00123464
0.00123555
0.00123634
0.00123699
0.00123688
0.00123243
0.00122956
0.00123094
0.00121643
0.00120902
0.00120753
0.00120839
0.00120884
0.00120827
0.0012071
0.00120599
0.00120548
0.00120579
0.00120725
0.0012121
0.00123256
0.00124227
0.0012438
0.00124158
0.00123773
0.00123308
0.00122793
0.00122244
0.00121668
0.00121069
0.00120453
0.0011982
0.00119174
0.00118515
0.00117845
0.00117165
0.00116476
0.00115778
0.00115072
0.00114359
0.0011364
0.00112915
0.00112185
0.0011145
0.00110711
0.00109968
0.00109222
0.00108473
0.00107722
0.00106968
0.00106213
0.00105457
0.00104699
0.00103941
0.00103183
0.00102424
0.00101665
0.00100907
0.00100149
0.000993914
0.000986348
0.000978791
0.000971244
0.000963708
0.000956183
0.00094867
0.00094117
0.000933682
0.000926207
0.000918744
0.000911292
0.000903852
0.000896422
0.000889002
0.000881591
0.000874186
0.000866789
0.000859395
0.000852005
0.000844617
0.000837228
0.000829837
0.000822442
0.00081504
0.000807629
0.000800208
0.000792773
0.000785321
0.000777851
0.000770359
0.000762842
0.000755296
0.00074772
0.000740108
0.000732458
0.000724765
0.000717025
0.000709235
0.000701388
0.000693481
0.000685508
0.000677464
0.000669341
0.000661134
0.000652836
0.000644438
0.000635932
0.000627309
0.000618558
0.000609668
0.000600627
0.00059142
0.000582033
0.000572446
0.000562641
0.000552596
0.000542284
0.000531678
0.000520743
0.000509442
0.000497728
0.000485551
0.000472849
0.000459547
0.000445559
0.000430777
0.00041507
0.000398276
0.00038019
0.000360547
0.000339002
0.000315091
0.000288174
0.000257344
0.000221271
0.000177967
0.000124551
5.86834e-05
3.53617e-06
2.42068e-05
0.000141467
0.000261915
0.000359601
0.000438596
0.000503785
0.000558955
0.000606739
0.000648956
0.000686878
0.000721414
0.00075322
0.00078278
0.000810455
0.000836516
0.000861173
0.00088459
0.000906899
0.000928205
0.000948593
0.000968135
0.000986887
0.0010049
0.00102221
0.00103886
0.00105486
0.00107026
0.00108506
0.00109928
0.00111294
0.00112604
0.00113857
0.00115053
0.00116186
0.0011725
0.00118233
0.00119117
0.00119885
0.00120526
0.00121037
0.00121387
0.00121334
0.00119716
0.00119097
0.00119255
0.00120733
0.00121095
0.00121042
0.00121038
0.00121169
0.00121315
0.0012106
0.00120631
0.00121029
0.00121684
0.00122157
0.00122753
0.00121585
0.00120924
0.0012068
0.00120647
0.00120704
0.00120761
0.00120812
0.00120892
0.00121016
0.0012128
0.00122637
0.00122744
0.00122012
0.00121694
0.00122191
0.00123012
0.0012355
0.00123716
0.00123677
0.00123602
0.00123594
0.0012369
0.00123865
0.00124084
0.00124444
0.00124575
0.00124457
0.00124169
0.00123772
0.00123306
0.00122792
0.00122244
0.00121668
0.0012107
0.00120453
0.00119821
0.00119174
0.00118515
0.00117845
0.00117165
0.00116476
0.00115778
0.00115072
0.0011436
0.0011364
0.00112916
0.00112185
0.0011145
0.00110711
0.00109968
0.00109222
0.00108473
0.00107722
0.00106969
0.00106213
0.00105457
0.001047
0.00103941
0.00103183
0.00102424
0.00101665
0.00100907
0.00100149
0.000993915
0.000986349
0.000978792
0.000971245
0.000963708
0.000956184
0.000948671
0.000941171
0.000933683
0.000926207
0.000918744
0.000911293
0.000903852
0.000896422
0.000889002
0.000881591
0.000874187
0.000866789
0.000859395
0.000852005
0.000844617
0.000837228
0.000829837
0.000822442
0.00081504
0.000807629
0.000800208
0.000792773
0.000785321
0.000777851
0.000770359
0.000762841
0.000755296
0.000747719
0.000740108
0.000732457
0.000724764
0.000717025
0.000709234
0.000701388
0.000693481
0.000685508
0.000677463
0.000669341
0.000661134
0.000652835
0.000644438
0.000635932
0.000627308
0.000618558
0.000609668
0.000600627
0.00059142
0.000582032
0.000572446
0.000562641
0.000552595
0.000542284
0.000531677
0.000520743
0.000509441
0.000497728
0.000485551
0.000472848
0.000459547
0.000445558
0.000430776
0.00041507
0.000398276
0.00038019
0.000360547
0.000339002
0.000315091
0.000288174
0.000257344
0.000221271
0.000177967
0.000124551
5.86832e-05
3.53618e-06
3.09093e-05
0.000166041
0.000311994
0.000436475
0.000540438
0.000628045
0.000703038
0.000768299
0.000825974
0.000877649
0.000924504
0.000967424
0.00100708
0.00104397
0.0010785
0.00111098
0.00114165
0.0011707
0.0011983
0.00122458
0.00124965
0.00127358
0.00129648
0.00131838
0.00133936
0.00135946
0.00137872
0.00139716
0.00141483
0.00143174
0.00144791
0.00146334
0.00147802
0.0014919
0.00150492
0.00151693
0.00152775
0.00153719
0.00154514
0.00155173
0.00155736
0.00156249
0.00156729
0.00157182
0.00157536
0.0015767
0.00157779
0.00158112
0.00158402
0.00158446
0.00158393
0.00158641
0.00159108
0.00159515
0.00159804
0.0015994
0.00159993
0.00159971
0.00159956
0.00160012
0.00160156
0.00160341
0.00160498
0.00160627
0.00160738
0.00160821
0.00160748
0.0016066
0.00160685
0.00160375
0.00160129
0.00160009
0.00159948
0.00159864
0.00159737
0.00159588
0.00159463
0.00159402
0.00159415
0.00159481
0.00159602
0.00159993
0.00160131
0.00159983
0.00159644
0.00159189
0.00158658
0.00158073
0.00157447
0.00156788
0.00156101
0.00155392
0.00154662
0.00153914
0.0015315
0.00152372
0.0015158
0.00150776
0.00149961
0.00149134
0.00148299
0.00147453
0.001466
0.00145738
0.0014487
0.00143995
0.00143113
0.00142226
0.00141334
0.00140438
0.00139537
0.00138633
0.00137725
0.00136814
0.001359
0.00134985
0.00134067
0.00133148
0.00132227
0.00131305
0.00130382
0.00129458
0.00128533
0.00127608
0.00126682
0.00125756
0.0012483
0.00123903
0.00122976
0.00122049
0.00121122
0.00120194
0.00119266
0.00118338
0.00117409
0.0011648
0.0011555
0.00114618
0.00113686
0.00112753
0.00111818
0.00110881
0.00109942
0.00109002
0.00108058
0.00107113
0.00106164
0.00105211
0.00104255
0.00103295
0.00102331
0.00101362
0.00100387
0.000994074
0.000984213
0.000974285
0.000964286
0.00095421
0.000944051
0.000933802
0.000923457
0.000913008
0.000902448
0.000891767
0.000880956
0.000870005
0.000858902
0.000847636
0.000836193
0.000824557
0.000812713
0.000800643
0.000788324
0.000775736
0.000762852
0.000749643
0.000736077
0.000722116
0.000707718
0.000692834
0.000677407
0.000661373
0.000644654
0.000627163
0.000608791
0.000589414
0.000568877
0.000546996
0.000523542
0.00049823
0.000470701
0.000440492
0.000407
0.000369421
0.000326669
0.000277255
0.000219166
0.000149957
6.91979e-05
4.684e-06
3.09091e-05
0.000166043
0.000311997
0.00043648
0.000540444
0.000628052
0.000703045
0.000768307
0.000825981
0.000877656
0.000924511
0.000967431
0.00100708
0.00104398
0.00107851
0.00111099
0.00114165
0.00117071
0.00119831
0.00122459
0.00124965
0.00127359
0.00129648
0.00131839
0.00133937
0.00135947
0.00137872
0.00139717
0.00141484
0.00143175
0.00144792
0.00146335
0.00147803
0.00149192
0.00150495
0.001517
0.00152789
0.00153745
0.00154561
0.00155248
0.00155829
0.00156284
0.00156376
0.00156566
0.00156866
0.00157345
0.00157546
0.00157637
0.00157798
0.00158081
0.00158429
0.00158649
0.00158742
0.00159008
0.00159341
0.00159624
0.00159934
0.0015984
0.00159731
0.00159694
0.00159738
0.00159843
0.00159958
0.00160058
0.00160153
0.00160251
0.0016034
0.00160569
0.00160475
0.00160116
0.00159879
0.00159932
0.00160116
0.00160201
0.00160142
0.00160011
0.00159896
0.00159861
0.00159922
0.00160043
0.00160163
0.00160259
0.0016021
0.00159994
0.00159641
0.00159186
0.00158657
0.00158073
0.00157447
0.00156788
0.00156102
0.00155392
0.00154662
0.00153914
0.0015315
0.00152372
0.0015158
0.00150776
0.00149961
0.00149135
0.00148299
0.00147454
0.001466
0.00145739
0.0014487
0.00143995
0.00143113
0.00142227
0.00141335
0.00140438
0.00139537
0.00138633
0.00137725
0.00136814
0.00135901
0.00134985
0.00134067
0.00133148
0.00132227
0.00131305
0.00130382
0.00129458
0.00128533
0.00127608
0.00126682
0.00125756
0.0012483
0.00123903
0.00122976
0.00122049
0.00121122
0.00120194
0.00119266
0.00118338
0.00117409
0.0011648
0.0011555
0.00114618
0.00113686
0.00112753
0.00111818
0.00110881
0.00109942
0.00109002
0.00108058
0.00107112
0.00106164
0.00105211
0.00104255
0.00103295
0.00102331
0.00101362
0.00100387
0.000994074
0.000984212
0.000974285
0.000964285
0.000954209
0.00094405
0.000933802
0.000923457
0.000913008
0.000902447
0.000891766
0.000880955
0.000870004
0.000858901
0.000847635
0.000836192
0.000824557
0.000812713
0.000800642
0.000788324
0.000775735
0.000762851
0.000749643
0.000736076
0.000722115
0.000707717
0.000692833
0.000677406
0.000661372
0.000644654
0.000627162
0.000608791
0.000589413
0.000568876
0.000546995
0.000523541
0.00049823
0.000470701
0.000440492
0.000407
0.000369421
0.000326669
0.000277256
0.000219166
0.000149957
6.91977e-05
4.68401e-06
3.74471e-05
0.00018718
0.000353757
0.000500963
0.00062711
0.00073536
0.000829133
0.000911322
0.000984221
0.00104961
0.00110886
0.00116303
0.00121295
0.00125925
0.00130244
0.00134291
0.001381
0.00141696
0.001451
0.00148329
0.001514
0.00154323
0.00157109
0.00159767
0.00162306
0.0016473
0.00167046
0.00169259
0.00171373
0.00173392
0.00175317
0.00177149
0.0017889
0.00180536
0.00182081
0.00183514
0.00184821
0.00185987
0.00187004
0.00187885
0.00188664
0.00189381
0.00190061
0.00190709
0.001913
0.00191788
0.0019221
0.0019264
0.00193043
0.00193369
0.00193645
0.00193962
0.00194307
0.00194618
0.00194882
0.00195085
0.00195236
0.00195344
0.0019544
0.00195555
0.00195702
0.00195865
0.0019601
0.00196127
0.00196216
0.00196278
0.00196275
0.00196229
0.00196185
0.00196059
0.00195907
0.00195752
0.00195591
0.00195414
0.0019522
0.00195023
0.00194847
0.00194715
0.00194628
0.00194562
0.00194485
0.00194409
0.00194223
0.001939
0.00193462
0.00192933
0.00192334
0.00191679
0.00190979
0.00190241
0.00189472
0.00188676
0.00187856
0.00187014
0.00186153
0.00185274
0.00184379
0.00183469
0.00182545
0.00181607
0.00180657
0.00179695
0.00178722
0.00177739
0.00176746
0.00175744
0.00174734
0.00173716
0.00172691
0.00171659
0.00170621
0.00169577
0.00168528
0.00167474
0.00166415
0.00165352
0.00164286
0.00163216
0.00162143
0.00161067
0.00159988
0.00158906
0.00157823
0.00156737
0.00155649
0.00154559
0.00153467
0.00152374
0.00151279
0.00150181
0.00149082
0.00147982
0.00146879
0.00145774
0.00144667
0.00143558
0.00142446
0.00141332
0.00140215
0.00139095
0.00137972
0.00136845
0.00135715
0.0013458
0.00133441
0.00132297
0.00131148
0.00129994
0.00128834
0.00127667
0.00126493
0.00125313
0.00124124
0.00122927
0.00121721
0.00120506
0.0011928
0.00118043
0.00116794
0.00115533
0.00114259
0.0011297
0.00111665
0.00110344
0.00109005
0.00107647
0.00106268
0.00104867
0.00103441
0.0010199
0.00100511
0.000990003
0.000974566
0.000958765
0.000942566
0.00092593
0.000908814
0.000891168
0.000872936
0.000854054
0.000834447
0.00081403
0.000792703
0.00077035
0.000746832
0.000721987
0.00069562
0.000667495
0.000637328
0.000604766
0.000569373
0.0005306
0.000487745
0.000439912
0.000385935
0.000324314
0.000253193
0.000170704
7.79964e-05
5.80554e-06
3.7447e-05
0.000187182
0.000353761
0.000500968
0.000627116
0.000735367
0.00082914
0.00091133
0.000984229
0.00104962
0.00110887
0.00116304
0.00121296
0.00125926
0.00130245
0.00134292
0.00138101
0.00141696
0.001451
0.0014833
0.001514
0.00154324
0.0015711
0.00159768
0.00162306
0.00164731
0.00167047
0.0016926
0.00171374
0.00173392
0.00175317
0.0017715
0.00178891
0.00180538
0.00182084
0.0018352
0.00184833
0.0018601
0.00187044
0.0018795
0.00188753
0.00189475
0.00190084
0.00190657
0.00191201
0.00191715
0.00192114
0.0019245
0.00192795
0.00193183
0.00193595
0.00193958
0.00194243
0.00194525
0.00194803
0.0019505
0.00195287
0.00195421
0.0019551
0.00195592
0.00195692
0.00195813
0.00195935
0.00196037
0.00196119
0.00196181
0.00196212
0.00196224
0.00196127
0.00195928
0.00195731
0.00195595
0.00195486
0.00195342
0.00195152
0.00194948
0.0019477
0.00194649
0.00194591
0.00194566
0.00194524
0.00194423
0.00194217
0.00193891
0.00193455
0.0019293
0.00192333
0.00191679
0.00190979
0.00190242
0.00189473
0.00188676
0.00187856
0.00187014
0.00186153
0.00185275
0.0018438
0.00183469
0.00182545
0.00181607
0.00180657
0.00179695
0.00178722
0.00177739
0.00176746
0.00175744
0.00174734
0.00173716
0.00172691
0.00171659
0.00170621
0.00169577
0.00168528
0.00167474
0.00166415
0.00165353
0.00164286
0.00163216
0.00162143
0.00161067
0.00159988
0.00158907
0.00157823
0.00156737
0.00155649
0.00154559
0.00153467
0.00152374
0.00151279
0.00150181
0.00149082
0.00147982
0.00146879
0.00145774
0.00144667
0.00143558
0.00142446
0.00141332
0.00140215
0.00139095
0.00137972
0.00136845
0.00135715
0.0013458
0.00133441
0.00132297
0.00131148
0.00129994
0.00128834
0.00127667
0.00126493
0.00125313
0.00124124
0.00122927
0.00121721
0.00120506
0.0011928
0.00118043
0.00116794
0.00115533
0.00114259
0.0011297
0.00111665
0.00110344
0.00109005
0.00107647
0.00106268
0.00104867
0.00103441
0.0010199
0.0010051
0.000990002
0.000974566
0.000958765
0.000942565
0.000925929
0.000908813
0.000891167
0.000872935
0.000854053
0.000834446
0.00081403
0.000792703
0.000770349
0.000746831
0.000721986
0.000695619
0.000667495
0.000637328
0.000604766
0.000569373
0.000530599
0.000487745
0.000439912
0.000385935
0.000324314
0.000253193
0.000170704
7.79961e-05
5.80556e-06
4.38501e-05
0.000205991
0.000389936
0.000556659
0.000702418
0.000829373
0.00094053
0.00103867
0.00112612
0.00120476
0.0012761
0.00134132
0.00140137
0.00145699
0.00150879
0.00155723
0.00160272
0.00164557
0.00168605
0.00172437
0.00176071
0.00179524
0.00182807
0.00185933
0.00188911
0.0019175
0.00194456
0.00197037
0.00199496
0.0020184
0.00204071
0.00206192
0.00208204
0.00210106
0.00211894
0.00213563
0.00215103
0.00216504
0.00217763
0.00218889
0.00219904
0.00220837
0.00221711
0.00222533
0.00223298
0.00223991
0.00224616
0.00225194
0.0022573
0.00226219
0.00226665
0.00227085
0.00227478
0.00227833
0.00228151
0.00228429
0.00228667
0.00228868
0.00229043
0.00229202
0.00229355
0.00229497
0.00229617
0.00229707
0.00229766
0.00229794
0.00229778
0.00229722
0.00229637
0.00229511
0.00229349
0.00229157
0.00228941
0.00228706
0.00228459
0.00228207
0.00227963
0.00227737
0.00227526
0.00227314
0.00227075
0.00226793
0.00226435
0.00225989
0.00225457
0.0022485
0.00224179
0.00223452
0.00222678
0.00221865
0.00221016
0.00220138
0.00219232
0.00218302
0.0021735
0.00216378
0.00215386
0.00214376
0.0021335
0.00212307
0.0021125
0.00210179
0.00209094
0.00207997
0.00206888
0.00205767
0.00204637
0.00203496
0.00202346
0.00201188
0.00200021
0.00198847
0.00197666
0.00196477
0.00195283
0.00194083
0.00192877
0.00191666
0.0019045
0.00189229
0.00188004
0.00186775
0.00185542
0.00184306
0.00183065
0.00181822
0.00180574
0.00179324
0.0017807
0.00176812
0.00175552
0.00174287
0.0017302
0.00171748
0.00170473
0.00169194
0.00167911
0.00166623
0.00165331
0.00164034
0.00162732
0.00161425
0.00160112