/*--------------------------------*- C++ -*----------------------------------*\
  =========                 |
  \\      /  F ield         | OpenFOAM: The Open Source CFD Toolbox
   \\    /   O peration     | Website:  https://openfoam.org
    \\  /    A nd           | Version:  8
     \\/     M anipulation  |
\*---------------------------------------------------------------------------*/
FoamFile
{
    version     2.0;
    format      ascii;
    class       volScalarField;
    location    "4900";
    object      epsilon;
}
// * * * * * * * * * * * * * * * * * * * * * * * * * * * * * * * * * * * * * //

dimensions      [0 2 -3 0 0 0 0];

internalField   nonuniform List<scalar> 
46000
(
55.0347
172.853
296.589
409.979
516.582
619.375
719.554
817.556
913.939
1009.12
1103.45
1197.03
1289.47
1381.1
1472.04
1562.29
1651.84
1740.66
1828.7
1915.89
2002.15
2087.41
2171.58
2254.55
2336.23
2416.5
2495.26
2572.36
2647.68
2721.07
2792.33
2861.26
2927.53
2990.71
3050.14
3104.83
3153.41
3194.2
3225.78
3248.09
3263.82
3278.33
3295.35
3310.04
3305.24
3226.93
2852.96
3243.75
3287.92
3202.27
2777.43
2808.43
3237.93
3296.14
3311.49
3302.95
3296.67
3247.43
3215.91
3209.08
3222.16
3250.68
3260.61
3206.46
3250.19
3212.11
3219.17
2872.11
3259.56
13984.8
14108.3
14173.9
14225.5
14217.4
14188
14126.1
14047.3
13999.4
14011.3
14035.3
14029.2
3311.72
3293.45
3268.07
3237.5
3203.2
3166.23
3127.29
3086.88
3045.37
3003.02
2960.05
2916.6
2872.81
2828.77
2784.58
2740.3
2696
2651.74
2607.58
2563.56
2519.72
2476.12
2432.78
2389.74
2347.04
2304.7
2262.75
2221.21
2180.11
2139.46
2099.29
2059.61
2020.42
1981.76
1943.61
1905.99
1868.92
1832.38
1796.38
1760.94
1726.03
1691.68
1657.86
1624.59
1591.85
1559.64
1527.96
1496.79
1466.13
1435.97
1406.3
1377.12
1348.41
1320.16
1292.36
1265.01
1238.08
1211.58
1185.48
1159.78
1134.46
1109.52
1084.94
1060.71
1036.83
1013.27
990.031
967.102
944.472
922.131
900.069
878.276
856.744
835.464
814.428
793.626
773.052
752.697
732.553
712.615
692.875
673.325
653.96
634.773
615.758
596.909
578.219
559.682
541.293
523.046
504.933
486.949
469.088
451.342
433.704
416.166
398.721
381.36
364.074
346.851
329.682
312.554
295.452
278.362
261.265
244.143
226.971
209.723
192.367
174.865
157.17
139.224
120.952
102.257
82.9944
63.0023
42.1311
20.743
4.63785
55.0392
172.86
296.595
409.982
516.584
619.376
719.555
817.557
913.94
1009.12
1103.45
1197.03
1289.47
1381.1
1472.04
1562.29
1651.84
1740.66
1828.7
1915.89
2002.15
2087.41
2171.58
2254.55
2336.23
2416.5
2495.25
2572.36
2647.68
2721.07
2792.34
2861.27
2927.57
2990.81
3050.36
3105.32
3154.45
3196.37
3230.03
3255.8
3276.37
3295.8
13990.7
14074.1
14056.8
3291.76
3202.01
3066.11
3013.95
3031.92
3093.52
3144.34
2777.72
2800.01
3163.36
2878.51
3292.39
14246
14257
14171.8
14064.8
14060.1
14111
14071.4
13988.3
14038.5
14013
3304.15
3217.85
2887.83
2819.6
2945.94
3245.42
3296.51
3293.53
3279.44
3267.74
3264.5
3272.32
3287.06
3299.55
3300.36
3288.19
3265.87
3236.65
3202.91
3166.14
3127.26
3086.87
3045.36
3003.02
2960.04
2916.6
2872.81
2828.77
2784.57
2740.29
2696
2651.74
2607.57
2563.55
2519.72
2476.11
2432.77
2389.74
2347.03
2304.69
2262.74
2221.2
2180.1
2139.46
2099.29
2059.6
2020.42
1981.75
1943.61
1905.99
1868.91
1832.37
1796.38
1760.93
1726.03
1691.67
1657.86
1624.59
1591.85
1559.64
1527.95
1496.78
1466.12
1435.97
1406.3
1377.11
1348.4
1320.16
1292.36
1265
1238.08
1211.57
1185.48
1159.77
1134.46
1109.52
1084.94
1060.71
1036.82
1013.27
990.029
967.1
944.47
922.129
900.067
878.274
856.743
835.463
814.426
793.624
773.05
752.695
732.552
712.614
692.873
673.324
653.959
634.772
615.757
596.907
578.217
559.681
541.292
523.045
504.932
486.948
469.087
451.341
433.703
416.165
398.72
381.359
364.073
346.851
329.681
312.553
295.451
278.361
261.265
244.142
226.971
209.723
192.367
174.865
157.17
139.224
120.952
102.257
82.9944
63.0024
42.1312
20.743
4.63784
188.296
158.49
195.8
241.917
290.577
340.522
391.349
442.73
494.586
546.887
599.488
652.394
705.517
758.861
812.411
866.133
919.98
973.896
1027.82
1081.68
1135.4
1188.91
1242.12
1294.93
1347.27
1399.02
1450.09
1500.37
1549.74
1598.07
1645.22
1691.02
1735.26
1777.66
1817.85
1855.33
1889.49
1919.69
1945.67
1968.43
1992.31
2029.21
2098.49
2126.52
2148.92
2184.87
2354.94
2200.8
2177.9
2262.65
2504.18
2501.5
2282.57
2205.31
2173.47
2175.38
2181.33
2217.99
2220.59
2221.4
2224.92
2232.52
2240.41
2243.07
2248.63
2264.19
2322.17
2472.46
2528.46
3645.7
3826.68
3848.07
3833.72
3811.47
3790.69
3768.75
3746.18
3727.43
3709.4
3656.24
3412.04
2217.2
2001.6
1947.58
1918.84
1892.94
1866.43
1838.99
1810.76
1781.94
1752.68
1723.12
1693.36
1663.48
1633.54
1603.6
1573.72
1543.95
1514.31
1484.84
1455.59
1426.57
1397.81
1369.35
1341.19
1313.36
1285.87
1258.75
1232
1205.64
1179.68
1154.12
1128.98
1104.25
1079.95
1056.07
1032.62
1009.6
987.01
964.845
943.105
921.787
900.887
880.401
860.323
840.648
821.369
802.481
783.975
765.844
748.08
730.675
713.622
696.911
680.533
664.481
648.745
633.316
618.186
603.346
588.788
574.502
560.48
546.715
533.197
519.919
506.873
494.051
481.447
469.052
456.861
444.865
433.06
421.438
409.994
398.721
387.616
376.671
365.883
355.247
344.757
334.41
324.201
314.127
304.183
294.366
284.672
275.098
265.641
256.298
247.064
237.938
228.916
219.995
211.172
202.444
193.808
185.261
176.8
168.421
160.12
151.894
143.739
135.65
127.623
119.653
111.734
103.86
96.0241
88.2185
80.4344
72.6618
64.8894
57.1052
49.2979
41.4636
33.6341
25.9757
19.3199
22.538
188.295
158.492
195.8
241.915
290.574
340.518
391.345
442.726
494.581
546.882
599.483
652.388
705.511
758.854
812.404
866.125
919.971
973.887
1027.81
1081.67
1135.39
1188.9
1242.1
1294.92
1347.25
1399.01
1450.08
1500.35
1549.72
1598.06
1645.21
1691.02
1735.28
1777.71
1817.98
1855.61
1890.1
1921.09
1949.39
1981.05
2046.77
2298.2
3496.19
3674.84
3493.7
2333.78
2156
2119.12
2122.41
2154.6
2215.45
2314.24
2532.24
2524.75
2364.88
2498.78
2556.18
3691.43
3862.92
3878.92
3869.98
3868.24
3873.3
3867.5
3850.96
3809.36
3587.84
2419.5
2233.97
2273.79
2283.28
2257.11
2200.28
2158.33
2131.86
2113.7
2100.02
2090.08
2083.4
2076.6
2059.83
1997.85
1965.26
1941.29
1917.67
1892.69
1866.37
1838.96
1810.74
1781.92
1752.67
1723.11
1693.35
1663.46
1633.52
1603.59
1573.71
1543.93
1514.29
1484.83
1455.57
1426.56
1397.8
1369.33
1341.18
1313.35
1285.86
1258.74
1231.99
1205.63
1179.67
1154.11
1128.97
1104.24
1079.94
1056.06
1032.61
1009.59
987.001
964.836
943.096
921.778
900.878
880.392
860.315
840.64
821.362
802.473
783.967
765.836
748.073
730.669
713.615
696.904
680.527
664.475
648.739
633.31
618.181
603.341
588.782
574.497
560.475
546.71
533.192
519.914
506.868
494.047
481.442
469.048
456.856
444.861
433.056
421.434
409.99
398.718
387.612
376.668
365.88
355.244
344.754
334.407
324.198
314.124
304.18
294.363
284.67
275.096
265.639
256.295
247.062
237.936
228.914
219.993
211.17
202.442
193.807
185.26
176.798
168.419
160.118
151.893
143.737
135.649
127.622
119.652
111.733
103.859
96.0233
88.2178
80.4338
72.6613
64.889
57.1048
49.2976
41.4634
33.634
25.9756
19.3199
22.538
326.778
205.963
208.582
231.171
260.564
293.326
328.135
364.326
401.522
439.531
478.199
517.428
557.134
597.26
637.756
678.569
719.647
760.932
802.367
843.887
885.427
926.917
968.284
1009.45
1050.35
1090.88
1130.96
1170.51
1209.42
1247.59
1284.91
1321.26
1356.49
1390.44
1422.93
1453.74
1482.66
1509.51
1534.24
1557.08
1578.86
1601.7
1629.27
1654.08
1685.12
1734.96
1782.41
1761.42
1767.52
1819.88
1892.16
1889.22
1833.37
1802.81
1789.73
1792.03
1792.64
1801.31
1806.46
1808.47
1808.18
1807.58
1808.77
1808.12
1806.56
1809.75
1831.47
1846.75
1825.05
1948.01
1980.9
1974.57
1955.33
1936.22
1919.67
1904.21
1888.84
1873.48
1857.46
1835.96
1788.41
1616.26
1545.39
1512.35
1488.74
1466.71
1444.47
1421.73
1398.52
1374.94
1351.09
1327.06
1302.91
1278.71
1254.5
1230.34
1206.26
1182.3
1158.49
1134.85
1111.42
1088.2
1065.24
1042.54
1020.12
997.99
976.172
954.673
933.505
912.674
892.189
872.055
852.276
832.857
813.799
795.104
776.772
758.802
741.194
723.945
707.053
690.514
674.324
658.478
642.971
627.798
612.953
598.43
584.222
570.323
556.725
543.42
530.403
517.666
505.2
492.998
481.054
469.359
457.906
446.687
435.695
424.923
414.364
404.011
393.856
383.894
374.117
364.52
355.096
345.84
336.746
327.807
319.02
310.378
301.878
293.513
285.281
277.176
269.195
261.333
253.587
245.954
238.43
231.013
223.698
216.484
209.367
202.345
195.415
188.576
181.825
175.16
168.578
162.078
155.657
149.315
143.048
136.855
130.734
124.684
118.703
112.788
106.937
101.15
95.4246
89.7583
84.1497
78.5972
73.0997
67.6564
62.2677
56.9357
51.6665
46.4732
41.3844
36.4642
31.8692
28.0474
26.8631
45.364
326.78
205.961
208.579
231.168
260.56
293.323
328.131
364.321
401.518
439.526
478.194
517.423
557.129
597.255
637.75
678.563
719.64
760.926
802.36
843.88
885.419
926.909
968.276
1009.45
1050.34
1090.87
1130.95
1170.5
1209.41
1247.58
1284.91
1321.26
1356.5
1390.46
1422.98
1453.85
1482.88
1509.96
1535.19
1559.45
1587.01
1638.25
1813.17
1880.73
1886.43
1764.36
1746.98
1758.03
1774.12
1793.1
1818.08
1861.93
1917.26
1910.96
1879.74
1879.63
1857.63
1988.36
2032.45
2042.88
2043.42
2042.35
2041.75
2039.32
2033.73
2023.88
1994.19
1847.73
1812.82
1830.04
1827.2
1791.48
1742.06
1705.93
1682.45
1665.34
1650.55
1636.35
1621.94
1606.42
1587.59
1556.56
1531.22
1509.32
1488.14
1466.59
1444.44
1421.72
1398.51
1374.93
1351.08
1327.05
1302.9
1278.7
1254.5
1230.34
1206.26
1182.29
1158.48
1134.84
1111.41
1088.2
1065.23
1042.53
1020.11
997.983
976.165
954.667
933.499
912.669
892.183
872.049
852.271
832.852
813.794
795.099
776.767
758.798
741.19
723.941
707.049
690.51
674.32
658.474
642.967
627.795
612.95
598.427
584.219
570.319
556.721
543.417
530.4
517.663
505.197
492.996
481.051
469.356
457.903
446.684
435.693
424.921
414.362
404.008
393.854
383.892
374.115
364.518
355.095
345.838
336.744
327.806
319.018
310.377
301.876
293.512
285.279
277.174
269.193
261.332
253.586
245.953
238.429
231.011
223.697
216.482
209.366
202.344
195.414
188.575
181.824
175.159
168.577
162.077
155.656
149.314
143.047
136.854
130.734
124.684
118.702
112.787
106.937
101.15
95.4242
89.7579
84.1493
78.5969
73.0994
67.6561
62.2674
56.9355
51.6663
46.473
41.3842
36.4642
31.8692
28.0474
26.8632
45.3641
456.517
260.722
238.643
246.567
264.885
288.258
314.621
342.979
372.779
403.688
435.485
468.013
501.156
534.823
568.942
603.444
638.267
673.351
708.633
744.054
779.549
815.055
850.504
885.828
920.954
955.811
990.32
1024.4
1057.97
1090.95
1123.24
1154.74
1185.36
1215
1243.57
1271.01
1297.32
1322.52
1346.69
1369.85
1391.96
1413.12
1433.86
1453.69
1474.9
1501.56
1525.66
1534.6
1545.95
1567.61
1592.33
1599.35
1593.41
1590.23
1590.57
1594.87
1599
1604.31
1608.02
1608.96
1607.1
1603.6
1599.99
1595.51
1589.64
1583.59
1581.73
1577.49
1563.89
1569.56
1565.95
1554.19
1538.66
1523.08
1508.25
1493.7
1478.73
1462.77
1445.55
1426.67
1403.64
1362.75
1332.66
1309.72
1289.25
1269.26
1249.11
1228.66
1207.93
1186.95
1165.8
1144.52
1123.18
1101.82
1080.47
1059.19
1037.99
1016.91
995.983
975.223
954.656
934.301
914.176
894.296
874.677
855.33
836.268
817.498
799.03
780.87
763.025
745.499
728.295
711.417
694.865
678.641
662.744
647.173
631.927
617.004
602.4
588.113
574.137
560.47
547.105
534.038
521.263
508.775
496.567
484.633
472.966
461.561
450.41
439.506
428.843
418.414
408.212
398.23
388.461
378.9
369.538
360.37
351.389
342.589
333.963
325.507
317.213
309.077
301.092
293.254
285.558
277.998
270.57
263.269
256.091
249.032
242.088
235.255
228.53
221.908
215.388
208.965
202.638
196.403
190.257
184.199
178.225
172.335
166.525
160.794
155.14
149.562
144.057
138.625
133.264
127.972
122.748
117.592
112.502
107.477
102.516
97.6188
92.7847
88.0132
83.304
78.6576
74.0745
69.5561
65.105
60.7253
56.4238
52.2118
48.1081
44.1457
40.3847
36.9447
34.0921
32.5551
35.2955
67.5294
456.52
260.719
238.64
246.563
264.882
288.254
314.617
342.975
372.775
403.684
435.48
468.008
501.151
534.819
568.937
603.438
638.262
673.345
708.628
744.048
779.543
815.049
850.497
885.821
920.948
955.804
990.313
1024.4
1057.97
1090.94
1123.23
1154.73
1185.36
1215
1243.58
1271.03
1297.34
1322.55
1346.72
1369.93
1392.62
1417.57
1459.29
1488.95
1508.68
1511.11
1525.76
1543.76
1559.31
1571.52
1581.96
1596.14
1612.71
1616.06
1613.5
1613.66
1608.28
1624.92
1634.74
1638.38
1638.32
1636.03
1632.73
1628.45
1622.58
1614.91
1604.64
1579.57
1569.2
1568.48
1560.44
1540.27
1514.61
1492.63
1475.07
1459.68
1444.53
1428.48
1411.11
1392.46
1372.66
1350.32
1329.03
1308.86
1289.09
1269.24
1249.11
1228.66
1207.92
1186.94
1165.79
1144.52
1123.17
1101.81
1080.47
1059.18
1037.98
1016.91
995.978
975.218
954.651
934.296
914.171
894.292
874.673
855.327
836.264
817.494
799.026
780.867
763.022
745.496
728.292
711.414
694.862
678.638
662.741
647.171
631.925
617.001
602.398
588.11
574.135
560.467
547.103
534.036
521.261
508.773
496.565
484.631
472.964
461.559
450.408
439.504
428.841
418.412
408.21
398.229
388.46
378.898
369.537
360.369
351.388
342.588
333.962
325.506
317.212
309.076
301.091
293.254
285.557
277.997
270.569
263.268
256.091
249.032
242.088
235.255
228.529
221.908
215.387
208.965
202.637
196.402
190.256
184.198
178.225
172.334
166.524
160.794
155.14
149.561
144.057
138.625
133.263
127.971
122.748
117.592
112.501
107.476
102.516
97.6186
92.7845
88.013
83.3039
78.6574
74.0743
69.556
65.1048
60.7252
56.4237
52.2117
48.108
44.1456
40.3847
36.9447
34.0921
32.5551
35.2957
67.5295
580.43
317.432
274.405
270.851
281.015
297.837
318.565
341.867
367.007
393.535
421.154
449.656
478.889
508.733
539.093
569.886
601.039
632.485
664.158
695.996
727.934
759.911
791.861
823.721
855.423
886.9
918.081
948.894
979.267
1009.12
1038.38
1066.97
1094.81
1121.84
1148.01
1173.31
1197.79
1221.53
1244.6
1266.96
1288.39
1308.63
1327.59
1345.32
1362.47
1380.24
1397.03
1410.07
1422.14
1435.24
1448.18
1456.84
1461.88
1466.3
1470.52
1474.88
1478.72
1482.06
1484.05
1484.1
1482.05
1478.37
1473.83
1468.5
1462.13
1454.88
1447.9
1440.14
1429.89
1421.55
1411.75
1400.02
1386.99
1373.47
1359.68
1345.5
1330.61
1314.65
1297.53
1279.42
1260.3
1238.44
1217.72
1198.29
1179.4
1160.58
1141.64
1122.5
1103.17
1083.68
1064.08
1044.39
1024.66
1004.93
985.239
965.607
946.068
926.648
907.372
888.26
869.333
850.609
832.103
813.83
795.802
778.032
760.529
743.302
726.358
709.703
693.343
677.281
661.521
646.065
630.914
616.068
601.528
587.292
573.358
559.725
546.389
533.348
520.596
508.131
495.946
484.039
472.402
461.032
449.921
439.065
428.456
418.09
407.959
398.057
388.378
378.915
369.663
360.614
351.762
343.102
334.627
326.33
318.207
310.25
302.455
294.815
287.326
279.982
272.778
265.709
258.771
251.958
245.266
238.692
232.232
225.88
219.634
213.491
207.446
201.497
195.641
189.875
184.197
178.603
173.092
167.661
162.309
157.034
151.833
146.705
141.649
136.663
131.746
126.897
122.114
117.398
112.747
108.16
103.637
99.1781
94.7826
90.4508
86.183
81.98
77.8429
73.7737
69.775
65.8507
62.0066
58.2511
54.5966
51.0625
47.6791
44.4971
41.6053
39.1741
37.575
37.811
43.9044
88.8978
580.432
317.429
274.402
270.847
281.011
297.833
318.561
341.863
367.003
393.531
421.15
449.652
478.884
508.728
539.088
569.881
601.034
632.48
664.153
695.99
727.929
759.905
791.856
823.715
855.417
886.894
918.075
948.888
979.261
1009.12
1038.38
1066.97
1094.81
1121.83
1148
1173.29
1197.74
1221.42
1244.38
1266.55
1287.83
1308.41
1330.44
1350.35
1368.11
1383.09
1399.25
1415
1428.6
1439.52
1448.3
1456.82
1465.53
1471.28
1474.89
1477.92
1478.99
1482.54
1485.16
1485.99
1484.92
1482.08
1477.98
1472.91
1466.75
1459.41
1451.1
1440.54
1431.89
1424.67
1415.1
1401.75
1386.24
1371.06
1356.63
1342.31
1327.34
1311.21
1293.78
1275.27
1256.14
1236.5
1217.14
1198.18
1179.41
1160.6
1141.64
1122.5
1103.17
1083.68
1064.07
1044.38
1024.66
1004.93
985.235
965.603
946.064
926.645
907.368
888.257
869.33
850.606
832.1
813.827
795.8
778.029
760.526
743.299
726.355
709.7
693.34
677.279
661.519
646.063
630.912
616.066
601.526
587.29
573.357
559.723
546.388
533.346
520.594
508.129
495.945
484.037
472.401
461.031
449.92
439.063
428.455
418.088
407.957
398.056
388.377
378.914
369.662
360.613
351.762
343.101
334.626
326.329
318.206
310.249
302.454
294.814
287.325
279.981
272.777
265.708
258.77
251.957
245.266
238.692
232.231
225.88
219.634
213.49
207.446
201.497
195.641
189.875
184.196
178.603
173.092
167.661
162.309
157.033
151.832
146.705
141.648
136.663
131.746
126.896
122.114
117.398
112.746
108.16
103.637
99.178
94.7825
90.4506
86.1829
81.9799
77.8428
73.7736
69.7749
65.8507
62.0066
58.251
54.5966
51.0624
47.6791
44.4971
41.6053
39.1741
37.575
37.811
43.9047
88.898
701.019
375.269
313.019
299.459
302.892
314.559
331.021
350.618
372.431
395.899
420.652
446.433
473.051
500.361
528.246
556.609
585.364
614.436
643.755
673.254
702.867
732.533
762.187
791.767
821.21
850.45
879.422
908.062
936.301
964.071
991.306
1017.94
1043.91
1069.16
1093.66
1117.41
1140.44
1162.81
1184.55
1205.63
1225.84
1244.96
1262.84
1279.49
1295.11
1310.07
1324.18
1336.84
1348.38
1359.15
1369.01
1377.24
1383.93
1389.59
1394.3
1398.16
1401.14
1403.21
1404.11
1403.61
1401.64
1398.33
1394.01
1388.8
1382.69
1375.69
1368.09
1359.82
1350.48
1340.73
1330.25
1318.95
1306.91
1294.24
1280.99
1267.12
1252.51
1237
1220.6
1203.45
1185.79
1167.54
1149.32
1131.28
1113.29
1095.25
1077.09
1058.79
1040.36
1021.82
1003.19
984.509
965.806
947.113
928.46
909.875
891.383
873.008
854.773
836.698
818.8
801.097
783.603
766.332
749.296
732.505
715.969
699.696
683.693
667.966
652.518
637.355
622.479
607.892
593.596
579.589
565.873
552.447
539.307
526.454
513.882
501.591
489.575
477.831
466.354
455.14
444.183
433.479
423.022
412.807
402.827
393.077
383.551
374.242
365.146
356.255
347.563
339.065
330.755
322.626
314.673
306.89
299.272
291.812
284.505
277.347
270.331
263.454
256.709
250.093
243.601
237.229
230.972
224.826
218.788
212.854
207.021
201.285
195.643
190.092
184.629
179.253
173.959
168.747
163.613
158.556
153.574
148.666
143.829
139.062
134.364
129.734
125.171
120.674
116.242
111.875
107.572
103.333
99.1581
95.0476
91.0019
87.0219
83.1087
79.2641
75.4906
71.7913
68.171
64.6357
61.1942
57.8588
54.6474
51.5865
48.7175
46.1071
43.8713
42.2288
41.6534
43.417
52.5693
109.691
701.02
375.265
313.016
299.455
302.888
314.555
331.017
350.614
372.427
395.895
420.648
446.429
473.047
500.357
528.241
556.604
585.359
614.431
643.75
673.249
702.862
732.528
762.182
791.762
821.204
850.444
879.417
908.056
936.295
964.066
991.3
1017.93
1043.9
1069.15
1093.65
1117.39
1140.39
1162.7
1184.35
1205.27
1225.31
1244.35
1262.66
1279.78
1295.75
1310.61
1324.97
1338.44
1350.49
1360.82
1369.58
1377.33
1384.42
1390.27
1394.84
1398.38
1400.67
1402.44
1403.32
1403.06
1401.47
1398.52
1394.4
1389.29
1383.25
1376.26
1368.45
1359.76
1350.88
1341.77
1331.69
1320.26
1307.8
1294.88
1281.6
1267.79
1253.19
1237.59
1220.99
1203.57
1185.66
1167.5
1149.37
1131.33
1113.33
1095.27
1077.09
1058.79
1040.36
1021.81
1003.19
984.505
965.803
947.11
928.457
909.872
891.38
873.006
854.771
836.695
818.798
801.095
783.601
766.33
749.294
732.503
715.967
699.694
683.691
667.964
652.517
637.354
622.478
607.891
593.594
579.588
565.872
552.445
539.306
526.452
513.881
501.589
489.574
477.829
466.353
455.139
444.182
433.478
423.021
412.806
402.826
393.076
383.55
374.241
365.145
356.254
347.562
339.065
330.754
322.626
314.673
306.89
299.271
291.811
284.505
277.346
270.331
263.453
256.709
250.093
243.601
237.228
230.971
224.826
218.788
212.854
207.021
201.284
195.642
190.092
184.629
179.252
173.959
168.746
163.613
158.556
153.574
148.665
143.828
139.062
134.364
129.734
125.171
120.674
116.242
111.874
107.572
103.333
99.158
95.0475
91.0018
87.0218
83.1086
79.2641
75.4905
71.7913
68.1709
64.6357
61.1942
57.8588
54.6473
51.5865
48.7174
46.1071
43.8712
42.2288
41.6534
43.4171
52.5697
109.691
818.884
433.912
353.442
330.694
328.217
335.532
348.516
365.182
384.43
405.591
428.224
452.023
476.761
502.266
528.403
555.057
582.133
609.546
637.219
665.081
693.066
721.108
749.144
777.112
804.951
832.599
859.993
887.073
913.777
940.042
965.809
991.019
1015.62
1039.56
1062.81
1085.36
1107.21
1128.39
1148.91
1168.74
1187.75
1205.8
1222.76
1238.61
1253.41
1267.27
1280.2
1292.09
1302.93
1312.75
1321.51
1329.13
1335.63
1341.08
1345.48
1348.85
1351.22
1352.57
1352.87
1352.04
1350.05
1346.96
1342.86
1337.86
1331.96
1325.22
1317.7
1309.46
1300.42
1290.7
1280.3
1269.26
1257.57
1245.24
1232.27
1218.66
1204.38
1189.38
1173.68
1157.4
1140.7
1123.66
1106.47
1089.19
1071.82
1054.35
1036.77
1019.06
1001.25
983.354
965.393
947.395
929.386
911.394
893.446
875.566
857.78
840.108
822.571
805.189
787.979
770.955
754.133
737.525
721.143
704.996
689.094
673.445
658.055
642.929
628.073
613.49
599.183
585.153
571.402
557.931
544.739
531.824
519.186
506.823
494.732
482.909
471.353
460.057
449.019
438.235
427.698
417.405
407.349
397.527
387.932
378.558
369.401
360.453
351.71
343.166
334.814
326.649
318.666
310.858
303.22
295.747
288.432
281.271
274.259
267.39
260.659
254.062
247.594
241.251
235.028
228.921
222.925
217.038
211.256
205.574
199.99
194.501
189.103
183.794
178.571
173.431
168.373
163.393
158.49
153.663
148.908
144.226
139.614
135.071
130.596
126.188
121.846
117.57
113.359
109.213
105.132
101.116
97.1654
93.281
89.4639
85.7156
82.038
78.434
74.9069
71.4616
68.1043
64.8434
61.6904
58.6613
55.779
53.077
50.6067
48.4507
46.7506
45.7726
46.091
49.2441
61.2889
130.137
818.884
433.908
353.438
330.69
328.213
335.528
348.512
365.178
384.426
405.587
428.22
452.018
476.756
502.262
528.398
555.053
582.128
609.541
637.214
665.076
693.061
721.103
749.139
777.107
804.946
832.593
859.988
887.068
913.772
940.037
965.804
991.014
1015.61
1039.55
1062.8
1085.34
1107.17
1128.32
1148.79
1168.53
1187.44
1205.4
1222.4
1238.36
1253.28
1267.23
1280.31
1292.43
1303.42
1313.17
1321.68
1329.11
1335.6
1341.07
1345.44
1348.75
1350.96
1352.21
1352.48
1351.71
1349.85
1346.88
1342.85
1337.86
1331.98
1325.24
1317.69
1309.38
1300.45
1290.93
1280.72
1269.73
1258.03
1245.73
1232.84
1219.3
1205.04
1190
1174.22
1157.8
1140.94
1123.82
1106.57
1089.24
1071.85
1054.36
1036.77
1019.06
1001.25
983.35
965.39
947.392
929.383
911.391
893.443
875.564
857.777
840.106
822.569
805.187
787.976
770.953
754.131
737.523
721.141
704.994
689.093
673.443
658.053
642.928
628.072
613.489
599.181
585.152
571.401
557.93
544.737
531.823
519.185
506.822
494.731
482.908
471.352
460.056
449.018
438.234
427.697
417.404
407.349
397.526
387.931
378.557
369.4
360.452
351.709
343.165
334.813
326.649
318.665
310.857
303.22
295.746
288.432
281.271
274.258
267.389
260.659
254.062
247.594
241.251
235.027
228.92
222.925
217.038
211.255
205.574
199.99
194.501
189.103
183.794
178.571
173.431
168.372
163.393
158.49
153.663
148.908
144.226
139.614
135.071
130.596
126.188
121.846
117.57
113.359
109.213
105.132
101.116
97.1653
93.2809
89.4638
85.7155
82.038
78.4339
74.9069
71.4616
68.1043
64.8434
61.6904
58.6613
55.7789
53.0769
50.6067
48.4507
46.7505
45.7725
46.091
49.2442
61.2894
130.138
934.597
493.217
395.221
363.808
355.937
359.41
369.419
383.646
400.814
420.145
441.128
463.409
486.727
510.884
535.725
561.12
586.963
613.158
639.624
666.285
693.07
719.912
746.747
773.515
800.153
826.602
852.804
878.699
904.231
929.342
953.977
978.083
1001.61
1024.52
1046.77
1068.34
1089.23
1109.43
1128.93
1147.72
1165.7
1182.81
1198.95
1214.1
1228.24
1241.42
1253.63
1264.85
1275.06
1284.24
1292.38
1299.46
1305.52
1310.55
1314.54
1317.5
1319.45
1320.39
1320.33
1319.25
1317.17
1314.11
1310.09
1305.18
1299.4
1292.78
1285.37
1277.22
1268.32
1258.72
1248.45
1237.55
1226.02
1213.86
1201.09
1187.7
1173.71
1159.12
1143.97
1128.32
1112.28
1095.93
1079.36
1062.61
1045.71
1028.69
1011.54
994.281
976.93
959.504
942.025
924.516
907.004
889.512
872.065
854.686
837.398
820.221
803.175
786.278
769.546
752.994
736.636
720.484
704.55
688.842
673.371
658.142
643.164
628.441
613.978
599.778
585.845
572.181
558.785
545.66
532.805
520.219
507.901
495.849
484.06
472.532
461.262
450.245
439.479
428.958
418.678
408.635
398.823
389.238
379.874
370.726
361.788
353.056
344.522
336.182
328.03
320.061
312.269
304.649
297.195
289.901
282.764
275.776
268.935
262.233
255.668
249.233
242.926
236.74
230.673
224.72
218.877
213.14
207.506
201.972
196.534
191.189
185.934
180.767
175.685
170.685
165.766
160.925
156.16
151.47
146.853
142.307
137.831
133.424
129.086
124.814
120.61
116.472
112.399
108.393
104.454
100.581
96.7764
93.0405
89.3751
85.7825
82.2653
78.8272
75.4728
72.2082
69.0412
65.9823
63.0458
60.251
57.6257
55.2102
53.0655
51.2894
50.0488
49.6569
50.7886
55.2478
70.0887
150.405
934.597
493.212
395.217
363.803
355.933
359.406
369.415
383.642
400.81
420.14
441.124
463.405
486.723
510.88
535.721
561.116
586.958
613.154
639.62
666.28
693.065
719.907
746.743
773.51
800.148
826.597
852.799
878.694
904.226
929.337
953.972
978.078
1001.6
1024.51
1046.76
1068.33
1089.2
1109.39
1128.87
1147.61
1165.55
1182.61
1198.75
1213.91
1228.1
1241.31
1253.57
1264.86
1275.11
1284.29
1292.37
1299.42
1305.46
1310.48
1314.47
1317.43
1319.34
1320.26
1320.18
1319.13
1317.09
1314.06
1310.06
1305.15
1299.36
1292.74
1285.33
1277.17
1268.3
1258.76
1248.55
1237.69
1226.19
1214.08
1201.35
1188.01
1174.03
1159.43
1144.24
1128.54
1112.43
1096.03
1079.41
1062.63
1045.72
1028.69
1011.54
994.279
976.927
959.501
942.022
924.514
907.001
889.509
872.062
854.684
837.396
820.219
803.173
786.276
769.544
752.992
736.634
720.482
704.548
688.841
673.369
658.141
643.162
628.439
613.976
599.777
585.844
572.179
558.784
545.659
532.804
520.218
507.9
495.848
484.059
472.531
461.261
450.244
439.478
428.957
418.677
408.634
398.823
389.238
379.874
370.726
361.788
353.055
344.521
336.182
328.03
320.061
312.269
304.648
297.194
289.901
282.763
275.776
268.934
262.233
255.667
249.233
242.925
236.74
230.673
224.719
218.876
213.14
207.506
201.971
196.533
191.188
185.934
180.767
175.685
170.685
165.766
160.925
156.16
151.47
146.852
142.307
137.831
133.424
129.085
124.814
120.61
116.471
112.399
108.393
104.454
100.581
96.7763
93.0404
89.375
85.7824
82.2652
78.8271
75.4728
72.2081
69.0412
65.9823
63.0457
60.251
57.6257
55.2101
53.0655
51.2894
50.0487
49.6569
50.7886
55.248
70.0893
150.405
1048.87
553.279
438.152
398.432
385.515
385.493
392.868
404.993
420.411
438.236
457.888
478.966
501.174
524.29
548.137
572.573
597.479
622.751
648.3
674.046
699.913
725.833
751.742
777.576
803.276
828.784
854.042
878.994
903.587
927.767
951.483
974.687
997.331
1019.38
1040.79
1061.54
1081.6
1100.98
1119.64
1137.56
1154.69
1170.99
1186.4
1200.88
1214.41
1226.98
1238.6
1249.24
1258.9
1267.55
1275.18
1281.81
1287.43
1292.05
1295.66
1298.28
1299.9
1300.54
1300.22
1298.95
1296.74
1293.61
1289.57
1284.67
1278.92
1272.35
1265.01
1256.91
1248.1
1238.59
1228.42
1217.61
1206.19
1194.16
1181.54
1168.35
1154.6
1140.33
1125.57
1110.37
1094.79
1078.91
1062.77
1046.43
1029.91
1013.25
996.45
979.545
962.549
945.484
928.37
911.23
894.089
876.969
859.893
842.884
825.962
809.147
792.458
775.912
759.525
743.31
727.282
711.452
695.832
680.43
665.256
650.317
635.619
621.167
606.967
593.023
579.336
565.909
552.743
539.84
527.199
514.819
502.7
490.839
479.234
467.884
456.785
445.933
435.325
424.957
414.824
404.923
395.248
385.795
376.558
367.533
358.714
350.096
341.674
333.442
325.395
317.528
309.834
302.31
294.95
287.748
280.699
273.799
267.043
260.426
253.943
247.59
241.362
235.256
229.266
223.39
217.623
211.962
206.403
200.943
195.579
190.308
185.127
180.033
175.024
170.098
165.251
160.483
155.792
151.175
146.632
142.16
137.76
133.429
129.167
124.973
120.847
116.789
112.799
108.877
105.023
101.239
97.5257
93.8845
90.3178
86.8284
83.4196
80.0961
76.8634
73.7288
70.702
67.7953
65.0254
62.4154
59.9975
57.8184
55.9488
54.5014
53.6684
53.8101
55.7026
61.4165
78.999
170.616
1048.87
553.274
438.148
398.428
385.511
385.489
392.864
404.989
420.407
438.232
457.884
478.962
501.17
524.285
548.133
572.569
597.474
622.747
648.296
674.041
699.908
725.829
751.737
777.572
803.272
828.779
854.037
878.989
903.582
927.762
951.478
974.681
997.326
1019.37
1040.78
1061.53
1081.59
1100.95
1119.6
1137.5
1154.62
1170.9
1186.3
1200.78
1214.32
1226.91
1238.54
1249.2
1258.87
1267.52
1275.15
1281.77
1287.39
1292.01
1295.62
1298.24
1299.85
1300.49
1300.17
1298.91
1296.71
1293.58
1289.55
1284.64
1278.89
1272.32
1264.98
1256.89
1248.08
1238.59
1228.44
1217.65
1206.24
1194.24
1181.64
1168.47
1154.73
1140.45
1125.68
1110.46
1094.86
1078.95
1062.79
1046.44
1029.91
1013.24
996.448
979.542
962.547
945.481
928.367
911.228
894.087
876.967
859.891
842.882
825.96
809.146
792.457
775.91
759.523
743.308
727.28
711.451
695.83
680.429
665.255
650.315
635.617
621.166
606.966
593.021
579.335
565.908
552.742
539.839
527.198
514.818
502.699
490.838
479.234
467.883
456.784
445.932
435.324
424.956
414.824
404.922
395.248
385.794
376.558
367.533
358.714
350.096
341.673
333.442
325.394
317.527
309.834
302.31
294.949
287.747
280.699
273.799
267.043
260.426
253.943
247.59
241.362
235.255
229.266
223.39
217.623
211.962
206.403
200.943
195.579
190.308
185.127
180.033
175.024
170.097
165.251
160.483
155.792
151.175
146.632
142.16
137.759
133.429
129.167
124.973
120.847
116.789
112.799
108.877
105.023
101.239
97.5256
93.8844
90.3177
86.8283
83.4195
80.096
76.8633
73.7288
70.7019
67.7952
65.0254
62.4154
59.9974
57.8183
55.9487
54.5014
53.6683
53.8101
55.7026
61.4166
78.9996
170.616
1162.26
614.165
482.189
434.394
416.666
413.389
418.373
428.637
442.541
459.094
477.644
497.742
519.061
541.352
564.42
588.107
612.283
636.837
661.671
686.7
711.845
737.035
762.204
787.289
812.229
836.968
861.451
885.623
909.432
932.83
955.767
978.199
1000.08
1021.38
1042.05
1062.07
1081.42
1100.06
1117.99
1135.17
1151.57
1167.15
1181.88
1195.73
1208.66
1220.67
1231.73
1241.84
1250.98
1259.15
1266.33
1272.53
1277.75
1281.99
1285.26
1287.56
1288.9
1289.29
1288.75
1287.29
1284.94
1281.7
1277.59
1272.65
1266.88
1260.32
1253
1244.95
1236.18
1226.74
1216.64
1205.91
1194.58
1182.66
1170.18
1157.16
1143.62
1129.6
1115.13
1100.25
1085.02
1069.48
1053.68
1037.66
1021.45
1005.08
988.579
971.962
955.254
938.476
921.651
904.801
887.949
871.117
854.328
837.601
820.958
804.417
787.995
771.71
755.577
739.609
723.82
708.222
692.825
677.638
662.671
647.93
633.422
619.152
605.126
591.347
577.818
564.541
551.517
538.749
526.235