/*--------------------------------*- C++ -*----------------------------------*\
  =========                 |
  \\      /  F ield         | OpenFOAM: The Open Source CFD Toolbox
   \\    /   O peration     | Website:  https://openfoam.org
    \\  /    A nd           | Version:  8
     \\/     M anipulation  |
\*---------------------------------------------------------------------------*/
FoamFile
{
    version     2.0;
    format      ascii;
    class       volScalarField;
    location    "4900";
    object      k;
}
// * * * * * * * * * * * * * * * * * * * * * * * * * * * * * * * * * * * * * //

dimensions      [0 2 -2 0 0 0 0];

internalField   nonuniform List<scalar> 
46000
(
0.0437531
0.144284
0.247601
0.342259
0.431247
0.517055
0.600682
0.682492
0.76295
0.842406
0.921151
0.999268
1.07643
1.15293
1.22884
1.30418
1.37893
1.45308
1.52657
1.59935
1.67136
1.74253
1.81279
1.88205
1.95024
2.01724
2.08298
2.14734
2.21021
2.27146
2.33093
2.38844
2.44371
2.49639
2.54596
2.5917
2.63271
2.66799
2.69677
2.71885
2.73437
2.74212
2.73824
2.74225
2.73529
2.69017
2.51586
2.71702
2.74187
2.66995
2.42221
2.46942
2.7218
2.78567
2.80891
2.80774
2.80069
2.76715
2.74838
2.74353
2.74848
2.75761
2.75753
2.74284
2.74586
2.7254
2.68438
2.50786
2.61409
2.28507
2.24477
2.24552
2.25318
2.25409
2.24929
2.24131
2.23284
2.22691
2.22608
2.23701
2.30359
2.68071
2.7341
2.72553
2.70229
2.67403
2.6432
2.61068
2.57694
2.54229
2.50694
2.47108
2.43482
2.39827
2.36151
2.32462
2.28766
2.25069
2.21374
2.17688
2.14013
2.10354
2.06714
2.03096
1.99504
1.95939
1.92405
1.88903
1.85436
1.82005
1.78612
1.75258
1.71945
1.68675
1.65447
1.62262
1.59122
1.56027
1.52977
1.49972
1.47013
1.44099
1.41231
1.38408
1.3563
1.32897
1.30208
1.27563
1.24961
1.22402
1.19884
1.17407
1.14971
1.12574
1.10216
1.07895
1.05612
1.03364
1.01151
0.989723
0.968267
0.947132
0.92631
0.90579
0.885564
0.865622
0.845956
0.826556
0.807414
0.788521
0.76987
0.751451
0.733258
0.715282
0.697516
0.679954
0.662588
0.645411
0.628417
0.611601
0.594955
0.578475
0.562154
0.545987
0.529968
0.514093
0.498357
0.482753
0.467278
0.451925
0.436691
0.42157
0.406555
0.391643
0.376827
0.362102
0.34746
0.332896
0.318401
0.303969
0.289591
0.275256
0.260956
0.246678
0.232409
0.218135
0.20384
0.189503
0.175103
0.160612
0.146
0.131226
0.116243
0.100987
0.0853781
0.0692949
0.0526034
0.0351775
0.0173203
0.00367948
0.0437369
0.144257
0.247579
0.342251
0.431245
0.517056
0.600683
0.682493
0.762951
0.842406
0.921152
0.999268
1.07643
1.15293
1.22884
1.30418
1.37893
1.45308
1.52657
1.59935
1.67136
1.74253
1.81279
1.88205
1.95023
2.01724
2.08298
2.14734
2.21021
2.27146
2.33094
2.38845
2.44375
2.49647
2.54613
2.59205
2.63337
2.66911
2.69806
2.71755
2.71657
2.64521
2.28187
2.25102
2.31376
2.67954
2.70219
2.6709
2.65308
2.65413
2.65696
2.62675
2.41606
2.45293
2.64341
2.51773
2.64713
2.32637
2.28443
2.2742
2.26911
2.26855
2.26877
2.26562
2.26422
2.27575
2.3377
2.69331
2.69614
2.56697
2.53229
2.59383
2.70745
2.74489
2.74741
2.73876
2.72943
2.72406
2.72429
2.72915
2.73779
2.75135
2.74476
2.72662
2.70215
2.67388
2.64312
2.61065
2.57693
2.54228
2.50694
2.47107
2.43481
2.39826
2.36151
2.32462
2.28766
2.25068
2.21374
2.17687
2.14013
2.10354
2.06714
2.03096
1.99504
1.95939
1.92404
1.88903
1.85435
1.82004
1.78611
1.75258
1.71945
1.68674
1.65446
1.62262
1.59122
1.56026
1.52976
1.49972
1.47012
1.44099
1.41231
1.38408
1.3563
1.32897
1.30208
1.27563
1.24961
1.22401
1.19884
1.17407
1.14971
1.12574
1.10216
1.07895
1.05611
1.03364
1.01151
0.989721
0.968265
0.94713
0.926308
0.905788
0.885562
0.86562
0.845954
0.826554
0.807412
0.78852
0.769868
0.751449
0.733256
0.71528
0.697515
0.679952
0.662586
0.64541
0.628416
0.611599
0.594954
0.578473
0.562152
0.545985
0.529967
0.514092
0.498356
0.482752
0.467277
0.451924
0.43669
0.421569
0.406555
0.391642
0.376827
0.362101
0.34746
0.332895
0.318401
0.303969
0.28959
0.275256
0.260955
0.246677
0.232409
0.218135
0.203839
0.189503
0.175103
0.160612
0.145999
0.131226
0.116242
0.100987
0.085378
0.0692949
0.0526034
0.0351775
0.0173203
0.00367947
0.144483
0.35282
0.50336
0.631838
0.748539
0.857679
0.9613
1.0609
1.15745
1.25161
1.34366
1.43398
1.52278
1.61023
1.69646
1.78156
1.86555
1.94848
2.03032
2.11107
2.19068
2.26912
2.34633
2.42225
2.49681
2.56993
2.64152
2.7115
2.77975
2.84617
2.91061
2.9729
3.03281
3.09002
3.14411
3.19448
3.24039
3.28105
3.31587
3.34476
3.36823
3.38687
3.40136
3.41775
3.4305
3.43454
3.43705
3.46006
3.4732
3.46404
3.44972
3.4658
3.49907
3.52268
3.5349
3.53888
3.5363
3.52375
3.51557
3.51319
3.51548
3.52037
3.52243
3.51853
3.5168
3.50911
3.49802
3.48204
3.45566
3.3895
3.36644
3.35728
3.35085
3.34221
3.33112
3.31804
3.30441
3.29256
3.28467
3.28339
3.30024
3.35782
3.36262
3.34443
3.31742
3.28632
3.25279
3.21755
3.18104
3.14355
3.1053
3.06646
3.02715
2.98748
2.94756
2.90744
2.86719
2.82688
2.78656
2.74627
2.70606
2.66597
2.62604
2.5863
2.54677
2.5075
2.46851
2.42982
2.39146
2.35345
2.31579
2.27852
2.24165
2.20518
2.16913
2.13352
2.09834
2.0636
2.02931
1.99548
1.9621
1.92917
1.8967
1.86469
1.83313
1.80202
1.77135
1.74112
1.71133
1.68197
1.65302
1.6245
1.59637
1.56864
1.5413
1.51434
1.48775
1.46152
1.43563
1.41008
1.38486
1.35996
1.33536
1.31105
1.28704
1.26329
1.23981
1.21658
1.1936
1.17084
1.14831
1.12599
1.10388
1.08195
1.06022
1.03865
1.01725
0.996008
0.974912
0.953954
0.933127
0.912422
0.89183
0.871343
0.850953
0.830651
0.810428
0.790276
0.770186
0.750148
0.730154
0.710193
0.690254
0.670328
0.650401
0.630461
0.610494
0.590486
0.570419
0.550276
0.530036
0.509677
0.489173
0.468494
0.447607
0.426474
0.405049
0.383278
0.361096
0.338426
0.31517
0.291204
0.266368
0.240448
0.213143
0.184011
0.152352
0.116874
0.0741854
0.0171864
0.144511
0.352833
0.503363
0.631838
0.748539
0.857679
0.9613
1.0609
1.15745
1.25161
1.34366
1.43398
1.52278
1.61023
1.69646
1.78155
1.86555
1.94848
2.03032
2.11107
2.19068
2.26912
2.34633
2.42225
2.4968
2.56992
2.64152
2.71149
2.77975
2.84617
2.91062
2.97291
3.03283
3.09008
3.14423
3.19474
3.24089
3.28193
3.31705
3.34501
3.36186
3.35521
3.30673
3.31045
3.34506
3.41974
3.43747
3.43615
3.43787
3.44627
3.45744
3.46277
3.46022
3.47287
3.48934
3.49681
3.48862
3.43446
3.41777
3.41133
3.40754
3.40701
3.40766
3.40648
3.40497
3.40941
3.42954
3.48748
3.48352
3.44764
3.42803
3.43335
3.44957
3.45192
3.44263
3.42869
3.41476
3.40348
3.39584
3.39092
3.38715
3.38221
3.36747
3.34495
3.31729
3.2862
3.25273
3.21753
3.18103
3.14355
3.1053
3.06645
3.02714
2.98748
2.94755
2.90743
2.86719
2.82688
2.78656
2.74627
2.70606
2.66597
2.62603
2.58629
2.54677
2.5075
2.46851
2.42982
2.39146
2.35344
2.31579
2.27852
2.24164
2.20518
2.16913
2.13351
2.09833
2.0636
2.02931
1.99547
1.96209
1.92917
1.8967
1.86469
1.83313
1.80201
1.77135
1.74112
1.71133
1.68196
1.65302
1.62449
1.59637
1.56864
1.5413
1.51434
1.48775
1.46151
1.43563
1.41008
1.38486
1.35995
1.33535
1.31105
1.28703
1.26329
1.23981
1.21658
1.19359
1.17084
1.14831
1.12599
1.10388
1.08195
1.06021
1.03865
1.01725
0.996005
0.974909
0.953952
0.933125
0.91242
0.891828
0.871341
0.850951
0.830649
0.810426
0.790274
0.770184
0.750146
0.730152
0.710191
0.690253
0.670326
0.650399
0.630459
0.610493
0.590484
0.570418
0.550275
0.530035
0.509676
0.489171
0.468493
0.447606
0.426473
0.405048
0.383277
0.361095
0.338425
0.315169
0.291203
0.266368
0.240448
0.213143
0.184011
0.152352
0.116874
0.0741854
0.0171864
0.251766
0.508118
0.683643
0.830495
0.963473
1.0876
1.2055
1.31871
1.42819
1.53467
1.63862
1.74041
1.84028
1.93844
2.03502
2.13012
2.22381
2.3161
2.40702
2.49655
2.58467
2.67134
2.75652
2.84015
2.92217
3.00249
3.08105
3.15774
3.23248
3.30514
3.37561
3.44371
3.50926
3.57199
3.63157
3.68754
3.73941
3.78668
3.82904
3.86665
3.90017
3.93046
3.95832
3.98521
4.01039
4.03436
4.05964
4.07436
4.08984
4.10433
4.12204
4.13615
4.1449
4.15534
4.164
4.17072
4.17361
4.17377
4.1735
4.17363
4.17422
4.17472
4.17403
4.17175
4.16667
4.16058
4.15265
4.14598
4.12324
4.0981
4.07947
4.06319
4.04655
4.02919
4.01098
3.99196
3.97264
3.95384
3.93609
3.91967
3.90619
3.89629
3.87613
3.84834
3.81601
3.78076
3.74339
3.70442
3.66417
3.6229
3.58082
3.53809
3.49485
3.45119
3.40723
3.36302
3.31866
3.27419
3.22967
3.18517
3.14072
3.09636
3.05215
3.00812
2.9643
2.92073
2.87744
2.83445
2.79179
2.74948
2.70755
2.66601
2.62488
2.58417
2.5439
2.50409
2.46473
2.42584
2.38742
2.34948
2.31202
2.27505
2.23855
2.20255
2.16702
2.13198
2.09741
2.06331
2.02967
1.9965
1.96377
1.93149
1.89964
1.86822
1.83721
1.80661
1.7764
1.74658
1.71713
1.68804
1.65931
1.63091
1.60283
1.57507
1.54762
1.52045
1.49357
1.46695
1.44058
1.41446
1.38857
1.36291
1.33745
1.31219
1.28712
1.26223
1.2375
1.21293
1.18851
1.16422
1.14005
1.11601
1.09207
1.06822
1.04446
1.02077
0.997156
0.973591
0.950071
0.926584
0.903118
0.879663
0.856204
0.832728
0.809222
0.785669
0.762054
0.738358
0.71456
0.69064
0.666572
0.64233
0.617881
0.593193
0.568223
0.542925
0.517247
0.491122
0.464476
0.437215
0.409226
0.380365
0.350448
0.319229
0.286365
0.251346
0.213315
0.170459
0.117107
0.0347759
0.251779
0.508124
0.683644
0.830495
0.963472
1.0876
1.2055
1.31871
1.42819
1.53467
1.63862
1.7404
1.84028
1.93844
2.03502
2.13012
2.2238
2.3161
2.40702
2.49655
2.58467
2.67134
2.75652
2.84015
2.92216
3.00249
3.08104
3.15774
3.23247
3.30514
3.37561
3.44372
3.50928
3.57203
3.63166
3.68773
3.73978
3.78734
3.83008
3.86786
3.90016
3.92496
3.94201
3.96528
3.99389
4.02666
4.05031
4.06829
4.08433
4.1003
4.11595
4.12964
4.1456
4.15622
4.16125
4.17187
4.16671
4.15751
4.15391
4.15229
4.15099
4.14989
4.14844
4.14581
4.14188
4.13765
4.13569
4.13727
4.12844
4.1152
4.09956
4.08448
4.06693
4.0494
4.03054
4.01079
3.99125
3.97276
3.95551
3.93876
3.92132
3.90163
3.87724
3.84835
3.81588
3.78067
3.74335
3.7044
3.66416
3.62289
3.58082
3.53809
3.49484
3.45119
3.40722
3.36302
3.31865
3.27418
3.22967
3.18516
3.14071
3.09636
3.05215
3.00812
2.9643
2.92073
2.87743
2.83444
2.79178
2.74947
2.70754
2.666
2.62487
2.58417
2.5439
2.50408
2.46472
2.42583
2.38741
2.34947
2.31202
2.27504
2.23855
2.20254
2.16702
2.13197
2.0974
2.0633
2.02967
1.99649
1.96377
1.93149
1.89964
1.86821
1.83721
1.80661
1.7764
1.74658
1.71713
1.68804
1.6593
1.6309
1.60283
1.57507
1.54761
1.52045
1.49356
1.46694
1.44058
1.41446
1.38857
1.3629
1.33745
1.31219
1.28712
1.26222
1.2375
1.21293
1.1885
1.16421
1.14005
1.116
1.09206
1.06822
1.04446
1.02077
0.997153
0.973589
0.950069
0.926582
0.903116
0.879661
0.856202
0.832726
0.80922
0.785668
0.762052
0.738356
0.714559
0.690638
0.666571
0.642328
0.61788
0.593191
0.568221
0.542924
0.517245
0.491121
0.464475
0.437214
0.409225
0.380364
0.350447
0.319228
0.286365
0.251346
0.213315
0.170459
0.117107
0.0347759
0.352515
0.644008
0.838287
0.998306
1.14259
1.27728
1.40539
1.52861
1.64796
1.76411
1.87757
1.98867
2.09766
2.20475
2.31005
2.41366
2.51564
2.61603
2.71483
2.81203
2.90761
3.00154
3.09377
3.18424
3.27289
3.35965
3.44443
3.52715
3.60771
3.68601
3.76192
3.8353
3.90599
3.97377
4.0384
4.09959
4.15701
4.21041
4.25967
4.30498
4.34674
4.38549
4.42162
4.45555
4.4873
4.51724
4.54605
4.56918
4.59069
4.61106
4.63138
4.6481
4.66079
4.67268
4.68295
4.69141
4.69761
4.70196
4.70454
4.70549
4.7049
4.70275
4.69915
4.69401
4.68654
4.67734
4.66612
4.65439
4.63683
4.61773
4.59833
4.57816
4.55682
4.53451
4.51129
4.48728
4.46266
4.43754
4.4119
4.38564
4.35882
4.33096
4.29972
4.26519
4.22795
4.18855
4.14736
4.1047
4.06082
4.01593
3.97021
3.92381
3.87687
3.82948
3.78174
3.73373
3.68554
3.63722
3.58883
3.54043
3.49208
3.44381
3.39568
3.34773
3.29999
3.2525
3.20529
3.1584
3.11185
3.06566
3.01987
2.97449
2.92954
2.88503
2.84099
2.79742
2.75434
2.71175
2.66967
2.6281
2.58703
2.54649
2.50646
2.46694
2.42794
2.38946
2.35148
2.31401
2.27703
2.24055
2.20455
2.16903
2.13397
2.09937
2.06522
2.0315
1.99821
1.96533
1.93285
1.90076
1.86904
1.83769
1.80669
1.77603
1.74569
1.71567
1.68594
1.6565
1.62733
1.59843
1.56977
1.54135
1.51314
1.48516
1.45736
1.42976
1.40233
1.37507
1.34795
1.32098
1.29414
1.26742
1.2408
1.21428
1.18785
1.16149
1.13519
1.10894
1.08273
1.05655
1.03039
1.00422
0.978044
0.951838
0.925589
0.899281
0.872894
0.84641
0.819806
0.793059
0.766144
0.739029
0.711683
0.684068
0.656141
0.627853
0.599148
0.569957
0.540202
0.509786
0.478591
0.446469
0.413229
0.378616
0.342266
0.303609
0.261611
0.21391
0.152916
0.0519309
0.352517
0.64401
0.838287
0.998305
1.14259
1.27727
1.40539
1.52861
1.64795
1.76411
1.87756
1.98866
2.09766
2.20475
2.31005
2.41366
2.51564
2.61603
2.71482
2.81203
2.90761
3.00154
3.09377
3.18424
3.27289
3.35965
3.44443
3.52715
3.60771
3.68601
3.76192
3.83531
3.906
3.9738
4.03846
4.09971
4.15724
4.2108
4.2603
4.30582
4.34748
4.38515
4.41932
4.45233
4.48458
4.5158
4.54432
4.56992
4.5927
4.61304
4.63101
4.64673
4.6624
4.67485
4.68368
4.69292
4.69642
4.69807
4.69935
4.69975
4.69893
4.6967
4.69299
4.68777
4.6808
4.67208
4.66221
4.65142
4.63809
4.62313
4.60521
4.58465
4.56154
4.53817
4.51439
4.49005
4.4653
4.44028
4.41488
4.38872
4.36126
4.33189
4.29987
4.26511
4.22787
4.1885
4.14734
4.10469
4.06081
4.01592
3.9702
3.92381
3.87686
3.82947
3.78173
3.73373
3.68553
3.63721
3.58882
3.54043
3.49207
3.44381
3.39568
3.34772
3.29998
3.25249
3.20529
3.15839
3.11184
3.06566
3.01987
2.97448
2.92953
2.88503
2.84098
2.79742
2.75434
2.71175
2.66967
2.62809
2.58703
2.54648
2.50645
2.46694
2.42794
2.38945
2.35148
2.314
2.27703
2.24054
2.20455
2.16902
2.13397
2.09937
2.06521
2.03149
1.9982
1.96532
1.93284
1.90075
1.86904
1.83769
1.80669
1.77603
1.74569
1.71567
1.68594
1.6565
1.62733
1.59843
1.56977
1.54134
1.51314
1.48515
1.45736
1.42976
1.40233
1.37506
1.34795
1.32098
1.29414
1.26741
1.2408
1.21428
1.18784
1.16148
1.13519
1.10894
1.08273
1.05655
1.03038
1.00422
0.978042
0.951836
0.925588
0.899279
0.872893
0.846408
0.819805
0.793058
0.766142
0.739028
0.711682
0.684067
0.65614
0.627852
0.599147
0.569957
0.540201
0.509785
0.47859
0.446468
0.413229
0.378616
0.342266
0.303608
0.261611
0.213911
0.152917
0.051931
0.448839
0.769329
0.980458
1.15205
1.30565
1.44888
1.58523
1.71654
1.8439
1.96801
2.08934
2.20823
2.32491
2.43955
2.55228
2.66317
2.77228
2.87962
2.98522
3.08905
3.19109
3.29129
3.38963
3.48602
3.58042
3.67275
3.76292
3.85086
3.93647
4.01965
4.10028
4.17824
4.25339
4.32558
4.39461
4.46031
4.52249
4.58101
4.63585
4.68712
4.73501
4.77975
4.82151
4.86047
4.89674
4.93053
4.96202
4.99025
5.01604
5.03968
5.06138
5.08035
5.09652
5.11062
5.12252
5.13218
5.13962
5.14497
5.14811
5.149
5.14767
5.14419
5.13874
5.13143
5.12199
5.11055
5.09704
5.08194
5.06415
5.04445
5.02314
5.00031
4.97601
4.95036
4.92345
4.89541
4.86631
4.8361
4.8047
4.77202
4.73802
4.70251
4.66503
4.6255
4.58405
4.54086
4.49614
4.45008
4.40287
4.35468
4.30567
4.25597
4.20569
4.15496
4.10385
4.05245
4.00084
3.94908
3.89725
3.84539
3.79356
3.74182
3.69021
3.63878
3.58756
3.53659
3.48592
3.43557
3.38557
3.33595
3.28674
3.23796
3.18963
3.14176
3.09438
3.0475
3.00113
2.95529
2.90997
2.86518
2.82094
2.77725
2.73409
2.69149
2.64943
2.60792
2.56694
2.5265
2.48659
2.44721
2.40833
2.36996
2.33209
2.29471
2.2578
2.22135
2.18536
2.14981
2.11468
2.07997
2.04566
2.01174
1.97819
1.945
1.91216
1.87965
1.84746
1.81557
1.78398
1.75266
1.72161
1.6908
1.66024
1.6299
1.59976
1.56983
1.54008
1.51051
1.4811
1.45183
1.4227
1.3937
1.36481
1.33602
1.30731
1.27869
1.25012
1.22161
1.19314
1.1647
1.13626
1.10783
1.07938
1.0509
1.02237
0.993771
0.965091
0.936307
0.907395
0.878332
0.84909
0.819639
0.789946
0.759973
0.729676
0.699005
0.667902
0.636301
0.604119
0.571262
0.537609
0.50301
0.467268
0.430113
0.391146
0.349709
0.304552
0.25274
0.185025
0.0685041
0.448839
0.769329
0.980457
1.15205
1.30565
1.44888
1.58522
1.71654
1.8439
1.96801
2.08934
2.20823
2.32491
2.43955
2.55228
2.66317
2.77227
2.87962
2.98522
3.08904
3.19108
3.29129
3.38962
3.48602
3.58042
3.67274
3.76292
3.85086
3.93647
4.01964
4.10028
4.17824
4.2534
4.32559
4.39465
4.46037
4.5226
4.5812
4.63614
4.68749
4.73539
4.77989
4.82125
4.86
4.89641
4.93054
4.96229
4.99145
5.01782
5.04137
5.06216
5.08044
5.09699
5.11115
5.12267
5.13239
5.13914
5.14371
5.1464
5.14717
5.14595
5.14264
5.13729
5.13
5.12074
5.10942
5.0962
5.0812
5.06439
5.04589
5.02516
5.00219
4.97726
4.95122
4.92416
4.89605
4.86691
4.83671
4.80535
4.77267
4.73851
4.70271
4.66505
4.62547
4.58402
4.54084
4.49613
4.45007
4.40286
4.35468
4.30566
4.25596
4.20569
4.15495
4.10384
4.05245
4.00084
3.94908
3.89724
3.84539
3.79356
3.74182
3.69021
3.63877
3.58755
3.53659
3.48591
3.43556
3.38557
3.33595
3.28674
3.23796
3.18962
3.14176
3.09438
3.0475
3.00113
2.95528
2.90996
2.86518
2.82094
2.77724
2.73409
2.69149
2.64943
2.60792
2.56694
2.5265
2.48659
2.4472
2.40833
2.36996
2.33209
2.2947
2.25779
2.22135
2.18536
2.1498
2.11468
2.07997
2.04566
2.01173
1.97819
1.945
1.91216
1.87965
1.84746
1.81557
1.78398
1.75266
1.7216
1.6908
1.66024
1.62989
1.59976
1.56983
1.54008
1.51051
1.4811
1.45183
1.4227
1.3937
1.36481
1.33601
1.30731
1.27869
1.25012
1.22161
1.19314
1.1647
1.13626
1.10783
1.07938
1.0509
1.02237
0.99377
0.96509
0.936305
0.907394
0.87833
0.849089
0.819638
0.789945
0.759972
0.729675
0.699004
0.667901
0.6363
0.604119
0.571261
0.537608
0.503009
0.467268
0.430113
0.391146
0.349709
0.304552
0.25274
0.185025
0.0685043
0.542651
0.887675
1.1145
1.29716
1.45952
1.61051
1.75415
1.89254
2.02687
2.15788
2.28605
2.41171
2.53508
2.65633
2.77554
2.89281
3.00815
3.1216
3.23315
3.34278
3.45046
3.55615
3.65981
3.76137
3.86076
3.95792
4.05277
4.14522
4.23518
4.32257
4.40727
4.48917
4.56817
4.64412
4.71692
4.78641
4.8525
4.91511
4.97425
5.02994
5.08228
5.13133
5.17717
5.21991
5.25967
5.29656
5.33072
5.36201
5.39059
5.41654
5.4399
5.46057
5.47856
5.49404
5.50697
5.51736
5.52527
5.53078
5.53382
5.53438
5.53248
5.52818
5.5216
5.51284
5.50188
5.48874
5.47347
5.4562
5.43677
5.41532
5.39196
5.36686
5.34007
5.31168
5.28177
5.25042
5.21768
5.1835
5.14785
5.1107
5.07205
5.03187
4.99007
4.94663
4.90161
4.85509
4.8072
4.75808
4.70788
4.65673
4.60477
4.55212
4.49888
4.44517
4.39106
4.33665
4.28201
4.22721
4.17231
4.11738
4.06248
4.00765
3.95295
3.89842
3.84411
3.79006
3.7363
3.68287
3.62981
3.57713
3.52488
3.47307
3.42172
3.37086
3.3205
3.27067
3.22136
3.17259
3.12438
3.07673
3.02964
2.98312
2.93718
2.89181
2.84701
2.80277
2.75911
2.71601
2.67346
2.63146
2.59001
2.54908
2.50868
2.46879
2.4294
2.3905
2.35208
2.31412
2.27662
2.23955
2.2029
2.16666
2.13082
2.09536
2.06027
2.02553
1.99112
1.95704
1.92326
1.88978
1.85658
1.82364
1.79095
1.7585
1.72628
1.69426
1.66244
1.6308
1.59933
1.56802
1.53685
1.50581
1.4749
1.44408
1.41336
1.38272
1.35215
1.32164
1.29116
1.26071
1.23028
1.19984
1.16939
1.13891
1.10838
1.07778
1.0471
1.0163
0.985385
0.954311
0.923056
0.891589
0.859878
0.827883
0.795562
0.762864
0.729732
0.696098
0.661882
0.626986
0.591289
0.554634
0.516813
0.477532
0.43634
0.392471
0.344438
0.288768
0.214797
0.0846538
0.542651
0.887675
1.1145
1.29716
1.45952
1.61051
1.75415
1.89254
2.02686
2.15787
2.28605
2.41171
2.53508
2.65632
2.77554
2.8928
3.00815
3.1216
3.23315
3.34278
3.45046
3.55615
3.65981
3.76136
3.86076
3.95792
4.05276
4.14521
4.23518
4.32256
4.40726
4.48917
4.56817
4.64413
4.71693
4.78644
4.85255
4.91519
4.97435
5.03006
5.08237
5.13135
5.1771
5.2198
5.25961
5.29665
5.33097
5.36257
5.39134
5.41725
5.44032
5.46069
5.47863
5.49406
5.50691
5.51729
5.52506
5.53036
5.53327
5.53382
5.532
5.52781
5.5213
5.51256
5.50164
5.48853
5.47329
5.45601
5.43677
5.41562
5.39247
5.36736
5.34045
5.31201
5.28211
5.25079
5.21805
5.18386
5.14819
5.11099
5.07226
5.03197
4.9901
4.94664
4.9016
4.85508
4.8072
4.75808
4.70788
4.65673
4.60477
4.55211
4.49888
4.44516
4.39106
4.33665
4.28201
4.2272
4.17231
4.11738
4.06247
4.00765
3.95294
3.89842
3.84411
3.79005
3.7363
3.68287
3.6298
3.57713
3.52488
3.47307
3.42172
3.37086
3.3205
3.27066
3.22135
3.17259
3.12438
3.07673
3.02964
2.98312
2.93718
2.8918
2.847
2.80277
2.75911
2.716
2.67346
2.63146
2.59
2.54908
2.50868
2.46879
2.4294
2.3905
2.35208
2.31412
2.27661
2.23954
2.2029
2.16666
2.13082
2.09536
2.06027
2.02552
1.99112
1.95704
1.92326
1.88978
1.85658
1.82364
1.79095
1.7585
1.72627
1.69426
1.66244
1.6308
1.59933
1.56802
1.53685
1.50581
1.47489
1.44408
1.41336
1.38272
1.35215
1.32163
1.29116
1.26071
1.23028
1.19984
1.16939
1.13891
1.10838
1.07778
1.04709
1.0163
0.985384
0.95431
0.923055
0.891589
0.859877
0.827882
0.795561
0.762863
0.729731
0.696098
0.661882
0.626986
0.591288
0.554633
0.516813
0.477532
0.43634
0.392471
0.344439
0.288768
0.214797
0.084654
0.634405
1.00092
1.24286
1.43635
1.60735
1.76583
1.91636
2.0613
2.20201
2.33928
2.47363
2.60539
2.73478
2.86195
2.98698
3.10995
3.23087
3.34976
3.46661
3.58139
3.69408
3.80462
3.91296
4.01905
4.12282
4.2242
4.32311
4.41948
4.51321
4.60422
4.69242
4.77771
4.85999
4.93915
5.01511
5.08776
5.15704
5.22289
5.28531
5.3443
5.39991
5.45215
5.50106
5.5467
5.58917
5.62855
5.66495
5.69838
5.72889
5.75651
5.78126
5.80315
5.82223
5.83853
5.85207
5.86286
5.87095
5.87638
5.87917
5.87932
5.87687
5.87187
5.86439
5.85452
5.84229
5.82776
5.81096
5.79198
5.77083
5.74759
5.72232
5.69516
5.66616
5.63539
5.60291
5.56879
5.53307
5.49574
5.45682
5.41631
5.37424
5.33065
5.28553
5.23893
5.19088
5.14147
5.09079
5.03896
4.98609
4.93231
4.87772
4.82244
4.76658
4.71022
4.65345
4.59637
4.53903
4.48153
4.42391
4.36625
4.30861
4.25103
4.19358
4.13629
4.07923
4.02241
3.9659
3.90972
3.85391
3.79849
3.74351
3.68897
3.63492
3.58136
3.52832
3.47581
3.42385
3.37245
3.32162
3.27137
3.2217
3.17262
3.12414
3.07625
3.02895
2.98224
2.93613
2.89059
2.84564
2.80125
2.75743
2.71417
2.67145
2.62926
2.5876
2.54645
2.50579
2.46562
2.42593
2.38669
2.34789
2.30953
2.27157
2.23402
2.19685
2.16005
2.1236
2.08749
2.05171
2.01623
1.98105
1.94614
1.9115
1.8771
1.84295
1.80901
1.77528
1.74174
1.70837
1.67518
1.64214
1.60923
1.57645
1.54378
1.51121
1.47873
1.44631
1.41396
1.38165
1.34937
1.31711
1.28485
1.25257
1.22027
1.18792
1.1555
1.123
1.09039
1.05766
1.02477
0.9917
0.958423
0.924902
0.891099
0.856973
0.822472
0.787539
0.752106
0.716092
0.679396
0.641892
0.603415
0.563739
0.522535
0.479292
0.433124
0.382313
0.322893
0.242981
0.100549
0.634405
1.00092
1.24286
1.43635
1.60735
1.76583
1.91635
2.0613
2.20201
2.33928
2.47363
2.60539
2.73478
2.86194
2.98698
3.10995
3.23087
3.34976
3.46661
3.58139
3.69407
3.80461
3.91296
4.01905
4.12282
4.2242
4.32311
4.41948
4.51321
4.60422
4.69242
4.77771
4.85999
4.93915
5.01511
5.08777
5.15705
5.22291
5.28533
5.34432
5.39991
5.45211
5.50098
5.54662
5.58912
5.62856
5.66502
5.69854
5.72911
5.75671
5.78138
5.80318
5.82221
5.83849
5.85201
5.8628
5.87087
5.87626
5.87901
5.87917
5.87675
5.8718
5.86435
5.85448
5.84225
5.82771
5.81091
5.79192
5.7708
5.74763
5.72243
5.69528
5.66628
5.63554
5.6031
5.56902
5.53331
5.49598
5.45703
5.41649
5.37437
5.33072
5.28556
5.23894
5.19088
5.14147
5.09079
5.03896
4.98609
4.9323
4.87772
4.82244
4.76657
4.71021
4.65345
4.59636
4.53903
4.48152
4.42391
4.36625
4.3086
4.25103
4.19357
4.13629
4.07922
4.02241
3.9659
3.90972
3.8539
3.79849
3.7435
3.68897
3.63492
3.58136
3.52832
3.47581
3.42385
3.37245
3.32162
3.27136
3.2217
3.17262
3.12414
3.07624
3.02895
2.98224
2.93612
2.89059
2.84563
2.80125
2.75743
2.71417
2.67145
2.62926
2.5876
2.54644
2.50579
2.46562
2.42593
2.38669
2.34789
2.30952
2.27157
2.23402
2.19685
2.16005
2.1236
2.08749
2.05171
2.01623
1.98104
1.94614
1.9115
1.8771
1.84294
1.80901
1.77527
1.74173
1.70837
1.67518
1.64213
1.60923
1.57645
1.54378
1.51121
1.47873
1.44631
1.41396
1.38165
1.34937
1.31711
1.28485
1.25257
1.22027
1.18792
1.1555
1.123
1.09039
1.05765
1.02477
0.991699
0.958422
0.924901
0.891099
0.856972
0.822471
0.787538
0.752106
0.716092
0.679396
0.641892
0.603415
0.563739
0.522535
0.479292
0.433124
0.382314
0.322894
0.242982
0.100549
0.724537
1.11049
1.36701
1.57124
1.75088
1.9168
2.07407
2.22534
2.37211
2.51527
2.65538
2.79279
2.92773
3.06033
3.19069
3.31886
3.44485
3.56867
3.69031
3.80973
3.9269
4.04177
4.15429
4.26439
4.37202
4.4771
4.57957
4.67933
4.77633
4.87047
4.96167
5.04984
5.13491
5.21678
5.29538
5.37063
5.44249
5.5109
5.57587
5.63738
5.69544
5.75007
5.80129
5.84914
5.89368
5.93498
5.9731
6.00809
6.03998
6.06879
6.09455
6.11729
6.13703
6.15383
6.16769
6.17864
6.18672
6.19198
6.19444
6.19413
6.19111
6.18542
6.17711
6.16626
6.15293
6.13716
6.11901
6.09857
6.07587
6.05099
6.024
5.99499
5.96402
5.93117
5.89648
5.86001
5.82182
5.78193
5.74037
5.69718
5.6524
5.60609
5.55829
5.50906
5.45845
5.40655
5.35344
5.29922
5.244
5.18788
5.13097
5.07336
5.01516
4.95645
4.89733
4.83787
4.77814
4.71823
4.6582
4.59811
4.53803
4.478
4.41809
4.35834
4.2988
4.23952
4.18053
4.12188
4.06359
4.00571
3.94826
3.89126
3.83475
3.77875
3.72327
3.66833
3.61396
3.56015
3.50693
3.4543
3.40227
3.35085
3.30003
3.24982
3.20023
3.15124
3.10286
3.05508
3.00789
2.9613
2.91529
2.86985
2.82497
2.78065
2.73687
2.69362
2.65088
2.60865
2.5669
2.52564
2.48483
2.44447
2.40453
2.36502
2.3259
2.28717
2.2488
2.21079
2.17312
2.13576
2.09871
2.06196
2.02547
1.98925
1.95328
1.91753
1.882
1.84668
1.81154
1.77657
1.74176
1.7071
1.67257
1.63816
1.60385
1.56963
1.53549
1.50141
1.46738
1.43339
1.39942
1.36545
1.33147
1.29746
1.26341
1.2293
1.1951
1.16081
1.12638
1.09181
1.05707
1.02211
0.98692
0.951449
0.915659
0.879498
0.842909
0.805822
0.768154
0.729799
0.690624
0.650451
0.609031
0.565997
0.520768
0.472341
0.418778
0.355667
0.270052
0.116316
0.724538
1.11049
1.36701
1.57124
1.75088
1.9168
2.07407
2.22534
2.3721
2.51527
2.65538
2.79279
2.92773
3.06033
3.19069
3.31886
3.44485
3.56867
3.69031
3.80973
3.9269
4.04177
4.15428
4.26439
4.37202
4.4771
4.57956
4.67933
4.77633
4.87047
4.96167
5.04984
5.13491
5.21678
5.29538
5.37063
5.44249
5.51091
5.57587
5.63737
5.69542
5.75003
5.80124
5.84909
5.89364
5.93496
5.9731
6.00811
6.04001
6.06882
6.09456
6.11727
6.13701
6.1538
6.16766
6.17861
6.1867
6.19194
6.19439
6.19409
6.19108
6.18541
6.17711
6.16626
6.15292
6.13714
6.119
6.09854
6.07585
6.05099
6.02402
5.99502
5.96407
5.93124
5.89657
5.86013
5.82195
5.78206
5.74048
5.69727
5.65247
5.60613
5.55831
5.50906
5.45845
5.40654
5.35343
5.29922
5.24399
5.18788
5.13096
5.07336
5.01516
4.95645
4.89733
4.83786
4.77814
4.71823
4.6582
4.59811
4.53802
4.478
4.41809
4.35834
4.2988
4.23952
4.18053
4.12188
4.06359
4.00571
3.94825
3.89126
3.83475
3.77874
3.72327
3.66833
3.61395
3.56015
3.50693
3.4543
3.40227
3.35085
3.30003
3.24982
3.20023
3.15124
3.10286
3.05508
3.00789
2.9613
2.91529
2.86985
2.82497
2.78065
2.73687
2.69361
2.65088
2.60865
2.5669
2.52563
2.48483
2.44446
2.40453
2.36502
2.3259
2.28717
2.2488
2.21079
2.17311
2.13576
2.09871
2.06196
2.02547
1.98925
1.95328
1.91753
1.882
1.84667
1.81153
1.77657
1.74176
1.7071
1.67257
1.63816
1.60385
1.56963
1.53549
1.50141
1.46738
1.43339
1.39942
1.36545
1.33147
1.29746
1.26341
1.2293
1.1951
1.16081
1.12638
1.09181
1.05707
1.02211
0.986919
0.951449
0.915658
0.879498
0.842908
0.805822
0.768153
0.729799
0.690624
0.650451
0.609031
0.565997
0.520768
0.472341
0.418778
0.355668
0.270053
0.116317
0.813592
1.2174
1.48794
1.70288
1.89123
2.06465
2.22864
2.38614
2.53881
2.68765
2.83327
2.97603
3.11619
3.25389
3.3892
3.52219
3.65286
3.78121
3.90723
4.03087
4.1521
4.27087
4.38713
4.50081
4.61186
4.72021
4.82579
4.92852
5.02834
5.12517
5.21893
5.30956
5.39697
5.48109
5.56187
5.63925
5.71317
5.78361
5.85054
5.91397
5.9739
6.03032
6.08325
6.13274
6.1788
6.2215
6.26088
6.29697
6.32981
6.35943
6.38585
6.40911
6.42924
6.44627
6.46024
6.47117
6.4791
6.48408
6.48615
6.48534
6.48172
6.47533
6.46623
6.45447
6.44012
6.42324
6.4039
6.38215
6.35808
6.33174
6.30321
6.27256
6.23987
6.2052
6.1686
6.13013
6.08986
6.04783
6.00408
5.95868
5.91167
5.86312
5.81308
5.76164
5.70885
5.6548
5.59958
5.54328
5.486
5.42782
5.36886
5.3092
5.24893
5.18815
5.12694
5.06537
5.00353
4.94149
4.87931
4.81706
4.7548
4.69259
4.63048
4.56852
4.50677
4.44527
4.38405
4.32317
4.26265
4.20253
4.14284
4.08361
4.02487
3.96664
3.90893
3.85178
3.79519
3.73918
3.68376
3.62894
3.57473
3.52114
3.46816
3.41581
3.36407
3.31296
3.26247
3.2126
3.16333
3.11467
3.0666
3.01912
2.97222
2.92589
2.88011
2.83488
2.79018
2.74599
2.70231
2.65912
2.61641
2.57415
2.53234
2.49096
2.44999
2.40942
2.36922
2.3294
2.28992
2.25078
2.21195
2.17343
2.13519
2.09723
2.05951
2.02204
1.98479
1.94776
1.91092
1.87426
1.83776
1.80142
1.76522
1.72914
1.69317
1.6573
1.62151
1.58579
1.55012
1.51449
1.47888
1.44328
1.40768
1.37205
1.33639
1.30066
1.26486
1.22895
1.19293
1.15676
1.12042
1.08388
1.04711
1.01006
0.972695
0.934965
0.896809
0.858155
0.818917
0.778982
0.738208
0.696399
0.653281
0.608446
0.561243
0.510554
0.454234
0.387469
0.296335
0.132051
0.813593
1.2174
1.48793
1.70288
1.89123
2.06464
2.22863
2.38614
2.53881
2.68765
2.83327
2.97603
3.11619
3.25388
3.3892
3.52219
3.65286
3.78121
3.90722
4.03086
4.1521
4.27087
4.38712
4.50081
4.61186
4.72021
4.82578
4.92852
5.02834
5.12516
5.21893
5.30955
5.39696
5.48109
5.56187
5.63925
5.71317
5.7836
5.85054
5.91396
5.97388
6.03029
6.08322
6.1327
6.17877
6.22148
6.26086
6.29695
6.3298
6.35942
6.38584
6.40909
6.42922
6.44626
6.46022
6.47116
6.47909
6.48407
6.48613
6.48533
6.48171
6.47533
6.46622
6.45446
6.44011
6.42323
6.40388
6.38214
6.35807
6.33173
6.30321
6.27257
6.23989
6.20522
6.16864
6.13018
6.08992
6.04788
6.00413
5.95872
5.9117
5.86313
5.81309
5.76164
5.70885
5.6548
5.59958
5.54328
5.48599
5.42782
5.36885
5.30919
5.24893
5.18815
5.12693
5.06537
5.00353
4.94148
4.8793
4.81705
4.75479
4.69258
4.63047
4.56852
4.50677
4.44526
4.38405
4.32317
4.26265
4.20253
4.14284
4.08361
4.02487
3.96664
3.90893
3.85178
3.79519
3.73918
3.68376
3.62894
3.57473
3.52113
3.46816
3.4158
3.36407
3.31296
3.26247
3.21259
3.16333
3.11467
3.0666
3.01912
2.97222
2.92589
2.88011
2.83488
2.79017
2.74599
2.70231
2.65912
2.6164
2.57415
2.53234
2.49096
2.44999
2.40941
2.36922
2.3294
2.28992
2.25078
2.21195
2.17343
2.13519
2.09722
2.05951
2.02204
1.98479
1.94776
1.91092
1.87426
1.83776
1.80142
1.76522
1.72914
1.69317
1.6573
1.62151
1.58579
1.55012
1.51449
1.47888
1.44328
1.40768
1.37205
1.33638
1.30066
1.26485
1.22895
1.19293
1.15676
1.12042
1.08388
1.04711
1.01006
0.972695
0.934965
0.896809
0.858155
0.818917
0.778982
0.738208
0.696399
0.653281
0.608446
0.561243
0.510554
0.454235
0.38747
0.296336
0.132051
0.902005
1.32233
1.60645
1.83207
2.02921
2.21019
2.38095
2.54468
2.7032
2.8576
3.00856
3.15649
3.30164
3.44417
3.58417
3.72169
3.85673
3.98929
4.11935
4.24687
4.37181
4.49413
4.61376
4.73066
4.84475
4.95599
5.0643
5.16961
5.27187
5.371
5.46694