/*--------------------------------*- C++ -*----------------------------------*\
  =========                 |
  \\      /  F ield         | OpenFOAM: The Open Source CFD Toolbox
   \\    /   O peration     | Website:  https://openfoam.org
    \\  /    A nd           | Version:  8
     \\/     M anipulation  |
\*---------------------------------------------------------------------------*/
FoamFile
{
    version     2.0;
    format      ascii;
    class       volScalarField;
    location    "4900";
    object      nut;
}
// * * * * * * * * * * * * * * * * * * * * * * * * * * * * * * * * * * * * * //

dimensions      [0 2 -1 0 0 0 0];

internalField   nonuniform List<scalar> 
46000
(
3.13057e-06
1.08393e-05
1.86034e-05
2.57153e-05
3.24007e-05
3.88475e-05
4.51303e-05
5.12767e-05
5.73215e-05
6.3291e-05
6.92072e-05
7.50761e-05
8.08732e-05
8.66204e-05
9.23235e-05
9.79837e-05
0.0001036
0.000109171
0.000114692
0.00012016
0.00012557
0.000130917
0.000136196
0.000141399
0.000146521
0.000151556
0.000156494
0.000161329
0.000166052
0.000170653
0.00017512
0.000179438
0.000183587
0.00018754
0.000191261
0.000194704
0.000197819
0.000200561
0.000202906
0.000204826
0.000206173
0.000206426
0.000204778
0.000204468
0.000203726
0.000201842
0.000199674
0.000204823
0.000205786
0.00020035
0.000190117
0.000195419
0.000205915
0.000211884
0.000214434
0.000214809
0.000214139
0.000212211
0.000211393
0.000211096
0.000211
0.000210539
0.000209886
0.000211163
0.000208781
0.00020812
0.000201458
0.000197081
0.00018868
3.36035e-05
3.21447e-05
3.20175e-05
3.21192e-05
3.21634e-05
3.20931e-05
3.20054e-05
3.19422e-05
3.18815e-05
3.18307e-05
3.2089e-05
3.40424e-05
0.000195294
0.000204278
0.000204575
0.000203001
0.000200905
0.00019859
0.000196146
0.000193611
0.000191008
0.000188353
0.000185659
0.000182936
0.00018019
0.000177429
0.000174658
0.000171881
0.000169104
0.000166328
0.000163559
0.000160798
0.000158049
0.000155315
0.000152597
0.000149898
0.00014722
0.000144564
0.000141933
0.000139328
0.000136751
0.000134201
0.000131682
0.000129193
0.000126736
0.000124311
0.000121918
0.000119559
0.000117233
0.000114942
0.000112684
0.000110461
0.000108272
0.000106117
0.000103996
0.000101909
9.98556e-05
9.78353e-05
9.58479e-05
9.38929e-05
9.19699e-05
9.00782e-05
8.82174e-05
8.63869e-05
8.4586e-05
8.28141e-05
8.10706e-05
7.93548e-05
7.76659e-05
7.60033e-05
7.43663e-05
7.27542e-05
7.11662e-05
6.96017e-05
6.806e-05
6.65403e-05
6.50419e-05
6.35643e-05
6.21067e-05
6.06684e-05
5.92489e-05
5.78475e-05
5.64636e-05
5.50966e-05
5.37459e-05
5.24111e-05
5.10915e-05
4.97867e-05
4.84961e-05
4.72192e-05
4.59557e-05
4.4705e-05
4.34667e-05
4.22404e-05
4.10256e-05
3.9822e-05
3.86292e-05
3.74468e-05
3.62744e-05
3.51116e-05
3.39581e-05
3.28134e-05
3.16772e-05
3.05491e-05
2.94286e-05
2.83154e-05
2.72089e-05
2.61088e-05
2.50144e-05
2.39253e-05
2.28409e-05
2.17605e-05
2.06834e-05
1.96088e-05
1.8536e-05
1.74638e-05
1.63913e-05
1.53171e-05
1.42398e-05
1.31578e-05
1.20689e-05
1.09709e-05
9.8608e-06
8.73491e-06
7.58859e-06
6.41567e-06
5.20711e-06
3.95288e-06
2.64344e-06
1.30162e-06
2.62723e-07
3.12799e-06
1.08348e-05
1.85997e-05
2.57138e-05
3.24004e-05
3.88476e-05
4.51304e-05
5.12768e-05
5.73216e-05
6.32911e-05
6.92072e-05
7.50761e-05
8.08732e-05
8.66204e-05
9.23234e-05
9.79836e-05
0.0001036
0.000109171
0.000114692
0.00012016
0.00012557
0.000130917
0.000136195
0.000141399
0.000146521
0.000151555
0.000156494
0.000161329
0.000166052
0.000170653
0.00017512
0.000179439
0.00018359
0.000187546
0.000191272
0.000194725
0.000197853
0.000200594
0.000202833
0.000204145
0.000202718
0.000191074
3.34954e-05
3.24026e-05
3.42762e-05
0.000196306
0.000205235
0.000209397
0.000210187
0.000209108
0.000205381
0.000197493
0.000189133
0.000193398
0.000198802
0.000198195
0.00019155
3.41906e-05
3.29434e-05
3.28456e-05
3.29474e-05
3.2942e-05
3.28296e-05
3.28306e-05
3.2985e-05
3.32024e-05
3.50984e-05
0.000197585
0.000203311
0.000205358
0.000204682
0.000205543
0.000203279
0.000205701
0.000206267
0.00020585
0.000205181
0.000204578
0.000204124
0.000203935
0.000204451
0.00020643
0.000206203
0.000204877
0.000203032
0.0002009
0.000198586
0.000196144
0.00019361
0.000191007
0.000188353
0.000185659
0.000182935
0.00018019
0.000177429
0.000174658
0.000171881
0.000169103
0.000166328
0.000163558
0.000160798
0.000158049
0.000155314
0.000152596
0.000149897
0.000147219
0.000144564
0.000141933
0.000139328
0.00013675
0.000134201
0.000131682
0.000129193
0.000126736
0.00012431
0.000121918
0.000119559
0.000117233
0.000114941
0.000112684
0.000110461
0.000108272
0.000106117
0.000103996
0.000101909
9.98554e-05
9.78351e-05
9.58477e-05
9.38927e-05
9.19697e-05
9.0078e-05
8.82172e-05
8.63867e-05
8.45858e-05
8.2814e-05
8.10705e-05
7.93546e-05
7.76657e-05
7.60032e-05
7.43662e-05
7.27541e-05
7.11661e-05
6.96016e-05
6.80598e-05
6.65401e-05
6.50418e-05
6.35641e-05
6.21065e-05
6.06683e-05
5.92488e-05
5.78473e-05
5.64634e-05
5.50965e-05
5.37458e-05
5.2411e-05
5.10914e-05
4.97866e-05
4.8496e-05
4.72191e-05
4.59556e-05
4.47049e-05
4.34666e-05
4.22403e-05
4.10255e-05
3.9822e-05
3.86292e-05
3.74467e-05
3.62743e-05
3.51116e-05
3.3958e-05
3.28134e-05
3.16771e-05
3.0549e-05
2.94285e-05
2.83153e-05
2.72088e-05
2.61087e-05
2.50143e-05
2.39252e-05
2.28408e-05
2.17604e-05
2.06833e-05
1.96088e-05
1.85359e-05
1.74638e-05
1.63913e-05
1.53171e-05
1.42398e-05
1.31578e-05
1.20689e-05
1.09709e-05
9.86078e-06
8.73489e-06
7.58858e-06
6.41566e-06
5.2071e-06
3.95288e-06
2.64343e-06
1.30162e-06
2.62723e-07
9.97783e-06
7.06882e-05
0.000116463
0.000148521
0.000173545
0.000194423
0.000212518
0.000228796
0.000243782
0.000257799
0.000271044
0.000283675
0.000295807
0.000307507
0.000318826
0.000329804
0.000340471
0.00035085
0.000360957
0.000370807
0.00038041
0.000389771
0.000398896
0.000407787
0.000416446
0.000424874
0.000433067
0.000441025
0.000448743
0.000456215
0.000463433
0.000470385
0.000477054
0.000483411
0.000489417
0.000495016
0.00050014
0.000504704
0.000508591
0.000511509
0.000512494
0.000508758
0.000496181
0.00049437
0.000492875
0.000485908
0.000451476
0.000489587
0.000498499
0.000477301
0.000427704
0.000432163
0.000482752
0.00050643
0.00051742
0.000518131
0.000515965
0.000503842
0.000500914
0.000500055
0.000499915
0.000499601
0.000498424
0.000496731
0.000495016
0.000489467
0.000474235
0.000441348
0.000425059
0.000283618
0.00026654
0.000263618
0.000263591
0.000263765
0.000263454
0.00026291
0.000262326
0.000261758
0.000261771
0.000265371
0.000287289
0.00045767
0.000508418
0.000516882
0.000516184
0.000513482
0.000510202
0.000506659
0.000502946
0.000499105
0.000495161
0.000491133
0.000487035
0.000482878
0.000478672
0.000474424
0.000470141
0.000465829
0.000461494
0.00045714
0.000452773
0.000448396
0.000444013
0.000439628
0.000435245
0.000430866
0.000426496
0.000422136
0.000417789
0.000413458
0.000409145
0.000404853
0.000400582
0.000396335
0.000392114
0.000387919
0.000383752
0.000379615
0.000375508
0.000371432
0.000367387
0.000363375
0.000359395
0.000355448
0.000351534
0.000347653
0.000343806
0.000339991
0.000336209
0.000332459
0.000328741
0.000325054
0.000321397
0.000317771
0.000314174
0.000310605
0.000307064
0.000303549
0.00030006
0.000296595
0.000293154
0.000289735
0.000286336
0.000282958
0.000279599
0.000276257
0.000272931
0.00026962
0.000266323
0.000263038
0.000259764
0.000256499
0.000253243
0.000249993
0.000246748
0.000243507
0.000240269
0.000237031
0.000233792
0.000230551
0.000227306
0.000224055
0.000220797
0.000217529
0.000214249
0.000210956
0.000207647
0.00020432
0.000200973
0.000197602
0.000194205
0.000190779
0.00018732
0.000183825
0.000180289
0.000176707
0.000173075
0.000169386
0.000165634
0.000161811
0.00015791
0.000153919
0.000149828
0.000145623
0.000141289
0.000136806
0.000132152
0.000127298
0.00012221
0.000116845
0.000111145
0.000105034
9.84088e-05
9.11193e-05
8.29388e-05
7.34963e-05
6.21094e-05
4.73276e-05
2.56374e-05
1.17949e-06
9.98177e-06
7.06924e-05
0.000116464
0.000148522
0.000173546
0.000194425
0.00021252
0.000228798
0.000243785
0.000257801
0.000271046
0.000283677
0.000295809
0.000307509
0.000318829
0.000329807
0.000340474
0.000350852
0.00036096
0.00037081
0.000380412
0.000389773
0.000398898
0.00040779
0.000416449
0.000424876
0.00043307
0.000441028
0.000448745
0.000456218
0.000463436
0.000470388
0.000477057
0.000483415
0.000489423
0.000495023
0.000500134
0.000504605
0.000507982
0.000508324
0.000496975
0.000440854
0.000281479
0.000268397
0.000288247
0.000450992
0.000493255
0.000501456
0.00050118
0.000496108
0.000485612
0.000466317
0.000425545
0.000429934
0.000463361
0.000440411
0.000428509
0.000287584
0.000272153
0.00027001
0.000270032
0.00027007
0.000269819
0.000270037
0.000270956
0.00027463
0.00029504
0.000452418
0.000488879
0.000470474
0.000463205
0.00047003
0.000486739
0.000496876
0.000500338
0.00050056
0.000499735
0.0004988
0.000498155
0.000498337
0.000501281
0.000515324
0.000519315
0.000518719
0.000516458
0.000513511
0.0005102
0.000506658
0.000502947
0.000499107
0.000495164
0.000491136
0.000487038
0.000482881
0.000478674
0.000474426
0.000470143
0.000465832
0.000461496
0.000457143
0.000452775
0.000448398
0.000444015
0.000439631
0.000435247
0.000430869
0.000426498
0.000422138
0.000417791
0.000413461
0.000409148
0.000404855
0.000400584
0.000396337
0.000392116
0.000387921
0.000383754
0.000379617
0.00037551
0.000371433
0.000367389
0.000363376
0.000359397
0.00035545
0.000351536
0.000347655
0.000343807
0.000339993
0.00033621
0.00033246
0.000328742
0.000325055
0.000321399
0.000317773
0.000314175
0.000310607
0.000307065
0.000303551
0.000300061
0.000296596
0.000293155
0.000289736
0.000286338
0.00028296
0.0002796
0.000276258
0.000272932
0.000269622
0.000266324
0.000263039
0.000259765
0.0002565
0.000253244
0.000249994
0.000246749
0.000243508
0.00024027
0.000237032
0.000233793
0.000230552
0.000227307
0.000224056
0.000220797
0.000217529
0.00021425
0.000210957
0.000207648
0.000204321
0.000200974
0.000197603
0.000194206
0.00019078
0.000187321
0.000183826
0.000180289
0.000176708
0.000173075
0.000169386
0.000165634
0.000161812
0.00015791
0.00015392
0.000149829
0.000145624
0.000141289
0.000136806
0.000132152
0.000127298
0.000122211
0.000116845
0.000111145
0.000105034
9.8409e-05
9.11195e-05
8.2939e-05
7.34965e-05
6.21095e-05
4.73277e-05
2.56374e-05
1.1795e-06
1.74575e-05
0.000112819
0.000201662
0.000268525
0.000320632
0.000362934
0.000398587
0.00042959
0.000457202
0.000482263
0.000505349
0.000526858
0.00054708
0.000566217
0.000584422
0.000601808
0.000618468
0.00063447
0.000649873
0.00066472
0.000679047
0.000692885
0.000706258
0.000719183
0.000731679
0.000743756
0.000755425
0.000766693
0.000777566
0.000788045
0.000798128
0.000807807
0.000817065
0.000825868
0.000834156
0.000841843
0.000848807
0.000854915
0.000860061
0.000864177
0.000867093
0.000868056
0.00086551
0.000864151
0.000858985
0.000844313
0.000832166
0.000848201
0.000851707
0.000833074
0.000808183
0.00081499
0.000843375
0.000861995
0.000871919
0.000873614
0.000874526
0.000870387
0.00086779
0.000866884
0.000867264
0.000867758
0.000866903
0.000866265
0.000864905
0.000860861
0.000847409
0.000837702
0.000838385
0.000775919
0.000756114
0.000752495
0.000753688
0.000754611
0.000754256
0.000753183
0.000751981
0.000750985
0.000750677
0.000753144
0.000767861
0.000845346
0.000874982
0.000881327
0.000880327
0.000877115
0.000873104
0.000868694
0.000864023
0.000859156
0.000854128
0.000848968
0.000843693
0.00083832
0.000832861
0.000827325
0.000821722
0.000816058
0.000810342
0.000804578
0.000798773
0.000792932
0.00078706
0.000781163
0.000775243
0.000769307
0.000763357
0.000757398
0.000751433
0.000745465
0.000739498
0.000733535
0.000727578
0.00072163
0.000715693
0.000709769
0.000703861
0.00069797
0.000692098
0.000686245
0.000680414
0.000674606
0.000668821
0.000663059
0.000657322
0.00065161
0.000645923
0.000640261
0.000634624
0.000629012
0.000623425
0.000617861
0.000612322
0.000606804
0.000601309
0.000595835
0.000590381
0.000584945
0.000579527
0.000574125
0.000568738
0.000563365
0.000558003
0.000552652
0.000547308
0.000541972
0.00053664
0.000531311
0.000525983
0.000520654
0.000515321
0.000509983
0.000504638
0.000499281
0.000493913
0.000488529
0.000483127
0.000477704
0.000472258
0.000466785
0.000461282
0.000455745
0.000450172
0.000444557
0.000438898
0.000433189
0.000427426
0.000421603
0.000415715
0.000409756
0.000403718
0.000397595
0.000391378
0.000385058
0.000378624
0.000372066
0.00036537
0.000358522
0.000351504
0.000344298
0.000336881
0.000329228
0.000321309
0.000313088
0.000304522
0.000295562
0.000286144
0.000276194
0.000265615
0.000254287
0.000242051
0.000228696
0.000213934
0.000197353
0.000178339
0.000155927
0.000128503
9.32369e-05
4.59463e-05
2.39931e-06
1.74593e-05
0.000112823
0.000201665
0.000268528
0.000320636
0.000362938
0.000398591
0.000429594
0.000457206
0.000482267
0.000505353
0.000526862
0.000547084
0.000566221
0.000584425
0.000601812
0.000618472
0.000634474
0.000649877
0.000664724
0.000679051
0.000692889
0.000706262
0.000719187
0.000731683
0.00074376
0.000755429
0.000766697
0.00077757
0.000788049
0.000798132
0.000807812
0.000817071
0.000825875
0.000834169
0.000841865
0.000848844
0.000854956
0.000859998
0.000863403
0.000862635
0.000846318
0.000771327
0.000752425
0.000761016
0.000827075
0.000845143
0.000847305
0.000846258
0.000843858
0.000838627
0.000824334
0.000806743
0.000813557
0.000829072
0.000833357
0.000841139
0.000782375
0.000764078
0.000759583
0.000758904
0.000758904
0.000758595
0.000758533
0.000759179
0.000761317
0.000771919
0.000833743
0.000846172
0.000832845
0.000827808
0.000838118
0.000854498
0.00086509
0.000869013
0.000869363
0.000868624
0.000868066
0.000868187
0.000869164
0.000871704
0.000880174
0.000883589
0.0008831
0.000880622
0.000877142
0.000873098
0.000868691
0.000864024
0.000859158
0.000854131
0.000848971
0.000843696
0.000838323
0.000832864
0.000827328
0.000821724
0.000816061
0.000810344
0.00080458
0.000798775
0.000792934
0.000787063
0.000781165
0.000775245
0.000769309
0.000763359
0.0007574
0.000751435
0.000745467
0.0007395
0.000733537
0.00072758
0.000721631
0.000715695
0.000709771
0.000703863
0.000697972
0.000692099
0.000686247
0.000680416
0.000674607
0.000668822
0.00066306
0.000657323
0.000651611
0.000645924
0.000640262
0.000634625
0.000629013
0.000623426
0.000617862
0.000612323
0.000606805
0.00060131
0.000595836
0.000590381
0.000584946
0.000579528
0.000574126
0.000568739
0.000563366
0.000558004
0.000552652
0.000547309
0.000541972
0.000536641
0.000531312
0.000525984
0.000520655
0.000515322
0.000509984
0.000504638
0.000499282
0.000493913
0.000488529
0.000483127
0.000477704
0.000472258
0.000466785
0.000461282
0.000455746
0.000450172
0.000444558
0.000438898
0.000433189
0.000427426
0.000421603
0.000415715
0.000409756
0.000403718
0.000397595
0.000391378
0.000385058
0.000378625
0.000372066
0.00036537
0.000358522
0.000351504
0.000344298
0.000336881
0.000329228
0.000321309
0.000313088
0.000304522
0.000295562
0.000286144
0.000276194
0.000265615
0.000254287
0.000242051
0.000228696
0.000213934
0.000197353
0.000178339
0.000155927
0.000128503
9.32369e-05
4.59462e-05
2.39932e-06
2.44985e-05
0.000143169
0.00026502
0.000363777
0.000443573
0.000509367
0.000565004
0.000613155
0.000655664
0.000693823
0.000728551
0.000760516
0.000790209
0.000817994
0.000844145
0.000868877
0.000892357
0.000914716
0.000936063
0.000956484
0.00097605
0.000994821
0.00101284
0.00103016
0.00104681
0.00106282
0.00107821
0.001093
0.00110721
0.00112086
0.00113394
0.00114646
0.00115839
0.0011697
0.0011803
0.00119007
0.00119884
0.0012064
0.00121263
0.00121762
0.00122164
0.0012249
0.00122715
0.00122906
0.00122871
0.00122305
0.00121914
0.0012244
0.00122688
0.00122069
0.00121236
0.00121576
0.00122697
0.0012357
0.00124087
0.00124201
0.00124208
0.00124026
0.00123876
0.00123853
0.00123966
0.00124123
0.00124212
0.00124288
0.0012435
0.00124336
0.00123886
0.00123595
0.00123731
0.00122271
0.00121525
0.00121372
0.00121457
0.00121501
0.00121442
0.00121323
0.00121211
0.00121158
0.00121188
0.00121335
0.00121822
0.00123878
0.00124855
0.00125009
0.00124786
0.001244
0.00123933
0.00123416
0.00122865
0.00122287
0.00121688
0.0012107
0.00120436
0.00119788
0.00119127
0.00118456
0.00117775
0.00117084
0.00116385
0.00115678
0.00114964
0.00114244
0.00113519
0.00112788
0.00112052
0.00111312
0.00110569
0.00109822
0.00109073
0.00108321
0.00107567
0.00106812
0.00106055
0.00105298
0.0010454
0.00103781
0.00103023
0.00102264
0.00101506
0.00100748
0.000999911
0.000992349
0.000984797
0.000977256
0.000969725
0.000962207
0.000954702
0.000947209
0.00093973
0.000932263
0.000924809
0.000917367
0.000909936
0.000902517
0.000895107
0.000887706
0.000880313
0.000872926
0.000865545
0.000858166
0.000850789
0.000843412
0.000836032
0.000828649
0.000821258
0.000813859
0.000806449
0.000799024
0.000791583
0.000784123
0.00077664
0.000769132
0.000761595
0.000754026
0.000746421
0.000738776
0.000731089
0.000723353
0.000715566
0.000707721
0.000699815
0.000691841
0.000683794
0.000675667
0.000667455
0.000659149
0.000650741
0.000642224
0.000633587
0.00062482
0.000615912
0.000606849
0.000597618
0.000588203
0.000578586
0.000568747
0.000558664
0.000548311
0.000537658
0.000526672
0.000515313
0.000503538
0.000491291
0.000478512
0.000465126
0.000451044
0.000436156
0.000420332
0.000403405
0.000385167
0.00036535
0.000343602
0.000319452
0.000292249
0.000261068
0.000224552
0.000180676
0.000126499
5.96255e-05
3.59419e-06
2.44987e-05
0.000143171
0.000265023
0.000363782
0.000443578
0.000509373
0.00056501
0.000613161
0.00065567
0.000693828
0.000728557
0.000760522
0.000790215
0.000817999
0.000844151
0.000868883
0.000892362
0.000914722
0.000936069
0.000956489
0.000976055
0.000994826
0.00101285
0.00103017
0.00104682
0.00106282
0.00107821
0.00109301
0.00110722
0.00112086
0.00113395
0.00114646
0.0011584
0.00116971
0.00118033
0.00119013
0.00119894
0.00120659
0.00121296
0.00121803
0.00122147
0.00122086
0.00120451
0.00119822
0.00119975
0.00121455
0.00121813
0.00121753
0.00121743
0.0012187
0.00122011
0.00121749
0.00121313
0.00121708
0.00122363
0.00122833
0.00123428
0.0012225
0.00121582
0.00121332
0.00121295
0.00121349
0.00121402
0.00121451
0.00121528
0.00121651
0.00121913
0.00123275
0.00123379
0.00122641
0.00122319
0.00122817
0.00123641
0.0012418
0.00124345
0.00124305
0.00124228
0.00124219
0.00124314
0.0012449
0.00124711
0.00125072
0.00125204
0.00125086
0.00124797
0.00124399
0.00123931
0.00123416
0.00122865
0.00122288
0.00121688
0.0012107
0.00120436
0.00119788
0.00119128
0.00118456
0.00117775
0.00117084
0.00116385
0.00115678
0.00114965
0.00114244
0.00113519
0.00112788
0.00112052
0.00111312
0.00110569
0.00109822
0.00109073
0.00108321
0.00107567
0.00106812
0.00106055
0.00105298
0.0010454
0.00103781
0.00103023
0.00102264
0.00101506
0.00100748
0.000999912
0.00099235
0.000984798
0.000977256
0.000969726
0.000962208
0.000954703
0.00094721
0.00093973
0.000932263
0.000924809
0.000917367
0.000909937
0.000902517
0.000895107
0.000887707
0.000880313
0.000872927
0.000865545
0.000858166
0.000850789
0.000843412
0.000836032
0.000828649
0.000821258
0.000813859
0.000806448
0.000799024
0.000791583
0.000784122
0.00077664
0.000769131
0.000761594
0.000754025
0.000746421
0.000738776
0.000731088
0.000723353
0.000715565
0.000707721
0.000699814
0.00069184
0.000683793
0.000675667
0.000667454
0.000659148
0.000650741
0.000642224
0.000633587
0.00062482
0.000615911
0.000606849
0.000597618
0.000588203
0.000578586
0.000568747
0.000558664
0.00054831
0.000537657
0.000526671
0.000515313
0.000503537
0.000491291
0.000478512
0.000465126
0.000451043
0.000436156
0.000420331
0.000403404
0.000385166
0.000365349
0.000343602
0.000319452
0.000292249
0.000261068
0.000224553
0.000180676
0.000126499
5.96253e-05
3.5942e-06
3.12374e-05
0.000167809
0.000315288
0.000441019
0.000545966
0.000634346
0.00070995
0.000775697
0.000833763
0.000885756
0.000932871
0.000976003
0.00101583
0.00105287
0.00108752
0.00112009
0.00115083
0.00117995
0.0012076
0.00123391
0.001259
0.00128296
0.00130586
0.00132777
0.00134874
0.00136883
0.00138807
0.0014065
0.00142415
0.00144103
0.00145717
0.00147257
0.00148722
0.00150107
0.00151404
0.00152601
0.00153679
0.00154618
0.00155407
0.0015606
0.00156616
0.00157122
0.00157596
0.00158042
0.00158391
0.00158517
0.00158618
0.00158945
0.00159229
0.00159266
0.00159206
0.00159448
0.0015991
0.00160312
0.00160597
0.00160727
0.00160775
0.00160747
0.00160727
0.00160778
0.00160917
0.00161099
0.00161253
0.00161378
0.00161486
0.00161566
0.00161489
0.00161397
0.00161419
0.00161105
0.00160856
0.00160732
0.00160669
0.00160582
0.00160452
0.00160301
0.00160174
0.00160111
0.00160124
0.0016019
0.00160311
0.00160704
0.00160843
0.00160694
0.00160354
0.00159898
0.00159365
0.00158779
0.00158151
0.0015749
0.00156802
0.00156091
0.00155359
0.0015461
0.00153845
0.00153066
0.00152273
0.00151468
0.00150651
0.00149825
0.00148988
0.00148142
0.00147288
0.00146426
0.00145558
0.00144682
0.00143801
0.00142914
0.00142022
0.00141126
0.00140225
0.00139321
0.00138414
0.00137503
0.00136591
0.00135676
0.00134759
0.0013384
0.00132921
0.00132
0.00131078
0.00130155
0.00129232
0.00128308
0.00127384
0.00126459
0.00125535
0.0012461
0.00123685
0.00122759
0.00121834
0.00120908
0.00119982
0.00119056
0.00118129
0.00117202
0.00116274
0.00115345
0.00114415
0.00113484
0.00112551
0.00111616
0.0011068
0.00109741
0.001088
0.00107856
0.0010691
0.00105959
0.00105006
0.00104048
0.00103085
0.00102118
0.00101145
0.00100167
0.000991822
0.000981909
0.000971923
0.000961859
0.00095171
0.00094147
0.000931132
0.000920688
0.000910131
0.000899451
0.000888638
0.000877683
0.000866574
0.000855299
0.000843843
0.000832192
0.000820329
0.000808235
0.000795891
0.000783271
0.000770352
0.000757103
0.000743491
0.000729478
0.000715022
0.000700074
0.000684575
0.00066846
0.000651653
0.000634061
0.000615578
0.000596075
0.000575398
0.000553359
0.000529725
0.000504207
0.000476442
0.000445957
0.000412141
0.000374177
0.000330957
0.000280968
0.00022216
0.000152045
7.0177e-05
4.751e-06
3.12372e-05
0.000167811
0.000315292
0.000441024
0.000545972
0.000634353
0.000709957
0.000775705
0.000833771
0.000885763
0.000932878
0.00097601
0.00101584
0.00105287
0.00108752
0.0011201
0.00115084
0.00117996
0.00120761
0.00123392
0.00125901
0.00128297
0.00130587
0.00132778
0.00134875
0.00136884
0.00138808
0.00140651
0.00142416
0.00144104
0.00145718
0.00147258
0.00148723
0.00150109
0.00151408
0.00152609
0.00153693
0.00154644
0.00155454
0.00156135
0.0015671
0.00157158
0.00157241
0.00157424
0.00157716
0.00158191
0.00158384
0.00158467
0.00158621
0.00158899
0.00159241
0.00159456
0.00159542
0.00159803
0.00160131
0.0016041
0.00160716
0.00160616
0.00160501
0.00160459
0.00160498
0.00160599
0.0016071
0.00160806
0.00160898
0.00160993
0.00161079
0.00161306
0.00161208
0.00160844
0.00160603
0.00160655
0.00160837
0.0016092
0.00160859
0.00160725
0.00160608
0.00160572
0.00160632
0.00160754
0.00160875
0.00160971
0.00160922
0.00160706
0.00160351
0.00159894
0.00159364
0.00158779
0.00158151
0.0015749
0.00156802
0.00156091
0.0015536
0.0015461
0.00153845
0.00153066
0.00152273
0.00151468
0.00150652
0.00149825
0.00148988
0.00148142
0.00147288
0.00146427
0.00145558
0.00144682
0.00143801
0.00142914
0.00142022
0.00141126
0.00140225
0.00139321
0.00138414
0.00137504
0.00136591
0.00135676
0.00134759
0.00133841
0.00132921
0.00132
0.00131078
0.00130155
0.00129232
0.00128308
0.00127384
0.00126459
0.00125535
0.0012461
0.00123685
0.00122759
0.00121834
0.00120908
0.00119982
0.00119056
0.00118129
0.00117202
0.00116274
0.00115345
0.00114415
0.00113483
0.00112551
0.00111616
0.0011068
0.00109741
0.001088
0.00107856
0.0010691
0.00105959
0.00105005
0.00104047
0.00103085
0.00102118
0.00101145
0.00100167
0.000991821
0.000981908
0.000971922
0.000961858
0.000951709
0.000941469
0.000931131
0.000920688
0.00091013
0.00089945
0.000888638
0.000877683
0.000866574
0.000855298
0.000843842
0.000832191
0.000820328
0.000808235
0.00079589
0.000783271
0.000770351
0.000757102
0.00074349
0.000729477
0.000715022
0.000700073
0.000684574
0.00066846
0.000651652
0.00063406
0.000615577
0.000596075
0.000575398
0.000553358
0.000529724
0.000504207
0.000476441
0.000445957
0.000412141
0.000374176
0.000330957
0.000280969
0.00022216
0.000152045
7.01768e-05
4.75102e-06
3.78054e-05
0.000188977
0.000357136
0.000505699
0.000632957
0.000742107
0.000836607
0.000919387
0.000992767
0.00105855
0.00111812
0.00117256
0.0012227
0.00126918
0.00131251
0.0013531
0.00139129
0.00142732
0.00146141
0.00149375
0.00152449
0.00155373
0.0015816
0.00160819
0.00163356
0.00165778
0.00168092
0.00170303
0.00172414
0.00174428
0.00176349
0.00178178
0.00179914
0.00181555
0.00183094
0.00184522
0.00185823
0.00186983
0.00187993
0.00188867
0.00189637
0.00190347
0.0019102
0.0019166
0.00192243
0.00192724
0.00193138
0.00193561
0.00193956
0.00194275
0.00194544
0.00194853
0.00195192
0.00195496
0.00195754
0.00195951
0.00196095
0.00196197
0.00196287
0.00196396
0.00196538
0.00196696
0.00196837
0.00196949
0.00197034
0.00197092
0.00197084
0.00197034
0.00196987
0.00196856
0.001967
0.00196541
0.00196377
0.00196197
0.00196
0.001958
0.00195622
0.00195487
0.00195399
0.00195332
0.00195254
0.00195178
0.00194991
0.00194668
0.00194228
0.00193698
0.00193097
0.0019244
0.00191738
0.00190999
0.00190228
0.0018943
0.00188609
0.00187766
0.00186904
0.00186025
0.00185129
0.00184218
0.00183293
0.00182354
0.00181404
0.00180442
0.00179469
0.00178485
0.00177493
0.00176491
0.00175482
0.00174464
0.0017344
0.00172409
0.00171371
0.00170329
0.00169281
0.00168228
0.00167171
0.00166109
0.00165045
0.00163976
0.00162905
0.00161831
0.00160754
0.00159675
0.00158593
0.0015751
0.00156424
0.00155337
0.00154248
0.00153157
0.00152064
0.0015097
0.00149874
0.00148776
0.00147676
0.00146574
0.0014547
0.00144364
0.00143256
0.00142145
0.00141031
0.00139915
0.00138795
0.00137671
0.00136544
0.00135412
0.00134277
0.00133136
0.0013199
0.00130839
0.00129682
0.00128518
0.00127347
0.00126169
0.00124983
0.00123789
0.00122586
0.00121372
0.00120149
0.00118914
0.00117667
0.00116408
0.00115134
0.00113846
0.00112543
0.00111222
0.00109883
0.00108525
0.00107146
0.00105744
0.00104318
0.00102865
0.00101383
0.000998706
0.000983241
0.000967405
0.000951165
0.000934482
0.000917313
0.000899606
0.000881305
0.000862345
0.000842651
0.000822136
0.0008007
0.000778223
0.000754567
0.000729566
0.000703023
0.000674701
0.000644308
0.000611489
0.0005758
0.000536684
0.000493429
0.000445123
0.000390583
0.000328283
0.000256339
0.000172854
7.89888e-05
5.87982e-06
3.78054e-05
0.000188979
0.00035714
0.000505704
0.000632964
0.000742114
0.000836615
0.000919395
0.000992775
0.00105856
0.00111813
0.00117257
0.00122271
0.00126918
0.00131252
0.00135311
0.00139129
0.00142733
0.00146142
0.00149376
0.00152449
0.00155374
0.00158161
0.00160819
0.00163356
0.00165779
0.00168093
0.00170304
0.00172414
0.00174429
0.0017635
0.00178179
0.00179915
0.00181557
0.00183098
0.00184529
0.00185836
0.00187006
0.00188034
0.00188932
0.00189727
0.00190442
0.00191043
0.00191608
0.00192144
0.0019265
0.00193041
0.0019337
0.00193707
0.00194088
0.00194493
0.00194849
0.00195127
0.00195403
0.00195674
0.00195916
0.00196146
0.00196275
0.00196358
0.00196434
0.00196528
0.00196644
0.00196761
0.00196859
0.00196936
0.00196994
0.00197021
0.00197029
0.00196928
0.00196725
0.00196523
0.00196384
0.00196272
0.00196124
0.00195931
0.00195724
0.00195543
0.00195421
0.00195362
0.00195336
0.00195293
0.00195192
0.00194986
0.00194658
0.00194221
0.00193694
0.00193096
0.0019244
0.00191739
0.00190999
0.00190229
0.00189431
0.00188609
0.00187766
0.00186904
0.00186025
0.00185129
0.00184218
0.00183293
0.00182355
0.00181404
0.00180442
0.00179469
0.00178486
0.00177493
0.00176491
0.00175482
0.00174464
0.0017344
0.00172409
0.00171372
0.00170329
0.00169281
0.00168228
0.00167171
0.0016611
0.00165045
0.00163976
0.00162905
0.00161831
0.00160754
0.00159675
0.00158593
0.0015751
0.00156424
0.00155337
0.00154248
0.00153157
0.00152064
0.0015097
0.00149874
0.00148776
0.00147676
0.00146574
0.0014547
0.00144364
0.00143256
0.00142145
0.00141031
0.00139915
0.00138795
0.00137671
0.00136544
0.00135412
0.00134277
0.00133136
0.0013199
0.00130839
0.00129682
0.00128518
0.00127347
0.00126169
0.00124983
0.00123789
0.00122586
0.00121372
0.00120149
0.00118914
0.00117667
0.00116407
0.00115134
0.00113846
0.00112543
0.00111222
0.00109883
0.00108525
0.00107146
0.00105744
0.00104318
0.00102865
0.00101383
0.000998706
0.00098324
0.000967404
0.000951164
0.000934482
0.000917312
0.000899605
0.000881304
0.000862344
0.00084265
0.000822136
0.000800699
0.000778222
0.000754566
0.000729565
0.000703023
0.0006747
0.000644308
0.000611489
0.0005758
0.000536684
0.000493429
0.000445123
0.000390583
0.000328284
0.00025634
0.000172854
7.89885e-05
5.87984e-06
4.42337e-05
0.000207797
0.000393343
0.000561484
0.000708437
0.000836384
0.000948358
0.00104717
0.00113518
0.00121428
0.001286
0.00135154
0.00141185
0.00146768
0.00151965
0.00156824
0.00161384
0.00165678
0.00169732
0.00173569
0.00177207
0.00180661
0.00183945
0.00187071
0.00190048
0.00192884
0.00195587
0.00198164
0.0020062
0.00202959
0.00205185
0.002073
0.00209306
0.00211202
0.00212984
0.00214646
0.00216179
0.00217573
0.00218824
0.00219941
0.00220948
0.00221873
0.00222738
0.00223551
0.00224307
0.00224992
0.00225608
0.00226178
0.00226705
0.00227185
0.00227623
0.00228036
0.00228421
0.00228768
0.00229078
0.00229349
0.0022958
0.00229774
0.00229942
0.00230096
0.00230242
0.00230378
0.00230492
0.00230577
0.0023063
0.00230653
0.00230632
0.00230571
0.00230481
0.0023035
0.00230184
0.00229988
0.00229768
0.00229529
0.00229278
0.00229023
0.00228776
0.00228547
0.00228334
0.0022812
0.0022788
0.00227597
0.00227237
0.0022679
0.00226256
0.00225648
0.00224974
0.00224246
0.00223471
0.00222655
0.00221806
0.00220926
0.00220019
0.00219088
0.00218135
0.00217161
0.00216169
0.00215159
0.00214132
0.00213089
0.00212032
0.00210961
0.00209877
0.0020878
0.00207671
0.00206552
0.00205422
0.00204283
0.00203134
0.00201977
0.00200812
0.00199639
0.0019846
0.00197274
0.00196081
0.00194883
0.0019368
0.00192471
0.00191258
0.0019004
0.00188818
0.00187592
0.00186362
0.00185128
0.00183891
0.00182651
0.00181407
0.0018016
0.0017891
0.00177656
0.00176399
0.00175139
0.00173875
0.00172608
0.00171337
0.00170062
0.00168783
0.001675
0.00166212
0.0016492
0.00163622
0.00162319
0.0016101