/*--------------------------------*- C++ -*----------------------------------*\
  =========                 |
  \\      /  F ield         | OpenFOAM: The Open Source CFD Toolbox
   \\    /   O peration     | Website:  https://openfoam.org
    \\  /    A nd           | Version:  8
     \\/     M anipulation  |
\*---------------------------------------------------------------------------*/
FoamFile
{
    version     2.0;
    format      ascii;
    class       surfaceScalarField;
    location    "4900";
    object      phi;
}
// * * * * * * * * * * * * * * * * * * * * * * * * * * * * * * * * * * * * * //

dimensions      [1 0 -1 0 0 0 0];

internalField   nonuniform List<scalar> 
114370
(
8.66836e-10
-2.73593e-13
-8.6657e-10
2.16671e-09
-3.45622e-12
-1.2715e-09
3.22035e-09
-2.56968e-12
-1.06005e-09
3.84782e-09
-1.19575e-12
-6.29245e-10
4.04888e-09
-4.00744e-13
-2.01006e-10
3.87981e-09
-8.04987e-14
1.69453e-10
3.40851e-09
8.5433e-15
4.71584e-10
2.69746e-09
1.84627e-14
7.11218e-10
1.79863e-09
1.12516e-14
8.98948e-10
7.53469e-10
4.60571e-15
1.04526e-09
-4.04597e-10
7.85278e-16
1.15815e-09
-1.64795e-09
-1.20133e-15
1.24342e-09
-2.95467e-09
-2.23903e-15
1.30678e-09
-4.30782e-09
-2.79101e-15
1.35318e-09
-5.69361e-09
-2.9156e-15
1.38582e-09
-7.10079e-09
-2.37687e-15
1.4072e-09
-8.52006e-09
-8.30043e-16
1.41927e-09
-9.94368e-09
1.79979e-15
1.4236e-09
-1.13651e-08
4.95308e-15
1.42143e-09
-1.2779e-08
7.2808e-15
1.41376e-09
-1.41805e-08
6.82082e-15
1.40142e-09
-1.55657e-08
1.53772e-15
1.38507e-09
-1.69311e-08
-9.81469e-15
1.36526e-09
-1.82737e-08
-2.67407e-14
1.34245e-09
-1.95909e-08
-4.63944e-14
1.31703e-09
-2.08802e-08
-6.39044e-14
1.28936e-09
-2.21398e-08
-7.40362e-14
1.25973e-09
-2.3368e-08
-7.40291e-14
1.22839e-09
-2.45632e-08
-6.66359e-14
1.19554e-09
-2.57242e-08
-6.16316e-14
1.16129e-09
-2.68497e-08
-7.37129e-14
1.12567e-09
-2.79384e-08
-1.15211e-13
1.08863e-09
-2.89887e-08
-1.84692e-13
1.05011e-09
-2.99989e-08
-2.58333e-13
1.01003e-09
-3.09671e-08
-2.96963e-13
9.68349e-10
-3.18917e-08
-2.77382e-13
9.25092e-10
-3.2772e-08
-2.32815e-13
8.80867e-10
-3.36101e-08
-2.57309e-13
8.38535e-10
-3.44169e-08
-4.22719e-13
8.07022e-10
-3.52187e-08
-5.89308e-13
8.02148e-10
-3.60316e-08
-4.4154e-13
8.13507e-10
-3.67945e-08
-6.68047e-13
7.63924e-10
-3.7418e-08
-5.48681e-13
6.23939e-10
-3.79432e-08
-2.34683e-12
5.26649e-10
-3.84764e-08
-1.08637e-11
5.43234e-10
-3.92755e-08
-2.28137e-11
8.20983e-10
-3.97334e-08
3.59909e-11
4.21883e-10
-3.99716e-08
5.68402e-11
1.81104e-10
-4.04513e-08
-7.53845e-12
4.86712e-10
-4.10845e-08
-5.43261e-11
6.87975e-10
-4.17728e-08
-4.22737e-11
7.30006e-10
-4.15848e-08
1.23422e-10
-3.08868e-10
-4.1764e-08
1.2078e-10
6.51655e-11
-4.21925e-08
-2.22709e-11
4.50038e-10
-4.24223e-08
-2.002e-11
2.46545e-10
-4.24825e-08
-3.52959e-11
9.40803e-11
-4.2635e-08
-5.81053e-11
2.10088e-10
-4.28852e-08
-2.91392e-11
2.7939e-10
-4.29669e-08
-8.43636e-12
9.11924e-11
-4.30028e-08
4.36136e-13
3.5868e-11
-4.29671e-08
4.68985e-12
-4.13307e-11
-4.27859e-08
5.41704e-12
-1.86952e-10
-4.2805e-08
-7.69803e-12
2.76568e-11
-4.27998e-08
-2.08454e-13
-5.19222e-12
-4.26919e-08
-2.35825e-12
-1.06218e-10
-4.24499e-08
-8.96253e-12
-2.33705e-10
-4.2406e-08
-1.83899e-11
-2.72007e-11
-4.22883e-08
3.14996e-11
-1.49462e-10
-4.19379e-08
9.45005e-11
-4.44822e-10
-4.16793e-08
7.19724e-11
-3.30747e-10
-4.13515e-08
7.03204e-12
-3.33455e-10
-4.11077e-08
-4.64315e-11
-1.9759e-10
-4.08706e-08
-4.4225e-11
-1.93395e-10
-4.04842e-08
-1.66371e-11
-3.69657e-10
-4.00688e-08
-7.23084e-12
-4.08191e-10
-3.97018e-08
-2.03288e-12
-3.65252e-10
-3.93425e-08
-8.84333e-13
-3.58196e-10
-3.89081e-08
-5.67586e-13
-4.33352e-10
-3.84187e-08
-3.5847e-13
-4.88752e-10
-3.79376e-08
-1.90023e-12
-4.79088e-10
-3.74485e-08
-1.1563e-12
-4.88164e-10
-3.69506e-08
-9.43904e-13
-4.97289e-10
-3.64504e-08
-1.01337e-12
-4.99418e-10
-3.59432e-08
-8.0713e-13
-5.06514e-10
-3.54225e-08
-6.3403e-13
-5.2004e-10
-3.48859e-08
-5.1638e-13
-5.36162e-10
-3.43337e-08
-4.3054e-13
-5.51843e-10
-3.37676e-08
-3.5582e-13
-5.65838e-10
-3.31894e-08
-2.84231e-13
-5.77993e-10
-3.26007e-08
-2.17001e-13
-5.88497e-10
-3.20028e-08
-1.595e-13
-5.97591e-10
-3.1397e-08
-1.15048e-13
-6.05484e-10
-3.07845e-08
-8.27049e-14
-6.12327e-10
-3.01662e-08
-5.96142e-14
-6.1822e-10
-2.9543e-08
-4.34675e-14
-6.23225e-10
-2.89156e-08
-3.27855e-14
-6.27386e-10
-2.82849e-08
-2.60812e-14
-6.30733e-10
-2.76516e-08
-2.15374e-14
-6.33295e-10
-2.70165e-08
-1.75023e-14
-6.35095e-10
-2.63802e-08
-1.31148e-14
-6.36158e-10
-2.57437e-08
-8.45399e-15
-6.36509e-10
-2.51074e-08
-4.18283e-15
-6.36171e-10
-2.44722e-08
-1.02097e-15
-6.35168e-10
-2.38386e-08
6.47885e-16
-6.33524e-10
-2.32074e-08
9.01967e-16
-6.31259e-10
-2.2579e-08
1.97343e-16
-6.28396e-10
-2.1954e-08
-8.38722e-16
-6.24954e-10
-2.13331e-08
-1.63344e-15
-6.2095e-10
-2.07167e-08
-1.84199e-15
-6.16404e-10
-2.01054e-08
-1.41411e-15
-6.11334e-10
-1.94997e-08
-5.56293e-16
-6.05761e-10
-1.89e-08
3.91678e-16
-5.99703e-10
-1.83068e-08
1.0976e-15
-5.93184e-10
-1.77207e-08
1.35255e-15
-5.86223e-10
-1.71419e-08
1.12085e-15
-5.7884e-10
-1.65708e-08
5.26005e-16
-5.71057e-10
-1.6008e-08
-2.16946e-16
-5.6289e-10
-1.54537e-08
-8.81184e-16
-5.54358e-10
-1.49082e-08
-1.29839e-15
-5.45479e-10
-1.4372e-08
-1.3977e-15
-5.36269e-10
-1.38452e-08
-1.20645e-15
-5.26745e-10
-1.33283e-08
-8.24921e-16
-5.16925e-10
-1.28215e-08
-3.82351e-16
-5.06825e-10
-1.23251e-08
4.32745e-18
-4.96462e-10
-1.18392e-08
2.61173e-16
-4.85852e-10
-1.13642e-08
3.63086e-16
-4.75011e-10
-1.09003e-08
3.34135e-16
-4.63955e-10
-1.04476e-08
2.26363e-16
-4.52699e-10
-1.00064e-08
9.87501e-17
-4.41256e-10
-9.57679e-09
3.33768e-18
-4.29641e-10
-9.15894e-09
-3.06006e-17
-4.17868e-10
-8.75302e-09
6.80142e-18
-4.0595e-10
-8.35915e-09
1.04702e-16
-3.93901e-10
-7.97744e-09
2.41958e-16
-3.81733e-10
-7.608e-09
3.95261e-16
-3.69461e-10
-7.25093e-09
5.4401e-16
-3.57098e-10
-6.90631e-09
6.75195e-16
-3.44658e-10
-6.57419e-09
7.83177e-16
-3.32154e-10
-6.25462e-09
8.66656e-16
-3.196e-10
-5.94765e-09
9.29969e-16
-3.0701e-10
-5.65329e-09
9.7832e-16
-2.94399e-10
-5.37155e-09
1.01279e-15
-2.81781e-10
-5.10242e-09
1.03794e-15
-2.69173e-10
-4.84588e-09
1.05452e-15
-2.56589e-10
-4.60188e-09
1.0633e-15
-2.44046e-10
-4.37037e-09
1.0647e-15
-2.31561e-10
-4.15127e-09
1.05917e-15
-2.19153e-10
-3.94448e-09
1.0481e-15
-2.0684e-10
-3.74989e-09
1.03291e-15
-1.94643e-10
-3.56736e-09
1.01382e-15
-1.82581e-10
-3.39674e-09
9.92458e-16
-1.70676e-10
-3.23785e-09
9.69139e-16
-1.58951e-10
-3.09047e-09
9.44952e-16
-1.47431e-10
-2.95439e-09
9.1838e-16
-1.36139e-10
-2.82935e-09
8.90073e-16
-1.25103e-10
-2.71505e-09
8.59379e-16
-1.1435e-10
-2.6112e-09
8.24782e-16
-1.03907e-10
-2.51746e-09
7.86174e-16
-9.38057e-11
-2.43344e-09
7.42143e-16
-8.40758e-11
-2.35875e-09
6.91607e-16
-7.47496e-11
-2.29295e-09
6.34782e-16
-6.58603e-11
-2.23556e-09
5.7091e-16
-5.74421e-11
-2.18609e-09
4.98688e-16
-4.95302e-11
-2.14398e-09
4.20503e-16
-4.21608e-11
-2.10867e-09
3.3733e-16
-3.53708e-11
-2.07953e-09
2.48735e-16
-2.91981e-11
-2.0559e-09
1.5808e-16
-2.3681e-11
-2.0371e-09
6.61234e-17
-1.88586e-11
-2.02238e-09
-2.73515e-17
-1.477e-11
-2.01097e-09
-1.22128e-16
-1.1455e-11
-2.00207e-09
-2.21025e-16
-8.95298e-12
-1.99482e-09
-3.29463e-16
-7.30347e-12
-1.98832e-09
-4.51129e-16
-6.54546e-12
-1.98164e-09
-5.9166e-16
-6.71727e-12
-1.97383e-09
-7.54743e-16
-7.85618e-12
-1.96387e-09
-9.39944e-16
-9.99796e-12
-1.95074e-09
-1.14401e-15
-1.31764e-11
-1.93335e-09
-1.36044e-15
-1.74224e-11
-1.91062e-09
-1.58098e-15
-2.27635e-11
-1.88143e-09
-1.80305e-15
-2.92221e-11
-1.84464e-09
-2.02902e-15
-3.68146e-11
-1.79911e-09
-2.26929e-15
-4.55482e-11
-1.74371e-09
-2.53559e-15
-5.54185e-11
-1.67732e-09
-2.83116e-15
-6.64043e-11
-1.59886e-09
-3.14452e-15
-7.84613e-11
-1.50735e-09
-3.4544e-15
-9.15123e-11
-1.40192e-09
-3.73652e-15
-1.05432e-10
-1.28188e-09
-3.98417e-15
-1.20027e-10
-1.14687e-09
-4.20709e-15
-1.34999e-10
-9.96948e-10
-4.4222e-15
-1.49898e-10
-8.32882e-10
-4.62646e-15
-1.64039e-10
-6.5647e-10
-4.80036e-15
-1.7638e-10
-4.71112e-10
-4.93868e-15
-1.8532e-10
-2.82665e-10
-5.09042e-15
-1.88405e-10
-1.00739e-10
-5.3293e-15
-1.81881e-10
5.93972e-11
-5.68913e-15
-1.60087e-10
1.74582e-10
-6.09919e-15
-1.15134e-10
2.12715e-10
-6.30622e-15
-3.80815e-11
1.4465e-10
-4.86282e-15
6.81172e-11
-4.51375e-16
1.44699e-10
8.50317e-10
-8.50773e-10
2.16644e-09
-1.26091e-09
3.22414e-09
-1.05517e-09
3.85025e-09
-6.27518e-10
4.04987e-09
-2.00541e-10
3.88008e-09
1.69525e-10
3.40855e-09
4.71575e-10
2.69746e-09
7.11208e-10
1.79865e-09
8.98947e-10
7.53493e-10
1.04526e-09
-4.04569e-10
1.15815e-09
-1.64792e-09
1.24342e-09
-2.95465e-09
1.30678e-09
-4.3078e-09
1.35318e-09
-5.6936e-09
1.38582e-09
-7.10079e-09
1.40719e-09
-8.52007e-09
1.41927e-09
-9.94369e-09
1.42359e-09
-1.13652e-08
1.42142e-09
-1.2779e-08
1.41375e-09
-1.41805e-08
1.40141e-09
-1.55658e-08
1.38505e-09
-1.69312e-08
1.36524e-09
-1.82739e-08
1.34243e-09
-1.95911e-08
1.31702e-09
-2.08805e-08
1.28936e-09
-2.21402e-08
1.25975e-09
-2.33685e-08
1.22845e-09
-2.45639e-08
1.19563e-09
-2.57252e-08
1.16141e-09
-2.68512e-08
1.12582e-09
-2.79405e-08
1.08888e-09
-2.89917e-08
1.05059e-09
-3.00033e-08
1.01101e-09
-3.09737e-08
9.70245e-10
-3.19021e-08
9.28486e-10
-3.27886e-08
8.86434e-10
-3.36356e-08
8.46555e-10
-3.44519e-08
8.1534e-10
-3.52531e-08
8.0056e-10
-3.60312e-08
7.78104e-10
-3.67241e-08
6.92218e-10
-3.73401e-08
6.14523e-10
-3.79478e-08
6.0496e-10
-3.85414e-08
5.83707e-10
-3.90779e-08
5.14341e-10
-3.96527e-08
6.09415e-10
-4.02887e-08
6.91959e-10
-4.07179e-08
4.21917e-10
-4.10427e-08
2.70386e-10
-4.11026e-08
1.61993e-11
-4.15237e-08
5.45272e-10
-4.22507e-08
8.53568e-10
-4.20663e-08
-1.91508e-10
-4.23948e-08
3.15572e-10
-4.26605e-08
2.33716e-10
-4.26065e-08
-1.11836e-10
-4.27512e-08
1.14402e-10
-4.27933e-08
3.36437e-11
-4.29298e-08
1.35701e-10
-4.30927e-08
1.66858e-10
-4.30377e-08
-4.86976e-11
-4.28511e-08
-1.93858e-10
-4.27589e-08
-9.2987e-11
-4.26577e-08
-1.0378e-10
-4.24947e-08
-1.71308e-10
-4.22666e-08
-2.46054e-10
-4.19866e-08
-2.49379e-10
-4.19457e-08
5.44097e-11
-4.19649e-08
9.16417e-11
-4.16065e-08
-3.51828e-10
-4.09948e-08
-6.58843e-10
-4.06031e-08
-4.35842e-10
-4.04019e-08
-2.17715e-10
-4.00999e-08
-3.10047e-10
-3.97378e-08
-3.64544e-10
-3.93409e-08
-3.97598e-10
-3.89171e-08
-4.23928e-10
-3.84505e-08
-4.66694e-10
-3.79144e-08
-5.38003e-10
-3.73873e-08
-5.28322e-10
-3.68987e-08
-4.89619e-10
-3.64188e-08
-4.80907e-10
-3.59256e-08
-4.9388e-10
-3.54127e-08
-5.13583e-10
-3.48801e-08
-5.33219e-10
-3.43302e-08
-5.50588e-10
-3.37653e-08
-5.65327e-10
-3.31878e-08
-5.77784e-10
-3.25995e-08
-5.88406e-10
-3.2002e-08
-5.97552e-10
-3.13965e-08
-6.05476e-10
-3.07841e-08
-6.1234e-10
-3.0166e-08
-6.18244e-10
-2.95428e-08
-6.23252e-10
-2.89155e-08
-6.27409e-10
-2.82848e-08
-6.30749e-10
-2.76515e-08
-6.33303e-10
-2.70164e-08
-6.35097e-10
-2.63802e-08
-6.36157e-10
-2.57436e-08
-6.36506e-10
-2.51074e-08
-6.36168e-10
-2.44722e-08
-6.35166e-10
-2.38386e-08
-6.33524e-10
-2.32073e-08
-6.31262e-10
-2.25789e-08
-6.28401e-10
-2.1954e-08
-6.2496e-10
-2.13331e-08
-6.20956e-10
-2.07167e-08
-6.1641e-10
-2.01054e-08
-6.1134e-10
-1.94997e-08
-6.05765e-10
-1.89e-08
-5.99708e-10
-1.83068e-08
-5.93189e-10
-1.77206e-08
-5.86228e-10
-1.71418e-08
-5.78846e-10
-1.65708e-08
-5.71062e-10
-1.6008e-08
-5.62895e-10
-1.54536e-08
-5.54363e-10
-1.49082e-08
-5.45483e-10
-1.43719e-08
-5.36272e-10
-1.38452e-08
-5.26748e-10
-1.33283e-08
-5.16928e-10
-1.28215e-08
-5.06828e-10
-1.2325e-08
-4.96465e-10
-1.18392e-08
-4.85856e-10
-1.13642e-08
-4.75016e-10
-1.09003e-08
-4.6396e-10
-1.04476e-08
-4.52704e-10
-1.00064e-08
-4.41261e-10
-9.57677e-09
-4.29646e-10
-9.15893e-09
-4.17873e-10
-8.75301e-09
-4.05955e-10
-8.35913e-09
-3.93905e-10
-7.97742e-09
-3.81738e-10
-7.60799e-09
-3.69466e-10
-7.25092e-09
-3.57103e-10
-6.90629e-09
-3.44663e-10
-6.57417e-09
-3.32159e-10
-6.25461e-09
-3.19606e-10
-5.94763e-09
-3.07016e-10
-5.65327e-09
-2.94405e-10
-5.37153e-09
-2.81788e-10
-5.10241e-09
-2.6918e-10
-4.84586e-09
-2.56596e-10
-4.60187e-09
-2.44053e-10
-4.37035e-09
-2.31569e-10
-4.15125e-09
-2.19161e-10
-3.94446e-09
-2.06848e-10
-3.74988e-09
-1.94651e-10
-3.56735e-09
-1.82589e-10
-3.39673e-09
-1.70684e-10
-3.23783e-09
-1.58959e-10
-3.09046e-09
-1.47439e-10
-2.95438e-09
-1.36148e-10
-2.82933e-09
-1.25112e-10
-2.71504e-09
-1.14358e-10
-2.61119e-09
-1.03916e-10
-2.51744e-09
-9.38141e-11
-2.43343e-09
-8.40842e-11
-2.35873e-09
-7.4758e-11
-2.29293e-09
-6.58687e-11
-2.23555e-09
-5.74504e-11
-2.18608e-09
-4.95385e-11
-2.14397e-09
-4.2169e-11
-2.10866e-09
-3.5379e-11
-2.07952e-09
-2.92062e-11
-2.05589e-09
-2.3689e-11
-2.03708e-09
-1.88664e-11
-2.02237e-09
-1.47777e-11
-2.01096e-09
-1.14625e-11
-2.00206e-09
-8.96029e-12
-1.99481e-09
-7.31057e-12
-1.98831e-09
-6.55235e-12
-1.98164e-09
-6.72394e-12
-1.97382e-09
-7.86261e-12
-1.96387e-09
-1.00041e-11
-1.95073e-09
-1.31822e-11
-1.93334e-09
-1.74279e-11
-1.91061e-09
-2.27687e-11
-1.88142e-09
-2.92269e-11
-1.84463e-09
-3.6819e-11
-1.79911e-09
-4.55521e-11
-1.7437e-09
-5.5422e-11
-1.67731e-09
-6.64073e-11
-1.59886e-09
-7.84639e-11
-1.50735e-09
-9.15143e-11
-1.40192e-09
-1.05434e-10
-1.28188e-09
-1.20028e-10
-1.14687e-09
-1.35e-10
-9.96948e-10
-1.49898e-10
-8.32883e-10
-1.6404e-10
-6.56471e-10
-1.7638e-10
-4.71114e-10
-1.8532e-10
-2.82668e-10
-1.88406e-10
-1.00743e-10
-1.81882e-10
5.93921e-11
-1.6009e-10
1.74576e-10
-1.15139e-10
2.1271e-10
-3.80878e-11
1.4465e-10
6.81104e-11
1.44698e-10
1.28529e-09
3.35277e-12
-2.17898e-09
2.04375e-09
3.06392e-13
-2.02927e-09
2.42999e-09
-1.62431e-13
-1.44713e-09
2.53609e-09
-1.39009e-13
-7.35232e-10
2.38471e-09
-6.00368e-14
-4.93992e-11
2.0008e-09
-1.35406e-14
5.53543e-10
1.41313e-09
3.138e-15
1.05939e-09
6.51295e-10
6.08594e-15
1.47316e-09
-2.56047e-10
4.87786e-15
1.80639e-09
-1.28229e-09
3.15638e-15
2.07158e-09
-2.40414e-09
1.78979e-15
2.28007e-09
-3.60219e-09
7.93696e-16
2.44152e-09
-4.85978e-09
5.44807e-17
2.56441e-09
-6.16252e-09
-5.00691e-16
2.65594e-09
-7.49826e-09
-8.44551e-16
2.72157e-09
-8.85675e-09
-8.66754e-16
2.76568e-09
-1.02293e-08
-4.62947e-16
2.7918e-09
-1.16085e-08
3.24505e-16
2.80276e-09
-1.29881e-08
1.19628e-15
2.80088e-09
-1.43625e-08
1.57561e-15
2.78808e-09
-1.57272e-08
7.1714e-16
2.76592e-09
-1.7078e-08
-2.05078e-15
2.73571e-09
-1.84114e-08
-6.97769e-15
2.69854e-09
-1.97244e-08
-1.35489e-14
2.65533e-09
-2.10143e-08
-2.03486e-14
2.60685e-09
-2.22786e-08
-2.53605e-14
2.55375e-09
-2.35152e-08
-2.68084e-14
2.49661e-09
-2.47225e-08
-2.43945e-14
2.43591e-09
-2.58988e-08
-2.04827e-14
2.37204e-09
-2.70428e-08
-2.04686e-14
2.30532e-09
-2.81533e-08
-3.12394e-14
2.23601e-09
-2.92293e-08
-5.67457e-14
2.16431e-09
-3.02699e-08
-9.16945e-14
2.09041e-09
-3.12743e-08
-1.18917e-13
2.01449e-09
-3.22424e-08
-1.18827e-13
1.93678e-09
-3.31746e-08
-9.06254e-14
1.85765e-09
-3.40714e-08
-6.4059e-14
1.77798e-09
-3.49331e-08
-7.26446e-14
1.70011e-09
-3.57558e-08
-8.7336e-14
1.62952e-09
-3.65273e-08
1.84568e-14
1.57362e-09
-3.72402e-08
5.79061e-14
1.52651e-09
-3.79255e-08
1.48922e-13
1.4488e-09
-3.86277e-08
-1.76826e-13
1.32587e-09
-3.93232e-08
6.72558e-13
1.22186e-09
-3.99676e-08
6.53877e-12
1.18126e-09
-4.03393e-08
2.13198e-11
1.17176e-09
-4.09149e-08
-1.76667e-11
1.01508e-09
-4.15847e-08
-4.2439e-11
8.94491e-10
-4.20038e-08
4.78703e-13
9.05955e-10
-4.22481e-08
3.97936e-11
8.91285e-10
-4.23443e-08
3.94055e-11
7.85229e-10
-4.30698e-08
-8.35338e-11
4.95715e-10
-4.34162e-08
-8.70663e-11
4.96346e-10
-4.35255e-08
1.79874e-11
5.39988e-10
-4.37355e-08
8.91105e-12
4.47488e-10
-4.40006e-08
1.50573e-11
3.43132e-10
-4.41386e-08
3.72298e-11
3.10119e-10
-4.41472e-08
1.68721e-11
2.7158e-10
-4.42161e-08
3.28175e-12
1.57191e-10
-4.42582e-08
-1.38341e-12
7.85757e-11
-4.42931e-08
-3.17515e-12
-3.41591e-12
-4.43803e-08
-3.27852e-12
-9.56599e-11
-4.42786e-08
5.58964e-12
-7.9848e-11
-4.41479e-08
-6.42931e-13
-1.35676e-10
-4.40283e-08
8.75305e-13
-2.25678e-10
-4.39556e-08
6.08837e-12
-3.12361e-10
-4.36571e-08
1.7292e-11
-3.42206e-10
-4.33901e-08
-1.49285e-11
-4.0125e-10
-4.32731e-08
-6.20263e-11
-4.99528e-10
-4.30103e-08
-4.44676e-11
-5.48788e-10
-4.27618e-08
1.65135e-12
-5.84104e-10
-4.24211e-08
3.49661e-11
-5.73244e-10
-4.20364e-08
2.67608e-11
-6.04735e-10
-4.17099e-08
7.00287e-12
-7.03254e-10
-4.13667e-08
2.80829e-12
-7.54566e-10
-4.09551e-08
7.66442e-13
-7.77444e-10
-4.04985e-08
4.41838e-13
-8.14896e-10
-4.00552e-08
2.44788e-13
-8.76584e-10
-3.96229e-08
7.9835e-14
-9.211e-10
-3.91606e-08
6.3454e-13
-9.42204e-10
-3.86736e-08
-2.32499e-13
-9.7518e-10
-3.8169e-08
-3.23853e-13
-1.00172e-09
-3.76491e-08
-1.80136e-13
-1.01914e-09
-3.71169e-08
-1.97057e-13
-1.03847e-09
-3.65739e-08
-1.87649e-13
-1.06293e-09
-3.60202e-08
-1.66622e-13
-1.08987e-09
-3.54555e-08
-1.50044e-13
-1.11646e-09
-3.48801e-08
-1.2987e-13
-1.14117e-09
-3.42944e-08
-1.04842e-13
-1.16353e-09
-3.36992e-08
-7.96093e-14
-1.18351e-09
-3.30953e-08
-5.83969e-14
-1.20127e-09
-3.24837e-08
-4.23914e-14
-1.21698e-09
-3.18652e-08
-3.06994e-14
-1.23077e-09
-3.12406e-08
-2.21852e-14
-1.24277e-09
-3.06108e-08
-1.61925e-14
-1.25304e-09
-2.99766e-08
-1.22438e-14
-1.26166e-09
-2.93386e-08
-9.6812e-15
-1.26869e-09
-2.86977e-08
-7.73666e-15
-1.27417e-09
-2.80546e-08
-5.84831e-15
-1.27816e-09
-2.741e-08
-3.85942e-15
-1.28071e-09
-2.67646e-08
-1.95822e-15
-1.28185e-09
-2.61191e-08
-4.57656e-16
-1.28162e-09
-2.54741e-08
4.18541e-16
-1.28007e-09
-2.48304e-08
6.44163e-16
-1.27724e-09
-2.41885e-08
3.8222e-16
-1.27317e-09
-2.3549e-08
-9.75131e-17
-1.26789e-09
-2.29125e-08
-5.25801e-16
-1.26145e-09
-2.22796e-08
-7.21825e-16
-1.25388e-09
-2.16508e-08
-6.35523e-16
-1.24522e-09
-2.10267e-08
-3.37151e-16
-1.23551e-09
-2.04077e-08
3.21272e-17
-1.22479e-09
-1.97943e-08
3.25593e-16
-1.2131e-09
-1.91871e-08
4.44502e-16
-1.20047e-09
-1.85864e-08
3.63945e-16
-1.18695e-09
-1.79927e-08
1.28944e-16
-1.17257e-09
-1.74064e-08
-1.72357e-16
-1.15737e-09
-1.6828e-08
-4.43707e-16
-1.14139e-09
-1.62577e-08
-6.11976e-16
-1.12466e-09
-1.5696e-08
-6.4472e-16
-1.10722e-09
-1.51432e-08
-5.51452e-16
-1.0891e-09
-1.45996e-08
-3.74105e-16
-1.07034e-09
-1.40656e-08
-1.67511e-16
-1.05097e-09
-1.35414e-08
1.72897e-17
-1.03102e-09
-1.30273e-08
1.46227e-16
-1.01052e-09
-1.25237e-08
2.07293e-16
-9.89506e-10
-1.20307e-08
2.08566e-16
-9.68008e-10
-1.15487e-08
1.70482e-16
-9.46056e-10
-1.10777e-08
1.17788e-16
-9.23678e-10
-1.06181e-08
7.17074e-17
-9.00903e-10
-1.017e-08
4.53052e-17
-8.77758e-10
-9.73364e-09
4.23216e-17
-8.54271e-10
-9.30915e-09
5.88807e-17
-8.3047e-10
-8.89669e-09
8.639e-17
-8.06381e-10
-8.49643e-09
1.15661e-16
-7.82031e-10
-8.10847e-09
1.38969e-16
-7.57446e-10
-7.73295e-09
1.52085e-16
-7.32654e-10
-7.36996e-09
1.53844e-16
-7.07682e-10
-7.01959e-09
1.45682e-16
-6.82557e-10
-6.68193e-09
1.29985e-16
-6.57306e-10
-6.35702e-09
1.09761e-16
-6.31959e-10
-6.04492e-09
8.71518e-17
-6.06543e-10
-5.74566e-09
6.3702e-17
-5.81089e-10
-5.45925e-09
4.04959e-17
-5.55629e-10
-5.1857e-09
1.69643e-17
-5.30193e-10
-4.92498e-09
-5.80854e-18
-5.04815e-10
-4.67707e-09
-2.80938e-17
-4.79532e-10
-4.4419e-09
-4.95661e-17
-4.54377e-10
-4.2194e-09
-6.96835e-17
-4.29391e-10
-4.00949e-09
-8.79581e-17
-4.04613e-10
-3.81204e-09
-1.04173e-16
-3.80085e-10
-3.62692e-09
-1.18382e-16
-3.5585e-10
-3.45398e-09
-1.30397e-16
-3.31956e-10
-3.29302e-09
-1.4046e-16
-3.0845e-10
-3.14384e-09
-1.48897e-16
-2.85382e-10
-3.00619e-09
-1.55952e-16
-2.62807e-10
-2.87982e-09
-1.62194e-16
-2.40779e-10
-2.76443e-09
-1.67732e-16
-2.19356e-10
-2.6597e-09
-1.7308e-16
-1.98599e-10
-2.56527e-09
-1.78375e-16
-1.78568e-10
-2.48075e-09
-1.83779e-16
-1.59329e-10
-2.40571e-09
-1.8921e-16
-1.4095e-10
-2.33972e-09
-1.94587e-16
-1.23498e-10
-2.28226e-09
-1.99694e-16
-1.07045e-10
-2.23281e-09
-2.04042e-16
-9.16633e-11
-2.19081e-09
-2.07198e-16
-7.74277e-11
-2.15565e-09
-2.08673e-16
-6.4414e-11
-2.12669e-09
-2.07331e-16
-5.26991e-11
-2.10324e-09
-2.03874e-16
-4.23609e-11
-2.08458e-09
-1.97437e-16
-3.34781e-11
-2.06996e-09
-1.8856e-16
-2.61294e-11
-2.05857e-09
-1.77841e-16
-2.03932e-11
-2.04957e-09
-1.6658e-16
-1.63474e-11
-2.04209e-09
-1.55591e-16
-1.40686e-11
-2.03522e-09
-1.45741e-16
-1.36313e-11
-2.02801e-09
-1.37192e-16
-1.51076e-11
-2.01948e-09
-1.28697e-16
-1.85654e-11
-2.00862e-09
-1.18035e-16
-2.40679e-11
-1.99441e-09
-1.02548e-16
-3.1672e-11
-1.97577e-09
-8.02857e-17
-4.14258e-11
-1.95165e-09
-5.14099e-17
-5.33666e-11
-1.92097e-09
-1.79266e-17
-6.75172e-11
-1.88266e-09
1.66405e-17
-8.38812e-11
-1.83565e-09
4.89848e-17
-1.02437e-10
-1.77894e-09
7.99193e-17
-1.23128e-10
-1.71155e-09
1.1416e-16
-1.45852e-10
-1.63262e-09
1.58918e-16
-1.70441e-10
-1.5414e-09
2.175e-16
-1.96639e-10
-1.43735e-09
2.85677e-16
-2.24062e-10
-1.32019e-09
3.55318e-16
-2.52145e-10
-1.18999e-09
4.22738e-16
-2.80065e-10
-1.04739e-09
4.94118e-16
-3.06616e-10
-8.93693e-10
5.75314e-16
-3.3004e-10
-7.31217e-10
6.55542e-16
-3.47759e-10
-5.63586e-10
7.09762e-16
-3.55996e-10
-3.96168e-10
7.27467e-16
-3.49258e-10
-2.3652e-10
7.16052e-16
-3.19692e-10
-9.4984e-11
6.83262e-16
-2.56627e-10
1.39874e-11
7.45905e-16
-1.47007e-10
6.13464e-11
2.05813e-15
2.08106e-11
8.03056e-15
2.0607e-10
1.27816e-09
-2.18203e-09
2.04176e-09
-2.02854e-09
2.42981e-09
-1.44639e-09
2.53625e-09
-7.34867e-10
2.38483e-09
-4.92673e-11
2.00086e-09
5.53577e-10
1.41316e-09
1.05939e-09
6.51322e-10
1.47316e-09
-2.56021e-10
1.80638e-09
-1.28226e-09
2.07158e-09
-2.40411e-09
2.28006e-09
-3.60217e-09
2.44152e-09
-4.85976e-09
2.56441e-09
-6.1625e-09
2.65594e-09
-7.49825e-09
2.72157e-09
-8.85675e-09
2.76568e-09
-1.02293e-08
2.7918e-09
-1.16085e-08
2.80275e-09
-1.29881e-08
2.80088e-09
-1.43625e-08
2.78808e-09
-1.57272e-08
2.76592e-09
-1.7078e-08
2.73571e-09
-1.84115e-08
2.69855e-09
-1.97245e-08
2.65534e-09
-2.10144e-08
2.60686e-09
-2.22787e-08
2.55378e-09
-2.35154e-08
2.49665e-09
-2.47227e-08
2.43597e-09
-2.58991e-08
2.37214e-09
-2.70433e-08
2.30548e-09
-2.8154e-08
2.23625e-09
-2.92303e-08
2.1647e-09
-3.02711e-08
2.09107e-09
-3.12757e-08
2.01559e-09
-3.22439e-08
1.93856e-09
-3.31757e-08
1.86037e-09
-3.40714e-08
1.7818e-09
-3.493e-08
1.70473e-09
-3.57479e-08
1.63298e-09
-3.65173e-08
1.57022e-09
-3.7245e-08
1.5062e-09
-3.79652e-08
1.41232e-09
-3.86694e-08
1.31883e-09
-3.93199e-08
1.25705e-09
-3.99232e-08
1.1936e-09
-4.04962e-08
1.10815e-09
-4.09691e-08
1.06423e-09
-4.13373e-08
1.01779e-09
-4.17971e-08
8.8276e-10
-4.22542e-08
7.68245e-10
-4.28421e-08
6.44752e-10
-4.30875e-08
7.02384e-10
-4.30318e-08
6.96318e-10
-4.36601e-08
4.42557e-10
-4.37712e-08
4.32413e-10
-4.38707e-08
3.48754e-10
-4.41634e-08
2.18132e-10
-4.42257e-08
1.92584e-10
-4.43233e-08
1.33205e-10
-4.43144e-08
1.25472e-10
-4.42325e-08
8.27781e-11
-4.42351e-08
-4.85764e-11
-4.4265e-08
-1.58262e-10
-4.41709e-08
-1.87969e-10
-4.40363e-08
-2.37613e-10
-4.38984e-08
-3.03756e-10
-4.37603e-08
-3.66862e-10
-4.36245e-08
-3.99053e-10
-4.32752e-08
-3.57131e-10
-4.28092e-08
-4.19643e-10
-4.2576e-08
-5.82745e-10
-4.24896e-08
-7.09568e-10
-4.21986e-08
-6.99853e-10
-4.17419e-08
-6.67854e-10
-4.13293e-08
-7.19917e-10
-4.09211e-08
-7.71696e-10
-4.04912e-08
-8.26731e-10
-4.0041e-08
-8.73731e-10
-3.95902e-08
-9.17501e-10
-3.91578e-08
-9.701e-10
-3.8694e-08
-9.92599e-10
-3.81862e-08
-9.97963e-10
-3.7657e-08
-1.01036e-09
-3.71191e-08
-1.032e-09
-3.65738e-08
-1.0593e-09
-3.60193e-08
-1.08804e-09
-3.54546e-08
-1.11557e-09
-3.48793e-08
-1.14075e-09
-3.42937e-08
-1.16333e-09
-3.36987e-08
-1.18342e-09
-3.30949e-08
-1.20124e-09
-3.24834e-08
-1.21698e-09
-3.1865e-08
-1.23079e-09
-3.12405e-08
-1.24278e-09
-3.06107e-08
-1.25306e-09
-2.99765e-08
-1.26167e-09
-2.93386e-08
-1.2687e-09
-2.86977e-08
-1.27418e-09
-2.80545e-08
-1.27817e-09
-2.74099e-08
-1.28071e-09
-2.67645e-08
-1.28185e-09
-2.6119e-08
-1.28162e-09
-2.54741e-08
-1.28008e-09
-2.48304e-08
-1.27725e-09
-2.41885e-08
-1.27317e-09
-2.3549e-08
-1.2679e-09
-2.29125e-08
-1.26145e-09
-2.22796e-08
-1.25388e-09
-2.16508e-08
-1.24522e-09
-2.10267e-08
-1.23551e-09
-2.04077e-08
-1.22479e-09
-1.97943e-08
-1.2131e-09
-1.91871e-08
-1.20047e-09
-1.85864e-08
-1.18695e-09
-1.79927e-08
-1.17257e-09
-1.74064e-08
-1.15737e-09
-1.68279e-08
-1.14139e-09
-1.62577e-08
-1.12466e-09
-1.5696e-08
-1.10722e-09
-1.51431e-08
-1.0891e-09
-1.45996e-08
-1.07034e-09
-1.40655e-08
-1.05097e-09
-1.35414e-08
-1.03102e-09
-1.30273e-08
-1.01052e-09
-1.25237e-08
-9.89507e-10
-1.20307e-08
-9.68009e-10
-1.15487e-08
-9.46057e-10
-1.10777e-08
-9.23679e-10
-1.06181e-08
-9.00904e-10
-1.017e-08
-8.77759e-10
-9.73362e-09
-8.54272e-10
-9.30913e-09
-8.30471e-10
-8.89668e-09
-8.06382e-10
-8.49641e-09
-7.82032e-10
-8.10846e-09
-7.57447e-10
-7.73293e-09
-7.32656e-10
-7.36995e-09
-7.07684e-10
-7.01958e-09
-6.82558e-10
-6.68191e-09
-6.57308e-10
-6.35701e-09
-6.3196e-10
-6.04491e-09
-6.06544e-10
-5.74565e-09
-5.81091e-10
-5.45924e-09
-5.5563e-10
-5.18569e-09
-5.30194e-10
-4.92497e-09
-5.04817e-10
-4.67705e-09
-4.79533e-10
-4.44188e-09
-4.54379e-10
-4.21939e-09
-4.29392e-10
-4.00947e-09
-4.04614e-10
-3.81203e-09
-3.80086e-10
-3.62691e-09
-3.55851e-10
-3.45397e-09
-3.31957e-10
-3.29301e-09
-3.08451e-10
-3.14382e-09
-2.85384e-10
-3.00618e-09
-2.62809e-10
-2.87981e-09
-2.40781e-10
-2.76442e-09
-2.19358e-10
-2.65969e-09
-1.986e-10
-2.56525e-09
-1.78569e-10
-2.48073e-09
-1.59331e-10
-2.4057e-09
-1.40951e-10
-2.33971e-09
-1.23499e-10
-2.28225e-09
-1.07046e-10
-2.2328e-09
-9.16644e-11
-2.1908e-09
-7.74289e-11
-2.15564e-09
-6.44151e-11
-2.12668e-09
-5.27002e-11
-2.10323e-09
-4.2362e-11
-2.08457e-09
-3.34792e-11
-2.06995e-09
-2.61304e-11
-2.05856e-09
-2.03942e-11
-2.04956e-09
-1.63484e-11
-2.04208e-09
-1.40695e-11
-2.03521e-09
-1.36323e-11
-2.028e-09
-1.51085e-11
-2.01947e-09
-1.85663e-11
-2.00862e-09
-2.40688e-11
-1.9944e-09
-3.16729e-11
-1.97577e-09
-4.14267e-11
-1.95165e-09
-5.33676e-11
-1.92097e-09
-6.75181e-11
-1.88265e-09
-8.38822e-11
-1.83565e-09
-1.02438e-10
-1.77893e-09
-1.23129e-10
-1.71154e-09
-1.45853e-10
-1.63261e-09
-1.70442e-10
-1.5414e-09
-1.9664e-10
-1.43735e-09
-2.24063e-10
-1.32018e-09
-2.52147e-10
-1.18999e-09
-2.80067e-10
-1.04739e-09
-3.06619e-10
-8.93693e-10
-3.30044e-10
-7.31218e-10
-3.47763e-10
-5.63587e-10
-3.56e-10
-3.9617e-10
-3.49263e-10
-2.36523e-10
-3.19699e-10
-9.49887e-11
-2.56635e-10
1.39808e-11
-1.47016e-10
6.13412e-11
2.08001e-11
2.06063e-10
1.03229e-09
1.79202e-12
-3.20325e-09
1.41906e-09
3.50153e-13
-2.41441e-09
1.44873e-09
5.66722e-14
-1.47661e-09
1.26008e-09
-6.21325e-15
-5.46479e-10
8.96563e-10
-8.27436e-15
3.14183e-10
3.77806e-10
-1.40835e-15
1.07235e-09
-2.81939e-10
2.26241e-15
1.71917e-09
-1.06795e-09
2.91521e-15
2.2592e-09
-1.96452e-09
2.3473e-15
2.70299e-09
-2.95587e-09
1.56024e-15
3.06297e-09
-4.027e-09
8.43931e-16
3.35122e-09
-5.16414e-09
2.42453e-16
3.57868e-09
-6.35471e-09
-2.45198e-16
3.755e-09
-7.58728e-09
-6.22774e-16
3.88852e-09
-8.85175e-09
-8.58279e-16
3.98605e-09
-1.01393e-08
-8.73339e-16
4.05321e-09
-1.14421e-08
-5.94308e-16
4.09463e-09
-1.27535e-08
-4.68288e-17
4.11414e-09
-1.40676e-08
5.67112e-16
4.11492e-09
-1.53791e-08
8.59737e-16
4.09961e-09
-1.66837e-08
3.40646e-16
4.07042e-09
-1.79772e-08
-1.4039e-15
4.0292e-09
-1.92563e-08
-4.46781e-15
3.97752e-09
-2.05177e-08
-8.41194e-15
3.91673e-09
-2.17588e-08
-1.2226e-14
3.84794e-09
-2.29772e-08
-1.45996e-14
3.77213e-09
-2.41706e-08
-1.45198e-14
3.69013e-09
-2.53372e-08
-1.20613e-14
3.60268e-09
-2.64755e-08
-9.08724e-15
3.51039e-09
-2.75839e-08
-9.38176e-15
3.4138e-09
-2.86614e-08
-1.74062e-14
3.31335e-09
-2.97066e-08
-3.50036e-14
3.20945e-09
-3.07188e-08
-5.73666e-14
3.10249e-09
-3.16971e-08
-7.35247e-14
2.99287e-09
-3.26412e-08
-7.71443e-14
2.88107e-09
-3.35511e-08
-8.22646e-14
2.76771e-09
-3.44268e-08
-1.22579e-13
2.65386e-09
-3.52681e-08
-2.20214e-13
2.54152e-09
-3.60723e-08
-3.38214e-13
2.43402e-09
-3.68324e-08
-3.57758e-13
2.33424e-09
-3.75449e-08
-4.28348e-13
2.23949e-09
-3.82259e-08
-4.84296e-13
2.12991e-09
-3.88973e-08
-1.26786e-13
1.99683e-09
-3.95456e-08
1.14461e-12
1.86856e-09
-4.01368e-08
3.94384e-12
1.76877e-09
-4.06404e-08
7.65563e-12
1.66758e-09
-4.11631e-08
-2.63798e-13
1.53772e-09
-4.16819e-08
-7.26745e-12
1.4207e-09
-4.21059e-08
8.16983e-13
1.32889e-09
-4.24483e-08
7.73226e-12
1.22624e-09
-4.27583e-08
1.30759e-12
1.09575e-09
-4.31669e-08
-2.59251e-11
9.3087e-10
-4.34799e-08
-2.6613e-11
8.3639e-10
-4.36973e-08
-2.31247e-12
7.60571e-10
-4.39019e-08
3.54443e-12
6.49074e-10
-4.40977e-08
7.50202e-12
5.31409e-10
-4.42383e-08
1.11729e-11
4.39884e-10
-4.43177e-08
5.02407e-12
3.46361e-10
-4.4386e-08
1.43478e-12
2.23675e-10
-4.44277e-08
2.17571e-12
1.17778e-10
-4.4448e-08
3.1703e-12
1.40184e-11
-4.44534e-08
2.16653e-12
-9.24292e-11
-4.43804e-08
1.97483e-12
-1.55213e-10
-4.42725e-08
6.08498e-14
-2.44059e-10
-4.41519e-08
1.01379e-12
-3.47913e-10
-4.40187e-08
2.54528e-12
-4.48018e-10
-4.38224e-08
1.99381e-12
-5.40459e-10
-4.36025e-08
-8.6637e-12
-6.12633e-10
-4.33881e-08
-1.91809e-11
-6.94068e-10
-4.31382e-08
-1.19282e-11
-7.86941e-10
-4.28699e-08
1.20572e-12
-8.53817e-10
-4.25512e-08
9.50474e-12
-9.01537e-10
-4.22001e-08
9.53859e-12
-9.65275e-10
-4.18534e-08
6.27871e-12
-1.05641e-09
-4.1488e-08
4.20387e-12
-1.12421e-09
-4.10856e-08
1.70019e-12
-1.18147e-09
-4.06574e-08
3.62585e-13
-1.24324e-09
-4.02224e-08
-1.39619e-13
-1.31138e-09
-3.97757e-08
-6.85033e-13
-1.36716e-09
-3.93064e-08
-1.34734e-12
-1.41023e-09
-3.88222e-08
-1.60585e-12
-1.4578e-09
-3.83242e-08
-1.04193e-12
-1.49873e-09
-3.78091e-08
-5.98787e-13
-1.5337e-09
-3.72784e-08
-3.89923e-13
-1.5687e-09
-3.67352e-08
-2.36235e-13
-1.60597e-09
-3.61809e-08
-1.39911e-13
-1.6441e-09
-3.56161e-08
-9.19707e-14
-1.6812e-09
-3.50412e-08
-6.64183e-14
-1.71606e-09
-3.44565e-08
-4.95874e-14
-1.74811e-09
-3.38627e-08
-3.72259e-14
-1.77722e-09
-3.32605e-08
-2.80324e-14
-1.80341e-09
-3.26506e-08
-2.10619e-14
-1.82679e-09
-3.20339e-08
-1.55918e-14
-1.84749e-09
-3.1411e-08
-1.13699e-14
-1.86559e-09
-3.07829e-08
-8.39055e-15
-1.88118e-09
-3.01502e-08
-6.50469e-15
-1.89436e-09
-2.95137e-08
-5.30622e-15
-1.9052e-09
-2.88741e-08
-4.32343e-15
-1.91375e-09
-2.82322e-08
-3.26326e-15
-1.92009e-09
-2.75886e-08
-2.10399e-15
-1.92428e-09
-2.6944e-08
-1.01407e-15
-1.92637e-09
-2.62992e-08
-1.98298e-16
-1.92643e-09
-2.56547e-08
2.26479e-16
-1.92452e-09
-2.50113e-08
2.78181e-16
-1.92068e-09
-2.43695e-08
8.48814e-17
-1.91499e-09
-2.37299e-08
-1.8022e-16
-1.90749e-09
-2.30931e-08