/*--------------------------------*- C++ -*----------------------------------*\
  =========                 |
  \\      /  F ield         | OpenFOAM: The Open Source CFD Toolbox
   \\    /   O peration     | Website:  https://openfoam.org
    \\  /    A nd           | Version:  8
     \\/     M anipulation  |
\*---------------------------------------------------------------------------*/
FoamFile
{
    version     2.0;
    format      ascii;
    class       volScalarField;
    location    "4900";
    object      T;
}
// * * * * * * * * * * * * * * * * * * * * * * * * * * * * * * * * * * * * * //

dimensions      [0 0 0 1 0 0 0];

internalField   nonuniform List<scalar> 
46000
(
309.477
308.281
307.498
306.997
306.638
306.354
306.117
305.913
305.733
305.571
305.424
305.289
305.164
305.048
304.94
304.838
304.742
304.652
304.566
304.484
304.407
304.334
304.264
304.197
304.134
304.073
304.016
303.961
303.908
303.859
303.811
303.766
303.724
303.684
303.647
303.613
303.582
303.557
303.537
303.525
303.518
303.51
303.497
303.481
303.472
303.483
303.562
303.466
303.454
303.47
303.579
303.549
303.427
303.41
303.4
303.388
303.383
303.399
303.404
303.395
303.376
303.346
303.327
303.33
303.309
303.305
303.288
303.361
303.266
303.242
303.224
303.215
303.207
303.198
303.187
303.179
303.173
303.164
303.149
303.134
303.123
303.117
303.116
303.119
303.125
303.133
303.143
303.153
303.165
303.178
303.191
303.205
303.22
303.235
303.251
303.268
303.285
303.303
303.322
303.341
303.36
303.38
303.401
303.423
303.444
303.467
303.49
303.513
303.537
303.562
303.587
303.613
303.639
303.666
303.693
303.72
303.749
303.777
303.806
303.836
303.866
303.897
303.928
303.959
303.991
304.024
304.057
304.091
304.125
304.159
304.194
304.229
304.265
304.302
304.339
304.376
304.414
304.452
304.491
304.531
304.571
304.611
304.652
304.694
304.736
304.778
304.821
304.865
304.909
304.954
304.999
305.045
305.092
305.139
305.187
305.235
305.284
305.334
305.384
305.435
305.486
305.539
305.592
305.646
305.7
305.756
305.812
305.869
305.927
305.986
306.046
306.108
306.17
306.234
306.299
306.366
306.435
306.505
306.578
306.653
306.73
306.81
306.894
306.981
307.073
307.17
307.273
307.382
307.5
307.628
307.769
307.924
308.099
308.301
308.539
308.829
309.201
309.705
310.407
311.148
309.477
308.281
307.498
306.997
306.638
306.354
306.117
305.913
305.733
305.571
305.424
305.289
305.164
305.048
304.94
304.838
304.742
304.652
304.566
304.484
304.407
304.334
304.264
304.197
304.134
304.073
304.016
303.961
303.908
303.859
303.811
303.766
303.724
303.684
303.647
303.612
303.582
303.555
303.534
303.519
303.507
303.494
303.479
303.466
303.46
303.464
303.489
303.53
303.543
303.524
303.485
303.459
303.557
303.538
303.432
303.48
303.374
303.351
303.341
303.338
303.339
303.327
303.306
303.292
303.286
303.271
303.262
303.257
303.282
303.36
303.375
303.324
303.244
303.227
303.224
303.22
303.213
303.2
303.18
303.155
303.133
303.122
303.118
303.12
303.125
303.133
303.143
303.153
303.165
303.178
303.191
303.205
303.22
303.235
303.251
303.268
303.285
303.303
303.322
303.341
303.36
303.38
303.401
303.423
303.444
303.467
303.49
303.513
303.537
303.562
303.587
303.613
303.639
303.666
303.693
303.72
303.749
303.777
303.806
303.836
303.866
303.897
303.928
303.959
303.991
304.024
304.057
304.091
304.125
304.159
304.194
304.229
304.265
304.302
304.339
304.376
304.414
304.452
304.491
304.531
304.571
304.611
304.652
304.694
304.736
304.778
304.821
304.865
304.909
304.954
304.999
305.045
305.092
305.139
305.187
305.235
305.284
305.334
305.384
305.435
305.486
305.539
305.592
305.646
305.7
305.756
305.812
305.869
305.927
305.986
306.046
306.108
306.17
306.234
306.299
306.366
306.435
306.505
306.578
306.653
306.73
306.81
306.894
306.982
307.073
307.17
307.273
307.383
307.5
307.628
307.769
307.924
308.099
308.301
308.539
308.829
309.201
309.705
310.407
311.148
306.109
305.749
305.439
305.19
304.987
304.815
304.667
304.535
304.416
304.307
304.206
304.112
304.024
303.942
303.864
303.79
303.72
303.653
303.589
303.529
303.471
303.415
303.362
303.311
303.263
303.216
303.172
303.129
303.088
303.049
303.012
302.976
302.943
302.911
302.88
302.852
302.826
302.803
302.783
302.767
302.754
302.74
302.725
302.708
302.692
302.674
302.644
302.651
302.641
302.624
302.588
302.576
302.587
302.581
302.572
302.559
302.551
302.543
302.533
302.523
302.51
302.496
302.484
302.473
302.464
302.451
302.439
302.415
302.428
302.422
302.415
302.411
302.407
302.402
302.395
302.389
302.383
302.375
302.367
302.36
302.354
302.35
302.349
302.35
302.352
302.355
302.359
302.365
302.37
302.377
302.384
302.391
302.399
302.408
302.417
302.426
302.436
302.446
302.457
302.469
302.48
302.493
302.505
302.518
302.532
302.546
302.56
302.575
302.59
302.606
302.622
302.639
302.656
302.674
302.692
302.71
302.729
302.748
302.768
302.788
302.809
302.83
302.851
302.873
302.895
302.918
302.941
302.965
302.989
303.014
303.039
303.065
303.091
303.117
303.144
303.171
303.199
303.228
303.256
303.286
303.315
303.346
303.376
303.407
303.439
303.471
303.504
303.537
303.57
303.604
303.639
303.674
303.709
303.745
303.781
303.818
303.856
303.894
303.932
303.971
304.01
304.05
304.09
304.131
304.173
304.215
304.257
304.3
304.344
304.389
304.434
304.48
304.526
304.574
304.623
304.672
304.723
304.775
304.828
304.883
304.94
304.998
305.059
305.123
305.19
305.261
305.336
305.416
305.502
305.596
305.699
305.814
305.944
306.094
306.271
306.485
306.753
307.102
307.572
308.161
306.109
305.749
305.439
305.19
304.987
304.815
304.667
304.535
304.416
304.307
304.206
304.112
304.024
303.942
303.864
303.79
303.72
303.653
303.589
303.529
303.471
303.415
303.362
303.311
303.263
303.216
303.172
303.129
303.088
303.049
303.012
302.976
302.943
302.911
302.88
302.852
302.826
302.802
302.782
302.764
302.749
302.733
302.718
302.703
302.689
302.676
302.664
302.653
302.641
302.626
302.608
302.592
302.561
302.552
302.559
302.534
302.543
302.535
302.525
302.516
302.508
302.497
302.483
302.471
302.461
302.451
302.442
302.434
302.427
302.413
302.406
302.403
302.409
302.409
302.406
302.401
302.395
302.387
302.376
302.365
302.356
302.351
302.349
302.35
302.352
302.355
302.359
302.365
302.37
302.377
302.384
302.391
302.399
302.408
302.417
302.426
302.436
302.446
302.457
302.469
302.48
302.493
302.505
302.518
302.532
302.546
302.56
302.575
302.59
302.606
302.622
302.639
302.656
302.674
302.692
302.71
302.729
302.748
302.768
302.788
302.809
302.83
302.851
302.873
302.895
302.918
302.941
302.965
302.989
303.014
303.039
303.065
303.091
303.117
303.144
303.171
303.199
303.228
303.256
303.286
303.315
303.346
303.376
303.407
303.439
303.471
303.504
303.537
303.57
303.604
303.639
303.674
303.709
303.745
303.781
303.818
303.856
303.894
303.932
303.971
304.01
304.05
304.09
304.131
304.173
304.215
304.257
304.3
304.344
304.389
304.434
304.48
304.526
304.574
304.623
304.672
304.723
304.775
304.828
304.883
304.94
304.998
305.059
305.123
305.19
305.261
305.336
305.416
305.502
305.596
305.699
305.814
305.944
306.094
306.271
306.485
306.753
307.102
307.572
308.161
304.702
304.632
304.502
304.365
304.234
304.114
304.004
303.902
303.808
303.72
303.637
303.559
303.485
303.415
303.349
303.285
303.225
303.167
303.111
303.058
303.007
302.958
302.911
302.866
302.823
302.782
302.742
302.704
302.667
302.632
302.598
302.566
302.535
302.506
302.478
302.452
302.427
302.404
302.382
302.362
302.343
302.325
302.307
302.29
302.273
302.255
302.234
302.225
302.211
302.194
302.172
302.158
302.151
302.141
302.129
302.116
302.105
302.092
302.08
302.069
302.058
302.049
302.041
302.03
302.023
302.013
302.006
301.994
301.993
301.988
301.984
301.98
301.976
301.971
301.967
301.962
301.957
301.953
301.949
301.947
301.945
301.944
301.944
301.944
301.946
301.948
301.951
301.954
301.958
301.962
301.967
301.972
301.978
301.984
301.991
301.998
302.005
302.013
302.022
302.03
302.039
302.049
302.059
302.07
302.08
302.092
302.103
302.115
302.128
302.141
302.154
302.168
302.182
302.197
302.212
302.228
302.244
302.26
302.277
302.294
302.312
302.33
302.349
302.368
302.387
302.407
302.427
302.448
302.469
302.491
302.513
302.536
302.559
302.582
302.606
302.631
302.656
302.681
302.707
302.733
302.76
302.787
302.815
302.843
302.872
302.901
302.93
302.96
302.991
303.021
303.053
303.085
303.117
303.15
303.183
303.216
303.25
303.285
303.32
303.355
303.391
303.427
303.464
303.501
303.539
303.577
303.615
303.654
303.694
303.734
303.774
303.816
303.858
303.9
303.944
303.988
304.033
304.079
304.126
304.175
304.225
304.277
304.33
304.386
304.444
304.505
304.57
304.639
304.712
304.792
304.878
304.974
305.08
305.2
305.336
305.495
305.68
305.897
306.149
306.415
304.702
304.632
304.502
304.365
304.234
304.114
304.004
303.902
303.808
303.72
303.637
303.559
303.485
303.415
303.349
303.285
303.225
303.167
303.111
303.058
303.007
302.958
302.911
302.866
302.823
302.782
302.742
302.704
302.667
302.632
302.598
302.566
302.535
302.506
302.478
302.451
302.427
302.403
302.382
302.361
302.342
302.324
302.306
302.29
302.273
302.256
302.237
302.218
302.202
302.187
302.173
302.161
302.144
302.131
302.124
302.109
302.103
302.094
302.083
302.073
302.062
302.051
302.042
302.032
302.023
302.015
302.008
302.001
301.992
301.979
301.972
301.97
301.972
301.97
301.966
301.962
301.957
301.952
301.948
301.945
301.944
301.943
301.943
301.944
301.946
301.948
301.951
301.954
301.958
301.962
301.967
301.972
301.978
301.984
301.991
301.998
302.005
302.013
302.022
302.03
302.039
302.049
302.059
302.07
302.08
302.092
302.103
302.115
302.128
302.141
302.154
302.168
302.182
302.197
302.212
302.228
302.244
302.26
302.277
302.294
302.312
302.33
302.349
302.368
302.387
302.407
302.427
302.448
302.469
302.491
302.513
302.536
302.559
302.582
302.606
302.631
302.656
302.681
302.707
302.733
302.76
302.787
302.815
302.843
302.872
302.901
302.93
302.96
302.991
303.021
303.053
303.085
303.117
303.15
303.183
303.216
303.25
303.285
303.32
303.355
303.391
303.427
303.464
303.501
303.539
303.577
303.615
303.654
303.694
303.734
303.775
303.816
303.858
303.9
303.944
303.988
304.033
304.079
304.126
304.175
304.225
304.277
304.33
304.386
304.444
304.505
304.57
304.639
304.712
304.792
304.878
304.974
305.08
305.2
305.336
305.495
305.68
305.897
306.149
306.415
303.971
303.967
303.91
303.831
303.744
303.657
303.572
303.491
303.413
303.339
303.268
303.201
303.136
303.074
303.015
302.958
302.903
302.851
302.8
302.752
302.705
302.66
302.617
302.575
302.535
302.496
302.459
302.424
302.389
302.356
302.325
302.294
302.265
302.237
302.211
302.185
302.161
302.138
302.116
302.094
302.073
302.054
302.035
302.017
302
301.982
301.965
301.95
301.934
301.918
301.902
301.887
301.875
301.861
301.848
301.836
301.824
301.812
301.8
301.789
301.779
301.77
301.762
301.753
301.745
301.737
301.731
301.723
301.717
301.712
301.707
301.702
301.697
301.693
301.689
301.685
301.681
301.678
301.676
301.675
301.675
301.675
301.675
301.676
301.677
301.679
301.681
301.684
301.686
301.69
301.694
301.698
301.702
301.707
301.713
301.719
301.725
301.732
301.739
301.746
301.754
301.762
301.771
301.78
301.79
301.8
301.81
301.821
301.832
301.844
301.856
301.868
301.881
301.894
301.908
301.922
301.937
301.951
301.967
301.983
301.999
302.016
302.033
302.05
302.069
302.087
302.106
302.125
302.145
302.165
302.186
302.207
302.229
302.251
302.273
302.296
302.32
302.344
302.368
302.393
302.418
302.444
302.47
302.497
302.524
302.551
302.579
302.608
302.637
302.666
302.696
302.726
302.757
302.788
302.819
302.851
302.883
302.916
302.949
302.983
303.017
303.051
303.086
303.121
303.156
303.192
303.229
303.266
303.303
303.341
303.379
303.418
303.457
303.497
303.537
303.579
303.621
303.663
303.707
303.752
303.798
303.846
303.895
303.945
303.998
304.053
304.111
304.172
304.237
304.307
304.382
304.463
304.551
304.648
304.754
304.871
304.999
305.133
305.267
305.381
303.971
303.967
303.91
303.831
303.744
303.657
303.572
303.491
303.413
303.339
303.268
303.201
303.136
303.074
303.015
302.958
302.903
302.851
302.8
302.752
302.705
302.66
302.617
302.575
302.535
302.496
302.459
302.424
302.389
302.356
302.325
302.294
302.265
302.237
302.211
302.185
302.161
302.138
302.116
302.094
302.074
302.054
302.035
302.018
302
301.983
301.965
301.947
301.93
301.915
301.901
301.888
301.874
301.86
301.848
301.835
301.824
301.813
301.802
301.791
301.781
301.771
301.762
301.754
301.746
301.738
301.731
301.724
301.717
301.709
301.703
301.699
301.696
301.692
301.687
301.683
301.679
301.676
301.674
301.674
301.674
301.674
301.675
301.676
301.677
301.679
301.681
301.684
301.686
301.69
301.694
301.698
301.702
301.707
301.713
301.719
301.725
301.732
301.739
301.746
301.754
301.762
301.771
301.78
301.79
301.8
301.81
301.821
301.832
301.844
301.856
301.868
301.881
301.894
301.908
301.922
301.937
301.951
301.967
301.983
301.999
302.016
302.033
302.05
302.069
302.087
302.106
302.125
302.145
302.165
302.186
302.207
302.229
302.251
302.273
302.296
302.32
302.344
302.368
302.393
302.418
302.444
302.47
302.497
302.524
302.551
302.579
302.608
302.637
302.666
302.696
302.726
302.757
302.788
302.819
302.851
302.883
302.916
302.949
302.983
303.017
303.051
303.086
303.121
303.156
303.192
303.229
303.266
303.303
303.341
303.379
303.418
303.457
303.497
303.537
303.579
303.621
303.663
303.707
303.752
303.798
303.846
303.895
303.945
303.998
304.053
304.111
304.173
304.237
304.307
304.382
304.463
304.551
304.648
304.754
304.871
304.999
305.133
305.267
305.381
303.502
303.511
303.483
303.435
303.375
303.311
303.245
303.179
303.114
303.051
302.99
302.93
302.873
302.817
302.763
302.711
302.661
302.613
302.566
302.521
302.478
302.436
302.395
302.356
302.319
302.282
302.247
302.213
302.18
302.149
302.119
302.09
302.062
302.035
302.009
301.984
301.961
301.938
301.916
301.894
301.873
301.853
301.834
301.815
301.798
301.78
301.764
301.747
301.731
301.716
301.701
301.686
301.672
301.659
301.646
301.633
301.621
301.61
301.598
301.588
301.578
301.569
301.56
301.552
301.544
301.536
301.529
301.522
301.516
301.51
301.505
301.5
301.495
301.49
301.486
301.483
301.48
301.477
301.476
301.475
301.474
301.474
301.475
301.475
301.476
301.478
301.479
301.481
301.484
301.486
301.489
301.493
301.497
301.501
301.506
301.511
301.516
301.522
301.529
301.535
301.542
301.55
301.558
301.566
301.575
301.584
301.593
301.603
301.614
301.624
301.636
301.647
301.659
301.672
301.684
301.698
301.711
301.725
301.74
301.755
301.77
301.786
301.802
301.819
301.836
301.854
301.872
301.89
301.909
301.928
301.948
301.969
301.989
302.01
302.032
302.054
302.077
302.099
302.123
302.147
302.171
302.196
302.221
302.247
302.273
302.299
302.326
302.354
302.381
302.41
302.438
302.468
302.497
302.527
302.557
302.588
302.619
302.651
302.683
302.715
302.747
302.78
302.814
302.848
302.882
302.916
302.951
302.986
303.022
303.058
303.095
303.131
303.169
303.207
303.245
303.284
303.324
303.364
303.405
303.447
303.49
303.534
303.58
303.627
303.675
303.725
303.778
303.833
303.89
303.951
304.016
304.085
304.158
304.236
304.319
304.405
304.493
304.577
304.65
304.701
303.502
303.511
303.483
303.435
303.375
303.311
303.245
303.179
303.114
303.051
302.99
302.93
302.873
302.817
302.763
302.711
302.661
302.613
302.566
302.521
302.478
302.436
302.395
302.356
302.319
302.282
302.247
302.213
302.18
302.149
302.119
302.09
302.062
302.035
302.009
301.984
301.961
301.938
301.916
301.894
301.873
301.854
301.834
301.816
301.798
301.781
301.764
301.747
301.73
301.715
301.7
301.686
301.672
301.659
301.646
301.633
301.622
301.61
301.599
301.589
301.579
301.569
301.56
301.552
301.544
301.536
301.529
301.522
301.516
301.51
301.504
301.499
301.494
301.49
301.485
301.482
301.478
301.476
301.474
301.474
301.474
301.474
301.475
301.475
301.476
301.478
301.479
301.481
301.484
301.486
301.489
301.493
301.497
301.501
301.506
301.511
301.516
301.522
301.529
301.535
301.542
301.55
301.558
301.566
301.575
301.584
301.593
301.603
301.614
301.624
301.636
301.647
301.659
301.672
301.684
301.698
301.711
301.725
301.74
301.755
301.77
301.786
301.802
301.819
301.836
301.854
301.872
301.89
301.909
301.928
301.948
301.969
301.989
302.01
302.032
302.054
302.077
302.099
302.123
302.147
302.171
302.196
302.221
302.247
302.273
302.299
302.326
302.354
302.381
302.41
302.438
302.468
302.497
302.527
302.557
302.588
302.619
302.651
302.683
302.715
302.747
302.78
302.814
302.848
302.882
302.916
302.951
302.986
303.022
303.058
303.095
303.131
303.169
303.207
303.245
303.284
303.324
303.364
303.405
303.447
303.49
303.534
303.58
303.627
303.675
303.725
303.778
303.833
303.89
303.951
304.016
304.085
304.158
304.236
304.319
304.405
304.493
304.577
304.65
304.701
303.16
303.169
303.154
303.122
303.079
303.03
302.978
302.924
302.869
302.815
302.761
302.709
302.657
302.607
302.558
302.511
302.464
302.42
302.376
302.334
302.293
302.254
302.216
302.179
302.143
302.108
302.075
302.042
302.011
301.981
301.952
301.924
301.897
301.871
301.846
301.821
301.798
301.776
301.754
301.732
301.712
301.692
301.673
301.654
301.636
301.619
301.602
301.586
301.57
301.554
301.539
301.525
301.511
301.498
301.485
301.473
301.461
301.449
301.438
301.428
301.418
301.409
301.4
301.391
301.383
301.376
301.369
301.362
301.355
301.35
301.344
301.339
301.334
301.33
301.326
301.322
301.319
301.317
301.315
301.314
301.313
301.313
301.313
301.314
301.314
301.315
301.316
301.318
301.32
301.322
301.325
301.328
301.331
301.335
301.339
301.344
301.349
301.354
301.36
301.366
301.373
301.38
301.387
301.395
301.403
301.411
301.42
301.43
301.439
301.45
301.46
301.471
301.482
301.494
301.506
301.519
301.532
301.545
301.559
301.574
301.588
301.604
301.619
301.635
301.652
301.669
301.686
301.704
301.722
301.741
301.76
301.779
301.799
301.82
301.841
301.862
301.884
301.906
301.929
301.952
301.975
302
302.024
302.049
302.074
302.1
302.126
302.153
302.18
302.207
302.235
302.263
302.292
302.321
302.35
302.38
302.41
302.441
302.472
302.503
302.535
302.567
302.599
302.632
302.665
302.698
302.732
302.766
302.8
302.835
302.87
302.905
302.941
302.977
303.014
303.051
303.088
303.127
303.165
303.205
303.245
303.287
303.329
303.372
303.417
303.463
303.51
303.56
303.611
303.665
303.721
303.779
303.84
303.902
303.967
304.031
304.092
304.146
304.188
304.211
303.16
303.169
303.154
303.122
303.079
303.03
302.978
302.924
302.869
302.815
302.761
302.709
302.657
302.607
302.558
302.511
302.464
302.42
302.376
302.334
302.293
302.254
302.216
302.179
302.143
302.108
302.075
302.042
302.011
301.981
301.952
301.924
301.897
301.871
301.846
301.821
301.798
301.776
301.754
301.733
301.712
301.692
301.673
301.654
301.636
301.619
301.602
301.586
301.57
301.554
301.539
301.525
301.511
301.498
301.485
301.473
301.461
301.45
301.439
301.428
301.418
301.409
301.4
301.392
301.383
301.376
301.369
301.362
301.356
301.349
301.344
301.339
301.334
301.329
301.325
301.322
301.319
301.316
301.315
301.314
301.313
301.313
301.313
301.314
301.314
301.315
301.316
301.318
301.32
301.322
301.325
301.328
301.331
301.335
301.339
301.344
301.349
301.354
301.36
301.366
301.373
301.38
301.387
301.395
301.403
301.411
301.42
301.43
301.439
301.45
301.46
301.471
301.482
301.494
301.506
301.519
301.532
301.545
301.559
301.574
301.588
301.604
301.619
301.635
301.652
301.669
301.686
301.704
301.722
301.741
301.76
301.779
301.799
301.82
301.841
301.862
301.884
301.906
301.929
301.952
301.975
302
302.024
302.049
302.074
302.1
302.126
302.153
302.18
302.207
302.235
302.263
302.292
302.321
302.35
302.38
302.41
302.441
302.472
302.503
302.535
302.567
302.599
302.632
302.665
302.698
302.732
302.766
302.8
302.835
302.87
302.905
302.941
302.977
303.014
303.051
303.088
303.127
303.165
303.205
303.245
303.287
303.329
303.372
303.417
303.463
303.51
303.56
303.611
303.665
303.721
303.779
303.84
303.902
303.967
304.031
304.092
304.146
304.188
304.211
302.89
302.898
302.887
302.864
302.832
302.794
302.752
302.707
302.66
302.613
302.566
302.519
302.473
302.427
302.382
302.339
302.296
302.254
302.214
302.174
302.136
302.098
302.062
302.027
301.993
301.96
301.928
301.897
301.867
301.838
301.81
301.782
301.756
301.731
301.706
301.683
301.66
301.638
301.616
301.595
301.575
301.555
301.536
301.518
301.5
301.483
301.466
301.45
301.434
301.419
301.404
301.39
301.376
301.363
301.35
301.338
301.326
301.315
301.304
301.294
301.284
301.274
301.266
301.257
301.249
301.241
301.234
301.227
301.221
301.215
301.209
301.204
301.199
301.195
301.191
301.187
301.184
301.182
301.18
301.179
301.178
301.177
301.177
301.177
301.177
301.178
301.179
301.18
301.182
301.184
301.186
301.189
301.192
301.195
301.199
301.203
301.208
301.213
301.218
301.224
301.23
301.236
301.243
301.25
301.258
301.266
301.275
301.284
301.293
301.302
301.313
301.323
301.334
301.345
301.357
301.369
301.382
301.394
301.408
301.422
301.436
301.451
301.466
301.481
301.497
301.514
301.53
301.548
301.565
301.583
301.602
301.621
301.641
301.66
301.681
301.702
301.723
301.744
301.767
301.789
301.812
301.836
301.859
301.884
301.908
301.933
301.959
301.985
302.011
302.038
302.065
302.093
302.121
302.149
302.178
302.207
302.236
302.266
302.296
302.326
302.357
302.388
302.419
302.451
302.483
302.515
302.548
302.581
302.614
302.647
302.681
302.715
302.749
302.784
302.819
302.855
302.891
302.927
302.964
303.001
303.039
303.078
303.117
303.157
303.198
303.241
303.284
303.328
303.374
303.421
303.469
303.519
303.569
303.62
303.67
303.717
303.761
303.797
303.822
303.832
302.89
302.898
302.887
302.864
302.832
302.794
302.752
302.707
302.66
302.613
302.566
302.519
302.473
302.427
302.382
302.339
302.296
302.254
302.214
302.174
302.136
302.098
302.062
302.027
301.993
301.96
301.928
301.897
301.867
301.838
301.81
301.782
301.756
301.731
301.706
301.683
301.66
301.638
301.616
301.595
301.575
301.556
301.537
301.518
301.5
301.483
301.466
301.45
301.434
301.419
301.404
301.39
301.376
301.363
301.35
301.338
301.326
301.315
301.304
301.294
301.284
301.274
301.266
301.257
301.249
301.241
301.234
301.227
301.221
301.215
301.209
301.204
301.199
301.195
301.191
301.187
301.184
301.182
301.18
301.179
301.178
301.177
301.177
301.177
301.177
301.178
301.179
301.18
301.182
301.184
301.186
301.189
301.192
301.195
301.199
301.203
301.208
301.213
301.218
301.224
301.23
301.236
301.243
301.25
301.258
301.266
301.275
301.284
301.293
301.302
301.313
301.323
301.334
301.345
301.357
301.369
301.382
301.394
301.408
301.422
301.436
301.451
301.466
301.481
301.497
301.514
301.53
301.548
301.565
301.583
301.602
301.621
301.641
301.66
301.681
301.702
301.723
301.744
301.767
301.789
301.812
301.836
301.859
301.884
301.908
301.933
301.959
301.985
302.011
302.038
302.065
302.093
302.121
302.149
302.178
302.207
302.236
302.266
302.296
302.326
302.357
302.388
302.419
302.451
302.483
302.515
302.548
302.581
302.614
302.647
302.681
302.715
302.749
302.784
302.819
302.855
302.891
302.927
302.964
303.001
303.039
303.078
303.117
303.157
303.198
303.241
303.284
303.328
303.374
303.421
303.469
303.519
303.569
303.62
303.67
303.717
303.761
303.797
303.822
303.832
302.667
302.672
302.664
302.646
302.621
302.59
302.555
302.517
302.477
302.435
302.394
302.352
302.31
302.268
302.227
302.187
302.147
302.108
302.07
302.033
301.997
301.961
301.927
301.894
301.861
301.829
301.799
301.769
301.74
301.712
301.684
301.658
301.633
301.608
301.584
301.561
301.539
301.517
301.496
301.475
301.455
301.436
301.417
301.399
301.381
301.364
301.347
301.331
301.316
301.301
301.286
301.272
301.258
301.245
301.233
301.221
301.209
301.198
301.187
301.177
301.167
301.158
301.149
301.14
301.132
301.124
301.117
301.11
301.104
301.098
301.092
301.087
301.082
301.077
301.074
301.07
301.067
301.064
301.062
301.061
301.059
301.058
301.058
301.058
301.058
301.058
301.059
301.06
301.061
301.063
301.065
301.067
301.07
301.073
301.076
301.08
301.084
301.089
301.094
301.099
301.105
301.111
301.118
301.125
301.132
301.14
301.148
301.156
301.165
301.174
301.184
301.194
301.205
301.216
301.227
301.239
301.251
301.263
301.276
301.29
301.303
301.318
301.332
301.347
301.363
301.379
301.395
301.412
301.429
301.447
301.465
301.484
301.503
301.522
301.542
301.562
301.583
301.604
301.626
301.648
301.67
301.693
301.717
301.74
301.764
301.789
301.814
301.839
301.865
301.891
301.918
301.945
301.972
302
302.028
302.056
302.085
302.114
302.143
302.173
302.203
302.233
302.263
302.294
302.325
302.357
302.388
302.42
302.452
302.484
302.517
302.55
302.583
302.616
302.65
302.684
302.718
302.753
302.788
302.823
302.859
302.895
302.932
302.969
303.007
303.046
303.085
303.125
303.165
303.207
303.248
303.29
303.332
303.373
303.412
303.449
303.48
303.504
303.519
303.523
302.667
302.672
302.664
302.646
302.621
302.59
302.555
302.517
302.477
302.435
302.394
302.352
302.31
302.268
302.227
302.187
302.147
302.108
302.07
302.033
301.997
301.961
301.927
301.894
301.861
301.829
301.799
301.769
301.74
301.712
301.684
301.658
301.633
301.608
301.584
301.561
301.539
301.517
301.496
301.475
301.455
301.436
301.417
301.399
301.381
301.364
301.347
301.331
301.316
301.301
301.286
301.272
301.258
301.245
301.233
301.221
301.209
301.198
301.187
301.177
301.167
301.158
301.149
301.14
301.132
301.124
301.117
301.11
301.104
301.098
301.092
301.087
301.082
301.077
301.073
301.07
301.067
301.064
301.062
301.061
301.059
301.058
301.058
301.058
301.058
301.058
301.059
301.06
301.061
301.063
301.065
301.067
301.07
301.073
301.076
301.08
301.084
301.089
301.094
301.099
301.105
301.111
301.118
301.125
301.132
301.14
301.148
301.156
301.165
301.174
301.184
301.194
301.205
301.216
301.227
301.239
301.251
301.263
301.276
301.29
301.303
301.318
301.332
301.347
301.363
301.379
301.395
301.412
301.429
301.447
301.465
301.484
301.503
301.522
301.542
301.562
301.583
301.604
301.626
301.648
301.67
301.693
301.717
301.74
301.764
301.789
301.814
301.839
301.865
301.891
301.918
301.945
301.972
302
302.028
302.056
302.085
302.114
302.143
302.173
302.203
302.233
302.263
302.294
302.325
302.357
302.388
302.42
302.452
302.484
302.517
302.55
302.583
302.616
302.65
302.684
302.718
302.753
302.788
302.823
302.859
302.895
302.932
302.969
303.007
303.046
303.085
303.125
303.165
303.207
303.248
303.29
303.332
303.373
303.412
303.449
303.48
303.504
303.519
303.523
302.476
302.478
302.471
302.456
302.435
302.41
302.38
302.347
302.312
302.276
302.239
302.201
302.163
302.125
302.087
302.05
302.013
301.976
301.941
301.906
301.871
301.838
301.805
301.773
301.742
301.712
301.682
301.653
301.625
301.598
301.572
301.546
301.522
301.497
301.474
301.451
301.43
301.408
301.387
301.367
301.348
301.329
301.31
301.292
301.275
301.258
301.241
301.225
301.21
301.195
301.181
301.167
301.153
301.14
301.128
301.116
301.104
301.093
301.083
301.072
301.063
301.053
301.044
301.036
301.027
301.02
301.012
301.006
300.999
300.993
300.987
300.982
300.977
300.973
300.969
300.965
300.962
300.959
300.957
300.955
300.953
300.952
300.951
300.951
300.951
300.951
300.951
300.952
300.953
300.954
300.956
300.958
300.961
300.964
300.967
300.97
300.974
300.979
300.983
300.988
300.994
301
301.006
301.012
301.019
301.027
301.035
301.043
301.051
301.06
301.07
301.079
301.089
301.1
301.111
301.122
301.134
301.146
301.159
301.172
301.185
301.199
301.214
301.228
301.243
301.259
301.275
301.291
301.308
301.326
301.343
301.361
301.38
301.399
301.418
301.438
301.459
301.479
301.501
301.522
301.544
301.567
301.589
301.613
301.636
301.66
301.685
301.71
301.735
301.761
301.787
301.813
301.84
301.867
301.894
301.922
301.95
301.978
302.007
302.036
302.065
302.095
302.124
302.154
302.185
302.215
302.246
302.277
302.308
302.339
302.37
302.402
302.434
302.466
302.498
302.531
302.564
302.597
302.63
302.663
302.697
302.731
302.765
302.8
302.835
302.87
302.906
302.942
302.978
303.014
303.05
303.086
303.121
303.154
303.185
303.213
303.236
303.253
303.262
303.262
302.476
302.478
302.471
302.456
302.435
302.41
302.38
302.347
302.312
302.276
302.239
302.201
302.163
302.125
302.087
302.05
302.013
301.976
301.941
301.906
301.871
301.838
301.805
301.773
301.742
301.712
301.682
301.653
301.625
301.598
301.572
301.546
301.522
301.497
301.474
301.451
301.43
301.408
301.387
301.367
301.348
301.329
301.31
301.292
301.275
301.258
301.241
301.225
301.21
301.195
301.181
301.167
301.153
301.14
301.128
301.116
301.104
301.093
301.083
301.072
301.063
301.053
301.044
301.036
301.028
301.02
301.012
301.006
300.999
300.993
300.987
300.982
300.977
300.973
300.969
300.965
300.962
300.959
300.957
300.955
300.953
300.952
300.951
300.951
300.951
300.951
300.951
300.952
300.953
300.954
300.956
300.958
300.961
300.964
300.967
300.97
300.974
300.979
300.983
300.988
300.994
301
301.006
301.012
301.019
301.027
301.035
301.043
301.051
301.06
301.07
301.079
301.089
301.1
301.111
301.122
301.134
301.146
301.159
301.172
301.185
301.199
301.214
301.228
301.243
301.259
301.275
301.291
301.308
301.326
301.343
301.361
301.38
301.399
301.418
301.438
301.459
301.479
301.501
301.522
301.544
301.567
301.589
301.613
301.636
301.66
301.685
301.71
301.735
301.761
301.787
301.813
301.84
301.867
301.894
301.922
301.95
301.978
302.007
302.036
302.065
302.095
302.124
302.154
302.185
302.215
302.246
302.277
302.308
302.339
302.37
302.402
302.434
302.466
302.498
302.531
302.564
302.597
302.63
302.663
302.697
302.731
302.765
302.8
302.835
302.87
302.906
302.942
302.978
303.014
303.05
303.086
303.121
303.154
303.185
303.213
303.236
303.253
303.262
303.262
302.309
302.308
302.302
302.289
302.271
302.249
302.223
302.194
302.163
302.131
302.098
302.063
302.029
301.994
301.959
301.924
301.89
301.856
301.822
301.789
301.756
301.724
301.693
301.663
301.633
301.604
301.575
301.548
301.521
301.494
301.469
301.444
301.42
301.396
301.374
301.351
301.33
301.309
301.289
301.269
301.25
301.231
301.213
301.195
301.178
301.161
301.145
301.129
301.114
301.099
301.085
301.071
301.058
301.045
301.033
301.021
301.009
300.998
300.988
300.977
300.968
300.958
300.949
300.941
300.933
300.925
300.917
300.911
300.904
300.898
300.892
300.887
300.882
300.877
300.873
300.869
300.866
300.863
300.861
300.859
300.857
300.855
300.854
300.854
300.853
300.853
300.853
300.854
300.855
300.856
300.857
300.859
300.862
300.864
300.867
300.87
300.874
300.878
300.883
300.887
300.893
300.898
300.904
300.91
300.917
300.924
300.932
300.94
300.948
300.956
300.966
300.975
300.985
300.995
301.006
301.017
301.028