/*--------------------------------*- C++ -*----------------------------------*\
  =========                 |
  \\      /  F ield         | OpenFOAM: The Open Source CFD Toolbox
   \\    /   O peration     | Website:  https://openfoam.org
    \\  /    A nd           | Version:  8
     \\/     M anipulation  |
\*---------------------------------------------------------------------------*/
FoamFile
{
    version     2.0;
    format      ascii;
    class       volVectorField;
    location    "4900";
    object      U;
}
// * * * * * * * * * * * * * * * * * * * * * * * * * * * * * * * * * * * * * //

dimensions      [0 1 -1 0 0 0 0];

internalField   nonuniform List<vector> 
46000
(
(0.00252328 -2.22076e-06 -0.0025646)
(0.0121036 -3.42847e-05 -0.00691455)
(0.0216053 -2.52698e-05 -0.00635683)
(0.0282085 -1.16293e-05 -0.00388106)
(0.0312963 -3.7648e-06 -0.00133972)
(0.0312757 -6.30153e-07 0.000834302)
(0.0286583 1.9796e-07 0.00257166)
(0.0239737 2.50062e-07 0.00391591)
(0.0176639 1.46797e-07 0.00494148)
(0.0100903 6.05765e-08 0.00572021)
(0.00153686 9.48463e-09 0.00630202)
(-0.00777377 -1.83571e-08 0.00671742)
(-0.0176257 -3.19697e-08 0.00700361)
(-0.0278937 -3.61327e-08 0.00719692)
(-0.0384534 -3.18731e-08 0.00731716)
(-0.0492112 -1.83594e-08 0.00737898)
(-0.060089 4.95315e-09 0.00739367)
(-0.0710221 3.50166e-08 0.00737008)
(-0.0819568 6.29545e-08 0.00731519)
(-0.0928478 7.42741e-08 0.00723455)
(-0.103657 5.15415e-08 0.00713263)
(-0.11435 -2.12126e-08 0.00701305)
(-0.124901 -1.52949e-07 0.00687873)
(-0.135285 -3.39859e-07 0.00673208)
(-0.145479 -5.6109e-07 0.00657511)
(-0.155467 -7.79485e-07 0.0064095)
(-0.165231 -9.51293e-07 0.00623672)
(-0.174757 -1.04724e-06 0.006058)
(-0.184034 -1.08231e-06 0.00587432)
(-0.193052 -1.14242e-06 0.00568633)
(-0.201799 -1.3832e-06 0.00549434)
(-0.210268 -1.96884e-06 0.00529832)
(-0.218447 -2.94235e-06 0.00509814)
(-0.226326 -4.09825e-06 0.0048936)
(-0.23389 -5.02584e-06 0.00468462)
(-0.241128 -5.4589e-06 0.00447219)
(-0.24803 -5.77215e-06 0.00426342)
(-0.254595 -7.0496e-06 0.00408905)
(-0.260857 -9.9528e-06 0.0040419)
(-0.266929 -1.20222e-05 0.0042703)
(-0.273132 -8.78971e-06 0.00465147)
(-0.2794 -1.4117e-05 0.00432575)
(-0.284817 2.76597e-06 0.0029936)
(-0.288942 1.09851e-05 0.0023874)
(-0.293106 -5.81421e-05 0.00382341)
(-0.297868 -0.000130204 0.0106761)
(-0.302275 0.000834917 0.00128805)
(-0.305734 0.00085505 -0.00507723)
(-0.309097 -7.93393e-05 0.00354326)
(-0.312925 -0.00074552 0.0115458)
(-0.316717 -0.00112214 0.0140643)
(-0.318476 0.00121009 -0.0140841)
(-0.319203 0.00080281 -0.00686861)
(-0.322138 -0.000242846 0.00225502)
(-0.324882 -0.000214707 0.000925654)
(-0.32522 -0.000314768 -0.000512339)
(-0.32578 -0.000664075 0.00171251)
(-0.327949 -0.000442078 0.00338221)
(-0.329436 -0.000120213 0.000683141)
(-0.329541 6.95273e-05 6.57344e-05)
(-0.329863 0.000169656 -0.000831803)
(-0.328526 0.000165752 -0.00277046)
(-0.327638 -0.00012811 0.00119232)
(-0.32808 2.46086e-05 0.000645827)
(-0.328001 5.36618e-06 -0.000308488)
(-0.326749 -4.808e-05 -0.000859082)
(-0.324832 -7.67768e-05 0.00482673)
(-0.32321 0.000445665 -0.000722801)
(-0.322826 0.00121781 -0.00833801)
(-0.320966 0.000918718 -0.00353859)
(-0.317828 0.000114212 -0.00262882)
(-0.315546 -0.000597222 -0.000768044)
(-0.314267 -0.00061998 -0.000431408)
(-0.311868 -0.000180409 -0.00236913)
(-0.30836 -6.42678e-05 -0.00248386)
(-0.30534 -8.36078e-06 -0.00174745)
(-0.302779 -1.15132e-05 -0.00146816)
(-0.29985 -8.39932e-06 -0.00229566)
(-0.296109 -4.95441e-06 -0.00292903)
(-0.292339 -5.23637e-05 -0.00266971)
(-0.288687 -3.82847e-05 -0.00259408)
(-0.284878 -2.56784e-05 -0.00252086)
(-0.28106 -2.34029e-05 -0.00241632)
(-0.277217 -1.7677e-05 -0.00238164)
(-0.273292 -1.29419e-05 -0.0024202)
(-0.269251 -9.74603e-06 -0.00249187)
(-0.265087 -7.59301e-06 -0.00256831)
(-0.260811 -5.954e-06 -0.00263786)
(-0.256435 -4.55939e-06 -0.00269844)
(-0.251972 -3.34647e-06 -0.00275099)
(-0.247434 -2.35243e-06 -0.00279686)
(-0.242831 -1.60916e-06 -0.00283727)
(-0.238173 -1.09763e-06 -0.00287311)
(-0.233468 -7.6712e-07 -0.00290492)
(-0.228722 -5.65474e-07 -0.00293297)
(-0.223942 -4.49472e-07 -0.00295735)
(-0.219133 -3.82046e-07 -0.00297809)
(-0.214302 -3.31636e-07 -0.00299522)
(-0.209453 -2.76897e-07 -0.00300879)
(-0.204592 -2.10743e-07 -0.00301889)
(-0.199725 -1.38749e-07 -0.0030256)
(-0.194858 -7.26416e-08 -0.00302902)
(-0.189996 -2.30626e-08 -0.00302926)
(-0.185144 5.05796e-09 -0.0030264)
(-0.180307 1.32777e-08 -0.00302053)
(-0.17549 7.84959e-09 -0.00301173)
(-0.170697 -3.26304e-09 -0.00300009)
(-0.165932 -1.30921e-08 -0.00298568)
(-0.161199 -1.74151e-08 -0.00296856)
(-0.156503 -1.52573e-08 -0.00294882)
(-0.151847 -8.365e-09 -0.00292652)
(-0.147236 6.16877e-11 -0.00290175)
(-0.142672 6.73757e-09 -0.00287458)
(-0.13816 9.44426e-09 -0.00284511)
(-0.133702 7.60028e-09 -0.00281341)
(-0.129302 2.22176e-09 -0.00277956)
(-0.124962 -4.67497e-09 -0.00274366)
(-0.120687 -1.08267e-08 -0.00270578)
(-0.116477 -1.44926e-08 -0.00266601)
(-0.112336 -1.49058e-08 -0.0026244)
(-0.108267 -1.23284e-08 -0.00258106)
(-0.104271 -7.82552e-09 -0.00253604)
(-0.100351 -2.78168e-09 -0.00248944)
(-0.096509 1.55226e-09 -0.00244132)
(-0.0927469 4.40191e-09 -0.00239176)
(-0.0890667 5.53125e-09 -0.00234085)
(-0.0854699 5.23202e-09 -0.00228864)
(-0.0819583 4.10502e-09 -0.00223522)
(-0.0785333 2.78624e-09 -0.00218066)
(-0.0751963 1.82367e-09 -0.00212503)
(-0.0719486 1.51729e-09 -0.00206839)
(-0.0687913 1.9506e-09 -0.00201081)
(-0.0657256 2.99388e-09 -0.00195237)
(-0.0627523 4.42069e-09 -0.00189313)
(-0.0598725 5.99116e-09 -0.00183317)
(-0.0570868 7.50697e-09 -0.00177255)
(-0.054396 8.84477e-09 -0.00171135)
(-0.0518005 9.96448e-09 -0.00164963)
(-0.0493009 1.0856e-08 -0.00158749)
(-0.0468975 1.15743e-08 -0.00152499)
(-0.0445905 1.21778e-08 -0.0014622)
(-0.0423802 1.26713e-08 -0.00139922)
(-0.0402664 1.31032e-08 -0.00133612)
(-0.0382491 1.34685e-08 -0.00127299)
(-0.0363281 1.37805e-08 -0.00120993)
(-0.034503 1.40309e-08 -0.00114702)
(-0.0327734 1.42195e-08 -0.00108437)
(-0.0311385 1.43616e-08 -0.00102209)
(-0.0295977 1.44636e-08 -0.000960268)
(-0.02815 1.45272e-08 -0.000899034)
(-0.0267942 1.45758e-08 -0.000838505)
(-0.0255292 1.46011e-08 -0.000778807)
(-0.0243535 1.46164e-08 -0.000720071)
(-0.0232654 1.46017e-08 -0.000662435)
(-0.0222632 1.45669e-08 -0.000606045)
(-0.0213447 1.4497e-08 -0.00055105)
(-0.0205078 1.43786e-08 -0.000497609)
(-0.0197499 1.42185e-08 -0.000445884)
(-0.0190684 1.40015e-08 -0.000396045)
(-0.0184602 1.37158e-08 -0.000348269)
(-0.0179222 1.33699e-08 -0.000302736)
(-0.0174509 1.29553e-08 -0.000259635)
(-0.0170426 1.24586e-08 -0.000219158)
(-0.0166932 1.19049e-08 -0.000181502)
(-0.0163984 1.13142e-08 -0.000146871)
(-0.0161537 1.06714e-08 -0.000115469)
(-0.0159542 1.00251e-08 -8.75046e-05)
(-0.0157946 9.36684e-09 -6.31903e-05)
(-0.0156696 8.70838e-09 -4.27388e-05)
(-0.0155732 8.05641e-09 -2.63638e-05)
(-0.0154993 7.37406e-09 -1.42788e-05)
(-0.0154416 6.61775e-09 -6.69612e-06)
(-0.0153934 5.74049e-09 -3.82509e-06)
(-0.0153474 4.69193e-09 -5.87098e-06)
(-0.0152966 3.41829e-09 -1.3033e-05)
(-0.0152332 1.92278e-09 -2.55018e-05)
(-0.0151493 2.28734e-10 -4.34569e-05)
(-0.0150368 -1.60361e-09 -6.7063e-05)
(-0.0148872 -3.49718e-09 -9.64649e-05)
(-0.0146921 -5.45206e-09 -0.000131781)
(-0.0144426 -7.47168e-09 -0.000173096)
(-0.0141299 -9.7073e-09 -0.000220446)
(-0.0137451 -1.22566e-08 -0.000273804)
(-0.0132793 -1.51736e-08 -0.00033305)
(-0.0127241 -1.83445e-08 -0.000397941)
(-0.0120711 -2.15814e-08 -0.000468051)
(-0.0113131 -2.46794e-08 -0.00054269)
(-0.0104438 -2.76015e-08 -0.000620781)
(-0.00945866 -3.04792e-08 -0.00070067)
(-0.00835612 -3.34644e-08 -0.000779823)
(-0.0071387 -3.64902e-08 -0.000854367)
(-0.00581539 -3.93283e-08 -0.000918347)
(-0.004405 -4.1932e-08 -0.000962567)
(-0.00294143 -4.47983e-08 -0.000972796)
(-0.00148202 -4.8571e-08 -0.000927148)
(-0.000119194 -5.34452e-08 -0.000792367)
(0.00100385 -5.85108e-08 -0.000523429)
(0.00166516 -6.11391e-08 -7.87832e-05)
(0.00163068 -4.45143e-08 0.000461064)
(0.000599724 -6.99009e-09 0.000641213)
(0.00247199 -2.22042e-06 -0.00251513)
(0.012071 -3.42786e-05 -0.00687345)
(0.0216148 -2.52686e-05 -0.00633739)
(0.0282221 -1.16292e-05 -0.0038743)
(0.0313036 -3.76479e-06 -0.00133808)
(0.0312784 -6.30151e-07 0.000834338)
(0.0286589 1.97959e-07 0.00257138)
(0.0239738 2.50061e-07 0.00391565)
(0.017664 1.46796e-07 0.00494128)
(0.0100905 6.05763e-08 0.00572005)
(0.00153708 9.4846e-09 0.00630188)
(-0.00777355 -1.8357e-08 0.00671729)
(-0.0176255 -3.19697e-08 0.00700349)
(-0.0278935 -3.61326e-08 0.00719681)
(-0.0384533 -3.18731e-08 0.00731705)
(-0.0492112 -1.83593e-08 0.00737887)
(-0.060089 4.95314e-09 0.00739357)
(-0.0710222 3.50165e-08 0.00736999)
(-0.081957 6.29544e-08 0.0073151)
(-0.092848 7.42739e-08 0.00723446)
(-0.103657 5.15414e-08 0.00713255)
(-0.114351 -2.12125e-08 0.00701296)
(-0.124902 -1.52949e-07 0.00687863)
(-0.135286 -3.39858e-07 0.00673199)
(-0.145481 -5.61089e-07 0.00657503)
(-0.155468 -7.79483e-07 0.00640946)
(-0.165233 -9.51291e-07 0.00623676)
(-0.174761 -1.04723e-06 0.00605815)
(-0.184039 -1.08231e-06 0.00587463)
(-0.193058 -1.14242e-06 0.00568687)
(-0.201808 -1.3832e-06 0.00549527)
(-0.210281 -1.96882e-06 0.00530011)
(-0.218466 -2.94229e-06 0.00510173)
(-0.226353 -4.09811e-06 0.00490078)
(-0.233931 -5.02551e-06 0.00469838)
(-0.241192 -5.45821e-06 0.00449727)
(-0.24813 -5.77077e-06 0.00430608)
(-0.254752 -7.04658e-06 0.0041517)
(-0.261087 -9.94577e-06 0.00409934)
(-0.267222 -1.201e-05 0.00420622)
(-0.273363 -8.77936e-06 0.00420724)
(-0.279116 -1.4102e-05 0.00345714)
(-0.283962 2.76268e-06 0.00287798)
(-0.288498 1.09491e-05 0.00318234)
(-0.293259 -5.73055e-05 0.00354009)
(-0.297497 -0.000112913 0.00351797)
(-0.301575 0.000524247 0.005722)
(-0.306699 0.000758415 0.00718358)
(-0.311231 -7.90137e-05 0.0025069)
(-0.314093 -0.00065036 0.000621311)
(-0.315252 -0.000595713 -0.00264231)
(-0.316275 0.000747526 0.0090191)
(-0.31966 0.0013693 0.0151185)
(-0.322675 -0.000474684 -0.0115419)
(-0.324279 -0.000293837 0.000607301)
(-0.325425 -0.000513275 -0.0010467)
(-0.326822 -0.000758306 -0.00761541)
(-0.327667 -0.000443393 -0.000630081)
(-0.327766 -0.000119358 -0.000482113)
(-0.328175 6.8906e-05 0.00141912)
(-0.329891 0.00016791 0.00217732)
(-0.330612 0.000163597 -0.000513621)
(-0.329 -0.000126245 -0.0021)
(-0.327834 2.43044e-05 -0.000223829)
(-0.327365 5.27579e-06 -0.000315788)
(-0.326537 -4.68983e-05 -0.00080284)
(-0.32482 -6.57103e-05 -0.00113624)
(-0.322436 0.000279399 -0.000501305)
(-0.321513 0.00111364 0.00604605)
(-0.321667 0.00101029 0.0076568)
(-0.320341 0.000128703 -0.0029564)
(-0.31621 -0.000652671 -0.0111318)
(-0.312437 -0.000644065 -0.00657964)
(-0.310359 -0.000183207 -0.0010759)
(-0.30851 -6.46918e-05 -0.00146678)
(-0.305831 -8.39524e-06 -0.00178904)
(-0.302931 -1.15576e-05 -0.00200942)
(-0.299754 -8.4312e-06 -0.0022572)
(-0.296453 -4.96976e-06 -0.0027461)
(-0.292512 -5.24898e-05 -0.00357973)
(-0.288238 -3.83676e-05 -0.00321651)
(-0.284372 -2.57219e-05 -0.00253859)
(-0.280749 -2.34277e-05 -0.00227812)
(-0.27704 -1.76869e-05 -0.00227771)
(-0.273193 -1.29452e-05 -0.00236698)
(-0.269194 -9.74711e-06 -0.00246826)
(-0.265053 -7.59335e-06 -0.00255851)
(-0.260789 -5.9541e-06 -0.00263392)
(-0.25642 -4.55942e-06 -0.00269684)
(-0.251961 -3.34648e-06 -0.00275027)
(-0.247426 -2.35244e-06 -0.00279652)
(-0.242826 -1.60916e-06 -0.00283718)
(-0.23817 -1.09763e-06 -0.00287322)
(-0.233466 -7.6712e-07 -0.00290516)
(-0.228721 -5.65473e-07 -0.00293325)
(-0.223941 -4.49472e-07 -0.0029576)
(-0.219133 -3.82046e-07 -0.00297826)
(-0.214301 -3.31636e-07 -0.00299531)
(-0.209452 -2.76897e-07 -0.00300883)
(-0.204591 -2.10743e-07 -0.00301889)
(-0.199725 -1.38749e-07 -0.00302559)
(-0.194858 -7.26416e-08 -0.00302901)
(-0.189996 -2.30626e-08 -0.00302926)
(-0.185144 5.05796e-09 -0.00302641)
(-0.180307 1.32777e-08 -0.00302055)
(-0.17549 7.84958e-09 -0.00301177)
(-0.170696 -3.26304e-09 -0.00300015)
(-0.165931 -1.30921e-08 -0.00298574)
(-0.161199 -1.74151e-08 -0.00296863)
(-0.156503 -1.52573e-08 -0.00294889)
(-0.151847 -8.365e-09 -0.0029266)
(-0.147236 6.16877e-11 -0.00290182)
(-0.142672 6.73756e-09 -0.00287464)
(-0.13816 9.44425e-09 -0.00284516)
(-0.133702 7.60027e-09 -0.00281345)
(-0.129302 2.22175e-09 -0.00277961)
(-0.124962 -4.67497e-09 -0.00274371)
(-0.120686 -1.08267e-08 -0.00270583)
(-0.116477 -1.44926e-08 -0.00266605)
(-0.112336 -1.49058e-08 -0.00262445)
(-0.108267 -1.23284e-08 -0.0025811)
(-0.104271 -7.82551e-09 -0.00253609)
(-0.100351 -2.78168e-09 -0.00248948)
(-0.0965088 1.55225e-09 -0.00244137)
(-0.0927468 4.40191e-09 -0.00239182)
(-0.0890665 5.53124e-09 -0.0023409)
(-0.0854698 5.23202e-09 -0.0022887)
(-0.0819582 4.10501e-09 -0.00223528)
(-0.0785332 2.78624e-09 -0.00218072)
(-0.0751962 1.82367e-09 -0.00212509)
(-0.0719485 1.51729e-09 -0.00206845)
(-0.0687912 1.9506e-09 -0.00201087)
(-0.0657254 2.99388e-09 -0.00195243)
(-0.0627522 4.42069e-09 -0.00189319)
(-0.0598724 5.99115e-09 -0.00183323)
(-0.0570867 7.50697e-09 -0.00177261)
(-0.0543958 8.84477e-09 -0.00171141)
(-0.0518004 9.96448e-09 -0.0016497)
(-0.0493008 1.0856e-08 -0.00158755)
(-0.0468974 1.15743e-08 -0.00152505)
(-0.0445904 1.21778e-08 -0.00146227)
(-0.04238 1.26713e-08 -0.00139929)
(-0.0402663 1.31032e-08 -0.00133619)
(-0.038249 1.34685e-08 -0.00127306)
(-0.036328 1.37805e-08 -0.00121)
(-0.0345029 1.40309e-08 -0.0011471)
(-0.0327733 1.42195e-08 -0.00108445)
(-0.0311384 1.43615e-08 -0.00102216)
(-0.0295976 1.44635e-08 -0.000960343)
(-0.0281499 1.45272e-08 -0.00089911)
(-0.0267941 1.45758e-08 -0.000838582)
(-0.0255291 1.46011e-08 -0.000778884)
(-0.0243534 1.46164e-08 -0.000720149)
(-0.0232653 1.46017e-08 -0.000662515)
(-0.0222631 1.45669e-08 -0.000606126)
(-0.0213446 1.4497e-08 -0.000551132)
(-0.0205077 1.43786e-08 -0.000497692)
(-0.0197498 1.42185e-08 -0.000445968)
(-0.0190683 1.40014e-08 -0.00039613)
(-0.0184601 1.37158e-08 -0.000348355)
(-0.0179221 1.33699e-08 -0.000302823)
(-0.0174508 1.29553e-08 -0.000259723)
(-0.0170425 1.24586e-08 -0.000219247)
(-0.0166931 1.19049e-08 -0.000181593)
(-0.0163983 1.13142e-08 -0.000146962)
(-0.0161536 1.06714e-08 -0.000115561)
(-0.0159541 1.00251e-08 -8.75979e-05)
(-0.0157946 9.36683e-09 -6.32846e-05)
(-0.0156695 8.70838e-09 -4.2834e-05)
(-0.0155731 8.0564e-09 -2.64599e-05)
(-0.0154992 7.37405e-09 -1.4376e-05)
(-0.0154416 6.61774e-09 -6.7943e-06)
(-0.0153933 5.74049e-09 -3.92441e-06)
(-0.0153474 4.69192e-09 -5.97158e-06)
(-0.0152965 3.41829e-09 -1.3135e-05)
(-0.0152331 1.92278e-09 -2.56053e-05)
(-0.0151492 2.28734e-10 -4.35621e-05)
(-0.0150367 -1.60361e-09 -6.71699e-05)
(-0.0148872 -3.49718e-09 -9.65736e-05)
(-0.0146921 -5.45205e-09 -0.000131892)
(-0.0144426 -7.47168e-09 -0.000173209)
(-0.0141299 -9.70729e-09 -0.000220561)
(-0.0137451 -1.22566e-08 -0.00027392)
(-0.0132793 -1.51736e-08 -0.000333169)
(-0.012724 -1.83445e-08 -0.000398062)
(-0.0120711 -2.15814e-08 -0.000468175)
(-0.0113131 -2.46793e-08 -0.000542816)
(-0.0104438 -2.76015e-08 -0.000620911)
(-0.00945865 -3.04792e-08 -0.000700803)
(-0.00835612 -3.34644e-08 -0.00077996)
(-0.00713871 -3.64902e-08 -0.000854509)
(-0.00581541 -3.93283e-08 -0.000918495)
(-0.00440502 -4.1932e-08 -0.000962722)
(-0.00294145 -4.47982e-08 -0.00097296)
(-0.00148206 -4.85709e-08 -0.000927323)
(-0.000119232 -5.34451e-08 -0.000792554)
(0.0010038 -5.85108e-08 -0.000523632)
(0.00166511 -6.1139e-08 -7.90059e-05)
(0.00163058 -4.45144e-08 0.000460826)
(0.000599637 -6.9901e-09 0.000641022)
(0.00663457 3.31387e-05 -0.0128117)
(0.0137739 2.95765e-06 -0.0144007)
(0.0177435 -1.61224e-06 -0.011219)
(0.0196611 -1.36538e-06 -0.00641497)
(0.0194197 -5.78596e-07 -0.00164629)
(0.0172953 -1.22079e-07 0.00253067)
(0.0134931 3.26556e-08 0.00598544)
(0.00824228 5.20618e-08 0.00876399)
(0.00177127 3.31264e-08 0.0109663)
(-0.00570924 1.16778e-08 0.0126946)
(-0.0139982 -4.28438e-09 0.0140341)
(-0.0229388 -1.49174e-08 0.0150543)
(-0.0323899 -2.13883e-08 0.0158183)
(-0.042235 -2.44785e-08 0.0163797)
(-0.0523715 -2.41557e-08 0.0167758)
(-0.0627148 -2.00584e-08 0.0170363)
(-0.0731928 -1.24467e-08 0.0171845)
(-0.0837445 -3.30437e-09 0.017239)
(-0.0943177 3.25472e-09 0.0172146)
(-0.104868 1.51915e-09 0.0171236)
(-0.115357 -1.44817e-08 0.0169759)
(-0.125751 -4.92523e-08 0.0167797)
(-0.136023 -1.03924e-07 0.0165416)
(-0.146147 -1.74503e-07 0.0162674)
(-0.156101 -2.50955e-07 0.0159617)
(-0.165866 -3.18374e-07 0.0156286)
(-0.175425 -3.61651e-07 0.0152713)
(-0.184764 -3.7469e-07 0.0148927)
(-0.19387 -3.73589e-07 0.0144952)
(-0.202732 -4.08123e-07 0.0140805)
(-0.211341 -5.56172e-07 0.0136497)
(-0.219688 -8.80124e-07 0.0132033)
(-0.227766 -1.34685e-06 0.0127414)
(-0.235569 -1.776e-06 0.0122634)
(-0.243095 -1.92743e-06 0.0117687)
(-0.250345 -1.73647e-06 0.0112566)
(-0.257324 -1.45084e-06 0.0107311)
(-0.264036 -1.31405e-06 0.0102114)
(-0.270468 -7.84488e-07 0.00975626)
(-0.276589 1.59498e-06 0.00946082)
(-0.282252 2.34146e-06 0.00925633)
(-0.287471 7.63105e-06 0.00876145)
(-0.292708 -1.5842e-06 0.00785358)
(-0.298193 -1.83457e-06 0.00712128)
(-0.303205 5.84253e-05 0.00682844)
(-0.307122 0.000195274 0.00660434)
(-0.3112 -0.000373411 0.00594379)
(-0.315652 -0.000610187 0.0055136)
(-0.319213 -9.50607e-06 0.00540102)
(-0.321867 0.000491463 0.00492962)
(-0.323889 0.000715613 0.00422479)
(-0.327328 -0.000802507 0.00337555)
(-0.330825 -0.00073275 0.00329001)
(-0.332091 0.000201176 0.00336397)
(-0.333198 9.36037e-05 0.00263495)
(-0.335535 0.000139477 0.00185837)
(-0.337327 0.000425504 0.00151268)
(-0.337437 0.000267382 0.00122979)
(-0.337595 5.55881e-05 0.000733118)
(-0.338232 -5.04345e-05 0.00047767)
(-0.338273 -0.000103418 0.000135846)
(-0.338998 -0.000101829 -0.000337589)
(-0.339176 0.00010431 -0.000305451)
(-0.337987 -2.32641e-05 -0.000592935)
(-0.336822 -7.67061e-06 -0.00117536)
(-0.335924 3.82763e-05 -0.00183719)
(-0.335057 0.000115204 -0.0021582)
(-0.333426 -0.00017044 -0.00222908)
(-0.330981 -0.000779748 -0.00262043)
(-0.329269 -0.000604791 -0.00316386)
(-0.327925 -4.11805e-06 -0.00340225)
(-0.325705 0.000470438 -0.00308731)
(-0.322565 0.000390012 -0.00324912)
(-0.319839 6.91092e-05 -0.00403072)
(-0.317553 2.45925e-05 -0.00445481)
(-0.314666 6.45422e-06 -0.00454376)
(-0.311204 1.15765e-05 -0.00475705)
(-0.307656 6.17757e-06 -0.00517305)
(-0.304416 2.74807e-06 -0.00544741)
(-0.301046 2.68583e-05 -0.00556064)
(-0.297365 7.08168e-06 -0.00579556)
(-0.293574 -2.26876e-06 -0.00599157)
(-0.289653 -1.4395e-06 -0.0060948)
(-0.285632 -2.45767e-06 -0.0062165)
(-0.281525 -2.87311e-06 -0.00638318)
(-0.277338 -2.72352e-06 -0.00656877)
(-0.27307 -2.44401e-06 -0.0067488)
(-0.268718 -2.06211e-06 -0.00691181)
(-0.264286 -1.61324e-06 -0.00705563)
(-0.259777 -1.17858e-06 -0.00718157)
(-0.255199 -8.23245e-07 -0.00729172)
(-0.250559 -5.67342e-07 -0.00738798)
(-0.245863 -3.96878e-07 -0.00747183)
(-0.241119 -2.88032e-07 -0.00754429)
(-0.236332 -2.2062e-07 -0.00760608)
(-0.231507 -1.79039e-07 -0.00765769)
(-0.226652 -1.50075e-07 -0.00769951)
(-0.221771 -1.23389e-07 -0.00773185)
(-0.21687 -9.36876e-08 -0.00775502)
(-0.211955 -6.14299e-08 -0.00776932)
(-0.207031 -3.09414e-08 -0.00777503)
(-0.202104 -7.18419e-09 -0.00777241)
(-0.197178 6.88278e-09 -0.00776176)
(-0.192259 1.13289e-08 -0.00774332)
(-0.187352 8.72407e-09 -0.00771736)
(-0.182461 2.79664e-09 -0.00768412)
(-0.177591 -2.97506e-09 -0.00764384)
(-0.172745 -6.33309e-09 -0.00759675)
(-0.167929 -6.58249e-09 -0.0075431)
(-0.163146 -4.37316e-09 -0.00748312)
(-0.1584 -1.12238e-09 -0.00741704)
(-0.153696 1.6516e-09 -0.0073451)
(-0.149035 2.88414e-09 -0.00726754)
(-0.144424 2.22635e-09 -0.0071846)
(-0.139863 4.40206e-11 -0.00709652)
(-0.135358 -2.82226e-09 -0.00700352)
(-0.130911 -5.40691e-09 -0.00690582)
(-0.126524 -6.94193e-09 -0.00680365)
(-0.122201 -7.07299e-09 -0.00669721)
(-0.117945 -5.88693e-09 -0.00658672)
(-0.113757 -3.82893e-09 -0.00647239)
(-0.109642 -1.49279e-09 -0.0063544)
(-0.1056 5.65733e-10 -0.00623297)
(-0.101634 1.98362e-09 -0.00610828)
(-0.0977466 2.6392e-09 -0.00598052)
(-0.0939393 2.63563e-09 -0.00584988)
(-0.0902141 2.20843e-09 -0.00571653)
(-0.0865728 1.62931e-09 -0.00558066)
(-0.0830171 1.12563e-09 -0.00544242)
(-0.0795485 8.29783e-10 -0.00530199)
(-0.0761685 7.72541e-10 -0.00515954)
(-0.0728784 9.07049e-10 -0.00501522)
(-0.0696795 1.1412e-09 -0.0048692)
(-0.066573 1.38203e-09 -0.00472163)
(-0.06356 1.55564e-09 -0.00457268)
(-0.0606413 1.62631e-09 -0.0044225)
(-0.0578178 1.58862e-09 -0.00427126)
(-0.0550903 1.46413e-09 -0.00411912)
(-0.0524595 1.2769e-09 -0.00396624)
(-0.0499258 1.05808e-09 -0.00381279)
(-0.0474897 8.26331e-10 -0.00365894)
(-0.0451516 5.92051e-10 -0.00350489)
(-0.0429115 3.63956e-10 -0.0033508)
(-0.0407697 1.29998e-10 -0.00319687)
(-0.0387259 -9.81902e-11 -0.0030433)
(-0.0367802 -3.28505e-10 -0.00289031)
(-0.034932 -5.55128e-10 -0.00273811)
(-0.0331811 -7.72657e-10 -0.00258692)
(-0.0315267 -9.75686e-10 -0.002437)
(-0.0299682 -1.16172e-09 -0.0022886)
(-0.0285045 -1.33033e-09 -0.00214199)
(-0.0271345 -1.47903e-09 -0.00199744)
(-0.025857 -1.61071e-09 -0.00185525)
(-0.0246705 -1.73078e-09 -0.00171573)
(-0.0235732 -1.83966e-09 -0.0015792)
(-0.0225634 -1.944e-09 -0.00144601)
(-0.0216388 -2.04545e-09 -0.0013165)
(-0.0207971 -2.14735e-09 -0.00119105)
(-0.0200358 -2.25012e-09 -0.00107005)
(-0.0193519 -2.35583e-09 -0.000953893)
(-0.0187426 -2.462e-09 -0.000842991)
(-0.0182042 -2.56903e-09 -0.000737776)
(-0.0177334 -2.6736e-09 -0.00063869)
(-0.0173261 -2.76905e-09 -0.000546186)
(-0.0169781 -2.85121e-09 -0.00046073)
(-0.0166851 -2.91673e-09 -0.000382799)
(-0.0164422 -2.9523e-09 -0.000312876)
(-0.0162443 -2.96372e-09 -0.000251456)
(-0.0160861 -2.94182e-09 -0.000199034)
(-0.0159619 -2.89492e-09 -0.000156113)
(-0.0158657 -2.82719e-09 -0.000123196)
(-0.0157912 -2.75361e-09 -0.000100782)
(-0.0157318 -2.67919e-09 -8.93687e-05)
(-0.0156808 -2.61895e-09 -8.94436e-05)
(-0.0156308 -2.57204e-09 -0.000101481)
(-0.0155746 -2.52847e-09 -0.000125938)
(-0.0155044 -2.46571e-09 -0.000163244)
(-0.0154125 -2.35789e-09 -0.000213797)
(-0.0152906 -2.18579e-09 -0.000277946)
(-0.0151307 -1.95188e-09 -0.00035598)
(-0.0149245 -1.67699e-09 -0.000448106)
(-0.0146636 -1.39618e-09 -0.000554419)
(-0.0143398 -1.14535e-09 -0.000674865)
(-0.013945 -9.14486e-10 -0.00080918)
(-0.0134716 -6.55132e-10 -0.00095681)
(-0.0129122 -3.0041e-10 -0.0011168)
(-0.0122607 1.74834e-10 -0.0012876)
(-0.0115118 7.22214e-10 -0.00146684)
(-0.010662 1.25484e-09 -0.00165091)
(-0.00971037 1.75268e-09 -0.00183438)
(-0.00865914 2.28019e-09 -0.00200913)
(-0.00751526 2.89191e-09 -0.00216291)
(-0.00629207 3.45074e-09 -0.00227726)
(-0.0050116 3.70884e-09 -0.00232424)
(-0.00370754 3.58728e-09 -0.0022619)
(-0.00242892 3.15129e-09 -0.00202831)
(-0.00124152 2.3976e-09 -0.0015377)
(-0.000245349 2.23508e-09 -0.000689751)
(0.00046227 1.40464e-08 0.000557396)
(0.000395706 6.035e-08 0.00168918)
(0.00660697 3.31402e-05 -0.0127908)
(0.0137579 2.9576e-06 -0.0143841)
(0.0177389 -1.61221e-06 -0.0112108)
(0.0196607 -1.36536e-06 -0.00641176)
(0.0194202 -5.7859e-07 -0.00164534)
(0.0172957 -1.22077e-07 0.00253082)
(0.0134933 3.26553e-08 0.00598538)
(0.0082425 5.20614e-08 0.00876391)
(0.00177148 3.31261e-08 0.0109662)
(-0.00570903 1.16777e-08 0.0126945)
(-0.013998 -4.28435e-09 0.0140341)
(-0.0229386 -1.49173e-08 0.0150542)
(-0.0323898 -2.13881e-08 0.0158182)
(-0.0422348 -2.44783e-08 0.0163796)
(-0.0523714 -2.41556e-08 0.0167758)
(-0.0627147 -2.00583e-08 0.0170363)
(-0.0731928 -1.24466e-08 0.0171845)
(-0.0837445 -3.30435e-09 0.0172389)
(-0.0943177 3.2547e-09 0.0172146)
(-0.104868 1.51914e-09 0.0171236)
(-0.115357 -1.44816e-08 0.0169759)
(-0.125752 -4.9252e-08 0.0167796)
(-0.136023 -1.03923e-07 0.0165416)
(-0.146147 -1.74502e-07 0.0162674)
(-0.156101 -2.50953e-07 0.0159618)
(-0.165867 -3.18373e-07 0.0156287)
(-0.175426 -3.61649e-07 0.0152715)
(-0.184766 -3.74688e-07 0.0148931)
(-0.193873 -3.73587e-07 0.0144959)
(-0.202736 -4.0812e-07 0.0140816)
(-0.211345 -5.56168e-07 0.0136515)
(-0.219694 -8.80118e-07 0.0132064)
(-0.227774 -1.34684e-06 0.0127469)
(-0.235579 -1.77597e-06 0.0122732)
(-0.243107 -1.92738e-06 0.0117857)
(-0.250357 -1.73639e-06 0.0112852)
(-0.25733 -1.45071e-06 0.0107762)
(-0.264026 -1.31383e-06 0.0102757)
(-0.270425 -7.84248e-07 0.00982721)
(-0.276509 1.59417e-06 0.00948205)
(-0.282165 2.33965e-06 0.00910566)
(-0.287625 7.62282e-06 0.00844754)
(-0.293142 -1.58136e-06 0.00779593)
(-0.298388 -1.82505e-06 0.00742348)
(-0.303071 5.71385e-05 0.00691849)
(-0.307645 0.000177974 0.006103)
(-0.311814 -0.000293414 0.00560297)
(-0.314706 -0.000579913 0.00543178)
(-0.317661 -9.6197e-06 0.0051088)
(-0.32105 0.000462043 0.00477835)
(-0.325191 0.000539331 0.00431204)
(-0.328724 -0.000653979 0.0044444)
(-0.32994 -0.00094608 0.00419004)
(-0.331818 0.000284603 0.00320126)
(-0.333901 0.000114566 0.00273802)
(-0.335349 0.000184268 0.00226139)
(-0.336621 0.00046321 0.00151295)
(-0.337541 0.000268148 0.00103801)
(-0.338536 5.46333e-05 0.000609995)
(-0.339104 -4.94073e-05 0.000708869)
(-0.338353 -0.000101397 0.00057306)
(-0.337829 -9.99089e-05 -0.000248444)
(-0.338385 0.000102 -0.00101903)
(-0.338215 -2.26863e-05 -0.00119257)
(-0.337084 -7.45791e-06 -0.00133887)
(-0.335929 3.66961e-05 -0.00170146)
(-0.334937 0.000103439 -0.00212934)
(-0.334164 -0.000133089 -0.00244253)
(-0.33218 -0.000755615 -0.00261504)
(-0.328856 -0.000674836 -0.00319057)
(-0.326188 -4.77989e-06 -0.00348189)
(-0.325115 0.000529961 -0.00351344)
(-0.323729 0.000411719 -0.00354036)
(-0.320743 7.04616e-05 -0.00370526)
(-0.317329 2.47907e-05 -0.00422195)
(-0.314292 6.4877e-06 -0.00458908)
(-0.311076 1.16297e-05 -0.00488607)
(-0.307692 6.2046e-06 -0.00508775)
(-0.304159 2.75881e-06 -0.00530222)
(-0.300827 2.6943e-05 -0.00564209)
(-0.297521 7.09844e-06 -0.00581937)
(-0.293766 -2.27237e-06 -0.00585513)
(-0.289743 -1.44083e-06 -0.00594408)
(-0.285664 -2.45884e-06 -0.00612032)
(-0.28153 -2.87373e-06 -0.00633366)
(-0.277333 -2.72376e-06 -0.00654554)
(-0.273062 -2.44408e-06 -0.00673839)
(-0.268711 -2.06212e-06 -0.00690726)
(-0.26428 -1.61324e-06 -0.00705364)
(-0.259773 -1.17858e-06 -0.0071807)
(-0.255196 -8.23241e-07 -0.00729137)
(-0.250557 -5.67339e-07 -0.00738792)
(-0.245862 -3.96876e-07 -0.00747193)
(-0.241118 -2.8803e-07 -0.00754448)
(-0.236331 -2.20619e-07 -0.00760629)
(-0.231507 -1.79039e-07 -0.00765787)
(-0.226651 -1.50075e-07 -0.00769963)
(-0.22177 -1.23389e-07 -0.00773193)
(-0.21687 -9.36872e-08 -0.00775507)
(-0.211955 -6.14297e-08 -0.00776934)
(-0.207031 -3.09412e-08 -0.00777503)
(-0.202104 -7.18416e-09 -0.00777242)
(-0.197178 6.88275e-09 -0.00776176)
(-0.192259 1.13289e-08 -0.00774333)
(-0.187352 8.72403e-09 -0.00771737)
(-0.182461 2.79663e-09 -0.00768414)
(-0.17759 -2.97504e-09 -0.00764386)
(-0.172745 -6.33306e-09 -0.00759678)
(-0.167929 -6.58246e-09 -0.00754313)
(-0.163146 -4.37314e-09 -0.00748314)
(-0.1584 -1.12237e-09 -0.00741706)
(-0.153695 1.6516e-09 -0.00734512)
(-0.149035 2.88413e-09 -0.00726756)
(-0.144423 2.22634e-09 -0.00718462)
(-0.139863 4.40204e-11 -0.00709653)
(-0.135358 -2.82225e-09 -0.00700353)
(-0.13091 -5.40689e-09 -0.00690583)
(-0.126524 -6.9419e-09 -0.00680366)
(-0.122201 -7.07296e-09 -0.00669722)
(-0.117945 -5.8869e-09 -0.00658673)
(-0.113757 -3.82892e-09 -0.0064724)
(-0.109642 -1.49279e-09 -0.00635441)
(-0.1056 5.65731e-10 -0.00623298)
(-0.101634 1.98362e-09 -0.00610829)
(-0.0977464 2.6392e-09 -0.00598054)
(-0.0939392 2.63562e-09 -0.0058499)
(-0.090214 2.20843e-09 -0.00571655)
(-0.0865727 1.6293e-09 -0.00558067)
(-0.083017 1.12562e-09 -0.00544244)
(-0.0795484 8.2978e-10 -0.00530201)
(-0.0761683 7.72538e-10 -0.00515956)
(-0.0728783 9.07046e-10 -0.00501524)
(-0.0696794 1.1412e-09 -0.00486922)
(-0.0665729 1.38203e-09 -0.00472165)
(-0.0635599 1.55564e-09 -0.0045727)
(-0.0606412 1.62631e-09 -0.00442252)
(-0.0578177 1.58862e-09 -0.00427128)
(-0.0550902 1.46412e-09 -0.00411914)
(-0.0524594 1.2769e-09 -0.00396626)
(-0.0499257 1.05807e-09 -0.00381281)
(-0.0474896 8.26329e-10 -0.00365897)
(-0.0451515 5.92049e-10 -0.00350491)
(-0.0429114 3.63955e-10 -0.00335082)
(-0.0407696 1.29998e-10 -0.00319689)
(-0.0387258 -9.81899e-11 -0.00304333)
(-0.0367801 -3.28504e-10 -0.00289033)
(-0.0349319 -5.55126e-10 -0.00273813)
(-0.033181 -7.72655e-10 -0.00258695)
(-0.0315266 -9.75684e-10 -0.00243703)
(-0.0299681 -1.16171e-09 -0.00228863)
(-0.0285044 -1.33033e-09 -0.00214201)
(-0.0271344 -1.47902e-09 -0.00199746)
(-0.0258569 -1.61071e-09 -0.00185527)
(-0.0246704 -1.73078e-09 -0.00171575)
(-0.0235731 -1.83966e-09 -0.00157922)
(-0.0225633 -1.94399e-09 -0.00144603)
(-0.0216387 -2.04544e-09 -0.00131653)
(-0.020797 -2.14735e-09 -0.00119108)
(-0.0200357 -2.25011e-09 -0.00107008)
(-0.0193519 -2.35583e-09 -0.000953918)
(-0.0187425 -2.46199e-09 -0.000843017)
(-0.0182041 -2.56902e-09 -0.000737802)
(-0.0177333 -2.6736e-09 -0.000638715)
(-0.017326 -2.76904e-09 -0.000546211)
(-0.016978 -2.8512e-09 -0.000460755)
(-0.016685 -2.91673e-09 -0.000382824)
(-0.0164421 -2.95229e-09 -0.000312902)
(-0.0162442 -2.96371e-09 -0.000251481)
(-0.016086 -2.94181e-09 -0.000199059)
(-0.0159618 -2.89492e-09 -0.000156139)
(-0.0158656 -2.82718e-09 -0.000123221)
(-0.0157911 -2.75361e-09 -0.000100807)
(-0.0157318 -2.67919e-09 -8.93939e-05)
(-0.0156807 -2.61894e-09 -8.94688e-05)
(-0.0156307 -2.57203e-09 -0.000101507)
(-0.0155745 -2.52847e-09 -0.000125963)
(-0.0155044 -2.46571e-09 -0.00016327)
(-0.0154124 -2.35789e-09 -0.000213823)
(-0.0152906 -2.18579e-09 -0.000277972)
(-0.0151307 -1.95187e-09 -0.000356007)
(-0.0149245 -1.67699e-09 -0.000448133)
(-0.0146636 -1.39618e-09 -0.000554447)
(-0.0143398 -1.14535e-09 -0.000674893)
(-0.013945 -9.14484e-10 -0.000809209)
(-0.0134715 -6.55131e-10 -0.00095684)
(-0.0129122 -3.00409e-10 -0.00111683)
(-0.0122607 1.74834e-10 -0.00128763)
(-0.0115117 7.22212e-10 -0.00146687)
(-0.010662 1.25484e-09 -0.00165094)
(-0.00971036 1.75268e-09 -0.00183442)
(-0.00865914 2.28019e-09 -0.00200918)
(-0.00751526 2.89191e-09 -0.00216296)
(-0.00629207 3.45073e-09 -0.00227731)
(-0.00501161 3.70883e-09 -0.0023243)
(-0.00370755 3.58728e-09 -0.00226197)
(-0.00242893 3.15128e-09 -0.00202839)
(-0.00124155 2.3976e-09 -0.0015378)
(-0.000245385 2.23507e-09 -0.000689868)
(0.000462192 1.40464e-08 0.000557246)
(0.000395587 6.03501e-08 0.00168902)
(0.00574935 1.72332e-05 -0.0227272)