/*--------------------------------*- C++ -*----------------------------------*\
  =========                 |
  \\      /  F ield         | OpenFOAM: The Open Source CFD Toolbox
   \\    /   O peration     | Website:  https://openfoam.org
    \\  /    A nd           | Version:  8
     \\/     M anipulation  |
\*---------------------------------------------------------------------------*/
FoamFile
{
    version     2.0;
    format      ascii;
    class       volScalarField;
    location    "1800";
    object      alphat;
}
// * * * * * * * * * * * * * * * * * * * * * * * * * * * * * * * * * * * * * //

dimensions      [1 -1 -1 0 0 0 0];

internalField   nonuniform List<scalar> 
48000
(
7.2932e-05
5.82477e-05
7.51988e-05
8.63349e-05
9.52796e-05
0.000102726
0.000109221
0.000115131
0.000120471
0.000125405
0.000130005
0.000134328
0.000138413
0.000142292
0.000145991
0.000149526
0.000152915
0.000156168
0.000159295
0.000162304
0.000165201
0.000167991
0.00017068
0.00017327
0.000175764
0.000178167
0.000180479
0.000182704
0.000184842
0.000186898
0.000188871
0.000190764
0.000192579
0.000194317
0.00019598
0.00019757
0.000199088
0.000200535
0.000201915
0.000203227
0.000204475
0.000205659
0.000206781
0.000207843
0.000208846
0.000209792
0.000210683
0.000211521
0.000212305
0.000213039
0.000213723
0.000214366
0.000214965
0.00021552
0.000216031
0.0002165
0.000216929
0.000217318
0.00021767
0.000217985
0.000218265
0.000218511
0.000218724
0.000218905
0.000219055
0.000219176
0.000219268
0.000219333
0.00021937
0.000219382
0.000219369
0.000219331
0.00021927
0.000219187
0.000219081
0.000218954
0.000218807
0.000218639
0.000218452
0.000218246
0.000218021
0.000217779
0.000217519
0.000217242
0.000216948
0.000216638
0.000216312
0.000215971
0.000215614
0.000215243
0.000214856
0.000214455
0.00021404
0.000213612
0.000213169
0.000212712
0.000212242
0.000211759
0.000211262
0.000210753
0.00021023
0.000209694
0.000209146
0.000208584
0.00020801
0.000207422
0.000206822
0.000206209
0.000205584
0.000204945
0.000204293
0.000203628
0.000202951
0.00020226
0.000201555
0.000200838
0.000200106
0.000199362
0.000198603
0.00019783
0.000197044
0.000196243
0.000195427
0.000194597
0.000193753
0.000192893
0.000192018
0.000191127
0.000190221
0.000189299
0.000188361
0.000187407
0.000186436
0.000185448
0.000184443
0.000183421
0.000182382
0.000181324
0.000180248
0.000179155
0.000178042
0.000176911
0.00017576
0.00017459
0.000173401
0.000172191
0.000170962
0.000169712
0.000168441
0.00016715
0.000165837
0.000164503
0.000163147
0.000161769
0.000160368
0.000158946
0.0001575
0.000156032
0.00015454
0.000153024
0.000151485
0.000149921
0.000148333
0.000146719
0.00014508
0.000143416
0.000141725
0.000140007
0.000138261
0.000136488
0.000134686
0.000132854
0.000130991
0.000129097
0.000127169
0.000125207
0.000123209
0.000121172
0.000119095
0.000116975
0.000114807
0.00011259
0.000110319
0.000107991
0.000105602
0.000103166
0.000100647
9.80255e-05
9.52855e-05
9.24029e-05
8.93477e-05
8.60786e-05
8.25392e-05
7.86895e-05
7.44217e-05
6.95531e-05
6.40304e-05
5.99723e-05
0.000399257
0.000189478
7.29023e-05
5.82489e-05
7.52001e-05
8.63355e-05
9.52803e-05
0.000102727
0.000109222
0.000115132
0.000120472
0.000125405
0.000130006
0.000134328
0.000138413
0.000142293
0.000145991
0.000149527
0.000152915
0.000156168
0.000159295
0.000162304
0.000165201
0.000167992
0.00017068
0.00017327
0.000175765
0.000178167
0.000180479
0.000182704
0.000184843
0.000186898
0.000188871
0.000190764
0.000192579
0.000194317
0.00019598
0.00019757
0.000199088
0.000200535
0.000201915
0.000203227
0.000204475
0.000205659
0.000206781
0.000207843
0.000208846
0.000209792
0.000210683
0.000211521
0.000212305
0.000213039
0.000213723
0.000214366
0.000214965
0.00021552
0.000216031
0.0002165
0.000216929
0.000217318
0.00021767
0.000217985
0.000218265
0.000218511
0.000218724
0.000218905
0.000219055
0.000219176
0.000219268
0.000219333
0.00021937
0.000219382
0.000219369
0.000219331
0.00021927
0.000219187
0.000219081
0.000218954
0.000218806
0.000218639
0.000218452
0.000218246
0.000218021
0.000217778
0.000217519
0.000217241
0.000216948
0.000216638
0.000216312
0.000215971
0.000215614
0.000215242
0.000214856
0.000214455
0.00021404
0.000213611
0.000213169
0.000212712
0.000212242
0.000211759
0.000211262
0.000210753
0.00021023
0.000209694
0.000209145
0.000208584
0.000208009
0.000207422
0.000206822
0.000206209
0.000205583
0.000204945
0.000204293
0.000203628
0.00020295
0.000202259
0.000201555
0.000200837
0.000200106
0.000199361
0.000198603
0.00019783
0.000197044
0.000196243
0.000195427
0.000194597
0.000193752
0.000192893
0.000192018
0.000191127
0.000190221
0.000189299
0.000188361
0.000187407
0.000186436
0.000185448
0.000184443
0.000183421
0.000182381
0.000181324
0.000180248
0.000179154
0.000178042
0.000176911
0.00017576
0.00017459
0.000173401
0.000172191
0.000170962
0.000169712
0.000168441
0.000167149
0.000165837
0.000164502
0.000163146
0.000161769
0.000160368
0.000158946
0.0001575
0.000156032
0.00015454
0.000153024
0.000151485
0.000149921
0.000148333
0.000146719
0.00014508
0.000143416
0.000141725
0.000140007
0.000138261
0.000136488
0.000134686
0.000132854
0.000130991
0.000129097
0.000127169
0.000125207
0.000123209
0.000121172
0.000119095
0.000116975
0.000114807
0.00011259
0.000110319
0.000107991
0.000105602
0.000103166
0.000100647
9.80255e-05
9.52855e-05
9.24029e-05
8.93477e-05
8.60786e-05
8.25392e-05
7.86895e-05
7.44213e-05
6.95503e-05
6.40159e-05
5.99286e-05
0.000399345
0.000189617
5.12403e-05
0.000386547
0.000619378
0.00077871
0.000898583
0.000996513
0.00108013
0.00115319
0.00121868
0.00127814
0.00133272
0.00138328
0.00143043
0.00147468
0.00151639
0.00155586
0.00159334
0.00162902
0.00166305
0.00169557
0.00172668
0.00175648
0.00178505
0.00181244
0.00183872
0.00186393
0.00188813
0.00191134
0.00193361
0.00195497
0.00197544
0.00199505
0.00201384
0.00203182
0.00204902
0.00206545
0.00208115
0.00209614
0.00211043
0.00212404
0.00213699
0.00214931
0.002161
0.0021721
0.00218261
0.00219256
0.00220196
0.00221082
0.00221916
0.00222698
0.00223427
0.00224091
0.00224709
0.00225282
0.00225814
0.00226306
0.0022676
0.00227178
0.00227559
0.00227906
0.0022822
0.00228502
0.00228752
0.00228972
0.00229163
0.00229326
0.00229461
0.0022957
0.00229653
0.00229711
0.00229744
0.00229754
0.00229741
0.00229705
0.00229648
0.0022957
0.00229471
0.00229351
0.00229212
0.00229054
0.00228878
0.00228682
0.00228469
0.00228238
0.0022799
0.00227726
0.00227444
0.00227146
0.00226832
0.00226502
0.00226157
0.00225796
0.0022542
0.00225028
0.00224622
0.00224201
0.00223766
0.00223316
0.00222851
0.00222372
0.00221879
0.00221372
0.0022085
0.00220314
0.00219764
0.00219199
0.00218621
0.00218028
0.00217421
0.00216799
0.00216163
0.00215512
0.00214847
0.00214167
0.00213473
0.00212763
0.00212038
0.00211298
0.00210543
0.00209772
0.00208985
0.00208183
0.00207364
0.00206529
0.00205678
0.0020481
0.00203925
0.00203023
0.00202103
0.00201166
0.00200211
0.00199238
0.00198247
0.00197237
0.00196209
0.00195161
0.00194094
0.00193007
0.00191901
0.00190774
0.00189627
0.0018846
0.00187271
0.00186062
0.00184831
0.00183578
0.00182303
0.00181007
0.00179687
0.00178345
0.0017698
0.00175592
0.0017418
0.00172744
0.00171285
0.001698
0.00168291
0.00166757
0.00165198
0.00163613
0.00162001
0.00160364
0.00158699
0.00157006
0.00155286
0.00153538
0.0015176
0.00149952
0.00148113
0.00146243
0.00144341
0.00142404
0.00140433
0.00138425
0.00136378
0.00134291
0.00132161
0.00129985
0.00127761
0.00125483
0.00123148
0.00120749
0.00118278
0.00115724
0.00113072
0.00110301
0.00107407
0.00104377
0.0010119
0.000978128
0.000942006
0.000902846
0.000859492
0.000809677
0.000751762
0.00068272
0.000597832
0.000492519
0.000377125
0.000267779
5.12417e-05
0.00038658
0.000619402
0.000778747
0.000898625
0.000996556
0.00108017
0.00115324
0.00121873
0.00127818
0.00133276
0.00138332
0.00143047
0.00147471
0.00151642
0.0015559
0.00159338
0.00162905
0.00166308
0.0016956
0.00172671
0.00175651
0.00178508
0.00181247
0.00183875
0.00186396
0.00188816
0.00191137
0.00193364
0.00195499
0.00197546
0.00199508
0.00201386
0.00203184
0.00204904
0.00206548
0.00208118
0.00209616
0.00211045
0.00212406
0.00213701
0.00214933
0.00216102
0.00217212
0.00218263
0.00219258
0.00220198
0.00221084
0.00221918
0.002227
0.00223429
0.00224093
0.0022471
0.00225284
0.00225816
0.00226308
0.00226762
0.00227179
0.00227561
0.00227908
0.00228221
0.00228503
0.00228753
0.00228974
0.00229165
0.00229328
0.00229463
0.00229571
0.00229654
0.00229712
0.00229746
0.00229755
0.00229742
0.00229707
0.00229649
0.00229571
0.00229472
0.00229353
0.00229214
0.00229056
0.00228879
0.00228683
0.0022847
0.0022824
0.00227992
0.00227727
0.00227445
0.00227147
0.00226833
0.00226503
0.00226158
0.00225797
0.00225421
0.0022503
0.00224623
0.00224202
0.00223767
0.00223317
0.00222852
0.00222373
0.0022188
0.00221373
0.00220851
0.00220315
0.00219765
0.002192
0.00218622
0.00218029
0.00217422
0.002168
0.00216164
0.00215513
0.00214848
0.00214168
0.00213474
0.00212764
0.00212039
0.00211299
0.00210544
0.00209773
0.00208986
0.00208184
0.00207365
0.0020653
0.00205679
0.00204811
0.00203926
0.00203024
0.00202104
0.00201167
0.00200212
0.00199239
0.00198248
0.00197238
0.00196209
0.00195162
0.00194095
0.00193008
0.00191902
0.00190775
0.00189628
0.00188461
0.00187272
0.00186063
0.00184832
0.00183579
0.00182304
0.00181008
0.00179688
0.00178346
0.00176981
0.00175593
0.00174181
0.00172745
0.00171285
0.00169801
0.00168292
0.00166758
0.00165199
0.00163614
0.00162002
0.00160364
0.001587
0.00157007
0.00155287
0.00153538
0.0015176
0.00149953
0.00148114
0.00146244
0.00144342
0.00142405
0.00140434
0.00138425
0.00136379
0.00134292
0.00132162
0.00129986
0.00127762
0.00125484
0.00123149
0.0012075
0.00118279
0.00115725
0.00113073
0.00110302
0.00107408
0.00104378
0.00101191
0.000978135
0.000942012
0.000902853
0.000859498
0.000809679
0.000751749
0.00068265
0.000597592
0.00049198
0.000377166
0.000267667
6.44573e-05
0.000588669
0.00104953
0.00139485
0.00166886
0.00189669
0.00209227
0.00226391
0.00241719
0.00255582
0.00268246
0.0027991
0.00290723
0.00300804
0.00310246
0.00319125
0.00327501
0.00335425
0.0034294
0.0035008
0.00356877
0.00363354
0.00369535
0.00375438
0.00381079
0.00386472
0.00391632
0.00396568
0.00401291
0.0040581
0.00410134
0.0041427
0.00418226
0.00422008
0.00425622
0.00429075
0.00432372
0.00435518
0.00438519
0.00441379
0.00444103
0.00446695
0.00449161
0.00451503
0.00453727
0.00455836
0.00457833
0.00459721
0.00461504
0.00463183
0.00464757
0.00466223
0.00467592
0.00468872
0.00470067
0.00471181
0.00472218
0.00473181
0.00474071
0.00474892
0.00475646
0.00476336
0.00476962
0.00477528
0.00478035
0.00478485
0.0047888
0.00479221
0.00479509
0.00479747
0.00479936
0.00480077
0.0048017
0.00480219
0.00480223
0.00480184
0.00480102
0.00479979
0.00479816
0.00479613
0.00479372
0.00479092
0.00478776
0.00478423
0.00478033
0.00477609
0.0047715
0.00476656
0.00476129
0.00475568
0.00474974
0.00474348
0.0047369
0.00472999
0.00472277
0.00471524
0.00470739
0.00469923
0.00469076
0.00468199
0.00467291
0.00466352
0.00465382
0.00464382
0.00463352
0.00462291
0.00461199
0.00460076
0.00458922
0.00457737
0.00456521
0.00455274
0.00453994
0.00452683
0.0045134
0.00449964
0.00448556
0.00447114
0.00445639
0.0044413
0.00442588
0.0044101
0.00439398
0.0043775
0.00436066
0.00434347
0.0043259
0.00430796
0.00428964
0.00427094
0.00425186
0.00423238
0.0042125
0.00419222
0.00417153
0.00415042
0.00412889
0.00410693
0.00408455
0.00406172
0.00403845
0.00401472
0.00399054
0.0039659
0.00394079
0.0039152
0.00388912
0.00386256
0.0038355
0.00380794
0.00377986
0.00375127
0.00372215
0.0036925
0.0036623
0.00363155
0.00360025
0.00356837
0.0035359
0.00350285
0.00346919
0.00343491
0.00340001
0.00336445
0.00332823
0.00329132
0.00325371
0.00321537
0.00317627
0.0031364
0.0030957
0.00305416
0.00301171
0.00296833
0.00292394
0.0028785
0.00283192
0.00278411
0.00273499
0.00268443
0.00263228
0.00257838
0.00252251
0.00246439
0.0024037
0.00234004
0.00227302
0.00220212
0.00212659
0.00204543
0.00195731
0.00186032
0.00175166
0.00162723
0.00148146
0.00130689
0.00109112
0.00081554
0.000453831
5.12274e-05
6.44583e-05
0.000588693
0.00104959
0.00139493
0.00166895
0.00189678
0.00209237
0.00226401
0.00241729
0.00255592
0.00268256
0.00279919
0.00290732
0.00300813
0.00310255
0.00319133
0.00327509
0.00335433
0.00342947
0.00350087
0.00356884
0.00363361
0.00369541
0.00375444
0.00381084
0.00386478
0.00391637
0.00396573
0.00401296
0.00405815
0.00410138
0.00414274
0.0041823
0.00422012
0.00425626
0.00429079
0.00432375
0.00435521
0.00438522
0.00441381
0.00444105
0.00446698
0.00449163
0.00451506
0.00453729
0.00455838
0.00457835
0.00459723
0.00461506
0.00463185
0.00464759
0.00466224
0.00467593
0.00468873
0.00470068
0.00471182
0.00472219
0.00473181
0.00474072
0.00474893
0.00475647
0.00476336
0.00476963
0.00477529
0.00478036
0.00478486
0.0047888
0.00479221
0.0047951
0.00479748
0.00479936
0.00480077
0.00480171
0.00480219
0.00480223
0.00480184
0.00480102
0.0047998
0.00479816
0.00479613
0.00479372
0.00479093
0.00478776
0.00478423
0.00478033
0.00477609
0.0047715
0.00476656
0.00476129
0.00475568
0.00474974
0.00474348
0.0047369
0.00472999
0.00472277
0.00471524
0.00470739
0.00469923
0.00469076
0.00468199
0.00467291
0.00466352
0.00465382
0.00464382
0.00463352
0.0046229
0.00461198
0.00460076
0.00458922
0.00457737
0.00456521
0.00455273
0.00453994
0.00452683
0.0045134
0.00449964
0.00448555
0.00447114
0.00445639
0.0044413
0.00442587
0.0044101
0.00439398
0.0043775
0.00436066
0.00434346
0.0043259
0.00430796
0.00428964
0.00427094
0.00425185
0.00423237
0.0042125
0.00419221
0.00417152
0.00415041
0.00412889
0.00410693
0.00408454
0.00406172
0.00403844
0.00401472
0.00399054
0.0039659
0.00394078
0.00391519
0.00388912
0.00386256
0.0038355
0.00380793
0.00377986
0.00375127
0.00372215
0.00369249
0.0036623
0.00363155
0.00360024
0.00356836
0.0035359
0.00350285
0.00346919
0.00343491
0.0034
0.00336444
0.00332822
0.00329132
0.0032537
0.00321537
0.00317627
0.00313639
0.0030957
0.00305415
0.00301171
0.00296833
0.00292394
0.0028785
0.00283191
0.00278411
0.00273499
0.00268443
0.00263228
0.00257838
0.00252251
0.00246439
0.0024037
0.00234004
0.00227302
0.00220212
0.00212659
0.00204542
0.00195731
0.00186032
0.00175166
0.00162723
0.00148146
0.00130686
0.00109105
0.000815501
0.000454125
5.12369e-05
7.33164e-05
0.000704698
0.00133277
0.00183546
0.00224811
0.00259744
0.0029005
0.00316836
0.00340856
0.00362641
0.00382577
0.00400956
0.00418
0.00433886
0.00448755
0.00462723
0.00475884
0.00488316
0.00500087
0.00511253
0.00521861
0.00531954
0.00541566
0.0055073
0.00559472
0.00567818
0.00575788
0.00583402
0.00590677
0.0059763
0.00604275
0.00610625
0.00616693
0.0062249
0.00628027
0.00633313
0.0063836
0.00643174
0.00647767
0.00652144
0.00656315
0.00660286
0.00664066
0.0066766
0.00671075
0.00674318
0.00677394
0.00680308
0.00683065
0.00685669
0.00688122
0.00690426
0.00692587
0.00694617
0.00696522
0.00698308
0.00699978
0.00701538
0.00702992
0.00704343
0.00705595
0.00706751
0.00707814
0.00708789
0.00709676
0.00710479
0.00711201
0.00711844
0.00712411
0.00712902
0.00713321
0.0071367
0.00713949
0.00714162
0.00714309
0.00714392
0.00714413
0.00714373
0.00714274
0.00714116
0.007139
0.00713629
0.00713302
0.00712921
0.00712486
0.00711999
0.00711461
0.00710871
0.00710231
0.00709541
0.00708802
0.00708014
0.00707178
0.00706294
0.00705362
0.00704383
0.00703358
0.00702285
0.00701166
0.00700001
0.00698789
0.00697532
0.00696228
0.00694877
0.00693481
0.00692038
0.00690548
0.00689012
0.00687428
0.00685798
0.0068412
0.00682395
0.00680621
0.00678798
0.00676927
0.00675006
0.00673036
0.00671015
0.00668943
0.0066682
0.00664644
0.00662416
0.00660135
0.00657799
0.00655409
0.00652963
0.00650461
0.00647902
0.00645286
0.0064261
0.00639876
0.00637081
0.00634225
0.00631307
0.00628326
0.00625281
0.00622171
0.00618996
0.00615754
0.00612445
0.00609067
0.00605619
0.006021
0.00598509
0.00594846
0.00591108
0.00587296
0.00583407
0.0057944
0.00575394
0.00571268
0.00567061
0.0056277
0.00558395
0.00553934
0.00549384
0.00544746
0.00540015
0.00535191
0.00530271
0.00525253
0.00520134
0.00514912
0.00509582
0.00504143
0.0049859
0.00492919
0.00487126
0.00481205
0.00475151
0.00468958
0.00462618
0.00456123
0.00449465
0.00442632
0.00435613
0.00428395
0.0042096
0.00413291
0.00405366
0.00397157
0.00388635
0.00379761
0.00370489
0.00360764
0.0035052
0.00339677
0.00328136
0.00315765
0.00302393
0.00287794
0.00271662
0.00253578
0.00232983
0.00209098
0.00180915
0.00146979
0.00105374
0.000544256
5.64044e-05
7.33175e-05
0.00070473
0.00133284
0.00183556
0.00224823
0.00259758
0.00290064
0.0031685
0.00340871
0.00362656
0.00382592
0.0040097
0.00418013
0.00433899
0.00448768
0.00462736
0.00475896
0.00488328
0.00500099
0.00511264
0.00521872
0.00531964
0.00541576
0.00550739
0.00559481
0.00567826
0.00575796
0.00583409
0.00590685
0.00597637
0.00604282
0.00610632
0.00616699
0.00622495
0.00628032
0.00633318
0.00638364
0.00643179
0.0064777
0.00652148
0.00656318
0.0066029
0.00664069
0.00667663
0.00671078
0.0067432
0.00677396
0.0068031
0.00683067
0.0068567
0.00688123
0.00690427
0.00692588
0.00694618
0.00696523
0.00698308
0.00699979
0.00701539
0.00702992
0.00704343
0.00705595
0.00706751
0.00707814
0.00708789
0.00709676
0.00710479
0.00711201
0.00711844
0.0071241
0.00712902
0.00713321
0.00713669
0.00713949
0.00714161
0.00714308
0.00714392
0.00714413
0.00714373
0.00714273
0.00714115
0.00713899
0.00713628
0.00713301
0.0071292
0.00712485
0.00711998
0.0071146
0.0071087
0.0071023
0.0070954
0.00708801
0.00708013
0.00707177
0.00706292
0.00705361
0.00704382
0.00703356
0.00702284
0.00701165
0.007
0.00698788
0.0069753
0.00696226
0.00694876
0.00693479
0.00692036
0.00690547
0.0068901
0.00687427
0.00685797
0.00684119
0.00682393
0.00680619
0.00678797
0.00676926
0.00675005
0.00673035
0.00671014
0.00668942
0.00666819
0.00664643
0.00662415
0.00660133
0.00657798
0.00655408
0.00652962
0.0065046
0.00647901
0.00645284
0.00642609
0.00639874
0.00637079
0.00634223
0.00631305
0.00628324
0.00625279
0.0062217
0.00618995
0.00615753
0.00612443
0.00609065
0.00605617
0.00602098
0.00598508
0.00594844
0.00591107
0.00587294
0.00583405
0.00579438
0.00575393
0.00571267
0.00567059
0.00562769
0.00558393
0.00553932
0.00549383
0.00544744
0.00540014
0.0053519
0.0053027
0.00525251
0.00520133
0.0051491
0.00509581
0.00504142
0.00498588
0.00492918
0.00487124
0.00481203
0.00475149
0.00468956
0.00462616
0.00456122
0.00449463
0.00442631
0.00435612
0.00428394
0.00420959
0.0041329
0.00405364
0.00397156
0.00388634
0.0037976
0.00370488
0.00360763
0.00350519
0.00339676
0.00328135
0.00315764
0.00302393
0.00287793
0.00271661
0.00253578
0.00232983
0.00209098
0.00180915
0.00146978
0.00105377
0.000544358
5.64114e-05
8.03272e-05
0.00078673
0.00153647
0.00216334
0.00269089
0.0031444
0.0035419
0.00389588
0.00421514
0.00450601
0.00477321
0.00502029
0.00525004
0.00546463
0.00566584
0.0058551
0.00603362
0.00620238
0.00636224
0.00651392
0.00665804
0.00679514
0.00692569
0.0070501
0.00716876
0.00728197
0.00739003
0.00749322
0.00759176
0.00768589
0.0077758
0.00786167
0.0079437
0.00802202
0.00809681
0.0081682
0.00823633
0.00830132
0.0083633
0.00842239
0.0084787
0.00853232
0.00858337
0.00863194
0.00867812
0.008722
0.00876366
0.00880317
0.0088406
0.00887603
0.00890949
0.00894105
0.00897076
0.00899875
0.0090251
0.00904987
0.00907313
0.00909493
0.00911533
0.00913439
0.00915214
0.00916864
0.00918393
0.00919805
0.00921104
0.00922293
0.00923375
0.00924355
0.00925234
0.00926017
0.00926705
0.00927302
0.00927808
0.00928228
0.00928563
0.00928815
0.00928986
0.00929078
0.00929092
0.0092903
0.00928894
0.00928685
0.00928404
0.00928052
0.00927631
0.00927142
0.00926585
0.00925962
0.00925274
0.0092452
0.00923703
0.00922821
0.00921877
0.0092087
0.00919802
0.00918671
0.00917479
0.00916226
0.00914912
0.00913538
0.00912102
0.00910606
0.0090905
0.00907432
0.00905754
0.00904015
0.00902215
0.00900353
0.0089843
0.00896444
0.00894396
0.00892285
0.0089011
0.00887871
0.00885568
0.008832
0.00880765
0.00878264
0.00875696
0.00873059
0.00870354
0.00867579
0.00864733
0.00861815
0.00858825
0.00855761
0.00852623
0.00849409
0.00846118
0.00842749
0.00839302
0.00835774
0.00832164
0.00828472
0.00824696
0.00820834
0.00816886
0.0081285
0.00808725
0.00804509
0.00800201
0.00795799
0.00791302
0.00786708
0.00782016
0.00777223
0.00772329
0.00767331
0.00762228
0.00757018
0.00751698
0.00746266
0.00740721
0.00735059
0.00729279
0.00723378
0.00717353
0.00711201
0.00704918
0.00698502
0.00691949
0.00685254
0.00678413
0.00671421
0.00664273
0.00656964
0.00649487
0.00641834
0.00633998
0.0062597
0.00617741
0.006093
0.00600633
0.00591728
0.00582568
0.00573134
0.00563408
0.00553363
0.00542972
0.00532202
0.00521015
0.00509364
0.00497194
0.00484439
0.00471021
0.00456843
0.00441789
0.00425711
0.00408428
0.00389703
0.00369234
0.00346629
0.00321376
0.00292808
0.00260049
0.00221973
0.00177186
0.00124044
0.000619339
6.18178e-05
8.03285e-05
0.000786765
0.00153655
0.00216346
0.00269104
0.00314456
0.00354208
0.00389606
0.00421532
0.0045062
0.00477339
0.00502048
0.00525022
0.00546481
0.00566601
0.00585527
0.00603378
0.00620254
0.00636239
0.00651406
0.00665818
0.00679527
0.00692582
0.00705023
0.00716887
0.00728208
0.00739014
0.00749332
0.00759186
0.00768598
0.00777588
0.00786176
0.00794377
0.0080221
0.00809688
0.00816826
0.00823639
0.00830138
0.00836336
0.00842244
0.00847874
0.00853237
0.00858341
0.00863198
0.00867816
0.00872203
0.00876369
0.00880319
0.00884063
0.00887605
0.00890951
0.00894107
0.00897077
0.00899877
0.00902511
0.00904988
0.00907314
0.00909494
0.00911534
0.00913439
0.00915214
0.00916864
0.00918393
0.00919805
0.00921103
0.00922292
0.00923375
0.00924354
0.00925234
0.00926016
0.00926705
0.00927301
0.00927808
0.00928227
0.00928562
0.00928814
0.00928985
0.00929077
0.00929091
0.00929029
0.00928893
0.00928683
0.00928402
0.00928051
0.0092763
0.00927141
0.00926584
0.00925961
0.00925272
0.00924519
0.00923701
0.0092282
0.00921876
0.00920869
0.009198
0.0091867
0.00917478
0.00916225
0.00914911
0.00913536
0.00912101
0.00910605
0.00909048
0.00907431
0.00905753
0.00904014
0.00902213
0.00900352
0.00898428
0.00896442
0.00894394
0.00892283
0.00890108
0.0088787
0.00885566
0.00883198
0.00880763
0.00878262
0.00875694
0.00873058
0.00870352
0.00867577
0.00864731
0.00861814
0.00858823
0.0085576
0.00852621
0.00849407
0.00846116
0.00842747
0.008393
0.00835772
0.00832162
0.0082847
0.00824694
0.00820832
0.00816884
0.00812848
0.00808723
0.00804507
0.00800199
0.00795797
0.007913
0.00786706
0.00782014
0.00777221
0.00772327
0.00767329
0.00762226
0.00757015
0.00751695
0.00746264
0.00740719
0.00735057
0.00729277
0.00723376
0.00717351
0.00711199
0.00704916
0.006985
0.00691946
0.00685251
0.00678411
0.00671419
0.00664271
0.00656962
0.00649485
0.00641832
0.00633996
0.00625968
0.00617739
0.00609298
0.00600631
0.00591726
0.00582566
0.00573133
0.00563406
0.00553361
0.0054297
0.005322
0.00521013
0.00509362
0.00497192
0.00484438
0.0047102
0.00456842
0.00441787
0.0042571
0.00408427
0.00389702
0.00369233
0.00346628
0.00321375
0.00292808
0.00260049
0.00221973
0.00177186
0.00124045
0.000619357
6.1819e-05
8.63092e-05
0.000852624
0.00169556
0.00242033
0.00304144
0.00358203
0.00406013
0.00448886
0.00487774
0.00523377
0.00556222
0.00586711
0.00615155
0.00641804
0.00666858
0.00690482
0.00712809
0.00733956
0.00754018
0.00773079
0.0079121
0.00808474
0.00824925
0.00840612
0.00855578
0.00869864
0.00883503
0.00896527
0.00908967
0.0092085
0.00932199
0.00943039
0.00953392
0.00963277
0.00972715
0.00981723
0.00990319
0.00998519
0.0100634
0.0101379
0.010209
0.0102767
0.0103411
0.0104024
0.0104608
0.0105162
0.0105689
0.0106189
0.0106663
0.0107112
0.0107537
0.0107939
0.0108318
0.0108676
0.0109013
0.0109331
0.010963
0.0109911
0.0110175
0.0110423
0.0110654
0.011087
0.0111071
0.0111257
0.011143
0.0111589
0.0111735
0.0111868
0.0111989
0.0112099
0.0112196
0.0112283
0.0112359
0.0112424
0.0112478
0.0112523
0.0112558
0.0112583
0.0112598
0.0112605
0.0112602
0.0112591
0.0112571
0.0112542
0.0112505
0.0112459
0.0112406
0.0112344
0.0112274
0.0112197
0.0112111
0.0112018
0.0111917
0.0111809
0.0111693
0.011157
0.0111439
0.0111301
0.0111155
0.0111002
0.0110842
0.0110674
0.0110498
0.0110316
0.0110126
0.0109928
0.0109723
0.0109511
0.0109291
0.0109063
0.0108828
0.0108585
0.0108334
0.0108076
0.0107809
0.0107535
0.0107252
0.0106962
0.0106663
0.0106355
0.010604
0.0105715
0.0105382
0.010504
0.0104689
0.010433
0.0103961
0.0103582
0.0103194
0.0102797
0.0102389
0.0101972
0.0101545
0.0101107
0.0100659
0.0100201
0.00997317
0.00992515
0.00987602
0.00982576
0.00977435
0.00972178
0.00966801
0.00961303
0.00955682
0.00949935
0.0094406
0.00938055
0.00931917
0.00925644
0.00919232
0.0091268
0.00905982
0.00899138
0.00892142
0.00884992
0.00877683
0.00870212
0.00862573
0.00854763
0.00846775
0.00838605
0.00830245
0.0082169
0.00812933
0.00803964
0.00794776
0.00785359
0.00775701
0.00765792
0.00755617
0.00745162
0.00734411
0.00723343
0.00711937
0.0070017
0.00688012
0.00675432
0.00662392
0.00648848
0.00634748
0.00620033
0.0060463
0.00588453
0.00571401
0.00553348
0.00534144
0.00513604
0.00491497
0.00467536
0.00441361
0.00412516
0.00380426
0.00344366
0.00303427
0.00256485
0.00202244
0.0013939
0.000682021
6.65007e-05
8.63106e-05
0.000852662
0.00169565
0.00242046
0.0030416
0.00358221
0.00406033
0.00448906
0.00487795
0.00523399
0.00556244
0.00586732
0.00615176
0.00641825
0.00666879
0.00690502
0.00712829
0.00733975
0.00754037
0.00773097
0.00791227
0.0080849
0.0082494
0.00840627
0.00855593
0.00869878
0.00883516
0.0089654
0.00908979
0.00920861
0.0093221
0.00943049
0.00953401
0.00963286
0.00972723
0.00981731
0.00990326
0.00998526
0.0100635
0.010138
0.010209
0.0102767
0.0103412
0.0104025
0.0104608
0.0105162
0.0105689
0.0106189
0.0106663
0.0107112
0.0107537
0.0107939
0.0108318
0.0108676
0.0109013
0.0109331
0.010963
0.0109912
0.0110176
0.0110423
0.0110654
0.011087
0.0111071
0.0111257
0.011143
0.0111589
0.0111735
0.0111868
0.0111989
0.0112098
0.0112196
0.0112283
0.0112358
0.0112423
0.0112478
0.0112523
0.0112557
0.0112583
0.0112598
0.0112605
0.0112602
0.0112591
0.011257
0.0112542
0.0112504
0.0112459
0.0112405
0.0112344
0.0112274
0.0112196
0.0112111
0.0112018
0.0111917
0.0111809
0.0111693
0.011157
0.0111439
0.0111301
0.0111155
0.0111002
0.0110841
0.0110674
0.0110498
0.0110316
0.0110126
0.0109928
0.0109723
0.0109511
0.0109291
0.0109063
0.0108828
0.0108585
0.0108334
0.0108076
0.0107809
0.0107535
0.0107252
0.0106962
0.0106663
0.0106355
0.0106039
0.0105715
0.0105382
0.010504
0.0104689
0.0104329
0.010396
0.0103582
0.0103194
0.0102797
0.0102389
0.0101972
0.0101545
0.0101107
0.0100659
0.0100201
0.00997315
0.00992513
0.009876
0.00982574
0.00977433
0.00972175
0.00966799
0.00961301
0.00955679
0.00949933
0.00944058
0.00938053
0.00931915
0.00925642
0.0091923
0.00912677
0.0090598
0.00899135
0.0089214
0.0088499
0.00877681
0.00870209
0.00862571
0.0085476
0.00846773
0.00838602
0.00830243
0.00821688
0.00812931
0.00803962
0.00794774
0.00785357
0.00775699
0.0076579
0.00755615
0.0074516
0.00734408
0.0072334
0.00711935
0.00700168
0.0068801
0.0067543
0.0066239
0.00648846
0.00634746
0.00620031
0.00604628
0.00588452
0.00571399
0.00553346
0.00534142
0.00513602
0.00491496
0.00467535
0.0044136
0.00412515
0.00380426
0.00344366
0.00303427
0.00256485
0.00202244
0.0013939
0.000682019
6.65009e-05
9.18109e-05
0.000908836
0.00182698
0.00263058
0.00332818
0.00394119
0.0044874
0.00498019
0.00542952
0.00584282
0.00622568
0.00658245
0.00691649
0.00723047
0.00752655
0.00780651
0.00807178
0.00832361
0.00856303
0.00879091
0.00900805
0.0092151
0.00941266
0.00960126
0.00978138
0.00995344
0.0101178
0.0102749
0.010425
0.0105685
0.0107055
0.0108365
0.0109615
0.011081
0.0111951
0.0113039
0.0114079
0.011507
0.0116015
0.0116917
0.0117776
0.0118595
0.0119374
0.0120116
0.0120822
0.0121493
0.0122131
0.0122737
0.0123312
0.0123857
0.0124373
0.0124862
0.0125324
0.0125761
0.0126173
0.0126562
0.0126929
0.0127274
0.0127598
0.0127903
0.0128189
0.0128456
0.0128706
0.0128938
0.0129154
0.0129354
0.0129539
0.0129709
0.0129864
0.0130006
0.0130134
0.0130248
0.013035
0.013044
0.0130517
0.0130582
0.0130636
0.0130679
0.0130711
0.0130731
0.0130742
0.0130742
0.0130731
0.0130711
0.0130681
0.0130642
0.0130592
0.0130534
0.0130466
0.0130389
0.0130303
0.0130207
0.0130103
0.0129991
0.0129869
0.0129739
0.0129599
0.0129452
0.0129295
0.012913
0.0128957
0.0128775
0.0128584
0.0128384
0.0128176
0.012796
0.0127734
0.01275
0.0127257
0.0127005
0.0126744
0.0126475
0.0126196
0.0125908
0.012561
0.0125304
0.0124987
0.0124662
0.0124326
0.0123981
0.0123626
0.0123261
0.0122885
0.0122499
0.0122103
0.0121696
0.0121278
0.0120849
0.0120409
0.0119958
0.0119495
0.011902
0.0118534
0.0118035
0.0117524
0.0117001
0.0116464
0.0115915
0.0115353
0.0114777
0.0114187
0.0113583
0.0112966
0.0112333
0.0111686
0.0111024
0.0110347
0.0109654
0.0108945
0.010822
0.0107478
0.0106719
0.0105942
0.0105148
0.0104335
0.0103504
0.0102653
0.0101783
0.0100892
0.00999801
0.00990465
0.00980906
0.00971114
0.00961083
0.00950802
0.0094026
0.00929448
0.00918353
0.00906961
0.00895257
0.00883223
0.00870842
0.00858092
0.00844949
0.00831387
0.00817374
0.00802875
0.0078785
0.00772252
0.00756027
0.00739111
0.00721431
0.00702897
0.00683407
0.00662835
0.00641032
0.00617819
0.00592975
0.00566233
0.00537264
0.00505664
0.00470931
0.00432452
0.00389471
0.00341078
0.00286194
0.0022364
0.0015244
0.00073574
7.06452e-05
9.18124e-05
0.000908875
0.00182708
0.00263071
0.00332835
0.00394139
0.00448761
0.00498042
0.00542976
0.00584305
0.00622592
0.00658269
0.00691672
0.0072307
0.00752678
0.00780673
0.008072
0.00832382
0.00856323
0.00879111
0.00900824
0.00921528
0.00941284
0.00960144
0.00978155
0.0099536
0.010118
0.0102751
0.0104252
0.0105686
0.0107056
0.0108366
0.0109617
0.0110811
0.0111952
0.011304
0.0114079
0.0115071
0.0116016
0.0116918
0.0117777
0.0118595
0.0119375
0.0120117
0.0120823
0.0121494
0.0122132
0.0122737
0.0123312
0.0123857
0.0124374
0.0124862
0.0125324
0.0125761
0.0126173
0.0126562
0.0126929
0.0127274
0.0127598
0.0127903
0.0128189
0.0128456
0.0128706
0.0128938
0.0129154
0.0129354
0.0129539
0.0129709
0.0129864
0.0130006
0.0130134
0.0130248
0.013035
0.013044
0.0130517
0.0130582
0.0130636
0.0130679
0.0130711
0.0130731
0.0130742
0.0130742
0.0130731
0.0130711