/*--------------------------------*- C++ -*----------------------------------*\
  =========                 |
  \\      /  F ield         | OpenFOAM: The Open Source CFD Toolbox
   \\    /   O peration     | Website:  https://openfoam.org
    \\  /    A nd           | Version:  8
     \\/     M anipulation  |
\*---------------------------------------------------------------------------*/
FoamFile
{
    version     2.0;
    format      ascii;
    class       volScalarField;
    location    "1800";
    object      epsilon;
}
// * * * * * * * * * * * * * * * * * * * * * * * * * * * * * * * * * * * * * //

dimensions      [0 2 -3 0 0 0 0];

internalField   nonuniform List<scalar> 
48000
(
0.617051
1.7981
3.35684
5.04928
6.78299
8.49979
10.2166
11.9653
13.7083
15.4622
17.2269
19.0025
20.7892
22.5866
24.3936
26.2092
28.0315
29.8587
31.6884
33.5182
35.3453
37.1669
38.98
40.7817
42.5688
44.3384
46.0875
47.8131
49.5124
51.1827
52.8215
54.4264
55.9951
57.5254
59.0157
60.4641
61.8691
63.2294
64.5439
65.8116
67.0318
68.2038
69.3273
70.4018
71.4273
72.4038
73.3314
74.2101
75.0403
75.8222
76.556
77.2499
77.9003
78.5061
79.0674
79.5851
80.0601
80.4936
80.8864
81.2397
81.5544
81.8317
82.0725
82.278
82.4491
82.5869
82.6925
82.7668
82.8108
82.8256
82.8119
82.7709
82.7033
82.6101
82.4921
82.3502
82.1851
81.9975
81.7884
81.5584
81.3081
81.0383
80.7495
80.4425
80.1178
79.776
79.4176
79.0431
78.6531
78.248
77.8284
77.3945
76.9469
76.4859
76.0119
75.5254
75.0265
74.5157
73.9933
73.4596
72.9149
72.3593
71.7933
71.217
70.6307
70.0346
69.4289
68.8138
68.1895
67.5562
66.914
66.2633
65.604
64.9363
64.2605
63.5767
62.885
62.1855
61.4784
60.7638
60.0419
59.3128
58.5766
57.8335
57.0836
56.327
55.564
54.7946
54.019
53.2373
52.4497
51.6565
50.8577
50.0535
49.2442
48.43
47.611
46.7874
45.9596
45.1278
44.2921
43.453
42.6106
41.7652
40.9172
40.0668
39.2145
38.3604
37.505
36.6487
35.7918
34.9346
34.0776
33.2212
32.3658
31.5118
30.6597
29.8098
28.9626
28.1186
27.2782
26.4419
25.61
24.7832
23.9617
23.146
22.3366
21.534
20.7384
19.9503
19.1702
18.3983
17.635
16.8806
16.1355
15.3999
14.674
13.9581
13.2523
12.5568
11.8716
11.1968
10.5325
9.87956
9.23826
8.61346
7.9978
7.38884
6.78632
6.18881
5.59496
5.00297
4.41083
3.82187
3.23215
2.63198
2.01231
1.35707
0.182863
0.176155
0.617159
1.79809
3.357
5.0495
6.78324
8.50005
10.2169
11.9656
13.7086
15.4625
17.2272
19.0029
20.7896
22.5869
24.394
26.2095
28.0319
29.8591
31.6888
33.5185
35.3456
37.1672
38.9803
40.782
42.5691
44.3387
46.0877
47.8133
49.5126
51.183
52.8218
54.4266
55.9953
57.5256
59.0159
60.4642
61.8692
63.2295
64.544
65.8118
67.0319
68.2039
69.3274
70.4019
71.4274
72.4039
73.3314
74.2101
75.0403
75.8222
76.556
77.2498
77.9003
78.506
79.0673
79.585
80.0601
80.4936
80.8864
81.2396
81.5544
81.8316
82.0724
82.2779
82.449
82.5868
82.6924
82.7667
82.8107
82.8255
82.8118
82.7708
82.7032
82.61
82.492
82.3501
82.185
81.9975
81.7883
81.5583
81.308
81.0382
80.7494
80.4424
80.1177
79.7759
79.4175
79.043
78.653
78.2479
77.8283
77.3944
76.9468
76.4858
76.0118
75.5253
75.0264
74.5156
73.9932
73.4595
72.9148
72.3592
71.7932
71.2169
70.6306
70.0345
69.4288
68.8137
68.1894
67.5561
66.914
66.2632
65.6039
64.9363
64.2605
63.5766
62.8849
62.1854
61.4783
60.7637
60.0418
59.3127
58.5765
57.8334
57.0835
56.327
55.5639
54.7945
54.0189
53.2372
52.4497
51.6564
50.8576
50.0535
49.2442
48.4299
47.6109
46.7874
45.9596
45.1277
44.2921
43.4529
42.6105
41.7652
40.9171
40.0668
39.2144
38.3604
37.505
36.6486
35.7917
34.9345
34.0776
33.2212
32.3658
31.5118
30.6596
29.8097
28.9626
28.1186
27.2782
26.4418
25.61
24.7831
23.9616
23.146
22.3366
21.5339
20.7384
19.9503
19.1701
18.3982
17.635
16.8806
16.1355
15.3999
14.674
13.9581
13.2523
12.5568
11.8716
11.1968
10.5325
9.87956
9.23826
8.61346
7.99781
7.38884
6.78632
6.18881
5.59496
5.00298
4.41084
3.82188
3.23218
2.63211
2.01276
1.35797
0.182864
0.176234
2.11841
1.79583
2.29687
2.92325
3.60108
4.29502
5.00148
5.72143
6.45139
7.19198
7.94328
8.70516
9.47735
10.2594
11.0506
11.8502
12.657
13.47
14.2878
15.1091
15.9323
16.7559
17.5782
18.3978
19.2129
20.022
20.8235
21.6158
22.3974
23.167
23.9231
24.6645
25.39
26.0985
26.789
27.4606
28.1124
28.7437
29.3539
29.9424
30.5089
31.0529
31.5742
32.0725
32.5478
32.9999
33.429
33.8351
34.2182
34.5788
34.9174
35.236
35.5336
35.8102
36.0658
36.3008
36.5156
36.7105
36.8861
37.0429
37.1813
37.3019
37.4052
37.4917
37.5619
37.6163
37.6555
37.6799
37.69
37.6863
37.6694
37.6395
37.5973
37.543
37.4773
37.4004
37.3128
37.2148
37.1069
36.9893
36.8625
36.7268
36.5824
36.4297
36.269
36.1006
35.9248
35.7417
35.5517
35.355
35.1518
34.9423
34.7267
34.5053
34.2782
34.0455
33.8076
33.5644
33.3162
33.0632
32.8054
32.543
32.2761
32.0048
31.7293
31.4496
31.1659
30.8783
30.5868
30.2915
29.9926
29.69
29.384
29.0745
28.7616
28.4455
28.1261
27.8035
27.4779
27.1492
26.8175
26.4829
26.1455
25.8053
25.4624
25.1168
24.7686
24.4179
24.0648
23.7093
23.3514
22.9914
22.6292
22.2649
21.8986
21.5305
21.1605
20.7889
20.4156
20.0409
19.6648
19.2874
18.9089
18.5294
18.1491
17.768
17.3863
17.0042
16.6218
16.2392
15.8567
15.4745
15.0926
14.7112
14.3307
13.951
13.5725
13.1953
12.8196
12.4456
12.0735
11.7035
11.3358
10.9706
10.6081
10.2485
9.89195
9.53867
9.18883
8.8426
8.50016
8.16165
7.82723
7.49704
7.17119
6.84982
6.533
6.22084
5.91339
5.61071
5.31283
5.0198
4.73166
4.44853
4.17051
3.89785
3.62954
3.36487
3.10432
2.84723
2.59331
2.34236
2.09451
1.85103
1.61147
1.37522
1.14248
0.909802
0.640745
0.343399
2.11838
1.79579
2.29686
2.92318
3.60098
4.2949
5.00135
5.72128
6.45123
7.19181
7.94309
8.70497
9.47715
10.2592
11.0504
11.8499
12.6568
13.4697
14.2876
15.1088
15.932
16.7556
17.578
18.3975
19.2126
20.0217
20.8232
21.6155
22.3971
23.1667
23.9228
24.6642
25.3897
26.0982
26.7887
27.4602
28.112
28.7433
29.3535
29.9421
30.5085
31.0525
31.5738
32.0721
32.5474
32.9996
33.4286
33.8347
34.2179
34.5784
34.917
35.2356
35.5333
35.8098
36.0655
36.3005
36.5152
36.7101
36.8857
37.0425
37.1809
37.3015
37.4048
37.4913
37.5615
37.616
37.6551
37.6795
37.6896
37.686
37.669
37.6392
37.5969
37.5427
37.4769
37.4
37.3124
37.2145
37.1065
36.989
36.8622
36.7264
36.5821
36.4294
36.2687
36.1003
35.9245
35.7414
35.5514
35.3547
35.1515
34.942
34.7264
34.505
34.2779
34.0452
33.8073
33.5641
33.3159
33.0629
32.8051
32.5427
32.2758
32.0045
31.729
31.4494
31.1657
30.878
30.5865
30.2913
29.9923
29.6898
29.3837
29.0742
28.7614
28.4452
28.1258
27.8033
27.4776
27.1489
26.8173
26.4827
26.1453
25.8051
25.4621
25.1166
24.7684
24.4177
24.0646
23.7091
23.3512
22.9912
22.629
22.2647
21.8984
21.5303
21.1603
20.7887
20.4154
20.0407
19.6646
19.2872
18.9088
18.5293
18.1489
17.7678
17.3861
17.004
16.6216
16.2391
15.8566
15.4743
15.0924
14.7111
14.3305
13.9509
13.5724
13.1952
12.8195
12.4455
12.0734
11.7034
11.3357
10.9705
10.608
10.2484
9.89185
9.53857
9.18874
8.84251
8.50007
8.16156
7.82715
7.49696
7.17112
6.84974
6.53293
6.22077
5.91332
5.61064
5.31277
5.01974
4.73161
4.44848
4.17046
3.8978
3.62949
3.36483
3.10428
2.8472
2.59328
2.34233
2.09449
1.85102
1.61148
1.37534
1.14291
0.910766
0.640724
0.343603
3.81991
2.40831
2.56402
2.93256
3.37707
3.85912
4.3647
4.88776
5.42474
5.97391
6.53424
7.10503
7.68565
8.27547
8.87381
9.47988
10.0928
10.7116
11.3353
11.9626
12.5924
13.2234
13.8544
14.484
15.111
15.734
16.3518
16.963
17.5666
18.1613
18.746
19.3198
19.8815
20.4303
20.9654
21.486
21.9913
22.4809
22.9542
23.4106
23.8498
24.2716
24.6755
25.0615
25.4295
25.7793
26.111
26.4245
26.7202
26.998
27.2585
27.5022
27.7292
27.9395
28.1333
28.3108
28.4723
28.6182
28.7488
28.8645
28.9658
29.0529
29.1263
29.1865
29.2337
29.2685
29.2913
29.3024
29.3022
29.2911
29.2696
29.238
29.1966
29.1458
29.0859
29.0174
28.9404
28.8554
28.7626
28.6623
28.5549
28.4405
28.3194
28.1919
28.0583
27.9187
27.7734
27.6226
27.4664
27.3052
27.139
26.9681
26.7925
26.6125
26.4283
26.2399
26.0475
25.8513
25.6513
25.4476
25.2405
25.03
24.8161
24.5991
24.3789
24.1557
23.9296
23.7006
23.4688
23.2343
22.9972
22.7575
22.5152
22.2705
22.0234
21.774
21.5223
21.2683
21.0122
20.754
20.4937
20.2313
19.967
19.7008
19.4327
19.1627
18.891
18.6176
18.3426
18.0659
17.7877
17.508
17.2269
16.9444
16.6606
16.3756
16.0895
15.8023
15.5141
15.2251
14.9352
14.6446
14.3533
14.0615
13.7693
13.4768
13.1841
12.8912
12.5985
12.3058
12.0134
11.7215
11.4301
11.1393
10.8494
10.5604
10.2726
9.98595
9.70074
9.41708
9.13511
8.85501
8.5769
8.30094
8.02729
7.75608
7.48746
7.22157
6.95855
6.69853
6.44163
6.18797
5.93767
5.69084
5.44756
5.20793
4.97202
4.73991
4.51166
4.28731
4.06692
3.85052
3.63815
3.42988
3.22572
3.02569
2.82959
2.63729
2.44882
2.2641
2.0834
1.90701
1.73545
1.5698
1.41159
1.26349
1.13178
1.03195
1.02015
1.70804
3.8201
2.4083
2.56393
2.93242
3.37691
3.85894
4.36451
4.88756
5.42453
5.97369
6.53402
7.1048
7.68541
8.27522
8.87356
9.47963
10.0926
10.7114
11.335
11.9623
12.5921
13.2232
13.8541
14.4838
15.1107
15.7337
16.3515
16.9628
17.5663
18.161
18.7458
19.3195
19.8812
20.43
20.9651
21.4857
21.9911
22.4807
22.9539
23.4104
23.8496
24.2713
24.6753
25.0613
25.4293
25.7791
26.1108
26.4243
26.72
26.9978
27.2583
27.502
27.729
27.9393
28.1331
28.3106
28.4721
28.618
28.7487
28.8644
28.9656
29.0527
29.1262
29.1863
29.2336
29.2684
29.2911
29.3022
29.302
29.291
29.2695
29.2378
29.1964
29.1456
29.0858
29.0172
28.9403
28.8553
28.7625
28.6622
28.5547
28.4403
28.3193
28.1918
28.0582
27.9186
27.7733
27.6225
27.4663
27.3051
27.1389
26.9679
26.7924
26.6124
26.4282
26.2398
26.0474
25.8512
25.6512
25.4475
25.2404
25.0299
24.816
24.599
24.3788
24.1556
23.9295
23.7005
23.4687
23.2342
22.9971
22.7574
22.5151
22.2704
22.0234
21.7739
21.5222
21.2683
21.0122
20.7539
20.4936
20.2313
19.9669
19.7007
19.4326
19.1627
18.891
18.6176
18.3425
18.0658
17.7876
17.5079
17.2268
16.9443
16.6606
16.3756
16.0895
15.8023
15.5141
15.225
14.9351
14.6445
14.3533
14.0615
13.7693
13.4768
13.184
12.8912
12.5984
12.3058
12.0134
11.7214
11.43
11.1393
10.8493
10.5604
10.2725
9.98591
9.7007
9.41704
9.13508
8.85497
8.57687
8.30091
8.02726
7.75605
7.48743
7.22155
6.95852
6.6985
6.4416
6.18795
5.93765
5.69081
5.44754
5.20791
4.972
4.7399
4.51164
4.2873
4.0669
3.8505
3.63814
3.42986
3.22571
3.02568
2.82958
2.63728
2.44881
2.26409
2.08339
1.907
1.73544
1.56979
1.41158
1.26349
1.13183
1.03198
1.01953
1.70724
5.59766
3.15987
3.04793
3.26549
3.59613
3.98272
4.40292
4.84608
5.30638
5.78047
6.2663
6.76249
7.26802
7.78205
8.30381
8.83249
9.36729
9.90731
10.4516
10.9993
11.5492
12.1003
12.6515
13.2017
13.7497
14.2944
14.8347
15.3695
15.8977
16.4184
16.9304
17.433
17.9252
18.4063
18.8754
19.3319
19.7752
20.2047
20.6199
21.0204
21.4058
21.7758
22.1303
22.4689
22.7916
23.0984
23.3891
23.6638
23.9227
24.1658
24.3934
24.6058
24.8033
24.9858
25.1537
25.3071
25.4463
25.5716
25.6832
25.7816
25.8671
25.94
26.0007
26.0495
26.0868
26.113
26.1284
26.1333
26.1282
26.1134
26.0893
26.0561
26.0141
25.9638
25.9054
25.8393
25.7656
25.6848
25.597
25.5026
25.4017
25.2947
25.1818
25.0632
24.9391
24.8098
24.6754
24.5361
24.3922
24.2437
24.0909
23.9339
23.7729
23.608
23.4393
23.2671
23.0913
22.9122
22.7298
22.5443
22.3558
22.1643
21.97
21.7729
21.5731
21.3708
21.1659
20.9586
20.7489
20.5369
20.3227
20.1063
19.8878
19.6672
19.4446
19.2201
18.9937
18.7654
18.5353
18.3034
18.0699
17.8346
17.5978
17.3594
17.1195
16.8781
16.6353
16.3911
16.1455
15.8987
15.6507
15.4016
15.1513
14.8999
14.6476
14.3944
14.1403
13.8854
13.6298
13.3736
13.1168
12.8595
12.6018
12.3439
12.0857
11.8274
11.5691
11.3108
11.0528
10.795
10.5377
10.2809
10.0247
9.76926
9.51473
9.26121
9.00883
8.75772
8.50799
8.2598
8.01327
7.76852
7.52569
7.28492
7.04632
6.81003
6.57617
6.34487
6.11623
5.89039
5.66743
5.44748
5.23063
5.01697
4.80659
4.59958
4.396
4.19593
3.99944
3.80657
3.6174
3.43197
3.25034
3.07257
2.89872
2.72884
2.56296
2.40113
2.2435
2.09029
1.9419
1.79892
1.66225
1.53357
1.4154
1.31253
1.23523
1.21005
1.33906
2.52844
5.59789
3.15981
3.0478
3.26532
3.59594
3.98252
4.40271
4.84585
5.30615
5.78023
6.26605
6.76224
7.26777
7.7818
8.30355
8.83223
9.36702
9.90705
10.4514
10.999
11.5489
12.1001
12.6513
13.2014
13.7494
14.2942
14.8345
15.3693
15.8975
16.4181
16.9302
17.4328
17.925
18.4061
18.8752
19.3317
19.775
20.2045
20.6197
21.0202
21.4056
21.7757
22.1301
22.4687
22.7915
23.0982
23.3889
23.6637
23.9225
24.1657
24.3933
24.6057
24.8032
24.9857
25.1536
25.307
25.4462
25.5715
25.6831
25.7815
25.867
25.9399
26.0006
26.0494
26.0867
26.1129
26.1283
26.1333
26.1282
26.1134
26.0892
26.056
26.0141
25.9638
25.9054
25.8392
25.7656
25.6847
25.5969
25.5025
25.4017
25.2947
25.1818
25.0632
24.9391
24.8098
24.6754
24.5361
24.3921
24.2437
24.0909
23.9339
23.7728
23.6079
23.4393
23.267
23.0913
22.9122
22.7298
22.5443
22.3558
22.1643
21.9699
21.7729
21.5731
21.3707
21.1659
20.9586
20.7489
20.5369
20.3227
20.1063
19.8878
19.6672
19.4446
19.2201
18.9936
18.7653
18.5353
18.3034
18.0698
17.8346
17.5978
17.3594
17.1194
16.8781
16.6352
16.391
16.1455
15.8987
15.6507
15.4015
15.1513
14.8999
14.6476
14.3944
14.1403
13.8854
13.6298
13.3736
13.1168
12.8595
12.6018
12.3439
12.0857
11.8274
11.5691
11.3108
11.0528
10.795
10.5377
10.2808
10.0247
9.76926
9.51473
9.26121
9.00883
8.75771
8.50799
8.2598
8.01326
7.76852
7.52569
7.28491
7.04632
6.81003
6.57617
6.34487
6.11623
5.89038
5.66743
5.44748
5.23062
5.01696
4.80659
4.59957
4.396
4.19593
3.99944
3.80657
3.6174
3.43196
3.25034
3.07257
2.89872
2.72884
2.56295
2.40113
2.2435
2.09029
1.9419
1.79892
1.66225
1.53357
1.41539
1.31253
1.23524
1.21004
1.33887
2.52815
7.36006
3.97216
3.62442
3.72644
3.98027
4.30779
4.67841
5.07733
5.49638
5.93074
6.37737
6.83425
7.29998
7.77346
8.2538
8.74016
9.23175
9.72775
10.2273
10.7296
11.2337
11.7387
12.2435
12.7472
13.2488
13.7474
14.2418
14.7312
15.2146
15.6911
16.1598
16.6199
17.0706
17.5111
17.9407
18.3589
18.765
19.1586
19.5392
19.9063
20.2597
20.5991
20.9242
21.2348
21.5308
21.8122
22.0788
22.3308
22.5682
22.7911
22.9996
23.194
23.3744
23.541
23.6941
23.8337
23.9602
24.0737
24.1747
24.2633
24.3399
24.4048
24.4584
24.5009
24.5326
24.554
24.5653
24.5669
24.5591
24.5422
24.5165
24.4824
24.4401
24.39
24.3323
24.2673
24.1953
24.1166
24.0313
23.9399
23.8424
23.7392
23.6304
23.5163
23.397
23.2729
23.144
23.0105
22.8727
22.7306
22.5845
22.4345
22.2807
22.1233
21.9625
21.7982
21.6308
21.4602
21.2866
21.1101
20.9307
20.7487
20.564
20.3768
20.1872
19.9951
19.8008
19.6042
19.4055
19.2046
19.0018
18.7969
18.5901
18.3815
18.171
17.9588
17.7449
17.5293
17.3121
17.0933
16.873
16.6512
16.4281
16.2035
15.9776
15.7504
15.522
15.2923
15.0616
14.8297
14.5968
14.3629
14.1281
13.8924
13.6558
13.4185
13.1806
12.9419
12.7028
12.4631
12.2231
11.9827
11.742
11.5012
11.2603
11.0193
10.7785
10.5379
10.2976
10.0576
9.81818
9.57934
9.34121
9.1039
8.86753
8.63221
8.39806
8.1652
7.93375
7.70382
7.47554
7.24903
7.02441
6.8018
6.58131
6.36306
6.14716
5.93374
5.72288
5.51471
5.30932
5.10681
4.90728
4.7108
4.51748
4.32738
4.14059
3.95718
3.77722
3.60078
3.42794
3.25878
3.09336
2.9318
2.77417
2.62061
2.47125
2.32629
2.18601
2.0508
1.92127
1.79828
1.68317
1.57806
1.48648
1.41503
1.37782
1.41163
1.65911
3.3533
7.36033
3.97207
3.62426
3.72625
3.98006
4.30756
4.67818
5.07708
5.49613
5.93048
6.37711
6.83399
7.29971
7.77319
8.25353
8.73989
9.23148
9.72748
10.2271
10.7294
11.2335
11.7384
12.2432
12.747
13.2486
13.7471
14.2416
14.731
15.2144
15.6909
16.1596
16.6197
17.0703
17.5108
17.9405
18.3587
18.7648
19.1584
19.539
19.9062
20.2596
20.5989
20.924
21.2346
21.5307
21.812
22.0787
22.3307
22.5681
22.7909
22.9995
23.1938
23.3743
23.5409
23.694
23.8336
23.9601
24.0736
24.1746
24.2632
24.3399
24.4048
24.4583
24.5008
24.5326
24.5539
24.5653
24.5669
24.5591
24.5422
24.5165
24.4824
24.4401
24.39
24.3323
24.2673
24.1953
24.1165
24.0313
23.9398
23.8424
23.7391
23.6304
23.5162
23.397
23.2728
23.1439
23.0105
22.8726
22.7306
22.5845
22.4345
22.2807
22.1233
21.9624
21.7982
21.6308
21.4602
21.2866
21.1101
20.9307
20.7487
20.564
20.3768
20.1872
19.9951
19.8008
19.6042
19.4055
19.2046
19.0017
18.7969
18.5901
18.3815
18.171
17.9588
17.7448
17.5293
17.3121
17.0933
16.873
16.6512
16.4281
16.2035
15.9776
15.7504
15.522
15.2923
15.0616
14.8297
14.5968
14.3629
14.1281
13.8923
13.6558
13.4185
13.1806
12.9419
12.7028
12.4631
12.2231
11.9827
11.742
11.5012
11.2603
11.0193
10.7785
10.5379
10.2976
10.0576
9.81819
9.57934
9.34121
9.1039
8.86753
8.63222
8.39807
8.16521
7.93375
7.70383
7.47555
7.24904
7.02442
6.8018
6.58131
6.36306
6.14717
5.93374
5.72289
5.51472
5.30933
5.10682
4.90728
4.71081
4.51748
4.32738
4.14059
3.95718
3.77722
3.60079
3.42795
3.25878
3.09337
2.9318
2.77418
2.62062
2.47126
2.3263
2.18601
2.05081
1.92127
1.79829
1.68317
1.57806
1.48648
1.41503
1.37783
1.41163
1.65909
3.35324
9.13068
4.81321
4.25597
4.26204
4.45688
4.74213
5.07927
5.4496
5.84275
6.25251
6.67495
7.10746
7.54824
7.99596
8.44961
8.9083
9.37126
9.83771
10.3069
10.7781
11.2504
11.7231
12.1953
12.6661
13.1348
13.6003
14.0618
14.5185
14.9695
15.414
15.8512
16.2804
16.7008
17.1117
17.5126
17.9029
18.282
18.6494
19.0048
19.3477
19.6779
19.995
20.2989
20.5893
20.8661
21.1293
21.3787
21.6145
21.8366
22.0451
22.2402
22.422
22.5906
22.7462
22.889
23.0192
23.137
23.2427
23.3364
23.4185
23.4893
23.5489
23.5978
23.6363
23.6645
23.6829
23.6917
23.6912
23.6818
23.6638
23.6373
23.6028
23.5605
23.5107
23.4536
23.3896
23.3188
23.2416
23.1582
23.0687
22.9735
22.8728
22.7667
22.6556
22.5395
22.4186
22.2932
22.1634
22.0294
21.8914
21.7495
21.6038
21.4544
21.3017
21.1455
20.9862
20.8237
20.6582
20.4899
20.3187
20.1449
19.9685
19.7895
19.6081
19.4244
19.2384
19.0502
18.8599
18.6675
18.4732
18.2769
18.0787
17.8787
17.677
17.4735
17.2684
17.0617
16.8534
16.6436
16.4324
16.2197
16.0057
15.7903
15.5737
15.3559
15.1368
14.9167
14.6954
14.4731
14.2498
14.0256
13.8005
13.5746
13.3479
13.1204
12.8923
12.6637
12.4345
12.2048
11.9747
11.7443
11.5137
11.2829
11.052
10.8212
10.5904
10.3597
10.1294
9.89934
9.66978
9.44078
9.21243
8.98484
8.75811
8.53236
8.30768
8.0842
7.86202
7.64126
7.42202
7.20443
6.98859
6.77462
6.56263
6.35273
6.14502
5.93962
5.73663
5.53615
5.33828
5.14313
4.95077
4.76131
4.57483
4.39142
4.21116
4.03413
3.86042
3.6901
3.52327
3.36001
3.20042
3.04462
2.89273
2.7449
2.6013
2.46218
2.32783
2.19865
2.07521
1.95829
1.84904
1.74916
1.66133
1.59005
1.54366
1.54002
1.62604
1.98395
4.17738
9.13098
4.81309
4.25578
4.26182
4.45665
4.74188
5.07902
5.44934
5.84248
6.25224
6.67467
7.10718
7.54796
7.99568
8.44933
8.90802
9.37098
9.83743
10.3066
10.7778
11.2501
11.7228
12.195
12.6659
13.1345
13.6
14.0616
14.5183
14.9693
15.4138
15.851
16.2801
16.7006
17.1115
17.5124
17.9027
18.2818
18.6493
19.0046
19.3476
19.6777
19.9949
20.2987
20.5891
20.866
21.1291
21.3786
21.6144
21.8365
22.045
22.2401
22.4219
22.5905
22.7461
22.8889
23.0191
23.137
23.2426
23.3364
23.4185
23.4892
23.5489
23.5978
23.6362
23.6645
23.6828
23.6916
23.6912
23.6818
23.6637
23.6373
23.6028
23.5605
23.5106
23.4536
23.3896
23.3188
23.2416
23.1581
23.0687
22.9735
22.8728
22.7667
22.6555
22.5394
22.4186
22.2932
22.1634
22.0294
21.8914
21.7494
21.6037
21.4544
21.3016
21.1455
20.9862
20.8237
20.6582
20.4899
20.3187
20.1449
19.9684
19.7895
19.6081
19.4244
19.2384
19.0502
18.8599
18.6675
18.4732
18.2769
18.0787
17.8787
17.677
17.4735
17.2684
17.0617
16.8534
16.6436
16.4324
16.2197
16.0057
15.7903
15.5737
15.3559
15.1368
14.9167
14.6954
14.4731
14.2498
14.0256
13.8005
13.5746
13.3479
13.1204
12.8923
12.6637
12.4345
12.2048
11.9747
11.7443
11.5137
11.2829
11.052
10.8212
10.5904
10.3597
10.1294
9.89935
9.66979
9.44078
9.21243
8.98484
8.75812
8.53236
8.30769
8.08421
7.86203
7.64126
7.42203
7.20444
6.9886
6.77463
6.56264
6.35273
6.14503
5.93963
5.73663
5.53616
5.33829
5.14313
4.95078
4.76131
4.57483
4.39142
4.21116
4.03413
3.86042
3.69011
3.52327
3.36001
3.20043
3.04463
2.89273
2.7449
2.60131
2.46218
2.32783
2.19865
2.07521
1.9583
1.84904
1.74916
1.66133
1.59006
1.54366
1.54002
1.62605
1.98396
4.17737
10.9891
5.69116
4.93177
4.85233
4.99833
5.25076
5.56327
5.91338
6.28864
6.68156
7.08738
7.50296
7.92614
8.35538
8.78955
9.22771
9.6691
10.113
10.5587
11.0056
11.453
11.9001
12.3462
12.7907
13.2326
13.6713
14.106
14.536
14.9604
15.3787
15.79
16.1936
16.589
16.9756
17.3527
17.7199
18.0766
18.4224
18.757
19.0799
19.3909
19.6896
19.976
20.2498
20.5109
20.7591
20.9946
21.2171
21.4268
21.6237
21.8079
21.9796
22.1388
22.2857
22.4205
22.5433
22.6544
22.7539
22.8422
22.9193
22.9856
23.0414
23.0869
23.1224
23.1482
23.1645
23.1716
23.1698
23.1595
23.1408
23.114
23.0795
23.0374
22.9881
22.9318
22.8688
22.7992
22.7233
22.6415
22.5538
22.4605
22.3618
22.2579
22.1491
22.0354
21.9172
21.7945
21.6675
21.5364
21.4013
21.2624
21.1199
20.9738
20.8243
20.6716
20.5157
20.3568
20.1949
20.0302
19.8627
19.6927
19.5201
19.345
19.1676
18.9879
18.8059
18.6218
18.4357
18.2475
18.0574
17.8654
17.6716
17.4761
17.2788
17.0799
16.8794
16.6773
16.4737
16.2687
16.0623
15.8545
15.6454
15.4351
15.2235
15.0107
14.7969
14.582
14.366
14.1491
13.9312
13.7125
13.4929
13.2726
13.0515
12.8298
12.6076
12.3847
12.1615
11.9378
11.7138
11.4895
11.265
11.0405
10.8158
10.5913
10.3669
10.1427
9.91876
9.69527
9.47226
9.24985
9.02812
8.80718
8.58712
8.36806
8.15009
7.93333
7.71787
7.50383
7.29131
7.08042
6.87127
6.66396
6.4586
6.2553
6.05415
5.85527
5.65875
5.46468
5.27318
5.08432
4.8982
4.71491
4.53455
4.3572
4.18294
4.01187
3.84407
3.67965
3.5187
3.36133
3.20767
3.05786
2.91206
2.77046
2.63333
2.50095
2.37372
2.25217
2.137
2.0292
1.93014
1.84192
1.76779
1.71321
1.68829
1.71462
1.8494
2.31455
5.0083
10.9894
5.69103
4.93156
4.85209
4.99808
5.2505
5.56299
5.91309
6.28835
6.68127
7.08709
7.50267
7.92585
8.35509
8.78926
9.22742
9.66882
10.1127
10.5585
11.0054
11.4527
11.8998
12.346
12.7904
13.2324
13.6711
14.1058
14.5358
14.9602
15.3784
15.7897
16.1934
16.5888
16.9754
17.3525
17.7197
18.0764
18.4222
18.7568
19.0797
19.3907
19.6895
19.9759
20.2497
20.5107
20.759
20.9944
21.217
21.4267
21.6236
21.8078
21.9795
22.1387
22.2856
22.4204
22.5432
22.6543
22.7539
22.8421
22.9192
22.9856
23.0414
23.0869
23.1224
23.1481
23.1644
23.1716
23.1698
23.1594
23.1408
23.114
23.0795
23.0374
22.9881
22.9318
22.8687
22.7992
22.7233
22.6414
22.5537
22.4605
22.3618
22.2579
22.1491
22.0354
21.9172
21.7944
21.6675
21.5364
21.4013
21.2624
21.1199
20.9738
20.8243
20.6716
20.5157
20.3567
20.1949
20.0302
19.8627
19.6927
19.5201
19.345
19.1676
18.9878
18.8059
18.6218
18.4357
18.2475
18.0574
17.8654
17.6716
17.4761
17.2788
17.0799
16.8794
16.6773
16.4737
16.2687
16.0623
15.8545
15.6454
15.4351
15.2235
15.0107
14.7969
14.582
14.366
14.1491
13.9312
13.7125
13.4929
13.2726
13.0515
12.8298
12.6076
12.3847
12.1615
11.9378
11.7138
11.4895
11.265
11.0405
10.8159
10.5913
10.3669
10.1427
9.91877
9.69527
9.47227
9.24985
9.02812
8.80718
8.58713
8.36807
8.1501
7.93333
7.71788
7.50384
7.29132
7.08043
6.87127
6.66397
6.45861
6.2553
6.05416
5.85528
5.65875
5.46469
5.27318
5.08432
4.89821
4.71492
4.53456
4.3572
4.18295
4.01187
3.84408
3.67966
3.5187
3.36134
3.20768
3.05786
2.91206
2.77047
2.63333
2.50095
2.37373
2.25218
2.13701
2.0292
1.93015
1.84193
1.76779
1.71321
1.6883
1.71462
1.84941
2.31458
5.0083
12.8951
6.60217
5.64672
5.48866
5.59236
5.81797
6.1113
6.4462
6.80822
7.18868
7.58207
7.98474
8.39424
8.80883
9.22728
9.64862
10.0721
10.4971
10.9229
11.349
11.7748
12.1998
12.6232
13.0444
13.4629
13.878
14.289
14.6952
15.096
15.4908
15.8789
16.2598
16.6328
16.9975
17.3533
17.6997
18.0363
18.3627
18.6785
18.9834
19.2771
19.5594
19.8301
20.089
20.3359
20.5709
20.7937
21.0044
21.2031
21.3897
21.5643
21.727
21.878
22.0172
22.145
22.2615
22.3667
22.461
22.5446
22.6175
22.6802
22.7328
22.7755
22.8086
22.8324
22.8471
22.853
22.8504
22.8394
22.8204
22.7936
22.7593
22.7177
22.669
22.6136
22.5515
22.4832
22.4087
22.3284
22.2423
22.1508
22.054
21.9522
21.8454
21.734
21.618
21.4976
21.373
21.2444
21.1119
20.9756
20.8357
20.6923
20.5456
20.3956
20.2425
20.0864
19.9274
19.7656
19.6011
19.434
19.2643
19.0923
18.9178
18.7412
18.5623
18.3813
18.1983
18.0132
17.8263
17.6375
17.4469
17.2545
17.0605
16.8648
16.6676
16.4689
16.2686
16.067
15.8639
15.6596
15.4539
15.2471
15.039
14.8298
14.6195
14.4082
14.1959
13.9826
13.7685
13.5535
13.3377
13.1212
12.904
12.6862
12.4679
12.249
12.0298
11.8101
11.5902
11.37
11.1497
10.9293
10.7089
10.4886
10.2685
10.0486
9.82903
9.60989
9.39126
9.17324
8.95593
8.73941
8.52378
8.30916
8.09562
7.88329
7.67226
7.46263
7.25451
7.048
6.8432
6.64021
6.43914
6.24009
6.04315
5.84842
5.65601
5.466
5.27849
5.09358
4.91135
4.73189
4.5553
4.38167
4.2111
4.04367
3.87949
3.71866
3.56132
3.40758
3.25759
3.11154
2.96961
2.83206
2.69919
2.57137
2.44908
2.33297
2.22387
2.12294
2.03184
1.953
1.89026
1.85005
1.84429
1.8984
2.08004
2.65168
5.84835
12.8954
6.60201
5.64648
5.4884
5.59208
5.81768
6.111
6.4459
6.80792
7.18838
7.58176
7.98444
8.39394
8.80853
9.22698
9.64832
10.0718
10.4968
10.9226
11.3487
11.7746
12.1995
12.6229
13.0442
13.4627
13.8778
14.2887
14.695
15.0958
15.4906
15.8787
16.2596
16.6326
16.9973
17.3531
17.6995
18.0361
18.3625
18.6783
18.9833
19.277
19.5593
19.83
20.0889
20.3358
20.5707
20.7936
21.0043
21.203
21.3896
21.5642
21.7269
21.8779
22.0172
22.145
22.2614
22.3667
22.461
22.5445
22.6175
22.6801
22.7327
22.7754
22.8086
22.8324
22.8471
22.853
22.8503
22.8394
22.8204
22.7936
22.7592
22.7176
22.669
22.6135
22.5515
22.4832
22.4087
22.3283
22.2423
22.1508
22.054
21.9522
21.8454
21.734
21.618
21.4976
21.373
21.2444
21.1119
20.9756
20.8357
20.6923
20.5456
20.3956
20.2425
20.0864
19.9274
19.7656
19.6011
19.434
19.2643
19.0923
18.9178
18.7412
18.5623
18.3813
18.1983
18.0132
17.8263
17.6375
17.4469
17.2545
17.0605
16.8648
16.6676
16.4689
16.2686
16.067
15.8639
15.6596
15.4539
15.2471
15.039
14.8298
14.6195
14.4082
14.1959
13.9826
13.7685
13.5535
13.3377
13.1212
12.904
12.6862
12.4679
12.249
12.0298
11.8101
11.5902
11.37
11.1497
10.9293
10.709
10.4886
10.2685
10.0486
9.82904
9.6099
9.39127
9.17325
8.95593
8.73941
8.52379
8.30916
8.09563
7.8833
7.67227
7.46264
7.25452
7.048
6.8432
6.64022
6.43915
6.24009
6.04315
5.84843
5.65601
5.46601
5.2785
5.09358
4.91135
4.7319
4.55531
4.38168
4.2111
4.04367
3.87949
3.71867
3.56132
3.40758
3.2576
3.11154
2.96961
2.83206
2.69919
2.57137
2.44909
2.33297
2.22387
2.12294
2.03184
1.953
1.89026
1.85005
1.84429
1.89841
2.08005
2.65172
5.84836
14.8609
7.54839
6.39976
6.16769
6.2336
6.43647
6.71424
7.03713
7.38876
7.75933
8.14264
8.5346
8.93249
9.33443
9.73908
10.1455
10.5529
10.9607
11.3684
11.7755
12.1816
12.586
12.9883
13.3881
13.7847
14.1777
14.5665
14.9504
15.3291
15.7018
16.0681
16.4275
16.7794
17.1234
17.459
17.7858
18.1033
18.4113
18.7093
18.9972
19.2746
19.5412
19.797
20.0417
20.2753
20.4975
20.7085
20.908
21.0962
21.273
21.4385
21.5928
21.736
21.8681
21.9893
22.0998
22.1996
22.2891
22.3683
22.4374
22.4967
22.5463
22.5865
22.6176
22.6396
22.653
22.6578
22.6545
22.6431
22.6239
22.5972
22.5632
22.5221
22.4742
22.4197
22.3588
22.2917
22.2186
22.1398
22.0554
21.9657
21.8708
21.7708
21.6661
21.5568
21.4429
21.3248
21.2025
21.0762
20.946
20.8121
20.6746
20.5337
20.3894
20.2419
20.0913
19.9377
19.7813
19.622
19.46
19.2955
19.1284
18.9589
18.7871
18.613
18.4367
18.2583
18.0778
17.8953
17.711
17.5248
17.3367
17.147
16.9556
16.7625
16.5679
16.3717
16.1741
15.9751
15.7747
15.573
15.37
15.1658
14.9604
14.7538
14.5463
14.3376
14.128
13.9175
13.7061
13.4939
13.2809
13.0672
12.8529
12.6379
12.4224
12.2065
11.9901
11.7734
11.5564
11.3392
11.1219
10.9045
10.6871
10.4698
10.2527
10.0358
9.81933
9.60325
9.38769
9.17274
8.9585
8.74505
8.53249
8.32092
8.11043
7.90112
7.6931
7.48645
7.28129
7.0777
6.87579
6.67565
6.47739
6.2811
6.08687
5.8948
5.70498
5.51752
5.33249
5.15
4.97013
4.79299
4.61865
4.44722
4.2788
4.11349
3.95141
3.79268
3.63742
3.48581
3.338
3.19421
3.05467
2.91967
2.78958
2.66484
2.546
2.43382
2.32927
2.23369
2.14898
2.07795
2.02501
1.99757
2.0094
2.08987
2.31688
2.99378
6.69306
14.8613
7.5482
6.3995
6.1674
6.23329
6.43616
6.71392
7.03681
7.38844
7.75901
8.14232
8.53428
8.93218
9.33412
9.73878
10.1452
10.5526
10.9604
11.3682
11.7753
12.1813
12.5857
12.9881
13.3878
13.7845
14.1775
14.5662
14.9502
15.3288
15.7016
16.0679
16.4273
16.7792
17.1232
17.4588
17.7856
18.1032
18.4111
18.7092
18.9971
19.2744
19.5411
19.7969
20.0416
20.2752
20.4974
20.7084
20.9079
21.0961
21.2729
21.4384
21.5927
21.7359
21.868
21.9893
22.0997
22.1996
22.289
22.3682
22.4373
22.4966
22.5463
22.5865
22.6175
22.6396
22.6529
22.6578
22.6544
22.643
22.6239
22.5972
22.5632
22.5221
22.4742
22.4197
22.3588
22.2917
22.2186
22.1398
22.0554
21.9657
21.8708
21.7708
21.6661
21.5568
21.4429
21.3248
21.2025
21.0762
20.946
20.8121
20.6746
20.5337
20.3894
20.2419
20.0913
19.9377
19.7813
19.622
19.46
19.2955
19.1284
18.9589
18.7871
18.613
18.4367
18.2583
18.0778
17.8953
17.711
17.5248
17.3367
17.147
16.9556
16.7625
16.5679
16.3717
16.1741
15.9751
15.7747
15.573
15.37
15.1658
14.9604
14.7539
14.5463
14.3376
14.128
13.9175
13.7061
13.4939
13.2809
13.0672
12.8529
12.6379
12.4224
12.2065
11.9901
11.7734
11.5564
11.3392
11.1219
10.9045
10.6871
10.4698
10.2527
10.0358
9.81933
9.60326
9.3877
9.17275
8.9585
8.74505
8.53249
8.32092
8.11043
7.90113
7.6931
7.48646
7.28129
7.07771
6.87579
6.67566
6.47739
6.2811
6.08687
5.8948
5.70499
5.51752
5.3325
5.15001
4.97014
4.79299
4.61865
4.44722
4.2788
4.1135
3.95141
3.79268
3.63743
3.48581
3.33801
3.19421
3.05467
2.91968
2.78959
2.66484
2.54601
2.43383
2.32927
2.23369
2.14898
2.07796
2.02502
1.99757
2.0094
2.08987
2.3169
2.99382
6.69306
16.8837
8.53106
7.19139
6.88882
6.9203
7.10338
7.3681
7.68107
8.02406
8.38621
8.76068
9.14302
9.53028
9.92043
10.3121
10.7044
11.0965
11.4879
11.8782
12.267
12.6539
13.0386
13.4206
13.7995
14.175
14.5465
14.9137
15.276
15.6331
15.9844
16.3295
16.6679
16.9992
17.323
17.6389
17.9465
18.2454
18.5353
18.816
19.0871
19.3485
19.5998
19.8409
20.0717
20.2921
20.5019
20.7011
20.8896
21.0675
21.2346
21.3912
21.5372
21.6727
21.7978
21.9125
22.0171
22.1117
22.1963
22.2712
22.3366
22.3925
22.4393
22.4771
22.5061
22.5265
22.5385
22.5424
22.5383
22.5266
22.5073
22.4807
22.4471
22.4066
22.3594
22.3059
22.2461
22.1802
22.1086
22.0313
21.9486
21.8606
21.7675
21.6695
21.5668
21.4595
21.3478
21.2318
21.1117
20.9877
20.8598
20.7282
20.5931
20.4545
20.3126
20.1675
20.0193
19.8681
19.714
19.5572
19.3976
19.2354
19.0707
18.9036
18.7342
18.5624
18.3885
18.2124
18.0343
17.8541
17.6721
17.4882
17.3025
17.115
16.9258
16.7351