/*--------------------------------*- C++ -*----------------------------------*\
  =========                 |
  \\      /  F ield         | OpenFOAM: The Open Source CFD Toolbox
   \\    /   O peration     | Website:  https://openfoam.org
    \\  /    A nd           | Version:  8
     \\/     M anipulation  |
\*---------------------------------------------------------------------------*/
FoamFile
{
    version     2.0;
    format      ascii;
    class       volScalarField;
    location    "1800";
    object      k;
}
// * * * * * * * * * * * * * * * * * * * * * * * * * * * * * * * * * * * * * //

dimensions      [0 2 -2 0 0 0 0];

internalField   nonuniform List<scalar> 
48000
(
0.0222998
0.0340195
0.0528143
0.0694047
0.0845068
0.0982257
0.111042
0.123378
0.135087
0.146377
0.157313
0.167946
0.178315
0.18845
0.198372
0.208097
0.217635
0.226993
0.236174
0.24518
0.254011
0.262665
0.271139
0.279431
0.287536
0.29545
0.303169
0.31069
0.318008
0.32512
0.332023
0.338714
0.345191
0.351451
0.357495
0.363319
0.368925
0.374313
0.379482
0.384434
0.38917
0.393693
0.398003
0.402104
0.405998
0.409689
0.41318
0.416473
0.419572
0.42248
0.4252
0.427765
0.430162
0.432388
0.434445
0.436338
0.438072
0.43965
0.441078
0.44236
0.443501
0.444504
0.445374
0.446116
0.446733
0.447229
0.447609
0.447876
0.448033
0.448085
0.448035
0.447885
0.44764
0.447302
0.446875
0.446361
0.445763
0.445084
0.444325
0.443491
0.442582
0.441601
0.44055
0.439432
0.438248
0.436999
0.435688
0.434317
0.432886
0.431398
0.429853
0.428253
0.4266
0.424894
0.423136
0.421327
0.41947
0.417563
0.415609
0.413607
0.411559
0.409466
0.407327
0.405144
0.402917
0.400646
0.398332
0.395976
0.393577
0.391136
0.388653
0.386129
0.383563
0.380957
0.378309
0.37562
0.37289
0.37012
0.367309
0.364457
0.361564
0.358631
0.355657
0.352643
0.349588
0.346492
0.343356
0.340179
0.336961
0.333703
0.330403
0.327064
0.323683
0.320262
0.316801
0.313299
0.309757
0.306175
0.302553
0.298891
0.29519
0.29145
0.287671
0.283854
0.279998
0.276106
0.272176
0.26821
0.264208
0.260171
0.2561
0.251995
0.247857
0.243687
0.239486
0.235255
0.230994
0.226706
0.222391
0.218049
0.213683
0.209293
0.20488
0.200447
0.195993
0.19152
0.187029
0.182521
0.177998
0.17346
0.168908
0.164343
0.159766
0.155177
0.150577
0.145966
0.141342
0.136707
0.13206
0.127398
0.12272
0.118025
0.11331
0.108577
0.103827
0.0990909
0.0943113
0.0894612
0.0845293
0.079492
0.074322
0.0689825
0.063426
0.0576465
0.0515552
0.0449755
0.0377326
0.0299884
0.0284031
0.0192045
0.0222972
0.0340197
0.0528161
0.0694065
0.0845087
0.0982276
0.111044
0.12338
0.135089
0.146379
0.157315
0.167948
0.178317
0.188452
0.198374
0.208099
0.217637
0.226994
0.236176
0.245182
0.254013
0.262666
0.271141
0.279432
0.287537
0.295451
0.30317
0.310691
0.318009
0.325121
0.332024
0.338715
0.345191
0.351452
0.357495
0.36332
0.368926
0.374313
0.379482
0.384434
0.389171
0.393693
0.398003
0.402104
0.405999
0.409689
0.41318
0.416473
0.419572
0.42248
0.4252
0.427765
0.430162
0.432388
0.434445
0.436338
0.438072
0.43965
0.441078
0.44236
0.4435
0.444504
0.445374
0.446115
0.446733
0.447229
0.447609
0.447875
0.448033
0.448085
0.448034
0.447885
0.44764
0.447302
0.446875
0.446361
0.445763
0.445083
0.444325
0.44349
0.442581
0.441601
0.44055
0.439432
0.438247
0.436999
0.435688
0.434317
0.432886
0.431397
0.429853
0.428253
0.426599
0.424893
0.423135
0.421327
0.419469
0.417563
0.415608
0.413607
0.411559
0.409465
0.407327
0.405144
0.402917
0.400646
0.398332
0.395976
0.393577
0.391136
0.388653
0.386129
0.383563
0.380956
0.378308
0.375619
0.37289
0.370119
0.367308
0.364456
0.361564
0.358631
0.355657
0.352643
0.349588
0.346492
0.343356
0.340178
0.336961
0.333702
0.330403
0.327063
0.323683
0.320262
0.3168
0.313299
0.309757
0.306174
0.302552
0.298891
0.29519
0.29145
0.287671
0.283853
0.279998
0.276105
0.272176
0.26821
0.264208
0.260171
0.256099
0.251994
0.247856
0.243687
0.239486
0.235254
0.230994
0.226706
0.22239
0.218049
0.213683
0.209293
0.20488
0.200446
0.195993
0.19152
0.187029
0.182521
0.177998
0.17346
0.168908
0.164343
0.159766
0.155177
0.150577
0.145966
0.141342
0.136707
0.13206
0.127398
0.12272
0.118025
0.11331
0.108577
0.103827
0.0990909
0.0943113
0.0894612
0.0845294
0.079492
0.074322
0.0689825
0.0634261
0.0576466
0.0515553
0.0449758
0.0377326
0.0299874
0.0284064
0.0192159
0.0346331
0.0875822
0.12538
0.1586
0.189094
0.217473
0.244325
0.270013
0.29475
0.31871
0.34202
0.364774
0.387042
0.408874
0.430308
0.451366
0.472064
0.492411
0.512408
0.532056
0.551348
0.570277
0.588834
0.607009
0.624791
0.642169
0.659132
0.67567
0.691773
0.707431
0.722637
0.737384
0.751664
0.765474
0.778809
0.791666
0.804045
0.815944
0.827365
0.838308
0.848777
0.858775
0.868306
0.877375
0.885988
0.894152
0.901872
0.909157
0.916013
0.922449
0.928469
0.934081
0.939309
0.94416
0.948642
0.952764
0.956535
0.959967
0.963067
0.965847
0.968316
0.970483
0.972359
0.973951
0.975269
0.976321
0.977118
0.977665
0.977973
0.978049
0.977899
0.977533
0.976956
0.976176
0.975199
0.974031
0.972679
0.971149
0.969446
0.967575
0.965542
0.963352
0.961008
0.958517
0.955881
0.953105
0.950192
0.947147
0.943973
0.940673
0.93725
0.933707
0.930047
0.926272
0.922385
0.918388
0.914284
0.910073
0.905759
0.901342
0.896825
0.892209
0.887495
0.882685
0.877779
0.872779
0.867686
0.862501
0.857224
0.851856
0.846398
0.84085
0.835213
0.829488
0.823673
0.817771
0.811781
0.805703
0.799537
0.793285
0.786944
0.780517
0.774003
0.767401
0.760712
0.753936
0.747073
0.740123
0.733086
0.725961
0.71875
0.711452
0.704068
0.696597
0.68904
0.681397
0.673668
0.665854
0.657955
0.649973
0.641907
0.633758
0.625527
0.617215
0.608823
0.600352
0.591804
0.583179
0.574479
0.565706
0.556861
0.547945
0.538962
0.529912
0.520798
0.511622
0.502386
0.493093
0.483745
0.474344
0.464893
0.455395
0.445851
0.436266
0.426641
0.416979
0.407283
0.397555
0.387797
0.378012
0.368201
0.358367
0.34851
0.338632
0.328734
0.318816
0.308877
0.298916
0.288931
0.278919
0.268877
0.258798
0.248677
0.238504
0.228271
0.217962
0.207548
0.196999
0.186307
0.175423
0.164298
0.152866
0.141039
0.128689
0.115699
0.101856
0.0868743
0.0703658
0.0516728
0.0318761
0.0346334
0.0875847
0.125382
0.158601
0.189095
0.217475
0.244327
0.270014
0.294751
0.318711
0.342021
0.364775
0.387043
0.408875
0.430308
0.451366
0.472065
0.492411
0.512409
0.532056
0.551348
0.570277
0.588834
0.607009
0.624791
0.642169
0.659132
0.67567
0.691773
0.707431
0.722637
0.737383
0.751663
0.765473
0.778808
0.791665
0.804044
0.815943
0.827364
0.838307
0.848776
0.858774
0.868305
0.877374
0.885987
0.89415
0.901871
0.909156
0.916012
0.922447
0.928467
0.934079
0.939307
0.944158
0.94864
0.952762
0.956533
0.959965
0.963066
0.965846
0.968314
0.970482
0.972357
0.973949
0.975267
0.976319
0.977116
0.977663
0.977971
0.978047
0.977897
0.977531
0.976954
0.976174
0.975197
0.974029
0.972677
0.971147
0.969444
0.967573
0.96554
0.96335
0.961006
0.958515
0.955879
0.953103
0.95019
0.947145
0.943971
0.940671
0.937248
0.933705
0.930045
0.92627
0.922383
0.918386
0.914282
0.910071
0.905757
0.90134
0.896823
0.892207
0.887493
0.882683
0.877777
0.872778
0.867684
0.862499
0.857222
0.851854
0.846396
0.840849
0.835212
0.829486
0.823672
0.817769
0.811779
0.805701
0.799536
0.793283
0.786943
0.780516
0.774001
0.767399
0.76071
0.753934
0.747071
0.740121
0.733084
0.72596
0.718749
0.711451
0.704066
0.696595
0.689038
0.681395
0.673666
0.665853
0.657954
0.649971
0.641905
0.633756
0.625526
0.617214
0.608822
0.600351
0.591803
0.583178
0.574478
0.565704
0.556859
0.547944
0.538961
0.529911
0.520797
0.511621
0.502385
0.493092
0.483744
0.474343
0.464892
0.455393
0.44585
0.436265
0.42664
0.416978
0.407282
0.397554
0.387796
0.378011
0.3682
0.358366
0.348509
0.338632
0.328733
0.318815
0.308876
0.298915
0.28893
0.278919
0.268876
0.258798
0.248676
0.238504
0.22827
0.217961
0.207548
0.196999
0.186307
0.175423
0.164297
0.152866
0.141039
0.128688
0.115698
0.101855
0.0868731
0.0703646
0.0516748
0.0318788
0.0521607
0.125162
0.172441
0.212603
0.249552
0.284396
0.317663
0.349676
0.38065
0.410748
0.440094
0.468784
0.496891
0.524468
0.551555
0.578179
0.604356
0.630095
0.655399
0.680263
0.704683
0.728648
0.752146
0.775165
0.79769
0.819707
0.841204
0.862165
0.882578
0.902432
0.921716
0.940421
0.958538
0.976062
0.992986
1.00931
1.02502
1.04013
1.05464
1.06854
1.08184
1.09454
1.10666
1.11818
1.12913
1.13951
1.14933
1.15859
1.16731
1.1755
1.18316
1.19031
1.19696
1.20314
1.20884
1.21408
1.21888
1.22324
1.22718
1.23072
1.23385
1.2366
1.23898
1.24099
1.24265
1.24398
1.24497
1.24565
1.24602
1.2461
1.24588
1.24539
1.24463
1.24361
1.24234
1.24082
1.23907
1.23709
1.23489
1.23248
1.22985
1.22703
1.22401
1.2208
1.21741
1.21384
1.21009
1.20618
1.2021
1.19786
1.19346
1.18891
1.18422
1.17937
1.17438
1.16926
1.16399
1.15859
1.15306
1.1474
1.14162
1.1357
1.12966
1.1235
1.11722
1.11082
1.1043
1.09767
1.09092
1.08405
1.07707
1.06998
1.06277
1.05545
1.04802
1.04048
1.03283
1.02507
1.0172
1.00921
1.00112
0.992918
0.984606
0.976184
0.967653
0.959012
0.950262
0.941402
0.932433
0.923355
0.914168
0.904872
0.895468
0.885955
0.876335
0.866607
0.856772
0.84683
0.836783
0.826631
0.816374
0.806015
0.795553
0.78499
0.774328
0.763567
0.75271
0.741758
0.730713
0.719577
0.708352
0.69704
0.685643
0.674165
0.662608
0.650974
0.639267
0.627489
0.615644
0.603734
0.591763
0.579735
0.567652
0.555517
0.543335
0.531108
0.51884
0.506534
0.494192
0.481817
0.469412
0.45698
0.444521
0.432037
0.419529
0.406998
0.394443
0.381861
0.369252
0.356612
0.343935
0.331215
0.318445
0.305612
0.292705
0.279705
0.266588
0.253324
0.239882
0.226213
0.212272
0.197992
0.183277
0.168006
0.152011
0.135077
0.116814
0.0964336
0.0715249
0.031094
0.0521624
0.125164
0.172442
0.212604
0.249553
0.284397
0.317664
0.349676
0.38065
0.410748
0.440094
0.468784
0.496891
0.524468
0.551555
0.578179
0.604356
0.630095
0.655398
0.680263
0.704682
0.728647
0.752145
0.775164
0.797689
0.819706
0.841202
0.862164
0.882577
0.902431
0.921715
0.94042
0.958537
0.97606
0.992984
1.00931
1.02502
1.04013
1.05464
1.06854
1.08184
1.09454
1.10666
1.11818
1.12913
1.13951
1.14932
1.15859
1.16731
1.17549
1.18316
1.1903
1.19696
1.20313
1.20884
1.21408
1.21888
1.22324
1.22718
1.23071
1.23385
1.2366
1.23897
1.24099
1.24265
1.24397
1.24497
1.24565
1.24602
1.24609
1.24588
1.24539
1.24463
1.24361
1.24234
1.24082
1.23907
1.23709
1.23489
1.23247
1.22985
1.22703
1.22401
1.2208
1.21741
1.21384
1.21009
1.20618
1.2021
1.19786
1.19346
1.18891
1.18421
1.17937
1.17438
1.16925
1.16399
1.15859
1.15306
1.1474
1.14161
1.1357
1.12966
1.1235
1.11722
1.11082
1.1043
1.09767
1.09092
1.08405
1.07707
1.06998
1.06277
1.05545
1.04802
1.04048
1.03283
1.02507
1.01719
1.00921
1.00112
0.992916
0.984604
0.976182
0.967651
0.95901
0.95026
0.9414
0.932431
0.923353
0.914166
0.90487
0.895466
0.885954
0.876333
0.866605
0.85677
0.846829
0.836781
0.826629
0.816373
0.806013
0.795551
0.784988
0.774326
0.763566
0.752708
0.741756
0.730711
0.719575
0.70835
0.697038
0.685642
0.674164
0.662607
0.650973
0.639266
0.627488
0.615643
0.603733
0.591762
0.579733
0.56765
0.555516
0.543334
0.531107
0.518839
0.506532
0.494191
0.481816
0.469411
0.456979
0.44452
0.432036
0.419528
0.406997
0.394442
0.381861
0.369251
0.356611
0.343934
0.331214
0.318444
0.305612
0.292705
0.279705
0.266587
0.253324
0.239881
0.226212
0.212272
0.197991
0.183277
0.168005
0.152011
0.135076
0.116812
0.0964328
0.0715261
0.0310897
0.0673418
0.156862
0.211866
0.257352
0.298887
0.338099
0.375654
0.411902
0.44706
0.481284
0.51469
0.547372
0.579398
0.610823
0.641688
0.672021
0.70184
0.731155
0.759969
0.78828
0.816083
0.843365
0.870117
0.896323
0.921969
0.947039
0.971518
0.995391
1.01864
1.04127
1.06324
1.08456
1.10522
1.1252
1.1445
1.16312
1.18106
1.19831
1.21487
1.23075
1.24595
1.26047
1.27432
1.2875
1.30003
1.3119
1.32314
1.33375
1.34374
1.35312
1.36191
1.37011
1.37775
1.38484
1.39138
1.39741
1.40292
1.40793
1.41247
1.41653
1.42013
1.4233
1.42603
1.42835
1.43027
1.4318
1.43295
1.43373
1.43416
1.43425
1.43401
1.43344
1.43257
1.4314
1.42993
1.42819
1.42617
1.42389
1.42136
1.41858
1.41556
1.41231
1.40883
1.40513
1.40122
1.3971
1.39279
1.38828
1.38357
1.37869
1.37362
1.36837
1.36296
1.35737
1.35162
1.34571
1.33964
1.33342
1.32705
1.32052
1.31385
1.30703
1.30007
1.29297
1.28573
1.27836
1.27084
1.2632
1.25542
1.24751
1.23946
1.23129
1.22299
1.21456
1.206
1.19732
1.1885
1.17956
1.1705
1.16131
1.15199
1.14255
1.13298
1.12329
1.11347
1.10353
1.09346
1.08327
1.07295
1.06251
1.05194
1.04125
1.03044
1.01951
1.00845
0.997267
0.985965
0.974542
0.962999
0.951337
0.939557
0.92766
0.915648
0.903521
0.891282
0.878931
0.866472
0.853905
0.841234
0.82846
0.815585
0.802613
0.789547
0.776388
0.76314
0.749806
0.73639
0.722895
0.709325
0.695682
0.681971
0.668196
0.65436
0.640467
0.62652
0.612524
0.598483
0.584398
0.570275
0.556115
0.541922
0.527699
0.513446
0.499167
0.484861
0.470529
0.456171
0.441786
0.427371
0.412922
0.398434
0.383901
0.369314
0.354663
0.339932
0.325104
0.310157
0.295061
0.279783
0.264282
0.248503
0.232379
0.215815
0.198697
0.180839
0.161983
0.141638
0.118699
0.0897385
0.0396972
0.0673437
0.156864
0.211867
0.257353
0.298888
0.3381
0.375654
0.411902
0.44706
0.481283
0.51469
0.547371
0.579397
0.610823
0.641688
0.67202
0.701839
0.731154
0.759968
0.788279
0.816081
0.843364
0.870116
0.896322
0.921967
0.947037
0.971516
0.99539
1.01864
1.04126
1.06324
1.08456
1.10521
1.1252
1.1445
1.16312
1.18106
1.19831
1.21487
1.23075
1.24595
1.26047
1.27432
1.2875
1.30002
1.3119
1.32314
1.33375
1.34374
1.35312
1.36191
1.37011
1.37775
1.38483
1.39138
1.3974
1.40292
1.40793
1.41246
1.41653
1.42013
1.4233
1.42603
1.42835
1.43027
1.4318
1.43294
1.43373
1.43416
1.43425
1.434
1.43344
1.43257
1.43139
1.42993
1.42819
1.42617
1.42389
1.42136
1.41858
1.41556
1.4123
1.40882
1.40513
1.40122
1.3971
1.39279
1.38827
1.38357
1.37868
1.37362
1.36837
1.36296
1.35737
1.35162
1.34571
1.33964
1.33342
1.32704
1.32052
1.31385
1.30703
1.30007
1.29297
1.28573
1.27835
1.27084
1.2632
1.25542
1.24751
1.23946
1.23129
1.22299
1.21456
1.206
1.19731
1.1885
1.17956
1.1705
1.16131
1.15199
1.14255
1.13298
1.12329
1.11347
1.10352
1.09346
1.08326
1.07295
1.06251
1.05194
1.04125
1.03044
1.0195
1.00845
0.997265
0.985963
0.97454
0.962997
0.951335
0.939555
0.927659
0.915646
0.903519
0.89128
0.87893
0.866471
0.853904
0.841233
0.828458
0.815584
0.802612
0.789545
0.776386
0.763139
0.749805
0.736389
0.722894
0.709323
0.695681
0.68197
0.668195
0.654359
0.640466
0.626519
0.612523
0.598481
0.584397
0.570274
0.556114
0.541921
0.527698
0.513445
0.499166
0.48486
0.470528
0.456171
0.441785
0.42737
0.412921
0.398433
0.383901
0.369314
0.354662
0.339931
0.325104
0.310156
0.29506
0.279783
0.264281
0.248503
0.232379
0.215815
0.198697
0.180838
0.161983
0.141638
0.1187
0.0897406
0.0396974
0.0808264
0.185826
0.248063
0.298464
0.344022
0.386881
0.427906
0.467522
0.505971
0.543415
0.579972
0.615731
0.650763
0.685123
0.718853
0.751982
0.784533
0.816519
0.847943
0.878808
0.909108
0.938834
0.967976
0.996519
1.02445
1.05175
1.07842
1.10442
1.12975
1.15439
1.17834
1.20158
1.22409
1.24588
1.26694
1.28726
1.30684
1.32567
1.34376
1.36111
1.37772
1.3936
1.40874
1.42317
1.43688
1.44989
1.46221
1.47384
1.4848
1.4951
1.50475
1.51377
1.52217
1.52997
1.53718
1.54381
1.54989
1.55543
1.56043
1.56492
1.56891
1.57242
1.57546
1.57803
1.58017
1.58188
1.58317
1.58406
1.58456
1.58469
1.58445
1.58385
1.58292
1.58165
1.58006
1.57817
1.57597
1.57348
1.57071
1.56766
1.56436
1.56079
1.55697
1.55291
1.54862
1.5441
1.53935
1.53439
1.52922
1.52385
1.51827
1.5125
1.50653
1.50038
1.49405
1.48754
1.48085
1.47399
1.46697
1.45977
1.45242
1.4449
1.43723
1.4294
1.42141
1.41328
1.40499
1.39656
1.38797
1.37925
1.37037
1.36136
1.3522
1.3429
1.33345
1.32387
1.31415
1.30428
1.29428
1.28414
1.27386
1.26344
1.25288
1.24219
1.23136
1.22039
1.20929
1.19804
1.18666
1.17515
1.1635
1.15171
1.13978
1.12773
1.11553
1.10321
1.09075
1.07816
1.06543
1.05258
1.0396
1.02649
1.01326
0.999896
0.986413
0.97281
0.959087
0.945248
0.931294
0.917229
0.903055
0.888775
0.874391
0.859908
0.845328
0.830655
0.815893
0.801044
0.786114
0.771106
0.756024
0.740871
0.725653
0.710373
0.695035
0.679643
0.664201
0.648713
0.633182
0.617612
0.602005
0.586364
0.570692
0.55499
0.53926
0.523501
0.507714
0.491898
0.476049
0.460165
0.444241
0.428271
0.412245
0.396154
0.379983
0.363716
0.347331
0.330801
0.314095
0.297171
0.279977
0.262445
0.244483
0.225959
0.206673
0.186298
0.164243
0.139099
0.106556
0.0478597
0.0808286
0.185829
0.248064
0.298464
0.344022
0.386881
0.427906
0.467521
0.50597
0.543415
0.579971
0.61573
0.650762
0.685122
0.718852
0.751981
0.784532
0.816518
0.847942
0.878807
0.909107
0.938833
0.967974
0.996518
1.02445
1.05175
1.07841
1.10442
1.12975
1.15439
1.17834
1.20158
1.22409
1.24588
1.26694
1.28726
1.30683
1.32567
1.34376
1.36111
1.37772
1.39359
1.40874
1.42317
1.43688
1.44989
1.46221
1.47384
1.4848
1.4951
1.50475
1.51377
1.52217
1.52997
1.53718
1.54381
1.54989
1.55542
1.56043
1.56492
1.56891
1.57242
1.57545
1.57803
1.58017
1.58188
1.58317
1.58406
1.58456
1.58469
1.58445
1.58385
1.58292
1.58165
1.58006
1.57816
1.57597
1.57348
1.57071
1.56766
1.56435
1.56079
1.55697
1.55291
1.54862
1.5441
1.53935
1.53439
1.52922
1.52384
1.51827
1.51249
1.50653
1.50038
1.49405
1.48754
1.48085
1.47399
1.46696
1.45977
1.45241
1.4449
1.43722
1.42939
1.42141
1.41327
1.40499
1.39655
1.38797
1.37924
1.37037
1.36135
1.3522
1.34289
1.33345
1.32387
1.31414
1.30428
1.29428
1.28414
1.27386
1.26344
1.25288
1.24219
1.23136
1.22039
1.20928
1.19804
1.18666
1.17515
1.16349
1.15171
1.13978
1.12773
1.11553
1.10321
1.09075
1.07816
1.06543
1.05258
1.0396
1.02649
1.01325
0.999895
0.986412
0.972808
0.959086
0.945247
0.931293
0.917228
0.903054
0.888774
0.87439
0.859907
0.845327
0.830654
0.815892
0.801043
0.786113
0.771105
0.756023
0.74087
0.725652
0.710372
0.695034
0.679642
0.6642
0.648712
0.633181
0.617611
0.602004
0.586363
0.570691
0.55499
0.539259
0.523501
0.507714
0.491897
0.476048
0.460165
0.444241
0.42827
0.412245
0.396153
0.379982
0.363715
0.34733
0.330801
0.314094
0.29717
0.279977
0.262445
0.244482
0.225959
0.206673
0.186298
0.164244
0.1391
0.106557
0.0478598
0.0933171
0.21295
0.282382
0.337619
0.387023
0.433244
0.477366
0.519914
0.561176
0.601334
0.640515
0.678813
0.716302
0.753039
0.789071
0.824431
0.859145
0.893229
0.926693
0.95954
0.991769
1.02337
1.05435
1.08468
1.11435
1.14335
1.17167
1.19929
1.22619
1.25237
1.27781
1.3025
1.32643
1.34959
1.37198
1.39359
1.41442
1.43447
1.45373
1.47221
1.48991
1.50684
1.52299
1.53839
1.55303
1.56693
1.5801
1.59254
1.60427
1.6153
1.62565
1.63532
1.64434
1.65272
1.66047
1.66761
1.67416
1.68013
1.68553
1.69039
1.69471
1.69852
1.70182
1.70463
1.70697
1.70885
1.71029
1.71129
1.71188
1.71206
1.71185
1.71126
1.7103
1.70899
1.70733
1.70533
1.70301
1.70038
1.69744
1.69421
1.69069
1.6869
1.68283
1.6785
1.67392
1.66909
1.66402
1.65871
1.65317
1.64742
1.64144
1.63526
1.62886
1.62227
1.61547
1.60849
1.60131
1.59394
1.5864
1.57867
1.57076
1.56269
1.55444
1.54602
1.53743
1.52868
1.51977
1.51069
1.50146
1.49206
1.48251
1.47281
1.46295
1.45293
1.44276
1.43244
1.42197
1.41135
1.40058
1.38966
1.37858
1.36736
1.35599
1.34447
1.3328
1.32099
1.30902
1.29691
1.28465
1.27225
1.2597
1.247
1.23415
1.22117
1.20803
1.19476
1.18134
1.16777
1.15407
1.14023
1.12625
1.11214
1.09788
1.0835
1.06898
1.05434
1.03956
1.02467
1.00965
0.994506
0.97925
0.963881
0.948401
0.932815
0.917125
0.901336
0.885451
0.869474
0.853409
0.837261
0.821034
0.804731
0.788357
0.771916
0.755413
0.738851
0.722235
0.705569
0.688856
0.672099
0.655302
0.638468
0.621598
0.604695
0.58776
0.570794
0.553796
0.536766
0.519701
0.502599
0.485454
0.468261
0.451012
0.433698
0.416304
0.398815
0.381212
0.363468
0.345554
0.327428
0.309039
0.290316
0.271161
0.251429
0.230893
0.209162
0.185515
0.158256
0.122276
0.0554041
0.0933194
0.212952
0.282384
0.33762
0.387023
0.433244
0.477366
0.519913
0.561175
0.601333
0.640514
0.678812
0.716301
0.753038
0.78907
0.82443
0.859144
0.893228
0.926691
0.959539
0.991768
1.02337
1.05435
1.08468
1.11435
1.14335
1.17167
1.19928
1.22619
1.25237
1.27781
1.3025
1.32643
1.34959
1.37198
1.39359
1.41442
1.43446
1.45373
1.47221
1.48991
1.50683
1.52299
1.53839
1.55303
1.56693
1.5801
1.59254
1.60427
1.6153
1.62565
1.63532
1.64434
1.65272
1.66047
1.66761
1.67416
1.68013
1.68553
1.69039
1.69471
1.69852
1.70182
1.70463
1.70697
1.70885
1.71029
1.71129
1.71188
1.71206
1.71185
1.71126
1.7103
1.70899
1.70733
1.70533
1.70301
1.70038
1.69744
1.69421
1.69069
1.68689
1.68283
1.6785
1.67392
1.66909
1.66401
1.65871
1.65317
1.64742
1.64144
1.63526
1.62886
1.62227
1.61547
1.60848
1.60131
1.59394
1.58639
1.57867
1.57076
1.56268
1.55443
1.54601
1.53743
1.52868
1.51976
1.51069
1.50145
1.49206
1.48251
1.47281
1.46294
1.45293
1.44276
1.43244
1.42197
1.41135
1.40058
1.38965
1.37858
1.36736
1.35599
1.34447
1.3328
1.32099
1.30902
1.29691
1.28465
1.27225
1.25969
1.247
1.23415
1.22116
1.20803
1.19475
1.18133
1.16777
1.15407
1.14023
1.12625
1.11213
1.09788
1.0835
1.06898
1.05434
1.03956
1.02466
1.00964
0.994505
0.979249
0.96388
0.9484
0.932814
0.917124
0.901335
0.88545
0.869473
0.853409
0.83726
0.821033
0.80473
0.788356
0.771915
0.755412
0.738851
0.722235
0.705568
0.688855
0.672098
0.655301
0.638467
0.621597
0.604695
0.58776
0.570793
0.553796
0.536765
0.519701
0.502598
0.485454
0.468261
0.451012
0.433697
0.416303
0.398815
0.381211
0.363468
0.345554
0.327428
0.309039
0.290316
0.271161
0.251429
0.230893
0.209163
0.185515
0.158256
0.122276
0.0554042
0.105587
0.23907
0.315537
0.375562
0.428743
0.478196
0.525223
0.570456
0.614243
0.656797
0.698261
0.738739
0.778313
0.817048
0.854992
0.892188
0.928664
0.964443
0.99954
1.03396
1.06771
1.10079
1.13319
1.16491
1.19592
1.22623
1.25582
1.28467
1.31278
1.34012
1.3667
1.3925
1.41751
1.44172
1.46513
1.48773
1.50952
1.5305
1.55067
1.57002
1.58857
1.60631
1.62326
1.63942
1.6548
1.6694
1.68324
1.69633
1.70868
1.7203
1.73121
1.74142
1.75094
1.7598
1.76801
1.77557
1.78252
1.78886
1.79461
1.79978
1.80439
1.80846
1.81201
1.81504
1.81757
1.81962
1.82119
1.82232
1.823
1.82326
1.8231
1.82254
1.82159
1.82026
1.81857
1.81652
1.81413
1.81141
1.80836
1.805
1.80133
1.79737
1.79312
1.78859
1.78379
1.77873
1.77341
1.76784
1.76202
1.75597
1.74969
1.74317
1.73644
1.72949
1.72233
1.71496
1.70739
1.69962
1.69165
1.68349
1.67514
1.66661
1.65789
1.64899
1.63991
1.63065
1.62122
1.61162
1.60184
1.5919
1.58179
1.57151
1.56107
1.55046
1.53969
1.52875
1.51765
1.5064
1.49498
1.4834
1.47166
1.45976
1.44771
1.43549
1.42312
1.41059
1.3979
1.38505
1.37205
1.35889
1.34558
1.33211
1.31849
1.30471
1.29078
1.27669
1.26246
1.24807
1.23354
1.21885
1.20403
1.18905
1.17393
1.15868
1.14328
1.12774
1.11207
1.09627
1.08034
1.06428
1.0481
1.0318
1.01538
0.998853
0.982212
0.965466
0.948618
0.931672
0.914633
0.897504
0.880291
0.862997
0.845626
0.828184
0.810673
0.7931
0.775467
0.757778
0.740038
0.722249
0.704415
0.686539
0.668622
0.650668
0.632677
0.61465
0.596588
0.578488
0.56035
0.542172
0.523947
0.505672
0.487339
0.468939
0.45046
0.431886
0.4132
0.394376
0.375384
0.356183
0.336721
0.316921
0.296675
0.275823
0.254102
0.231064
0.205843
0.176499
0.137174
0.0625264
0.105589
0.239072
0.315538
0.375563
0.428743
0.478196
0.525222
0.570455
0.614242
0.656796
0.69826
0.738738
0.778312
0.817046
0.854991
0.892187
0.928663
0.964442
0.999539
1.03396
1.06771
1.10079
1.13319
1.1649
1.19592
1.22623
1.25582
1.28467
1.31278
1.34012
1.3667
1.3925
1.41751
1.44172
1.46513
1.48773
1.50952
1.5305
1.55067
1.57002
1.58857
1.60631
1.62326
1.63942
1.65479
1.6694
1.68324
1.69633
1.70867
1.7203
1.73121
1.74142
1.75094
1.7598
1.768
1.77557
1.78252
1.78886
1.7946
1.79978
1.80439
1.80846
1.81201
1.81503
1.81757
1.81961
1.82119
1.82232
1.823
1.82326
1.8231
1.82254
1.82159
1.82026
1.81857
1.81652
1.81413
1.81141
1.80836
1.805
1.80133
1.79737
1.79312
1.78859
1.78379
1.77873
1.77341
1.76784
1.76202
1.75597
1.74968
1.74317
1.73644
1.72949
1.72233
1.71496
1.70739
1.69962
1.69165
1.68349
1.67514
1.6666
1.65789
1.64898
1.63991
1.63065
1.62122
1.61162
1.60184
1.5919
1.58179
1.57151
1.56106
1.55046
1.53968
1.52875
1.51765
1.5064
1.49498
1.4834
1.47166
1.45976
1.44771
1.43549
1.42312
1.41059
1.3979
1.38505
1.37205
1.35889
1.34558
1.33211
1.31849
1.30471
1.29078
1.27669
1.26246
1.24807
1.23354
1.21885
1.20402
1.18905
1.17393
1.15867
1.14328
1.12774
1.11207
1.09627
1.08034
1.06428
1.0481
1.0318
1.01538
0.998852
0.982211
0.965465
0.948617
0.931671
0.914632
0.897504
0.88029
0.862996
0.845625
0.828183
0.810673
0.793099
0.775466
0.757778
0.740037
0.722248
0.704414
0.686538
0.668622
0.650668
0.632677
0.61465
0.596587
0.578488
0.56035
0.542171
0.523947
0.505672
0.487339
0.468939
0.450459
0.431886
0.413199
0.394375
0.375384
0.356183
0.336721
0.316921
0.296675
0.275823
0.254103
0.231064
0.205843
0.176499
0.137175
0.0625265
0.117468
0.264529
0.347914
0.412695
0.46962
0.522237
0.572055
0.619819
0.665942
0.710673
0.75418
0.796582
0.837973
0.878423
0.917993
0.956729
0.994669
1.03184
1.06826
1.10395
1.13892
1.17316
1.20667
1.23946
1.27152
1.30283
1.33338
1.36318
1.39219
1.42043
1.44787
1.4745
1.50032
1.52533
1.5495
1.57285
1.59537
1.61706
1.63791
1.65794
1.67714
1.69551
1.71307
1.72982
1.74576
1.76092
1.77529
1.78889
1.80174
1.81383
1.8252
1.83584
1.84579
1.85504
1.86362
1.87154
1.87882
1.88548
1.89152
1.89697
1.90184
1.90615
1.90991
1.91314
1.91585
1.91806
1.91978
1.92103
1.92182
1.92216
1.92207
1.92156
1.92065
1.91934
1.91765
1.91558
1.91316
1.91038
1.90727
1.90383
1.90006
1.89599
1.89161
1.88694
1.88198
1.87675
1.87124
1.86547
1.85944
1.85316
1.84664
1.83988
1.83288
1.82565
1.8182
1.81053
1.80264
1.79454
1.78624
1.77773
1.76902
1.76011
1.75101
1.74171
1.73223
1.72256
1.7127
1.70266
1.69244
1.68204
1.67146
1.66071
1.64977
1.63867
1.62739
1.61594
1.60432
1.59252
1.58056
1.56843
1.55613
1.54366
1.53102
1.51821
1.50524
1.4921
1.4788
1.46533
1.45169
1.43789
1.42392
1.40979
1.3955
1.38105
1.36643
1.35165
1.33672
1.32162
1.30637
1.29096
1.2754
1.25969
1.24383
1.22781
1.21165
1.19535
1.17891
1.16232
1.1456
1.12875
1.11177
1.09466
1.07743
1.06007
1.04261
1.02503
1.00734
0.989548
0.971657
0.953671
0.935594
0.91743
0.899185
0.880861
0.862464
0.843997
0.825465
0.806872
0.788221
0.769515
0.750758
0.731952
0.7131
0.694204
0.675266
0.656285
0.637263
0.618198
0.599089
0.579935
0.56073
0.54147
0.522149
0.502758
0.483285
0.463717
0.444034
0.424214
0.404226
0.384026
0.363557
0.342739
0.321452
0.299512
0.276625
0.252276
0.225479
0.194042
0.151412
0.0693358
0.117471
0.264531
0.347915
0.412695
0.46962
0.522237
0.572054
0.619819
0.665941
0.710672
0.754179
0.796581
0.837972
0.878422
0.917992
0.956728
0.994668
1.03184
1.06826
1.10395
1.13892
1.17316
1.20667
1.23946
1.27151
1.30283
1.33338
1.36317
1.39219
1.42043
1.44786
1.4745
1.50032
1.52532
1.5495
1.57285
1.59537
1.61706
1.63791
1.65794
1.67713
1.69551
1.71307
1.72981
1.74576
1.76092
1.77529
1.78889
1.80173
1.81383
1.8252
1.83584
1.84578
1.85504
1.86362
1.87154
1.87882
1.88548
1.89152
1.89697
1.90184
1.90615
1.90991
1.91314
1.91585
1.91806
1.91978
1.92103
1.92182
1.92216
1.92207
1.92156
1.92065
1.91934
1.91764
1.91558
1.91316
1.91038
1.90727
1.90382
1.90006
1.89599
1.89161
1.88694
1.88198
1.87675
1.87124
1.86547
1.85944
1.85316
1.84664
1.83988
1.83288
1.82565
1.8182
1.81053
1.80264
1.79454
1.78624
1.77773
1.76902
1.76011
1.75101
1.74171
1.73223
1.72256
1.7127
1.70266
1.69244
1.68204
1.67146
1.6607
1.64977
1.63867
1.62739
1.61594
1.60432
1.59252
1.58056
1.56843
1.55613
1.54366
1.53102
1.51821
1.50524
1.4921
1.4788
1.46532
1.45169
1.43789
1.42392
1.40979
1.3955
1.38104
1.36643
1.35165
1.33672
1.32162
1.30637
1.29096
1.2754
1.25969
1.24383
1.22781
1.21165
1.19535
1.17891
1.16232
1.1456
1.12875
1.11177
1.09466
1.07743
1.06007
1.04261
1.02503
1.00734
0.989547
0.971656
0.95367
0.935593
0.91743
0.899184
0.880861
0.862464
0.843997
0.825465
0.806871
0.78822
0.769514
0.750757
0.731952
0.7131
0.694204
0.675265
0.656285
0.637262
0.618198
0.599089
0.579934
0.56073
0.54147
0.522149
0.502757
0.483285
0.463716
0.444034
0.424214
0.404225
0.384026
0.363557
0.342739
0.321452
0.299513
0.276625
0.252277
0.22548
0.194042
0.151413
0.0693359
0.129123
0.289527
0.379754
0.449271
0.509921
0.565659
0.618194
0.668383
0.716705
0.763454
0.808824
0.852955
0.895954
0.937905
0.978876
1.01892
1.05809
1.09642
1.13392
1.17064
1.20657
1.24172
1.27611
1.30973
1.34258
1.37465
1.40593
1.43643
1.46612
1.49501
1.52308
1.55033
1.57675
1.60233
1.62707
1.65097
1.67403
1.69623
1.7176
1.73812
1.7578
1.77664
1.79466
1.81186
1.82824
1.84382
1.8586
1.8726
1.88583
1.8983
1.91003
1.92102
1.9313
1.94087
1.94976
1.95798
1.96554
1.97246
1.97876
1.98445
1.98955
1.99406
1.99802
2.00143
2.00431
2.00667
2.00853
2.0099
2.0108
2.01124
2.01123
2.01079
2.00993
2.00866
2.00699
2.00493
2.00251
1.99972
1.99657
1.99309
1.98927
1.98512
1.98066
1.9759
1.97083
1.96548
1.95984
1.95392
1.94774
1.94129
1.93459
1.92763
1.92043
1.91299
1.90531
1.89741
1.88927
1.88092
1.87234
1.86355
1.85455
1.84534
1.83593
1.82632
1.8165
1.80649
1.79628
1.78589
1.7753
1.76452
1.75355
1.7424
1.73106
1.71954
1.70784
1.69596
1.68389
1.67165
1.65923
1.64663
1.63385
1.6209
1.60776
1.59446
1.58098
1.56732
1.55349
1.53948
1.5253
1.51095
1.49643
1.48173
1.46687
1.45183
1.43662
1.42125
1.40571
1.39001
1.37414
1.3581
1.34191
1.32556
1.30905
1.29238
1.27556
1.25859
1.24147
1.22421
1.2068
1.18925
1.17157
1.15375
1.13581
1.11773
1.09954
1.08123
1.0628
1.04427
1.02562
1.00688
0.988039
0.969104
0.950081
0.930974
0.911786
0.892521
0.873184
0.853779
0.834308
0.814776
0.795185
0.775537
0.755836
0.736084
0.71628
0.696428
0.676526
0.656574
0.636571
0.616515
0.596403
0.576229
0.555989
0.535673
0.515271
0.49477
0.47415
0.453389
0.432452
0.411296
0.389859
0.368051
0.345739
0.32272
0.298661
0.272989
0.244605
0.211062
0.165162
0.0758608
0.129126
0.289529
0.379755
0.449271
0.50992
0.565659
0.618193
0.668382
0.716704
0.763453
0.808823
0.852954
0.895953
0.937904
0.978875
1.01892
1.05809
1.09641
1.13392
1.17064
1.20657
1.24172
1.27611
1.30973
1.34257
1.37464
1.40593
1.43642
1.46612
1.49501
1.52308
1.55033
1.57675
1.60233
1.62707
1.65097
1.67402
1.69623
1.7176
1.73812
1.7578
1.77664
1.79466
1.81186
1.82824
1.84381
1.8586
1.8726
1.88583
1.8983
1.91003
1.92102
1.9313
1.94087
1.94976
1.95798
1.96554
1.97246
1.97876
1.98445
1.98954
1.99406
1.99802
2.00143
2.00431
2.00667
2.00853
2.0099
2.0108
2.01124