/*--------------------------------*- C++ -*----------------------------------*\
  =========                 |
  \\      /  F ield         | OpenFOAM: The Open Source CFD Toolbox
   \\    /   O peration     | Website:  https://openfoam.org
    \\  /    A nd           | Version:  8
     \\/     M anipulation  |
\*---------------------------------------------------------------------------*/
FoamFile
{
    version     2.0;
    format      ascii;
    class       surfaceScalarField;
    location    "1800";
    object      phi;
}
// * * * * * * * * * * * * * * * * * * * * * * * * * * * * * * * * * * * * * //

dimensions      [1 0 -1 0 0 0 0];

internalField   nonuniform List<scalar> 
119360
(
-2.60723e-07
-7.18147e-12
2.60729e-07
-4.22661e-07
-2.76061e-12
1.62006e-07
-4.64567e-07
-2.85671e-12
4.19441e-08
-4.10701e-07
-2.47847e-12
-5.38309e-08
-2.93794e-07
-2.53449e-12
-1.16873e-07
-1.37882e-07
-2.6771e-12
-1.5588e-07
4.07469e-08
-2.45306e-12
-1.78596e-07
2.30859e-07
-2.1135e-12
-1.90079e-07
4.25026e-07
-1.85122e-12
-1.94137e-07
6.18781e-07
-1.66009e-12
-1.93725e-07
8.09192e-07
-1.58049e-12
-1.90383e-07
9.94381e-07
-1.54211e-12
-1.85162e-07
1.17316e-06
-1.4131e-12
-1.78749e-07
1.34478e-06
-1.23397e-12
-1.71605e-07
1.50885e-06
-1.0915e-12
-1.64047e-07
1.66517e-06
-9.6158e-13
-1.56293e-07
1.81368e-06
-8.09036e-13
-1.48497e-07
1.95447e-06
-6.99846e-13
-1.40763e-07
2.08765e-06
-7.10672e-13
-1.33166e-07
2.21342e-06
-8.12286e-13
-1.25755e-07
2.332e-06
-9.08959e-13
-1.18562e-07
2.44362e-06
-9.54617e-13
-1.11608e-07
2.54854e-06
-9.75351e-13
-1.04905e-07
2.64702e-06
-9.91561e-13
-9.84585e-08
2.7393e-06
-9.73936e-13
-9.22679e-08
2.82565e-06
-8.85646e-13
-8.63309e-08
2.90631e-06
-7.4215e-13
-8.06424e-08
2.98152e-06
-6.05371e-13
-7.51962e-08
3.05152e-06
-5.26962e-13
-6.99848e-08
3.11654e-06
-5.04702e-13
-6.50005e-08
3.17679e-06
-5.01177e-13
-6.02349e-08
3.23249e-06
-4.91407e-13
-5.56798e-08
3.28383e-06
-4.89187e-13
-5.13272e-08
3.33101e-06
-5.25686e-13
-4.71692e-08
3.37422e-06
-6.08731e-13
-4.31984e-08
3.41365e-06
-7.05292e-13
-3.94075e-08
3.44945e-06
-7.62525e-13
-3.57895e-08
3.4818e-06
-7.47703e-13
-3.23378e-08
3.51087e-06
-6.71348e-13
-2.9046e-08
3.53679e-06
-5.78089e-13
-2.59084e-08
3.55973e-06
-5.1192e-13
-2.29195e-08
3.57982e-06
-4.87856e-13
-2.00741e-08
3.5972e-06
-4.87523e-13
-1.73672e-08
3.61201e-06
-4.77809e-13
-1.47937e-08
3.62437e-06
-4.38451e-13
-1.23491e-08
3.63442e-06
-3.75418e-13
-1.00286e-08
3.64226e-06
-3.16271e-13
-7.82797e-09
3.64802e-06
-2.88433e-13
-5.74299e-09
3.6518e-06
-3.02033e-13
-3.76961e-09
3.65372e-06
-3.43e-13
-1.90379e-09
3.65387e-06
-3.8258e-13
-1.40567e-10
3.65236e-06
-3.94043e-13
1.52275e-09
3.64929e-06
-3.67286e-13
3.08873e-09
3.64474e-06
-3.11914e-13
4.56227e-09
3.6388e-06
-2.48854e-13
5.94752e-09
3.63157e-06
-1.98921e-13
7.24827e-09
3.62311e-06
-1.70916e-13
8.46816e-09
3.61351e-06
-1.5962e-13
9.61073e-09
3.60285e-06
-1.49378e-13
1.06795e-08
3.59118e-06
-1.25675e-13
1.16779e-08
3.57858e-06
-8.30421e-14
1.26093e-08
3.56511e-06
-2.98625e-14
1.3477e-08
3.55084e-06
1.5046e-14
1.42841e-08
3.53581e-06
3.05335e-14
1.50338e-08
3.52009e-06
1.16803e-15
1.57289e-08
3.50372e-06
-7.55485e-14
1.63723e-08
3.48676e-06
-1.87737e-13
1.69668e-08
3.46926e-06
-3.13053e-13
1.75153e-08
3.45124e-06
-4.25657e-13
1.80204e-08
3.43276e-06
-5.04345e-13
1.84849e-08
3.41386e-06
-5.38623e-13
1.89114e-08
3.39457e-06
-5.30768e-13
1.93022e-08
3.37492e-06
-4.94825e-13
1.96598e-08
3.35494e-06
-4.51831e-13
1.99863e-08
3.33467e-06
-4.23659e-13
2.02837e-08
3.31412e-06
-4.27129e-13
2.0554e-08
3.29334e-06
-4.70733e-13
2.0799e-08
3.27233e-06
-5.5325e-13
2.10204e-08
3.25112e-06
-6.64467e-13
2.122e-08
3.22973e-06
-7.88923e-13
2.13994e-08
3.20818e-06
-9.09604e-13
2.15602e-08
3.18649e-06
-1.01186e-12
2.17041e-08
3.16468e-06
-1.08458e-12
2.18324e-08
3.14275e-06
-1.12368e-12
2.19466e-08
3.12072e-06
-1.13004e-12
2.2048e-08
3.0986e-06
-1.10889e-12
2.21377e-08
3.07641e-06
-1.06809e-12
2.22171e-08
3.05414e-06
-1.01638e-12
2.2287e-08
3.03182e-06
-9.6098e-13
2.23485e-08
3.00944e-06
-9.07107e-13
2.24024e-08
2.98702e-06
-8.57647e-13
2.24498e-08
2.96455e-06
-8.12627e-13
2.24913e-08
2.94205e-06
-7.69939e-13
2.25279e-08
2.91952e-06
-7.27723e-13
2.25602e-08
2.89695e-06
-6.83397e-13
2.25889e-08
2.87437e-06
-6.35436e-13
2.26148e-08
2.85175e-06
-5.84254e-13
2.26385e-08
2.82912e-06
-5.30991e-13
2.26606e-08
2.80646e-06
-4.78395e-13
2.26818e-08
2.78378e-06
-4.29739e-13
2.27025e-08
2.76108e-06
-3.88272e-13
2.27234e-08
2.73836e-06
-3.55993e-13
2.27449e-08
2.71561e-06
-3.34205e-13
2.27675e-08
2.69284e-06
-3.2227e-13
2.27917e-08
2.67004e-06
-3.17912e-13
2.28179e-08
2.64722e-06
-3.1769e-13
2.28466e-08
2.62436e-06
-3.16719e-13
2.28782e-08
2.60146e-06
-3.10168e-13
2.29132e-08
2.57852e-06
-2.94098e-13
2.2952e-08
2.55555e-06
-2.65704e-13
2.2995e-08
2.53252e-06
-2.24931e-13
2.30427e-08
2.50944e-06
-1.73361e-13
2.30956e-08
2.4863e-06
-1.16157e-13
2.3154e-08
2.46309e-06
-5.98964e-14
2.32184e-08
2.43982e-06
-1.28785e-14
2.32893e-08
2.41646e-06
1.75139e-14
2.33669e-08
2.39302e-06
2.47026e-14
2.34519e-08
2.36948e-06
5.55122e-15
2.35445e-08
2.34585e-06
-3.9163e-14
2.36452e-08
2.3221e-06
-1.03889e-13
2.37544e-08
2.29824e-06
-1.79745e-13
2.38726e-08
2.27424e-06
-2.54768e-13
2.40002e-08
2.25011e-06
-3.16747e-13
2.41376e-08
2.22583e-06
-3.54994e-13
2.42854e-08
2.2014e-06
-3.63043e-13
2.44441e-08
2.17679e-06
-3.40533e-13
2.4614e-08
2.15201e-06
-2.92655e-13
2.47956e-08
2.12702e-06
-2.30677e-13
2.49894e-08
2.10184e-06
-1.68143e-13
2.51957e-08
2.07643e-06
-1.18711e-13
2.54149e-08
2.05079e-06
-9.1066e-14
2.56474e-08
2.02491e-06
-8.88456e-14
2.58935e-08
1.99876e-06
-1.07858e-13
2.61536e-08
1.97234e-06
-1.38445e-13
2.64282e-08
1.94563e-06
-1.69614e-13
2.67176e-08
1.91861e-06
-1.92235e-13
2.70224e-08
1.89127e-06
-2.02754e-13
2.73429e-08
1.8636e-06
-2.04892e-13
2.76795e-08
1.83557e-06
-2.07168e-13
2.80326e-08
1.80717e-06
-2.20796e-13
2.84024e-08
1.77839e-06
-2.52603e-13
2.87892e-08
1.7492e-06
-3.03341e-13
2.91933e-08
1.71959e-06
-3.6468e-13
2.9615e-08
1.68955e-06
-4.23439e-13
3.00545e-08
1.65904e-06
-4.66405e-13
3.0512e-08
1.62806e-06
-4.86583e-13
3.09878e-08
1.59659e-06
-4.85473e-13
3.14821e-08
1.5646e-06
-4.72455e-13
3.1995e-08
1.53208e-06
-4.59605e-13
3.25264e-08
1.49901e-06
-4.5372e-13
3.30765e-08
1.46538e-06
-4.52111e-13
3.3645e-08
1.43116e-06
-4.45671e-13
3.42321e-08
1.39633e-06
-4.23578e-13
3.48373e-08
1.36088e-06
-3.84165e-13
3.54606e-08
1.32479e-06
-3.38701e-13
3.61014e-08
1.28804e-06
-3.05561e-13
3.67592e-08
1.25062e-06
-3.02952e-13
3.74331e-08
1.21251e-06
-3.334e-13
3.81223e-08
1.17369e-06
-3.80446e-13
3.88258e-08
1.13416e-06
-4.17277e-13
3.95424e-08
1.0939e-06
-4.20552e-13
4.02705e-08
1.0529e-06
-3.87079e-13
4.10085e-08
1.01116e-06
-3.34399e-13
4.17542e-08
9.68666e-07
-2.88436e-13
4.25053e-08
9.25419e-07
-2.59986e-13
4.32588e-08
8.81419e-07
-2.38143e-13
4.40114e-08
8.36671e-07
-1.97731e-13
4.47594e-08
7.91185e-07
-1.24206e-13
4.54984e-08
7.44972e-07
-3.00038e-14
4.62233e-08
6.98054e-07
5.55944e-14
4.69282e-08
6.50457e-07
1.10023e-13
4.76063e-08
6.02216e-07
1.39389e-13
4.82499e-08
5.53374e-07
1.71918e-13
4.885e-08
5.03984e-07
2.26819e-13
4.93962e-08
4.54113e-07
2.93987e-13
4.98763e-08
4.03841e-07
3.46723e-13
5.02766e-08
3.53263e-07
3.75144e-13
5.05808e-08
3.02495e-07
3.95739e-13
5.077e-08
2.51673e-07
4.26215e-13
5.08221e-08
2.00962e-07
4.53249e-13
5.07107e-08
1.50555e-07
4.48808e-13
5.04045e-08
1.00685e-07
4.13836e-13
4.98664e-08
5.16328e-08
3.79585e-13
4.90483e-08
3.7309e-09
3.60545e-13
4.78968e-08
-4.25847e-08
3.24962e-13
4.63091e-08
-8.67945e-08
2.70173e-13
4.42025e-08
-1.28313e-07
2.35478e-13
4.15116e-08
-1.66453e-07
2.09832e-13
3.81329e-08
-2.00381e-07
1.26954e-13
3.39197e-08
-2.29061e-07
8.60424e-15
2.86721e-08
-2.51239e-07
-2.87548e-14
2.21719e-08
-2.65387e-07
-1.4766e-14
1.41414e-08
-2.69654e-07
-1.14964e-13
4.2607e-09
-2.61933e-07
-2.77556e-13
-7.72641e-09
-2.39999e-07
-3.94296e-13
-2.19374e-08
-2.01893e-07
-8.2423e-13
-3.81071e-08
-1.46877e-07
-1.48603e-12
-5.50171e-08
-7.99443e-08
-2.26397e-12
-6.69334e-08
-1.97002e-08
-2.84595e-12
-6.02386e-08
-3.67995e-12
-1.96912e-08
-2.60717e-07
2.60746e-07
-4.22659e-07
1.62021e-07
-4.64561e-07
4.19545e-08
-4.10693e-07
-5.3824e-08
-2.93786e-07
-1.16868e-07
-1.37872e-07
-1.55875e-07
4.07555e-08
-1.78592e-07
2.30866e-07
-1.90077e-07
4.25032e-07
-1.94135e-07
6.18786e-07
-1.93723e-07
8.09195e-07
-1.90381e-07
9.94383e-07
-1.85161e-07
1.17316e-06
-1.78747e-07
1.34479e-06
-1.71603e-07
1.50885e-06
-1.64045e-07
1.66517e-06
-1.56292e-07
1.81368e-06
-1.48495e-07
1.95446e-06
-1.40762e-07
2.08765e-06
-1.33165e-07
2.21342e-06
-1.25753e-07
2.33199e-06
-1.18561e-07
2.44362e-06
-1.11607e-07
2.54854e-06
-1.04904e-07
2.64701e-06
-9.84571e-08
2.7393e-06
-9.22665e-08
2.82565e-06
-8.63294e-08
2.90631e-06
-8.06409e-08
2.98152e-06
-7.51946e-08
3.05152e-06
-6.99834e-08
3.11653e-06
-6.49991e-08
3.17678e-06
-6.02335e-08
3.23248e-06
-5.56785e-08
3.28382e-06
-5.13258e-08
3.33101e-06
-4.71679e-08
3.37422e-06
-4.31971e-08
3.41364e-06
-3.94062e-08
3.44944e-06
-3.57881e-08
3.4818e-06
-3.23362e-08
3.51086e-06
-2.90444e-08
3.53679e-06
-2.59068e-08
3.55972e-06
-2.29179e-08
3.57981e-06
-2.00726e-08
3.59719e-06
-1.73657e-08
3.612e-06
-1.47923e-08
3.62437e-06
-1.23476e-08
3.63441e-06
-1.00271e-08
3.64226e-06
-7.82651e-09
3.64801e-06
-5.74159e-09
3.6518e-06
-3.76828e-09
3.65371e-06
-1.90249e-09
3.65387e-06
-1.39269e-10
3.65236e-06
1.52408e-09
3.64928e-06
3.09008e-09
3.64474e-06
4.56363e-09
3.6388e-06
5.94884e-09
3.63157e-06
7.24953e-09
3.62311e-06
8.46934e-09
3.61351e-06
9.61184e-09
3.60284e-06
1.06805e-08
3.59118e-06
1.16789e-08
3.57858e-06
1.26102e-08
3.56511e-06
1.34779e-08
3.55083e-06
1.4285e-08
3.53581e-06
1.50346e-08
3.52009e-06
1.57296e-08
3.50372e-06
1.63729e-08
3.48676e-06
1.69674e-08
3.46925e-06
1.75158e-08
3.45124e-06
1.8021e-08
3.43276e-06
1.84856e-08
3.41386e-06
1.89122e-08
3.39457e-06
1.93031e-08
3.37492e-06
1.96607e-08
3.35494e-06
1.99873e-08
3.33467e-06
2.02847e-08
3.31412e-06
2.0555e-08
3.29333e-06
2.07999e-08
3.27232e-06
2.10214e-08
3.25111e-06
2.12211e-08
3.22973e-06
2.14006e-08
3.20818e-06
2.15616e-08
3.18649e-06
2.17056e-08
3.16467e-06
2.18341e-08
3.14274e-06
2.19485e-08
3.12072e-06
2.20501e-08
3.0986e-06
2.214e-08
3.07641e-06
2.22195e-08
3.05414e-06
2.22895e-08
3.03182e-06
2.2351e-08
3.00944e-06
2.24051e-08
2.98702e-06
2.24524e-08
2.96455e-06
2.2494e-08
2.94205e-06
2.25306e-08
2.91952e-06
2.25628e-08
2.89695e-06
2.25916e-08
2.87436e-06
2.26174e-08
2.85175e-06
2.26411e-08
2.82912e-06
2.26632e-08
2.80646e-06
2.26843e-08
2.78378e-06
2.2705e-08
2.76108e-06
2.27258e-08
2.73836e-06
2.27472e-08
2.71561e-06
2.27697e-08
2.69284e-06
2.27938e-08
2.67004e-06
2.28199e-08
2.64722e-06
2.28485e-08
2.62436e-06
2.288e-08
2.60146e-06
2.29149e-08
2.57852e-06
2.29536e-08
2.55555e-06
2.29966e-08
2.53252e-06
2.30442e-08
2.50944e-06
2.3097e-08
2.4863e-06
2.31554e-08
2.46309e-06
2.32197e-08
2.43982e-06
2.32904e-08
2.41646e-06
2.3368e-08
2.39302e-06
2.34528e-08
2.36948e-06
2.35454e-08
2.34585e-06
2.3646e-08
2.3221e-06
2.37551e-08
2.29823e-06
2.38733e-08
2.27424e-06
2.40008e-08
2.25011e-06
2.41383e-08
2.22583e-06
2.42862e-08
2.2014e-06
2.44449e-08
2.17679e-06
2.46148e-08
2.15201e-06
2.47965e-08
2.12702e-06
2.49903e-08
2.10184e-06
2.51966e-08
2.07643e-06
2.54157e-08
2.05079e-06
2.56481e-08
2.02491e-06
2.58941e-08
1.99876e-06
2.61542e-08
1.97234e-06
2.64287e-08
1.94563e-06
2.67181e-08
1.91861e-06
2.70229e-08
1.89127e-06
2.73433e-08
1.8636e-06
2.76799e-08
1.83557e-06
2.8033e-08
1.80717e-06
2.84028e-08
1.77839e-06
2.87896e-08
1.7492e-06
2.91938e-08
1.71959e-06
2.96154e-08
1.68955e-06
3.0055e-08
1.65904e-06
3.05126e-08
1.62806e-06
3.09885e-08
1.59659e-06
3.14829e-08
1.5646e-06
3.19957e-08
1.53208e-06
3.25272e-08
1.49901e-06
3.30773e-08
1.46538e-06
3.36459e-08
1.43116e-06
3.4233e-08
1.39633e-06
3.48383e-08
1.36088e-06
3.54616e-08
1.32479e-06
3.61024e-08
1.28804e-06
3.67601e-08
1.25062e-06
3.74341e-08
1.21251e-06
3.81233e-08
1.17369e-06
3.88268e-08
1.13416e-06
3.95434e-08
1.0939e-06
4.02716e-08
1.0529e-06
4.10096e-08
1.01116e-06
4.17554e-08
9.68667e-07
4.25065e-08
9.2542e-07
4.326e-08
8.8142e-07
4.40126e-08
8.36672e-07
4.47606e-08
7.91185e-07
4.54996e-08
7.44973e-07
4.62244e-08
6.98055e-07
4.69292e-08
6.50458e-07
4.76072e-08
6.02217e-07
4.82507e-08
5.53375e-07
4.88507e-08
5.03985e-07
4.93967e-08
4.54114e-07
4.98768e-08
4.03842e-07
5.02769e-08
3.53264e-07
5.0581e-08
3.02496e-07
5.07702e-08
2.51674e-07
5.0822e-08
2.00963e-07
5.07103e-08
1.50556e-07
5.04041e-08
1.00686e-07
4.98659e-08
5.16341e-08
4.90478e-08
3.73189e-09
4.7896e-08
-4.25836e-08
4.63082e-08
-8.6793e-08
4.42018e-08
-1.28312e-07
4.15111e-08
-1.66452e-07
3.81322e-08
-2.0038e-07
3.39188e-08
-2.2906e-07
2.86712e-08
-2.51238e-07
2.21708e-08
-2.65387e-07
1.41404e-08
-2.69654e-07
4.26091e-09
-2.61931e-07
-7.7261e-09
-2.39998e-07
-2.19386e-08
-2.01892e-07
-3.81072e-08
-1.46875e-07
-5.50164e-08
-7.99448e-08
-6.69303e-08
-1.9704e-08
-6.02325e-08
-1.96956e-08
-1.39133e-07
-3.12325e-13
3.99939e-07
-1.41722e-07
1.43848e-12
1.64664e-07
-8.90076e-08
1.05603e-12
-1.07297e-08
-1.68977e-09
7.92685e-13
-1.41114e-07
1.1267e-07
5.80057e-13
-2.31201e-07
2.47107e-07
4.44592e-13
-2.90285e-07
3.95301e-07
3.34067e-13
-3.26761e-07
5.52099e-07
2.24486e-13
-3.46851e-07
7.13436e-07
1.91983e-13
-3.55449e-07
8.76072e-07
1.97824e-13
-3.56336e-07
1.03763e-06
1.97157e-13
-3.51921e-07
1.19641e-06
2.04949e-13
-3.43916e-07
1.35118e-06
2.2002e-13
-3.33501e-07
1.50111e-06
2.23225e-13
-3.21511e-07
1.64562e-06
2.24251e-13
-3.08537e-07
1.78434e-06
2.40169e-13
-2.95003e-07
1.91708e-06
2.54636e-13
-2.81214e-07
2.04372e-06
2.38607e-13
-2.67389e-07
2.16425e-06
1.93503e-13
-2.53685e-07
2.27872e-06
1.47776e-13
-2.40213e-07
2.38723e-06
1.19985e-13
-2.27053e-07
2.48989e-06
1.04241e-13
-2.14255e-07
2.58685e-06
9.04251e-14
-2.01855e-07
2.67828e-06
8.32848e-14
-1.89874e-07
2.76435e-06
9.52334e-14
-1.78322e-07
2.84524e-06
1.26236e-13
-1.67202e-07
2.92112e-06
1.59612e-13
-1.56512e-07
2.99219e-06
1.77195e-13
-1.46245e-07
3.05861e-06
1.75946e-13
-1.36393e-07
3.12057e-06
1.66912e-13
-1.26946e-07
3.17824e-06
1.61027e-13
-1.17891e-07
3.23179e-06
1.57634e-13
-1.09217e-07
3.28139e-06
1.47073e-13
-1.00911e-07
3.32719e-06
1.23189e-13
-9.29597e-08
3.36936e-06
9.19988e-14
-8.53522e-08
3.40804e-06
6.84273e-14
-7.80761e-08
3.44338e-06
6.47496e-14
-7.112e-08
3.47553e-06
8.12225e-14
-6.4473e-08
3.50463e-06
1.06168e-13
-5.81243e-08
3.5308e-06
1.25146e-13
-5.20641e-08
3.55418e-06
1.30645e-13
-4.62825e-08
3.57489e-06
1.25881e-13
-4.07704e-08
3.59305e-06
1.20597e-13
-3.55186e-08
3.60879e-06
1.22821e-13
-3.05187e-08
3.62222e-06
1.33198e-13
-2.5762e-08
3.63344e-06
1.45209e-13
-2.12405e-08
3.64258e-06
1.50188e-13
-1.69463e-08
3.64972e-06
1.43589e-13
-1.28715e-08
3.65497e-06
1.27782e-13
-9.00849e-09
3.65843e-06
1.10386e-13
-5.34965e-09
3.66019e-06
9.98632e-14
-1.88742e-09
3.66034e-06
1.00297e-13
1.38442e-09
3.65897e-06
1.1016e-13
4.47182e-09
3.65616e-06
1.23823e-13
7.38227e-09
3.65199e-06
1.34675e-13
1.01233e-08
3.64655e-06
1.3886e-13
1.27019e-08
3.6399e-06
1.36715e-13
1.5125e-08
3.63213e-06
1.32146e-13
1.73994e-08
3.62328e-06
1.29617e-13
1.95315e-08
3.61344e-06
1.31841e-13
2.15279e-08
3.60267e-06
1.37933e-13
2.33948e-08
3.59101e-06
1.43817e-13
2.51384e-08
3.57854e-06
1.44105e-13
2.67647e-08
3.5653e-06
1.34512e-13
2.82795e-08
3.55135e-06
1.13883e-13
2.96887e-08
3.53673e-06
8.48328e-14
3.09977e-08
3.52149e-06
5.29034e-14
3.22121e-08
3.50567e-06
2.48703e-14
3.3337e-08
3.48932e-06
6.5203e-15
3.43776e-08
3.47248e-06
1.01077e-15
3.53388e-08
3.45517e-06
7.9635e-15
3.62254e-08
3.43744e-06
2.39611e-14
3.70419e-08
3.41932e-06
4.35946e-14
3.77927e-08
3.40083e-06
6.11396e-14
3.84821e-08
3.38201e-06
7.19816e-14
3.9114e-08
3.36288e-06
7.39973e-14
3.96923e-08
3.34347e-06
6.73359e-14
4.02207e-08
3.32379e-06
5.4662e-14
4.07027e-08
3.30388e-06
3.98959e-14
4.11416e-08
3.28375e-06
2.72741e-14
4.15406e-08
3.26343e-06
2.03906e-14
4.19029e-08
3.24291e-06
2.14869e-14
4.22312e-08
3.22223e-06
3.11285e-14
4.25284e-08
3.2014e-06
4.84133e-14
4.27969e-08
3.18043e-06
7.1322e-14
4.30394e-08
3.15933e-06
9.7211e-14
4.3258e-08
3.13811e-06
1.23409e-13
4.34551e-08
3.11679e-06
1.47736e-13
4.36326e-08
3.09537e-06
1.68636e-13
4.37926e-08
3.07386e-06
1.85477e-13
4.39369e-08
3.05226e-06
1.98241e-13
4.40673e-08
3.03059e-06
2.07494e-13
4.41854e-08
3.00885e-06
2.1409e-13
4.42929e-08
2.98704e-06
2.18718e-13
4.43912e-08
2.96517e-06
2.21986e-13
4.44818e-08
2.94325e-06
2.24186e-13
4.45661e-08
2.92126e-06
2.25202e-13
4.46453e-08
2.89922e-06
2.24807e-13
4.47207e-08
2.87713e-06
2.22617e-13
4.47935e-08
2.85499e-06
2.18454e-13
4.48648e-08
2.8328e-06
2.12209e-13
4.49357e-08
2.81056e-06
2.04129e-13
4.50073e-08
2.78826e-06
1.94751e-13
4.50805e-08
2.76591e-06
1.85033e-13
4.51563e-08
2.74351e-06
1.75832e-13
4.52358e-08
2.72106e-06
1.68057e-13
4.53197e-08
2.69854e-06
1.62533e-13
4.54091e-08
2.67596e-06
1.59713e-13
4.55047e-08
2.65332e-06
1.59598e-13
4.56075e-08
2.63061e-06
1.61746e-13
4.57183e-08
2.60783e-06
1.65264e-13
4.58379e-08
2.58497e-06
1.68782e-13
4.59673e-08
2.56203e-06
1.70787e-13
4.61072e-08
2.539e-06
1.69718e-13
4.62585e-08
2.51588e-06
1.64313e-13
4.64222e-08
2.49265e-06
1.53745e-13
4.6599e-08
2.46932e-06
1.38008e-13
4.67898e-08
2.44588e-06
1.17906e-13
4.69956e-08
2.42232e-06
9.5056e-14
4.72172e-08
2.39862e-06
7.17829e-14
4.74555e-08
2.37479e-06
5.08621e-14
4.77114e-08
2.35081e-06
3.48263e-14
4.79856e-08
2.32667e-06
2.58197e-14
4.82791e-08
2.30237e-06
2.48898e-14
4.85926e-08
2.2779e-06
3.18079e-14
4.89271e-08
2.25324e-06
4.50612e-14
4.92832e-08
2.22838e-06
6.17492e-14
4.96618e-08
2.20331e-06
7.85344e-14
5.00638e-08
2.17803e-06
9.20306e-14
5.04898e-08
2.15251e-06
9.98299e-14
5.09407e-08
2.12674e-06
1.00933e-13
5.14172e-08
2.10072e-06
9.58747e-14
5.19202e-08
2.07443e-06
8.69652e-14
5.24504e-08
2.04786e-06
7.70148e-14
5.30086e-08
2.02098e-06
6.86534e-14
5.35956e-08
1.9938e-06
6.33521e-14
5.42119e-08
1.96629e-06
6.10623e-14
5.48585e-08
1.93844e-06
6.03198e-14
5.55359e-08
1.91023e-06
5.87933e-14
5.62447e-08
1.88165e-06
5.47062e-14
5.69855e-08
1.85269e-06
4.74759e-14
5.77589e-08
1.82332e-06
3.85317e-14
5.85654e-08
1.79354e-06
3.05658e-14
5.94053e-08
1.76332e-06
2.66592e-14
6.0279e-08
1.73265e-06
2.87548e-14
6.11869e-08
1.70151e-06
3.6561e-14
6.21292e-08
1.6699e-06
4.76424e-14
6.31059e-08
1.63778e-06
5.85435e-14
6.41173e-08
1.60515e-06
6.66273e-14
6.51631e-08
1.572e-06
7.12208e-14
6.62433e-08
1.53829e-06
7.43364e-14
6.73575e-08
1.50403e-06
7.8923e-14
6.85053e-08
1.46919e-06
8.68264e-14
6.96861e-08
1.43376e-06
9.68947e-14
7.0899e-08
1.39773e-06
1.05124e-13
7.2143e-08
1.36108e-06
1.07012e-13
7.34166e-08
1.3238e-06
1.00385e-13
7.47184e-08
1.28589e-06
8.76937e-14
7.60462e-08
1.24733e-06
7.5287e-14
7.73978e-08
1.20811e-06
6.97706e-14
7.87703e-08
1.16823e-06
7.3698e-14
8.01606e-08
1.12768e-06
8.35512e-14
8.15646e-08
1.08647e-06
9.24538e-14
8.29781e-08
1.04459e-06
9.50351e-14
8.43958e-08
1.00204e-06
9.21069e-14
8.58119e-08
9.58846e-07
8.96852e-14
8.72196e-08
9.15004e-07
9.34947e-14
8.86111e-08
8.70535e-07
1.03487e-13
8.99774e-08
8.25458e-07
1.12813e-13
9.13083e-08
7.79802e-07
1.13833e-13
9.25922e-08
7.336e-07
1.05423e-13
9.38157e-08
6.86893e-07
9.40567e-14
9.49637e-08
6.39729e-07
8.73746e-14
9.60186e-08
5.92169e-07
8.641e-14
9.69604e-08
5.44283e-07
8.46198e-14
9.77661e-08
4.96152e-07
7.64389e-14
9.84093e-08
4.47875e-07
6.40391e-14
9.88595e-08
3.99564e-07
5.36168e-14
9.90813e-08
3.51351e-07
4.62269e-14
9.90337e-08
3.03391e-07
3.52912e-14
9.86687e-08
2.55863e-07
1.67227e-14
9.79298e-08
2.08975e-07
-3.85802e-15
9.67503e-08
1.62971e-07
-1.92415e-14
9.50481e-08
1.18133e-07
-3.10654e-14
9.27294e-08
7.47789e-08
-4.30142e-14
8.96567e-08
3.32774e-08
-4.95576e-14
8.5698e-08
-5.94225e-09
-4.75592e-14
8.0725e-08
-4.23654e-08
-4.88637e-14
7.45495e-08
-7.5412e-08
-6.27137e-14
6.696e-08
-1.04447e-07
-8.53206e-14
5.77015e-08
-1.28757e-07
-1.17642e-13
4.64766e-08
-1.47568e-07
-1.22458e-13
3.29466e-08
-1.6008e-07
-4.86833e-14
1.67691e-08
-1.65498e-07
-2.1233e-14
-2.31059e-09
-1.63132e-07
-5.22776e-14
-2.43058e-08
-1.52571e-07
8.85542e-14
-4.86686e-08
-1.33742e-07
1.71516e-13
-7.3842e-08
-1.05562e-07
2.86438e-14
-9.51091e-08
-6.45265e-08
-1.56319e-13
-1.01265e-07
6.56697e-13
-8.42148e-08
-1.39127e-07
3.9994e-07
-1.41721e-07
1.64662e-07
-8.90042e-08
-1.07323e-08
-1.68657e-09
-1.41116e-07
1.12673e-07
-2.31203e-07
2.47109e-07
-2.90286e-07
3.95302e-07
-3.26761e-07
5.521e-07
-3.46851e-07
7.13437e-07
-3.55449e-07
8.76071e-07
-3.56337e-07
1.03763e-06
-3.51922e-07
1.19641e-06
-3.43916e-07
1.35118e-06
-3.33502e-07
1.5011e-06
-3.21511e-07
1.64561e-06
-3.08537e-07
1.78434e-06
-2.95003e-07
1.91707e-06
-2.81214e-07
2.04371e-06
-2.67389e-07
2.16425e-06
-2.53685e-07
2.27872e-06
-2.40214e-07
2.38722e-06
-2.27053e-07
2.48988e-06
-2.14255e-07
2.58685e-06
-2.01855e-07
2.67828e-06
-1.89874e-07
2.76435e-06
-1.78322e-07
2.84523e-06
-1.67202e-07
2.92112e-06
-1.56512e-07
2.99218e-06
-1.46245e-07
3.0586e-06
-1.36394e-07
3.12056e-06
-1.26946e-07
3.17823e-06
-1.17892e-07
3.23178e-06
-1.09217e-07
3.28138e-06
-1.00911e-07
3.32718e-06
-9.29599e-08
3.36935e-06
-8.53524e-08
3.40803e-06
-7.80763e-08
3.44338e-06
-7.11202e-08
3.47553e-06
-6.44732e-08
3.50462e-06
-5.81245e-08
3.53079e-06
-5.20643e-08
3.55417e-06
-4.62828e-08
3.57488e-06
-4.07706e-08
3.59305e-06
-3.55189e-08
3.60879e-06
-3.05188e-08
3.62221e-06
-2.57622e-08
3.63344e-06
-2.12407e-08
3.64257e-06
-1.69465e-08
3.64971e-06
-1.28717e-08
3.65496e-06
-9.00867e-09
3.65842e-06
-5.34982e-09
3.66018e-06
-1.88758e-09
3.66033e-06
1.38427e-09
3.65896e-06
4.47167e-09
3.65615e-06
7.38211e-09
3.65199e-06
1.01231e-08
3.64655e-06
1.27017e-08
3.6399e-06
1.51249e-08
3.63212e-06
1.73992e-08
3.62328e-06
1.95314e-08
3.61344e-06
2.15277e-08
3.60266e-06
2.33946e-08
3.59101e-06
2.51382e-08
3.57854e-06
2.67645e-08
3.5653e-06
2.82793e-08
3.55134e-06
2.96885e-08
3.53672e-06
3.09975e-08
3.52149e-06
3.22119e-08
3.50567e-06
3.33368e-08
3.48932e-06
3.43774e-08
3.47247e-06
3.53386e-08
3.45517e-06
3.62252e-08
3.43744e-06
3.70417e-08
3.41931e-06
3.77926e-08
3.40083e-06
3.84819e-08
3.38201e-06
3.91138e-08
3.36288e-06
3.96921e-08
3.34347e-06
4.02205e-08
3.32379e-06
4.07025e-08
3.30388e-06
4.11414e-08
3.28375e-06
4.15405e-08
3.26342e-06
4.19027e-08
3.24291e-06
4.22311e-08
3.22223e-06
4.25282e-08
3.2014e-06
4.27968e-08
3.18043e-06
4.30392e-08
3.15933e-06
4.32578e-08
3.13811e-06
4.34549e-08
3.11679e-06
4.36324e-08
3.09537e-06
4.37924e-08
3.07386e-06
4.39367e-08
3.05226e-06
4.40671e-08
3.03059e-06
4.41852e-08
3.00885e-06
4.42927e-08
2.98704e-06
4.4391e-08
2.96517e-06
4.44817e-08
2.94324e-06
4.45659e-08
2.92126e-06
4.46452e-08
2.89922e-06
4.47206e-08
2.87713e-06
4.47934e-08
2.85499e-06
4.48647e-08
2.8328e-06
4.49356e-08
2.81055e-06
4.50072e-08
2.78826e-06
4.50804e-08
2.76591e-06
4.51562e-08
2.74351e-06
4.52357e-08
2.72105e-06
4.53196e-08
2.69854e-06
4.5409e-08
2.67596e-06
4.55046e-08
2.65332e-06
4.56074e-08
2.63061e-06
4.57182e-08
2.60783e-06
4.58378e-08
2.58497e-06
4.59672e-08
2.56203e-06
4.61071e-08
2.539e-06
4.62584e-08
2.51588e-06
4.6422e-08
2.49265e-06
4.65988e-08
2.46932e-06
4.67897e-08
2.44588e-06
4.69955e-08
2.42231e-06
4.72171e-08
2.39862e-06
4.74554e-08
2.37479e-06
4.77113e-08
2.35081e-06
4.79855e-08
2.32667e-06
4.8279e-08
2.30237e-06
4.85926e-08
2.2779e-06
4.8927e-08
2.25324e-06
4.92831e-08
2.22838e-06
4.96618e-08
2.20331e-06
5.00637e-08
2.17803e-06
5.04897e-08
2.15251e-06
5.09406e-08
2.12674e-06
5.14171e-08
2.10072e-06
5.19201e-08
2.07443e-06
5.24503e-08
2.04786e-06
5.30084e-08
2.02098e-06
5.35954e-08
1.9938e-06
5.42118e-08
1.96629e-06
5.48583e-08
1.93844e-06
5.55357e-08
1.91023e-06
5.62445e-08
1.88165e-06
5.69854e-08
1.85269e-06
5.77588e-08
1.82332e-06
5.85652e-08
1.79353e-06
5.94051e-08
1.76332e-06
6.02789e-08
1.73265e-06
6.11868e-08
1.70151e-06
6.2129e-08
1.6699e-06
6.31058e-08
1.63778e-06
6.41171e-08
1.60515e-06
6.51629e-08
1.572e-06
6.62431e-08
1.53829e-06
6.73573e-08
1.50403e-06
6.85051e-08
1.46919e-06
6.96859e-08
1.43376e-06
7.08988e-08
1.39773e-06
7.21428e-08
1.36108e-06
7.34164e-08
1.3238e-06
7.47182e-08
1.28589e-06
7.6046e-08
1.24733e-06
7.73976e-08
1.20811e-06
7.87702e-08
1.16823e-06
8.01604e-08
1.12768e-06
8.15645e-08
1.08647e-06
8.2978e-08
1.04459e-06
8.43957e-08
1.00204e-06
8.58118e-08
9.58846e-07
8.72195e-08
9.15004e-07
8.8611e-08
8.70535e-07
8.99773e-08
8.25459e-07
9.13082e-08
7.79803e-07
9.25921e-08
7.336e-07
9.38157e-08
6.86893e-07
9.49636e-08
6.3973e-07
9.60186e-08
5.9217e-07
9.69604e-08
5.44283e-07
9.7766e-08
4.96153e-07
9.84092e-08
4.47875e-07
9.88594e-08
3.99564e-07
9.90813e-08
3.51352e-07
9.90337e-08
3.03391e-07
9.86686e-08
2.55863e-07
9.79298e-08
2.08976e-07
9.67503e-08
1.62971e-07
9.50481e-08
1.18133e-07
9.27294e-08
7.47794e-08
8.96567e-08
3.32779e-08
8.5698e-08
-5.94188e-09
8.07251e-08
-4.23652e-08
7.45495e-08
-7.54117e-08
6.696e-08
-1.04447e-07
5.77015e-08
-1.28757e-07
4.64765e-08
-1.47567e-07
3.29466e-08
-1.60079e-07
1.67691e-08
-1.65497e-07
-2.31069e-09
-1.6313e-07
-2.43061e-08
-1.52569e-07
-4.86693e-08
-1.33741e-07
-7.38431e-08
-1.05561e-07
-9.51095e-08
-6.4526e-08
-1.01263e-07
-8.42168e-08
-7.0016e-09
2.25617e-12
4.06976e-07
5.90429e-08
8.7784e-13
9.8637e-08
1.50442e-07
5.29164e-13
-1.02122e-07
2.53254e-07
4.32451e-13
-2.43922e-07
3.66291e-07
4.08028e-13
-3.44234e-07
4.8864e-07
3.8081e-13
-4.1263e-07
6.18583e-07
3.3343e-13
-4.56699e-07
7.54172e-07
2.89672e-13
-4.82436e-07
8.93372e-07
2.62006e-13
-4.94645e-07
1.03414e-06
2.43412e-13
-4.97103e-07
1.17478e-06
2.3438e-13
-4.92552e-07
1.31389e-06
2.33436e-13
-4.83024e-07
1.4504e-06
2.30927e-13
-4.70007e-07
1.58349e-06
2.25695e-13
-4.54594e-07
1.71255e-06
2.25313e-13
-4.37594e-07
1.83715e-06
2.27866e-13
-4.19603e-07
1.957e-06
2.2082e-13
-4.01062e-07
2.07191e-06
1.97852e-13
-3.82299e-07
2.18179e-06
1.66817e-13
-3.63554e-07
2.28658e-06
1.39409e-13
-3.45004e-07
2.38631e-06
1.19109e-13
-3.26778e-07
2.48102e-06
1.0257e-13
-3.08965e-07
2.5708e-06
8.89035e-14
-2.91629e-07
2.65574e-06
8.28839e-14
-2.74813e-07
2.73596e-06
8.82615e-14
-2.58542e-07
2.81159e-06
1.01022e-13
-2.42829e-07
2.88277e-06
1.11493e-13
-2.27681e-07
2.94962e-06
1.13193e-13
-2.13095e-07
3.0123e-06
1.07759e-13
-1.99066e-07
3.07094e-06
1.01389e-13
-1.85583e-07
3.12568e-06
9.70977e-14
-1.72635e-07
3.17668e-06
9.17825e-14
-1.60207e-07
3.22405e-06
8.04165e-14
-1.48286e-07
3.26796e-06
6.22331e-14
-1.36857e-07
3.30851e-06
4.30817e-14
-1.25905e-07
3.34585e-06
3.12474e-14
-1.15416e-07
3.38011e-06
3.11468e-14
-1.05373e-07
3.41141e-06
4.03165e-14
-9.57649e-08
3.43986e-06
5.1554e-14
-8.65763e-08
3.4656e-06
5.82396e-14
-7.77944e-08
3.48872e-06
5.85934e-14
-6.94063e-08
3.50936e-06
5.5856e-14
-6.13998e-08
3.5276e-06
5.50094e-14
-5.37626e-08
3.54357e-06
5.8857e-14
-4.64831e-08
3.55736e-06
6.61272e-14
-3.955e-08
3.56908e-06
7.26116e-14
-3.2952e-08
3.57881e-06
7.4296e-14
-2.66783e-08
3.58666e-06
6.99765e-14
-2.0718e-08
3.59272e-06
6.19412e-14
-1.50607e-08
3.59707e-06
5.45859e-14
-9.6959e-09
3.5998e-06
5.1708e-14
-4.61339e-09
3.60099e-06
5.46275e-14
1.9641e-10
3.60072e-06
6.16687e-14
4.7423e-09
3.59907e-06
6.94784e-14
9.03397e-09
3.59611e-06
7.49324e-14
1.30818e-08
3.59192e-06
7.66324e-14
1.68957e-08
3.58657e-06
7.54423e-14
2.04852e-08
3.58011e-06
7.36312e-14
2.38599e-08
3.57261e-06
7.34525e-14
2.7029e-08
3.56414e-06
7.57805e-14
3.00017e-08
3.55475e-06
7.95708e-14
3.27868e-08
3.5445e-06
8.22822e-14
3.53932e-08
3.53343e-06
8.09759e-14
3.78293e-08
3.52161e-06
7.369e-14
4.01036e-08
3.50908e-06
6.03222e-14
4.22242e-08
3.49588e-06
4.27547e-14
4.41991e-08
3.48205e-06
2.42954e-14
4.6036e-08
3.46765e-06
8.74015e-15
4.77424e-08
3.4527e-06
-8.928e-16
4.93257e-08
3.43725e-06
-3.23123e-15
5.07928e-08
3.42133e-06
1.29463e-15
5.21506e-08
3.40497e-06
1.06153e-14
5.34056e-08
3.3882e-06
2.17348e-14
5.45641e-08
3.37105e-06
3.16089e-14
5.56323e-08
3.35355e-06
3.79128e-14
5.66158e-08
3.33572e-06
3.96597e-14
5.75202e-08
3.31759e-06
3.70749e-14
5.83509e-08
3.29919e-06
3.16348e-14
5.91129e-08
3.28052e-06
2.53429e-14
5.98112e-08
3.26161e-06
2.03937e-14
6.04503e-08
3.24248e-06
1.85115e-14
6.10347e-08
3.22315e-06
2.06869e-14
6.15685e-08
3.20362e-06
2.71244e-14
6.20558e-08
3.18392e-06
3.72552e-14
6.25003e-08
3.16406e-06
4.99603e-14
6.29056e-08
3.14405e-06
6.38606e-14
6.32752e-08
3.1239e-06
7.75909e-14
6.36122e-08
3.10361e-06
8.99907e-14
6.39198e-08
3.08321e-06
1.00298e-13
6.42007e-08
3.06269e-06
1.08099e-13
6.44578e-08
3.04207e-06
1.13363e-13
6.46937e-08
3.02135e-06
1.16273e-13
6.49107e-08
3.00054e-06
1.17158e-13
6.51114e-08
2.97964e-06
1.16412e-13
6.52978e-08
2.95865e-06
1.14376e-13
6.54722e-08
2.93759e-06
1.11355e-13
6.56364e-08
2.91644e-06
1.07576e-13
6.57926e-08
2.89523e-06
1.03287e-13
6.59425e-08
2.87394e-06
9.87631e-14
6.60879e-08
2.85258e-06
9.42719e-14
6.62304e-08
2.83114e-06
9.01467e-14
6.63717e-08
2.80964e-06
8.67744e-14
6.65133e-08
2.78807e-06
8.44238e-14
6.66569e-08
2.76643e-06
8.33223e-14
6.68037e-08
2.74471e-06
8.35461e-14
6.69553e-08
2.72292e-06
8.49408e-14
6.7113e-08
2.70106e-06
8.72428e-14
6.72781e-08
2.67911e-06
9.00096e-14
6.7452e-08
2.65709e-06
9.26655e-14
6.7636e-08
2.63497e-06
9.45876e-14
6.78314e-08
2.61278e-06
9.52121e-14
6.80394e-08
2.59048e-06
9.39943e-14
6.82614e-08
2.5681e-06
9.06393e-14
6.84985e-08
2.5456e-06
8.49494e-14
6.87522e-08
2.523e-06
7.69801e-14
6.90236e-08
2.50029e-06
6.70505e-14
6.9314e-08
2.47746e-06
5.57263e-14
6.96248e-08
2.4545e-06
4.38018e-14
6.99572e-08
2.4314e-06
3.22936e-14
7.03125e-08
2.40817e-06
2.22739e-14
7.0692e-08
2.38479e-06
1.4759e-14
7.10969e-08
2.36124e-06
1.06651e-14
7.15285e-08
2.33754e-06
1.04153e-14
7.19879e-08
2.31365e-06
1.40443e-14
7.24765e-08
2.28959e-06
2.10006e-14
7.29955e-08
2.26533e-06
3.01009e-14
7.35459e-08
2.24086e-06
3.98431e-14
7.41289e-08
2.21618e-06
4.84716e-14
7.47459e-08
2.19127e-06
5.44842e-14
7.53977e-08
2.16613e-06
5.68712e-14
7.60858e-08
2.14074e-06
5.54209e-14
7.6811e-08
2.11508e-06
5.07927e-14
7.75746e-08
2.08916e-06
4.4284e-14
7.83776e-08
2.06295e-06
3.75429e-14
7.92211e-08
2.03644e-06
3.2023e-14
8.01061e-08
2.00962e-06
2.85744e-14
8.10337e-08
1.98247e-06
2.72109e-14
8.20047e-08
1.95499e-06
2.73011e-14
8.302e-08
1.92715e-06
2.76862e-14
8.40805e-08
1.89895e-06
2.74052e-14
8.5187e-08
1.87037e-06
2.61596e-14