/*--------------------------------*- C++ -*----------------------------------*\
  =========                 |
  \\      /  F ield         | OpenFOAM: The Open Source CFD Toolbox
   \\    /   O peration     | Website:  https://openfoam.org
    \\  /    A nd           | Version:  8
     \\/     M anipulation  |
\*---------------------------------------------------------------------------*/
FoamFile
{
    version     2.0;
    format      ascii;
    class       volVectorField;
    location    "1800";
    object      U;
}
// * * * * * * * * * * * * * * * * * * * * * * * * * * * * * * * * * * * * * //

dimensions      [0 1 -1 0 0 0 0];

internalField   nonuniform List<vector> 
48000
(
(-0.0143596 -5.79135e-07 0.0157448)
(-0.0239141 -2.52632e-07 0.0112447)
(-0.0326745 -2.69482e-07 0.00307204)
(-0.0310198 -2.4189e-07 -0.00307317)
(-0.0248104 -2.55414e-07 -0.00704077)
(-0.0151704 -2.76233e-07 -0.00947765)
(-0.0035595 -2.65169e-07 -0.0108857)
(0.00931648 -2.38579e-07 -0.0115089)
(0.0225041 -2.13337e-07 -0.0116054)
(0.0358696 -1.93059e-07 -0.0114473)
(0.0490767 -1.81165e-07 -0.0111344)
(0.0619801 -1.721e-07 -0.0107292)
(0.0744764 -1.5547e-07 -0.0102711)
(0.0865021 -1.34781e-07 -0.00978585)
(0.0980194 -1.17778e-07 -0.00929003)
(0.109009 -1.03489e-07 -0.00879469)
(0.119462 -8.92381e-08 -0.00830705)
(0.129382 -7.95257e-08 -0.00783179)
(0.138775 -7.95905e-08 -0.00737184)
(0.147652 -8.68472e-08 -0.00692893)
(0.156028 -9.35139e-08 -0.00650397)
(0.163919 -9.54785e-08 -0.00609727)
(0.171341 -9.4401e-08 -0.00570877)
(0.178312 -9.19034e-08 -0.00533816)
(0.184849 -8.6223e-08 -0.00498492)
(0.190971 -7.51095e-08 -0.00464843)
(0.196694 -6.02572e-08 -0.00432803)
(0.202035 -4.67528e-08 -0.004023)
(0.207011 -3.87498e-08 -0.00373264)
(0.211638 -3.61952e-08 -0.00345626)
(0.21593 -3.6336e-08 -0.00319318)
(0.219902 -3.71127e-08 -0.00294273)
(0.223569 -3.9123e-08 -0.00270431)
(0.226944 -4.4023e-08 -0.00247734)
(0.230041 -5.1767e-08 -0.00226127)
(0.232872 -5.953e-08 -0.00205558)
(0.235449 -6.33678e-08 -0.00185981)
(0.237783 -6.10758e-08 -0.0016735)
(0.239886 -5.38191e-08 -0.00149625)
(0.241769 -4.52489e-08 -0.00132768)
(0.243442 -3.88679e-08 -0.00116742)
(0.244915 -3.59553e-08 -0.00101514)
(0.246198 -3.52091e-08 -0.000870535)
(0.247299 -3.4223e-08 -0.000733298)
(0.248229 -3.15275e-08 -0.000603143)
(0.248995 -2.75565e-08 -0.0004798)
(0.249606 -2.42975e-08 -0.000363008)
(0.25007 -2.36008e-08 -0.000252519)
(0.250396 -2.59003e-08 -0.000148099)
(0.250589 -2.97876e-08 -4.9513e-05)
(0.250659 -3.28486e-08 4.36702e-05)
(0.25061 -3.30085e-08 0.000131532)
(0.250452 -2.96543e-08 0.000214028)
(0.250189 -2.37873e-08 0.00029149)
(0.249828 -1.72883e-08 0.000364201)
(0.249375 -1.19201e-08 0.000432386)
(0.248835 -8.41745e-09 0.000496251)
(0.248215 -6.33489e-09 0.00055599)
(0.247519 -4.4465e-09 0.000611793)
(0.246752 -1.66721e-09 0.000663845)
(0.245919 2.31135e-09 0.000712327)
(0.245024 6.68587e-09 0.000757415)
(0.244071 9.9106e-09 0.000799281)
(0.243066 1.03865e-08 0.00083809)
(0.24201 7.09702e-09 0.000874006)
(0.240909 1.60209e-10 0.000907186)
(0.239766 -9.17517e-09 0.000937786)
(0.238583 -1.89369e-08 0.000965958)
(0.237364 -2.70121e-08 0.000991847)
(0.236112 -3.18816e-08 0.0010156)
(0.234829 -3.29819e-08 0.00103734)
(0.233519 -3.08613e-08 0.00105721)
(0.232182 -2.69855e-08 0.00107532)
(0.230823 -2.3281e-08 0.00109179)
(0.229441 -2.15944e-08 0.00110672)
(0.228041 -2.32087e-08 0.00112023)
(0.226623 -2.8615e-08 0.0011324)
(0.225188 -3.74745e-08 0.00114335)
(0.223739 -4.87058e-08 0.00115314)
(0.222278 -6.08661e-08 0.00116189)
(0.220804 -7.24363e-08 0.00116967)
(0.219321 -8.22095e-08 0.00117656)
(0.217828 -8.9291e-08 0.00118264)
(0.216327 -9.34408e-08 0.00118799)
(0.214818 -9.47886e-08 0.00119267)
(0.213303 -9.38406e-08 0.00119675)
(0.211782 -9.12707e-08 0.00120028)
(0.210257 -8.78099e-08 0.00120333)
(0.208726 -8.40065e-08 0.00120594)
(0.207192 -8.02716e-08 0.00120817)
(0.205655 -7.67613e-08 0.00121005)
(0.204114 -7.34567e-08 0.00121165)
(0.202571 -7.01368e-08 0.00121299)
(0.201026 -6.66455e-08 0.00121412)
(0.199479 -6.27964e-08 0.00121509)
(0.197929 -5.85019e-08 0.00121591)
(0.196378 -5.38342e-08 0.00121664)
(0.194826 -4.89571e-08 0.00121731)
(0.193272 -4.41258e-08 0.00121794)
(0.191716 -3.96713e-08 0.00121857)
(0.19016 -3.58565e-08 0.00121923)
(0.188601 -3.28487e-08 0.00121994)
(0.187042 -3.0751e-08 0.00122072)
(0.18548 -2.94679e-08 0.0012216)
(0.183917 -2.87788e-08 0.00122261)
(0.182352 -2.83486e-08 0.00122377)
(0.180785 -2.77356e-08 0.0012251)
(0.179215 -2.64907e-08 0.00122662)
(0.177643 -2.42749e-08 0.00122836)
(0.176069 -2.08522e-08 0.00123034)
(0.174491 -1.62759e-08 0.00123259)
(0.172909 -1.07173e-08 0.00123513)
(0.171324 -4.74379e-09 0.00123798)
(0.169735 9.93707e-10 0.00124117)
(0.16814 5.64995e-09 0.00124473)
(0.166541 8.49014e-09 0.00124866)
(0.164936 8.8899e-09 0.00125301)
(0.163325 6.5713e-09 0.00125779)
(0.161707 1.6752e-09 0.00126302)
(0.160082 -5.15117e-09 0.00126873)
(0.158449 -1.29332e-08 0.00127495)
(0.156808 -2.03611e-08 0.00128169)
(0.155157 -2.6129e-08 0.00128899)
(0.153497 -2.91291e-08 0.00129687)
(0.151826 -2.87141e-08 0.00130537)
(0.150145 -2.49297e-08 0.0013145)
(0.148451 -1.84498e-08 0.00132429)
(0.146744 -1.05765e-08 0.00133477)
(0.145023 -2.88207e-09 0.00134595)
(0.143288 3.09909e-09 0.00135787)
(0.141537 6.38854e-09 0.00137055)
(0.13977 6.58651e-09 0.00138399)
(0.137985 4.16892e-09 0.00139824)
(0.136182 2.17016e-10 0.00141331)
(0.13436 -4.01663e-09 0.00142923)
(0.132517 -7.46598e-09 0.00144603)
(0.130653 -9.65133e-09 0.00146374)
(0.128766 -1.08201e-08 0.00148238)
(0.126856 -1.17758e-08 0.00150197)
(0.124921 -1.35309e-08 0.00152255)
(0.12296 -1.67594e-08 0.00154412)
(0.120971 -2.15032e-08 0.00156672)
(0.118955 -2.70466e-08 0.00159035)
(0.116909 -3.22358e-08 0.00161505)
(0.114832 -3.60202e-08 0.00164084)
(0.112723 -3.79581e-08 0.00166772)
(0.110581 -3.83464e-08 0.00169572)
(0.108405 -3.80875e-08 0.00172485)
(0.106193 -3.80952e-08 0.00175512)
(0.103943 -3.87005e-08 0.00178654)
(0.101656 -3.93097e-08 0.00181913)
(0.0993285 -3.8986e-08 0.00185289)
(0.0969604 -3.69492e-08 0.00188782)
(0.0945502 -3.35074e-08 0.00192392)
(0.0920966 -3.01609e-08 0.00196118)
(0.0895985 -2.87332e-08 0.00199958)
(0.0870548 -3.05416e-08 0.00203908)
(0.0844643 -3.51712e-08 0.00207968)
(0.081826 -4.05356e-08 0.00212132)
(0.0791391 -4.41639e-08 0.00216396)
(0.0764026 -4.45522e-08 0.00220753)
(0.0736158 -4.22679e-08 0.00225195)
(0.0707782 -3.92488e-08 0.00229712)
(0.0678892 -3.725e-08 0.00234294)
(0.0649486 -3.59745e-08 0.00238926)
(0.0619563 -3.34503e-08 0.00243594)
(0.0589126 -2.76938e-08 0.00248279)
(0.0558178 -1.89067e-08 0.00252957)
(0.0526727 -9.8455e-09 0.00257601)
(0.0494785 -3.28945e-09 0.0026218)
(0.0462367 3.12193e-10 0.00266659)
(0.0429494 3.47981e-09 0.00270996)
(0.0396194 9.01553e-09 0.00275142)
(0.0362498 1.65919e-08 0.00279037)
(0.0328448 2.3049e-08 0.00282612)
(0.0294093 2.61709e-08 0.00285786)
(0.0259493 2.79299e-08 0.00288466)
(0.0224721 3.20112e-08 0.00290543)
(0.0189861 3.84607e-08 0.00291882)
(0.0155017 4.21689e-08 0.00292322)
(0.012031 3.95267e-08 0.00291672)
(0.00858877 3.45164e-08 0.00289702)
(0.00519086 3.37093e-08 0.00286117)
(0.00186637 3.61763e-08 0.0028053)
(-0.00138147 3.38692e-08 0.00271586)
(-0.00448854 2.76481e-08 0.00258801)
(-0.00743865 2.77319e-08 0.00242473)
(-0.0101821 3.25671e-08 0.00222131)
(-0.0126675 2.78613e-08 0.00196811)
(-0.0148319 1.59295e-08 0.00165176)
(-0.0165971 1.76199e-08 0.00125804)
(-0.0178681 2.63385e-08 0.000767887)
(-0.0185314 1.15359e-08 0.000158282)
(-0.018446 -1.16578e-08 -0.000590433)
(-0.0174637 -1.20233e-08 -0.00149124)
(-0.0153987 -4.17893e-08 -0.00253684)
(-0.0123358 -9.37247e-08 -0.00364376)
(-0.00810768 -1.74029e-07 -0.00437848)
(-0.00284192 -2.08994e-07 -0.00352943)
(-0.000303779 -3.06714e-07 -0.000933053)
(-0.0143601 -5.79072e-07 0.0157458)
(-0.0239139 -2.52624e-07 0.0112453)
(-0.0326743 -2.69477e-07 0.00307238)
(-0.0310192 -2.41882e-07 -0.00307306)
(-0.0248098 -2.55407e-07 -0.00704073)
(-0.0151698 -2.76226e-07 -0.00947763)
(-0.00355891 -2.65163e-07 -0.0108857)
(0.00931699 -2.38573e-07 -0.0115089)
(0.0225045 -2.13332e-07 -0.0116054)
(0.0358699 -1.93055e-07 -0.0114473)
(0.049077 -1.81162e-07 -0.0111345)
(0.0619803 -1.72097e-07 -0.0107292)
(0.0744766 -1.55467e-07 -0.0102712)
(0.0865021 -1.34779e-07 -0.00978593)
(0.0980193 -1.17776e-07 -0.00929011)
(0.109008 -1.03488e-07 -0.00879476)
(0.119462 -8.92371e-08 -0.00830712)
(0.129382 -7.95249e-08 -0.00783186)
(0.138775 -7.95897e-08 -0.0073719)
(0.147652 -8.68464e-08 -0.00692899)
(0.156028 -9.35131e-08 -0.00650401)
(0.163918 -9.54777e-08 -0.00609731)
(0.17134 -9.44003e-08 -0.00570881)
(0.178311 -9.19028e-08 -0.00533819)
(0.184849 -8.62223e-08 -0.00498494)
(0.190971 -7.5109e-08 -0.00464846)
(0.196694 -6.02568e-08 -0.00432805)
(0.202035 -4.67525e-08 -0.00402302)
(0.207011 -3.87496e-08 -0.00373267)
(0.211637 -3.6195e-08 -0.00345629)
(0.215929 -3.63359e-08 -0.0031932)
(0.219902 -3.71126e-08 -0.00294275)
(0.223569 -3.91228e-08 -0.00270433)
(0.226944 -4.40228e-08 -0.00247735)
(0.230041 -5.17668e-08 -0.00226127)
(0.232872 -5.95298e-08 -0.00205558)
(0.235448 -6.33675e-08 -0.0018598)
(0.237783 -6.10755e-08 -0.00167349)
(0.239886 -5.38189e-08 -0.00149623)
(0.241769 -4.52487e-08 -0.00132765)
(0.243442 -3.88678e-08 -0.00116739)
(0.244915 -3.59552e-08 -0.00101512)
(0.246197 -3.5209e-08 -0.000870514)
(0.247299 -3.42229e-08 -0.000733275)
(0.248228 -3.15274e-08 -0.000603119)
(0.248995 -2.75564e-08 -0.000479773)
(0.249606 -2.42974e-08 -0.000362978)
(0.25007 -2.36007e-08 -0.000252487)
(0.250395 -2.59003e-08 -0.000148065)
(0.250589 -2.97875e-08 -4.94773e-05)
(0.250658 -3.28485e-08 4.37083e-05)
(0.25061 -3.30084e-08 0.000131573)
(0.250451 -2.96542e-08 0.00021407)
(0.250188 -2.37873e-08 0.000291533)
(0.249827 -1.72883e-08 0.000364241)
(0.249374 -1.19201e-08 0.000432422)
(0.248835 -8.41743e-09 0.000496283)
(0.248215 -6.33487e-09 0.000556017)
(0.247519 -4.44649e-09 0.000611815)
(0.246752 -1.66721e-09 0.000663863)
(0.245918 2.31135e-09 0.000712342)
(0.245023 6.68586e-09 0.000757427)
(0.244071 9.91058e-09 0.00079929)
(0.243065 1.03865e-08 0.000838097)
(0.24201 7.09701e-09 0.00087401)
(0.240909 1.60209e-10 0.000907188)
(0.239766 -9.17515e-09 0.000937787)
(0.238583 -1.89369e-08 0.000965958)
(0.237364 -2.70121e-08 0.000991848)
(0.236112 -3.18815e-08 0.0010156)
(0.234829 -3.29818e-08 0.00103734)
(0.233519 -3.08612e-08 0.00105721)
(0.232182 -2.69854e-08 0.00107531)
(0.230822 -2.3281e-08 0.00109178)
(0.229441 -2.15944e-08 0.00110671)
(0.228041 -2.32087e-08 0.00112022)
(0.226622 -2.86149e-08 0.00113239)
(0.225188 -3.74744e-08 0.00114333)
(0.223739 -4.87057e-08 0.00115313)
(0.222278 -6.0866e-08 0.00116188)
(0.220804 -7.24362e-08 0.00116967)
(0.219321 -8.22093e-08 0.00117657)
(0.217828 -8.92908e-08 0.00118266)
(0.216326 -9.34407e-08 0.00118802)
(0.214818 -9.47884e-08 0.0011927)
(0.213303 -9.38404e-08 0.00119679)
(0.211782 -9.12705e-08 0.00120033)
(0.210256 -8.78098e-08 0.00120338)
(0.208726 -8.40064e-08 0.001206)
(0.207192 -8.02715e-08 0.00120823)
(0.205655 -7.67612e-08 0.00121012)
(0.204114 -7.34565e-08 0.00121171)
(0.202571 -7.01366e-08 0.00121306)
(0.201026 -6.66454e-08 0.00121419)
(0.199478 -6.27963e-08 0.00121516)
(0.197929 -5.85018e-08 0.00121599)
(0.196378 -5.38341e-08 0.00121673)
(0.194826 -4.8957e-08 0.00121739)
(0.193272 -4.41257e-08 0.00121803)
(0.191716 -3.96712e-08 0.00121866)
(0.19016 -3.58564e-08 0.00121931)
(0.188601 -3.28487e-08 0.00122002)
(0.187041 -3.07509e-08 0.0012208)
(0.18548 -2.94679e-08 0.00122168)
(0.183917 -2.87788e-08 0.00122269)
(0.182352 -2.83486e-08 0.00122384)
(0.180785 -2.77356e-08 0.00122517)
(0.179215 -2.64906e-08 0.00122668)
(0.177643 -2.42748e-08 0.00122842)
(0.176069 -2.08521e-08 0.0012304)
(0.174491 -1.62759e-08 0.00123264)
(0.172909 -1.07173e-08 0.00123517)
(0.171324 -4.74378e-09 0.00123802)
(0.169735 9.93706e-10 0.0012412)
(0.16814 5.64994e-09 0.00124475)
(0.166541 8.49013e-09 0.00124869)
(0.164936 8.88988e-09 0.00125303)
(0.163325 6.57128e-09 0.00125781)
(0.161707 1.67519e-09 0.00126304)
(0.160082 -5.15116e-09 0.00126875)
(0.158449 -1.29331e-08 0.00127496)
(0.156808 -2.0361e-08 0.00128171)
(0.155157 -2.6129e-08 0.00128901)
(0.153497 -2.91291e-08 0.0012969)
(0.151826 -2.87141e-08 0.00130539)
(0.150145 -2.49297e-08 0.00131452)
(0.148451 -1.84498e-08 0.00132431)
(0.146744 -1.05765e-08 0.00133478)
(0.145023 -2.88206e-09 0.00134597)
(0.143288 3.09909e-09 0.00135788)
(0.141537 6.38853e-09 0.00137054)
(0.13977 6.5865e-09 0.00138398)
(0.137985 4.16891e-09 0.00139822)
(0.136182 2.17016e-10 0.00141328)
(0.13436 -4.01662e-09 0.0014292)
(0.132517 -7.46596e-09 0.001446)
(0.130653 -9.65131e-09 0.0014637)
(0.128766 -1.08201e-08 0.00148234)
(0.126856 -1.17757e-08 0.00150194)
(0.124921 -1.35309e-08 0.00152251)
(0.12296 -1.67594e-08 0.00154409)
(0.120971 -2.15032e-08 0.00156668)
(0.118955 -2.70465e-08 0.00159032)
(0.116909 -3.22358e-08 0.00161503)
(0.114832 -3.60201e-08 0.00164081)
(0.112723 -3.7958e-08 0.0016677)
(0.110581 -3.83464e-08 0.0016957)
(0.108405 -3.80875e-08 0.00172483)
(0.106193 -3.80951e-08 0.0017551)
(0.103943 -3.87004e-08 0.00178652)
(0.101656 -3.93096e-08 0.00181911)
(0.0993285 -3.8986e-08 0.00185288)
(0.0969604 -3.69491e-08 0.00188781)
(0.0945502 -3.35074e-08 0.00192391)
(0.0920966 -3.01608e-08 0.00196117)
(0.0895985 -2.87331e-08 0.00199957)
(0.0870548 -3.05415e-08 0.00203908)
(0.0844643 -3.51711e-08 0.00207968)
(0.081826 -4.05355e-08 0.00212133)
(0.0791391 -4.41638e-08 0.00216397)
(0.0764026 -4.45521e-08 0.00220755)
(0.0736158 -4.22678e-08 0.00225198)
(0.0707782 -3.92487e-08 0.00229716)
(0.0678892 -3.72499e-08 0.00234298)
(0.0649486 -3.59744e-08 0.00238931)
(0.0619564 -3.34503e-08 0.002436)
(0.0589126 -2.76937e-08 0.00248285)
(0.0558178 -1.89067e-08 0.00252963)
(0.0526727 -9.84548e-09 0.00257607)
(0.0494785 -3.28944e-09 0.00262186)
(0.0462367 3.12192e-10 0.00266666)
(0.0429495 3.4798e-09 0.00271003)
(0.0396195 9.0155e-09 0.00275148)
(0.0362499 1.65919e-08 0.00279042)
(0.0328449 2.30489e-08 0.00282616)
(0.0294094 2.61708e-08 0.0028579)
(0.0259494 2.79298e-08 0.00288471)
(0.0224722 3.20111e-08 0.00290548)
(0.0189862 3.84605e-08 0.00291884)
(0.0155018 4.21688e-08 0.00292322)
(0.0120311 3.95266e-08 0.00291672)
(0.00858885 3.45163e-08 0.00289703)
(0.00519096 3.37091e-08 0.00286117)
(0.00186645 3.61762e-08 0.00280528)
(-0.0013814 3.3869e-08 0.00271583)
(-0.00448844 2.7648e-08 0.002588)
(-0.00743853 2.77318e-08 0.00242474)
(-0.010182 3.2567e-08 0.00222129)
(-0.0126674 2.78612e-08 0.00196804)
(-0.0148318 1.59294e-08 0.0016517)
(-0.016597 1.76198e-08 0.00125798)
(-0.017868 2.63383e-08 0.000767843)
(-0.0185314 1.15359e-08 0.000158334)
(-0.0184459 -1.16577e-08 -0.000590411)
(-0.0174636 -1.20231e-08 -0.00149143)
(-0.0153986 -4.17869e-08 -0.00253709)
(-0.0123356 -9.37127e-08 -0.00364405)
(-0.00810739 -1.74043e-07 -0.00437862)
(-0.00284253 -2.08948e-07 -0.00352923)
(-0.000303601 -3.06523e-07 -0.000933939)
(-0.00909293 -3.75887e-08 0.0272709)
(-0.0107341 1.22641e-07 0.0146171)
(-0.00855988 9.31666e-08 0.00246019)
(-0.00359234 7.0233e-08 -0.00722857)
(0.00343452 5.00586e-08 -0.0138951)
(0.0120776 3.55538e-08 -0.0181794)
(0.021859 2.39066e-08 -0.020765)
(0.0323987 1.32952e-08 -0.0221348)
(0.0433631 9.87501e-09 -0.0226763)
(0.0545198 1.04488e-08 -0.0226945)
(0.0656701 1.09293e-08 -0.0223622)
(0.0766793 1.21209e-08 -0.0218008)
(0.0874486 1.39207e-08 -0.0210905)
(0.0979093 1.4704e-08 -0.0202865)
(0.108014 1.49762e-08 -0.0194268)
(0.117732 1.59993e-08 -0.0185382)
(0.127043 1.66684e-08 -0.0176394)
(0.135939 1.49417e-08 -0.0167438)
(0.144415 1.10344e-08 -0.0158606)
(0.152473 7.19273e-09 -0.0149961)
(0.160118 4.93686e-09 -0.0141548)
(0.167357 3.93455e-09 -0.0133395)
(0.1742 3.45289e-09 -0.0125518)
(0.180658 3.73841e-09 -0.0117927)
(0.186742 5.53353e-09 -0.0110626)
(0.192464 8.67453e-09 -0.0103613)
(0.197837 1.18079e-08 -0.00968832)
(0.202873 1.35212e-08 -0.0090432)
(0.207585 1.35535e-08 -0.00842513)
(0.211985 1.27007e-08 -0.0078333)
(0.216084 1.18012e-08 -0.00726684)
(0.219895 1.0915e-08 -0.00672485)
(0.22343 9.49486e-09 -0.00620645)
(0.226698 7.26282e-09 -0.00571078)
(0.229712 4.79092e-09 -0.00523699)
(0.232482 3.20994e-09 -0.00478427)
(0.235018 3.35746e-09 -0.00435185)
(0.237331 5.13545e-09 -0.003939)
(0.239428 7.55306e-09 -0.003545)
(0.241321 9.4624e-09 -0.0031692)
(0.243018 1.02714e-08 -0.00281096)
(0.244528 1.02091e-08 -0.00246968)
(0.245859 1.00011e-08 -0.00214476)
(0.247019 1.02357e-08 -0.00183564)
(0.248017 1.09415e-08 -0.00154179)
(0.248861 1.1642e-08 -0.00126268)
(0.249557 1.17296e-08 -0.000997793)
(0.250113 1.09486e-08 -0.000746635)
(0.250536 9.57938e-09 -0.000508714)
(0.250833 8.26539e-09 -0.000283548)
(0.251011 7.66812e-09 -7.06596e-05)
(0.251075 8.04883e-09 0.000130324)
(0.251031 9.2029e-09 0.000319793)
(0.250886 1.06135e-08 0.000498247)
(0.250646 1.17133e-08 0.00066616)
(0.250315 1.21992e-08 0.000823978)
(0.249899 1.21168e-08 0.000972136)
(0.249403 1.17932e-08 0.00111106)
(0.248832 1.15781e-08 0.00124115)
(0.24819 1.16633e-08 0.00136282)
(0.247482 1.1945e-08 0.00147647)
(0.246712 1.20782e-08 0.00158247)
(0.245884 1.16456e-08 0.00168122)
(0.245001 1.03635e-08 0.00177306)
(0.244068 8.22004e-09 0.00185838)
(0.243087 5.51118e-09 0.00193751)
(0.242062 2.74425e-09 0.00201079)
(0.240997 4.83217e-10 0.00207856)
(0.239893 -8.39332e-10 0.00214114)
(0.238754 -1.04065e-09 0.00219883)
(0.237582 -2.43987e-10 0.00225192)
(0.23638 1.18801e-09 0.00230071)
(0.23515 2.75754e-09 0.00234546)
(0.233893 3.98156e-09 0.00238643)
(0.232613 4.50219e-09 0.00242389)
(0.231312 4.2076e-09 0.00245805)
(0.229989 3.17631e-09 0.00248915)
(0.228648 1.69624e-09 0.00251742)
(0.227291 1.45257e-10 0.00254305)
(0.225917 -1.10019e-09 0.00256624)
(0.224529 -1.73696e-09 0.00258719)
(0.223128 -1.598e-09 0.00260607)
(0.221715 -6.64277e-10 0.00262305)
(0.220291 9.5665e-10 0.0026383)
(0.218857 3.07014e-09 0.00265196)
(0.217414 5.43157e-09 0.00266418)
(0.215962 7.80395e-09 0.00267509)
(0.214503 1.00026e-08 0.00268483)
(0.213037 1.18977e-08 0.00269351)
(0.211564 1.34434e-08 0.00270125)
(0.210086 1.46403e-08 0.00270815)
(0.208602 1.55431e-08 0.00271432)
(0.207113 1.62241e-08 0.00271986)
(0.205619 1.67462e-08 0.00272487)
(0.204121 1.71573e-08 0.00272942)
(0.202619 1.74795e-08 0.0027336)
(0.201113 1.77046e-08 0.0027375)
(0.199603 1.78141e-08 0.00274118)
(0.198089 1.7777e-08 0.00274473)
(0.196572 1.75814e-08 0.00274821)
(0.195052 1.7224e-08 0.00275168)
(0.193528 1.67262e-08 0.0027552)
(0.192 1.61313e-08 0.00275885)
(0.190469 1.55197e-08 0.00276267)
(0.188935 1.49605e-08 0.00276672)
(0.187396 1.45203e-08 0.00277106)
(0.185854 1.42605e-08 0.00277574)
(0.184308 1.42119e-08 0.00278081)
(0.182757 1.43614e-08 0.00278634)
(0.181202 1.4665e-08 0.00279236)
(0.179642 1.50367e-08 0.00279894)
(0.178077 1.5347e-08 0.00280613)
(0.176506 1.54583e-08 0.00281398)
(0.17493 1.52308e-08 0.00282254)
(0.173347 1.45522e-08 0.00283188)
(0.171758 1.33577e-08 0.00284203)
(0.170162 1.16616e-08 0.00285306)
(0.168558 9.55521e-09 0.00286502)
(0.166946 7.21662e-09 0.00287796)
(0.165325 4.88945e-09 0.00289194)
(0.163695 2.85733e-09 0.00290699)
(0.162056 1.37918e-09 0.00292318)
(0.160406 6.69126e-10 0.00294056)
(0.158745 8.18559e-10 0.00295918)
(0.157073 1.78274e-09 0.00297909)
(0.155388 3.37036e-09 0.00300034)
(0.15369 5.25874e-09 0.00302298)
(0.151978 7.06908e-09 0.00304707)
(0.150251 8.43683e-09 0.00307265)
(0.148509 9.10214e-09 0.00309978)
(0.14675 8.97175e-09 0.00312849)
(0.144975 8.12654e-09 0.00315885)
(0.143181 6.83589e-09 0.0031909)
(0.141368 5.42531e-09 0.00322468)
(0.139535 4.19843e-09 0.00326025)
(0.137682 3.33704e-09 0.00329766)
(0.135806 2.85257e-09 0.00333695)
(0.133908 2.61176e-09 0.00337815)
(0.131986 2.38523e-09 0.00342132)
(0.130038 1.99499e-09 0.00346649)
(0.128065 1.37346e-09 0.00351369)
(0.126065 6.49134e-10 0.00356297)
(0.124037 4.94947e-11 0.00361434)
(0.121979 -1.61807e-10 0.00366784)
(0.119892 1.46579e-10 0.00372348)
(0.117772 9.03267e-10 0.0037813)
(0.115621 1.86459e-09 0.0038413)
(0.113435 2.72979e-09 0.00390348)
(0.111215 3.32752e-09 0.00396786)
(0.108959 3.67684e-09 0.00403444)
(0.106667 4.01473e-09 0.00410319)
(0.104336 4.59438e-09 0.00417411)
(0.101967 5.49384e-09 0.00424716)
(0.099557 6.48848e-09 0.0043223)
(0.0971066 7.13761e-09 0.00439946)
(0.0946143 7.07098e-09 0.00447858)
(0.0920794 6.2391e-09 0.00455957)
(0.089501 5.03507e-09 0.00464231)
(0.0868784 4.10229e-09 0.00472667)
(0.0842112 3.94239e-09 0.00481249)
(0.0814987 4.57058e-09 0.00489958)
(0.0787407 5.49479e-09 0.00498771)
(0.0759369 6.13536e-09 0.00507662)
(0.0730873 6.27147e-09 0.00516602)
(0.070192 6.27432e-09 0.00525554)
(0.0672515 6.74737e-09 0.00534478)
(0.0642665 7.91809e-09 0.00543327)
(0.0612377 9.32677e-09 0.00552048)
(0.0581665 1.01472e-08 0.00560577)
(0.0550545 9.96639e-09 0.00568843)
(0.0519039 9.21636e-09 0.00576765)
(0.048717 8.74998e-09 0.00584247)
(0.0454971 8.91274e-09 0.00591183)
(0.0422477 9.16401e-09 0.00597446)
(0.0389733 8.70715e-09 0.00602892)
(0.0356792 7.59639e-09 0.00607354)
(0.0323714 6.75499e-09 0.00610638)
(0.0290571 6.65505e-09 0.00612522)
(0.0257448 6.45136e-09 0.00612739)
(0.022444 4.92276e-09 0.00610981)
(0.0191663 2.38238e-09 0.0060688)
(0.0159249 4.93037e-10 0.00599997)
(0.0127349 -2.09398e-10 0.00589773)
(0.00961513 -1.18215e-09 0.00575594)
(0.00658454 -2.97726e-09 0.00556335)
(0.00366843 -3.44936e-09 0.00531075)
(0.000892688 -1.69993e-09 0.00499113)
(-0.0017113 -9.67038e-10 0.00459129)
(-0.00410306 -3.39415e-09 0.00409636)
(-0.00624344 -6.42471e-09 0.0034871)
(-0.00808527 -8.54154e-09 0.00274065)
(-0.00957737 -7.22614e-09 0.00182987)
(-0.0106648 1.92837e-09 0.000725875)
(-0.0112934 4.54394e-09 -0.000593335)
(-0.0114091 -1.56097e-09 -0.00213036)
(-0.0109666 1.11533e-08 -0.00383782)
(-0.00997361 2.22196e-08 -0.00557192)
(-0.00842922 1.27137e-08 -0.00681775)
(-0.00584045 -1.12542e-08 -0.00645064)
(-0.00355081 5.90899e-08 -0.00353987)
(-0.00909326 -3.75879e-08 0.0272708)
(-0.0107341 1.22638e-07 0.0146172)
(-0.00855964 9.3162e-08 0.00246009)
(-0.0035921 7.02295e-08 -0.00722869)
(0.00343474 5.00563e-08 -0.0138952)
(0.0120777 3.55523e-08 -0.0181795)
(0.0218592 2.39057e-08 -0.0207651)
(0.0323988 1.32947e-08 -0.0221349)
(0.0433631 9.87469e-09 -0.0226764)
(0.0545198 1.04485e-08 -0.0226946)
(0.06567 1.0929e-08 -0.0223623)
(0.0766792 1.21206e-08 -0.0218009)
(0.0874485 1.39204e-08 -0.0210906)
(0.0979091 1.47037e-08 -0.0202865)
(0.108014 1.49758e-08 -0.0194268)
(0.117731 1.5999e-08 -0.0185382)
(0.127043 1.6668e-08 -0.0176395)
(0.135939 1.49414e-08 -0.0167438)
(0.144415 1.10342e-08 -0.0158606)
(0.152473 7.19261e-09 -0.0149961)
(0.160117 4.93678e-09 -0.0141548)
(0.167357 3.93448e-09 -0.0133395)
(0.1742 3.45284e-09 -0.0125518)
(0.180658 3.73836e-09 -0.0117928)
(0.186742 5.53345e-09 -0.0110626)
(0.192464 8.67442e-09 -0.0103613)
(0.197837 1.18078e-08 -0.00968833)
(0.202873 1.3521e-08 -0.00904321)
(0.207585 1.35534e-08 -0.00842514)
(0.211984 1.27005e-08 -0.00783332)
(0.216084 1.1801e-08 -0.00726685)
(0.219895 1.09149e-08 -0.00672486)
(0.223429 9.49477e-09 -0.00620646)
(0.226698 7.26275e-09 -0.00571079)
(0.229712 4.79088e-09 -0.00523699)
(0.232482 3.20991e-09 -0.00478427)
(0.235018 3.35743e-09 -0.00435185)
(0.23733 5.13541e-09 -0.003939)
(0.239428 7.553e-09 -0.003545)
(0.241321 9.46233e-09 -0.0031692)
(0.243018 1.02714e-08 -0.00281096)
(0.244527 1.0209e-08 -0.00246968)
(0.245858 1.0001e-08 -0.00214475)
(0.247019 1.02356e-08 -0.00183564)
(0.248017 1.09414e-08 -0.00154179)
(0.248861 1.16419e-08 -0.00126268)
(0.249557 1.17295e-08 -0.000997793)
(0.250113 1.09485e-08 -0.000746635)
(0.250536 9.57933e-09 -0.000508714)
(0.250833 8.26534e-09 -0.000283547)
(0.25101 7.66807e-09 -7.06578e-05)
(0.251074 8.04879e-09 0.000130326)
(0.251031 9.20285e-09 0.000319795)
(0.250886 1.06134e-08 0.000498248)
(0.250646 1.17132e-08 0.00066616)
(0.250315 1.21991e-08 0.000823977)
(0.249899 1.21168e-08 0.000972134)
(0.249403 1.17932e-08 0.00111105)
(0.248832 1.1578e-08 0.00124114)
(0.24819 1.16632e-08 0.00136282)
(0.247482 1.19449e-08 0.00147646)
(0.246712 1.20782e-08 0.00158246)
(0.245884 1.16456e-08 0.00168121)
(0.245001 1.03635e-08 0.00177306)
(0.244068 8.22001e-09 0.00185837)
(0.243087 5.51116e-09 0.0019375)
(0.242062 2.74424e-09 0.00201078)
(0.240996 4.83215e-10 0.00207856)
(0.239893 -8.39329e-10 0.00214113)
(0.238754 -1.04064e-09 0.00219882)
(0.237582 -2.43986e-10 0.00225191)
(0.23638 1.188e-09 0.0023007)
(0.235149 2.75753e-09 0.00234545)
(0.233893 3.98154e-09 0.00238643)
(0.232613 4.50218e-09 0.00242388)
(0.231311 4.20759e-09 0.00245804)
(0.229989 3.1763e-09 0.00248914)
(0.228648 1.69623e-09 0.00251741)
(0.22729 1.45257e-10 0.00254304)
(0.225917 -1.10019e-09 0.00256623)
(0.224529 -1.73695e-09 0.00258718)
(0.223128 -1.59799e-09 0.00260607)
(0.221715 -6.64275e-10 0.00262305)
(0.220291 9.56647e-10 0.0026383)
(0.218857 3.07013e-09 0.00265196)
(0.217414 5.43156e-09 0.00266418)
(0.215962 7.80393e-09 0.00267509)
(0.214503 1.00026e-08 0.00268483)
(0.213037 1.18976e-08 0.00269351)
(0.211564 1.34434e-08 0.00270125)
(0.210086 1.46403e-08 0.00270815)
(0.208602 1.5543e-08 0.00271433)
(0.207113 1.62241e-08 0.00271987)
(0.205619 1.67461e-08 0.00272487)
(0.204121 1.71573e-08 0.00272942)
(0.202619 1.74795e-08 0.00273361)
(0.201113 1.77046e-08 0.00273751)
(0.199603 1.7814e-08 0.0027412)
(0.198089 1.77769e-08 0.00274474)
(0.196572 1.75813e-08 0.00274822)
(0.195052 1.72239e-08 0.00275169)
(0.193528 1.67261e-08 0.00275522)
(0.192 1.61312e-08 0.00275886)
(0.190469 1.55197e-08 0.00276268)
(0.188935 1.49605e-08 0.00276673)
(0.187396 1.45203e-08 0.00277107)
(0.185854 1.42604e-08 0.00277575)
(0.184308 1.42119e-08 0.00278082)
(0.182757 1.43613e-08 0.00278634)
(0.181202 1.4665e-08 0.00279236)
(0.179642 1.50366e-08 0.00279894)
(0.178077 1.53469e-08 0.00280613)
(0.176506 1.54583e-08 0.00281398)
(0.17493 1.52308e-08 0.00282254)
(0.173347 1.45522e-08 0.00283187)
(0.171758 1.33576e-08 0.00284203)
(0.170161 1.16615e-08 0.00285306)
(0.168558 9.55518e-09 0.00286502)
(0.166946 7.2166e-09 0.00287796)
(0.165325 4.88943e-09 0.00289193)
(0.163695 2.85733e-09 0.00290699)
(0.162056 1.37917e-09 0.00292318)
(0.160406 6.69124e-10 0.00294056)
(0.158745 8.18557e-10 0.00295918)
(0.157073 1.78274e-09 0.00297909)
(0.155388 3.37035e-09 0.00300034)
(0.15369 5.25873e-09 0.00302298)
(0.151978 7.06906e-09 0.00304707)
(0.150251 8.43681e-09 0.00307265)
(0.148509 9.10212e-09 0.00309977)
(0.14675 8.97172e-09 0.00312848)
(0.144975 8.12652e-09 0.00315884)
(0.143181 6.83587e-09 0.00319088)
(0.141368 5.42529e-09 0.00322467)
(0.139535 4.19842e-09 0.00326024)
(0.137682 3.33703e-09 0.00329764)
(0.135806 2.85256e-09 0.00333693)
(0.133908 2.61176e-09 0.00337814)
(0.131986 2.38523e-09 0.0034213)
(0.130038 1.99499e-09 0.00346647)
(0.128065 1.37346e-09 0.00351368)
(0.126065 6.49132e-10 0.00356295)
(0.124037 4.94946e-11 0.00361433)
(0.121979 -1.61806e-10 0.00366782)
(0.119892 1.46579e-10 0.00372347)
(0.117772 9.03264e-10 0.00378129)
(0.115621 1.86459e-09 0.00384128)
(0.113435 2.72978e-09 0.00390347)
(0.111215 3.32751e-09 0.00396785)
(0.108959 3.67682e-09 0.00403442)
(0.106667 4.01472e-09 0.00410318)
(0.104336 4.59436e-09 0.0041741)
(0.101967 5.49382e-09 0.00424715)
(0.099557 6.48846e-09 0.00432229)
(0.0971066 7.13759e-09 0.00439945)
(0.0946143 7.07096e-09 0.00447857)
(0.0920794 6.23908e-09 0.00455956)
(0.089501 5.03505e-09 0.0046423)
(0.0868784 4.10228e-09 0.00472666)
(0.0842112 3.94238e-09 0.00481248)
(0.0814987 4.57057e-09 0.00489957)
(0.0787407 5.49477e-09 0.00498771)
(0.0759369 6.13534e-09 0.00507662)
(0.0730873 6.27144e-09 0.00516602)
(0.070192 6.2743e-09 0.00525554)
(0.0672516 6.74735e-09 0.00534478)
(0.0642665 7.91807e-09 0.00543328)
(0.0612377 9.32674e-09 0.00552049)
(0.0581665 1.01472e-08 0.00560577)
(0.0550546 9.96635e-09 0.00568843)
(0.0519039 9.21633e-09 0.00576765)
(0.048717 8.74994e-09 0.00584248)
(0.0454971 8.9127e-09 0.00591184)
(0.0422477 9.16398e-09 0.00597446)
(0.0389733 8.70711e-09 0.00602892)
(0.0356792 7.59636e-09 0.00607354)
(0.0323714 6.75496e-09 0.00610639)
(0.0290572 6.65502e-09 0.00612522)
(0.0257448 6.45133e-09 0.00612739)
(0.022444 4.92273e-09 0.00610981)
(0.0191663 2.38237e-09 0.00606879)
(0.0159249 4.93035e-10 0.00599997)
(0.0127349 -2.09397e-10 0.00589773)
(0.00961515 -1.18214e-09 0.00575593)
(0.00658456 -2.97724e-09 0.00556334)
(0.00366847 -3.44934e-09 0.00531075)
(0.000892723 -1.69992e-09 0.00499113)
(-0.00171129 -9.67033e-10 0.00459129)
(-0.00410305 -3.39413e-09 0.00409635)
(-0.00624342 -6.42468e-09 0.00348709)
(-0.00808523 -8.54149e-09 0.00274064)
(-0.00957733 -7.2261e-09 0.00182986)
(-0.0106648 1.92836e-09 0.000725889)
(-0.0112934 4.54391e-09 -0.000593326)
(-0.0114091 -1.56095e-09 -0.00213039)
(-0.0109665 1.11533e-08 -0.00383785)
(-0.00997356 2.22222e-08 -0.00557196)
(-0.00842915 1.27186e-08 -0.00681768)
(-0.0058403 -1.12541e-08 -0.00645028)
(-0.00355099 5.90561e-08 -0.00354019)
(-0.00117673 1.55404e-07 0.0346234)
(0.00116133 6.57004e-08 0.011402)
(0.00696281 4.15107e-08 -0.00407298)
(0.0136568 3.75037e-08 -0.0151146)
(0.0210809 3.72734e-08 -0.0228421)
(0.0291796 3.51665e-08 -0.0280308)
(0.037864 3.07858e-08 -0.0313148)
(0.0470048 2.64737e-08 -0.0331906)
(0.0564624 2.36951e-08 -0.0340499)
(0.0660952 2.20021e-08 -0.0341956)
(0.0757711 2.12567e-08 -0.0338398)
(0.0853849 2.122e-08 -0.0331355)
(0.0948525 2.106e-08 -0.032192)
(0.10411 2.0555e-08 -0.0310883)
(0.113108 2.01975e-08 -0.0298812)
(0.121813 1.98586e-08 -0.0286121)
(0.1302 1.86945e-08 -0.0273113)
(0.138253 1.63296e-08 -0.0260009)
(0.145963 1.3387e-08 -0.0246967)
(0.153324 1.07732e-08 -0.0234103)
(0.160338 8.84906e-09 -0.02215)
(0.167004 7.47316e-09 -0.0209214)
(0.173329 6.5689e-09 -0.0197284)
(0.179319 6.37899e-09 -0.0185734)
(0.184981 7.07096e-09 -0.0174579)
(0.190324 8.29308e-09 -0.0163825)
(0.195355 9.29248e-09 -0.0153472)
(0.200086 9.52947e-09 -0.0143517)
(0.204526 9.07068e-09 -0.0133954)
(0.208684 8.36631e-09 -0.0124773)
(0.212569 7.67623e-09 -0.0115966)
(0.216193 6.84194e-09 -0.0107521)
(0.219564 5.58077e-09 -0.00994278)
(0.222692 3.92649e-09 -0.0091675)
(0.225586 2.38215e-09 -0.00842516)
(0.228255 1.57976e-09 -0.00771469)
(0.230708 1.79677e-09 -0.00703502)
(0.232954 2.77e-09 -0.00638516)
(0.235001 3.89362e-09 -0.00576411)