/*--------------------------------*- C++ -*----------------------------------*\
  =========                 |
  \\      /  F ield         | OpenFOAM: The Open Source CFD Toolbox
   \\    /   O peration     | Website:  https://openfoam.org
    \\  /    A nd           | Version:  8
     \\/     M anipulation  |
\*---------------------------------------------------------------------------*/
FoamFile
{
    version     2.0;
    format      ascii;
    class       volScalarField;
    location    "2600";
    object      epsilon;
}
// * * * * * * * * * * * * * * * * * * * * * * * * * * * * * * * * * * * * * //

dimensions      [0 2 -3 0 0 0 0];

internalField   nonuniform List<scalar> 
48000
(
0.740025
3.44315
6.49253
9.71216
13.0813
16.4503
19.7963
23.1655
26.5895
30.0099
33.4449
36.8901
40.342
43.7971
47.2512
50.6999
54.1382
57.561
60.9628
64.338
67.6809
70.9861
74.2477
77.4604
80.6189
83.718
86.7531
89.7196
92.6133
95.4305
98.1675
100.821
103.39
105.869
108.259
110.557
112.762
114.874
116.891
118.813
120.641
122.374
124.014
125.56
127.013
128.379
129.67
130.876
131.994
133.028
133.978
134.847
135.638
136.352
136.992
137.56
138.059
138.49
138.856
139.159
139.401
139.585
139.713
139.787
139.808
139.78
139.703
139.58
139.412
139.202
138.951
138.66
138.332
137.968
137.569
137.137
136.674
136.179
135.656
135.104
134.526
133.922
133.293
132.64
131.965
131.268
130.549
129.811
129.053
128.276
127.481
126.668
125.839
124.994
124.133
123.256
122.365
121.46
120.54
119.607
118.661
117.702
116.731
115.747
114.751
113.744
112.724
111.694
110.652
109.6
108.536
107.462
106.378
105.283
104.178
103.062
101.937
100.802
99.6565
98.5017
97.3373
96.1634
94.9802
93.7877
92.586
91.3754
90.1558
88.9275
87.6906
86.4453
85.1918
83.9302
82.6608
81.3837
80.0992
78.8075
77.509
76.2038
74.8924
73.5749
72.2518
70.9234
69.5901
68.2523
66.9104
65.5648
64.216
62.8645
61.5107
60.1552
58.7985
57.4411
56.0835
54.7265
53.3704
52.016
50.6638
49.3144
47.9684
46.6265
45.2893
43.9574
42.6314
41.3119
39.9996
38.695
37.3987
36.1113
34.8333
33.5652
32.3077
31.061
29.8257
28.6022
27.3909
26.192
25.0059
23.8327
22.6728
21.5262
20.3932
19.2746
18.1715
17.091
16.0247
14.9677
13.9198
12.8795
11.8453
10.8156
9.78803
8.75982
7.73304
6.70878
5.67334
4.61925
3.53802
2.4271
1.34761
0.729251
0.740129
3.44328
6.49268
9.71238
13.0816
16.4506
19.7966
23.1658
26.5898
30.0103
33.4452
36.8904
40.3424
43.7974
47.2516
50.7002
54.1385
57.5613
60.963
64.3382
67.6812
70.9863
74.248
77.4606
80.6191
83.7183
86.7533
89.7198
92.6135
95.4306
98.1677
100.822
103.39
105.87
108.259
110.557
112.763
114.874
116.891
118.813
120.641
122.374
124.014
125.56
127.013
128.379
129.67
130.876
131.994
133.028
133.978
134.847
135.638
136.352
136.992
137.56
138.059
138.49
138.856
139.159
139.401
139.585
139.713
139.787
139.808
139.78
139.703
139.58
139.412
139.202
138.951
138.66
138.332
137.968
137.569
137.137
136.674
136.179
135.656
135.104
134.526
133.922
133.293
132.64
131.965
131.268
130.549
129.811
129.053
128.276
127.481
126.668
125.839
124.994
124.133
123.256
122.365
121.46
120.54
119.607
118.661
117.702
116.731
115.747
114.751
113.743
112.724
111.694
110.652
109.6
108.536
107.462
106.378
105.283
104.178
103.062
101.937
100.802
99.6565
98.5017
97.3373
96.1634
94.9801
93.7876
92.586
91.3753
90.1558
88.9275
87.6906
86.4453
85.1918
83.9302
82.6607
81.3836
80.0991
78.8075
77.5089
76.2038
74.8923
73.5749
72.2518
70.9234
69.5901
68.2523
66.9104
65.5648
64.216
62.8645
61.5107
60.1552
58.7985
57.441
56.0835
54.7264
53.3704
52.0159
50.6637
49.3143
47.9684
46.6265
45.2893
43.9574
42.6314
41.3119
39.9996
38.695
37.3987
36.1113
34.8333
33.5652
32.3076
31.061
29.8257
28.6022
27.3909
26.192
25.0059
23.8327
22.6728
21.5262
20.3932
19.2746
18.1715
17.091
16.0247
14.9677
13.9198
12.8795
11.8453
10.8156
9.78803
8.75983
7.73304
6.70878
5.67332
4.61913
3.53761
2.42619
1.34761
0.728626
4.05191
3.47679
4.4643
5.67879
7.00057
8.37493
9.76775
11.182
12.6194
14.0741
15.5457
17.0327
18.5336
20.0465
21.569
23.0988
24.6331
26.169
27.7033
29.2329
30.7544
32.2646
33.7601
35.2377
36.6942
38.1266
39.532
40.9077
42.2511
43.56
44.8323
46.0661
47.2597
48.4118
49.5211
50.5866
51.6076
52.5835
53.5139
54.3987
55.2378
56.0313
56.7795
57.4829
58.1424
58.7602
59.3389
59.8766
60.3734
60.8296
61.2461
61.6238
61.964
62.2675
62.5357
62.7696
62.9704
63.1393
63.2774
63.3859
63.4658
63.5183
63.5445
63.5454
63.522
63.4754
63.4066
63.3164
63.2059
63.0759
62.9273
62.7608
62.5774
62.3777
62.1625
61.9325
61.6883
61.4307
61.1602
60.8775
60.583
60.2773
59.961
59.6345
59.2982
58.9526
58.5981
58.2351
57.8639
57.485
57.0985
56.7049
56.3043
55.8972
55.4836
55.0639
54.6383
54.2069
53.7701
53.3278
52.8804
52.4279
51.9705
51.5083
51.0415
50.5701
50.0942
49.614
49.1295
48.6408
48.148
47.6512
47.1503
46.6455
46.1368
45.6243
45.108
44.5879
44.0642
43.5368
43.0058
42.4712
41.9331
41.3916
40.8466
40.2983
39.7466
39.1917
38.6337
38.0725
37.5082
36.941
36.3709
35.7981
35.2225
34.6444
34.0638
33.4809
32.8957
32.3085
31.7194
31.1284
30.5359
29.9419
29.3467
28.7504
28.1532
27.5553
26.957
26.3585
25.7599
25.1616
24.5637
23.9666
23.3704
22.7755
22.1821
21.5904
21.0007
20.4133
19.8284
19.2464
18.6675
18.0919
17.5199
16.9518
16.3879
15.8283
15.2732
14.723
14.1778
13.6379
13.1033
12.5744
12.0511
11.5338
11.0224
10.5171
10.0179
9.52497
9.03837
8.5583
8.085
7.61895
7.15904
6.70393
6.25442
5.80976
5.36947
4.93319
4.5006
4.07171
3.64777
3.22911
2.81423
2.40438
2.00622
1.64352
1.41157
2.3254
4.05213
3.47678
4.46427
5.67869
7.00044
8.37478
9.76759
11.1818
12.6192
14.0739
15.5455
17.0325
18.5334
20.0462
21.5688
23.0985
24.6328
26.1687
27.703
29.2326
30.7542
32.2643
33.7598
35.2374
36.6939
38.1263
39.5317
40.9074
42.2508
43.5597
44.832
46.0658
47.2594
48.4115
49.5207
50.5863
51.6073
52.5832
53.5136
54.3984
55.2375
56.031
56.7792
57.4826
58.1421
58.7599
59.3385
59.8763
60.3731
60.8293
61.2457
61.6235
61.9636
62.2672
62.5354
62.7693
62.9701
63.139
63.2771
63.3856
63.4655
63.518
63.5442
63.5451
63.5217
63.4751
63.4063
63.3161
63.2056
63.0756
62.927
62.7605
62.5771
62.3774
62.1622
61.9322
61.688
61.4304
61.1599
60.8772
60.5827
60.277
59.9607
59.6342
59.2979
58.9523
58.5978
58.2348
57.8636
57.4847
57.0982
56.7046
56.304
55.8969
55.4833
55.0636
54.638
54.2067
53.7698
53.3276
52.8801
52.4276
51.9702
51.508
51.0412
50.5698
50.094
49.6138
49.1293
48.6406
48.1478
47.6509
47.1501
46.6453
46.1366
45.6241
45.1078
44.5877
44.064
43.5366
43.0056
42.471
41.9329
41.3914
40.8464
40.2981
39.7464
39.1915
38.6335
38.0723
37.508
36.9408
36.3708
35.7979
35.2223
34.6442
34.0636
33.4807
32.8956
32.3083
31.7192
31.1283
30.5357
29.9417
29.3465
28.7502
28.153
27.5552
26.9569
26.3583
25.7598
25.1615
24.5636
23.9665
23.3703
22.7754
22.1819
21.5902
21.0005
20.4132
19.8283
19.2463
18.6674
18.0918
17.5198
16.9517
16.3878
15.8282
15.2731
14.7229
14.1778
13.6378
13.1033
12.5743
12.0511
11.5337
11.0223
10.517
10.0178
9.52491
9.03831
8.55824
8.08495
7.6189
7.15899
6.70389
6.25437
5.80972
5.36943
4.93316
4.50057
4.07168
3.64774
3.22909
2.81419
2.4043
2.0061
1.64373
1.41158
2.32479
7.43754
4.66443
4.97863
5.71488
6.60222
7.56755
8.57916
9.62397
10.6952
11.7881
12.8994
14.0268
15.1684
16.3221
17.4859
18.6577
19.8351
21.0158
22.1971
23.3766
24.5513
25.7187
26.876
28.0205
29.1494
30.2603
31.3507
32.4183
33.461
34.4768
35.4638
36.4204
37.3453
38.2372
39.0949
39.9178
40.7051
41.4562
42.1709
42.849
43.4904
44.0953
44.6639
45.1966
45.6942
46.1576
46.588
46.9855
47.3503
47.6828
47.9839
48.2543
48.4948
48.7063
48.8898
49.0462
49.1765
49.2815
49.3624
49.4199
49.455
49.4686
49.4617
49.435
49.3895
49.3259
49.2451
49.1479
49.0349
48.907
48.7648
48.609
48.4402
48.2591
48.0663
47.8624
47.6478
47.4231
47.1889
46.9455
46.6935
46.4332
46.1651
45.8896
45.607
45.3176
45.0219
44.72
44.4123
44.0991
43.7807
43.4571
43.1288
42.7958
42.4585
42.1169
41.7712
41.4217
41.0684
40.7115
40.3511
39.9873
39.6203
39.2501
38.8768
38.5006
38.1214
37.7394
37.3546
36.9671
36.5769
36.1841
35.7888
35.3909
34.9905
34.5877
34.1824
33.7748
33.3648
32.9526
32.538
32.1212
31.7022
31.281
30.8576
30.4322
30.0047
29.5752
29.1437
28.7103
28.275
27.838
27.3992
26.9587
26.5167
26.0731
25.6281
25.1818
24.7342
24.2855
23.8358
23.3851
22.9337
22.4817
22.0291
21.5761
21.1229
20.6696
20.2165
19.7635
19.311
18.8591
18.408
17.9579
17.5089
17.0613
16.6152
16.1708
15.7284
15.2882
14.8503
14.4149
13.9823
13.5526
13.1261
12.7029
12.2832
11.8672
11.455
11.0469
10.643
10.2434
9.84824
9.45773
9.07193
8.69096
8.31492
7.94388
7.57794
7.21715
6.86161
6.5114
6.16662
5.8273
5.49322
5.16413
4.84006
4.52085
4.20665
3.89769
3.59416
3.29667
3.0063
2.7247
2.45388
2.19885
1.97155
1.80415
1.80863
2.9564
7.43775
4.66441
4.97852
5.71473
6.60204
7.56735
8.57895
9.62376
10.695
11.7878
12.8991
14.0266
15.1682
16.3219
17.4857
18.6574
19.8348
21.0155
22.1969
23.3763
24.5511
25.7185
26.8758
28.0202
29.1492
30.2601
31.3505
32.4181
33.4608
34.4765
35.4635
36.4202
37.3451
38.2369
39.0947
39.9176
40.7049
41.456
42.1707
42.8488
43.4902
44.0951
44.6637
45.1964
45.694
46.1574
46.5879
46.9853
47.3501
47.6827
47.9837
48.2541
48.4946
48.7061
48.8896
49.0461
49.1763
49.2814
49.3622
49.4197
49.4549
49.4685
49.4615
49.4349
49.3894
49.3258
49.245
49.1477
49.0348
48.9068
48.7646
48.6088
48.4401
48.259
48.0662
47.8622
47.6477
47.423
47.1888
46.9454
46.6934
46.4331
46.165
45.8895
45.6069
45.3175
45.0218
44.7199
44.4122
44.099
43.7805
43.457
43.1287
42.7957
42.4584
42.1168
41.7711
41.4216
41.0683
40.7114
40.351
39.9872
39.6202
39.25
38.8767
38.5005
38.1213
37.7393
37.3545
36.967
36.5768
36.184
35.7887
35.3908
34.9904
34.5876
34.1823
33.7747
33.3648
32.9525
32.5379
32.1211
31.7021
31.2809
30.8576
30.4321
30.0046
29.5751
29.1436
28.7102
28.275
27.8379
27.3991
26.9587
26.5166
26.073
25.628
25.1817
24.7341
24.2854
23.8357
23.3851
22.9337
22.4816
22.029
21.576
21.1229
20.6696
20.2164
19.7635
19.311
18.8591
18.408
17.9578
17.5089
17.0612
16.6151
16.1708
15.7284
15.2881
14.8502
14.4149
13.9823
13.5526
13.1261
12.7028
12.2831
11.8671
11.455
11.0469
10.6429
10.2433
9.84822
9.4577
9.07191
8.69094
8.3149
7.94386
7.57792
7.21713
6.86159
6.51139
6.1666
5.82729
5.49321
5.16412
4.84004
4.52084
4.20664
3.89768
3.59415
3.29666
3.0063
2.72469
2.45387
2.19882
1.97148
1.8042
1.80866
2.95756
10.8562
6.10545
5.92021
6.37669
7.0551
7.84464
8.70061
9.60113
10.534
11.4915
12.4687
13.462
14.4685
15.4858
16.5119
17.5447
18.5819
19.6215
20.6612
21.6988
22.7319
23.7581
24.7751
25.7805
26.772
27.7473
28.7044
29.6411
30.5555
31.4458
32.3105
33.1481
33.9572
34.7367
35.4858
36.2035
36.8893
37.5427
38.1634
38.7512
39.306
39.8281
40.3176
40.7749
41.2006
41.5952
41.9597
42.2942
42.5995
42.8759
43.1241
43.3449
43.5391
43.7074
43.8507
43.9698
44.0657
44.1391
44.1909
44.222
44.2332
44.2254
44.1993
44.1558
44.0956
44.0195
43.9282
43.8224
43.7029
43.5702
43.425
43.268
43.0996
42.9206
42.7314
42.5325
42.3244
42.1077
41.8827
41.6499
41.4098
41.1626
40.9087
40.6486
40.3825
40.1108
39.8337
39.5515
39.2644
38.9728
38.6769
38.3768
38.0728
37.765
37.4537
37.139
36.821
36.4999
36.1758
35.8489
35.5192
35.1869
34.852
34.5147
34.175
33.8329
33.4887
33.1423
32.7937
32.4431
32.0904
31.7358
31.3793
31.0208
30.6605
30.2984
29.9344
29.5687
29.2013
28.8321
28.4613
28.0888
27.7146
27.3389
26.9617
26.5829
26.2026
25.8208
25.4377
25.0531
24.6673
24.2802
23.8919
23.5025
23.1119
22.7204
22.3279
21.9346
21.5405
21.1457
20.7503
20.3544
19.9582
19.5617
19.1651
18.7684
18.3718
17.9755
17.5796
17.1841
16.7894
16.3955
16.0025
15.6107
15.2202
14.8311
14.4437
14.0581
13.6745
13.293
12.9139
12.5372
12.1632
11.7921
11.4239
11.0589
10.6972
10.339
9.98441
9.63358
9.28666
8.94378
8.60505
8.2706
7.94054
7.61497
7.29398
6.97767
6.66612
6.35942
6.05767
5.76095
5.46935
5.18293
4.90172
4.62575
4.35513
4.09003
3.83077
3.57779
3.33172
3.09379
2.8656
2.64975
2.45058
2.27632
2.14486
2.10346
2.33228
4.40807
10.8565
6.10538
5.92006
6.37651
7.0549
7.84442
8.70039
9.6009
10.5338
11.4913
12.4685
13.4617
14.4682
15.4856
16.5117
17.5444
18.5816
19.6212
20.661
21.6985
22.7316
23.7579
24.7749
25.7803
26.7718
27.7471
28.7042
29.6409
30.5553
31.4456
32.3103
33.1479
33.957
34.7366
35.4856
36.2033
36.8891
37.5425
38.1632
38.751
39.3059
39.828
40.3175
40.7748
41.2005
41.5951
41.9595
42.2941
42.5994
42.8758
43.124
43.3448
43.539
43.7073
43.8506
43.9697
44.0656
44.139
44.1908
44.2219
44.2331
44.2253
44.1992
44.1557
44.0955
44.0194
43.9281
43.8224
43.7028
43.5701
43.425
43.2679
43.0996
42.9205
42.7313
42.5324
42.3244
42.1076
41.8827
41.6499
41.4097
41.1625
40.9087
40.6486
40.3825
40.1107
39.8336
39.5514
39.2644
38.9728
38.6768
38.3768
38.0727
37.765
37.4537
37.1389
36.8209
36.4998
36.1758
35.8488
35.5192
35.1868
34.852
34.5146
34.1749
33.8329
33.4886
33.1422
32.7937
32.4431
32.0904
31.7358
31.3792
31.0208
30.6605
30.2983
29.9344
29.5687
29.2012
28.8321
28.4612
28.0887
27.7146
27.3389
26.9616
26.5828
26.2025
25.8208
25.4376
25.0531
24.6673
24.2802
23.8919
23.5024
23.1119
22.7204
22.3279
21.9345
21.5404
21.1456
20.7503
20.3544
19.9582
19.5617
19.165
18.7684
18.3718
17.9755
17.5795
17.1841
16.7894
16.3954
16.0025
15.6107
15.2202
14.8311
14.4437
14.0581
13.6745
13.293
12.9139
12.5372
12.1632
11.7921
11.4239
11.0589
10.6972
10.339
9.9844
9.63358
9.28665
8.94377
8.60505
8.2706
7.94053
7.61496
7.29397
6.97766
6.66612
6.35942
6.05767
5.76095
5.46935
5.18293
4.90172
4.62574
4.35512
4.09003
3.83077
3.57779
3.33171
3.09379
2.8656
2.64975
2.45058
2.27632
2.14485
2.10351
2.33236
4.40832
14.2712
7.67201
7.04815
7.29352
7.83469
8.52076
9.29165
10.1175
10.9813
11.8725
12.7841
13.7112
14.6502
15.5983
16.553
17.5123
18.474
19.4364
20.3973
21.3547
22.3068
23.2513
24.1863
25.1098
26.0196
26.9139
27.7908
28.6483
29.4849
30.2989
31.0889
31.8535
32.5916
33.3021
33.9842
34.6371
35.2603
35.8533
36.4158
36.9477
37.449
37.9197
38.3601
38.7704
39.1512
39.5029
39.8262
40.1216
40.3895
40.6306
40.8455
41.0349
41.1995
41.34
41.4573
41.5522
41.6254
41.6778
41.7102
41.7233
41.718
41.6951
41.6552
41.5992
41.5278
41.4416
41.3414
41.2279
41.1016
40.9633
40.8135
40.6527
40.4816
40.3007
40.1105
39.9114
39.704
39.4887
39.2658
39.0359
38.7994
38.5564
38.3075
38.0529
37.793
37.528
37.2583
36.984
36.7054
36.4228
36.1364
35.8463
35.5528
35.256
34.9561
34.6533
34.3477
34.0394
33.7285
33.4153
33.0997
32.7818
32.4618
32.1398
31.8158
31.4898
31.162
30.8325
30.5011
30.1681
29.8334
29.4972
29.1593
28.8199
28.479
28.1367
27.7929
27.4477
27.1011
26.7531
26.4039
26.0533
25.7014
25.3483
24.994
24.6384
24.2818
23.924
23.5652
23.2053
22.8444
22.4826
22.1199
21.7563
21.392
21.027
20.6614
20.2952
19.9285
19.5614
19.194
18.8264
18.4586
18.0908
17.7231
17.3557
16.9885
16.6218
16.2556
15.8902
15.5256
15.1619
14.7994
14.4381
14.0782
13.7199
13.3633
13.0086
12.6558
12.3053
11.957
11.6113
11.2682
10.9279
10.5905
10.2562
9.9251
9.59739
9.2732
8.95265
8.63587
8.32298
8.01411
7.70936
7.40885
7.11268
6.82097
6.5338
6.25129
5.97355
5.70068
5.43281
5.17006
4.91258
4.6605
4.41401
4.17339
3.93899
3.71133
3.49113
3.27942
3.07775
2.88841
2.71502
2.56378
2.44615
2.38644
2.44875
2.88152
5.83202
14.2715
7.67191
7.04798
7.29332
7.83448
8.52053
9.29141
10.1173
10.9811
11.8723
12.7839
13.711
14.65
15.598
16.5528
17.512
18.4738
19.4361
20.397
21.3545
22.3065
23.2511
24.1861
25.1096
26.0194
26.9137
27.7906
28.6481
29.4847
30.2987
31.0887
31.8533
32.5914
33.3019
33.984
34.6369
35.2601
35.8531
36.4157
36.9476
37.4489
37.9196
38.36
38.7703
39.1511
39.5028
39.8261
40.1215
40.3894
40.6305
40.8454
41.0348
41.1994
41.34
41.4573
41.5521
41.6254
41.6778
41.7101
41.7233
41.718
41.695
41.6552
41.5991
41.5277
41.4416
41.3414
41.2278
41.1016
40.9632
40.8134
40.6527
40.4816
40.3006
40.1104
39.9114
39.7039
39.4886
39.2658
39.0359
38.7993
38.5564
38.3075
38.0529
37.793
37.528
37.2582
36.9839
36.7054
36.4228
36.1363
35.8463
35.5527
35.256
34.9561
34.6533
34.3476
34.0393
33.7285
33.4152
33.0996
32.7818
32.4618
32.1398
31.8158
31.4898
31.162
30.8324
30.5011
30.1681
29.8334
29.4971
29.1593
28.8199
28.479
28.1367
27.7929
27.4477
27.1011
26.7531
26.4038
26.0533
25.7014
25.3483
24.994
24.6384
24.2818
23.924
23.5651
23.2053
22.8444
22.4826
22.1199
21.7563
21.392
21.027
20.6614
20.2952
19.9285
19.5614
19.194
18.8263
18.4586
18.0908
17.7231
17.3557
16.9885
16.6218
16.2556
15.8902
15.5256
15.1619
14.7994
14.4381
14.0782
13.7199
13.3633
13.0086
12.6558
12.3053
11.957
11.6113
11.2682
10.9279
10.5905
10.2562
9.92509
9.59739
9.2732
8.95265
8.63587
8.32298
8.01411
7.70936
7.40885
7.11268
6.82097
6.5338
6.25129
5.97355
5.70068
5.43281
5.17007
4.91258
4.6605
4.41402
4.17339
3.93899
3.71133
3.49113
3.27942
3.07775
2.88841
2.71502
2.56379
2.44615
2.38644
2.44877
2.88157
5.83207
17.69
9.31716
8.29462
8.3652
8.80384
9.41979
10.1375
10.9195
11.7444
12.5988
13.4737
14.3632
15.2628
16.1693
17.0799
17.9924
18.9051
19.8159
20.7233
21.6255
22.5207
23.4073
24.2836
25.1476
25.9979
26.8326
27.6501
28.4489
29.2274
29.9842
30.7181
31.4278
32.1124
32.7708
33.4023
34.0062
34.582
35.1293
35.6479
36.1375
36.5982
37.0301
37.4332
37.8081
38.1549
38.4742
38.7665
39.0323
39.2721
39.4866
39.6763
39.8419
39.9841
40.1036
40.2011
40.2774
40.3333
40.3695
40.3868
40.3859
40.3676
40.3327
40.2818
40.2156
40.1349
40.0403
39.9324
39.812
39.6796
39.5358
39.3812
39.2164
39.0418
38.858
38.6654
38.4646
38.2559
38.0399
37.8168
37.5871
37.3512
37.1094
36.862
36.6094
36.3518
36.0896
35.8229
35.5521
35.2773
34.9988
34.7169
34.4316
34.1432
33.8518
33.5576
33.2608
32.9614
32.6597
32.3557
32.0495
31.7413
31.4311
31.119
30.8051
30.4894
30.1721
29.8532
29.5328
29.2108
28.8874
28.5626
28.2364
27.9089
27.5801
27.25
26.9187
26.5862
26.2525
25.9177
25.5817
25.2446
24.9065
24.5673
24.2271
23.8859
23.5437
23.2006
22.8567
22.5119
22.1662
21.8198
21.4727
21.1249
20.7765
20.4276
20.0781
19.7282
19.378
19.0274
18.6767
18.3258
17.9749
17.624
17.2733
16.9229
16.5728
16.2231
15.874
15.5257
15.1781
14.8315
14.486
14.1417
13.7987
13.4572
13.1174
12.7792
12.443
12.1088
11.7768
11.4472
11.12
10.7954
10.4736
10.1547
9.83881
9.52611
9.2167
8.91073
8.60833
8.30961
8.0147
7.72371
7.43677
7.15399
6.87548
6.60136
6.33176
6.06678
5.80658
5.55128
5.30106
5.05608
4.81656
4.58274
4.35494
4.13354
3.91909
3.7123
3.51413
3.32596
3.14976
2.98848
2.84674
2.73234
2.65986
2.6602
2.81474
3.43962
7.25161
17.6904
9.31704
8.29442
8.36498
8.8036
9.41954
10.1373
10.9193
11.7441
12.5985
13.4735
14.363
15.2626
16.169
17.0796
17.9922
18.9048
19.8157
20.7231
21.6252
22.5205
23.4071
24.2833
25.1474
25.9977
26.8324
27.6499
28.4487
29.2272
29.984
30.7179
31.4277
32.1122
32.7706
33.4021
34.0061
34.5819
35.1292
35.6478
36.1374
36.5981
37.0299
37.4331
37.8079
38.1548
38.4741
38.7664
39.0322
39.2721
39.4865
39.6762
39.8418
39.984
40.1035
40.201
40.2773
40.3332
40.3694
40.3867
40.3859
40.3676
40.3326
40.2817
40.2155
40.1348
40.0402
39.9324
39.812
39.6796
39.5358
39.3812
39.2163
39.0417
38.8579
38.6654
38.4645
38.2559
38.0398
37.8168
37.5871
37.3512
37.1094
36.862
36.6094
36.3518
36.0896
35.8229
35.5521
35.2773
34.9988
34.7168
34.4316
34.1431
33.8518
33.5576
33.2608
32.9614
32.6597
32.3557
32.0495
31.7413
31.4311
31.119
30.8051
30.4894
30.1721
29.8532
29.5328
29.2108
28.8874
28.5626
28.2364
27.9089
27.5801
27.25
26.9187
26.5862
26.2525
25.9177
25.5817
25.2446
24.9065
24.5673
24.2271
23.8859
23.5437
23.2006
22.8567
22.5118
22.1662
21.8198
21.4727
21.1249
20.7765
20.4276
20.0781
19.7282
19.378
19.0274
18.6767
18.3258
17.9749
17.624
17.2733
16.9229
16.5727
16.2231
15.874
15.5257
15.1781
14.8315
14.486
14.1417
13.7987
13.4572
13.1174
12.7792
12.443
12.1088
11.7768
11.4472
11.12
10.7954
10.4736
10.1547
9.83881
9.52611
9.2167
8.91074
8.60833
8.30961
8.0147
7.72371
7.43677
7.15399
6.87548
6.60137
6.33176
6.06679
5.80658
5.55128
5.30106
5.05608
4.81656
4.58275
4.35494
4.13355
3.9191
3.7123
3.51413
3.32596
3.14976
2.98848
2.84674
2.73234
2.65986
2.6602
2.81475
3.43965
7.25163
21.2163
11.0289
9.6346
9.55318
9.90989
10.4747
11.157
11.9117
12.7132
13.5456
14.3983
15.264
16.1377
17.0156
17.8948
18.7731
19.6487
20.5199
21.3852
22.2433
23.0926
23.9318
24.7594
25.5741
26.3745
27.159
27.9263
28.6751
29.4042
30.1122
30.798
31.4607
32.0993
32.7129
33.3009
33.8627
34.3978
34.9058
35.3865
35.8398
36.2657
36.6642
37.0355
37.3799
37.6977
37.9893
38.2553
38.496
38.7121
38.904
39.0724
39.2179
39.3411
39.4428
39.5236
39.5843
39.6255
39.6481
39.6526
39.6399
39.6106
39.5654
39.505
39.4302
39.3414
39.2395
39.125
38.9985
38.8606
38.7118
38.5528
38.384
38.206
38.0191
37.824
37.621
37.4106
37.1932
36.9691
36.7387
36.5025
36.2606
36.0135
35.7614
35.5047
35.2435
34.9782
34.709
34.4361
34.1597
33.88
33.5973
33.3116
33.0232
32.7322
32.4387
32.1429
31.8449
31.5448
31.2427
30.9388
30.633
30.3256
30.0165
29.7058
29.3936
29.0801
28.7651
28.4488
28.1312
27.8123
27.4923
27.1711
26.8487
26.5253
26.2008
25.8752
25.5486
25.221
24.8925
24.563
24.2326
23.9014
23.5693
23.2363
22.9026
22.5681
22.2328
21.8969
21.5603
21.2232
20.8854
20.5471
20.2084
19.8693
19.5298
19.19
18.85
18.5099
18.1697
17.8295
17.4894
17.1494
16.8098
16.4705
16.1316
15.7934
15.4558
15.119
14.7831
14.4482
14.1145
13.782
13.4509
13.1214
12.7935
12.4673
12.1431
11.821
11.501
11.1834
10.8682
10.5556
10.2458
9.93877
9.63475
9.33386
9.03621
8.74193
8.45115
8.16399
7.88057
7.60102
7.32545
7.05399
6.78677
6.52391
6.26556
6.01186
5.76297
5.51907
5.28036
5.04708
4.8195
4.59795
4.38286
4.17474
3.97428
3.78238
3.60025
3.42958
3.27278
3.13341
3.0171
2.93329
2.89951
2.95328
3.19331
4.00354
8.67072
21.2167
11.0288
9.63439
9.55294
9.90964
10.4745
11.1567
11.9114
12.7129
13.5453
14.398
15.2638
16.1374
17.0153
17.8945
18.7728
19.6484
20.5196
21.385
22.243
23.0923
23.9315
24.7592
25.5739
26.3742
27.1588
27.9261
28.6749
29.404
30.112
30.7978
31.4605
32.0991
32.7127
33.3008
33.8625
34.3976
34.9057
35.3864
35.8397
36.2656
36.6641
37.0354
37.3798
37.6976
37.9892
38.2552
38.4959
38.712
38.9039
39.0723
39.2178
39.341
39.4427
39.5236
39.5842
39.6255
39.648
39.6525
39.6398
39.6105
39.5653
39.505
39.4301
39.3414
39.2395
39.1249
38.9984
38.8605
38.7118
38.5528
38.384
38.2059
38.0191
37.824
37.621
37.4106
37.1931
36.969
36.7387
36.5024
36.2606
36.0135
35.7614
35.5047
35.2435
34.9782
34.709
34.4361
34.1597
33.88
33.5973
33.3116
33.0232
32.7322
32.4387
32.1429
31.8449
31.5448
31.2427
30.9387
30.633
30.3255
30.0164
29.7058
29.3936
29.08
28.7651
28.4488
28.1312
27.8123
27.4923
27.1711
26.8487
26.5253
26.2007
25.8752
25.5486
25.221
24.8925
24.563
24.2326
23.9014
23.5693
23.2363
22.9026
22.5681
22.2328
21.8969
21.5603
21.2232
20.8854
20.5471
20.2084
19.8693
19.5298
19.19
18.85
18.5099
18.1697
17.8295
17.4894
17.1494
16.8098
16.4705
16.1316
15.7934
15.4558
15.119
14.7831
14.4482
14.1145
13.782
13.4509
13.1214
12.7935
12.4673
12.1431
11.821
11.501
11.1834
10.8682
10.5556
10.2458
9.93877
9.63476
9.33386
9.03621
8.74193
8.45115
8.16399
7.88057
7.60102
7.32545
7.05399
6.78677
6.52392
6.26556
6.01186
5.76297
5.51907
5.28036
5.04708
4.8195
4.59796
4.38286
4.17474
3.97428
3.78238
3.60025
3.42959
3.27278
3.13342
3.0171
2.93329
2.89951
2.95328
3.19332
4.00357
8.67073
24.9321
12.8244
11.0628
10.842
11.1297
11.6553
12.3129
13.05
13.8371
14.6557
15.4937
16.3428
17.1972
18.0528
18.9066
19.7564
20.6004
21.4373
22.2657
23.0845
23.8927
24.689
25.4726
26.2422
26.9967
27.735
28.4561
29.1587
29.8418
30.5045
31.1457
31.7646
32.3604
32.9323
33.4798
34.0023
34.4995
34.9709
35.4165
35.8361
36.2296
36.5971
36.9389
37.2551
37.5461
37.8123
38.054
38.2717
38.466
38.6374
38.7863
38.9136
39.0196
39.1052
39.1709
39.2175
39.2455
39.2558
39.2488
39.2255
39.1863
39.132
39.0633
38.9806
38.8848
38.7763
38.6559
38.5239
38.3811
38.2279
38.0649
37.8925
37.7113
37.5217
37.3242
37.1191
36.9069
36.688
36.4628
36.2316
35.9947
35.7525
35.5053
35.2533
34.9969
34.7362
34.4716
34.2033
33.9315
33.6564
33.3781
33.0969
32.813
32.5264
32.2375
31.9461
31.6526
31.3571
31.0595
30.7602
30.459
30.1562
29.8518
29.5459
29.2386
28.9298
28.6198
28.3084
27.9959
27.6822
27.3674
27.0514
26.7345
26.4165
26.0975
25.7775
25.4567
25.1349
24.8122
24.4888
24.1644
23.8393
23.5135
23.1869
22.8595
22.5315
22.2029
21.8736
21.5438
21.2135
20.8826
20.5513
20.2196
19.8875
19.5551
19.2225
18.8898
18.5569
18.2239
17.891
17.5582
17.2255
16.8932
16.5611
16.2296
15.8985
15.5681
15.2385
14.9096
14.5818
14.255
13.9294
13.6051
13.2822
12.9609
12.6412
12.3233
12.0073
11.6934
11.3816
11.0722
10.7651
10.4606
10.1588
9.85985
9.56379
9.2708
8.98099
8.69449
8.41142
8.13191
7.85608
7.58406
7.31598
7.05197
6.79216
6.53672
6.28578
6.03953
5.79815
5.56186
5.33091
5.10558
4.88622
4.67324
4.46715
4.2686
4.07841
3.89766
3.7278
3.57082
3.42955
3.3082
3.21334
3.15608
3.157
3.26025
3.5823
4.57568
10.1029
24.9325
12.8242
11.0626
10.8417
11.1294
11.655
12.3126
13.0497
13.8368
14.6554
15.4934
16.3425
17.1969
18.0525
18.9063
19.7561
20.6002
21.437
22.2654
23.0843
23.8924
24.6888
25.4724
26.242
26.9965
27.7348
28.4558
29.1585
29.8416
30.5043
31.1455
31.7644
32.3602
32.9322
33.4797
34.0022
34.4993
34.9708
35.4164
35.8359
36.2295
36.597
36.9388
37.255
37.546
37.8122
38.0539
38.2716
38.4659
38.6373
38.7863
38.9135
39.0196
39.1051
39.1709
39.2174
39.2455
39.2557
39.2488
39.2254
39.1863
39.132
39.0632
38.9806
38.8848
38.7763
38.6558
38.5239
38.381
38.2279
38.0648
37.8925
37.7113
37.5217
37.3241
37.1191
36.9069
36.688
36.4628
36.2316
35.9947
35.7525
35.5053
35.2533
34.9969
34.7362
34.4716
34.2033
33.9315
33.6563
33.3781
33.0969
32.813
32.5264
32.2374
31.9461
31.6526
31.357
31.0595
30.7601
30.459
30.1562
29.8518
29.5459
29.2385
28.9298
28.6198
28.3084
27.9959
27.6822
27.3674
27.0514
26.7344
26.4165
26.0975
25.7775
25.4567
25.1349
24.8122
24.4887
24.1644
23.8393
23.5135
23.1868
22.8595
22.5315
22.2029
21.8736
21.5438
21.2134
20.8826
20.5513
20.2196
19.8875
19.5551
19.2225
18.8898
18.5569
18.2239
17.891
17.5582
17.2255
16.8932
16.5611
16.2296
15.8985
15.5681
15.2385
14.9096
14.5818
14.255
13.9294
13.6051
13.2822
12.9609
12.6412
12.3233
12.0073
11.6934
11.3816
11.0722
10.7651
10.4606
10.1588
9.85985
9.5638
9.2708
8.98099
8.69449
8.41142
8.13191
7.85609
7.58407
7.31598
7.05197
6.79217
6.53672
6.28578
6.03953
5.79815
5.56187
5.33092
5.10559
4.88623
4.67324
4.46716
4.2686
4.07841
3.89766
3.72781
3.57082
3.42955
3.3082
3.21334
3.15608
3.15701
3.26025
3.58231
4.57571
10.1029
28.7805
14.7017
12.5772
12.2255
12.4529
12.9474
13.5872
14.3129
15.0907
15.9
16.7271
17.5628
18.4008
19.2368
20.0676
20.891
21.7055
22.5098
23.303
24.0842
24.8527
25.6078
26.3486
27.0744
27.7844
28.4778
29.1537
29.8112
30.4496
31.068
31.6656
32.2418
32.7957
33.327
33.8349
34.3191
34.7792
35.215
35.6263
36.0129
36.3749
36.7124
37.0255
37.3144
37.5794
37.8209
38.0392
38.2349
38.4082
38.5599
38.6903
38.8001
38.8898
38.9601
39.0115
39.0447
39.0604
39.0591
39.0415
39.0082
38.9599
38.8972
38.8206
38.7309
38.6285
38.5141
38.3882
38.2514
38.1041
37.947
37.7804
37.6049
37.4209
37.2288
37.0292
36.8223
36.6087
36.3885
36.1623
35.9303
35.693
35.4504
35.2031
34.9512
34.695
34.4348
34.1708
33.9032
33.6323
33.3581
33.081
32.8011
32.5186
32.2335
31.9461
31.6565
31.3648
31.0711
30.7756
30.4783
30.1793
29.8788
29.5768
29.2733
28.9685
28.6623
28.355
28.0464
27.7367
27.426
27.1141
26.8013
26.4875
26.1728
25.8571
25.5406
25.2233
24.9051
24.5861
24.2664
23.9459
23.6247
23.3029
22.9804
22.6572
22.3335
22.0092
21.6844
21.3591
21.0333
20.7071
20.3806
20.0537
19.7266
19.3993
19.0717
18.7441
18.4165
18.0888
17.7613
17.4339
17.1068
16.7799
16.4535
16.1276
15.8023
15.4777
15.1538
14.8308
14.5088
14.1879
13.8682
13.5498
13.2328
12.9173
12.6035
12.2915
11.9814
11.6733
11.3673
11.0636
10.7623
10.4634
10.1672
9.87378
9.58319
9.29559
9.01111
8.72987
8.45199
8.1776
7.90683
7.63981
7.37668
7.11758
6.86266
6.61209
6.36605
6.12473
5.88835
5.65717
5.43148
5.21161
4.99797
4.79106
4.59148
4.39999
4.21754
4.0454
3.88523
3.73932
3.61093
3.50488
3.42874
3.39528
3.42821
3.57821
3.97983
5.15485
11.5416
28.7809
14.7015
12.577
12.2252
12.4526
12.9471
13.5869
14.3126
15.0904
15.8997
16.7268
17.5625
18.4005
19.2365
20.0673
20.8908
21.7052
22.5096
23.3027
24.084
24.8525
25.6075
26.3483
27.0742
27.7842
28.4776
29.1535
29.811
30.4494
31.0678
31.6655
32.2416
32.7956
33.3268
33.8347
34.3189
34.7791
35.2149
35.6261
36.0128
36.3748
36.7123
37.0254
37.3143
37.5793
37.8208
38.0391
38.2348
38.4082
38.5598
38.6902
38.8
38.8898
38.96
39.0115
39.0447
39.0603
39.059
39.0414
39.0082
38.9599
38.8971
38.8206
38.7309
38.6285
38.5141
38.3882
38.2514
38.1041
37.9469
37.7804
37.6048
37.4208
37.2288
37.0292
36.8223
36.6086
36.3885
36.1623
35.9303
35.6929
35.4504
35.2031
34.9512
34.695
34.4348
34.1708
33.9032
33.6323
33.3581
33.081
32.8011
32.5185
32.2335
31.9461
31.6565
31.3648
31.0711
30.7756
30.4783
30.1793
29.8788
29.5767
29.2733
28.9684
28.6623
28.355
28.0464
27.7367
27.4259
27.1141
26.8013
26.4875
26.1728
25.8571
25.5406
25.2232
24.9051
24.5861
24.2664
23.9459
23.6247
23.3029
22.9803
22.6572
22.3335
22.0092
21.6844
21.3591
21.0333
20.7071
20.3806
20.0537
19.7266
19.3993
19.0717
18.7441
18.4165
18.0888
17.7613
17.4339
17.1067
16.7799
16.4535
16.1276
15.8023
15.4777
15.1538
14.8308
14.5088
14.1879
13.8682
13.5498
13.2328
12.9173
12.6035
12.2915
11.9814
11.6733
11.3673
11.0636
10.7623
10.4634
10.1672
9.87378
9.58319
9.2956
9.01112
8.72987
8.45199
8.17761
7.90684
7.63982
7.37668
7.11758
6.86267
6.6121
6.36605
6.12473
5.88835
5.65717
5.43148
5.21161
4.99798
4.79107
4.59149
4.39999
4.21754
4.0454
3.88523
3.73932
3.61093
3.50488
3.42874
3.39528
3.42821
3.57821
3.97985
5.1549
11.5417
32.7775
16.6661
14.1796
13.703
13.8763
14.3451
14.972
15.6898
16.4612
17.2632
18.0809
18.9042
19.7265
20.5432
21.351
22.148
22.9327
23.7042
24.4619
25.2051
25.9336
26.6469
27.3446
28.0263
28.6914
29.3395
29.97
30.5822
31.1755
31.7494
32.3032
32.8364
33.3484
33.8387
34.3069
34.7527
35.1757
35.5757
35.9526
36.3063
36.6368
36.9442
37.2286
37.4903
37.7294
37.9464
38.1415
38.3152
38.4679
38.6001
38.7122
38.8049
38.8786
38.9339
38.9714
38.9916
38.9952
38.9828
38.9549
38.9121
38.855
38.7843
38.7004
38.604
38.4955
38.3756
38.2447
38.1033
37.9521
37.7913
37.6216
37.4433
37.2569
37.0628
36.8613
36.653
36.4381
36.2171
35.9902
35.7577
35.5201
35.2775
35.0303
34.7786
34.5229
34.2633
34
33.7332
33.4632
33.1902
32.9142
32.6356
32.3544
32.0708
31.785
31.497
31.207
30.9151
30.6214
30.326
30.029
29.7306
29.4306
29.1293
28.8267
28.5229
28.2179
27.9117
27.6045
27.2962
26.987
26.6768
26.3657
26.0537
25.7409