/*--------------------------------*- C++ -*----------------------------------*\
  =========                 |
  \\      /  F ield         | OpenFOAM: The Open Source CFD Toolbox
   \\    /   O peration     | Website:  https://openfoam.org
    \\  /    A nd           | Version:  8
     \\/     M anipulation  |
\*---------------------------------------------------------------------------*/
FoamFile
{
    version     2.0;
    format      ascii;
    class       volScalarField;
    location    "2600";
    object      k;
}
// * * * * * * * * * * * * * * * * * * * * * * * * * * * * * * * * * * * * * //

dimensions      [0 2 -2 0 0 0 0];

internalField   nonuniform List<scalar> 
48000
(
0.0284217
0.0536201
0.0820465
0.107329
0.1309
0.152506
0.172542
0.1916
0.210044
0.227691
0.244749
0.261281
0.277336
0.292953
0.308159
0.322976
0.337417
0.351492
0.365207
0.378565
0.391566
0.404212
0.416499
0.428428
0.439995
0.451199
0.462038
0.47251
0.482615
0.492351
0.50172
0.51072
0.519355
0.527625
0.535534
0.543085
0.550281
0.557127
0.563628
0.569789
0.575615
0.581114
0.586291
0.591153
0.595704
0.599966
0.603981
0.607717
0.611173
0.614358
0.617279
0.619944
0.622364
0.624545
0.626497
0.628226
0.629741
0.63105
0.632161
0.633079
0.633814
0.63437
0.634757
0.634978
0.635043
0.634955
0.634721
0.634348
0.633839
0.633201
0.632439
0.631556
0.630559
0.629452
0.628238
0.626922
0.625507
0.623998
0.622397
0.620709
0.618936
0.617081
0.615147
0.613137
0.611054
0.608899
0.606676
0.604385
0.602029
0.599611
0.597131
0.594591
0.591994
0.589339
0.586629
0.583865
0.581047
0.578177
0.575256
0.572284
0.569262
0.56619
0.563071
0.559903
0.556687
0.553423
0.550113
0.546755
0.543351
0.539899
0.536402
0.532857
0.529266
0.525628
0.521943
0.518211
0.514432
0.510606
0.506731
0.502809
0.498839
0.494821
0.490753
0.486637
0.482472
0.478257
0.473992
0.469677
0.465312
0.460897
0.45643
0.451913
0.447345
0.442726
0.438055
0.433333
0.42856
0.423736
0.41886
0.413934
0.408956
0.403929
0.39885
0.393722
0.388545
0.383318
0.378043
0.37272
0.36735
0.361934
0.356471
0.350964
0.345412
0.339818
0.334181
0.328503
0.322785
0.317028
0.311234
0.305402
0.299535
0.293633
0.287698
0.281731
0.275733
0.269705
0.263647
0.257562
0.251449
0.245309
0.239143
0.232951
0.226734
0.22049
0.21422
0.207923
0.201598
0.195242
0.188855
0.182433
0.175974
0.169479
0.16295
0.156425
0.149849
0.143185
0.136422
0.129537
0.122507
0.115301
0.107877
0.100183
0.0921928
0.0838603
0.0749895
0.0653685
0.0546217
0.0419496
0.026015
0.0198576
0.0284215
0.0536192
0.082048
0.107331
0.130902
0.152508
0.172543
0.191601
0.210045
0.227692
0.244751
0.261283
0.277337
0.292954
0.30816
0.322977
0.337419
0.351494
0.365208
0.378566
0.391567
0.404212
0.4165
0.428429
0.439996
0.4512
0.462039
0.472511
0.482616
0.492352
0.50172
0.510721
0.519355
0.527626
0.535535
0.543085
0.550281
0.557127
0.563628
0.569789
0.575616
0.581114
0.586292
0.591153
0.595704
0.599966
0.603981
0.607717
0.611173
0.614358
0.617278
0.619944
0.622364
0.624545
0.626496
0.628226
0.629741
0.63105
0.63216
0.633079
0.633813
0.63437
0.634756
0.634978
0.635042
0.634955
0.634721
0.634347
0.633839
0.633201
0.632438
0.631556
0.630559
0.629452
0.628238
0.626921
0.625507
0.623998
0.622397
0.620709
0.618936
0.617081
0.615147
0.613137
0.611054
0.608899
0.606675
0.604385
0.602029
0.599611
0.597131
0.594591
0.591994
0.589339
0.586629
0.583864
0.581047
0.578177
0.575255
0.572283
0.569261
0.56619
0.56307
0.559902
0.556686
0.553423
0.550112
0.546755
0.54335
0.539899
0.536401
0.532857
0.529266
0.525628
0.521943
0.518211
0.514432
0.510605
0.506731
0.502809
0.498839
0.49482
0.490753
0.486637
0.482472
0.478257
0.473992
0.469677
0.465312
0.460896
0.45643
0.451913
0.447345
0.442725
0.438055
0.433333
0.42856
0.423736
0.41886
0.413934
0.408956
0.403928
0.39885
0.393722
0.388545
0.383318
0.378043
0.37272
0.36735
0.361933
0.356471
0.350964
0.345412
0.339818
0.334181
0.328503
0.322785
0.317028
0.311233
0.305402
0.299535
0.293633
0.287698
0.281731
0.275733
0.269705
0.263647
0.257562
0.251449
0.245309
0.239143
0.232951
0.226734
0.22049
0.21422
0.207923
0.201598
0.195242
0.188855
0.182433
0.175974
0.169479
0.16295
0.156425
0.149849
0.143185
0.136422
0.129537
0.122507
0.115301
0.107877
0.100183
0.0921929
0.0838604
0.0749897
0.0653693
0.0546252
0.0419588
0.0260063
0.0198239
0.054312
0.136402
0.194849
0.2465
0.293923
0.338564
0.380728
0.421023
0.459818
0.497328
0.533729
0.569146
0.603672
0.637373
0.670295
0.702467
0.733909
0.76463
0.794633
0.823914
0.852468
0.880286
0.907357
0.933672
0.959218
0.983986
1.00797
1.03115
1.05353
1.07511
1.09587
1.11583
1.13497
1.1533
1.17083
1.18756
1.2035
1.21865
1.23304
1.24667
1.25954
1.27169
1.28311
1.29383
1.30386
1.31321
1.32192
1.33
1.33746
1.34432
1.35061
1.35633
1.36151
1.36617
1.37032
1.37399
1.37718
1.37992
1.38222
1.3841
1.38558
1.38667
1.38738
1.38773
1.38774
1.38741
1.38677
1.38581
1.38457
1.38304
1.38123
1.37917
1.37686
1.3743
1.37152
1.36851
1.36529
1.36186
1.35823
1.35441
1.35041
1.34623
1.34189
1.33737
1.3327
1.32787
1.3229
1.31778
1.31252
1.30713
1.3016
1.29594
1.29016
1.28426
1.27824
1.27211
1.26585
1.25949
1.25302
1.24644
1.23975
1.23296
1.22606
1.21906
1.21196
1.20476
1.19746
1.19005
1.18255
1.17495
1.16725
1.15945
1.15155
1.14355
1.13545
1.12725
1.11895
1.11055
1.10205
1.09345
1.08475
1.07594
1.06703
1.05802
1.0489
1.03968
1.03035
1.02091
1.01137
1.00173
0.99197
0.982108
0.972138
0.96206
0.951873
0.941579
0.931176
0.920666
0.910047
0.899322
0.88849
0.877551
0.866507
0.855358
0.844106
0.832751
0.821295
0.80974
0.798085
0.786334
0.774488
0.762549
0.750518
0.738399
0.726193
0.713902
0.701529
0.689076
0.676546
0.663941
0.651265
0.638518
0.625705
0.612826
0.599886
0.586886
0.573828
0.560714
0.547545
0.534325
0.521052
0.507728
0.494354
0.480928
0.46745
0.453918
0.440329
0.42668
0.412965
0.399178
0.385313
0.371359
0.357307
0.343142
0.328837
0.314352
0.299687
0.284795
0.269629
0.254133
0.238233
0.221831
0.204792
0.186978
0.16817
0.14804
0.12609
0.101399
0.0709769
0.0279494
0.054311
0.136403
0.194851
0.246501
0.293924
0.338565
0.380729
0.421024
0.459819
0.497329
0.53373
0.569147
0.603673
0.637374
0.670295
0.702467
0.733909
0.76463
0.794633
0.823914
0.852468
0.880286
0.907357
0.933672
0.959218
0.983986
1.00797
1.03115
1.05353
1.07511
1.09587
1.11582
1.13497
1.1533
1.17083
1.18756
1.2035
1.21865
1.23304
1.24666
1.25954
1.27169
1.28311
1.29383
1.30386
1.31321
1.32192
1.32999
1.33746
1.34432
1.35061
1.35633
1.36151
1.36617
1.37032
1.37399
1.37718
1.37992
1.38222
1.3841
1.38558
1.38667
1.38738
1.38773
1.38774
1.38741
1.38676
1.38581
1.38457
1.38304
1.38123
1.37917
1.37686
1.3743
1.37152
1.36851
1.36528
1.36186
1.35823
1.35441
1.35041
1.34623
1.34188
1.33737
1.3327
1.32787
1.3229
1.31778
1.31252
1.30712
1.3016
1.29594
1.29016
1.28426
1.27824
1.2721
1.26585
1.25949
1.25302
1.24644
1.23975
1.23296
1.22606
1.21906
1.21196
1.20476
1.19745
1.19005
1.18255
1.17495
1.16725
1.15945
1.15155
1.14355
1.13545
1.12725
1.11895
1.11055
1.10205
1.09345
1.08475
1.07594
1.06703
1.05802
1.0489
1.03968
1.03035
1.02091
1.01137
1.00172
0.991969
0.982107
0.972137
0.962059
0.951872
0.941578
0.931175
0.920664
0.910046
0.899321
0.888488
0.87755
0.866506
0.855357
0.844105
0.83275
0.821294
0.809739
0.798084
0.786333
0.774487
0.762548
0.750518
0.738398
0.726192
0.713901
0.701528
0.689075
0.676545
0.663941
0.651264
0.638517
0.625704
0.612826
0.599885
0.586885
0.573827
0.560713
0.547545
0.534324
0.521051
0.507728
0.494353
0.480927
0.467449
0.453917
0.440329
0.426679
0.412964
0.399178
0.385312
0.371359
0.357306
0.343142
0.328837
0.314352
0.299686
0.284794
0.269628
0.254133
0.238233
0.221831
0.204792
0.186977
0.16817
0.14804
0.12609
0.101401
0.0709731
0.0279526
0.0813891
0.19453
0.268018
0.330721
0.388496
0.443164
0.495433
0.545747
0.594406
0.641619
0.687544
0.732301
0.77598
0.818646
0.860349
0.901118
0.940974
0.979926
1.01797
1.05511
1.09134
1.12664
1.16099
1.19439
1.22682
1.25826
1.28871
1.31815
1.34657
1.37396
1.40033
1.42567
1.44997
1.47325
1.4955
1.51673
1.53696
1.55618
1.57443
1.5917
1.60802
1.6234
1.63786
1.65143
1.66412
1.67595
1.68694
1.69714
1.70654
1.71519
1.72309
1.73028
1.73678
1.7426
1.74778
1.75233
1.75629
1.75966
1.76247
1.76475
1.76651
1.76777
1.76856
1.76888
1.76876
1.76822
1.76727
1.76594
1.76422
1.76215
1.75972
1.75697
1.7539
1.75052
1.74685
1.74289
1.73866
1.73417
1.72943
1.72445
1.71924
1.7138
1.70815
1.70228
1.69622
1.68996
1.68352
1.67689
1.67009
1.66311
1.65597
1.64867
1.64121
1.6336
1.62584
1.61793
1.60988
1.60169
1.59336
1.5849
1.5763
1.56757
1.55871
1.54972
1.54061
1.53137
1.522
1.51251
1.5029
1.49316
1.48329
1.47331
1.4632
1.45296
1.44261
1.43212
1.42152
1.41078
1.39993
1.38894
1.37783
1.36659
1.35522
1.34372
1.3321
1.32034
1.30845
1.29643
1.28428
1.27199
1.25958
1.24702
1.23434
1.22152
1.20856
1.19548
1.18225
1.1689
1.15541
1.14178
1.12803
1.11414
1.10012
1.08598
1.0717
1.0573
1.04277
1.02812
1.01335
0.998455
0.983446
0.968322
0.953086
0.93774
0.922287
0.90673
0.891072
0.875317
0.859466
0.843524
0.827494
0.811379
0.795181
0.778905
0.762553
0.746128
0.729633
0.71307
0.696441
0.679748
0.662993
0.646176
0.629298
0.612357
0.595354
0.578285
0.561149
0.543939
0.52665
0.509276
0.491806
0.47423
0.456532
0.438695
0.420693
0.402495
0.38407
0.365373
0.346357
0.326965
0.307115
0.286704
0.2656
0.24362
0.220553
0.196044
0.16951
0.139771
0.103192
0.0437892
0.0813906
0.194532
0.268019
0.330721
0.388497
0.443165
0.495433
0.545747
0.594406
0.641619
0.687544
0.732301
0.775979
0.818646
0.860349
0.901118
0.940974
0.979925
1.01797
1.05511
1.09134
1.12663
1.16099
1.19439
1.22682
1.25826
1.28871
1.31814
1.34657
1.37396
1.40033
1.42567
1.44997
1.47325
1.4955
1.51673
1.53695
1.55618
1.57442
1.5917
1.60802
1.6234
1.63786
1.65143
1.66411
1.67594
1.68694
1.69713
1.70654
1.71519
1.72309
1.73028
1.73677
1.7426
1.74778
1.75233
1.75628
1.75966
1.76247
1.76475
1.76651
1.76777
1.76855
1.76888
1.76876
1.76822
1.76727
1.76593
1.76422
1.76214
1.75972
1.75697
1.7539
1.75052
1.74684
1.74289
1.73866
1.73417
1.72943
1.72445
1.71924
1.7138
1.70815
1.70228
1.69622
1.68996
1.68352
1.67689
1.67008
1.66311
1.65597
1.64867
1.64121
1.6336
1.62584
1.61793
1.60988
1.60169
1.59336
1.58489
1.5763
1.56757
1.55871
1.54972
1.54061
1.53137
1.522
1.51251
1.5029
1.49316
1.48329
1.47331
1.4632
1.45296
1.4426
1.43212
1.42151
1.41078
1.39992
1.38894
1.37783
1.36659
1.35522
1.34372
1.3321
1.32034
1.30845
1.29643
1.28428
1.27199
1.25957
1.24702
1.23434
1.22152
1.20856
1.19547
1.18225
1.1689
1.15541
1.14178
1.12803
1.11414
1.10012
1.08597
1.0717
1.0573
1.04277
1.02812
1.01335
0.998454
0.983445
0.968321
0.953085
0.937739
0.922286
0.906729
0.891071
0.875315
0.859465
0.843523
0.827493
0.811378
0.79518
0.778904
0.762552
0.746127
0.729632
0.713069
0.69644
0.679748
0.662992
0.646175
0.629297
0.612357
0.595353
0.578285
0.561148
0.543938
0.52665
0.509275
0.491805
0.474229
0.456531
0.438694
0.420692
0.402495
0.38407
0.365372
0.346356
0.326965
0.307114
0.286704
0.2656
0.24362
0.220553
0.196044
0.16951
0.139773
0.10319
0.0437812
0.10471
0.244118
0.329624
0.400638
0.46573
0.52737
0.586515
0.643642
0.699031
0.752872
0.805303
0.85643
0.906336
0.955083
1.00272
1.04927
1.09477
1.13921
1.18262
1.22497
1.26627
1.30651
1.34567
1.38373
1.42069
1.45653
1.49123
1.52478
1.55717
1.5884
1.61846
1.64734
1.67505
1.70159
1.72695
1.75116
1.77422
1.79614
1.81694
1.83663
1.85523
1.87275
1.88923
1.90469
1.91914
1.93261
1.94512
1.95672
1.96741
1.97723
1.9862
1.99435
2.00171
2.00829
2.01414
2.01927
2.0237
2.02748
2.03061
2.03312
2.03504
2.03639
2.03719
2.03746
2.03722
2.0365
2.0353
2.03366
2.03159
2.02911
2.02622
2.02296
2.01933
2.01534
2.01102
2.00638
2.00142
1.99617
1.99062
1.9848
1.97871
1.97237
1.96577
1.95894
1.95188
1.9446
1.9371
1.92939
1.92148
1.91338
1.90509
1.89661
1.88795
1.87912
1.87012
1.86095
1.85162
1.84213
1.83248
1.82268
1.81273
1.80263
1.79238
1.78198
1.77144
1.76076
1.74993
1.73896
1.72785
1.7166
1.70521
1.69368
1.68201
1.6702
1.65825
1.64616
1.63393
1.62155
1.60904
1.59638
1.58357
1.57063
1.55753
1.5443
1.53091
1.51738
1.5037
1.48987
1.47589
1.46176
1.44748
1.43305
1.41847
1.40374
1.38886
1.37383
1.35864
1.3433
1.32782
1.31218
1.2964
1.28046
1.26438
1.24816
1.23179
1.21527
1.19862
1.18183
1.1649
1.14784
1.13064
1.11332
1.09587
1.0783
1.06061
1.0428
1.02488
1.00685
0.988712
0.970473
0.952135
0.933702
0.915178
0.896565
0.877868
0.859089
0.840232
0.8213
0.802294
0.783217
0.76407
0.744855
0.725572
0.706221
0.6868
0.667307
0.647739
0.628092
0.60836
0.588534
0.568605
0.548561
0.528386
0.508063
0.487565
0.466865
0.445929
0.424714
0.40317
0.381235
0.358826
0.335854
0.312181
0.287625
0.261945
0.23475
0.205326
0.172081
0.130065
0.0573623
0.104712
0.24412
0.329625
0.400639
0.46573
0.52737
0.586515
0.643641
0.69903
0.752871
0.805302
0.856429
0.906335
0.955082
1.00272
1.04927
1.09477
1.13921
1.18262
1.22497
1.26627
1.30651
1.34567
1.38373
1.42069
1.45653
1.49123
1.52478
1.55717
1.5884
1.61846
1.64734
1.67505
1.70158
1.72695
1.75116
1.77422
1.79614
1.81694
1.83662
1.85522
1.87275
1.88923
1.90468
1.91913
1.9326
1.94512
1.95671
1.96741
1.97723
1.9862
1.99435
2.00171
2.00829
2.01414
2.01927
2.0237
2.02747
2.03061
2.03312
2.03504
2.03639
2.03718
2.03745
2.03722
2.03649
2.0353
2.03366
2.03159
2.0291
2.02622
2.02296
2.01933
2.01534
2.01102
2.00638
2.00142
1.99616
1.99062
1.9848
1.97871
1.97236
1.96577
1.95894
1.95188
1.9446
1.9371
1.92939
1.92148
1.91338
1.90509
1.89661
1.88795
1.87912
1.87012
1.86095
1.85162
1.84213
1.83248
1.82268
1.81273
1.80263
1.79238
1.78198
1.77144
1.76075
1.74993
1.73896
1.72785
1.7166
1.70521
1.69368
1.68201
1.6702
1.65825
1.64616
1.63393
1.62155
1.60904
1.59638
1.58357
1.57063
1.55753
1.54429
1.53091
1.51738
1.5037
1.48987
1.47589
1.46176
1.44748
1.43305
1.41847
1.40374
1.38886
1.37382
1.35864
1.3433
1.32782
1.31218
1.29639
1.28046
1.26438
1.24816
1.23179
1.21527
1.19862
1.18183
1.1649
1.14784
1.13064
1.11332
1.09587
1.0783
1.06061
1.0428
1.02488
1.00685
0.988711
0.970472
0.952134
0.933701
0.915177
0.896564
0.877867
0.859089
0.840232
0.821299
0.802293
0.783216
0.76407
0.744855
0.725572
0.70622
0.686799
0.667306
0.647739
0.628092
0.608359
0.588533
0.568604
0.54856
0.528386
0.508062
0.487565
0.466865
0.445928
0.424713
0.40317
0.381235
0.358825
0.335853
0.312181
0.287625
0.261945
0.23475
0.205326
0.172081
0.130064
0.0573595
0.125652
0.289093
0.38613
0.465001
0.536593
0.604166
0.66898
0.731618
0.79239
0.851488
0.909043
0.965152
1.01989
1.07333
1.1255
1.17645
1.2262
1.27476
1.32215
1.36837
1.41342
1.45728
1.49996
1.54143
1.58168
1.62071
1.6585
1.69504
1.73032
1.76433
1.79707
1.82853
1.85871
1.88762
1.91527
1.94165
1.96678
1.99067
2.01334
2.03481
2.05508
2.07419
2.09216
2.10901
2.12476
2.13945
2.1531
2.16573
2.17738
2.18807
2.19784
2.20671
2.2147
2.22186
2.2282
2.23375
2.23855
2.24262
2.24598
2.24867
2.2507
2.25211
2.25291
2.25313
2.25279
2.25192
2.25054
2.24866
2.2463
2.24349
2.24024
2.23658
2.2325
2.22805
2.22322
2.21803
2.2125
2.20664
2.20046
2.19398
2.1872
2.18014
2.17281
2.16521
2.15736
2.14927
2.14094
2.13238
2.1236
2.1146
2.1054
2.09599
2.08639
2.07659
2.06661
2.05644
2.0461
2.03557
2.02488
2.01402
2.00299
1.9918
1.98044
1.96893
1.95726
1.94543
1.93344
1.9213
1.90901
1.89656
1.88396
1.8712
1.8583
1.84524
1.83202
1.81865
1.80513
1.79145
1.77762
1.76364
1.74949
1.73519
1.72073
1.70611
1.69133
1.67639
1.66129
1.64603
1.63061
1.61502
1.59927
1.58336
1.56728
1.55104
1.53463
1.51806
1.50132
1.48442
1.46736
1.45013
1.43275
1.4152
1.39749
1.37963
1.36161
1.34343
1.3251
1.30662
1.288
1.26923
1.25031
1.23126
1.21207
1.19274
1.17329
1.15371
1.13401
1.11419
1.09425
1.0742
1.05405
1.03379
1.01343
0.992979
0.972433
0.9518
0.93108
0.910279
0.889398
0.868439
0.847405
0.826296
0.805113
0.783857
0.762525
0.741117
0.719628
0.698055
0.676392
0.654631
0.632763
0.610776
0.588654
0.566379
0.54393
0.521277
0.498389
0.475226
0.451737
0.427863
0.403524
0.378623
0.353022
0.326527
0.298861
0.269568
0.237764
0.201429
0.154339
0.0691816
0.125654
0.289095
0.386131
0.465001
0.536593
0.604165
0.668979
0.731617
0.79239
0.851488
0.909042
0.965151
1.01989
1.07333
1.1255
1.17645
1.22619
1.27476
1.32215
1.36837
1.41342
1.45728
1.49995
1.54143
1.58168
1.62071
1.6585
1.69504
1.73032
1.76433
1.79707
1.82853
1.85871
1.88762
1.91526
1.94165
1.96678
1.99067
2.01334
2.0348
2.05508
2.07419
2.09216
2.10901
2.12476
2.13945
2.15309
2.16573
2.17738
2.18807
2.19784
2.2067
2.2147
2.22186
2.2282
2.23375
2.23855
2.24262
2.24598
2.24867
2.2507
2.2521
2.25291
2.25313
2.25279
2.25192
2.25054
2.24866
2.2463
2.24349
2.24024
2.23657
2.2325
2.22805
2.22321
2.21803
2.2125
2.20664
2.20046
2.19397
2.1872
2.18014
2.1728
2.16521
2.15736
2.14927
2.14094
2.13238
2.1236
2.1146
2.1054
2.09599
2.08639
2.07659
2.06661
2.05644
2.04609
2.03557
2.02488
2.01402
2.00299
1.9918
1.98044
1.96893
1.95726
1.94543
1.93344
1.9213
1.90901
1.89656
1.88396
1.8712
1.8583
1.84523
1.83202
1.81865
1.80513
1.79145
1.77762
1.76363
1.74949
1.73519
1.72073
1.70611
1.69133
1.67639
1.66129
1.64603
1.63061
1.61502
1.59927
1.58336
1.56728
1.55103
1.53463
1.51806
1.50132
1.48442
1.46736
1.45013
1.43275
1.4152
1.39749
1.37963
1.36161
1.34343
1.3251
1.30662
1.288
1.26923
1.25031
1.23126
1.21207
1.19274
1.17329
1.15371
1.13401
1.11418
1.09425
1.0742
1.05405
1.03379
1.01343
0.992978
0.972433
0.951799
0.93108
0.910278
0.889397
0.868438
0.847404
0.826295
0.805113
0.783856
0.762525
0.741116
0.719628
0.698055
0.676392
0.654631
0.632763
0.610775
0.588653
0.566379
0.543929
0.521277
0.498389
0.475225
0.451737
0.427862
0.403524
0.378623
0.353022
0.326527
0.298861
0.269568
0.237765
0.20143
0.154339
0.0691811
0.144993
0.331561
0.439887
0.526526
0.604392
0.677501
0.747444
0.814948
0.880387
0.943974
1.00585
1.06611
1.12484
1.1821
1.23794
1.2924
1.34552
1.39731
1.44781
1.49701
1.54493
1.59155
1.63689
1.68093
1.72366
1.76508
1.80518
1.84395
1.88138
1.91746
1.9522
1.98558
2.01762
2.0483
2.07765
2.10566
2.13235
2.15773
2.18181
2.20462
2.22617
2.24649
2.26559
2.28351
2.30026
2.31588
2.33039
2.34383
2.35622
2.36759
2.37797
2.3874
2.3959
2.4035
2.41023
2.41612
2.4212
2.42551
2.42906
2.43188
2.43401
2.43547
2.43628
2.43646
2.43605
2.43507
2.43353
2.43146
2.42889
2.42582
2.42228
2.4183
2.41387
2.40904
2.4038
2.39818
2.39218
2.38584
2.37915
2.37213
2.3648
2.35716
2.34923
2.34101
2.33252
2.32377
2.31476
2.30551
2.29601
2.28629
2.27634
2.26617
2.25579
2.2452
2.23441
2.22342
2.21224
2.20087
2.18932
2.17758
2.16566
2.15357
2.1413
2.12887
2.11626
2.10348
2.09053
2.07742
2.06415
2.0507
2.0371
2.02333
2.00939
1.99529
1.98103
1.9666
1.95201
1.93725
1.92232
1.90723
1.89197
1.87654
1.86094
1.84518
1.82924
1.81313
1.79685
1.7804
1.76377
1.74697
1.73
1.71285
1.69552
1.67802
1.66034
1.64249
1.62447
1.60627
1.58789
1.56935
1.55063
1.53174
1.51268
1.49345
1.47405
1.45449
1.43477
1.41489
1.39485
1.37465
1.35431
1.33381
1.31317
1.29238
1.27146
1.2504
1.22922
1.2079
1.18646
1.1649
1.14323
1.12145
1.09955
1.07756
1.05547
1.03328
1.01099
0.988624
0.966166
0.943625
0.921001
0.898297
0.875513
0.852649
0.829704
0.806677
0.783565
0.760363
0.737067
0.71367
0.690161
0.666531
0.642764
0.618844
0.59475
0.570456
0.545929
0.521133
0.496019
0.470526
0.444577
0.418067
0.390851
0.362718
0.333339
0.302166
0.268143
0.22884
0.176865
0.0800034
0.144995
0.331562
0.439888
0.526526
0.604391
0.6775
0.747443
0.814948
0.880386
0.943973
1.00585
1.06611
1.12484
1.1821
1.23794
1.2924
1.34551
1.39731
1.44781
1.49701
1.54492
1.59155
1.63689
1.68093
1.72366
1.76508
1.80518
1.84395
1.88138
1.91746
1.9522
1.98558
2.01762
2.0483
2.07765
2.10566
2.13235
2.15773
2.18181
2.20462
2.22617
2.24649
2.26559
2.2835
2.30026
2.31588
2.33039
2.34383
2.35622
2.36759
2.37797
2.3874
2.3959
2.40349
2.41023
2.41612
2.4212
2.42551
2.42906
2.43188
2.43401
2.43547
2.43627
2.43646
2.43605
2.43507
2.43353
2.43146
2.42888
2.42582
2.42228
2.41829
2.41387
2.40904
2.4038
2.39818
2.39218
2.38584
2.37915
2.37213
2.3648
2.35716
2.34922
2.34101
2.33252
2.32377
2.31476
2.3055
2.29601
2.28628
2.27633
2.26617
2.25578
2.2452
2.23441
2.22342
2.21224
2.20087
2.18931
2.17758
2.16566
2.15357
2.1413
2.12886
2.11626
2.10348
2.09053
2.07742
2.06414
2.0507
2.0371
2.02332
2.00939
1.99529
1.98103
1.9666
1.952
1.93725
1.92232
1.90723
1.89197
1.87654
1.86094
1.84518
1.82924
1.81313
1.79685
1.7804
1.76377
1.74697
1.72999
1.71284
1.69552
1.67802
1.66034
1.64249
1.62447
1.60627
1.58789
1.56935
1.55063
1.53174
1.51268
1.49345
1.47405
1.45449
1.43477
1.41489
1.39485
1.37465
1.3543
1.33381
1.31317
1.29238
1.27146
1.2504
1.22921
1.2079
1.18646
1.1649
1.14323
1.12144
1.09955
1.07756
1.05547
1.03328
1.01099
0.988623
0.966166
0.943624
0.921001
0.898297
0.875512
0.852648
0.829704
0.806677
0.783564
0.760363
0.737067
0.713669
0.690161
0.666531
0.642764
0.618844
0.59475
0.570455
0.545929
0.521133
0.496019
0.470526
0.444577
0.418067
0.390851
0.362718
0.333339
0.302166
0.268143
0.22884
0.176865
0.0800034
0.163668
0.372388
0.491989
0.586408
0.670491
0.748973
0.823771
0.895777
0.965444
1.03303
1.09869
1.16254
1.22467
1.28515
1.34403
1.40138
1.45722
1.51161
1.56456
1.6161
1.66624
1.71499
1.76236
1.80834
1.85294
1.89615
1.93798
1.9784
2.01743
2.05505
2.09127
2.12608
2.15948
2.19149
2.2221
2.25133
2.27919
2.30568
2.33083
2.35465
2.37716
2.39839
2.41836
2.43709
2.4546
2.47094
2.48613
2.50019
2.51315
2.52505
2.53592
2.54579
2.55468
2.56264
2.56968
2.57585
2.58116
2.58566
2.58937
2.59231
2.59452
2.59602
2.59685
2.59702
2.59655
2.59549
2.59384
2.59163
2.58888
2.58562
2.58185
2.57761
2.57292
2.56778
2.56222
2.55625
2.54989
2.54315
2.53605
2.5286
2.52081
2.5127
2.50428
2.49556
2.48655
2.47725
2.46769
2.45786
2.44778
2.43745
2.42688
2.41609
2.40506
2.39381
2.38235
2.37068
2.3588
2.34673
2.33445
2.32198
2.30933
2.29648
2.28345
2.27023
2.25684
2.24326
2.22951
2.21558
2.20147
2.18719
2.17274
2.15811
2.1433
2.12832
2.11317
2.09785
2.08234
2.06667
2.05082
2.03479
2.01858
2.0022
1.98563
1.96889
1.95197
1.93487
1.91758
1.90011
1.88246
1.86463
1.84661
1.82841
1.81002
1.79145
1.77269
1.75375
1.73463
1.71532
1.69582
1.67615
1.65629
1.63626
1.61604
1.59565
1.57508
1.55433
1.53342
1.51234
1.49109
1.46967
1.4481
1.42637
1.40448
1.38245
1.36026
1.33794
1.31547
1.29287
1.27014
1.24728
1.22429
1.20119
1.17798
1.15465
1.13121
1.10768
1.08404
1.0603
1.03647
1.01255
0.988544
0.964446
0.940261
0.91599
0.891631
0.867184
0.842645
0.818012
0.793279
0.76844
0.743487
0.718409
0.693192
0.667822
0.642278
0.616536
0.590566
0.56433
0.537781
0.510856
0.483476
0.455527
0.426852
0.397214
0.366233
0.333261
0.297071
0.254843
0.19811
0.090128
0.16367
0.37239
0.491989
0.586408
0.670491
0.748972
0.823771
0.895776
0.965443
1.03303
1.09869
1.16254
1.22467
1.28514
1.34403
1.40137
1.45722
1.51161
1.56456
1.6161
1.66624
1.71499
1.76236
1.80834
1.85294
1.89615
1.93798
1.9784
2.01743
2.05505
2.09127
2.12608
2.15948
2.19149
2.2221
2.25133
2.27918
2.30568
2.33083
2.35465
2.37716
2.39839
2.41835
2.43708
2.4546
2.47094
2.48612
2.50018
2.51315
2.52505
2.53592
2.54579
2.55468
2.56264
2.56968
2.57585
2.58116
2.58566
2.58937
2.59231
2.59452
2.59602
2.59685
2.59701
2.59655
2.59549
2.59384
2.59163
2.58888
2.58561
2.58185
2.57761
2.57292
2.56778
2.56222
2.55625
2.54988
2.54315
2.53605
2.5286
2.52081
2.5127
2.50428
2.49556
2.48655
2.47725
2.46769
2.45786
2.44778
2.43745
2.42688
2.41608
2.40506
2.39381
2.38235
2.37068
2.3588
2.34673
2.33445
2.32198
2.30932
2.29648
2.28345
2.27023
2.25684
2.24326
2.22951
2.21558
2.20147
2.18719
2.17274
2.15811
2.1433
2.12832
2.11317
2.09785
2.08234
2.06667
2.05081
2.03479
2.01858
2.0022
1.98563
1.96889
1.95197
1.93486
1.91758
1.90011
1.88246
1.86463
1.84661
1.82841
1.81002
1.79145
1.77269
1.75375
1.73463
1.71532
1.69582
1.67615
1.65629
1.63625
1.61604
1.59564
1.57508
1.55433
1.53342
1.51234
1.49109
1.46967
1.4481
1.42637
1.40448
1.38245
1.36026
1.33794
1.31547
1.29287
1.27014
1.24728
1.22429
1.20119
1.17798
1.15465
1.13121
1.10768
1.08404
1.0603
1.03647
1.01255
0.988543
0.964446
0.940261
0.915989
0.891631
0.867183
0.842645
0.818012
0.793279
0.76844
0.743487
0.718408
0.693192
0.667822
0.642278
0.616536
0.590566
0.56433
0.53778
0.510856
0.483476
0.455527
0.426852
0.397214
0.366233
0.333261
0.297071
0.254843
0.19811
0.090128
0.182261
0.412403
0.543133
0.645322
0.735602
0.819371
0.898863
0.975134
1.04873
1.11996
1.18902
1.25604
1.32113
1.38436
1.44581
1.50555
1.56364
1.62011
1.67501
1.72838
1.78024
1.83061
1.87951
1.92694
1.97292
2.01745
2.06053
2.10216
2.14234
2.18107
2.21835
2.25419
2.28858
2.32154
2.35306
2.38317
2.41187
2.43917
2.4651
2.48966
2.51288
2.53479
2.55539
2.57473
2.59283
2.6097
2.62539
2.63993
2.65333
2.66564
2.67689
2.6871
2.6963
2.70454
2.71183
2.71821
2.72372
2.72838
2.73221
2.73526
2.73755
2.7391
2.73994
2.7401
2.73961
2.73849
2.73676
2.73445
2.73157
2.72816
2.72422
2.71979
2.71488
2.70951
2.70369
2.69745
2.6908
2.68375
2.67632
2.66852
2.66037
2.65189
2.64307
2.63394
2.6245
2.61477
2.60475
2.59445
2.58389
2.57306
2.56199
2.55067
2.53911
2.52731
2.51529
2.50305
2.4906
2.47793
2.46505
2.45197
2.43869
2.42521
2.41153
2.39766
2.3836
2.36936
2.35492
2.3403
2.32549
2.3105
2.29532
2.27996
2.26442
2.24869
2.23278
2.21669
2.20042
2.18396
2.16731
2.15048
2.13347
2.11626
2.09887
2.0813
2.06353
2.04557
2.02743
2.00909
1.99056
1.97184
1.95292
1.93381
1.91451
1.89502
1.87533
1.85545
1.83538
1.81511
1.79465
1.774
1.75316
1.73214
1.71092
1.68952
1.66793
1.64617
1.62422
1.60209
1.57979
1.55732
1.53468
1.51188
1.48891
1.46578
1.4425
1.41906
1.39548
1.37175
1.34789
1.32389
1.29975
1.27549
1.25111
1.22661
1.20199
1.17726
1.15242
1.12747
1.10242
1.07728
1.05203
1.02669
1.00125
0.975716
0.950088
0.924363
0.898541
0.872617
0.846586
0.820444
0.794183
0.767793
0.741262
0.714575
0.687713
0.660653
0.633365
0.605812
0.577945
0.549701
0.520992
0.491696
0.461637
0.430548
0.397999
0.363246
0.324886
0.279745
0.218373
0.0997978
0.182263
0.412404
0.543134
0.645322
0.735602
0.819371
0.898863
0.975133
1.04873
1.11996
1.18902
1.25604
1.32113
1.38436
1.44581
1.50555
1.56364
1.62011
1.67501
1.72838
1.78024
1.83061
1.87951
1.92694
1.97292
2.01745
2.06053
2.10215
2.14233
2.18106
2.21835
2.25418
2.28858
2.32154
2.35306
2.38317
2.41187
2.43917
2.4651
2.48966
2.51288
2.53478
2.55539
2.57473
2.59282
2.6097
2.62539
2.63993
2.65333
2.66564
2.67689
2.68709
2.6963
2.70453
2.71183
2.71821
2.72372
2.72838
2.73221
2.73526
2.73754
2.7391
2.73994
2.7401
2.73961
2.73849
2.73676
2.73444
2.73157
2.72816
2.72422
2.71979
2.71488
2.70951
2.70369
2.69745
2.69079
2.68375
2.67632
2.66852
2.66037
2.65189
2.64307
2.63394
2.6245
2.61476
2.60474
2.59445
2.58389
2.57306
2.56199
2.55066
2.5391
2.52731
2.51529
2.50305
2.4906
2.47793
2.46505
2.45197
2.43869
2.42521
2.41153
2.39766
2.3836
2.36935
2.35492
2.3403
2.32549
2.3105
2.29532
2.27996
2.26442
2.24869
2.23278
2.21669
2.20042
2.18396
2.16731
2.15048
2.13347
2.11626
2.09887
2.08129
2.06353
2.04557
2.02742
2.00909
1.99056
1.97183
1.95292
1.93381
1.91451
1.89502
1.87533
1.85545
1.83538
1.81511
1.79465
1.774
1.75316
1.73214
1.71092
1.68952
1.66793
1.64617
1.62422
1.60209
1.57979
1.55732
1.53468
1.51188
1.48891
1.46578
1.4425
1.41906
1.39548
1.37175
1.34789
1.32389
1.29975
1.27549
1.25111
1.22661
1.20199
1.17726
1.15242
1.12747
1.10242
1.07727
1.05203
1.02669
1.00125
0.975715
0.950087
0.924363
0.89854
0.872616
0.846586
0.820444
0.794183
0.767793
0.741262
0.714575
0.687713
0.660653
0.633365
0.605812
0.577945
0.549701
0.520992
0.491696
0.461637
0.430548
0.397999
0.363246
0.324887
0.279746
0.218373
0.0997978
0.200564
0.45195
0.593735
0.70369
0.800157
0.889158
0.973229
1.05359
1.13089
1.2055
1.27765
1.3475
1.41518
1.4808
1.54443
1.60617
1.66608
1.72423
1.78067
1.83545
1.88861
1.94019
1.99021
2.03869
2.08565
2.1311
2.17505
2.2175
2.25847
2.29795
2.33595
2.37248
2.40754
2.44114
2.47329
2.50399
2.53326
2.56112
2.58758
2.61265
2.63637
2.65874
2.6798
2.69957
2.71808
2.73534
2.7514
2.76628
2.78001
2.79262
2.80414
2.81461
2.82405
2.8325
2.83999
2.84654
2.8522
2.85698
2.86093
2.86406
2.86642
2.86801
2.86888
2.86905
2.86855
2.86739
2.86561
2.86322
2.86026
2.85674
2.85268
2.84811
2.84303
2.83748
2.83148
2.82502
2.81814
2.81085
2.80317
2.7951
2.78667
2.77788
2.76875
2.75929
2.74951
2.73942
2.72904
2.71836
2.70741
2.69618
2.68469
2.67294
2.66094
2.6487
2.63622
2.62351
2.61058
2.59742
2.58404
2.57045
2.55665
2.54264
2.52842
2.514
2.49939
2.48457
2.46956
2.45436
2.43895
2.42336
2.40758
2.3916
2.37543
2.35907
2.34252
2.32577
2.30884
2.29171
2.27439
2.25687
2.23916
2.22126
2.20316
2.18487
2.16637
2.14769
2.1288
2.10971
2.09042
2.07094
2.05125
2.03136
2.01127
1.99098
1.97049
1.9498
1.9289
1.90781
1.88651
1.86502
1.84333
1.82144
1.79935
1.77708
1.75461
1.73195
1.7091
1.68606
1.66285
1.63945
1.61588
1.59213
1.56821
1.54412
1.51987
1.49546
1.47089
1.44617
1.4213
1.39629
1.37113
1.34584
1.32042
1.29486
1.26918
1.24338
1.21746
1.19143
1.16528
1.13902
1.11266
1.08619
1.05961
1.03293
1.00614
0.97925
0.952251
0.925142
0.897918
0.870576
0.843108
0.815505
0.787756
0.759846
0.731758
0.703469
0.674948
0.646158
0.617048
0.58755
0.557569
0.526972
0.495562
0.463041
0.428926
0.392388
0.351844
0.303793
0.237845
0.10906
0.200566
0.451952
0.593735
0.70369
0.800156
0.889157
0.973228
1.05359
1.13089
1.2055
1.27765
1.3475
1.41518
1.4808
1.54443
1.60617
1.66608
1.72423
1.78067
1.83545
1.88861
1.94019
1.99021
2.03869
2.08565
2.1311
2.17505
2.2175
2.25847
2.29795
2.33595
2.37248
2.40754
2.44114
2.47329
2.50399
2.53326
2.56112
2.58758
2.61265
2.63637
2.65874
2.6798
2.69957
2.71807
2.73534
2.7514
2.76628
2.78001
2.79262
2.80414
2.81461
2.82405
2.8325
2.83999
2.84654
2.8522
2.85698
2.86093
2.86406
2.86641
2.86801
2.86888
2.86905
2.86854
2.86739
2.86561
2.86322
2.86026
2.85674
2.85268
2.84811
2.84303
2.83748
2.83147
2.82502
2.81814
2.81085
2.80317
2.7951
2.78667
2.77788
2.76875
2.75929
2.74951
2.73942
2.72904
2.71836
2.70741
2.69618
2.68469
2.67294
2.66094
2.6487
2.63622
2.62351
2.61058
2.59742
2.58404
2.57045
2.55665
2.54264
2.52842
2.514
2.49939
2.48457
2.46956
2.45435
2.43895
2.42336
2.40757
2.3916
2.37543
2.35907
2.34251
2.32577
2.30883
2.29171
2.27439
2.25687
2.23916
2.22126
2.20316
2.18487
2.16637
2.14768
2.1288
2.10971
2.09042
2.07094
2.05125
2.03136
2.01127
1.99098
1.97049
1.9498
1.9289
1.90781
1.88651
1.86502
1.84333
1.82144
1.79935
1.77708
1.75461
1.73195
1.7091
1.68606
1.66285
1.63945
1.61588
1.59213
1.56821
1.54412
1.51987
1.49546
1.47089
1.44617