/*--------------------------------*- C++ -*----------------------------------*\
  =========                 |
  \\      /  F ield         | OpenFOAM: The Open Source CFD Toolbox
   \\    /   O peration     | Website:  https://openfoam.org
    \\  /    A nd           | Version:  8
     \\/     M anipulation  |
\*---------------------------------------------------------------------------*/
FoamFile
{
    version     2.0;
    format      ascii;
    class       volScalarField;
    location    "2600";
    object      nut;
}
// * * * * * * * * * * * * * * * * * * * * * * * * * * * * * * * * * * * * * //

dimensions      [0 2 -1 0 0 0 0];

internalField   nonuniform List<scalar> 
48000
(
9.82418e-05
7.51523e-05
9.33143e-05
0.000106749
0.000117889
0.000127246
0.000135347
0.000142623
0.000149332
0.000155478
0.000161197
0.000166552
0.000171592
0.000176357
0.000180875
0.000185172
0.000189266
0.000193173
0.000196905
0.000200473
0.000203886
0.000207151
0.000210275
0.000213264
0.000216123
0.000218857
0.000221469
0.000223964
0.000226345
0.000228616
0.000230779
0.000232839
0.000234798
0.000236659
0.000238425
0.000240099
0.000241683
0.000243181
0.000244595
0.000245927
0.00024718
0.000248357
0.00024946
0.000250491
0.000251452
0.000252349
0.000253192
0.000253972
0.000254693
0.000255354
0.00025596
0.000256511
0.00025701
0.000257459
0.00025786
0.000258215
0.000258526
0.000258794
0.00025902
0.000259208
0.000259357
0.000259471
0.000259549
0.000259594
0.000259606
0.000259588
0.00025954
0.000259463
0.000259358
0.000259227
0.000259071
0.00025889
0.000258685
0.000258457
0.000258208
0.000257937
0.000257645
0.000257334
0.000257003
0.000256654
0.000256287
0.000255903
0.000255501
0.000255084
0.00025465
0.0002542
0.000253735
0.000253256
0.000252762
0.000252253
0.000251731
0.000251195
0.000250646
0.000250083
0.000249507
0.000248919
0.000248317
0.000247703
0.000247077
0.000246438
0.000245786
0.000245122
0.000244446
0.000243757
0.000243056
0.000242343
0.000241617
0.000240879
0.000240128
0.000239364
0.000238587
0.000237798
0.000236995
0.000236179
0.00023535
0.000234507
0.000233651
0.00023278
0.000231896
0.000230997
0.000230083
0.000229154
0.000228211
0.000227252
0.000226277
0.000225287
0.00022428
0.000223257
0.000222217
0.000221161
0.000220087
0.000218995
0.000217885
0.000216758
0.000215611
0.000214446
0.000213262
0.000212059
0.000210835
0.000209592
0.000208328
0.000207044
0.000205738
0.000204412
0.000203063
0.000201693
0.000200301
0.000198886
0.000197448
0.000195987
0.000194503
0.000192994
0.000191462
0.000189905
0.000188324
0.000186717
0.000185086
0.000183428
0.000181744
0.000180033
0.000178296
0.000176531
0.000174738
0.000172917
0.000171066
0.000169186
0.000167276
0.000165334
0.000163361
0.000161354
0.000159314
0.000157238
0.000155126
0.000152975
0.000150785
0.000148552
0.000146276
0.000143952
0.000141578
0.00013915
0.000136665
0.000134119
0.000131511
0.000128851
0.000126114
0.000123278
0.000120331
0.000117256
0.00011403
0.000110625
0.000107004
0.000103118
9.89205e-05
9.43434e-05
8.92082e-05
8.32545e-05
7.5895e-05
6.52544e-05
4.51984e-05
4.86652e-05
9.82266e-05
7.51469e-05
9.33157e-05
0.00010675
0.000117889
0.000127247
0.000135347
0.000142624
0.000149332
0.000155478
0.000161197
0.000166552
0.000171592
0.000176357
0.000180876
0.000185173
0.000189267
0.000193173
0.000196905
0.000200473
0.000203886
0.000207151
0.000210275
0.000213264
0.000216123
0.000218857
0.000221469
0.000223964
0.000226345
0.000228616
0.000230779
0.000232839
0.000234798
0.000236659
0.000238425
0.000240099
0.000241683
0.000243181
0.000244595
0.000245927
0.00024718
0.000248357
0.00024946
0.000250491
0.000251452
0.000252349
0.000253192
0.000253972
0.000254693
0.000255354
0.00025596
0.000256511
0.00025701
0.000257459
0.00025786
0.000258215
0.000258526
0.000258793
0.00025902
0.000259208
0.000259357
0.000259471
0.000259549
0.000259594
0.000259606
0.000259588
0.00025954
0.000259463
0.000259358
0.000259227
0.000259071
0.00025889
0.000258685
0.000258457
0.000258208
0.000257937
0.000257645
0.000257334
0.000257003
0.000256654
0.000256287
0.000255903
0.000255501
0.000255084
0.00025465
0.0002542
0.000253735
0.000253256
0.000252762
0.000252253
0.000251731
0.000251195
0.000250646
0.000250083
0.000249507
0.000248919
0.000248317
0.000247703
0.000247077
0.000246438
0.000245786
0.000245122
0.000244446
0.000243757
0.000243056
0.000242343
0.000241617
0.000240879
0.000240128
0.000239364
0.000238587
0.000237798
0.000236995
0.000236179
0.00023535
0.000234507
0.000233651
0.00023278
0.000231896
0.000230996
0.000230083
0.000229154
0.000228211
0.000227252
0.000226277
0.000225287
0.00022428
0.000223257
0.000222217
0.000221161
0.000220086
0.000218995
0.000217885
0.000216758
0.000215611
0.000214446
0.000213262
0.000212059
0.000210835
0.000209592
0.000208328
0.000207044
0.000205738
0.000204411
0.000203063
0.000201693
0.000200301
0.000198886
0.000197448
0.000195987
0.000194502
0.000192994
0.000191462
0.000189905
0.000188324
0.000186717
0.000185086
0.000183428
0.000181744
0.000180033
0.000178296
0.000176531
0.000174738
0.000172917
0.000171066
0.000169186
0.000167276
0.000165334
0.000163361
0.000161354
0.000159314
0.000157238
0.000155126
0.000152975
0.000150785
0.000148552
0.000146276
0.000143952
0.000141578
0.00013915
0.000136665
0.000134119
0.000131511
0.000128851
0.000126114
0.000123278
0.000120331
0.000117256
0.00011403
0.000110625
0.000107005
0.000103118
9.89206e-05
9.43437e-05
8.92091e-05
8.32587e-05
7.59135e-05
6.53076e-05
4.51685e-05
4.8542e-05
6.55202e-05
0.000481618
0.000765396
0.000962988
0.00111065
0.00123181
0.00133561
0.00142671
0.00150792
0.00158164
0.0016492
0.00171161
0.00176964
0.00182386
0.00187475
0.00192267
0.00196792
0.00201075
0.00205137
0.00208994
0.00212663
0.00216154
0.0021948
0.0022265
0.00225673
0.00228556
0.00231306
0.00233928
0.00236429
0.00238813
0.00241086
0.0024325
0.00245311
0.00247273
0.00249138
0.0025091
0.00252592
0.00254188
0.002557
0.00257131
0.00258483
0.0025976
0.00260964
0.00262095
0.00263155
0.00264137
0.00265041
0.0026588
0.00266659
0.00267383
0.00268054
0.00268674
0.00269245
0.00269769
0.00270247
0.00270682
0.00271074
0.00271426
0.00271738
0.00272012
0.00272249
0.00272451
0.00272619
0.00272753
0.00272856
0.00272928
0.0027297
0.00272983
0.00272968
0.00272927
0.00272859
0.00272766
0.00272649
0.00272507
0.00272343
0.00272157
0.00271948
0.00271719
0.00271469
0.00271199
0.00270909
0.00270601
0.00270274
0.00269929
0.00269566
0.00269186
0.00268789
0.00268376
0.00267946
0.00267499
0.00267037
0.0026656
0.00266067
0.00265559
0.00265036
0.00264498
0.00263945
0.00263377
0.00262795
0.00262198
0.00261587
0.00260962
0.00260322
0.00259667
0.00258998
0.00258315
0.00257617
0.00256904
0.00256177
0.00255434
0.00254677
0.00253905
0.00253117
0.00252314
0.00251496
0.00250662
0.00249812
0.00248946
0.00248063
0.00247164
0.00246248
0.00245315
0.00244365
0.00243397
0.00242412
0.00241408
0.00240386
0.00239346
0.00238286
0.00237208
0.0023611
0.00234992
0.00233853
0.00232695
0.00231516
0.00230315
0.00229094
0.0022785
0.00226585
0.00225297
0.00223987
0.00222654
0.00221297
0.00219917
0.00218513
0.00217085
0.00215632
0.00214155
0.00212652
0.00211124
0.00209569
0.00207989
0.00206381
0.00204747
0.00203086
0.00201396
0.00199679
0.00197933
0.00196157
0.00194352
0.00192517
0.00190651
0.00188754
0.00186824
0.00184862
0.00182866
0.00180835
0.00178769
0.00176666
0.00174524
0.00172343
0.00170121
0.00167856
0.00165545
0.00163187
0.00160778
0.00158315
0.00155794
0.00153212
0.00150561
0.00147836
0.00145025
0.00142116
0.0013909
0.00135941
0.00132662
0.00129238
0.00125646
0.00121855
0.00117825
0.00113495
0.0010877
0.00103476
0.000974403
0.00090444
0.000820352
0.000713221
0.000563039
0.000321198
3.02337e-05
6.55143e-05
0.000481633
0.000765414
0.000963015
0.00111068
0.00123184
0.00133564
0.00142674
0.00150794
0.00158167
0.00164923
0.00171164
0.00176966
0.00182389
0.00187478
0.0019227
0.00196795
0.00201077
0.00205139
0.00208996
0.00212664
0.00216156
0.00219482
0.00222652
0.00225675
0.00228558
0.00231307
0.0023393
0.00236431
0.00238815
0.00241087
0.00243252
0.00245313
0.00247274
0.00249139
0.00250911
0.00252593
0.00254189
0.00255701
0.00257132
0.00258484
0.00259761
0.00260965
0.00262096
0.00263156
0.00264138
0.00265042
0.00265881
0.0026666
0.00267384
0.00268055
0.00268675
0.00269246
0.0026977
0.00270248
0.00270683
0.00271075
0.00271426
0.00271739
0.00272013
0.0027225
0.00272452
0.00272619
0.00272754
0.00272857
0.00272929
0.00272971
0.00272984
0.00272969
0.00272928
0.0027286
0.00272767
0.0027265
0.00272508
0.00272344
0.00272157
0.00271949
0.0027172
0.0027147
0.002712
0.0027091
0.00270602
0.00270275
0.0026993
0.00269567
0.00269187
0.0026879
0.00268376
0.00267946
0.002675
0.00267038
0.00266561
0.00266068
0.0026556
0.00265036
0.00264498
0.00263945
0.00263378
0.00262796
0.00262199
0.00261588
0.00260962
0.00260322
0.00259668
0.00258999
0.00258315
0.00257617
0.00256905
0.00256177
0.00255435
0.00254678
0.00253906
0.00253118
0.00252315
0.00251497
0.00250663
0.00249812
0.00248946
0.00248064
0.00247165
0.00246249
0.00245316
0.00244366
0.00243398
0.00242413
0.00241409
0.00240387
0.00239347
0.00238287
0.00237208
0.0023611
0.00234992
0.00233854
0.00232696
0.00231516
0.00230316
0.00229094
0.00227851
0.00226586
0.00225298
0.00223988
0.00222654
0.00221298
0.00219918
0.00218514
0.00217086
0.00215633
0.00214155
0.00212653
0.00211124
0.0020957
0.00207989
0.00206382
0.00204748
0.00203086
0.00201397
0.00199679
0.00197933
0.00196158
0.00194353
0.00192518
0.00190652
0.00188754
0.00186825
0.00184863
0.00182867
0.00180836
0.00178769
0.00176666
0.00174525
0.00172344
0.00170122
0.00167856
0.00165546
0.00163187
0.00160778
0.00158316
0.00155795
0.00153212
0.00150562
0.00147836
0.00145026
0.00142117
0.0013909
0.00135941
0.00132663
0.00129239
0.00125646
0.00121856
0.00117825
0.00113495
0.00108771
0.00103477
0.000974409
0.000904452
0.00082038
0.000713262
0.000562981
0.000321163
3.02484e-05
8.01578e-05
0.000730159
0.00129856
0.0017225
0.00205744
0.0023357
0.00257495
0.00278529
0.00297316
0.00314308
0.00329819
0.00344082
0.00357275
0.00369538
0.00380981
0.00391696
0.00401758
0.00411229
0.00420164
0.00428609
0.00436603
0.00444181
0.00451372
0.00458204
0.004647
0.0047088
0.00476764
0.00482368
0.00487707
0.00492795
0.00497645
0.00502266
0.00506671
0.00510867
0.00514865
0.00518672
0.00522296
0.00525744
0.00529022
0.00532137
0.00535095
0.005379
0.00540557
0.00543071
0.00545442
0.00547671
0.00549755
0.00551711
0.00553547
0.00555269
0.00556883
0.00558393
0.00559803
0.00561117
0.00562338
0.0056347
0.00564516
0.00565478
0.00566359
0.00567163
0.00567891
0.00568546
0.0056913
0.00569646
0.00570096
0.00570481
0.00570805
0.00571068
0.00571272
0.0057142
0.00571512
0.00571551
0.00571538
0.00571475
0.00571362
0.00571201
0.00570993
0.00570739
0.00570442
0.005701
0.00569716
0.00569291
0.00568825
0.0056832
0.00567775
0.00567192
0.00566571
0.00565913
0.00565219
0.00564489
0.00563723
0.00562923
0.00562088
0.00561218
0.00560315
0.00559378
0.00558408
0.00557405
0.00556368
0.00555299
0.00554197
0.00553062
0.00551894
0.00550694
0.00549461
0.00548195
0.00546896
0.00545563
0.00544198
0.00542798
0.00541365
0.00539898
0.00538396
0.0053686
0.00535289
0.00533682
0.00532039
0.0053036
0.00528644
0.00526891
0.005251
0.00523271
0.00521403
0.00519496
0.00517549
0.00515562
0.00513533
0.00511463
0.00509351
0.00507195
0.00504996
0.00502753
0.00500465
0.00498131
0.0049575
0.00493323
0.00490848
0.00488324
0.00485752
0.00483129
0.00480455
0.0047773
0.00474953
0.00472123
0.00469238
0.00466299
0.00463305
0.00460254
0.00457145
0.00453978
0.00450753
0.00447466
0.00444119
0.00440709
0.00437236
0.00433698
0.00430094
0.00426423
0.00422683
0.00418872
0.0041499
0.00411034
0.00407002
0.00402892
0.00398701
0.00394428
0.00390069
0.0038562
0.0038108
0.00376443
0.00371705
0.00366861
0.00361906
0.00356834
0.00351636
0.00346305
0.00340832
0.00335204
0.0032941
0.00323432
0.00317252
0.00310846
0.00304185
0.00297235
0.00289965
0.00282336
0.00274292
0.00265763
0.00256657
0.00246853
0.00236181
0.00224407
0.00211186
0.00196043
0.00178409
0.00157308
0.00131167
0.000974558
0.000529884
5.83733e-05
8.01584e-05
0.000730175
0.0012986
0.00172255
0.0020575
0.00233576
0.00257501
0.00278536
0.00297322
0.00314314
0.00329824
0.00344088
0.00357281
0.00369543
0.00380986
0.00391701
0.00401762
0.00411234
0.00420168
0.00428613
0.00436607
0.00444184
0.00451375
0.00458207
0.00464703
0.00470883
0.00476767
0.00482371
0.0048771
0.00492798
0.00497647
0.00502268
0.00506673
0.00510869
0.00514867
0.00518674
0.00522298
0.00525746
0.00529024
0.00532139
0.00535096
0.00537901
0.00540559
0.00543072
0.00545443
0.00547672
0.00549756
0.00551712
0.00553548
0.0055527
0.00556884
0.00558394
0.00559804
0.00561118
0.00562339
0.00563471
0.00564516
0.00565478
0.0056636
0.00567163
0.00567891
0.00568546
0.0056913
0.00569646
0.00570096
0.00570482
0.00570805
0.00571068
0.00571272
0.0057142
0.00571513
0.00571552
0.00571539
0.00571475
0.00571362
0.00571201
0.00570993
0.0057074
0.00570442
0.00570101
0.00569717
0.00569291
0.00568826
0.0056832
0.00567775
0.00567192
0.00566571
0.00565913
0.00565219
0.00564489
0.00563723
0.00562923
0.00562088
0.00561218
0.00560315
0.00559378
0.00558408
0.00557405
0.00556368
0.00555299
0.00554197
0.00553062
0.00551895
0.00550694
0.00549461
0.00548195
0.00546896
0.00545563
0.00544198
0.00542798
0.00541365
0.00539898
0.00538397
0.0053686
0.00535289
0.00533682
0.00532039
0.0053036
0.00528644
0.00526891
0.005251
0.00523271
0.00521403
0.00519496
0.00517549
0.00515562
0.00513533
0.00511463
0.00509351
0.00507195
0.00504996
0.00502753
0.00500465
0.00498131
0.0049575
0.00493323
0.00490848
0.00488324
0.00485752
0.00483129
0.00480455
0.0047773
0.00474953
0.00472122
0.00469238
0.00466299
0.00463305
0.00460253
0.00457145
0.00453978
0.00450752
0.00447466
0.00444119
0.00440709
0.00437236
0.00433698
0.00430094
0.00426423
0.00422683
0.00418872
0.0041499
0.00411034
0.00407002
0.00402891
0.00398701
0.00394428
0.00390068
0.0038562
0.0038108
0.00376443
0.00371705
0.00366861
0.00361906
0.00356834
0.00351636
0.00346305
0.00340832
0.00335204
0.0032941
0.00323432
0.00317252
0.00310846
0.00304185
0.00297235
0.00289965
0.00282336
0.00274292
0.00265763
0.00256657
0.00246853
0.00236181
0.00224407
0.00211186
0.00196043
0.0017841
0.00157311
0.00131173
0.000974559
0.000529862
5.8329e-05
9.08959e-05
0.000878465
0.00165175
0.00226544
0.00276699
0.0031908
0.00355838
0.00388337
0.00417486
0.00443921
0.004681
0.00490363
0.00510974
0.00530139
0.00548026
0.00564772
0.00580491
0.00595279
0.0060922
0.00622386
0.00634838
0.00646631
0.00657815
0.00668431
0.00678518
0.00688111
0.00697239
0.00705931
0.00714212
0.00722105
0.00729629
0.00736804
0.00743646
0.00750173
0.00756397
0.00762334
0.00767994
0.00773389
0.00778531
0.00783429
0.00788091
0.00792527
0.00796744
0.00800749
0.00804545
0.00808138
0.0081153
0.00814736
0.00817764
0.00820623
0.0082332
0.00825862
0.00828255
0.00830505
0.00832616
0.00834594
0.00836443
0.00838168
0.00839772
0.0084126
0.00842635
0.00843901
0.00845061
0.00846119
0.00847077
0.00847939
0.00848707
0.00849384
0.00849974
0.00850477
0.00850897
0.00851235
0.00851495
0.00851678
0.00851785
0.00851819
0.00851782
0.00851675
0.008515
0.00851258
0.00850951
0.0085058
0.00850146
0.0084965
0.00849094
0.00848479
0.00847805
0.00847073
0.00846285
0.00845441
0.00844542
0.00843587
0.00842579
0.00841518
0.00840403
0.00839236
0.00838016
0.00836744
0.0083542
0.00834045
0.00832618
0.00831139
0.00829609
0.00828028
0.00826395
0.0082471
0.00822973
0.00821184
0.00819342
0.00817448
0.008155
0.00813499
0.00811444
0.00809334
0.00807169
0.00804948
0.00802671
0.00800337
0.00797945
0.00795495
0.00792986
0.00790416
0.00787786
0.00785094
0.0078234
0.00779522
0.0077664
0.00773693
0.00770679
0.00767598
0.00764448
0.00761229
0.00757939
0.00754578
0.00751143
0.00747635
0.00744052
0.00740392
0.00736655
0.00732839
0.00728943
0.00724965
0.00720905
0.0071676
0.0071253
0.00708213
0.00703807
0.00699311
0.00694723
0.00690042
0.00685266
0.00680393
0.0067542
0.00670347
0.0066517
0.00659888
0.00654498
0.00648998
0.00643384
0.00637654
0.00631804
0.00625832
0.00619732
0.00613502
0.00607136
0.0060063
0.00593978
0.00587175
0.00580213
0.00573085
0.00565783
0.00558297
0.00550618
0.00542733
0.00534629
0.00526291
0.00517701
0.00508838
0.00499678
0.00490193
0.0048035
0.00470108
0.0045942
0.0044823
0.00436475
0.00424076
0.00410934
0.00396925
0.00381885
0.00365606
0.0034781
0.00328134
0.00306084
0.0028099
0.00251996
0.00217882
0.00176902
0.00126699
0.000652803
6.71811e-05
9.08967e-05
0.000878487
0.0016518
0.00226551
0.00276707
0.00319089
0.00355846
0.00388346
0.00417495
0.0044393
0.00468108
0.00490371
0.00510982
0.00530147
0.00548034
0.00564779
0.00580497
0.00595286
0.00609226
0.00622391
0.00634843
0.00646637
0.0065782
0.00668436
0.00678523
0.00688115
0.00697243
0.00705935
0.00714216
0.00722108
0.00729632
0.00736807
0.00743649
0.00750175
0.007564
0.00762336
0.00767996
0.00773391
0.00778533
0.0078343
0.00788093
0.00792529
0.00796746
0.0080075
0.00804546
0.00808139
0.00811531
0.00814737
0.00817765
0.00820623
0.00823321
0.00825863
0.00828256
0.00830505
0.00832617
0.00834595
0.00836444
0.00838168
0.00839773
0.0084126
0.00842635
0.00843901
0.00845061
0.00846119
0.00847077
0.00847939
0.00848707
0.00849385
0.00849974
0.00850477
0.00850897
0.00851235
0.00851495
0.00851677
0.00851785
0.00851819
0.00851782
0.00851675
0.008515
0.00851258
0.00850951
0.00850579
0.00850145
0.0084965
0.00849094
0.00848478
0.00847804
0.00847073
0.00846285
0.00845441
0.00844541
0.00843587
0.00842579
0.00841517
0.00840403
0.00839235
0.00838015
0.00836744
0.0083542
0.00834044
0.00832617
0.00831139
0.00829609
0.00828027
0.00826394
0.00824709
0.00822972
0.00821183
0.00819342
0.00817447
0.008155
0.00813498
0.00811443
0.00809333
0.00807168
0.00804947
0.0080267
0.00800336
0.00797945
0.00795494
0.00792985
0.00790416
0.00787786
0.00785094
0.00782339
0.00779522
0.00776639
0.00773692
0.00770678
0.00767597
0.00764447
0.00761228
0.00757938
0.00754577
0.00751143
0.00747635
0.00744051
0.00740392
0.00736654
0.00732838
0.00728942
0.00724964
0.00720904
0.00716759
0.00712529
0.00708212
0.00703806
0.0069931
0.00694723
0.00690041
0.00685265
0.00680392
0.00675419
0.00670346
0.00665169
0.00659887
0.00654497
0.00648997
0.00643383
0.00637653
0.00631803
0.00625831
0.00619731
0.00613501
0.00607135
0.00600629
0.00593978
0.00587174
0.00580212
0.00573084
0.00565782
0.00558297
0.00550617
0.00542732
0.00534629
0.0052629
0.005177
0.00508837
0.00499677
0.00490193
0.00480349
0.00470108
0.00459419
0.0044823
0.00436474
0.00424075
0.00410934
0.00396924
0.00381885
0.00365606
0.00347809
0.00328134
0.00306084
0.00280989
0.00251996
0.00217882
0.00176902
0.00126696
0.000652772
6.71708e-05
9.95679e-05
0.000980412
0.00190385
0.00266816
0.00330758
0.00385546
0.00433486
0.00476143
0.00514596
0.00549613
0.00581755
0.00611445
0.00639009
0.00664705
0.0068874
0.00711287
0.00732487
0.00752463
0.00771319
0.00789146
0.00806022
0.0082202
0.008372
0.00851619
0.00865328
0.0087837
0.00890787
0.00902617
0.00913892
0.00924644
0.00934901
0.00944688
0.00954029
0.00962945
0.00971458
0.00979584
0.00987342
0.00994747
0.0100181
0.0100856
0.0101499
0.0102112
0.0102696
0.0103252
0.0103781
0.0104284
0.0104761
0.0105214
0.0105643
0.010605
0.0106436
0.0106802
0.0107147
0.0107474
0.0107783
0.0108073
0.0108347
0.0108605
0.0108846
0.0109072
0.0109283
0.010948
0.0109663
0.0109832
0.0109988
0.0110132
0.0110263
0.0110382
0.0110489
0.0110585
0.011067
0.0110744
0.0110808
0.0110861
0.0110904
0.0110938
0.0110962
0.0110977
0.0110982
0.0110979
0.0110967
0.0110947
0.0110918
0.011088
0.0110835
0.0110782
0.011072
0.0110652
0.0110575
0.0110491
0.0110399
0.01103
0.0110194
0.0110081
0.010996
0.0109832
0.0109698
0.0109556
0.0109407
0.0109251
0.0109088
0.0108918
0.0108741
0.0108558
0.0108367
0.0108169
0.0107964
0.0107752
0.0107533
0.0107307
0.0107074
0.0106833
0.0106585
0.0106329
0.0106066
0.0105796
0.0105518
0.0105232
0.0104939
0.0104637
0.0104327
0.010401
0.0103684
0.0103349
0.0103007
0.0102655
0.0102295
0.0101926
0.0101548
0.0101161
0.0100764
0.0100358
0.0099943
0.00995177
0.00990825
0.00986372
0.00981817
0.00977157
0.00972392
0.00967519
0.00962536
0.00957441
0.00952233
0.00946909
0.00941468
0.00935906
0.00930222
0.00924414
0.00918479
0.00912414
0.00906216
0.00899884
0.00893413
0.00886802
0.00880045
0.00873141
0.00866084
0.00858872
0.008515
0.00843962
0.00836255
0.00828373
0.0082031
0.00812059
0.00803613
0.00794966
0.00786108
0.00777031
0.00767723
0.00758175
0.00748373
0.00738303
0.0072795
0.00717295
0.00706318
0.00694996
0.00683303
0.00671207
0.00658673
0.0064566
0.00632118
0.0061799
0.00603207
0.0058769
0.00571342
0.00554047
0.00535662
0.00516008
0.00494862
0.00471938
0.00446874
0.00419203
0.00388317
0.00353434
0.00313544
0.0026736
0.002132
0.00149123
0.000744003
7.38593e-05
9.95685e-05
0.000980436
0.00190391
0.00266824
0.00330768
0.00385556
0.00433497
0.00476154
0.00514607
0.00549624
0.00581766
0.00611455
0.00639019
0.00664715
0.0068875
0.00711296
0.00732496
0.00752472
0.00771327
0.00789153
0.0080603
0.00822027
0.00837207
0.00851626
0.00865334
0.00878376
0.00890793
0.00902622
0.00913897
0.00924649
0.00934905
0.00944692
0.00954033
0.00962949
0.00971461
0.00979587
0.00987345
0.0099475
0.0100182
0.0100856
0.0101499
0.0102112
0.0102696
0.0103252
0.0103781
0.0104284
0.0104761
0.0105214
0.0105643
0.0106051
0.0106436
0.0106802
0.0107147
0.0107474
0.0107783
0.0108073
0.0108347
0.0108605
0.0108846
0.0109072
0.0109283
0.010948
0.0109663
0.0109832
0.0109988
0.0110132
0.0110263
0.0110382
0.0110489
0.0110585
0.011067
0.0110744
0.0110808
0.0110861
0.0110904
0.0110938
0.0110962
0.0110977
0.0110982
0.0110979
0.0110967
0.0110947
0.0110918
0.011088
0.0110835
0.0110782
0.011072
0.0110652
0.0110575
0.0110491
0.0110399
0.01103
0.0110194
0.0110081
0.010996
0.0109832
0.0109698
0.0109556
0.0109407
0.0109251
0.0109088
0.0108918
0.0108741
0.0108558
0.0108367
0.0108169
0.0107964
0.0107752
0.0107533
0.0107307
0.0107073
0.0106833
0.0106585
0.0106329
0.0106066
0.0105796
0.0105518
0.0105232
0.0104938
0.0104637
0.0104327
0.010401
0.0103684
0.0103349
0.0103007
0.0102655
0.0102295
0.0101926
0.0101548
0.0101161
0.0100764
0.0100358
0.00999429
0.00995176
0.00990824
0.00986371
0.00981816
0.00977156
0.00972391
0.00967518
0.00962535
0.0095744
0.00952232
0.00946908
0.00941466
0.00935905
0.00930221
0.00924413
0.00918477
0.00912412
0.00906215
0.00899883
0.00893412
0.008868
0.00880044
0.0087314
0.00866083
0.00858871
0.00851499
0.00843961
0.00836254
0.00828372
0.00820308
0.00812057
0.00803612
0.00794965
0.00786107
0.00777029
0.00767722
0.00758174
0.00748372
0.00738302
0.00727949
0.00717294
0.00706317
0.00694995
0.00683302
0.00671206
0.00658672
0.00645659
0.00632117
0.00617989
0.00603206
0.00587689
0.00571341
0.00554046
0.00535661
0.00516008
0.00494861
0.00471938
0.00446874
0.00419202
0.00388317
0.00353434
0.00313544
0.0026736
0.002132
0.00149122
0.000743991
7.38576e-05
0.000106957
0.0010619
0.00209956
0.00298267
0.00373428
0.00438552
0.00495984
0.00547392
0.00593962
0.00636553
0.00675802
0.00712189
0.00746084
0.00777783
0.00807523
0.00835498
0.00861871
0.0088678
0.00910344
0.00932666
0.00953838
0.00973941
0.00993045
0.0101122
0.0102851
0.0104499
0.0106069
0.0107566
0.0108995
0.0110358
0.011166
0.0112903
0.011409
0.0115224
0.0116308
0.0117344
0.0118334
0.011928
0.0120183
0.0121047
0.0121871
0.0122658
0.0123409
0.0124126
0.0124809
0.012546
0.0126079
0.0126669
0.012723
0.0127763
0.012827
0.0128752
0.0129209
0.0129642
0.0130053
0.0130442
0.013081
0.0131158
0.0131486
0.0131795
0.0132085
0.0132358
0.0132613
0.0132852
0.0133074
0.0133281
0.0133472
0.0133648
0.013381
0.0133958
0.0134092
0.0134213
0.013432
0.0134415
0.0134498
0.0134569
0.0134627
0.0134674
0.013471
0.0134735
0.0134749
0.0134752
0.0134745
0.0134727
0.01347
0.0134662
0.0134615
0.0134558
0.0134492
0.0134416
0.013433
0.0134236
0.0134133
0.013402
0.0133899
0.0133768
0.0133629
0.0133481
0.0133324
0.0133158
0.0132984
0.0132801
0.0132609
0.0132409
0.0132199
0.0131981
0.0131755
0.0131519
0.0131274
0.0131021
0.0130758
0.0130486
0.0130205
0.0129915
0.0129615
0.0129306
0.0128988
0.0128659
0.0128321
0.0127973
0.0127615
0.0127247
0.0126868
0.0126479
0.0126079
0.0125669
0.0125247
0.0124814
0.012437
0.0123914
0.0123447
0.0122968
0.0122477
0.0121973
0.0121457
0.0120928
0.0120386
0.0119831
0.0119263
0.0118681
0.0118085
0.0117475
0.011685
0.0116211
0.0115557
0.0114887
0.0114202
0.0113501
0.0112783
0.0112049
0.0111298
0.011053
0.0109744
0.010894
0.0108117
0.0107275
0.0106413
0.0105531
0.0104628
0.0103703
0.0102757
0.0101787
0.0100794
0.00997766
0.00987334
0.00976636
0.00965661
0.00954397
0.00942828
0.00930941
0.00918718
0.0090614
0.00893185
0.00879829
0.00866046
0.00851802
0.00837064
0.0082179
0.00805932
0.00789436
0.00772237
0.00754259
0.00735414
0.00715597
0.00694682
0.00672518
0.00648922
0.00623669
0.0059648
0.00567012
0.00534834
0.00499409
0.00460061
0.00415944
0.00365999
0.0030894
0.00243254
0.00167443
0.000818493
7.94374e-05
0.000106957
0.00106193
0.00209962
0.00298275
0.00373438
0.00438563
0.00495996
0.00547404
0.00593974
0.00636566
0.00675814
0.00712201
0.00746096
0.00777795
0.00807534
0.00835509
0.00861881
0.0088679
0.00910354
0.00932676
0.00953848
0.00973949
0.00993053
0.0101122
0.0102852
0.0104499
0.010607
0.0107567
0.0108995
0.0110359
0.011166
0.0112903
0.011409
0.0115225
0.0116309
0.0117345
0.0118334
0.011928
0.0120184
0.0121047
0.0121871
0.0122658
0.012341
0.0124126
0.0124809
0.012546
0.0126079
0.0126669
0.012723
0.0127763
0.012827
0.0128752
0.0129209
0.0129642
0.0130053
0.0130442
0.013081
0.0131158
0.0131486
0.0131795
0.0132085
0.0132358
0.0132613
0.0132852
0.0133074
0.0133281
0.0133472
0.0133648
0.013381
0.0133958
0.0134092
0.0134213
0.013432
0.0134415
0.0134498
0.0134569
0.0134627
0.0134674
0.013471
0.0134735
0.0134749
0.0134752
0.0134745
0.0134727
0.01347
0.0134662
0.0134615
0.0134558
0.0134492
0.0134416
0.013433
0.0134236
0.0134133
0.013402
0.0133898
0.0133768
0.0133629
0.0133481
0.0133324
0.0133158
0.0132984
0.0132801
0.0132609
0.0132409
0.0132199
0.0131981
0.0131754
0.0131519
0.0131274
0.013102
0.0130758
0.0130486
0.0130205
0.0129915
0.0129615
0.0129306
0.0128988
0.0128659
0.0128321
0.0127973
0.0127615
0.0127247
0.0126868
0.0126479
0.0126079
0.0125668
0.0125247
0.0124814
0.012437
0.0123914
0.0123447
0.0122968
0.0122477
0.0121973
0.0121457
0.0120928
0.0120386
0.0119831
0.0119263
0.0118681
0.0118085
0.0117475
0.011685
0.0116211
0.0115556
0.0114887
0.0114202
0.0113501
0.0112783
0.0112049
0.0111298
0.011053
0.0109744
0.010894
0.0108117
0.0107274
0.0106413
0.0105531
0.0104628
0.0103703
0.0102757
0.0101787
0.0100794
0.00997765
0.00987333
0.00976635
0.0096566
0.00954395
0.00942827
0.0093094
0.00918717
0.00906139
0.00893184
0.00879828
0.00866044
0.00851801
0.00837063
0.00821789
0.00805931
0.00789435
0.00772236
0.00754258
0.00735413
0.00715596
0.00694681
0.00672518
0.00648921
0.00623668
0.00596479
0.00567011
0.00534834
0.00499408
0.00460061
0.00415944
0.00365999
0.00308941
0.00243254
0.00167443
0.000818487
7.94371e-05
0.000113632
0.00113163
0.00226109
0.00323962
0.00408282
0.00481983
0.00547407
0.00606276
0.00659845
0.00709037
0.00754539
0.00796873
0.00836445
0.00873575
0.0090852
0.0094149
0.00972662
0.0100218
0.0103018
0.0105677
0.0108205
0.0110609
0.0112899
0.0115081
0.0117161
0.0119145
0.0121039
0.0122847
0.0124575
0.0126225
0.0127802
0.012931
0.0130752
0.013213
0.0133449
0.013471
0.0135916
0.013707
0.0138173
0.0139228
0.0140237
0.0141202
0.0142123
0.0143003
0.0143844
0.0144646
0.0145411
0.0146141
0.0146836
0.0147499
0.014813
0.0148731
0.0149303
0.0149847
0.0150364
0.0150855
0.0151321
0.0151762
0.015218
0.0152575
0.0152949
0.0153301
0.0153633
0.0153944
0.0154236
0.015451
0.0154765
0.0155003
0.0155223
0.0155427
0.0155614
0.0155786
0.0155942
0.0156083
0.0156209
0.0156321
0.0156419
0.0156503
0.0156574
0.0156631
0.0156675
0.0156707
0.0156727
0.0156734
0.0156729
0.0156713
0.0156684
0.0156644
0.0156593
0.0156531
0.0156458
0.0156373
0.0156278
0.0156172
0.0156056
0.0155928
0.0155791
0.0155642
0.0155484
0.0155315
0.0155135
0.0154945
0.0154745
0.0154534
0.0154313
0.0154081
0.0153839
0.0153586
0.0153322
0.0153048
0.0152763
0.0152468
0.0152161
0.0151843
0.0151514
0.0151174
0.0150822
0.0150459
0.0150083
0.0149697
0.0149298
0.0148886
0.0148463
0.0148027
0.0147578
0.0147116
0.0146641
0.0146153
0.0145651
0.0145135
0.0144605
0.0144061
0.0143502
0.0142929
0.014234
0.0141736
0.0141117
0.0140481
0.013983
0.0139162
0.0138477
0.0137775
0.0137055
0.0136318
0.0135563
0.0134788
0.0133995
0.0133183
0.0132351
0.0131498
0.0130625
0.012973
0.0128814
0.0127875
0.0126914
0.0125929
0.012492
0.0123885
0.0122826
0.0121739
0.0120626
0.0119484
0.0118313
0.0117111
0.0115878
0.0114611
0.011331
0.0111974
0.0110599
0.0109185
0.0107729
0.0106228
0.0104681
0.0103084
0.0101433
0.00997245
0.00979544
0.00961174
0.00942076
0.00922182
0.00901412
0.00879675
0.00856861
0.00832842
0.00807467
0.00780553
0.00751883
0.00721191
0.00688157
0.0065239
0.00613409
0.0057063
0.00523335
0.00470653
0.0041153
0.00344736
0.00268942
0.0018304
0.000882286
8.43154e-05
0.000113632
0.00113165
0.00226115
0.00323971
0.00408292
0.00481995
0.00547419
0.00606289
0.00659858
0.0070905
0.00754552
0.00796886
0.00836459
0.00873588
0.00908532
0.00941502
0.00972674
0.010022
0.0103019
0.0105678
0.0108206
0.011061
0.01129
0.0115082
0.0117162
0.0119146
0.012104
0.0122848
0.0124575
0.0126226
0.0127803
0.0129311
0.0130752
0.0132131
0.013345
0.0134711
0.0135917
0.013707
0.0138174
0.0139229
0.0140238
0.0141202
0.0142123
0.0143003
0.0143844
0.0144646
0.0145411
0.0146141
0.0146836
0.0147499
0.0148131
0.0148732
0.0149303
0.0149847
0.0150364
0.0150855
0.0151321
0.0151762
0.015218
0.0152575
0.0152949
0.0153301
0.0153633
0.0153944
0.0154236
0.015451
0.0154765
0.0155003
0.0155223
0.0155427
0.0155614
0.0155786
0.0155942
0.0156083
0.0156209
0.0156321
0.0156419
0.0156503
0.0156574
0.0156631
0.0156675
0.0156707
0.0156727
0.0156734
0.0156729
0.0156713
0.0156684
0.0156644
0.0156593
0.0156531
0.0156458
0.0156373
0.0156278
0.0156172
0.0156056
0.0155928
0.0155791
0.0155642
0.0155484
0.0155315
0.0155135
0.0154945
0.0154745
0.0154534
0.0154313
0.0154081
0.0153839
0.0153586
0.0153322
0.0153048
0.0152763
0.0152467
0.0152161
0.0151843