/*--------------------------------*- C++ -*----------------------------------*\
  =========                 |
  \\      /  F ield         | OpenFOAM: The Open Source CFD Toolbox
   \\    /   O peration     | Website:  https://openfoam.org
    \\  /    A nd           | Version:  8
     \\/     M anipulation  |
\*---------------------------------------------------------------------------*/
FoamFile
{
    version     2.0;
    format      ascii;
    class       volScalarField;
    location    "600";
    object      alphat;
}
// * * * * * * * * * * * * * * * * * * * * * * * * * * * * * * * * * * * * * //

dimensions      [1 -1 -1 0 0 0 0];

internalField   nonuniform List<scalar> 
48000
(
9.58409e-05
0.000150284
0.000187488
0.000217369
0.000239719
4.6876e-05
4.45993e-05
5.09791e-05
5.18332e-05
5.3894e-05
5.59905e-05
5.80366e-05
5.99977e-05
6.18834e-05
6.37007e-05
6.54562e-05
6.71561e-05
6.88053e-05
7.04081e-05
7.19679e-05
7.34878e-05
7.49703e-05
7.64177e-05
7.78318e-05
7.9214e-05
8.05659e-05
8.18885e-05
8.31828e-05
8.44497e-05
8.56898e-05
8.69038e-05
8.8092e-05
8.92549e-05
9.03929e-05
9.15062e-05
9.25951e-05
9.36596e-05
9.47001e-05
9.57165e-05
9.67091e-05
9.7678e-05
9.86231e-05
9.95448e-05
0.000100443
0.000101318
0.000102169
0.000102997
0.000103803
0.000104585
0.000105344
0.000106081
0.000106795
0.000107486
0.000108155
0.000108802
0.000109427
0.000110031
0.000110612
0.000111172
0.000111711
0.000112229
0.000112726
0.000113202
0.000113658
0.000114094
0.000114509
0.000114905
0.000115281
0.000115638
0.000115975
0.000116294
0.000116593
0.000116874
0.000117137
0.000117382
0.000117608
0.000117817
0.000118007
0.000118181
0.000118337
0.000118476
0.000118597
0.000118702
0.000118791
0.000118865
0.000118922
0.000118963
0.000118989
0.000118998
0.000118992
0.00011897
0.000118932
0.00011888
0.000118812
0.000118729
0.000118631
0.000118518
0.000118391
0.000118249
0.000118093
0.000117922
0.000117738
0.000117539
0.000117326
0.0001171
0.000116859
0.000116606
0.000116338
0.000116057
0.000115763
0.000115455
0.000115134
0.0001148
0.000114452
0.000114092
0.000113718
0.000113331
0.000112931
0.000112518
0.000112091
0.000111652
0.000111199
0.000110732
0.000110253
0.00010976
0.000109253
0.000108733
0.000108199
0.000107652
0.000107091
0.000106516
0.000105927
0.000105323
0.000104706
0.000104075
0.000103429
0.000102769
0.000102094
0.000101405
0.000100702
9.99831e-05
9.92499e-05
9.85019e-05
9.77391e-05
9.69612e-05
9.61684e-05
9.53605e-05
9.45375e-05
9.36993e-05
9.2846e-05
9.19774e-05
9.10936e-05
9.01944e-05
8.92799e-05
8.83501e-05
8.74049e-05
8.64442e-05
8.54682e-05
8.44766e-05
8.34696e-05
8.2447e-05
8.14088e-05
8.0355e-05
7.92855e-05
7.82004e-05
7.70995e-05
7.59828e-05
7.48502e-05
7.37015e-05
7.25367e-05
7.13556e-05
7.01579e-05
6.89434e-05
6.7712e-05
6.64634e-05
6.51972e-05
6.39131e-05
6.26106e-05
6.12892e-05
5.99482e-05
5.85869e-05
5.72045e-05
5.57996e-05
5.43703e-05
5.29125e-05
5.14031e-05
4.96694e-05
4.61936e-05
3.70853e-05
0.000324
0.000320358
0.000259498
3.89822e-05
3.73973e-05
0.000203342
0.000193494
0.000170375
0.000141595
0.000109323
6.52292e-05
9.58541e-05
0.000150303
0.00018751
0.000217456
0.000239577
4.68245e-05
4.46156e-05
5.1037e-05
5.185e-05
5.38985e-05
5.5992e-05
5.80374e-05
5.99985e-05
6.18841e-05
6.37013e-05
6.54568e-05
6.71567e-05
6.88058e-05
7.04086e-05
7.19684e-05
7.34882e-05
7.49708e-05
7.64181e-05
7.78321e-05
7.92144e-05
8.05662e-05
8.18888e-05
8.31831e-05
8.44499e-05
8.569e-05
8.69039e-05
8.80922e-05
8.92551e-05
9.03931e-05
9.15064e-05
9.25952e-05
9.36597e-05
9.47002e-05
9.57166e-05
9.67092e-05
9.7678e-05
9.86232e-05
9.95448e-05
0.000100443
0.000101318
0.000102169
0.000102998
0.000103803
0.000104585
0.000105344
0.000106081
0.000106795
0.000107486
0.000108155
0.000108802
0.000109427
0.000110031
0.000110612
0.000111172
0.000111711
0.000112229
0.000112726
0.000113202
0.000113658
0.000114094
0.000114509
0.000114905
0.000115281
0.000115638
0.000115975
0.000116294
0.000116593
0.000116874
0.000117137
0.000117381
0.000117608
0.000117816
0.000118007
0.000118181
0.000118337
0.000118475
0.000118597
0.000118702
0.000118791
0.000118864
0.000118922
0.000118963
0.000118988
0.000118998
0.000118991
0.000118969
0.000118932
0.000118879
0.000118812
0.000118729
0.000118631
0.000118518
0.000118391
0.000118249
0.000118093
0.000117922
0.000117737
0.000117539
0.000117326
0.000117099
0.000116859
0.000116605
0.000116338
0.000116057
0.000115762
0.000115455
0.000115134
0.0001148
0.000114452
0.000114092
0.000113718
0.000113331
0.000112931
0.000112517
0.000112091
0.000111651
0.000111198
0.000110732
0.000110252
0.000109759
0.000109253
0.000108733
0.000108199
0.000107652
0.00010709
0.000106515
0.000105926
0.000105323
0.000104706
0.000104074
0.000103429
0.000102769
0.000102094
0.000101405
0.000100701
9.99827e-05
9.92496e-05
9.85016e-05
9.77387e-05
9.69609e-05
9.6168e-05
9.53601e-05
9.45371e-05
9.3699e-05
9.28456e-05
9.1977e-05
9.10932e-05
9.01941e-05
8.92796e-05
8.83498e-05
8.74045e-05
8.64439e-05
8.54678e-05
8.44763e-05
8.34692e-05
8.24466e-05
8.14084e-05
8.03546e-05
7.92851e-05
7.82e-05
7.70991e-05
7.59824e-05
7.48498e-05
7.37012e-05
7.25364e-05
7.13553e-05
7.01576e-05
6.89431e-05
6.77117e-05
6.64631e-05
6.51969e-05
6.39128e-05
6.26102e-05
6.12888e-05
5.99478e-05
5.85867e-05
5.72042e-05
5.57993e-05
5.43701e-05
5.29129e-05
5.14066e-05
4.96867e-05
4.62437e-05
3.7103e-05
0.000320701
0.000286632
4.15148e-05
0.000214018
3.78771e-05
0.000203438
0.00019344
0.000170335
0.000141572
0.000109309
6.52211e-05
0.000108272
0.00024581
0.000343822
0.000401098
0.000409006
0.000357628
0.000379987
0.000472845
0.000514889
0.000544404
0.000570294
0.000594114
0.000616459
0.000637613
0.000657765
0.000677048
0.000695561
0.000713384
0.00073058
0.000747203
0.000763297
0.000778902
0.000794052
0.000808775
0.000823096
0.000837038
0.00085062
0.000863859
0.000876769
0.000889362
0.00090165
0.000913641
0.000925345
0.000936769
0.000947917
0.000958797
0.000969411
0.000979765
0.000989862
0.000999705
0.0010093
0.00101864
0.00102774
0.00103659
0.0010452
0.00105357
0.00106171
0.0010696
0.00107727
0.0010847
0.0010919
0.00109887
0.00110561
0.00111213
0.00111843
0.0011245
0.00113036
0.001136
0.00114142
0.00114663
0.00115163
0.00115643
0.00116101
0.0011654
0.00116958
0.00117356
0.00117734
0.00118093
0.00118433
0.00118753
0.00119055
0.00119338
0.00119602
0.00119848
0.00120076
0.00120286
0.00120479
0.00120654
0.00120811
0.00120951
0.00121074
0.0012118
0.00121268
0.00121336
0.00121386
0.0012142
0.00121438
0.0012144
0.00121426
0.00121396
0.00121352
0.00121291
0.00121216
0.00121126
0.00121021
0.00120901
0.00120767
0.00120618
0.00120455
0.00120277
0.00120086
0.0011988
0.00119661
0.00119427
0.0011918
0.0011892
0.00118646
0.00118358
0.00118057
0.00117743
0.00117415
0.00117074
0.0011672
0.00116352
0.00115971
0.00115577
0.00115169
0.00114748
0.00114314
0.00113866
0.00113405
0.0011293
0.00112442
0.0011194
0.00111424
0.00110894
0.00110351
0.00109794
0.00109222
0.00108637
0.00108037
0.00107423
0.00106795
0.00106152
0.00105495
0.00104824
0.00104138
0.00103437
0.00102722
0.00101992
0.00101247
0.00100488
0.000997136
0.000989247
0.00098121
0.000973024
0.00096469
0.000956207
0.000947577
0.000938798
0.00092987
0.000920795
0.000911571
0.0009022
0.00089268
0.000883014
0.0008732
0.000863239
0.000853131
0.000842877
0.000832476
0.000821928
0.000811234
0.000800393
0.000789404
0.000778268
0.000766984
0.000755551
0.000743968
0.000732234
0.000720347
0.000708306
0.000696109
0.000683752
0.000671233
0.000658548
0.000645692
0.00063266
0.000619442
0.00060603
0.000592409
0.000578562
0.000564461
0.000550055
0.000535213
0.000519485
0.000501178
0.000475081
0.000439934
0.000510284
0.000502598
0.000454138
0.000335867
0.00031219
0.000413264
0.000416114
0.000373669
0.000304594
0.000206684
8.00332e-05
0.000108264
0.00024569
0.000343526
0.000400776
0.000410162
0.000358511
0.000379804
0.000472172
0.000514749
0.000544415
0.000570329
0.000594151
0.000616496
0.00063765
0.000657801
0.000677083
0.000695596
0.000713418
0.000730613
0.000747235
0.000763329
0.000778934
0.000794083
0.000808805
0.000823126
0.000837067
0.000850649
0.000863887
0.000876796
0.000889389
0.000901676
0.000913667
0.000925371
0.000936794
0.000947942
0.000958821
0.000969435
0.000979789
0.000989885
0.000999728
0.00100932
0.00101866
0.00102776
0.00103661
0.00104522
0.00105359
0.00106173
0.00106962
0.00107729
0.00108472
0.00109192
0.00109889
0.00110563
0.00111215
0.00111844
0.00112452
0.00113037
0.00113601
0.00114144
0.00114665
0.00115165
0.00115644
0.00116103
0.00116541
0.00116959
0.00117358
0.00117736
0.00118095
0.00118434
0.00118755
0.00119056
0.00119339
0.00119604
0.0011985
0.00120078
0.00120288
0.0012048
0.00120655
0.00120812
0.00120952
0.00121075
0.00121181
0.00121269
0.00121338
0.00121388
0.00121421
0.00121439
0.00121441
0.00121427
0.00121398
0.00121353
0.00121293
0.00121217
0.00121127
0.00121022
0.00120902
0.00120768
0.00120619
0.00120456
0.00120278
0.00120087
0.00119881
0.00119662
0.00119428
0.00119181
0.00118921
0.00118647
0.00118359
0.00118058
0.00117744
0.00117416
0.00117075
0.00116721
0.00116353
0.00115972
0.00115578
0.0011517
0.00114749
0.00114315
0.00113867
0.00113406
0.00112931
0.00112443
0.00111941
0.00111425
0.00110895
0.00110352
0.00109794
0.00109223
0.00108637
0.00108038
0.00107424
0.00106795
0.00106153
0.00105496
0.00104824
0.00104138
0.00103438
0.00102722
0.00101992
0.00101248
0.00100488
0.000997142
0.000989253
0.000981215
0.00097303
0.000964695
0.000956213
0.000947582
0.000938803
0.000929876
0.0009208
0.000911576
0.000902205
0.000892685
0.000883019
0.000873205
0.000863244
0.000853136
0.000842881
0.00083248
0.000821933
0.000811238
0.000800397
0.000789409
0.000778273
0.000766988
0.000755555
0.000743972
0.000732238
0.000720352
0.000708311
0.000696113
0.000683757
0.000671238
0.000658553
0.000645697
0.000632665
0.000619447
0.000606035
0.000592414
0.000578567
0.000564466
0.000550061
0.000535225
0.000519513
0.000501209
0.000474889
0.000439096
0.000506975
0.000484514
0.000369174
0.000407565
0.000323386
0.000416088
0.000416662
0.000373823
0.000304639
0.000206686
8.00266e-05
0.000140625
0.000326189
0.000489278
0.000617896
0.00071843
0.000789952
0.000865261
0.000956751
0.00103136
0.00109579
0.00115402
0.00120774
0.00125791
0.00130515
0.00134987
0.00139241
0.001433
0.00147183
0.00150908
0.00154488
0.00157933
0.00161255
0.00164462
0.00167562
0.00170561
0.00173467
0.00176283
0.00179016
0.00181669
0.00184246
0.00186751
0.00189186
0.00191554
0.00193858
0.001961
0.0019828
0.00200402
0.00202467
0.00204475
0.00206428
0.00208326
0.00210172
0.00211966
0.00213708
0.00215399
0.00217041
0.00218633
0.00220176
0.00221671
0.00223118
0.00224518
0.00225872
0.0022718
0.00228442
0.00229659
0.00230832
0.00231961
0.00233046
0.00234089
0.00235089
0.00236047
0.00236963
0.00237839
0.00238674
0.00239469
0.00240224
0.00240941
0.00241618
0.00242258
0.0024286
0.00243424
0.00243952
0.00244444
0.00244899
0.00245319
0.00245703
0.00246053
0.00246368
0.00246648
0.00246895
0.00247109
0.00247288
0.00247433
0.00247544
0.00247619
0.00247661
0.00247672
0.00247651
0.002476
0.00247518
0.00247405
0.00247263
0.00247091
0.00246889
0.00246658
0.00246398
0.0024611
0.00245793
0.00245448
0.00245075
0.00244674
0.00244246
0.0024379
0.00243307
0.00242797
0.0024226
0.00241696
0.00241106
0.00240489
0.00239845
0.00239175
0.00238479
0.00237756
0.00237006
0.00236231
0.00235428
0.00234599
0.00233744
0.00232861
0.00231952
0.00231016
0.00230053
0.00229062
0.00228044
0.00226999
0.00225926
0.00224826
0.00223697
0.00222541
0.00221356
0.00220143
0.00218902
0.00217633
0.00216335
0.00215008
0.00213652
0.00212268
0.00210854
0.00209412
0.00207941
0.0020644
0.00204911
0.00203352
0.00201764
0.00200148
0.00198502
0.00196827
0.00195123
0.0019339
0.00191628
0.00189837
0.00188017
0.00186168
0.00184291
0.00182385
0.0018045
0.00178487
0.00176495
0.00174474
0.00172425
0.00170348
0.00168241
0.00166106
0.00163942
0.0016175
0.00159527
0.00157276
0.00154994
0.00152682
0.00150339
0.00147965
0.00145558
0.00143118
0.00140643
0.00138132
0.00135583
0.00132995
0.00130364
0.00127687
0.0012496
0.00122178
0.00119332
0.00116413
0.00113405
0.00110277
0.00106967
0.0010331
0.000989526
0.000940682
0.000915964
0.000879681
0.000836193
0.000770718
0.00072083
0.000701026
0.000646818
0.000559608
0.00043961
0.000283642
0.000109634
0.000140671
0.000326121
0.000489427
0.000618007
0.000719093
0.00078974
0.000864208
0.000956242
0.00103129
0.00109584
0.00115409
0.00120781
0.00125799
0.00130522
0.00134994
0.00139248
0.00143306
0.0014719
0.00150915
0.00154494
0.00157939
0.00161261
0.00164467
0.00167567
0.00170566
0.00173471
0.00176288
0.0017902
0.00181673
0.0018425
0.00186755
0.0018919
0.00191558
0.00193862
0.00196103
0.00198284
0.00200405
0.00202469
0.00204477
0.0020643
0.00208329
0.00210175
0.00211968
0.0021371
0.00215401
0.00217042
0.00218634
0.00220177
0.00221672
0.00223119
0.0022452
0.00225873
0.00227181
0.00228443
0.0022966
0.00230833
0.00231962
0.00233047
0.00234089
0.00235089
0.00236047
0.00236963
0.00237839
0.00238674
0.00239469
0.00240224
0.00240941
0.00241618
0.00242258
0.0024286
0.00243424
0.00243952
0.00244443
0.00244898
0.00245318
0.00245703
0.00246052
0.00246367
0.00246648
0.00246895
0.00247108
0.00247287
0.00247433
0.00247543
0.00247618
0.0024766
0.00247671
0.00247651
0.00247599
0.00247517
0.00247404
0.00247262
0.0024709
0.00246888
0.00246657
0.00246397
0.00246109
0.00245792
0.00245447
0.00245074
0.00244673
0.00244244
0.00243788
0.00243305
0.00242795
0.00242258
0.00241695
0.00241104
0.00240487
0.00239844
0.00239174
0.00238477
0.00237754
0.00237005
0.00236229
0.00235427
0.00234598
0.00233742
0.0023286
0.0023195
0.00231014
0.00230051
0.0022906
0.00228042
0.00226997
0.00225924
0.00224824
0.00223695
0.00222539
0.00221354
0.00220142
0.002189
0.00217631
0.00216333
0.00215006
0.0021365
0.00212266
0.00210852
0.0020941
0.00207938
0.00206438
0.00204909
0.0020335
0.00201762
0.00200146
0.001985
0.00196825
0.00195121
0.00193388
0.00191626
0.00189835
0.00188015
0.00186166
0.00184289
0.00182383
0.00180448
0.00178485
0.00176493
0.00174472
0.00172423
0.00170345
0.00168239
0.00166104
0.0016394
0.00161747
0.00159525
0.00157274
0.00154992
0.0015268
0.00150337
0.00147963
0.00145556
0.00143116
0.00140641
0.0013813
0.00135581
0.00132993
0.00130362
0.00127685
0.00124958
0.00122176
0.0011933
0.00116411
0.00113403
0.00110276
0.00106967
0.00103315
0.000989497
0.000940729
0.000917186
0.000880292
0.000816341
0.000785631
0.000726202
0.000702437
0.000647279
0.000559772
0.000439641
0.000283629
0.000109621
0.000164226
0.000375611
0.000597524
0.000800614
0.000970044
0.00111303
0.0012407
0.00135962
0.00146678
0.00156386
0.00165287
0.00173532
0.00181233
0.00188476
0.00195322
0.0020182
0.00208007
0.00213915
0.00219568
0.00224988
0.00230194
0.002352
0.00240022
0.00244671
0.00249159
0.00253495
0.00257688
0.00261746
0.00265676
0.00269485
0.00273178
0.00276759
0.00280235
0.00283608
0.00286883
0.00290063
0.00293151
0.00296149
0.0029906
0.00301886
0.00304629
0.00307291
0.00309874
0.00312378
0.00314806
0.00317159
0.00319437
0.00321643
0.00323777
0.0032584
0.00327834
0.00329759
0.00331616
0.00333406
0.00335131
0.0033679
0.00338385
0.00339917
0.00341387
0.00342795
0.00344142
0.00345429
0.00346656
0.00347826
0.00348937
0.00349992
0.0035099
0.00351934
0.00352822
0.00353656
0.00354437
0.00355165
0.00355841
0.00356465
0.00357039
0.00357562
0.00358036
0.0035846
0.00358836
0.00359163
0.00359443
0.00359674
0.00359858
0.00359994
0.00360082
0.00360123
0.00360119
0.0036007
0.00359977
0.00359841
0.00359662
0.0035944
0.00359175
0.00358869
0.00358522
0.00358133
0.00357704
0.00357234
0.00356724
0.00356175
0.00355585
0.00354957
0.0035429
0.00353584
0.00352839
0.00352056
0.00351235
0.00350376
0.00349479
0.00348544
0.00347571
0.0034656
0.00345512
0.00344425
0.00343301
0.00342139
0.00340938
0.003397
0.00338423
0.00337108
0.00335754
0.00334361
0.00332929
0.00331458
0.00329948
0.00328398
0.00326809
0.00325179
0.0032351
0.003218
0.0032005
0.00318259
0.00316428
0.00314556
0.00312643
0.00310689
0.00308694
0.00306658
0.0030458
0.00302461
0.00300301
0.002981
0.00295857
0.00293573
0.00291247
0.00288881
0.00286473
0.00284024
0.00281534
0.00279003
0.00276431
0.00273819
0.00271165
0.00268471
0.00265737
0.00262962
0.00260146
0.0025729
0.00254394
0.00251457
0.0024848
0.00245461
0.00242402
0.00239301
0.00236158
0.00232973
0.00229745
0.00226473
0.00223156
0.00219794
0.00216383
0.00212923
0.00209412
0.00205846
0.00202224
0.0019854
0.00194792
0.00190973
0.00187077
0.00183095
0.00179016
0.00174827
0.00170509
0.00166036
0.00161371
0.0015646
0.0015121
0.00145456
0.00139217
0.00133164
0.00126801
0.00120097
0.00112593
0.00104602
0.000960634
0.00085375
0.000718332
0.000550063
0.000347957
0.000138431
0.000164366
0.000375041
0.00059754
0.000800498
0.000970233
0.0011131
0.00124052
0.00135957
0.00146684
0.00156396
0.00165298
0.00173542
0.00181244
0.00188486
0.00195332
0.00201829
0.00208016
0.00213924
0.00219577
0.00224997
0.00230202
0.00235208
0.0024003
0.00244679
0.00249166
0.00253502
0.00257695
0.00261752
0.00265682
0.00269491
0.00273183
0.00276765
0.0028024
0.00283613
0.00286888
0.00290067
0.00293155
0.00296153
0.00299064
0.00301889
0.00304632
0.00307294
0.00309876
0.00312381
0.00314808
0.00317161
0.00319439
0.00321645
0.00323779
0.00325842
0.00327835
0.0032976
0.00331617
0.00333407
0.00335131
0.00336791
0.00338386
0.00339917
0.00341387
0.00342794
0.00344141
0.00345428
0.00346656
0.00347825
0.00348937
0.00349991
0.0035099
0.00351932
0.00352821
0.00353655
0.00354435
0.00355163
0.00355839
0.00356464
0.00357037
0.00357561
0.00358034
0.00358458
0.00358834
0.00359161
0.00359441
0.00359672
0.00359856
0.00359992
0.0036008
0.0036012
0.00360116
0.00360067
0.00359975
0.00359838
0.00359659
0.00359437
0.00359173
0.00358867
0.00358519
0.0035813
0.00357701
0.00357231
0.00356721
0.00356172
0.00355582
0.00354954
0.00354287
0.00353581
0.00352836
0.00352053
0.00351232
0.00350373
0.00349476
0.00348541
0.00347568
0.00346557
0.00345508
0.00344422
0.00343298
0.00342135
0.00340935
0.00339696
0.00338419
0.00337104
0.0033575
0.00334357
0.00332925
0.00331455
0.00329944
0.00328394
0.00326805
0.00325176
0.00323506
0.00321796
0.00320046
0.00318256
0.00316424
0.00314552
0.00312639
0.00310685
0.0030869
0.00306654
0.00304576
0.00302457
0.00300297
0.00298096
0.00295853
0.00293569
0.00291243
0.00288877
0.00286469
0.0028402
0.0028153
0.00278999
0.00276427
0.00273814
0.00271161
0.00268467
0.00265733
0.00262958
0.00260142
0.00257286
0.0025439
0.00251453
0.00248475
0.00245457
0.00242397
0.00239297
0.00236154
0.00232969
0.00229741
0.00226469
0.00223152
0.00219789
0.00216379
0.00212919
0.00209408
0.00205842
0.0020222
0.00198537
0.00194788
0.00190969
0.00187073
0.00183091
0.00179013
0.00174823
0.00170505
0.00166032
0.00161367
0.00156456
0.00151207
0.00145447
0.00139215
0.00133229
0.00126934
0.00119844
0.00112815
0.00104726
0.000961107
0.000853925
0.000718346
0.000550008
0.000347912
0.000138414
0.000173685
0.000377484
0.000665967
0.00093741
0.00116687
0.00136201
0.00153302
0.0016864
0.00182518
0.00195184
0.00206847
0.00217677
0.00227804
0.00237331
0.00246337
0.00254883
0.00263019
0.00270784
0.00278212
0.00285331
0.00292163
0.00298731
0.00305051
0.00311139
0.00317011
0.00322678
0.00328153
0.00333445
0.00338563
0.00343517
0.00348314
0.0035296
0.00357462
0.00361825
0.00366055
0.00370156
0.00374133
0.00377989
0.00381728
0.00385353
0.00388866
0.00392272
0.00395571
0.00398766
0.0040186
0.00404855
0.00407752
0.00410553
0.00413259
0.00415873
0.00418396
0.0042083
0.00423175
0.00425434
0.00427607
0.00429696
0.00431702
0.00433626
0.0043547
0.00437235
0.00438922
0.00440532
0.00442066
0.00443526
0.00444912
0.00446225
0.00447467
0.00448638
0.0044974
0.00450773
0.00451739
0.00452637
0.0045347
0.00454238
0.00454941
0.00455582
0.00456159
0.00456674
0.00457128
0.00457521
0.00457854
0.00458127
0.00458341
0.00458495
0.00458591
0.00458627
0.00458607
0.00458531
0.004584
0.00458215
0.00457975
0.00457682
0.00457336
0.00456937
0.00456487
0.00455984
0.00455431
0.00454827
0.00454173
0.00453469
0.00452715
0.00451912
0.00451061
0.0045016
0.00449211
0.00448215
0.0044717
0.00446077
0.00444936
0.00443748
0.00442512
0.00441229
0.00439897
0.00438519
0.00437092
0.00435618
0.00434096
0.00432525
0.00430907
0.0042924
0.00427524
0.00425759
0.00423946
0.00422083
0.0042017
0.00418208
0.00416196
0.00414133
0.00412021
0.00409857
0.00407643
0.00405378
0.00403062
0.00400695
0.00398276
0.00395806
0.00393284
0.00390711
0.00388086
0.00385409
0.0038268
0.003799
0.00377068
0.00374184
0.00371249
0.00368262
0.00365224
0.00362134
0.00358993
0.00355801
0.00352558
0.00349264
0.00345919
0.00342523
0.00339077
0.0033558
0.00332032
0.00328434
0.00324784
0.00321084
0.00317333
0.0031353
0.00309675
0.00305767
0.00301806
0.0029779
0.00293719
0.00289591
0.00285404
0.00281157
0.00276846
0.0027247
0.00268024
0.00263504
0.00258906
0.00254224
0.00249451
0.00244579
0.00239596
0.00234491
0.00229248
0.00223847
0.00218262
0.00212461
0.00206404
0.00200038
0.00193301
0.0018611
0.00178418
0.00170319
0.00161709
0.00152471
0.00142333
0.00131032
0.00118166
0.00103037
0.000850928
0.000640475
0.000401735
0.000164732
0.000173767
0.000377138
0.000666409
0.000937315
0.00116679
0.00136205
0.00153309
0.00168651
0.0018253
0.00195197
0.0020686
0.0021769
0.00227817
0.00237344
0.00246349
0.00254895
0.00263031
0.00270796
0.00278224
0.00285342
0.00292174
0.00298741
0.00305061
0.00311149
0.0031702
0.00322687
0.00328161
0.00333453
0.00338571
0.00343525
0.00348321
0.00352967
0.00357468
0.00361831
0.00366061
0.00370162
0.00374139
0.00377994
0.00381733
0.00385357
0.00388871
0.00392276
0.00395574
0.0039877
0.00401864
0.00404858
0.00407754
0.00410555
0.00413261
0.00415875
0.00418398
0.00420831
0.00423176
0.00425435
0.00427608
0.00429696
0.00431702
0.00433627
0.0043547
0.00437235
0.00438922
0.00440532
0.00442066
0.00443525
0.00444911
0.00446224
0.00447466
0.00448637
0.00449739
0.00450772
0.00451737
0.00452636
0.00453469
0.00454236
0.0045494
0.0045558
0.00456157
0.00456672
0.00457126
0.00457519
0.00457852
0.00458125
0.00458338
0.00458493
0.00458588
0.00458624
0.00458604
0.00458528
0.00458397
0.00458212
0.00457972
0.00457679
0.00457333
0.00456934
0.00456483
0.00455981
0.00455428
0.00454824
0.0045417
0.00453465
0.00452712
0.00451909
0.00451057
0.00450157
0.00449208
0.00448211
0.00447166
0.00446073
0.00444932
0.00443744
0.00442508
0.00441225
0.00439893
0.00438515
0.00437088
0.00435614
0.00434092
0.00432521
0.00430903
0.00429235
0.0042752
0.00425755
0.00423941
0.00422078
0.00420166
0.00418204
0.00416191
0.00414129
0.00412016
0.00409853
0.00407639
0.00405374
0.00403058
0.0040069
0.00398272
0.00395801
0.0039328
0.00390706
0.00388081
0.00385404
0.00382676
0.00379895
0.00377063
0.0037418
0.00371244
0.00368257
0.00365219
0.00362129
0.00358989
0.00355796
0.00352553
0.00349259
0.00345914
0.00342518
0.00339072
0.00335575
0.00332027
0.00328429
0.00324779
0.00321079
0.00317328
0.00313525
0.00309669
0.00305762
0.00301801
0.00297785
0.00293714
0.00289586
0.00285399
0.00281152
0.00276841
0.00272465
0.00268019
0.002635
0.00258902
0.0025422
0.00249447
0.00244574
0.00239592
0.00234487
0.00229244
0.00223842
0.00218257
0.00212457
0.00206399
0.00200034
0.00193297
0.00186103
0.0017841
0.00170329
0.00161748
0.00152456
0.00142368
0.00131054
0.00118173
0.00103032
0.000850784
0.000640317
0.000401654
0.000164719
0.000196777
0.00038922
0.000731059
0.00104931
0.00132454
0.00156176
0.0017696
0.0019549
0.00212231
0.00227524
0.00241627
0.00254738
0.00267011
0.00278567
0.00289498
0.00299877
0.00309763
0.00319203
0.00328238
0.00336899
0.00345214
0.00353209
0.00360903
0.00368316
0.00375464
0.00382361
0.00389022
0.00395458
0.0040168
0.00407698
0.00413521
0.00419158
0.00424615
0.00429899
0.00435018
0.00439976
0.00444779
0.00449431
0.00453938
0.00458302
0.00462529
0.00466621
0.00470581
0.00474414
0.00478121
0.00481705
0.00485168
0.00488514
0.00491745
0.00494861
0.00497867
0.00500763
0.00503552
0.00506235
0.00508814
0.00511291
0.00513668
0.00515946
0.00518127
0.00520213
0.00522205
0.00524104
0.00525913
0.00527631
0.00529262
0.00530806
0.00532264
0.00533638
0.00534929
0.00536139
0.00537268
0.00538318
0.00539289
0.00540183
0.00541001
0.00541743
0.00542412
0.00543007
0.0054353
0.0054398
0.0054436
0.0054467
0.00544909
0.0054508
0.00545181
0.00545214
0.0054518
0.00545081
0.00544917
0.00544688
0.00544396
0.00544041
0.00543624
0.00543145
0.00542604
0.00542003
0.00541343
0.00540622
0.00539842
0.00539004
0.00538108
0.00537153
0.00536141
0.00535072
0.00533946
0.00532763
0.00531523
0.00530227
0.00528875
0.00527467
0.00526003
0.00524482
0.00522906
0.00521273
0.00519584
0.00517839
0.00516037
0.00514178
0.00512263
0.00510291
0.00508261
0.00506174
0.00504029
0.00501826
0.00499564
0.00497245
0.00494866
0.00492428
0.00489931
0.00487375
0.00484759
0.00482083
0.00479347
0.00476551
0.00473695
0.00470778
0.004678
0.00464762
0.00461664
0.00458504
0.00455284
0.00452004
0.00448662
0.00445261
0.00441798
0.00438276
0.00434693
0.00431049
0.00427346
0.00423583
0.0041976
0.00415878
0.00411935
0.00407933
0.00403872
0.00399751
0.00395571
0.00391331
0.00387031
0.0038267
0.00378249
0.00373767
0.00369222
0.00364615
0.00359944
0.00355207
0.00350403
0.00345529
0.00340584
0.00335564
0.00330467
0.00325286
0.00320019
0.00314659
0.003092
0.00303633
0.00297949
0.00292138
0.00286184
0.00280072
0.00273782
0.00267288
0.00260561
0.00253562
0.00246247
0.00238561
0.00230444
0.00221822
0.0021262
0.00202772
0.00192157
0.00180591
0.00167792
0.00153389
0.00136913
0.00117838
0.000958079
0.000709187
0.000440937
0.000186542
0.000196496
0.000390116
0.000731731
0.00104938
0.00132449
0.0015618
0.0017697
0.00195503
0.00212246
0.00227539
0.00241642
0.00254753
0.00267026
0.00278582
0.00289512
0.00299891
0.00309777
0.00319217
0.00328251
0.00336912
0.00345227
0.00353221
0.00360915
0.00368327
0.00375475
0.00382372
0.00389032
0.00395468
0.0040169
0.00407707
0.0041353
0.00419166
0.00424623
0.00429907
0.00435025
0.00439983
0.00444785
0.00449437
0.00453944
0.00458308
0.00462534
0.00466626
0.00470586
0.00474418
0.00478125
0.00481708
0.00485172
0.00488518
0.00491748
0.00494864
0.00497869
0.00500765
0.00503554
0.00506236
0.00508816
0.00511293
0.00513669
0.00515947
0.00518128
0.00520214
0.00522205
0.00524104
0.00525913
0.00527631
0.00529262
0.00530805
0.00532264
0.00533638
0.00534929
0.00536138
0.00537267
0.00538316
0.00539288
0.00540181
0.00540999
0.00541742
0.0054241
0.00543005
0.00543528
0.00543978
0.00544358
0.00544667
0.00544907
0.00545077
0.00545179
0.00545211
0.00545178
0.00545078
0.00544914
0.00544685
0.00544393
0.00544038
0.00543621
0.00543141
0.00542601
0.00542
0.00541339
0.00540619
0.00539839
0.00539001
0.00538104
0.0053715
0.00536137
0.00535068
0.00533942
0.00532759
0.00531519
0.00530223
0.00528871
0.00527463
0.00525999
0.00524478
0.00522902
0.00521269
0.0051958
0.00517835
0.00516033
0.00514174
0.00512259
0.00510287
0.00508257
0.00506169
0.00504024
0.00501821
0.0049956
0.0049724
0.00494861
0.00492424
0.00489927
0.0048737
0.00484754
0.00482078
0.00479342
0.00476546
0.0047369
0.00470773
0.00467795
0.00464757
0.00461659
0.00458499
0.00455279
0.00451999
0.00448657
0.00445256
0.00441793
0.0043827
0.00434687
0.00431044
0.00427341
0.00423578
0.00419755
0.00415872
0.0041193
0.00407928
0.00403867
0.00399746
0.00395566
0.00391325
0.00387025
0.00382665
0.00378244
0.00373762
0.00369217
0.0036461
0.00359939
0.00355202
0.00350398
0.00345524
0.00340579
0.00335559
0.00330461
0.00325281
0.00320014
0.00314654
0.00309195
0.00303628
0.00297944
0.00292133
0.00286179
0.00280068
0.00273777
0.00267284
0.00260556
0.00253557
0.00246242
0.00238557
0.0023044
0.00221818
0.00212615
0.0020277
0.00192162
0.0018059
0.00167795
0.00153388
0.00136906
0.00117822
0.000957812
0.000708873
0.000440733
0.000186562
3.87417e-05
0.000310979
0.000758165
0.00113797
0.00145482
0.00172759
0.00196691
0.00218016
0.00237276
0.00254874
0.00271113
0.00286224
0.00300383
0.00313725
0.00326356
0.0033836
0.00349804
0.00360741
0.00371216
0.00381265
0.00390921
0.00400209
0.00409153
0.00417773
0.00426089
0.00434115
0.00441867
0.00449357
0.00456598
0.00463601
0.00470375
0.0047693
0.00483274
0.00489415
0.0049536
0.00501115
0.00506686
0.0051208
0.00517301
0.00522354
0.00527243
0.00531973
0.00536548
0.00540972
0.00545247
0.00549377
0.00553366
0.00557216
0.0056093
0.00564511
0.00567961
0.00571283
0.0057448
0.00577553
0.00580505
0.00583339
0.00586055
0.00588657
0.00591147
0.00593525
0.00595795
0.00597958
0.00600016
0.00601971
0.00603824
0.00605577
0.00607232
0.0060879
0.00610253
0.00611622
0.00612899
0.00614085
0.00615182
0.0061619
0.00617112
0.00617948
0.00618699
0.00619366
0.00619951
0.00620455
0.00620878
0.00621221
0.00621486
0.00621672
0.0062178
0.00621812
0.00621767
0.00621649
0.00621457
0.00621192
0.00620855
0.00620447
0.00619969
0.0061942
0.00618803
0.00618117
0.00617363
0.00616541
0.00615653
0.00614698
0.00613678
0.00612591
0.0061144
0.00610224
0.00608944
0.00607599
0.0060619
0.00604718
0.00603181
0.00601582
0.00599918
0.00598192
0.00596401
0.00594547
0.0059263
0.00590648
0.00588603
0.00586494
0.0058432
0.00582082
0.00579778
0.0057741
0.00574977
0.00572477
0.00569912
0.00567281
0.00564583
0.00561819
0.00558988
0.0055609
0.00553124
0.00550091
0.0054699
0.00543821
0.00540584
0.00537279
0.00533906
0.00530464
0.00526954
0.00523376
0.00519729
0.00516014
0.0051223
0.00508379
0.00504459
0.00500471
0.00496416
0.00492292
0.00488101
0.00483843
0.00479517
0.00475124
0.00470663
0.00466135
0.0046154
0.00456878
0.00452148
0.00447351
0.00442485
0.00437551
0.00432547
0.00427474
0.00422329
0.00417112
0.00411821
0.00406454
0.00401009
0.00395483
0.00389872
0.00384174
0.00378382
0.00372493
0.003665
0.00360395
0.0035417
0.00347815
0.00341318
0.00334666
0.0032784
0.00320822
0.00313588
0.00306107
0.00298345
0.0029026
0.00281802
0.0027291
0.00263514
0.0025353
0.00242855
0.00231366
0.00218889
0.00205188
0.00189938
0.00172711
0.00152986
0.00130219
0.001041
0.000751093
0.000453923
0.000199997
3.8667e-05
0.000311809
0.000757097
0.00113741
0.0014547
0.00172764
0.00196702
0.0021803
0.00237291
0.0025489
0.00271129
0.0028624
0.00300399
0.00313741
0.00326372
0.00338376
0.0034982
0.00360756
0.00371231
0.0038128
0.00390935
0.00400222
0.00409166
0.00417786
0.00426101
0.00434127