/*--------------------------------*- C++ -*----------------------------------*\
  =========                 |
  \\      /  F ield         | OpenFOAM: The Open Source CFD Toolbox
   \\    /   O peration     | Website:  https://openfoam.org
    \\  /    A nd           | Version:  8
     \\/     M anipulation  |
\*---------------------------------------------------------------------------*/
FoamFile
{
    version     2.0;
    format      ascii;
    class       volScalarField;
    location    "600";
    object      epsilon;
}
// * * * * * * * * * * * * * * * * * * * * * * * * * * * * * * * * * * * * * //

dimensions      [0 2 -3 0 0 0 0];

internalField   nonuniform List<scalar> 
48000
(
0.128039
0.144194
0.175019
0.193136
0.186771
0.986454
1.21765
0.940761
1.06839
1.21578
1.3658
1.52146
1.68112
1.84482
2.0123
2.18344
2.35814
2.5363
2.71782
2.9026
3.09053
3.28149
3.47535
3.67198
3.87123
4.07295
4.27697
4.48313
4.69122
4.90107
5.11247
5.32519
5.53903
5.75375
5.96912
6.1849
6.40084
6.6167
6.83222
7.04716
7.26126
7.47427
7.68595
7.89605
8.10433
8.31055
8.51449
8.71591
8.91461
9.11037
9.30299
9.49228
9.67804
9.86011
10.0383
10.2125
10.3825
10.5482
10.7094
10.8661
11.018
11.1652
11.3075
11.4449
11.5771
11.7043
11.8262
11.9429
12.0542
12.1602
12.2608
12.356
12.4457
12.53
12.6087
12.682
12.7497
12.812
12.8687
12.9199
12.9656
13.0057
13.0404
13.0698
13.0942
13.1133
13.127
13.1355
13.1388
13.1368
13.1296
13.1174
13.1001
13.0777
13.0505
13.0183
12.9813
12.9396
12.8932
12.8423
12.7868
12.7269
12.6626
12.594
12.5212
12.4444
12.3634
12.2786
12.1899
12.0974
12.0012
11.9014
11.798
11.6913
11.5811
11.4676
11.3509
11.2311
11.1083
10.9824
10.8536
10.722
10.5877
10.4506
10.311
10.1688
10.0242
9.87729
9.72805
9.57661
9.42306
9.2675
9.11
8.95067
8.7896
8.62689
8.46264
8.29695
8.12994
7.96171
7.79237
7.62204
7.45084
7.27889
7.10631
6.93322
6.75976
6.58605
6.41222
6.23842
6.06476
5.89138
5.71843
5.54603
5.37433
5.20345
5.03354
4.86472
4.69714
4.53093
4.36621
4.20312
4.04178
3.88232
3.72486
3.56953
3.41643
3.26568
3.11739
2.97167
2.82862
2.68834
2.55091
2.41644
2.285
2.15667
2.03153
1.90964
1.79107
1.67587
1.56408
1.45574
1.35087
1.24947
1.15154
1.05719
0.968863
0.916072
1.02327
0.190645
0.167214
0.160496
0.863132
0.893104
0.196543
0.185394
0.165585
0.138784
0.107499
0.0882668
0.128053
0.144213
0.175037
0.193104
0.186812
0.986974
1.21754
0.940522
1.06834
1.2158
1.36585
1.52152
1.68118
1.84488
2.01237
2.18351
2.3582
2.53636
2.71788
2.90266
3.09059
3.28154
3.4754
3.67203
3.87128
4.073
4.27702
4.48317
4.69127
4.90111
5.11251
5.32523
5.53907
5.75379
5.96915
6.18493
6.40087
6.61672
6.83224
7.04718
7.26127
7.47428
7.68596
7.89605
8.10433
8.31055
8.51448
8.7159
8.9146
9.11036
9.30297
9.49225
9.67801
9.86008
10.0383
10.2124
10.3824
10.5481
10.7094
10.866
11.018
11.1652
11.3075
11.4448
11.5771
11.7042
11.8261
11.9428
12.0541
12.1602
12.2608
12.3559
12.4457
12.5299
12.6087
12.6819
12.7497
12.8119
12.8686
12.9198
12.9655
13.0056
13.0403
13.0697
13.0941
13.1132
13.1269
13.1354
13.1387
13.1367
13.1295
13.1173
13.1
13.0776
13.0504
13.0182
12.9812
12.9395
12.8931
12.8422
12.7867
12.7268
12.6625
12.5939
12.5211
12.4443
12.3634
12.2785
12.1898
12.0973
12.0011
11.9013
11.798
11.6912
11.581
11.4675
11.3509
11.231
11.1082
10.9823
10.8535
10.7219
10.5876
10.4506
10.3109
10.1688
10.0242
9.8772
9.72796
9.57652
9.42298
9.26741
9.10992
8.95059
8.78952
8.62681
8.46256
8.29687
8.12986
7.96163
7.79229
7.62197
7.45077
7.27881
7.10623
6.93315
6.75969
6.58598
6.41216
6.23835
6.06469
5.89132
5.71837
5.54597
5.37427
5.2034
5.03348
4.86467
4.69709
4.53088
4.36616
4.20307
4.04173
3.88228
3.72482
3.56949
3.41639
3.26564
3.11736
2.97164
2.82859
2.68831
2.55089
2.41642
2.28498
2.15665
2.03151
1.90962
1.79105
1.67585
1.56407
1.45573
1.35086
1.24946
1.15152
1.05714
0.968722
0.915716
1.02313
0.191048
0.172243
0.911749
0.186796
0.876456
0.19608
0.18528
0.165557
0.138775
0.107491
0.0882571
0.192927
0.157845
0.17561
0.210984
0.277651
0.396503
0.463997
0.466482
0.51641
0.576789
0.64057
0.706908
0.775448
0.846069
0.918698
0.993292
1.06982
1.14825
1.22855
1.31068
1.3946
1.48025
1.56759
1.65655
1.74706
1.83904
1.93241
2.02708
2.12295
2.21993
2.3179
2.41676
2.51639
2.61668
2.71749
2.81872
2.92023
3.0219
3.1236
3.2252
3.32657
3.42759
3.52814
3.62808
3.7273
3.82567
3.92309
4.01944
4.1146
4.20847
4.30095
4.39194
4.48135
4.56908
4.65505
4.73918
4.8214
4.90162
4.97978
5.05583
5.12969
5.20132
5.27066
5.33767
5.4023
5.46452
5.52428
5.58157
5.63634
5.68858
5.73827
5.78538
5.8299
5.87181
5.91112
5.9478
5.98185
6.01328
6.04207
6.06823
6.09177
6.11268
6.131
6.14682
6.16015
6.17095
6.17921
6.18495
6.18817
6.18889
6.18714
6.18292
6.17627
6.16721
6.15577
6.14199
6.12588
6.10748
6.08684
6.06397
6.03893
6.01174
5.98244
5.95108
5.91769
5.88232
5.84499
5.80576
5.76467
5.72175
5.67705
5.6306
5.58245
5.53263
5.4812
5.42818
5.37361
5.31753
5.25999
5.20102
5.14065
5.07893
5.01588
4.95156
4.88599
4.81921
4.75127
4.6822
4.61203
4.54082
4.46859
4.39539
4.32127
4.24626
4.17041
4.09378
4.01639
3.93831
3.85958
3.78025
3.70038
3.62002
3.53922
3.45804
3.37654
3.29478
3.21281
3.13071
3.04852
2.96631
2.88415
2.8021
2.72023
2.63859
2.55727
2.47631
2.39579
2.31577
2.23632
2.1575
2.07938
2.00202
1.92549
1.84984
1.77514
1.70145
1.62883
1.55733
1.48701
1.41792
1.35012
1.28365
1.21857
1.15491
1.09273
1.03206
0.972938
0.915404
0.859489
0.805223
0.752632
0.701739
0.652572
0.605171
0.559646
0.516395
0.476922
0.445876
0.424926
0.333292
0.294864
0.276068
0.307741
0.282926
0.185767
0.152492
0.132541
0.11742
0.110445
0.142653
0.192935
0.157919
0.175743
0.211152
0.27689
0.395554
0.464323
0.467174
0.516545
0.576775
0.640532
0.706867
0.775404
0.846023
0.91865
0.993242
1.06977
1.14819
1.22849
1.31062
1.39453
1.48019
1.56753
1.65649
1.74699
1.83897
1.93234
2.027
2.12287
2.21985
2.31782
2.41668
2.51631
2.61659
2.7174
2.81863
2.92014
3.0218
3.1235
3.2251
3.32647
3.42749
3.52803
3.62797
3.72719
3.82557
3.92298
4.01932
4.11448
4.20835
4.30083
4.39182
4.48123
4.56896
4.65493
4.73906
4.82127
4.90149
4.97966
5.0557
5.12956
5.20119
5.27053
5.33753
5.40217
5.46438
5.52415
5.58143
5.63621
5.68845
5.73813
5.78524
5.82976
5.87168
5.91098
5.94766
5.98172
6.01314
6.04193
6.0681
6.09163
6.11255
6.13087
6.14668
6.16001
6.17081
6.17907
6.18481
6.18804
6.18876
6.187
6.18279
6.17614
6.16708
6.15564
6.14185
6.12575
6.10735
6.08671
6.06384
6.0388
6.01161
5.98232
5.95096
5.91757
5.88219
5.84487
5.80564
5.76455
5.72163
5.67693
5.63048
5.58233
5.53252
5.48108
5.42806
5.3735
5.31742
5.25988
5.20091
5.14054
5.07882
5.01578
4.95146
4.88589
4.81912
4.75117
4.6821
4.61194
4.54072
4.4685
4.3953
4.32118
4.24617
4.17033
4.09369
4.01631
3.93823
3.8595
3.78018
3.7003
3.61994
3.53915
3.45797
3.37647
3.29471
3.21275
3.13064
3.04845
2.96625
2.88409
2.80204
2.72017
2.63854
2.55721
2.47626
2.39574
2.31572
2.23627
2.15746
2.07934
2.00198
1.92545
1.8498
1.7751
1.70141
1.62879
1.55729
1.48697
1.41789
1.35009
1.28362
1.21854
1.15488
1.0927
1.03203
0.972912
0.915379
0.859466
0.8052
0.75261
0.701719
0.652553
0.605151
0.559622
0.516356
0.476876
0.446001
0.425493
0.33449
0.302273
0.330389
0.261324
0.274051
0.184548
0.152275
0.13247
0.117384
0.110419
0.142619
0.256213
0.19714
0.205313
0.231615
0.268512
0.313032
0.355913
0.392647
0.434693
0.480285
0.528399
0.578658
0.630856
0.684874
0.740639
0.798103
0.85723
0.917992
0.98036
1.0443
1.10979
1.17678
1.24523
1.31509
1.38631
1.45883
1.53258
1.6075
1.6835
1.76051
1.83844
1.9172
1.99669
2.07683
2.1575
2.23862
2.32007
2.40176
2.48356
2.56539
2.64714
2.72869
2.80994
2.8908
2.97116
3.05091
3.12997
3.20823
3.2856
3.36201
3.43734
3.51154
3.58451
3.65618
3.72647
3.79532
3.86267
3.92844
3.99258
4.05504
4.11577
4.17472
4.23183
4.28709
4.34043
4.39184
4.44128
4.48872
4.53414
4.57751
4.61881
4.65803
4.69515
4.73017
4.76306
4.79382
4.82245
4.84894
4.87329
4.8955
4.91557
4.93351
4.94933
4.96306
4.97472
4.98431
4.99183
4.99729
5.00069
5.00204
5.00137
4.99868
4.994
4.98735
4.97875
4.96822
4.95579
4.94149
4.92533
4.90736
4.88759
4.86606
4.84281
4.81786
4.79124
4.76299
4.73314
4.70173
4.66878
4.63434
4.59843
4.56109
4.52235
4.48225
4.44082
4.39809
4.35409
4.30886
4.26243
4.21482
4.16608
4.11623
4.0653
4.01332
3.96033
3.90635
3.85142
3.79556
3.73881
3.68121
3.62277
3.56355
3.50357
3.44286
3.38147
3.31943
3.25678
3.19356
3.1298
3.06555
3.00086
2.93576
2.87029
2.80452
2.73847
2.6722
2.60576
2.5392
2.47257
2.40592
2.33929
2.27275
2.20635
2.14014
2.07417
2.00851
1.94319
1.87828
1.81384
1.74991
1.68655
1.62382
1.56176
1.50043
1.43989
1.38017
1.32134
1.26343
1.2065
1.1506
1.09576
1.04203
0.989459
0.938074
0.887918
0.839025
0.791428
0.74516
0.700249
0.656723
0.61461
0.573938
0.53474
0.497065
0.461004
0.426777
0.394965
0.366866
0.341872
0.309505
0.280549
0.253298
0.232344
0.208197
0.177265
0.154968
0.139284
0.130476
0.135393
0.195309
0.256214
0.197221
0.20524
0.231569
0.268279
0.313133
0.356346
0.39284
0.434713
0.480256
0.52836
0.578617
0.630814
0.684831
0.740594
0.798057
0.857184
0.917944
0.980311
1.04425
1.10974
1.17672
1.24517
1.31504
1.38626
1.45878
1.53253
1.60744
1.68345
1.76045
1.83838
1.91714
1.99663
2.07677
2.15745
2.23856
2.32001
2.4017
2.48351
2.56534
2.64708
2.72863
2.80989
2.89074
2.9711
3.05085
3.12991
3.20817
3.28555
3.36195
3.43729
3.51148
3.58445
3.65612
3.72642
3.79527
3.86261
3.92838
3.99253
4.05499
4.11572
4.17466
4.23178
4.28703
4.34038
4.39179
4.44123
4.48867
4.53409
4.57746
4.61876
4.65798
4.69511
4.73012
4.76301
4.79378
4.82241
4.8489
4.87325
4.89546
4.91553
4.93346
4.94929
4.96302
4.97468
4.98427
4.99179
4.99725
5.00065
5.002
5.00133
4.99865
4.99397
4.98732
4.97872
4.96819
4.95576
4.94145
4.9253
4.90733
4.88756
4.86604
4.84278
4.81783
4.79121
4.76296
4.73311
4.7017
4.66875
4.63431
4.5984
4.56106
4.52233
4.48223
4.4408
4.39807
4.35407
4.30884
4.26241
4.2148
4.16606
4.11621
4.06528
4.0133
3.96031
3.90633
3.8514
3.79554
3.7388
3.68119
3.62276
3.56354
3.50356
3.44285
3.38146
3.31942
3.25677
3.19355
3.12979
3.06555
3.00085
2.93575
2.87029
2.80451
2.73846
2.6722
2.60576
2.5392
2.47256
2.40591
2.33929
2.27275
2.20635
2.14014
2.07417
2.0085
1.94319
1.87828
1.81384
1.74991
1.68655
1.62382
1.56176
1.50043
1.43988
1.38017
1.32133
1.26343
1.2065
1.1506
1.09576
1.04203
0.989458
0.938073
0.887917
0.839023
0.791427
0.745158
0.700247
0.656722
0.614609
0.573938
0.53474
0.497065
0.461003
0.426766
0.39493
0.366841
0.341776
0.308849
0.279645
0.258377
0.228875
0.206917
0.176941
0.154846
0.13922
0.130434
0.135353
0.195242
0.306434
0.246168
0.245155
0.259401
0.285072
0.316544
0.350868
0.386671
0.424973
0.46573
0.508718
0.553735
0.600624
0.649266
0.699577
0.751494
0.804971
0.859968
0.916452
0.974391
1.03375
1.0945
1.1566
1.22
1.28467
1.35054
1.41758
1.48571
1.55486
1.62498
1.69598
1.76779
1.84031
1.91348
1.98719
2.06136
2.13589
2.21069
2.28566
2.3607
2.43572
2.51062
2.58531
2.65968
2.73364
2.8071
2.87997
2.95217
3.02359
3.09417
3.16381
3.23244
3.29998
3.36637
3.43153
3.49539
3.5579
3.619
3.67862
3.73671
3.79324
3.84814
3.90139
3.95293
4.00273
4.05076
4.09698
4.14137
4.18391
4.22456
4.26332
4.30016
4.33507
4.36803
4.39903
4.42806
4.45513
4.48021
4.50332
4.52444
4.54359
4.56075
4.57595
4.5892
4.6005
4.60988
4.61732
4.62285
4.62646
4.62817
4.62799
4.62594
4.62204
4.6163
4.60874
4.59939
4.58827
4.57539
4.56079
4.5445
4.52653
4.50693
4.4857
4.4629
4.43854
4.41265
4.38527
4.35643
4.32616
4.29449
4.26145
4.22708
4.1914
4.15445
4.11625
4.07684
4.03625
3.99451
3.95165
3.90769
3.86267
3.81662
3.76956
3.72152
3.67254
3.62264
3.57185
3.5202
3.46771
3.41443
3.36038
3.30559
3.2501
3.19393
3.13712
3.07971
3.02172
2.9632
2.90419
2.84472
2.78482
2.72455
2.66394
2.60303
2.54187
2.48051
2.41898
2.35733
2.29561
2.23388
2.17217
2.11053
2.04902
1.98769
1.92658
1.86575
1.80525
1.74513
1.68544
1.62623
1.56756
1.50947
1.45201
1.39524
1.3392
1.28394
1.22951
1.17595
1.12331
1.07163
1.02096
0.971336
0.922795
0.875377
0.829116
0.784047
0.7402
0.697605
0.656292
0.616288
0.577619
0.540317
0.504412
0.469948
0.436981
0.4056
0.375963
0.348377
0.32267
0.297007
0.272144
0.248008
0.225509
0.204126
0.183799
0.167076
0.155306
0.151236
0.164496
0.24596
0.306364
0.246539
0.245084
0.259415
0.285013
0.316515
0.350905
0.386672
0.424946
0.465694
0.508679
0.553696
0.600583
0.649225
0.699534
0.751451
0.804926
0.859923
0.916406
0.974344
1.0337
1.09445
1.15655
1.21995
1.28462
1.3505
1.41753
1.48566
1.55481
1.62493
1.69593
1.76774
1.84026
1.91343
1.98714
2.06131
2.13584
2.21064
2.28561
2.36066
2.43568
2.51058
2.58526
2.65963
2.7336
2.80706
2.87993
2.95213
3.02355
3.09413
3.16377
3.2324
3.29995
3.36633
3.43149
3.49536
3.55787
3.61896
3.67858
3.73668
3.79321
3.84811
3.90136
3.9529
4.0027
4.05073
4.09695
4.14135
4.18389
4.22454
4.2633
4.30014
4.33505
4.36801
4.39901
4.42805
4.45511
4.4802
4.5033
4.52443
4.54357
4.56074
4.57594
4.58919
4.60049
4.60987
4.61731
4.62284
4.62645
4.62816
4.62799
4.62594
4.62203
4.61629
4.60874
4.59939
4.58826
4.57539
4.56079
4.5445
4.52653
4.50692
4.4857
4.4629
4.43854
4.41265
4.38527
4.35643
4.32616
4.29449
4.26146
4.22708
4.1914
4.15445
4.11626
4.07685
4.03626
3.99452
3.95165
3.9077
3.86268
3.81662
3.76957
3.72153
3.67255
3.62265
3.57185
3.5202
3.46772
3.41444
3.36039
3.3056
3.25011
3.19394
3.13713
3.07972
3.02173
2.96322
2.9042
2.84473
2.78483
2.72456
2.66395
2.60304
2.54188
2.48052
2.41899
2.35734
2.29563
2.23389
2.17218
2.11054
2.04903
1.9877
1.92659
1.86576
1.80526
1.74514
1.68545
1.62624
1.56757
1.50948
1.45202
1.39525
1.33921
1.28395
1.22951
1.17596
1.12332
1.07164
1.02097
0.971343
0.922803
0.875384
0.829123
0.784053
0.740206
0.697611
0.656298
0.616293
0.577625
0.540322
0.504418
0.469954
0.436988
0.405606
0.375966
0.348392
0.322663
0.296814
0.271711
0.248335
0.225149
0.203923
0.183707
0.167024
0.155273
0.151206
0.16445
0.245861
0.289526
0.322139
0.297968
0.29789
0.31493
0.340635
0.371118
0.404826
0.441301
0.480268
0.521488
0.564754
0.609897
0.656783
0.705308
0.755391
0.806969
0.85999
0.914413
0.970198
1.02731
1.08572
1.14539
1.20627
1.26834
1.33155
1.39585
1.46118
1.52749
1.59472
1.66279
1.73165
1.80122
1.87141
1.94215
2.01334
2.08492
2.15678
2.22883
2.30099
2.37316
2.44525
2.51717
2.58883
2.66013
2.73098
2.80131
2.87101
2.94001
3.00823
3.07558
3.142
3.20739
3.27171
3.33486
3.3968
3.45746
3.51678
3.5747
3.63117
3.68614
3.73957
3.79142
3.84163
3.89018
3.93703
3.98215
4.02551
4.06708
4.10685
4.14478
4.18086
4.21508
4.24742
4.27786
4.30641
4.33304
4.35776
4.38056
4.40144
4.42039
4.43743
4.45255
4.46577
4.47709
4.48652
4.49408
4.49976
4.50358
4.50555
4.50568
4.50398
4.50048
4.49518
4.48811
4.4793
4.46875
4.45649
4.44255
4.42696
4.40973
4.39089
4.37048
4.34852
4.32504
4.30007
4.27364
4.24578
4.21651
4.18588
4.15391
4.12063
4.08608
4.05028
4.01326
3.97505
3.93568
3.89519
3.8536
3.81094
3.76723
3.72252
3.67682
3.63016
3.58258
3.5341
3.48475
3.43455
3.38355
3.33176
3.27922
3.22595
3.172
3.11739
3.06215
3.00632
2.94993
2.89302
2.83562
2.77778
2.71952
2.66089
2.60193
2.54268
2.48319
2.42349
2.36363
2.30365
2.2436
2.18354
2.12349
2.06353
2.00368
1.944
1.88455
1.82537
1.7665
1.70801
1.64994
1.59235
1.53528
1.47877
1.4229
1.36769
1.3132
1.25948
1.20657
1.15452
1.10338
1.05318
1.00397
0.955784
0.908665
0.862648
0.817767
0.774055
0.731542
0.690257
0.650227
0.61148
0.574041
0.537938
0.503201
0.469861
0.437955
0.407521
0.378599
0.351237
0.325379
0.300666
0.277082
0.254672
0.233753
0.214628
0.197786
0.184307
0.175694
0.175236
0.194191
0.290933
0.289475
0.322267
0.297701
0.297917
0.314956
0.340621
0.371096
0.404795
0.441266
0.480231
0.521449
0.564714
0.609856
0.656742
0.705266
0.755348
0.806925
0.859946
0.914367
0.970152
1.02727
1.08567
1.14534
1.20623
1.2683
1.3315
1.3958
1.46113
1.52744
1.59467
1.66275
1.73161
1.80117
1.87136
1.9421
2.0133
2.08487
2.15673
2.22879
2.30095
2.37312
2.44521
2.51713
2.58879
2.66009
2.73094
2.80127
2.87097
2.93998
3.00819
3.07555
3.14196
3.20736
3.27168
3.33483
3.39677
3.45743
3.51675
3.57467
3.63114
3.68612
3.73955
3.79139
3.84161
3.89016
3.93701
3.98213
4.02549
4.06707
4.10683
4.14477
4.18085
4.21507
4.24741
4.27785
4.3064
4.33303
4.35775
4.38055
4.40143
4.42038
4.43742
4.45255
4.46576
4.47708
4.48652
4.49407
4.49976
4.50358
4.50555
4.50568
4.50398
4.50048
4.49518
4.48812
4.4793
4.46875
4.4565
4.44256
4.42696
4.40973
4.3909
4.37049
4.34853
4.32505
4.30008
4.27365
4.24578
4.21652
4.18589
4.15392
4.12064
4.08609
4.05029
4.01327
3.97506
3.93569
3.8952
3.85361
3.81095
3.76725
3.72253
3.67683
3.63018
3.58259
3.53411
3.48476
3.43457
3.38356
3.33177
3.27923
3.22597
3.17202
3.1174
3.06217
3.00634
2.94995
2.89304
2.83564
2.77779
2.71954
2.66091
2.60195
2.5427
2.4832
2.4235
2.36364
2.30367
2.24362
2.18355
2.12351
2.06354
2.00369
1.94402
1.88456
1.82538
1.76652
1.70803
1.64996
1.59236
1.53529
1.47879
1.42291
1.3677
1.31321
1.25949
1.20659
1.15454
1.10339
1.05319
1.00398
0.955794
0.908674
0.862657
0.817776
0.774063
0.73155
0.690264
0.650235
0.611487
0.574048
0.537945
0.503207
0.469867
0.437961
0.407528
0.378605
0.351249
0.325392
0.300641
0.276988
0.25466
0.233697
0.214593
0.197767
0.184298
0.175692
0.175229
0.194154
0.290816
0.305986
0.396467
0.34917
0.341276
0.353141
0.375339
0.403659
0.436191
0.472018
0.510613
0.551615
0.594752
0.639812
0.68663
0.735072
0.785036
0.836439
0.889215
0.943311
0.998682
1.05529
1.1131
1.17207
1.23218
1.29339
1.35566
1.41894
1.4832
1.54838
1.61443
1.68129
1.7489
1.81719
1.88609
1.95553
2.02542
2.09569
2.16624
2.23701
2.3079
2.37882
2.44968
2.5204
2.59088
2.66105
2.7308
2.80006
2.86874
2.93675
3.00403
3.07048
3.13603
3.20061
3.26415
3.32657
3.38782
3.44783
3.50654
3.5639
3.61985
3.67434
3.72733
3.77877
3.82862
3.87683
3.92339
3.96825
4.01138
4.05275
4.09235
4.13014
4.16612
4.20025
4.23253
4.26295
4.29148
4.31813
4.34288
4.36574
4.38669
4.40574
4.42288
4.43813
4.45149
4.46295
4.47254
4.48026
4.48612
4.49012
4.49229
4.49262
4.49114
4.48786
4.4828
4.47597
4.4674
4.4571
4.44511
4.43144
4.41611
4.39916
4.38061
4.36048
4.33881
4.31562
4.29094
4.2648
4.23723
4.20827
4.17794
4.14626
4.11328
4.07903
4.04352
4.0068
3.96889
3.92982
3.88962
3.84832
3.80595
3.76254
3.71812
3.67271
3.62634
3.57904
3.53085
3.48179
3.43188
3.38116
3.32966
3.27741
3.22443
3.17076
3.11644
3.06149
3.00595
2.94985
2.89322
2.83611
2.77856
2.72059
2.66225
2.60358
2.54462
2.48541
2.426
2.36642
2.30673
2.24698
2.18719
2.12744
2.06776
2.0082
1.94881
1.88964
1.83074
1.77216
1.71396
1.65617
1.59886
1.54208
1.48587
1.43028
1.37536
1.32116
1.26773
1.21512
1.16336
1.11251
1.0626
1.01369
0.965795
0.918969
0.873242
0.828649
0.78522
0.742986
0.701973
0.662208
0.623715
0.586521
0.550648
0.516123
0.48297
0.451216
0.420881
0.391983
0.364531
0.338518
0.313893
0.290686
0.269014
0.249141
0.231468
0.216611
0.205539
0.199788
0.202526
0.224621
0.326064
0.306087
0.395385
0.348836
0.341269
0.353161
0.375329
0.403632
0.436157
0.471981
0.510574
0.551575
0.594711
0.639771
0.686588
0.735029
0.784992
0.836394
0.88917
0.943265
0.998636
1.05524
1.11305
1.17203
1.23214
1.29334
1.35561
1.4189
1.48315
1.54833
1.61439
1.68125
1.74886
1.81715
1.88605
1.95548
2.02537
2.09564
2.1662
2.23697
2.30786
2.37878
2.44964
2.52036
2.59085
2.66101
2.73076
2.80002
2.8687
2.93672
3.00399
3.07044
3.136
3.20058
3.26412
3.32654
3.38779
3.44781
3.50652
3.56388
3.61983
3.67432
3.72731
3.77875
3.8286
3.87682
3.92337
3.96823
4.01136
4.05274
4.09233
4.13013
4.1661
4.20024
4.23252
4.26294
4.29147
4.31812
4.34288
4.36573
4.38668
4.40573
4.42288
4.43813
4.45148
4.46295
4.47254
4.48026
4.48612
4.49012
4.49229
4.49262
4.49114
4.48786
4.4828
4.47597
4.4674
4.45711
4.44512
4.43144
4.41612
4.39917
4.38061
4.36049
4.33881
4.31562
4.29095
4.26481
4.23724
4.20828
4.17795
4.14627
4.1133
4.07904
4.04353
4.00681
3.9689
3.92983
3.88963
3.84833
3.80596
3.76255
3.71813
3.67272
3.62635
3.57906
3.53087
3.4818
3.4319
3.38118
3.32968
3.27742
3.22445
3.17078
3.11645
3.0615
3.00596
2.94986
2.89324
2.83613
2.77857
2.7206
2.66226
2.60359
2.54463
2.48542
2.42601
2.36644
2.30675
2.24699
2.18721
2.12745
2.06777
2.00821
1.94882
1.88965
1.83075
1.77218
1.71397
1.65619
1.59888
1.54209
1.48588
1.43029
1.37537
1.32117
1.26774
1.21513
1.16337
1.11252
1.06261
1.0137
0.965805
0.918978
0.873251
0.828658
0.785229
0.742994
0.701981
0.662215
0.623723
0.586528
0.550655
0.516129
0.482977
0.451221
0.420886
0.391988
0.364538
0.338526
0.313896
0.290675
0.26901
0.249136
0.231468
0.216616
0.205552
0.199815
0.20257
0.224668
0.325953
1.52354
0.584925
0.415473
0.390763
0.397796
0.417548
0.44465
0.476799
0.512779
0.55186
0.593552
0.6375
0.683436
0.731151
0.780479
0.831291
0.883483
0.936974
0.991697
1.0476
1.10464
1.16278
1.22199
1.28223
1.34348
1.4057
1.46886
1.53292
1.59784
1.66357
1.73006
1.79726
1.8651
1.93353
2.00247
2.07186
2.14161
2.21165
2.2819
2.35228
2.4227
2.49308
2.56333
2.63336
2.7031
2.77245
2.84133
2.90966
2.97735
3.04432
3.1105
3.17581
3.24018
3.30354
3.36581
3.42693
3.48683
3.54547
3.60278
3.6587
3.71319
3.7662
3.81767
3.86758
3.91588
3.96252
4.00749
4.05075
4.09226
4.13201
4.16997
4.20611
4.24043
4.27289
4.3035
4.33223
4.35908
4.38403
4.40709
4.42825
4.4475
4.46485
4.48029
4.49384
4.50549
4.51526
4.52315
4.52917
4.53333
4.53564
4.53611
4.53476
4.5316
4.52665
4.51992
4.51144
4.50123
4.48931
4.4757
4.46042
4.44351
4.42498
4.40487
4.3832
4.36
4.3353
4.30912
4.28151
4.25248
4.22207
4.19031
4.15723
4.12286
4.08722
4.05035
4.01229
3.97305
3.93267
3.89117
3.84859
3.80496
3.7603
3.71465
3.66803
3.62047
3.57199
3.52264
3.47244
3.42141
3.3696
3.31702
3.26371
3.2097
3.15503
3.09973
3.04382
2.98736
2.93036
2.87288
2.81494
2.75659
2.69786
2.63879
2.57944
2.51983
2.46002
2.40004
2.33995
2.27979
2.2196
2.15944
2.09936
2.0394
1.97961
1.92004
1.86075
1.80178
1.74319
1.68502
1.62734
1.57018
1.5136
1.45765
1.40238
1.34784
1.29408
1.24113
1.18906
1.13789
1.08768
1.03847
0.990289
0.943178
0.897172
0.852304
0.808604
0.7661
0.724818
0.684783
0.646018
0.608545
0.572387
0.537566
0.504103
0.472022
0.441342
0.412084
0.384269
0.357927
0.333103
0.309896
0.288486
0.269182
0.252473
0.239132
0.230399
0.228296
0.236226
0.261423
0.342758
1.52436
0.583334
0.416113
0.390964
0.397828
0.417533
0.44462
0.476764
0.512742
0.551821
0.593512
0.637459
0.683394
0.731108
0.780435
0.831247
0.883438
0.936928
0.991651
1.04755
1.10459
1.16273
1.22194
1.28218
1.34343
1.40565
1.46881
1.53287
1.59779
1.66352
1.73001
1.79721
1.86506
1.93348
2.00243
2.07181
2.14156
2.21161
2.28186
2.35224
2.42266
2.49304
2.56329
2.63333
2.70306
2.77241
2.84129
2.90962
2.97731
3.04429
3.11047
3.17578
3.24015
3.30351
3.36578
3.4269
3.48681
3.54544
3.60275
3.65868
3.71317
3.76617
3.81765
3.86756
3.91586
3.96251
4.00748
4.05073
4.09225
4.132
4.16995
4.2061
4.24041
4.27288
4.30349
4.33222
4.35907
4.38403
4.40709
4.42824
4.4475
4.46484
4.48029
4.49384
4.50549
4.51526
4.52315
4.52917
4.53333
4.53564
4.53611
4.53476
4.5316
4.52665
4.51993
4.51145
4.50124
4.48931
4.4757
4.46043
4.44352
4.42499
4.40488
4.38321
4.36001
4.33531
4.30913
4.28152
4.25249
4.22208
4.19032
4.15724
4.12287
4.08723
4.05037
4.0123
3.97306
3.93268
3.89119
3.84861
3.80498
3.76032
3.71466
3.66804
3.62048
3.57201
3.52266
3.47245
3.42143
3.36961
3.31703
3.26372
3.20972
3.15505
3.09974
3.04384
2.98737
2.93038
2.87289
2.81496
2.7566
2.69787
2.63881
2.57945
2.51985
2.46003
2.40006
2.33997
2.2798
2.21962
2.15946
2.09937
2.03941
1.97962
1.92005
1.86076
1.80179
1.7432
1.68504
1.62735
1.57019
1.51361
1.45767
1.4024
1.34785
1.29409
1.24115
1.18907
1.1379
1.08769
1.03848
0.990298
0.943187
0.897181
0.852313
0.808613
0.766108
0.724826
0.68479
0.646025
0.608552
0.572393
0.537572
0.504109
0.472027
0.441347
0.412088
0.384273
0.357932
0.333108
0.309899
0.28849
0.269187
0.252479
0.23914
0.230416
0.228352
0.236425
0.261811
0.342616
1.76788
0.692286
0.478718
0.444174
0.447673
0.465819
0.492435
0.524854
0.561612
0.601801
0.644812
0.690206
0.737652
0.786896
0.837737
0.890015
0.943604
0.998406
1.05434
1.11135
1.16939
1.22841
1.28839
1.34929
1.4111
1.47377
1.5373
1.60164
1.66676
1.73263
1.7992
1.86643
1.93426
2.00263
2.07149
2.14077
2.2104
2.28031
2.35043
2.42067
2.49095
2.5612
2.63133
2.70125
2.7709
2.84017
2.90899
2.97727
3.04494
3.11191
3.17811
3.24347
3.30789
3.37133
3.4337
3.49494
3.55499
3.61378
3.67126
3.72738
3.78207
3.8353
3.887
3.93715
3.9857
4.03261
4.07784
4.12137
4.16316
4.20319
4.24143
4.27786
4.31246
4.3452
4.37609
4.40509
4.43221
4.45742
4.48074
4.50214
4.52162
4.5392
4.55485
4.5686
4.58044
4.59037
4.59841
4.60457
4.60885
4.61126
4.61182
4.61053
4.60743
4.60251
4.5958
4.58732
4.57709
4.56512
4.55145
4.5361
4.51909
4.50045
4.4802
4.45837
4.43499
4.41009
4.3837
4.35585
4.32657
4.29588
4.26382
4.23041
4.1957
4.1597
4.12245
4.08398
4.04432
4.0035
3.96155
3.91849
3.87436
3.82919
3.783
3.73583
3.6877
3.63865
3.5887
3.53788
3.48623
3.43377
3.38054
3.32657
3.27188
3.21652
3.16052
3.10391
3.04672
2.989
2.93078
2.8721
2.813
2.75352
2.69369
2.63357
2.5732
2.51261
2.45187
2.391
2.33006
2.2691
2.20817
2.14731
2.08657
2.02601
1.96568
1.90563
1.8459
1.78656
1.72766
1.66923
1.61135
1.55405
1.4974
1.44143
1.3862
1.33176
1.27815
1.22542
1.17361
1.12276
1.07293
1.02413
0.976413
0.929809
0.884349
0.840063
0.796976
0.755114
0.714499
0.675153
0.637096
0.60035
0.564935
0.530872
0.498184
0.466898
0.437045
0.408666
0.381821
0.356604
0.333163
0.311736
0.292696
0.276642
0.264579
0.258334
0.261535
0.281494
0.326712
0.30541
1.76745
0.691186
0.480039
0.444514
0.447709
0.465797
0.492401
0.524816
0.561572
0.601761
0.64477
0.690163
0.737609
0.786852
0.837692
0.889969
0.943558
0.99836
1.0543
1.11131
1.16934
1.22836
1.28834
1.34924
1.41105
1.47373
1.53725
1.60159
1.66671
1.73258
1.79915
1.86638
1.93421
2.00258
2.07144
2.14072
2.21036
2.28027
2.35038
2.42062
2.49091
2.56116
2.63129
2.70121
2.77086
2.84013
2.90895
2.97723
3.0449
3.11188
3.17808
3.24343
3.30786
3.3713
3.43367
3.49491
3.55496
3.61376
3.67124
3.72735
3.78205
3.83527
3.88698
3.93713
3.98568
4.03259
4.07783
4.12136
4.16315
4.20318
4.24142
4.27785
4.31244
4.34519
4.37608
4.40508
4.4322
4.45742
4.48073
4.50213
4.52162
4.53919
4.55485
4.56859
4.58043
4.59037
4.59841
4.60457
4.60885
4.61126
4.61182
4.61054
4.60743
4.60251
4.5958
4.58732
4.57709
4.56513
4.55146
4.53611
4.5191
4.50045
4.4802
4.45838
4.435
4.4101
4.38371
4.35586
4.32657
4.29589
4.26383
4.23042
4.19571
4.15971
4.12246
4.084
4.04434
4.00351
3.96156
3.9185
3.87437
3.8292
3.78301
3.73584
3.68771
3.63866
3.58871
3.53789
3.48624
3.43378
3.38055
3.32658
3.2719
3.21654
3.16053
3.10392
3.04674
2.98902
2.9308
2.87212
2.81301
2.75353
2.69371
2.63359
2.57321
2.51263
2.45188
2.39101
2.33008
2.26912
2.20818
2.14732
2.08659
2.02603
1.96569
1.90564
1.84592
1.78658
1.72767
1.66925
1.61136
1.55407
1.49741
1.44144
1.38621
1.33177
1.27816
1.22543
1.17362
1.12277
1.07293
1.02414
0.976421
0.929817
0.884357
0.84007
0.796983
0.755121
0.714506
0.67516
0.637103
0.600356
0.56494
0.530877
0.498189
0.466903
0.437049
0.408669
0.381825
0.356608
0.333167
0.311741
0.292701
0.276646
0.264579
0.258335
0.261619
0.282045
0.326828
0.305357
2.03302
0.79966
0.546002
0.502008
0.502339
0.519471
0.546215
0.579476
0.617542
0.659344
0.704161
0.751475
0.800896
0.852122
0.904915
0.959087
1.01449
1.071
1.12854
1.18703
1.24641
1.30666
1.36773
1.42961
1.49227
1.5557
1.61987
1.68475
1.75034
1.81658
1.88347
1.95094
2.01897
2.08749
2.15647
2.22583
2.29552
2.36548
2.43562
2.50588
2.57619
2.64645
2.71661
2.78656
2.85624
2.92556
2.99445
3.06281
3.13057
3.19765
3.26398
3.32947
3.39405
3.45766
3.52022
3.58167
3.64194
3.70097
3.7587
3.81507
3.87003
3.92354
3.97553
4.02598
4.07483
4.12204
4.16759
4.21143
4.25353
4.29387
4.33242
4.36915
4.40405
4.4371
4.46827
4.49756
4.52494
4.55042
4.57398
4.59562
4.61534
4.63312
4.64897
4.66289
4.67489
4.68497
4.69313
4.69939
4.70375
4.70623
4.70683
4.70557
4.70246
4.69752
4.69077
4.68223
4.67191
4.65983
4.64603
4.63052
4.61334
4.59449
4.57402
4.55194
4.52829
4.50309
4.47638
4.44819
4.41853
4.38745
4.35497
4.32113
4.28595
4.24946
4.2117
4.17269
4.13247
4.09107
4.04851
4.00483
3.96005
3.91421
3.86733
3.81945
3.77059
3.72079
3.67007
3.61847
3.56602
3.51274
3.45868
3.40386
3.34831
3.29208
3.23519
3.17768
3.11958
3.06094
3.00179
2.94218
2.88213
2.82169
2.76091
2.69983
2.63848
2.57693
2.5152
2.45336
2.39144
2.3295
2.26759
2.20575
2.14404
2.08251
2.02122
1.9602
1.89953
1.83924
1.77939
1.72004
1.66123
1.60302
1.54547
1.48861
1.4325
1.37719
1.32272
1.26915
1.21651
1.16484
1.11419
1.0646
1.01609
0.968697
0.922459
0.877398
0.833541
0.79091
0.749527
0.709411
0.670582
0.633059
0.596863
0.562017
0.528548
0.496489
0.465884
0.436792
0.4093
0.383537
0.359691
0.338048
0.319046
0.303384
0.292249
0.2879
0.295213
0.325016
0.38675
0.316899
2.03251
0.798745
0.54764
0.502405
0.50237
0.519442
0.546177
0.579437
0.617501
0.659302
0.704118
0.751431
0.800851
0.852077
0.904869
0.95904
1.01444
1.07095
1.12849
1.18698
1.24636
1.30661
1.36768
1.42956
1.49222
1.55565
1.61982
1.6847
1.75029
1.81653
1.88342
1.95089
2.01892
2.08744
2.15642
2.22579
2.29548
2.36543
2.43558
2.50584
2.57614
2.64641
2.71656
2.78652
2.8562
2.92553
2.99441
3.06277
3.13053
3.19762
3.26394
3.32943
3.39402
3.45763
3.52019
3.58164
3.64191
3.70094
3.75867
3.81504
3.87001
3.92351
3.97551
4.02595
4.0748
4.12202
4.16757
4.21141
4.25351
4.29385
4.3324
4.36914
4.40404
4.43708
4.46826
4.49754
4.52493
4.55041
4.57398
4.59562
4.61533
4.63311
4.64897
4.66289
4.67489
4.68497
4.69313
4.69939
4.70375
4.70623
4.70683
4.70557
4.70246
4.69753
4.69077
4.68223
4.67191
4.65984
4.64604
4.63053
4.61334
4.5945
4.57402
4.55195
4.5283
4.5031
4.47639
4.44819
4.41854
4.38746
4.35498
4.32114
4.28596
4.24947
4.21171
4.1727
4.13248
4.09108
4.04852
4.00484
3.96006
3.91422
3.86734
3.81946
3.7706
3.7208
3.67009
3.61848
3.56603
3.51276
3.45869
3.40387
3.34833
3.29209
3.2352
3.17769
3.1196
3.06096
3.00181
2.94219
2.88214
2.82171
2.76093
2.69984
2.6385
2.57694
2.51522
2.45337
2.39146
2.32952
2.2676
2.20577
2.14406
2.08253
2.02123
1.96022
1.89954
1.83925
1.7794
1.72005
1.66124
1.60304
1.54548
1.48862
1.43251
1.3772
1.32273
1.26916
1.21652
1.16485
1.1142
1.0646
1.01609
0.968705
0.922466
0.877406
0.833548
0.790917
0.749534
0.709417
0.670588
0.633065
0.596869
0.562023
0.528553
0.496494
0.465888
0.436796
0.409304
0.383541
0.359695
0.338053
0.319052
0.303387
0.292243
0.287868
0.295181
0.325304
0.385987
0.317009
2.35292
0.915024
0.617906
0.563693
0.561307
0.578113
0.605615
0.64026
0.68011
0.723956
0.770981
0.820595
0.872352
0.925904
0.980977