/*--------------------------------*- C++ -*----------------------------------*\
  =========                 |
  \\      /  F ield         | OpenFOAM: The Open Source CFD Toolbox
   \\    /   O peration     | Website:  https://openfoam.org
    \\  /    A nd           | Version:  8
     \\/     M anipulation  |
\*---------------------------------------------------------------------------*/
FoamFile
{
    version     2.0;
    format      ascii;
    class       volScalarField;
    location    "600";
    object      k;
}
// * * * * * * * * * * * * * * * * * * * * * * * * * * * * * * * * * * * * * //

dimensions      [0 2 -2 0 0 0 0];

internalField   nonuniform List<scalar> 
48000
(
0.0116446
0.0154742
0.0190418
0.0215382
0.0222425
0.0226043
0.0244965
0.0230204
0.024737
0.0269076
0.0290689
0.0312362
0.0333845
0.0355174
0.0376354
0.0397397
0.0418317
0.0439126
0.0459832
0.0480442
0.0500958
0.0521384
0.0541718
0.056196
0.0582107
0.0602154
0.0622095
0.0641926
0.0661636
0.068122
0.0700667
0.0719968
0.0739112
0.0758089
0.0776887
0.0795495
0.0813902
0.0832095
0.0850064
0.0867797
0.0885281
0.0902508
0.0919465
0.0936142
0.0952529
0.0968616
0.0984395
0.0999856
0.101499
0.102979
0.104426
0.105837
0.107213
0.108553
0.109857
0.111123
0.112353
0.113545
0.114699
0.115814
0.116891
0.11793
0.118929
0.11989
0.120812
0.121694
0.122537
0.123342
0.124107
0.124833
0.125521
0.126169
0.126779
0.12735
0.127883
0.128378
0.128834
0.129253
0.129634
0.129977
0.130283
0.130552
0.130783
0.13098
0.131142
0.131269
0.131361
0.131418
0.131439
0.131426
0.131378
0.131296
0.13118
0.131031
0.130848
0.130633
0.130386
0.130106
0.129795
0.129452
0.129079
0.128675
0.128242
0.127778
0.127285
0.126764
0.126214
0.125635
0.12503
0.124396
0.123736
0.123049
0.122336
0.121596
0.120831
0.120041
0.119225
0.118385
0.11752
0.11663
0.115717
0.11478
0.113819
0.112835
0.111828
0.110797
0.109745
0.10867
0.107572
0.106453
0.105312
0.10415
0.102967
0.101763
0.100539
0.0992945
0.0980304
0.0967469
0.0954445
0.0941235
0.0927844
0.0914277
0.0900538
0.0886632
0.0872565
0.0858343
0.084397
0.0829453
0.0814797
0.0800011
0.0785099
0.0770069
0.0754928
0.0739682
0.072434
0.0708909
0.0693397
0.0677811
0.0662159
0.0646449
0.0630691
0.0614891
0.0599059
0.0583203
0.0567331
0.0551452
0.0535575
0.0519709
0.0503861
0.0488041
0.0472257
0.0456517
0.044083
0.0425205
0.0409648
0.039417
0.0378777
0.0363477
0.0348277
0.0333185
0.0318205
0.0303343
0.0288602
0.0273982
0.0259475
0.0245046
0.0230596
0.0216238
0.0204774
0.0261254
0.0243294
0.0214524
0.0192819
0.0192109
0.0210145
0.0199095
0.0176559
0.0147357
0.0113955
0.00797621
0.011646
0.0154762
0.0190438
0.0215406
0.0222383
0.0225978
0.0244998
0.0230306
0.0247404
0.026909
0.0290698
0.0312371
0.0333853
0.0355182
0.0376361
0.0397404
0.0418324
0.0439133
0.0459839
0.0480448
0.0500965
0.052139
0.0541724
0.0561966
0.0582112
0.0602158
0.06221
0.064193
0.066164
0.0681224
0.0700671
0.0719971
0.0739115
0.0758092
0.077689
0.0795497
0.0813904
0.0832097
0.0850066
0.0867798
0.0885283
0.0902509
0.0919465
0.0936142
0.0952529
0.0968617
0.0984395
0.0999856
0.101499
0.102979
0.104425
0.105837
0.107213
0.108553
0.109857
0.111123
0.112353
0.113545
0.114698
0.115814
0.116891
0.117929
0.118929
0.11989
0.120811
0.121694
0.122537
0.123341
0.124107
0.124833
0.12552
0.126169
0.126778
0.12735
0.127883
0.128377
0.128834
0.129252
0.129633
0.129976
0.130282
0.130551
0.130783
0.130979
0.131142
0.131269
0.13136
0.131417
0.131438
0.131425
0.131377
0.131295
0.131179
0.13103
0.130848
0.130632
0.130385
0.130105
0.129794
0.129452
0.129078
0.128675
0.128241
0.127777
0.127285
0.126763
0.126213
0.125635
0.125029
0.124396
0.123735
0.123048
0.122335
0.121596
0.120831
0.12004
0.119224
0.118384
0.117519
0.11663
0.115716
0.114779
0.113818
0.112834
0.111827
0.110797
0.109744
0.108669
0.107572
0.106453
0.105312
0.10415
0.102967
0.101763
0.100538
0.0992939
0.0980298
0.0967463
0.0954439
0.0941229
0.0927838
0.0914271
0.0900532
0.0886626
0.0872559
0.0858337
0.0843964
0.0829447
0.0814792
0.0800005
0.0785093
0.0770063
0.0754922
0.0739677
0.0724335
0.0708904
0.0693392
0.0677806
0.0662154
0.0646445
0.0630686
0.0614886
0.0599054
0.0583198
0.0567326
0.0551448
0.0535571
0.0519705
0.0503857
0.0488037
0.0472253
0.0456514
0.0440827
0.0425202
0.0409646
0.0394167
0.0378774
0.0363474
0.0348274
0.0333182
0.0318203
0.0303341
0.02886
0.027398
0.0259473
0.0245049
0.023062
0.0216314
0.0204808
0.0260195
0.0233566
0.0204511
0.0210177
0.0191527
0.0209947
0.0199005
0.0176524
0.014734
0.0113944
0.00797528
0.0151926
0.0207058
0.0258297
0.0305793
0.0354236
0.0395837
0.0441387
0.0493691
0.054204
0.0589043
0.0635346
0.068123
0.0726785
0.0772074
0.0817145
0.0862037
0.0906777
0.0951386
0.099588
0.104027
0.108455
0.112872
0.117279
0.121673
0.126054
0.130421
0.134771
0.139102
0.143413
0.147702
0.151965
0.1562
0.160405
0.164577
0.168712
0.172809
0.176864
0.180875
0.184838
0.188752
0.192613
0.196418
0.200166
0.203854
0.207479
0.211039
0.214533
0.217957
0.221311
0.224591
0.227798
0.230929
0.233982
0.236957
0.239852
0.242666
0.245398
0.248048
0.250614
0.253096
0.255493
0.257806
0.260033
0.262174
0.264229
0.266198
0.268081
0.269878
0.271589
0.273213
0.274752
0.276205
0.277573
0.278856
0.280053
0.281166
0.282196
0.283141
0.284003
0.284782
0.285479
0.286094
0.286626
0.287077
0.287447
0.287739
0.287952
0.288088
0.288147
0.288129
0.288035
0.287865
0.287621
0.287303
0.286912
0.286448
0.285914
0.285308
0.284632
0.283888
0.283076
0.282196
0.28125
0.280238
0.279162
0.278022
0.276819
0.275553
0.274227
0.27284
0.271394
0.269889
0.268325
0.266704
0.265027
0.263293
0.261504
0.25966
0.257762
0.255811
0.253806
0.251749
0.24964
0.24748
0.245269
0.243008
0.240697
0.238336
0.235927
0.23347
0.230966
0.228415
0.225817
0.223175
0.220487
0.217755
0.21498
0.212163
0.209304
0.206405
0.203466
0.200488
0.197473
0.194422
0.191335
0.188214
0.18506
0.181875
0.17866
0.175417
0.172146
0.16885
0.165529
0.162186
0.158823
0.15544
0.15204
0.148624
0.145195
0.141754
0.138302
0.134843
0.131377
0.127907
0.124435
0.120963
0.117492
0.114025
0.110563
0.107109
0.103665
0.100233
0.0968145
0.0934116
0.0900264
0.0866609
0.0833168
0.0799961
0.0767004
0.0734314
0.0701906
0.0669792
0.0637982
0.0606484
0.0575303
0.0544446
0.0513921
0.0483802
0.0454494
0.0433506
0.0404668
0.0372202
0.033795
0.0312409
0.0291257
0.0264793
0.0233935
0.0198796
0.015882
0.0112319
0.0151923
0.0207056
0.0258283
0.0305792
0.0354249
0.0395851
0.0441436
0.0493705
0.0542038
0.0589041
0.0635347
0.0681232
0.0726787
0.0772075
0.0817146
0.0862037
0.0906777
0.0951386
0.099588
0.104027
0.108455
0.112872
0.117278
0.121673
0.126054
0.13042
0.13477
0.139102
0.143413
0.147701
0.151965
0.1562
0.160405
0.164576
0.168712
0.172808
0.176863
0.180874
0.184838
0.188751
0.192612
0.196418
0.200165
0.203853
0.207478
0.211038
0.214532
0.217956
0.22131
0.22459
0.227797
0.230928
0.233981
0.236956
0.23985
0.242665
0.245397
0.248046
0.250612
0.253095
0.255492
0.257804
0.260031
0.262173
0.264228
0.266197
0.26808
0.269877
0.271587
0.273212
0.274751
0.276204
0.277571
0.278854
0.280052
0.281165
0.282194
0.283139
0.284002
0.284781
0.285477
0.286092
0.286625
0.287075
0.287445
0.287737
0.287951
0.288087
0.288145
0.288127
0.288033
0.287863
0.287619
0.287301
0.28691
0.286447
0.285912
0.285306
0.284631
0.283886
0.283074
0.282194
0.281248
0.280236
0.27916
0.27802
0.276817
0.275552
0.274225
0.272839
0.271392
0.269887
0.268323
0.266702
0.265025
0.263291
0.261502
0.259658
0.25776
0.255809
0.253804
0.251747
0.249639
0.247478
0.245267
0.243006
0.240695
0.238335
0.235926
0.233469
0.230964
0.228413
0.225816
0.223173
0.220485
0.217754
0.214979
0.212162
0.209303
0.206403
0.203464
0.200487
0.197472
0.19442
0.191333
0.188213
0.185059
0.181874
0.178659
0.175416
0.172145
0.168848
0.165528
0.162185
0.158822
0.155439
0.152039
0.148623
0.145194
0.141753
0.138301
0.134842
0.131376
0.127906
0.124434
0.120962
0.117491
0.114024
0.110562
0.107109
0.103664
0.100232
0.0968136
0.0934108
0.0900256
0.08666
0.083316
0.0799953
0.0766996
0.0734307
0.0701899
0.0669785
0.0637975
0.0606477
0.0575297
0.054444
0.0513912
0.0483773
0.0454363
0.0432874
0.0402281
0.0367117
0.0343056
0.0312934
0.0291289
0.0264779
0.0233921
0.0198781
0.0158801
0.0112301
0.019953
0.0266563
0.0333168
0.0397666
0.0461692
0.0522724
0.0583342
0.0644286
0.0703841
0.0762589
0.0820851
0.087877
0.0936413
0.0993831
0.105106
0.110813
0.116506
0.122187
0.127858
0.133517
0.139166
0.144804
0.15043
0.156042
0.16164
0.16722
0.172781
0.178319
0.183833
0.18932
0.194775
0.200196
0.205579
0.210921
0.216218
0.221466
0.226662
0.231803
0.236883
0.241901
0.246852
0.251734
0.256542
0.261274
0.265927
0.270497
0.274982
0.279379
0.283687
0.287901
0.292021
0.296045
0.299969
0.303794
0.307516
0.311135
0.31465
0.318059
0.321362
0.324557
0.327643
0.330621
0.33349
0.336248
0.338897
0.341435
0.343863
0.346181
0.348388
0.350485
0.352472
0.354348
0.356116
0.357774
0.359323
0.360764
0.362097
0.363322
0.364441
0.365453
0.36636
0.367161
0.367857
0.368449
0.368938
0.369325
0.369612
0.369798
0.369885
0.369874
0.369765
0.369559
0.369258
0.368861
0.368371
0.367787
0.367112
0.366345
0.365489
0.364544
0.363512
0.362393
0.361188
0.359899
0.358527
0.357073
0.355538
0.353924
0.35223
0.350458
0.34861
0.346686
0.344687
0.342614
0.340468
0.33825
0.335961
0.333602
0.331172
0.328674
0.326108
0.323475
0.320775
0.318008
0.315177
0.312281
0.309322
0.306299
0.303214
0.300067
0.296859
0.293592
0.290265
0.28688
0.283437
0.279938
0.276384
0.272776
0.269114
0.2654
0.261636
0.257822
0.25396
0.250051
0.246097
0.2421
0.23806
0.233981
0.229862
0.225708
0.221518
0.217296
0.213043
0.208761
0.204453
0.200121
0.195766
0.191392
0.187
0.182594
0.178174
0.173745
0.169308
0.164866
0.160422
0.155977
0.151536
0.147099
0.142671
0.138253
0.133849
0.12946
0.12509
0.120741
0.116415
0.112116
0.107845
0.103605
0.0993977
0.0952256
0.0910904
0.0869939
0.0829373
0.0789222
0.0749501
0.0710234
0.067147
0.0633351
0.0596115
0.0559693
0.0522209
0.0483778
0.0444826
0.0407222
0.0370558
0.0332805
0.0293474
0.0251754
0.0205997
0.0153819
0.0199564
0.026659
0.033316
0.0397663
0.0461704
0.0522738
0.0583342
0.0644273
0.0703831
0.0762584
0.0820847
0.0878766
0.093641
0.0993827
0.105105
0.110812
0.116506
0.122187
0.127857
0.133517
0.139166
0.144804
0.150429
0.156042
0.161639
0.167219
0.17278
0.178318
0.183832
0.189319
0.194774
0.200195
0.205578
0.21092
0.216217
0.221465
0.226661
0.231801
0.236882
0.2419
0.246851
0.251733
0.256541
0.261273
0.265925
0.270495
0.274981
0.279378
0.283685
0.2879
0.29202
0.296043
0.299968
0.303792
0.307514
0.311134
0.314648
0.318058
0.32136
0.324555
0.327642
0.330619
0.333488
0.336247
0.338895
0.341434
0.343862
0.346179
0.348386
0.350483
0.35247
0.354346
0.356114
0.357772
0.359321
0.360762
0.362095
0.36332
0.364439
0.365451
0.366358
0.367159
0.367855
0.368447
0.368936
0.369323
0.369609
0.369796
0.369883
0.369872
0.369763
0.369557
0.369256
0.368859
0.368368
0.367785
0.367109
0.366343
0.365487
0.364542
0.36351
0.362391
0.361186
0.359897
0.358525
0.357071
0.355536
0.353921
0.352228
0.350456
0.348608
0.346684
0.344685
0.342612
0.340466
0.338248
0.335959
0.3336
0.33117
0.328672
0.326106
0.323473
0.320773
0.318006
0.315175
0.312279
0.30932
0.306297
0.303212
0.300065
0.296857
0.29359
0.290263
0.286878
0.283435
0.279937
0.276382
0.272774
0.269112
0.265398
0.261634
0.25782
0.253958
0.250049
0.246095
0.242098
0.238059
0.233979
0.229861
0.225706
0.221517
0.217295
0.213042
0.20876
0.204452
0.200119
0.195765
0.191391
0.186999
0.182592
0.178173
0.173744
0.169307
0.164865
0.16042
0.155976
0.151534
0.147098
0.14267
0.138252
0.133848
0.129459
0.125089
0.12074
0.116415
0.112115
0.107844
0.103604
0.0993969
0.0952248
0.0910897
0.0869931
0.0829366
0.0789215
0.0749495
0.0710226
0.0671456
0.063332
0.0596046
0.0559473
0.0521548
0.048277
0.0445744
0.0407478
0.0370591
0.0332792
0.029345
0.0251723
0.0205961
0.0153784
0.0235813
0.0319641
0.0402324
0.0479044
0.0552778
0.0623947
0.0693558
0.0762179
0.0829928
0.0897107
0.0963907
0.103043
0.109673
0.116283
0.122877
0.129456
0.136021
0.142574
0.149113
0.155641
0.162156
0.168657
0.175143
0.181614
0.188066
0.194499
0.200908
0.207293
0.213648
0.219972
0.226261
0.232511
0.238717
0.244877
0.250986
0.25704
0.263034
0.268965
0.274829
0.28062
0.286337
0.291973
0.297526
0.302992
0.308368
0.313649
0.318834
0.323918
0.328898
0.333773
0.338539
0.343195
0.347737
0.352164
0.356474
0.360666
0.364737
0.368687
0.372514
0.376218
0.379796
0.38325
0.386577
0.389778
0.392852
0.395798
0.398618
0.40131
0.403874
0.406311
0.408621
0.410804
0.41286
0.41479
0.416594
0.418273
0.419827
0.421257
0.422563
0.423746
0.424807
0.425745
0.426563
0.427261
0.427839
0.428299
0.428642
0.428869
0.428982
0.42898
0.428865
0.428638
0.428299
0.427851
0.427293
0.426628
0.425856
0.424979
0.423998
0.422913
0.421727
0.420441
0.419056
0.417572
0.415992
0.414317
0.412548
0.410686
0.408732
0.406688
0.404555
0.402334
0.400026
0.397632
0.395153
0.392591
0.389946
0.387219
0.384411
0.381524
0.378557
0.375512
0.37239
0.369192
0.365917
0.362568
0.359145
0.355649
0.352081
0.348441
0.344731
0.340951
0.337103
0.333188
0.329206
0.325158
0.321047
0.316873
0.312637
0.308341
0.303986
0.299575
0.295107
0.290586
0.286012
0.281389
0.276716
0.271997
0.267234
0.262429
0.257583
0.2527
0.247781
0.242829
0.237846
0.232836
0.227801
0.222742
0.217664
0.212569
0.20746
0.202339
0.19721
0.192076
0.186939
0.181803
0.176671
0.171546
0.16643
0.161327
0.15624
0.151173
0.146127
0.141106
0.136113
0.131151
0.126223
0.12133
0.116476
0.111662
0.106892
0.102166
0.0974863
0.0928544
0.0882716
0.083739
0.0792575
0.0748286
0.0704535
0.066108
0.0617502
0.0573688
0.0529681
0.0485731
0.04417
0.0397009
0.0351103
0.0303187
0.0251488
0.0193966
0.0235886
0.0319639
0.0402271
0.0479022
0.0552775
0.062394
0.0693546
0.0762168
0.082992
0.0897101
0.0963902
0.103042
0.109672
0.116283
0.122876
0.129455
0.136021
0.142573
0.149113
0.15564
0.162155
0.168656
0.175143
0.181613
0.188065
0.194498
0.200907
0.207292
0.213647
0.219971
0.22626
0.23251
0.238716
0.244876
0.250985
0.257039
0.263033
0.268964
0.274827
0.280619
0.286335
0.291972
0.297525
0.302991
0.308367
0.313648
0.318832
0.323916
0.328897
0.333772
0.338538
0.343193
0.347735
0.352162
0.356473
0.360664
0.364735
0.368685
0.372512
0.376216
0.379795
0.383248
0.386575
0.389776
0.39285
0.395797
0.398616
0.401308
0.403872
0.406309
0.408619
0.410802
0.412858
0.414788
0.416592
0.418271
0.419825
0.421255
0.422561
0.423744
0.424805
0.425744
0.426561
0.427259
0.427837
0.428297
0.42864
0.428867
0.42898
0.428978
0.428863
0.428636
0.428297
0.427849
0.427291
0.426626
0.425854
0.424977
0.423996
0.422912
0.421726
0.420439
0.419054
0.41757
0.41599
0.414315
0.412546
0.410684
0.40873
0.406686
0.404553
0.402332
0.400024
0.39763
0.395151
0.392589
0.389944
0.387217
0.38441
0.381522
0.378555
0.375511
0.372388
0.36919
0.365916
0.362567
0.359144
0.355648
0.352079
0.34844
0.344729
0.34095
0.337102
0.333186
0.329204
0.325157
0.321045
0.316871
0.312635
0.30834
0.303985
0.299573
0.295106
0.290585
0.286011
0.281387
0.276715
0.271996
0.267233
0.262427
0.257582
0.252698
0.247779
0.242828
0.237845
0.232835
0.227799
0.222741
0.217663
0.212568
0.207459
0.202338
0.197209
0.192075
0.186938
0.181802
0.17667
0.171545
0.166429
0.161326
0.156239
0.151172
0.146126
0.141105
0.136113
0.131151
0.126222
0.121329
0.116475
0.111662
0.106891
0.102165
0.0974857
0.0928539
0.0882711
0.0837385
0.0792569
0.0748279
0.0704522
0.0661025
0.0617333
0.0573462
0.0529779
0.0485777
0.0441699
0.0396987
0.0351068
0.0303142
0.0251437
0.0193915
0.0235723
0.0366563
0.0468262
0.0555483
0.063723
0.0715999
0.0792881
0.0868545
0.0943405
0.101775
0.109175
0.11655
0.123904
0.13124
0.138558
0.145859
0.153144
0.160412
0.167663
0.174897
0.182113
0.189311
0.19649
0.203647
0.210782
0.217892
0.224975
0.232028
0.239049
0.246033
0.252977
0.259878
0.266732
0.273534
0.280279
0.286965
0.293586
0.300137
0.306615
0.313014
0.319331
0.325561
0.3317
0.337744
0.343689
0.349531
0.355267
0.360893
0.366406
0.371803
0.377081
0.382237
0.387269
0.392175
0.396952
0.401599
0.406114
0.410494
0.41474
0.418849
0.422821
0.426655
0.43035
0.433905
0.437319
0.440594
0.443727
0.44672
0.449572
0.452283
0.454853
0.457283
0.459573
0.461723
0.463733
0.465605
0.467338
0.468934
0.470393
0.471715
0.472902
0.473954
0.474871
0.475655
0.476307
0.476828
0.477219
0.477481
0.477615
0.477623
0.477505
0.477262
0.476896
0.476408
0.475798
0.475069
0.474222
0.473257
0.472176
0.470981
0.469673
0.468253
0.466723
0.465084
0.463338
0.461485
0.459528
0.457468
0.455305
0.453042
0.45068
0.44822
0.445663
0.44301
0.440263
0.437422
0.43449
0.431467
0.428353
0.425151
0.42186
0.418483
0.415019
0.411471
0.407838
0.404122
0.400324
0.396444
0.392485
0.388445
0.384328
0.380134
0.375863
0.371518
0.367098
0.362607
0.358044
0.353411
0.348711
0.343943
0.339111
0.334215
0.329257
0.32424
0.319165
0.314034
0.308849
0.303613
0.298328
0.292996
0.287619
0.282201
0.276744
0.271251
0.265723
0.260166
0.25458
0.24897
0.243338
0.237687
0.232021
0.226343
0.220656
0.214964
0.20927
0.203577
0.197888
0.192208
0.186539
0.180885
0.175249
0.169635
0.164046
0.158485
0.152955
0.147459
0.142
0.136581
0.131205
0.125873
0.120587
0.11535
0.110163
0.105027
0.0999426
0.0949093
0.0899258
0.0849888
0.0800923
0.075223
0.0703637
0.065503
0.060633
0.0557453
0.0508185
0.0458082
0.0406445
0.035216
0.0293604
0.0230124
0.0235758
0.0366468
0.0468207
0.055548
0.0637234
0.0715996
0.0792875
0.0868538
0.0943399
0.101775
0.109175
0.11655
0.123904
0.131239
0.138557
0.145859
0.153143
0.160411
0.167662
0.174896
0.182112
0.18931
0.196489
0.203646
0.210781
0.217891
0.224974
0.232027
0.239048
0.246032
0.252976
0.259877
0.266731
0.273533
0.280278
0.286964
0.293585
0.300136
0.306613
0.313013
0.31933
0.32556
0.331699
0.337743
0.343688
0.34953
0.355266
0.360892
0.366405
0.371802
0.37708
0.382236
0.387268
0.392174
0.396951
0.401598
0.406112
0.410493
0.414739
0.418848
0.42282
0.426654
0.430348
0.433903
0.437318
0.440592
0.443726
0.446719
0.449571
0.452282
0.454852
0.457282
0.459571
0.461721
0.463732
0.465603
0.467337
0.468933
0.470391
0.471714
0.4729
0.473952
0.47487
0.475654
0.476306
0.476826
0.477217
0.47748
0.477614
0.477622
0.477503
0.477261
0.476895
0.476406
0.475797
0.475068
0.47422
0.473255
0.472174
0.470979
0.469671
0.468251
0.466721
0.465082
0.463336
0.461484
0.459527
0.457466
0.455304
0.453041
0.450678
0.448218
0.445661
0.443008
0.440261
0.437421
0.434489
0.431465
0.428352
0.425149
0.421859
0.418481
0.415018
0.411469
0.407836
0.404121
0.400322
0.396443
0.392483
0.388444
0.384327
0.380132
0.375862
0.371516
0.367097
0.362605
0.358043
0.35341
0.34871
0.343942
0.33911
0.334214
0.329256
0.324239
0.319163
0.314032
0.308848
0.303612
0.298327
0.292995
0.287618
0.2822
0.276743
0.27125
0.265723
0.260165
0.254579
0.248969
0.243337
0.237686
0.23202
0.226342
0.220656
0.214963
0.209269
0.203576
0.197887
0.192207
0.186538
0.180884
0.175249
0.169635
0.164045
0.158484
0.152954
0.147459
0.142
0.136581
0.131204
0.125872
0.120587
0.11535
0.110163
0.105027
0.0999422
0.094909
0.0899255
0.0849886
0.0800923
0.0752221
0.0703602
0.0654983
0.0606331
0.0557455
0.0508175
0.045806
0.0406408
0.0352109
0.0293546
0.0230069
0.0257938
0.0412932
0.0531096
0.0629045
0.0718927
0.0804816
0.088843
0.0970685
0.105211
0.113302
0.121358
0.129387
0.137394
0.14538
0.153343
0.161285
0.169203
0.177098
0.184969
0.192815
0.200635
0.20843
0.216197
0.223937
0.231647
0.239326
0.246972
0.254582
0.262154
0.269685
0.277171
0.284609
0.291995
0.299324
0.306593
0.313797
0.320931
0.327991
0.334973
0.34187
0.34868
0.355397
0.362017
0.368536
0.374949
0.381252
0.387442
0.393515
0.399467
0.405295
0.410995
0.416565
0.422003
0.427305
0.432469
0.437493
0.442376
0.447115
0.451708
0.456156
0.460455
0.464606
0.468607
0.472458
0.476158
0.479706
0.483103
0.486348
0.489441
0.492382
0.495171
0.497808
0.500294
0.502629
0.504813
0.506848
0.508732
0.510468
0.512056
0.513496
0.514789
0.515937
0.516939
0.517797
0.518512
0.519084
0.519516
0.519808
0.519962
0.519978
0.519858
0.519602
0.519213
0.518692
0.518039
0.517256
0.516344
0.515306
0.514142
0.512853
0.511442
0.50991
0.508257
0.506487
0.5046
0.502597
0.500481
0.498252
0.495913
0.493464
0.490907
0.488244
0.485475
0.482602
0.479627
0.47655
0.473373
0.470097
0.466723
0.463252
0.459686
0.456025
0.45227
0.448423
0.444484
0.440455
0.436337
0.43213
0.427836
0.423456
0.418991
0.414443
0.409811
0.405099
0.400306
0.395435
0.390487
0.385464
0.380366
0.375196
0.369956
0.364647
0.359271
0.353831
0.348328
0.342764
0.337143
0.331466
0.325736
0.319956
0.314128
0.308254
0.302339
0.296385
0.290394
0.284371
0.278318
0.272238
0.266135
0.260013
0.253875
0.247723
0.241563
0.235398
0.22923
0.223065
0.216905
0.210754
0.204617
0.198495
0.192394
0.186317
0.180267
0.174247
0.16826
0.162311
0.156401
0.150533
0.144709
0.138933
0.133205
0.127528
0.121901
0.116327
0.110804
0.105331
0.0999063
0.094525
0.0891804
0.0838634
0.0785629
0.0732677
0.067965
0.0626354
0.0572453
0.051733
0.0459899
0.039838
0.0330819
0.0259249
0.0257797
0.0412843
0.0531085
0.0629061
0.0718935
0.0804815
0.0888425
0.097068
0.105211
0.113301
0.121357
0.129387
0.137394
0.145379
0.153343
0.161284
0.169203
0.177098
0.184968
0.192814
0.200635
0.208429
0.216197
0.223936
0.231646
0.239325
0.246971
0.254581
0.262153
0.269684
0.27717
0.284608
0.291994
0.299323
0.306592
0.313796
0.32093
0.32799
0.334972
0.341869
0.348679
0.355396
0.362016
0.368535
0.374948
0.381251
0.387441
0.393514
0.399466
0.405293
0.410994
0.416564
0.422002
0.427304
0.432468
0.437492
0.442375
0.447113
0.451707
0.456154
0.460454
0.464605
0.468606
0.472457
0.476157
0.479705
0.483102
0.486347
0.48944
0.49238
0.49517
0.497807
0.500293
0.502628
0.504812
0.506846
0.508731
0.510467
0.512055
0.513495
0.514788
0.515935
0.516938
0.517796
0.51851
0.519083
0.519515
0.519807
0.51996
0.519976
0.519856
0.519601
0.519212
0.51869
0.518037
0.517255
0.516343
0.515305
0.51414
0.512852
0.511441
0.509908
0.508256
0.506486
0.504598
0.502596
0.50048
0.498251
0.495912
0.493463
0.490906
0.488243
0.485474
0.482601
0.479626
0.476549
0.473372
0.470096
0.466722
0.463251
0.459685
0.456024
0.452269
0.448422
0.444483
0.440454
0.436336
0.432129
0.427835
0.423455
0.41899
0.414442
0.40981
0.405098
0.400305
0.395434
0.390486
0.385463
0.380365
0.375195
0.369955
0.364646
0.35927
0.35383
0.348327
0.342763
0.337142
0.331465
0.325735
0.319955
0.314127
0.308254
0.302338
0.296384
0.290394
0.28437
0.278317
0.272237
0.266135
0.260012
0.253874
0.247723
0.241563
0.235397
0.22923
0.223064
0.216904
0.210754
0.204616
0.198495
0.192394
0.186316
0.180266
0.174246
0.16826
0.16231
0.1564
0.150532
0.144709
0.138933
0.133205
0.127527
0.121901
0.116326
0.110803
0.105331
0.0999062
0.0945249
0.0891805
0.0838634
0.0785624
0.073267
0.0679649
0.0626352
0.0572445
0.0517311
0.0459866
0.0398335
0.0330777
0.0259218
0.0255384
0.0448326
0.0589972
0.0700971
0.0799675
0.0892795
0.0983058
0.107174
0.11595
0.124668
0.133347
0.141994
0.150614
0.159205
0.167766
0.176297
0.184795
0.193259
0.201688
0.210082
0.21844
0.226762
0.235046
0.243294
0.251503
0.259673
0.267802
0.275888
0.28393
0.291924
0.299868
0.307758
0.315592
0.323364
0.331071
0.338708
0.346272
0.353756
0.361158
0.368471
0.375692
0.382816
0.389838
0.396753
0.403557
0.410246
0.416816
0.423262
0.429582
0.435771
0.441826
0.447745
0.453523
0.459158
0.464649
0.469991
0.475184
0.480226
0.485114
0.489847
0.494424
0.498843
0.503104
0.507206
0.511148
0.514929
0.51855
0.522009
0.525308
0.528444
0.53142
0.534234
0.536888
0.539381
0.541714
0.543887
0.545901
0.547757
0.549455
0.550996
0.55238
0.553609
0.554684
0.555605
0.556374
0.556991
0.557457
0.557775
0.557944
0.557968
0.557845
0.557579
0.55717
0.556619
0.555928
0.555098
0.554132
0.553029
0.551792
0.550422
0.548921
0.547291
0.545532
0.543647
0.541637
0.539504
0.537249
0.534874
0.532381
0.52977
0.527043
0.524203
0.521249
0.518184
0.51501
0.511726
0.508335
0.504838
0.501236
0.497531
0.493723
0.489813
0.485804
0.481695
0.477489
0.473186
0.468787
0.464294
0.459707
0.455028
0.450259
0.4454
0.440452
0.435418
0.430299
0.425096
0.41981
0.414444
0.408999
0.403477
0.397879
0.392209
0.386467
0.380656
0.374779
0.368838
0.362835
0.356773
0.350654
0.344482
0.338259
0.331989
0.325674
0.319317
0.312923
0.306493
0.300032
0.293544
0.287031
0.280498
0.273948
0.267385
0.260813
0.254236
0.247657
0.241081
0.234511
0.227951
0.221406
0.214878
0.208372
0.201891
0.195439
0.189018
0.182633
0.176287
0.169981
0.163718
0.157502
0.151332
0.145212
0.139142
0.133123
0.127154
0.121236
0.115365
0.10954
0.103755
0.098005
0.0922818
0.0865758
0.0808752
0.0751632
0.0694136
0.0635801
0.0575777
0.051245
0.0442779
0.036211
0.0275222
0.0255207
0.0448313
0.059001
0.070098
0.0799673
0.089279
0.0983053
0.107173
0.115949
0.124667
0.133346
0.141994
0.150613
0.159204
0.167765
0.176296
0.184794
0.193258
0.201687
0.210081
0.218439
0.226761
0.235046
0.243293
0.251502
0.259672
0.267801
0.275887
0.283929
0.291923
0.299867
0.307758
0.315591
0.323363
0.33107
0.338707
0.346271
0.353755
0.361157
0.368471
0.375691
0.382815
0.389837
0.396752
0.403556
0.410245
0.416815
0.423261
0.429581
0.43577
0.441825
0.447744
0.453522
0.459157
0.464648
0.46999
0.475183
0.480224
0.485112
0.489846
0.494422
0.498842
0.503103
0.507205
0.511147
0.514928
0.518549
0.522008
0.525306
0.528443
0.531419
0.534233
0.536887
0.53938
0.541713
0.543886
0.5459
0.547756
0.549454
0.550995
0.552379
0.553608
0.554683
0.555604
0.556373
0.556989
0.557456
0.557774
0.557943
0.557967
0.557844
0.557578
0.557169
0.556618
0.555927
0.555097
0.554131
0.553028
0.551791
0.550421
0.54892
0.54729
0.545531
0.543646
0.541636
0.539503
0.537248
0.534873
0.53238
0.529769
0.527042
0.524202
0.521248
0.518183
0.515009
0.511725
0.508334
0.504837
0.501235
0.49753
0.493722
0.489813
0.485803
0.481694
0.477488
0.473185
0.468786
0.464293
0.459706
0.455027
0.450258
0.445399
0.440452
0.435418
0.430298
0.425095
0.419809
0.414443
0.408998
0.403476
0.397878
0.392208
0.386466
0.380656
0.374779
0.368837
0.362834
0.356772
0.350654
0.344482
0.338259
0.331988
0.325673
0.319317
0.312922
0.306493
0.300032
0.293543
0.287031
0.280498
0.273948
0.267385
0.260813
0.254235
0.247657
0.24108
0.234511
0.227951
0.221405
0.214878
0.208372
0.201891
0.195438
0.189018
0.182633
0.176286
0.16998
0.163718
0.157501
0.151332
0.145212
0.139142
0.133123
0.127154
0.121235
0.115365
0.10954
0.103755
0.098005
0.0922819
0.0865758
0.0808752
0.0751634
0.0694136
0.0635796
0.0575762
0.051242
0.0442744
0.0362109
0.0275271
0.028762
0.0492981
0.0650532
0.0773282
0.0880715
0.098118
0.107818
0.11733
0.126733
0.136068
0.145354
0.1546
0.163807
0.172976
0.182104
0.191189
0.200228
0.20922
0.218164
0.227059
0.235904
0.244701
0.253448
0.262147
0.270796
0.279396
0.287946
0.296445
0.304891
0.313283
0.321618
0.329893
0.338105
0.346252
0.354328
0.362331
0.370255
0.378097
0.385851
0.393513
0.401079
0.408543
0.415901
0.423149
0.430281
0.437293
0.444182
0.450943
0.457572
0.464065
0.470419
0.476631
0.482696
0.488613
0.494379
0.499991
0.505447
0.510745
0.515882
0.520858
0.52567
0.530318
0.534801
0.539116
0.543264
0.547245
0.551056
0.554699
0.558172
0.561476
0.564611
0.567577
0.570374
0.573002
0.575463
0.577755
0.57988
0.581838
0.583631
0.585258
0.586721
0.58802
0.589156
0.590131
0.590945
0.5916
0.592095
0.592434
0.592617
0.592646
0.592521
0.592243
0.591816
0.591239
0.590514
0.589642
0.588626
0.587466
0.586165
0.584723
0.583143
0.581425
0.579573
0.577586
0.575468
0.573219
0.570842
0.568337
0.565707
0.562953
0.560076
0.557078
0.553961
0.550726
0.547375
0.543908
0.540328
0.536635
0.532831
0.528917
0.524895
0.520765
0.516529
0.512189
0.507744
0.503198
0.49855
0.493802
0.488955
0.484011
0.478971
0.473837
0.468609
0.463289
0.45788
0.452381
0.446796
0.441126
0.435372
0.429537
0.423623
0.417632
0.411566
0.405427
0.399218
0.392942
0.386601
0.380198
0.373735
0.367216
0.360644
0.354022
0.347353
0.340641
0.33389
0.327102
0.320281
0.313431
0.306557
0.299661
0.292748
0.285822
0.278887
0.271947
0.265006
0.258067
0.251136
0.244216
0.23731
0.230424
0.22356
0.216722
0.209914
0.203139
0.1964
0.189699
0.18304
0.176425
0.169855
0.163332
0.156857
0.150431
0.144053
0.137723
0.13144
0.125202
0.119005
0.112846
0.106717
0.100613
0.0945224
0.0884331
0.0823244
0.0761632
0.0698924
0.0634085
0.0565165
0.0487951
0.0391514
0.0259589
0.0287494
0.0493028
0.0650567
0.0773269
0.0880702
0.0981171
0.107817
0.117329
0.126733
0.136068
0.145353
0.154599
0.163807
0.172975
0.182103
0.191188
0.200227
0.209219
0.218163
0.227058
0.235904
0.2447
0.253447
0.262146
0.270795
0.279395
0.287945
0.296444
0.30489
0.313282
0.321617
0.329892
0.338105
0.346251
0.354328
0.36233
0.370254
0.378096
0.38585
0.393512
0.401078
0.408542
0.4159
0.423148
0.43028
0.437293
0.444181
0.450942
0.457571
0.464064
0.470418
0.47663
0.482695
0.488612
0.494378
0.49999
0.505446
0.510744
0.515881
0.520857
0.525669
0.530317
0.5348
0.539115
0.543263
0.547244
0.551055
0.554698
0.558171
0.561475
0.56461
0.567576
0.570373
0.573002
0.575462
0.577754
0.579879
0.581837
0.58363
0.585257
0.58672
0.588019
0.589155
0.59013
0.590944
0.591599
0.592094
0.592433
0.592616
0.592645
0.59252
0.592243
0.591815
0.591238
0.590513
0.589641
0.588625
0.587465
0.586164
0.584722
0.583142
0.581424
0.579572
0.577586
0.575467
0.573219
0.570841
0.568336
0.565706
0.562952
0.560075
0.557077
0.55396
0.550725
0.547374
0.543907
0.540327
0.536634
0.53283
0.528916
0.524894
0.520764
0.516529
0.512188
0.507744
0.503197
0.498549
0.493801
0.488955
0.484011
0.478971
0.473836
0.468608
0.463289
0.457879
0.452381
0.446795
0.441125
0.435372
0.429537
0.423623
0.417631
0.411565
0.405427
0.399218
0.392942
0.3866
0.380197
0.373735
0.367216
0.360644
0.354022
0.347353
0.340641
0.333889
0.327101
0.32028
0.313431
0.306556
0.299661
0.292748
0.285822
0.278887
0.271947
0.265005
0.258067
0.251136
0.244215
0.23731
0.230423
0.223559
0.216722
0.209914
0.203139
0.196399
0.189699
0.18304
0.176425
0.169855
0.163332
0.156857
0.15043
0.144053
0.137723
0.13144
0.125202
0.119005
0.112846
0.106717
0.100613
0.0945226
0.0884333
0.0823246
0.0761633
0.069892
0.0634069
0.056513
0.0487932
0.0391567
0.0259638
0.0318694
0.0540127
0.0713095
0.0846778
0.0962804
0.107073
0.117461
0.127628
0.137664
0.147615
0.157502
0.167335
0.177116
0.186845
0.196517
0.20613
0.215682
0.225171
0.234594
0.243953
0.253246
0.262476
0.271642
0.280745
0.289786