/*--------------------------------*- C++ -*----------------------------------*\
  =========                 |
  \\      /  F ield         | OpenFOAM: The Open Source CFD Toolbox
   \\    /   O peration     | Website:  https://openfoam.org
    \\  /    A nd           | Version:  8
     \\/     M anipulation  |
\*---------------------------------------------------------------------------*/
FoamFile
{
    version     2.0;
    format      ascii;
    class       volScalarField;
    location    "600";
    object      nut;
}
// * * * * * * * * * * * * * * * * * * * * * * * * * * * * * * * * * * * * * //

dimensions      [0 2 -1 0 0 0 0];

internalField   nonuniform List<scalar> 
48000
(
9.53123e-05
0.000149455
0.000186454
0.00021617
0.000238396
4.66175e-05
4.43533e-05
5.06979e-05
5.15473e-05
5.35968e-05
5.56817e-05
5.77165e-05
5.96668e-05
6.15421e-05
6.33493e-05
6.50952e-05
6.67857e-05
6.84257e-05
7.00197e-05
7.15709e-05
7.30824e-05
7.45567e-05
7.59961e-05
7.74023e-05
7.8777e-05
8.01214e-05
8.14367e-05
8.27239e-05
8.39837e-05
8.5217e-05
8.64242e-05
8.76059e-05
8.87624e-05
8.98941e-05
9.10013e-05
9.20841e-05
9.31428e-05
9.41775e-05
9.51883e-05
9.61754e-05
9.71389e-05
9.80789e-05
9.89954e-05
9.98886e-05
0.000100759
0.000101605
0.000102429
0.00010323
0.000104008
0.000104763
0.000105495
0.000106205
0.000106893
0.000107558
0.000108202
0.000108824
0.000109423
0.000110002
0.000110559
0.000111095
0.00011161
0.000112104
0.000112578
0.000113031
0.000113464
0.000113877
0.000114271
0.000114645
0.000115
0.000115335
0.000115652
0.00011595
0.000116229
0.000116491
0.000116734
0.000116959
0.000117166
0.000117356
0.000117529
0.000117684
0.000117822
0.000117943
0.000118047
0.000118136
0.000118209
0.000118266
0.000118307
0.000118332
0.000118341
0.000118335
0.000118313
0.000118276
0.000118224
0.000118156
0.000118074
0.000117976
0.000117864
0.000117738
0.000117597
0.000117441
0.000117272
0.000117088
0.00011689
0.000116679
0.000116453
0.000116215
0.000115962
0.000115696
0.000115417
0.000115124
0.000114818
0.000114499
0.000114166
0.000113821
0.000113462
0.00011309
0.000112706
0.000112308
0.000111897
0.000111473
0.000111035
0.000110585
0.000110121
0.000109644
0.000109154
0.00010865
0.000108133
0.000107602
0.000107058
0.0001065
0.000105928
0.000105342
0.000104742
0.000104128
0.0001035
0.000102858
0.000102202
0.000101531
0.000100846
0.000100146
9.94313e-05
9.87022e-05
9.79583e-05
9.71997e-05
9.64261e-05
9.56377e-05
9.48342e-05
9.40158e-05
9.31822e-05
9.23336e-05
9.14698e-05
9.05908e-05
8.96966e-05
8.87872e-05
8.78625e-05
8.69225e-05
8.59672e-05
8.49965e-05
8.40104e-05
8.30089e-05
8.1992e-05
8.09595e-05
7.99115e-05
7.8848e-05
7.77688e-05
7.6674e-05
7.55634e-05
7.44371e-05
7.32948e-05
7.21364e-05
7.09618e-05
6.97707e-05
6.85629e-05
6.73383e-05
6.60966e-05
6.48374e-05
6.35604e-05
6.22651e-05
6.09509e-05
5.96173e-05
5.82636e-05
5.68888e-05
5.54916e-05
5.40703e-05
5.26205e-05
5.11194e-05
4.93952e-05
4.59387e-05
3.68807e-05
0.000322212
0.00031859
0.000258066
3.87671e-05
3.71909e-05
0.00020222
0.000192426
0.000169435
0.000140813
0.00010872
6.48692e-05
9.53254e-05
0.000149474
0.000186476
0.000216256
0.000238256
4.65662e-05
4.43695e-05
5.07555e-05
5.1564e-05
5.36012e-05
5.56832e-05
5.77173e-05
5.96675e-05
6.15427e-05
6.33499e-05
6.50957e-05
6.67862e-05
6.84263e-05
7.00201e-05
7.15713e-05
7.30828e-05
7.45571e-05
7.59965e-05
7.74027e-05
7.87773e-05
8.01217e-05
8.14369e-05
8.27241e-05
8.39839e-05
8.52172e-05
8.64244e-05
8.76061e-05
8.87626e-05
8.98943e-05
9.10014e-05
9.20842e-05
9.31429e-05
9.41776e-05
9.51884e-05
9.61755e-05
9.7139e-05
9.8079e-05
9.89955e-05
9.98887e-05
0.000100759
0.000101605
0.000102429
0.00010323
0.000104008
0.000104763
0.000105495
0.000106205
0.000106893
0.000107558
0.000108202
0.000108824
0.000109423
0.000110002
0.000110559
0.000111095
0.00011161
0.000112104
0.000112577
0.000113031
0.000113464
0.000113877
0.000114271
0.000114645
0.000114999
0.000115335
0.000115652
0.00011595
0.000116229
0.00011649
0.000116734
0.000116959
0.000117166
0.000117356
0.000117528
0.000117683
0.000117822
0.000117943
0.000118047
0.000118135
0.000118208
0.000118265
0.000118306
0.000118332
0.000118341
0.000118335
0.000118313
0.000118276
0.000118223
0.000118156
0.000118073
0.000117976
0.000117864
0.000117737
0.000117596
0.000117441
0.000117271
0.000117088
0.00011689
0.000116678
0.000116453
0.000116214
0.000115962
0.000115696
0.000115416
0.000115124
0.000114818
0.000114498
0.000114166
0.00011382
0.000113462
0.00011309
0.000112705
0.000112307
0.000111896
0.000111472
0.000111035
0.000110585
0.000110121
0.000109644
0.000109154
0.00010865
0.000108133
0.000107602
0.000107057
0.000106499
0.000105927
0.000105342
0.000104742
0.000104128
0.0001035
0.000102858
0.000102201
0.000101531
0.000100845
0.000100145
9.94309e-05
9.87018e-05
9.7958e-05
9.71993e-05
9.64258e-05
9.56373e-05
9.48339e-05
9.40154e-05
9.31819e-05
9.23332e-05
9.14694e-05
9.05905e-05
8.96963e-05
8.87869e-05
8.78622e-05
8.69222e-05
8.59668e-05
8.49962e-05
8.40101e-05
8.30086e-05
8.19916e-05
8.09591e-05
7.99111e-05
7.88476e-05
7.77684e-05
7.66736e-05
7.55631e-05
7.44367e-05
7.32945e-05
7.21361e-05
7.09615e-05
6.97704e-05
6.85626e-05
6.7338e-05
6.60963e-05
6.48371e-05
6.35601e-05
6.22647e-05
6.09505e-05
5.9617e-05
5.82633e-05
5.68885e-05
5.54913e-05
5.40701e-05
5.26208e-05
5.11229e-05
4.94125e-05
4.59885e-05
3.68983e-05
0.000318931
0.00028505
4.12857e-05
0.000212837
3.76681e-05
0.000202315
0.000192373
0.000169395
0.000140791
0.000108706
6.48612e-05
0.000107674
0.000244454
0.000341925
0.000398885
0.00040675
0.000355655
0.000377892
0.000470237
0.000512049
0.000541401
0.000567148
0.000590837
0.000613059
0.000634096
0.000654136
0.000673313
0.000691724
0.000709449
0.00072655
0.000743081
0.000759086
0.000774605
0.000789671
0.000804312
0.000818555
0.00083242
0.000845927
0.000859092
0.000871931
0.000884454
0.000896674
0.0009086
0.000920239
0.000931599
0.000942686
0.000953506
0.000964062
0.000974359
0.0009844
0.000994189
0.00100373
0.00101302
0.00102207
0.00103087
0.00103943
0.00104776
0.00105585
0.0010637
0.00107132
0.00107871
0.00108587
0.0010928
0.00109951
0.00110599
0.00111225
0.00111829
0.00112412
0.00112973
0.00113512
0.0011403
0.00114528
0.00115004
0.00115461
0.00115897
0.00116312
0.00116708
0.00117085
0.00117442
0.00117779
0.00118098
0.00118398
0.00118679
0.00118942
0.00119187
0.00119414
0.00119623
0.00119814
0.00119988
0.00120144
0.00120284
0.00120406
0.00120511
0.00120599
0.00120667
0.00120717
0.0012075
0.00120768
0.0012077
0.00120756
0.00120726
0.00120682
0.00120622
0.00120547
0.00120457
0.00120353
0.00120234
0.001201
0.00119952
0.0011979
0.00119613
0.00119423
0.00119218
0.00119
0.00118768
0.00118523
0.00118264
0.00117991
0.00117705
0.00117406
0.00117093
0.00116767
0.00116428
0.00116075
0.0011571
0.00115331
0.00114939
0.00114534
0.00114115
0.00113683
0.00113238
0.00112779
0.00112307
0.00111821
0.00111322
0.00110809
0.00110282
0.00109742
0.00109188
0.00108619
0.00108037
0.00107441
0.0010683
0.00106205
0.00105566
0.00104913
0.00104245
0.00103563
0.00102866
0.00102155
0.00101429
0.00100688
0.000999332
0.000991633
0.000983788
0.000975794
0.000967654
0.000959366
0.00095093
0.000942347
0.000933617
0.000924738
0.000915713
0.00090654
0.00089722
0.000887754
0.00087814
0.000868381
0.000858475
0.000848423
0.000838225
0.000827881
0.000817392
0.000806757
0.000795975
0.000785048
0.000773973
0.000762751
0.000751381
0.000739862
0.000728193
0.000716372
0.000704397
0.000692267
0.000679978
0.000667529
0.000654914
0.000642129
0.000629168
0.000616023
0.000602685
0.00058914
0.000575369
0.000561346
0.000547019
0.000532259
0.000516618
0.000498412
0.000472459
0.000437506
0.000507468
0.000499825
0.000451631
0.000334013
0.000310467
0.000410984
0.000413818
0.000371607
0.000302913
0.000205543
7.95915e-05
0.000107667
0.000244335
0.000341631
0.000398566
0.0004079
0.000356533
0.000377709
0.000469568
0.00051191
0.000541412
0.000567183
0.000590874
0.000613096
0.000634132
0.000654172
0.000673348
0.000691759
0.000709482
0.000726583
0.000743113
0.000759118
0.000774636
0.000789702
0.000804343
0.000818584
0.000832449
0.000845955
0.00085912
0.000871958
0.000884481
0.000896701
0.000908626
0.000920265
0.000931624
0.000942711
0.00095353
0.000964085
0.000974382
0.000984423
0.000994211
0.00100375
0.00101304
0.00102209
0.00103089
0.00103946
0.00104778
0.00105587
0.00106372
0.00107134
0.00107873
0.00108589
0.00109282
0.00109953
0.00110601
0.00111227
0.00111831
0.00112414
0.00112974
0.00113514
0.00114032
0.00114529
0.00115006
0.00115462
0.00115898
0.00116314
0.0011671
0.00117086
0.00117443
0.00117781
0.00118099
0.00118399
0.00118681
0.00118944
0.00119188
0.00119415
0.00119624
0.00119815
0.00119989
0.00120146
0.00120285
0.00120407
0.00120512
0.001206
0.00120668
0.00120718
0.00120751
0.00120769
0.00120771
0.00120757
0.00120728
0.00120683
0.00120623
0.00120548
0.00120459
0.00120354
0.00120235
0.00120101
0.00119953
0.00119791
0.00119614
0.00119424
0.00119219
0.00119001
0.00118769
0.00118524
0.00118265
0.00117992
0.00117706
0.00117407
0.00117094
0.00116768
0.00116429
0.00116076
0.00115711
0.00115332
0.0011494
0.00114535
0.00114116
0.00113684
0.00113239
0.0011278
0.00112308
0.00111822
0.00111323
0.0011081
0.00110283
0.00109743
0.00109188
0.0010862
0.00108038
0.00107441
0.00106831
0.00106206
0.00105567
0.00104914
0.00104246
0.00103564
0.00102867
0.00102155
0.0010143
0.00100689
0.000999338
0.000991639
0.000983793
0.0009758
0.00096766
0.000959371
0.000950936
0.000942353
0.000933622
0.000924744
0.000915718
0.000906545
0.000897225
0.000887759
0.000878145
0.000868386
0.00085848
0.000848427
0.00083823
0.000827886
0.000817397
0.000806761
0.00079598
0.000785052
0.000773977
0.000762755
0.000751385
0.000739866
0.000728197
0.000716376
0.000704402
0.000692271
0.000679983
0.000667533
0.000654919
0.000642134
0.000629173
0.000616028
0.00060269
0.000589145
0.000575374
0.000561351
0.000547025
0.000532271
0.000516646
0.000498443
0.000472269
0.000436673
0.000504177
0.00048184
0.000367136
0.000405315
0.000321601
0.000413791
0.000414362
0.00037176
0.000302957
0.000205545
7.95849e-05
0.000139849
0.00032439
0.00048658
0.000614488
0.000714468
0.000785595
0.000860488
0.000951474
0.00102567
0.00108974
0.00114765
0.00120108
0.00125097
0.00129795
0.00134243
0.00138473
0.00142509
0.00146371
0.00150076
0.00153635
0.00157062
0.00160365
0.00163555
0.00166637
0.0016962
0.00172509
0.0017531
0.00178028
0.00180666
0.00183229
0.0018572
0.00188142
0.00190497
0.00192789
0.00195018
0.00197186
0.00199296
0.00201349
0.00203346
0.00205288
0.00207177
0.00209012
0.00210796
0.00212528
0.00214211
0.00215843
0.00217426
0.00218961
0.00220447
0.00221887
0.00223279
0.00224625
0.00225926
0.00227181
0.00228392
0.00229558
0.00230681
0.0023176
0.00232797
0.00233791
0.00234744
0.00235655
0.00236526
0.00237356
0.00238147
0.00238898
0.00239611
0.00240285
0.00240921
0.00241519
0.00242081
0.00242606
0.00243094
0.00243547
0.00243965
0.00244347
0.00244695
0.00245008
0.00245287
0.00245533
0.00245745
0.00245923
0.00246068
0.00246178
0.00246252
0.00246294
0.00246305
0.00246285
0.00246233
0.00246152
0.0024604
0.00245898
0.00245727
0.00245526
0.00245297
0.00245039
0.00244752
0.00244437
0.00244093
0.00243722
0.00243324
0.00242898
0.00242444
0.00241964
0.00241457
0.00240923
0.00240362
0.00239775
0.00239162
0.00238522
0.00237855
0.00237163
0.00236444
0.00235698
0.00234927
0.00234129
0.00233305
0.00232454
0.00231576
0.00230672
0.00229741
0.00228783
0.00227798
0.00226786
0.00225746
0.00224679
0.00223585
0.00222463
0.00221313
0.00220135
0.00218929
0.00217694
0.00216432
0.00215141
0.00213821
0.00212473
0.00211096
0.00209691
0.00208256
0.00206793
0.00205301
0.0020378
0.0020223
0.00200651
0.00199043
0.00197406
0.00195741
0.00194046
0.00192323
0.0019057
0.00188789
0.00186979
0.00185141
0.00183274
0.00181378
0.00179454
0.00177502
0.00175521
0.00173512
0.00171474
0.00169408
0.00167313
0.0016519
0.00163038
0.00160857
0.00158647
0.00156408
0.00154139
0.0015184
0.0014951
0.00147148
0.00144755
0.00142328
0.00139867
0.0013737
0.00134835
0.00132261
0.00129644
0.00126982
0.0012427
0.00121503
0.00118674
0.00115771
0.00112779
0.00109669
0.00106376
0.0010274
0.000984065
0.000935491
0.000910908
0.000874827
0.000831578
0.000766465
0.000716852
0.000697157
0.000643249
0.00055652
0.000437184
0.000282077
0.000109029
0.000139895
0.000324322
0.000486727
0.000614598
0.000715127
0.000785384
0.000859442
0.000950967
0.0010256
0.00108979
0.00114772
0.00120115
0.00125105
0.00129802
0.0013425
0.00138479
0.00142516
0.00146378
0.00150082
0.00153641
0.00157068
0.00160371
0.0016356
0.00166642
0.00169625
0.00172514
0.00175315
0.00178033
0.00180671
0.00183234
0.00185724
0.00188146
0.00190501
0.00192792
0.00195021
0.00197189
0.00199299
0.00201352
0.00203349
0.00205291
0.00207179
0.00209015
0.00210798
0.00212531
0.00214212
0.00215845
0.00217428
0.00218962
0.00220449
0.00221888
0.00223281
0.00224627
0.00225927
0.00227182
0.00228393
0.00229559
0.00230681
0.00231761
0.00232797
0.00233792
0.00234744
0.00235656
0.00236526
0.00237357
0.00238147
0.00238898
0.00239611
0.00240285
0.00240921
0.00241519
0.00242081
0.00242606
0.00243094
0.00243547
0.00243964
0.00244347
0.00244694
0.00245007
0.00245287
0.00245532
0.00245744
0.00245923
0.00246067
0.00246177
0.00246251
0.00246294
0.00246304
0.00246284
0.00246232
0.00246151
0.00246039
0.00245897
0.00245726
0.00245525
0.00245296
0.00245037
0.0024475
0.00244435
0.00244092
0.00243721
0.00243322
0.00242896
0.00242443
0.00241963
0.00241455
0.00240921
0.00240361
0.00239774
0.0023916
0.0023852
0.00237854
0.00237161
0.00236442
0.00235697
0.00234925
0.00234127
0.00233303
0.00232452
0.00231574
0.0023067
0.00229739
0.00228781
0.00227796
0.00226784
0.00225744
0.00224678
0.00223583
0.00222461
0.00221311
0.00220133
0.00218927
0.00217692
0.0021643
0.00215139
0.00213819
0.00212471
0.00211094
0.00209689
0.00208254
0.00206791
0.00205299
0.00203778
0.00202228
0.00200649
0.00199041
0.00197404
0.00195738
0.00194044
0.0019232
0.00190568
0.00188787
0.00186977
0.00185139
0.00183272
0.00181376
0.00179452
0.001775
0.00175519
0.00173509
0.00171472
0.00169405
0.00167311
0.00165187
0.00163035
0.00160855
0.00158645
0.00156406
0.00154137
0.00151837
0.00149508
0.00147146
0.00144753
0.00142326
0.00139865
0.00137368
0.00134833
0.00132259
0.00129642
0.0012698
0.00124269
0.00121501
0.00118672
0.00115769
0.00112777
0.00109667
0.00106377
0.00102744
0.000984036
0.000935538
0.000912124
0.000875434
0.000811835
0.000781295
0.000722194
0.000698561
0.000643706
0.000556683
0.000437215
0.000282063
0.000109017
0.00016332
0.00037354
0.000594228
0.000796199
0.000964694
0.00110689
0.00123386
0.00135212
0.00145869
0.00155524
0.00164375
0.00172574
0.00180234
0.00187436
0.00194244
0.00200706
0.0020686
0.00212735
0.00218357
0.00223747
0.00228924
0.00233903
0.00238698
0.00243321
0.00247784
0.00252096
0.00256266
0.00260302
0.0026421
0.00267998
0.0027167
0.00275232
0.00278689
0.00282043
0.002853
0.00288463
0.00291533
0.00294515
0.0029741
0.0030022
0.00302948
0.00305595
0.00308164
0.00310654
0.00313069
0.00315408
0.00317674
0.00319868
0.0032199
0.00324042
0.00326025
0.00327939
0.00329786
0.00331566
0.00333281
0.00334932
0.00336518
0.00338041
0.00339503
0.00340903
0.00342242
0.00343522
0.00344743
0.00345906
0.00347012
0.0034806
0.00349053
0.00349991
0.00350875
0.00351704
0.00352481
0.00353205
0.00353877
0.00354498
0.00355068
0.00355589
0.0035606
0.00356482
0.00356856
0.00357181
0.00357459
0.00357689
0.00357872
0.00358008
0.00358095
0.00358135
0.00358131
0.00358083
0.0035799
0.00357855
0.00357677
0.00357456
0.00357193
0.00356889
0.00356543
0.00356157
0.0035573
0.00355263
0.00354755
0.00354209
0.00353623
0.00352998
0.00352335
0.00351632
0.00350892
0.00350113
0.00349297
0.00348442
0.0034755
0.0034662
0.00345653
0.00344648
0.00343605
0.00342524
0.00341406
0.00340251
0.00339057
0.00337825
0.00336555
0.00335247
0.00333901
0.00332516
0.00331092
0.00329629
0.00328127
0.00326586
0.00325005
0.00323385
0.00321724
0.00320024
0.00318284
0.00316503
0.00314682
0.0031282
0.00310918
0.00308975
0.0030699
0.00304965
0.00302899
0.00300792
0.00298644
0.00296455
0.00294224
0.00291953
0.0028964
0.00287286
0.00284892
0.00282457
0.0027998
0.00277463
0.00274906
0.00272307
0.00269669
0.0026699
0.0026427
0.00261511
0.00258711
0.00255871
0.0025299
0.00250069
0.00247108
0.00244107
0.00241064
0.0023798
0.00234855
0.00231687
0.00228477
0.00225223
0.00221925
0.00218581
0.00215189
0.00211748
0.00208256
0.0020471
0.00201108
0.00197445
0.00193717
0.00189919
0.00186044
0.00182084
0.00178028
0.00173862
0.00169568
0.00165119
0.0016048
0.00155596
0.00150376
0.00144653
0.00138449
0.00132429
0.00126101
0.00119434
0.00111972
0.00104025
0.000955332
0.000849038
0.000714368
0.000547027
0.000346036
0.000137667
0.000163459
0.000372973
0.000594245
0.000796083
0.000964882
0.00110696
0.00123368
0.00135207
0.00145875
0.00155534
0.00164386
0.00172585
0.00180244
0.00187447
0.00194254
0.00200716
0.00206869
0.00212744
0.00218365
0.00223755
0.00228932
0.00233911
0.00238705
0.00243329
0.00247791
0.00252103
0.00256273
0.00260308
0.00264216
0.00268004
0.00271676
0.00275237
0.00278693
0.00282048
0.00285305
0.00288467
0.00291537
0.00294518
0.00297413
0.00300223
0.00302951
0.00305598
0.00308166
0.00310657
0.00313071
0.0031541
0.00317676
0.0031987
0.00321992
0.00324043
0.00326026
0.0032794
0.00329787
0.00331567
0.00333282
0.00334932
0.00336518
0.00338041
0.00339503
0.00340903
0.00342242
0.00343522
0.00344743
0.00345905
0.00347011
0.0034806
0.00349052
0.0034999
0.00350873
0.00351703
0.00352479
0.00353203
0.00353875
0.00354496
0.00355067
0.00355587
0.00356058
0.0035648
0.00356854
0.00357179
0.00357457
0.00357687
0.0035787
0.00358005
0.00358093
0.00358133
0.00358129
0.0035808
0.00357988
0.00357852
0.00357674
0.00357453
0.0035719
0.00356886
0.0035654
0.00356154
0.00355727
0.0035526
0.00354753
0.00354206
0.0035362
0.00352995
0.00352331
0.00351629
0.00350889
0.0035011
0.00349294
0.00348439
0.00347547
0.00346617
0.00345649
0.00344644
0.00343602
0.00342521
0.00341403
0.00340247
0.00339053
0.00337822
0.00336552
0.00335244
0.00333897
0.00332512
0.00331088
0.00329625
0.00328123
0.00326582
0.00325001
0.00323381
0.00321721
0.0032002
0.0031828
0.00316499
0.00314678
0.00312816
0.00310914
0.00308971
0.00306986
0.00304961
0.00302895
0.00300788
0.0029864
0.00296451
0.0029422
0.00291949
0.00289636
0.00287282
0.00284888
0.00282452
0.00279976
0.00277459
0.00274902
0.00272303
0.00269665
0.00266986
0.00264266
0.00261506
0.00258706
0.00255866
0.00252986
0.00250065
0.00247104
0.00244102
0.0024106
0.00237976
0.00234851
0.00231683
0.00228473
0.00225219
0.00221921
0.00218576
0.00215185
0.00211744
0.00208252
0.00204706
0.00201104
0.00197441
0.00193713
0.00189915
0.00186041
0.00182081
0.00178025
0.00173859
0.00169564
0.00165115
0.00160476
0.00155592
0.00150373
0.00144644
0.00138447
0.00132493
0.00126234
0.00119183
0.00112192
0.00104148
0.000955803
0.000849213
0.000714382
0.000546972
0.000345992
0.00013765
0.000172727
0.000375402
0.000662294
0.00093224
0.00116044
0.0013545
0.00152457
0.0016771
0.00181511
0.00194107
0.00205706
0.00216476
0.00226547
0.00236022
0.00244978
0.00253477
0.00261568
0.00269291
0.00276678
0.00283757
0.00290552
0.00297083
0.00303368
0.00309423
0.00315262
0.00320898
0.00326342
0.00331605
0.00336695
0.00341622
0.00346392
0.00351012
0.00355489
0.00359828
0.00364035
0.00368114
0.00372069
0.00375903
0.00379622
0.00383226
0.0038672
0.00390107
0.00393388
0.00396566
0.00399643
0.00402621
0.00405501
0.00408287
0.00410979
0.00413578
0.00416087
0.00418507
0.0042084
0.00423086
0.00425247
0.00427324
0.00429319
0.00431233
0.00433067
0.00434822
0.004365
0.00438101
0.00439626
0.00441078
0.00442456
0.00443762
0.00444997
0.00446162
0.00447258
0.00448285
0.00449246
0.00450139
0.00450968
0.00451731
0.00452431
0.00453067
0.00453641
0.00454154
0.00454605
0.00454996
0.00455327
0.00455599
0.00455811
0.00455965
0.0045606
0.00456096
0.00456076
0.00456001
0.0045587
0.00455686
0.00455448
0.00455156
0.00454812
0.00454415
0.00453967
0.00453468
0.00452918
0.00452317
0.00451666
0.00450966
0.00450217
0.00449418
0.00448571
0.00447676
0.00446732
0.00445741
0.00444702
0.00443615
0.00442481
0.00441299
0.0044007
0.00438793
0.0043747
0.00436099
0.0043468
0.00433214
0.004317
0.00430138
0.00428529
0.00426871
0.00425164
0.0042341
0.00421606
0.00419753
0.00417851
0.004159
0.00413899
0.00411848
0.00409747
0.00407595
0.00405394
0.00403141
0.00400838
0.00398483
0.00396078
0.00393622
0.00391114
0.00388555
0.00385944
0.00383282
0.00380568
0.00377804
0.00374987
0.00372119
0.003692
0.0036623
0.00363208
0.00360136
0.00357012
0.00353838
0.00350613
0.00347337
0.0034401
0.00340633
0.00337206
0.00333728
0.003302
0.00326621
0.00322992
0.00319312
0.00315581
0.00311799
0.00307965
0.00304079
0.0030014
0.00296147
0.00292098
0.00287993
0.00283829
0.00279605
0.00275318
0.00270966
0.00266545
0.0026205
0.00257478
0.00252821
0.00248075
0.00243229
0.00238274
0.00233197
0.00227983
0.00222611
0.00217057
0.00211289
0.00205265
0.00198934
0.00192235
0.00185083
0.00177433
0.00169379
0.00160817
0.0015163
0.00141548
0.00130308
0.00117514
0.00102468
0.000846231
0.00063694
0.000399518
0.000163823
0.000172808
0.000375058
0.000662733
0.000932146
0.00116036
0.00135454
0.00152463
0.0016772
0.00181524
0.0019412
0.00205719
0.00216489
0.0022656
0.00236035
0.00244991
0.00253489
0.0026158
0.00269302
0.00276689
0.00283768
0.00290562
0.00297093
0.00303378
0.00309432
0.00315271
0.00320907
0.00326351
0.00331613
0.00336703
0.00341629
0.00346399
0.00351019
0.00355496
0.00359835
0.00364041
0.00368119
0.00372074
0.00375908
0.00379626
0.00383231
0.00386725
0.00390111
0.00393391
0.00396569
0.00399646
0.00402623
0.00405504
0.00408289
0.00410981
0.0041358
0.00416089
0.00418509
0.00420841
0.00423087
0.00425248
0.00427325
0.0042932
0.00431233
0.00433067
0.00434822
0.004365
0.004381
0.00439626
0.00441077
0.00442456
0.00443762
0.00444996
0.00446161
0.00447257
0.00448284
0.00449244
0.00450138
0.00450966
0.00451729
0.00452429
0.00453065
0.00453639
0.00454152
0.00454603
0.00454994
0.00455325
0.00455597
0.00455809
0.00455962
0.00456057
0.00456093
0.00456073
0.00455998
0.00455868
0.00455683
0.00455445
0.00455153
0.00454809
0.00454412
0.00453964
0.00453465
0.00452914
0.00452314
0.00451663
0.00450963
0.00450213
0.00449415
0.00448568
0.00447672
0.00446729
0.00445737
0.00444698
0.00443611
0.00442477
0.00441295
0.00440066
0.0043879
0.00437466
0.00436095
0.00434676
0.0043321
0.00431696
0.00430134
0.00428524
0.00426867
0.0042516
0.00423405
0.00421602
0.00419749
0.00417847
0.00415896
0.00413894
0.00411843
0.00409742
0.00407591
0.00405389
0.00403137
0.00400833
0.00398479
0.00396074
0.00393617
0.00391109
0.0038855
0.00385939
0.00383277
0.00380564
0.00377799
0.00374982
0.00372115
0.00369196
0.00366225
0.00363204
0.00360131
0.00357007
0.00353833
0.00350608
0.00347332
0.00344005
0.00340628
0.00337201
0.00333723
0.00330195
0.00326616
0.00322987
0.00319307
0.00315576
0.00311794
0.0030796
0.00304074
0.00300135
0.00296142
0.00292093
0.00287988
0.00283824
0.002796
0.00275314
0.00270961
0.0026654
0.00262045
0.00257473
0.00252817
0.0024807
0.00243224
0.00238269
0.00233193
0.00227979
0.00222607
0.00217053
0.00211284
0.0020526
0.0019893
0.00192231
0.00185076
0.00177426
0.00169389
0.00160856
0.00151615
0.00141582
0.00130331
0.00117521
0.00102463
0.000846089
0.000636783
0.000399437
0.00016381
0.000195691
0.000387073
0.000727027
0.00104352
0.00131724
0.00155315
0.00175984
0.00194412
0.00211061
0.00226269
0.00240294
0.00253333
0.00265539
0.0027703
0.00287901
0.00298223
0.00308054
0.00317442
0.00326427
0.0033504
0.0034331
0.0035126
0.00358912
0.00366284
0.00373392
0.00380252
0.00386876
0.00393276
0.00399464
0.00405449
0.00411239
0.00416845
0.00422272
0.00427527
0.00432617
0.00437548
0.00442324
0.00446951
0.00451432
0.00455773
0.00459976
0.00464046
0.00467984
0.00471796
0.00475482
0.00479046
0.00482491
0.00485818
0.00489031
0.0049213
0.00495119
0.00497999
0.00500773
0.00503441
0.00506006
0.00508469
0.00510833
0.00513099
0.00515268
0.00517342
0.00519323
0.00521212
0.0052301
0.00524719
0.00526341
0.00527876
0.00529327
0.00530693
0.00531977
0.0053318
0.00534303
0.00535347
0.00536313
0.00537202
0.00538015
0.00538754
0.00539418
0.0054001
0.0054053
0.00540978
0.00541356
0.00541664
0.00541902
0.00542071
0.00542172
0.00542205
0.00542172
0.00542073
0.00541909
0.00541682
0.00541392
0.00541038
0.00540623
0.00540147
0.0053961
0.00539012
0.00538355
0.00537638
0.00536863
0.00536029
0.00535138
0.00534189
0.00533182
0.00532119
0.00530999
0.00529822
0.0052859
0.00527301
0.00525956
0.00524556
0.005231
0.00521588
0.0052002
0.00518396
0.00516717
0.00514981
0.00513189
0.00511341
0.00509436
0.00507475
0.00505456
0.0050338
0.00501247
0.00499056
0.00496807
0.004945
0.00492135
0.00489711
0.00487227
0.00484685
0.00482084
0.00479422
0.00476702
0.00473921
0.0047108
0.00468179
0.00465219
0.00462197
0.00459116
0.00455974
0.00452772
0.00449509
0.00446186
0.00442803
0.0043936
0.00435857
0.00432294
0.00428671
0.00424988
0.00421245
0.00417444
0.00413582
0.00409662
0.00405682
0.00401643
0.00397545
0.00393388
0.00389171
0.00384895
0.00380558
0.00376162
0.00371704
0.00367185
0.00362603
0.00357957
0.00353247
0.00348469
0.00343623
0.00338705
0.00333713
0.00328643
0.00323491
0.00318253
0.00312923
0.00307493
0.00301957
0.00296305
0.00290525
0.00284605
0.00278527
0.00272271
0.00265813
0.00259123
0.00252162
0.00244888
0.00237245
0.00229172
0.00220597
0.00211446
0.00201653
0.00191097
0.00179594
0.00166866
0.00152542
0.00136157
0.00117188
0.000952792
0.000705273
0.000438504
0.000185513
0.000195413
0.000387965
0.000727695
0.0010436
0.00131719
0.00155318
0.00175994
0.00194425
0.00211075
0.00226284
0.00240309
0.00253348
0.00265553
0.00277045
0.00287915
0.00298237
0.00308068
0.00317456
0.0032644
0.00335053
0.00343322
0.00351272
0.00358924
0.00366295
0.00373403
0.00380262
0.00386886
0.00393286
0.00399473
0.00405458
0.00411248
0.00416853
0.0042228
0.00427535
0.00432625
0.00437555
0.00442331
0.00446957
0.00451438
0.00455779
0.00459982
0.00464051
0.00467989
0.004718
0.00475486
0.0047905
0.00482494
0.00485822
0.00489034
0.00492133
0.00495122
0.00498002
0.00500775
0.00503443
0.00506007
0.00508471
0.00510834
0.005131
0.00515269
0.00517343
0.00519323
0.00521212
0.0052301
0.00524719
0.00526341
0.00527876
0.00529326
0.00530693
0.00531976
0.00533179
0.00534302
0.00535345
0.00536311
0.005372
0.00538014
0.00538752
0.00539417
0.00540008
0.00540528
0.00540976
0.00541354
0.00541661
0.005419
0.00542069
0.0054217
0.00542202
0.00542169
0.0054207
0.00541907
0.00541679
0.00541389
0.00541036
0.0054062
0.00540144
0.00539607
0.00539009
0.00538352
0.00537635
0.0053686
0.00536026
0.00535134
0.00534185
0.00533179
0.00532115
0.00530995
0.00529819
0.00528586
0.00527297
0.00525953
0.00524552
0.00523096
0.00521584
0.00520016
0.00518392
0.00516712
0.00514977
0.00513185
0.00511337
0.00509432
0.0050747
0.00505452
0.00503376
0.00501243
0.00499052
0.00496803
0.00494496
0.0049213
0.00489706
0.00487223
0.00484681
0.00482079
0.00479418
0.00476697
0.00473916
0.00471076
0.00468175
0.00465214
0.00462192
0.00459111
0.00455969
0.00452767
0.00449504
0.00446181
0.00442798
0.00439355
0.00435852
0.00432288
0.00428665
0.00424983
0.0042124
0.00417438
0.00413577
0.00409657
0.00405677
0.00401638
0.0039754
0.00393383
0.00389166
0.00384889
0.00380553
0.00376156
0.00371699
0.0036718
0.00362598
0.00357952
0.00353241
0.00348464
0.00343617
0.003387
0.00333707
0.00328638
0.00323486
0.00318248
0.00312918
0.00307488
0.00301952
0.002963
0.0029052
0.002846
0.00278522
0.00272266
0.00265809
0.00259118
0.00252158
0.00244883
0.00237241
0.00229168
0.00220593
0.00211441
0.00201651
0.00191102
0.00179593
0.00166869
0.00152542
0.00136151
0.00117172
0.000952526
0.000704961
0.000438301
0.000185532
3.85281e-05
0.000309264
0.000753984
0.00113169
0.0014468
0.00171806
0.00195606
0.00216813
0.00235967
0.00253468
0.00269618
0.00284646
0.00298726
0.00311994
0.00324556
0.00336494
0.00347875
0.00358751
0.00369168
0.00379162
0.00388764
0.00398001
0.00406895
0.00415468
0.00423738
0.0043172
0.00439429
0.00446878
0.00454079
0.00461043
0.0046778
0.00474298
0.00480607
0.00486714
0.00492626
0.00498349
0.0050389
0.00509254
0.00514446
0.00519471
0.00524333
0.00529038
0.00533587
0.00537986
0.00542238
0.00546345
0.00550312
0.00554141
0.00557834
0.00561395
0.00564827
0.00568131
0.00571309
0.00574366
0.00577302
0.00580119
0.00582821
0.00585409
0.00587884
0.0059025
0.00592507
0.00594658
0.00596705
0.00598649
0.00600491
0.00602235
0.0060388
0.0060543
0.00606885
0.00608247
0.00609517
0.00610696
0.00611787
0.0061279
0.00613706
0.00614537
0.00615284
0.00615948
0.0061653
0.00617031
0.00617452
0.00617793
0.00618056
0.00618241
0.00618348
0.0061838
0.00618336
0.00618218
0.00618027
0.00617763
0.00617429
0.00617023
0.00616547
0.00616002
0.00615388
0.00614705
0.00613956
0.00613139
0.00612255
0.00611306
0.00610291
0.00609211
0.00608066
0.00606856
0.00605583
0.00604246
0.00602845
0.0060138
0.00599853
0.00598262
0.00596607
0.0059489
0.0059311
0.00591266
0.00589359
0.00587389
0.00585355
0.00583257
0.00581095
0.00578869
0.00576579
0.00574223
0.00571803
0.00569318
0.00566767
0.0056415
0.00561468
0.00558719
0.00555903
0.00553021
0.00550071
0.00547055
0.00543971
0.0054082
0.00537601
0.00534314
0.00530959
0.00527536
0.00524046
0.00520487
0.0051686
0.00513166
0.00509403
0.00505573
0.00501675
0.00497709
0.00493676
0.00489576
0.00485408
0.00481173
0.0047687
0.00472501
0.00468066
0.00463563
0.00458993
0.00454357
0.00449653
0.00444882
0.00440043
0.00435136
0.0043016
0.00425115
0.00419999
0.0041481
0.00409548
0.00404211
0.00398796
0.003933
0.00387721
0.00382053
0.00376294
0.00370437
0.00364477
0.00358406
0.00352215
0.00345896
0.00339435
0.00332819
0.00326031
0.00319052
0.00311857
0.00304418
0.00296699
0.00288659
0.00280247
0.00271404
0.0026206
0.00252131
0.00241515
0.00230089
0.00217681
0.00204055
0.00188889
0.00171758
0.00152142
0.001295
0.00103525
0.000746948
0.000451418
0.000198893
3.84538e-05
0.00031009
0.000752922
0.00113114
0.00144668
0.00171811
0.00195617
0.00216827
0.00235982
0.00253484
0.00269634
0.00284662
0.00298742
0.0031201
0.00324572
0.0033651
0.0034789
0.00358766
0.00369183
0.00379177
0.00388778
0.00398014
0.00406909
0.00415481
0.0042375
0.00431732
0.0043944