/*--------------------------------*- C++ -*----------------------------------*\
  =========                 |
  \\      /  F ield         | OpenFOAM: The Open Source CFD Toolbox
   \\    /   O peration     | Website:  https://openfoam.org
    \\  /    A nd           | Version:  8
     \\/     M anipulation  |
\*---------------------------------------------------------------------------*/
FoamFile
{
    version     2.0;
    format      ascii;
    class       volVectorField;
    location    "600";
    object      U;
}
// * * * * * * * * * * * * * * * * * * * * * * * * * * * * * * * * * * * * * //

dimensions      [0 1 -1 0 0 0 0];

internalField   nonuniform List<vector> 
48000
(
(-0.00234823 3.036e-07 0.00240002)
(-0.00518419 3.03019e-08 0.0027134)
(-0.00844179 5.34244e-08 0.00254559)
(-0.0107651 1.12707e-07 0.0023169)
(-0.0124825 1.91842e-07 0.00110297)
(-0.0127096 1.11086e-07 0.00019033)
(-0.0121455 1.39121e-07 -0.000377381)
(-0.0110607 2.14122e-07 -0.000826031)
(-0.00858187 1.5756e-07 -0.0022453)
(-0.00563239 7.37365e-08 -0.00274265)
(-0.00220738 7.89429e-08 -0.00308996)
(0.00158567 5.80929e-08 -0.00333354)
(0.00558992 1.877e-08 -0.0034866)
(0.00978089 -2.17255e-08 -0.00358478)
(0.0140896 -5.54284e-08 -0.0036405)
(0.0184712 -7.06125e-08 -0.00366165)
(0.0228869 -6.94098e-08 -0.00365443)
(0.0273041 -6.51841e-08 -0.00362393)
(0.0316959 -6.84206e-08 -0.00357447)
(0.0360399 -7.85026e-08 -0.00350973)
(0.0403174 -8.8379e-08 -0.00343288)
(0.0445136 -9.49886e-08 -0.00334661)
(0.0486167 -1.02779e-07 -0.00325322)
(0.0526172 -1.17208e-07 -0.00315467)
(0.0565082 -1.35506e-07 -0.00305262)
(0.0602847 -1.46844e-07 -0.00294845)
(0.0639431 -1.41179e-07 -0.00284335)
(0.0674816 -1.181e-07 -0.00273826)
(0.0708991 -8.66366e-08 -0.00263393)
(0.0741957 -5.77472e-08 -0.00253097)
(0.0773724 -3.68607e-08 -0.00242987)
(0.0804305 -2.34822e-08 -0.00233105)
(0.083372 -1.51748e-08 -0.00223479)
(0.0861993 -1.17941e-08 -0.00214133)
(0.0889152 -1.4977e-08 -0.00205079)
(0.0915226 -2.52872e-08 -0.00196324)
(0.0940247 -3.96101e-08 -0.00187871)
(0.0964247 -5.15345e-08 -0.00179719)
(0.0987258 -5.46793e-08 -0.00171862)
(0.100931 -4.61892e-08 -0.00164295)
(0.103044 -2.80819e-08 -0.0015701)
(0.105067 -5.90859e-09 -0.00149997)
(0.107004 1.41403e-08 -0.00143246)
(0.108858 2.78083e-08 -0.00136748)
(0.11063 3.39988e-08 -0.00130493)
(0.112325 3.3976e-08 -0.00124473)
(0.113944 3.00469e-08 -0.00118676)
(0.115491 2.41608e-08 -0.00113095)
(0.116967 1.73002e-08 -0.00107718)
(0.118376 9.62477e-09 -0.00102538)
(0.119719 1.10415e-09 -0.000975443)
(0.120998 -8.03323e-09 -0.000927285)
(0.122217 -1.70488e-08 -0.000880823)
(0.123376 -2.50288e-08 -0.000835979)
(0.124479 -3.12802e-08 -0.000792678)
(0.125525 -3.57195e-08 -0.000750848)
(0.126519 -3.88947e-08 -0.000710422)
(0.12746 -4.1872e-08 -0.000671337)
(0.128351 -4.58201e-08 -0.000633535)
(0.129193 -5.15842e-08 -0.000596959)
(0.129988 -5.93282e-08 -0.000561558)
(0.130738 -6.86292e-08 -0.000527283)
(0.131442 -7.84671e-08 -0.000494086)
(0.132104 -8.7574e-08 -0.000461923)
(0.132724 -9.48154e-08 -0.000430747)
(0.133303 -9.93955e-08 -0.000400516)
(0.133843 -1.01048e-07 -0.000371183)
(0.134345 -1.00142e-07 -0.000342706)
(0.134809 -9.73319e-08 -0.000315041)
(0.135236 -9.36237e-08 -0.000288149)
(0.135629 -8.99649e-08 -0.000261989)
(0.135986 -8.71438e-08 -0.000236526)
(0.13631 -8.57046e-08 -0.000211725)
(0.136602 -8.57693e-08 -0.000187553)
(0.136861 -8.72427e-08 -0.000163977)
(0.137089 -8.97212e-08 -0.000140969)
(0.137286 -9.27404e-08 -0.000118497)
(0.137454 -9.57595e-08 -9.65334e-05)
(0.137592 -9.83789e-08 -7.50486e-05)
(0.137701 -1.00176e-07 -5.4016e-05)
(0.137783 -1.00914e-07 -3.34121e-05)
(0.137836 -1.00496e-07 -1.32183e-05)
(0.137863 -9.87862e-08 6.60806e-06)
(0.137863 -9.59422e-08 2.60957e-05)
(0.137837 -9.21274e-08 4.52653e-05)
(0.137785 -8.7494e-08 6.41505e-05)
(0.137707 -8.23771e-08 8.27684e-05)
(0.137605 -7.71612e-08 0.000101136)
(0.137478 -7.22308e-08 0.000119267)
(0.137326 -6.79667e-08 0.000137172)
(0.13715 -6.46049e-08 0.000154858)
(0.13695 -6.24081e-08 0.000172327)
(0.136727 -6.14259e-08 0.000189582)
(0.13648 -6.16505e-08 0.000206618)
(0.136211 -6.30173e-08 0.000223431)
(0.135919 -6.53169e-08 0.000240014)
(0.135605 -6.83588e-08 0.00025636)
(0.135268 -7.18805e-08 0.000272461)
(0.13491 -7.56078e-08 0.000288308)
(0.134531 -7.93465e-08 0.000303897)
(0.134131 -8.28796e-08 0.00031922)
(0.13371 -8.59749e-08 0.000334275)
(0.133269 -8.85486e-08 0.000349058)
(0.132808 -9.04484e-08 0.000363567)
(0.132327 -9.15373e-08 0.000377801)
(0.131828 -9.172e-08 0.000391762)
(0.13131 -9.09662e-08 0.000405453)
(0.130773 -8.93329e-08 0.000418878)
(0.130218 -8.69305e-08 0.000432046)
(0.129645 -8.40104e-08 0.000444973)
(0.129055 -8.07209e-08 0.000457678)
(0.128448 -7.72411e-08 0.000470184)
(0.127823 -7.35862e-08 0.00048252)
(0.127182 -6.98322e-08 0.000494711)
(0.126525 -6.62116e-08 0.000506784)
(0.12585 -6.33714e-08 0.000518767)
(0.12516 -6.1997e-08 0.000530694)
(0.124453 -6.29754e-08 0.000542603)
(0.123729 -6.68398e-08 0.000554537)
(0.12299 -7.34948e-08 0.000566532)
(0.122234 -8.2358e-08 0.000578621)
(0.121461 -9.2272e-08 0.000590832)
(0.120671 -1.01889e-07 0.000603196)
(0.119865 -1.09823e-07 0.000615752)
(0.119041 -1.14598e-07 0.000628543)
(0.118199 -1.15115e-07 0.000641612)
(0.11734 -1.10927e-07 0.000654993)
(0.116462 -1.02483e-07 0.000668714)
(0.115566 -9.13202e-08 0.000682799)
(0.11465 -7.98148e-08 0.000697269)
(0.113714 -7.04261e-08 0.000712149)
(0.112758 -6.52179e-08 0.000727459)
(0.111781 -6.51646e-08 0.000743213)
(0.110782 -6.99769e-08 0.000759416)
(0.109762 -7.85355e-08 0.00077607)
(0.108719 -8.88455e-08 0.000793178)
(0.107653 -9.86834e-08 0.000810745)
(0.106563 -1.05849e-07 0.00082878)
(0.105449 -1.08788e-07 0.000847288)
(0.104311 -1.07036e-07 0.000866274)
(0.103146 -1.01417e-07 0.000885742)
(0.101956 -9.39853e-08 0.000905696)
(0.100739 -8.7414e-08 0.000926146)
(0.0994952 -8.40179e-08 0.000947101)
(0.0982232 -8.48784e-08 0.000968573)
(0.0969226 -8.94623e-08 0.000990568)
(0.0955928 -9.5828e-08 0.0010131)
(0.0942333 -1.01288e-07 0.00103617)
(0.0928433 -1.03069e-07 0.00105981)
(0.0914223 -9.91935e-08 0.00108405)
(0.0899694 -8.84343e-08 0.00110894)
(0.0884838 -7.07764e-08 0.00113451)
(0.0869648 -4.69508e-08 0.0011608)
(0.0854114 -1.90438e-08 0.00118787)
(0.0838227 9.41147e-09 0.00121574)
(0.0821976 3.326e-08 0.00124446)
(0.0805351 4.62502e-08 0.00127406)
(0.0788341 4.27704e-08 0.00130458)
(0.0770936 1.99956e-08 0.00133609)
(0.0753123 -2.00869e-08 0.00136864)
(0.0734891 -7.03957e-08 0.00140233)
(0.0716229 -1.19913e-07 0.00143725)
(0.0697122 -1.57109e-07 0.00147353)
(0.0677555 -1.73206e-07 0.00151132)
(0.0657511 -1.64404e-07 0.00155078)
(0.0636973 -1.32119e-07 0.00159207)
(0.0615918 -8.16422e-08 0.00163537)
(0.0594324 -2.08332e-08 0.00168083)
(0.0572167 4.11181e-08 0.00172863)
(0.054942 9.55463e-08 0.00177891)
(0.0526057 1.36337e-07 0.00183186)
(0.050205 1.62638e-07 0.00188763)
(0.0477369 1.77417e-07 0.00194633)
(0.0451986 1.82633e-07 0.00200802)
(0.0425871 1.73648e-07 0.00207272)
(0.0399 1.43023e-07 0.00214041)
(0.037135 9.31708e-08 0.00221104)
(0.0342901 4.50168e-08 0.00228448)
(0.0313639 2.60568e-08 0.00236042)
(0.0283558 4.14685e-08 0.00243831)
(0.025266 6.01545e-08 0.00251731)
(0.0220966 3.6047e-08 0.00259615)
(0.0188512 -6.95508e-08 0.00267269)
(0.0155386 -3.04016e-07 0.00274306)
(0.0121751 -7.33578e-07 0.00279991)
(0.00876158 -1.38159e-06 0.00283112)
(0.00548806 -2.19432e-06 0.00281215)
(0.002023 -3.06969e-06 0.00266454)
(-0.00104374 -4.11732e-06 0.00221452)
(-0.00369122 -6.20007e-07 0.00182779)
(-0.0064333 4.01425e-05 0.00163467)
(-0.00853965 4.63926e-05 0.000851088)
(-0.0098619 -2.46199e-05 0.000415887)
(-0.0107628 -2.59402e-05 0.000275251)
(-0.0113263 -1.60525e-06 -0.000307178)
(-0.011025 -6.72147e-07 -0.000763408)
(-0.0100388 -4.96892e-08 -0.00130639)
(-0.00805506 8.52485e-08 -0.00202354)
(-0.00506199 -1.87661e-07 -0.00249743)
(-0.00221974 -1.8244e-07 -0.00225841)
(-0.0023485 3.0357e-07 0.0023997)
(-0.00518429 3.02989e-08 0.00271351)
(-0.00844171 5.34357e-08 0.00254563)
(-0.010765 1.12724e-07 0.00231666)
(-0.0124829 1.91881e-07 0.00110194)
(-0.0127096 1.11099e-07 0.000189909)
(-0.0121456 1.39075e-07 -0.000377391)
(-0.0110601 2.14007e-07 -0.000827398)
(-0.00858155 1.57517e-07 -0.00224611)
(-0.0056322 7.37291e-08 -0.00274328)
(-0.00220704 7.89383e-08 -0.00309059)
(0.00158606 5.80901e-08 -0.00333418)
(0.00559032 1.87691e-08 -0.0034872)
(0.0097813 -2.17246e-08 -0.00358533)
(0.01409 -5.54263e-08 -0.00364102)
(0.0184716 -7.06099e-08 -0.00366214)
(0.0228872 -6.94075e-08 -0.00365488)
(0.0273044 -6.5182e-08 -0.00362434)
(0.0316962 -6.84186e-08 -0.00357484)
(0.03604 -7.85005e-08 -0.00351009)
(0.0403175 -8.83768e-08 -0.00343322)
(0.0445137 -9.49864e-08 -0.00334693)
(0.0486167 -1.02776e-07 -0.00325351)
(0.0526172 -1.17206e-07 -0.00315492)
(0.0565082 -1.35504e-07 -0.00305283)
(0.0602846 -1.46842e-07 -0.00294864)
(0.0639431 -1.41177e-07 -0.00284352)
(0.0674815 -1.18098e-07 -0.0027384)
(0.070899 -8.66353e-08 -0.00263404)
(0.0741957 -5.77464e-08 -0.00253105)
(0.0773723 -3.68602e-08 -0.00242994)
(0.0804304 -2.34819e-08 -0.00233112)
(0.0833718 -1.51746e-08 -0.00223488)
(0.0861991 -1.1794e-08 -0.00214143)
(0.088915 -1.49769e-08 -0.00205089)
(0.0915224 -2.52869e-08 -0.00196333)
(0.0940245 -3.96097e-08 -0.0018788)
(0.0964245 -5.15339e-08 -0.00179726)
(0.0987256 -5.46788e-08 -0.00171868)
(0.100931 -4.61887e-08 -0.001643)
(0.103044 -2.80817e-08 -0.00157013)
(0.105067 -5.90854e-09 -0.00149998)
(0.107004 1.41402e-08 -0.00143246)
(0.108857 2.78081e-08 -0.00136746)
(0.11063 3.39986e-08 -0.00130491)
(0.112325 3.39757e-08 -0.00124469)
(0.113944 3.00466e-08 -0.00118672)
(0.115491 2.41607e-08 -0.0011309)
(0.116967 1.73001e-08 -0.00107713)
(0.118375 9.6247e-09 -0.00102532)
(0.119718 1.10414e-09 -0.000975366)
(0.120998 -8.03318e-09 -0.000927196)
(0.122217 -1.70487e-08 -0.000880722)
(0.123376 -2.50286e-08 -0.000835865)
(0.124478 -3.12801e-08 -0.00079255)
(0.125525 -3.57193e-08 -0.000750707)
(0.126519 -3.88945e-08 -0.000710269)
(0.12746 -4.18718e-08 -0.000671173)
(0.128351 -4.58199e-08 -0.00063336)
(0.129193 -5.1584e-08 -0.000596777)
(0.129988 -5.93279e-08 -0.000561372)
(0.130738 -6.86289e-08 -0.000527098)
(0.131442 -7.84668e-08 -0.000493906)
(0.132104 -8.75736e-08 -0.00046175)
(0.132724 -9.4815e-08 -0.000430584)
(0.133303 -9.93951e-08 -0.000400362)
(0.133843 -1.01047e-07 -0.000371037)
(0.134344 -1.00141e-07 -0.000342565)
(0.134808 -9.73316e-08 -0.000314902)
(0.135236 -9.36234e-08 -0.000288009)
(0.135628 -8.99646e-08 -0.000261846)
(0.135986 -8.71435e-08 -0.000236377)
(0.13631 -8.57044e-08 -0.00021157)
(0.136602 -8.57691e-08 -0.000187392)
(0.136861 -8.72425e-08 -0.000163812)
(0.137089 -8.9721e-08 -0.000140801)
(0.137286 -9.27401e-08 -0.000118328)
(0.137454 -9.57592e-08 -9.63643e-05)
(0.137592 -9.83786e-08 -7.48803e-05)
(0.137701 -1.00176e-07 -5.38488e-05)
(0.137783 -1.00914e-07 -3.32456e-05)
(0.137836 -1.00495e-07 -1.30515e-05)
(0.137863 -9.8786e-08 6.77724e-06)
(0.137863 -9.5942e-08 2.62681e-05)
(0.137837 -9.21272e-08 4.54412e-05)
(0.137785 -8.74938e-08 6.43323e-05)
(0.137707 -8.23769e-08 8.29576e-05)
(0.137605 -7.7161e-08 0.000101334)
(0.137477 -7.22306e-08 0.000119473)
(0.137326 -6.79665e-08 0.000137387)
(0.13715 -6.46048e-08 0.00015508)
(0.13695 -6.2408e-08 0.000172556)
(0.136727 -6.14257e-08 0.000189814)
(0.13648 -6.16504e-08 0.000206852)
(0.136211 -6.30171e-08 0.000223665)
(0.135919 -6.53167e-08 0.000240247)
(0.135605 -6.83587e-08 0.000256589)
(0.135268 -7.18804e-08 0.000272685)
(0.13491 -7.56076e-08 0.000288528)
(0.134531 -7.93463e-08 0.000304112)
(0.134131 -8.28794e-08 0.00031943)
(0.13371 -8.59747e-08 0.000334479)
(0.133269 -8.85484e-08 0.000349256)
(0.132808 -9.04482e-08 0.000363759)
(0.132327 -9.15371e-08 0.000377988)
(0.131828 -9.17198e-08 0.000391944)
(0.13131 -9.0966e-08 0.00040563)
(0.130773 -8.93327e-08 0.000419051)
(0.130218 -8.69303e-08 0.000432217)
(0.129645 -8.40102e-08 0.000445144)
(0.129055 -8.07207e-08 0.00045785)
(0.128448 -7.72409e-08 0.000470359)
(0.127823 -7.3586e-08 0.000482696)
(0.127182 -6.98321e-08 0.000494888)
(0.126525 -6.62114e-08 0.00050696)
(0.12585 -6.33712e-08 0.000518943)
(0.12516 -6.19968e-08 0.000530872)
(0.124453 -6.29753e-08 0.000542787)
(0.12373 -6.68396e-08 0.000554724)
(0.12299 -7.34946e-08 0.000566719)
(0.122234 -8.23579e-08 0.000578803)
(0.121461 -9.22719e-08 0.000591005)
(0.120671 -1.01889e-07 0.000603361)
(0.119865 -1.09823e-07 0.000615911)
(0.119041 -1.14597e-07 0.000628697)
(0.118199 -1.15115e-07 0.000641761)
(0.11734 -1.10927e-07 0.000655135)
(0.116462 -1.02483e-07 0.000668851)
(0.115566 -9.13201e-08 0.000682936)
(0.11465 -7.98146e-08 0.000697419)
(0.113714 -7.0426e-08 0.000712317)
(0.112758 -6.52177e-08 0.000727645)
(0.111781 -6.51644e-08 0.000743407)
(0.110783 -6.99768e-08 0.000759606)
(0.109762 -7.85354e-08 0.000776248)
(0.108719 -8.88454e-08 0.000793345)
(0.107653 -9.86833e-08 0.000810907)
(0.106563 -1.05848e-07 0.000828941)
(0.105449 -1.08788e-07 0.000847447)
(0.104311 -1.07036e-07 0.000866424)
(0.103146 -1.01417e-07 0.000885878)
(0.101956 -9.39852e-08 0.00090582)
(0.100739 -8.74139e-08 0.000926268)
(0.0994952 -8.40178e-08 0.000947234)
(0.0982232 -8.48783e-08 0.000968724)
(0.0969226 -8.94622e-08 0.000990735)
(0.0955929 -9.58279e-08 0.00101327)
(0.0942333 -1.01287e-07 0.00103635)
(0.0928434 -1.03069e-07 0.00105998)
(0.0914224 -9.91935e-08 0.00108422)
(0.0899695 -8.84342e-08 0.00110911)
(0.088484 -7.07763e-08 0.00113468)
(0.086965 -4.69507e-08 0.00116097)
(0.0854116 -1.90437e-08 0.00118802)
(0.0838228 9.41146e-09 0.00121586)
(0.0821977 3.32599e-08 0.00124454)
(0.0805352 4.62502e-08 0.0012741)
(0.0788341 4.27704e-08 0.0013046)
(0.0770935 1.99955e-08 0.00133608)
(0.0753122 -2.00869e-08 0.00136861)
(0.0734891 -7.03956e-08 0.00140228)
(0.0716228 -1.19912e-07 0.0014372)
(0.0697122 -1.57109e-07 0.00147349)
(0.0677555 -1.73206e-07 0.0015113)
(0.0657513 -1.64404e-07 0.00155079)
(0.0636975 -1.32118e-07 0.00159211)
(0.061592 -8.16421e-08 0.00163543)
(0.0594327 -2.08331e-08 0.00168089)
(0.057217 4.1118e-08 0.00172868)
(0.0549424 9.5546e-08 0.00177896)
(0.0526062 1.36337e-07 0.0018319)
(0.0502055 1.62637e-07 0.00188764)
(0.0477374 1.77416e-07 0.0019463)
(0.0451991 1.82632e-07 0.00200794)
(0.0425876 1.73647e-07 0.00207258)
(0.0399006 1.43022e-07 0.00214024)
(0.0371357 9.31701e-08 0.0022109)
(0.034291 4.50165e-08 0.0022844)
(0.031365 2.60565e-08 0.00236039)
(0.0283571 4.14681e-08 0.00243834)
(0.0252674 6.01539e-08 0.00251744)
(0.0220981 3.60466e-08 0.00259638)
(0.0188525 -6.955e-08 0.00267298)
(0.0155394 -3.04013e-07 0.00274334)
(0.0121752 -7.33575e-07 0.00280011)
(0.00876054 -1.38157e-06 0.0028312)
(0.00548538 -2.19398e-06 0.00281222)
(0.00201785 -3.06696e-06 0.00266526)
(-0.00104751 -4.11028e-06 0.00221423)
(-0.00367367 -6.15363e-07 0.00181508)
(-0.00658323 2.92183e-05 0.00134318)
(-0.00811943 3.10949e-05 0.00119013)
(-0.00985659 -3.36622e-05 0.000642313)
(-0.0108934 -2.99444e-05 9.8078e-05)
(-0.0113112 -1.61841e-06 -0.000346989)
(-0.0110347 -6.72626e-07 -0.000766141)
(-0.0100502 -4.96947e-08 -0.00130561)
(-0.00806554 8.52543e-08 -0.00202468)
(-0.00506906 -1.87671e-07 -0.00250086)
(-0.00222289 -1.82445e-07 -0.00226175)
(-0.00238399 -1.23091e-07 0.00605187)
(-0.00467473 -4.99968e-08 0.00539744)
(-0.00636067 -1.84059e-08 0.00415029)
(-0.00702332 -6.22608e-09 0.00263093)
(-0.00678794 5.58543e-08 0.00101484)
(-0.00590554 7.02193e-08 -0.000612643)
(-0.00441581 2.71227e-08 -0.00210206)
(-0.00221915 2.0795e-08 -0.00353644)
(0.000313537 -8.1527e-09 -0.00471306)
(0.00315282 -2.99844e-08 -0.00560344)
(0.0063439 -3.74973e-08 -0.0062834)
(0.00981521 -3.88488e-08 -0.00679091)
(0.0135033 -4.30408e-08 -0.00715881)
(0.0173588 -5.24794e-08 -0.00741971)
(0.0213339 -5.99552e-08 -0.00759191)
(0.0253894 -6.00524e-08 -0.0076904)
(0.0294912 -5.57388e-08 -0.00772707)
(0.0336101 -5.2754e-08 -0.00771185)
(0.0377213 -5.28626e-08 -0.0076533)
(0.0418038 -5.3668e-08 -0.00755883)
(0.0458401 -5.27771e-08 -0.00743492)
(0.0498153 -5.06566e-08 -0.00728719)
(0.0537177 -4.94726e-08 -0.00712055)
(0.0575375 -4.98972e-08 -0.00693928)
(0.0612671 -4.9743e-08 -0.00674705)
(0.0649006 -4.59663e-08 -0.00654702)
(0.0684338 -3.76931e-08 -0.00634186)
(0.0718637 -2.70652e-08 -0.00613383)
(0.0751885 -1.73852e-08 -0.0059248)
(0.0784071 -1.05912e-08 -0.00571633)
(0.0815196 -6.45655e-09 -0.00550967)
(0.0845262 -3.74012e-09 -0.00530584)
(0.0874282 -1.80418e-09 -0.00510565)
(0.0902269 -1.05991e-09 -0.00490972)
(0.0929242 -2.20785e-09 -0.0047185)
(0.0955222 -5.0405e-09 -0.00453232)
(0.0980231 -8.19486e-09 -0.00435138)
(0.100429 -9.80537e-09 -0.0041758)
(0.102743 -8.66131e-09 -0.00400562)
(0.104968 -4.9169e-09 -0.00384084)
(0.107105 5.91679e-11 -0.00368138)
(0.109158 4.4413e-09 -0.00352715)
(0.111129 6.8627e-09 -0.00337805)
(0.11302 6.9255e-09 -0.00323392)
(0.114834 5.07515e-09 -0.00309463)
(0.116574 2.22731e-09 -0.00296002)
(0.118241 -8.01371e-10 -0.00282992)
(0.119837 -3.54356e-09 -0.00270417)
(0.121366 -5.87075e-09 -0.0025826)
(0.122829 -7.86956e-09 -0.00246505)
(0.124228 -9.60091e-09 -0.00235136)
(0.125565 -1.09753e-08 -0.00224137)
(0.126843 -1.18224e-08 -0.00213494)
(0.128062 -1.19481e-08 -0.00203192)
(0.129224 -1.13227e-08 -0.00193216)
(0.130332 -1.00968e-08 -0.00183554)
(0.131387 -8.58248e-09 -0.00174194)
(0.13239 -7.1481e-09 -0.00165122)
(0.133343 -6.10301e-09 -0.00156327)
(0.134247 -5.57666e-09 -0.00147798)
(0.135105 -5.491e-09 -0.00139525)
(0.135916 -5.60807e-09 -0.00131497)
(0.136683 -5.59474e-09 -0.00123704)
(0.137406 -5.14359e-09 -0.00116136)
(0.138087 -4.05757e-09 -0.00108785)
(0.138727 -2.29481e-09 -0.00101639)
(0.139326 1.90379e-11 -0.000946913)
(0.139887 2.65365e-09 -0.00087932)
(0.14041 5.30635e-09 -0.000813528)
(0.140895 7.69444e-09 -0.000749454)
(0.141345 9.60472e-09 -0.00068702)
(0.141759 1.09182e-08 -0.000626149)
(0.142138 1.16187e-08 -0.000566767)
(0.142484 1.17844e-08 -0.000508803)
(0.142797 1.15645e-08 -0.000452186)
(0.143078 1.11229e-08 -0.000396848)
(0.143328 1.06212e-08 -0.000342719)
(0.143546 1.02005e-08 -0.000289734)
(0.143734 9.95593e-09 -0.000237828)
(0.143892 9.94546e-09 -0.000186939)
(0.144021 1.0171e-08 -0.000137011)
(0.144122 1.06032e-08 -8.79938e-05)
(0.144194 1.11942e-08 -3.98437e-05)
(0.144238 1.19662e-08 7.49085e-06)
(0.144255 1.28818e-08 5.40913e-05)
(0.144245 1.3806e-08 0.000100022)
(0.144209 1.46912e-08 0.000145312)
(0.144146 1.54783e-08 0.00018999)
(0.144058 1.61189e-08 0.000234081)
(0.143944 1.65758e-08 0.000277606)
(0.143805 1.68166e-08 0.000320577)
(0.143641 1.68194e-08 0.000363004)
(0.143452 1.65786e-08 0.000404888)
(0.14324 1.6116e-08 0.000446229)
(0.143004 1.54679e-08 0.000487021)
(0.142744 1.4694e-08 0.000527255)
(0.14246 1.38812e-08 0.000566919)
(0.142154 1.31074e-08 0.000606)
(0.141826 1.24487e-08 0.000644486)
(0.141475 1.19804e-08 0.000682362)
(0.141102 1.1731e-08 0.000719616)
(0.140708 1.16968e-08 0.000756238)
(0.140293 1.18529e-08 0.000792221)
(0.139856 1.21451e-08 0.000827562)
(0.139399 1.25363e-08 0.000862262)
(0.138922 1.30198e-08 0.000896329)
(0.138426 1.36156e-08 0.000929775)
(0.13791 1.43685e-08 0.000962617)
(0.137374 1.53022e-08 0.000994882)
(0.13682 1.6412e-08 0.0010266)
(0.136247 1.76161e-08 0.00105783)
(0.135656 1.87963e-08 0.00108861)
(0.135047 1.98424e-08 0.001119)
(0.13442 2.06238e-08 0.00114906)
(0.133775 2.10502e-08 0.00117886)
(0.133112 2.10416e-08 0.00120846)
(0.132432 2.056e-08 0.00123794)
(0.131734 1.95777e-08 0.00126739)
(0.131019 1.81243e-08 0.0012969)
(0.130286 1.62845e-08 0.00132655)
(0.129536 1.42372e-08 0.00135642)
(0.128767 1.22536e-08 0.00138657)
(0.127981 1.07212e-08 0.0014171)
(0.127176 1.00254e-08 0.00144808)
(0.126352 1.04509e-08 0.00147961)
(0.12551 1.20099e-08 0.00151175)
(0.124648 1.43999e-08 0.00154457)
(0.123767 1.71126e-08 0.00157814)
(0.122865 1.9631e-08 0.00161249)
(0.121944 2.15575e-08 0.00164768)
(0.121001 2.26797e-08 0.00168375)
(0.120036 2.28853e-08 0.00172075)
(0.11905 2.21143e-08 0.00175869)
(0.118041 2.0403e-08 0.0017976)
(0.11701 1.80006e-08 0.00183749)
(0.115954 1.54764e-08 0.00187837)
(0.114875 1.36432e-08 0.00192027)
(0.113771 1.32282e-08 0.00196319)
(0.112642 1.45341e-08 0.00200714)
(0.111486 1.72334e-08 0.00205213)
(0.110305 2.04734e-08 0.00209818)
(0.109097 2.3226e-08 0.00214529)
(0.107861 2.4688e-08 0.00219347)
(0.106597 2.45681e-08 0.00224275)
(0.105304 2.3108e-08 0.00229312)
(0.103981 2.09112e-08 0.0023446)
(0.102629 1.86878e-08 0.00239722)
(0.101247 1.7104e-08 0.00245099)
(0.0998326 1.66224e-08 0.00250597)
(0.0983866 1.74885e-08 0.00256219)
(0.096908 1.97843e-08 0.00261973)
(0.095396 2.33688e-08 0.00267862)
(0.0938498 2.79222e-08 0.00273894)
(0.0922687 3.28431e-08 0.00280075)
(0.0906518 3.71928e-08 0.00286415)
(0.0889981 3.9757e-08 0.00292922)
(0.0873068 3.92697e-08 0.00299605)
(0.0855769 3.49066e-08 0.00306477)
(0.0838074 2.68124e-08 0.00313548)
(0.0819972 1.63654e-08 0.00320833)
(0.0801453 6.00019e-09 0.00328348)
(0.0782504 -1.56096e-09 0.0033611)
(0.0763113 -4.24316e-09 0.00344138)
(0.0743267 -1.27352e-09 0.00352453)
(0.072295 6.77687e-09 0.00361079)
(0.0702149 1.84232e-08 0.00370037)
(0.0680845 3.18265e-08 0.00379352)
(0.0659023 4.50129e-08 0.00389046)
(0.0636664 5.59225e-08 0.00399143)
(0.061375 6.3002e-08 0.00409661)
(0.0590262 6.59374e-08 0.0042062)
(0.0566182 6.61164e-08 0.00432031)
(0.0541491 6.5492e-08 0.004439)
(0.0516174 6.43194e-08 0.0045622)
(0.0490214 6.03998e-08 0.00468974)
(0.0463603 5.21724e-08 0.00482125)
(0.0436332 4.29437e-08 0.00495613)
(0.0408403 4.04233e-08 0.0050935)
(0.0379824 4.90733e-08 0.00523203)
(0.0350613 6.32134e-08 0.00536987)
(0.0320806 7.15056e-08 0.00550439)
(0.0290457 6.6756e-08 0.00563187)
(0.0259646 4.42096e-08 0.00574672)
(0.0228493 -9.93879e-09 0.00584056)
(0.0197163 -1.15531e-07 0.00589952)
(0.016582 -2.85037e-07 0.00589808)
(0.0134856 -5.43915e-07 0.00581036)
(0.0104675 -9.61253e-07 0.00553535)
(0.00745307 -1.60674e-06 0.00504761)
(0.00459743 -1.4178e-06 0.0046855)
(0.00181378 2.09238e-06 0.00423358)
(-0.000707087 -9.04755e-06 0.00358832)
(-0.00300846 -1.45388e-05 0.00273165)
(-0.00478929 -3.45072e-06 0.00171441)
(-0.00609002 1.92169e-07 0.000561139)
(-0.00681858 3.32958e-08 -0.000750191)
(-0.00681926 2.15814e-07 -0.00222935)
(-0.00606017 2.7574e-07 -0.00380766)
(-0.00451194 2.30987e-07 -0.00517671)
(-0.00227982 5.83276e-07 -0.00598265)
(-0.00238402 -1.23088e-07 0.0060516)
(-0.00467456 -4.9986e-08 0.00539781)
(-0.00636052 -1.84093e-08 0.00415049)
(-0.00702327 -6.22619e-09 0.00263081)
(-0.0067881 5.59163e-08 0.00101443)
(-0.00590552 7.02932e-08 -0.000612417)
(-0.0044152 2.7109e-08 -0.00210205)
(-0.00221889 2.07743e-08 -0.00353676)
(0.000313581 -8.14861e-09 -0.00471351)
(0.00315296 -2.9979e-08 -0.0056038)
(0.00634409 -3.74941e-08 -0.00628371)
(0.0098154 -3.88463e-08 -0.00679118)
(0.0135035 -4.30384e-08 -0.00715906)
(0.017359 -5.24766e-08 -0.00741994)
(0.021334 -5.99522e-08 -0.00759211)
(0.0253895 -6.00496e-08 -0.00769058)
(0.0294912 -5.57364e-08 -0.00772722)
(0.0336101 -5.27518e-08 -0.00771199)
(0.0377213 -5.28605e-08 -0.00765343)
(0.0418038 -5.36659e-08 -0.00755896)
(0.04584 -5.27752e-08 -0.00743503)
(0.0498153 -5.06548e-08 -0.00728729)
(0.0537176 -4.94709e-08 -0.00712064)
(0.0575374 -4.98956e-08 -0.00693935)
(0.0612669 -4.97415e-08 -0.00674711)
(0.0649005 -4.59649e-08 -0.00654707)
(0.0684337 -3.76921e-08 -0.00634191)
(0.0718636 -2.70644e-08 -0.00613387)
(0.0751883 -1.73848e-08 -0.00592483)
(0.078407 -1.05909e-08 -0.00571635)
(0.0815194 -6.45639e-09 -0.00550969)
(0.084526 -3.74003e-09 -0.00530586)
(0.087428 -1.80414e-09 -0.00510567)
(0.0902267 -1.05989e-09 -0.00490974)
(0.092924 -2.20781e-09 -0.00471852)
(0.095522 -5.0404e-09 -0.00453234)
(0.0980229 -8.1947e-09 -0.0043514)
(0.100429 -9.80518e-09 -0.00417582)
(0.102743 -8.66116e-09 -0.00400564)
(0.104968 -4.91681e-09 -0.00384085)
(0.107105 5.91669e-11 -0.00368138)
(0.109158 4.44123e-09 -0.00352716)
(0.111129 6.86259e-09 -0.00337805)
(0.11302 6.92539e-09 -0.00323392)
(0.114834 5.07508e-09 -0.00309463)
(0.116574 2.22728e-09 -0.00296001)
(0.118241 -8.0136e-10 -0.0028299)
(0.119837 -3.54351e-09 -0.00270415)
(0.121366 -5.87067e-09 -0.00258258)
(0.122829 -7.86946e-09 -0.00246502)
(0.124228 -9.60079e-09 -0.00235133)
(0.125565 -1.09752e-08 -0.00224134)
(0.126842 -1.18223e-08 -0.00213491)
(0.128061 -1.19479e-08 -0.00203188)
(0.129224 -1.13226e-08 -0.00193212)
(0.130332 -1.00967e-08 -0.0018355)
(0.131386 -8.58239e-09 -0.00174189)
(0.13239 -7.14803e-09 -0.00165117)
(0.133343 -6.10295e-09 -0.00156322)
(0.134247 -5.5766e-09 -0.00147794)
(0.135105 -5.49094e-09 -0.0013952)
(0.135916 -5.60802e-09 -0.00131492)
(0.136682 -5.59469e-09 -0.00123699)
(0.137406 -5.14354e-09 -0.00116132)
(0.138087 -4.05753e-09 -0.00108781)
(0.138726 -2.29479e-09 -0.00101636)
(0.139326 1.90378e-11 -0.00094688)
(0.139887 2.65363e-09 -0.00087929)
(0.14041 5.3063e-09 -0.000813499)
(0.140895 7.69438e-09 -0.000749426)
(0.141345 9.60465e-09 -0.000686991)
(0.141759 1.09181e-08 -0.000626119)
(0.142138 1.16187e-08 -0.000566737)
(0.142484 1.17843e-08 -0.000508772)
(0.142797 1.15644e-08 -0.000452155)
(0.143078 1.11228e-08 -0.000396816)
(0.143327 1.06212e-08 -0.000342688)
(0.143546 1.02005e-08 -0.000289703)
(0.143734 9.95587e-09 -0.000237798)
(0.143892 9.9454e-09 -0.00018691)
(0.144021 1.0171e-08 -0.000136984)
(0.144121 1.06031e-08 -8.79671e-05)
(0.144194 1.11942e-08 -3.98177e-05)
(0.144238 1.19661e-08 7.51668e-06)
(0.144255 1.28817e-08 5.41178e-05)
(0.144245 1.38059e-08 0.00010005)
(0.144208 1.46911e-08 0.000145343)
(0.144146 1.54782e-08 0.000190025)
(0.144057 1.61188e-08 0.000234121)
(0.143944 1.65757e-08 0.00027765)
(0.143804 1.68165e-08 0.000320625)
(0.143641 1.68193e-08 0.000363054)
(0.143452 1.65785e-08 0.00040494)
(0.14324 1.6116e-08 0.000446282)
(0.143003 1.54678e-08 0.000487073)
(0.142744 1.4694e-08 0.000527306)
(0.14246 1.38811e-08 0.000566969)
(0.142154 1.31073e-08 0.000606049)
(0.141826 1.24487e-08 0.000644532)
(0.141475 1.19804e-08 0.000682405)
(0.141102 1.1731e-08 0.000719657)
(0.140708 1.16967e-08 0.000756276)
(0.140292 1.18528e-08 0.000792256)
(0.139856 1.2145e-08 0.000827595)
(0.139399 1.25362e-08 0.000862295)
(0.138922 1.30197e-08 0.000896361)
(0.138426 1.36156e-08 0.000929807)
(0.137909 1.43684e-08 0.00096265)
(0.137374 1.53022e-08 0.000994916)
(0.13682 1.6412e-08 0.00102664)
(0.136247 1.7616e-08 0.00105787)
(0.135656 1.87962e-08 0.00108865)
(0.135047 1.98423e-08 0.00111904)
(0.13442 2.06237e-08 0.0011491)
(0.133775 2.10501e-08 0.00117889)
(0.133112 2.10416e-08 0.00120849)
(0.132432 2.05599e-08 0.00123797)
(0.131734 1.95777e-08 0.00126743)
(0.131019 1.81243e-08 0.00129694)
(0.130286 1.62844e-08 0.00132659)
(0.129536 1.42371e-08 0.00135646)
(0.128767 1.22535e-08 0.00138661)
(0.12798 1.07211e-08 0.00141713)
(0.127176 1.00254e-08 0.00144811)
(0.126352 1.04508e-08 0.00147963)
(0.12551 1.20099e-08 0.00151177)
(0.124648 1.43999e-08 0.00154458)
(0.123767 1.71125e-08 0.00157814)
(0.122865 1.9631e-08 0.0016125)
(0.121943 2.15574e-08 0.0016477)
(0.121001 2.26796e-08 0.00168379)
(0.120036 2.28852e-08 0.0017208)
(0.11905 2.21142e-08 0.00175874)
(0.118041 2.04029e-08 0.00179763)
(0.11701 1.80005e-08 0.0018375)
(0.115954 1.54764e-08 0.00187838)
(0.114875 1.36432e-08 0.00192029)
(0.113771 1.32282e-08 0.00196322)
(0.112641 1.45341e-08 0.00200719)
(0.111486 1.72334e-08 0.00205218)
(0.110305 2.04733e-08 0.00209821)
(0.109096 2.3226e-08 0.0021453)
(0.107861 2.46879e-08 0.00219348)
(0.106596 2.4568e-08 0.00224276)
(0.105304 2.31079e-08 0.00229314)
(0.103981 2.09112e-08 0.00234463)
(0.102629 1.86878e-08 0.00239725)
(0.101247 1.7104e-08 0.00245102)
(0.0998325 1.66223e-08 0.00250598)
(0.0983866 1.74885e-08 0.00256221)
(0.096908 1.97842e-08 0.00261974)
(0.095396 2.33687e-08 0.00267864)
(0.0938498 2.79222e-08 0.00273896)
(0.0922687 3.2843e-08 0.00280077)
(0.0906517 3.71928e-08 0.00286416)
(0.0889981 3.97569e-08 0.00292922)
(0.0873068 3.92696e-08 0.00299604)
(0.0855769 3.49065e-08 0.00306475)
(0.0838074 2.68124e-08 0.00313546)
(0.0819972 1.63654e-08 0.00320831)
(0.0801453 6.00019e-09 0.00328346)
(0.0782504 -1.56096e-09 0.00336107)
(0.0763113 -4.24315e-09 0.00344135)
(0.0743267 -1.27352e-09 0.00352451)
(0.0722951 6.77686e-09 0.00361077)
(0.0702149 1.84232e-08 0.00370037)
(0.0680846 3.18265e-08 0.00379352)
(0.0659023 4.50128e-08 0.00389047)
(0.0636665 5.59224e-08 0.00399143)
(0.0613751 6.30019e-08 0.00409661)
(0.0590263 6.59373e-08 0.0042062)
(0.0566183 6.61162e-08 0.0043203)
(0.0541493 6.54918e-08 0.00443898)
(0.0516176 6.43192e-08 0.00456218)
(0.0490217 6.03997e-08 0.00468972)
(0.0463606 5.21723e-08 0.00482123)
(0.0436336 4.29435e-08 0.00495613)
(0.0408408 4.04232e-08 0.00509353)
(0.037983 4.90732e-08 0.00523209)
(0.0350621 6.32132e-08 0.00536996)
(0.0320814 7.15053e-08 0.00550452)
(0.0290467 6.67558e-08 0.00563204)
(0.0259657 4.42094e-08 0.00574691)
(0.0228504 -9.93875e-09 0.00584076)
(0.0197173 -1.15529e-07 0.00589972)
(0.0165829 -2.85011e-07 0.00589832)
(0.0134857 -5.43681e-07 0.00581073)
(0.0104665 -9.60194e-07 0.00553555)
(0.00745101 -1.6044e-06 0.00504757)
(0.00458953 -1.40955e-06 0.004689)
(0.0017687 2.02003e-06 0.00425301)
(-0.000771323 -8.19773e-06 0.00351863)
(-0.00290697 -1.63348e-05 0.00272785)
(-0.00478044 -3.60135e-06 0.00173295)
(-0.00609426 1.93533e-07 0.000556475)
(-0.00682823 3.33002e-08 -0.000750817)
(-0.00682725 2.1572e-07 -0.0022301)
(-0.00606688 2.75691e-07 -0.00381047)
(-0.00451679 2.30982e-07 -0.00518258)
(-0.00228213 5.83289e-07 -0.00598882)
(-0.00158636 -1.9448e-07 0.0095954)
(-0.00300915 1.84401e-08 0.00744255)
(-0.0035443 3.8765e-08 0.00492496)
(-0.00318713 8.0457e-09 0.00237446)
(-0.00214498 2.54657e-08 -0.000125375)
(-0.000615149 -1.54332e-08 -0.00241748)
(0.00132047 -4.08848e-08 -0.00445382)
(0.00360615 8.75167e-10 -0.00621938)
(0.0061451 9.82875e-09 -0.00772352)
(0.00893 -1.10641e-08 -0.00893562)
(0.0119636 -1.87112e-08 -0.00989985)
(0.0152124 -1.69655e-08 -0.0106502)
(0.0186436 -2.08615e-08 -0.0112181)
(0.0222216 -2.872e-08 -0.0116328)
(0.0259112 -3.08464e-08 -0.0119171)
(0.0296805 -2.62539e-08 -0.0120905)
(0.0335008 -2.18328e-08 -0.0121693)
(0.0373465 -2.20794e-08 -0.0121678)
(0.0411955 -2.53413e-08 -0.0120984)
(0.0450285 -2.78466e-08 -0.011972)
(0.0488291 -2.79038e-08 -0.0117984)