/*--------------------------------*- C++ -*----------------------------------*\
  =========                 |
  \\      /  F ield         | OpenFOAM: The Open Source CFD Toolbox
   \\    /   O peration     | Website:  https://openfoam.org
    \\  /    A nd           | Version:  8
     \\/     M anipulation  |
\*---------------------------------------------------------------------------*/
FoamFile
{
    version     2.0;
    format      ascii;
    class       volScalarField;
    location    "2900";
    object      alphat;
}
// * * * * * * * * * * * * * * * * * * * * * * * * * * * * * * * * * * * * * //

dimensions      [1 -1 -1 0 0 0 0];

internalField   nonuniform List<scalar> 
46000
(
5.08377e-07
2.374e-06
4.59898e-06
6.70187e-06
8.69724e-06
1.06333e-05
1.25285e-05
1.43883e-05
1.62235e-05
1.80394e-05
1.98456e-05
2.16387e-05
2.34174e-05
2.51863e-05
2.69462e-05
2.86971e-05
3.04385e-05
3.21694e-05
3.38888e-05
3.55954e-05
3.72876e-05
3.89638e-05
4.06222e-05
4.2261e-05
4.38781e-05
4.54717e-05
4.70396e-05
4.85797e-05
5.00899e-05
5.1568e-05
5.3012e-05
5.44198e-05
5.57892e-05
5.71182e-05
5.84048e-05
5.96471e-05
6.08432e-05
6.19914e-05
6.30898e-05
6.4137e-05
6.51313e-05
6.60715e-05
6.69561e-05
6.77841e-05
6.85545e-05
6.92662e-05
6.99186e-05
7.0511e-05
7.1043e-05
7.15142e-05
7.19244e-05
7.22736e-05
7.25618e-05
7.27894e-05
7.29567e-05
7.30642e-05
7.31127e-05
7.31029e-05
7.30359e-05
7.29127e-05
7.27349e-05
7.25043e-05
7.22245e-05
7.18957e-05
7.15179e-05
7.10925e-05
7.0621e-05
7.01054e-05
6.95476e-05
6.89494e-05
6.83128e-05
6.76401e-05
6.69332e-05
6.61942e-05
6.54254e-05
6.46288e-05
6.38065e-05
6.29608e-05
6.20937e-05
6.12073e-05
6.03038e-05
5.93851e-05
5.84533e-05
5.75103e-05
5.65581e-05
5.55986e-05
5.46334e-05
5.36645e-05
5.26933e-05
5.17217e-05
5.07511e-05
4.9783e-05
4.88188e-05
4.78598e-05
4.69072e-05
4.59624e-05
4.50262e-05
4.40999e-05
4.31843e-05
4.22802e-05
4.13886e-05
4.051e-05
3.96452e-05
3.87947e-05
3.79591e-05
3.71388e-05
3.63341e-05
3.55454e-05
3.47729e-05
3.40168e-05
3.32773e-05
3.25544e-05
3.18482e-05
3.11587e-05
3.04858e-05
2.98293e-05
2.91892e-05
2.85653e-05
2.79573e-05
2.7365e-05
2.67881e-05
2.62263e-05
2.56793e-05
2.51467e-05
2.4628e-05
2.41231e-05
2.36313e-05
2.31522e-05
2.26855e-05
2.22306e-05
2.17871e-05
2.13546e-05
2.09324e-05
2.05202e-05
2.01175e-05
1.97237e-05
1.93383e-05
1.8961e-05
1.85911e-05
1.82281e-05
1.7872e-05
1.75225e-05
1.71788e-05
1.68404e-05
1.65067e-05
1.61774e-05
1.58521e-05
1.55304e-05
1.52118e-05
1.4896e-05
1.45826e-05
1.42714e-05
1.39619e-05
1.3654e-05
1.33473e-05
1.30416e-05
1.27367e-05
1.24323e-05
1.21284e-05
1.18246e-05
1.1521e-05
1.12173e-05
1.09135e-05
1.06096e-05
1.03071e-05
1.00049e-05
9.70273e-06
9.40042e-06
9.09805e-06
8.79566e-06
8.49334e-06
8.1912e-06
7.88935e-06
7.58791e-06
7.28703e-06
6.98684e-06
6.6875e-06
6.38915e-06
6.09194e-06
5.79601e-06
5.50148e-06
5.20849e-06
4.91711e-06
4.62741e-06
4.33937e-06
4.05236e-06
3.76742e-06
3.48416e-06
3.20188e-06
2.92069e-06
2.63987e-06
2.35864e-06
2.07593e-06
1.79235e-06
1.50615e-06
1.2132e-06
9.09862e-07
5.93934e-07
2.78435e-07
5.31383e-08
5.0841e-07
2.37413e-06
4.59913e-06
6.70203e-06
8.6974e-06
1.06335e-05
1.25287e-05
1.43885e-05
1.62237e-05
1.80395e-05
1.98458e-05
2.16389e-05
2.34175e-05
2.51864e-05
2.69463e-05
2.86972e-05
3.04386e-05
3.21695e-05
3.38889e-05
3.55955e-05
3.72876e-05
3.89638e-05
4.06223e-05
4.2261e-05
4.38782e-05
4.54717e-05
4.70396e-05
4.85797e-05
5.00899e-05
5.1568e-05
5.3012e-05
5.44198e-05
5.57892e-05
5.71182e-05
5.84048e-05
5.96471e-05
6.08432e-05
6.19913e-05
6.30898e-05
6.41369e-05
6.51313e-05
6.60714e-05
6.69561e-05
6.77841e-05
6.85544e-05
6.92662e-05
6.99186e-05
7.0511e-05
7.10429e-05
7.15141e-05
7.19243e-05
7.22735e-05
7.25617e-05
7.27893e-05
7.29566e-05
7.30641e-05
7.31126e-05
7.31028e-05
7.30358e-05
7.29126e-05
7.27348e-05
7.25042e-05
7.22244e-05
7.18955e-05
7.15178e-05
7.10923e-05
7.06209e-05
7.01053e-05
6.95474e-05
6.89492e-05
6.83127e-05
6.764e-05
6.69331e-05
6.61941e-05
6.54253e-05
6.46286e-05
6.38064e-05
6.29606e-05
6.20935e-05
6.12072e-05
6.03036e-05
5.9385e-05
5.84532e-05
5.75102e-05
5.6558e-05
5.55985e-05
5.46333e-05
5.36643e-05
5.26932e-05
5.17216e-05
5.0751e-05
4.97829e-05
4.88186e-05
4.78597e-05
4.69071e-05
4.59623e-05
4.50261e-05
4.40998e-05
4.31842e-05
4.22801e-05
4.13885e-05
4.05099e-05
3.96451e-05
3.87946e-05
3.7959e-05
3.71387e-05
3.6334e-05
3.55453e-05
3.47728e-05
3.40167e-05
3.32772e-05
3.25543e-05
3.18482e-05
3.11586e-05
3.04857e-05
2.98292e-05
2.91891e-05
2.85652e-05
2.79572e-05
2.73649e-05
2.6788e-05
2.62262e-05
2.56792e-05
2.51466e-05
2.4628e-05
2.4123e-05
2.36312e-05
2.31521e-05
2.26854e-05
2.22306e-05
2.17871e-05
2.13545e-05
2.09324e-05
2.05201e-05
2.01174e-05
1.97236e-05
1.93383e-05
1.89609e-05
1.8591e-05
1.8228e-05
1.7872e-05
1.75225e-05
1.71788e-05
1.68403e-05
1.65067e-05
1.61774e-05
1.58521e-05
1.55303e-05
1.52117e-05
1.48959e-05
1.45826e-05
1.42713e-05
1.39619e-05
1.3654e-05
1.33473e-05
1.30416e-05
1.27367e-05
1.24323e-05
1.21283e-05
1.18246e-05
1.15209e-05
1.12173e-05
1.09135e-05
1.06096e-05
1.03071e-05
1.00049e-05
9.70269e-06
9.40039e-06
9.09801e-06
8.79563e-06
8.49331e-06
8.19117e-06
7.88932e-06
7.58789e-06
7.28701e-06
6.98682e-06
6.68748e-06
6.38913e-06
6.09192e-06
5.79599e-06
5.50147e-06
5.20847e-06
4.9171e-06
4.6274e-06
4.33936e-06
4.05235e-06
3.76741e-06
3.48415e-06
3.20188e-06
2.92069e-06
2.63987e-06
2.35863e-06
2.07593e-06
1.79235e-06
1.50616e-06
1.21321e-06
9.09868e-07
5.93938e-07
2.78438e-07
5.31391e-08
2.17236e-06
3.40231e-05
6.0693e-05
7.892e-05
9.2912e-05
0.000104418
0.000114264
0.000123028
0.000131024
0.000138432
0.000145375
0.000151947
0.000158211
0.000164207
0.000169968
0.000175519
0.000180878
0.000186062
0.000191083
0.000195951
0.000200672
0.000205255
0.000209702
0.000214019
0.000218208
0.000222271
0.00022621
0.000230027
0.000233722
0.000237295
0.000240746
0.000244076
0.000247285
0.000250371
0.000253335
0.000256176
0.000258894
0.000261487
0.000263956
0.000266299
0.000268516
0.000270607
0.000272571
0.000274408
0.000276118
0.0002777
0.000279155
0.000280482
0.000281682
0.000282756
0.000283703
0.000284524
0.000285221
0.000285793
0.000286243
0.000286571
0.000286779
0.000286868
0.000286839
0.000286694
0.000286435
0.000286062
0.000285573
0.000284974
0.00028427
0.000283464
0.000282559
0.000281559
0.000280467
0.000279285
0.000278018
0.000276668
0.000275239
0.000273734
0.000272156
0.000270509
0.000268797
0.000267022
0.000265189
0.000263301
0.000261361
0.000259374
0.000257342
0.000255269
0.000253159
0.000251014
0.000248839
0.000246636
0.000244409
0.000242161
0.000239895
0.000237614
0.000235322
0.00023302
0.000230712
0.000228401
0.000226089
0.000223779
0.000221473
0.000219173
0.000216882
0.000214601
0.000212333
0.00021008
0.000207843
0.000205624
0.000203424
0.000201246
0.000199089
0.000196956
0.000194847
0.000192764
0.000190707
0.000188677
0.000186674
0.000184699
0.000182753
0.000180835
0.000178947
0.000177087
0.000175255
0.000173453
0.000171678
0.000169932
0.000168214
0.000166522
0.000164857
0.000163217
0.000161603
0.000160013
0.000158445
0.0001569
0.000155376
0.000153872
0.000152387
0.000150919
0.000149468
0.000148032
0.00014661
0.000145202
0.000143805
0.000142417
0.000141037
0.000139663
0.000138294
0.000136929
0.000135566
0.000134204
0.00013284
0.000131475
0.000130105
0.00012873
0.000127348
0.000125958
0.000124559
0.000123149
0.000121727
0.000120291
0.000118841
0.000117375
0.000115892
0.00011439
0.000112868
0.000111321
0.000109739
0.000108134
0.000106505
0.00010485
0.00010317
0.000101464
9.973e-05
9.79681e-05
9.61769e-05
9.43555e-05
9.25027e-05
9.06172e-05
8.86973e-05
8.67415e-05
8.47478e-05
8.27136e-05
8.06363e-05
7.85124e-05
7.6338e-05
7.4108e-05
7.18169e-05
6.94586e-05
6.70199e-05
6.44876e-05
6.18443e-05
5.90698e-05
5.61314e-05
5.29855e-05
4.956e-05
4.5716e-05
4.13569e-05
3.62807e-05
3.00919e-05
2.19903e-05
1.04078e-05
2.49444e-07
2.17246e-06
3.40252e-05
6.06962e-05
7.89236e-05
9.29157e-05
0.000104422
0.000114268
0.000123032
0.000131028
0.000138436
0.000145379
0.000151951
0.000158215
0.000164212
0.000169973
0.000175523
0.000180883
0.000186067
0.000191088
0.000195955
0.000200677
0.000205259
0.000209707
0.000214024
0.000218213
0.000222276
0.000226216
0.000230032
0.000233727
0.0002373
0.000240752
0.000244082
0.00024729
0.000250377
0.000253341
0.000256182
0.0002589
0.000261493
0.000263961
0.000266305
0.000268522
0.000270613
0.000272577
0.000274414
0.000276124
0.000277706
0.000279161
0.000280488
0.000281688
0.000282762
0.000283709
0.00028453
0.000285227
0.000285799
0.000286249
0.000286577
0.000286785
0.000286874
0.000286845
0.0002867
0.000286441
0.000286068
0.000285579
0.00028498
0.000284275
0.000283469
0.000282565
0.000281565
0.000280472
0.000279291
0.000278024
0.000276674
0.000275244
0.000273739
0.000272161
0.000270514
0.000268802
0.000267027
0.000265194
0.000263306
0.000261366
0.000259379
0.000257347
0.000255274
0.000253163
0.000251019
0.000248843
0.00024664
0.000244413
0.000242165
0.000239899
0.000237619
0.000235326
0.000233024
0.000230717
0.000228405
0.000226093
0.000223783
0.000221477
0.000219177
0.000216885
0.000214605
0.000212337
0.000210083
0.000207846
0.000205627
0.000203428
0.000201249
0.000199092
0.000196959
0.00019485
0.000192767
0.00019071
0.00018868
0.000186677
0.000184702
0.000182756
0.000180838
0.000178949
0.000177089
0.000175258
0.000173455
0.000171681
0.000169934
0.000168216
0.000166524
0.000164859
0.000163219
0.000161605
0.000160014
0.000158447
0.000156902
0.000155378
0.000153873
0.000152388
0.00015092
0.000149469
0.000148033
0.000146611
0.000145203
0.000143806
0.000142418
0.000141038
0.000139664
0.000138295
0.00013693
0.000135567
0.000134205
0.000132841
0.000131475
0.000130106
0.000128731
0.000127349
0.000125959
0.00012456
0.000123149
0.000121727
0.000120292
0.000118841
0.000117375
0.000115892
0.00011439
0.000112868
0.000111321
0.000109739
0.000108134
0.000106505
0.000104851
0.000103171
0.000101464
9.97303e-05
9.79684e-05
9.61772e-05
9.43558e-05
9.2503e-05
9.06174e-05
8.86976e-05
8.67418e-05
8.4748e-05
8.27139e-05
8.06365e-05
7.85127e-05
7.63382e-05
7.41083e-05
7.18172e-05
6.94588e-05
6.70201e-05
6.44879e-05
6.18446e-05
5.907e-05
5.61317e-05
5.29858e-05
4.95603e-05
4.57162e-05
4.1357e-05
3.62808e-05
3.0092e-05
2.19903e-05
1.04077e-05
2.49444e-07
4.29894e-06
5.89375e-05
0.000115293
0.000157218
0.000189603
0.000215733
0.000237669
0.000256662
0.000273514
0.000288747
0.000302713
0.000315661
0.000327768
0.000339165
0.000349948
0.000360193
0.000369959
0.000379293
0.000388233
0.000396811
0.000405051
0.000412975
0.000420599
0.000427939
0.000435007
0.000441812
0.000448364
0.000454669
0.000460735
0.000466565
0.000472166
0.00047754
0.000482692
0.000487624
0.000492339
0.000496839
0.000501126
0.000505202
0.000509069
0.000512728
0.000516181
0.000519429
0.000522474
0.000525317
0.00052796
0.000530403
0.000532649
0.000534698
0.000536553
0.000538215
0.000539686
0.000540968
0.000542062
0.000542971
0.000543697
0.000544241
0.000544606
0.000544795
0.000544809
0.00054465
0.00054432
0.000543819
0.000543148
0.000542311
0.000541316
0.000540168
0.000538872
0.000537433
0.000535855
0.000534143
0.000532301
0.000530333
0.000528243
0.000526037
0.000523718
0.000521292
0.000518762
0.000516134
0.000513413
0.000510602
0.000507706
0.000504731
0.000501681
0.000498561
0.000495376
0.000492129
0.000488827
0.000485473
0.000482071
0.000478628
0.000475146
0.000471631
0.000468086
0.000464516
0.000460925
0.000457316
0.000453695
0.000450064
0.000446427
0.000442788
0.00043915
0.000435517
0.000431892
0.000428277
0.000424675
0.00042109
0.000417523
0.000413977
0.000410454
0.000406957
0.000403487
0.000400046
0.000396635
0.000393256
0.00038991
0.000386598
0.00038332
0.000380078
0.000376872
0.000373702
0.000370569
0.000367471
0.00036441
0.000361384
0.000358394
0.000355438
0.000352515
0.000349626
0.000346768
0.00034394
0.000341141
0.000338369
0.000335623
0.000332902
0.000330202
0.000327523
0.000324863
0.000322221
0.000319594
0.000316979
0.000314373
0.000311773
0.000309177
0.000306583
0.000303988
0.00030139
0.000298787
0.000296176
0.000293554
0.000290919
0.000288269
0.000285601
0.000282913
0.000280202
0.000277466
0.000274703
0.00027191
0.000269085
0.000266226
0.000263331
0.000260396
0.000257419
0.000254396
0.000251321
0.000248183
0.00024499
0.000241742
0.000238438
0.000235076
0.000231654
0.00022817
0.000224621
0.000221004
0.000217316
0.000213553
0.00020971
0.000205783
0.000201765
0.000197649
0.000193428
0.000189093
0.000184631
0.00018003
0.000175273
0.000170341
0.000165209
0.000159845
0.000154208
0.000148247
0.000141885
0.000135025
0.000127536
0.00011922
0.000109787
9.88192e-05
8.57648e-05
6.96163e-05
4.86863e-05
2.11764e-05
5.37826e-07
4.29908e-06
5.89406e-05
0.000115299
0.000157226
0.000189611
0.000215742
0.000237678
0.000256671
0.000273522
0.000288756
0.000302721
0.000315669
0.000327777
0.000339173
0.000349956
0.000360201
0.000369967
0.000379301
0.000388241
0.000396819
0.000405059
0.000412983
0.000420608
0.000427948
0.000435015
0.000441821
0.000448372
0.000454678
0.000460743
0.000466574
0.000472175
0.000477549
0.000482701
0.000487633
0.000492347
0.000496847
0.000501134
0.00050521
0.000509077
0.000512737
0.00051619
0.000519438
0.000522483
0.000525326
0.000527968
0.000530412
0.000532657
0.000534707
0.000536562
0.000538224
0.000539695
0.000540977
0.000542071
0.000542979
0.000543705
0.000544249
0.000544615
0.000544803
0.000544817
0.000544658
0.000544328
0.000543827
0.000543156
0.000542319
0.000541324
0.000540176
0.00053888
0.000537441
0.000535863
0.000534151
0.000532308
0.00053034
0.00052825
0.000526044
0.000523725
0.000521299
0.000518769
0.000516141
0.000513419
0.000510608
0.000507713
0.000504737
0.000501687
0.000498567
0.000495382
0.000492135
0.000488832
0.000485478
0.000482077
0.000478633
0.000475151
0.000471636
0.000468091
0.000464521
0.000460929
0.000457321
0.000453699
0.000450068
0.000446431
0.000442792
0.000439155
0.000435521
0.000431895
0.00042828
0.000424679
0.000421093
0.000417526
0.00041398
0.000410458
0.00040696
0.00040349
0.000400049
0.000396638
0.000393259
0.000389913
0.0003866
0.000383323
0.000380081
0.000376874
0.000373704
0.000370571
0.000367473
0.000364412
0.000361386
0.000358395
0.000355439
0.000352517
0.000349627
0.000346769
0.000343941
0.000341142
0.00033837
0.000335624
0.000332902
0.000330203
0.000327524
0.000324864
0.000322221
0.000319595
0.00031698
0.000314374
0.000311774
0.000309177
0.000306583
0.000303988
0.000301391
0.000298787
0.000296176
0.000293554
0.000290919
0.000288269
0.000285601
0.000282913
0.000280202
0.000277466
0.000274702
0.00027191
0.000269085
0.000266226
0.00026333
0.000260396
0.000257419
0.000254396
0.00025132
0.000248183
0.00024499
0.000241742
0.000238437
0.000235075
0.000231653
0.000228169
0.00022462
0.000221003
0.000217315
0.000213552
0.00020971
0.000205782
0.000201764
0.000197649
0.000193428
0.000189092
0.000184631
0.000180029
0.000175272
0.00017034
0.000165209
0.000159845
0.000154208
0.000148246
0.000141885
0.000135025
0.000127536
0.00011922
0.000109787
9.88193e-05
8.57648e-05
6.96164e-05
4.86863e-05
2.11762e-05
5.37826e-07
6.38174e-06
7.63921e-05
0.000155448
0.000219051
0.000270118
0.000312122
0.000347615
0.00037832
0.00040541
0.000429704
0.000451781
0.000472059
0.000490848
0.000508381
0.000524835
0.000540347
0.000555027
0.000568964
0.000582226
0.000594874
0.000606953
0.000618505
0.000629562
0.000640153
0.000650301
0.000660028
0.00066935
0.000678283
0.00068684
0.000695034
0.000702873
0.000710368
0.000717525
0.000724354
0.000730859
0.000737048
0.000742926
0.000748497
0.000753767
0.000758739
0.000763419
0.000767809
0.000771915
0.00077574
0.000779286
0.000782559
0.00078556
0.000788295
0.000790765
0.000792975
0.000794928
0.000796627
0.000798077
0.000799279
0.000800239
0.000800958
0.000801441
0.000801692
0.000801712
0.000801506
0.000801075
0.000800422
0.00079955
0.000798462
0.000797167
0.000795672
0.000793983
0.000792107
0.000790049
0.000787814
0.000785408
0.000782837
0.000780105
0.00077722
0.000774186
0.000771009
0.000767695
0.000764249
0.000760678
0.000756987
0.000753181
0.000749268
0.000745252
0.00074114
0.000736937
0.000732649
0.000728282
0.000723842
0.000719334
0.000714764
0.000710138
0.000705461
0.000700739
0.000695977
0.00069118
0.000686353
0.000681501
0.00067663
0.000671743
0.000666846
0.000661943
0.000657038
0.000652136
0.000647239
0.000642352
0.000637479
0.000632623
0.000627786
0.000622973
0.000618185
0.000613425
0.000608695
0.000603998
0.000599335
0.000594707
0.000590117
0.000585565
0.000581053
0.00057658
0.000572147
0.000567755
0.000563403
0.000559092
0.00055482
0.000550587
0.000546392
0.000542233
0.000538111
0.000534022
0.000529966
0.000525941
0.000521944
0.000517973
0.000514026
0.000510101
0.000506196
0.000502308
0.000498436
0.000494574
0.000490719
0.000486868
0.000483016
0.000479162
0.000475301
0.00047143
0.000467547
0.000463647
0.000459729
0.000455787
0.00045182
0.000447823
0.000443793
0.000439728
0.000435624
0.000431478
0.000427286
0.000423046
0.000418754
0.000414408
0.000410003
0.000405536
0.000401003
0.000396398
0.000391716
0.000386948
0.000382096
0.000377157
0.000372131
0.000367014
0.000361802
0.000356491
0.000351077
0.000345552
0.000339912
0.000334148
0.000328252
0.000322213
0.000316021
0.000309662
0.000303121
0.000296378
0.000289413
0.0002822
0.000274707
0.000266896
0.000258721
0.000250121
0.00024102
0.000231323
0.000220899
0.00020958
0.000197133
0.00018324
0.000167461
0.000149172
0.000127512
0.000101211
6.85038e-05
2.87814e-05
8.36018e-07
6.3819e-06
7.63955e-05
0.000155455
0.000219061
0.000270129
0.000312135
0.000347628
0.000378332
0.000405423
0.000429717
0.000451793
0.000472071
0.00049086
0.000508393
0.000524847
0.000540359
0.00055504
0.000568976
0.000582238
0.000594886
0.000606965
0.000618517
0.000629574
0.000640165
0.000650313
0.000660039
0.000669361
0.000678295
0.000686852
0.000695045
0.000702884
0.000710379
0.000717537
0.000724365
0.000730871
0.000737059
0.000742937
0.000748508
0.000753778
0.00075875
0.00076343
0.00076782
0.000771926
0.00077575
0.000779297
0.000782569
0.000785571
0.000788305
0.000790775
0.000792985
0.000794938
0.000796638
0.000798087
0.000799289
0.000800249
0.000800968
0.000801451
0.000801701
0.000801722
0.000801515
0.000801084
0.000800431
0.000799559
0.000798471
0.000797176
0.000795681
0.000793992
0.000792115
0.000790057
0.000787822
0.000785416
0.000782844
0.000780113
0.000777228
0.000774194
0.000771017
0.000767702
0.000764257
0.000760685
0.000756994
0.000753188
0.000749274
0.000745258
0.000741146
0.000736943
0.000732655
0.000728288
0.000723847
0.000719339
0.00071477
0.000710143
0.000705466
0.000700744
0.000695982
0.000691184
0.000686357
0.000681506
0.000676634
0.000671748
0.00066685
0.000661947
0.000657042
0.000652139
0.000647242
0.000642356
0.000637482
0.000632626
0.000627789
0.000622975
0.000618187
0.000613427
0.000608697
0.000604
0.000599337
0.000594709
0.000590119
0.000585567
0.000581055
0.000576582
0.000572149
0.000567757
0.000563405
0.000559093
0.000554821
0.000550588
0.000546393
0.000542234
0.000538112
0.000534023
0.000529967
0.000525941
0.000521944
0.000517973
0.000514026
0.000510102
0.000506196
0.000502308
0.000498435
0.000494574
0.000490719
0.000486867
0.000483016
0.000479161
0.0004753
0.000471429
0.000467546
0.000463647
0.000459728
0.000455786
0.000451819
0.000447822
0.000443792
0.000439727
0.000435623
0.000431476
0.000427285
0.000423045
0.000418753
0.000414406
0.000410002
0.000405535
0.000401002
0.000396397
0.000391714
0.000386946
0.000382094
0.000377156
0.00037213
0.000367012
0.0003618
0.00035649
0.000351075
0.000345551
0.00033991
0.000334146
0.00032825
0.000322212
0.00031602
0.000309661
0.000303119
0.000296377
0.000289412
0.000282199
0.000274706
0.000266895
0.00025872
0.00025012
0.000241019
0.000231322
0.000220899
0.000209579
0.000197133
0.00018324
0.000167461
0.000149172
0.000127512
0.000101211
6.85039e-05
2.87812e-05
8.36019e-07
8.41634e-06
9.02867e-05
0.000186921
0.000268797
0.000336766
0.000393903
0.00044278
0.000485316
0.000522913
0.000556598
0.000587129
0.000615072
0.000640857
0.000664814
0.000687198
0.000708211
0.000728014
0.000746738
0.000764487
0.000781348
0.000797395
0.000812686
0.000827274
0.0008412
0.000854503
0.000867213
0.000879358
0.000890963
0.000902047
0.000912631
0.000922729
0.000932358
0.000941529
0.000950256
0.000958549
0.000966418
0.000973873
0.000980922
0.000987573
0.000993835
0.000999714
0.00100522
0.00101035
0.00101512
0.00101953
0.0010236
0.00102731
0.00103069
0.00103374
0.00103645
0.00103885
0.00104092
0.00104268
0.00104414
0.00104529
0.00104615
0.00104671
0.00104699
0.00104698
0.0010467
0.00104614
0.00104531
0.00104422
0.00104286
0.00104125
0.0010394
0.00103732
0.001035
0.00103246
0.00102971
0.00102674
0.00102358
0.00102022
0.00101667
0.00101295
0.00100904
0.00100497
0.00100074
0.000996353
0.000991819
0.000987145
0.000982337
0.000977403
0.000972349
0.000967182
0.00096191
0.000956538
0.000951075
0.000945525
0.000939898
0.000934198
0.000928432
0.000922608
0.00091673
0.000910806
0.000904842
0.000898843
0.000892815
0.000886764
0.000880696
0.000874616
0.000868528
0.000862438
0.00085635
0.000850269
0.000844199
0.000838144
0.000832108
0.000826094
0.000820106
0.000814147
0.000808218
0.000802323
0.000796464
0.000790642
0.00078486
0.000779118
0.000773418
0.00076776
0.000762144
0.000756571
0.000751041
0.000745553
0.000740107
0.000734701
0.000729335
0.000724006
0.000718714
0.000713456
0.00070823
0.000703034
0.000697865
0.000692721
0.000687599
0.000682495
0.000677408
0.000672334
0.000667269
0.000662209
0.00065715
0.000652086
0.000647014
0.00064193
0.00063683
0.00063171
0.000626566
0.000621394
0.00061619
0.00061095
0.00060567
0.000600345
0.000594973
0.000589548
0.000584068
0.000578528
0.000572924
0.000567252
0.000561509
0.00055569
0.000549791
0.000543807
0.000537733
0.000531563
0.000525291
0.000518909
0.000512415
0.000505805
0.000499076
0.000492222
0.000485238
0.000478117
0.000470851
0.000463431
0.000455848
0.00044809
0.000440143
0.000431992
0.000423619
0.000415004
0.000406122
0.000396946
0.000387442
0.00037757
0.000367282
0.000356522
0.000345217
0.00033328
0.000320599
0.000307035
0.000292405
0.000276475
0.000258935
0.000239372
0.000217233
0.000191769
0.000161968
0.000126534
8.39522e-05
3.47897e-05
1.13353e-06
8.4165e-06
9.02902e-05
0.000186929
0.000268808
0.00033678
0.000393918
0.000442796
0.000485333
0.00052293
0.000556615
0.000587145
0.000615088
0.000640873
0.00066483
0.000687214
0.000708227
0.00072803
0.000746753
0.000764502
0.000781364
0.00079741
0.000812701
0.000827289
0.000841215
0.000854518
0.000867228
0.000879373
0.000890977
0.000902062
0.000912645
0.000922744
0.000932372
0.000941543
0.00095027
0.000958563
0.000966432
0.000973887
0.000980936
0.000987587
0.000993848
0.000999727
0.00100523
0.00101036
0.00101513
0.00101955
0.00102361
0.00102733
0.0010307
0.00103375
0.00103646
0.00103886
0.00104093
0.00104269
0.00104415
0.0010453
0.00104616
0.00104672
0.001047
0.00104699
0.00104671
0.00104615
0.00104532
0.00104423
0.00104287
0.00104126
0.00103941
0.00103732
0.00103501
0.00103247
0.00102972
0.00102675
0.00102359
0.00102023
0.00101668
0.00101295
0.00100905
0.00100498
0.00100075
0.00099636
0.000991826
0.000987152
0.000982344
0.00097741
0.000972355
0.000967189
0.000961916
0.000956544
0.000951081
0.000945531
0.000939903
0.000934203
0.000928438
0.000922613
0.000916735
0.000910811
0.000904847
0.000898847
0.00089282
0.000886769
0.0008807
0.00087462
0.000868532
0.000862441
0.000856353
0.000850272
0.000844202
0.000838147
0.000832111
0.000826097
0.000820109
0.000814149
0.000808221
0.000802325
0.000796466
0.000790645
0.000784862
0.00077912
0.00077342
0.000767761
0.000762146
0.000756573
0.000751042
0.000745554
0.000740108
0.000734702
0.000729335
0.000724007
0.000718714
0.000713456
0.00070823
0.000703034
0.000697865
0.000692721
0.000687599
0.000682495
0.000677408
0.000672334
0.000667269
0.000662209
0.000657149
0.000652085
0.000647013
0.000641929
0.000636829
0.000631709
0.000626565
0.000621393
0.000616189
0.000610949
0.000605668
0.000600344
0.000594971
0.000589547
0.000584066
0.000578526
0.000572922
0.00056725
0.000561507
0.000555688
0.000549789
0.000543805
0.000537731
0.000531561
0.000525289
0.000518907
0.000512413
0.000505804
0.000499074
0.00049222
0.000485236
0.000478115
0.000470849
0.00046343
0.000455846
0.000448088
0.000440141
0.00043199
0.000423617
0.000415002
0.00040612
0.000396944
0.00038744
0.000377568
0.000367281
0.00035652
0.000345216
0.000333279
0.000320598
0.000307034
0.000292404
0.000276475
0.000258934
0.000239371
0.000217233
0.000191769
0.000161968
0.000126534
8.39523e-05
3.47895e-05
1.13353e-06
1.04343e-05
0.000102028
0.000212879
0.000310209
0.000393126
0.00046409
0.000525524
0.000579384
0.000627189
0.000670098
0.000708997
0.000744568
0.000777342
0.00080773
0.00083606
0.000862593
0.000887537
0.000911063
0.000933311
0.000954397
0.000974418
0.000993453
0.00101157
0.00102883
0.00104528
0.00106097
0.00107593
0.00109019
0.00110379
0.00111674
0.00112908
0.00114083
0.00115199
0.00116259
0.00117265
0.00118217
0.00119117
0.00119967
0.00120767
0.00121519
0.00122224
0.00122882
0.00123495
0.00124063
0.00124587
0.00125069
0.00125509
0.00125908
0.00126266
0.00126584
0.00126864
0.00127106
0.0012731
0.00127478
0.00127609
0.00127705
0.00127767
0.00127794
0.00127788
0.0012775
0.00127679
0.00127576
0.00127443
0.00127279
0.00127086
0.00126865
0.00126616
0.0012634
0.00126038
0.00125711
0.00125359
0.00124984
0.00124587
0.00124167
0.00123727
0.00123265
0.00122785
0.00122285
0.00121768
0.00121233
0.00120682
0.00120116
0.00119534
0.00118939
0.0011833
0.00117709
0.00117077
0.00116433
0.0011578
0.00115117
0.00114445
0.00113766
0.0011308
0.00112387
0.00111689
0.00110986
0.00110278
0.00109567
0.00108853
0.00108137
0.00107419
0.00106699
0.0010598
0.0010526
0.00104541
0.00103822
0.00103105
0.0010239
0.00101677
0.00100967
0.0010026
0.000995553
0.000988547
0.000981577
0.000974647
0.000967758
0.000960912
0.000954109
0.00094735
0.000940635
0.000933966
0.00092734
0.000920758
0.000914219
0.000907721
0.000901263
0.000894843
0.000888459
0.000882108
0.000875789
0.000869498
0.000863231
0.000856987
0.000850761
0.00084455
0.000838351
0.00083216
0.000825971
0.00081978
0.000813582
0.000807372
0.000801145
0.000794896
0.000788622
0.000782316
0.000775975
0.000769593
0.000763167
0.000756691
0.00075016
0.000743571
0.000736917
0.000730195
0.000723401
0.000716529
0.000709574
0.000702533
0.000695401
0.000688171
0.000680841
0.000673403
0.000665851
0.00065818
0.000650381
0.000642448
0.000634375
0.000626158
0.000617788
0.00060926
0.000600565
0.000591695
0.000582637
0.000573381
0.000563911
0.000554213
0.000544268
0.000534054
0.000523547
0.00051272
0.00050154
0.000489967
0.000477958
0.000465458
0.000452403
0.000438717
0.000424305
0.000409053
0.000392816
0.000375415
0.000356625
0.000336155
0.000313635
0.000288585
0.000260381
0.000228213
0.00019104
0.000147604
9.67124e-05
3.98784e-05
1.4304e-06
1.04345e-05
0.000102031
0.000212887
0.000310221
0.00039314
0.000464107
0.000525541
0.000579403
0.000627208
0.000670117
0.000709016
0.000744588
0.000777361
0.00080775
0.00083608
0.000862612
0.000887556
0.000911082
0.00093333
0.000954416
0.000974436
0.000993471
0.00101159
0.00102885
0.0010453
0.00106099
0.00107595
0.00109021
0.00110381
0.00111676
0.0011291
0.00114084
0.00115201
0.00116261
0.00117266
0.00118219
0.00119119
0.00119969
0.00120769
0.00121521
0.00122225
0.00122883
0.00123496
0.00124064
0.00124589
0.00125071
0.0012551
0.00125909
0.00126267
0.00126586
0.00126866
0.00127107
0.00127311
0.00127479
0.0012761
0.00127707
0.00127768
0.00127795
0.0012779
0.00127751
0.0012768
0.00127578
0.00127444
0.00127281
0.00127087
0.00126866
0.00126617
0.00126341
0.00126039
0.00125712
0.0012536
0.00124985
0.00124588
0.00124168
0.00123727
0.00123266
0.00122786
0.00122286
0.00121769
0.00121234
0.00120683
0.00120117
0.00119535
0.0011894
0.00118331
0.0011771
0.00117078
0.00116434
0.0011578
0.00115117
0.00114446
0.00113767
0.0011308
0.00112388
0.00111689
0.00110986
0.00110279
0.00109568
0.00108853
0.00108137
0.00107419
0.001067
0.0010598
0.0010526
0.00104541
0.00103823
0.00103106
0.0010239
0.00101678
0.00100967
0.0010026
0.000995556
0.00098855
0.00098158
0.00097465
0.000967761
0.000960914
0.000954111
0.000947352
0.000940637
0.000933967
0.000927342
0.000920759
0.00091422
0.000907722
0.000901264
0.000894844
0.00088846
0.000882109
0.00087579
0.000869498
0.000863232
0.000856987
0.000850762
0.000844551
0.000838351
0.00083216
0.000825971
0.00081978
0.000813582
0.000807371
0.000801144
0.000794896
0.000788621
0.000782315
0.000775974
0.000769593
0.000763166
0.00075669
0.000750159
0.000743569
0.000736916
0.000730194
0.000723399
0.000716527
0.000709573
0.000702532
0.000695399
0.00068817
0.000680839
0.000673401
0.000665849
0.000658178
0.00065038
0.000642446
0.000634374
0.000626156
0.000617786
0.000609258
0.000600564
0.000591693
0.000582635
0.000573379
0.000563909
0.000554211
0.000544266
0.000534052
0.000523546
0.000512719
0.000501538
0.000489966
0.000477956
0.000465456
0.000452402
0.000438716
0.000424304
0.000409051
0.000392815
0.000375414
0.000356624
0.000336155
0.000313635
0.000288585
0.000260381
0.000228214
0.00019104
0.000147604
9.67126e-05
3.98782e-05
1.4304e-06
1.24418e-05
0.00011237
0.000235198
0.000345787
0.000441866
0.000525289
0.000598255
0.000662684
0.000720134
0.000771845
0.000818791
0.000861741
0.000901303
0.00093796
0.000972098
0.00100403
0.00103401
0.00106225
0.00108891
0.00111415
0.00113807
0.00116078
0.00118237
0.0012029
0.00122244
0.00124105
0.00125877
0.00127564
0.00129171
0.00130699
0.00132153
0.00133534
0.00134845
0.00136089
0.00137267
0.00138381
0.00139432
0.00140423
0.00141355
0.00142229
0.00143047
0.0014381
0.00144519
0.00145175
0.00145779
0.00146333
0.00146838
0.00147294
0.00147703
0.00148066
0.00148383
0.00148656
0.00148886
0.00149072
0.00149218
0.00149322
0.00149386
0.00149411
0.00149398
0.00149348
0.0014926
0.00149137
0.00148978
0.00148785
0.00148559
0.001483
0.0014801
0.00147689
0.00147339
0.00146961
0.00146555
0.00146122
0.00145663
0.0014518
0.00144672
0.00144142
0.0014359
0.00143016
0.00142422
0.00141809
0.00141177
0.00140527
0.00139861
0.00139179
0.00138482
0.00137771
0.00137047
0.0013631
0.00135563
0.00134804
0.00134036
0.00133259
0.00132474
0.00131682