/*--------------------------------*- C++ -*----------------------------------*\
  =========                 |
  \\      /  F ield         | OpenFOAM: The Open Source CFD Toolbox
   \\    /   O peration     | Website:  https://openfoam.org
    \\  /    A nd           | Version:  8
     \\/     M anipulation  |
\*---------------------------------------------------------------------------*/
FoamFile
{
    version     2.0;
    format      ascii;
    class       volScalarField;
    location    "2900";
    object      epsilon;
}
// * * * * * * * * * * * * * * * * * * * * * * * * * * * * * * * * * * * * * //

dimensions      [0 2 -3 0 0 0 0];

internalField   nonuniform List<scalar> 
46000
(
9.23714
38.9027
75.1982
109.418
141.838
173.26
203.989
234.121
263.835
293.218
322.429
351.414
380.154
408.724
437.14
465.401
493.499
521.422
549.152
576.667
603.946
630.961
657.685
684.087
710.137
735.803
761.051
785.849
810.162
833.956
857.197
879.852
901.888
923.271
943.969
963.952
983.19
1001.65
1019.32
1036.15
1052.14
1067.25
1081.47
1094.77
1107.15
1118.58
1129.05
1138.56
1147.1
1154.66
1161.23
1166.83
1171.44
1175.08
1177.75
1179.45
1180.21
1180.02
1178.92
1176.92
1174.03
1170.3
1165.77
1160.45
1154.35
1147.48
1139.88
1131.56
1122.56
1112.92
1102.65
1091.81
1080.42
1068.51
1056.12
1043.28
1030.04
1016.41
1002.44
988.163
973.609
958.812
943.804
928.616
913.28
897.825
882.281
866.675
851.035
835.386
819.754
804.162
788.633
773.187
757.846
742.628
727.551
712.631
697.883
683.321
668.959
654.807
640.877
627.177
613.716
600.501
587.538
574.832
562.387
550.206
538.292
526.645
515.267
504.157
493.314
482.737
472.423
462.369
452.572
443.028
433.732
424.679
415.863
407.28
398.922
390.784
382.858
375.138
367.616
360.285
353.138
346.166
339.363
332.719
326.228
319.88
313.669
307.587
301.625
295.774
290.034
284.4
278.859
273.403
268.023
262.714
257.468
252.279
247.141
242.047
236.991
231.97
226.976
222.007
217.056
212.121
207.197
202.282
197.371
192.464
187.556
182.647
177.735
172.82
167.926
163.036
158.144
153.249
148.351
143.452
138.552
133.653
128.758
123.867
118.983
114.109
109.247
104.399
99.5678
94.7553
89.9637
85.195
80.4506
75.7316
71.0375
66.3583
61.7106
57.0881
52.4798
47.8869
43.2978
38.6997
34.0753
29.4335
24.7463
19.9453
14.9699
9.78162
4.59135
0.973627
9.23782
38.9049
75.2008
109.421
141.841
173.262
203.992
234.124
263.837
293.22
322.432
351.417
380.156
408.727
437.142
465.403
493.501
521.424
549.153
576.669
603.947
630.962
657.686
684.088
710.138
735.804
761.052
785.85
810.162
833.956
857.198
879.853
901.888
923.271
943.969
963.952
983.19
1001.65
1019.32
1036.15
1052.14
1067.25
1081.47
1094.77
1107.14
1118.58
1129.05
1138.56
1147.1
1154.66
1161.23
1166.83
1171.44
1175.08
1177.74
1179.45
1180.21
1180.02
1178.92
1176.91
1174.03
1170.29
1165.77
1160.45
1154.35
1147.48
1139.88
1131.56
1122.56
1112.91
1102.65
1091.81
1080.41
1068.51
1056.12
1043.28
1030.03
1016.41
1002.44
988.162
973.608
958.81
943.802
928.614
913.278
897.823
882.279
866.673
851.033
835.385
819.752
804.16
788.631
773.186
757.845
742.627
727.549
712.629
697.881
683.32
668.957
654.806
640.876
627.176
613.715
600.5
587.537
574.831
562.386
550.205
538.29
526.644
515.266
504.156
493.313
482.736
472.422
462.368
452.571
443.027
433.73
424.677
415.862
407.279
398.921
390.783
382.857
375.137
367.615
360.284
353.137
346.165
339.362
332.718
326.227
319.879
313.669
307.586
301.624
295.773
290.033
284.4
278.858
273.402
268.022
262.713
257.467
252.278
247.14
242.046
236.991
231.969
226.976
222.006
217.056
212.12
207.197
202.281
197.371
192.463
187.556
182.647
177.734
172.819
167.925
163.036
158.144
153.249
148.351
143.452
138.552
133.653
128.757
123.867
118.983
114.109
109.247
104.399
99.5675
94.755
89.9635
85.1948
80.4504
75.7314
71.0374
66.3582
61.7104
57.088
52.4797
47.8868
43.2978
38.6997
34.0753
29.4335
24.7464
19.9454
14.9699
9.78169
4.59139
0.973639
42.0885
36.0628
47.0994
60.0371
73.4341
87.0476
100.809
114.655
128.592
142.581
156.64
170.76
184.936
199.168
213.455
227.789
242.158
256.55
270.951
285.344
299.712
314.036
328.296
342.471
356.54
370.479
384.266
397.877
411.289
424.477
437.417
450.085
462.456
474.508
486.217
497.56
508.514
519.058
529.172
538.836
548.031
556.74
564.946
572.635
579.793
586.408
592.469
597.968
602.897
607.25
611.024
614.217
616.828
618.857
620.309
621.187
621.498
621.251
620.454
619.12
617.264
614.907
612.075
608.776
605.014
600.804
596.16
591.101
585.648
579.82
573.638
567.124
560.299
553.186
545.807
538.184
530.338
522.292
514.067
505.685
497.167
488.532
479.802
470.996
462.131
453.228
444.302
435.371
426.45
417.555
408.7
399.899
391.164
382.507
373.939
365.471
357.111
348.869
340.751
332.766
324.919
317.215
309.661
302.258
295.012
287.925
280.998
274.234
267.634
261.197
254.925
248.816
242.87
237.085
231.46
225.992
220.68
215.52
210.511
205.647
200.927
196.347
191.903
187.591
183.407
179.347
175.406
171.581
167.867
164.26
160.754
157.347
154.032
150.806
147.665
144.603
141.616
138.699
135.848
133.063
130.34
127.673
125.059
122.492
119.969
117.486
115.04
112.627
110.243
107.886
105.553
103.241
100.947
98.6689
96.4043
94.1511
91.9073
89.6714
87.4417
85.217
82.996
80.7781
78.563
76.352
74.1514
71.955
69.7611
67.5689
65.3782
63.1894
61.0029
58.8194
56.6397
54.4649
52.2959
50.1339
47.98
45.8355
43.7017
41.5796
39.4705
37.3754
35.2953
33.2309
31.1824
29.1493
27.1335
25.1339
23.1467
21.1782
19.2244
17.2831
15.3533
13.4397
11.5346
9.62741
7.71748
5.83793
4.20438
4.93511
42.0905
36.0621
47.0979
60.0351
73.4317
87.0447
100.806
114.652
128.588
142.577
156.635
170.755
184.93
199.163
213.449
227.782
242.151
256.543
270.943
285.336
299.704
314.027
328.287
342.462
356.53
370.468
384.255
397.866
411.277
424.464
437.404
450.071
462.443
474.494
486.203
497.545
508.499
519.043
529.157
538.821
548.015
556.724
564.93
572.618
579.776
586.391
592.452
597.95
602.879
607.233
611.007
614.199
616.81
618.84
620.291
621.169
621.48
621.233
620.436
619.102
617.247
614.889
612.057
608.758
604.997
600.786
596.143
591.084
585.631
579.803
573.621
567.108
560.283
553.171
545.792
538.168
530.323
522.277
514.052
505.671
497.153
488.519
479.789
470.982
462.118
453.215
444.289
435.359
426.438
417.544
408.689
399.888
391.153
382.496
373.929
365.461
357.101
348.859
340.742
332.757
324.91
317.207
309.652
302.25
295.004
287.917
280.991
274.227
267.627
261.191
254.918
248.81
242.864
237.079
231.454
225.986
220.674
215.515
210.505
205.642
200.923
196.343
191.898
187.586
183.403
179.342
175.402
171.577
167.863
164.256
160.751
157.343
154.029
150.803
147.662
144.6
141.613
138.696
135.845
133.06
130.337
127.671
125.056
122.49
119.967
117.484
115.038
112.625
110.241
107.885
105.552
103.239
100.945
98.6674
96.4028
94.1497
91.906
89.6701
87.4405
85.2158
82.9949
80.7771
78.562
76.351
74.1504
71.9541
69.7602
67.568
65.3774
63.1886
61.0022
58.8187
56.6391
54.4643
52.2953
50.1333
47.9795
45.835
43.7012
41.5791
39.47
37.375
35.2949
33.2305
31.182
29.149
27.1332
25.1336
23.1464
21.1779
19.2242
17.2829
15.3531
13.4396
11.5345
9.62734
7.71743
5.8379
4.20438
4.93511
81.9687
49.4214
51.0447
57.5525
65.6227
74.441
83.7045
93.2536
103.019
112.953
123.03
133.231
143.539
153.944
164.435
175
185.629
196.307
207.022
217.76
228.505
239.242
249.954
260.625
271.236
281.77
292.207
302.529
312.716
322.749
332.609
342.275
351.728
360.949
369.919
378.618
387.029
395.134
402.915
410.357
417.443
424.159
430.491
436.427
441.955
447.064
451.746
455.992
459.796
463.153
466.06
468.513
470.512
472.056
473.149
473.794
473.994
473.757
473.089
472.001
470.504
468.611
466.338
463.696
460.69
457.334
453.64
449.622
445.296
440.678
435.785
430.634
425.242
419.627
413.807
407.799
401.622
395.291
388.826
382.242
375.556
368.786
361.946
355.052
348.119
341.162
334.193
327.227
320.276
313.351
306.464
299.625
292.845
286.131
279.494
272.941
266.478
260.113
253.851
247.697
241.657
235.734
229.931
224.252
218.699
213.274
207.978
202.813
197.778
192.874
188.101
183.458
178.944
174.559
170.299
166.164
162.152
158.26
154.486
150.827
147.28
143.844
140.514
137.287
134.16
131.131
128.194
125.348
122.589
119.912
117.315
114.795
112.346
109.967
107.653
105.401
103.207
101.068
98.9824
96.9478
94.9604
93.0168
91.1138
89.2481
87.4165
85.6163
83.8447
82.0989
80.3765
78.675
76.9921
75.3256
73.6735
72.0338
70.4047
68.7845
67.1718
65.5651
63.9632
62.3651
60.77
59.1773
57.5867
55.9987
54.4147
52.8331
51.253
49.6739
48.0956
46.5182
44.9421
43.3676
41.7956
40.2266
38.6616
37.1014
35.547
33.9994
32.4596
30.9288
29.4079
27.8981
26.4002
24.9152
23.4439
21.987
20.5454
19.1198
17.7105
16.3193
14.9465
13.5954
12.2684
10.9707
9.70912
8.49556
7.36417
6.41988
6.12447
10.482
81.9715
49.4197
51.0422
57.5496
65.6196
74.4377
83.701
93.25
103.015
112.949
123.026
133.226
143.534
153.939
164.43
174.995
185.623
196.301
207.016
217.754
228.499
239.235
249.947
260.618
271.229
281.762
292.199
302.52
312.708
322.741
332.6
342.266
351.719
360.94
369.909
378.609
387.019
395.124
402.905
410.346
417.432
424.148
430.48
436.416
441.943
447.053
451.734
455.98
459.785
463.142
466.048
468.501
470.5
472.045
473.138
473.782
473.982
473.745
473.078
471.99
470.493
468.6
466.327
463.685
460.68
457.323
453.629
449.611
445.285
440.668
435.775
430.624
425.232
419.618
413.798
407.79
401.612
395.282
388.817
382.233
375.548
368.778
361.938
355.044
348.112
341.154
334.186
327.22
320.269
313.344
306.457
299.619
292.838
286.125
279.488
272.935
266.473
260.107
253.846
247.692
241.652
235.729
229.927
224.248
218.695
213.27
207.974
202.809
197.774
192.871
188.098
183.455
178.941
174.555
170.296
166.161
162.149
158.257
154.483
150.824
147.278
143.841
140.511
137.285
134.158
131.129
128.192
125.346
122.587
119.911
117.314
114.793
112.345
109.965
107.652
105.399
103.206
101.067
98.9812
96.9466
94.9593
93.0158
91.1128
89.2471
87.4156
85.6155
83.8439
82.0981
80.3758
78.6743
76.9915
75.325
73.6729
72.0332
70.4041
68.784
67.1713
65.5646
63.9628
62.3647
60.7696
59.1769
57.5864
55.9984
54.4143
52.8328
51.2528
49.6737
48.0954
46.518
44.9418
43.3674
41.7954
40.2264
38.6614
37.1012
35.5468
33.9992
32.4595
30.9287
29.4078
27.898
26.4001
24.9151
23.4438
21.9869
20.5453
19.1197
17.7104
16.3192
14.9465
13.5953
12.2684
10.9706
9.70908
8.49553
7.36415
6.41988
6.12451
10.482
120.627
64.4797
59.3575
61.989
67.1412
73.4828
80.5167
88.0044
95.8189
103.883
112.148
120.581
129.154
137.85
146.651
155.542
164.51
173.539
182.618
191.73
200.862
209.999
219.126
228.227
237.287
246.288
255.215
264.049
272.775
281.375
289.832
298.127
306.244
314.166
321.876
329.357
336.592
343.567
350.265
356.673
362.776
368.56
374.015
379.129
383.89
388.29
392.32
395.974
399.245
402.128
404.621
406.72
408.424
409.733
410.65
411.176
411.316
411.075
410.46
409.477
408.138
406.451
404.429
402.082
399.418
396.448
393.183
389.636
385.821
381.752
377.443
372.91
368.167
363.23
358.115
352.837
347.412
341.854
336.18
330.404
324.54
318.604
312.609
306.569
300.496
294.403
288.303
282.207
276.126
270.069
264.049
258.072
252.148
246.285
240.491
234.772
229.134
223.583
218.125
212.763
207.502
202.346
197.296
192.356
187.528
182.813
178.213
173.728
169.359
165.106
160.968
156.945
153.036
149.24
145.555
141.98
138.514
135.153
131.896
128.741
125.684
122.724
119.858
117.083
114.396
111.794
109.275
106.834
104.47
102.179
99.9574
97.8028
95.712
93.6818
91.709
89.7906
87.9234
86.1059
84.3355
82.6093
80.9245
79.278
77.6672
76.0892
74.5414
73.0212
71.5263
70.0543
68.6029
67.17
65.7536
64.3518
62.9626
61.5845
60.2158
58.8551
57.5009
56.1521
54.8077
53.4666
52.1281
50.7917
49.4571
48.1243
46.7935
45.4642
44.1359
42.8082
41.4811
40.1545
38.8289
37.5045
36.182
34.8619
33.5451
32.2322
30.9242
29.622
28.3266
27.039
25.7603
24.4915
23.2338
21.9882
20.7558
19.5378
18.3355
17.1505
15.9842
14.8391
13.7179
12.6247
11.565
10.5485
9.59018
8.71805
7.99524
7.59839
8.27399
16.1391
120.63
64.4776
59.3546
61.9858
67.1379
73.4794
80.5131
88.0008
95.8151
103.879
112.144
120.576
129.15
137.845
146.646
155.537
164.505
173.534
182.612
191.725
200.857
209.994
219.12
228.221
237.281
246.282
255.208
264.043
272.769
281.368
289.825
298.12
306.237
314.159
321.869
329.349
336.585
343.559
350.257
356.665
362.767
368.552
374.007
379.12
383.882
388.282
392.312
395.966
399.237
402.12
404.612
406.711
408.415
409.725
410.642
411.168
411.308
411.067
410.451
409.469
408.129
406.443
404.421
402.074
399.41
396.44
393.176
389.629
385.814
381.745
377.436
372.903
368.16
363.224
358.109
352.831
347.406
341.848
336.174
330.398
324.535
318.599
312.604
306.563
300.491
294.398
288.298
282.202
276.121
270.065
264.044
258.068
252.144
246.282
240.487
234.768
229.131
223.58
218.122
212.76
207.499
202.343
197.293
192.353
187.525
182.811
178.211
173.726
169.357
165.103
160.966
156.943
153.034
149.238
145.553
141.978
138.512
135.151
131.894
128.739
125.683
122.723
119.857
117.082
114.395
111.793
109.274
106.833
104.469
102.178
99.9565
97.802
95.7112
93.681
91.7083
89.7899
87.9228
86.1053
84.3349
82.6087
80.9239
79.2775
77.6667
76.0887
74.541
73.0208
71.5259
70.0539
68.6026
67.1697
65.7533
64.3515
62.9624
61.5843
60.2156
58.8549
57.5007
56.152
54.8075
53.4664
52.128
50.7916
49.457
48.1242
46.7934
45.4641
44.1358
42.8082
41.481
40.1545
38.8288
37.5045
36.182
34.8619
33.545
32.2321
30.9241
29.622
28.3266
27.039
25.7603
24.4915
23.2338
21.9881
20.7557
19.5378
18.3355
17.1505
15.9842
14.8391
13.7179
12.6246
11.565
10.5485
9.59017
8.71803
7.99524
7.59841
8.27406
16.1392
158.201
80.0255
69.108
68.7143
71.7492
76.4041
81.9935
88.1918
94.822
101.777
108.988
116.406
123.997
131.734
139.594
147.558
155.61
163.734
171.913
180.134
188.382
196.642
204.898
213.136
221.341
229.496
237.587
245.597
253.511
261.311
268.983
276.51
283.875
291.064
298.06
304.849
311.414
317.742
323.819
329.631
335.165
340.41
345.354
349.986
354.297
358.278
361.922
365.222
368.173
370.769
373.008
374.888
376.407
377.565
378.364
378.806
378.894
378.634
378.031
377.092
375.825
374.239
372.345
370.15
367.665
364.899
361.862
358.568
355.028
351.255
347.263
343.064
338.674
334.106
329.374
324.493
319.477
314.34
309.096
303.759
298.342
292.858
287.321
281.742
276.134
270.509
264.877
259.249
253.635
248.045
242.488
236.972
231.506
226.096
220.75
215.473
210.273
205.153
200.118
195.173
190.322
185.567
180.912
176.358
171.908
167.563
163.324
159.192
155.168
151.25
147.44
143.736
140.138
136.644
133.254
129.965
126.777
123.687
120.693
117.793
114.986
112.267
109.636
107.089
104.623
102.237
99.927
97.6904
95.5243
93.4261
91.3928
89.4215
87.5094
85.6535
83.8511
82.0991
80.3956
78.7385
77.125
75.5525
74.0183
72.5198
71.0544
69.6196
68.213
66.8323
65.4752
64.1396
62.8233
61.5245
60.2412
58.9717
57.7142
56.4673
55.2294
53.9991
52.7753
51.5568
50.3425
49.1318
47.9238
46.718
45.514
44.3116
43.1109
41.9114
40.713
39.5153
38.3183
37.1221
35.9269
34.7331
33.5411
32.3516
31.1652
29.9827
28.8048
27.6324
26.4666
25.3083
24.1585
23.0185
21.8894
20.7724
19.6691
18.5808
17.5094
16.457
15.4261
14.4199
13.4428
12.5006
11.6019
10.76
9.99678
9.35356
8.92119
8.94705
10.4612
21.744
158.204
80.0229
69.1048
68.7109
71.7458
76.4006
81.9899
88.1882
94.8183
101.773
108.984
116.402
123.993
131.73
139.59
147.554
155.606
163.729
171.909
180.13
188.377
196.637
204.893
213.131
221.335
229.491
237.582
245.592
253.505
261.305
268.977
276.504
283.869
291.058
298.054
304.842
311.408
317.736
323.812
329.624
335.159
340.403
345.347
349.979
354.29
358.271
361.915
365.215
368.166
370.762
373.001
374.881
376.4
377.558
378.357
378.799
378.888
378.628
378.025
377.086
375.819
374.233
372.338
370.144
367.659
364.893
361.857
358.563
355.023
351.25
347.257
343.059
338.669
334.101
329.369
324.488
319.472
314.336
309.092
303.755
298.338
292.854
287.317
281.738
276.131
270.505
264.873
259.245
253.632
248.042
242.485
236.969
231.503
226.093
220.747
215.471
210.27
205.15
200.116
195.171
190.32
185.565
180.91
176.356
171.906
167.561
163.322
159.191
155.166
151.249
147.438
143.734
140.136
136.643
133.252
129.964
126.776
123.686
120.692
117.792
114.985
112.266
109.635
107.088
104.623
102.236
99.9262
97.6896
95.5237
93.4255
91.3922
89.4209
87.5088
85.653
83.8506
82.0986
80.3952
78.738
77.1246
75.5521
74.0179
72.5195
71.0541
69.6193
68.2128
66.8321
65.475
64.1393
62.8231
61.5243
60.241
58.9715
57.7141
56.4672
55.2293
53.999
52.7752
51.5567
50.3425
49.1317
47.9237
46.7179
45.5139
44.3116
43.1109
41.9114
40.713
39.5153
38.3183
37.1221
35.9269
34.7331
33.5412
32.3516
31.1652
29.9827
28.8048
27.6324
26.4666
25.3083
24.1585
23.0185
21.8894
20.7725
19.6691
18.5808
17.5094
16.457
15.4261
14.4199
13.4428
12.5006
11.6019
10.7599
9.99677
9.35355
8.92119
8.94707
10.4613
21.7441
195.342
95.9434
79.638
76.5995
77.9002
81.2447
85.7611
91.0366
96.8456
103.052
109.568
116.331
123.297
130.432
137.707
145.101
152.593
160.164
167.798
175.479
183.191
190.919
198.647
206.361
214.045
221.684
229.262
236.765
244.176
251.48
258.663
265.708
272.601
279.326
285.868
292.214
298.349
304.26
309.933
315.356
320.517
325.404
330.008
334.318
338.325
342.022
345.401
348.456
351.183
353.576
355.633
357.352
358.732
359.773
360.477
360.844
360.88
360.588
359.973
359.042
357.803
356.263
354.431
352.316
349.928
347.275
344.368
341.218
337.837
334.236
330.43
326.429
322.247
317.898
313.395
308.751
303.98
299.094
294.108
289.033
283.883
278.67
273.406
268.103
262.773
257.425
252.071
246.721
241.384
236.069
230.785
225.54
220.342
215.197
210.112
205.094
200.146
195.275
190.485
185.781
181.164
176.639
172.208
167.874
163.638
159.502
155.466
151.532
147.7
143.97
140.341
136.814
133.387
130.06
126.831
123.699
120.662
117.719
114.868
112.106
109.432
106.843
104.337
101.911
99.5637
97.2915
95.0921
92.9629
90.9011
88.904
86.969
85.0933
83.2742
81.5089
79.7948
78.1293
76.5107
74.9364
73.4039
71.9107
70.4541
69.0317
67.6411
66.28
64.9461
63.6371
62.351
61.0858
59.8394
58.61
57.3958
56.1951
55.0065
53.8283
52.6591
51.4978
50.3431
49.1941
48.0496
46.909
45.7716
44.6369
43.5044
42.3738
41.245
40.1179
38.9922
37.8676
36.7443
35.6223
34.5017
33.383
32.2665
31.1528
30.0426
28.9363
27.835
26.7394
25.6504
24.569
23.4964
22.4337
21.3822
20.3434
19.3189
18.3106
17.3206
16.3516
15.407
14.4909
13.6089
12.7688
11.9817
11.2649
10.647
10.1815
9.98455
10.3745
12.6625
27.314
195.345
95.9404
79.6345
76.5959
77.8967
81.2411
85.7575
91.0329
96.8419
103.048
109.564
116.327
123.293
130.427
137.703
145.097
152.588
160.16
167.794
175.475
183.187
190.914
198.643
206.356
214.04
221.679
229.257
236.759
244.17
251.475
258.657
265.702
272.595
279.32
285.863
292.208
298.344
304.254
309.927
315.35
320.511
325.398
330.002
334.312
338.319
342.016
345.395
348.45
351.177
353.57
355.627
357.346
358.727
359.768
360.471
360.839
360.874
360.582
359.967
359.037
357.797
356.257
354.426
352.311
349.923
347.27
344.363
341.213
337.832
334.232
330.425
326.424
322.243
317.894
313.391
308.747
303.976
299.091
294.104
289.03
283.88
278.667
273.403
268.1
262.77
257.422
252.068
246.718
241.381
236.066
230.783
225.538
220.34
215.195
210.11
205.091
200.144
195.273
190.484
185.779
181.162
176.637
172.207
167.873
163.637
159.5
155.465
151.531
147.699
143.969
140.34
136.813
133.386
130.059
126.83
123.698
120.661
117.718
114.867
112.105
109.431
106.842
104.336
101.911
99.563
97.2909
95.0915
92.9623
90.9005
88.9035
86.9685
85.0928
83.2737
81.5085
79.7943
78.1289
76.5103
74.9361
73.4036
71.9103
70.4538
69.0314
67.6409
66.2798
64.9459
63.6369
62.3509
61.0856
59.8392
58.6098
57.3956
56.195
55.0064
53.8282
52.659
51.4977
50.3431
49.194
48.0496
46.909
45.7716
44.6369
43.5043
42.3738
41.245
40.1179
38.9922
37.8676
36.7443
35.6223
34.5017
33.383
32.2665
31.1529
30.0426
28.9364
27.835
26.7394
25.6504
24.569
23.4964
22.4337
21.3823
20.3435
19.3189
18.3106
17.3206
16.3516
15.407
14.4909
13.6089
12.7688
11.9817
11.2649
10.647
10.1815
9.98455
10.3746
12.6627
27.314
232.186
112.21
90.7391
85.2595
85.0402
87.2885
90.9443
95.5066
100.702
106.366
112.391
118.703
125.247
131.983
138.877
145.903
153.036
160.257
167.547
174.887
182.261
189.653
197.047
204.428
211.78
219.088
226.336
233.509
240.593
247.572
254.431
261.155
267.73
274.142
280.376
286.418
292.255
297.874
303.264
308.411
313.304
317.934
322.29
326.364
330.146
333.629
336.807
339.675
342.227
344.46
346.371
347.958
349.22
350.159
350.775
351.07
351.047
350.711
350.068
349.122
347.881
346.352
344.544
342.466
340.125
337.532
334.696
331.628
328.339
324.84
321.144
317.263
313.208
308.994
304.631
300.134
295.515
290.786
285.96
281.049
276.066
271.022
265.928
260.797
255.638
250.463
245.281
240.102
234.936
229.79
224.674
219.594
214.558
209.574
204.647
199.782
194.986
190.263
185.618
181.054
176.575
172.184
167.883
163.675
159.561
155.543
151.622
147.799
144.074
140.447
136.919
133.488
130.154
126.916
123.773
120.724
117.767
114.9
112.123
109.432
106.826
104.302
101.859
99.4942
97.2049
94.9887
92.8432
90.7659
88.7541
86.8053
84.9168
83.086
81.3103
79.5871
77.9137
76.2884
74.7087
73.1724
71.6767
70.2193
68.7977
67.4096
66.0527
64.7246
63.4234
62.1467
60.8927
59.6593
58.4446
57.247
56.0646
54.8959
53.7394
52.5937
51.4574
50.3294
49.2084
48.0937
46.9842
45.8791
44.778
43.6801
42.5852
41.4929
40.403
39.3154
38.2299
37.1464
36.0647
34.9852
33.9078
32.833
31.761
30.6925
29.6279
28.568
27.5133
26.4648
25.4233
24.3899
23.3657
22.3518
21.3498
20.3612
19.3878
18.4318
17.4958
16.583
15.6975
14.8442
14.0302
13.2648
12.5618
11.9422
11.4412
11.1243
11.1327
11.8551
14.8826
32.8802
232.189
112.206
90.7355
85.2559
85.0366
87.2849
90.9407
95.5029
100.698
106.362
112.387
118.699
125.243
131.979
138.873
145.899
153.032
160.253
167.542
174.882
182.257
189.649
197.043
204.423
211.775
219.083
226.331
233.504
240.588
247.567
254.426
261.15
267.725
274.137
280.37
286.412
292.25
297.869
303.258
308.405
313.299
317.929
322.285
326.358
330.14
333.624
336.802
339.669
342.222
344.454
346.365
347.953
349.215
350.154
350.77
351.065
351.042
350.707
350.063
349.117
347.876
346.347
344.54
342.461
340.121
337.527
334.692
331.624
328.335
324.836
321.14
317.259
313.205
308.99
304.628
300.131
295.512
290.783
285.957
281.046
276.063
271.019
265.925
260.794
255.635
250.46
245.279
240.1
234.933
229.788
224.671
219.592
214.556
209.572
204.645
199.78
194.985
190.262
185.616
181.053
176.573
172.182
167.881
163.673
159.56
155.542
151.621
147.798
144.073
140.446
136.918
133.487
130.153
126.915
123.772
120.723
117.766
114.899
112.122
109.431
106.825
104.302
101.859
99.4936
97.2042
94.9881
92.8427
90.7653
88.7536
86.8048
84.9163
83.0856
81.3099
79.5867
77.9133
76.288
74.7084
73.172
71.6764
70.219
68.7974
67.4093
66.0524
64.7244
63.4232
62.1465
60.8925
59.6591
58.4445
57.2468
56.0645
54.8958
53.7393
52.5936
51.4573
50.3293
49.2084
48.0936
46.9841
45.8791
44.7779
43.6801
42.5852
41.4929
40.403
39.3154
38.2299
37.1464
36.0647
34.9851
33.9078
32.833
31.761
30.6925
29.6279
28.568
27.5133
26.4648
25.4234
24.3899
23.3657
22.3519
21.3498
20.3612
19.3878
18.4318
17.4958
16.583
15.6975
14.8442
14.0302
13.2648
12.5618
11.9422
11.4412
11.1243
11.1327
11.8551
14.8828
32.8803
268.921
128.841
102.327
94.5386
92.9336
94.222
97.1534
101.138
105.853
111.107
116.774
122.766
129.02
135.487
142.131
148.918
155.823
162.822
169.895
177.022
184.184
191.366
198.549
205.719
212.858
219.952
226.986
233.943
240.809
247.569
254.208
260.712
267.067
273.258
279.272
285.096
290.717
296.122
301.3
306.24
310.931
315.363
319.527
323.414
327.017
330.328
333.342
336.054
338.46
340.555
342.339
343.808
344.964
345.806
346.335
346.555
346.468
346.079
345.392
344.413
343.15
341.608
339.797
337.725
335.4
332.83
330.027
327
323.759
320.317
316.684
312.871
308.892
304.758
300.481
296.073
291.547
286.915
282.189
277.38
272.5
267.561
262.574
257.549
252.497
247.429
242.353
237.279
232.217
227.174
222.159
217.179
212.24
207.351
202.516
197.742
193.033
188.395
183.832
179.347
174.944
170.626
166.395
162.255
158.205
154.249
150.387
146.619
142.947
139.371
135.89
132.504
129.213
126.016
122.911
119.897
116.974
114.139
111.391
108.727
106.147
103.648
101.227
98.8834
96.6135
94.4155
92.2869
90.2252
88.2279
86.2925
84.4165
82.5972
80.8323
79.119
77.4552
75.8391
74.268
72.7396
71.2514
69.801
68.3861
67.0044
65.6537
64.3317
63.0364
61.7658
60.5178
59.2905
58.0823
56.8913
55.716
54.5547
53.4061
52.2688
51.1416
50.0232
48.9127
47.8091
46.7115
45.6194
44.5319
43.4487
42.3693
41.2934
40.2209
39.1516
38.0852
37.0218
35.9614
34.9039
33.8495
32.7986
31.7515
30.7086
29.6704
28.6375
27.6106
26.5906
25.5781
24.5743
23.5803
22.5974
21.6271
20.671
19.7313
18.8103
17.9112
17.0374
16.1938
15.3863
14.623
13.9149
13.2783
12.738
12.3358
12.149
12.3451
13.3831
17.1377
38.4915
268.924
128.838
102.323
94.5349
92.9299
94.2184
97.1497
101.134
105.85
111.104
116.77
122.762
129.016
135.483
142.127
148.914
155.819
162.818
169.891
177.017
184.18
191.361
198.545
205.714
212.854
219.948
226.981
233.938
240.804
247.564
254.203
260.707
267.062
273.253
279.267
285.091
290.712
296.117
301.295
306.235
310.926
315.358
319.522
323.409
327.012
330.323
333.337
336.049
338.455
340.551
342.334
343.804
344.959
345.801
346.331
346.551
346.464
346.074
345.387
344.409
343.145
341.604
339.793
337.721
335.396
332.827
330.023
326.996
323.756
320.313
316.68
312.868
308.889
304.755
300.478
296.07
291.544
286.912
282.186
277.377
272.497
267.558
262.571
257.546
252.495
247.426
242.351
237.277
232.215
227.172
222.157
217.177
212.239
207.349
202.515
197.74
193.032
188.394
183.83
179.346
174.943
170.625
166.394
162.253
158.204
154.248
150.386
146.618
142.946
139.37
135.889
132.503
129.212
126.015
122.91
119.896
116.973
114.138
111.39
108.727
106.147
103.647
101.227
98.8828
96.6129
94.4149
92.2863
90.2246
88.2274
86.292
84.416
82.5968
80.8319
79.1186
77.4549
75.8387
74.2676
72.7392
71.2511
69.8007
68.3858
67.0042
65.6534
64.3315
63.0362
61.7656
60.5176
59.2904
58.0821
56.8912
55.7158
54.5546
53.406
52.2687
51.1415
50.0231
48.9126
47.809
46.7115
45.6193
44.5318
43.4486
42.3692
41.2934
40.2208
39.1515
38.0852
37.0218
35.9613
34.9038
33.8495
32.7986
31.7515
30.7086
29.6704
28.6375
27.6106
26.5906
25.5781
24.5743
23.5803
22.5974
21.6271
20.671
19.7313
18.8103
17.9112
17.0374
16.1938
15.3863
14.623
13.9149
13.2783
12.738
12.3358
12.149
12.3451
13.3831
17.1379
38.4916
305.838
145.935
114.409
104.383
101.478
101.898
104.198
107.699
112.029
116.967
122.369
128.133
134.189
140.481
146.965
153.605
160.373
167.241
174.186
181.189
188.228
195.285
202.344
209.386
216.396
223.358
230.256
237.074
243.797
250.411
256.901
263.253
269.452
275.486
281.34
287.003
292.461
297.703
302.719
307.496
312.026
316.298
320.305
324.038
327.49
330.655
333.528
336.104
338.379
340.35
342.015
343.375
344.427
345.173
345.615
345.755
345.597
345.144
344.402
343.376
342.074
340.501
338.667
336.578
334.244
331.672
328.874
325.858
322.635
319.216
315.612
311.834
307.893
303.802
299.571
295.214
290.741
286.164
281.495
276.746
271.927
267.049
262.124
257.162
252.173
247.166
242.152
237.138
232.135
227.15
222.191
217.265
212.38
207.541
202.755
198.027
193.362
188.765
184.241
179.793
175.424
171.138
166.937
162.823
158.798
154.864
151.022
147.272
143.616
140.053
136.583
133.207
129.923
126.732
123.631
120.62
117.698
114.862
112.112
109.446
106.862
104.357
101.93
99.5784
97.3003
95.0931
92.9546
90.8824
88.8739
86.9267
85.0384
83.2065
81.4285
79.7018
78.0248
76.3951
74.8103
73.2679
71.7657
70.3012
68.8721
67.4763
66.1115
64.7757
63.4668
62.1827
60.9216
59.6817
58.4612
57.2585
56.0719
54.9001
53.7416
52.5951
51.4594
50.3335
49.2164
48.1071
47.0049
45.9091
44.819
43.7344
42.6546
41.5795
40.5089
39.4426
38.3805
37.3225
36.2685
35.2187
34.1731
33.1321
32.0959
31.0649
30.0395
29.0204
28.0081
27.0034
26.0071
25.0202
24.0439
23.0795
22.1285
21.1929
20.2748
19.3769
18.5027
17.6561
16.8426
16.0689
15.3443
14.6814
14.099
13.6257
13.3096
13.2404
13.6124
14.9554
19.4298
44.1336
305.84
145.93
114.405
104.379
101.474
101.894
104.194
107.695
112.025
116.963
122.365
128.129
134.185
140.477
146.961
153.601
160.368
167.237
174.182
181.184
188.223
195.281
202.339
209.382
216.392
223.353
230.251
237.069
243.792
250.406
256.896
263.248
269.447
275.481
281.335
286.998
292.456
297.699
302.714
307.491
312.021
316.293
320.3
324.033
327.485
330.651
333.523
336.099
338.374
340.345
342.011
343.37
344.423
345.169
345.611
345.751
345.592
345.14
344.398
343.372
342.07
340.497
338.663
336.574
334.24
331.669
328.87
325.855
322.632
319.213
315.609
311.831
307.89
303.799
299.569
295.211
290.738
286.162
281.493
276.743
271.924
267.047
262.122
257.16
252.17
247.164
242.15
237.136
232.133
227.148
222.189
217.264
212.378
207.539
202.753
198.025
193.36
188.764
184.24
179.791
175.423
171.136
166.935
162.821
158.797
154.863
151.02
147.271
143.615
140.052
136.582
133.206
129.922
126.731
123.63
120.619
117.697
114.861
112.112
109.445
106.861
104.356
101.929
99.5778
97.2997
95.0926
92.9541
90.8818
88.8734
86.9262
85.038
83.2061
81.428
79.7014
78.0244
76.3947
74.8099
73.2676
71.7653
70.3008
68.8718
67.476
66.1113
64.7755
63.4665
62.1825
60.9214
59.6815
58.461
57.2583
56.0718
54.8999
53.7414
52.5949
51.4593
50.3334
49.2163
48.107
47.0048
45.909
44.819
43.7343
42.6545
41.5795
40.5089
39.4426
38.3805
37.3224
36.2685
35.2186
34.1731
33.1321
32.0958
31.0648
30.0395
29.0204
28.0081
27.0034
26.0071
25.0202
24.0439
23.0795
22.1285
21.1929
20.2748
19.3769
18.5027
17.6561
16.8426
16.0689
15.3443
14.6814
14.099
13.6257
13.3096
13.2404
13.6124
14.9554
19.43
44.1337
343.131
163.511
127.004
114.782
110.632
110.248
111.985
115.071
119.087
123.779
128.986
134.594
140.522
146.707
153.101
159.664
166.362
173.167
180.053
186.998
193.979
200.978
207.975
214.953
221.895
228.784
235.605
242.34
248.976
255.497
261.889
268.138
274.229
280.15
285.887
291.429
296.763
301.878
306.764
311.41
315.807
319.946
323.819
327.419
330.739
333.775
336.52
338.971
341.125
342.979
344.531
345.783
346.732
347.381
347.732
347.787
347.549
347.024
346.216
345.131
343.775
342.156
340.281
338.158
335.796
333.202
330.387
327.359
324.13
320.71
317.109
313.338
309.409
305.332
301.12
296.783
292.333
287.782
283.14
278.418
273.628
268.78
263.885
258.953
253.993
249.016
244.03
239.044
234.068
229.108
224.172
219.268
214.402
209.581
204.811
200.097
195.444
190.858
186.341
181.898
177.533
173.248
169.045
164.929
160.899
156.958
153.107
149.346
145.677
142.1
138.615
135.221
131.919
128.707