/*--------------------------------*- C++ -*----------------------------------*\
  =========                 |
  \\      /  F ield         | OpenFOAM: The Open Source CFD Toolbox
   \\    /   O peration     | Website:  https://openfoam.org
    \\  /    A nd           | Version:  8
     \\/     M anipulation  |
\*---------------------------------------------------------------------------*/
FoamFile
{
    version     2.0;
    format      ascii;
    class       volScalarField;
    location    "2900";
    object      k;
}
// * * * * * * * * * * * * * * * * * * * * * * * * * * * * * * * * * * * * * //

dimensions      [0 2 -2 0 0 0 0];

internalField   nonuniform List<scalar> 
46000
(
0.00734081
0.0325078
0.062832
0.0914209
0.118506
0.144757
0.170429
0.195602
0.220426
0.244973
0.269377
0.293592
0.317602
0.341471
0.36521
0.38882
0.412293
0.435621
0.458786
0.481774
0.504563
0.527132
0.549457
0.571514
0.593276
0.614718
0.635811
0.656527
0.676838
0.696716
0.716132
0.735058
0.753466
0.77133
0.788621
0.805315
0.821387
0.836812
0.851568
0.865632
0.878986
0.89161
0.903487
0.914602
0.92494
0.93449
0.943242
0.951187
0.958319
0.964633
0.970128
0.974802
0.978657
0.981696
0.983925
0.985351
0.985982
0.985832
0.984911
0.983236
0.980827
0.977709
0.973929
0.96949
0.964395
0.958659
0.952305
0.945358
0.937843
0.929786
0.921215
0.912157
0.902641
0.892694
0.882346
0.871625
0.860559
0.849178
0.837511
0.825584
0.813427
0.801067
0.78853
0.775844
0.763033
0.750123
0.737138
0.724102
0.711037
0.697965
0.684906
0.671881
0.658908
0.646005
0.633189
0.620476
0.60788
0.595416
0.583095
0.57093
0.558931
0.547108
0.53547
0.524025
0.512778
0.501737
0.490907
0.480291
0.469893
0.459715
0.449761
0.44003
0.430523
0.42124
0.41218
0.403341
0.394723
0.386322
0.378136
0.37016
0.362392
0.354827
0.34746
0.340287
0.333303
0.326502
0.319878
0.313426
0.30714
0.301014
0.29504
0.289214
0.283527
0.277975
0.272549
0.267244
0.262054
0.25697
0.251987
0.247096
0.242299
0.23759
0.232959
0.228398
0.223902
0.219465
0.21508
0.210743
0.206449
0.202191
0.197967
0.19377
0.189597
0.185444
0.181307
0.177183
0.173068
0.16896
0.164857
0.160757
0.156656
0.152555
0.14845
0.144344
0.140255
0.13617
0.132083
0.127994
0.123903
0.11981
0.115717
0.111625
0.107536
0.10345
0.0993715
0.0953005
0.0912394
0.0871904
0.0831553
0.0791359
0.0751342
0.0711515
0.0671892
0.0632481
0.0593279
0.05542
0.0515385
0.0476781
0.0438295
0.0399937
0.0361612
0.032321
0.0284589
0.0245823
0.0206677
0.016658
0.0125026
0.00816953
0.00383475
0.000771874
0.00734133
0.0325095
0.0628342
0.0914232
0.118509
0.144759
0.170432
0.195604
0.220428
0.244975
0.269379
0.293594
0.317604
0.341472
0.365211
0.388821
0.412295
0.435622
0.458788
0.481775
0.504564
0.527133
0.549458
0.571515
0.593277
0.614719
0.635811
0.656527
0.676838
0.696716
0.716132
0.735058
0.753467
0.77133
0.788621
0.805315
0.821387
0.836812
0.851567
0.865632
0.878986
0.891609
0.903486
0.914601
0.924939
0.934489
0.943241
0.951186
0.958318
0.964633
0.970127
0.974801
0.978656
0.981695
0.983924
0.985349
0.985981
0.98583
0.98491
0.983235
0.980826
0.977708
0.973927
0.969489
0.964393
0.958657
0.952304
0.945356
0.937841
0.929785
0.921214
0.912156
0.90264
0.892693
0.882344
0.871623
0.860558
0.849177
0.837509
0.825583
0.813426
0.801065
0.788529
0.775842
0.763031
0.750122
0.737137
0.724101
0.711036
0.697963
0.684905
0.67188
0.658907
0.646004
0.633188
0.620475
0.607879
0.595415
0.583094
0.570929
0.55893
0.547107
0.535469
0.524023
0.512777
0.501736
0.490906
0.48029
0.469892
0.459714
0.44976
0.440028
0.430521
0.421238
0.412179
0.40334
0.394722
0.386321
0.378135
0.370159
0.362391
0.354826
0.347459
0.340286
0.333302
0.326501
0.319877
0.313425
0.307139
0.301013
0.295039
0.289213
0.283526
0.277974
0.272549
0.267244
0.262053
0.256969
0.251986
0.247095
0.242298
0.237589
0.232958
0.228397
0.223901
0.219464
0.215079
0.210743
0.206448
0.202191
0.197966
0.193769
0.189596
0.185443
0.181306
0.177182
0.173067
0.16896
0.164857
0.160756
0.156656
0.152554
0.14845
0.144343
0.140255
0.13617
0.132083
0.127994
0.123902
0.119809
0.115716
0.111625
0.107535
0.10345
0.0993711
0.0953002
0.0912391
0.0871901
0.083155
0.0791357
0.075134
0.0711513
0.067189
0.063248
0.0593277
0.0554199
0.0515384
0.047678
0.0438294
0.0399937
0.0361611
0.032321
0.0284589
0.0245823
0.0206678
0.0166581
0.0125027
0.00816959
0.00383478
0.000771885
0.0322198
0.11794
0.179911
0.231517
0.277719
0.320446
0.360648
0.399008
0.435994
0.471814
0.506695
0.540787
0.574191
0.606988
0.639235
0.670972
0.702223
0.733004
0.763325
0.793185
0.822581
0.851505
0.879944
0.907884
0.935308
0.962195
0.988527
1.01428
1.03943
1.06395
1.08783
1.11103
1.13353
1.1553
1.17633
1.19658
1.21604
1.23469
1.25249
1.26944
1.28551
1.30068
1.31495
1.32829
1.34069
1.35215
1.36265
1.37218
1.38074
1.38833
1.39495
1.40059
1.40526
1.40896
1.41171
1.4135
1.41435
1.41427
1.41328
1.41139
1.40862
1.405
1.40056
1.3953
1.38926
1.38244
1.37489
1.36661
1.35765
1.34803
1.33778
1.32692
1.31551
1.30355
1.29109
1.27816
1.2648
1.25102
1.23687
1.22238
1.20757
1.19249
1.17716
1.16161
1.14587
1.12997
1.11394
1.09781
1.0816
1.06534
1.04906
1.03277
1.0165
1.00028
0.984121
0.968044
0.952069
0.936214
0.920495
0.904927
0.889524
0.874301
0.859268
0.844437
0.829818
0.815419
0.801249
0.787315
0.773622
0.760176
0.74698
0.734039
0.721353
0.708925
0.696755
0.684844
0.673191
0.661793
0.65065
0.639758
0.629114
0.618715
0.608555
0.59863
0.588934
0.579462
0.570207
0.561163
0.552323
0.54368
0.535226
0.526954
0.518855
0.510922
0.503145
0.495517
0.488029
0.480671
0.473435
0.466322
0.45932
0.452419
0.445609
0.43888
0.432225
0.425634
0.419099
0.412612
0.406166
0.399752
0.393364
0.386993
0.380633
0.374277
0.36792
0.361555
0.355176
0.348778
0.342357
0.335907
0.329425
0.322906
0.316347
0.309745
0.303097
0.296409
0.289673
0.282888
0.276052
0.269163
0.262222
0.255227
0.248179
0.241077
0.233922
0.226714
0.219452
0.212138
0.20477
0.197348
0.189871
0.182336
0.17474
0.167079
0.159347
0.151534
0.14363
0.135619
0.12747
0.119181
0.110708
0.102003
0.092997
0.0835836
0.0736664
0.0630534
0.0514316
0.038257
0.0223492
0.0037511
0.0322214
0.117942
0.179912
0.231518
0.27772
0.320447
0.360649
0.399008
0.435994
0.471813
0.506695
0.540787
0.57419
0.606987
0.639234
0.67097
0.702221
0.733003
0.763323
0.793183
0.822579
0.851502
0.879941
0.907881
0.935305
0.962193
0.988524
1.01428
1.03943
1.06395
1.08782
1.11102
1.13352
1.1553
1.17632
1.19658
1.21604
1.23468
1.25249
1.26943
1.2855
1.30068
1.31494
1.32828
1.34069
1.35214
1.36264
1.37217
1.38074
1.38833
1.39494
1.40058
1.40525
1.40896
1.4117
1.41349
1.41434
1.41426
1.41327
1.41138
1.40862
1.405
1.40055
1.3953
1.38925
1.38244
1.37488
1.36661
1.35764
1.34802
1.33777
1.32692
1.3155
1.30355
1.29109
1.27816
1.26479
1.25101
1.23686
1.22237
1.20757
1.19248
1.17715
1.1616
1.14586
1.12997
1.11394
1.09781
1.0816
1.06534
1.04905
1.03277
1.0165
1.00028
0.984116
0.968039
0.952064
0.936209
0.92049
0.904922
0.88952
0.874296
0.859263
0.844432
0.829813
0.815415
0.801245
0.787311
0.773618
0.760172
0.746976
0.734035
0.721349
0.708921
0.696751
0.68484
0.673187
0.66179
0.650646
0.639755
0.629111
0.618711
0.608551
0.598626
0.588931
0.579458
0.570204
0.56116
0.55232
0.543677
0.535223
0.526951
0.518852
0.510919
0.503142
0.495514
0.488026
0.480668
0.473432
0.46632
0.459318
0.452416
0.445606
0.438878
0.432222
0.425631
0.419097
0.41261
0.406164
0.39975
0.393361
0.386991
0.380631
0.374276
0.367918
0.361553
0.355174
0.348777
0.342355
0.335906
0.329423
0.322904
0.316346
0.309743
0.303096
0.296407
0.289672
0.282887
0.276051
0.269162
0.262221
0.255226
0.248177
0.241076
0.233921
0.226713
0.219451
0.212137
0.204769
0.197347
0.18987
0.182335
0.174739
0.167078
0.159346
0.151533
0.14363
0.135618
0.12747
0.119181
0.110707
0.102003
0.0929967
0.0835834
0.0736662
0.0630532
0.0514315
0.0382569
0.0223491
0.0037511
0.0630831
0.181328
0.257672
0.319417
0.374471
0.425344
0.473318
0.519076
0.563115
0.605752
0.647218
0.687684
0.72727
0.76607
0.804151
0.841562
0.878337
0.914498
0.950057
0.98502
1.01939
1.05315
1.08629
1.11881
1.15069
1.1819
1.21243
1.24224
1.27133
1.29966
1.32721
1.35395
1.37985
1.4049
1.42906
1.45232
1.47464
1.49601
1.5164
1.5358
1.55417
1.57151
1.5878
1.60302
1.61716
1.63021
1.64216
1.653
1.66273
1.67135
1.67885
1.68523
1.69051
1.69468
1.69775
1.69973
1.70064
1.70049
1.6993
1.69708
1.69386
1.68966
1.6845
1.67841
1.67142
1.66354
1.65481
1.64526
1.63491
1.6238
1.61197
1.59945
1.58626
1.57246
1.55807
1.54313
1.52768
1.51175
1.49538
1.4786
1.46146
1.44398
1.4262
1.40816
1.38989
1.37142
1.35279
1.33402
1.31516
1.29622
1.27723
1.25823
1.23924
1.22029
1.20139
1.18258
1.16388
1.1453
1.12686
1.10859
1.09049
1.0726
1.05491
1.03745
1.02022
1.00325
0.986524
0.970068
0.953884
0.937981
0.922362
0.907033
0.891996
0.877254
0.862809
0.848661
0.83481
0.821254
0.807992
0.795021
0.782337
0.769937
0.757816
0.745968
0.734387
0.723067
0.712001
0.701182
0.690601
0.680251
0.670122
0.660206
0.650494
0.640976
0.631642
0.622482
0.613485
0.604643
0.595951
0.5874
0.578977
0.570671
0.562471
0.554366
0.546347
0.538402
0.530522
0.522697
0.514917
0.507173
0.499456
0.491757
0.484068
0.47638
0.468686
0.460978
0.45325
0.445494
0.437705
0.429876
0.422002
0.414079
0.406102
0.398067
0.389971
0.381814
0.373592
0.365301
0.356939
0.348505
0.339996
0.331411
0.322751
0.314014
0.305199
0.296306
0.287334
0.278283
0.26915
0.259936
0.250636
0.241248
0.231766
0.222185
0.212497
0.20269
0.192749
0.182657
0.172387
0.161911
0.151181
0.14015
0.128742
0.116847
0.104308
0.0909181
0.0762823
0.0595796
0.0383918
0.00800712
0.0630852
0.18133
0.257672
0.319417
0.374471
0.425343
0.473317
0.519074
0.563113
0.60575
0.647216
0.687681
0.727267
0.766067
0.804148
0.841559
0.878334
0.914494
0.950053
0.985016
1.01938
1.05314
1.08629
1.11881
1.15068
1.18189
1.21242
1.24224
1.27132
1.29965
1.3272
1.35394
1.37985
1.40489
1.42906
1.45231
1.47464
1.49601
1.5164
1.53579
1.55416
1.5715
1.58779
1.60301
1.61715
1.6302
1.64215
1.65299
1.66272
1.67134
1.67884
1.68522
1.6905
1.69467
1.69774
1.69973
1.70064
1.70049
1.69929
1.69707
1.69385
1.68965
1.68449
1.67841
1.67141
1.66353
1.6548
1.64525
1.6349
1.6238
1.61196
1.59944
1.58626
1.57245
1.55806
1.54312
1.52767
1.51174
1.49537
1.47859
1.46145
1.44397
1.42619
1.40815
1.38988
1.37141
1.35278
1.33402
1.31515
1.29621
1.27723
1.25823
1.23924
1.22028
1.20139
1.18258
1.16387
1.14529
1.12685
1.10858
1.09049
1.07259
1.05491
1.03744
1.02022
1.00324
0.986519
0.970062
0.953879
0.937976
0.922357
0.907028
0.891991
0.877249
0.862804
0.848656
0.834805
0.821249
0.807987
0.795016
0.782333
0.769933
0.757812
0.745964
0.734383
0.723063
0.711997
0.701178
0.690597
0.680247
0.670119
0.660203
0.650491
0.640972
0.631638
0.622478
0.613482
0.60464
0.595948
0.587397
0.578974
0.570668
0.562468
0.554364
0.546344
0.538399
0.530519
0.522694
0.514914
0.507171
0.499454
0.491755
0.484066
0.476378
0.468684
0.460976
0.453248
0.445492
0.437703
0.429874
0.422
0.414077
0.4061
0.398065
0.389969
0.381812
0.37359
0.365299
0.356938
0.348503
0.339994
0.33141
0.32275
0.314012
0.305198
0.296305
0.287333
0.278282
0.269149
0.259935
0.250635
0.241247
0.231765
0.222185
0.212496
0.202689
0.192749
0.182657
0.172387
0.16191
0.15118
0.14015
0.128742
0.116847
0.104308
0.0909179
0.0762822
0.0595796
0.0383918
0.00800712
0.0931031
0.235498
0.322274
0.390892
0.451676
0.507859
0.56094
0.611709
0.660663
0.708129
0.754339
0.79946
0.843617
0.886901
0.92938
0.971103
1.0121
1.0524
1.09202
1.13095
1.16919
1.20674
1.24359
1.27972
1.31512
1.34975
1.3836
1.41665
1.44887
1.48023
1.51071
1.54027
1.5689
1.59656
1.62323
1.64887
1.67348
1.69701
1.71946
1.74079
1.76099
1.78003
1.79791
1.8146
1.8301
1.84439
1.85746
1.8693
1.87991
1.8893
1.89745
1.90437
1.91006
1.91454
1.91781
1.91988
1.92076
1.92047
1.91904
1.91648
1.91281
1.90806
1.90225
1.89542
1.88758
1.87877
1.86902
1.85836
1.84682
1.83445
1.82127
1.80733
1.79266
1.7773
1.76129
1.74466
1.72747
1.70975
1.69153
1.67286
1.65378
1.63433
1.61454
1.59445
1.5741
1.55352
1.53276
1.51185
1.49081
1.46969
1.44852
1.42732
1.40612
1.38496
1.36385
1.34284
1.32193
1.30116
1.28054
1.2601
1.23986
1.21982
1.20002
1.18046
1.16116
1.14213
1.12338
1.10492
1.08677
1.06892
1.05139
1.03417
1.01728
1.00072
0.984484
0.968579
0.953004
0.937757
0.922836
0.908239
0.893963
0.880002
0.866352
0.853007
0.83996
0.827205
0.814734
0.802538
0.79061
0.778939
0.767516
0.756332
0.745375
0.734637
0.724104
0.713767
0.703613
0.693638
0.683831
0.67418
0.664671
0.655294
0.646036
0.636885
0.62783
0.618859
0.60996
0.601124
0.592338
0.583593
0.574878
0.566183
0.557499
0.548817
0.540127
0.531422
0.522693
0.513933
0.505135
0.496292
0.487399
0.478449
0.469438
0.460362
0.451217
0.442
0.432708
0.423337
0.413884
0.404347
0.394723
0.385012
0.375212
0.365321
0.355338
0.345263
0.335095
0.324831
0.31447
0.30401
0.293448
0.282779
0.271999
0.2611
0.250074
0.238908
0.227589
0.216095
0.204404
0.192481
0.180285
0.16776
0.154825
0.141375
0.127245
0.112186
0.0957319
0.076793
0.0519505
0.0123677
0.0931053
0.235499
0.322273
0.390891
0.451675
0.507857
0.560938
0.611707
0.660661
0.708126
0.754336
0.799457
0.843614
0.886898
0.929377
0.9711
1.0121
1.0524
1.09201
1.13094
1.16919
1.20674
1.24359
1.27972
1.31511
1.34975
1.3836
1.41665
1.44887
1.48023
1.5107
1.54027
1.56889
1.59655
1.62322
1.64887
1.67347
1.69701
1.71945
1.74078
1.76098
1.78003
1.7979
1.8146
1.83009
1.84438
1.85745
1.86929
1.87991
1.88929
1.89744
1.90436
1.91006
1.91453
1.9178
1.91987
1.92075
1.92047
1.91903
1.91647
1.9128
1.90805
1.90224
1.89541
1.88757
1.87876
1.86901
1.85835
1.84682
1.83444
1.82126
1.80732
1.79265
1.77729
1.76128
1.74466
1.72746
1.70974
1.69152
1.67286
1.65377
1.63432
1.61453
1.59444
1.57409
1.55352
1.53276
1.51184
1.49081
1.46969
1.44851
1.42731
1.40611
1.38495
1.36385
1.34283
1.32193
1.30115
1.28054
1.2601
1.23985
1.21982
1.20001
1.18045
1.16115
1.14212
1.12337
1.10492
1.08676
1.06891
1.05138
1.03417
1.01728
1.00071
0.98448
0.968575
0.952999
0.937752
0.922832
0.908235
0.893959
0.879998
0.866348
0.853003
0.839957
0.827202
0.814731
0.802535
0.790606
0.778935
0.767513
0.756329
0.745372
0.734633
0.724101
0.713764
0.70361
0.693636
0.683828
0.674177
0.664669
0.655292
0.646034
0.636883
0.627828
0.618857
0.609958
0.601121
0.592336
0.583591
0.574876
0.566181
0.557497
0.548815
0.540125
0.53142
0.522691
0.513932
0.505134
0.496291
0.487397
0.478448
0.469437
0.460361
0.451215
0.441999
0.432707
0.423336
0.413883
0.404346
0.394722
0.385011
0.375211
0.36532
0.355337
0.345262
0.335094
0.32483
0.314469
0.304009
0.293447
0.282779
0.271998
0.2611
0.250073
0.238908
0.227588
0.216095
0.204403
0.192481
0.180285
0.16776
0.154825
0.141374
0.127245
0.112186
0.095732
0.0767931
0.0519506
0.0123677
0.12233
0.284965
0.381005
0.455545
0.520979
0.581367
0.638456
0.693146
0.74597
0.797266
0.847268
0.896142
0.944006
0.99095
1.03704
1.08231
1.1268
1.17053
1.21351
1.25574
1.29721
1.33793
1.37786
1.417
1.45533
1.49282
1.52945
1.56518
1.60001
1.63389
1.66679
1.69869
1.72957
1.75938
1.7881
1.81572
1.84219
1.86749
1.8916
1.9145
1.93617
1.95659
1.97573
1.99359
2.01016
2.02541
2.03935
2.05196
2.06324
2.07319
2.08181
2.0891
2.09507
2.09973
2.10309
2.10515
2.10594
2.10547
2.10377
2.10085
2.09674
2.09146
2.08505
2.07753
2.06893
2.05928
2.04862
2.03698
2.0244
2.01092
1.99657
1.98139
1.96543
1.94873
1.93132
1.91326
1.89457
1.87531
1.85552
1.83524
1.81451
1.79338
1.77188
1.75005
1.72794
1.70558
1.68302
1.66029
1.63742
1.61446
1.59143
1.56837
1.54532
1.52229
1.49933
1.47645
1.45369
1.43108
1.40862
1.38636
1.3643
1.34247
1.32088
1.29955
1.2785
1.25775
1.23729
1.21715
1.19733
1.17785
1.1587
1.1399
1.12144
1.10335
1.0856
1.06821
1.05118
1.03451
1.01819
1.00222
0.986594
0.971314
0.956371
0.941759
0.927472
0.913502
0.89984
0.886477
0.873405
0.860614
0.848093
0.835832
0.823819
0.812042
0.800491
0.789152
0.778018
0.767079
0.756322
0.745735
0.735303
0.725014
0.714856
0.704814
0.694878
0.685033
0.675269
0.665573
0.655933
0.646339
0.636778
0.627241
0.617716
0.608195
0.598667
0.589123
0.579555
0.569954
0.560314
0.550626
0.540885
0.531085
0.521219
0.511284
0.501275
0.49119
0.481023
0.470771
0.460431
0.45
0.439476
0.428856
0.418138
0.407322
0.396405
0.385386
0.374264
0.363036
0.351699
0.340252
0.328691
0.317012
0.305208
0.293272
0.281196
0.268968
0.256573
0.243992
0.231201
0.218168
0.204852
0.191195
0.17712
0.162513
0.147194
0.130866
0.112977
0.0921672
0.0641613
0.016698
0.122332
0.284966
0.381004
0.455543
0.520977
0.581364
0.638453
0.693144
0.745967
0.797263
0.847265
0.896138
0.944003
0.990946
1.03703
1.0823
1.1268
1.17053
1.21351
1.25573
1.29721
1.33792
1.37786
1.417
1.45533
1.49281
1.52944
1.56518
1.6
1.63388
1.66678
1.69869
1.72956
1.75937
1.7881
1.81571
1.84218
1.86748
1.8916
1.9145
1.93617
1.95658
1.97573
1.99359
2.01015
2.0254
2.03934
2.05195
2.06323
2.07318
2.0818
2.0891
2.09507
2.09973
2.10308
2.10515
2.10594
2.10547
2.10376
2.10084
2.09673
2.09145
2.08504
2.07752
2.06892
2.05927
2.04861
2.03698
2.0244
2.01091
1.99656
1.98139
1.96543
1.94872
1.93132
1.91325
1.89457
1.87531
1.85552
1.83524
1.81451
1.79337
1.77187
1.75004
1.72793
1.70558
1.68301
1.66028
1.63742
1.61445
1.59142
1.56837
1.54531
1.52229
1.49932
1.47645
1.45369
1.43107
1.40862
1.38635
1.36429
1.34246
1.32087
1.29955
1.2785
1.25774
1.23729
1.21714
1.19733
1.17784
1.15869
1.13989
1.12144
1.10334
1.0856
1.06821
1.05118
1.0345
1.01818
1.00221
0.986591
0.971311
0.956368
0.941756
0.927469
0.913498
0.899837
0.886474
0.873403
0.860611
0.84809
0.835829
0.823816
0.81204
0.800488
0.78915
0.778016
0.767077
0.75632
0.745732
0.735301
0.725012
0.714853
0.704812
0.694876
0.685031
0.675267
0.665571
0.655932
0.646337
0.636777
0.627239
0.617715
0.608193
0.598665
0.589121
0.579553
0.569953
0.560313
0.550625
0.540884
0.531084
0.521218
0.511283
0.501274
0.491189
0.481022
0.47077
0.46043
0.449999
0.439475
0.428855
0.418138
0.407321
0.396405
0.385386
0.374263
0.363035
0.351699
0.340252
0.328691
0.317011
0.305207
0.293272
0.281196
0.268968
0.256572
0.243991
0.2312
0.218168
0.204851
0.191195
0.17712
0.162513
0.147194
0.130866
0.112977
0.0921674
0.0641614
0.0166981
0.151252
0.331468
0.436201
0.516384
0.586183
0.650368
0.710989
0.769083
0.825244
0.879838
0.933109
0.985222
1.03629
1.08641
1.13563
1.18399
1.23153
1.27825
1.32417
1.36927
1.41357
1.45703
1.49965
1.54141
1.58229
1.62225
1.66128
1.69934
1.7364
1.77244
1.80742
1.84132
1.87411
1.90574
1.93621
1.96547
1.9935
2.02028
2.04577
2.06997
2.09284
2.11437
2.13453
2.15333
2.17073
2.18674
2.20135
2.21454
2.22631
2.23667
2.24562
2.25315
2.25928
2.26402
2.26737
2.26935
2.26999
2.26929
2.26728
2.26398
2.25942
2.25362
2.24663
2.23846
2.22915
2.21872
2.20723
2.1947
2.18118
2.16669
2.15129
2.13502
2.11791
2.10002
2.08138
2.06204
2.04205
2.02144
2.00027
1.97858
1.95641
1.9338
1.91081
1.88747
1.86383
1.83992
1.81579
1.79148
1.76702
1.74245
1.71782
1.69315
1.66847
1.64383
1.61925
1.59476
1.57039
1.54616
1.52211
1.49825
1.47461
1.45121
1.42807
1.4052
1.38263
1.36036
1.33841
1.31679
1.29552
1.2746
1.25403
1.23384
1.21401
1.19456
1.17548
1.15679
1.13847
1.12054
1.10298
1.08579
1.06897
1.05252
1.03643
1.02069
1.00529
0.990239
0.975512
0.961106
0.94701
0.933214
0.919706
0.906476
0.893511
0.880799
0.868328
0.856086
0.844066
0.832254
0.820636
0.809198
0.797928
0.786811
0.775833
0.764982
0.754243
0.743604
0.733052
0.722574
0.712157
0.70179
0.691461
0.681159
0.670872
0.66059
0.650304
0.640003
0.629678
0.619322
0.608925
0.598482
0.587984
0.577425
0.566801
0.556105
0.545334
0.534483
0.523549
0.512526
0.501413
0.490204
0.478899
0.467493
0.455985
0.444373
0.432655
0.420828
0.40889
0.39684
0.384673
0.372388
0.359979
0.347442
0.334772
0.32196
0.308998
0.295875
0.282575
0.269081
0.255369
0.241408
0.227156
0.212557
0.197528
0.181947
0.165617
0.148193
0.129005
0.106451
0.0755216
0.0210072
0.151254
0.331469
0.436199
0.516382
0.58618
0.650366
0.710986
0.76908
0.825241
0.879835
0.933106
0.985218
1.03629
1.08641
1.13563
1.18399
1.23153
1.27825
1.32416
1.36927
1.41356
1.45703
1.49965
1.54141
1.58228
1.62225
1.66127
1.69933
1.7364
1.77243
1.80742
1.84132
1.8741
1.90574
1.9362
1.96546
1.99349
2.02027
2.04577
2.06996
2.09283
2.11436
2.13453
2.15332
2.17073
2.18674
2.20134
2.21453
2.22631
2.23667
2.24561
2.25314
2.25927
2.26401
2.26736
2.26935
2.26998
2.26928
2.26727
2.26397
2.25941
2.25362
2.24662
2.23845
2.22914
2.21872
2.20723
2.1947
2.18117
2.16669
2.15129
2.13501
2.11791
2.10001
2.08137
2.06203
2.04204
2.02143
2.00026
1.97857
1.9564
1.9338
1.91081
1.88747
1.86382
1.83991
1.81578
1.79147
1.76701
1.74245
1.71781
1.69314
1.66847
1.64382
1.61924
1.59475
1.57038
1.54616
1.52211
1.49825
1.47461
1.45121
1.42807
1.4052
1.38262
1.36035
1.33841
1.31679
1.29552
1.27459
1.25403
1.23383
1.21401
1.19456
1.17548
1.15679
1.13847
1.12053
1.10297
1.08579
1.06897
1.05252
1.03642
1.02068
1.00529
0.990236
0.97551
0.961104
0.947008
0.933211
0.919704
0.906473
0.893508
0.880797
0.868326
0.856084
0.844064
0.832252
0.820634
0.809196
0.797926
0.786809
0.775831
0.76498
0.754242
0.743603
0.73305
0.722572
0.712156
0.701789
0.69146
0.681157
0.670871
0.660589
0.650302
0.640001
0.629677
0.619321
0.608924
0.59848
0.587983
0.577424
0.5668
0.556104
0.545333
0.534482
0.523548
0.512526
0.501412
0.490204
0.478898
0.467492
0.455985
0.444373
0.432654
0.420827
0.40889
0.396839
0.384673
0.372387
0.359979
0.347442
0.334771
0.32196
0.308998
0.295874
0.282575
0.269081
0.255369
0.241408
0.227156
0.212557
0.197528
0.181947
0.165617
0.148193
0.129005
0.106451
0.0755218
0.0210073
0.17997
0.375997
0.489157
0.574897
0.649003
0.716866
0.780837
0.842106
0.901343
0.958955
1.0152
1.07026
1.12424
1.17724
1.2293
1.28046
1.33075
1.38018
1.42875
1.47645
1.52329
1.56923
1.61427
1.65837
1.70152
1.74369
1.78485
1.82497
1.86401
1.90195
1.93876
1.9744
2.00884
2.04206
2.07402
2.10469
2.13405
2.16207
2.18872
2.21399
2.23786
2.26029
2.28129
2.30083
2.3189
2.33549
2.3506
2.36421
2.37634
2.38697
2.39611
2.40377
2.40996
2.41468
2.41795
2.41978
2.4202
2.41922
2.41687
2.41317
2.40814
2.40183
2.39426
2.38546
2.37546
2.36431
2.35203
2.33867
2.32427
2.30887
2.29251
2.27523
2.25709
2.23811
2.21836
2.19788
2.17671
2.1549
2.13249
2.10954
2.08609
2.06218
2.03786
2.01317
1.98817
1.96288
1.93736
1.91165
1.88578
1.85979
1.83373
1.80762
1.78152
1.75544
1.72942
1.70349
1.67769
1.65204
1.62656
1.60128
1.57624
1.55143
1.5269
1.50265
1.47871
1.45509
1.4318
1.40886
1.38628
1.36406
1.34222
1.32076
1.29969
1.27902
1.25874
1.23885
1.21937
1.20028
1.18159
1.16329
1.14538
1.12785
1.1107
1.09392
1.07751
1.06145
1.04574
1.03036
1.01532
1.00059
0.986158
0.972023
0.958168
0.94458
0.931246
0.918157
0.905302
0.892666
0.880235
0.867994
0.85593
0.844028
0.832274
0.820654
0.809154
0.79776
0.786459
0.775237
0.764082
0.752981
0.741922
0.730893
0.719883
0.708882
0.697877
0.686861
0.675824
0.664756
0.65365
0.642498
0.631293
0.620029
0.608699
0.597299
0.585823
0.574268
0.562629
0.550902
0.539082
0.527167
0.515154
0.503038
0.490818
0.478491
0.466054
0.453505
0.44084
0.428057
0.415152
0.402122
0.388961
0.375665
0.362228
0.348641
0.334896
0.320981
0.306882
0.292581
0.278055
0.263273
0.248191
0.232752
0.216866
0.200399
0.183131
0.164669
0.144233
0.120002
0.0863088
0.0253177
0.179972
0.375997
0.489155
0.574895
0.649
0.716863
0.780834
0.842102
0.90134
0.958952
1.0152
1.07026
1.12424
1.17723
1.22929
1.28046
1.33075
1.38018
1.42874
1.47645
1.52328
1.56923
1.61426
1.65837
1.70152
1.74369
1.78485
1.82496
1.86401
1.90195
1.93876
1.9744
2.00884
2.04206
2.07401
2.10468
2.13404
2.16206
2.18872
2.21399
2.23785
2.26029
2.28128
2.30082
2.31889
2.33548
2.35059
2.36421
2.37633
2.38696
2.39611
2.40377
2.40995
2.41468
2.41794
2.41978
2.4202
2.41922
2.41686
2.41316
2.40814
2.40183
2.39425
2.38545
2.37546
2.3643
2.35203
2.33867
2.32427
2.30886
2.2925
2.27523
2.25708
2.23811
2.21836
2.19787
2.1767
2.15489
2.13249
2.10954
2.08608
2.06217
2.03785
2.01317
1.98816
1.96288
1.93736
1.91164
1.88577
1.85979
1.83372
1.80762
1.78151
1.75543
1.72941
1.70349
1.67768
1.65203
1.62655
1.60128
1.57623
1.55143
1.5269
1.50265
1.47871
1.45509
1.4318
1.40886
1.38627
1.36406
1.34222
1.32076
1.29969
1.27901
1.25873
1.23885
1.21936
1.20028
1.18158
1.16328
1.14537
1.12785
1.1107
1.09392
1.07751
1.06145
1.04574
1.03036
1.01532
1.00058
0.986156
0.972021
0.958166
0.944578
0.931244
0.918156
0.9053
0.892664
0.880233
0.867993
0.855929
0.844027
0.832273
0.820653
0.809152
0.797759
0.786457
0.775236
0.764081
0.75298
0.741921
0.730892
0.719882
0.70888
0.697876
0.68686
0.675823
0.664755
0.653649
0.642497
0.631292
0.620028
0.608698
0.597298
0.585822
0.574267
0.562628
0.550901
0.539082
0.527167
0.515153
0.503038
0.490818
0.478491
0.466054
0.453504
0.44084
0.428057
0.415152
0.402121
0.388961
0.375665
0.362227
0.348641
0.334895
0.32098
0.306882
0.292581
0.278055
0.263272
0.248191
0.232751
0.216866
0.200399
0.183131
0.164669
0.144233
0.120002
0.0863091
0.0253178
0.208626
0.419263
0.540612
0.631947
0.710405
0.78196
0.849248
0.913617
0.975823
1.03632
1.09539
1.15323
1.20995
1.26565
1.32037
1.37415
1.42701
1.47896
1.52999
1.58011
1.62929
1.67752
1.72478
1.77103
1.81627
1.86045
1.90354
1.94552
1.98635
2.026
2.06443
2.10162
2.13753
2.17213
2.20539
2.23729
2.26778
2.29686
2.3245
2.35067
2.37535
2.39853
2.42019
2.44031
2.4589
2.47593
2.4914
2.50531
2.51766
2.52845
2.53768
2.54537
2.55152
2.55614
2.55925
2.56087
2.56101
2.55971
2.55697
2.55284
2.54734
2.54049
2.53234
2.52292
2.51226
2.50039
2.48737
2.47322
2.45799
2.44173
2.42447
2.40626
2.38716
2.36719
2.34642
2.32489
2.30265
2.27974
2.25621
2.23212
2.2075
2.18241
2.1569
2.131
2.10476
2.07824
2.05147
2.02449
1.99735
1.97008
1.94273
1.91534
1.88794
1.86056
1.83325
1.80603
1.77893
1.75198
1.72522
1.69866
1.67233
1.64626
1.62046
1.59496
1.56977
1.54491
1.5204
1.49624
1.47246
1.44905
1.42604
1.40342
1.3812
1.35939
1.338
1.31701
1.29644
1.27628
1.25653
1.23719
1.21825
1.19972
1.18157
1.16382
1.14644
1.12943
1.11279
1.09649
1.08054
1.06491
1.04961
1.0346
1.01989
1.00546
0.991299
0.977393
0.963729
0.950295
0.937074
0.924053
0.911217
0.89855
0.886038
0.873667
0.861423
0.849291
0.837256
0.825307
0.813429
0.80161
0.789837
0.778099
0.766383
0.754678
0.742975
0.731263
0.719533
0.707775
0.695982
0.684146
0.67226
0.660318
0.648312
0.636239
0.624092
0.611868
0.599562
0.58717
0.574687
0.56211
0.549434
0.536657
0.523775
0.510785
0.497684
0.484468
0.471134
0.457678
0.444095
0.430382
0.416533
0.402543
0.388404
0.374108
0.359647
0.345008
0.330177
0.315136
0.299862
0.284322
0.268471
0.252247
0.235552
0.218239
0.20006
0.180575
0.158905
0.133012
0.0966646
0.0296665
0.208628
0.419263
0.54061
0.631944
0.710402
0.781957
0.849245
0.913614
0.97582
1.03632
1.09539
1.15323
1.20995
1.26565
1.32037
1.37414
1.427
1.47895
1.52999
1.5801
1.62928
1.67751
1.72477
1.77103
1.81626
1.86044
1.90354
1.94552
1.98635
2.02599
2.06443
2.10161
2.13752
2.17212
2.20539
2.23728
2.26778
2.29686
2.32449
2.35066
2.37534
2.39852
2.42018
2.44031
2.45889
2.47592
2.49139
2.5053
2.51765
2.52844
2.53768
2.54537
2.55151
2.55614
2.55925
2.56087
2.56101
2.5597
2.55697
2.55283
2.54733
2.54049
2.53234
2.52291
2.51225
2.50039
2.48736
2.47322
2.45799
2.44172
2.42446
2.40626
2.38715
2.36719
2.34642
2.32489
2.30264
2.27973
2.25621
2.23211
2.2075
2.18241
2.15689
2.13099
2.10476
2.07823
2.05146
2.02448
1.99734
1.97008
1.94273
1.91534
1.88794
1.86056
1.83325
1.80602
1.77892
1.75198
1.72521
1.69866
1.67233
1.64626
1.62046
1.59496
1.56977
1.54491
1.5204
1.49624
1.47246
1.44905
1.42604
1.40342
1.3812
1.35939
1.33799
1.31701
1.29644
1.27628
1.25653
1.23719
1.21825
1.19971
1.18157
1.16381
1.14644
1.12943
1.11278
1.09649
1.08054
1.06491
1.0496
1.0346
1.01989
1.00546
0.991297
0.977391
0.963728
0.950293
0.937073
0.924052
0.911215
0.898548
0.886037
0.873666
0.861422
0.849289
0.837255
0.825306
0.813428
0.801609
0.789836
0.778098
0.766382
0.754677
0.742974
0.731262
0.719532
0.707774
0.695982
0.684146
0.67226
0.660317
0.648312
0.636238
0.624092
0.611868
0.599562
0.58717
0.574687
0.562109
0.549433
0.536656
0.523774
0.510785
0.497683
0.484467
0.471133
0.457677
0.444095
0.430382
0.416533
0.402543
0.388403
0.374108
0.359646
0.345008
0.330177
0.315136
0.299862
0.284322
0.268471
0.252247
0.235552
0.218239
0.200061
0.180575
0.158905
0.133013
0.096665
0.0296665
0.237444
0.461831
0.591174
0.688143
0.771039
0.846358
0.917009
0.984491
1.04965
1.11299
1.17483
1.23537
1.29474
1.35304
1.41031
1.4666
1.52191
1.57626
1.62963
1.68203
1.73343
1.78382
1.83316
1.88143
1.92861
1.97465
2.01954
2.06323
2.1057
2.1469
2.18681
2.22539
2.26261
2.29844
2.33285
2.36582
2.39731
2.4273
2.45576
2.48268
2.50804
2.53182
2.55401
2.57459
2.59355
2.61089
2.62661
2.6407
2.65317
2.66401
2.67324
2.68086
2.68689
2.69134
2.69422
2.69556
2.69538
2.6937
2.69054
2.68594
2.67993
2.67254
2.66381
2.65376
2.64244
2.62988
2.61612
2.60121
2.58519
2.56811
2.55
2.53092
2.51091
2.49002
2.4683
2.4458
2.42256
2.39864
2.37409
2.34894
2.32326
2.29709
2.27048
2.24347
2.21612
2.18846
2.16054
2.13242
2.10412
2.07569
2.04717
2.0186
1.99001
1.96146
1.93296
1.90455
1.87627
1.84814
1.82019
1.79245
1.76495
1.73771
1.71075
1.68408
1.65774
1.63174
1.60609
1.58081
1.5559
1.53139
1.50728
1.48357
1.46028
1.43741
1.41496
1.39293
1.37133
1.35016
1.3294
1.30907
1.28916
1.26966
1.25056
1.23187
1.21356
1.19564
1.17809
1.16091
1.14407
1.12758
1.11142
1.09557
1.08002
1.06476
1.04978
1.03507
1.02061
1.00639
0.992384
0.978589
0.964986
0.951559
0.938294
0.925176
0.912189
0.89932
0.886555
0.87388
0.861281
0.848745
0.83626
0.823813
0.811393
0.798989
0.78659
0.774187
0.761769
0.749329
0.736857
0.724347
0.711791
0.699182
0.686515
0.673784
0.660984
0.64811
0.635159
0.622124
0.609002
0.595789
0.58248
0.569072
0.55556
0.541941
0.528211
0.514365
0.5004
0.48631
0.472091
0.457737
0.443242
0.4286
0.413803
0.398843
0.383709
0.368389
0.35287
0.337131
0.321147
0.304886
0.288299
0.271316
0.253834
0.235688
0.216602
0.196089
0.173182
0.145637
0.106697
0.0340425
0.237446
0.461831
0.591172
0.68814
0.771036
0.846355
0.917006
0.984488
1.04965
1.11299
1.17482
1.23536
1.29474
1.35304
1.41031
1.46659
1.52191
1.57625
1.62963
1.68203
1.73343
1.78381
1.83315
1.88143
1.9286
1.97465
2.01954
2.06323
2.10569
2.14689
2.1868
2.22538
2.26261
2.29844
2.33285
2.36581
2.3973
2.42729
2.45576
2.48268
2.50804
2.53181
2.554
2.57458
2.59355
2.61089
2.62661
2.6407
2.65317
2.66401
2.67324
2.68086
2.68689
2.69133
2.69422
2.69556
2.69537
2.69369
2.69054
2.68594
2.67993
2.67254
2.6638
2.65375