/*--------------------------------*- C++ -*----------------------------------*\
  =========                 |
  \\      /  F ield         | OpenFOAM: The Open Source CFD Toolbox
   \\    /   O peration     | Website:  https://openfoam.org
    \\  /    A nd           | Version:  8
     \\/     M anipulation  |
\*---------------------------------------------------------------------------*/
FoamFile
{
    version     2.0;
    format      ascii;
    class       volScalarField;
    location    "2900";
    object      nut;
}
// * * * * * * * * * * * * * * * * * * * * * * * * * * * * * * * * * * * * * //

dimensions      [0 2 -1 0 0 0 0];

internalField   nonuniform List<scalar> 
46000
(
5.25041e-07
2.44477e-06
4.72495e-06
6.87457e-06
8.9111e-06
1.08849e-05
1.28152e-05
1.47079e-05
1.65743e-05
1.842e-05
2.02549e-05
2.20756e-05
2.38809e-05
2.56755e-05
2.74604e-05
2.92356e-05
3.10005e-05
3.27544e-05
3.44962e-05
3.62246e-05
3.7938e-05
3.96349e-05
4.13135e-05
4.29719e-05
4.46082e-05
4.62203e-05
4.78062e-05
4.93638e-05
5.08909e-05
5.23855e-05
5.38453e-05
5.52683e-05
5.66523e-05
5.79954e-05
5.92955e-05
6.05507e-05
6.1759e-05
6.29188e-05
6.40282e-05
6.50857e-05
6.60897e-05
6.70388e-05
6.79318e-05
6.87675e-05
6.95448e-05
7.02629e-05
7.09209e-05
7.15183e-05
7.20546e-05
7.25294e-05
7.29425e-05
7.3294e-05
7.35839e-05
7.38124e-05
7.39801e-05
7.40873e-05
7.41349e-05
7.41237e-05
7.40545e-05
7.39287e-05
7.37477e-05
7.35134e-05
7.32292e-05
7.28956e-05
7.25126e-05
7.20815e-05
7.16039e-05
7.10817e-05
7.05168e-05
6.99111e-05
6.92668e-05
6.8586e-05
6.78706e-05
6.71229e-05
6.63449e-05
6.5539e-05
6.47071e-05
6.38516e-05
6.29744e-05
6.20778e-05
6.11639e-05
6.02347e-05
5.92922e-05
5.83384e-05
5.73753e-05
5.64048e-05
5.54286e-05
5.44485e-05
5.34662e-05
5.24834e-05
5.15016e-05
5.05224e-05
4.9547e-05
4.85769e-05
4.76134e-05
4.66575e-05
4.57105e-05
4.47733e-05
4.38469e-05
4.29322e-05
4.203e-05
4.11411e-05
4.0266e-05
3.94054e-05
3.85597e-05
3.77295e-05
3.69151e-05
3.61169e-05
3.5335e-05
3.45697e-05
3.38211e-05
3.30893e-05
3.23744e-05
3.16763e-05
3.0995e-05
3.03304e-05
2.96822e-05
2.90504e-05
2.84348e-05
2.7835e-05
2.72507e-05
2.66818e-05
2.61277e-05
2.55883e-05
2.5063e-05
2.45514e-05
2.40533e-05
2.3568e-05
2.30952e-05
2.26343e-05
2.2185e-05
2.17468e-05
2.13191e-05
2.09014e-05
2.04933e-05
2.00943e-05
1.97038e-05
1.93214e-05
1.89466e-05
1.85787e-05
1.82178e-05
1.78636e-05
1.75152e-05
1.71722e-05
1.6834e-05
1.65002e-05
1.61704e-05
1.58441e-05
1.55211e-05
1.52009e-05
1.48831e-05
1.45674e-05
1.42536e-05
1.39412e-05
1.36301e-05
1.33199e-05
1.30104e-05
1.27015e-05
1.2393e-05
1.20846e-05
1.17762e-05
1.14678e-05
1.11592e-05
1.08504e-05
1.0543e-05
1.02358e-05
9.92854e-06
9.62108e-06
9.31348e-06
9.00578e-06
8.69807e-06
8.39044e-06
8.08302e-06
7.77593e-06
7.4693e-06
7.16327e-06
6.85801e-06
6.55364e-06
6.25033e-06
5.94821e-06
5.64742e-06
5.34806e-06
5.05024e-06
4.75401e-06
4.45936e-06
4.16562e-06
3.87388e-06
3.58372e-06
3.29445e-06
3.00614e-06
2.71807e-06
2.42943e-06
2.13913e-06
1.84776e-06
1.55352e-06
1.25213e-06
9.39779e-07
6.14082e-07
2.88254e-07
5.50735e-08
5.25076e-07
2.4449e-06
4.72511e-06
6.87473e-06
8.91127e-06
1.0885e-05
1.28153e-05
1.4708e-05
1.65745e-05
1.84202e-05
2.02551e-05
2.20757e-05
2.3881e-05
2.56756e-05
2.74605e-05
2.92357e-05
3.10006e-05
3.27545e-05
3.44963e-05
3.62247e-05
3.79381e-05
3.9635e-05
4.13136e-05
4.2972e-05
4.46082e-05
4.62203e-05
4.78062e-05
4.93638e-05
5.08909e-05
5.23855e-05
5.38453e-05
5.52683e-05
5.66523e-05
5.79954e-05
5.92955e-05
6.05507e-05
6.1759e-05
6.29188e-05
6.40282e-05
6.50856e-05
6.60897e-05
6.70388e-05
6.79318e-05
6.87675e-05
6.95448e-05
7.02628e-05
7.09209e-05
7.15182e-05
7.20545e-05
7.25293e-05
7.29424e-05
7.32939e-05
7.35838e-05
7.38123e-05
7.398e-05
7.40872e-05
7.41348e-05
7.41236e-05
7.40544e-05
7.39286e-05
7.37476e-05
7.35132e-05
7.32291e-05
7.28955e-05
7.25125e-05
7.20813e-05
7.16038e-05
7.10815e-05
7.05166e-05
6.9911e-05
6.92667e-05
6.85858e-05
6.78705e-05
6.71227e-05
6.63448e-05
6.55388e-05
6.4707e-05
6.38514e-05
6.29743e-05
6.20777e-05
6.11638e-05
6.02346e-05
5.92921e-05
5.83383e-05
5.73752e-05
5.64046e-05
5.54284e-05
5.44484e-05
5.34661e-05
5.24833e-05
5.15015e-05
5.05223e-05
4.95469e-05
4.85768e-05
4.76133e-05
4.66574e-05
4.57104e-05
4.47732e-05
4.38468e-05
4.29321e-05
4.20299e-05
4.1141e-05
4.02659e-05
3.94053e-05
3.85596e-05
3.77294e-05
3.6915e-05
3.61168e-05
3.53349e-05
3.45696e-05
3.3821e-05
3.30892e-05
3.23743e-05
3.16762e-05
3.09949e-05
3.03303e-05
2.96821e-05
2.90504e-05
2.84347e-05
2.78349e-05
2.72507e-05
2.66817e-05
2.61277e-05
2.55882e-05
2.50629e-05
2.45514e-05
2.40532e-05
2.35679e-05
2.30951e-05
2.26343e-05
2.2185e-05
2.17467e-05
2.1319e-05
2.09013e-05
2.04932e-05
2.00942e-05
1.97037e-05
1.93213e-05
1.89465e-05
1.85786e-05
1.82178e-05
1.78636e-05
1.75152e-05
1.71721e-05
1.68339e-05
1.65001e-05
1.61703e-05
1.58441e-05
1.55211e-05
1.52008e-05
1.4883e-05
1.45674e-05
1.42535e-05
1.39412e-05
1.363e-05
1.33198e-05
1.30104e-05
1.27015e-05
1.23929e-05
1.20845e-05
1.17762e-05
1.14678e-05
1.11591e-05
1.08504e-05
1.05429e-05
1.02358e-05
9.9285e-06
9.62105e-06
9.31344e-06
9.00575e-06
8.69804e-06
8.39041e-06
8.08299e-06
7.7759e-06
7.46927e-06
7.16325e-06
6.85798e-06
6.55362e-06
6.25031e-06
5.9482e-06
5.6474e-06
5.34805e-06
5.05023e-06
4.754e-06
4.45935e-06
4.16561e-06
3.87388e-06
3.58372e-06
3.29444e-06
3.00614e-06
2.71807e-06
2.42943e-06
2.13913e-06
1.84776e-06
1.55352e-06
1.25213e-06
9.39785e-07
6.14087e-07
2.88257e-07
5.50743e-08
2.21986e-06
3.47139e-05
6.18501e-05
8.03504e-05
9.45268e-05
0.000106169
0.000116121
0.000124972
0.000133042
0.000140514
0.000147514
0.000154137
0.000160448
0.000166488
0.000172289
0.000177877
0.000183271
0.000188488
0.00019354
0.000198437
0.000203187
0.000207796
0.000212269
0.00021661
0.000220822
0.000224908
0.000228869
0.000232706
0.000236421
0.000240013
0.000243482
0.00024683
0.000250054
0.000253156
0.000256135
0.00025899
0.00026172
0.000264325
0.000266805
0.000269158
0.000271385
0.000273484
0.000275456
0.0002773
0.000279015
0.000280602
0.000282061
0.000283391
0.000284594
0.000285668
0.000286616
0.000287437
0.000288132
0.000288703
0.000289149
0.000289474
0.000289677
0.000289761
0.000289726
0.000289575
0.000289308
0.000288927
0.000288429
0.000287821
0.000287106
0.000286289
0.000285374
0.000284362
0.000283258
0.000282063
0.000280783
0.00027942
0.000277977
0.000276457
0.000274865
0.000273203
0.000271476
0.000269686
0.000267837
0.000265933
0.000263978
0.000261974
0.000259926
0.000257837
0.00025571
0.000253549
0.000251357
0.000249137
0.000246894
0.000244629
0.000242346
0.000240049
0.00023774
0.000235422
0.000233098
0.00023077
0.000228442
0.000226116
0.000223794
0.000221478
0.000219171
0.000216875
0.000214592
0.000212324
0.000210072
0.000207838
0.000205624
0.000203431
0.000201261
0.000199114
0.000196992
0.000194896
0.000192826
0.000190783
0.000188768
0.000186781
0.000184823
0.000182894
0.000180994
0.000179123
0.000177281
0.000175468
0.000173684
0.000171928
0.0001702
0.0001685
0.000166826
0.000165178
0.000163555
0.000161957
0.000160382
0.000158829
0.000157298
0.000155787
0.000154295
0.000152821
0.000151364
0.000149922
0.000148495
0.000147081
0.000145679
0.000144286
0.000142901
0.000141523
0.000140149
0.00013878
0.000137413
0.000136046
0.000134678
0.000133308
0.000131935
0.000130556
0.00012917
0.000127776
0.000126373
0.000124959
0.000123532
0.000122092
0.000120638
0.000119167
0.000117679
0.000116172
0.000114644
0.000113092
0.000111503
0.000109891
0.000108255
0.000106592
0.000104904
0.000103188
0.000101445
9.96724e-05
9.787e-05
9.60366e-05
9.41708e-05
9.22712e-05
9.03364e-05
8.83644e-05
8.63532e-05
8.43003e-05
8.22028e-05
8.00571e-05
7.78592e-05
7.5604e-05
7.32856e-05
7.08978e-05
6.84271e-05
6.58601e-05
6.31788e-05
6.03626e-05
5.73781e-05
5.41807e-05
5.06966e-05
4.67837e-05
4.23428e-05
3.71663e-05
3.08481e-05
2.25634e-05
1.06921e-05
2.56604e-07
2.21997e-06
3.47161e-05
6.18534e-05
8.0354e-05
9.45306e-05
0.000106172
0.000116125
0.000124976
0.000133046
0.000140518
0.000147518
0.000154142
0.000160452
0.000166492
0.000172293
0.000177881
0.000183275
0.000188492
0.000193544
0.000198441
0.000203191
0.0002078
0.000212274
0.000216615
0.000220828
0.000224913
0.000228874
0.000232712
0.000236426
0.000240018
0.000243488
0.000246835
0.00025006
0.000253162
0.000256141
0.000258996
0.000261726
0.000264331
0.000266811
0.000269164
0.000271391
0.00027349
0.000275462
0.000277306
0.000279021
0.000280608
0.000282067
0.000283397
0.0002846
0.000285674
0.000286622
0.000287443
0.000288138
0.000288709
0.000289156
0.00028948
0.000289683
0.000289767
0.000289732
0.000289581
0.000289314
0.000288933
0.000288435
0.000287827
0.000287112
0.000286295
0.000285379
0.000284368
0.000283263
0.000282069
0.000280789
0.000279425
0.000277982
0.000276463
0.00027487
0.000273208
0.000271481
0.000269691
0.000267842
0.000265938
0.000263983
0.000261979
0.000259931
0.000257842
0.000255715
0.000253553
0.000251361
0.000249142
0.000246898
0.000244633
0.000242351
0.000240053
0.000237744
0.000235426
0.000233102
0.000230774
0.000228446
0.00022612
0.000223797
0.000221482
0.000219175
0.000216879
0.000214596
0.000212327
0.000210075
0.000207841
0.000205627
0.000203434
0.000201264
0.000199117
0.000196995
0.000194898
0.000192828
0.000190786
0.00018877
0.000186784
0.000184826
0.000182896
0.000180996
0.000179125
0.000177283
0.000175471
0.000173686
0.00017193
0.000170202
0.000168502
0.000166828
0.00016518
0.000163557
0.000161958
0.000160383
0.000158831
0.0001573
0.000155789
0.000154297
0.000152823
0.000151365
0.000149923
0.000148496
0.000147083
0.00014568
0.000144287
0.000142902
0.000141524
0.00014015
0.000138781
0.000137414
0.000136047
0.000134679
0.000133309
0.000131935
0.000130556
0.000129171
0.000127777
0.000126373
0.000124959
0.000123533
0.000122093
0.000120638
0.000119167
0.000117679
0.000116172
0.000114645
0.000113092
0.000111504
0.000109892
0.000108255
0.000106593
0.000104904
0.000103189
0.000101445
9.96727e-05
9.78703e-05
9.60369e-05
9.4171e-05
9.22715e-05
9.03366e-05
8.83647e-05
8.63534e-05
8.43005e-05
8.2203e-05
8.00574e-05
7.78595e-05
7.56042e-05
7.32859e-05
7.0898e-05
6.84274e-05
6.58603e-05
6.31791e-05
6.03628e-05
5.73784e-05
5.41809e-05
5.06969e-05
4.67839e-05
4.23429e-05
3.71664e-05
3.08481e-05
2.25635e-05
1.06921e-05
2.56603e-07
4.36938e-06
5.98765e-05
0.000117065
0.000159549
0.000192321
0.000218732
0.00024088
0.000260039
0.000277025
0.00029237
0.00030643
0.000319459
0.000331638
0.000343097
0.000353936
0.000364231
0.000374042
0.000383417
0.000392396
0.000401009
0.000409282
0.000417237
0.00042489
0.000432257
0.00043935
0.00044618
0.000452754
0.00045908
0.000465166
0.000471016
0.000476634
0.000482025
0.000487192
0.000492139
0.000496867
0.000501379
0.000505677
0.000509763
0.000513639
0.000517306
0.000520766
0.00052402
0.00052707
0.000529916
0.000532561
0.000535006
0.000537252
0.000539301
0.000541154
0.000542814
0.000544281
0.000545558
0.000546646
0.000547548
0.000548266
0.000548802
0.000549158
0.000549336
0.000549339
0.000549168
0.000548825
0.000548311
0.000547625
0.000546773
0.000545762
0.000544598
0.000543285
0.000541829
0.000540233
0.000538503
0.000536642
0.000534654
0.000532546
0.00053032
0.000527981
0.000525534
0.000522984
0.000520336
0.000517593
0.000514761
0.000511845
0.000508849
0.000505778
0.000502637
0.00049943
0.000496163
0.000492839
0.000489464
0.000486042
0.000482578
0.000479075
0.000475539
0.000471974
0.000468384
0.000464773
0.000461145
0.000457504
0.000453854
0.000450198
0.00044654
0.000442884
0.000439233
0.000435589
0.000431957
0.000428338
0.000424736
0.000421153
0.000417591
0.000414053
0.00041054
0.000407055
0.0004036
0.000400175
0.000396782
0.000393423
0.000390098
0.000386808
0.000383554
0.000380337
0.000377156
0.000374012
0.000370904
0.000367834
0.000364799
0.0003618
0.000358836
0.000355906
0.000353009
0.000350144
0.00034731
0.000344505
0.000341728
0.000338977
0.000336251
0.000333548
0.000330865
0.000328202
0.000325557
0.000322928
0.000320312
0.000317704
0.000315103
0.000312506
0.000309911
0.000307316
0.000304719
0.000302116
0.000299505
0.000296884
0.000294251
0.000291602
0.000288935
0.000286249
0.000283539
0.000280805
0.000278044
0.000275253
0.000272429
0.000269572
0.000266678
0.000263744
0.000260768
0.000257745
0.000254669
0.000251531
0.000248336
0.000245085
0.000241777
0.000238411
0.000234983
0.000231492
0.000227935
0.000224309
0.00022061
0.000216834
0.000212977
0.000209032
0.000204995
0.000200858
0.000196613
0.000192249
0.000187756
0.00018312
0.000178324
0.000173347
0.000168167
0.000162747
0.000157048
0.000151016
0.000144575
0.000137624
0.000130029
0.000121589
0.000112007
0.000100855
8.75691e-05
7.11158e-05
4.97635e-05
2.16596e-05
5.50492e-07
4.36952e-06
5.98796e-05
0.000117071
0.000159557
0.000192329
0.00021874
0.000240888
0.000260048
0.000277034
0.000292379
0.000306439
0.000319468
0.000331646
0.000343105
0.000353944
0.000364239
0.00037405
0.000383426
0.000392404
0.000401017
0.000409291
0.000417245
0.000424899
0.000432266
0.000439359
0.000446188
0.000452762
0.000459089
0.000465175
0.000471024
0.000476643
0.000482034
0.000487201
0.000492147
0.000496875
0.000501388
0.000505686
0.000509772
0.000513648
0.000517315
0.000520775
0.000524029
0.000527079
0.000529925
0.00053257
0.000535015
0.000537261
0.00053931
0.000541163
0.000542822
0.000544289
0.000545566
0.000546655
0.000547557
0.000548274
0.00054881
0.000549166
0.000549344
0.000549347
0.000549176
0.000548833
0.000548319
0.000547633
0.000546781
0.00054577
0.000544606
0.000543293
0.000541836
0.000540241
0.00053851
0.000536649
0.000534662
0.000532553
0.000530327
0.000527988
0.000525541
0.000522991
0.000520342
0.0005176
0.000514768
0.000511851
0.000508855
0.000505784
0.000502643
0.000499436
0.000496169
0.000492845
0.00048947
0.000486047
0.000482583
0.000479081
0.000475544
0.000471979
0.000468389
0.000464778
0.00046115
0.000457508
0.000453858
0.000450202
0.000446545
0.000442888
0.000439237
0.000435593
0.000431961
0.000428342
0.00042474
0.000421156
0.000417594
0.000414056
0.000410543
0.000407058
0.000403603
0.000400178
0.000396785
0.000393426
0.000390101
0.000386811
0.000383557
0.000380339
0.000377158
0.000374014
0.000370906
0.000367835
0.000364801
0.000361802
0.000358837
0.000355907
0.00035301
0.000350145
0.000347311
0.000344506
0.000341729
0.000338978
0.000336252
0.000333549
0.000330866
0.000328203
0.000325558
0.000322929
0.000320312
0.000317704
0.000315103
0.000312506
0.000309912
0.000307317
0.000304719
0.000302116
0.000299505
0.000296884
0.000294251
0.000291602
0.000288935
0.000286249
0.000283539
0.000280805
0.000278043
0.000275252
0.000272429
0.000269571
0.000266677
0.000263743
0.000260767
0.000257744
0.000254668
0.00025153
0.000248335
0.000245085
0.000241777
0.00023841
0.000234982
0.000231492
0.000227935
0.000224309
0.00022061
0.000216834
0.000212976
0.000209032
0.000204995
0.000200858
0.000196612
0.000192249
0.000187756
0.000183119
0.000178323
0.000173347
0.000168166
0.000162747
0.000157048
0.000151016
0.000144575
0.000137624
0.000130029
0.000121589
0.000112007
0.000100855
8.75692e-05
7.11159e-05
4.97635e-05
2.16595e-05
5.50492e-07
6.46736e-06
7.74093e-05
0.000157477
0.000221841
0.000273469
0.000315896
0.000351714
0.000382674
0.00040997
0.000434432
0.000456648
0.000477045
0.000495935
0.000513555
0.000530085
0.000545664
0.000560404
0.000574394
0.000587704
0.000600395
0.000612514
0.000624101
0.000635192
0.000645813
0.00065599
0.000665742
0.000675089
0.000684044
0.000692623
0.000700835
0.000708692
0.000716203
0.000723376
0.000730217
0.000736735
0.000742935
0.000748822
0.000754401
0.000759677
0.000764655
0.000769339
0.000773732
0.000777839
0.000781664
0.000785209
0.000788479
0.000791477
0.000794207
0.000796671
0.000798874
0.000800818
0.000802508
0.000803947
0.000805137
0.000806084
0.000806789
0.000807258
0.000807492
0.000807496
0.000807272
0.000806823
0.000806151
0.000805258
0.000804149
0.000802833
0.000801316
0.000799605
0.000797705
0.000795623
0.000793364
0.000790934
0.000788338
0.000785583
0.000782672
0.000779613
0.000776411
0.000773071
0.0007696
0.000766003
0.000762286
0.000758455
0.000754516
0.000750475
0.000746337
0.000742109
0.000737796
0.000733404
0.000728939
0.000724407
0.000719813
0.000715164
0.000710463
0.000705718
0.000700932
0.000696113
0.000691264
0.00068639
0.000681497
0.00067659
0.000671672
0.000666749
0.000661824
0.000656902
0.000651987
0.000647082
0.000642191
0.000637318
0.000632465
0.000627635
0.000622831
0.000618056
0.000613312
0.000608601
0.000603924
0.000599284
0.000594682
0.000590119
0.000585595
0.000581112
0.00057667
0.000572269
0.000567909
0.000563589
0.00055931
0.000555071
0.00055087
0.000546706
0.000542579
0.000538487
0.000534427
0.000530399
0.0005264
0.000522428
0.00051848
0.000514556
0.000510651
0.000506764
0.000502893
0.000499034
0.000495182
0.000491334
0.000487486
0.000483636
0.00047978
0.000475915
0.000472037
0.000468144
0.000464232
0.000460298
0.000456338
0.000452349
0.000448328
0.000444271
0.000440175
0.000436037
0.000431855
0.000427623
0.00042334
0.000419002
0.000414606
0.000410147
0.000405622
0.000401024
0.000396348
0.000391586
0.000386738
0.000381803
0.00037678
0.000371663
0.000366451
0.000361138
0.000355719
0.000350189
0.00034454
0.000338765
0.000332854
0.000326798
0.000320585
0.000314201
0.000307629
0.000300852
0.000293847
0.000286587
0.000279041
0.000271169
0.000262924
0.000254243
0.000245051
0.000235249
0.000224704
0.000213243
0.000200632
0.000186543
0.000170528
0.00015195
0.000129928
0.000103163
6.98496e-05
2.93568e-05
8.52982e-07
6.46751e-06
7.74127e-05
0.000157484
0.000221851
0.000273481
0.000315908
0.000351726
0.000382686
0.000409982
0.000434445
0.000456661
0.000477057
0.000495948
0.000513568
0.000530097
0.000545677
0.000560417
0.000574406
0.000587716
0.000600407
0.000612526
0.000624113
0.000635204
0.000645825
0.000656001
0.000665754
0.0006751
0.000684056
0.000692634
0.000700847
0.000708704
0.000716214
0.000723387
0.000730229
0.000736747
0.000742946
0.000748833
0.000754412
0.000759688
0.000764666
0.00076935
0.000773743
0.00077785
0.000781675
0.00078522
0.00078849
0.000791488
0.000794217
0.000796682
0.000798884
0.000800829
0.000802518
0.000803957
0.000805147
0.000806094
0.000806799
0.000807268
0.000807502
0.000807506
0.000807282
0.000806832
0.00080616
0.000805267
0.000804158
0.000802842
0.000801325
0.000799613
0.000797714
0.000795632
0.000793373
0.000790942
0.000788346
0.00078559
0.00078268
0.000779621
0.000776418
0.000773078
0.000769607
0.00076601
0.000762293
0.000758462
0.000754523
0.000750481
0.000746343
0.000742115
0.000737802
0.00073341
0.000728945
0.000724413
0.000719819
0.000715169
0.000710468
0.000705723
0.000700937
0.000696117
0.000691268
0.000686395
0.000681502
0.000676594
0.000671676
0.000666753
0.000661828
0.000656906
0.000651991
0.000647086
0.000642195
0.000637321
0.000632468
0.000627638
0.000622834
0.000618059
0.000613314
0.000608603
0.000603927
0.000599287
0.000594684
0.000590121
0.000585597
0.000581114
0.000576672
0.00057227
0.00056791
0.00056359
0.000559311
0.000555072
0.000550871
0.000546707
0.00054258
0.000538487
0.000534428
0.000530399
0.0005264
0.000522428
0.000518481
0.000514556
0.000510651
0.000506764
0.000502893
0.000499033
0.000495182
0.000491333
0.000487486
0.000483636
0.000479779
0.000475914
0.000472037
0.000468144
0.000464231
0.000460297
0.000456337
0.000452348
0.000448326
0.00044427
0.000440174
0.000436036
0.000431853
0.000427622
0.000423339
0.000419001
0.000414604
0.000410146
0.00040562
0.000401023
0.000396347
0.000391584
0.000386737
0.000381802
0.000376778
0.000371662
0.000366449
0.000361137
0.000355718
0.000350187
0.000344538
0.000338763
0.000332853
0.000326797
0.000320584
0.000314199
0.000307628
0.000300851
0.000293846
0.000286586
0.00027904
0.000271168
0.000262923
0.000254242
0.000245051
0.000235248
0.000224703
0.000213243
0.000200631
0.000186543
0.000170528
0.00015195
0.000129928
0.000103163
6.98496e-05
2.93566e-05
8.52983e-07
8.51331e-06
9.13264e-05
0.00018905
0.000271805
0.000340459
0.000398131
0.00044743
0.000490302
0.000528172
0.000562081
0.000592797
0.000620897
0.000646814
0.000670884
0.000693366
0.000714465
0.000734342
0.000753131
0.000770939
0.000787852
0.000803946
0.000819279
0.000833905
0.000847866
0.0008612
0.000873939
0.00088611
0.000897739
0.000908845
0.000919448
0.000929564
0.000939209
0.000948395
0.000957134
0.000965438
0.000973316
0.000980779
0.000987834
0.00099449
0.00100075
0.00100663
0.00101214
0.00101727
0.00102204
0.00102644
0.0010305
0.00103421
0.00103758
0.00104061
0.00104332
0.0010457
0.00104776
0.0010495
0.00105094
0.00105208
0.00105292
0.00105346
0.00105371
0.00105369
0.00105338
0.0010528
0.00105194
0.00105082
0.00104944
0.00104781
0.00104593
0.00104381
0.00104147
0.0010389
0.00103612
0.00103313
0.00102993
0.00102654
0.00102297
0.00101921
0.00101527
0.00101117
0.00100691
0.00100249
0.00099793
0.000993226
0.000988389
0.000983426
0.000978343
0.000973148
0.000967847
0.000962447
0.000956956
0.00095138
0.000945725
0.000939999
0.000934207
0.000928357
0.000922455
0.000916506
0.000910518
0.000904496
0.000898445
0.000892372
0.000886282
0.000880181
0.000874073
0.000867963
0.000861856
0.000855756
0.000849669
0.000843597
0.000837544
0.000831515
0.000825512
0.000819538
0.000813596
0.000807688
0.000801817
0.000795984
0.000790191
0.000784439
0.00077873
0.000773064
0.000767441
0.000761861
0.000756325
0.000750832
0.000745381
0.000739972
0.000734603
0.000729273
0.000723979
0.000718721
0.000713495
0.000708301
0.000703134
0.000697993
0.000692874
0.000687776
0.000682694
0.000677626
0.000672568
0.000667516
0.000662464
0.00065741
0.000652347
0.000647274
0.000642185
0.000637077
0.000631945
0.000626786
0.000621596
0.000616369
0.000611104
0.000605794
0.000600437
0.000595028
0.000589564
0.00058404
0.000578452
0.000572797
0.00056707
0.000561268
0.000555385
0.000549417
0.000543358
0.000537203
0.000530945
0.000524576
0.000518094
0.000511494
0.000504774
0.000497927
0.000490948
0.00048383
0.000476564
0.000469142
0.000461554
0.000453786
0.000445826
0.000437657
0.000429261
0.000420618
0.000411702
0.000402484
0.000392931
0.000383001
0.000372646
0.000361807
0.000350412
0.00033837
0.000325568
0.000311864
0.000297071
0.000280951
0.000263188
0.000243361
0.000220906
0.000195058
0.000164786
0.000128765
8.54507e-05
3.54166e-05
1.15407e-06
8.51347e-06
9.13299e-05
0.000189058
0.000271816
0.000340473
0.000398146
0.000447445
0.000490319
0.000528189
0.000562098
0.000592814
0.000620913
0.000646831
0.000670901
0.000693382
0.000714481
0.000734358
0.000753147
0.000770954
0.000787868
0.000803961
0.000819295
0.00083392
0.000847881
0.000861215
0.000873954
0.000886125
0.000897754
0.00090886
0.000919463
0.000929579
0.000939223
0.000948409
0.000957148
0.000965452
0.00097333
0.000980792
0.000987847
0.000994503
0.00100077
0.00100665
0.00101215
0.00101728
0.00102205
0.00102646
0.00103051
0.00103422
0.00103759
0.00104063
0.00104333
0.00104571
0.00104777
0.00104952
0.00105095
0.00105209
0.00105293
0.00105347
0.00105373
0.0010537
0.00105339
0.00105281
0.00105195
0.00105083
0.00104945
0.00104782
0.00104594
0.00104382
0.00104148
0.00103891
0.00103613
0.00103313
0.00102994
0.00102655
0.00102297
0.00101922
0.00101528
0.00101118
0.00100692
0.0010025
0.000997938
0.000993234
0.000988396
0.000983433
0.00097835
0.000973154
0.000967853
0.000962453
0.000956962
0.000951385
0.000945731
0.000940004
0.000934213
0.000928362
0.00092246
0.000916511
0.000910523
0.0009045
0.00089845
0.000892377
0.000886287
0.000880185
0.000874076
0.000867966
0.000861859
0.00085576
0.000849672
0.0008436
0.000837547
0.000831518
0.000825514
0.00081954
0.000813598
0.00080769
0.000801819
0.000795986
0.000790193
0.000784441
0.000778732
0.000773065
0.000767442
0.000761863
0.000756326
0.000750833
0.000745382
0.000739973
0.000734604
0.000729273
0.00072398
0.000718721
0.000713496
0.000708301
0.000703134
0.000697993
0.000692874
0.000687775
0.000682693
0.000677625
0.000672568
0.000667515
0.000662464
0.000657409
0.000652347
0.000647273
0.000642184
0.000637076
0.000631944
0.000626785
0.000621594
0.000616368
0.000611102
0.000605793
0.000600436
0.000595027
0.000589562
0.000584038
0.000578451
0.000572795
0.000567069
0.000561266
0.000555383
0.000549415
0.000543356
0.000537201
0.000530943
0.000524574
0.000518092
0.000511493
0.000504772
0.000497925
0.000490946
0.000483828
0.000476563
0.000469141
0.000461552
0.000453784
0.000445824
0.000437655
0.00042926
0.000420616
0.0004117
0.000402482
0.000392929
0.000383
0.000372645
0.000361806
0.000350411
0.000338369
0.000325567
0.000311863
0.000297071
0.000280951
0.000263188
0.000243361
0.000220906
0.000195058
0.000164786
0.000128766
8.54508e-05
3.54165e-05
1.15408e-06
1.05402e-05
0.000103065
0.000215028
0.000313301
0.000396981
0.000468561
0.00053049
0.000584754
0.000632888
0.00067607
0.000715196
0.000750959
0.000783894
0.00081442
0.000842869
0.000869504
0.000894537
0.000918141
0.000940458
0.000961605
0.000981679
0.00100076
0.00101892
0.00103622
0.00105271
0.00106843
0.00108341
0.0010977
0.00111132
0.0011243
0.00113666
0.00114841
0.00115959
0.0011702
0.00118027
0.0011898
0.00119881
0.00120731
0.00121532
0.00122284
0.00122988
0.00123646
0.00124258
0.00124826
0.00125349
0.0012583
0.00126269
0.00126666
0.00127023
0.0012734
0.00127618
0.00127857
0.0012806
0.00128225
0.00128354
0.00128448
0.00128507
0.00128532
0.00128523
0.00128482
0.00128408
0.00128303
0.00128166
0.00127999
0.00127803
0.00127578
0.00127326
0.00127046
0.00126741
0.00126411
0.00126056
0.00125677
0.00125276
0.00124853
0.00124409
0.00123945
0.00123461
0.00122958
0.00122437
0.00121899
0.00121345
0.00120775
0.0012019
0.00119592
0.0011898
0.00118356
0.0011772
0.00117074
0.00116417
0.00115751
0.00115077
0.00114395
0.00113706
0.00113011
0.0011231
0.00111604
0.00110894
0.00110181
0.00109464
0.00108746
0.00108026
0.00107304
0.00106583
0.00105861
0.0010514
0.0010442
0.00103701
0.00102985
0.0010227
0.00101559
0.0010085
0.00100144
0.000994427
0.000987448
0.000980508
0.000973611
0.000966757
0.000959948
0.000953183
0.000946464
0.000939791
0.000933162
0.000926578
0.000920038
0.000913541
0.000907084
0.000900666
0.000894285
0.000887938
0.000881624
0.000875338
0.000869079
0.000862843
0.000856626
0.000850425
0.000844236
0.000838056
0.00083188
0.000825703
0.000819519
0.000813324
0.000807113
0.000800882
0.000794625
0.000788338
0.000782016
0.000775655
0.000769249
0.000762794
0.000756286
0.000749719
0.000743088
0.00073639
0.00072962
0.000722772
0.000715842
0.000708826
0.000701718
0.000694513
0.000687207
0.000679793
0.000672265
0.000664616
0.000656839
0.000648927
0.000640873
0.000632673
0.000624319
0.000615805
0.000607121
0.000598259
0.000589207
0.000579952
0.00057048
0.000560775
0.000550817
0.000540586
0.000530056
0.000519198
0.000507979
0.000496358
0.000484292
0.000471723
0.000458588
0.000444807
0.000430285
0.000414904
0.000398518
0.000380944
0.000361952
0.000341248
0.000318452
0.000293077
0.000264487
0.000231857
0.000194126
0.000150013
9.83041e-05
4.05382e-05
1.4541e-06
1.05404e-05
0.000103068
0.000215036
0.000313313
0.000396996
0.000468578
0.000530508
0.000584773
0.000632908
0.000676089
0.000715216
0.000750978
0.000783913
0.00081444
0.000842888
0.000869523
0.000894556
0.00091816
0.000940477
0.000961624
0.000981698
0.00100078
0.00101894
0.00103624
0.00105273
0.00106844
0.00108343
0.00109772
0.00111134
0.00112432
0.00113667
0.00114843
0.00115961
0.00117022
0.00118028
0.00118982
0.00119883
0.00120733
0.00121533
0.00122285
0.00122989
0.00123647
0.0012426
0.00124827
0.00125351
0.00125832
0.0012627
0.00126667
0.00127024
0.00127341
0.00127619
0.00127859
0.00128061
0.00128226
0.00128355
0.00128449
0.00128508
0.00128533
0.00128524
0.00128483
0.00128409
0.00128304
0.00128167
0.00128
0.00127804
0.00127579
0.00127327
0.00127047
0.00126742
0.00126412
0.00126057
0.00125678
0.00125277
0.00124854
0.0012441
0.00123946
0.00123461
0.00122959
0.00122438
0.001219
0.00121346
0.00120776
0.00120191
0.00119592
0.00118981
0.00118356
0.00117721
0.00117074
0.00116418
0.00115752
0.00115078
0.00114396
0.00113706
0.00113011
0.0011231
0.00111604
0.00110895
0.00110181
0.00109465
0.00108746
0.00108026
0.00107305
0.00106583
0.00105861
0.0010514
0.0010442
0.00103702
0.00102985
0.00102271
0.00101559
0.0010085
0.00100145
0.00099443
0.00098745
0.000980511
0.000973614
0.000966759
0.00095995
0.000953185
0.000946466
0.000939792
0.000933164
0.00092658
0.00092004
0.000913542
0.000907085
0.000900667
0.000894286
0.000887939
0.000881625
0.000875339
0.00086908
0.000862843
0.000856626
0.000850425
0.000844236
0.000838056
0.00083188
0.000825703
0.000819519
0.000813324
0.000807113
0.000800881
0.000794624
0.000788337
0.000782015
0.000775654
0.000769248
0.000762793
0.000756284
0.000749717
0.000743087
0.000736389
0.000729618
0.00072277
0.00071584
0.000708824
0.000701716
0.000694511
0.000687205
0.000679791
0.000672263
0.000664614
0.000656837
0.000648925
0.000640871
0.000632671
0.000624317
0.000615803
0.000607119
0.000598257
0.000589205
0.00057995
0.000570478
0.000560773
0.000550816
0.000540584
0.000530054
0.000519196
0.000507977
0.000496357
0.00048429
0.000471722
0.000458587
0.000444806
0.000430284
0.000414903
0.000398517
0.000380943
0.000361952
0.000341247
0.000318452
0.000293077
0.000264488
0.000231858
0.000194126
0.000150013
9.83043e-05
4.0538e-05
1.4541e-06
1.25547e-05
0.000113392
0.000237325
0.000348883
0.000445771
0.000529861
0.000603375
0.000668255
0.00072608
0.000778103
0.00082531
0.000868481
0.00090823
0.000945046
0.000979322
0.00101137
0.00104146
0.00106978
0.00109652
0.00112183
0.00114581
0.00116857
0.00119021
0.00121078
0.00123036
0.00124901
0.00126676
0.00128366
0.00129974
0.00131505
0.0013296
0.00134343
0.00135656
0.001369
0.00138079
0.00139194
0.00140246
0.00141237
0.00142169
0.00143043
0.0014386
0.00144622
0.0014533
0.00145985
0.00146588
0.00147141
0.00147644
0.00148099
0.00148506
0.00148867
0.00149182
0.00149453
0.0014968
0.00149864
0.00150006
0.00150108
0.00150169
0.00150191
0.00150175
0.00150121
0.0015003
0.00149903
0.00149741
0.00149544
0.00149314
0.00149052
0.00148758
0.00148433
0.00148079
0.00147697
0.00147287
0.0014685
0.00146388
0.00145901
0.00145389
0.00144855
0.00144299
0.00143722
0.00143124
0.00142507
0.00141871
0.00141218
0.00140549
0.00139863
0.00139163
0.00138448
0.00137721
0.00136981
0.0013623
0.00135469
0.00134698
0.00133918