/*--------------------------------*- C++ -*----------------------------------*\
  =========                 |
  \\      /  F ield         | OpenFOAM: The Open Source CFD Toolbox
   \\    /   O peration     | Website:  https://openfoam.org
    \\  /    A nd           | Version:  8
     \\/     M anipulation  |
\*---------------------------------------------------------------------------*/
FoamFile
{
    version     2.0;
    format      ascii;
    class       surfaceScalarField;
    location    "2900";
    object      phi;
}
// * * * * * * * * * * * * * * * * * * * * * * * * * * * * * * * * * * * * * //

dimensions      [1 0 -1 0 0 0 0];

internalField   nonuniform List<scalar> 
114370
(
3.96409e-10
9.78222e-15
-3.96418e-10
1.00737e-09
6.74441e-15
-6.11744e-10
1.53328e-09
8.7848e-15
-5.26355e-10
1.84746e-09
6.59612e-15
-3.14508e-10
1.94471e-09
5.34173e-15
-9.75518e-11
1.85334e-09
4.71186e-15
9.1106e-11
1.60831e-09
4.55063e-15
2.44771e-10
1.24193e-09
4.46283e-15
3.66146e-10
7.80591e-10
4.25455e-15
4.6111e-10
2.45256e-10
4.01683e-15
5.35116e-10
-3.4735e-10
3.77807e-15
5.92394e-10
-9.83897e-10
3.51699e-15
6.36343e-10
-1.65417e-09
3.27351e-15
6.7007e-10
-2.35031e-09
3.07169e-15
6.95957e-10
-3.06614e-09
2.90329e-15
7.15644e-10
-3.79671e-09
2.75116e-15
7.3039e-10
-4.53804e-09
2.61487e-15
7.41151e-10
-5.28687e-09
2.50288e-15
7.48656e-10
-6.0405e-09
2.43145e-15
7.53467e-10
-6.79668e-09
2.41077e-15
7.56011e-10
-7.55345e-09
2.43845e-15
7.56616e-10
-8.30914e-09
2.50083e-15
7.55531e-10
-9.06223e-09
2.58219e-15
7.52946e-10
-9.81139e-09
2.66887e-15
7.49004e-10
-1.05553e-08
2.7498e-15
7.43811e-10
-1.12929e-08
2.81914e-15
7.37449e-10
-1.20231e-08
2.87406e-15
7.29976e-10
-1.27446e-08
2.91403e-15
7.21436e-10
-1.34567e-08
2.93816e-15
7.11862e-10
-1.41581e-08
2.94702e-15
7.01279e-10
-1.48479e-08
2.94102e-15
6.89707e-10
-1.55252e-08
2.92375e-15
6.77163e-10
-1.6189e-08
2.89705e-15
6.63663e-10
-1.68384e-08
2.86287e-15
6.49223e-10
-1.74724e-08
2.82218e-15
6.3386e-10
-1.80901e-08
2.77782e-15
6.17594e-10
-1.86907e-08
2.72911e-15
6.00447e-10
-1.92733e-08
2.67727e-15
5.82444e-10
-1.98371e-08
2.62358e-15
5.63614e-10
-2.03812e-08
2.56827e-15
5.43988e-10
-2.09049e-08
2.51231e-15
5.23602e-10
-2.14076e-08
2.45603e-15
5.02495e-10
-2.18884e-08
2.40115e-15
4.8071e-10
-2.23468e-08
2.34747e-15
4.58292e-10
-2.27823e-08
2.29553e-15
4.35289e-10
-2.31941e-08
2.24586e-15
4.11752e-10
-2.3582e-08
2.19891e-15
3.87733e-10
-2.39454e-08
2.15509e-15
3.63289e-10
-2.4284e-08
2.11335e-15
3.38474e-10
-2.45975e-08
2.07398e-15
3.13348e-10
-2.48856e-08
2.03711e-15
2.87967e-10
-2.51482e-08
2.00274e-15
2.62392e-10
-2.5385e-08
1.97096e-15
2.36681e-10
-2.5596e-08
1.94201e-15
2.10892e-10
-2.57812e-08
1.91588e-15
1.85085e-10
-2.59407e-08
1.89169e-15
1.59317e-10
-2.60745e-08
1.87055e-15
1.33644e-10
-2.61827e-08
1.8494e-15
1.08123e-10
-2.62657e-08
1.82956e-15
8.28089e-11
-2.63236e-08
1.80852e-15
5.77534e-11
-2.63567e-08
1.78759e-15
3.30044e-11
-2.63655e-08
1.76331e-15
8.60745e-12
-2.63502e-08
1.74292e-15
-1.53958e-11
-2.63114e-08
1.72655e-15
-3.89707e-11
-2.62494e-08
1.70855e-15
-6.2085e-11
-2.61649e-08
1.69185e-15
-8.47045e-11
-2.60582e-08
1.67732e-15
-1.06793e-10
-2.59301e-08
1.66637e-15
-1.28314e-10
-2.5781e-08
1.65954e-15
-1.49238e-10
-2.56116e-08
1.65606e-15
-1.69537e-10
-2.54225e-08
1.65736e-15
-1.89185e-10
-2.52145e-08
1.66159e-15
-2.08163e-10
-2.49882e-08
1.6694e-15
-2.26451e-10
-2.47443e-08
1.68078e-15
-2.44034e-10
-2.44836e-08
1.69563e-15
-2.60899e-10
-2.42067e-08
1.71298e-15
-2.77035e-10
-2.39144e-08
1.73282e-15
-2.92433e-10
-2.36075e-08
1.75558e-15
-3.07087e-10
-2.32867e-08
1.7803e-15
-3.20993e-10
-2.29527e-08
1.80773e-15
-3.34149e-10
-2.26063e-08
1.83798e-15
-3.46556e-10
-2.22482e-08
1.87061e-15
-3.58214e-10
-2.18793e-08
1.9065e-15
-3.69128e-10
-2.15001e-08
1.94499e-15
-3.79302e-10
-2.11115e-08
1.98554e-15
-3.88744e-10
-2.07142e-08
2.02966e-15
-3.97461e-10
-2.03089e-08
2.07466e-15
-4.05464e-10
-1.98963e-08
2.12138e-15
-4.12763e-10
-1.94771e-08
2.17039e-15
-4.1937e-10
-1.9052e-08
2.22005e-15
-4.253e-10
-1.86216e-08
2.27144e-15
-4.30565e-10
-1.81866e-08
2.32283e-15
-4.35183e-10
-1.77476e-08
2.37552e-15
-4.39168e-10
-1.73053e-08
2.42789e-15
-4.42539e-10
-1.68601e-08
2.48199e-15
-4.45312e-10
-1.64128e-08
2.53511e-15
-4.47507e-10
-1.59638e-08
2.58943e-15
-4.49142e-10
-1.55138e-08
2.64429e-15
-4.50237e-10
-1.50632e-08
2.70024e-15
-4.50812e-10
-1.46125e-08
2.75532e-15
-4.50888e-10
-1.41622e-08
2.81083e-15
-4.50486e-10
-1.37127e-08
2.86667e-15
-4.49626e-10
-1.32646e-08
2.92142e-15
-4.4833e-10
-1.28182e-08
2.97617e-15
-4.46619e-10
-1.23739e-08
3.02963e-15
-4.44515e-10
-1.1932e-08
3.08232e-15
-4.42039e-10
-1.1493e-08
3.13393e-15
-4.39213e-10
-1.10572e-08
3.18359e-15
-4.36058e-10
-1.06248e-08
3.23162e-15
-4.32595e-10
-1.01962e-08
3.27803e-15
-4.28845e-10
-9.77155e-09
3.32183e-15
-4.24828e-10
-9.3512e-09
3.36412e-15
-4.20565e-10
-8.93535e-09
3.40489e-15
-4.16076e-10
-8.52419e-09
3.44175e-15
-4.11379e-10
-8.11792e-09
3.47645e-15
-4.06492e-10
-7.71671e-09
3.50811e-15
-4.01435e-10
-7.32072e-09
3.53587e-15
-3.96224e-10
-6.93007e-09
3.56233e-15
-3.90875e-10
-6.54491e-09
3.58489e-15
-3.85404e-10
-6.16532e-09
3.60376e-15
-3.79825e-10
-5.79141e-09
3.61937e-15
-3.74151e-10
-5.42325e-09
3.63152e-15
-3.68395e-10
-5.06093e-09
3.6402e-15
-3.62568e-10
-4.70449e-09
3.64584e-15
-3.56679e-10
-4.354e-09
3.64715e-15
-3.50738e-10
-4.0095e-09
3.64477e-15
-3.4475e-10
-3.67103e-09
3.63914e-15
-3.38722e-10
-3.33863e-09
3.63199e-15
-3.32658e-10
-3.01233e-09
3.6218e-15
-3.26559e-10
-2.69216e-09
3.60858e-15
-3.20427e-10
-2.37816e-09
3.59363e-15
-3.14261e-10
-2.07036e-09
3.57564e-15
-3.08058e-10
-1.76881e-09
3.55504e-15
-3.01814e-10
-1.47356e-09
3.53228e-15
-2.95523e-10
-1.18464e-09
3.50952e-15
-2.89179e-10
-9.02137e-10
3.48589e-15
-2.82775e-10
-6.26098e-10
3.45966e-15
-2.76309e-10
-3.56579e-10
3.43191e-15
-2.69791e-10
-9.35976e-11
3.4022e-15
-2.63254e-10
1.62697e-10
3.35233e-15
-2.56569e-10
4.12048e-10
3.28534e-15
-2.49626e-10
6.54266e-10
3.22636e-15
-2.42493e-10
8.89165e-10
3.17129e-15
-2.35174e-10
1.11654e-09
3.12056e-15
-2.2765e-10
1.33617e-09
3.07698e-15
-2.19899e-10
1.54779e-09
3.03969e-15
-2.11897e-10
1.75113e-09
3.00803e-15
-2.03616e-10
1.94589e-09
2.98375e-15
-1.95032e-10
2.13174e-09
2.96597e-15
-1.86119e-10
2.30831e-09
2.95404e-15
-1.76851e-10
2.47524e-09
2.94927e-15
-1.67205e-10
2.63213e-09
2.95209e-15
-1.57158e-10
2.77854e-09
2.96466e-15
-1.46688e-10
2.91404e-09
2.98395e-15
-1.35775e-10
3.03817e-09
3.01322e-15
-1.24405e-10
3.15046e-09
3.05268e-15
-1.12562e-10
3.25042e-09
3.10037e-15
-1.00237e-10
3.33757e-09
3.16021e-15
-8.74241e-11
3.41141e-09
3.23305e-15
-7.41218e-11
3.47146e-09
3.31717e-15
-6.03346e-11
3.51726e-09
3.41321e-15
-4.60738e-11
3.54833e-09
3.52291e-15
-3.13587e-11
3.56426e-09
3.64628e-15
-1.62178e-11
3.56467e-09
3.77353e-15
-6.93215e-13
3.54917e-09
3.92849e-15
1.52092e-11
3.5174e-09
4.10864e-15
3.14714e-11
3.46908e-09
4.29661e-15
4.80258e-11
3.40397e-09
4.49823e-15
6.48087e-11
3.32191e-09
4.71395e-15
8.17457e-11
3.22285e-09
4.94462e-15
9.87525e-11
3.1068e-09
5.18786e-15
1.15733e-10
2.9739e-09
5.44672e-15
1.32582e-10
2.82439e-09
5.71771e-15
1.49177e-10
2.65867e-09
6.00171e-15
1.65385e-10
2.47727e-09
6.30088e-15
1.81058e-10
2.28089e-09
6.62e-15
1.9603e-10
2.07042e-09
6.96036e-15
2.10119e-10
1.84693e-09
7.32458e-15
2.23119e-10
1.61175e-09
7.71871e-15
2.34806e-10
1.36643e-09
8.138e-15
2.44926e-10
1.11284e-09
8.58503e-15
2.53197e-10
8.53127e-10
9.04855e-15
2.59298e-10
5.89832e-10
9.52031e-15
2.62871e-10
3.25896e-10
9.9938e-15
2.63497e-10
6.47326e-11
1.0456e-14
2.60709e-10
-1.89569e-10
1.08385e-14
2.53831e-10
-4.32222e-10
1.11524e-14
2.42168e-10
-6.57764e-10
1.14733e-14
2.25044e-10
-8.59982e-10
1.17899e-14
2.01705e-10
-1.03167e-09
1.20883e-14
1.71161e-10
-1.16441e-09
1.23646e-14
1.32187e-10
-1.24867e-09
1.26336e-14
8.36991e-11
-1.27398e-09
1.29356e-14
2.47291e-11
-1.22982e-09
1.32865e-14
-4.47719e-11
-1.1074e-09
1.37431e-14
-1.23059e-10
-9.0334e-10
1.43814e-14
-2.04736e-10
-6.27919e-10
1.51891e-14
-2.76138e-10
-3.22637e-10
1.58265e-14
-3.06059e-10
-8.04954e-11
1.65635e-14
-2.43014e-10
7.52456e-15
-8.14616e-11
3.96252e-10
-3.96573e-10
1.00728e-09
-6.11867e-10
1.53323e-09
-5.26421e-10
1.84741e-09
-3.14555e-10
1.94467e-09
-9.75909e-11
1.8533e-09
9.10708e-11
1.60828e-09
2.44739e-10
1.2419e-09
3.66116e-10
7.80566e-10
4.61081e-10
2.45235e-10
5.35089e-10
-3.47366e-10
5.92368e-10
-9.83909e-10
6.36318e-10
-1.65417e-09
6.70047e-10
-2.35032e-09
6.95934e-10
-3.06614e-09
7.15622e-10
-3.79671e-09
7.30369e-10
-4.53803e-09
7.4113e-10
-5.28685e-09
7.48636e-10
-6.04048e-09
7.53447e-10
-6.79665e-09
7.55991e-10
-7.55343e-09
7.56596e-10
-8.30911e-09
7.55512e-10
-9.0622e-09
7.52927e-10
-9.81136e-09
7.48985e-10
-1.05553e-08
7.43793e-10
-1.12929e-08
7.3743e-10
-1.2023e-08
7.29957e-10
-1.27446e-08
7.21418e-10
-1.34566e-08
7.11844e-10
-1.4158e-08
7.01261e-10
-1.48479e-08
6.89689e-10
-1.55252e-08
6.77145e-10
-1.6189e-08
6.63645e-10
-1.68383e-08
6.49205e-10
-1.74723e-08
6.33842e-10
-1.80901e-08
6.17576e-10
-1.86907e-08
6.00428e-10
-1.92732e-08
5.82425e-10
-1.9837e-08
5.63595e-10
-2.03811e-08
5.43969e-10
-2.09049e-08
5.23583e-10
-2.14075e-08
5.02476e-10
-2.18883e-08
4.80691e-10
-2.23468e-08
4.58272e-10
-2.27822e-08
4.35269e-10
-2.31941e-08
4.11732e-10
-2.35819e-08
3.87713e-10
-2.39454e-08
3.63269e-10
-2.4284e-08
3.38454e-10
-2.45975e-08
3.13327e-10
-2.48856e-08
2.87947e-10
-2.51481e-08
2.62371e-10
-2.53849e-08
2.3666e-10
-2.55959e-08
2.10871e-10
-2.57812e-08
1.85064e-10
-2.59406e-08
1.59295e-10
-2.60744e-08
1.33622e-10
-2.61826e-08
1.08101e-10
-2.62656e-08
8.2787e-11
-2.63235e-08
5.77312e-11
-2.63566e-08
3.29821e-11
-2.63654e-08
8.58495e-12
-2.63501e-08
-1.54185e-11
-2.63113e-08
-3.89936e-11
-2.62494e-08
-6.21081e-11
-2.61648e-08
-8.47277e-11
-2.60582e-08
-1.06816e-10
-2.593e-08
-1.28338e-10
-2.57809e-08
-1.49262e-10
-2.56115e-08
-1.69561e-10
-2.54225e-08
-1.8921e-10
-2.52145e-08
-2.08187e-10
-2.49882e-08
-2.26476e-10
-2.47443e-08
-2.44059e-10
-2.44835e-08
-2.60924e-10
-2.42066e-08
-2.7706e-10
-2.39144e-08
-2.92458e-10
-2.36074e-08
-3.07112e-10
-2.32866e-08
-3.21019e-10
-2.29526e-08
-3.34175e-10
-2.26062e-08
-3.46582e-10
-2.22482e-08
-3.5824e-10
-2.18792e-08
-3.69154e-10
-2.15001e-08
-3.79329e-10
-2.11115e-08
-3.88771e-10
-2.07142e-08
-3.97488e-10
-2.03089e-08
-4.05491e-10
-1.98963e-08
-4.1279e-10
-1.94771e-08
-4.19398e-10
-1.9052e-08
-4.25328e-10
-1.86216e-08
-4.30594e-10
-1.81866e-08
-4.35212e-10
-1.77476e-08
-4.39197e-10
-1.73052e-08
-4.42568e-10
-1.68601e-08
-4.45342e-10
-1.64128e-08
-4.47536e-10
-1.59638e-08
-4.49172e-10
-1.55137e-08
-4.50267e-10
-1.50631e-08
-4.50843e-10
-1.46124e-08
-4.50919e-10
-1.41621e-08
-4.50517e-10
-1.37127e-08
-4.49658e-10
-1.32646e-08
-4.48362e-10
-1.28181e-08
-4.46652e-10
-1.23738e-08
-4.44548e-10
-1.1932e-08
-4.42073e-10
-1.1493e-08
-4.39247e-10
-1.10571e-08
-4.36092e-10
-1.06248e-08
-4.32629e-10
-1.01961e-08
-4.2888e-10
-9.77151e-09
-4.24864e-10
-9.35116e-09
-4.20601e-10
-8.9353e-09
-4.16112e-10
-8.52415e-09
-4.11415e-10
-8.11788e-09
-4.06529e-10
-7.71667e-09
-4.01472e-10
-7.32068e-09
-3.96262e-10
-6.93003e-09
-3.90913e-10
-6.54486e-09
-3.85442e-10
-6.16528e-09
-3.79863e-10
-5.79136e-09
-3.7419e-10
-5.42321e-09
-3.68435e-10
-5.06089e-09
-3.62608e-10
-4.70445e-09
-3.5672e-10
-4.35396e-09
-3.50778e-10
-4.00947e-09
-3.44791e-10
-3.671e-09
-3.38763e-10
-3.33859e-09
-3.32699e-10
-3.01229e-09
-3.26601e-10
-2.69212e-09
-3.20469e-10
-2.37812e-09
-3.14303e-10
-2.07033e-09
-3.08101e-10
-1.76878e-09
-3.01857e-10
-1.47352e-09
-2.95566e-10
-1.18461e-09
-2.89223e-10
-9.021e-10
-2.82819e-10
-6.26062e-10
-2.76353e-10
-3.56543e-10
-2.69835e-10
-9.35621e-11
-2.63299e-10
1.62732e-10
-2.56614e-10
4.12084e-10
-2.49671e-10
6.54302e-10
-2.42537e-10
8.89201e-10
-2.35218e-10
1.11658e-09
-2.27694e-10
1.3362e-09
-2.19943e-10
1.54782e-09
-2.11941e-10
1.75117e-09
-2.0366e-10
1.94593e-09
-1.95076e-10
2.13177e-09
-1.86163e-10
2.30835e-09
-1.76895e-10
2.47528e-09
-1.67249e-10
2.63216e-09
-1.57201e-10
2.77858e-09
-1.46731e-10
2.91408e-09
-1.35819e-10
3.03821e-09
-1.24449e-10
3.15049e-09
-1.12606e-10
3.25046e-09
-1.00281e-10
3.3376e-09
-8.7468e-11
3.41145e-09
-7.41658e-11
3.4715e-09
-6.03787e-11
3.51729e-09
-4.6118e-11
3.54837e-09
-3.14031e-11
3.5643e-09
-1.62625e-11
3.5647e-09
-7.38089e-13
3.5492e-09
1.5164e-11
3.51744e-09
3.14258e-11
3.46911e-09
4.79797e-11
3.404e-09
6.47621e-11
3.32195e-09
8.16986e-11
3.22288e-09
9.87047e-11
3.10683e-09
1.15685e-10
2.97393e-09
1.32532e-10
2.82442e-09
1.49127e-10
2.6587e-09
1.65334e-10
2.4773e-09
1.81006e-10
2.28092e-09
1.95977e-10
2.07044e-09
2.10065e-10
1.84696e-09
2.23064e-10
1.61177e-09
2.34749e-10
1.36646e-09
2.44868e-10
1.11286e-09
2.53136e-10
8.53147e-10
2.59237e-10
5.8985e-10
2.62807e-10
3.25913e-10
2.63431e-10
6.47473e-11
2.60641e-10
-1.89556e-10
2.53761e-10
-4.3221e-10
2.42096e-10
-6.57755e-10
2.2497e-10
-8.59974e-10
2.01628e-10
-1.03167e-09
1.71083e-10
-1.1644e-09
1.32105e-10
-1.24867e-09
8.36139e-11
-1.27399e-09
2.464e-11
-1.22983e-09
-4.48655e-11
-1.10741e-09
-1.23158e-10
-9.03354e-10
-2.04841e-10
-6.27943e-10
-2.7625e-10
-3.22681e-10
-3.06179e-10
-8.05754e-11
-2.43146e-10
-8.15912e-11
6.13231e-10
3.78056e-16
-1.01037e-09
1.00855e-09
-1.58645e-17
-1.00788e-09
1.1893e-09
2.31035e-15
-7.07516e-10
1.20864e-09
1.67255e-15
-3.34171e-10
1.08788e-09
1.40126e-15
2.292e-11
8.45401e-10
1.22458e-15
3.33314e-10
4.99092e-10
1.15622e-15
5.9083e-10
6.56385e-11
1.11778e-15
7.99363e-10
-4.39574e-10
1.06283e-15
9.66095e-10
-1.00303e-09
1.00114e-15
1.09835e-09
-1.61351e-09
9.41898e-16
1.20267e-09
-2.26177e-09
8.80178e-16
1.2844e-09
-2.94007e-09
8.14511e-16
1.34817e-09
-3.64196e-09
7.4934e-16
1.39766e-09
-4.36215e-09
6.89543e-16
1.43564e-09
-5.09626e-09
6.35877e-16
1.46432e-09
-5.84067e-09
5.90672e-16
1.48538e-09
-6.59231e-09
5.55499e-16
1.50013e-09
-7.34863e-09
5.31823e-16
1.50961e-09
-8.10741e-09
5.19099e-16
1.51462e-09
-8.86673e-09
5.13697e-16
1.51578e-09
-9.62492e-09
5.11007e-16
1.51355e-09
-1.03805e-08
5.06368e-16
1.50832e-09
-1.1132e-08
4.97502e-16
1.50036e-09
-1.18782e-08
4.83108e-16
1.48989e-09
-1.2618e-08
4.64217e-16
1.47707e-09
-1.33502e-08
4.41586e-16
1.46201e-09
-1.40737e-08
4.16843e-16
1.44482e-09
-1.47876e-08
3.91261e-16
1.42557e-09
-1.54907e-08
3.6606e-16
1.4043e-09
-1.61822e-08
3.41863e-16
1.38106e-09
-1.68611e-08
3.20215e-16
1.35589e-09
-1.75264e-08
3.01279e-16
1.32882e-09
-1.81772e-08
2.85081e-16
1.29988e-09
-1.88126e-08
2.7154e-16
1.26912e-09
-1.94318e-08
2.60332e-16
1.23657e-09
-2.00337e-08
2.50507e-16
1.20227e-09
-2.06177e-08
2.4174e-16
1.16628e-09
-2.11829e-08
2.33895e-16
1.12866e-09
-2.17285e-08
2.26241e-16
1.08945e-09
-2.22538e-08
2.18777e-16
1.04874e-09
-2.27581e-08
2.1172e-16
1.0066e-09
-2.32406e-08
2.04556e-16
9.63112e-10
-2.37008e-08
1.97447e-16
9.18366e-10
-2.41381e-08
1.90392e-16
8.72454e-10
-2.4552e-08
1.83148e-16
8.25477e-10
-2.4942e-08
1.75851e-16
7.77537e-10
-2.53076e-08
1.68418e-16
7.28743e-10
-2.56484e-08
1.60498e-16
6.79204e-10
-2.59643e-08
1.52145e-16
6.29032e-10
-2.62548e-08
1.43467e-16
5.78344e-10
-2.65198e-08
1.34139e-16
5.27253e-10
-2.67592e-08
1.24757e-16
4.75875e-10
-2.69727e-08
1.15077e-16
4.24325e-10
-2.71605e-08
1.04882e-16
3.72719e-10
-2.73225e-08
9.41724e-17
3.21168e-10
-2.74588e-08
8.28126e-17
2.69784e-10
-2.75695e-08
7.06399e-17
2.18675e-10
-2.76548e-08
5.75728e-17
1.67947e-10
-2.77149e-08
4.36115e-17
1.17699e-10
-2.77501e-08
2.94876e-17
6.80286e-11
-2.77607e-08
1.5933e-17
1.90266e-11
-2.7747e-08
1.29386e-18
-2.92233e-11
-2.77095e-08
-1.38597e-17
-7.66452e-11
-2.76486e-08
-2.73327e-17
-1.23164e-10
-2.75647e-08
-3.97756e-17
-1.68709e-10
-2.74585e-08
-5.14595e-17
-2.13209e-10
-2.73303e-08
-6.19778e-17
-2.56601e-10
-2.71809e-08
-7.20082e-17
-2.98825e-10
-2.70108e-08
-8.13881e-17
-3.39828e-10
-2.68206e-08
-9.03072e-17
-3.79563e-10
-2.66109e-08
-9.9172e-17
-4.17988e-10
-2.63824e-08
-1.07874e-16
-4.55065e-10
-2.61359e-08
-1.16739e-16
-4.90762e-10
-2.58719e-08
-1.25658e-16
-5.25055e-10
-2.55912e-08
-1.34659e-16
-5.57919e-10
-2.52944e-08
-1.4393e-16
-5.89338e-10
-2.49824e-08
-1.53066e-16
-6.19299e-10
-2.46558e-08
-1.62311e-16
-6.47794e-10
-2.43153e-08
-1.71501e-16
-6.74816e-10
-2.39616e-08
-1.80529e-16
-7.00366e-10
-2.35956e-08
-1.89041e-16
-7.24446e-10
-2.32178e-08
-1.97527e-16
-7.47061e-10
-2.28291e-08
-2.05362e-16
-7.68222e-10
-2.243e-08
-2.13007e-16
-7.87941e-10
-2.20215e-08
-2.20544e-16
-8.06233e-10
-2.1604e-08
-2.28081e-16
-8.23117e-10
-2.11783e-08
-2.35672e-16
-8.38612e-10
-2.07451e-08
-2.43318e-16
-8.52741e-10
-2.03051e-08
-2.50774e-16
-8.65531e-10
-1.98588e-08
-2.58365e-16
-8.77008e-10
-1.9407e-08
-2.66037e-16
-8.872e-10
-1.89502e-08
-2.73818e-16
-8.96139e-10
-1.84891e-08
-2.81491e-16
-9.03857e-10
-1.80242e-08
-2.89218e-16
-9.10388e-10
-1.75561e-08
-2.96727e-16
-9.15767e-10
-1.70854e-08
-3.0402e-16
-9.20029e-10
-1.66127e-08
-3.11232e-16
-9.23213e-10
-1.61383e-08
-3.18118e-16
-9.25355e-10
-1.56629e-08
-3.24896e-16
-9.26496e-10
-1.51869e-08
-3.31403e-16
-9.26673e-10
-1.47108e-08
-3.3753e-16
-9.25928e-10
-1.42351e-08
-3.44036e-16
-9.243e-10
-1.37601e-08
-3.50326e-16
-9.2183e-10
-1.32862e-08
-3.56399e-16
-9.18559e-10
-1.28139e-08
-3.622e-16
-9.14528e-10
-1.23436e-08
-3.68327e-16
-9.09777e-10
-1.18755e-08
-3.74182e-16
-9.04346e-10
-1.14101e-08
-3.80091e-16
-8.98277e-10
-1.09475e-08
-3.86001e-16
-8.91607e-10
-1.04882e-08
-3.91639e-16
-8.84378e-10
-1.00324e-08
-3.97494e-16
-8.76626e-10
-9.58028e-09
-4.03131e-16
-8.68389e-10
-9.13219e-09
-4.08661e-16
-8.59705e-10
-8.68831e-09
-4.14244e-16
-8.50608e-10
-8.24884e-09
-4.19718e-16
-8.41133e-10
-7.81399e-09
-4.25247e-16
-8.31312e-10
-7.38393e-09
-4.30558e-16
-8.21177e-10
-6.95882e-09
-4.3587e-16
-8.10757e-10
-6.53881e-09
-4.40964e-16
-8.00081e-10
-6.12403e-09
-4.45787e-16
-7.89174e-10
-5.71462e-09
-4.50284e-16
-7.78059e-10
-5.31068e-09
-4.55053e-16
-7.66758e-10
-4.91232e-09
-4.59333e-16
-7.5529e-10
-4.51964e-09
-4.63558e-16
-7.43672e-10
-4.13273e-09
-4.67892e-16
-7.31917e-10
-3.75167e-09
-4.71684e-16
-7.20036e-10
-3.37655e-09
-4.7515e-16
-7.08036e-10
-3.00745e-09
-4.78291e-16
-6.95923e-10
-2.64444e-09
-4.81161e-16
-6.83698e-10
-2.28761e-09
-4.83921e-16
-6.7136e-10
-1.93703e-09
-4.86357e-16
-6.58905e-10
-1.59278e-09
-4.88792e-16
-6.46324e-10
-1.25497e-09
-4.90577e-16
-6.33607e-10
-9.23676e-10
-4.92199e-16
-6.20744e-10
-5.98999e-10
-4.94309e-16
-6.07723e-10
-2.81038e-10
-4.96528e-16
-5.94544e-10
3.00985e-11
-4.99342e-16
-5.81202e-10
3.34173e-10
-5.02265e-16
-5.67605e-10
6.30959e-10
-5.03181e-16
-5.53631e-10
9.20307e-10
-5.00304e-16
-5.39251e-10
1.20201e-09
-4.94933e-16
-5.24468e-10
1.47582e-09
-4.89888e-16
-5.09262e-10
1.74149e-09
-4.84517e-16
-4.93593e-10
1.99873e-09
-4.78714e-16
-4.77415e-10
2.24723e-09
-4.73019e-16
-4.60679e-10
2.48667e-09
-4.66729e-16
-4.43333e-10
2.71669e-09
-4.60602e-16
-4.25325e-10
2.9369e-09
-4.54367e-16
-4.06603e-10
3.14689e-09
-4.48241e-16
-3.87116e-10
3.34622e-09
-4.42062e-16
-3.66814e-10
3.53443e-09
-4.36047e-16
-3.45649e-10
3.71105e-09
-4.30195e-16
-3.23577e-10
3.87555e-09
-4.2467e-16
-3.00559e-10
4.02743e-09
-4.19092e-16
-2.76558e-10
4.16613e-09
-4.13949e-16
-2.51544e-10
4.29111e-09
-4.08916e-16
-2.25496e-10
4.4018e-09
-4.03939e-16
-1.98399e-10
4.49764e-09
-3.98856e-16
-1.70247e-10
4.57807e-09
-3.94316e-16
-1.41045e-10
4.64252e-09
-3.90375e-16
-1.10812e-10
4.69045e-09
-3.86545e-16
-7.95773e-11
4.72132e-09
-3.83042e-16
-4.73859e-11
4.73463e-09
-3.79431e-16
-1.42983e-11
4.72991e-09
-3.77222e-16
1.96318e-11
4.70675e-09
-3.76598e-16
5.43359e-11
4.66476e-09
-3.75491e-16
8.97064e-11
4.60364e-09
-3.75418e-16
1.25618e-10
4.52315e-09
-3.76758e-16
1.61925e-10
4.42312e-09
-3.80162e-16
1.98459e-10
4.3035e-09
-3.85197e-16
2.35029e-10
4.16433e-09
-3.92295e-16
2.71418e-10
4.00579e-09
-4.0135e-16
3.07384e-10
3.82817e-09
-4.12903e-16
3.42655e-10
3.63195e-09
-4.25003e-16
3.76929e-10
3.41774e-09
-4.37866e-16
4.09869e-10
3.18639e-09
-4.50625e-16
4.41102e-10
2.93891e-09
-4.6198e-16
4.70215e-10
2.67658e-09
-4.72905e-16
4.96746e-10
2.40092e-09
-4.82534e-16
5.20184e-10
2.11374e-09
-4.93359e-16
5.39957e-10
1.81718e-09
-5.06355e-16
5.55424e-10
1.51375e-09
-5.24125e-16
5.65862e-10
1.20634e-09
-5.47425e-16
5.70447e-10
8.98322e-10
-5.7669e-16
5.68248e-10
5.9354e-10
-6.04761e-16
5.58119e-10
2.96389e-10
-6.21228e-16
5.38811e-10
1.18983e-11
-6.33784e-16
5.09008e-10
-2.54032e-10
-6.50338e-16
4.6709e-10
-4.94748e-10
-6.74238e-16
4.11313e-10
-7.02973e-10
-7.03532e-16
3.39825e-10
-8.70631e-10
-7.34418e-16
2.50744e-10
-9.88993e-10
-7.5627e-16
1.42449e-10
-1.04884e-09
-7.49096e-16
1.43988e-11
-1.04118e-09
-6.93154e-16
-1.31439e-10
-9.5838e-10
-5.64169e-16
-2.88315e-10
-7.95486e-10
-3.1278e-16
-4.3989e-10
-5.51889e-10
1.39053e-17
-5.50652e-10
-2.44852e-10
4.51342e-16
-5.51289e-10
-8.14047e-15
-3.27172e-10
6.13106e-10
-1.01044e-09
1.00848e-09
-1.00792e-09
1.18925e-09
-7.07538e-10
1.20859e-09
-3.34182e-10
1.08784e-09
2.29122e-11
8.45373e-10
3.33307e-10
4.9907e-10
5.90824e-10
6.56217e-11
7.99356e-10
-4.39586e-10
9.66088e-10
-1.00304e-09
1.09834e-09
-1.61351e-09
1.20266e-09
-2.26177e-09
1.28439e-09
-2.94006e-09
1.34816e-09
-3.64195e-09
1.39765e-09
-4.36213e-09
1.43564e-09
-5.09624e-09
1.46431e-09
-5.84064e-09
1.48537e-09
-6.59229e-09
1.50012e-09
-7.3486e-09
1.50961e-09
-8.10738e-09
1.51462e-09
-8.8667e-09
1.51577e-09
-9.62488e-09
1.51355e-09
-1.03804e-08
1.50832e-09
-1.11319e-08
1.50036e-09
-1.18782e-08
1.48988e-09
-1.26179e-08
1.47706e-09
-1.33501e-08
1.46201e-09
-1.40736e-08
1.44482e-09
-1.47875e-08
1.42556e-09
-1.54907e-08
1.40429e-09
-1.61822e-08
1.38105e-09
-1.6861e-08
1.35588e-09
-1.75264e-08
1.32881e-09
-1.81772e-08
1.29988e-09
-1.88126e-08
1.26912e-09
-1.94317e-08
1.23657e-09
-2.00337e-08
1.20227e-09
-2.06177e-08
1.16628e-09
-2.11828e-08
1.12865e-09
-2.17285e-08
1.08945e-09
-2.22537e-08
1.04874e-09
-2.2758e-08
1.0066e-09
-2.32405e-08
9.63108e-10
-2.37008e-08
9.18361e-10
-2.41381e-08
8.7245e-10
-2.45519e-08
8.25472e-10
-2.49419e-08
7.77533e-10
-2.53075e-08
7.28738e-10
-2.56484e-08
6.79199e-10
-2.59642e-08
6.29028e-10
-2.62547e-08
5.78339e-10
-2.65197e-08
5.27248e-10
-2.67591e-08
4.7587e-10
-2.69727e-08
4.24321e-10
-2.71604e-08
3.72714e-10
-2.73225e-08
3.21164e-10
-2.74587e-08
2.6978e-10
-2.75694e-08
2.18671e-10
-2.76547e-08
1.67942e-10
-2.77148e-08
1.17694e-10
-2.775e-08
6.80237e-11
-2.77606e-08
1.90217e-11
-2.77469e-08
-2.92282e-11
-2.77094e-08
-7.66501e-11
-2.76485e-08
-1.23169e-10
-2.75646e-08
-1.68713e-10
-2.74584e-08
-2.13214e-10
-2.73303e-08
-2.56606e-10
-2.71808e-08
-2.9883e-10
-2.70107e-08
-3.39833e-10
-2.68205e-08
-3.79568e-10
-2.66108e-08
-4.17993e-10
-2.63824e-08
-4.5507e-10
-2.61358e-08
-4.90768e-10
-2.58718e-08
-5.2506e-10
-2.55911e-08
-5.57924e-10
-2.52944e-08
-5.89343e-10
-2.49823e-08
-6.19305e-10
-2.46557e-08
-6.47799e-10
-2.43152e-08
-6.74821e-10
-2.39616e-08
-7.00371e-10
-2.35955e-08
-7.24451e-10
-2.32177e-08
-7.47066e-10
-2.2829e-08
-7.68227e-10
-2.243e-08
-7.87946e-10
-2.20214e-08
-8.06238e-10
-2.16039e-08
-8.23122e-10
-2.11782e-08
-8.38617e-10
-2.07451e-08
-8.52746e-10
-2.0305e-08
-8.65536e-10
-1.98588e-08
-8.77012e-10
-1.94069e-08
-8.87205e-10
-1.89501e-08
-8.96144e-10
-1.8489e-08
-9.03862e-10
-1.80241e-08
-9.10393e-10
-1.75561e-08
-9.15772e-10
-1.70854e-08
-9.20034e-10
-1.66126e-08
-9.23218e-10
-1.61383e-08
-9.2536e-10
-1.56629e-08
-9.26501e-10
-1.51869e-08
-9.26678e-10
-1.47108e-08
-9.25933e-10
-1.4235e-08
-9.24305e-10
-1.376e-08
-9.21835e-10
-1.32862e-08
-9.18565e-10
-1.28139e-08
-9.14533e-10
-1.23436e-08
-9.09782e-10
-1.18755e-08
-9.04352e-10
-1.141e-08
-8.98282e-10
-1.09475e-08
-8.91613e-10
-1.04882e-08
-8.84383e-10
-1.00323e-08
-8.76631e-10
-9.58024e-09
-8.68395e-10
-9.13214e-09
-8.5971e-10
-8.68826e-09
-8.50614e-10
-8.2488e-09
-8.41138e-10
-7.81395e-09
-8.31318e-10
-7.38389e-09
-8.21183e-10
-6.95878e-09
-8.10763e-10
-6.53877e-09
-8.00087e-10
-6.12399e-09
-7.89179e-10
-5.71458e-09
-7.78065e-10
-5.31064e-09
-7.66764e-10
-4.91228e-09
-7.55296e-10
-4.5196e-09
-7.43678e-10
-4.13269e-09
-7.31923e-10
-3.75163e-09
-7.20042e-10
-3.37652e-09
-7.08042e-10
-3.00741e-09
-6.9593e-10
-2.64441e-09
-6.83705e-10
-2.28757e-09
-6.71367e-10
-1.93699e-09
-6.58911e-10
-1.59275e-09
-6.4633e-10
-1.25494e-09
-6.33614e-10
-9.23641e-10
-6.20751e-10
-5.98965e-10
-6.0773e-10
-2.81003e-10
-5.94551e-10
3.01325e-11
-5.81209e-10
3.34207e-10
-5.67612e-10
6.30993e-10
-5.53639e-10
9.20341e-10
-5.39258e-10
1.20204e-09
-5.24475e-10
1.47585e-09
-5.09269e-10
1.74152e-09
-4.936e-10
1.99876e-09
-4.77423e-10
2.24727e-09
-4.60687e-10
2.48671e-09
-4.43341e-10
2.71672e-09
-4.25333e-10
2.93693e-09
-4.06611e-10
3.14692e-09
-3.87123e-10
3.34625e-09
-3.66821e-10
3.53447e-09
-3.45657e-10
3.71108e-09
-3.23585e-10
3.87558e-09
-3.00567e-10
4.02746e-09
-2.76565e-10
4.16616e-09
-2.51552e-10
4.29114e-09
-2.25504e-10
4.40183e-09
-1.98407e-10
4.49767e-09
-1.70255e-10
4.5781e-09
-1.41053e-10
4.64255e-09
-1.1082e-10
4.69048e-09
-7.95849e-11
4.72136e-09
-4.73935e-11
4.73467e-09
-1.43057e-11
4.72994e-09
1.96244e-11
4.70678e-09
5.43285e-11
4.66479e-09
8.96991e-11
4.60367e-09
1.25611e-10
4.52318e-09
1.61918e-10
4.42315e-09
1.98452e-10
4.30353e-09
2.35022e-10
4.16436e-09
2.71411e-10
4.00581e-09
3.07377e-10
3.8282e-09
3.42648e-10
3.63197e-09
3.76922e-10
3.41777e-09
4.09862e-10
3.18641e-09
4.41096e-10
2.93894e-09
4.70208e-10
2.6766e-09
4.9674e-10
2.40094e-09
5.20178e-10
2.11376e-09
5.39951e-10
1.8172e-09
5.55417e-10
1.51377e-09
5.65855e-10
1.20635e-09
5.7044e-10
8.98335e-10
5.68241e-10
5.93552e-10
5.58112e-10
2.96399e-10
5.38803e-10
1.19077e-11
5.08999e-10
-2.54024e-10
4.6708e-10
-4.94742e-10
4.11303e-10
-7.02968e-10
3.39813e-10
-8.70627e-10
2.5073e-10
-9.88992e-10
1.42434e-10
-1.04884e-09
1.43807e-11
-1.04118e-09
-1.3146e-10
-9.58386e-10
-2.88341e-10
-7.955e-10
-4.3992e-10
-5.51922e-10
-5.50689e-10
-2.44936e-10
-5.51334e-10
-3.2722e-10
5.09435e-10
3.88785e-15
-1.52024e-09
6.86226e-10
1.2885e-15
-1.18508e-09
6.63799e-10
2.39593e-15
-6.85223e-10
5.21408e-10
1.7668e-15
-1.91877e-10
2.86519e-10
1.51317e-15
2.57729e-10
-2.80751e-11
1.29885e-15
6.47837e-10
-4.13563e-10
1.16165e-15
9.76253e-10
-8.61693e-10
1.04285e-15
1.24743e-09
-1.3643e-09
9.25602e-16
1.46864e-09
-1.91354e-09
8.36965e-16
1.64754e-09
-2.50218e-09
7.73544e-16
1.79125e-09
-3.12377e-09
7.12378e-16
1.90594e-09
-3.77255e-09
6.46094e-16
1.99689e-09
-4.44341e-09
5.84205e-16
2.06847e-09
-5.13198e-09
5.34598e-16
2.12416e-09
-5.83447e-09
4.97977e-16
2.16676e-09
-6.54763e-09
4.70574e-16
2.19849e-09
-7.26865e-09
4.48864e-16
2.22111e-09
-7.9951e-09
4.31439e-16
2.23601e-09
-8.72483e-09
4.17485e-16
2.24431e-09
-9.45596e-09
4.05836e-16
2.24686e-09
-1.01868e-08
3.94866e-16
2.24435e-09
-1.09158e-08
3.82595e-16
2.23731e-09
-1.16416e-08
3.68402e-16
2.22614e-09
-1.2363e-08
3.52095e-16
2.21116e-09
-1.30786e-08
3.34461e-16
2.19263e-09
-1.37873e-08
3.16529e-16
2.17072e-09
-1.44881e-08
2.99249e-16
2.14558e-09
-1.51799e-08
2.83433e-16
2.11732e-09
-1.58617e-08
2.69814e-16
2.08603e-09
-1.65324e-08
2.58851e-16
2.05177e-09
-1.71912e-08
2.5079e-16
2.01461e-09
-1.78371e-08
2.45629e-16
1.97462e-09
-1.8469e-08
2.43288e-16
1.93183e-09
-1.90863e-08
2.43306e-16
1.88631e-09
-1.96879e-08
2.4537e-16
1.83812e-09
-2.0273e-08
2.48791e-16
1.78732e-09
-2.08407e-08
2.53201e-16
1.73401e-09
-2.13904e-08
2.58452e-16
1.67824e-09
-2.19211e-08
2.6407e-16
1.62013e-09
-2.24322e-08
2.69959e-16
1.55978e-09
-2.29229e-08
2.75808e-16
1.49729e-09
-2.33926e-08
2.81603e-16
1.43279e-09
-2.38407e-08
2.86965e-16
1.36641e-09
-2.42666e-08
2.91934e-16
1.29828e-09
-2.46697e-08
2.96361e-16
1.22856e-09
-2.50496e-08
3.0026e-16
1.15739e-09
-2.54059e-08
3.03577e-16
1.08493e-09
-2.5738e-08
3.06352e-16
1.01135e-09
-2.60459e-08
3.08409e-16
9.36805e-10
-2.6329e-08
3.1006e-16
8.61467e-10
-2.65873e-08
3.1106e-16
7.85507e-10
-2.68206e-08
3.11451e-16
7.09093e-10
-2.70287e-08
3.1111e-16
6.32395e-10
-2.72116e-08
3.09929e-16
5.55583e-10
-2.73693e-08
3.07772e-16
4.78821e-10
-2.75019e-08
3.04802e-16
4.02274e-10
-2.76093e-08
3.00993e-16
3.26101e-10
-2.76919e-08
2.96682e-16
2.50455e-10
-2.77497e-08
2.91978e-16
1.75486e-10
-2.77831e-08
2.87206e-16
1.01336e-10
-2.77923e-08
2.82773e-16
2.81397e-11
-2.77775e-08
2.78734e-16
-4.39756e-11
-2.77394e-08
2.75019e-16
-1.14889e-10
-2.76781e-08
2.72037e-16
-1.84486e-10
-2.75942e-08
2.69475e-16
-2.52658e-10
-2.74881e-08
2.67346e-16
-3.19304e-10
-2.73605e-08
2.65638e-16
-3.8433e-10
-2.72117e-08
2.6393e-16
-4.47648e-10
-2.70424e-08
2.62222e-16
-5.09179e-10
-2.68531e-08
2.60486e-16
-5.68852e-10
-2.66446e-08
2.58426e-16
-6.26605e-10
-2.64173e-08
2.56081e-16
-6.82381e-10
-2.6172e-08
2.53532e-16
-7.36132e-10
-2.59093e-08
2.50645e-16
-7.87818e-10
-2.56298e-08
2.47365e-16
-8.37405e-10
-2.53344e-08
2.43976e-16
-8.84866e-10
-2.50235e-08
2.40398e-16
-9.30179e-10
-2.46981e-08
2.36751e-16
-9.73331e-10
-2.43586e-08
2.33065e-16
-1.01431e-09
-2.40059e-08
2.29418e-16
-1.05312e-09
-2.36406e-08
2.25935e-16
-1.08976e-09
-2.32635e-08
2.22668e-16
-1.12424e-09
-2.28752e-08
2.19578e-16
-1.15656e-09
-2.24765e-08
2.16582e-16
-1.18676e-09
-2.20679e-08
2.13641e-16
-1.21484e-09
-2.16502e-08
2.10577e-16
-1.24083e-09
-2.12241e-08
2.07677e-16
-1.26477e-09
-2.07903e-08
2.04912e-16
-1.28668e-09
-2.03492e-08
2.02079e-16
-1.30661e-09
-1.99017e-08
1.99191e-16
-1.32458e-09
-1.94483e-08
1.96508e-16
-1.34064e-09
-1.89897e-08
1.93878e-16
-1.35484e-09
-1.85264e-08
1.91303e-16
-1.36722e-09
-1.8059e-08
1.88999e-16
-1.37783e-09
-1.75881e-08
1.86776e-16
-1.38672e-09
-1.71142e-08
1.84878e-16
-1.39394e-09
-1.66379e-08
1.83143e-16
-1.39955e-09
-1.61598e-08
1.81734e-16
-1.4036e-09
-1.56802e-08
1.80487e-16
-1.40614e-09
-1.51997e-08
1.79511e-16
-1.40724e-09
-1.47187e-08
1.78752e-16
-1.40694e-09
-1.42377e-08
1.7821e-16
-1.40532e-09
-1.37572e-08
1.7775e-16
-1.40242e-09
-1.32775e-08
1.77723e-16
-1.39832e-09
-1.2799e-08
1.77886e-16
-1.39305e-09
-1.23222e-08
1.78212e-16
-1.38669e-09
-1.18473e-08
1.78646e-16
-1.3793e-09
-1.13747e-08
1.7946e-16
-1.37092e-09
-1.09048e-08
1.80382e-16
-1.36162e-09
-1.04377e-08
1.81495e-16
-1.35146e-09
-9.97392e-09
1.82878e-16
-1.34049e-09
-9.5136e-09
1.84343e-16
-1.32877e-09
-9.05702e-09
1.86025e-16
-1.31634e-09
-8.60443e-09
1.88032e-16
-1.30327e-09
-8.15603e-09
1.90094e-16
-1.28959e-09
-7.71204e-09
1.92481e-16
-1.27536e-09
-7.27265e-09
1.94868e-16
-1.26063e-09