/*--------------------------------*- C++ -*----------------------------------*\
  =========                 |
  \\      /  F ield         | OpenFOAM: The Open Source CFD Toolbox
   \\    /   O peration     | Website:  https://openfoam.org
    \\  /    A nd           | Version:  8
     \\/     M anipulation  |
\*---------------------------------------------------------------------------*/
FoamFile
{
    version     2.0;
    format      ascii;
    class       volScalarField;
    location    "2900";
    object      T;
}
// * * * * * * * * * * * * * * * * * * * * * * * * * * * * * * * * * * * * * //

dimensions      [0 0 0 1 0 0 0];

internalField   nonuniform List<scalar> 
46000
(
310.58
309.649
308.887
308.374
308
307.703
307.455
307.243
307.055
306.888
306.736
306.597
306.469
306.351
306.242
306.139
306.044
305.954
305.869
305.79
305.715
305.644
305.578
305.515
305.455
305.399
305.345
305.295
305.247
305.201
305.158
305.117
305.079
305.042
305.007
304.974
304.943
304.913
304.885
304.859
304.834
304.81
304.788
304.767
304.747
304.728
304.711
304.695
304.68
304.666
304.653
304.641
304.63
304.62
304.611
304.603
304.596
304.59
304.585
304.581
304.578
304.575
304.574
304.573
304.573
304.574
304.575
304.578
304.581
304.586
304.591
304.597
304.604
304.612
304.62
304.629
304.639
304.65
304.662
304.674
304.688
304.701
304.716
304.731
304.748
304.764
304.782
304.8
304.818
304.838
304.858
304.878
304.899
304.921
304.943
304.966
304.99
305.013
305.038
305.062
305.087
305.113
305.139
305.165
305.192
305.219
305.247
305.274
305.303
305.331
305.36
305.388
305.418
305.447
305.477
305.507
305.537
305.567
305.597
305.628
305.659
305.69
305.721
305.753
305.784
305.816
305.848
305.88
305.913
305.946
305.979
306.012
306.045
306.079
306.114
306.148
306.183
306.218
306.254
306.291
306.327
306.365
306.402
306.441
306.48
306.52
306.56
306.601
306.643
306.686
306.73
306.775
306.82
306.867
306.915
306.963
307.013
307.064
307.117
307.17
307.225
307.281
307.339
307.398
307.457
307.519
307.581
307.645
307.71
307.777
307.845
307.915
307.987
308.06
308.134
308.21
308.287
308.367
308.447
308.53
308.614
308.699
308.787
308.877
308.969
309.063
309.161
309.261
309.366
309.475
309.59
309.714
309.848
309.996
310.164
310.363
310.611
310.937
311.354
311.713
310.58
309.649
308.887
308.374
308
307.703
307.455
307.243
307.055
306.888
306.736
306.597
306.469
306.351
306.242
306.139
306.044
305.954
305.869
305.79
305.715
305.644
305.578
305.515
305.455
305.399
305.345
305.295
305.247
305.201
305.158
305.118
305.079
305.042
305.007
304.974
304.943
304.913
304.885
304.859
304.834
304.81
304.788
304.767
304.747
304.728
304.711
304.695
304.68
304.666
304.653
304.641
304.63
304.62
304.611
304.603
304.596
304.59
304.585
304.581
304.578
304.575
304.574
304.573
304.573
304.574
304.575
304.578
304.581
304.586
304.591
304.597
304.604
304.612
304.62
304.629
304.639
304.65
304.662
304.674
304.688
304.701
304.716
304.731
304.748
304.764
304.782
304.8
304.818
304.838
304.858
304.878
304.899
304.921
304.943
304.966
304.99
305.013
305.038
305.062
305.087
305.113
305.139
305.165
305.192
305.219
305.247
305.274
305.303
305.331
305.36
305.388
305.418
305.447
305.477
305.507
305.537
305.567
305.597
305.628
305.659
305.69
305.721
305.753
305.784
305.816
305.848
305.88
305.913
305.946
305.979
306.012
306.045
306.079
306.114
306.148
306.183
306.218
306.254
306.291
306.327
306.365
306.403
306.441
306.48
306.52
306.56
306.601
306.643
306.686
306.73
306.775
306.82
306.867
306.915
306.963
307.013
307.064
307.117
307.17
307.225
307.281
307.339
307.398
307.457
307.519
307.581
307.645
307.71
307.777
307.846
307.915
307.987
308.06
308.134
308.21
308.287
308.367
308.447
308.53
308.614
308.699
308.787
308.877
308.969
309.063
309.161
309.261
309.366
309.475
309.59
309.714
309.848
309.996
310.164
310.363
310.611
310.937
311.354
311.713
307.134
306.633
306.236
305.934
305.694
305.497
305.33
305.185
305.056
304.939
304.834
304.737
304.648
304.566
304.49
304.418
304.352
304.289
304.231
304.176
304.125
304.076
304.031
303.988
303.947
303.909
303.872
303.838
303.806
303.775
303.746
303.718
303.692
303.667
303.643
303.621
303.6
303.579
303.56
303.541
303.524
303.507
303.491
303.476
303.461
303.447
303.434
303.422
303.41
303.399
303.388
303.378
303.368
303.359
303.351
303.343
303.335
303.328
303.322
303.316
303.31
303.305
303.301
303.297
303.293
303.29
303.288
303.286
303.284
303.283
303.283
303.282
303.283
303.284
303.285
303.287
303.289
303.292
303.296
303.299
303.304
303.309
303.314
303.319
303.326
303.332
303.339
303.347
303.355
303.363
303.372
303.381
303.391
303.401
303.411
303.422
303.433
303.445
303.457
303.469
303.482
303.495
303.509
303.522
303.537
303.551
303.566
303.581
303.597
303.613
303.629
303.645
303.662
303.68
303.697
303.715
303.733
303.752
303.77
303.79
303.809
303.829
303.849
303.87
303.891
303.912
303.934
303.956
303.978
304.001
304.025
304.049
304.073
304.098
304.123
304.149
304.176
304.203
304.231
304.259
304.288
304.318
304.349
304.38
304.412
304.445
304.479
304.513
304.549
304.586
304.623
304.662
304.702
304.742
304.784
304.827
304.872
304.917
304.964
305.013
305.062
305.113
305.165
305.219
305.274
305.331
305.389
305.448
305.509
305.571
305.635
305.7
305.767
305.835
305.904
305.975
306.048
306.122
306.197
306.274
306.352
306.432
306.513
306.596
306.68
306.767
306.855
306.946
307.041
307.139
307.243
307.353
307.473
307.607
307.761
307.943
308.17
308.467
308.865
309.301
307.133
306.633
306.236
305.934
305.694
305.497
305.33
305.185
305.056
304.939
304.834
304.737
304.648
304.566
304.49
304.418
304.352
304.289
304.231
304.176
304.125
304.076
304.031
303.988
303.947
303.909
303.872
303.838
303.806
303.775
303.746
303.718
303.692
303.667
303.643
303.621
303.6
303.579
303.56
303.541
303.524
303.507
303.491
303.476
303.461
303.447
303.434
303.422
303.41
303.399
303.388
303.378
303.368
303.359
303.351
303.343
303.335
303.328
303.322
303.316
303.31
303.305
303.301
303.297
303.293
303.29
303.288
303.286
303.284
303.283
303.283
303.282
303.283
303.284
303.285
303.287
303.289
303.292
303.296
303.299
303.304
303.309
303.314
303.319
303.326
303.332
303.339
303.347
303.355
303.363
303.372
303.381
303.391
303.401
303.411
303.422
303.433
303.445
303.457
303.469
303.482
303.495
303.509
303.522
303.537
303.551
303.566
303.581
303.597
303.613
303.629
303.645
303.662
303.68
303.697
303.715
303.733
303.752
303.77
303.79
303.809
303.829
303.849
303.87
303.891
303.912
303.934
303.956
303.978
304.001
304.025
304.049
304.073
304.098
304.123
304.149
304.176
304.203
304.231
304.259
304.288
304.318
304.349
304.38
304.412
304.445
304.479
304.513
304.549
304.586
304.623
304.662
304.702
304.742
304.784
304.827
304.872
304.917
304.964
305.013
305.062
305.113
305.165
305.219
305.274
305.331
305.389
305.448
305.509
305.571
305.635
305.7
305.767
305.835
305.904
305.975
306.048
306.122
306.197
306.274
306.352
306.432
306.513
306.596
306.68
306.767
306.855
306.946
307.041
307.139
307.243
307.353
307.473
307.607
307.761
307.943
308.17
308.467
308.865
309.301
305.374
305.227
305.044
304.869
304.71
304.569
304.443
304.329
304.225
304.131
304.044
303.964
303.889
303.82
303.755
303.695
303.639
303.586
303.536
303.49
303.446
303.405
303.366
303.33
303.295
303.263
303.232
303.203
303.175
303.149
303.125
303.101
303.079
303.058
303.038
303.019
303
302.983
302.966
302.95
302.935
302.92
302.906
302.893
302.88
302.868
302.856
302.845
302.834
302.824
302.814
302.804
302.795
302.786
302.778
302.77
302.763
302.755
302.749
302.742
302.736
302.73
302.725
302.72
302.716
302.711
302.708
302.704
302.701
302.698
302.696
302.694
302.693
302.692
302.691
302.691
302.691
302.691
302.692
302.694
302.695
302.697
302.7
302.703
302.706
302.71
302.714
302.718
302.723
302.728
302.734
302.74
302.746
302.753
302.76
302.767
302.775
302.783
302.792
302.801
302.81
302.82
302.83
302.84
302.851
302.862
302.873
302.885
302.897
302.909
302.922
302.935
302.948
302.962
302.976
302.991
303.006
303.021
303.036
303.052
303.069
303.085
303.103
303.12
303.138
303.156
303.175
303.195
303.214
303.234
303.255
303.276
303.298
303.321
303.344
303.367
303.391
303.416
303.442
303.468
303.495
303.522
303.551
303.58
303.61
303.641
303.673
303.706
303.739
303.774
303.81
303.847
303.885
303.924
303.964
304.005
304.048
304.092
304.137
304.183
304.231
304.28
304.331
304.383
304.436
304.491
304.547
304.604
304.663
304.723
304.785
304.847
304.912
304.977
305.044
305.113
305.182
305.253
305.325
305.398
305.473
305.548
305.625
305.702
305.781
305.862
305.944
306.027
306.113
306.202
306.294
306.391
306.494
306.605
306.729
306.868
307.028
307.215
307.437
307.67
305.374
305.227
305.044
304.869
304.71
304.569
304.443
304.329
304.225
304.131
304.044
303.964
303.889
303.82
303.755
303.695
303.639
303.586
303.536
303.49
303.446
303.405
303.366
303.33
303.295
303.263
303.232
303.203
303.175
303.149
303.125
303.101
303.079
303.058
303.038
303.019
303
302.983
302.966
302.95
302.935
302.92
302.906
302.893
302.88
302.868
302.856
302.845
302.834
302.824
302.814
302.804
302.795
302.786
302.778
302.77
302.763
302.755
302.749
302.742
302.736
302.73
302.725
302.72
302.716
302.711
302.708
302.704
302.701
302.698
302.696
302.694
302.693
302.692
302.691
302.691
302.691
302.691
302.692
302.694
302.695
302.697
302.7
302.703
302.706
302.71
302.714
302.718
302.723
302.728
302.734
302.74
302.746
302.753
302.76
302.767
302.775
302.783
302.792
302.801
302.81
302.82
302.83
302.84
302.851
302.862
302.873
302.885
302.897
302.909
302.922
302.935
302.948
302.962
302.976
302.991
303.006
303.021
303.036
303.052
303.069
303.085
303.103
303.12
303.138
303.156
303.175
303.195
303.214
303.234
303.255
303.276
303.298
303.321
303.344
303.367
303.391
303.416
303.442
303.468
303.495
303.522
303.551
303.58
303.61
303.641
303.673
303.706
303.739
303.774
303.81
303.847
303.885
303.924
303.964
304.005
304.048
304.092
304.137
304.183
304.231
304.28
304.331
304.383
304.436
304.491
304.547
304.604
304.663
304.723
304.785
304.847
304.912
304.978
305.045
305.113
305.182
305.253
305.325
305.398
305.473
305.548
305.625
305.702
305.782
305.862
305.944
306.027
306.113
306.202
306.294
306.391
306.494
306.605
306.729
306.868
307.028
307.215
307.437
307.67
304.413
304.38
304.295
304.192
304.085
303.982
303.884
303.792
303.707
303.628
303.553
303.484
303.419
303.358
303.302
303.248
303.198
303.151
303.107
303.065
303.026
302.989
302.954
302.922
302.891
302.861
302.834
302.807
302.783
302.759
302.737
302.716
302.696
302.677
302.658
302.641
302.625
302.609
302.593
302.579
302.565
302.552
302.539
302.526
302.515
302.503
302.492
302.481
302.471
302.461
302.452
302.443
302.434
302.425
302.417
302.409
302.402
302.394
302.388
302.381
302.375
302.369
302.363
302.358
302.353
302.348
302.343
302.339
302.336
302.332
302.329
302.326
302.324
302.322
302.32
302.319
302.318
302.317
302.317
302.317
302.318
302.319
302.32
302.321
302.323
302.326
302.328
302.331
302.335
302.338
302.342
302.347
302.352
302.357
302.362
302.368
302.374
302.381
302.388
302.395
302.403
302.411
302.419
302.428
302.437
302.446
302.456
302.466
302.476
302.487
302.498
302.509
302.521
302.533
302.546
302.559
302.572
302.586
302.6
302.614
302.629
302.644
302.66
302.676
302.693
302.71
302.727
302.745
302.763
302.782
302.802
302.822
302.842
302.864
302.885
302.908
302.931
302.955
302.979
303.004
303.03
303.056
303.084
303.112
303.141
303.171
303.202
303.234
303.267
303.3
303.335
303.371
303.408
303.446
303.486
303.526
303.568
303.611
303.655
303.701
303.747
303.796
303.845
303.896
303.948
304.001
304.056
304.113
304.17
304.229
304.289
304.351
304.413
304.477
304.543
304.609
304.677
304.745
304.815
304.886
304.957
305.03
305.103
305.177
305.252
305.328
305.405
305.483
305.563
305.644
305.727
305.813
305.902
305.995
306.094
306.199
306.309
306.422
306.533
306.629
304.413
304.38
304.295
304.192
304.085
303.982
303.884
303.792
303.707
303.628
303.553
303.484
303.419
303.358
303.302
303.248
303.198
303.151
303.107
303.065
303.026
302.989
302.954
302.922
302.891
302.861
302.834
302.807
302.783
302.759
302.737
302.716
302.696
302.677
302.658
302.641
302.625
302.609
302.593
302.579
302.565
302.552
302.539
302.526
302.515
302.503
302.492
302.481
302.471
302.461
302.452
302.443
302.434
302.425
302.417
302.409
302.402
302.394
302.388
302.381
302.375
302.369
302.363
302.358
302.353
302.348
302.343
302.339
302.336
302.332
302.329
302.326
302.324
302.322
302.32
302.319
302.318
302.317
302.317
302.317
302.318
302.319
302.32
302.321
302.323
302.326
302.328
302.331
302.335
302.338
302.342
302.347
302.352
302.357
302.362
302.368
302.374
302.381
302.388
302.395
302.403
302.411
302.419
302.428
302.437
302.446
302.456
302.466
302.476
302.487
302.498
302.509
302.521
302.533
302.546
302.559
302.572
302.586
302.6
302.614
302.629
302.644
302.66
302.676
302.693
302.71
302.727
302.745
302.763
302.782
302.802
302.822
302.842
302.864
302.885
302.908
302.931
302.955
302.979
303.004
303.03
303.056
303.084
303.112
303.141
303.171
303.202
303.234
303.267
303.3
303.335
303.371
303.408
303.446
303.486
303.526
303.568
303.611
303.655
303.701
303.747
303.796
303.845
303.896
303.948
304.001
304.056
304.113
304.17
304.229
304.289
304.351
304.413
304.477
304.543
304.609
304.677
304.745
304.815
304.886
304.957
305.03
305.103
305.177
305.252
305.328
305.405
305.483
305.563
305.644
305.727
305.813
305.902
305.995
306.094
306.199
306.309
306.422
306.533
306.629
303.797
303.795
303.753
303.689
303.616
303.54
303.464
303.39
303.319
303.252
303.188
303.127
303.07
303.016
302.965
302.918
302.872
302.83
302.79
302.752
302.716
302.682
302.651
302.621
302.592
302.565
302.54
302.516
302.493
302.472
302.451
302.432
302.413
302.395
302.378
302.362
302.347
302.332
302.318
302.305
302.292
302.279
302.267
302.255
302.244
302.233
302.223
302.213
302.203
302.193
302.184
302.175
302.167
302.158
302.15
302.142
302.135
302.128
302.121
302.114
302.108
302.101
302.096
302.09
302.085
302.08
302.075
302.07
302.066
302.062
302.059
302.056
302.053
302.05
302.048
302.046
302.044
302.043
302.042
302.041
302.041
302.041
302.042
302.042
302.043
302.045
302.047
302.049
302.051
302.054
302.057
302.061
302.064
302.069
302.073
302.078
302.083
302.089
302.095
302.101
302.108
302.115
302.122
302.129
302.137
302.146
302.154
302.164
302.173
302.183
302.193
302.203
302.214
302.225
302.237
302.249
302.261
302.274
302.287
302.3
302.314
302.329
302.344
302.359
302.374
302.391
302.407
302.424
302.442
302.46
302.479
302.498
302.518
302.538
302.559
302.581
302.603
302.626
302.65
302.674
302.699
302.725
302.752
302.78
302.808
302.837
302.868
302.899
302.931
302.964
302.998
303.034
303.07
303.107
303.146
303.186
303.227
303.269
303.313
303.358
303.404
303.451
303.5
303.55
303.601
303.654
303.707
303.763
303.819
303.877
303.936
303.996
304.058
304.12
304.184
304.249
304.315
304.381
304.449
304.518
304.587
304.657
304.727
304.798
304.87
304.942
305.014
305.088
305.161
305.236
305.311
305.387
305.464
305.542
305.621
305.7
305.776
305.845
305.9
305.934
303.797
303.795
303.753
303.689
303.616
303.54
303.464
303.39
303.319
303.252
303.188
303.127
303.07
303.016
302.965
302.918
302.872
302.83
302.79
302.752
302.716
302.682
302.651
302.621
302.592
302.565
302.54
302.516
302.493
302.472
302.451
302.432
302.413
302.395
302.378
302.362
302.347
302.332
302.318
302.305
302.292
302.279
302.267
302.255
302.244
302.233
302.223
302.213
302.203
302.193
302.184
302.175
302.167
302.158
302.15
302.142
302.135
302.128
302.121
302.114
302.108
302.101
302.096
302.09
302.085
302.08
302.075
302.07
302.066
302.062
302.059
302.056
302.053
302.05
302.048
302.046
302.044
302.043
302.042
302.041
302.041
302.041
302.042
302.042
302.043
302.045
302.047
302.049
302.051
302.054
302.057
302.061
302.064
302.069
302.073
302.078
302.083
302.089
302.095
302.101
302.108
302.115
302.122
302.129
302.137
302.146
302.154
302.164
302.173
302.183
302.193
302.203
302.214
302.225
302.237
302.249
302.261
302.274
302.287
302.3
302.314
302.329
302.344
302.359
302.374
302.391
302.407
302.424
302.442
302.46
302.479
302.498
302.518
302.538
302.559
302.581
302.603
302.626
302.65
302.674
302.699
302.725
302.752
302.78
302.808
302.837
302.868
302.899
302.931
302.964
302.998
303.034
303.07
303.107
303.146
303.186
303.227
303.269
303.313
303.358
303.404
303.451
303.5
303.55
303.601
303.654
303.707
303.763
303.819
303.877
303.936
303.996
304.058
304.12
304.184
304.249
304.315
304.381
304.449
304.518
304.587
304.657
304.727
304.798
304.87
304.942
305.014
305.088
305.161
305.236
305.311
305.387
305.464
305.542
305.621
305.7
305.776
305.845
305.9
305.934
303.35
303.355
303.331
303.289
303.238
303.18
303.121
303.061
303.002
302.944
302.889
302.836
302.786
302.738
302.693
302.649
302.608
302.57
302.533
302.498
302.466
302.435
302.405
302.378
302.351
302.327
302.303
302.281
302.26
302.24
302.22
302.202
302.185
302.168
302.153
302.138
302.123
302.109
302.096
302.083
302.071
302.059
302.048
302.037
302.026
302.016
302.006
301.996
301.986
301.977
301.968
301.96
301.951
301.943
301.935
301.927
301.92
301.913
301.906
301.899
301.893
301.886
301.88
301.875
301.869
301.864
301.859
301.854
301.85
301.846
301.842
301.838
301.835
301.832
301.829
301.827
301.825
301.823
301.821
301.82
301.819
301.819
301.819
301.819
301.819
301.82
301.821
301.823
301.825
301.827
301.829
301.832
301.835
301.839
301.843
301.847
301.852
301.856
301.862
301.867
301.873
301.879
301.886
301.893
301.9
301.908
301.916
301.924
301.933
301.942
301.951
301.961
301.971
301.982
301.993
302.004
302.015
302.027
302.04
302.053
302.066
302.08
302.094
302.109
302.124
302.139
302.155
302.172
302.189
302.206
302.224
302.243
302.262
302.282
302.302
302.324
302.345
302.368
302.391
302.415
302.44
302.465
302.491
302.518
302.546
302.575
302.605
302.635
302.667
302.7
302.733
302.768
302.804
302.841
302.879
302.919
302.959
303.001
303.044
303.088
303.133
303.18
303.228
303.277
303.328
303.38
303.433
303.487
303.543
303.599
303.657
303.717
303.777
303.838
303.9
303.964
304.028
304.093
304.159
304.225
304.292
304.359
304.427
304.495
304.564
304.632
304.701
304.769
304.838
304.906
304.974
305.042
305.109
305.175
305.239
305.299
305.353
305.397
305.425
305.433
303.35
303.355
303.331
303.289
303.238
303.18
303.121
303.061
303.002
302.944
302.889
302.836
302.786
302.738
302.693
302.649
302.608
302.57
302.533
302.498
302.466
302.435
302.405
302.378
302.351
302.327
302.303
302.281
302.26
302.24
302.22
302.202
302.185
302.168
302.153
302.138
302.123
302.109
302.096
302.083
302.071
302.059
302.048
302.037
302.026
302.016
302.006
301.996
301.986
301.977
301.968
301.96
301.951
301.943
301.935
301.927
301.92
301.913
301.906
301.899
301.893
301.886
301.88
301.875
301.869
301.864
301.859
301.854
301.85
301.846
301.842
301.838
301.835
301.832
301.829
301.827
301.825
301.823
301.821
301.82
301.819
301.819
301.819
301.819
301.819
301.82
301.821
301.823
301.825
301.827
301.829
301.832
301.835
301.839
301.843
301.847
301.852
301.856
301.862
301.867
301.873
301.879
301.886
301.893
301.9
301.908
301.916
301.924
301.933
301.942
301.951
301.961
301.971
301.982
301.993
302.004
302.015
302.027
302.04
302.053
302.066
302.08
302.094
302.109
302.124
302.139
302.155
302.172
302.189
302.206
302.224
302.243
302.262
302.282
302.302
302.324
302.345
302.368
302.391
302.415
302.44
302.465
302.491
302.518
302.546
302.575
302.605
302.635
302.667
302.7
302.733
302.768
302.804
302.841
302.879
302.919
302.959
303.001
303.044
303.088
303.133
303.18
303.228
303.277
303.328
303.38
303.433
303.487
303.543
303.599
303.657
303.717
303.777
303.838
303.9
303.964
304.028
304.093
304.159
304.225
304.292
304.359
304.427
304.495
304.564
304.632
304.701
304.769
304.838
304.906
304.974
305.042
305.109
305.175
305.239
305.299
305.353
305.397
305.425
305.433
302.997
303.002
302.987
302.958
302.92
302.876
302.828
302.779
302.73
302.681
302.633
302.587
302.542
302.5
302.459
302.42
302.383
302.347
302.314
302.282
302.252
302.223
302.196
302.17
302.146
302.123
302.101
302.08
302.061
302.042
302.024
302.007
301.991
301.975
301.961
301.946
301.933
301.92
301.907
301.895
301.883
301.872
301.861
301.851
301.84
301.83
301.821
301.811
301.802
301.793
301.785
301.776
301.768
301.76
301.752
301.745
301.737
301.73
301.723
301.717
301.71
301.704
301.698
301.692
301.686
301.681
301.676
301.671
301.666
301.662
301.658
301.654
301.65
301.647
301.644
301.641
301.639
301.637
301.635
301.633
301.632
301.631
301.631
301.63
301.63
301.631
301.631
301.632
301.634
301.635
301.637
301.64
301.642
301.645
301.649
301.652
301.656
301.661
301.665
301.67
301.676
301.682
301.688
301.694
301.701
301.708
301.715
301.723
301.731
301.74
301.749
301.758
301.767
301.777
301.788
301.798
301.81
301.821
301.833
301.845
301.858
301.871
301.885
301.899
301.914
301.929
301.944
301.96
301.977
301.994
302.012
302.03
302.049
302.068
302.088
302.109
302.13
302.152
302.175
302.199
302.223
302.248
302.274
302.3
302.328
302.356
302.386
302.416
302.447
302.479
302.513
302.547
302.582
302.619
302.657
302.696
302.736
302.777
302.819
302.863
302.908
302.954
303.001
303.05
303.1
303.151
303.203
303.257
303.311
303.367
303.424
303.482
303.541
303.601
303.662
303.724
303.787
303.85
303.914
303.979
304.043
304.108
304.174
304.239
304.305
304.37
304.435
304.499
304.563
304.626
304.688
304.748
304.807
304.863
304.915
304.963
305.003
305.033
305.048
305.046
302.997
303.002
302.987
302.958
302.92
302.876
302.828
302.779
302.73
302.681
302.633
302.587
302.542
302.5
302.459
302.42
302.383
302.347
302.314
302.282
302.252
302.223
302.196
302.17
302.146
302.123
302.101
302.08
302.061
302.042
302.024
302.007
301.991
301.975
301.961
301.946
301.933
301.92
301.907
301.895
301.883
301.872
301.861
301.851
301.84
301.83
301.821
301.811
301.802
301.793
301.785
301.776
301.768
301.76
301.752
301.745
301.737
301.73
301.723
301.717
301.71
301.704
301.698
301.692
301.686
301.681
301.676
301.671
301.666
301.662
301.658
301.654
301.65
301.647
301.644
301.641
301.639
301.637
301.635
301.633
301.632
301.631
301.631
301.63
301.63
301.631
301.631
301.632
301.634
301.635
301.637
301.64
301.642
301.645
301.649
301.652
301.656
301.661
301.665
301.67
301.676
301.682
301.688
301.694
301.701
301.708
301.715
301.723
301.731
301.74
301.749
301.758
301.767
301.777
301.788
301.798
301.81
301.821
301.833
301.845
301.858
301.871
301.885
301.899
301.914
301.929
301.944
301.96
301.977
301.994
302.012
302.03
302.049
302.068
302.088
302.109
302.13
302.152
302.175
302.199
302.223
302.248
302.274
302.3
302.328
302.356
302.386
302.416
302.447
302.479
302.513
302.547
302.582
302.619
302.657
302.696
302.736
302.777
302.819
302.863
302.908
302.954
303.001
303.05
303.1
303.151
303.203
303.257
303.311
303.367
303.424
303.482
303.541
303.601
303.662
303.724
303.787
303.85
303.914
303.979
304.043
304.108
304.174
304.239
304.305
304.37
304.435
304.499
304.563
304.626
304.688
304.748
304.807
304.863
304.915
304.963
305.003
305.033
305.048
305.046
302.705
302.708
302.697
302.675
302.646
302.611
302.572
302.532
302.49
302.448
302.407
302.366
302.327
302.288
302.252
302.216
302.183
302.151
302.12
302.091
302.063
302.036
302.011
301.987
301.965
301.943
301.923
301.904
301.885
301.868
301.851
301.835
301.82
301.805
301.791
301.778
301.765
301.752
301.741
301.729
301.718
301.707
301.697
301.687
301.677
301.667
301.658
301.649
301.64
301.631
301.623
301.615
301.607
301.599
301.591
301.584
301.577
301.57
301.563
301.556
301.549
301.543
301.537
301.531
301.525
301.52
301.515
301.51
301.505
301.5
301.496
301.492
301.488
301.485
301.481
301.478
301.476
301.473
301.471
301.469
301.468
301.467
301.466
301.465
301.465
301.465
301.465
301.466
301.467
301.468
301.469
301.471
301.474
301.476
301.479
301.482
301.486
301.49
301.494
301.499
301.504
301.509
301.514
301.52
301.527
301.533
301.54
301.548
301.555
301.563
301.572
301.581
301.59
301.599
301.609
301.62
301.63
301.642
301.653
301.665
301.677
301.69
301.704
301.717
301.731
301.746
301.761
301.777
301.793
301.81
301.827
301.845
301.863
301.883
301.902
301.923
301.944
301.965
301.988
302.011
302.035
302.059
302.085
302.111
302.138
302.166
302.195
302.225
302.256
302.288
302.321
302.355
302.39
302.426
302.464
302.502
302.542
302.582
302.624
302.667
302.712
302.757
302.804
302.852
302.901
302.952
303.003
303.056
303.11
303.165
303.221
303.278
303.336
303.395
303.455
303.515
303.576
303.638
303.7
303.763
303.826
303.889
303.951
304.014
304.077
304.139
304.2
304.261
304.32
304.379
304.435
304.49
304.542
304.59
304.634
304.673
304.704
304.726
304.735
304.73
302.705
302.708
302.697
302.675
302.646
302.611
302.572
302.532
302.49
302.448
302.407
302.366
302.327
302.288
302.252
302.216
302.183
302.15
302.12
302.091
302.063
302.036
302.011
301.987
301.965
301.943
301.923
301.904
301.885
301.868
301.851
301.835
301.82
301.805
301.791
301.778
301.765
301.752
301.741
301.729
301.718
301.707
301.697
301.687
301.677
301.667
301.658
301.649
301.64
301.631
301.623
301.615
301.607
301.599
301.591
301.584
301.577
301.57
301.563
301.556
301.549
301.543
301.537
301.531
301.525
301.52
301.515
301.51
301.505
301.5
301.496
301.492
301.488
301.485
301.481
301.478
301.476
301.473
301.471
301.469
301.468
301.466
301.466
301.465
301.465
301.465
301.465
301.466
301.467
301.468
301.469
301.471
301.474
301.476
301.479
301.482
301.486
301.49
301.494
301.499
301.504
301.509
301.514
301.52
301.527
301.533
301.54
301.548
301.555
301.563
301.572
301.581
301.59
301.599
301.609
301.62
301.63
301.642
301.653
301.665
301.677
301.69
301.704
301.717
301.731
301.746
301.761
301.777
301.793
301.81
301.827
301.845
301.863
301.883
301.902
301.923
301.944
301.965
301.988
302.011
302.035
302.059
302.085
302.111
302.138
302.166
302.195
302.225
302.256
302.288
302.321
302.355
302.39
302.426
302.464
302.502
302.542
302.582
302.624
302.667
302.712
302.757
302.804
302.852
302.901
302.952
303.003
303.056
303.11
303.165
303.221
303.278
303.336
303.395
303.455
303.515
303.576
303.638
303.7
303.763
303.826
303.889
303.951
304.014
304.077
304.139
304.2
304.261
304.32
304.379
304.435
304.49
304.542
304.59
304.634
304.673
304.704
304.726
304.735
304.73
302.453
302.453
302.444
302.427
302.404
302.375
302.344
302.309
302.274
302.238
302.202
302.166
302.131
302.097
302.064
302.032
302.001
301.972
301.944
301.917
301.892
301.867
301.844
301.822
301.801
301.781
301.762
301.744
301.726
301.71
301.694
301.679
301.665
301.651
301.638
301.625
301.613
301.601
301.59
301.579
301.569
301.558
301.548
301.539
301.529
301.52
301.511
301.502
301.494
301.485
301.477
301.469
301.461
301.454
301.446
301.439
301.432
301.425
301.418
301.411
301.405
301.398
301.392
301.386
301.38
301.375
301.369
301.364
301.359
301.355
301.35
301.346
301.342
301.338
301.335
301.332
301.329
301.326
301.324
301.322
301.32
301.318
301.317
301.316
301.316
301.315
301.315
301.316
301.316
301.317
301.319
301.32
301.322
301.324
301.327
301.33
301.333
301.337
301.34
301.345
301.349
301.354
301.359
301.365
301.371
301.377
301.384
301.391
301.398
301.406
301.414
301.422
301.431
301.44
301.45
301.46
301.47
301.481
301.492
301.504
301.516
301.528
301.541
301.555
301.569
301.583
301.598
301.613
301.629
301.645
301.662
301.68
301.698
301.717
301.736
301.756
301.777
301.798
301.82
301.843
301.867
301.891
301.917
301.943
301.969
301.997
302.026
302.056
302.086
302.118
302.15
302.184
302.219
302.255
302.292
302.33
302.369
302.409
302.451
302.493
302.537
302.582
302.628
302.676
302.724
302.774
302.825
302.877
302.93
302.984
303.039
303.095
303.152
303.21
303.269
303.328
303.387
303.448
303.508
303.569
303.63
303.691
303.751
303.812
303.872
303.931
303.989
304.046
304.102
304.156
304.208
304.258
304.304
304.347
304.385
304.418
304.443
304.461
304.467
304.462
302.453
302.453
302.444
302.427
302.404
302.375
302.344
302.309
302.274
302.238
302.202
302.166
302.131
302.097
302.064
302.032
302.001
301.972
301.944
301.917
301.892
301.867
301.844
301.822
301.801
301.781
301.762
301.744
301.726
301.71
301.694
301.679
301.665
301.651
301.638
301.625
301.613
301.601
301.59
301.579
301.568
301.558
301.548
301.539
301.529
301.52
301.511
301.502
301.494
301.485
301.477
301.469
301.461
301.454
301.446
301.439
301.432
301.425
301.418
301.411
301.405
301.398
301.392
301.386
301.38
301.375
301.369
301.364
301.359
301.355
301.35
301.346
301.342
301.338
301.335
301.332
301.329
301.326
301.324
301.322
301.32
301.318
301.317
301.316
301.316
301.315
301.315
301.316
301.316
301.317
301.319
301.32
301.322
301.324
301.327
301.33
301.333
301.337
301.34
301.345
301.349
301.354
301.359
301.365
301.371
301.377
301.384
301.391
301.398
301.406
301.414
301.422
301.431
301.44
301.45
301.46
301.47
301.481
301.492
301.504
301.516
301.528
301.541
301.555
301.568
301.583
301.598
301.613
301.629
301.645
301.662
301.68
301.698
301.717
301.736
301.756
301.777
301.798
301.82
301.843
301.867
301.891
301.917
301.943
301.969
301.997
302.026
302.056
302.086
302.118
302.15
302.184
302.219
302.255
302.292
302.33
302.369
302.409
302.451
302.493
302.537
302.582
302.628
302.676
302.724
302.774
302.825
302.877
302.93
302.984
303.039
303.095
303.152
303.21
303.269
303.328
303.387
303.448
303.508
303.569
303.63
303.691
303.751
303.812
303.872
303.931
303.989
304.046
304.102
304.156
304.208
304.258
304.304
304.347
304.385
304.418
304.443
304.461
304.467
304.462
302.23
302.229
302.221
302.207
302.187
302.163
302.137
302.108
302.077
302.046
302.014
301.983
301.952
301.921
301.891
301.862
301.835
301.808
301.782
301.757
301.734
301.711
301.69
301.669
301.649
301.631
301.613
301.596
301.58
301.565
301.55
301.536
301.522
301.509
301.497
301.485
301.473
301.462
301.451
301.441
301.431
301.421
301.412
301.402
301.393
301.384
301.376
301.367
301.359
301.351
301.343
301.335
301.328
301.32
301.313
301.305
301.298
301.291
301.285
301.278
301.272
301.265
301.259
301.253
301.247
301.242
301.236
301.231
301.226
301.221
301.217
301.212
301.208
301.204
301.201
301.197
301.194
301.192
301.189
301.187
301.185
301.183
301.181
301.18
301.179
301.179
301.179
301.179
301.179
301.18
301.181
301.182
301.184
301.185
301.188
301.19
301.193
301.196
301.2
301.204
301.208
301.213
301.218
301.223
301.229
301.234
301.241
301.247
301.254
301.262
301.27
301.278
301.286
301.295
301.304
301.314
301.324
301.335
301.345