/*--------------------------------*- C++ -*----------------------------------*\
  =========                 |
  \\      /  F ield         | OpenFOAM: The Open Source CFD Toolbox
   \\    /   O peration     | Website:  https://openfoam.org
    \\  /    A nd           | Version:  8
     \\/     M anipulation  |
\*---------------------------------------------------------------------------*/
FoamFile
{
    version     2.0;
    format      ascii;
    class       volVectorField;
    location    "2900";
    object      U;
}
// * * * * * * * * * * * * * * * * * * * * * * * * * * * * * * * * * * * * * //

dimensions      [0 1 -1 0 0 0 0];

internalField   nonuniform List<vector> 
46000
(
(0.0010902 2.2178e-07 -0.00112719)
(0.005498 1.17923e-07 -0.00303714)
(0.0102493 1.40975e-07 -0.00305938)
(0.0135642 1.0874e-07 -0.00198044)
(0.0151039 9.02544e-08 -0.000772781)
(0.0150524 8.06015e-08 0.000292222)
(0.0136741 7.74625e-08 0.00115832)
(0.0112439 7.53203e-08 0.00183676)
(0.00798755 7.18133e-08 0.00236287)
(0.00409342 6.82985e-08 0.00276979)
(-0.000304211 6.49723e-08 0.00307926)
(-0.00508249 6.13767e-08 0.00330816)
(-0.0101497 5.81022e-08 0.00347716)
(-0.0154426 5.55499e-08 0.00360265)
(-0.0209053 5.36247e-08 0.00369435)
(-0.0264962 5.2034e-08 0.00375951)
(-0.0321811 5.06466e-08 0.0038036)
(-0.0379329 4.94386e-08 0.00383079)
(-0.0437288 4.85537e-08 0.00384424)
(-0.0495501 4.81088e-08 0.00384636)
(-0.055381 4.8115e-08 0.00383897)
(-0.0612078 4.84767e-08 0.00382346)
(-0.0670184 4.90665e-08 0.00380086)
(-0.072802 4.9767e-08 0.00377198)
(-0.0785488 5.04629e-08 0.00373738)
(-0.0842496 5.10888e-08 0.00369751)
(-0.0898959 5.1588e-08 0.00365268)
(-0.0954793 5.19421e-08 0.00360312)
(-0.100992 5.21378e-08 0.003549)
(-0.106426 5.21668e-08 0.00349046)
(-0.111774 5.20341e-08 0.00342759)
(-0.117029 5.17865e-08 0.00336048)
(-0.122182 5.14409e-08 0.00328919)
(-0.127228 5.10088e-08 0.00321381)
(-0.132158 5.05036e-08 0.0031344)
(-0.136967 4.99454e-08 0.00305106)
(-0.141646 4.93242e-08 0.00296388)
(-0.14619 4.86416e-08 0.00287298)
(-0.150592 4.79142e-08 0.00277848)
(-0.154846 4.71406e-08 0.00268054)
(-0.158945 4.63372e-08 0.0025793)
(-0.162885 4.5499e-08 0.00247495)
(-0.16666 4.46596e-08 0.00236768)
(-0.170265 4.38054e-08 0.0022577)
(-0.173696 4.29549e-08 0.00214522)
(-0.176947 4.21113e-08 0.00203047)
(-0.180016 4.12846e-08 0.00191369)
(-0.182898 4.04832e-08 0.00179512)
(-0.185591 3.96904e-08 0.00167504)
(-0.188092 3.89178e-08 0.00155368)
(-0.190399 3.81705e-08 0.00143132)
(-0.192511 3.74483e-08 0.00130821)
(-0.194426 3.67564e-08 0.00118462)
(-0.196143 3.61029e-08 0.00106082)
(-0.197661 3.5488e-08 0.000937062)
(-0.198982 3.4905e-08 0.000813604)
(-0.200106 3.43671e-08 0.000690701)
(-0.201033 3.38443e-08 0.000568604)
(-0.201764 3.3345e-08 0.000447549)
(-0.202303 3.28375e-08 0.000327744)
(-0.202651 3.23351e-08 0.000209328)
(-0.202809 3.17961e-08 9.2365e-05)
(-0.202783 3.13139e-08 -2.2792e-05)
(-0.202573 3.08902e-08 -0.000135699)
(-0.202185 3.04415e-08 -0.000246292)
(-0.201621 3.00045e-08 -0.000354571)
(-0.200886 2.9591e-08 -0.000460409)
(-0.199983 2.92159e-08 -0.000563651)
(-0.198918 2.88826e-08 -0.00066415)
(-0.197695 2.85861e-08 -0.000761782)
(-0.196318 2.8348e-08 -0.000856435)
(-0.194793 2.81433e-08 -0.000948013)
(-0.193125 2.79838e-08 -0.00103643)
(-0.19132 2.7871e-08 -0.00112162)
(-0.189383 2.78083e-08 -0.00120352)
(-0.187319 2.77857e-08 -0.00128208)
(-0.185134 2.78082e-08 -0.00135725)
(-0.182833 2.78775e-08 -0.00142901)
(-0.180424 2.79886e-08 -0.00149733)
(-0.17791 2.81498e-08 -0.0015622)
(-0.175298 2.83612e-08 -0.00162361)
(-0.172594 2.86143e-08 -0.00168155)
(-0.169803 2.89259e-08 -0.00173605)
(-0.166931 2.92743e-08 -0.00178712)
(-0.163983 2.96696e-08 -0.00183478)
(-0.160966 3.01183e-08 -0.00187905)
(-0.157885 3.05939e-08 -0.00191998)
(-0.154745 3.1098e-08 -0.00195761)
(-0.151551 3.16422e-08 -0.00199197)
(-0.148309 3.22116e-08 -0.00202313)
(-0.145023 3.28111e-08 -0.00205114)
(-0.1417 3.34242e-08 -0.00207606)
(-0.138343 3.40675e-08 -0.00209795)
(-0.134958 3.47225e-08 -0.0021169)
(-0.131549 3.54128e-08 -0.00213296)
(-0.128121 3.61033e-08 -0.00214622)
(-0.124677 3.68239e-08 -0.00215675)
(-0.121223 3.75631e-08 -0.00216465)
(-0.117762 3.83309e-08 -0.00217)
(-0.114299 3.91005e-08 -0.00217288)
(-0.110836 3.9892e-08 -0.00217339)
(-0.107378 4.06987e-08 -0.00217162)
(-0.103928 4.14989e-08 -0.00216766)
(-0.100489 4.23143e-08 -0.00216162)
(-0.0970641 4.31265e-08 -0.00215359)
(-0.0936567 4.3939e-08 -0.00214367)
(-0.0902694 4.47482e-08 -0.00213195)
(-0.0869046 4.5541e-08 -0.00211855)
(-0.0835649 4.63272e-08 -0.00210355)
(-0.0802526 4.70969e-08 -0.00208706)
(-0.0769698 4.78467e-08 -0.00206917)
(-0.0737184 4.85833e-08 -0.00204998)
(-0.0705003 4.93101e-08 -0.00202959)
(-0.0673172 4.99935e-08 -0.00200809)
(-0.0641706 5.0657e-08 -0.00198557)
(-0.0610618 5.12873e-08 -0.00196212)
(-0.0579922 5.18775e-08 -0.00193783)
(-0.0549629 5.24512e-08 -0.00191278)
(-0.0519748 5.29748e-08 -0.00188704)
(-0.0490288 5.34517e-08 -0.0018607)
(-0.0461258 5.38919e-08 -0.00183381)
(-0.0432664 5.42786e-08 -0.00180644)
(-0.0404513 5.4622e-08 -0.00177866)
(-0.0376809 5.49286e-08 -0.00175051)
(-0.0349557 5.5175e-08 -0.00172203)
(-0.032276 5.5368e-08 -0.00169327)
(-0.0296423 5.55141e-08 -0.00166425)
(-0.0270548 5.56302e-08 -0.001635)
(-0.0245138 5.56961e-08 -0.00160554)
(-0.0220195 5.57085e-08 -0.00157586)
(-0.0195723 5.56874e-08 -0.00154597)
(-0.0171724 5.56194e-08 -0.00151585)
(-0.0148201 5.55013e-08 -0.00148549)
(-0.0125158 5.53362e-08 -0.00145486)
(-0.0102598 5.5151e-08 -0.00142392)
(-0.00805267 5.49424e-08 -0.00139262)
(-0.00589484 5.46601e-08 -0.00136095)
(-0.00378667 5.43375e-08 -0.00132908)
(-0.00172908 5.39681e-08 -0.00129748)
(0.000279432 5.32498e-08 -0.00126453)
(0.00223474 5.22599e-08 -0.00122913)
(0.00413598 5.13872e-08 -0.00119243)
(0.00598201 5.0558e-08 -0.00115489)
(0.00777109 4.9779e-08 -0.00111643)
(0.00950158 4.90804e-08 -0.00107694)
(0.0111716 4.84455e-08 -0.0010363)
(0.0127791 4.7871e-08 -0.000994387)
(0.0143219 4.73668e-08 -0.000951082)
(0.0157974 4.69433e-08 -0.00090626)
(0.017203 4.65801e-08 -0.000859805)
(0.0185358 4.62942e-08 -0.000811604)
(0.0197929 4.61057e-08 -0.000761553)
(0.0209709 4.60349e-08 -0.000709557)
(0.0220666 4.60481e-08 -0.000655529)
(0.0230764 4.61824e-08 -0.0005994)
(0.0239967 4.64546e-08 -0.000541115)
(0.0248237 4.68212e-08 -0.000480636)
(0.0255536 4.73459e-08 -0.000417948)
(0.0261827 4.80324e-08 -0.000353063)
(0.026707 4.88638e-08 -0.000286018)
(0.0271228 4.98571e-08 -0.000216891)
(0.0274264 5.10123e-08 -0.000145804)
(0.0276145 5.23464e-08 -7.29305e-05)
(0.0276834 5.37013e-08 1.53943e-06)
(0.0276309 5.54496e-08 7.75839e-05)
(0.0274534 5.75833e-08 0.000155072)
(0.0271484 5.98057e-08 0.000233656)
(0.0267138 6.22244e-08 0.000313012)
(0.0261481 6.48531e-08 0.000392756)
(0.0254502 6.77087e-08 0.000472455)
(0.02462 7.07714e-08 0.000551624)
(0.0236577 7.40681e-08 0.000629721)
(0.022565 7.75418e-08 0.000706146)
(0.021344 8.12332e-08 0.000780232)
(0.0199983 8.51491e-08 0.000851242)
(0.0185325 8.9364e-08 0.000918362)
(0.0169526 9.38916e-08 0.000980695)
(0.0152662 9.87998e-08 0.00103725)
(0.0134824 1.04143e-07 0.00108692)
(0.0116124 1.09894e-07 0.00112851)
(0.00966919 1.16068e-07 0.00116064)
(0.00766833 1.22516e-07 0.0011818)
(0.00562801 1.29137e-07 0.00119029)
(0.003569 1.35843e-07 0.00118416)
(0.00151782 1.42446e-07 0.00116116)
(-0.000501536 1.47972e-07 0.00111679)
(-0.00244851 1.52549e-07 0.0010475)
(-0.00428608 1.57253e-07 0.000951567)
(-0.00596938 1.61954e-07 0.000826971)
(-0.00744501 1.66527e-07 0.000669282)
(-0.0086528 1.70964e-07 0.00047262)
(-0.00952188 1.75361e-07 0.000232887)
(-0.00997365 1.80027e-07 -5.30412e-05)
(-0.00992279 1.84872e-07 -0.000382145)
(-0.00928921 1.90647e-07 -0.000740995)
(-0.00801668 1.98704e-07 -0.00109398)
(-0.00610971 2.094e-07 -0.00135528)
(-0.00372981 2.1872e-07 -0.0013346)
(-0.00136683 2.35144e-07 -0.000782641)
(-6.61217e-05 1.11395e-07 -6.88013e-05)
(0.00108891 2.21778e-07 -0.0011284)
(0.00549684 1.17921e-07 -0.00303832)
(0.0102488 1.40972e-07 -0.00306009)
(0.0135638 1.08738e-07 -0.001981)
(0.0151035 9.02528e-08 -0.000773281)
(0.0150521 8.06002e-08 0.000291762)
(0.0136738 7.74613e-08 0.00115789)
(0.0112437 7.53192e-08 0.00183636)
(0.00798734 7.18123e-08 0.00236249)
(0.00409324 6.82976e-08 0.00276943)
(-0.000304355 6.49714e-08 0.00307892)
(-0.00508259 6.1376e-08 0.00330783)
(-0.0101497 5.81015e-08 0.00347685)
(-0.0154426 5.55492e-08 0.00360235)
(-0.0209053 5.36241e-08 0.00369406)
(-0.0264961 5.20335e-08 0.00375923)
(-0.0321811 5.06461e-08 0.00380333)
(-0.0379328 4.94381e-08 0.00383053)
(-0.0437286 4.85533e-08 0.00384399)
(-0.04955 4.81083e-08 0.00384611)
(-0.0553809 4.81146e-08 0.00383872)
(-0.0612076 4.84763e-08 0.00382322)
(-0.0670182 4.90661e-08 0.00380063)
(-0.0728017 4.97666e-08 0.00377175)
(-0.0785485 5.04625e-08 0.00373715)
(-0.0842493 5.10884e-08 0.00369729)
(-0.0898956 5.15876e-08 0.00365246)
(-0.095479 5.19417e-08 0.0036029)
(-0.100992 5.21374e-08 0.00354879)
(-0.106426 5.21664e-08 0.00349025)
(-0.111774 5.20337e-08 0.00342738)
(-0.117028 5.17862e-08 0.00336027)
(-0.122182 5.14405e-08 0.00328898)
(-0.127228 5.10084e-08 0.0032136)
(-0.132158 5.05033e-08 0.00313419)
(-0.136966 4.99451e-08 0.00305085)
(-0.141646 4.93239e-08 0.00296367)
(-0.146189 4.86412e-08 0.00287276)
(-0.150591 4.79139e-08 0.00277827)
(-0.154845 4.71402e-08 0.00268032)
(-0.158945 4.63369e-08 0.00257909)
(-0.162885 4.54988e-08 0.00247474)
(-0.16666 4.46593e-08 0.00236747)
(-0.170265 4.38051e-08 0.00225748)
(-0.173695 4.29546e-08 0.00214499)
(-0.176946 4.2111e-08 0.00203024)
(-0.180015 4.12844e-08 0.00191346)
(-0.182897 4.0483e-08 0.0017949)
(-0.18559 3.96902e-08 0.00167481)
(-0.188092 3.89176e-08 0.00155345)
(-0.190399 3.81702e-08 0.00143108)
(-0.19251 3.74481e-08 0.00130798)
(-0.194425 3.67562e-08 0.00118439)
(-0.196142 3.61027e-08 0.00106058)
(-0.197661 3.54878e-08 0.000936823)
(-0.198982 3.49048e-08 0.000813363)
(-0.200105 3.43669e-08 0.000690459)
(-0.201032 3.38441e-08 0.00056836)
(-0.201764 3.33448e-08 0.000447304)
(-0.202303 3.28373e-08 0.000327497)
(-0.20265 3.23349e-08 0.00020908)
(-0.202809 3.17959e-08 9.21146e-05)
(-0.202782 3.13137e-08 -2.30438e-05)
(-0.202573 3.089e-08 -0.000135952)
(-0.202185 3.04413e-08 -0.000246547)
(-0.201621 3.00044e-08 -0.000354828)
(-0.200885 2.95909e-08 -0.000460667)
(-0.199983 2.92158e-08 -0.00056391)
(-0.198918 2.88825e-08 -0.000664411)
(-0.197694 2.8586e-08 -0.000762044)
(-0.196317 2.83479e-08 -0.000856699)
(-0.194793 2.81432e-08 -0.000948279)
(-0.193125 2.79836e-08 -0.0010367)
(-0.19132 2.78708e-08 -0.00112189)
(-0.189382 2.78082e-08 -0.00120379)
(-0.187318 2.77856e-08 -0.00128235)
(-0.185133 2.78081e-08 -0.00135753)
(-0.182833 2.78774e-08 -0.00142929)
(-0.180423 2.79885e-08 -0.00149761)
(-0.177909 2.81497e-08 -0.00156248)
(-0.175297 2.8361e-08 -0.00162388)
(-0.172593 2.86141e-08 -0.00168183)
(-0.169802 2.89258e-08 -0.00173634)
(-0.16693 2.92742e-08 -0.0017874)
(-0.163983 2.96694e-08 -0.00183506)
(-0.160966 3.01182e-08 -0.00187934)
(-0.157884 3.05937e-08 -0.00192027)
(-0.154744 3.10978e-08 -0.0019579)
(-0.15155 3.1642e-08 -0.00199226)
(-0.148308 3.22114e-08 -0.00202342)
(-0.145023 3.2811e-08 -0.00205144)
(-0.141699 3.3424e-08 -0.00207636)
(-0.138343 3.40673e-08 -0.00209826)
(-0.134958 3.47224e-08 -0.0021172)
(-0.131549 3.54127e-08 -0.00213326)
(-0.12812 3.61031e-08 -0.00214653)
(-0.124677 3.68238e-08 -0.00215706)
(-0.121223 3.7563e-08 -0.00216497)
(-0.117762 3.83307e-08 -0.00217031)
(-0.114298 3.91003e-08 -0.0021732)
(-0.110836 3.98918e-08 -0.00217371)
(-0.107378 4.06985e-08 -0.00217194)
(-0.103927 4.14987e-08 -0.00216799)
(-0.100488 4.23141e-08 -0.00216195)
(-0.0970638 4.31263e-08 -0.00215393)
(-0.0936564 4.39388e-08 -0.00214401)
(-0.090269 4.4748e-08 -0.0021323)
(-0.0869042 4.55408e-08 -0.00211889)
(-0.0835646 4.6327e-08 -0.0021039)
(-0.0802523 4.70967e-08 -0.00208741)
(-0.0769694 4.78465e-08 -0.00206952)
(-0.0737181 4.85831e-08 -0.00205034)
(-0.0705 4.93099e-08 -0.00202995)
(-0.0673169 4.99933e-08 -0.00200846)
(-0.0641703 5.06568e-08 -0.00198595)
(-0.0610615 5.12871e-08 -0.0019625)
(-0.0579919 5.18773e-08 -0.00193822)
(-0.0549625 5.2451e-08 -0.00191317)
(-0.0519744 5.29746e-08 -0.00188744)
(-0.0490285 5.34514e-08 -0.00186109)
(-0.0461255 5.38916e-08 -0.00183421)
(-0.0432661 5.42784e-08 -0.00180685)
(-0.040451 5.46217e-08 -0.00177907)
(-0.0376806 5.49284e-08 -0.00175092)
(-0.0349554 5.51748e-08 -0.00172245)
(-0.0322757 5.53678e-08 -0.00169369)
(-0.029642 5.55139e-08 -0.00166468)
(-0.0270545 5.563e-08 -0.00163543)
(-0.0245135 5.56959e-08 -0.00160597)
(-0.0220193 5.57083e-08 -0.0015763)
(-0.019572 5.56872e-08 -0.00154641)
(-0.0171721 5.56193e-08 -0.0015163)
(-0.0148199 5.55011e-08 -0.00148595)
(-0.0125155 5.5336e-08 -0.00145532)
(-0.0102596 5.51509e-08 -0.00142438)
(-0.00805239 5.49423e-08 -0.00139308)
(-0.00589456 5.46599e-08 -0.00136141)
(-0.00378639 5.43374e-08 -0.00132955)
(-0.00172881 5.39679e-08 -0.00129795)
(0.000279706 5.32496e-08 -0.00126501)
(0.00223502 5.22597e-08 -0.00122961)
(0.00413625 5.1387e-08 -0.00119291)
(0.00598229 5.05578e-08 -0.00115536)
(0.00777137 4.97788e-08 -0.0011169)
(0.00950185 4.90802e-08 -0.00107741)
(0.0111719 4.84454e-08 -0.00103677)
(0.0127794 4.78708e-08 -0.000994861)
(0.0143221 4.73667e-08 -0.000951555)
(0.0157976 4.69431e-08 -0.000906733)
(0.0172032 4.658e-08 -0.000860277)
(0.0185361 4.62941e-08 -0.000812076)
(0.0197932 4.61056e-08 -0.000762025)
(0.0209712 4.60348e-08 -0.000710028)
(0.0220669 4.6048e-08 -0.000656)
(0.0230767 4.61823e-08 -0.000599871)
(0.023997 4.64545e-08 -0.000541586)
(0.024824 4.68211e-08 -0.000481106)
(0.0255539 4.73458e-08 -0.000418419)
(0.0261829 4.80323e-08 -0.000353533)
(0.0267073 4.88637e-08 -0.000286489)
(0.0271231 4.9857e-08 -0.000217363)
(0.0274267 5.10122e-08 -0.000146276)
(0.0276148 5.23463e-08 -7.34039e-05)
(0.0276837 5.37012e-08 1.06519e-06)
(0.0276312 5.54496e-08 7.71081e-05)
(0.0274537 5.75833e-08 0.000154594)
(0.0271487 5.98056e-08 0.000233176)
(0.0267141 6.22243e-08 0.000312529)
(0.0261484 6.4853e-08 0.00039227)
(0.0254505 6.77087e-08 0.000471965)
(0.0246202 7.07713e-08 0.000551129)
(0.023658 7.4068e-08 0.000629222)
(0.0225652 7.75418e-08 0.000705641)
(0.0213442 8.12331e-08 0.000779721)
(0.0199985 8.5149e-08 0.000850723)
(0.0185327 8.93639e-08 0.000917836)
(0.0169528 9.38915e-08 0.00098016)
(0.0152664 9.87997e-08 0.0010367)
(0.0134826 1.04143e-07 0.00108637)
(0.0116126 1.09894e-07 0.00112794)
(0.00966937 1.16068e-07 0.00116006)
(0.0076685 1.22516e-07 0.00118121)
(0.00562816 1.29137e-07 0.00118968)
(0.00356914 1.35843e-07 0.00118354)
(0.00151794 1.42446e-07 0.00116052)
(-0.000501429 1.47972e-07 0.00111613)
(-0.00244842 1.52549e-07 0.00104683)
(-0.004286 1.57252e-07 0.000950877)
(-0.00596931 1.61954e-07 0.000826263)
(-0.00744496 1.66526e-07 0.000668552)
(-0.00865277 1.70963e-07 0.000471868)
(-0.00952186 1.75361e-07 0.000232107)
(-0.00997366 1.80026e-07 -5.38521e-05)
(-0.00992281 1.84872e-07 -0.000382991)
(-0.00928926 1.90647e-07 -0.000741878)
(-0.00801677 1.98703e-07 -0.0010949)
(-0.00610985 2.094e-07 -0.00135624)
(-0.00373002 2.18719e-07 -0.0013356)
(-0.00136738 2.35143e-07 -0.000783635)
(-6.65483e-05 1.11395e-07 -6.9586e-05)
(0.00287363 5.28081e-08 -0.00579687)
(0.00680465 3.55437e-09 -0.00717112)
(0.00878996 3.58148e-08 -0.00561227)
(0.00954734 2.41689e-08 -0.00311444)
(0.00910961 1.90079e-08 -0.00062359)
(0.00766804 1.56886e-08 0.0015464)
(0.00536153 1.40707e-08 0.00332753)
(0.00232538 1.29356e-08 0.00474915)
(-0.00131946 1.17524e-08 0.00586982)
(-0.0054559 1.06921e-08 0.00674653)
(-0.00999178 9.84586e-09 0.00742814)
(-0.0148481 9.10244e-09 0.00795377)
(-0.0199602 8.39984e-09 0.00835815)
(-0.0252741 7.77297e-09 0.00866821)
(-0.0307449 7.26753e-09 0.00890334)
(-0.0363362 6.84503e-09 0.00907854)
(-0.0420174 6.48872e-09 0.00920524)
(-0.0477634 6.18602e-09 0.00929224)
(-0.0535528 5.95436e-09 0.00934632)
(-0.0593676 5.80368e-09 0.00937269)
(-0.0651921 5.71145e-09 0.00937533)
(-0.0710128 5.64681e-09 0.0093573)
(-0.0768177 5.56894e-09 0.00932094)
(-0.0825957 5.45788e-09 0.009268)
(-0.088337 5.30196e-09 0.00919982)
(-0.0940323 5.10785e-09 0.00911738)
(-0.099673 4.88472e-09 0.00902143)
(-0.105251 4.64504e-09 0.00891252)
(-0.110757 4.40214e-09 0.00879106)
(-0.116185 4.17097e-09 0.00865737)
(-0.121527 3.9561e-09 0.00851169)
(-0.126776 3.77208e-09 0.00835423)
(-0.131923 3.61765e-09 0.0081852)
(-0.136962 3.48947e-09 0.0080048)
(-0.141887 3.37797e-09 0.00781323)
(-0.14669 3.27733e-09 0.00761074)
(-0.151364 3.17048e-09 0.00739759)
(-0.155904 3.05536e-09 0.00717409)
(-0.160302 2.92656e-09 0.00694058)
(-0.164553 2.78199e-09 0.00669744)
(-0.168651 2.6225e-09 0.00644512)
(-0.172591 2.45639e-09 0.00618408)
(-0.176366 2.282e-09 0.00591482)
(-0.179973 2.10307e-09 0.00563791)
(-0.183406 1.92334e-09 0.00535392)
(-0.186662 1.74281e-09 0.00506346)
(-0.189736 1.56189e-09 0.00476719)
(-0.192625 1.38141e-09 0.00446575)
(-0.195326 1.19846e-09 0.00415984)
(-0.197837 1.01428e-09 0.00385016)
(-0.200155 8.3012e-10 0.0035374)
(-0.202278 6.42658e-10 0.00322228)
(-0.204205 4.62275e-10 0.00290552)
(-0.205935 2.83154e-10 0.00258783)
(-0.207467 1.04878e-10 0.00226992)
(-0.208802 -7.42153e-11 0.00195247)
(-0.20994 -2.53713e-10 0.00163619)
(-0.210882 -4.37354e-10 0.00132174)
(-0.211628 -6.28047e-10 0.00100978)
(-0.212181 -8.25378e-10 0.000700949)
(-0.212542 -1.0227e-09 0.000395855)
(-0.212714 -1.2088e-09 9.5094e-05)
(-0.212698 -1.40903e-09 -0.000200882)
(-0.212499 -1.61672e-09 -0.000491725)
(-0.212118 -1.80073e-09 -0.000776986)
(-0.211561 -1.97021e-09 -0.00105619)
(-0.21083 -2.13054e-09 -0.00132889)
(-0.20993 -2.27634e-09 -0.00159467)
(-0.208864 -2.41466e-09 -0.00185317)
(-0.207638 -2.54385e-09 -0.00210405)
(-0.206256 -2.66722e-09 -0.00234703)
(-0.204723 -2.78562e-09 -0.00258184)
(-0.203044 -2.90028e-09 -0.00280827)
(-0.201223 -3.01204e-09 -0.00302611)
(-0.199267 -3.12048e-09 -0.00323522)
(-0.19718 -3.22644e-09 -0.00343545)
(-0.194968 -3.32949e-09 -0.00362671)
(-0.192636 -3.42632e-09 -0.00380892)
(-0.19019 -3.52067e-09 -0.00398203)
(-0.187635 -3.6092e-09 -0.00414601)
(-0.184977 -3.69318e-09 -0.00430086)
(-0.182221 -3.76886e-09 -0.00444661)
(-0.179373 -3.84205e-09 -0.0045833)
(-0.176438 -3.90694e-09 -0.00471098)
(-0.173422 -3.96769e-09 -0.00482974)
(-0.170329 -4.02554e-09 -0.00493968)
(-0.167167 -4.08506e-09 -0.00504092)
(-0.163939 -4.14375e-09 -0.00513358)
(-0.16065 -4.20329e-09 -0.00521782)
(-0.157307 -4.26034e-09 -0.00529379)
(-0.153914 -4.31947e-09 -0.00536166)
(-0.150476 -4.38028e-09 -0.00542163)
(-0.146997 -4.44192e-09 -0.00547387)
(-0.143483 -4.50233e-09 -0.00551861)
(-0.139937 -4.56358e-09 -0.00555605)
(-0.136365 -4.62235e-09 -0.00558641)
(-0.132771 -4.67946e-09 -0.00560992)
(-0.129159 -4.73491e-09 -0.00562682)
(-0.125532 -4.7883e-09 -0.00563734)
(-0.121896 -4.84087e-09 -0.00564173)
(-0.118253 -4.89261e-09 -0.00564023)
(-0.114607 -4.93937e-09 -0.00563311)
(-0.110962 -4.99446e-09 -0.00562061)
(-0.107321 -5.04706e-09 -0.00560299)
(-0.103687 -5.09883e-09 -0.0055805)
(-0.100064 -5.15145e-09 -0.0055534)
(-0.0964532 -5.2074e-09 -0.00552195)
(-0.0928588 -5.26419e-09 -0.0054864)
(-0.089283 -5.32348e-09 -0.00544699)
(-0.0857281 -5.38361e-09 -0.00540399)
(-0.0821966 -5.44375e-09 -0.00535763)
(-0.0786905 -5.51055e-09 -0.00530816)
(-0.075212 -5.5757e-09 -0.00525581)
(-0.0717629 -5.64252e-09 -0.0052008)
(-0.068345 -5.71434e-09 -0.00514337)
(-0.0649599 -5.78451e-09 -0.00508372)
(-0.0616092 -5.85718e-09 -0.00502206)
(-0.0582943 -5.93236e-09 -0.00495859)
(-0.0550165 -6.01088e-09 -0.00489348)
(-0.0517769 -6.08774e-09 -0.00482691)
(-0.0485767 -6.16712e-09 -0.00475905)
(-0.0454168 -6.24484e-09 -0.00469003)
(-0.0422982 -6.3284e-09 -0.00462)
(-0.0392217 -6.40698e-09 -0.00454906)
(-0.0361881 -6.48724e-09 -0.00447732)
(-0.0331981 -6.57084e-09 -0.00440487)
(-0.0302524 -6.65113e-09 -0.00433177)
(-0.0273516 -6.72977e-09 -0.00425806)
(-0.0244963 -6.80676e-09 -0.00418378)
(-0.0216871 -6.88294e-09 -0.00410892)
(-0.0189247 -6.96163e-09 -0.00403349)
(-0.0162097 -7.03618e-09 -0.00395745)
(-0.0135426 -7.11324e-09 -0.00388075)
(-0.0109241 -7.18117e-09 -0.00380331)
(-0.008355 -7.24995e-09 -0.00372508)
(-0.00583595 -7.32541e-09 -0.00364596)
(-0.00336775 -7.40507e-09 -0.00356599)
(-0.000951175 -7.4964e-09 -0.0034853)
(0.00141314 -7.58944e-09 -0.00340341)
(0.003722 -7.6525e-09 -0.00331912)
(0.00597493 -7.65977e-09 -0.00323192)
(0.00817036 -7.6304e-09 -0.00314223)
(0.0103065 -7.59605e-09 -0.00305004)
(0.0123816 -7.55338e-09 -0.0029551)
(0.0143934 -7.49739e-09 -0.00285714)
(0.0163397 -7.43975e-09 -0.00275585)
(0.0182181 -7.37045e-09 -0.0026509)
(0.0200259 -7.2995e-09 -0.00254195)
(0.0217602 -7.22106e-09 -0.00242869)
(0.0234179 -7.13847e-09 -0.00231079)
(0.0249959 -7.05255e-09 -0.00218795)
(0.0264906 -6.96165e-09 -0.00205985)
(0.0278984 -6.86744e-09 -0.00192622)
(0.0292154 -6.7724e-09 -0.00178682)
(0.0304377 -6.66988e-09 -0.00164141)
(0.0315611 -6.56821e-09 -0.00148981)
(0.0325815 -6.46239e-09 -0.00133188)
(0.0334944 -6.35575e-09 -0.00116752)
(0.0342955 -6.24163e-09 -0.000996692)
(0.0349805 -6.13253e-09 -0.000819436)
(0.0355448 -6.02681e-09 -0.000635858)
(0.0359843 -5.91693e-09 -0.000446162)
(0.0362947 -5.80707e-09 -0.000250646)
(0.0364719 -5.69053e-09 -4.97505e-05)
(0.036512 -5.58808e-09 0.000156316)
(0.0364116 -5.50418e-09 0.000367248)
(0.0361675 -5.40448e-09 0.000582308)
(0.035777 -5.3157e-09 0.000800714)
(0.0352379 -5.23365e-09 0.00102156)
(0.0345485 -5.16672e-09 0.00124379)
(0.0337078 -5.1216e-09 0.00146623)
(0.0327157 -5.09497e-09 0.00168754)
(0.0315728 -5.09519e-09 0.0019062)
(0.0302809 -5.12062e-09 0.00212053)
(0.0288427 -5.15453e-09 0.00232864)
(0.0272625 -5.19693e-09 0.00252844)
(0.0255455 -5.23274e-09 0.00271758)
(0.0236989 -5.24687e-09 0.00289347)
(0.0217314 -5.24937e-09 0.0030532)
(0.0196535 -5.23519e-09 0.00319352)
(0.0174781 -5.23785e-09 0.0033108)
(0.0152203 -5.27414e-09 0.00340093)
(0.0128978 -5.37594e-09 0.00345926)
(0.0105313 -5.55839e-09 0.0034804)
(0.00814524 -5.83163e-09 0.0034583)
(0.00576693 -6.0916e-09 0.00338478)
(0.00342843 -6.20895e-09 0.00325115)
(0.00116648 -6.27756e-09 0.00304893)
(-0.000978914 -6.39984e-09 0.00276711)
(-0.00295554 -6.58574e-09 0.00239369)
(-0.00471185 -6.83028e-09 0.00191509)
(-0.00618729 -7.14694e-09 0.00131736)
(-0.00731622 -7.51901e-09 0.000588198)
(-0.00802908 -7.75918e-09 -0.000275723)
(-0.00825158 -7.52709e-09 -0.00125693)
(-0.0079179 -6.31856e-09 -0.00229838)
(-0.00697127 -3.32356e-09 -0.00325607)
(-0.00538704 1.08404e-09 -0.00380801)
(-0.00321015 1.15438e-08 -0.00336889)
(-0.000744022 -1.03635e-07 -0.00145612)
(0.00287249 5.28071e-08 -0.00579791)
(0.00680384 3.55423e-09 -0.0071718)
(0.00878952 3.58134e-08 -0.00561258)
(0.00954695 2.4168e-08 -0.00311462)
(0.0091093 1.90072e-08 -0.000623723)
(0.00766779 1.56881e-08 0.00154629)
(0.00536133 1.40703e-08 0.00332742)
(0.00232523 1.29352e-08 0.00474904)
(-0.00131957 1.17521e-08 0.00586971)
(-0.00545597 1.06918e-08 0.00674642)
(-0.00999181 9.84563e-09 0.00742804)
(-0.0148481 9.10223e-09 0.00795367)
(-0.0199601 8.39966e-09 0.00835806)
(-0.025274 7.7728e-09 0.00866811)
(-0.0307448 7.26737e-09 0.00890325)
(-0.036336 6.84489e-09 0.00907844)
(-0.0420172 6.48859e-09 0.00920515)
(-0.0477632 6.18589e-09 0.00929215)
(-0.0535526 5.95424e-09 0.00934624)
(-0.0593673 5.80357e-09 0.0093726)
(-0.0651918 5.71133e-09 0.00937524)
(-0.0710125 5.6467e-09 0.00935722)
(-0.0768173 5.56884e-09 0.00932086)
(-0.0825954 5.45777e-09 0.00926792)
(-0.0883366 5.30185e-09 0.00919974)
(-0.094032 5.10775e-09 0.00911731)
(-0.0996726 4.88463e-09 0.00902136)
(-0.10525 4.64496e-09 0.00891245)
(-0.110757 4.40205e-09 0.00879099)
(-0.116185 4.17089e-09 0.0086573)
(-0.121527 3.95602e-09 0.00851162)
(-0.126775 3.77201e-09 0.00835416)
(-0.131922 3.61758e-09 0.00818513)
(-0.136962 3.48941e-09 0.00800473)
(-0.141886 3.37791e-09 0.00781317)
(-0.146689 3.27727e-09 0.00761067)
(-0.151364 3.17042e-09 0.00739752)
(-0.155903 3.05531e-09 0.00717402)
(-0.160302 2.9265e-09 0.00694051)
(-0.164553 2.78194e-09 0.00669737)
(-0.168651 2.62245e-09 0.00644505)
(-0.17259 2.45635e-09 0.006184)
(-0.176366 2.28196e-09 0.00591475)
(-0.179972 2.10304e-09 0.00563783)
(-0.183406 1.92331e-09 0.00535384)
(-0.186661 1.74278e-09 0.00506339)
(-0.189735 1.56186e-09 0.00476711)
(-0.192625 1.38138e-09 0.00446568)
(-0.195326 1.19843e-09 0.00415977)
(-0.197836 1.01426e-09 0.00385008)
(-0.200154 8.30106e-10 0.00353732)
(-0.202277 6.42647e-10 0.0032222)
(-0.204204 4.62267e-10 0.00290544)
(-0.205934 2.8315e-10 0.00258775)
(-0.207467 1.04877e-10 0.00226984)
(-0.208802 -7.42141e-11 0.00195239)
(-0.20994 -2.53709e-10 0.00163611)
(-0.210881 -4.37347e-10 0.00132166)
(-0.211628 -6.28037e-10 0.0010097)
(-0.212181 -8.25364e-10 0.000700864)
(-0.212542 -1.02268e-09 0.000395769)
(-0.212713 -1.20878e-09 9.50078e-05)
(-0.212698 -1.40901e-09 -0.000200968)
(-0.212498 -1.6167e-09 -0.000491812)
(-0.212118 -1.80071e-09 -0.000777074)
(-0.21156 -1.97018e-09 -0.00105628)
(-0.210829 -2.13051e-09 -0.00132897)
(-0.209929 -2.2763e-09 -0.00159476)
(-0.208864 -2.41462e-09 -0.00185326)
(-0.207638 -2.54381e-09 -0.00210414)
(-0.206256 -2.66718e-09 -0.00234712)
(-0.204723 -2.78558e-09 -0.00258193)
(-0.203043 -2.90024e-09 -0.00280836)
(-0.201223 -3.01199e-09 -0.0030262)
(-0.199267 -3.12043e-09 -0.00323531)
(-0.19718 -3.22639e-09 -0.00343554)
(-0.194968 -3.32944e-09 -0.0036268)
(-0.192636 -3.42627e-09 -0.00380901)
(-0.19019 -3.52061e-09 -0.00398212)
(-0.187635 -3.60915e-09 -0.0041461)
(-0.184976 -3.69313e-09 -0.00430096)
(-0.18222 -3.7688e-09 -0.0044467)
(-0.179372 -3.842e-09 -0.00458339)
(-0.176437 -3.90689e-09 -0.00471107)
(-0.173421 -3.96763e-09 -0.00482984)
(-0.170329 -4.02548e-09 -0.00493978)
(-0.167166 -4.085e-09 -0.00504101)
(-0.163938 -4.14369e-09 -0.00513368)
(-0.16065 -4.20323e-09 -0.00521791)
(-0.157307 -4.26028e-09 -0.00529388)
(-0.153914 -4.31941e-09 -0.00536176)
(-0.150475 -4.38022e-09 -0.00542172)
(-0.146997 -4.44186e-09 -0.00547397)
(-0.143482 -4.50227e-09 -0.00551871)
(-0.139937 -4.56352e-09 -0.00555614)
(-0.136365 -4.62228e-09 -0.0055865)
(-0.132771 -4.67939e-09 -0.00561002)
(-0.129158 -4.73485e-09 -0.00562691)
(-0.125532 -4.78824e-09 -0.00563743)
(-0.121895 -4.84081e-09 -0.00564183)
(-0.118252 -4.89255e-09 -0.00564033)
(-0.114606 -4.93931e-09 -0.00563321)
(-0.110961 -4.9944e-09 -0.00562071)
(-0.10732 -5.047e-09 -0.00560309)
(-0.103687 -5.09877e-09 -0.0055806)
(-0.100063 -5.15139e-09 -0.0055535)
(-0.0964528 -5.20734e-09 -0.00552205)
(-0.0928585 -5.26412e-09 -0.0054865)
(-0.0892826 -5.32342e-09 -0.0054471)
(-0.0857278 -5.38355e-09 -0.0054041)
(-0.0821962 -5.44369e-09 -0.00535774)
(-0.0786902 -5.51049e-09 -0.00530827)
(-0.0752116 -5.57564e-09 -0.00525592)
(-0.0717625 -5.64246e-09 -0.00520091)
(-0.0683446 -5.71428e-09 -0.00514348)
(-0.0649596 -5.78445e-09 -0.00508383)
(-0.0616089 -5.85712e-09 -0.00502218)
(-0.058294 -5.9323e-09 -0.0049587)
(-0.0550161 -6.01082e-09 -0.00489359)
(-0.0517766 -6.08769e-09 -0.00482703)
(-0.0485764 -6.16706e-09 -0.00475916)
(-0.0454165 -6.24478e-09 -0.00469015)
(-0.0422979 -6.32834e-09 -0.00462012)
(-0.0392214 -6.40692e-09 -0.00454918)
(-0.0361878 -6.48718e-09 -0.00447745)
(-0.0331978 -6.57079e-09 -0.00440499)
(-0.0302521 -6.65108e-09 -0.00433189)
(-0.0273513 -6.72972e-09 -0.00425818)
(-0.024496 -6.80671e-09 -0.0041839)
(-0.0216869 -6.88288e-09 -0.00410905)
(-0.0189245 -6.96158e-09 -0.00403362)
(-0.0162094 -7.03612e-09 -0.00395758)
(-0.0135423 -7.11319e-09 -0.00388088)
(-0.0109239 -7.18112e-09 -0.00380345)
(-0.00835474 -7.2499e-09 -0.00372521)
(-0.00583568 -7.32536e-09 -0.00364609)
(-0.00336749 -7.40502e-09 -0.00356613)
(-0.000950913 -7.49636e-09 -0.00348543)
(0.0014134 -7.58939e-09 -0.00340355)
(0.00372225 -7.65245e-09 -0.00331926)
(0.00597519 -7.65973e-09 -0.00323206)
(0.00817061 -7.63036e-09 -0.00314237)
(0.0103068 -7.59601e-09 -0.00305017)
(0.0123818 -7.55334e-09 -0.00295524)
(0.0143936 -7.49735e-09 -0.00285728)
(0.01634 -7.43971e-09 -0.00275599)
(0.0182183 -7.37041e-09 -0.00265104)
(0.0200261 -7.29947e-09 -0.00254209)
(0.0217604 -7.22103e-09 -0.00242883)
(0.0234182 -7.13844e-09 -0.00231093)
(0.0249962 -7.05253e-09 -0.00218808)
(0.0264909 -6.96163e-09 -0.00205999)
(0.0278986 -6.86741e-09 -0.00192636)
(0.0292157 -6.77238e-09 -0.00178696)
(0.0304379 -6.66986e-09 -0.00164155)
(0.0315614 -6.56819e-09 -0.00148995)
(0.0325817 -6.46237e-09 -0.00133202)
(0.0334947 -6.35574e-09 -0.00116766)
(0.0342958 -6.24161e-09 -0.000996832)
(0.0349807 -6.13252e-09 -0.000819575)
(0.0355451 -6.02679e-09 -0.000635997)
(0.0359846 -5.91692e-09 -0.000446301)
(0.036295 -5.80706e-09 -0.000250785)
(0.0364722 -5.69052e-09 -4.98886e-05)
(0.0365122 -5.58807e-09 0.000156178)
(0.0364118 -5.50418e-09 0.000367109)
(0.0361678 -5.40447e-09 0.000582169)
(0.0357773 -5.31569e-09 0.000800575)
(0.0352382 -5.23365e-09 0.00102142)
(0.0345487 -5.16672e-09 0.00124365)
(0.033708 -5.1216e-09 0.00146609)
(0.0327159 -5.09496e-09 0.0016874)
(0.031573 -5.09519e-09 0.00190606)
(0.0302811 -5.12062e-09 0.00212039)
(0.0288429 -5.15453e-09 0.0023285)
(0.0272627 -5.19692e-09 0.00252829)
(0.0255457 -5.23273e-09 0.00271744)
(0.0236991 -5.24686e-09 0.00289332)
(0.0217315 -5.24936e-09 0.00305304)
(0.0196537 -5.23518e-09 0.00319337)
(0.0174783 -5.23784e-09 0.00331064)
(0.0152204 -5.27413e-09 0.00340077)
(0.0128979 -5.37593e-09 0.0034591)
(0.0105315 -5.55839e-09 0.00348023)
(0.00814535 -5.83162e-09 0.00345812)
(0.00576703 -6.0916e-09 0.00338459)
(0.00342852 -6.20894e-09 0.00325095)
(0.00116656 -6.27755e-09 0.00304873)
(-0.000978847 -6.39983e-09 0.0027669)
(-0.00295548 -6.58572e-09 0.00239347)
(-0.00471181 -6.83027e-09 0.00191484)
(-0.00618726 -7.14693e-09 0.0013171)
(-0.00731621 -7.519e-09 0.000587909)
(-0.00802908 -7.75917e-09 -0.000276044)
(-0.00825159 -7.52708e-09 -0.00125729)
(-0.00791794 -6.31855e-09 -0.00229879)
(-0.00697134 -3.32356e-09 -0.00325654)
(-0.00538718 1.08404e-09 -0.00380858)
(-0.00321061 1.15438e-08 -0.00336961)
(-0.000744617 -1.03635e-07 -0.00145694)
(0.002755 8.75495e-08 -0.0107051)
(0.00514782 2.23182e-08 -0.00924253)
(0.00542632 3.84549e-08 -0.00590291)
(0.00476037 2.75611e-08 -0.00232586)
(0.00327074 2.2971e-08 0.00100005)
(0.00113812 1.9348e-08 0.00388858)
(-0.00157087 1.69047e-08 0.00630428)