/*--------------------------------*- C++ -*----------------------------------*\
  =========                 |
  \\      /  F ield         | OpenFOAM: The Open Source CFD Toolbox
   \\    /   O peration     | Website:  https://openfoam.org
    \\  /    A nd           | Version:  8
     \\/     M anipulation  |
\*---------------------------------------------------------------------------*/
FoamFile
{
    version     2.0;
    format      ascii;
    class       volScalarField;
    location    "4200";
    object      alphat;
}
// * * * * * * * * * * * * * * * * * * * * * * * * * * * * * * * * * * * * * //

dimensions      [1 -1 -1 0 0 0 0];

internalField   nonuniform List<scalar> 
48000
(
5.3563e-05
9.31763e-05
0.000115381
0.000131709
0.000145345
0.000156872
0.000166884
0.000175766
0.000183889
0.00019144
0.000198429
0.000204966
0.000211108
0.000216903
0.000222387
0.000227588
0.000232531
0.000237235
0.000241715
0.000245984
0.000250053
0.000253932
0.00025763
0.000261152
0.000264506
0.000267697
0.000270731
0.000273612
0.000276345
0.000278935
0.000281385
0.0002837
0.000285884
0.00028794
0.000289873
0.000291686
0.000293382
0.000294966
0.000296441
0.000297811
0.000299079
0.000300249
0.000301323
0.000302305
0.000303207
0.000304038
0.000304788
0.000305459
0.000306054
0.000306576
0.000307028
0.000307415
0.000307738
0.000308001
0.000308207
0.000308359
0.000308458
0.000308509
0.000308513
0.000308472
0.00030839
0.000308268
0.000308108
0.000307912
0.000307683
0.000307422
0.000307131
0.000306811
0.000306465
0.000306092
0.000305696
0.000305277
0.000304837
0.000304376
0.000303895
0.000303397
0.000302881
0.000302348
0.0003018
0.000301237
0.00030066
0.000300069
0.000299465
0.000298848
0.000298219
0.000297579
0.000296927
0.000296265
0.000295591
0.000294907
0.000294213
0.000293509
0.000292795
0.000292071
0.000291337
0.000290594
0.000289841
0.000289078
0.000288305
0.000287522
0.000286729
0.000285927
0.000285114
0.00028429
0.000283457
0.000282612
0.000281756
0.00028089
0.000280011
0.000279122
0.00027822
0.000277306
0.000276379
0.00027544
0.000274487
0.000273521
0.000272542
0.000271548
0.00027054
0.000269516
0.000268478
0.000267424
0.000266355
0.000265269
0.000264166
0.000263046
0.000261909
0.000260754
0.000259581
0.00025839
0.000257179
0.000255949
0.0002547
0.00025343
0.00025214
0.000250829
0.000249497
0.000248143
0.000246767
0.000245369
0.000243948
0.000242504
0.000241036
0.000239545
0.000238029
0.000236489
0.000234924
0.000233333
0.000231716
0.000230074
0.000228405
0.000226708
0.000224985
0.000223234
0.000221454
0.000219646
0.000217809
0.000215943
0.000214046
0.000212118
0.000210159
0.000208169
0.000206145
0.000204089
0.000201998
0.000199873
0.000197711
0.000195513
0.000193276
0.000191
0.000188682
0.000186322
0.000183918
0.000181467
0.000178967
0.000176416
0.00017381
0.000171145
0.00016842
0.00016563
0.000162776
0.000159868
0.000156878
0.000153789
0.000150592
0.000147271
0.00014381
0.000140188
0.000136379
0.000132346
0.000128046
0.000123438
0.000118467
0.000112993
0.000106843
9.97451e-05
9.12155e-05
8.03139e-05
6.48702e-05
5.19773e-05
5.35635e-05
9.31765e-05
0.000115381
0.000131709
0.000145345
0.000156872
0.000166884
0.000175767
0.000183889
0.000191441
0.000198429
0.000204966
0.000211108
0.000216903
0.000222387
0.000227588
0.000232531
0.000237235
0.000241715
0.000245984
0.000250053
0.000253933
0.00025763
0.000261152
0.000264506
0.000267697
0.000270731
0.000273612
0.000276345
0.000278935
0.000281385
0.0002837
0.000285884
0.00028794
0.000289873
0.000291686
0.000293382
0.000294966
0.000296442
0.000297811
0.000299079
0.000300249
0.000301323
0.000302305
0.000303207
0.000304038
0.000304788
0.000305459
0.000306054
0.000306576
0.000307028
0.000307415
0.000307738
0.000308001
0.000308207
0.000308359
0.000308458
0.000308509
0.000308513
0.000308472
0.00030839
0.000308268
0.000308108
0.000307912
0.000307683
0.000307422
0.000307131
0.000306811
0.000306465
0.000306092
0.000305696
0.000305277
0.000304837
0.000304376
0.000303895
0.000303397
0.000302881
0.000302348
0.0003018
0.000301237
0.00030066
0.000300069
0.000299465
0.000298848
0.000298219
0.000297579
0.000296927
0.000296265
0.000295591
0.000294907
0.000294213
0.000293509
0.000292795
0.000292071
0.000291337
0.000290594
0.000289841
0.000289078
0.000288305
0.000287522
0.000286729
0.000285927
0.000285114
0.00028429
0.000283457
0.000282612
0.000281756
0.00028089
0.000280011
0.000279122
0.00027822
0.000277306
0.000276379
0.00027544
0.000274487
0.000273521
0.000272542
0.000271548
0.00027054
0.000269516
0.000268478
0.000267424
0.000266355
0.000265269
0.000264166
0.000263046
0.000261909
0.000260754
0.000259581
0.00025839
0.000257179
0.000255949
0.0002547
0.00025343
0.00025214
0.000250829
0.000249497
0.000248143
0.000246767
0.000245369
0.000243948
0.000242504
0.000241036
0.000239545
0.000238029
0.000236489
0.000234924
0.000233333
0.000231716
0.000230074
0.000228405
0.000226708
0.000224985
0.000223234
0.000221454
0.000219646
0.000217809
0.000215943
0.000214046
0.000212118
0.000210159
0.000208169
0.000206145
0.000204089
0.000201998
0.000199873
0.000197711
0.000195513
0.000193276
0.000191
0.000188682
0.000186322
0.000183918
0.000181467
0.000178967
0.000176416
0.00017381
0.000171145
0.00016842
0.00016563
0.000162776
0.000159868
0.000156878
0.000153789
0.000150592
0.000147271
0.00014381
0.000140188
0.000136379
0.000132346
0.000128046
0.000123438
0.000118467
0.000112993
0.000106843
9.97453e-05
9.12162e-05
8.0316e-05
6.48664e-05
5.1978e-05
8.10903e-05
0.000601321
0.00095205
0.00119726
0.0013813
0.00153068
0.00165872
0.00177131
0.00187179
0.00196245
0.00204542
0.00212191
0.00219287
0.002259
0.00232088
0.00237895
0.00243359
0.00248509
0.00253371
0.00257966
0.00262314
0.00266431
0.00270329
0.00274023
0.00277522
0.00280838
0.00283978
0.00286952
0.00289766
0.00292428
0.00294945
0.00297322
0.00299565
0.0030168
0.00303671
0.00305544
0.00307303
0.00308952
0.00310495
0.00311937
0.00313281
0.0031453
0.00315687
0.00316749
0.00317704
0.0031856
0.00319333
0.00320034
0.00320667
0.00321237
0.00321747
0.00322199
0.00322596
0.00322942
0.00323237
0.00323484
0.00323686
0.00323844
0.0032396
0.00324036
0.00324074
0.00324076
0.00324042
0.00323975
0.00323877
0.00323748
0.00323589
0.00323403
0.0032319
0.00322952
0.00322689
0.00322403
0.00322095
0.00321765
0.00321415
0.00321044
0.00320655
0.00320247
0.00319822
0.00319379
0.0031892
0.00318446
0.00317955
0.0031745
0.0031693
0.00316395
0.00315847
0.00315285
0.00314709
0.0031412
0.00313518
0.00312903
0.00312276
0.00311635
0.00310982
0.00310316
0.00309638
0.00308947
0.00308243
0.00307526
0.00306796
0.00306053
0.00305297
0.00304528
0.00303745
0.00302949
0.00302139
0.00301314
0.00300476
0.00299622
0.00298754
0.00297871
0.00296972
0.00296057
0.00295127
0.0029418
0.00293217
0.00292236
0.00291238
0.00290223
0.00289189
0.00288137
0.00287067
0.00285977
0.00284867
0.00283738
0.00282589
0.00281419
0.00280228
0.00279015
0.00277781
0.00276525
0.00275246
0.00273944
0.00272618
0.00271269
0.00269896
0.00268498
0.00267076
0.00265628
0.00264154
0.00262655
0.00261128
0.00259575
0.00257995
0.00256387
0.0025475
0.00253085
0.00251391
0.00249668
0.00247915
0.00246131
0.00244317
0.00242471
0.00240593
0.00238682
0.00236739
0.00234762
0.0023275
0.00230704
0.00228621
0.00226502
0.00224345
0.0022215
0.00219915
0.0021764
0.00215322
0.00212961
0.00210554
0.00208101
0.00205599
0.00203046
0.0020044
0.00197776
0.00195054
0.00192267
0.00189413
0.00186485
0.00183477
0.00180378
0.00177176
0.00173853
0.0017041
0.00166838
0.00163127
0.00159257
0.00155207
0.00150946
0.00146435
0.0014162
0.00136417
0.00130676
0.00124257
0.00117007
0.00108622
0.000985944
0.00086003
0.000689953
0.000433328
5.68303e-05
8.10907e-05
0.000601328
0.00095206
0.00119727
0.00138131
0.00153069
0.00165873
0.00177132
0.0018718
0.00196246
0.00204543
0.00212192
0.00219287
0.00225901
0.00232088
0.00237896
0.00243359
0.00248509
0.00253371
0.00257967
0.00262315
0.00266431
0.0027033
0.00274023
0.00277523
0.00280838
0.00283979
0.00286952
0.00289767
0.00292429
0.00294946
0.00297323
0.00299566
0.0030168
0.00303672
0.00305544
0.00307303
0.00308952
0.00310496
0.00311937
0.00313281
0.00314531
0.00315687
0.0031675
0.00317704
0.0031856
0.00319334
0.00320034
0.00320668
0.00321237
0.00321747
0.00322199
0.00322597
0.00322942
0.00323237
0.00323485
0.00323686
0.00323844
0.0032396
0.00324037
0.00324075
0.00324076
0.00324043
0.00323976
0.00323877
0.00323748
0.0032359
0.00323404
0.00323191
0.00322953
0.0032269
0.00322404
0.00322095
0.00321766
0.00321415
0.00321045
0.00320655
0.00320248
0.00319822
0.0031938
0.00318921
0.00318446
0.00317956
0.0031745
0.0031693
0.00316396
0.00315847
0.00315285
0.0031471
0.00314121
0.00313519
0.00312904
0.00312276
0.00311636
0.00310983
0.00310317
0.00309638
0.00308947
0.00308243
0.00307526
0.00306796
0.00306054
0.00305298
0.00304529
0.00303746
0.00302949
0.00302139
0.00301315
0.00300476
0.00299623
0.00298754
0.00297871
0.00296972
0.00296058
0.00295127
0.0029418
0.00293217
0.00292236
0.00291239
0.00290223
0.0028919
0.00288138
0.00287067
0.00285977
0.00284868
0.00283739
0.00282589
0.00281419
0.00280228
0.00279016
0.00277781
0.00276525
0.00275246
0.00273944
0.00272619
0.0027127
0.00269896
0.00268499
0.00267076
0.00265628
0.00264155
0.00262655
0.00261129
0.00259576
0.00257995
0.00256387
0.00254751
0.00253086
0.00251392
0.00249668
0.00247915
0.00246131
0.00244317
0.00242471
0.00240593
0.00238683
0.00236739
0.00234762
0.00232751
0.00230704
0.00228622
0.00226502
0.00224346
0.00222151
0.00219916
0.0021764
0.00215322
0.00212961
0.00210555
0.00208102
0.002056
0.00203047
0.0020044
0.00197777
0.00195054
0.00192267
0.00189413
0.00186485
0.00183477
0.00180378
0.00177176
0.00173854
0.0017041
0.00166839
0.00163127
0.00159257
0.00155207
0.00150946
0.00146436
0.00141621
0.00136418
0.00130677
0.00124257
0.00117007
0.00108622
0.000985945
0.000860026
0.000689937
0.000433332
5.68363e-05
9.97567e-05
0.000912437
0.00162323
0.002156
0.00257477
0.00292135
0.00321849
0.0034795
0.00371237
0.00392252
0.00411396
0.00428959
0.00445159
0.00460167
0.00474122
0.00487133
0.00499293
0.0051068
0.0052136
0.00531392
0.00540824
0.00549702
0.00558064
0.00565945
0.00573378
0.0058039
0.00587007
0.00593253
0.00599149
0.00604715
0.00609969
0.00614928
0.00619607
0.00624021
0.00628183
0.00632105
0.00635798
0.00639274
0.00642543
0.00645613
0.00648492
0.00651187
0.00653704
0.00656043
0.006582
0.00660186
0.00662017
0.00663707
0.00665265
0.006667
0.00668018
0.00669226
0.00670328
0.0067133
0.00672235
0.00673047
0.00673771
0.0067441
0.00674968
0.00675448
0.00675853
0.00676185
0.00676449
0.00676646
0.00676779
0.0067685
0.00676862
0.00676818
0.00676718
0.00676566
0.00676362
0.00676109
0.00675809
0.00675463
0.00675072
0.00674638
0.00674163
0.00673647
0.00673092
0.00672498
0.00671868
0.006712
0.00670498
0.0066976
0.00668989
0.00668184
0.00667346
0.00666475
0.00665573
0.00664639
0.00663673
0.00662676
0.00661649
0.0066059
0.00659501
0.00658381
0.0065723
0.00656049
0.00654836
0.00653593
0.00652318
0.00651011
0.00649672
0.00648302
0.00646899
0.00645462
0.00643993
0.00642489
0.00640952
0.00639379
0.00637771
0.00636128
0.00634447
0.0063273
0.00630975
0.00629181
0.00627349
0.00625476
0.00623563
0.00621609
0.00619613
0.00617574
0.00615492
0.00613365
0.00611194
0.00608976
0.00606712
0.006044
0.0060204
0.00599631
0.00597171
0.00594661
0.00592099
0.00589484
0.00586816
0.00584093
0.00581314
0.0057848
0.00575588
0.00572637
0.00569628
0.00566558
0.00563427
0.00560233
0.00556976
0.00553655
0.00550268
0.00546815
0.00543294
0.00539703
0.00536042
0.00532309
0.00528504
0.00524623
0.00520667
0.00516632
0.00512518
0.00508323
0.00504045
0.00499681
0.00495229
0.00490688
0.00486053
0.00481323
0.00476494
0.00471564
0.00466527
0.0046138
0.00456119
0.00450738
0.00445231
0.00439593
0.00433816
0.00427892
0.00421811
0.00415563
0.00409135
0.00402513
0.00395678
0.00388608
0.00381277
0.00373656
0.0036572
0.00357439
0.00348767
0.00339649
0.00330018
0.00319787
0.00308841
0.00297027
0.00284133
0.00269864
0.00253821
0.00235557
0.0021433
0.00189004
0.0015777
0.001177
0.000645454
7.05734e-05
9.9757e-05
0.000912446
0.00162324
0.00215601
0.00257479
0.00292137
0.00321851
0.00347952
0.00371239
0.00392254
0.00411398
0.0042896
0.0044516
0.00460169
0.00474123
0.00487134
0.00499294
0.00510681
0.00521362
0.00531393
0.00540825
0.00549703
0.00558065
0.00565947
0.00573379
0.00580391
0.00587008
0.00593254
0.0059915
0.00604716
0.0060997
0.00614929
0.00619608
0.00624022
0.00628183
0.00632105
0.00635799
0.00639275
0.00642543
0.00645613
0.00648492
0.00651188
0.00653704
0.00656043
0.00658201
0.00660186
0.00662018
0.00663707
0.00665265
0.006667
0.00668019
0.00669227
0.00670329
0.0067133
0.00672235
0.00673047
0.00673771
0.00674411
0.00674968
0.00675448
0.00675853
0.00676186
0.00676449
0.00676646
0.00676779
0.0067685
0.00676863
0.00676818
0.00676718
0.00676566
0.00676362
0.0067611
0.00675809
0.00675463
0.00675072
0.00674639
0.00674163
0.00673647
0.00673092
0.00672499
0.00671868
0.00671201
0.00670498
0.0066976
0.00668989
0.00668184
0.00667346
0.00666475
0.00665573
0.00664639
0.00663673
0.00662677
0.00661649
0.00660591
0.00659501
0.00658381
0.00657231
0.00656049
0.00654836
0.00653593
0.00652318
0.00651011
0.00649673
0.00648302
0.00646899
0.00645463
0.00643993
0.0064249
0.00640952
0.00639379
0.00637772
0.00636128
0.00634448
0.0063273
0.00630975
0.00629181
0.00627349
0.00625476
0.00623563
0.00621609
0.00619613
0.00617574
0.00615492
0.00613365
0.00611194
0.00608976
0.00606712
0.006044
0.0060204
0.00599631
0.00597172
0.00594661
0.00592099
0.00589484
0.00586816
0.00584093
0.00581315
0.0057848
0.00575588
0.00572637
0.00569628
0.00566558
0.00563427
0.00560233
0.00556976
0.00553655
0.00550268
0.00546815
0.00543294
0.00539703
0.00536042
0.00532309
0.00528504
0.00524623
0.00520667
0.00516632
0.00512518
0.00508323
0.00504045
0.00499681
0.00495229
0.00490688
0.00486053
0.00481323
0.00476494
0.00471564
0.00466527
0.0046138
0.00456119
0.00450738
0.00445231
0.00439593
0.00433816
0.00427892
0.00421811
0.00415563
0.00409135
0.00402513
0.00395678
0.00388608
0.00381277
0.00373656
0.00365721
0.00357439
0.00348767
0.00339649
0.00330018
0.00319788
0.00308841
0.00297027
0.00284133
0.00269864
0.00253821
0.00235557
0.0021433
0.00189004
0.0015777
0.001177
0.000645461
7.05722e-05
0.000112933
0.00110369
0.00207717
0.00285057
0.00348138
0.00401315
0.00447325
0.00487916
0.00524241
0.00557097
0.00587062
0.00614565
0.00639936
0.00663432
0.00685263
0.00705597
0.0072458
0.00742331
0.00758955
0.00774543
0.00789177
0.00802926
0.00815855
0.00828021
0.00839477
0.0085027
0.00860443
0.00870036
0.00879085
0.00887623
0.00895681
0.00903288
0.0091047
0.0091725
0.00923652
0.00929696
0.00935401
0.00940784
0.00945862
0.00950649
0.0095516
0.00959404
0.00963393
0.00967132
0.00970627
0.0097389
0.00976937
0.00979783
0.0098244
0.0098492
0.00987232
0.00989385
0.00991386
0.00993242
0.0099496
0.00996545
0.00998004
0.0099934
0.0100056
0.0100167
0.0100266
0.0100356
0.0100435
0.0100505
0.0100565
0.0100617
0.010066
0.0100694
0.010072
0.0100739
0.0100749
0.0100753
0.0100749
0.0100738
0.0100721
0.0100697
0.0100666
0.010063
0.0100587
0.0100538
0.0100483
0.0100423
0.0100357
0.0100286
0.0100209
0.0100127
0.010004
0.00999472
0.00998495
0.00997466
0.00996387
0.00995257
0.00994077
0.00992846
0.00991565
0.00990234
0.00988852
0.0098742
0.00985938
0.00984404
0.00982819
0.00981182
0.00979493
0.00977752
0.00975957
0.00974108
0.00972205
0.00970246
0.00968232
0.00966161
0.00964032
0.00961845
0.00959599
0.00957292
0.00954925
0.00952495
0.00950002
0.00947444
0.00944821
0.00942132
0.00939375
0.0093655
0.00933654
0.00930688
0.00927648
0.00924536
0.00921348
0.00918084
0.00914742
0.00911321
0.0090782
0.00904237
0.00900571
0.0089682
0.00892984
0.00889059
0.00885045
0.00880941
0.00876744
0.00872453
0.00868067
0.00863583
0.00859
0.00854316
0.00849529
0.00844638
0.00839639
0.00834532
0.00829314
0.00823982
0.00818535
0.00812969
0.00807283
0.00801474
0.00795538
0.00789472
0.00783275
0.00776941
0.00770467
0.0076385
0.00757085
0.00750168
0.00743093
0.00735856
0.0072845
0.00720869
0.00713106
0.00705154
0.00697003
0.00688646
0.0068007
0.00671265
0.00662217
0.00652911
0.00643331
0.00633456
0.00623264
0.00612729
0.0060182
0.005905
0.00578728
0.00566456
0.0055363
0.00540187
0.00526048
0.00511113
0.00495259
0.00478331
0.00460131
0.00440408
0.00418827
0.00394949
0.00368191
0.00337826
0.0030283
0.00261742
0.002125
0.00152301
0.000785916
8.04138e-05
0.000112934
0.0011037
0.00207719
0.00285059
0.0034814
0.00401318
0.00447327
0.00487918
0.00524244
0.005571
0.00587065
0.00614568
0.00639938
0.00663435
0.00685265
0.007056
0.00724582
0.00742333
0.00758957
0.00774545
0.00789179
0.00802928
0.00815857
0.00828023
0.00839479
0.00850272
0.00860445
0.00870037
0.00879086
0.00887624
0.00895682
0.00903289
0.00910471
0.00917251
0.00923653
0.00929697
0.00935401
0.00940785
0.00945863
0.0095065
0.0095516
0.00959405
0.00963393
0.00967133
0.00970627
0.0097389
0.00976938
0.00979783
0.00982441
0.00984921
0.00987233
0.00989385
0.00991386
0.00993243
0.0099496
0.00996546
0.00998004
0.0099934
0.0100056
0.0100167
0.0100266
0.0100356
0.0100435
0.0100505
0.0100565
0.0100617
0.010066
0.0100694
0.010072
0.0100739
0.0100749
0.0100753
0.0100749
0.0100738
0.0100721
0.0100697
0.0100666
0.010063
0.0100587
0.0100538
0.0100483
0.0100423
0.0100357
0.0100286
0.0100209
0.0100127
0.010004
0.00999472
0.00998495
0.00997466
0.00996387
0.00995257
0.00994076
0.00992846
0.00991565
0.00990234
0.00988852
0.0098742
0.00985938
0.00984404
0.00982819
0.00981182
0.00979493
0.00977752
0.00975957
0.00974108
0.00972205
0.00970246
0.00968232
0.00966161
0.00964032
0.00961845
0.00959599
0.00957292
0.00954924
0.00952495
0.00950001
0.00947444
0.00944821
0.00942132
0.00939375
0.0093655
0.00933654
0.00930687
0.00927648
0.00924535
0.00921348
0.00918083
0.00914742
0.00911321
0.0090782
0.00904237
0.00900571
0.0089682
0.00892983
0.00889059
0.00885045
0.00880941
0.00876744
0.00872453
0.00868067
0.00863583
0.00859
0.00854316
0.00849529
0.00844637
0.00839639
0.00834532
0.00829313
0.00823982
0.00818534
0.00812969
0.00807283
0.00801473
0.00795537
0.00789472
0.00783274
0.00776941
0.00770467
0.0076385
0.00757085
0.00750168
0.00743093
0.00735855
0.00728449
0.00720868
0.00713106
0.00705153
0.00697003
0.00688645
0.0068007
0.00671265
0.00662217
0.00652911
0.0064333
0.00633456
0.00623264
0.00612729
0.00601819
0.005905
0.00578727
0.00566455
0.0055363
0.00540187
0.00526047
0.00511112
0.00495259
0.0047833
0.00460131
0.00440408
0.00418827
0.00394949
0.00368191
0.00337826
0.0030283
0.00261742
0.002125
0.00152301
0.000785916
8.04135e-05
0.000123642
0.00123363
0.00240203
0.00337002
0.00417929
0.00487149
0.00547574
0.00601191
0.00649376
0.00693107
0.00733099
0.00769891
0.00803897
0.00835445
0.00864799
0.00892177
0.00917761
0.00941707
0.0096415
0.00985206
0.0100498
0.0102357
0.0104105
0.0105751
0.0107301
0.0108761
0.0110138
0.0111436
0.0112662
0.0113818
0.0114911
0.0115942
0.0116917
0.0117839
0.011871
0.0119533
0.0120312
0.0121049
0.0121745
0.0122403
0.0123026
0.0123613
0.0124168
0.0124691
0.0125184
0.0125647
0.0126083
0.0126494
0.012688
0.0127243
0.0127585
0.0127906
0.0128208
0.0128491
0.0128757
0.0129005
0.0129237
0.0129453
0.0129654
0.0129841
0.0130014
0.0130173
0.013032
0.0130454
0.0130576
0.0130687
0.0130786
0.0130874
0.0130952
0.0131019
0.0131077
0.0131125
0.0131163
0.0131193
0.0131213
0.0131225
0.0131228
0.0131223
0.013121
0.0131189
0.013116
0.0131123
0.0131079
0.0131028
0.0130968
0.0130902
0.0130829
0.0130748
0.013066
0.0130565
0.0130464
0.0130355
0.0130239
0.0130116
0.0129987
0.012985
0.0129706
0.0129556
0.0129398
0.0129233
0.0129061
0.0128882
0.0128696
0.0128502
0.0128301
0.0128092
0.0127876
0.0127652
0.012742
0.0127181
0.0126933
0.0126677
0.0126413
0.0126141
0.012586
0.0125571
0.0125273
0.0124966
0.0124649
0.0124324
0.0123989
0.0123645
0.0123291
0.0122927
0.0122553
0.0122169
0.0121775
0.012137
0.0120954
0.0120528
0.012009
0.0119641
0.011918
0.0118708
0.0118223
0.0117727
0.0117218
0.0116696
0.0116162
0.0115615
0.0115054
0.0114479
0.0113891
0.0113289
0.0112672
0.0112041
0.0111394
0.0110733
0.0110055
0.0109362
0.0108652
0.0107926
0.0107182
0.0106421
0.0105642
0.0104845
0.0104028
0.0103193
0.0102337
0.010146
0.0100563
0.00996432
0.00987008
0.00977349
0.00967446
0.0095729
0.00946868
0.00936171
0.00925185
0.00913895
0.00902287
0.00890341
0.00878039
0.00865358
0.00852273
0.00838753
0.00824767
0.00810274
0.00795231
0.00779586
0.00763277
0.00746237
0.00728383
0.00709619
0.00689828
0.00668867
0.0064656
0.0062269
0.00596985
0.00569103
0.00538609
0.00504953
0.00467426
0.00425114
0.00376868
0.00321138
0.00255935
0.00178955
0.000892953
8.82393e-05
0.000123642
0.00123364
0.00240205
0.00337005
0.00417932
0.00487152
0.00547577
0.00601194
0.0064938
0.0069311
0.00733103
0.00769894
0.008039
0.00835448
0.00864802
0.0089218
0.00917764
0.0094171
0.00964152
0.00985209
0.0100498
0.0102357
0.0104105
0.0105751
0.0107301
0.0108761
0.0110138
0.0111436
0.0112662
0.0113818
0.0114911
0.0115942
0.0116917
0.0117839
0.011871
0.0119534
0.0120312
0.0121049
0.0121745
0.0122404
0.0123026
0.0123613
0.0124168
0.0124691
0.0125184
0.0125647
0.0126083
0.0126494
0.012688
0.0127243
0.0127585
0.0127906
0.0128208
0.0128491
0.0128757
0.0129005
0.0129237
0.0129453
0.0129654
0.0129841
0.0130014
0.0130173
0.013032
0.0130454
0.0130576
0.0130687
0.0130786
0.0130874
0.0130952
0.0131019
0.0131077
0.0131125
0.0131163
0.0131193
0.0131213
0.0131225
0.0131228
0.0131223
0.013121
0.0131189
0.013116
0.0131123
0.0131079
0.0131028
0.0130968
0.0130902
0.0130829
0.0130748
0.013066
0.0130565
0.0130464
0.0130355
0.0130239
0.0130116
0.0129987
0.012985
0.0129706
0.0129556
0.0129398
0.0129233
0.0129061
0.0128882
0.0128696
0.0128502
0.0128301
0.0128092
0.0127876
0.0127652
0.012742
0.0127181
0.0126933
0.0126677
0.0126413
0.0126141
0.012586
0.0125571
0.0125273
0.0124965
0.0124649
0.0124324
0.0123989
0.0123645
0.0123291
0.0122927
0.0122553
0.0122169
0.0121775
0.012137
0.0120954
0.0120527
0.012009
0.0119641
0.011918
0.0118708
0.0118223
0.0117727
0.0117218
0.0116696
0.0116162
0.0115615
0.0115054
0.0114479
0.0113891
0.0113289
0.0112672
0.0112041
0.0111394
0.0110732
0.0110055
0.0109362
0.0108652
0.0107926
0.0107182
0.0106421
0.0105642
0.0104845
0.0104028
0.0103193
0.0102337
0.010146
0.0100563
0.00996431
0.00987008
0.00977349
0.00967446
0.00957289
0.00946868
0.00936171
0.00925184
0.00913895
0.00902286
0.00890341
0.00878039
0.00865358
0.00852272
0.00838753
0.00824766
0.00810274
0.00795231
0.00779585
0.00763277
0.00746237
0.00728383
0.00709619
0.00689827
0.00668866
0.00646559
0.00622689
0.00596985
0.00569103
0.00538609
0.00504953
0.00467426
0.00425114
0.00376868
0.00321138
0.00255935
0.00178955
0.000892951
8.82392e-05
0.000132714
0.00133649
0.00265371
0.00377753
0.0047343
0.00556223
0.00629064
0.00694062
0.00752729
0.00806166
0.0085519
0.0090042
0.00942336
0.00981318
0.0101767
0.0105165
0.0108347
0.011133
0.0114132
0.0116764
0.011924
0.012157
0.0123765
0.0125833
0.0127783
0.0129623
0.0131358
0.0132997
0.0134545
0.0136008
0.013739
0.0138698
0.0139934
0.0141104
0.0142212
0.0143261
0.0144254
0.0145195
0.0146086
0.0146931
0.0147731
0.0148488
0.0149206
0.0149885
0.0150527
0.0151135
0.0151709
0.0152253
0.0152767
0.0153253
0.0153713
0.0154148
0.0154559
0.0154947
0.0155314
0.015566
0.0155986
0.0156294
0.0156583
0.0156854
0.0157108
0.0157347
0.0157569
0.0157777
0.015797
0.0158149
0.0158314
0.0158466
0.0158605
0.0158731
0.0158846
0.0158948
0.0159039
0.0159119
0.0159188
0.0159246
0.0159294
0.0159331
0.0159359
0.0159376
0.0159384
0.0159382
0.0159371
0.0159351
0.0159321
0.0159282
0.0159234
0.0159177
0.0159111
0.0159036
0.0158953
0.015886
0.0158759
0.0158649
0.015853
0.0158402
0.0158265
0.015812
0.0157965
0.0157801
0.0157629
0.0157446
0.0157255
0.0157054
0.0156844
0.0156625
0.0156395
0.0156156
0.0155907
0.0155647
0.0155378
0.0155098
0.0154808
0.0154507
0.0154195
0.0153872
0.0153538
0.0153192
0.0152835
0.0152466
0.0152085
0.0151692
0.0151287
0.0150869
0.0150439
0.0149995
0.0149538
0.0149067
0.0148583
0.0148085
0.0147572
0.0147045
0.0146504
0.0145947
0.0145375
0.0144787
0.0144184
0.0143564
0.0142928
0.0142274
0.0141604
0.0140916
0.0140211
0.0139487
0.0138744
0.0137983
0.0137202
0.0136401
0.013558
0.0134739
0.0133876
0.0132991
0.0132084
0.0131154
0.0130201
0.0129223
0.0128221
0.0127193
0.0126139
0.0125058
0.0123949
0.0122811
0.0121643
0.0120444
0.0119213
0.0117948
0.0116648
0.0115312
0.0113937
0.0112522
0.0111064
0.0109562
0.0108012
0.0106411
0.0104757
0.0103044
0.010127
0.00994277
0.00975124
0.00955169
0.00934334
0.00912527
0.00889641
0.00865547
0.00840093
0.00813096
0.00784333
0.00753532
0.00720359
0.00684404
0.00645156
0.00601982
0.0055409
0.00500483
0.00439963
0.00371021
0.00291867
0.00200743
0.000980828
9.48426e-05
0.000132714
0.00133649
0.00265373
0.00377755
0.00473432
0.00556226
0.00629067
0.00694065
0.00752733
0.0080617
0.00855194
0.00900424
0.0094234
0.00981321
0.0101768
0.0105165
0.0108347
0.0111331
0.0114132
0.0116764
0.011924
0.0121571
0.0123765
0.0125834
0.0127784
0.0129623
0.0131359
0.0132998
0.0134545
0.0136008
0.013739
0.0138698
0.0139934
0.0141105
0.0142212
0.0143261
0.0144254
0.0145195
0.0146086
0.0146931
0.0147731
0.0148488
0.0149206
0.0149885
0.0150527
0.0151135
0.015171
0.0152253
0.0152767
0.0153253
0.0153713
0.0154148
0.0154559
0.0154948
0.0155314
0.015566
0.0155986
0.0156294
0.0156583
0.0156854
0.0157109
0.0157347
0.0157569
0.0157777
0.015797
0.0158149
0.0158314
0.0158466
0.0158605
0.0158731
0.0158846
0.0158948
0.0159039
0.0159119
0.0159188
0.0159246
0.0159294
0.0159331
0.0159359
0.0159376
0.0159384
0.0159382
0.0159371
0.0159351
0.0159321
0.0159282
0.0159234
0.0159177
0.0159111
0.0159036
0.0158953
0.015886
0.0158759
0.0158649
0.015853
0.0158402
0.0158265
0.015812
0.0157965
0.0157801
0.0157629
0.0157446
0.0157255
0.0157054
0.0156844
0.0156625
0.0156395
0.0156156
0.0155907
0.0155647
0.0155378
0.0155098
0.0154808
0.0154507
0.0154195
0.0153872
0.0153538
0.0153192
0.0152835
0.0152466
0.0152085
0.0151692
0.0151287
0.0150869
0.0150438
0.0149995
0.0149538
0.0149067
0.0148583
0.0148085
0.0147572
0.0147045
0.0146504
0.0145947
0.0145375
0.0144787
0.0144184
0.0143564
0.0142928
0.0142274
0.0141604
0.0140916
0.0140211
0.0139487
0.0138744
0.0137983
0.0137202
0.0136401
0.013558
0.0134739
0.0133876
0.0132991
0.0132084
0.0131154
0.0130201
0.0129223
0.0128221
0.0127193
0.0126139
0.0125058
0.0123949
0.0122811
0.0121643
0.0120444
0.0119213
0.0117948
0.0116648
0.0115312
0.0113937
0.0112522
0.0111064
0.0109562
0.0108012
0.0106411
0.0104757
0.0103044
0.010127
0.00994277
0.00975123
0.00955168
0.00934334
0.00912527
0.0088964
0.00865546
0.00840093
0.00813096
0.00784333
0.00753531
0.00720359
0.00684404
0.00645156
0.00601982
0.0055409
0.00500483
0.00439963
0.00371021
0.00291867
0.00200743
0.000980826
9.48426e-05
0.00014074
0.00142447
0.00286121
0.00411147
0.00519027
0.00613249
0.00696696
0.00771533
0.00839355
0.00901347
0.00958398
0.0101119
0.0106024
0.0110599
0.0114875
0.0118883
0.0122644
0.0126179
0.0129505
0.0132637
0.0135588
0.0138372
0.0140998
0.0143477
0.0145817
0.0148029
0.0150119
0.0152095
0.0153964
0.0155732
0.0157405
0.015899
0.016049
0.0161912
0.016326
0.0164538
0.016575
0.01669
0.0167991
0.0169026
0.0170009
0.0170942
0.0171827
0.0172668
0.0173465
0.0174222
0.017494
0.0175622
0.0176269
0.0176883
0.0177466
0.017802
0.0178546
0.0179045
0.0179519
0.0179968
0.0180394
0.0180798
0.018118
0.0181542
0.0181884
0.0182206
0.0182511
0.0182798
0.0183068
0.0183321
0.0183558
0.018378
0.0183986
0.0184178
0.0184356
0.018452
0.018467
0.0184807
0.0184932
0.0185043
0.0185143
0.018523
0.0185305
0.0185369
0.0185421
0.0185461
0.0185491
0.0185509
0.0185517
0.0185513
0.0185499
0.0185474
0.0185438
0.0185391
0.0185334
0.0185266
0.0185188
0.0185099
0.0184999
0.0184889
0.0184768
0.0184636
0.0184493
0.018434
0.0184175
0.0183999
0.0183812
0.0183613
0.0183404
0.0183182
0.0182949
0.0182703
0.0182446
0.0182177
0.0181895
0.01816
0.0181293
0.0180973
0.018064
0.0180293
0.0179933
0.0179558
0.017917
0.0178768
0.0178351
0.0177919
0.0177472
0.017701
0.0176533
0.0176039
0.017553
0.0175004
0.0174461
0.0173901
0.0173324
0.017273
0.0172117
0.0171486
0.0170836
0.0170168
0.0169479
0.0168771
0.0168043
0.0167295
0.0166525
0.0165734
0.0164921
0.0164085
0.0163227
0.0162345
0.016144
0.016051
0.0159555
0.0158575
0.0157568
0.0156534
0.0155473
0.0154384
0.0153266
0.0152118
0.0150939
0.0149728
0.0148485
0.0147208
0.0145897
0.0144549
0.0143164
0.0141741
0.0140277
0.0138771
0.0137222
0.0135627
0.0133984
0.013229
0.0130544
0.0128741
0.0126879
0.0124954
0.0122961
0.0120896
0.0118752
0.0116525
0.0114206
0.0111787
0.0109258
0.0106608
0.0103824
0.0100891
0.00977888
0.00944968
0.00909882
0.00872315
0.00831882
0.0078812
0.00740464
0.00688228
0.00630574
0.00566489
0.00494756
0.00413967
0.00322559
0.00219281
0.00105619
0.000100619
0.00014074
0.00142448
0.00286123
0.00411149
0.0051903
0.00613252
0.006967
0.00771536
0.00839359
0.00901351
0.00958402
0.0101119
0.0106025
0.0110599
0.0114876
0.0118883
0.0122644
0.0126179
0.0129505
0.0132637
0.0135589
0.0138372
0.0140998
0.0143477
0.0145818
0.0148029
0.0150119
0.0152095
0.0153964
0.0155732
0.0157405
0.015899
0.0160491
0.0161913
0.016326
0.0164538
0.016575
0.01669
0.0167991
0.0169026
0.0170009
0.0170942
0.0171827
0.0172668
0.0173465
0.0174222
0.017494
0.0175622
0.0176269
0.0176883
0.0177466
0.017802
0.0178546
0.0179045
0.0179519
0.0179968
0.0180394
0.0180798
0.018118
0.0181542
0.0181884
0.0182206
0.0182511
0.0182798
0.0183068
0.0183321
0.0183558
0.018378
0.0183986
0.0184178
0.0184356
0.018452
0.018467
0.0184807
0.0184932
0.0185043
0.0185143
0.018523
0.0185305
0.0185369
0.0185421
0.0185461
0.0185491
0.0185509
0.0185517
0.0185513
0.0185499
0.0185474
0.0185438
0.0185391
0.0185334
0.0185266
0.0185188
0.0185099
0.0184999
0.0184889
0.0184768
0.0184636
0.0184493
0.018434
0.0184175
0.0183999
0.0183812
0.0183613
0.0183404
0.0183182
0.0182949
0.0182703
0.0182446
0.0182177
0.0181895
0.01816
0.0181293
0.0180973
0.018064
0.0180293
0.0179933
0.0179558
0.017917
0.0178768
0.0178351
0.0177919
0.0177472
0.017701
0.0176533
0.0176039
0.017553
0.0175004
0.0174461
0.0173901
0.0173324
0.017273
0.0172117
0.0171486
0.0170836
0.0170168
0.0169479
0.0168771
0.0168043
0.0167295
0.0166525