/*--------------------------------*- C++ -*----------------------------------*\
  =========                 |
  \\      /  F ield         | OpenFOAM: The Open Source CFD Toolbox
   \\    /   O peration     | Website:  https://openfoam.org
    \\  /    A nd           | Version:  8
     \\/     M anipulation  |
\*---------------------------------------------------------------------------*/
FoamFile
{
    version     2.0;
    format      ascii;
    class       volScalarField;
    location    "4200";
    object      epsilon;
}
// * * * * * * * * * * * * * * * * * * * * * * * * * * * * * * * * * * * * * //

dimensions      [0 2 -3 0 0 0 0];

internalField   nonuniform List<scalar> 
48000
(
1.64515
6.3649
12.0858
17.9772
24.1589
30.3748
36.5698
42.7254
48.9267
55.2053
61.4745
67.7522
74.0279
80.2928
86.5376
92.753
98.9286
105.054
111.118
117.11
123.019
128.833
134.543
140.137
145.605
150.938
156.128
161.165
166.043
170.755
175.294
179.656
183.837
187.832
191.639
195.256
198.683
201.918
204.962
207.816
210.481
212.96
215.253
217.364
219.316
221.124
222.765
224.239
225.551
226.707
227.712
228.573
229.295
229.884
230.345
230.685
230.909
231.022
231.031
230.94
230.756
230.482
230.124
229.686
229.174
228.591
227.943
227.232
226.463
225.639
224.764
223.842
222.874
221.865
220.817
219.732
218.614
217.463
216.283
215.075
213.841
212.583
211.302
210
208.678
207.336
205.978
204.602
203.21
201.803
200.382
198.947
197.499
196.038
194.564
193.078
191.581
190.072
188.552
187.021
185.479
183.925
182.361
180.786
179.2
177.603
175.995
174.376
172.746
171.104
169.451
167.786
166.11
164.422
162.723
161.011
159.287
157.551
155.802
154.041
152.268
150.482
148.683
146.872
145.048
143.211
141.362
139.5
137.626
135.739
133.841
131.93
130.007
128.072
126.126
124.169
122.201
120.222
118.234
116.235
114.227
112.211
110.186
108.153
106.113
104.066
102.013
99.9544
97.8913
95.8241
93.7535
91.6802
89.6051
87.5289
85.4523
83.3763
81.3015
79.2288
77.1591
75.0932
73.0319
70.9761
68.9265
66.884
64.8494
62.8236
60.8071
58.8009
56.8057
54.8221
52.8507
50.8923
48.9473
47.0163
45.0997
43.1981
41.3116
39.4407
37.586
35.7493
33.9328
32.1463
30.376
28.6166
26.8686
25.1301
23.3998
21.6759
19.9563
18.2379
16.5174
14.7975
13.0808
11.3498
9.59569
7.80778
5.97109
4.06305
2.04627
0.645535
1.64519
6.36496
12.0859
17.9773
24.159
30.375
36.5699
42.7255
48.9269
55.2054
61.4746
67.7523
74.0281
80.2929
86.5378
92.7531
98.9288
105.054
111.118
117.11
123.019
128.834
134.543
140.137
145.605
150.939
156.128
161.166
166.043
170.755
175.294
179.656
183.837
187.832
191.639
195.256
198.683
201.918
204.962
207.816
210.481
212.96
215.253
217.364
219.316
221.124
222.765
224.239
225.551
226.707
227.712
228.573
229.295
229.884
230.345
230.685
230.909
231.022
231.031
230.94
230.756
230.482
230.124
229.686
229.174
228.591
227.943
227.232
226.463
225.639
224.764
223.842
222.874
221.865
220.817
219.732
218.614
217.463
216.283
215.075
213.841
212.583
211.302
210
208.678
207.336
205.977
204.602
203.21
201.803
200.382
198.947
197.499
196.038
194.564
193.078
191.581
190.072
188.552
187.021
185.479
183.925
182.361
180.786
179.2
177.603
175.995
174.376
172.746
171.104
169.451
167.786
166.11
164.422
162.723
161.011
159.287
157.551
155.802
154.041
152.268
150.482
148.683
146.872
145.048
143.211
141.362
139.5
137.626
135.739
133.841
131.93
130.007
128.072
126.126
124.169
122.201
120.222
118.234
116.235
114.227
112.211
110.186
108.153
106.113
104.066
102.013
99.9544
97.8913
95.8241
93.7535
91.6802
89.6051
87.5289
85.4523
83.3762
81.3015
79.2288
77.1591
75.0932
73.0319
70.9761
68.9265
66.884
64.8494
62.8236
60.8071
58.8009
56.8057
54.8221
52.8507
50.8923
48.9473
47.0163
45.0997
43.1981
41.3116
39.4408
37.5861
35.7493
33.9328
32.1464
30.376
28.6166
26.8686
25.1301
23.3998
21.6759
19.9563
18.2379
16.5174
14.7975
13.0808
11.3498
9.5957
7.80779
5.97108
4.06301
2.04629
0.645491
7.59626
6.49706
8.30705
10.5145
12.9138
15.4079
17.9583
20.5279
23.1275
25.7599
28.416
31.0937
33.7895
36.4997
39.2202
41.9464
44.6732
47.3954
50.1073
52.8031
55.4767
58.1219
60.7328
63.3033
65.8275
68.2996
70.7143
73.0663
75.3508
77.5634
79.7002
81.7574
83.732
85.6212
87.4229
89.1352
90.7568
92.2869
93.725
95.071
96.3253
97.4886
98.5622
99.5488
100.455
101.284
102.033
102.7
103.289
103.801
104.238
104.603
104.9
105.132
105.3
105.409
105.46
105.458
105.404
105.303
105.155
104.965
104.735
104.466
104.162
103.825
103.458
103.061
102.637
102.189
101.717
101.224
100.711
100.179
99.6304
99.0662
98.4874
97.8953
97.2909
96.6751
96.0489
95.4131
94.7684
94.1156
93.4552
92.7878
92.114
91.4343
90.7489
90.0584
89.363
88.663
87.9587
87.2504
86.5381
85.822
85.1023
84.3791
83.6524
82.9224
82.189
81.4523
80.7123
79.969
79.2224
78.4723
77.7189
76.962
76.2016
75.4377
74.6701
73.8988
73.1238
72.3449
71.5622
70.7754
69.9846
69.1897
68.3907
67.5875
66.7799
65.9681
65.152
64.3315
63.5066
62.6773
61.8436
61.0055
60.1631
59.3164
58.4654
57.6102
56.7508
55.8874
55.02
54.1488
53.2738
52.3953
51.5133
50.6281
49.7398
48.8486
47.9547
47.0584
46.1599
45.2593
44.3571
43.4535
42.5486
41.643
40.7367
39.8303
38.9239
38.0179
37.1127
36.2086
35.3059
34.405
33.5063
32.61
31.7166
30.8264
29.9397
29.057
28.1784
27.3045
26.4354
25.5715
24.7131
23.8604
23.0138
22.1735
21.3397
20.5126
19.6925
18.8794
18.0736
17.2752
16.4844
15.7016
14.9274
14.1623
13.4046
12.6527
11.908
11.1693
10.4361
9.70814
8.98476
8.26563
7.55073
6.84163
6.13863
5.43901
4.74234
4.05029
3.36936
2.72075
2.18572
2.5243
7.59635
6.49704
8.30701
10.5145
12.9137
15.4078
17.9582
20.5278
23.1274
25.7598
28.4159
31.0936
33.7894
36.4996
39.2201
41.9462
44.6731
47.3953
50.1072
52.8029
55.4765
58.1218
60.7327
63.3032
65.8273
68.2994
70.7141
73.0661
75.3506
77.5632
79.7
81.7572
83.7318
85.621
87.4226
89.135
90.7566
92.2867
93.7248
95.0708
96.3251
97.4884
98.562
99.5486
100.455
101.284
102.032
102.7
103.289
103.8
104.238
104.603
104.9
105.131
105.3
105.408
105.46
105.458
105.404
105.302
105.155
104.965
104.734
104.466
104.162
103.825
103.457
103.061
102.637
102.188
101.717
101.223
100.71
100.179
99.6302
99.0659
98.4872
97.8951
97.2907
96.6749
96.0487
95.4129
94.7682
94.1154
93.455
92.7876
92.1138
91.4341
90.7487
90.0582
89.3628
88.6628
87.9586
87.2502
86.5379
85.8218
85.1021
84.3789
83.6523
82.9222
82.1889
81.4522
80.7122
79.9688
79.2222
78.4722
77.7187
76.9619
76.2015
75.4375
74.67
73.8987
73.1236
72.3448
71.562
70.7753
69.9845
69.1896
68.3906
67.5873
66.7798
65.968
65.1518
64.3313
63.5064
62.6771
61.8435
61.0054
60.163
59.3163
58.4653
57.61
56.7507
55.8873
55.0199
54.1487
53.2737
52.3952
51.5132
50.628
49.7397
48.8485
47.9546
47.0583
46.1598
45.2592
44.357
43.4534
42.5485
41.6429
40.7367
39.8302
38.9238
38.0178
37.1126
36.2085
35.3058
34.4049
33.5062
32.6099
31.7165
30.8263
29.9397
29.0569
28.1784
27.3044
26.4353
25.5714
24.713
23.8604
23.0138
22.1735
21.3397
20.5126
19.6924
18.8794
18.0735
17.2751
16.4843
15.7016
14.9273
14.1622
13.4045
12.6527
11.908
11.1693
10.4361
9.70811
8.98474
8.26561
7.55071
6.84161
6.13862
5.439
4.74233
4.05029
3.36938
2.72083
2.18571
2.5242
14.1421
8.71123
9.20434
10.5087
12.0937
13.8223
15.638
17.5104
19.4271
21.3806
23.3644
25.374
27.4053
29.4545
31.518
33.5918
35.6718
37.7537
39.8329
41.9047
43.9643
46.0066
48.0266
50.0194
51.9799
53.9034
55.7852
57.6207
59.4057
61.1364
62.8091
64.4205
65.9677
67.4481
68.8597
70.2005
71.4693
72.6649
73.7869
74.8348
75.8089
76.7095
77.5379
78.2955
78.9851
79.6084
80.1656
80.6576
81.0855
81.4512
81.7566
82.0041
82.1958
82.3343
82.4218
82.461
82.4542
82.4039
82.3124
82.1822
82.0155
81.8145
81.5815
81.3184
81.0274
80.7104
80.3691
80.0055
79.621
79.2174
78.7961
78.3585
77.906
77.4398
76.961
76.4708
75.9701
75.4599
74.9411
74.4144
73.8806
73.3404
72.7944
72.2431
71.6871
71.1268
70.5626
69.9949
69.4241
68.8505
68.2742
67.6956
67.1148
66.532
65.9474
65.361
64.773
64.1834
63.5923
62.9998
62.4058
61.8104
61.2135
60.6152
60.0154
59.4142
58.8114
58.207
57.601
56.9933
56.3839
55.7726
55.1596
54.5445
53.9275
53.3085
52.6873
52.064
51.4385
50.8107
50.1807
49.5482
48.9134
48.2762
47.6366
46.9945
46.35
45.7031
45.0537
44.4019
43.7477
43.0912
42.4324
41.7714
41.1082
40.4429
39.7757
39.1065
38.4356
37.763
37.0889
36.4135
35.7367
35.059
34.3803
33.7009
33.0211
32.3409
31.6606
30.9804
30.3006
29.6213
28.9428
28.2654
27.5893
26.9148
26.242
25.5713
24.903
24.2372
23.5742
22.9144
22.2578
21.6049
20.9559
20.3109
19.6702
19.0341
18.4027
17.7763
17.1551
16.5392
15.9289
15.3242
14.7253
14.1324
13.5457
12.9651
12.391
11.8234
11.2626
10.7085
10.1609
9.61944
9.0842
8.55491
8.03185
7.51509
7.00466
6.50091
6.00447
5.51655
5.03879
4.57268
4.12202
3.69502
3.31029
3.01749
3.00658
5.0035
14.1422
8.71119
9.20427
10.5087
12.0937
13.8222
15.6379
17.5103
19.427
21.3804
23.3643
25.3739
27.4051
29.4544
31.5179
33.5917
35.6717
37.7535
39.8328
41.9046
43.9641
46.0064
48.0265
50.0193
51.9798
53.9033
55.785
57.6205
59.4056
61.1363
62.809
64.4204
65.9676
67.448
68.8595
70.2004
71.4691
72.6648
73.7867
74.8347
75.8087
76.7094
77.5377
78.2954
78.985
79.6083
80.1655
80.6574
81.0854
81.451
81.7565
82.0039
82.1957
82.3341
82.4217
82.4609
82.4541
82.4038
82.3123
82.1821
82.0154
81.8144
81.5813
81.3183
81.0273
80.7103
80.369
80.0054
79.6209
79.2173
78.796
78.3584
77.9059
77.4397
76.9609
76.4707
75.97
75.4598
74.941
74.4143
73.8805
73.3403
72.7943
72.243
71.687
71.1267
70.5625
69.9949
69.4241
68.8504
68.2741
67.6955
67.1147
66.532
65.9473
65.3609
64.7729
64.1833
63.5923
62.9997
62.4057
61.8103
61.2134
60.6151
60.0154
59.4141
58.8113
58.2069
57.6009
56.9932
56.3838
55.7726
55.1595
54.5445
53.9275
53.3084
52.6873
52.064
51.4385
50.8107
50.1806
49.5482
48.9134
48.2762
47.6365
46.9945
46.35
45.703
45.0536
44.4018
43.7477
43.0912
42.4324
41.7714
41.1082
40.4429
39.7756
39.1065
38.4356
37.763
37.0889
36.4134
35.7367
35.0589
34.3803
33.7009
33.021
32.3408
31.6605
30.9804
30.3005
29.6213
28.9428
28.2654
27.5893
26.9147
26.242
25.5713
24.9029
24.2371
23.5742
22.9143
22.2578
21.6049
20.9558
20.3109
19.6702
19.0341
18.4027
17.7763
17.1551
16.5392
15.9288
15.3242
14.7253
14.1324
13.5456
12.9651
12.391
11.8234
11.2625
10.7085
10.1609
9.61943
9.08419
8.5549
8.03184
7.51508
7.00466
6.5009
6.00446
5.51654
5.03879
4.57267
4.12202
3.69502
3.31029
3.01749
3.00654
5.00351
20.5192
11.3263
10.8721
11.6394
12.8203
14.2071
15.7168
17.3079
18.9576
20.6517
22.3808
24.1378
25.9172
27.7147
29.5259
31.347
33.1741
35.0033
36.8305
38.6516
40.4623
42.2583
44.0353
45.7888
47.5146
49.2082
50.8657
52.4829
54.056
55.5815
57.056
58.4765
59.8403
61.1448
62.3881
63.5684
64.6843
65.7347
66.719
67.6367
68.488
69.2731
69.9927
70.6481
71.2406
71.7718
72.2425
72.6537
73.007
73.3037
73.5459
73.7355
73.8745
73.9651
74.0095
74.0101
73.9689
73.8883
73.7704
73.6174
73.4315
73.2147
72.969
72.6963
72.3987
72.0777
71.7352
71.3728
70.9921
70.5944
70.1813
69.754
69.3137
68.8617
68.3989
67.9265
67.4453
66.9562
66.46
65.9575
65.4493
64.936
64.4183
63.8966
63.3715
62.8433
62.3124
61.7792
61.2439
60.7069
60.1684
59.6285
59.0875
58.5456
58.0027
57.4591
56.9149
56.37
55.8246
55.2787
54.7323
54.1853
53.6379
53.09
52.5415
51.9924
51.4428
50.8925
50.3414
49.7897
49.2371
48.6836
48.1293
47.5739
47.0175
46.46
45.9013
45.3414
44.7803
44.2178
43.654
43.0888
42.5222
41.9541
41.3846
40.8135
40.241
39.6669
39.0914
38.5143
37.9359
37.3559
36.7746
36.192
35.6081
35.0229
34.4366
33.8493
33.261
32.6718
32.0819
31.4913
30.9003
30.3088
29.7172
29.1255
28.5339
27.9426
27.3517
26.7615
26.1721
25.5837
24.9965
24.4107
23.8266
23.2443
22.6641
22.0862
21.5107
20.938
20.3682
19.8015
19.2382
18.6785
18.1225
17.5705
17.0228
16.4793
15.9405
15.4063
14.8771
14.3529
13.834
13.3205
12.8124
12.3101
11.8135
11.3229
10.8383
10.36
9.88797
9.4224
8.96327
8.5106
8.06452
7.62515
7.1928
6.76781
6.35071
5.94248
5.54424
5.15779
4.78581
4.43239
4.1047
3.81656
3.59782
3.52699
3.90772
7.40804
20.5193
11.3262
10.8721
11.6393
12.8202
14.207
15.7167
17.3078
18.9575
20.6516
22.3807
24.1376
25.9171
27.7145
29.5258
31.3469
33.174
35.0032
36.8304
38.6515
40.4622
42.2582
44.0352
45.7887
47.5144
49.2081
50.8655
52.4827
54.0559
55.5814
57.0559
58.4764
59.8401
61.1447
62.388
63.5683
64.6841
65.7346
66.7189
67.6366
68.4879
69.273
69.9926
70.648
71.2405
71.7717
72.2424
72.6537
73.0069
73.3037
73.5458
73.7354
73.8744
73.965
74.0095
74.01
73.9688
73.8882
73.7703
73.6173
73.4314
73.2146
72.9689
72.6963
72.3986
72.0777
71.7352
71.3728
70.992
70.5944
70.1812
69.7539
69.3137
68.8616
68.3989
67.9264
67.4452
66.9561
66.46
65.9574
65.4492
64.936
64.4183
63.8966
63.3714
62.8432
62.3123
61.7791
61.2439
60.7069
60.1683
59.6285
59.0875
58.5455
58.0027
57.4591
56.9149
56.37
55.8246
55.2787
54.7322
54.1853
53.6379
53.0899
52.5415
51.9924
51.4427
50.8924
50.3414
49.7896
49.2371
48.6836
48.1292
47.5739
47.0175
46.46
45.9013
45.3414
44.7803
44.2178
43.654
43.0888
42.5222
41.9541
41.3845
40.8135
40.2409
39.6669
39.0913
38.5143
37.9358
37.3559
36.7746
36.192
35.6081
35.0229
34.4366
33.8493
33.261
32.6718
32.0819
31.4913
30.9002
30.3088
29.7172
29.1255
28.5339
27.9426
27.3517
26.7615
26.1721
25.5837
24.9965
24.4107
23.8266
23.2443
22.6641
22.0862
21.5107
20.938
20.3682
19.8015
19.2382
18.6785
18.1225
17.5705
17.0227
16.4793
15.9404
15.4063
14.8771
14.3529
13.834
13.3205
12.8124
12.3101
11.8135
11.3229
10.8383
10.36
9.88796
9.42239
8.96327
8.5106
8.06451
7.62515
7.1928
6.7678
6.35071
5.94248
5.54424
5.15778
4.78581
4.43239
4.1047
3.81656
3.59782
3.527
3.90772
7.40804
26.927
14.1605
12.867
13.2191
14.1261
15.3037
16.64
18.0794
19.5903
21.1531
22.7545
24.3851
26.0378
27.7071
29.3882
31.077
32.7696
34.4621
36.151
37.8325
39.5028
41.1581
42.7947
44.4086
45.9961
47.5534
49.0767
50.5626
52.0076
53.4083
54.7619
56.0655
57.3165
58.5127
59.6521
60.733
61.7541
62.7144
63.6131
64.4498
65.2244
65.9371
66.5885
67.1793
67.7108
68.184
68.6001
68.9601
69.2654
69.5176
69.7183
69.8695
69.9731
70.031
70.0454
70.0184
69.952
69.8483
69.7095
69.5376
69.3347
69.1027
68.8435
68.559
68.2509
67.9211
67.5711
67.2026
66.8169
66.4156
66
65.5713
65.1307
64.6794
64.2184
63.7486
63.271
62.7863
62.2955
61.7992
61.298
60.7925
60.2833
59.771
59.2559
58.7384
58.219
57.6979
57.1755
56.652
56.1276
55.6025
55.0769
54.551
54.0249
53.4986
52.9722
52.4459
51.9196
51.3934
50.8673
50.3412
49.8153
49.2895
48.7637
48.238
47.7122
47.1863
46.6604
46.1343
45.608
45.0814
44.5545
44.0272
43.4995
42.9712
42.4424
41.9131
41.383
40.8522
40.3207
39.7884
39.2553
38.7213
38.1865
37.6508
37.1142
36.5766
36.0382
35.4988
34.9586
34.4176
33.8757
33.3331
32.7897
32.2456
31.701
31.1558
30.6101
30.0641
29.5179
28.9715
28.4251
27.8787
27.3326
26.7868
26.2415
25.6969
25.153
24.6102
24.0684
23.528
22.9891
22.4519
21.9165
21.3831
20.852
20.3234
19.7973
19.2741
18.7539
18.2369
17.7232
17.2132
16.7069
16.2046
15.7064
15.2125
14.7232
14.2384
13.7585
13.2835
12.8136
12.3491
11.8899
11.4363
10.9885
10.5465
10.1105
9.68078
9.25739
8.84054
8.43037
8.02711
7.631
7.24242
6.86184
6.48992
6.12753
5.77594
5.43686
5.11289
4.80786
4.52773
4.2828
4.09221
3.99678
4.10398
4.83053
9.7874
26.9271
14.1604
12.8669
13.219
14.126
15.3036
16.6399
18.0793
19.5902
21.153
22.7544
24.385
26.0377
27.707
29.3881
31.0769
32.7694
34.462
36.1509
37.8323
39.5026
41.158
42.7945
44.4085
45.996
47.5533
49.0766
50.5625
52.0075
53.4082
54.7618
56.0654
57.3164
58.5126
59.652
60.7329
61.754
62.7143
63.613
64.4497
65.2243
65.937
66.5884
67.1793
67.7107
68.184
68.6
68.96
69.2653
69.5175
69.7183
69.8695
69.973
70.031
70.0454
70.0183
69.9519
69.8483
69.7095
69.5376
69.3346
69.1026
68.8434
68.5589
68.2509
67.9211
67.5711
67.2025
66.8169
66.4156
65.9999
65.5712
65.1307
64.6793
64.2183
63.7485
63.2709
62.7863
62.2955
61.7991
61.2979
60.7925
60.2833
59.7709
59.2558
58.7384
58.2189
57.6979
57.1754
56.6519
56.1275
55.6025
55.0769
54.551
54.0248
53.4985
52.9722
52.4459
51.9196
51.3933
50.8672
50.3412
49.8153
49.2895
48.7637
48.2379
47.7122
47.1863
46.6604
46.1343
45.608
45.0814
44.5545
44.0272
43.4995
42.9712
42.4424
41.913
41.383
40.8522
40.3207
39.7884
39.2553
38.7213
38.1865
37.6508
37.1141
36.5766
36.0382
35.4988
34.9586
34.4176
33.8757
33.333
32.7897
32.2456
31.701
31.1558
30.6101
30.0641
29.5179
28.9715
28.425
27.8787
27.3326
26.7868
26.2415
25.6968
25.153
24.6102
24.0684
23.528
22.9891
22.4519
21.9165
21.3831
20.852
20.3234
19.7973
19.2741
18.7539
18.2369
17.7232
17.2132
16.7069
16.2046
15.7064
15.2125
14.7231
14.2384
13.7585
13.2835
12.8136
12.3491
11.8899
11.4363
10.9885
10.5465
10.1105
9.68078
9.25739
8.84054
8.43037
8.02711
7.631
7.24242
6.86184
6.48992
6.12753
5.77594
5.43686
5.11289
4.80786
4.52773
4.2828
4.09221
3.99678
4.10399
4.83055
9.78741
33.2998
17.1234
15.0567
15.0597
15.7558
16.7854
18.0077
19.3527
20.7809
22.2672
23.795
25.3524
26.9307
28.5234
30.125
31.731
33.3375
34.9408
36.5375
38.1243
39.6979
41.2549
42.792
44.3059
45.7934
47.2511
48.6758
50.0643
51.4137
52.7211
53.9836
55.1989
56.3645
57.4784
58.5388
59.544
60.4928
61.3842
62.2175
62.9921
63.7081
64.3653
64.9644
65.5058
65.9906
66.4196
66.794
67.1148
67.3834
67.6013
67.7701
67.8915
67.9673
67.9995
67.99
67.9407
67.8537
67.731
67.5746
67.3864
67.1684
66.9225
66.6506
66.3544
66.0356
65.696
65.3371
64.9605
64.5676
64.1598
63.7384
63.3046
62.8596
62.4045
61.9404
61.468
60.9884
60.5024
60.0107
59.5141
59.013
58.5083
58.0003
57.4897
56.9767
56.4619
55.9456
55.4281
54.9097
54.3907
53.8712
53.3515
52.8318
52.3121
51.7927
51.2735
50.7547
50.2363
49.7184
49.201
48.6842
48.1679
47.652
47.1367
46.6219
46.1076
45.5936
45.08
44.5667
44.0538
43.541
43.0284
42.5159
42.0034
41.4909
40.9784
40.4657
39.9529
39.4399
38.9266
38.4129
37.899
37.3846
36.8698
36.3546
35.8389
35.3228
34.8062
34.2891
33.7715
33.2535
32.735
32.2161
31.6968
31.1773
30.6574
30.1373
29.6171
29.0968
28.5764
28.0562
27.5362
27.0164
26.4971
25.9783
25.4601
24.9427
24.4262
23.9107
23.3965
22.8837
22.3723
21.8626
21.3548
20.849
20.3454
19.8441
19.3454
18.8493
18.3562
17.8661
17.3793
16.8959
16.4161
15.94
15.4679
14.9999
14.5362
14.0769
13.6222
13.1723
12.7273
12.2874
11.8527
11.4234
10.9997
10.5817
10.1697
9.76372
9.36408
8.97098
8.58466
8.2054
7.83354
7.46949
7.11379
6.76713
6.4304
6.10482
5.79202
5.49427
5.21488
4.95873
4.73351
4.55243
4.43982
4.44739
4.71147
5.7614
12.1531
33.2999
17.1233
15.0566
15.0596
15.7556
16.7853
18.0076
19.3526
20.7808
22.2671
23.7949
25.3523
26.9306
28.5233
30.1249
31.7309
33.3374
34.9407
36.5374
38.1242
39.6978
41.2548
42.7919
44.3058
45.7933
47.251
48.6757
50.0642
51.4136
52.721
53.9835
55.1988
56.3644
57.4783
58.5387
59.5439
60.4927
61.3841
62.2174
62.9921
63.708
64.3653
64.9643
65.5058
65.9905
66.4195
66.7939
67.1147
67.3834
67.6013
67.7701
67.8915
67.9673
67.9995
67.9899
67.9406
67.8537
67.7309
67.5745
67.3863
67.1684
66.9225
66.6505
66.3543
66.0356
65.696
65.3371
64.9605
64.5676
64.1598
63.7383
63.3046
62.8596
62.4045
61.9403
61.468
60.9884
60.5024
60.0107
59.514
59.013
58.5083
58.0003
57.4897
56.9767
56.4619
55.9456
55.4281
54.9097
54.3907
53.8712
53.3515
52.8318
52.3121
51.7926
51.2735
50.7547
50.2363
49.7184
49.201
48.6842
48.1678
47.652
47.1367
46.6219
46.1075
45.5936
45.08
44.5667
44.0537
43.541
43.0284
42.5158
42.0034
41.4909
40.9784
40.4657
39.9529
39.4399
38.9265
38.4129
37.8989
37.3846
36.8698
36.3546
35.8389
35.3228
34.8062
34.2891
33.7715
33.2534
32.735
32.2161
31.6968
31.1773
30.6574
30.1373
29.6171
29.0968
28.5764
28.0562
27.5362
27.0164
26.4971
25.9782
25.4601
24.9427
24.4262
23.9107
23.3965
22.8837
22.3723
21.8626
21.3548
20.849
20.3454
19.8441
19.3454
18.8493
18.3562
17.8661
17.3793
16.8959
16.4161
15.94
15.4679
14.9999
14.5362
14.0769
13.6222
13.1723
12.7273
12.2874
11.8527
11.4234
10.9997
10.5817
10.1697
9.76372
9.36408
8.97098
8.58466
8.2054
7.83354
7.46949
7.11379
6.76713
6.4304
6.10482
5.79202
5.49427
5.21488
4.95873
4.73351
4.55243
4.43982
4.4474
4.71148
5.76142
12.1531
39.7144
20.1807
17.3908
17.0861
17.6086
18.525
19.6656
20.947
22.3215
23.7592
25.2403
26.7506
28.28
29.8206
31.3666
32.9131
34.4562
35.9922
37.518
39.0306
40.5272
42.0048
43.4608
44.8924
46.2966
47.6709
49.0124
50.3184
51.5863
52.8137
53.9981
55.1372
56.2291
57.2718
58.2636
59.2032
60.0892
60.9208
61.6972
62.418
63.083
63.6921
64.2458
64.7444
65.1888
65.5799
65.9185
66.2058
66.4431
66.6317
66.7731
66.8689
66.921
66.931
66.9009
66.8324
66.7276
66.5882
66.4163
66.2137
65.9823
65.724
65.4404
65.1333
64.8044
64.4554
64.0877
63.7029
63.3024
62.8876
62.4596
62.0198
61.5692
61.109
60.6401
60.1635
59.68
59.1905
58.6957
58.1962
57.6928
57.186
56.6764
56.1644
55.6504
55.1349
54.6183
54.1008
53.5827
53.0643
52.5457
52.0273
51.5092
50.9914
50.4742
49.9575
49.4416
48.9264
48.4121
47.8985
47.3858
46.8739
46.3629
45.8527
45.3434
44.8348
44.3269
43.8197
43.3132
42.8073
42.3019
41.797
41.2926
40.7885
40.2848
39.7813
39.2781
38.775
38.272
37.7691
37.2662
36.7633
36.2603
35.7573
35.2541
34.7509
34.2474
33.7439
33.2401
32.7363
32.2322
31.7281
31.2239
30.7196
30.2152
29.7109
29.2066
28.7025
28.1986
27.6949
27.1916
26.6887
26.1864
25.6847
25.1837
24.6836
24.1845
23.6864
23.1896
22.6942
22.2003
21.7081
21.2176
20.7292
20.2428
19.7587
19.2771
18.798
18.3217
17.8484
17.3781
16.9111
16.4475
15.9875
15.5312
15.0789
14.6306
14.1866
13.747
13.3119
12.8816
12.4562
12.0358
11.6207
11.2109
10.8068
10.4085
10.0161
9.63004
9.25042
8.87759
8.51184
8.15357
7.80323
7.46137
7.12869
6.80607
6.49466
6.19595
5.91197
5.64552
5.4006
5.18315
5.00253
4.87457
4.82878
4.92777
5.33673
6.69745
14.5116
39.7146
20.1807
17.3907
17.086
17.6085
18.5249
19.6655
20.9469
22.3213
23.7591
25.2402
26.7505
28.2798
29.8205
31.3665
32.913
34.456
35.9921
37.5179
39.0305
40.527
42.0047
43.4607
44.8922
46.2965
47.6708
49.0122
50.3183
51.5862
52.8136
53.998
55.1371
56.229
57.2717
58.2635
59.2031
60.0891
60.9207
61.6971
62.4179
63.0829
63.692
64.2457
64.7444
65.1888
65.5798
65.9185
66.2058
66.443
66.6316
66.773
66.8689
66.9209
66.931
66.9008
66.8324
66.7275
66.5882
66.4163
66.2137
65.9823
65.7239
65.4403
65.1332
64.8044
64.4553
64.0877
63.7029
63.3024
62.8875
62.4596
62.0198
61.5692
61.109
60.6401
60.1635
59.68
59.1905
58.6957
58.1962
57.6928
57.186
56.6764
56.1644
55.6504
55.1349
54.6183
54.1007
53.5826
53.0642
52.5457
52.0273
51.5092
50.9914
50.4742
49.9575
49.4416
48.9264
48.412
47.8985
47.3858
46.8739
46.3629
45.8527
45.3434
44.8347
44.3269
43.8197
43.3132
42.8073
42.3019
41.797
41.2926
40.7885
40.2848
39.7813
39.278
38.775
38.272
37.7691
37.2662
36.7633
36.2603
35.7573
35.2541
34.7509
34.2474
33.7439
33.2401
32.7363
32.2322
31.7281
31.2239
30.7195
30.2152
29.7109
29.2066
28.7025
28.1986
27.6949
27.1916
26.6887
26.1864
25.6846
25.1837
24.6836
24.1845
23.6864
23.1896
22.6942
22.2003
21.7081
21.2176
20.7292
20.2428
19.7587
19.2771
18.798
18.3217
17.8484
17.3781
16.9111
16.4475
15.9875
15.5312
15.0789
14.6306
14.1866
13.747
13.3119
12.8816
12.4562
12.0358
11.6207
11.2109
10.8068
10.4085
10.0161
9.63004
9.25043
8.87759
8.51184
8.15357
7.80323
7.46137
7.12869
6.80607
6.49466
6.19595
5.91197
5.64552
5.4006
5.18315
5.00253
4.87457
4.82878
4.92777
5.33673
6.69747
14.5116
46.3768
23.3446
19.8523
19.2646
19.6369
20.4615
21.5402
22.7758
24.1132
25.5178
26.9666
28.4433
29.9365
31.4374
32.9394
34.4376
35.9279
37.4068
38.8714
40.3192
41.7476
43.1545
44.5374
45.8943
47.2227
48.5204
49.7853
51.015
52.2075
53.3605
54.472
55.5401
56.563
57.539
58.4666
59.3446
60.1717
60.9472
61.6703
62.3405
62.9577
63.5218
64.033
64.4918
64.8987
65.2546
65.5603
65.8167
66.0252
66.1869
66.3033
66.3759
66.4063
66.3963
66.3475
66.2617
66.1407
65.9864
65.8005
65.5849
65.3414
65.0717
64.7776
64.4606
64.1225
63.7649
63.3891
62.9967
62.5891
62.1675
61.7333
61.2875
60.8314
60.366
59.8922
59.411
58.9233
58.4298
57.9312
57.4284
56.9218
56.4121
55.8998
55.3854
54.8693
54.3519
53.8335
53.3146
52.7953
52.276
51.7568
51.2379
50.7195
50.2018
49.6848
49.1687
48.6535
48.1393
47.6262
47.1141
46.6032
46.0933
45.5845
45.0768
44.5702
44.0646
43.5599
43.0563
42.5535
42.0516
41.5505
41.0502
40.5506
40.0516
39.5532
39.0553
38.5579
38.0609
37.5643
37.0681
36.5721
36.0764
35.5809
35.0855
34.5904
34.0953
33.6004
33.1056
32.6109
32.1162
31.6217
31.1273
30.6331
30.139
29.6451
29.1515
28.6582
28.1652
27.6726
27.1804
26.6889
26.1979
25.7077
25.2183
24.7298
24.2422
23.7559
23.2707
22.7869
22.3046
21.824
21.345
20.868
20.393
19.9202
19.4496
18.9816
18.5162
18.0535
17.5938
17.1372
16.6838
16.2338
15.7874
15.3447
14.9059
14.4711
14.0405
13.6143
13.1926
12.7756
12.3635
11.9564
11.5545
11.1581
10.7673
10.3824
10.0035
9.6311
9.26535
8.90663
8.55534
8.21195
7.87703
7.55125
7.23548
6.93077
6.63851
6.36047
6.09906
5.85757
5.6407
5.45544
5.31276
5.23116
5.24523
5.42849
5.97508
7.63927
16.8691
46.3769
23.3445
19.8522
19.2645
19.6368
20.4614
21.5401
22.7757
24.1131
25.5177
26.9664
28.4432
29.9364
31.4372
32.9393
34.4375
35.9277
37.4066
38.8713
40.319
41.7475
43.1544
44.5373
45.8941
47.2225
48.5203
49.7852
51.0149
52.2074
53.3604
54.4719
55.54
56.5629
57.5389
58.4665
59.3445
60.1716
60.9471
61.6702
62.3404
62.9576
63.5217
64.033
64.4917
64.8987
65.2545
65.5602
65.8167
66.0251
66.1868
66.3032
66.3759
66.4063
66.3962
66.3474
66.2616
66.1407
65.9863
65.8005
65.5849
65.3414
65.0717
64.7775
64.4606
64.1225
63.7648
63.3891
62.9967
62.589
62.1675
61.7332
61.2875
60.8314
60.366
59.8922
59.411
58.9233
58.4297
57.9312
57.4283
56.9218
56.4121
55.8998
55.3853
54.8692
54.3518
53.8335
53.3146
52.7953
52.276
51.7568
51.2379
50.7195
50.2018
49.6848
49.1687
48.6535
48.1393
47.6262
47.1141
46.6032
46.0933
45.5845
45.0768
44.5702
44.0646
43.5599
43.0563
42.5535
42.0516
41.5505
41.0502
40.5505
40.0516
39.5531
39.0553
38.5579
38.0609
37.5643
37.0681
36.5721
36.0764
35.5809
35.0855
34.5904
34.0953
33.6004
33.1056
32.6109
32.1162
31.6217
31.1273
30.6331
30.139
29.6451
29.1515
28.6582
28.1652
27.6726
27.1804
26.6889
26.1979
25.7077
25.2183
24.7297
24.2422
23.7559
23.2707
22.7869
22.3046
21.824
21.345
20.868
20.393
19.9202
19.4496
18.9816
18.5162
18.0535
17.5938
17.1372
16.6838
16.2338
15.7874
15.3447
14.9059
14.4711
14.0405
13.6143
13.1926
12.7756
12.3635
11.9564
11.5545
11.1581
10.7673
10.3824
10.0035
9.6311
9.26535
8.90663
8.55534
8.21195
7.87703
7.55125
7.23548
6.93078
6.63851
6.36047
6.09906
5.85757
5.6407
5.45544
5.31276
5.23116
5.24523
5.42849
5.97509
7.63929
16.8691
53.3056
26.6292
22.4361
21.5791
21.8161
22.5627
23.5919
24.7927
26.1027
27.4826
28.9066
30.3566
31.8196
33.2863
34.7495
36.204
37.6458
39.0715
40.4787
41.8651
43.2288
44.5678
45.8806
47.1653
48.4203
49.6439
50.8343
51.9898
53.1086
54.1889
55.2292
56.2278
57.1832
58.0939
58.9585
59.7761
60.5455
61.2659
61.9368
62.5575
63.128
63.6481
64.1179
64.5378
64.9084
65.2301
65.504
65.7308
65.9116
66.0477
66.1403
66.1908
66.2008
66.1719
66.1056
66.0036
65.8676
65.6995
65.5008
65.2733
65.0187
64.7388
64.4351
64.1092
63.7628
63.3974
63.0144
62.6152
62.2012
61.7737
61.3338
60.8828
60.4217
59.9516
59.4734
58.988
58.4963
57.9991
57.4971
56.991
56.4814
55.9688
55.4539
54.937
54.4186
53.8991
53.3789
52.8582
52.3374
51.8167
51.2963
50.7764
50.2572
49.7389
49.2215
48.7051
48.1899
47.6758
47.163
46.6514
46.1412
45.6322
45.1245
44.6181
44.113
43.6091
43.1063
42.6048
42.1043
41.6049
41.1066
40.6092
40.1127
39.617
39.1222
38.6281
38.1347
37.6419
37.1498
36.6581
36.167
35.6764
35.1861
34.6963
34.2068
33.7177
33.2288
32.7403
32.2521
31.7642
31.2766
30.7894
30.3024
29.8158
29.3296
28.8438
28.3585
27.8737
27.3895
26.9058
26.4229
25.9408
25.4595
24.9791
24.4997
24.0215
23.5445
23.0688
22.5946
22.1219
21.6509
21.1817
20.7144
20.2492
19.7862
19.3255
18.8673
18.4117
17.9589
17.5089
17.0621
16.6184
16.1781
15.7413
15.3081
14.8788
14.4535
14.0323
13.6154
13.203
12.7952
12.3923
11.9944
11.6017
11.2145
10.8329
10.4573
10.0879
9.72503
9.36905
9.02037
8.67947
8.34689
8.02331
7.70953
7.40655
7.11562
6.83833
6.57674
6.33362
6.11276
5.91954
5.76198
5.65267
5.61285
5.68209
5.94512
6.62557
8.59176
19.2444
53.3058
26.6291
22.4359
21.5789
21.816
22.5626
23.5918
24.7926
26.1025
27.4825
28.9065
30.3565
31.8195
33.2861
34.7494
36.2039
37.6456
39.0714
40.4786
41.865
43.2287
44.5677
45.8805
47.1652
48.4202
49.6438
50.8342
51.9897
53.1084
54.1888
55.2291
56.2277
57.1831
58.0938
58.9585
59.776
60.5454
61.2659
61.9367
62.5575
63.1279
63.648
64.1178
64.5378
64.9083
65.2301
65.5039
65.7307
65.9116
66.0476
66.1402
66.1908
66.2008
66.1718
66.1055
66.0035
65.8676
65.6994
65.5007
65.2732
65.0187
64.7387
64.435
64.1092
63.7628
63.3974
63.0144
62.6152
62.2012
61.7737
61.3338
60.8828
60.4217
59.9516
59.4734
58.988
58.4963
57.9991
57.4971
56.991
56.4814
55.9688
55.4538
54.937
54.4186
53.8991
53.3788
52.8582
52.3374
51.8167
51.2963
50.7764
50.2572
49.7389
49.2215
48.7051
48.1899
47.6758
47.163
46.6514
46.1412
45.6322
45.1245
44.6181
44.113
43.6091
43.1063
42.6048
42.1043
41.6049
41.1066
40.6092
40.1127
39.617
39.1222
38.6281
38.1347
37.6419
37.1498
36.6581
36.167
35.6764
35.1861
34.6963
34.2068
33.7177
33.2288
32.7403
32.2521
31.7642
31.2766
30.7894
30.3024
29.8158
29.3296
28.8438
28.3585
27.8737
27.3895
26.9058
26.4229
25.9408
25.4594
24.9791
24.4997
24.0215
23.5445
23.0688
22.5946
22.1219
21.6509
21.1817
20.7144
20.2492
19.7862
19.3255
18.8673
18.4117
17.9588
17.5089
17.0621
16.6184
16.1781
15.7413
15.3081
14.8788
14.4535
14.0323
13.6154
13.203
12.7952
12.3923
11.9944
11.6017
11.2145
10.8329
10.4573
10.0879
9.72503
9.36905
9.02037
8.67947
8.34689
8.02331
7.70953
7.40655
7.11562
6.83833
6.57674
6.33362
6.11276
5.91954
5.76198
5.65267
5.61286
5.68209
5.94512
6.62558
8.59179
19.2444
60.4407
30.0314
25.1388
24.0216
24.1332
24.811
25.7985
26.9711
28.2589
29.6185
31.0211
32.4468
33.8817
35.3156
36.7411
38.1527
39.5465
40.9195
42.2694
43.5945
44.8933
46.1644
47.4068
48.6193
49.8006
50.9498
52.0654
53.1463
54.1911
55.1986
56.1674
57.0961
57.9837
58.8287
59.6302
60.3871
61.0986
61.7638
62.3822
62.9534
63.477
63.953
64.3815
64.7627
65.097
65.3849
65.6273
65.8248
65.9785
66.0894
66.1587
66.1878
66.1781
66.1309
66.0478
65.9304
65.7802
65.599
65.3883
65.1497
64.885
64.5957
64.2833
63.9495
63.5957
63.2235
62.8341
62.429
62.0095
61.5769
61.1323
60.6768
60.2115
59.7375
59.2556
58.7668
58.2719
57.7717
57.2668
56.758
56.2459
55.731
55.2138
54.6949
54.1747
53.6534
53.1316
52.6095
52.0874
51.5655
51.0441
50.5234
50.0035
49.4845
48.9667
48.45
47.9346
47.4205
46.9078
46.3966
45.8868
45.3784
44.8714
44.3659
43.8619
43.3592
42.8579
42.3578
41.8591
41.3616
40.8653
40.3701
39.876
39.3829
38.8908