/*--------------------------------*- C++ -*----------------------------------*\
  =========                 |
  \\      /  F ield         | OpenFOAM: The Open Source CFD Toolbox
   \\    /   O peration     | Website:  https://openfoam.org
    \\  /    A nd           | Version:  8
     \\/     M anipulation  |
\*---------------------------------------------------------------------------*/
FoamFile
{
    version     2.0;
    format      ascii;
    class       volScalarField;
    location    "3300";
    object      alphat;
}
// * * * * * * * * * * * * * * * * * * * * * * * * * * * * * * * * * * * * * //

dimensions      [1 -1 -1 0 0 0 0];

internalField   nonuniform List<scalar> 
46000
(
8.56347e-07
3.76334e-06
7.06397e-06
1.01471e-05
1.30616e-05
1.58825e-05
1.86427e-05
2.1349e-05
2.40169e-05
2.66559e-05
2.92766e-05
3.18828e-05
3.44629e-05
3.70267e-05
3.9576e-05
4.21109e-05
4.46307e-05
4.71343e-05
4.962e-05
5.20859e-05
5.45299e-05
5.69497e-05
5.93426e-05
6.1706e-05
6.40372e-05
6.63332e-05
6.85911e-05
7.08081e-05
7.2981e-05
7.5107e-05
7.71831e-05
7.92064e-05
8.11741e-05
8.30833e-05
8.49314e-05
8.67158e-05
8.84339e-05
9.00834e-05
9.1662e-05
9.31677e-05
9.45985e-05
9.59526e-05
9.72283e-05
9.84243e-05
9.95391e-05
0.000100572
0.000101521
0.000102387
0.000103168
0.000103865
0.000104477
0.000105003
0.000105446
0.000105804
0.000106078
0.00010627
0.000106379
0.000106408
0.000106358
0.00010623
0.000106026
0.000105749
0.000105403
0.000104988
0.000104505
0.000103954
0.00010334
0.000102663
0.000101927
0.000101134
0.000100287
9.93879e-05
9.844e-05
9.74461e-05
9.64088e-05
9.53309e-05
9.42154e-05
9.30649e-05
9.18823e-05
9.06703e-05
8.94318e-05
8.81693e-05
8.68856e-05
8.55832e-05
8.42648e-05
8.29327e-05
8.15895e-05
8.02375e-05
7.8879e-05
7.75161e-05
7.6151e-05
7.47856e-05
7.3422e-05
7.20619e-05
7.07072e-05
6.93594e-05
6.80201e-05
6.66908e-05
6.53728e-05
6.40674e-05
6.27758e-05
6.14991e-05
6.02382e-05
5.8994e-05
5.77674e-05
5.6559e-05
5.53695e-05
5.41994e-05
5.30493e-05
5.19194e-05
5.08101e-05
4.97217e-05
4.86543e-05
4.7608e-05
4.65829e-05
4.5579e-05
4.45961e-05
4.36342e-05
4.26931e-05
4.17725e-05
4.08723e-05
3.9992e-05
3.91315e-05
3.82902e-05
3.74678e-05
3.66639e-05
3.58779e-05
3.51096e-05
3.43582e-05
3.36233e-05
3.29045e-05
3.22011e-05
3.15126e-05
3.08385e-05
3.01782e-05
2.95312e-05
2.88968e-05
2.82746e-05
2.76639e-05
2.70643e-05
2.64752e-05
2.58961e-05
2.53264e-05
2.47657e-05
2.42133e-05
2.36689e-05
2.3132e-05
2.26031e-05
2.20812e-05
2.15657e-05
2.10562e-05
2.05524e-05
2.00539e-05
1.95604e-05
1.90716e-05
1.85872e-05
1.8107e-05
1.76308e-05
1.71583e-05
1.66894e-05
1.62239e-05
1.57617e-05
1.53026e-05
1.48466e-05
1.43948e-05
1.39468e-05
1.35018e-05
1.30598e-05
1.26206e-05
1.21843e-05
1.17509e-05
1.13203e-05
1.08926e-05
1.04679e-05
1.00461e-05
9.62733e-06
9.21153e-06
8.79875e-06
8.38899e-06
7.98224e-06
7.57845e-06
7.17752e-06
6.77892e-06
6.38319e-06
5.99025e-06
5.59946e-06
5.21073e-06
4.82366e-06
4.43772e-06
4.05226e-06
3.66636e-06
3.27898e-06
2.8909e-06
2.49946e-06
2.10145e-06
1.69345e-06
1.2713e-06
8.32205e-07
3.91981e-07
7.50293e-08
8.56419e-07
3.76352e-06
7.06417e-06
1.01473e-05
1.30618e-05
1.58826e-05
1.86429e-05
2.13492e-05
2.4017e-05
2.6656e-05
2.92768e-05
3.18829e-05
3.4463e-05
3.70268e-05
3.95761e-05
4.2111e-05
4.46308e-05
4.71343e-05
4.962e-05
5.20859e-05
5.453e-05
5.69497e-05
5.93426e-05
6.1706e-05
6.40372e-05
6.63332e-05
6.85911e-05
7.08081e-05
7.2981e-05
7.5107e-05
7.71831e-05
7.92064e-05
8.1174e-05
8.30832e-05
8.49313e-05
8.67157e-05
8.84338e-05
9.00833e-05
9.16619e-05
9.31676e-05
9.45984e-05
9.59525e-05
9.72282e-05
9.84241e-05
9.9539e-05
0.000100572
0.000101521
0.000102387
0.000103168
0.000103865
0.000104476
0.000105003
0.000105446
0.000105804
0.000106078
0.000106269
0.000106379
0.000106408
0.000106358
0.00010623
0.000106026
0.000105749
0.000105403
0.000104988
0.000104504
0.000103954
0.00010334
0.000102663
0.000101927
0.000101134
0.000100287
9.93877e-05
9.84398e-05
9.74459e-05
9.64085e-05
9.53307e-05
9.42152e-05
9.30647e-05
9.18821e-05
9.06701e-05
8.94316e-05
8.81691e-05
8.68854e-05
8.5583e-05
8.42646e-05
8.29325e-05
8.15893e-05
8.02373e-05
7.88788e-05
7.75159e-05
7.61508e-05
7.47854e-05
7.34218e-05
7.20618e-05
7.0707e-05
6.93592e-05
6.80199e-05
6.66906e-05
6.53726e-05
6.40672e-05
6.27757e-05
6.14989e-05
6.0238e-05
5.89938e-05
5.77672e-05
5.65588e-05
5.53694e-05
5.41993e-05
5.30491e-05
5.19193e-05
5.081e-05
4.97216e-05
4.86542e-05
4.76079e-05
4.65828e-05
4.55789e-05
4.4596e-05
4.36341e-05
4.2693e-05
4.17724e-05
4.08722e-05
3.99919e-05
3.91314e-05
3.82901e-05
3.74677e-05
3.66638e-05
3.58779e-05
3.51095e-05
3.43581e-05
3.36233e-05
3.29044e-05
3.2201e-05
3.15125e-05
3.08384e-05
3.01781e-05
2.95311e-05
2.88967e-05
2.82745e-05
2.76639e-05
2.70643e-05
2.64752e-05
2.5896e-05
2.53263e-05
2.47656e-05
2.42133e-05
2.36688e-05
2.31319e-05
2.2603e-05
2.20811e-05
2.15656e-05
2.10562e-05
2.05524e-05
2.00539e-05
1.95604e-05
1.90716e-05
1.85872e-05
1.8107e-05
1.76307e-05
1.71583e-05
1.66894e-05
1.62239e-05
1.57616e-05
1.53025e-05
1.48465e-05
1.43947e-05
1.39467e-05
1.35018e-05
1.30597e-05
1.26206e-05
1.21843e-05
1.17508e-05
1.13203e-05
1.08926e-05
1.04679e-05
1.00461e-05
9.6273e-06
9.21151e-06
8.79873e-06
8.38897e-06
7.98221e-06
7.57843e-06
7.1775e-06
6.7789e-06
6.38317e-06
5.99023e-06
5.59944e-06
5.21072e-06
4.82365e-06
4.43771e-06
4.05225e-06
3.66636e-06
3.27897e-06
2.8909e-06
2.49946e-06
2.10146e-06
1.69345e-06
1.27131e-06
8.32209e-07
3.91983e-07
7.50299e-08
3.45301e-06
4.25548e-05
7.40015e-05
9.56136e-05
0.000112272
0.000126031
0.000137825
0.000148347
0.000157967
0.000166904
0.000175299
0.00018326
0.000190867
0.000198168
0.000205197
0.000211984
0.000218551
0.000224916
0.000231091
0.000237089
0.000242917
0.000248582
0.000254088
0.000259441
0.000264642
0.000269693
0.000274597
0.000279353
0.000283963
0.000288425
0.000292741
0.000296909
0.000300928
0.000304799
0.00030852
0.00031209
0.000315508
0.000318773
0.000321886
0.000324843
0.000327646
0.000330293
0.000332784
0.000335118
0.000337296
0.000339316
0.00034118
0.000342886
0.000344437
0.000345831
0.00034707
0.000348156
0.000349087
0.000349867
0.000350497
0.000350977
0.000351311
0.000351499
0.000351543
0.000351446
0.00035121
0.000350835
0.000350322
0.000349676
0.000348903
0.000348006
0.000346989
0.000345855
0.000344608
0.000343252
0.000341791
0.000340229
0.000338568
0.000336815
0.000334971
0.000333042
0.000331032
0.000328945
0.000326784
0.000324555
0.00032226
0.000319905
0.000317493
0.000315028
0.000312515
0.000309957
0.000307358
0.000304723
0.000302054
0.000299355
0.000296631
0.000293884
0.000291119
0.000288338
0.000285544
0.000282742
0.000279933
0.000277121
0.000274308
0.000271497
0.000268692
0.000265893
0.000263104
0.000260326
0.000257562
0.000254814
0.000252083
0.000249371
0.00024668
0.00024401
0.000241364
0.000238742
0.000236145
0.000233575
0.000231031
0.000228516
0.000226028
0.000223569
0.000221139
0.000218737
0.000216365
0.000214022
0.000211707
0.000209422
0.000207164
0.000204934
0.000202732
0.000200556
0.000198407
0.000196282
0.000194182
0.000192106
0.000190052
0.00018802
0.000186008
0.000184015
0.000182041
0.000180084
0.000178143
0.000176216
0.000174303
0.000172401
0.000170511
0.00016863
0.000166758
0.000164893
0.000163036
0.000161182
0.000159331
0.000157482
0.000155633
0.000153784
0.000151932
0.000150078
0.00014822
0.000146356
0.000144485
0.000142607
0.00014072
0.000138823
0.000136915
0.000134995
0.00013306
0.000131108
0.00012913
0.000127135
0.000125121
0.000123089
0.000121037
0.000118964
0.000116869
0.000114751
0.000112609
0.000110441
0.000108244
0.000106019
0.000103761
0.000101468
9.91384e-05
9.67677e-05
9.4352e-05
9.1887e-05
8.93679e-05
8.67862e-05
8.41327e-05
8.1397e-05
7.85671e-05
7.56262e-05
7.25534e-05
6.93216e-05
6.58923e-05
6.22069e-05
5.8159e-05
5.36909e-05
4.86532e-05
4.2799e-05
3.56811e-05
2.63795e-05
1.29447e-05
3.53543e-07
3.45314e-06
4.25569e-05
7.40045e-05
9.56168e-05
0.000112275
0.000126034
0.000137829
0.00014835
0.00015797
0.000166908
0.000175303
0.000183264
0.000190871
0.000198172
0.000205201
0.000211988
0.000218555
0.00022492
0.000231096
0.000237093
0.000242921
0.000248586
0.000254093
0.000259445
0.000264646
0.000269698
0.000274602
0.000279358
0.000283968
0.00028843
0.000292746
0.000296914
0.000300933
0.000304804
0.000308525
0.000312095
0.000315513
0.000318779
0.000321891
0.000324849
0.000327652
0.000330299
0.00033279
0.000335124
0.000337301
0.000339322
0.000341185
0.000342892
0.000344442
0.000345837
0.000347076
0.000348161
0.000349093
0.000349873
0.000350503
0.000350983
0.000351316
0.000351504
0.000351549
0.000351452
0.000351215
0.000350841
0.000350327
0.000349682
0.000348909
0.000348011
0.000346994
0.00034586
0.000344614
0.000343258
0.000341796
0.000340234
0.000338573
0.00033682
0.000334976
0.000333047
0.000331037
0.00032895
0.000326789
0.00032456
0.000322265
0.00031991
0.000317498
0.000315033
0.00031252
0.000309962
0.000307363
0.000304727
0.000302058
0.00029936
0.000296635
0.000293889
0.000291123
0.000288342
0.000285548
0.000282745
0.000279937
0.000277124
0.000274312
0.000271501
0.000268695
0.000265896
0.000263107
0.00026033
0.000257566
0.000254817
0.000252086
0.000249374
0.000246683
0.000244013
0.000241367
0.000238745
0.000236148
0.000233578
0.000231034
0.000228518
0.000226031
0.000223571
0.000221141
0.00021874
0.000216367
0.000214024
0.00021171
0.000209424
0.000207166
0.000204936
0.000202734
0.000200558
0.000198409
0.000196284
0.000194184
0.000192108
0.000190054
0.000188021
0.00018601
0.000184017
0.000182043
0.000180086
0.000178144
0.000176218
0.000174304
0.000172403
0.000170512
0.000168631
0.000166759
0.000164895
0.000163037
0.000161183
0.000159332
0.000157483
0.000155634
0.000153785
0.000151933
0.000150079
0.000148221
0.000146357
0.000144486
0.000142608
0.000140721
0.000138824
0.000136916
0.000134995
0.000133061
0.000131109
0.000129131
0.000127136
0.000125122
0.000123089
0.000121037
0.000118964
0.00011687
0.000114752
0.000112609
0.000110441
0.000108245
0.000106019
0.000103761
0.000101469
9.91389e-05
9.67681e-05
9.43524e-05
9.18874e-05
8.93683e-05
8.67866e-05
8.41331e-05
8.13974e-05
7.85675e-05
7.56265e-05
7.25538e-05
6.9322e-05
6.58926e-05
6.22073e-05
5.81592e-05
5.36911e-05
4.86534e-05
4.27991e-05
3.56812e-05
2.63796e-05
1.29447e-05
3.53543e-07
6.623e-06
7.18198e-05
0.000136679
0.000185052
0.000222507
0.000252771
0.000278184
0.000300202
0.000319746
0.000337427
0.000353655
0.000368717
0.000382823
0.000396122
0.000408725
0.000420717
0.000432167
0.000443127
0.000453641
0.000463743
0.000473462
0.000482821
0.00049184
0.000500533
0.000508915
0.000516996
0.000524787
0.000532294
0.000539524
0.000546483
0.000553177
0.000559608
0.00056578
0.000571697
0.000577362
0.000582775
0.000587941
0.000592859
0.000597533
0.000601964
0.000606153
0.000610102
0.000613813
0.000617287
0.000620525
0.00062353
0.000626303
0.000628845
0.000631159
0.000633247
0.000635111
0.000636752
0.000638174
0.000639379
0.000640369
0.000641147
0.000641715
0.000642077
0.000642235
0.000642191
0.000641947
0.000641506
0.000640867
0.000640037
0.000639025
0.000637834
0.000636472
0.000634942
0.00063325
0.0006314
0.000629398
0.000627248
0.000624955
0.000622525
0.000619962
0.000617272
0.00061446
0.000611531
0.000608489
0.000605341
0.000602092
0.000598747
0.00059531
0.000591788
0.000588186
0.000584508
0.000580759
0.000576946
0.000573072
0.000569142
0.000565162
0.000561136
0.00055707
0.000552966
0.000548831
0.000544667
0.00054048
0.000536274
0.000532053
0.000527819
0.000523578
0.000519333
0.000515086
0.000510842
0.000506603
0.000502373
0.000498154
0.000493949
0.000489759
0.000485588
0.000481438
0.00047731
0.000473206
0.000469128
0.000465077
0.000461054
0.00045706
0.000453096
0.000449164
0.000445262
0.000441392
0.000437554
0.000433747
0.000429972
0.000426228
0.000422516
0.000418833
0.00041518
0.000411555
0.000407957
0.000404387
0.000400841
0.000397319
0.000393819
0.00039034
0.000386881
0.000383438
0.000380012
0.000376599
0.000373198
0.000369807
0.000366425
0.000363049
0.000359677
0.000356309
0.000352943
0.000349574
0.000346199
0.000342818
0.000339428
0.000336027
0.000332614
0.000329186
0.000325741
0.000322277
0.000318792
0.000315285
0.000311752
0.000308193
0.000304604
0.000300983
0.000297328
0.000293634
0.000289897
0.000286108
0.000282271
0.000278386
0.000274451
0.000270465
0.000266425
0.000262327
0.00025817
0.000253948
0.000249656
0.000245291
0.000240846
0.000236315
0.00023169
0.000226962
0.000222121
0.000217154
0.000212049
0.000206788
0.00020135
0.00019571
0.000189836
0.000183689
0.000177218
0.00017036
0.000163032
0.000155124
0.000146478
0.000136868
0.000126005
0.000113493
9.86542e-05
8.0372e-05
5.67448e-05
2.54865e-05
7.56578e-07
6.62316e-06
7.18227e-05
0.000136684
0.000185059
0.000222514
0.000252779
0.000278192
0.000300209
0.000319754
0.000337435
0.000353662
0.000368724
0.00038283
0.000396129
0.000408732
0.000420724
0.000432174
0.000443134
0.000453648
0.000463751
0.00047347
0.000482829
0.000491847
0.000500541
0.000508922
0.000517004
0.000524794
0.000532301
0.000539532
0.000546491
0.000553184
0.000559615
0.000565788
0.000571705
0.000577369
0.000582783
0.000587948
0.000592867
0.000597541
0.000601972
0.000606161
0.00061011
0.000613821
0.000617294
0.000620533
0.000623538
0.00062631
0.000628853
0.000631167
0.000633255
0.000635118
0.00063676
0.000638182
0.000639386
0.000640376
0.000641154
0.000641722
0.000642084
0.000642242
0.000642198
0.000641954
0.000641513
0.000640874
0.000640044
0.000639031
0.000637841
0.000636478
0.000634948
0.000633256
0.000631406
0.000629404
0.000627254
0.000624962
0.000622531
0.000619969
0.000617278
0.000614466
0.000611536
0.000608495
0.000605347
0.000602098
0.000598752
0.000595316
0.000591794
0.000588191
0.000584513
0.000580764
0.00057695
0.000573076
0.000569147
0.000565167
0.000561141
0.000557074
0.000552971
0.000548835
0.000544672
0.000540485
0.000536278
0.000532056
0.000527823
0.000523582
0.000519336
0.00051509
0.000510846
0.000506607
0.000502376
0.000498157
0.000493952
0.000489762
0.000485591
0.000481441
0.000477313
0.000473209
0.00046913
0.000465079
0.000461056
0.000457062
0.000453099
0.000449166
0.000445264
0.000441394
0.000437556
0.000433749
0.000429974
0.00042623
0.000422517
0.000418834
0.000415181
0.000411556
0.000407959
0.000404388
0.000400842
0.00039732
0.00039382
0.000390342
0.000386882
0.000383439
0.000380013
0.0003766
0.000373199
0.000369808
0.000366425
0.000363049
0.000359678
0.00035631
0.000352943
0.000349574
0.0003462
0.000342819
0.000339429
0.000336028
0.000332614
0.000329186
0.000325741
0.000322277
0.000318792
0.000315285
0.000311752
0.000308193
0.000304604
0.000300983
0.000297328
0.000293634
0.000289897
0.000286108
0.000282271
0.000278386
0.000274451
0.000270465
0.000266424
0.000262327
0.000258169
0.000253947
0.000249656
0.000245291
0.000240846
0.000236315
0.00023169
0.000226962
0.00022212
0.000217154
0.000212049
0.000206788
0.00020135
0.00019571
0.000189836
0.000183689
0.000177217
0.00017036
0.000163032
0.000155124
0.000146478
0.000136868
0.000126006
0.000113493
9.86543e-05
8.03721e-05
5.67448e-05
2.54864e-05
7.56579e-07
9.68819e-06
9.24806e-05
0.000182908
0.000255765
0.000314384
0.000362618
0.00040337
0.000438618
0.000469713
0.000497599
0.000522946
0.000546238
0.000567835
0.000588003
0.000606946
0.000624822
0.000641755
0.000657846
0.000673174
0.000687805
0.000701794
0.000715186
0.000728017
0.000740321
0.000752122
0.000763446
0.000774311
0.000784734
0.00079473
0.000804312
0.000813492
0.00082228
0.000830684
0.000838713
0.000846373
0.000853673
0.000860617
0.000867211
0.000873461
0.000879371
0.000884946
0.000890191
0.000895109
0.000899706
0.000903984
0.000907948
0.000911603
0.000914951
0.000917996
0.000920744
0.000923197
0.00092536
0.000927236
0.000928829
0.000930145
0.000931186
0.000931956
0.00093246
0.000932701
0.000932683
0.000932409
0.000931881
0.000931104
0.000930083
0.000928827
0.000927343
0.000925637
0.000923717
0.000921587
0.000919255
0.000916727
0.000914008
0.000911105
0.000908023
0.000904769
0.000901349
0.000897769
0.000894036
0.000890155
0.000886133
0.000881977
0.000877692
0.000873284
0.00086876
0.000864127
0.00085939
0.000854556
0.00084963
0.000844619
0.000839528
0.000834365
0.000829133
0.00082384
0.00081849
0.00081309
0.000807645
0.000802159
0.000796639
0.000791088
0.000785513
0.000779917
0.000774305
0.000768682
0.000763051
0.000757417
0.000751783
0.000746153
0.00074053
0.000734918
0.000729319
0.000723736
0.000718172
0.000712629
0.000707108
0.000701612
0.000696143
0.000690701
0.000685289
0.000679906
0.000674553
0.000669231
0.000663941
0.000658682
0.000653454
0.000648257
0.000643089
0.000637951
0.000632842
0.00062776
0.000622703
0.000617672
0.000612663
0.000607675
0.000602706
0.000597754
0.000592818
0.000587894
0.00058298
0.000578075
0.000573175
0.000568279
0.000563383
0.000558486
0.000553585
0.000548678
0.000543761
0.00053883
0.000533883
0.000528916
0.000523926
0.000518912
0.00051387
0.000508797
0.000503692
0.000498551
0.00049337
0.000488149
0.000482882
0.000477568
0.000472203
0.000466783
0.000461304
0.000455761
0.000450147
0.000444457
0.000438688
0.000432838
0.000426906
0.000420887
0.000414776
0.000408568
0.000402256
0.000395834
0.000389293
0.000382623
0.000375815
0.000368855
0.000361729
0.000354422
0.000346913
0.00033918
0.000331197
0.000322932
0.000314347
0.000305394
0.000296018
0.000286145
0.000275687
0.00026453
0.000252526
0.000239484
0.000225147
0.000209167
0.000191066
0.000170211
0.000145643
0.000115939
7.91163e-05
3.41982e-05
1.16754e-06
9.68836e-06
9.24837e-05
0.000182914
0.000255774
0.000314394
0.000362628
0.000403381
0.000438629
0.000469724
0.00049761
0.000522957
0.000546249
0.000567846
0.000588014
0.000606956
0.000624832
0.000641766
0.000657856
0.000673184
0.000687816
0.000701805
0.000715196
0.000728028
0.000740331
0.000752132
0.000763456
0.000774321
0.000784744
0.00079474
0.000804322
0.000813502
0.00082229
0.000830694
0.000838722
0.000846383
0.000853683
0.000860627
0.000867221
0.00087347
0.000879381
0.000884956
0.0008902
0.000895119
0.000899715
0.000903993
0.000907958
0.000911612
0.00091496
0.000918006
0.000920753
0.000923206
0.000925368
0.000927245
0.000928838
0.000930153
0.000931194
0.000931964
0.000932468
0.000932709
0.000932691
0.000932417
0.000931889
0.000931112
0.000930091
0.000928835
0.00092735
0.000925645
0.000923724
0.000921594
0.000919262
0.000916734
0.000914015
0.000911111
0.000908029
0.000904775
0.000901355
0.000897776
0.000894042
0.000890161
0.000886139
0.000881982
0.000877697
0.00087329
0.000868766
0.000864132
0.000859395
0.000854561
0.000849635
0.000844624
0.000839533
0.000834369
0.000829138
0.000823844
0.000818495
0.000813094
0.000807649
0.000802163
0.000796642
0.000791092
0.000785516
0.00077992
0.000774309
0.000768685
0.000763054
0.00075742
0.000751786
0.000746156
0.000740533
0.000734921
0.000729322
0.000723739
0.000718174
0.000712631
0.00070711
0.000701614
0.000696145
0.000690703
0.00068529
0.000679907
0.000674555
0.000669233
0.000663942
0.000658683
0.000653455
0.000648258
0.00064309
0.000637952
0.000632843
0.00062776
0.000622704
0.000617672
0.000612663
0.000607675
0.000602706
0.000597754
0.000592818
0.000587894
0.00058298
0.000578075
0.000573175
0.000568279
0.000563383
0.000558485
0.000553584
0.000548677
0.00054376
0.00053883
0.000533882
0.000528915
0.000523926
0.000518911
0.000513869
0.000508797
0.000503691
0.00049855
0.00049337
0.000488148
0.000482881
0.000477567
0.000472202
0.000466782
0.000461303
0.00045576
0.000450146
0.000444456
0.000438687
0.000432837
0.000426905
0.000420886
0.000414775
0.000408567
0.000402255
0.000395833
0.000389292
0.000382622
0.000375814
0.000368854
0.000361728
0.000354421
0.000346912
0.000339179
0.000331196
0.000322931
0.000314346
0.000305394
0.000296017
0.000286144
0.000275687
0.000264529
0.000252526
0.000239484
0.000225147
0.000209167
0.000191066
0.000170211
0.000145643
0.000115939
7.91163e-05
3.4198e-05
1.16754e-06
1.26638e-05
0.000109023
0.000219291
0.000312828
0.000390606
0.000456021
0.000511976
0.000560658
0.000603673
0.000642201
0.000677117
0.000709074
0.000738568
0.000765979
0.000791601
0.000815664
0.000838354
0.000859818
0.000880177
0.00089953
0.00091796
0.000935535
0.000952313
0.000968342
0.000983666
0.000998319
0.00101233
0.00102574
0.00103855
0.0010508
0.0010625
0.00107367
0.00108432
0.00109448
0.00110414
0.00111332
0.00112204
0.00113029
0.0011381
0.00114547
0.00115241
0.00115892
0.00116501
0.0011707
0.00117598
0.00118087
0.00118537
0.00118948
0.00119321
0.00119658
0.00119958
0.00120222
0.00120451
0.00120645
0.00120805
0.00120932
0.00121025
0.00121087
0.00121116
0.00121113
0.0012108
0.00121017
0.00120923
0.001208
0.00120649
0.0012047
0.00120265
0.00120033
0.00119777
0.00119496
0.00119191
0.00118863
0.00118513
0.00118142
0.00117749
0.00117337
0.00116905
0.00116454
0.00115985
0.001155
0.00114997
0.00114479
0.00113946
0.00113399
0.00112838
0.00112264
0.00111678
0.0011108
0.00110472
0.00109854
0.00109226
0.0010859
0.00107946
0.00107294
0.00106635
0.00105971
0.00105301
0.00104626
0.00103947
0.00103264
0.00102578
0.00101889
0.00101198
0.00100506
0.000998119
0.000991175
0.000984228
0.000977283
0.000970342
0.000963409
0.000956487
0.00094958
0.00094269
0.00093582
0.000928971
0.000922146
0.000915346
0.000908572
0.000901826
0.000895108
0.000888419
0.000881759
0.000875128
0.000868526
0.000861952
0.000855406
0.000848886
0.000842391
0.000835921
0.000829472
0.000823044
0.000816635
0.000810242
0.000803862
0.000797494
0.000791134
0.000784781
0.000778431
0.00077208
0.000765728
0.000759369
0.000753002
0.000746623
0.00074023
0.000733819
0.000727385
0.000720925
0.000714434
0.00070791
0.000701348
0.000694747
0.000688101
0.000681408
0.000674664
0.000667866
0.00066101
0.000654092
0.000647109
0.000640056
0.000632929
0.000625723
0.000618432
0.000611051
0.000603573
0.000595991
0.000588298
0.000580492
0.000572569
0.00056452
0.00055634
0.00054802
0.000539549
0.000530918
0.000522113
0.00051312
0.000503923
0.000494504
0.00048484
0.000474907
0.000464675
0.00045411
0.000443173
0.000431815
0.000419979
0.000407596
0.000394581
0.000380831
0.000366217
0.000350576
0.000333705
0.000315338
0.000295134
0.000272641
0.000247266
0.000218209
0.000184399
0.000144381
9.64681e-05
4.10187e-05
1.57392e-06
1.26639e-05
0.000109026
0.000219298
0.000312838
0.000390617
0.000456033
0.00051199
0.000560672
0.000603687
0.000642215
0.000677131
0.000709088
0.000738582
0.000765993
0.000791614
0.000815678
0.000838367
0.000859831
0.00088019
0.000899544
0.000917973
0.000935548
0.000952326
0.000968355
0.000983679
0.000998332
0.00101235
0.00102575
0.00103856
0.00105081
0.00106251
0.00107368
0.00108434
0.00109449
0.00110415
0.00111333
0.00112205
0.00113031
0.00113811
0.00114548
0.00115242
0.00115893
0.00116503
0.00117071
0.00117599
0.00118088
0.00118538
0.00118949
0.00119323
0.00119659
0.00119959
0.00120223
0.00120452
0.00120646
0.00120806
0.00120933
0.00121026
0.00121087
0.00121117
0.00121114
0.00121081
0.00121017
0.00120924
0.00120801
0.0012065
0.00120471
0.00120266
0.00120034
0.00119778
0.00119497
0.00119192
0.00118864
0.00118514
0.00118142
0.0011775
0.00117337
0.00116905
0.00116455
0.00115986
0.001155
0.00114998
0.0011448
0.00113947
0.00113399
0.00112838
0.00112265
0.00111678
0.00111081
0.00110473
0.00109854
0.00109227
0.0010859
0.00107946
0.00107294
0.00106636
0.00105971
0.00105301
0.00104626
0.00103947
0.00103264
0.00102578
0.00101889
0.00101198
0.00100506
0.000998122
0.000991178
0.000984231
0.000977285
0.000970344
0.000963411
0.00095649
0.000949582
0.000942692
0.000935822
0.000928973
0.000922148
0.000915347
0.000908573
0.000901827
0.000895109
0.00088842
0.00088176
0.000875129
0.000868527
0.000861953
0.000855406
0.000848887
0.000842392
0.000835921
0.000829473
0.000823045
0.000816635
0.000810242
0.000803862
0.000797494
0.000791134
0.000784781
0.00077843
0.00077208
0.000765727
0.000759369
0.000753001
0.000746622
0.000740229
0.000733818
0.000727384
0.000720924
0.000714433
0.000707909
0.000701348
0.000694746
0.0006881
0.000681407
0.000674663
0.000667865
0.000661009
0.000654091
0.000647108
0.000640055
0.000632927
0.000625721
0.000618431
0.00061105
0.000603572
0.00059599
0.000588297
0.000580491
0.000572567
0.000564519
0.000556339
0.000548018
0.000539548
0.000530916
0.000522111
0.000513119
0.000503922
0.000494503
0.000484839
0.000474905
0.000464673
0.000454109
0.000443172
0.000431814
0.000419978
0.000407595
0.00039458
0.00038083
0.000366216
0.000350576
0.000333704
0.000315338
0.000295134
0.000272641
0.000247266
0.000218209
0.0001844
0.000144382
9.64682e-05
4.10185e-05
1.57392e-06
1.55994e-05
0.000123083
0.000249382
0.000360425
0.000455179
0.000536336
0.000606601
0.000668193
0.00072284
0.000771874
0.000816314
0.000856945
0.000894377
0.000929085
0.000961446
0.000991758
0.00102026
0.00104715
0.00107259
0.00109671
0.00111961
0.0011414
0.00116215
0.00118193
0.00120079
0.00121878
0.00123595
0.00125234
0.00126797
0.00128288
0.00129709
0.00131063
0.00132352
0.00133577
0.00134741
0.00135846
0.00136892
0.00137881
0.00138815
0.00139695
0.00140521
0.00141296
0.00142019
0.00142693
0.00143318
0.00143895
0.00144425
0.00144909
0.00145348
0.00145742
0.00146093
0.00146401
0.00146668
0.00146893
0.00147078
0.00147224
0.0014733
0.00147399
0.0014743
0.00147425
0.00147383
0.00147307
0.00147195
0.0014705
0.00146872
0.00146662
0.00146421
0.0014615
0.00145849
0.0014552
0.00145164
0.00144781
0.00144372
0.00143938
0.0014348
0.00142999
0.00142495
0.0014197
0.00141423
0.00140857
0.00140271
0.00139667
0.00139046
0.00138408
0.00137753
0.00137084
0.00136401
0.00135703
0.00134994
0.00134272
0.00133539
0.00132796
0.00132043
0.00131281
0.00130511
0.00129734
0.0012895
0.00128159
0.00127364
0.00126563
0.00125759
0.00124951
0.0012414
0.00123326
0.00122511
0.00121695
0.00120877
0.00120059
0.00119241
0.00118423
0.00117606
0.0011679
0.00115976
0.00115163
0.00114352
0.00113543
0.00112736
0.00111932
0.0011113
0.00110331
0.00109534
0.00108741
0.00107949
0.00107161
0.00106374
0.00105591
0.00104809
0.0010403
0.00103253
0.00102477
0.00101703
0.0010093
0.00100159
0.000993877
0.000986173
0.000978471
0.000970767
0.000963057
0.00095534
0.00094761
0.000939865
0.000932101
0.000924314
0.000916502
0.000908658
0.000900779
0.00089286
0.000884897
0.000876886
0.000868822
0.000860701
0.00085252
0.000844275
0.00083596
0.000827572
0.000819106
0.000810558
0.000801923
0.000793196
0.000784371
0.000775442
0.000766403
0.000757247
0.000747965
0.000738551
0.000728995
0.000719292
0.000709435
0.000699414
0.000689219
0.000678839
0.000668261
0.000657469
0.000646446
0.000635173
0.000623629
0.000611786
0.000599617
0.000587087
0.000574157
0.000560781
0.000546906
0.000532467
0.000517388
0.000501578
0.000484928
0.000467302
0.000448536
0.000428426
0.000406718
0.000383089
0.000357133
0.000328326
0.000295997
0.000259269
0.00021705
0.000167975
0.000110737
4.67629e-05
1.97696e-06
1.55996e-05
0.000123087
0.000249389
0.000360435
0.000455192
0.000536351
0.000606616
0.000668209
0.000722857
0.000771891
0.000816331
0.000856962
0.000894394
0.000929102
0.000961462
0.000991774
0.00102028
0.00104717
0.00107261
0.00109672
0.00111963
0.00114142
0.00116217
0.00118194
0.0012008
0.0012188
0.00123597
0.00125235
0.00126798
0.00128289
0.0012971
0.00131064
0.00132353
0.00133579
0.00134743
0.00135847
0.00136893
0.00137883
0.00138816
0.00139696
0.00140522
0.00141297
0.0014202
0.00142694
0.00143319
0.00143896
0.00144426
0.0014491
0.00145349
0.00145743
0.00146094
0.00146402
0.00146669
0.00146894
0.00147079
0.00147225
0.00147331
0.001474
0.00147431
0.00147426
0.00147384
0.00147308
0.00147196
0.00147051
0.00146873
0.00146663
0.00146422
0.0014615
0.0014585
0.00145521
0.00145165
0.00144782
0.00144373
0.00143939
0.00143481
0.00143
0.00142496
0.0014197
0.00141424
0.00140858
0.00140272
0.00139668
0.00139047
0.00138408
0.00137754
0.00137085
0.00136401
0.00135704
0.00134994
0.00134272
0.0013354
0.00132796
0.00132043
0.00131282
0.00130512
0.00129734
0.0012895
0.0012816
0.00127364
0.00126564
0.00125759
0.00124951
0.0012414
0.00123327
0.00122511
0.00121695
0.00120877
0.00120059
0.00119241
0.00118424
0.00117607
0.00116791
0.00115976
0.00115163
0.00114352
0.00113543
0.00112737
0.00111932
0.0011113
0.00110331
0.00109535
0.00108741
0.00107949
0.00107161
0.00106374
0.00105591
0.00104809
0.0010403
0.00103253
0.00102477
0.00101703
0.0010093
0.00100159
0.000993878
0.000986174
0.000978471
0.000970767
0.000963057
0.00095534
0.00094761
0.000939865
0.000932101
0.000924314
0.000916501
0.000908658
0.000900779
0.00089286
0.000884897
0.000876885
0.000868821
0.000860701
0.00085252
0.000844274
0.000835959
0.000827571
0.000819105
0.000810557
0.000801922
0.000793195
0.000784369
0.000775441
0.000766402
0.000757245
0.000747964
0.00073855
0.000728993
0.000719291
0.000709434
0.000699413
0.000689218
0.000678838
0.000668259
0.000657467
0.000646445
0.000635172
0.000623627
0.000611785
0.000599616
0.000587086
0.000574156
0.00056078
0.000546905
0.000532465
0.000517387
0.000501577
0.000484927
0.000467301
0.000448535
0.000428426
0.000406717
0.000383089
0.000357133
0.000328326
0.000295997
0.000259269
0.000217051
0.000167976
0.000110737
4.67627e-05
1.97697e-06
1.85065e-05
0.000135481
0.000275291
0.000401364
0.000511097
0.00060647
0.000689916
0.000763594
0.000829279
0.000888383
0.000942026
0.00099109
0.00103627
0.00107814
0.00111712
0.00115359
0.00118782
0.00122007
0.00125052
0.00127934
0.00130668
0.00133263
0.0013573
0.00138078
0.00140313
0.00142443
0.00144471
0.00146404
0.00148245
0.00149998
0.00151667
0.00153254
0.00154763
0.00156195
0.00157554
0.00158841
0.00160058
0.00161207
0.0016229
0.00163309
0.00164264
0.00165158
0.00165992
0.00166768
0.00167486
0.00168147
0.00168754
0.00169307
0.00169808
0.00170257
0.00170655
0.00171004
0.00171305
0.00171558
0.00171765
0.00171927
0.00172044
0.00172118
0.00172149
0.00172138
0.00172087
0.00171995
0.00171864
0.00171695
0.00171488
0.00171246
0.00170968
0.00170657
0.00170312
0.00169935
0.00169527
0.0016909
0.00168623
0.00168127
0.00167605
0.00167056
0.00166482
0.00165883
0.00165261
0.00164617
0.0016395
0.00163263
0.00162556
0.0016183
0.00161087
0.00160326
0.00159549
0.00158756
0.00157949
0.00157129
0.00156296
0.0015545
0.00154594
0.00153728
0.00152853
0.00151968
0.00151076
0.00150177
0.00149271
0.0014836
0.00147444
0.00146524
0.001456
0.00144673
0.00143743
0.00142812