/*--------------------------------*- C++ -*----------------------------------*\
  =========                 |
  \\      /  F ield         | OpenFOAM: The Open Source CFD Toolbox
   \\    /   O peration     | Website:  https://openfoam.org
    \\  /    A nd           | Version:  8
     \\/     M anipulation  |
\*---------------------------------------------------------------------------*/
FoamFile
{
    version     2.0;
    format      ascii;
    class       volScalarField;
    location    "3300";
    object      epsilon;
}
// * * * * * * * * * * * * * * * * * * * * * * * * * * * * * * * * * * * * * //

dimensions      [0 2 -3 0 0 0 0];

internalField   nonuniform List<scalar> 
46000
(
15.5386
61.6326
115.428
165.556
212.871
258.618
303.339
347.153
390.315
432.985
475.338
517.433
559.091
600.467
641.595
682.476
723.102
763.453
803.505
843.229
882.591
921.552
960.074
998.113
1035.63
1072.57
1108.89
1144.55
1179.49
1213.67
1247.05
1279.57
1311.2
1341.88
1371.57
1400.24
1427.83
1454.33
1479.68
1503.85
1526.82
1548.56
1569.03
1588.22
1606.11
1622.67
1637.89
1651.77
1664.29
1675.45
1685.24
1693.67
1700.74
1706.45
1710.82
1713.86
1715.58
1716.01
1715.16
1713.07
1709.75
1705.26
1699.67
1692.96
1685.15
1676.27
1666.36
1655.45
1643.59
1630.81
1617.16
1602.68
1587.42
1571.41
1554.71
1537.36
1519.4
1500.88
1481.85
1462.35
1442.42
1422.1
1401.44
1380.49
1359.27
1337.84
1316.23
1294.48
1272.62
1250.69
1228.73
1206.76
1184.82
1162.94
1141.14
1119.46
1097.91
1076.52
1055.32
1034.31
1013.53
992.987
972.698
952.678
932.939
913.494
894.352
875.523
857.013
838.829
820.977
803.459
786.279
769.439
752.939
736.779
720.958
705.474
690.324
675.504
661.012
646.84
632.985
619.44
606.199
593.255
580.6
568.227
556.128
544.294
532.717
521.39
510.301
499.444
488.809
478.386
468.167
458.144
448.306
438.646
429.154
419.823
410.642
401.605
392.703
383.927
375.273
366.747
358.332
350.019
341.803
333.677
325.636
317.673
309.786
301.968
294.217
286.528
278.898
271.325
263.805
256.336
248.916
241.545
234.24
226.994
219.796
212.643
205.534
198.47
191.45
184.475
177.544
170.659
163.819
157.026
150.279
143.579
136.925
130.318
123.757
117.24
110.758
104.32
97.9258
91.5636
85.2324
78.9256
72.6346
66.3485
60.0525
53.729
47.3908
40.9942
34.4862
27.8098
20.8954
13.6939
6.45954
1.37374
15.5395
61.635
115.43
165.559
212.874
258.62
303.341
347.156
390.317
432.987
475.34
517.435
559.093
600.469
641.596
682.478
723.103
763.454
803.506
843.23
882.591
921.553
960.074
998.113
1035.63
1072.57
1108.89
1144.54
1179.49
1213.67
1247.05
1279.57
1311.19
1341.87
1371.57
1400.23
1427.83
1454.33
1479.68
1503.85
1526.82
1548.56
1569.03
1588.22
1606.1
1622.67
1637.89
1651.77
1664.29
1675.44
1685.24
1693.67
1700.73
1706.45
1710.82
1713.86
1715.58
1716.01
1715.16
1713.06
1709.75
1705.26
1699.67
1692.96
1685.15
1676.27
1666.36
1655.45
1643.58
1630.81
1617.16
1602.68
1587.41
1571.41
1554.71
1537.36
1519.4
1500.88
1481.85
1462.34
1442.41
1422.1
1401.44
1380.48
1359.27
1337.84
1316.23
1294.47
1272.62
1250.69
1228.73
1206.76
1184.82
1162.94
1141.14
1119.46
1097.91
1076.52
1055.31
1034.31
1013.53
992.985
972.695
952.675
932.937
913.492
894.35
875.521
857.011
838.827
820.975
803.457
786.277
769.437
752.937
736.777
720.956
705.472
690.322
675.503
661.01
646.839
632.984
619.439
606.198
593.253
580.598
568.225
556.126
544.292
532.716
521.388
510.3
499.443
488.807
478.385
468.166
458.142
448.305
438.645
429.153
419.821
410.641
401.604
392.702
383.926
375.272
366.746
358.33
350.018
341.802
333.676
325.635
317.672
309.785
301.967
294.216
286.527
278.897
271.324
263.804
256.335
248.916
241.544
234.239
226.993
219.795
212.642
205.533
198.469
191.449
184.474
177.544
170.658
163.819
157.026
150.279
143.579
136.925
130.318
123.757
117.24
110.758
104.32
97.9256
91.5634
85.2322
78.9255
72.6344
66.3484
60.0524
53.7289
47.3908
40.9942
34.4863
27.8099
20.8955
13.6939
6.45957
1.37375
66.7439
56.993
73.2581
92.5416
112.6
133.032
153.741
174.61
195.632
216.778
238.03
259.395
280.844
302.383
324.007
345.704
367.458
389.249
411.054
432.846
454.599
476.283
497.867
519.319
540.605
561.691
582.542
603.123
623.396
643.326
662.877
682.013
700.698
718.898
736.579
753.708
770.252
786.181
801.465
816.077
829.99
843.18
855.625
867.304
878.198
888.291
897.57
906.022
913.638
920.41
926.334
931.408
935.631
939.006
941.537
943.231
944.098
944.149
943.398
941.864
939.568
936.537
932.806
928.381
923.272
917.501
911.088
904.062
896.448
888.275
879.572
870.369
860.695
850.582
840.059
829.158
817.909
806.342
794.489
782.379
770.04
757.503
744.795
731.944
718.977
705.919
692.795
679.63
666.446
653.266
640.111
627
613.952
600.985
588.116
575.36
562.731
550.243
537.907
525.735
513.738
501.923
490.3
478.874
467.653
456.641
445.843
435.262
424.901
414.763
404.847
395.155
385.687
376.442
367.418
358.615
350.029
341.658
333.499
325.549
317.803
310.258
302.909
295.751
288.78
281.99
275.377
268.935
262.659
256.543
250.581
244.768
239.099
233.568
228.168
222.895
217.744
212.708
207.782
202.962
198.241
193.615
189.079
184.628
180.255
175.96
171.741
167.595
163.515
159.497
155.538
151.633
147.78
143.976
140.217
136.502
132.829
129.194
125.596
122.034
118.507
115.012
111.55
108.12
104.729
101.372
98.0453
94.7479
91.4788
88.2377
85.0245
81.8391
78.6817
75.5524
72.4516
69.3793
66.3359
63.3217
60.3367
57.3811
54.4547
51.5573
48.6878
45.8469
43.0338
40.2453
37.4841
34.7486
32.0361
29.3441
26.67
24.0118
21.3743
18.7447
16.1136
13.4741
10.8294
8.2273
5.95782
6.97872
66.7463
56.9919
73.2562
92.5391
112.597
133.028
153.737
174.606
195.627
216.773
238.024
259.389
280.838
302.376
323.999
345.696
367.45
389.241
411.044
432.836
454.589
476.272
497.856
519.307
540.593
561.679
582.529
603.109
623.382
643.311
662.862
681.997
700.682
718.882
736.563
753.691
770.235
786.163
801.447
816.058
829.971
843.161
855.606
867.284
878.178
888.271
897.55
906.002
913.617
920.389
926.314
931.387
935.61
938.985
941.516
943.21
944.076
944.127
943.377
941.843
939.547
936.516
932.786
928.36
923.252
917.48
911.068
904.042
896.428
888.256
879.553
870.35
860.676
850.563
840.041
829.14
817.891
806.325
794.472
782.361
770.023
757.486
744.779
731.928
718.961
705.903
692.78
679.615
666.432
653.252
640.097
626.986
613.939
600.972
588.103
575.347
562.719
550.231
537.895
525.724
513.727
501.913
490.289
478.864
467.643
456.631
445.834
435.253
424.893
414.754
404.839
395.147
385.679
376.434
367.411
358.607
350.022
341.651
333.492
325.542
317.797
310.252
302.903
295.745
288.774
281.985
275.372
268.93
262.654
256.538
250.576
244.764
239.095
233.563
228.164
222.891
217.74
212.704
207.779
202.958
198.238
193.612
189.076
184.624
180.252
175.957
171.738
167.592
163.512
159.495
155.535
151.631
147.778
143.974
140.215
136.5
132.827
129.192
125.595
122.033
118.505
115.01
111.548
108.119
104.728
101.37
98.044
94.7466
91.4776
88.2365
85.0233
81.838
78.6806
75.5514
72.4506
69.3784
66.3351
63.3208
60.3359
57.3803
54.454
51.5566
48.6871
45.8463
43.0332
40.2447
37.4836
34.7481
32.0356
29.3438
26.6696
24.0115
21.3741
18.7445
16.1135
13.474
10.8293
8.22727
5.95783
6.97872
126.107
76.9358
79.0215
88.6472
100.732
114.008
128.004
142.471
157.289
172.385
187.713
203.242
218.943
234.797
250.788
266.898
283.107
299.397
315.745
332.129
348.525
364.909
381.255
397.535
413.724
429.792
445.711
461.451
476.983
492.278
507.305
522.036
536.44
550.49
564.156
577.411
590.228
602.582
614.447
625.8
636.619
646.882
656.571
665.667
674.154
682.019
689.248
695.831
701.759
707.025
711.625
715.555
718.815
721.405
723.329
724.592
725.2
725.163
724.492
723.201
721.305
718.825
715.78
712.182
708.045
703.384
698.218
692.567
686.454
679.901
672.932
665.57
657.84
649.767
641.375
632.689
623.735
614.537
605.119
595.506
585.721
575.788
565.729
555.566
545.321
535.015
524.667
514.297
503.922
493.562
483.231
472.946
462.722
452.572
442.509
432.546
422.693
412.961
403.359
393.896
384.578
375.414
366.408
357.566
348.893
340.391
332.065
323.917
315.947
308.158
300.55
293.123
285.877
278.81
271.921
265.209
258.672
252.306
246.11
240.079
234.212
228.504
222.952
217.552
212.3
207.191
202.222
197.387
192.684
188.107
183.651
179.313
175.087
170.969
166.956
163.041
159.222
155.493
151.851
148.29
144.808
141.4
138.062
134.789
131.58
128.432
125.343
122.31
119.328
116.394
113.505
110.659
107.854
105.085
102.352
99.6532
96.9856
94.348
91.7389
89.1571
86.6013
84.0709
81.5652
79.0844
76.6293
74.1989
71.7915
69.4061
67.0422
64.6993
62.3774
60.0764
57.7965
55.5379
53.3007
51.0852
48.8918
46.7208
44.5725
42.4471
40.345
38.2663
36.2111
34.1797
32.1721
30.1882
28.2286
26.293
24.3822
22.497
20.6377
18.8062
17.0061
15.241
13.5174
11.8538
10.299
8.99917
8.58988
14.7058
126.11
76.9337
79.0185
88.6438
100.728
114.004
128
142.467
157.284
172.381
187.708
203.237
218.937
234.791
250.782
266.892
283.101
299.39
315.738
332.121
348.517
364.901
381.246
397.527
413.715
429.783
445.702
461.442
476.974
492.268
507.295
522.026
536.43
550.479
564.145
577.4
590.217
602.57
614.435
625.788
636.606
646.869
656.558
665.654
674.141
682.006
689.235
695.818
701.746
707.012
711.612
715.542
718.802
721.392
723.316
724.578
725.187
725.15
724.479
723.188
721.292
718.812
715.767
712.17
708.032
703.371
698.205
692.555
686.442
679.889
672.92
665.558
657.828
649.755
641.364
632.679
623.725
614.527
605.109
595.496
585.711
575.778
565.719
555.557
545.312
535.006
524.658
514.288
503.914
493.554
483.223
472.939
462.714
452.565
442.502
432.539
422.687
412.955
403.353
393.89
384.572
375.408
366.402
357.561
348.887
340.386
332.06
323.912
315.943
308.154
300.546
293.119
285.873
278.806
271.917
265.206
258.668
252.303
246.106
240.076
234.209
228.501
222.949
217.549
212.297
207.188
202.219
197.385
192.682
188.104
183.649
179.31
175.085
170.967
166.954
163.039
159.22
155.491
151.849
148.289
144.807
141.398
138.06
134.788
131.579
128.431
125.342
122.309
119.327
116.393
113.504
110.658
107.853
105.084
102.352
99.6524
96.9848
94.3473
91.7382
89.1564
86.6007
84.0702
81.5646
79.0838
76.6288
74.1984
71.791
69.4056
67.0417
64.6989
62.377
60.076
57.7961
55.5375
53.3003
51.0849
48.8915
46.7205
44.5722
42.4469
40.3448
38.2661
36.2109
34.1795
32.1719
30.1881
28.2284
26.2928
24.382
22.4968
20.6376
18.8061
17.006
15.241
13.5173
11.8537
10.299
8.99917
8.58995
14.7058
183.003
99.5242
91.4677
95.2139
102.872
112.391
123.002
134.332
146.182
158.431
170.999
183.833
196.89
210.14
223.556
237.114
250.792
264.569
278.421
292.326
306.263
320.208
334.137
348.026
361.851
375.585
389.204
402.681
415.99
429.106
442
454.649
467.024
479.102
490.856
502.262
513.296
523.935
534.157
543.941
553.267
562.115
570.469
578.313
585.631
592.411
598.641
604.311
609.413
613.941
617.89
621.256
624.04
626.241
627.861
628.905
629.379
629.29
628.647
627.463
625.75
623.522
620.797
617.587
613.904
609.764
605.184
600.18
594.773
588.983
582.829
576.334
569.518
562.403
555.011
547.364
539.484
531.393
523.112
514.662
506.065
497.341
488.509
479.59
470.603
461.565
452.494
443.407
434.32
425.248
416.207
407.209
398.267
389.395
380.603
371.901
363.299
354.807
346.431
338.181
330.061
322.078
314.238
306.544
299
291.61
284.375
277.299
270.382
263.625
257.028
250.592
244.316
238.199
232.24
226.437
220.788
215.291
209.944
204.743
199.686
194.77
189.991
185.345
180.83
176.441
172.176
168.028
163.996
160.075
156.261
152.55
148.938
145.421
141.995
138.656
135.401
132.225
129.125
126.097
123.137
120.242
117.409
114.634
111.915
109.25
106.636
104.07
101.549
99.0697
96.6303
94.2281
91.8608
89.5264
87.2229
84.9486
82.7018
80.4811
78.2852
76.1128
73.9631
71.8353
69.7287
67.6432
65.5788
63.5348
61.5103
59.5048
57.5176
55.5487
53.5977
51.6648
49.75
47.8535
45.9757
44.1167
42.277
40.457
38.657
36.8776
35.1192
33.3822
31.6671
29.9746
28.3053
26.6599
25.0393
23.4446
21.8776
20.3401
18.8353
17.3682
15.9454
14.578
13.2852
12.1053
11.1259
10.5908
11.525
22.4761
183.006
99.5215
91.4643
95.2102
102.869
112.387
122.998
134.328
146.178
158.427
170.995
183.828
196.885
210.135
223.551
237.109
250.787
264.563
278.415
292.32
306.257
320.202
334.131
348.02
361.844
375.578
389.197
402.674
415.983
429.098
441.992
454.64
467.016
479.093
490.847
502.253
513.287
523.926
534.148
543.932
553.258
562.106
570.46
578.303
585.621
592.401
598.631
604.301
609.403
613.931
617.88
621.247
624.03
626.231
627.851
628.896
629.369
629.28
628.638
627.454
625.74
623.513
620.788
617.578
613.896
609.756
605.175
600.172
594.765
588.975
582.821
576.326
569.51
562.395
555.003
547.357
539.477
531.386
523.105
514.655
506.058
497.334
488.503
479.584
470.597
461.559
452.488
443.401
434.314
425.243
416.202
407.204
398.263
389.39
380.598
371.896
363.295
354.802
346.427
338.177
330.057
322.075
314.234
306.54
298.997
291.607
284.372
277.296
270.379
263.622
257.025
250.59
244.314
238.197
232.238
226.435
220.786
215.289
209.942
204.741
199.684
194.768
189.989
185.344
180.829
176.44
172.174
168.027
163.995
160.074
156.26
152.549
148.937
145.419
141.994
138.655
135.4
132.224
129.124
126.096
123.136
120.242
117.408
114.633
111.914
109.249
106.635
104.069
101.548
99.0691
96.6298
94.2276
91.8604
89.526
87.2225
84.9482
82.7015
80.4808
78.2849
76.1125
73.9628
71.835
69.7285
67.643
65.5785
63.5345
61.5101
59.5046
57.5175
55.5485
53.5975
51.6646
49.7498
47.8534
45.9755
44.1166
42.2769
40.4569
38.6569
36.8775
35.1191
33.3821
31.667
29.9746
28.3052
26.6598
25.0392
23.4446
21.8775
20.34
18.8353
17.3681
15.9454
14.578
13.2852
12.1053
11.1259
10.5908
11.5251
22.4761
237.995
122.853
106.108
105.261
109.688
116.627
125.023
134.372
144.398
154.935
165.874
177.139
188.674
200.437
212.392
224.51
236.764
249.128
261.58
274.097
286.654
299.229
311.799
324.341
336.832
349.246
361.561
373.752
385.795
397.665
409.338
420.79
431.997
442.936
453.582
463.914
473.91
483.548
492.808
501.67
510.116
518.128
525.691
532.79
539.41
545.54
551.17
556.289
560.89
564.968
568.517
571.534
574.02
575.973
577.395
578.291
578.666
578.526
577.879
576.736
575.108
573.008
570.449
567.444
564.006
560.148
555.888
551.24
546.222
540.854
535.152
529.138
522.83
516.249
509.413
502.345
495.063
487.588
479.939
472.137
464.2
456.146
447.996
439.766
431.474
423.137
414.77
406.39
398.011
389.648
381.313
373.019
364.779
356.604
348.503
340.487
332.564
324.743
317.031
309.435
301.961
294.614
287.399
280.32
273.38
266.583
259.931
253.425
247.066
240.857
234.796
228.884
223.12
217.503
212.033
206.708
201.525
196.483
191.579
186.812
182.177
177.673
173.296
169.042
164.91
160.894
156.992
153.201
149.515
145.933
142.449
139.061
135.765
132.556
129.432
126.389
123.423
120.531
117.709
114.953
112.261
109.63
107.055
104.535
102.067
99.649
97.278
94.9513
92.6661
90.42
88.2106
86.0358
83.8934
81.7816
79.6985
77.6425
75.6122
73.6061
71.623
69.6619
67.7218
65.8021
63.902
62.0213
60.1595
58.3164
56.4912
54.6835
52.8929
51.1192
49.3623
47.6222
45.899
44.193
42.5044
40.8335
39.1807
37.5466
35.9316
34.3363
32.7613
31.2073
29.6751
28.1657
26.6802
25.2197
23.7859
22.3808
21.0071
19.6682
18.3692
17.1172
15.9227
14.8034
13.7883
12.9343
12.365
12.421
14.5107
30.106
237.998
122.85
106.104
105.257
109.684
116.623
125.019
134.368
144.394
154.931
165.87
177.135
188.67
200.432
212.387
224.505
236.759
249.123
261.575
274.091
286.648
299.223
311.793
324.335
336.826
349.24
361.555
373.746
385.788
397.658
409.331
420.783
431.99
442.929
453.575
463.907
473.903
483.54
492.8
501.662
510.108
518.121
525.684
532.782
539.403
545.533
551.162
556.281
560.883
564.96
568.509
571.527
574.012
575.965
577.388
578.284
578.658
578.518
577.872
576.729
575.101
573.001
570.442
567.437
563.999
560.142
555.881
551.233
546.216
540.847
535.146
529.132
522.824
516.243
509.408
502.339
495.058
487.583
479.934
472.132
464.195
456.142
447.991
439.762
431.47
423.132
414.766
406.386
398.007
389.644
381.309
373.016
364.776
356.6
348.5
340.483
332.561
324.74
317.028
309.432
301.958
294.611
287.396
280.317
273.378
266.581
259.929
253.423
247.064
240.855
234.794
228.882
223.118
217.502
212.032
206.706
201.523
196.481
191.578
186.81
182.176
177.672
173.295
169.041
164.909
160.893
156.991
153.2
149.514
145.932
142.448
139.06
135.764
132.555
129.432
126.388
123.422
120.53
117.708
114.953
112.261
109.629
107.054
104.534
102.067
99.6486
97.2777
94.9509
92.6658
90.4197
88.2103
86.0355
83.8932
81.7814
79.6983
77.6423
75.612
73.6059
71.6228
69.6617
67.7217
65.8019
63.9019
62.0211
60.1594
58.3163
56.4911
54.6834
52.8928
51.1191
49.3622
47.6221
45.899
44.1929
42.5043
40.8334
39.1807
37.5465
35.9315
34.3362
32.7612
31.2073
29.6751
28.1657
26.6801
25.2196
23.7858
22.3808
21.007
19.6682
18.3692
17.1171
15.9227
14.8033
13.7883
12.9343
12.365
12.4211
14.5108
30.1061
292.086
146.7
121.904
117.041
118.813
123.737
130.475
138.393
147.141
156.508
166.357
176.59
187.139
197.949
208.976
220.186
231.546
243.029
254.608
266.258
277.956
289.677
301.398
313.097
324.75
336.334
347.825
359.202
370.439
381.515
392.405
403.088
413.541
423.741
433.666
443.297
452.611
461.588
470.211
478.46
486.319
493.771
500.8
507.394
513.539
519.225
524.44
529.176
533.427
537.187
540.45
543.216
545.482
547.248
548.517
549.292
549.577
549.379
548.706
547.566
545.97
543.929
541.456
538.563
535.263
531.568
527.494
523.056
518.271
513.156
507.728
502.005
496.007
489.751
483.256
476.542
469.627
462.53
455.27
447.864
440.332
432.69
424.957
417.149
409.282
401.372
393.435
385.485
377.537
369.602
361.695
353.827
346.01
338.254
330.568
322.962
315.445
308.025
300.707
293.499
286.407
279.435
272.588
265.87
259.284
252.834
246.52
240.345
234.311
228.417
222.665
217.054
211.584
206.254
201.062
196.008
191.09
186.305
181.652
177.129
172.732
168.458
164.306
160.271
156.352
152.543
148.843
145.248
141.754
138.358
135.056
131.846
128.722
125.683
122.724
119.842
117.034
114.296
111.625
109.018
106.472
103.983
101.548
99.1668
96.8355
94.5517
92.3127
90.116
87.9591
85.8397
83.7556
81.7048
79.6852
77.695
75.7326
73.7965
71.8852
69.9974
68.1319
66.2878
64.4642
62.6603
60.8756
59.1094
57.3616
55.6316
53.9191
52.2235
50.5447
48.8824
47.2365
45.6071
43.9943
42.3983
40.8194
39.258
37.7144
36.1893
34.6832
33.1968
31.7309
30.2864
28.8644
27.466
26.0927
24.7464
23.4292
22.1439
20.8943
19.6851
18.5232
17.4179
16.3838
15.4435
14.6355
14.0338
13.7976
14.3625
17.5143
37.6418
292.089
146.696
121.9
117.037
118.809
123.733
130.471
138.389
147.137
156.504
166.352
176.586
187.134
197.944
208.972
220.181
231.542
243.024
254.603
266.253
277.95
289.671
301.393
313.091
324.744
336.328
347.82
359.196
370.433
381.508
392.399
403.082
413.534
423.734
433.66
443.29
452.604
461.582
470.205
478.454
486.312
493.764
500.794
507.388
513.533
519.218
524.433
529.17
533.421
537.18
540.444
543.209
545.475
547.242
548.511
549.285
549.571
549.373
548.7
547.56
545.964
543.923
541.451
538.558
535.257
531.562
527.488
523.051
518.266
513.15
507.723
502
496.002
489.746
483.252
476.538
469.623
462.526
455.266
447.86
440.328
432.686
424.953
417.145
409.278
401.369
393.432
385.482
377.533
369.599
361.692
353.825
346.007
338.251
330.565
322.96
315.443
308.022
300.705
293.497
286.405
279.433
272.586
265.868
259.282
252.832
246.518
240.344
234.309
228.416
222.664
217.053
211.582
206.252
201.061
196.007
191.089
186.304
181.651
177.128
172.73
168.457
164.305
160.27
156.351
152.542
148.842
145.247
141.753
138.357
135.056
131.845
128.722
125.682
122.723
119.842
117.033
114.296
111.625
109.018
106.471
103.982
101.548
99.1664
96.8352
94.5514
92.3124
90.1157
87.9589
85.8395
83.7554
81.7045
79.6849
77.6948
75.7324
73.7963
71.885
69.9972
68.1318
66.2877
64.4641
62.6602
60.8755
59.1093
57.3615
55.6315
53.919
52.2235
50.5446
48.8823
47.2364
45.6071
43.9943
42.3983
40.8194
39.2579
37.7144
36.1893
34.6832
33.1968
31.7309
30.2864
28.8644
27.466
26.0927
24.7464
23.4292
22.1439
20.8943
19.6851
18.5231
17.4179
16.3838
15.4434
14.6355
14.0338
13.7976
14.3625
17.5145
37.6419
345.511
171.014
138.512
129.942
129.383
132.613
138.013
144.814
152.595
161.1
170.164
179.671
189.536
199.695
210.097
220.7
231.467
242.367
253.37
264.45
275.581
286.739
297.899
309.038
320.134
331.162
342.1
352.926
363.616
374.149
384.502
394.654
404.583
414.267
423.686
432.82
441.65
450.156
458.32
466.126
473.556
480.597
487.233
493.452
499.241
504.591
509.491
513.934
517.913
521.423
524.46
527.021
529.106
530.715
531.849
532.512
532.709
532.444
531.727
530.564
528.966
526.943
524.507
521.67
518.443
514.84
510.876
506.564
501.921
496.963
491.707
486.169
480.368
474.32
468.044
461.559
454.88
448.028
441.019
433.871
426.601
419.226
411.763
404.227
396.635
389.002
381.341
373.668
365.995
358.336
350.702
343.104
335.555
328.064
320.64
313.292
306.029
298.857
291.785
284.817
277.96
271.218
264.596
258.097
251.726
245.484
239.374
233.397
227.555
221.848
216.277
210.843
205.543
200.379
195.348
190.45
185.683
181.045
176.533
172.147
167.882
163.738
159.71
155.796
151.993
148.298
144.707
141.218
137.828
134.532
131.327
128.211
125.179
122.229
119.356
116.559
113.833
111.176
108.584
106.053
103.582
101.167
98.8055
96.4958
94.235
92.0204
89.8496
87.7201
85.6296
83.5759
81.5568
79.5705
77.615
75.6887
73.7898
71.917
70.0689
68.2442
66.4419
64.661
62.9006
61.1599
59.4384
57.7356
56.051
54.3843
52.7351
51.103
49.4878
47.8893
46.3075
44.7423
43.194
41.6626
40.1486
38.6523
37.1742
35.7149
34.275
32.8553
31.4568
30.0805
28.7277
27.3999
26.099
24.8273
23.5874
22.383
21.2188
20.1007
19.0372
18.0403
17.1277
16.3275
15.687
15.2961
15.3495
16.3777
20.5409
45.1352
345.514
171.01
138.508
129.938
129.379
132.609
138.009
144.81
152.59
161.096
170.16
179.666
189.531
199.691
210.093
220.695
231.463
242.362
253.365
264.445
275.576
286.734
297.894
309.033
320.128
331.156
342.094
352.92
363.611
374.143
384.497
394.648
404.577
414.261
423.68
432.814
441.644
450.15
458.314
466.12
473.55
480.591
487.227
493.446
499.235
504.585
509.485
513.928
517.907
521.417
524.454
527.015
529.1
530.709
531.843
532.507
532.703
532.439
531.721
530.559
528.961
526.938
524.502
521.665
518.438
514.836
510.871
506.56
501.917
496.959
491.703
486.165
480.363
474.316
468.04
461.555
454.877
448.024
441.015
433.867
426.598
419.223
411.76
404.224
396.632
388.999
381.338
373.665
365.992
358.333
350.699
343.102
335.553
328.061
320.637
313.29
306.027
298.855
291.783
284.815
277.958
271.216
264.594
258.096
251.724
245.482
239.372
233.395
227.553
221.847
216.276
210.841
205.542
200.378
195.347
190.449
185.682
181.044
176.532
172.146
167.881
163.737
159.709
155.795
151.992
148.297
144.707
141.218
137.827
134.531
131.326
128.21
125.178
122.228
119.356
116.559
113.833
111.175
108.583
106.053
103.582
101.167
98.8052
96.4955
94.2347
92.0201
89.8493
87.7198
85.6294
83.5757
81.5566
79.5703
77.6148
75.6885
73.7897
71.9169
70.0688
68.2441
66.4418
64.6609
62.9004
61.1598
59.4383
57.7355
56.0509
54.3842
52.735
51.103
49.4878
47.8893
46.3074
44.7423
43.1939
41.6626
40.1486
38.6523
37.1742
35.7149
34.275
32.8553
31.4568
30.0805
28.7277
27.3999
26.099
24.8272
23.5874
22.383
21.2188
20.1007
19.0372
18.0403
17.1277
16.3274
15.687
15.296
15.3495
16.3777
20.5412
45.1353
398.49
195.779
155.786
143.709
141.021
142.762
147.026
152.912
159.924
167.765
176.239
185.213
194.588
204.289
214.257
224.444
234.808
245.314
255.929
266.625
277.375
288.151
298.93
309.688
320.4
331.044
341.597
352.037
362.341
372.487
382.455
392.222
401.768
411.073
420.117
428.881
437.345
445.493
453.307
460.771
467.869
474.587
480.912
486.832
492.336
497.413
502.055
506.255
510.007
513.305
516.147
518.53
520.453
521.918
522.925
523.478
523.582
523.242
522.465
521.26
519.635
517.601
515.168
512.349
509.155
505.598
501.693
497.454
492.895
488.033
482.884
477.463
471.788
465.875
459.742
453.406
446.884
440.194
433.352
426.374
419.279
412.081
404.798
397.443
390.034
382.583
375.105
367.613
360.122
352.642
345.185
337.764
330.387
323.066
315.809
308.625
301.522
294.507
287.587
280.768
274.055
267.454
260.968
254.601
248.357
242.238
236.247
230.385
224.653
219.053
213.584
208.248
203.043
197.969
193.025
188.209
183.522
178.959
174.521
170.204
166.006
161.925
157.958
154.102
150.355
146.713
143.173
139.732
136.388
133.136
129.974
126.899
123.906
120.993
118.157
115.395
112.703
110.078
107.517
105.017
102.576
100.189
97.857
95.5754
93.3421
91.1546
89.0104
86.9072
84.8427
82.8149
80.8217
78.8612
76.9316
75.0313
73.1588
71.3126
69.4914
67.6941
65.9195
64.1667
62.4349
60.7234
59.0315
57.3588
55.7047
54.0691
52.4514
50.8515
49.2689
47.7037
46.1556
44.6249
43.1115
41.6158
40.1379
38.6784
37.2378
35.8166
34.4156
33.0357
31.6779
30.3435
29.034
27.7512
26.4972
25.2749
24.0874
22.9391
21.8355
20.7839
19.7944
18.8812
18.0653
17.3799
16.8815
16.6754
16.992
18.4565
23.6036
52.631
398.493
195.775
155.781
143.704
141.017
142.757
147.022
152.908
159.92
167.76
176.235
185.209
194.584
204.285
214.253
224.439
234.803
245.309
255.924
266.62
277.37
288.146
298.925
309.683
320.395
331.039
341.592
352.031
362.335
372.482
382.449
392.217
401.763
411.068
420.112
428.875
437.34
445.488
453.301
460.765
467.863
474.582
480.907
486.827
492.33
497.408
502.05
506.25
510.002
513.3
516.142
518.525
520.448
521.912
522.92
523.473
523.577
523.237
522.46
521.255
519.63
517.596
515.164
512.345
509.15
505.594
501.689
497.45
492.891
488.029
482.88
477.459
471.784
465.871
459.739
453.403
446.881
440.191
433.348
426.371
419.276
412.079
404.795
397.441
390.031
382.58
375.102
367.611
360.119
352.639
345.183
337.762
330.385
323.064
315.807
308.623
301.52
294.506
287.586
280.766
274.054
267.452
260.966
254.6
248.356
242.237
236.246
230.384
224.652
219.052
213.583
208.247
203.042
197.967
193.024
188.208
183.521
178.958
174.52
170.203
166.005
161.924
157.957
154.101
150.354
146.712
143.172
139.732
136.387
133.136
129.974
126.898
123.906
120.993
118.157
115.395
112.702
110.077
107.516
105.017
102.575
100.189
97.8567
95.5751
93.3418
91.1543
89.0101
86.9069
84.8425
82.8146
80.8214
78.861
76.9314
75.0312
73.1586
71.3124
69.4913
67.6939
65.9193
64.1666
62.4348
60.7233
59.0314
57.3587
55.7046
54.069
52.4513
50.8514
49.2688
47.7036
46.1556
44.6248
43.1115
41.6157
40.1379
38.6784
37.2377
35.8165
34.4156
33.0356
31.6779
30.3435
29.034
27.7512
26.4972
25.2748
24.0874
22.9391
21.8355
20.7839
19.7944
18.8811
18.0652
17.3799
16.8814
16.6754
16.992
18.4566
23.6039
52.6312
451.394
221.096
173.699
158.235
153.55
153.939
157.208
162.317
168.699
176.012
184.034
192.61
201.628
211.004
220.67
230.572
240.663
250.905
261.261
271.7
282.194
292.714
303.234
313.731
324.178
334.554
344.835
354.999
365.024
374.889
384.571
394.051
403.309
412.325
421.08
429.555
437.732
445.596
453.128
460.315
467.142
473.594
479.661
485.33
490.591
495.435
499.853
503.841
507.39
510.499
513.163
515.38
517.151
518.477
519.358
519.799
519.804
519.379
518.53
517.266
515.595
513.528
511.074
508.245
505.053
501.51
497.629
493.424
488.91
484.102
479.015
473.665
468.068
462.24
456.199
449.96
443.54
436.956
430.224
423.36
416.38
409.301
402.136
394.902
387.613
380.282
372.925
365.553
358.179
350.815
343.473
336.164
328.898
321.683
314.531
307.448
300.443
293.522
286.693
279.961
273.333
266.811
260.402
254.108
247.933
241.88
235.95
230.147
224.47
218.921
213.501
208.209
203.046
198.01
193.102
188.32
183.662
179.128
174.715
170.421
166.244
162.181
158.23
154.389
150.654
147.023
143.493
140.061
136.723
133.477
130.319
127.246
124.256
121.344
118.509
115.746
113.052
110.426
107.863
105.361
102.916
100.527
98.1921
95.9075
93.671
91.4803
89.333
87.2267
85.1594
83.129
81.1335
79.1712
77.2402
75.3391
73.4662
71.6203
69.8001
68.0045
66.2324
64.4828
62.7551
61.0484
59.3622
57.696
56.0493
54.4218
52.8132
51.223
49.6512
48.0976
46.562
45.0446
43.5454
42.0648
40.6029
39.1603
37.7374
36.3349
34.9537
33.5947
32.259
30.9481
29.6637
28.4079
27.1831
25.9924
24.8399
23.7303
22.6701
21.6678
20.735
19.8881
19.1515
18.5636
18.1895
18.1512
18.714
20.6003
26.72
60.184
451.396
221.091
173.695
158.23
153.546
153.935
157.204
162.313
168.695
176.008
184.03
192.606
201.624
211
220.666
230.567
240.659
250.9
261.256
271.696
282.189
292.709
303.23
313.726
324.173
334.549
344.83
354.994
365.019
374.883
384.566
394.046
403.304
412.32
421.074
429.549
437.727
445.59
453.123
460.31
467.136
473.589
479.656
485.325
490.586
495.429
499.848
503.836
507.385
510.494
513.158
515.376
517.147
518.472
519.354
519.795
519.8
519.375
518.526
517.262
515.591
513.524
511.07
508.241
505.049
501.506
497.625
493.421
488.907
484.099
479.011
473.661
468.065
462.237
456.196
449.957
443.537
436.953
430.221
423.357
416.378
409.298
402.134
394.899
387.61
380.28
372.922
365.55
358.177
350.813
343.471
336.162
328.896
321.682
314.529
307.446
300.441
293.521
286.692
279.96
273.331
266.81
260.4
254.107
247.932
241.878
235.949
230.145
224.469
218.92
213.499
208.208
203.045
198.009
193.101
188.319
183.662
179.127
174.714
170.42
166.243
162.18
158.23
154.388
150.654
147.023
143.493
140.06
136.722
133.476
130.318
127.246
124.255
121.344
118.508
115.745
113.052
110.425
107.862
105.36
102.916
100.527
98.1917
95.9071
93.6707
91.48
89.3327
87.2265
85.1592
83.1288
81.1333
79.171
77.24
75.3389
73.466
71.6202
69.8
68.0043
66.2322
64.4827
62.755
61.0483
59.3621
57.6959
56.0492
54.4217
52.8131
51.2229
49.6511
48.0975
46.5619
45.0445
43.5454
42.0647
40.6029
39.1602
37.7373
36.3349
34.9537
33.5946
32.259
30.9481
29.6637
28.4078
27.183
25.9924
24.8398
23.7302
22.6701
21.6678
20.7349
19.888
19.1515
18.5636
18.1895
18.1511
18.714
20.6004
26.7204
60.1842
504.504
247.01
192.268
173.487
166.892
166.024
168.397
172.831
178.685
185.572
193.241
201.519
210.28
219.429
228.891
238.604
248.519
258.591
268.782
279.058
289.387
299.741
310.092
320.414
330.682
340.873
350.963
360.93
370.752
380.408
389.877
399.139
408.174
416.963
425.488
433.731
441.675
449.304
456.603
463.557
470.153
476.377
482.219
487.668
492.714
497.349
501.566
505.358
508.722
511.652
514.148
516.207
517.829
519.016
519.769
520.094
519.993
519.473
518.541
517.204
515.471
513.352
510.857
507.998
504.784
501.229
497.346
493.147
488.648
483.862
478.805
473.492
467.938
462.16
456.173
449.993
443.636
437.119
430.456
423.665
416.759
409.755
402.667
395.51
388.298
381.044
373.762
366.465
359.165
351.873
344.601
337.359
330.158
323.006
315.913
308.887
301.936
295.065
288.284
281.596
275.007
268.523
262.148
255.884
249.737
243.707
237.799
232.013
226.351
220.814
215.402
210.117
204.957
199.923
195.013
190.227
185.564
181.022
176.599