/*--------------------------------*- C++ -*----------------------------------*\
  =========                 |
  \\      /  F ield         | OpenFOAM: The Open Source CFD Toolbox
   \\    /   O peration     | Website:  https://openfoam.org
    \\  /    A nd           | Version:  8
     \\/     M anipulation  |
\*---------------------------------------------------------------------------*/
FoamFile
{
    version     2.0;
    format      ascii;
    class       volScalarField;
    location    "3300";
    object      k;
}
// * * * * * * * * * * * * * * * * * * * * * * * * * * * * * * * * * * * * * //

dimensions      [0 2 -2 0 0 0 0];

internalField   nonuniform List<scalar> 
46000
(
0.012352
0.0514869
0.0964178
0.138286
0.177804
0.216011
0.253362
0.289956
0.326004
0.361642
0.397015
0.432173
0.466965
0.501523
0.535872
0.570016
0.603946
0.637646
0.671098
0.704274
0.737148
0.769688
0.801861
0.833631
0.86496
0.895812
0.926148
0.955927
0.985112
1.01366
1.04154
1.0687
1.09511
1.12073
1.14553
1.16947
1.19252
1.21465
1.23582
1.25601
1.2752
1.29335
1.31045
1.32648
1.34141
1.35525
1.36796
1.37955
1.39001
1.39933
1.40751
1.41455
1.42045
1.42522
1.42888
1.43142
1.43286
1.43321
1.43251
1.43076
1.42799
1.42424
1.41957
1.41397
1.40745
1.40004
1.39176
1.38265
1.37275
1.36208
1.35068
1.33859
1.32584
1.31248
1.29853
1.28404
1.26905
1.25358
1.23769
1.2214
1.20476
1.18779
1.17054
1.15304
1.13533
1.11743
1.09938
1.08121
1.06296
1.04465
1.02631
1.00796
0.989638
0.971364
0.95316
0.93505
0.917054
0.899191
0.881481
0.863939
0.846582
0.829425
0.812479
0.795759
0.779273
0.763032
0.747045
0.731318
0.715858
0.700671
0.68576
0.671128
0.656779
0.642713
0.628931
0.615433
0.602218
0.589284
0.576629
0.564251
0.552145
0.540308
0.528734
0.51742
0.506359
0.495546
0.484975
0.474639
0.464532
0.454647
0.444976
0.435513
0.426251
0.417181
0.408296
0.399589
0.391053
0.382679
0.374461
0.366391
0.358461
0.350666
0.342997
0.335447
0.32801
0.320679
0.313449
0.306326
0.299296
0.292353
0.285489
0.278701
0.271983
0.265332
0.258743
0.252213
0.245738
0.239315
0.232942
0.226615
0.220334
0.214095
0.207898
0.201741
0.195638
0.189586
0.183574
0.1776
0.171662
0.165762
0.159899
0.154073
0.148284
0.142534
0.136822
0.131148
0.125513
0.119917
0.11436
0.108842
0.103362
0.0979191
0.0925057
0.0871291
0.0817885
0.0764749
0.0711872
0.0659199
0.0606656
0.0554155
0.0501571
0.0448758
0.0395821
0.0342395
0.0288039
0.0232276
0.0174525
0.0114376
0.00539533
0.00108929
0.0123529
0.0514892
0.0964203
0.138288
0.177806
0.216013
0.253364
0.289958
0.326006
0.361644
0.397017
0.432175
0.466967
0.501524
0.535873
0.570017
0.603947
0.637647
0.671098
0.704275
0.737149
0.769689
0.801861
0.833631
0.86496
0.895812
0.926148
0.955927
0.985111
1.01366
1.04154
1.0687
1.09511
1.12073
1.14553
1.16947
1.19252
1.21465
1.23582
1.25601
1.2752
1.29335
1.31045
1.32647
1.34141
1.35524
1.36796
1.37955
1.39001
1.39933
1.4075
1.41454
1.42045
1.42522
1.42887
1.43141
1.43285
1.43321
1.4325
1.43075
1.42799
1.42424
1.41957
1.41397
1.40745
1.40004
1.39176
1.38265
1.37274
1.36207
1.35068
1.33859
1.32584
1.31247
1.29853
1.28404
1.26904
1.25358
1.23769
1.2214
1.20475
1.18779
1.17054
1.15304
1.13532
1.11743
1.09938
1.08121
1.06296
1.04465
1.0263
1.00796
0.989636
0.971362
0.953158
0.935048
0.917052
0.899189
0.881479
0.863937
0.84658
0.829423
0.812477
0.795757
0.779271
0.76303
0.747043
0.731316
0.715857
0.700669
0.685758
0.671126
0.656777
0.642711
0.628929
0.615431
0.602216
0.589283
0.576628
0.564249
0.552144
0.540306
0.528733
0.517419
0.506358
0.495545
0.484974
0.474638
0.464531
0.454646
0.444975
0.435512
0.426249
0.417179
0.408295
0.399588
0.391052
0.382678
0.37446
0.36639
0.35846
0.350665
0.342996
0.335446
0.328009
0.320678
0.313448
0.306325
0.299296
0.292352
0.285488
0.2787
0.271982
0.265331
0.258742
0.252212
0.245737
0.239314
0.232941
0.226615
0.220333
0.214095
0.207897
0.20174
0.195638
0.189586
0.183573
0.177599
0.171662
0.165761
0.159898
0.154072
0.148284
0.142533
0.136821
0.131147
0.125513
0.119917
0.11436
0.108842
0.103362
0.0979188
0.0925054
0.0871289
0.0817883
0.0764747
0.071187
0.0659197
0.0606655
0.0554155
0.050157
0.0448757
0.0395821
0.0342395
0.028804
0.0232276
0.0174526
0.0114377
0.00539535
0.0010893
0.0511302
0.165749
0.247668
0.316273
0.377909
0.435086
0.489003
0.540547
0.590309
0.638619
0.685706
0.731785
0.776978
0.821391
0.8651
0.908154
0.950584
0.992409
1.03364
1.07426
1.11428
1.15368
1.19243
1.23053
1.26793
1.30461
1.34055
1.37571
1.41005
1.44355
1.47617
1.50787
1.53863
1.56841
1.59717
1.62489
1.65154
1.67708
1.70149
1.72475
1.74682
1.76769
1.78734
1.80575
1.8229
1.83879
1.85339
1.86671
1.87873
1.88946
1.89889
1.90702
1.91386
1.91942
1.92371
1.92673
1.92851
1.92905
1.92839
1.92653
1.92352
1.91937
1.91413
1.90781
1.90043
1.89204
1.88265
1.8723
1.86103
1.84888
1.83587
1.82206
1.80748
1.79217
1.77618
1.75953
1.74228
1.72446
1.70611
1.68728
1.66801
1.64833
1.62828
1.60791
1.58725
1.56633
1.5452
1.52389
1.50243
1.48086
1.45921
1.43751
1.41578
1.39406
1.37238
1.35076
1.32922
1.3078
1.2865
1.26535
1.24437
1.22358
1.203
1.18263
1.1625
1.14261
1.12298
1.10362
1.08453
1.06572
1.04721
1.02899
1.01107
0.993454
0.976143
0.95914
0.942444
0.926055
0.909972
0.894193
0.878715
0.863535
0.848648
0.83405
0.819735
0.805698
0.791933
0.778433
0.76519
0.752197
0.739447
0.72693
0.71464
0.702567
0.690703
0.679038
0.667565
0.656273
0.645153
0.634198
0.623397
0.612741
0.602221
0.591828
0.581553
0.571392
0.561342
0.551393
0.541535
0.531759
0.522057
0.512422
0.502847
0.493326
0.483852
0.47442
0.465024
0.455659
0.446319
0.437001
0.427701
0.418414
0.409136
0.399864
0.390596
0.381335
0.372075
0.362813
0.353546
0.344271
0.334986
0.32569
0.31638
0.307055
0.297712
0.288349
0.278963
0.269552
0.260111
0.250635
0.24112
0.231558
0.221941
0.21226
0.202501
0.192644
0.182681
0.172588
0.162336
0.151889
0.141198
0.130198
0.118798
0.106915
0.0943862
0.0809753
0.0663082
0.0497187
0.0296574
0.00530854
0.051132
0.165752
0.24767
0.316274
0.37791
0.435087
0.489004
0.540547
0.590309
0.638619
0.685706
0.731785
0.776977
0.82139
0.865098
0.908152
0.950582
0.992407
1.03363
1.07426
1.11428
1.15368
1.19243
1.23052
1.26793
1.30461
1.34055
1.3757
1.41005
1.44354
1.47616
1.50787
1.53863
1.5684
1.59717
1.62489
1.65153
1.67708
1.70149
1.72474
1.74682
1.76769
1.78734
1.80574
1.8229
1.83878
1.85339
1.8667
1.87873
1.88945
1.89888
1.90701
1.91386
1.91942
1.9237
1.92672
1.9285
1.92904
1.92838
1.92653
1.92351
1.91936
1.91412
1.9078
1.90043
1.89203
1.88264
1.8723
1.86103
1.84887
1.83587
1.82206
1.80748
1.79217
1.77617
1.75953
1.74227
1.72445
1.70611
1.68728
1.668
1.64832
1.62828
1.60791
1.58724
1.56633
1.5452
1.52389
1.50243
1.48086
1.4592
1.4375
1.41578
1.39406
1.37238
1.35076
1.32922
1.30779
1.28649
1.26535
1.24437
1.22358
1.20299
1.18263
1.16249
1.14261
1.12297
1.10361
1.08452
1.06572
1.0472
1.02898
1.01107
0.993449
0.976139
0.959136
0.94244
0.926051
0.909968
0.894189
0.878711
0.863531
0.848644
0.834046
0.819731
0.805695
0.791929
0.778429
0.765186
0.752194
0.739443
0.726927
0.714637
0.702564
0.6907
0.679035
0.667562
0.65627
0.645151
0.634195
0.623394
0.612738
0.602218
0.591825
0.58155
0.57139
0.56134
0.551391
0.541533
0.531757
0.522055
0.51242
0.502845
0.493324
0.48385
0.474418
0.465022
0.455657
0.446317
0.436999
0.427699
0.418412
0.409134
0.399862
0.390594
0.381333
0.372074
0.362812
0.353544
0.344269
0.334984
0.325688
0.316379
0.307053
0.297711
0.288348
0.278962
0.269551
0.26011
0.250634
0.241119
0.231557
0.22194
0.212259
0.2025
0.192643
0.18268
0.172587
0.162336
0.151888
0.141197
0.130198
0.118798
0.106915
0.0943859
0.0809751
0.066308
0.0497186
0.0296573
0.00530855
0.0970885
0.249678
0.348988
0.429992
0.502502
0.569674
0.63313
0.693765
0.752191
0.808826
0.863964
0.917822
0.970556
1.02228
1.07309
1.12303
1.17216
1.2205
1.26806
1.31485
1.36085
1.40607
1.45049
1.49407
1.53681
1.57867
1.61962
1.65963
1.69867
1.73671
1.7737
1.80962
1.84443
1.8781
1.9106
1.94189
1.97194
2.00072
2.02821
2.05438
2.0792
2.10265
2.12472
2.14538
2.16462
2.18243
2.19879
2.2137
2.22715
2.23915
2.24968
2.25876
2.26639
2.27258
2.27734
2.28068
2.28262
2.28317
2.28237
2.28023
2.27679
2.27207
2.2661
2.25892
2.25055
2.24102
2.23037
2.21865
2.20588
2.1921
2.17737
2.16172
2.14519
2.12784
2.10969
2.09081
2.07123
2.05099
2.03015
2.00875
1.98683
1.96443
1.94161
1.9184
1.89484
1.87099
1.84686
1.82252
1.79799
1.77331
1.74853
1.72366
1.69876
1.67384
1.64894
1.6241
1.59933
1.57467
1.55014
1.52576
1.50156
1.47755
1.45377
1.43021
1.40691
1.38387
1.36112
1.33865
1.31649
1.29464
1.2731
1.2519
1.23103
1.21049
1.1903
1.17045
1.15094
1.13178
1.11296
1.09449
1.07635
1.05855
1.04108
1.02394
1.00712
0.990617
0.974421
0.958525
0.942923
0.927606
0.912565
0.897791
0.883274
0.869006
0.854975
0.841173
0.827588
0.81421
0.801029
0.788034
0.775215
0.76256
0.75006
0.737703
0.725482
0.713393
0.701426
0.689569
0.677812
0.666146
0.654561
0.643049
0.631601
0.620209
0.608866
0.597564
0.586298
0.57506
0.563844
0.552645
0.541458
0.530278
0.519099
0.507919
0.496733
0.485542
0.47434
0.463123
0.451887
0.44063
0.429348
0.418039
0.4067
0.395327
0.383917
0.372467
0.360973
0.349431
0.337836
0.32618
0.314457
0.302659
0.290775
0.278791
0.266693
0.254462
0.242076
0.229504
0.216715
0.203669
0.190307
0.176557
0.16232
0.147468
0.131829
0.115123
0.0968814
0.076118
0.0498574
0.0112439
0.0970909
0.24968
0.348988
0.429991
0.502501
0.569672
0.633128
0.693764
0.752189
0.808824
0.863962
0.91782
0.970553
1.02228
1.07309
1.12303
1.17216
1.2205
1.26806
1.31484
1.36085
1.40607
1.45048
1.49407
1.5368
1.57866
1.61961
1.65963
1.69867
1.7367
1.77369
1.80961
1.84443
1.8781
1.91059
1.94188
1.97193
2.00072
2.0282
2.05437
2.07919
2.10265
2.12471
2.14537
2.16461
2.18242
2.19878
2.21369
2.22715
2.23914
2.24968
2.25876
2.26639
2.27257
2.27733
2.28067
2.28261
2.28317
2.28236
2.28023
2.27678
2.27206
2.26609
2.25891
2.25054
2.24101
2.23037
2.21864
2.20587
2.1921
2.17736
2.16171
2.14519
2.12783
2.10969
2.0908
2.07122
2.05098
2.03014
2.00874
1.98682
1.96443
1.9416
1.91839
1.89484
1.87098
1.84686
1.82251
1.79798
1.77331
1.74852
1.72366
1.69875
1.67383
1.64894
1.62409
1.59933
1.57466
1.55013
1.52575
1.50155
1.47755
1.45376
1.43021
1.4069
1.38387
1.36111
1.33864
1.31648
1.29463
1.2731
1.25189
1.23102
1.21049
1.19029
1.17044
1.15094
1.13178
1.11296
1.09448
1.07635
1.05855
1.04108
1.02394
1.00712
0.990613
0.974416
0.958521
0.942919
0.927602
0.912561
0.897787
0.883271
0.869002
0.854972
0.841169
0.827584
0.814207
0.801026
0.788031
0.775211
0.762557
0.750057
0.7377
0.725479
0.71339
0.701423
0.689566
0.67781
0.666144
0.654559
0.643046
0.631598
0.620207
0.608863
0.597562
0.586295
0.575057
0.563842
0.552643
0.541456
0.530276
0.519097
0.507917
0.496732
0.48554
0.474338
0.463121
0.451886
0.440629
0.429347
0.418038
0.406698
0.395325
0.383916
0.372466
0.360972
0.34943
0.337834
0.326179
0.314456
0.302658
0.290773
0.27879
0.266693
0.254461
0.242075
0.229503
0.216715
0.203668
0.190307
0.176557
0.16232
0.147467
0.131828
0.115123
0.0968813
0.076118
0.0498574
0.0112439
0.141266
0.321858
0.433887
0.523402
0.603085
0.676902
0.74676
0.813672
0.878264
0.940957
1.00204
1.06174
1.1202
1.17754
1.23385
1.28918
1.34358
1.39708
1.44968
1.5014
1.55222
1.60214
1.65113
1.69918
1.74626
1.79235
1.8374
1.88139
1.92429
1.96605
2.00665
2.04604
2.08419
2.12107
2.15665
2.19088
2.22373
2.25519
2.28521
2.31377
2.34084
2.36641
2.39045
2.41294
2.43387
2.45323
2.47101
2.48719
2.50177
2.51476
2.52615
2.53595
2.54416
2.55079
2.55586
2.55938
2.56137
2.56185
2.56084
2.55838
2.55448
2.54918
2.54252
2.53453
2.52523
2.51467
2.50288
2.48991
2.4758
2.46059
2.44432
2.42704
2.4088
2.38965
2.36963
2.34879
2.32719
2.30486
2.28186
2.25824
2.23404
2.20931
2.18411
2.15847
2.13245
2.10608
2.07942
2.0525
2.02538
1.99808
1.97064
1.94312
1.91554
1.88794
1.86035
1.83281
1.80534
1.77799
1.75076
1.7237
1.69683
1.67016
1.64373
1.61755
1.59163
1.56601
1.54068
1.51567
1.49099
1.46665
1.44265
1.41902
1.39574
1.37284
1.35031
1.32815
1.30637
1.28497
1.26395
1.2433
1.22303
1.20312
1.18358
1.16441
1.14558
1.12711
1.10898
1.09117
1.0737
1.05654
1.03968
1.02312
1.00684
0.990842
0.975105
0.959621
0.944378
0.929364
0.914569
0.89998
0.885586
0.871374
0.857334
0.843452
0.829727
0.816146
0.802698
0.789371
0.776155
0.763038
0.750011
0.737063
0.724186
0.711371
0.698608
0.685891
0.673211
0.660561
0.647934
0.635325
0.622726
0.610134
0.597541
0.584945
0.57234
0.559724
0.547093
0.534442
0.521767
0.509064
0.496329
0.483559
0.470751
0.457901
0.445004
0.432058
0.419057
0.405996
0.392869
0.37967
0.36639
0.353019
0.339548
0.325961
0.312244
0.298375
0.284331
0.270083
0.255596
0.240823
0.225707
0.210177
0.194133
0.177435
0.159898
0.141212
0.120808
0.0973853
0.0668034
0.0172402
0.141268
0.321859
0.433887
0.523401
0.603084
0.6769
0.746758
0.81367
0.878262
0.940954
1.00204
1.06174
1.1202
1.17754
1.23384
1.28918
1.34358
1.39707
1.44968
1.50139
1.55221
1.60213
1.65113
1.69918
1.74626
1.79234
1.8374
1.88139
1.92428
1.96605
2.00664
2.04603
2.08419
2.12107
2.15664
2.19087
2.22373
2.25518
2.2852
2.31376
2.34083
2.3664
2.39044
2.41293
2.43387
2.45323
2.471
2.48718
2.50177
2.51475
2.52614
2.53594
2.54415
2.55078
2.55585
2.55937
2.56136
2.56184
2.56084
2.55837
2.55447
2.54918
2.54251
2.53452
2.52522
2.51466
2.50288
2.48991
2.47579
2.46058
2.44431
2.42703
2.40879
2.38964
2.36962
2.34878
2.32718
2.30485
2.28185
2.25823
2.23403
2.20931
2.1841
2.15847
2.13244
2.10608
2.07942
2.0525
2.02537
1.99807
1.97064
1.94311
1.91553
1.88793
1.86034
1.8328
1.80534
1.77798
1.75076
1.7237
1.69682
1.67016
1.64372
1.61754
1.59163
1.566
1.54067
1.51567
1.49098
1.46664
1.44265
1.41901
1.39574
1.37283
1.3503
1.32815
1.30637
1.28497
1.26394
1.2433
1.22302
1.20312
1.18358
1.1644
1.14558
1.12711
1.10897
1.09117
1.07369
1.05653
1.03968
1.02311
1.00684
0.990839
0.975102
0.959618
0.944375
0.929361
0.914566
0.899977
0.885583
0.871371
0.857331
0.84345
0.829724
0.816143
0.802695
0.789369
0.776152
0.763036
0.750009
0.737061
0.724184
0.711369
0.698606
0.685889
0.673209
0.660559
0.647932
0.635323
0.622725
0.610132
0.59754
0.584943
0.572338
0.559723
0.547091
0.53444
0.521765
0.509062
0.496328
0.483558
0.47075
0.457899
0.445003
0.432057
0.419055
0.405995
0.392868
0.379669
0.366389
0.353019
0.339547
0.32596
0.312243
0.298374
0.28433
0.270083
0.255595
0.240822
0.225706
0.210177
0.194132
0.177434
0.159898
0.141212
0.120808
0.0973854
0.0668036
0.0172402
0.184026
0.387945
0.511303
0.608195
0.693684
0.772782
0.847689
0.919545
0.989023
1.05655
1.12243
1.18687
1.25001
1.31197
1.37282
1.43262
1.49141
1.54921
1.60604
1.66188
1.71674
1.77061
1.82345
1.87525
1.92598
1.97562
2.02412
2.07145
2.11757
2.16246
2.20607
2.24836
2.2893
2.32885
2.36698
2.40365
2.43882
2.47248
2.50458
2.5351
2.56402
2.5913
2.61694
2.64092
2.66321
2.6838
2.70269
2.71987
2.73533
2.74908
2.76111
2.77143
2.78005
2.78698
2.79223
2.79582
2.79777
2.7981
2.79684
2.79402
2.78966
2.7838
2.77648
2.76772
2.75757
2.74607
2.73325
2.71916
2.70384
2.68735
2.66972
2.65101
2.63127
2.61054
2.58888
2.56634
2.54298
2.51883
2.49396
2.46842
2.44225
2.41552
2.38826
2.36053
2.33239
2.30387
2.27502
2.2459
2.21654
2.18699
2.15729
2.12749
2.09762
2.06773
2.03784
2.00799
1.97823
1.94857
1.91905
1.8897
1.86055
1.83162
1.80293
1.7745
1.74637
1.71853
1.69102
1.66385
1.63702
1.61056
1.58447
1.55876
1.53344
1.50852
1.48399
1.45988
1.43616
1.41285
1.38995
1.36746
1.34536
1.32367
1.30237
1.28146
1.26093
1.24078
1.22099
1.20157
1.18249
1.16376
1.14536
1.12727
1.1095
1.09202
1.07483
1.05792
1.04126
1.02485
1.00868
0.992738
0.977003
0.961467
0.946116
0.930942
0.915938
0.901089
0.886384
0.871811
0.857357
0.843012
0.828765
0.814604
0.800521
0.786504
0.772546
0.758638
0.744771
0.730937
0.717129
0.70334
0.689564
0.675795
0.662027
0.648255
0.634474
0.62068
0.60687
0.593038
0.579179
0.56529
0.551365
0.537402
0.523397
0.509344
0.49524
0.48108
0.466859
0.452572
0.438212
0.423773
0.409244
0.394618
0.379881
0.365021
0.350022
0.334862
0.319519
0.303964
0.28816
0.272063
0.255615
0.238741
0.221338
0.203266
0.184309
0.16412
0.142009
0.116355
0.0820143
0.0231419
0.184028
0.387946
0.511302
0.608193
0.693681
0.772779
0.847686
0.919542
0.98902
1.05655
1.12243
1.18687
1.25001
1.31196
1.37281
1.43262
1.49141
1.54921
1.60603
1.66188
1.71674
1.7706
1.82345
1.87525
1.92598
1.97561
2.02411
2.07144
2.11757
2.16245
2.20606
2.24835
2.28929
2.32884
2.36697
2.40364
2.43882
2.47247
2.50457
2.53509
2.56401
2.5913
2.61694
2.64091
2.6632
2.68379
2.70268
2.71986
2.73533
2.74907
2.7611
2.77142
2.78004
2.78697
2.79222
2.79581
2.79776
2.7981
2.79684
2.79401
2.78965
2.78379
2.77647
2.76771
2.75757
2.74606
2.73324
2.71915
2.70384
2.68734
2.66972
2.65101
2.63126
2.61054
2.58888
2.56634
2.54297
2.51882
2.49395
2.46841
2.44224
2.41551
2.38825
2.36053
2.33238
2.30386
2.27502
2.24589
2.21653
2.18698
2.15729
2.12749
2.09762
2.06772
2.03783
2.00799
1.97822
1.94857
1.91905
1.8897
1.86054
1.83161
1.80292
1.7745
1.74636
1.71853
1.69102
1.66384
1.63702
1.61055
1.58446
1.55876
1.53344
1.50851
1.48399
1.45987
1.43616
1.41285
1.38995
1.36745
1.34536
1.32367
1.30237
1.28145
1.26093
1.24077
1.22099
1.20157
1.18249
1.16376
1.14535
1.12727
1.1095
1.09202
1.07483
1.05791
1.04126
1.02485
1.00868
0.992736
0.977001
0.961464
0.946114
0.93094
0.915935
0.901087
0.886382
0.871809
0.857355
0.84301
0.828763
0.814602
0.800519
0.786503
0.772545
0.758636
0.744769
0.730935
0.717127
0.703339
0.689563
0.675793
0.662025
0.648253
0.634473
0.620679
0.606869
0.593036
0.579178
0.565288
0.551364
0.537401
0.523395
0.509343
0.495239
0.481079
0.466858
0.452571
0.438212
0.423772
0.409243
0.394617
0.379881
0.365021
0.350021
0.334861
0.319518
0.303963
0.288159
0.272062
0.255614
0.23874
0.221337
0.203266
0.184309
0.16412
0.142009
0.116355
0.0820145
0.023142
0.226128
0.450157
0.584089
0.688
0.778942
0.862806
0.942157
1.0183
1.09199
1.16369
1.23369
1.30222
1.3694
1.43536
1.50016
1.56384
1.62645
1.68801
1.7485
1.80794
1.86632
1.92361
1.9798
2.03485
2.08875
2.14145
2.19292
2.24312
2.29202
2.33958
2.38576
2.43053
2.47383
2.51564
2.55593
2.59464
2.63176
2.66725
2.70108
2.73322
2.76365
2.79234
2.81928
2.84444
2.86782
2.88939
2.90916
2.9271
2.94323
2.95754
2.97003
2.98071
2.9896
2.99669
3.00201
3.00557
3.00741
3.00753
3.00597
3.00275
2.99792
2.9915
2.98354
2.97406
2.96311
2.95073
2.93696
2.92185
2.90544
2.88779
2.86894
2.84894
2.82785
2.80573
2.78261
2.75857
2.73364
2.70789
2.68138
2.65414
2.62625
2.59775
2.5687
2.53914
2.50914
2.47873
2.44798
2.41693
2.38562
2.35411
2.32244
2.29065
2.25879
2.22689
2.19499
2.16314
2.13136
2.09969
2.06817
2.03682
2.00567
1.97476
1.94409
1.91371
1.88362
1.85386
1.82443
1.79535
1.76665
1.73832
1.71039
1.68286
1.65574
1.62904
1.60276
1.57691
1.55149
1.5265
1.50194
1.47781
1.4541
1.43082
1.40796
1.38551
1.36347
1.34182
1.32057
1.2997
1.2792
1.25906
1.23928
1.21984
1.20072
1.18193
1.16343
1.14523
1.12731
1.10965
1.09225
1.07509
1.05815
1.04142
1.02489
1.00856
0.9924
0.976411
0.960575
0.944881
0.929315
0.913865
0.898521
0.883271
0.868105
0.853012
0.837982
0.823008
0.808079
0.793187
0.778326
0.763486
0.748663
0.733848
0.719037
0.704223
0.689403
0.674569
0.65972
0.644849
0.629951
0.615021
0.600056
0.585051
0.57
0.554901
0.539748
0.524535
0.509258
0.493911
0.478487
0.462979
0.447377
0.431673
0.415853
0.399906
0.383814
0.367558
0.351115
0.334455
0.317545
0.300338
0.282777
0.264784
0.246253
0.227028
0.206864
0.185359
0.1617
0.13396
0.0961358
0.0289788
0.22613
0.450158
0.584087
0.687998
0.778939
0.862803
0.942154
1.0183
1.09199
1.16368
1.23369
1.30221
1.3694
1.43536
1.50015
1.56384
1.62645
1.688
1.7485
1.80794
1.86632
1.92361
1.97979
2.03485
2.08874
2.14144
2.19291
2.24312
2.29202
2.33958
2.38576
2.43052
2.47383
2.51564
2.55592
2.59464
2.63176
2.66725
2.70107
2.73322
2.76365
2.79234
2.81928
2.84444
2.86781
2.88939
2.90915
2.9271
2.94322
2.95753
2.97003
2.98071
2.98959
2.99668
3.002
3.00557
3.0074
3.00752
3.00596
3.00275
2.99792
2.9915
2.98353
2.97405
2.9631
2.95072
2.93695
2.92184
2.90543
2.88778
2.86893
2.84894
2.82785
2.80572
2.78261
2.75856
2.73364
2.70789
2.68137
2.65414
2.62624
2.59774
2.56869
2.53914
2.50913
2.47873
2.44798
2.41692
2.38562
2.35411
2.32244
2.29065
2.25878
2.22688
2.19499
2.16313
2.13135
2.09969
2.06816
2.03682
2.00567
1.97475
1.94409
1.9137
1.88362
1.85385
1.82442
1.79535
1.76664
1.73832
1.71039
1.68286
1.65574
1.62904
1.60276
1.57691
1.55149
1.5265
1.50194
1.47781
1.4541
1.43082
1.40796
1.38551
1.36346
1.34182
1.32057
1.2997
1.2792
1.25906
1.23928
1.21984
1.20072
1.18192
1.16343
1.14523
1.12731
1.10965
1.09225
1.07508
1.05814
1.04142
1.02489
1.00855
0.992398
0.976409
0.960573
0.944879
0.929313
0.913864
0.898519
0.883269
0.868103
0.85301
0.837981
0.823006
0.808077
0.793186
0.778324
0.763485
0.748661
0.733847
0.719036
0.704222
0.689401
0.674568
0.659719
0.644848
0.62995
0.61502
0.600055
0.58505
0.57
0.5549
0.539747
0.524534
0.509258
0.493911
0.478487
0.462978
0.447377
0.431672
0.415853
0.399905
0.383813
0.367557
0.351114
0.334455
0.317544
0.300338
0.282777
0.264784
0.246253
0.227028
0.206864
0.185359
0.1617
0.133961
0.0961361
0.028979
0.267747
0.509673
0.653834
0.764637
0.860951
0.949419
1.03297
1.1131
1.19066
1.26614
1.33989
1.41211
1.48295
1.55251
1.62086
1.68804
1.75409
1.81901
1.8828
1.94547
2.00699
2.06734
2.12651
2.18445
2.24115
2.29656
2.35065
2.40338
2.45471
2.5046
2.55301
2.59991
2.64525
2.689
2.73113
2.77158
2.81034
2.84737
2.88264
2.91612
2.9478
2.97763
3.00562
3.03173
3.05596
3.0783
3.09873
3.11725
3.13387
3.14857
3.16137
3.17227
3.18129
3.18843
3.19371
3.19717
3.1988
3.19866
3.19675
3.19312
3.18779
3.18081
3.17221
3.16203
3.15031
3.1371
3.12244
3.10638
3.08896
3.07024
3.05028
3.02911
3.00681
2.98342
2.95899
2.93359
2.90727
2.88009
2.85211
2.82337
2.79394
2.76387
2.73322
2.70204
2.67039
2.63831
2.60587
2.57311
2.54008
2.50683
2.47341
2.43986
2.40623
2.37255
2.33888
2.30524
2.27168
2.23823
2.20492
2.1718
2.13888
2.10619
2.07377
2.04164
2.00981
1.97832
1.94718
1.9164
1.88601
1.85601
1.82643
1.79726
1.76852
1.74022
1.71236
1.68495
1.65798
1.63146
1.6054
1.57978
1.55461
1.52989
1.5056
1.48175
1.45832
1.43531
1.41271
1.39051
1.36871
1.34728
1.32623
1.30553
1.28518
1.26516
1.24546
1.22607
1.20698
1.18816
1.16961
1.15131
1.13325
1.11541
1.09779
1.08037
1.06314
1.04609
1.02919
1.01245
0.995847
0.979366
0.962997
0.94673
0.930553
0.914455
0.898427
0.882458
0.866541
0.850666
0.834825
0.819011
0.803216
0.787434
0.771658
0.755884
0.740104
0.724314
0.70851
0.692686
0.676836
0.660956
0.64504
0.629084
0.613084
0.597033
0.580928
0.564762
0.54853
0.532226
0.515842
0.499371
0.482804
0.466131
0.449341
0.43242
0.415351
0.398117
0.380693
0.363052
0.345157
0.326963
0.308411
0.289419
0.269873
0.2496
0.228327
0.205578
0.180421
0.150657
0.109523
0.0347888
0.26775
0.509673
0.653833
0.764635
0.860948
0.949416
1.03297
1.1131
1.19065
1.26614
1.33988
1.4121
1.48294
1.5525
1.62085
1.68804
1.75408
1.819
1.8828
1.94546
2.00698
2.06734
2.1265
2.18445
2.24114
2.29655
2.35064
2.40337
2.4547
2.50459
2.55301
2.59991
2.64525
2.689
2.73112
2.77158
2.81034
2.84736
2.88263
2.91612
2.94779
2.97763
3.00561
3.03173
3.05596
3.07829
3.09872
3.11725
3.13386
3.14856
3.16136
3.17226
3.18128
3.18842
3.19371
3.19716
3.1988
3.19865
3.19674
3.19311
3.18779
3.1808
3.1722
3.16202
3.15031
3.13709
3.12243
3.10637
3.08895
3.07024
3.05027
3.02911
3.0068
2.98341
2.95899
2.93359
2.90727
2.88009
2.8521
2.82336
2.79393
2.76386
2.73321
2.70204
2.67038
2.63831
2.60587
2.57311
2.54008
2.50683
2.47341
2.43986
2.40622
2.37255
2.33887
2.30523
2.27167
2.23822
2.20492
2.17179
2.13887
2.10619
2.07377
2.04163
2.00981
1.97832
1.94717
1.9164
1.88601
1.85601
1.82642
1.79726
1.76852
1.74022
1.71236
1.68494
1.65798
1.63146
1.6054
1.57978
1.55461
1.52988
1.5056
1.48174
1.45831
1.43531
1.41271
1.39051
1.3687
1.34728
1.32623
1.30553
1.28518
1.26516
1.24546
1.22607
1.20697
1.18816
1.16961
1.15131
1.13325
1.11541
1.09779
1.08037
1.06314
1.04608
1.02919
1.01245
0.995845
0.979364
0.962996
0.946729
0.930551
0.914454
0.898425
0.882457
0.86654
0.850665
0.834824
0.81901
0.803215
0.787433
0.771657
0.755883
0.740103
0.724313
0.708509
0.692685
0.676835
0.660955
0.645039
0.629084
0.613083
0.597033
0.580927
0.564761
0.548529
0.532225
0.515841
0.49937
0.482804
0.466131
0.449341
0.432419
0.415351
0.398117
0.380693
0.363051
0.345157
0.326963
0.308411
0.289419
0.269873
0.2496
0.228327
0.205578
0.180421
0.150658
0.109524
0.0347889
0.309049
0.567386
0.721467
0.839163
0.940884
1.03395
1.12164
1.20564
1.2869
1.36599
1.44325
1.51893
1.59318
1.6661
1.73775
1.80817
1.87739
1.94541
2.01224
2.07786
2.14225
2.2054
2.26727
2.32784
2.38706
2.44491
2.50135
2.55633
2.60982
2.66177
2.71215
2.76092
2.80804
2.85347
2.89717
2.93911
2.97926
3.01759
3.05406
3.08865
3.12134
3.15211
3.18093
3.20779
3.23268
3.25559
3.27651
3.29544
3.31238
3.32733
3.3403
3.3513
3.36033
3.36742
3.37258
3.37584
3.37721
3.37674
3.37444
3.37035
3.3645
3.35695
3.34771
3.33684
3.32438
3.31037
3.29486
3.2779
3.25954
3.23983
3.21883
3.19659
3.17317
3.14862
3.123
3.09637
3.06879
3.04031
3.011
2.98091
2.95009
2.91861
2.88653
2.8539
2.82077
2.7872
2.75324
2.71896
2.68438
2.64958
2.61459
2.57946
2.54424
2.50898
2.4737
2.43847
2.4033
2.36825
2.33335
2.29862
2.2641
2.22983
2.19582
2.1621
2.1287
2.09565
2.06295
2.03063
1.9987
1.96718
1.93609
1.90543
1.87521
1.84544
1.81612
1.78727
1.75888
1.73096
1.70351
1.67652
1.64999
1.62393
1.59832
1.57316
1.54844
1.52415
1.5003
1.47686
1.45382
1.43119
1.40893
1.38706
1.36554
1.34436
1.32352
1.30301
1.28279
1.26287
1.24323
1.22385
1.20472
1.18583
1.16716
1.1487
1.13044
1.11237
1.09446
1.07672
1.05912
1.04165
1.02429
1.00705
0.989905
0.972845
0.955859
0.93894
0.922076
0.905261
0.888484
0.87174
0.855019
0.838316
0.821623
0.804935
0.788246
0.77155
0.754843
0.738119
0.721371
0.704596
0.687787
0.670939
0.654048
0.637107
0.620111
0.603055
0.585932
0.568736
0.551459
0.534094
0.516631
0.49906
0.48137
0.463546
0.445574
0.427435
0.409104
0.390553
0.371746
0.352636
0.333159
0.31323
0.292721
0.271443
0.249088
0.225115
0.198477
0.166723
0.122403
0.0406053
0.309052
0.567386
0.721465
0.839161
0.940882
1.03395
1.12164
1.20564
1.2869
1.36598
1.44325
1.51893
1.59318
1.66609
1.73774
1.80816
1.87738
1.94541
2.01223
2.07785
2.14225
2.2054
2.26727
2.32783
2.38706
2.44491
2.50134
2.55632
2.60981
2.66177
2.71215
2.76092
2.80803
2.85346
2.89716
2.93911
2.97926
3.01758
3.05405
3.08865
3.12134
3.1521
3.18092
3.20779
3.23268
3.25559
3.27651
3.29544
3.31238
3.32733
3.3403
3.35129
3.36033
3.36741
3.37257
3.37583
3.37721
3.37673
3.37443
3.37034
3.3645
3.35694
3.34771
3.33684
3.32437
3.31036
3.29485
3.27789
3.25953
3.23983
3.21883
3.19659
3.17316
3.14862
3.123
3.09637
3.06879
3.04031
3.01099
2.9809
2.95009
2.91861
2.88653
2.85389
2.82076
2.7872
2.75324
2.71895
2.68438
2.64957
2.61458
2.57946
2.54424
2.50897
2.4737
2.43846
2.4033
2.36825
2.33334
2.29861
2.2641
2.22982
2.19581
2.1621
2.1287
2.09564
2.06294
2.03062
1.9987
1.96718
1.93608
1.90542
1.8752
1.84543
1.81612
1.78727
1.75888
1.73096
1.70351
1.67652
1.64999
1.62392
1.59831
1.57315
1.54843
1.52415
1.50029
1.47685
1.45382
1.43118
1.40893
1.38705
1.36553
1.34436
1.32352
1.303
1.28279
1.26287
1.24323
1.22385
1.20472
1.18582
1.16715
1.1487
1.13044
1.11237
1.09446
1.07672
1.05911
1.04164
1.02429
1.00705
0.989904
0.972843
0.955858
0.938938
0.922075
0.90526
0.888483
0.871739
0.855018
0.838315
0.821622
0.804934
0.788245
0.77155
0.754842
0.738118
0.721371
0.704595
0.687786
0.670939
0.654047
0.637106
0.620111
0.603054
0.585932
0.568735
0.551459
0.534093
0.51663
0.499059
0.481369
0.463546
0.445574
0.427434
0.409103
0.390552
0.371746
0.352635
0.333159
0.313229
0.292721
0.271443
0.249088
0.225116
0.198478
0.166723
0.122403
0.0406055
0.35032
0.62397
0.787687
0.912306
1.01952
1.11725
1.20911
1.29696
1.38188
1.46448
1.54516
1.62418
1.70169
1.7778
1.85258
1.92607
1.99828
2.06922
2.13889
2.20727
2.27435
2.34009
2.40446
2.46744
2.52899
2.58907
2.64763
2.70465
2.76008
2.81388
2.86601
2.91644
2.96511
3.012
3.05708
3.10029
3.14163
3.18104
3.21851
3.25402
3.28753
3.31904
3.34851
3.37595
3.40133
3.42465
3.44591
3.4651
3.48222
3.49729
3.5103
3.52128
3.53022
3.53716
3.54211
3.5451
3.54614
3.54528
3.54254
3.53796
3.53157
3.52342
3.51355
3.50199
3.48879
3.47401
3.45768
3.43986
3.4206
3.39996
3.37799
3.35475
3.33029
3.30467
3.27796
3.2502
3.22146
3.1918
3.16128
3.12995
3.09788
3.06513
3.03175
2.9978
2.96334
2.92842
2.8931
2.85743
2.82146
2.78525
2.74885
2.7123
2.67565
2.63894
2.60223
2.56554
2.52893
2.49242
2.45606
2.41988
2.38391
2.34818
2.31272
2.27757
2.24273
2.20824
2.17411
2.14037
2.10704
2.07412
2.04163
2.00958
1.97799
1.94686
1.9162
1.88601
1.85629
1.82706
1.79831
1.77003
1.74223
1.7149
1.68804
1.66165
1.63571
1.61021
1.58516
1.56054
1.53633
1.51254
1.48914
1.46613
1.44349
1.42121
1.39927
1.37766
1.35637
1.33538
1.31468
1.29426
1.27409
1.25416
1.23448
1.21501
1.19575
1.17668
1.15779
1.13906
1.12049
1.10205
1.08374
1.06554
1.04745
1.02945
1.01153
0.993678
0.975892
0.958159
0.940471
0.92282
0.905199
0.8876
0.870018
0.852444
0.834875
0.817303
0.799724
0.782131
0.764519
0.746882
0.729214
0.711511
0.693765
0.675972
0.658125
0.640218
0.622245
0.604198
0.586071
0.567854
0.549538
0.531113
0.512567
0.493887
0.475056
0.456054
0.436859
0.417441
0.397762
0.377772
0.357404
0.336563
0.315111
0.292838
0.269401
0.2442
0.216069
0.182331
0.134924
0.0464703
0.350322
0.623969
0.787685
0.912303
1.01951
1.11724
1.2091
1.29696
1.38188
1.46448
1.54516
1.62418
1.70169
1.7778
1.85258
1.92607
1.99828
2.06922
2.13889
2.20727
2.27434
2.34008
2.40446
2.46744
2.52898
2.58906
2.64763
2.70465
2.76008
2.81388
2.86601
2.91643
2.96511
3.012
3.05707
3.10029
3.14162
3.18104
3.21851
3.25401
3.28753
3.31903
3.34851
3.37594
3.40132
3.42464
3.4459
3.46509
3.48222
3.49728
3.5103
3.52127
3.53022
3.53716
3.54211
3.54509
3.54614
3.54527
3.54254
3.53795
3.53157
3.52342
3.51354
3.50198
3.48879
3.474
3.45767
3.43986
3.4206
3.39996
3.37799
3.35475
3.33029
3.30467
3.27795
3.2502
3.22146
3.1918
3.16127
3.12995
3.09788
3.06513
3.03174
2.99779
2.96333
2.92841
2.89309
2.85742
2.82146
2.78525
2.74884
2.71229
2.67564
2.63894
2.60222
2.56554
2.52892
2.49242
2.45606
2.41988
2.38391
2.34818
2.31272
2.27756
2.24273
2.20824
2.17411
2.14037
2.10703
2.07411
2.04163
2.00958
1.97799
1.94686
1.91619
1.88601
1.85629
1.82706
1.7983
1.77003
1.74223
1.7149
1.68804
1.66164
1.6357
1.61021
1.58516
1.56054
1.53633
1.51254
1.48914