/*--------------------------------*- C++ -*----------------------------------*\
  =========                 |
  \\      /  F ield         | OpenFOAM: The Open Source CFD Toolbox
   \\    /   O peration     | Website:  https://openfoam.org
    \\  /    A nd           | Version:  8
     \\/     M anipulation  |
\*---------------------------------------------------------------------------*/
FoamFile
{
    version     2.0;
    format      ascii;
    class       volScalarField;
    location    "3300";
    object      nut;
}
// * * * * * * * * * * * * * * * * * * * * * * * * * * * * * * * * * * * * * //

dimensions      [0 2 -1 0 0 0 0];

internalField   nonuniform List<scalar> 
46000
(
8.83699e-07
3.87103e-06
7.24848e-06
1.03956e-05
1.33661e-05
1.62381e-05
1.90457e-05
2.17964e-05
2.45061e-05
2.71849e-05
2.98438e-05
3.24865e-05
3.51018e-05
3.76994e-05
4.02813e-05
4.28478e-05
4.53982e-05
4.79314e-05
5.04458e-05
5.29396e-05
5.54106e-05
5.78565e-05
6.02748e-05
6.26628e-05
6.50178e-05
6.73368e-05
6.9617e-05
7.18554e-05
7.40491e-05
7.6195e-05
7.82903e-05
8.03319e-05
8.23172e-05
8.42432e-05
8.61073e-05
8.79068e-05
8.96394e-05
9.13025e-05
9.28939e-05
9.44116e-05
9.58536e-05
9.72181e-05
9.85033e-05
9.9708e-05
0.000100831
0.000101871
0.000102826
0.000103698
0.000104484
0.000105184
0.000105799
0.000106328
0.000106772
0.000107131
0.000107406
0.000107597
0.000107705
0.000107732
0.000107679
0.000107547
0.00010734
0.000107058
0.000106707
0.000106286
0.000105796
0.000105239
0.000104617
0.000103933
0.000103188
0.000102386
0.00010153
0.000100621
9.96633e-05
9.86589e-05
9.76108e-05
9.65219e-05
9.53949e-05
9.42327e-05
9.30382e-05
9.18141e-05
9.05631e-05
8.9288e-05
8.79915e-05
8.66763e-05
8.53448e-05
8.39996e-05
8.26431e-05
8.12777e-05
7.99057e-05
7.85294e-05
7.71508e-05
7.57719e-05
7.43948e-05
7.30212e-05
7.1653e-05
7.02917e-05
6.89391e-05
6.75964e-05
6.62652e-05
6.49467e-05
6.3642e-05
6.23524e-05
6.10786e-05
5.98218e-05
5.85826e-05
5.73618e-05
5.616e-05
5.49779e-05
5.38157e-05
5.26741e-05
5.15532e-05
5.04533e-05
4.93746e-05
4.83172e-05
4.72812e-05
4.62665e-05
4.5273e-05
4.43008e-05
4.33494e-05
4.24189e-05
4.15088e-05
4.06189e-05
3.97488e-05
3.88982e-05
3.80666e-05
3.72537e-05
3.6459e-05
3.56819e-05
3.49221e-05
3.41789e-05
3.34518e-05
3.27403e-05
3.20439e-05
3.1362e-05
3.0694e-05
3.00394e-05
2.93976e-05
2.8768e-05
2.81501e-05
2.75434e-05
2.69472e-05
2.63611e-05
2.57845e-05
2.52169e-05
2.46577e-05
2.41065e-05
2.35629e-05
2.30274e-05
2.24989e-05
2.19768e-05
2.14608e-05
2.09504e-05
2.04453e-05
1.99453e-05
1.94499e-05
1.8959e-05
1.84722e-05
1.79893e-05
1.75102e-05
1.70346e-05
1.65624e-05
1.60934e-05
1.56275e-05
1.51646e-05
1.47059e-05
1.42509e-05
1.37989e-05
1.33498e-05
1.29035e-05
1.246e-05
1.20193e-05
1.15813e-05
1.11462e-05
1.0714e-05
1.02846e-05
9.85809e-06
9.43453e-06
9.0139e-06
8.59621e-06
8.18143e-06
7.76954e-06
7.36041e-06
6.9535e-06
6.54937e-06
6.14794e-06
5.74854e-06
5.35108e-06
4.95515e-06
4.56021e-06
4.16557e-06
3.77031e-06
3.37332e-06
2.97541e-06
2.57381e-06
2.16521e-06
1.74604e-06
1.31192e-06
8.59784e-07
4.05581e-07
7.77368e-08
8.83773e-07
3.87121e-06
7.24869e-06
1.03958e-05
1.33663e-05
1.62383e-05
1.90459e-05
2.17966e-05
2.45062e-05
2.71851e-05
2.98439e-05
3.24867e-05
3.51019e-05
3.76995e-05
4.02814e-05
4.28479e-05
4.53983e-05
4.79315e-05
5.04459e-05
5.29396e-05
5.54107e-05
5.78566e-05
6.02748e-05
6.26628e-05
6.50178e-05
6.73368e-05
6.9617e-05
7.18554e-05
7.4049e-05
7.6195e-05
7.82902e-05
8.03319e-05
8.23171e-05
8.42431e-05
8.61072e-05
8.79068e-05
8.96393e-05
9.13024e-05
9.28938e-05
9.44115e-05
9.58535e-05
9.72179e-05
9.85032e-05
9.97079e-05
0.000100831
0.00010187
0.000102826
0.000103697
0.000104484
0.000105184
0.000105799
0.000106328
0.000106772
0.000107131
0.000107405
0.000107596
0.000107705
0.000107732
0.000107679
0.000107547
0.000107339
0.000107058
0.000106707
0.000106286
0.000105796
0.000105239
0.000104617
0.000103933
0.000103188
0.000102386
0.00010153
0.000100621
9.96631e-05
9.86587e-05
9.76106e-05
9.65217e-05
9.53947e-05
9.42325e-05
9.3038e-05
9.18139e-05
9.05629e-05
8.92878e-05
8.79913e-05
8.66761e-05
8.53446e-05
8.39994e-05
8.26429e-05
8.12775e-05
7.99056e-05
7.85292e-05
7.71506e-05
7.57717e-05
7.43946e-05
7.3021e-05
7.16528e-05
7.02916e-05
6.89389e-05
6.75963e-05
6.62651e-05
6.49465e-05
6.36419e-05
6.23522e-05
6.10785e-05
5.98216e-05
5.85824e-05
5.73616e-05
5.61599e-05
5.49777e-05
5.38156e-05
5.26739e-05
5.1553e-05
5.04532e-05
4.93745e-05
4.83171e-05
4.72811e-05
4.62664e-05
4.52729e-05
4.43006e-05
4.33493e-05
4.24187e-05
4.15087e-05
4.06187e-05
3.97487e-05
3.88981e-05
3.80665e-05
3.72536e-05
3.64589e-05
3.56818e-05
3.4922e-05
3.41788e-05
3.34517e-05
3.27402e-05
3.20438e-05
3.13619e-05
3.06939e-05
3.00393e-05
2.93975e-05
2.87679e-05
2.81501e-05
2.75433e-05
2.69471e-05
2.6361e-05
2.57844e-05
2.52168e-05
2.46577e-05
2.41065e-05
2.35629e-05
2.30273e-05
2.24988e-05
2.19767e-05
2.14607e-05
2.09503e-05
2.04453e-05
1.99452e-05
1.94499e-05
1.89589e-05
1.84721e-05
1.79893e-05
1.75101e-05
1.70345e-05
1.65623e-05
1.60933e-05
1.56274e-05
1.51646e-05
1.47058e-05
1.42509e-05
1.37989e-05
1.33498e-05
1.29035e-05
1.24599e-05
1.20192e-05
1.15813e-05
1.11462e-05
1.07139e-05
1.02845e-05
9.85806e-06
9.4345e-06
9.01387e-06
8.59618e-06
8.18141e-06
7.76951e-06
7.36039e-06
6.95349e-06
6.54936e-06
6.14793e-06
5.74852e-06
5.35107e-06
4.95514e-06
4.5602e-06
4.16557e-06
3.7703e-06
3.37331e-06
2.97541e-06
2.57381e-06
2.16521e-06
1.74604e-06
1.31193e-06
8.59788e-07
4.05582e-07
7.77375e-08
3.52521e-06
4.33835e-05
7.53578e-05
9.72816e-05
0.000114151
0.000128067
0.000139984
0.000150605
0.00016031
0.000169321
0.000177782
0.000185801
0.000193461
0.00020081
0.000207884
0.000214712
0.000221317
0.000227717
0.000233927
0.000239955
0.000245813
0.000251506
0.000257039
0.000262416
0.00026764
0.000272714
0.000277639
0.000282415
0.000287044
0.000291524
0.000295856
0.00030004
0.000304074
0.000307959
0.000311692
0.000315274
0.000318704
0.000321979
0.000325101
0.000328067
0.000330877
0.00033353
0.000336027
0.000338366
0.000340547
0.00034257
0.000344436
0.000346144
0.000347694
0.000349088
0.000350326
0.000351409
0.000352338
0.000353114
0.000353739
0.000354215
0.000354542
0.000354723
0.00035476
0.000354655
0.00035441
0.000354026
0.000353502
0.000352846
0.000352061
0.000351153
0.000350123
0.000348976
0.000347716
0.000346347
0.000344871
0.000343294
0.000341619
0.00033985
0.000337991
0.000336046
0.00033402
0.000331916
0.000329739
0.000327493
0.000325182
0.00032281
0.000320381
0.000317899
0.000315368
0.000312793
0.000310177
0.000307523
0.000304837
0.000302121
0.00029938
0.000296616
0.000293833
0.000291034
0.000288224
0.000285404
0.000282578
0.000279749
0.00027692
0.000274093
0.000271271
0.000268456
0.000265651
0.000262857
0.000260078
0.000257314
0.000254568
0.000251841
0.000249135
0.000246451
0.000243791
0.000241155
0.000238545
0.000235961
0.000233405
0.000230876
0.000228376
0.000225904
0.000223462
0.000221049
0.000218666
0.000216311
0.000213986
0.00021169
0.000209422
0.000207182
0.00020497
0.000202785
0.000200627
0.000198493
0.000196385
0.0001943
0.000192238
0.000190198
0.000188179
0.000186179
0.000184197
0.000182233
0.000180285
0.000178352
0.000176432
0.000174524
0.000172628
0.000170741
0.000168863
0.000166993
0.000165129
0.00016327
0.000161413
0.000159558
0.000157704
0.000155849
0.000153992
0.000152132
0.000150268
0.000148398
0.000146522
0.000144637
0.000142744
0.00014084
0.000138925
0.000136997
0.000135055
0.000133094
0.000131108
0.000129104
0.00012708
0.000125037
0.000122974
0.000120889
0.000118782
0.000116651
0.000114495
0.000112312
0.0001101
0.000107857
0.000105582
0.00010327
0.00010092
9.85277e-05
9.6089e-05
9.35994e-05
9.10539e-05
8.84441e-05
8.57604e-05
8.29923e-05
8.01273e-05
7.71485e-05
7.40345e-05
7.07576e-05
6.72784e-05
6.35373e-05
5.94252e-05
5.48833e-05
4.97583e-05
4.37972e-05
3.65405e-05
2.70411e-05
1.32868e-05
3.63427e-07
3.52535e-06
4.33856e-05
7.53608e-05
9.72849e-05
0.000114155
0.000128071
0.000139987
0.000150609
0.000160314
0.000169325
0.000177786
0.000185805
0.000193465
0.000200814
0.000207888
0.000214716
0.000221321
0.000227722
0.000233931
0.00023996
0.000245817
0.00025151
0.000257043
0.000262421
0.000267645
0.000272719
0.000277644
0.00028242
0.000287048
0.000291529
0.000295861
0.000300045
0.00030408
0.000307964
0.000311698
0.00031528
0.000318709
0.000321985
0.000325106
0.000328072
0.000330882
0.000333536
0.000336032
0.000338371
0.000340553
0.000342576
0.000344442
0.000346149
0.0003477
0.000349094
0.000350332
0.000351415
0.000352344
0.00035312
0.000353745
0.00035422
0.000354548
0.000354729
0.000354766
0.000354661
0.000354416
0.000354031
0.000353508
0.000352852
0.000352067
0.000351158
0.000350128
0.000348982
0.000347722
0.000346352
0.000344876
0.000343299
0.000341624
0.000339855
0.000337996
0.000336051
0.000334025
0.000331921
0.000329744
0.000327498
0.000325187
0.000322814
0.000320385
0.000317903
0.000315373
0.000312797
0.000310181
0.000307528
0.000304841
0.000302126
0.000299384
0.00029662
0.000293837
0.000291038
0.000288228
0.000285408
0.000282582
0.000279753
0.000276923
0.000274096
0.000271274
0.000268459
0.000265654
0.000262861
0.000260081
0.000257317
0.000254571
0.000251844
0.000249138
0.000246454
0.000243794
0.000241158
0.000238548
0.000235964
0.000233407
0.000230879
0.000228378
0.000225907
0.000223465
0.000221052
0.000218668
0.000216314
0.000213988
0.000211692
0.000209424
0.000207185
0.000204972
0.000202787
0.000200629
0.000198495
0.000196387
0.000194302
0.00019224
0.0001902
0.00018818
0.00018618
0.000184199
0.000182235
0.000180287
0.000178353
0.000176433
0.000174526
0.000172629
0.000170742
0.000168864
0.000166994
0.00016513
0.000163271
0.000161414
0.000159559
0.000157705
0.00015585
0.000153993
0.000152133
0.000150269
0.000148399
0.000146522
0.000144638
0.000142744
0.000140841
0.000138926
0.000136998
0.000135055
0.000133095
0.000131109
0.000129104
0.000127081
0.000125038
0.000122974
0.00012089
0.000118783
0.000116652
0.000114496
0.000112312
0.0001101
0.000107858
0.000105582
0.000103271
0.000100921
9.85281e-05
9.60894e-05
9.35998e-05
9.10543e-05
8.84445e-05
8.57608e-05
8.29927e-05
8.01277e-05
7.71488e-05
7.40349e-05
7.07579e-05
6.72787e-05
6.35376e-05
5.94255e-05
5.48835e-05
4.97585e-05
4.37973e-05
3.65406e-05
2.70411e-05
1.32867e-05
3.63428e-07
6.72726e-06
7.29249e-05
0.000138713
0.000187715
0.000225607
0.000256188
0.000281842
0.000304047
0.000323743
0.000341549
0.000357881
0.000373033
0.000387216
0.000400582
0.000413244
0.000425289
0.000436785
0.000447787
0.000458338
0.000468474
0.000478224
0.000487611
0.000496654
0.000505371
0.000513774
0.000521874
0.000529682
0.000537205
0.00054445
0.000551422
0.000558127
0.000564569
0.000570751
0.000576677
0.000582348
0.000587768
0.000592938
0.000597861
0.000602538
0.000606971
0.000611161
0.000615111
0.00061882
0.000622293
0.000625528
0.00062853
0.000631298
0.000633835
0.000636143
0.000638224
0.00064008
0.000641713
0.000643126
0.00064432
0.000645299
0.000646066
0.000646622
0.00064697
0.000647115
0.000647056
0.000646798
0.000646341
0.000645685
0.000644839
0.000643809
0.000642601
0.00064122
0.000639672
0.00063796
0.000636091
0.000634069
0.0006319
0.000629587
0.000627137
0.000624553
0.000621843
0.000619009
0.000616059
0.000612997
0.000609828
0.000606557
0.000603191
0.000599734
0.00059619
0.000592567
0.000588868
0.000585098
0.000581264
0.00057737
0.00057342
0.00056942
0.000565374
0.000561287
0.000557164
0.000553009
0.000548826
0.000544621
0.000540396
0.000536156
0.000531904
0.000527645
0.000523383
0.000519119
0.000514858
0.000510603
0.000506357
0.000502122
0.000497902
0.000493697
0.000489512
0.000485348
0.000481206
0.000477089
0.000472998
0.000468935
0.0004649
0.000460895
0.00045692
0.000452977
0.000449065
0.000445186
0.000441338
0.000437523
0.00043374
0.000429988
0.000426268
0.000422579
0.000418919
0.000415288
0.000411686
0.00040811
0.000404559
0.000401033
0.00039753
0.000394048
0.000390585
0.00038714
0.000383711
0.000380297
0.000376894
0.000373503
0.000370119
0.000366742
0.000363371
0.000360003
0.000356636
0.000353268
0.000349894
0.000346514
0.000343125
0.000339725
0.000336312
0.000332885
0.00032944
0.000325977
0.000322493
0.000318986
0.000315454
0.000311894
0.000308304
0.000304683
0.000301026
0.00029733
0.00029359
0.000289797
0.000285955
0.000282064
0.000278123
0.000274129
0.000270079
0.000265972
0.000261802
0.000257566
0.000253259
0.000248877
0.000244413
0.00023986
0.00023521
0.000230455
0.000225584
0.000220585
0.000215443
0.000210142
0.00020466
0.00019897
0.000193042
0.000186834
0.000180294
0.00017336
0.000165947
0.00015794
0.000149181
0.000139438
0.000128417
0.00011571
0.000100627
8.20215e-05
5.79448e-05
2.60444e-05
7.73731e-07
6.72743e-06
7.29279e-05
0.000138719
0.000187721
0.000225614
0.000256196
0.000281849
0.000304054
0.000323751
0.000341556
0.000357889
0.00037304
0.000387223
0.000400589
0.000413251
0.000425296
0.000436792
0.000447794
0.000458346
0.000468482
0.000478232
0.000487618
0.000496662
0.000505378
0.000513781
0.000521882
0.00052969
0.000537213
0.000544457
0.00055143
0.000558135
0.000564577
0.000570759
0.000576684
0.000582356
0.000587776
0.000592946
0.000597869
0.000602546
0.000606979
0.000611169
0.000615118
0.000618828
0.0006223
0.000625536
0.000628537
0.000631306
0.000633843
0.000636151
0.000638232
0.000640088
0.000641721
0.000643133
0.000644328
0.000645307
0.000646073
0.000646629
0.000646978
0.000647122
0.000647064
0.000646805
0.000646348
0.000645692
0.000644846
0.000643816
0.000642608
0.000641227
0.000639678
0.000637967
0.000636098
0.000634076
0.000631906
0.000629593
0.000627143
0.00062456
0.000621849
0.000619015
0.000616065
0.000613003
0.000609834
0.000606563
0.000603197
0.000599739
0.000596196
0.000592572
0.000588873
0.000585104
0.000581269
0.000577374
0.000573425
0.000569424
0.000565378
0.000561291
0.000557168
0.000553013
0.000548831
0.000544625
0.0005404
0.00053616
0.000531908
0.000527649
0.000523386
0.000519123
0.000514862
0.000510607
0.00050636
0.000502125
0.000497905
0.0004937
0.000489515
0.000485351
0.000481209
0.000477092
0.000473001
0.000468937
0.000464902
0.000460897
0.000456922
0.000452979
0.000449067
0.000445188
0.00044134
0.000437525
0.000433742
0.00042999
0.00042627
0.00042258
0.000418921
0.00041529
0.000411687
0.000408111
0.000404561
0.000401034
0.000397531
0.000394049
0.000390586
0.000387141
0.000383712
0.000380298
0.000376895
0.000373503
0.00037012
0.000366743
0.000363371
0.000360003
0.000356637
0.000353268
0.000349895
0.000346514
0.000343125
0.000339725
0.000336312
0.000332885
0.000329441
0.000325977
0.000322493
0.000318986
0.000315454
0.000311894
0.000308304
0.000304682
0.000301026
0.00029733
0.00029359
0.000289797
0.000285955
0.000282064
0.000278123
0.000274129
0.000270079
0.000265971
0.000261802
0.000257566
0.000253259
0.000248877
0.000244412
0.000239859
0.00023521
0.000230455
0.000225584
0.000220585
0.000215443
0.000210142
0.00020466
0.00019897
0.000193041
0.000186833
0.000180294
0.00017336
0.000165947
0.00015794
0.000149181
0.000139438
0.000128417
0.00011571
0.000100627
8.20216e-05
5.79448e-05
2.60442e-05
7.73732e-07
9.81426e-06
9.36789e-05
0.000185237
0.000258948
0.000318201
0.000366912
0.000408032
0.000443568
0.000474895
0.00050297
0.000528472
0.000551895
0.000573601
0.000593863
0.000612886
0.00063083
0.000647824
0.000663966
0.000679339
0.00069401
0.000708033
0.000721455
0.000734313
0.000746639
0.000758461
0.000769801
0.000780681
0.000791117
0.000801124
0.000810715
0.000819903
0.000828696
0.000837105
0.000845136
0.000852799
0.000860099
0.000867042
0.000873634
0.000879881
0.000885787
0.000891357
0.000896595
0.000901506
0.000906094
0.000910363
0.000914317
0.000917961
0.000921297
0.000924329
0.000927063
0.000929502
0.000931649
0.000933509
0.000935086
0.000936383
0.000937406
0.000938157
0.000938641
0.000938862
0.000938823
0.000938527
0.000937978
0.000937178
0.000936134
0.000934854
0.000933346
0.000931616
0.000929671
0.000927516
0.000925159
0.000922606
0.000919861
0.000916933
0.000913825
0.000910546
0.0009071
0.000903495
0.000899736
0.00089583
0.000891783
0.000887601
0.000883291
0.000878858
0.00087431
0.000869652
0.000864891
0.000860033
0.000855084
0.000850049
0.000844936
0.000839749
0.000834496
0.00082918
0.000823809
0.000818388
0.000812922
0.000807416
0.000801876
0.000796306
0.000790712
0.000785098
0.000779468
0.000773828
0.00076818
0.00076253
0.00075688
0.000751235
0.000745598
0.000739971
0.000734359
0.000728763
0.000723187
0.000717632
0.0007121
0.000706594
0.000701115
0.000695664
0.000690243
0.000684852
0.000679492
0.000674164
0.000668868
0.000663603
0.000658371
0.000653169
0.000647999
0.000642858
0.000637747
0.000632663
0.000627606
0.000622574
0.000617565
0.000612578
0.000607611
0.000602662
0.000597728
0.000592807
0.000587898
0.000582997
0.000578102
0.000573211
0.000568321
0.000563431
0.000558536
0.000553637
0.000548727
0.000543805
0.000538865
0.000533906
0.000528925
0.000523919
0.000518886
0.000513822
0.000508726
0.000503593
0.000498421
0.000493207
0.000487949
0.000482642
0.000477283
0.00047187
0.000466396
0.000460858
0.000455248
0.00044956
0.000443792
0.000437942
0.000432008
0.000425985
0.000419868
0.000413653
0.000407331
0.000400897
0.00039434
0.000387653
0.000380823
0.000373838
0.000366684
0.000359343
0.000351796
0.000344021
0.000335989
0.000327669
0.000319022
0.00031
0.000300544
0.000290583
0.000280024
0.000268751
0.000256616
0.000243422
0.000228908
0.000212718
0.000194366
0.000173205
0.000148254
0.00011806
8.05935e-05
3.48497e-05
1.19016e-06
9.81443e-06
9.36822e-05
0.000185244
0.000258957
0.000318211
0.000366922
0.000408043
0.000443579
0.000474906
0.000502981
0.000528483
0.000551906
0.000573612
0.000593873
0.000612896
0.000630841
0.000647834
0.000663976
0.000679349
0.00069402
0.000708044
0.000721465
0.000734323
0.000746649
0.000758471
0.000769811
0.000780691
0.000791127
0.000801134
0.000810725
0.000819913
0.000828706
0.000837115
0.000845146
0.000852809
0.000860108
0.000867052
0.000873644
0.00087989
0.000885796
0.000891366
0.000896605
0.000901516
0.000906104
0.000910373
0.000914327
0.00091797
0.000921306
0.000924339
0.000927072
0.000929511
0.000931658
0.000933518
0.000935094
0.000936392
0.000937414
0.000938165
0.000938649
0.00093887
0.000938831
0.000938535
0.000937986
0.000937186
0.000936141
0.000934862
0.000933353
0.000931623
0.000929678
0.000927524
0.000925167
0.000922613
0.000919868
0.000916939
0.000913832
0.000910552
0.000907107
0.000903501
0.000899742
0.000895836
0.000891789
0.000887607
0.000883297
0.000878864
0.000874316
0.000869658
0.000864897
0.000860038
0.000855089
0.000850054
0.00084494
0.000839754
0.0008345
0.000829185
0.000823814
0.000818392
0.000812926
0.00080742
0.00080188
0.00079631
0.000790715
0.000785101
0.000779471
0.000773831
0.000768183
0.000762533
0.000756883
0.000751238
0.0007456
0.000739974
0.000734361
0.000728766
0.000723189
0.000717634
0.000712102
0.000706596
0.000701117
0.000695666
0.000690245
0.000684854
0.000679494
0.000674166
0.000668869
0.000663605
0.000658372
0.00065317
0.000648
0.000642859
0.000637747
0.000632664
0.000627606
0.000622574
0.000617566
0.000612579
0.000607612
0.000602662
0.000597728
0.000592808
0.000587898
0.000582997
0.000578102
0.000573211
0.000568321
0.00056343
0.000558536
0.000553636
0.000548727
0.000543804
0.000538865
0.000533906
0.000528925
0.000523919
0.000518885
0.000513822
0.000508725
0.000503592
0.00049842
0.000493206
0.000487948
0.000482641
0.000477282
0.000471869
0.000466395
0.000460856
0.000455247
0.000449559
0.000443791
0.000437941
0.000432007
0.000425984
0.000419867
0.000413652
0.00040733
0.000400896
0.000394339
0.000387652
0.000380822
0.000373837
0.000366683
0.000359342
0.000351795
0.00034402
0.000335988
0.000327669
0.000319021
0.000309999
0.000300544
0.000290582
0.000280023
0.000268751
0.000256616
0.000243421
0.000228908
0.000212718
0.000194366
0.000173205
0.000148254
0.00011806
8.05936e-05
3.48495e-05
1.19017e-06
1.28066e-05
0.000110254
0.000221744
0.000316273
0.000394825
0.000460846
0.000517281
0.000566345
0.000609668
0.000648449
0.000683573
0.000715703
0.000745343
0.000772876
0.000798601
0.000822752
0.000845517
0.000867045
0.000887459
0.000906859
0.000925328
0.000942937
0.000959743
0.000975797
0.00099114
0.00100581
0.00101984
0.00103325
0.00104607
0.00105833
0.00107003
0.0010812
0.00109186
0.00110201
0.00111167
0.00112084
0.00112955
0.0011378
0.0011456
0.00115296
0.00115989
0.00116639
0.00117247
0.00117814
0.0011834
0.00118827
0.00119275
0.00119685
0.00120056
0.00120391
0.00120689
0.00120951
0.00121177
0.00121369
0.00121527
0.00121651
0.00121742
0.001218
0.00121826
0.00121821
0.00121785
0.00121719
0.00121622
0.00121497
0.00121342
0.00121161
0.00120952
0.00120718
0.00120458
0.00120174
0.00119866
0.00119536
0.00119182
0.00118808
0.00118412
0.00117997
0.00117562
0.00117108
0.00116637
0.00116148
0.00115643
0.00115122
0.00114586
0.00114036
0.00113472
0.00112895
0.00112307
0.00111707
0.00111096
0.00110475
0.00109845
0.00109206
0.00108559
0.00107905
0.00107245
0.00106578
0.00105906
0.00105229
0.00104548
0.00103863
0.00103175
0.00102485
0.00101792
0.00101098
0.00100403
0.000997069
0.000990108
0.000983149
0.000976196
0.000969251
0.000962319
0.000955402
0.000948503
0.000941624
0.000934767
0.000927935
0.000921129
0.00091435
0.000907599
0.000900878
0.000894186
0.000887524
0.000880892
0.00087429
0.000867717
0.000861172
0.000854654
0.000848163
0.000841696
0.000835252
0.00082883
0.000822426
0.00081604
0.000809668
0.000803309
0.000796959
0.000790615
0.000784276
0.000777937
0.000771596
0.000765251
0.000758897
0.000752532
0.000746153
0.000739757
0.000733339
0.000726895
0.000720421
0.000713913
0.000707368
0.000700783
0.000694155
0.000687479
0.000680752
0.000673971
0.000667132
0.000660231
0.000653264
0.000646226
0.000639114
0.000631922
0.000624644
0.000617276
0.000609808
0.000602235
0.00059455
0.00058675
0.000578829
0.000570782
0.000562601
0.000554276
0.000545798
0.000537156
0.000528337
0.000519326
0.000510106
0.000500659
0.000490962
0.000480989
0.000470712
0.000460095
0.000449096
0.000437669
0.000425753
0.000413279
0.000400161
0.000386293
0.000371544
0.00035575
0.0003387
0.000320128
0.000299684
0.000276908
0.000251196
0.000221731
0.000187422
0.000146784
9.80963e-05
4.1719e-05
1.60099e-06
1.28068e-05
0.000110258
0.000221751
0.000316283
0.000394837
0.000460859
0.000517294
0.000566359
0.000609683
0.000648463
0.000683587
0.000715717
0.000745357
0.00077289
0.000798615
0.000822766
0.000845531
0.000867059
0.000887472
0.000906872
0.000925342
0.00094295
0.000959756
0.00097581
0.000991153
0.00100582
0.00101985
0.00103326
0.00104609
0.00105834
0.00107005
0.00108122
0.00109187
0.00110202
0.00111168
0.00112086
0.00112957
0.00113782
0.00114561
0.00115297
0.0011599
0.0011664
0.00117248
0.00117815
0.00118341
0.00118828
0.00119276
0.00119686
0.00120057
0.00120392
0.0012069
0.00120952
0.00121178
0.0012137
0.00121528
0.00121652
0.00121742
0.00121801
0.00121827
0.00121822
0.00121786
0.0012172
0.00121623
0.00121498
0.00121343
0.00121162
0.00120953
0.00120719
0.00120459
0.00120175
0.00119867
0.00119536
0.00119183
0.00118809
0.00118413
0.00117997
0.00117562
0.00117109
0.00116637
0.00116149
0.00115643
0.00115122
0.00114587
0.00114036
0.00113473
0.00112896
0.00112307
0.00111707
0.00111096
0.00110476
0.00109845
0.00109207
0.0010856
0.00107906
0.00107245
0.00106578
0.00105906
0.00105229
0.00104548
0.00103863
0.00103175
0.00102485
0.00101792
0.00101098
0.00100403
0.000997072
0.000990111
0.000983152
0.000976198
0.000969254
0.000962321
0.000955404
0.000948505
0.000941626
0.000934769
0.000927937
0.000921131
0.000914352
0.000907601
0.000900879
0.000894187
0.000887525
0.000880893
0.000874291
0.000867717
0.000861172
0.000854655
0.000848163
0.000841696
0.000835253
0.00082883
0.000822427
0.00081604
0.000809668
0.000803309
0.000796959
0.000790615
0.000784275
0.000777937
0.000771596
0.00076525
0.000758896
0.000752531
0.000746153
0.000739757
0.000733338
0.000726894
0.00072042
0.000713912
0.000707367
0.000700782
0.000694154
0.000687478
0.000680751
0.00067397
0.000667131
0.00066023
0.000653262
0.000646225
0.000639112
0.00063192
0.000624643
0.000617274
0.000609807
0.000602234
0.000594548
0.000586748
0.000578828
0.000570781
0.000562599
0.000554275
0.000545797
0.000537155
0.000528335
0.000519324
0.000510105
0.000500658
0.000490961
0.000480988
0.000470711
0.000460093
0.000449095
0.000437668
0.000425752
0.000413278
0.00040016
0.000386292
0.000371543
0.000355749
0.0003387
0.000320128
0.000299684
0.000276908
0.000251196
0.000221731
0.000187423
0.000146785
9.80964e-05
4.17187e-05
1.60099e-06
1.57558e-05
0.00012432
0.000251873
0.000363984
0.000459607
0.000541465
0.000612296
0.000674347
0.000729371
0.000778714
0.00082341
0.000864255
0.000901866
0.000936724
0.000969212
0.000999631
0.00102823
0.00105519
0.0010807
0.00110487
0.00112782
0.00114965
0.00117043
0.00119023
0.00120911
0.00122712
0.0012443
0.00126069
0.00127633
0.00129124
0.00130546
0.00131899
0.00133188
0.00134413
0.00135576
0.00136679
0.00137724
0.00138712
0.00139645
0.00140523
0.00141347
0.0014212
0.00142842
0.00143513
0.00144136
0.00144711
0.00145238
0.0014572
0.00146156
0.00146547
0.00146896
0.00147201
0.00147464
0.00147687
0.00147869
0.00148011
0.00148115
0.0014818
0.00148208
0.00148199
0.00148154
0.00148074
0.00147959
0.00147811
0.00147629
0.00147415
0.0014717
0.00146896
0.00146592
0.00146259
0.00145899
0.00145513
0.001451
0.00144663
0.00144202
0.00143717
0.0014321
0.00142681
0.00142131
0.00141561
0.00140973
0.00140365
0.00139741
0.00139099
0.00138442
0.0013777
0.00137084
0.00136384
0.00135671
0.00134947
0.00134211
0.00133465
0.0013271
0.00131946
0.00131174
0.00130394
0.00129608
0.00128816
0.00128018
0.00127216
0.0012641
0.001256
0.00124787
0.00123972
0.00123156
0.00122338
0.00121519
0.001207
0.00119881
0.00119062
0.00118244
0.00117428
0.00116613
0.00115799
0.00114988
0.00114178
0.00113371
0.00112567
0.00111765
0.00110966
0.0011017
0.00109376
0.00108585
0.00107797
0.00107011
0.00106228
0.00105447
0.00104669
0.00103892
0.00103118
0.00102345
0.00101574
0.00100803
0.00100034
0.000992652
0.000984965
0.000977278
0.000969587
0.000961889
0.000954179
0.000946455
0.000938712
0.000930948
0.000923158
0.000915338
0.000907483
0.000899588
0.00089165
0.000883664
0.000875626
0.000867531
0.000859376
0.000851156
0.000842868
0.000834506
0.000826066
0.000817543
0.000808933
0.000800229
0.000791427
0.000782521
0.000773503
0.000764367
0.000755104
0.000745706
0.000736163
0.000726473
0.000716625
0.00070661
0.000696419
0.000686039
0.000675456
0.000664655
0.000653619
0.000642328
0.00063076
0.000618887
0.000606681
0.000594106
0.000581123
0.000567685
0.000553737
0.000539214
0.000524038
0.000508118
0.00049134
0.000473569
0.000454636
0.000434335
0.000412405
0.000388521
0.000362268
0.000333112
0.000300371
0.000263151
0.000220342
0.000170552
0.000112452
4.7492e-05
2.00787e-06
1.57559e-05
0.000124324
0.00025188
0.000363994
0.00045962
0.000541479
0.000612311
0.000674363
0.000729387
0.000778731
0.000823427
0.000864272
0.000901883
0.000936741
0.000969229
0.000999648
0.00102824
0.00105521
0.00108071
0.00110488
0.00112784
0.00114966
0.00117044
0.00119024
0.00120912
0.00122713
0.00124432
0.00126071
0.00127635
0.00129126
0.00130547
0.00131901
0.00133189
0.00134414
0.00135577
0.00136681
0.00137726
0.00138714
0.00139646
0.00140524
0.00141349
0.00142121
0.00142843
0.00143514
0.00144137
0.00144712
0.00145239
0.00145721
0.00146157
0.00146549
0.00146897
0.00147202
0.00147466
0.00147688
0.0014787
0.00148012
0.00148116
0.00148181
0.00148209
0.001482
0.00148155
0.00148075
0.0014796
0.00147811
0.0014763
0.00147416
0.00147171
0.00146897
0.00146592
0.0014626
0.001459
0.00145514
0.00145101
0.00144664
0.00144202
0.00143718
0.0014321
0.00142682
0.00142132
0.00141562
0.00140973
0.00140366
0.00139741
0.001391
0.00138443
0.00137771
0.00137084
0.00136384
0.00135672
0.00134947
0.00134212
0.00133466
0.00132711
0.00131946
0.00131174
0.00130395
0.00129608
0.00128816
0.00128018
0.00127216
0.0012641
0.001256
0.00124788
0.00123973
0.00123156
0.00122338
0.00121519
0.001207
0.00119881
0.00119062
0.00118245
0.00117428
0.00116613
0.00115799
0.00114988
0.00114179
0.00113372
0.00112567
0.00111765
0.00110966
0.0011017
0.00109376
0.00108585
0.00107797
0.00107011
0.00106228
0.00105447
0.00104669
0.00103893
0.00103118
0.00102345
0.00101574
0.00100803
0.00100034
0.000992652
0.000984966
0.000977279
0.000969588
0.000961889
0.000954179
0.000946455
0.000938712
0.000930947
0.000923157
0.000915337
0.000907482
0.000899588
0.00089165
0.000883663
0.000875625
0.00086753
0.000859375
0.000851155
0.000842867
0.000834505
0.000826065
0.000817542
0.000808931
0.000800228
0.000791426
0.00078252
0.000773502
0.000764365
0.000755102
0.000745704
0.000736162
0.000726471
0.000716623
0.000706609
0.000696418
0.000686037
0.000675454
0.000664654
0.000653618
0.000642327
0.000630758
0.000618886
0.000606679
0.000594105
0.000581122
0.000567684
0.000553736
0.000539212
0.000524037
0.000508117
0.000491339
0.000473568
0.000454635
0.000434334
0.000412405
0.000388521
0.000362267
0.000333112
0.000300371
0.000263151
0.000220342
0.000170553
0.000112452
4.74917e-05
2.00787e-06
1.86737e-05
0.000136708
0.000277774
0.000404952
0.00051561
0.000611747
0.000695822
0.00077002
0.000836134
0.000895595
0.000949536
0.000998849
0.00104424
0.00108628
0.00112541
0.001162
0.00119634
0.00122868
0.00125921
0.00128809
0.00131547
0.00134147
0.00136618
0.00138968
0.00141206
0.00143337
0.00145367
0.001473
0.00149141
0.00150895
0.00152563
0.0015415
0.00155657
0.00157089
0.00158446
0.00159731
0.00160947
0.00162094
0.00163175
0.00164192
0.00165145
0.00166037
0.00166868
0.00167641
0.00168356
0.00169015
0.00169619
0.00170169
0.00170666
0.00171111
0.00171506
0.00171852
0.00172149
0.00172399
0.00172602
0.0017276
0.00172873
0.00172943
0.0017297
0.00172956
0.001729
0.00172804
0.00172669
0.00172496
0.00172285
0.00172039
0.00171757
0.00171441
0.00171093
0.00170712
0.001703
0.00169858
0.00169387
0.00168888
0.00168362
0.00167809
0.00167231
0.00166629
0.00166003
0.00165355
0.00164685
0.00163994
0.00163284
0.00162555
0.00161808
0.00161044
0.00160264
0.00159468
0.00158658
0.00157835
0.00156999
0.00156152
0.00155293
0.00154424
0.00153546
0.0015266
0.00151766
0.00150865
0.00149957
0.00149044
0.00148126
0.00147204
0.00146279
0.00145351
0.0014442
0.00143487