/*--------------------------------*- C++ -*----------------------------------*\
  =========                 |
  \\      /  F ield         | OpenFOAM: The Open Source CFD Toolbox
   \\    /   O peration     | Website:  https://openfoam.org
    \\  /    A nd           | Version:  8
     \\/     M anipulation  |
\*---------------------------------------------------------------------------*/
FoamFile
{
    version     2.0;
    format      ascii;
    class       surfaceScalarField;
    location    "3300";
    object      phi;
}
// * * * * * * * * * * * * * * * * * * * * * * * * * * * * * * * * * * * * * //

dimensions      [1 0 -1 0 0 0 0];

internalField   nonuniform List<scalar> 
114370
(
5.11565e-10
1.39562e-13
-5.11704e-10
1.30895e-09
5.16463e-14
-7.99693e-10
1.99847e-09
2.44043e-14
-6.90744e-10
2.41842e-09
1.41424e-14
-4.20839e-10
2.56251e-09
9.94234e-15
-1.44835e-10
2.46598e-09
7.94123e-15
9.58744e-11
2.17276e-09
7.03165e-15
2.92637e-10
1.72369e-09
6.65386e-15
4.48544e-10
1.15258e-09
6.41795e-15
5.70629e-10
4.86365e-10
6.14803e-15
6.65776e-10
-2.53434e-10
5.77188e-15
7.39394e-10
-1.04929e-09
5.28906e-15
7.95485e-10
-1.88745e-09
4.82774e-15
8.37811e-10
-2.75737e-09
4.4575e-15
8.6961e-10
-3.65064e-09
4.16068e-15
8.92976e-10
-4.56045e-09
3.93618e-15
9.09543e-10
-5.48126e-09
3.77967e-15
9.20566e-10
-6.40851e-09
3.67824e-15
9.27023e-10
-7.33841e-09
3.61163e-15
9.2968e-10
-8.26775e-09
3.55629e-15
9.29141e-10
-9.19382e-09
3.49543e-15
9.25883e-10
-1.01143e-08
3.41831e-15
9.20287e-10
-1.10271e-08
3.32189e-15
9.12655e-10
-1.19305e-08
3.20997e-15
9.03231e-10
-1.28229e-08
3.08754e-15
8.9221e-10
-1.37028e-08
2.96044e-15
8.79753e-10
-1.45689e-08
2.83129e-15
8.65989e-10
-1.54201e-08
2.70453e-15
8.51025e-10
-1.62552e-08
2.57961e-15
8.34952e-10
-1.70731e-08
2.45849e-15
8.17844e-10
-1.7873e-08
2.33997e-15
7.99767e-10
-1.86539e-08
2.22709e-15
7.80778e-10
-1.9415e-08
2.11941e-15
7.60928e-10
-2.01553e-08
2.01868e-15
7.40263e-10
-2.08743e-08
1.92629e-15
7.18827e-10
-2.1571e-08
1.8428e-15
6.96661e-10
-2.22449e-08
1.76928e-15
6.73804e-10
-2.28953e-08
1.70595e-15
6.50297e-10
-2.35216e-08
1.65314e-15
6.2618e-10
-2.41232e-08
1.60966e-15
6.01491e-10
-2.46995e-08
1.57376e-15
5.76272e-10
-2.52502e-08
1.54259e-15
5.50564e-10
-2.57747e-08
1.51379e-15
5.24408e-10
-2.62726e-08
1.48419e-15
4.97848e-10
-2.67436e-08
1.45117e-15
4.70928e-10
-2.71874e-08
1.41289e-15
4.43692e-10
-2.76037e-08
1.36849e-15
4.16186e-10
-2.79922e-08
1.31818e-15
3.88456e-10
-2.83529e-08
1.26261e-15
3.60549e-10
-2.86854e-08
1.20368e-15
3.32511e-10
-2.89899e-08
1.14345e-15
3.04391e-10
-2.92662e-08
1.08414e-15
2.76236e-10
-2.95144e-08
1.02781e-15
2.48093e-10
-2.97345e-08
9.76038e-16
2.20009e-10
-2.99266e-08
9.29848e-16
1.92031e-10
-3.00909e-08
8.89838e-16
1.64206e-10
-3.02276e-08
8.55196e-16
1.36579e-10
-3.03368e-08
8.25378e-16
1.09196e-10
-3.0419e-08
8.00222e-16
8.21013e-11
-3.04744e-08
7.78319e-16
5.53361e-11
-3.05035e-08
7.59506e-16
2.89379e-11
-3.05065e-08
7.42049e-16
2.94318e-12
-3.0484e-08
7.27953e-16
-2.26099e-11
-3.04363e-08
7.17543e-16
-4.76893e-11
-3.03642e-08
7.07079e-16
-7.2269e-11
-3.02679e-08
6.97916e-16
-9.63201e-11
-3.01482e-08
6.89891e-16
-1.19811e-10
-3.00056e-08
6.83439e-16
-1.4271e-10
-2.98407e-08
6.78179e-16
-1.6499e-10
-2.96541e-08
6.74545e-16
-1.86626e-10
-2.94466e-08
6.73297e-16
-2.07594e-10
-2.92189e-08
6.73512e-16
-2.27875e-10
-2.89715e-08
6.7633e-16
-2.47452e-10
-2.87053e-08
6.81749e-16
-2.66307e-10
-2.84209e-08
6.90096e-16
-2.84428e-10
-2.81192e-08
7.01967e-16
-3.01804e-10
-2.78009e-08
7.16765e-16
-3.18424e-10
-2.74667e-08
7.34978e-16
-3.34282e-10
-2.71175e-08
7.56823e-16
-3.49371e-10
-2.67539e-08
7.82409e-16
-3.63689e-10
-2.63768e-08
8.11248e-16
-3.77232e-10
-2.59869e-08
8.43989e-16
-3.90002e-10
-2.5585e-08
8.80309e-16
-4.01999e-10
-2.51719e-08
9.19664e-16
-4.13226e-10
-2.47483e-08
9.6173e-16
-4.2369e-10
-2.4315e-08
1.00748e-15
-4.33394e-10
-2.38728e-08
1.05562e-15
-4.42349e-10
-2.34223e-08
1.10625e-15
-4.50562e-10
-2.29644e-08
1.15894e-15
-4.58043e-10
-2.24997e-08
1.21423e-15
-4.64806e-10
-2.2029e-08
1.27094e-15
-4.70861e-10
-2.15529e-08
1.32894e-15
-4.76224e-10
-2.10721e-08
1.38901e-15
-4.80909e-10
-2.05873e-08
1.44961e-15
-4.84932e-10
-2.00992e-08
1.51195e-15
-4.8831e-10
-1.96082e-08
1.57538e-15
-4.9106e-10
-1.91152e-08
1.63945e-15
-4.932e-10
-1.86206e-08
1.70407e-15
-4.9475e-10
-1.8125e-08
1.76901e-15
-4.95728e-10
-1.7629e-08
1.83461e-15
-4.96155e-10
-1.71331e-08
1.90075e-15
-4.96051e-10
-1.66378e-08
1.96688e-15
-4.95437e-10
-1.61437e-08
2.0328e-15
-4.94333e-10
-1.56511e-08
2.09905e-15
-4.92762e-10
-1.51605e-08
2.16529e-15
-4.90743e-10
-1.46724e-08
2.23143e-15
-4.883e-10
-1.41871e-08
2.29691e-15
-4.85452e-10
-1.3705e-08
2.36153e-15
-4.82221e-10
-1.32266e-08
2.42594e-15
-4.78628e-10
-1.27521e-08
2.49045e-15
-4.74694e-10
-1.22818e-08
2.55312e-15
-4.7044e-10
-1.18161e-08
2.616e-15
-4.65884e-10
-1.13553e-08
2.6778e-15
-4.61048e-10
-1.08995e-08
2.73776e-15
-4.55949e-10
-1.04491e-08
2.79729e-15
-4.50607e-10
-1.00043e-08
2.85551e-15
-4.45039e-10
-9.56523e-09
2.91189e-15
-4.39261e-10
-9.13215e-09
2.96795e-15
-4.3329e-10
-8.70522e-09
3.02172e-15
-4.27141e-10
-8.2846e-09
3.07344e-15
-4.20829e-10
-7.87045e-09
3.12419e-15
-4.14366e-10
-7.46291e-09
3.17244e-15
-4.07764e-10
-7.0621e-09
3.21841e-15
-4.01034e-10
-6.66813e-09
3.26221e-15
-3.94187e-10
-6.28113e-09
3.30407e-15
-3.8723e-10
-5.90119e-09
3.34202e-15
-3.80171e-10
-5.52841e-09
3.37791e-15
-3.73015e-10
-5.16287e-09
3.41131e-15
-3.65768e-10
-4.80467e-09
3.44167e-15
-3.58433e-10
-4.4539e-09
3.46964e-15
-3.51011e-10
-4.11064e-09
3.49458e-15
-3.43503e-10
-3.77497e-09
3.51735e-15
-3.35907e-10
-3.44699e-09
3.53731e-15
-3.28223e-10
-3.12679e-09
3.55271e-15
-3.20446e-10
-2.81447e-09
3.56463e-15
-3.12571e-10
-2.51013e-09
3.57374e-15
-3.04592e-10
-2.21388e-09
3.57895e-15
-2.96503e-10
-1.92584e-09
3.58155e-15
-2.88294e-10
-1.64613e-09
3.58134e-15
-2.79956e-10
-1.37491e-09
3.57679e-15
-2.71481e-10
-1.11231e-09
3.57007e-15
-2.62856e-10
-8.58492e-10
3.55749e-15
-2.54072e-10
-6.13631e-10
3.54101e-15
-2.45119e-10
-3.77898e-10
3.52063e-15
-2.35993e-10
-1.51439e-10
3.49547e-15
-2.26719e-10
6.55664e-11
3.456e-15
-2.17266e-10
2.72849e-10
3.40157e-15
-2.07544e-10
4.70134e-10
3.34389e-15
-1.97546e-10
6.57178e-10
3.29293e-15
-1.87304e-10
8.33731e-10
3.24284e-15
-1.76812e-10
9.99535e-10
3.19426e-15
-1.66063e-10
1.15433e-09
3.14395e-15
-1.55052e-10
1.29785e-09
3.09493e-15
-1.43774e-10
1.42982e-09
3.04592e-15
-1.32227e-10
1.54997e-09
2.99842e-15
-1.20411e-10
1.65805e-09
2.95092e-15
-1.08329e-10
1.75378e-09
2.90255e-15
-9.59888e-11
1.83693e-09
2.85505e-15
-8.3399e-11
1.90725e-09
2.80711e-15
-7.05743e-11
1.96453e-09
2.76003e-15
-5.7533e-11
2.00858e-09
2.71599e-15
-4.42983e-11
2.03923e-09
2.67347e-15
-3.08991e-11
2.05635e-09
2.63246e-15
-1.73702e-11
2.05985e-09
2.59167e-15
-3.75357e-12
2.04969e-09
2.55886e-15
9.91907e-12
2.02583e-09
2.53584e-15
2.36099e-11
1.98832e-09
2.51477e-15
3.72604e-11
1.93727e-09
2.49717e-15
5.08091e-11
1.87284e-09
2.48195e-15
6.41879e-11
1.79527e-09
2.47193e-15
7.73214e-11
1.7049e-09
2.46646e-15
9.01276e-11
1.60214e-09
2.46836e-15
1.02516e-10
1.48751e-09
2.47373e-15
1.1439e-10
1.36162e-09
2.48907e-15
1.25642e-10
1.22522e-09
2.51504e-15
1.36156e-10
1.07917e-09
2.55552e-15
1.45807e-10
9.24465e-10
2.61011e-15
1.54455e-10
7.62265e-10
2.67943e-15
1.61953e-10
5.93882e-10
2.76306e-15
1.68134e-10
4.20812e-10
2.85537e-15
1.72819e-10
2.44753e-10
2.94768e-15
1.75806e-10
6.76205e-11
3.03174e-15
1.76876e-10
-1.08381e-10
3.08372e-15
1.75742e-10
-2.80735e-10
3.10448e-15
1.72091e-10
-4.46627e-10
3.11918e-15
1.65626e-10
-6.0293e-10
3.14343e-15
1.56035e-10
-7.46118e-10
3.18894e-15
1.42916e-10
-8.72164e-10
3.27263e-15
1.2577e-10
-9.76533e-10
3.39232e-15
1.04088e-10
-1.05413e-09
3.53068e-15
7.73088e-11
-1.0993e-09
3.66559e-15
4.48713e-11
-1.10592e-09
3.79144e-15
6.31728e-12
-1.06781e-09
3.9201e-15
-3.84275e-11
-9.7941e-10
4.11544e-15
-8.87264e-11
-8.37252e-10
4.45571e-15
-1.42505e-10
-6.43161e-10
4.98474e-15
-1.94459e-10
-4.10686e-10
5.72946e-15
-2.32871e-10
-1.77845e-10
6.493e-15
-2.33275e-10
-2.00239e-11
7.94237e-15
-1.58316e-10
4.49702e-15
-2.05852e-11
5.11172e-10
-5.12032e-10
1.30879e-09
-7.99916e-10
1.9984e-09
-6.90875e-10
2.41837e-09
-4.20938e-10
2.56247e-09
-1.44918e-10
2.46594e-09
9.58018e-11
2.17273e-09
2.92572e-10
1.72366e-09
4.48485e-10
1.15256e-09
5.70576e-10
4.86343e-10
6.65727e-10
-2.53453e-10
7.39349e-10
-1.04931e-09
7.95444e-10
-1.88746e-09
8.37773e-10
-2.75738e-09
8.69575e-10
-3.65064e-09
8.92944e-10
-4.56045e-09
9.09513e-10
-5.48125e-09
9.20538e-10
-6.4085e-09
9.26996e-10
-7.33839e-09
9.29655e-10
-8.26773e-09
9.29117e-10
-9.1938e-09
9.25861e-10
-1.01143e-08
9.20266e-10
-1.10271e-08
9.12634e-10
-1.19305e-08
9.03211e-10
-1.28228e-08
8.92191e-10
-1.37027e-08
8.79734e-10
-1.45689e-08
8.65971e-10
-1.542e-08
8.51008e-10
-1.62551e-08
8.34935e-10
-1.70731e-08
8.17828e-10
-1.7873e-08
7.99751e-10
-1.86539e-08
7.80763e-10
-1.94149e-08
7.60913e-10
-2.01553e-08
7.40249e-10
-2.08742e-08
7.18813e-10
-2.1571e-08
6.96647e-10
-2.22449e-08
6.73791e-10
-2.28953e-08
6.50284e-10
-2.35215e-08
6.26167e-10
-2.41231e-08
6.01479e-10
-2.46995e-08
5.7626e-10
-2.52501e-08
5.50551e-10
-2.57746e-08
5.24396e-10
-2.62726e-08
4.97836e-10
-2.67436e-08
4.70916e-10
-2.71874e-08
4.4368e-10
-2.76036e-08
4.16174e-10
-2.79922e-08
3.88443e-10
-2.83528e-08
3.60536e-10
-2.86854e-08
3.32499e-10
-2.89899e-08
3.04379e-10
-2.92662e-08
2.76223e-10
-2.95143e-08
2.4808e-10
-2.97344e-08
2.19996e-10
-2.99265e-08
1.92018e-10
-3.00908e-08
1.64192e-10
-3.02275e-08
1.36566e-10
-3.03368e-08
1.09183e-10
-3.0419e-08
8.20879e-11
-3.04744e-08
5.53226e-11
-3.05034e-08
2.89242e-11
-3.05064e-08
2.92936e-12
-3.04839e-08
-2.26239e-11
-3.04363e-08
-4.77035e-11
-3.03641e-08
-7.22834e-11
-3.02679e-08
-9.63347e-11
-3.01481e-08
-1.19825e-10
-3.00055e-08
-1.42725e-10
-2.98406e-08
-1.65005e-10
-2.96541e-08
-1.86641e-10
-2.94466e-08
-2.0761e-10
-2.92188e-08
-2.27891e-10
-2.89714e-08
-2.47468e-10
-2.87052e-08
-2.66324e-10
-2.84209e-08
-2.84445e-10
-2.81192e-08
-3.01821e-10
-2.78009e-08
-3.18442e-10
-2.74667e-08
-3.343e-10
-2.71174e-08
-3.49389e-10
-2.67538e-08
-3.63707e-10
-2.63767e-08
-3.77251e-10
-2.59868e-08
-3.90021e-10
-2.55849e-08
-4.02018e-10
-2.51718e-08
-4.13246e-10
-2.47482e-08
-4.23709e-10
-2.43149e-08
-4.33415e-10
-2.38727e-08
-4.42369e-10
-2.34223e-08
-4.50583e-10
-2.29644e-08
-4.58065e-10
-2.24997e-08
-4.64828e-10
-2.20289e-08
-4.70884e-10
-2.15528e-08
-4.76247e-10
-2.10721e-08
-4.80933e-10
-2.05873e-08
-4.84956e-10
-2.00991e-08
-4.88334e-10
-1.96082e-08
-4.91084e-10
-1.91151e-08
-4.93225e-10
-1.86205e-08
-4.94775e-10
-1.8125e-08
-4.95754e-10
-1.7629e-08
-4.96181e-10
-1.71331e-08
-4.96078e-10
-1.66378e-08
-4.95464e-10
-1.61436e-08
-4.94361e-10
-1.5651e-08
-4.9279e-10
-1.51604e-08
-4.90772e-10
-1.46723e-08
-4.88328e-10
-1.4187e-08
-4.85481e-10
-1.3705e-08
-4.8225e-10
-1.32266e-08
-4.78658e-10
-1.2752e-08
-4.74725e-10
-1.22818e-08
-4.70471e-10
-1.18161e-08
-4.65916e-10
-1.13552e-08
-4.6108e-10
-1.08995e-08
-4.55982e-10
-1.04491e-08
-4.5064e-10
-1.00043e-08
-4.45072e-10
-9.5652e-09
-4.39294e-10
-9.13211e-09
-4.33324e-10
-8.70518e-09
-4.27176e-10
-8.28457e-09
-4.20863e-10
-7.87042e-09
-4.144e-10
-7.46288e-09
-4.07799e-10
-7.06206e-09
-4.0107e-10
-6.6681e-09
-3.94223e-10
-6.2811e-09
-3.87266e-10
-5.90116e-09
-3.80207e-10
-5.52837e-09
-3.73052e-10
-5.16284e-09
-3.65805e-10
-4.80464e-09
-3.5847e-10
-4.45387e-09
-3.51048e-10
-4.11061e-09
-3.43541e-10
-3.77494e-09
-3.35946e-10
-3.44696e-09
-3.28261e-10
-3.12676e-09
-3.20484e-10
-2.81444e-09
-3.1261e-10
-2.5101e-09
-3.04631e-10
-2.21385e-09
-2.96542e-10
-1.92581e-09
-2.88333e-10
-1.6461e-09
-2.79996e-10
-1.37488e-09
-2.7152e-10
-1.11228e-09
-2.62896e-10
-8.58462e-10
-2.54112e-10
-6.13602e-10
-2.45159e-10
-3.77868e-10
-2.36033e-10
-1.5141e-10
-2.26759e-10
6.55958e-11
-2.17306e-10
2.72878e-10
-2.07583e-10
4.70164e-10
-1.97586e-10
6.57208e-10
-1.87344e-10
8.33761e-10
-1.76852e-10
9.99565e-10
-1.66103e-10
1.15436e-09
-1.55091e-10
1.29788e-09
-1.43813e-10
1.42985e-09
-1.32266e-10
1.55e-09
-1.2045e-10
1.65808e-09
-1.08368e-10
1.75381e-09
-9.60273e-11
1.83696e-09
-8.34374e-11
1.90728e-09
-7.06125e-11
1.96456e-09
-5.7571e-11
2.00861e-09
-4.43362e-11
2.03926e-09
-3.09369e-11
2.05638e-09
-1.74078e-11
2.05988e-09
-3.791e-12
2.04972e-09
9.88178e-12
2.02586e-09
2.35727e-11
1.98835e-09
3.72232e-11
1.9373e-09
5.07721e-11
1.87287e-09
6.41509e-11
1.7953e-09
7.72845e-11
1.70493e-09
9.00906e-11
1.60217e-09
1.02479e-10
1.48753e-09
1.14353e-10
1.36164e-09
1.25605e-10
1.22524e-09
1.36119e-10
1.07919e-09
1.45769e-10
9.24486e-10
1.54418e-10
7.62285e-10
1.61915e-10
5.93901e-10
1.68096e-10
4.2083e-10
1.7278e-10
2.44769e-10
1.75767e-10
6.76352e-11
1.76836e-10
-1.08368e-10
1.75702e-10
-2.80723e-10
1.7205e-10
-4.46616e-10
1.65585e-10
-6.02922e-10
1.55993e-10
-7.46111e-10
1.42873e-10
-8.72159e-10
1.25727e-10
-9.7653e-10
1.04043e-10
-1.05413e-09
7.72622e-11
-1.0993e-09
4.48226e-11
-1.10592e-09
6.26613e-12
-1.06781e-09
-3.84815e-11
-9.79416e-10
-8.87836e-11
-8.3726e-10
-1.42566e-10
-6.43171e-10
-1.94525e-10
-4.10699e-10
-2.32942e-10
-1.77868e-10
-2.33352e-10
-2.00686e-11
-1.58397e-10
-2.06611e-11
8.05624e-10
5.26957e-14
-1.31952e-09
1.30864e-09
-1.61573e-15
-1.30494e-09
1.55385e-09
-3.51571e-15
-9.36989e-10
1.60458e-09
-4.28043e-15
-4.72378e-10
1.48258e-09
-4.13296e-15
-2.35302e-11
1.20809e-09
-3.76308e-15
3.69766e-10
8.02e-10
-3.2681e-15
6.98181e-10
2.84576e-10
-2.75233e-15
9.65476e-10
-3.25146e-10
-2.29292e-15
1.1799e-09
-1.00998e-09
-1.91991e-15
1.3502e-09
-1.75525e-09
-1.62831e-15
1.48428e-09
-2.54882e-09
-1.39043e-15
1.5887e-09
-3.38045e-09
-1.18306e-15
1.66912e-09
-4.24142e-09
-9.9569e-16
1.73029e-09
-5.1245e-09
-8.21327e-16
1.77578e-09
-6.02364e-09
-6.59538e-16
1.80843e-09
-6.93377e-09
-5.10647e-16
1.83045e-09
-7.8506e-09
-3.77693e-16
1.84363e-09
-8.77051e-09
-2.64225e-16
1.84938e-09
-9.69039e-09
-1.73416e-16
1.84882e-09
-1.06075e-08
-1.06376e-16
1.84285e-09
-1.15196e-08
-6.13715e-17
1.83221e-09
-1.24246e-08
-3.4987e-17
1.81748e-09
-1.33207e-08
-2.20457e-17
1.79914e-09
-1.42062e-08
-1.85089e-17
1.77758e-09
-1.50797e-08
-1.99045e-17
1.75311e-09
-1.59399e-08
-2.42536e-17
1.726e-09
-1.67855e-08
-2.90087e-17
1.69646e-09
-1.76154e-08
-3.37088e-17
1.66468e-09
-1.84285e-08
-3.70802e-17
1.63082e-09
-1.92238e-08
-3.91228e-17
1.59499e-09
-2.00005e-08
-3.91049e-17
1.55733e-09
-2.07576e-08
-3.6918e-17
1.51794e-09
-2.14944e-08
-3.25079e-17
1.4769e-09
-2.221e-08
-2.57122e-17
1.43432e-09
-2.29037e-08
-1.63952e-17
1.39027e-09
-2.35748e-08
-5.07201e-18
1.34483e-09
-2.42227e-08
8.09475e-18
1.29809e-09
-2.48468e-08
2.23732e-17
1.25013e-09
-2.54464e-08
3.69231e-17
1.20102e-09
-2.60211e-08
5.06331e-17
1.15084e-09
-2.65703e-08
6.2446e-17
1.09968e-09
-2.70936e-08
7.16301e-17
1.04762e-09
-2.75906e-08
7.72366e-17
9.94751e-10
-2.80609e-08
7.94823e-17
9.4115e-10
-2.85042e-08
7.83402e-17
8.86911e-10
-2.89202e-08
7.46776e-17
8.32123e-10
-2.93087e-08
6.92533e-17
7.76878e-10
-2.96696e-08
6.28535e-17
7.21267e-10
-3.00025e-08
5.6725e-17
6.65383e-10
-3.03075e-08
5.15453e-17
6.09321e-10
-3.05846e-08
4.77752e-17
5.53174e-10
-3.08336e-08
4.5984e-17
4.97035e-10
-3.10547e-08
4.60902e-17
4.40996e-10
-3.12479e-08
4.79313e-17
3.85151e-10
-3.14134e-08
5.12634e-17
3.29591e-10
-3.15513e-08
5.57339e-17
2.74404e-10
-3.16619e-08
6.07195e-17
2.19679e-10
-3.17454e-08
6.60847e-17
1.655e-10
-3.18021e-08
7.12874e-17
1.11951e-10
-3.18323e-08
7.63817e-17
5.9109e-11
-3.18365e-08
8.15845e-17
7.05009e-12
-3.18151e-08
8.573e-17
-4.41556e-11
-3.17684e-08
8.89542e-17
-9.44427e-11
-3.1697e-08
9.23411e-17
-1.43747e-10
-3.16014e-08
9.55384e-17
-1.92006e-10
-3.14822e-08
9.82748e-17
-2.3916e-10
-3.13398e-08
1.00794e-16
-2.85152e-10
-3.1175e-08
1.03016e-16
-3.29929e-10
-3.09883e-08
1.05156e-16
-3.73442e-10
-3.07803e-08
1.07269e-16
-4.15648e-10
-3.05518e-08
1.09328e-16
-4.56506e-10
-3.03034e-08
1.11496e-16
-4.95981e-10
-3.00358e-08
1.13636e-16
-5.34041e-10
-2.97496e-08
1.15912e-16
-5.70661e-10
-2.94457e-08
1.18377e-16
-6.05816e-10
-2.91248e-08
1.20816e-16
-6.39487e-10
-2.87875e-08
1.23525e-16
-6.7166e-10
-2.84347e-08
1.26045e-16
-7.02322e-10
-2.8067e-08
1.28375e-16
-7.31465e-10
-2.76853e-08
1.30623e-16
-7.59086e-10
-2.72902e-08
1.32655e-16
-7.85184e-10
-2.68826e-08
1.34335e-16
-8.0976e-10
-2.64631e-08
1.35499e-16
-8.32822e-10
-2.60326e-08
1.3604e-16
-8.54376e-10
-2.55917e-08
1.36202e-16
-8.74435e-10
-2.51411e-08
1.35523e-16
-8.93014e-10
-2.46817e-08
1.34113e-16
-9.1013e-10
-2.42141e-08
1.31889e-16
-9.25802e-10
-2.3739e-08
1.29205e-16
-9.40052e-10
-2.32571e-08
1.25409e-16
-9.52905e-10
-2.2769e-08
1.20664e-16
-9.64387e-10
-2.22756e-08
1.15161e-16
-9.74526e-10
-2.17773e-08
1.08845e-16
-9.83353e-10
-2.12749e-08
1.01742e-16
-9.909e-10
-2.07689e-08
9.37995e-17
-9.972e-10
-2.026e-08
8.51792e-17
-1.00229e-09
-1.97487e-08
7.56102e-17
-1.0062e-09
-1.92356e-08
6.52282e-17
-1.00897e-09
-1.87213e-08
5.44125e-17
-1.01064e-09
-1.82063e-08
4.27295e-17
-1.01125e-09
-1.7691e-08
3.05587e-17
-1.01084e-09
-1.71761e-08
1.74934e-17
-1.00944e-09
-1.6662e-08
3.96741e-18
-1.0071e-09
-1.6149e-08
-1.00735e-17
-1.00386e-09
-1.56377e-08
-2.46836e-17
-9.99757e-10
-1.51286e-08
-3.98628e-17
-9.94836e-10
-1.46218e-08
-5.54485e-17
-9.89134e-10
-1.4118e-08
-7.15491e-17
-9.82693e-10
-1.36173e-08
-8.81647e-17
-9.75552e-10
-1.31202e-08
-1.0478e-16
-9.67751e-10
-1.2627e-08
-1.22019e-16
-9.59326e-10
-1.21379e-08
-1.39664e-16
-9.50316e-10
-1.16533e-08
-1.57553e-16
-9.40757e-10
-1.11734e-08
-1.75768e-16
-9.30684e-10
-1.06986e-08
-1.9409e-16
-9.20131e-10
-1.02289e-08
-2.12657e-16
-9.0913e-10
-9.7647e-09
-2.31196e-16
-8.97712e-10
-9.30616e-09
-2.50169e-16
-8.85905e-10
-8.85347e-09
-2.69196e-16
-8.73738e-10
-8.40683e-09
-2.88223e-16
-8.61235e-10
-7.9664e-09
-3.07359e-16
-8.48418e-10
-7.53236e-09
-3.26602e-16
-8.3531e-10
-7.10485e-09
-3.45846e-16
-8.21929e-10
-6.68403e-09
-3.65198e-16
-8.08291e-10
-6.27003e-09
-3.84279e-16
-7.9441e-10
-5.86298e-09
-4.03522e-16
-7.80296e-10
-5.46304e-09
-4.22549e-16
-7.6596e-10
-5.07031e-09
-4.41196e-16
-7.51406e-10
-4.68492e-09
-4.59518e-16
-7.36638e-10
-4.30702e-09
-4.77786e-16
-7.21657e-10
-3.93671e-09
-4.95403e-16
-7.0646e-10
-3.57414e-09
-5.12912e-16
-6.91044e-10
-3.21944e-09
-5.30042e-16
-6.754e-10
-2.87274e-09
-5.47009e-16
-6.5952e-10
-2.5342e-09
-5.63488e-16
-6.43391e-10
-2.20396e-09
-5.79697e-16
-6.26999e-10
-1.88218e-09
-5.94876e-16
-6.10327e-10
-1.56904e-09
-6.0935e-16
-5.93357e-10
-1.26471e-09
-6.23445e-16
-5.76071e-10
-9.69376e-10
-6.37215e-16
-5.58448e-10
-6.83241e-10
-6.50769e-16
-5.40468e-10
-4.06507e-10
-6.63402e-16
-5.22113e-10
-1.3938e-10
-6.75547e-16
-5.03382e-10
1.17893e-10
-6.87638e-16
-4.84253e-10
3.65013e-10
-6.99675e-16
-4.64648e-10
6.01714e-10
-7.07918e-16
-4.44507e-10
8.27736e-10
-7.12639e-16
-4.23829e-10
1.04279e-09
-7.15897e-16
-4.02619e-10
1.24658e-09
-7.18125e-16
-3.80861e-10
1.4388e-09
-7.19541e-16
-3.58542e-10
1.61914e-09
-7.202e-16
-3.3565e-10
1.78728e-09
-7.19666e-16
-3.12177e-10
1.94292e-09
-7.1805e-16
-2.88116e-10
2.08572e-09
-7.15676e-16
-2.63468e-10
2.21537e-09
-7.12815e-16
-2.3824e-10
2.33157e-09
-7.09522e-16
-2.12443e-10
2.43402e-09
-7.05688e-16
-1.86096e-10
2.52242e-09
-7.01259e-16
-1.59228e-10
2.59651e-09
-6.96127e-16
-1.31873e-10
2.65604e-09
-6.9013e-16
-1.04078e-10
2.70079e-09
-6.83375e-16
-7.58956e-11
2.73056e-09
-6.75484e-16
-4.73927e-11
2.74521e-09
-6.66943e-16
-1.86453e-11
2.74461e-09
-6.5764e-16
1.02673e-11
2.72872e-09
-6.47748e-16
3.92557e-11
2.69752e-09
-6.3672e-16
6.82108e-11
2.65108e-09
-6.25424e-16
9.70091e-11
2.58951e-09
-6.13643e-16
1.25514e-10
2.51301e-09
-6.02082e-16
1.53573e-10
2.42188e-09
-5.90306e-16
1.81021e-10
2.31647e-09
-5.78154e-16
2.07676e-10
2.19728e-09
-5.66112e-16
2.33338e-10
2.06488e-09
-5.53423e-16
2.57792e-10
1.91999e-09
-5.3949e-16
2.80801e-10
1.76344e-09
-5.2415e-16
3.0211e-10
1.59621e-09
-5.08054e-16
3.21439e-10
1.41943e-09
-4.91635e-16
3.38485e-10
1.2344e-09
-4.75543e-16
3.52917e-10
1.04259e-09
-4.60863e-16
3.64372e-10
8.45688e-10
-4.50739e-16
3.72449e-10
6.45597e-10
-4.46796e-16
3.76706e-10
4.44443e-10
-4.48493e-16
3.76631e-10
2.44606e-10
-4.53442e-16
3.71661e-10
4.87471e-11
-4.58174e-16
3.61214e-10
-1.40112e-10
-4.61602e-16
3.44618e-10
-3.18597e-10
-4.57977e-16
3.21121e-10
-4.83031e-10
-4.47188e-16
2.89917e-10
-6.29363e-10
-4.35197e-16
2.50126e-10
-7.53164e-10
-4.29484e-16
2.00806e-10
-8.49658e-10
-4.39909e-16
1.4105e-10
-9.13814e-10
-4.64954e-16
7.01449e-11
-9.40469e-10
-4.90547e-16
-1.21163e-11
-9.24731e-10
-4.93832e-16
-1.04829e-10
-8.62569e-10
-4.5127e-16
-2.05055e-10
-7.516e-10
-3.53368e-16
-3.05851e-10
-5.92316e-10
-1.68882e-16
-3.92626e-10
-3.89407e-10
1.12922e-16
-4.36735e-10
-1.61604e-10
9.89885e-16
-3.86814e-10
-1.85603e-15
-1.82679e-10
8.05367e-10
-1.31963e-09
1.30856e-09
-1.30499e-09
1.5538e-09
-9.37009e-10
1.60454e-09
-4.72387e-10
1.48255e-09
-2.35351e-11
1.20806e-09
3.69762e-10
8.01979e-10
6.98177e-10
2.8456e-10
9.65472e-10
-3.25158e-10
1.1799e-09
-1.00999e-09
1.35019e-09
-1.75526e-09
1.48428e-09
-2.54882e-09
1.5887e-09
-3.38044e-09
1.66911e-09
-4.24142e-09
1.73028e-09
-5.12449e-09
1.77578e-09
-6.02363e-09
1.80842e-09
-6.93375e-09
1.83045e-09
-7.85058e-09
1.84363e-09
-8.77049e-09
1.84937e-09
-9.69036e-09
1.84881e-09
-1.06075e-08
1.84285e-09
-1.15196e-08
1.8322e-09
-1.24246e-08
1.81747e-09
-1.33207e-08
1.79913e-09
-1.42062e-08
1.77757e-09
-1.50797e-08
1.75311e-09
-1.59399e-08
1.726e-09
-1.67854e-08
1.69646e-09
-1.76153e-08
1.66468e-09
-1.84284e-08
1.63081e-09
-1.92238e-08
1.59499e-09
-2.00004e-08
1.55733e-09
-2.07576e-08
1.51793e-09
-2.14943e-08
1.4769e-09
-2.22099e-08
1.43431e-09
-2.29036e-08
1.39026e-09
-2.35748e-08
1.34483e-09
-2.42227e-08
1.29809e-09
-2.48467e-08
1.25012e-09
-2.54463e-08
1.20101e-09
-2.6021e-08
1.15084e-09
-2.65702e-08
1.09968e-09
-2.70935e-08
1.04762e-09
-2.75905e-08
9.94747e-10
-2.80608e-08
9.41147e-10
-2.85041e-08
8.86908e-10
-2.89202e-08
8.3212e-10
-2.93087e-08
7.76874e-10
-2.96695e-08
7.21264e-10
-3.00025e-08
6.6538e-10
-3.03075e-08
6.09318e-10
-3.05845e-08
5.53171e-10
-3.08335e-08
4.97031e-10
-3.10546e-08
4.40993e-10
-3.12478e-08
3.85148e-10
-3.14133e-08
3.29587e-10
-3.15512e-08
2.74401e-10
-3.16618e-08
2.19675e-10
-3.17453e-08
1.65497e-10
-3.1802e-08
1.11948e-10
-3.18323e-08
5.91054e-11
-3.18365e-08
7.04646e-12
-3.1815e-08
-4.41592e-11
-3.17683e-08
-9.44464e-11
-3.1697e-08
-1.4375e-10
-3.16014e-08
-1.9201e-10
-3.14821e-08
-2.39164e-10
-3.13398e-08
-2.85156e-10
-3.11749e-08
-3.29933e-10
-3.09882e-08
-3.73446e-10
-3.07803e-08
-4.15652e-10
-3.05518e-08
-4.5651e-10
-3.03033e-08
-4.95985e-10
-3.00357e-08
-5.34045e-10
-2.97496e-08
-5.70665e-10
-2.94457e-08
-6.0582e-10
-2.91247e-08
-6.39491e-10
-2.87875e-08
-6.71664e-10
-2.84346e-08
-7.02326e-10
-2.8067e-08
-7.3147e-10
-2.76852e-08
-7.59091e-10
-2.72902e-08
-7.85188e-10
-2.68825e-08
-8.09765e-10
-2.64631e-08
-8.32826e-10
-2.60325e-08
-8.54381e-10
-2.55916e-08
-8.7444e-10
-2.51411e-08
-8.93019e-10
-2.46816e-08
-9.10135e-10
-2.4214e-08
-9.25806e-10
-2.37389e-08
-9.40057e-10
-2.3257e-08
-9.5291e-10
-2.2769e-08
-9.64392e-10
-2.22755e-08
-9.74531e-10
-2.17773e-08
-9.83358e-10
-2.12748e-08
-9.90905e-10
-2.07688e-08
-9.97205e-10
-2.02599e-08
-1.00229e-09
-1.97486e-08
-1.0062e-09
-1.92356e-08
-1.00898e-09
-1.87212e-08
-1.01065e-09
-1.82062e-08
-1.01125e-09
-1.7691e-08
-1.01084e-09
-1.71761e-08
-1.00944e-09
-1.66619e-08
-1.0071e-09
-1.6149e-08
-1.00386e-09
-1.56377e-08
-9.99763e-10
-1.51285e-08
-9.94841e-10
-1.46218e-08
-9.8914e-10
-1.41179e-08
-9.82699e-10
-1.36173e-08
-9.75558e-10
-1.31202e-08
-9.67756e-10
-1.26269e-08
-9.59332e-10
-1.21379e-08
-9.50322e-10
-1.16533e-08
-9.40763e-10
-1.11734e-08
-9.3069e-10
-1.06985e-08
-9.20137e-10
-1.02289e-08
-9.09136e-10
-9.76466e-09
-8.97717e-10
-9.30612e-09
-8.85911e-10
-8.85344e-09
-8.73744e-10
-8.4068e-09
-8.6124e-10
-7.96637e-09
-8.48424e-10
-7.53233e-09
-8.35316e-10
-7.10482e-09
-8.21935e-10
-6.68399e-09
-8.08297e-10
-6.26999e-09
-7.94416e-10
-5.86295e-09
-7.80302e-10
-5.463e-09
-7.65966e-10
-5.07028e-09
-7.51412e-10
-4.68489e-09
-7.36644e-10
-4.30699e-09
-7.21663e-10
-3.93668e-09
-7.06466e-10
-3.57411e-09
-6.9105e-10
-3.21941e-09
-6.75407e-10
-2.87272e-09
-6.59526e-10
-2.53417e-09
-6.43397e-10
-2.20393e-09
-6.27005e-10
-1.88215e-09
-6.10333e-10
-1.56901e-09
-5.93364e-10
-1.26468e-09
-5.76077e-10
-9.69348e-10
-5.58454e-10
-6.83213e-10
-5.40474e-10
-4.06479e-10
-5.22119e-10
-1.39352e-10
-5.03388e-10
1.1792e-10
-4.84259e-10
3.65041e-10
-4.64655e-10
6.01742e-10
-4.44513e-10
8.27764e-10
-4.23835e-10
1.04282e-09
-4.02625e-10
1.24661e-09
-3.80867e-10
1.43883e-09
-3.58548e-10
1.61917e-09
-3.35657e-10
1.78731e-09
-3.12183e-10
1.94295e-09
-2.88122e-10
2.08575e-09
-2.63474e-10
2.2154e-09
-2.38246e-10
2.3316e-09
-2.12449e-10
2.43405e-09
-1.86102e-10
2.52245e-09
-1.59234e-10
2.59654e-09
-1.31879e-10
2.65607e-09
-1.04084e-10
2.70081e-09
-7.59014e-11
2.73059e-09
-4.73985e-11
2.74523e-09
-1.8651e-11
2.74464e-09
1.02616e-11
2.72875e-09
3.92502e-11
2.69755e-09
6.82053e-11
2.6511e-09
9.70037e-11
2.58953e-09
1.25508e-10
2.51304e-09
1.53568e-10
2.4219e-09
1.81016e-10
2.3165e-09
2.07671e-10
2.1973e-09
2.33333e-10
2.06491e-09
2.57787e-10
1.92002e-09
2.80796e-10
1.76347e-09
3.02105e-10
1.59623e-09
3.21434e-10
1.41945e-09
3.38481e-10
1.23441e-09
3.52913e-10
1.0426e-09
3.64367e-10
8.45703e-10
3.72444e-10
6.45611e-10
3.76701e-10
4.44456e-10
3.76626e-10
2.44618e-10
3.71656e-10
4.87576e-11
3.61209e-10
-1.40102e-10
3.44613e-10
-3.1859e-10
3.21115e-10
-4.83025e-10
2.89911e-10
-6.29358e-10
2.50119e-10
-7.53161e-10
2.00798e-10
-8.49656e-10
1.41041e-10
-9.13814e-10
7.01341e-11
-9.40471e-10
-1.21289e-11
-9.24734e-10
-1.04844e-10
-8.62574e-10
-2.05073e-10
-7.51608e-10
-3.05872e-10
-5.92326e-10
-3.92651e-10
-3.89428e-10
-4.36764e-10
-1.61653e-10
-3.86844e-10
-1.82705e-10
6.71658e-10
2.81824e-14
-1.99239e-09
9.13439e-10
-3.59075e-15
-1.54786e-09
9.0917e-10
-2.19906e-15
-9.33065e-10
7.57133e-10
-2.084e-15
-3.20586e-10
4.90031e-10
-1.80756e-15
2.43372e-10
1.22814e-10
-1.57373e-15
7.36812e-10
-3.34197e-10
-1.31848e-15
1.15504e-09
-8.71035e-10
-1.06487e-15
1.50218e-09
-1.47751e-09
-8.4514e-16
1.78626e-09
-2.14362e-09
-6.64488e-16
2.0162e-09
-2.85996e-09
-5.19149e-16
2.20051e-09
-3.61805e-09
-4.00506e-16
2.34669e-09
-4.41026e-09
-2.98503e-16
2.46124e-09
-5.22972e-09
-2.06689e-16
2.54967e-09
-6.07045e-09
-1.24171e-16
2.61643e-09
-6.92724e-09
-5.1572e-17
2.66514e-09
-7.79558e-09
1.05387e-17
2.69873e-09
-8.67157e-09
6.11849e-17
2.71955e-09
-9.55179e-09
9.95806e-17
2.72954e-09
-1.04333e-08
1.24777e-16
2.73024e-09
-1.13134e-08
1.36719e-16
2.72293e-09
-1.21899e-08
1.36994e-16
2.70863e-09
-1.30607e-08
1.27985e-16
2.6882e-09
-1.39239e-08
1.13082e-16
2.66231e-09
-1.47779e-08
9.52654e-17
2.63154e-09
-1.56212e-08
7.70427e-17
2.59636e-09
-1.64524e-08
6.0284e-17
2.55716e-09
-1.72703e-08
4.63176e-17
2.51426e-09
-1.80736e-08
3.57126e-17
2.46795e-09
-1.88612e-08
2.88078e-17
2.41845e-09
-1.96323e-08
2.5576e-17
2.36597e-09
-2.03857e-08
2.57599e-17
2.3107e-09
-2.11205e-08
2.9034e-17
2.25278e-09
-2.18361e-08
3.49512e-17
2.19238e-09
-2.25314e-08
4.29016e-17
2.12962e-09
-2.32058e-08
5.23701e-17
2.06463e-09
-2.38585e-08
6.28011e-17
1.99754e-09
-2.4489e-08
7.37068e-17
1.92848e-09
-2.50964e-08
8.45178e-17
1.85755e-09
-2.56803e-08
9.44345e-17
1.78488e-09
-2.62401e-08
1.03186e-16
1.7106e-09
-2.67753e-08
1.10176e-16
1.63483e-09
-2.72854e-08
1.15472e-16
1.55768e-09
-2.777e-08
1.19128e-16
1.4793e-09
-2.82286e-08
1.21646e-16
1.3998e-09
-2.86611e-08
1.23311e-16
1.31933e-09
-2.9067e-08
1.24799e-16
1.23801e-09
-2.94461e-08
1.26546e-16
1.15598e-09
-2.97983e-08
1.29037e-16
1.07338e-09
-3.01233e-08
1.32423e-16
9.90345e-10
-3.0421e-08
1.36935e-16
9.07017e-10
-3.06914e-08
1.42408e-16
8.23532e-10
-3.09344e-08
1.48899e-16
7.4003e-10
-3.11501e-08
1.56283e-16
6.56649e-10
-3.13385e-08
1.64183e-16
5.73526e-10
-3.14997e-08
1.72639e-16
4.90794e-10
-3.16339e-08
1.81338e-16
4.08588e-10
-3.17413e-08
1.9016e-16
3.27037e-10
-3.18221e-08
1.98968e-16
2.46266e-10
-3.18766e-08
2.07695e-16
1.66398e-10
-3.19051e-08
2.16232e-16
8.75502e-11
-3.19079e-08
2.24661e-16
9.83454e-12
-3.18854e-08
2.32873e-16
-6.66414e-11
-3.18381e-08
2.40841e-16
-1.41774e-10
-3.17665e-08
2.48634e-16
-2.15467e-10
-3.16709e-08
2.56236e-16
-2.87624e-10
-3.15519e-08
2.63567e-16
-3.58159e-10
-3.14101e-08
2.7075e-16
-4.26986e-10
-3.1246e-08
2.77783e-16
-4.94029e-10
-3.10603e-08
2.84653e-16
-5.59214e-10
-3.08535e-08
2.91483e-16
-6.22477e-10
-3.06263e-08
2.98273e-16
-6.83758e-10
-3.03793e-08
3.04994e-16
-7.43003e-10
-3.01132e-08
3.11675e-16
-8.00165e-10
-2.98287e-08
3.18383e-16
-8.55204e-10
-2.95265e-08
3.24983e-16
-9.08083e-10
-2.92072e-08
3.31542e-16
-9.58774e-10
-2.88717e-08
3.38047e-16
-1.00725e-09
-2.85205e-08
3.44349e-16
-1.0535e-09
-2.81545e-08
3.50447e-16
-1.09751e-09
-2.77744e-08
3.56342e-16
-1.13926e-09
-2.73808e-08
3.61912e-16
-1.17877e-09
-2.69746e-08
3.67156e-16
-1.21602e-09
-2.65565e-08
3.72008e-16
-1.25103e-09
-2.61271e-08
3.76371e-16
-1.28381e-09
-2.56872e-08
3.80342e-16
-1.31438e-09
-2.52375e-08
3.83675e-16
-1.34275e-09
-2.47787e-08
3.86508e-16
-1.36895e-09
-2.43115e-08
3.88852e-16
-1.39301e-09
-2.38367e-08
3.90654e-16
-1.41496e-09
-2.33548e-08
3.91725e-16
-1.43483e-09
-2.28665e-08
3.92361e-16
-1.45267e-09
-2.23726e-08
3.92348e-16
-1.46851e-09
-2.18736e-08
3.91833e-16
-1.4824e-09
-2.13702e-08
3.90843e-16
-1.49438e-09
-2.08629e-08
3.89217e-16
-1.5045e-09
-2.03525e-08
3.87184e-16
-1.51281e-09
-1.98393e-08
3.84663e-16
-1.51937e-09
-1.93241e-08
3.81627e-16
-1.52422e-09
-1.88074e-08
3.78077e-16
-1.52743e-09
-1.82897e-08
3.74241e-16
-1.52904e-09
-1.77714e-08
3.69972e-16
-1.52912e-09
-1.72532e-08
3.65243e-16
-1.52773e-09
-1.67354e-08
3.60093e-16
-1.52491e-09
-1.62186e-08
3.5474e-16
-1.52074e-09
-1.57031e-08
3.49008e-16
-1.51527e-09
-1.51895e-08
3.42991e-16
-1.50856e-09
-1.4678e-08
3.36676e-16
-1.50067e-09
-1.41691e-08
3.30036e-16
-1.49165e-09
-1.36631e-08
3.23151e-16
-1.48157e-09
-1.31604e-08
3.1601e-16
-1.47048e-09
-1.26614e-08
3.08719e-16
-1.45844e-09
-1.21663e-08
3.01076e-16
-1.44549e-09
-1.16754e-08
2.93352e-16
-1.43171e-09
-1.1189e-08
2.85493e-16
-1.41712e-09
-1.07074e-08
2.77362e-16
-1.40179e-09
-1.02308e-08
2.69286e-16
-1.38576e-09
-9.75952e-09