/*--------------------------------*- C++ -*----------------------------------*\
  =========                 |
  \\      /  F ield         | OpenFOAM: The Open Source CFD Toolbox
   \\    /   O peration     | Website:  https://openfoam.org
    \\  /    A nd           | Version:  8
     \\/     M anipulation  |
\*---------------------------------------------------------------------------*/
FoamFile
{
    version     2.0;
    format      ascii;
    class       volScalarField;
    location    "3300";
    object      T;
}
// * * * * * * * * * * * * * * * * * * * * * * * * * * * * * * * * * * * * * //

dimensions      [0 0 0 1 0 0 0];

internalField   nonuniform List<scalar> 
46000
(
310.317
309.273
308.485
307.968
307.595
307.3
307.053
306.841
306.655
306.487
306.335
306.195
306.067
305.948
305.837
305.733
305.635
305.543
305.457
305.375
305.298
305.225
305.156
305.09
305.027
304.968
304.912
304.859
304.808
304.76
304.714
304.67
304.629
304.589
304.552
304.516
304.483
304.451
304.421
304.392
304.365
304.339
304.315
304.292
304.27
304.25
304.231
304.213
304.196
304.181
304.166
304.153
304.141
304.13
304.12
304.111
304.102
304.095
304.089
304.084
304.079
304.076
304.073
304.071
304.07
304.069
304.07
304.072
304.074
304.077
304.081
304.086
304.091
304.098
304.105
304.113
304.122
304.131
304.141
304.152
304.164
304.177
304.19
304.204
304.218
304.233
304.249
304.266
304.283
304.301
304.32
304.339
304.359
304.379
304.4
304.421
304.443
304.466
304.489
304.513
304.537
304.562
304.587
304.613
304.639
304.665
304.692
304.72
304.747
304.776
304.804
304.833
304.863
304.893
304.923
304.953
304.984
305.015
305.047
305.079
305.111
305.144
305.177
305.21
305.244
305.278
305.312
305.347
305.382
305.418
305.454
305.49
305.527
305.564
305.602
305.64
305.678
305.717
305.757
305.797
305.838
305.88
305.922
305.964
306.008
306.052
306.097
306.142
306.188
306.235
306.283
306.332
306.381
306.432
306.483
306.535
306.589
306.643
306.698
306.754
306.812
306.87
306.93
306.99
307.052
307.114
307.178
307.242
307.308
307.375
307.443
307.512
307.583
307.655
307.728
307.803
307.879
307.956
308.035
308.116
308.198
308.283
308.369
308.458
308.55
308.645
308.743
308.845
308.953
309.067
309.19
309.322
309.467
309.629
309.815
310.039
310.321
310.692
311.177
311.61
310.317
309.273
308.485
307.968
307.595
307.3
307.053
306.841
306.655
306.487
306.335
306.195
306.067
305.948
305.837
305.733
305.635
305.543
305.457
305.375
305.298
305.225
305.156
305.09
305.027
304.968
304.912
304.859
304.808
304.76
304.714
304.67
304.629
304.589
304.552
304.516
304.483
304.451
304.421
304.392
304.365
304.339
304.315
304.292
304.27
304.25
304.231
304.213
304.196
304.181
304.166
304.153
304.141
304.13
304.12
304.111
304.102
304.095
304.089
304.084
304.079
304.076
304.073
304.071
304.07
304.069
304.07
304.072
304.074
304.077
304.081
304.086
304.091
304.098
304.105
304.113
304.122
304.131
304.141
304.152
304.164
304.177
304.19
304.204
304.218
304.233
304.249
304.266
304.283
304.301
304.32
304.339
304.359
304.379
304.4
304.421
304.443
304.466
304.489
304.513
304.537
304.562
304.587
304.613
304.639
304.665
304.692
304.72
304.747
304.776
304.804
304.833
304.863
304.893
304.923
304.953
304.984
305.015
305.047
305.079
305.111
305.144
305.177
305.21
305.244
305.278
305.312
305.347
305.382
305.418
305.454
305.49
305.527
305.564
305.602
305.64
305.678
305.717
305.757
305.797
305.838
305.88
305.922
305.964
306.008
306.052
306.097
306.142
306.188
306.235
306.283
306.332
306.381
306.432
306.483
306.536
306.589
306.643
306.698
306.754
306.812
306.87
306.93
306.99
307.052
307.114
307.178
307.242
307.308
307.375
307.443
307.512
307.583
307.655
307.728
307.803
307.879
307.956
308.035
308.116
308.198
308.283
308.369
308.458
308.55
308.645
308.743
308.846
308.953
309.068
309.19
309.322
309.467
309.629
309.815
310.039
310.321
310.692
311.177
311.61
306.827
306.367
305.999
305.715
305.489
305.3
305.14
304.999
304.873
304.759
304.655
304.558
304.469
304.386
304.308
304.235
304.166
304.101
304.04
303.982
303.927
303.875
303.826
303.779
303.735
303.692
303.652
303.614
303.578
303.543
303.51
303.479
303.449
303.42
303.393
303.367
303.343
303.319
303.297
303.275
303.255
303.235
303.217
303.199
303.182
303.166
303.151
303.137
303.123
303.11
303.098
303.086
303.075
303.065
303.055
303.046
303.038
303.03
303.023
303.016
303.01
303.004
302.999
302.995
302.99
302.987
302.984
302.981
302.979
302.978
302.977
302.976
302.977
302.977
302.978
302.98
302.982
302.984
302.987
302.991
302.995
302.999
303.004
303.01
303.015
303.022
303.029
303.036
303.043
303.052
303.06
303.069
303.079
303.088
303.099
303.109
303.121
303.132
303.144
303.156
303.169
303.182
303.196
303.21
303.224
303.239
303.254
303.27
303.286
303.302
303.319
303.336
303.353
303.371
303.389
303.408
303.427
303.446
303.466
303.486
303.507
303.528
303.55
303.572
303.594
303.617
303.64
303.664
303.688
303.713
303.738
303.764
303.791
303.817
303.845
303.873
303.902
303.931
303.961
303.992
304.023
304.055
304.088
304.121
304.155
304.19
304.226
304.263
304.3
304.339
304.378
304.418
304.459
304.501
304.544
304.588
304.632
304.678
304.725
304.773
304.822
304.872
304.923
304.975
305.028
305.082
305.138
305.194
305.251
305.31
305.369
305.43
305.491
305.554
305.618
305.683
305.749
305.816
305.885
305.954
306.026
306.098
306.172
306.248
306.327
306.407
306.491
306.577
306.668
306.765
306.868
306.979
307.103
307.242
307.403
307.597
307.839
308.155
308.581
309.066
306.827
306.367
305.999
305.715
305.489
305.3
305.14
304.999
304.873
304.759
304.655
304.558
304.469
304.386
304.308
304.235
304.166
304.101
304.04
303.982
303.927
303.875
303.826
303.779
303.735
303.692
303.652
303.614
303.578
303.543
303.51
303.479
303.449
303.42
303.393
303.367
303.343
303.319
303.297
303.275
303.255
303.235
303.217
303.199
303.182
303.166
303.151
303.137
303.123
303.11
303.098
303.086
303.075
303.065
303.055
303.046
303.038
303.03
303.023
303.016
303.01
303.004
302.999
302.995
302.99
302.987
302.984
302.981
302.979
302.978
302.977
302.977
302.977
302.977
302.978
302.98
302.982
302.984
302.987
302.991
302.995
302.999
303.004
303.01
303.015
303.022
303.029
303.036
303.043
303.052
303.06
303.069
303.079
303.088
303.099
303.109
303.121
303.132
303.144
303.156
303.169
303.182
303.196
303.21
303.224
303.239
303.254
303.27
303.286
303.302
303.319
303.336
303.353
303.371
303.389
303.408
303.427
303.446
303.466
303.486
303.507
303.528
303.55
303.572
303.594
303.617
303.64
303.664
303.688
303.713
303.738
303.764
303.791
303.817
303.845
303.873
303.902
303.931
303.961
303.992
304.023
304.055
304.088
304.121
304.155
304.19
304.226
304.263
304.3
304.339
304.378
304.418
304.459
304.501
304.544
304.588
304.632
304.678
304.725
304.773
304.822
304.872
304.923
304.975
305.028
305.082
305.138
305.194
305.251
305.31
305.369
305.43
305.491
305.554
305.618
305.683
305.749
305.816
305.885
305.954
306.026
306.098
306.172
306.249
306.327
306.407
306.491
306.577
306.668
306.765
306.868
306.979
307.103
307.242
307.403
307.597
307.839
308.155
308.581
309.066
305.166
305.051
304.889
304.728
304.58
304.446
304.325
304.216
304.115
304.023
303.937
303.857
303.782
303.711
303.645
303.583
303.524
303.469
303.416
303.366
303.319
303.274
303.231
303.191
303.152
303.116
303.081
303.047
303.016
302.986
302.957
302.929
302.903
302.878
302.854
302.831
302.81
302.789
302.769
302.75
302.731
302.714
302.697
302.681
302.666
302.652
302.638
302.624
302.612
302.6
302.588
302.577
302.566
302.556
302.547
302.538
302.529
302.521
302.514
302.507
302.5
302.494
302.488
302.482
302.477
302.473
302.468
302.465
302.461
302.458
302.456
302.454
302.452
302.451
302.45
302.45
302.45
302.45
302.451
302.452
302.454
302.456
302.458
302.461
302.464
302.468
302.472
302.477
302.481
302.487
302.492
302.498
302.505
302.511
302.518
302.526
302.534
302.542
302.551
302.56
302.57
302.579
302.59
302.6
302.611
302.623
302.634
302.646
302.659
302.672
302.685
302.699
302.713
302.727
302.742
302.758
302.773
302.79
302.806
302.823
302.841
302.858
302.877
302.896
302.915
302.935
302.955
302.976
302.997
303.019
303.041
303.064
303.087
303.111
303.136
303.161
303.187
303.214
303.241
303.269
303.298
303.327
303.357
303.388
303.42
303.453
303.486
303.52
303.555
303.591
303.628
303.665
303.704
303.743
303.784
303.825
303.868
303.911
303.956
304.001
304.047
304.095
304.143
304.193
304.243
304.295
304.347
304.401
304.455
304.511
304.567
304.624
304.683
304.742
304.802
304.863
304.926
304.989
305.053
305.118
305.184
305.251
305.32
305.39
305.461
305.535
305.61
305.688
305.769
305.854
305.944
306.04
306.144
306.259
306.387
306.534
306.704
306.903
307.139
307.39
305.166
305.051
304.889
304.728
304.58
304.446
304.325
304.216
304.115
304.023
303.937
303.857
303.782
303.711
303.645
303.583
303.524
303.469
303.416
303.366
303.319
303.274
303.231
303.191
303.152
303.116
303.081
303.047
303.016
302.986
302.957
302.929
302.903
302.878
302.854
302.831
302.81
302.789
302.769
302.75
302.731
302.714
302.697
302.681
302.666
302.652
302.638
302.624
302.612
302.6
302.588
302.577
302.566
302.556
302.547
302.538
302.529
302.521
302.514
302.507
302.5
302.494
302.488
302.482
302.477
302.473
302.468
302.465
302.461
302.459
302.456
302.454
302.452
302.451
302.45
302.45
302.45
302.45
302.451
302.452
302.454
302.456
302.458
302.461
302.464
302.468
302.472
302.477
302.481
302.487
302.492
302.498
302.505
302.511
302.519
302.526
302.534
302.542
302.551
302.56
302.57
302.579
302.59
302.6
302.611
302.623
302.634
302.646
302.659
302.672
302.685
302.699
302.713
302.727
302.742
302.758
302.773
302.79
302.806
302.823
302.841
302.858
302.877
302.896
302.915
302.935
302.955
302.976
302.997
303.019
303.041
303.064
303.087
303.111
303.136
303.161
303.187
303.214
303.241
303.269
303.298
303.327
303.357
303.388
303.42
303.453
303.486
303.52
303.555
303.591
303.628
303.665
303.704
303.743
303.784
303.825
303.868
303.911
303.956
304.001
304.048
304.095
304.143
304.193
304.243
304.295
304.347
304.401
304.455
304.511
304.567
304.624
304.683
304.742
304.802
304.863
304.926
304.989
305.053
305.118
305.184
305.251
305.32
305.39
305.461
305.535
305.61
305.688
305.769
305.854
305.944
306.04
306.144
306.259
306.387
306.534
306.704
306.903
307.139
307.39
304.282
304.264
304.191
304.097
303.998
303.901
303.808
303.72
303.637
303.559
303.486
303.416
303.351
303.289
303.231
303.175
303.122
303.073
303.025
302.98
302.937
302.896
302.858
302.821
302.786
302.752
302.72
302.69
302.661
302.633
302.606
302.581
302.557
302.534
302.512
302.49
302.47
302.451
302.432
302.414
302.397
302.381
302.365
302.35
302.336
302.322
302.309
302.296
302.284
302.272
302.261
302.25
302.24
302.23
302.221
302.212
302.203
302.195
302.187
302.18
302.173
302.166
302.16
302.154
302.149
302.144
302.139
302.135
302.131
302.127
302.124
302.121
302.119
302.117
302.115
302.113
302.112
302.112
302.112
302.112
302.112
302.113
302.114
302.116
302.118
302.12
302.123
302.126
302.129
302.133
302.137
302.142
302.147
302.152
302.158
302.164
302.17
302.177
302.184
302.192
302.2
302.208
302.217
302.226
302.235
302.245
302.255
302.265
302.276
302.288
302.299
302.311
302.324
302.337
302.35
302.364
302.378
302.393
302.408
302.423
302.439
302.455
302.472
302.489
302.507
302.525
302.544
302.564
302.583
302.604
302.625
302.646
302.668
302.691
302.714
302.738
302.763
302.788
302.814
302.841
302.868
302.897
302.925
302.955
302.986
303.017
303.049
303.082
303.116
303.15
303.186
303.223
303.26
303.298
303.337
303.378
303.419
303.461
303.504
303.548
303.593
303.639
303.687
303.735
303.784
303.834
303.885
303.936
303.989
304.043
304.098
304.153
304.209
304.267
304.325
304.384
304.443
304.504
304.565
304.627
304.69
304.754
304.819
304.885
304.952
305.02
305.09
305.162
305.236
305.312
305.392
305.476
305.565
305.659
305.761
305.871
305.988
306.11
306.231
306.337
304.282
304.264
304.191
304.097
303.998
303.901
303.808
303.72
303.637
303.559
303.486
303.416
303.351
303.289
303.231
303.175
303.122
303.073
303.025
302.98
302.937
302.896
302.858
302.821
302.786
302.752
302.72
302.69
302.661
302.633
302.606
302.581
302.557
302.534
302.512
302.49
302.47
302.451
302.432
302.414
302.397
302.381
302.365
302.35
302.336
302.322
302.309
302.296
302.284
302.272
302.261
302.25
302.24
302.23
302.221
302.212
302.203
302.195
302.187
302.18
302.173
302.166
302.16
302.154
302.149
302.144
302.139
302.135
302.131
302.127
302.124
302.121
302.119
302.117
302.115
302.113
302.112
302.112
302.112
302.112
302.112
302.113
302.114
302.116
302.118
302.12
302.123
302.126
302.129
302.133
302.137
302.142
302.147
302.152
302.158
302.164
302.17
302.177
302.184
302.192
302.2
302.208
302.217
302.226
302.235
302.245
302.255
302.265
302.276
302.288
302.299
302.311
302.324
302.337
302.35
302.364
302.378
302.393
302.408
302.423
302.439
302.455
302.472
302.489
302.507
302.525
302.544
302.564
302.583
302.604
302.625
302.646
302.668
302.691
302.714
302.738
302.763
302.788
302.814
302.841
302.868
302.897
302.925
302.955
302.986
303.017
303.049
303.082
303.116
303.15
303.186
303.223
303.26
303.298
303.337
303.378
303.419
303.461
303.504
303.548
303.593
303.639
303.687
303.735
303.784
303.834
303.885
303.936
303.989
304.043
304.098
304.153
304.209
304.267
304.325
304.384
304.443
304.504
304.565
304.627
304.69
304.754
304.819
304.885
304.952
305.02
305.09
305.162
305.236
305.312
305.392
305.476
305.565
305.659
305.761
305.871
305.988
306.11
306.231
306.337
303.717
303.723
303.687
303.63
303.562
303.491
303.418
303.347
303.278
303.212
303.148
303.088
303.03
302.974
302.922
302.872
302.824
302.778
302.735
302.694
302.654
302.617
302.581
302.547
302.514
302.483
302.453
302.424
302.397
302.371
302.346
302.323
302.3
302.278
302.257
302.237
302.218
302.2
302.182
302.165
302.149
302.133
302.118
302.104
302.09
302.077
302.064
302.052
302.04
302.029
302.018
302.007
301.997
301.987
301.978
301.969
301.961
301.953
301.945
301.937
301.93
301.923
301.917
301.911
301.905
301.9
301.895
301.89
301.886
301.882
301.878
301.875
301.872
301.869
301.867
301.865
301.863
301.862
301.861
301.86
301.86
301.86
301.861
301.862
301.863
301.864
301.866
301.869
301.871
301.874
301.877
301.881
301.885
301.889
301.894
301.899
301.905
301.911
301.917
301.923
301.93
301.938
301.945
301.953
301.962
301.97
301.98
301.989
301.999
302.009
302.02
302.031
302.043
302.055
302.067
302.08
302.093
302.106
302.121
302.135
302.15
302.165
302.181
302.198
302.214
302.232
302.25
302.268
302.287
302.307
302.327
302.347
302.369
302.39
302.413
302.436
302.46
302.484
302.509
302.535
302.562
302.589
302.617
302.646
302.676
302.706
302.738
302.77
302.803
302.837
302.871
302.907
302.944
302.981
303.02
303.059
303.099
303.14
303.183
303.226
303.27
303.315
303.361
303.408
303.456
303.505
303.555
303.605
303.657
303.709
303.762
303.816
303.871
303.927
303.983
304.04
304.098
304.156
304.216
304.275
304.336
304.397
304.458
304.521
304.584
304.648
304.713
304.78
304.847
304.916
304.988
305.061
305.136
305.214
305.295
305.377
305.457
305.533
305.595
305.637
303.717
303.723
303.687
303.63
303.562
303.491
303.418
303.347
303.278
303.212
303.148
303.088
303.03
302.974
302.922
302.872
302.824
302.778
302.735
302.694
302.654
302.617
302.581
302.546
302.514
302.483
302.453
302.424
302.397
302.371
302.346
302.323
302.3
302.278
302.257
302.237
302.218
302.2
302.182
302.165
302.149
302.133
302.118
302.104
302.09
302.077
302.064
302.052
302.04
302.029
302.018
302.007
301.997
301.987
301.978
301.969
301.961
301.953
301.945
301.937
301.93
301.923
301.917
301.911
301.905
301.9
301.895
301.89
301.886
301.882
301.878
301.875
301.872
301.869
301.867
301.865
301.863
301.862
301.861
301.86
301.86
301.86
301.861
301.862
301.863
301.864
301.866
301.869
301.871
301.874
301.877
301.881
301.885
301.889
301.894
301.899
301.905
301.911
301.917
301.923
301.93
301.938
301.945
301.953
301.962
301.97
301.98
301.989
301.999
302.009
302.02
302.031
302.043
302.055
302.067
302.08
302.093
302.106
302.121
302.135
302.15
302.165
302.181
302.198
302.214
302.232
302.25
302.268
302.287
302.307
302.327
302.347
302.369
302.39
302.413
302.436
302.46
302.484
302.509
302.535
302.562
302.589
302.617
302.646
302.676
302.706
302.738
302.77
302.803
302.837
302.871
302.907
302.944
302.981
303.02
303.059
303.099
303.14
303.183
303.226
303.27
303.315
303.361
303.408
303.456
303.505
303.555
303.605
303.657
303.709
303.762
303.816
303.871
303.927
303.983
304.04
304.098
304.156
304.216
304.275
304.336
304.397
304.458
304.521
304.584
304.648
304.713
304.78
304.847
304.916
304.988
305.061
305.136
305.214
305.295
305.377
305.457
305.533
305.595
305.636
303.307
303.316
303.297
303.259
303.211
303.157
303.1
303.042
302.984
302.928
302.873
302.819
302.768
302.718
302.671
302.625
302.582
302.54
302.5
302.462
302.425
302.39
302.357
302.325
302.294
302.265
302.237
302.21
302.185
302.16
302.137
302.114
302.093
302.072
302.052
302.033
302.015
301.997
301.98
301.964
301.949
301.934
301.919
301.905
301.892
301.879
301.867
301.855
301.843
301.832
301.821
301.811
301.801
301.792
301.782
301.774
301.765
301.757
301.749
301.742
301.734
301.728
301.721
301.715
301.709
301.703
301.698
301.693
301.688
301.684
301.68
301.676
301.673
301.67
301.667
301.665
301.663
301.661
301.66
301.659
301.658
301.658
301.658
301.658
301.659
301.66
301.661
301.662
301.664
301.667
301.67
301.673
301.676
301.68
301.684
301.688
301.693
301.698
301.704
301.71
301.716
301.722
301.729
301.737
301.744
301.752
301.761
301.77
301.779
301.789
301.799
301.809
301.82
301.831
301.843
301.855
301.867
301.88
301.893
301.907
301.922
301.936
301.951
301.967
301.983
302
302.017
302.035
302.053
302.072
302.092
302.112
302.132
302.154
302.175
302.198
302.221
302.245
302.27
302.295
302.321
302.348
302.375
302.403
302.432
302.462
302.493
302.524
302.557
302.59
302.624
302.659
302.695
302.732
302.77
302.808
302.848
302.888
302.93
302.972
303.016
303.06
303.105
303.151
303.198
303.246
303.295
303.344
303.395
303.446
303.498
303.551
303.604
303.658
303.713
303.768
303.824
303.881
303.938
303.996
304.054
304.112
304.171
304.23
304.29
304.35
304.411
304.473
304.535
304.597
304.661
304.725
304.789
304.854
304.918
304.979
305.036
305.084
305.117
305.131
303.307
303.316
303.297
303.259
303.211
303.157
303.1
303.042
302.984
302.928
302.873
302.819
302.768
302.718
302.671
302.625
302.582
302.54
302.5
302.462
302.425
302.39
302.357
302.325
302.294
302.265
302.237
302.21
302.185
302.16
302.137
302.114
302.093
302.072
302.052
302.033
302.015
301.997
301.98
301.964
301.949
301.934
301.919
301.905
301.892
301.879
301.867
301.855
301.843
301.832
301.821
301.811
301.801
301.792
301.782
301.774
301.765
301.757
301.749
301.742
301.734
301.728
301.721
301.715
301.709
301.703
301.698
301.693
301.688
301.684
301.68
301.676
301.673
301.67
301.667
301.665
301.663
301.661
301.66
301.659
301.658
301.658
301.658
301.658
301.659
301.66
301.661
301.662
301.664
301.667
301.67
301.673
301.676
301.68
301.684
301.688
301.693
301.698
301.704
301.71
301.716
301.722
301.729
301.737
301.744
301.752
301.761
301.77
301.779
301.789
301.799
301.809
301.82
301.831
301.843
301.855
301.867
301.88
301.893
301.907
301.922
301.936
301.951
301.967
301.983
302
302.017
302.035
302.053
302.072
302.092
302.112
302.132
302.154
302.175
302.198
302.221
302.245
302.27
302.295
302.321
302.348
302.375
302.403
302.432
302.462
302.493
302.524
302.557
302.59
302.624
302.659
302.695
302.732
302.77
302.808
302.848
302.888
302.93
302.972
303.016
303.06
303.105
303.151
303.198
303.246
303.295
303.344
303.395
303.446
303.498
303.551
303.604
303.658
303.713
303.768
303.824
303.881
303.938
303.996
304.054
304.112
304.171
304.23
304.29
304.35
304.411
304.473
304.535
304.597
304.661
304.725
304.789
304.854
304.918
304.979
305.036
305.084
305.117
305.131
302.984
302.992
302.979
302.953
302.917
302.875
302.83
302.782
302.733
302.684
302.636
302.589
302.543
302.499
302.456
302.415
302.375
302.336
302.299
302.264
302.23
302.197
302.166
302.136
302.107
302.079
302.053
302.028
302.003
301.98
301.958
301.937
301.916
301.896
301.877
301.859
301.842
301.825
301.809
301.793
301.778
301.764
301.75
301.736
301.723
301.711
301.699
301.687
301.676
301.665
301.655
301.644
301.635
301.625
301.616
301.607
301.599
301.591
301.583
301.575
301.568
301.561
301.555
301.548
301.542
301.536
301.531
301.526
301.521
301.517
301.512
301.508
301.505
301.501
301.498
301.496
301.493
301.491
301.49
301.488
301.487
301.486
301.486
301.486
301.486
301.486
301.487
301.489
301.49
301.492
301.494
301.497
301.5
301.503
301.506
301.51
301.515
301.519
301.524
301.53
301.535
301.541
301.548
301.555
301.562
301.569
301.577
301.585
301.594
301.603
301.613
301.623
301.633
301.644
301.655
301.666
301.678
301.69
301.703
301.717
301.73
301.745
301.759
301.774
301.79
301.806
301.823
301.84
301.858
301.876
301.895
301.915
301.935
301.956
301.977
301.999
302.022
302.045
302.069
302.094
302.12
302.146
302.173
302.201
302.229
302.258
302.289
302.32
302.352
302.384
302.418
302.452
302.488
302.524
302.561
302.599
302.638
302.678
302.719
302.76
302.803
302.847
302.891
302.936
302.982
303.029
303.077
303.126
303.175
303.225
303.276
303.328
303.38
303.433
303.486
303.54
303.594
303.649
303.704
303.76
303.816
303.872
303.928
303.984
304.041
304.098
304.155
304.212
304.268
304.325
304.382
304.438
304.493
304.547
304.599
304.646
304.688
304.719
304.738
304.74
302.984
302.992
302.979
302.953
302.917
302.875
302.829
302.782
302.733
302.684
302.636
302.589
302.543
302.499
302.456
302.415
302.375
302.336
302.299
302.264
302.23
302.197
302.166
302.136
302.107
302.079
302.053
302.028
302.003
301.98
301.958
301.937
301.916
301.896
301.877
301.859
301.842
301.825
301.809
301.793
301.778
301.764
301.75
301.736
301.723
301.711
301.699
301.687
301.676
301.665
301.655
301.644
301.635
301.625
301.616
301.607
301.599
301.591
301.583
301.575
301.568
301.561
301.555
301.548
301.542
301.536
301.531
301.526
301.521
301.517
301.512
301.508
301.505
301.501
301.498
301.496
301.493
301.491
301.49
301.488
301.487
301.486
301.486
301.486
301.486
301.486
301.487
301.489
301.49
301.492
301.494
301.497
301.5
301.503
301.506
301.51
301.515
301.519
301.524
301.53
301.535
301.541
301.548
301.555
301.562
301.569
301.577
301.585
301.594
301.603
301.613
301.623
301.633
301.644
301.655
301.666
301.678
301.69
301.703
301.717
301.73
301.745
301.759
301.774
301.79
301.806
301.823
301.84
301.858
301.876
301.895
301.915
301.935
301.956
301.977
301.999
302.022
302.045
302.069
302.094
302.12
302.146
302.173
302.201
302.229
302.258
302.289
302.32
302.352
302.384
302.418
302.452
302.488
302.524
302.561
302.599
302.638
302.678
302.719
302.76
302.803
302.847
302.891
302.936
302.982
303.029
303.077
303.126
303.175
303.225
303.276
303.328
303.38
303.433
303.486
303.54
303.594
303.649
303.704
303.76
303.816
303.872
303.928
303.984
304.041
304.098
304.155
304.212
304.268
304.325
304.382
304.438
304.493
304.547
304.599
304.646
304.688
304.719
304.738
304.74
302.716
302.721
302.711
302.691
302.664
302.63
302.593
302.553
302.511
302.469
302.427
302.386
302.345
302.305
302.266
302.228
302.191
302.156
302.121
302.089
302.057
302.026
301.997
301.969
301.942
301.916
301.891
301.867
301.844
301.822
301.8
301.78
301.76
301.742
301.724
301.706
301.689
301.673
301.658
301.643
301.628
301.614
301.601
301.588
301.575
301.563
301.551
301.54
301.529
301.518
301.508
301.498
301.488
301.479
301.47
301.461
301.453
301.445
301.437
301.429
301.422
301.415
301.408
301.402
301.396
301.39
301.384
301.379
301.374
301.369
301.365
301.361
301.357
301.354
301.35
301.347
301.345
301.342
301.34
301.339
301.337
301.336
301.335
301.335
301.335
301.335
301.336
301.336
301.337
301.339
301.341
301.343
301.345
301.348
301.351
301.355
301.359
301.363
301.368
301.373
301.378
301.383
301.389
301.396
301.403
301.41
301.417
301.425
301.433
301.442
301.451
301.46
301.47
301.48
301.491
301.502
301.514
301.526
301.538
301.551
301.564
301.578
301.592
301.607
301.622
301.638
301.654
301.671
301.688
301.706
301.725
301.744
301.764
301.784
301.805
301.827
301.849
301.872
301.895
301.92
301.945
301.971
301.997
302.025
302.053
302.082
302.111
302.142
302.173
302.206
302.239
302.273
302.308
302.343
302.38
302.417
302.456
302.495
302.535
302.576
302.618
302.661
302.705
302.75
302.795
302.841
302.888
302.936
302.984
303.033
303.083
303.134
303.185
303.236
303.288
303.341
303.393
303.446
303.5
303.553
303.607
303.661
303.715
303.769
303.822
303.876
303.929
303.982
304.034
304.086
304.137
304.186
304.234
304.28
304.322
304.359
304.391
304.413
304.424
304.422
302.716
302.721
302.711
302.691
302.664
302.63
302.593
302.553
302.511
302.469
302.427
302.386
302.345
302.305
302.266
302.228
302.191
302.156
302.121
302.089
302.057
302.026
301.997
301.969
301.942
301.916
301.891
301.867
301.844
301.822
301.8
301.78
301.76
301.742
301.724
301.706
301.689
301.673
301.658
301.643
301.628
301.614
301.601
301.588
301.575
301.563
301.551
301.54
301.529
301.518
301.508
301.498
301.488
301.479
301.47
301.461
301.453
301.445
301.437
301.429
301.422
301.415
301.408
301.402
301.396
301.39
301.384
301.379
301.374
301.369
301.365
301.361
301.357
301.354
301.35
301.347
301.345
301.342
301.34
301.339
301.337
301.336
301.335
301.335
301.335
301.335
301.335
301.336
301.337
301.339
301.341
301.343
301.345
301.348
301.351
301.355
301.359
301.363
301.368
301.373
301.378
301.383
301.389
301.396
301.403
301.41
301.417
301.425
301.433
301.442
301.451
301.46
301.47
301.48
301.491
301.502
301.514
301.526
301.538
301.551
301.564
301.578
301.592
301.607
301.622
301.638
301.654
301.671
301.688
301.706
301.725
301.744
301.764
301.784
301.805
301.827
301.849
301.872
301.895
301.92
301.945
301.971
301.997
302.025
302.053
302.082
302.111
302.142
302.173
302.206
302.239
302.273
302.308
302.343
302.38
302.417
302.456
302.495
302.535
302.576
302.618
302.661
302.705
302.75
302.795
302.841
302.888
302.936
302.984
303.033
303.083
303.134
303.185
303.236
303.288
303.341
303.393
303.446
303.5
303.553
303.607
303.661
303.715
303.769
303.822
303.876
303.929
303.982
304.034
304.086
304.137
304.186
304.234
304.28
304.322
304.359
304.391
304.413
304.424
304.422
302.485
302.487
302.479
302.463
302.441
302.413
302.382
302.348
302.312
302.276
302.239
302.202
302.165
302.129
302.093
302.059
302.025
301.992
301.961
301.93
301.9
301.872
301.844
301.818
301.792
301.768
301.744
301.721
301.699
301.678
301.658
301.639
301.62
301.602
301.585
301.568
301.552
301.536
301.521
301.507
301.493
301.479
301.466
301.453
301.441
301.429
301.418
301.407
301.396
301.386
301.375
301.366
301.356
301.347
301.338
301.329
301.321
301.313
301.305
301.298
301.291
301.284
301.277
301.27
301.264
301.258
301.253
301.247
301.242
301.237
301.233
301.228
301.224
301.221
301.217
301.214
301.211
301.209
301.206
301.204
301.203
301.201
301.2
301.2
301.199
301.199
301.199
301.2
301.201
301.202
301.203
301.205
301.207
301.21
301.213
301.216
301.219
301.223
301.227
301.232
301.237
301.242
301.248
301.254
301.26
301.267
301.274
301.281
301.289
301.297
301.306
301.315
301.325
301.334
301.345
301.355
301.367
301.378
301.39
301.403
301.416
301.429
301.443
301.457
301.472
301.488
301.504
301.52
301.537
301.555
301.573
301.592
301.611
301.631
301.651
301.673
301.695
301.717
301.741
301.765
301.789
301.815
301.841
301.868
301.896
301.924
301.953
301.984
302.015
302.046
302.079
302.113
302.147
302.182
302.218
302.255
302.293
302.332
302.372
302.412
302.454
302.496
302.539
302.583
302.627
302.673
302.719
302.766
302.813
302.862
302.91
302.96
303.01
303.06
303.111
303.162
303.213
303.265
303.316
303.368
303.42
303.471
303.523
303.574
303.625
303.676
303.726
303.775
303.823
303.87
303.916
303.96
304.002
304.041
304.076
304.107
304.131
304.148
304.155
304.151
302.485
302.487
302.479
302.463
302.441
302.413
302.382
302.348
302.312
302.276
302.239
302.202
302.165
302.129
302.093
302.059
302.025
301.992
301.961
301.93
301.9
301.872
301.844
301.818
301.792
301.768
301.744
301.721
301.699
301.678
301.658
301.639
301.62
301.602
301.585
301.568
301.552
301.536
301.521
301.507
301.493
301.479
301.466
301.453
301.441
301.429
301.418
301.407
301.396
301.386
301.375
301.366
301.356
301.347
301.338
301.329
301.321
301.313
301.305
301.298
301.291
301.284
301.277
301.27
301.264
301.258
301.253
301.247
301.242
301.237
301.233
301.228
301.224
301.221
301.217
301.214
301.211
301.209
301.206
301.204
301.203
301.201
301.2
301.2
301.199
301.199
301.199
301.2
301.201
301.202
301.203
301.205
301.207
301.21
301.213
301.216
301.219
301.223
301.227
301.232
301.237
301.242
301.248
301.254
301.26
301.267
301.274
301.281
301.289
301.297
301.306
301.315
301.325
301.334
301.345
301.355
301.367
301.378
301.39
301.403
301.416
301.429
301.443
301.457
301.472
301.488
301.504
301.52
301.537
301.555
301.573
301.592
301.611
301.631
301.651
301.673
301.695
301.717
301.741
301.765
301.789
301.815
301.841
301.868
301.896
301.924
301.953
301.984
302.015
302.046
302.079
302.113
302.147
302.182
302.218
302.255
302.293
302.332
302.372
302.412
302.454
302.496
302.539
302.583
302.627
302.673
302.719
302.766
302.813
302.862
302.91
302.96
303.01
303.06
303.111
303.162
303.213
303.265
303.316
303.368
303.42
303.471
303.523
303.574
303.625
303.676
303.726
303.775
303.823
303.87
303.916
303.96
304.002
304.041
304.076
304.107
304.131
304.148
304.155
304.151
302.281
302.281
302.274
302.26
302.241
302.218
302.191
302.162
302.131
302.099
302.066
302.033
302
301.967
301.935
301.903
301.872
301.842
301.813
301.784
301.756
301.73
301.704
301.679
301.655
301.631
301.609
301.587
301.567
301.547
301.527
301.509
301.491
301.474
301.457
301.441
301.425
301.41
301.396
301.382
301.368
301.355
301.342
301.33
301.318
301.307
301.296
301.285
301.274
301.264
301.254
301.244
301.235
301.226
301.217
301.209
301.2
301.192
301.185
301.177
301.17
301.163
301.156
301.15
301.143
301.137
301.132
301.126
301.121
301.116
301.111
301.107
301.103
301.099
301.095
301.092
301.089
301.086
301.084
301.082
301.08
301.078
301.077
301.076
301.075
301.075
301.075
301.075
301.076
301.077
301.078
301.079
301.081
301.083
301.086
301.089
301.092
301.095
301.099
301.104
301.108
301.113
301.118
301.124
301.13
301.137
301.143
301.15
301.158
301.166
301.174
301.183
301.192
301.202
301.212
301.222
301.233
301.244
301.256
301.268