/*--------------------------------*- C++ -*----------------------------------*\
  =========                 |
  \\      /  F ield         | OpenFOAM: The Open Source CFD Toolbox
   \\    /   O peration     | Website:  https://openfoam.org
    \\  /    A nd           | Version:  8
     \\/     M anipulation  |
\*---------------------------------------------------------------------------*/
FoamFile
{
    version     2.0;
    format      ascii;
    class       volVectorField;
    location    "3300";
    object      U;
}
// * * * * * * * * * * * * * * * * * * * * * * * * * * * * * * * * * * * * * //

dimensions      [0 1 -1 0 0 0 0];

internalField   nonuniform List<vector> 
46000
(
(0.0013799 1.63761e-06 -0.00141637)
(0.00713135 5.82707e-07 -0.00410232)
(0.0133112 2.8353e-07 -0.00406989)
(0.0176817 1.75036e-07 -0.00263129)
(0.0197967 1.36258e-07 -0.00105359)
(0.0198895 1.18383e-07 0.000330145)
(0.0182866 1.0969e-07 0.00145272)
(0.0153358 1.05607e-07 0.0023302)
(0.0113253 1.02391e-07 0.00300715)
(0.00649194 9.83601e-08 0.00352758)
(0.00101963 9.2993e-08 0.00392242)
(-0.00495007 8.62131e-08 0.00421102)
(-0.0112783 7.9546e-08 0.00441712)
(-0.0178887 7.39316e-08 0.00456464)
(-0.0247035 6.92473e-08 0.00466638)
(-0.0316659 6.55186e-08 0.00473187)
(-0.038729 6.26853e-08 0.00476836)
(-0.0458544 6.05492e-08 0.00478146)
(-0.0530104 5.88316e-08 0.00477551)
(-0.0601706 5.72848e-08 0.0047539)
(-0.0673126 5.57496e-08 0.00471927)
(-0.0744174 5.41322e-08 0.00467372)
(-0.0814684 5.2391e-08 0.00461889)
(-0.0884512 5.05559e-08 0.00455608)
(-0.0953531 4.86468e-08 0.00448633)
(-0.102163 4.66956e-08 0.00441049)
(-0.108869 4.47138e-08 0.00432921)
(-0.115464 4.27481e-08 0.00424305)
(-0.121938 4.08017e-08 0.00415244)
(-0.128283 3.89047e-08 0.00405776)
(-0.134492 3.70535e-08 0.00395931)
(-0.140557 3.52933e-08 0.00385737)
(-0.146472 3.36254e-08 0.00375216)
(-0.15223 3.20833e-08 0.00364388)
(-0.157826 3.06669e-08 0.00353273)
(-0.163254 2.93977e-08 0.00341887)
(-0.168509 2.8269e-08 0.00330248)
(-0.173585 2.72841e-08 0.00318372)
(-0.178477 2.64396e-08 0.00306274)
(-0.183182 2.5717e-08 0.00293972)
(-0.187695 2.50881e-08 0.0028148)
(-0.192013 2.45218e-08 0.00268816)
(-0.196131 2.39908e-08 0.00255997)
(-0.200047 2.34574e-08 0.0024304)
(-0.203757 2.28901e-08 0.00229961)
(-0.20726 2.22712e-08 0.0021678)
(-0.210553 2.15876e-08 0.00203514)
(-0.213634 2.08433e-08 0.00190182)
(-0.216501 2.00417e-08 0.00176803)
(-0.219154 1.92069e-08 0.00163396)
(-0.221591 1.83598e-08 0.0014998)
(-0.223813 1.75269e-08 0.00136573)
(-0.225819 1.67309e-08 0.00123196)
(-0.22761 1.59924e-08 0.00109867)
(-0.229186 1.53248e-08 0.000966059)
(-0.230548 1.47364e-08 0.000834312)
(-0.231697 1.42205e-08 0.000703618)
(-0.232636 1.37705e-08 0.000574161)
(-0.233366 1.33871e-08 0.00044611)
(-0.23389 1.3053e-08 0.0003196)
(-0.234211 1.27705e-08 0.000194694)
(-0.23433 1.2513e-08 7.14086e-05)
(-0.234253 1.23172e-08 -4.97993e-05)
(-0.233981 1.21856e-08 -0.000168523)
(-0.233519 1.20614e-08 -0.000284847)
(-0.232871 1.19623e-08 -0.000398761)
(-0.232041 1.18874e-08 -0.000510158)
(-0.231034 1.18433e-08 -0.000618909)
(-0.229853 1.18258e-08 -0.000724892)
(-0.228505 1.18334e-08 -0.000827993)
(-0.226993 1.18802e-08 -0.000928116)
(-0.225323 1.19503e-08 -0.00102517)
(-0.223501 1.20587e-08 -0.00111908)
(-0.221532 1.22046e-08 -0.00120977)
(-0.219421 1.23931e-08 -0.00129718)
(-0.217174 1.2624e-08 -0.00138126)
(-0.214797 1.28917e-08 -0.00146196)
(-0.212296 1.32027e-08 -0.00153924)
(-0.209676 1.35579e-08 -0.00161308)
(-0.206943 1.39564e-08 -0.00168344)
(-0.204104 1.4395e-08 -0.00175032)
(-0.201164 1.48719e-08 -0.0018137)
(-0.198129 1.53973e-08 -0.00187358)
(-0.195005 1.5951e-08 -0.00192997)
(-0.191798 1.65382e-08 -0.00198288)
(-0.188513 1.71704e-08 -0.00203232)
(-0.185157 1.78227e-08 -0.00207832)
(-0.181735 1.85085e-08 -0.00212091)
(-0.178253 1.92143e-08 -0.00216012)
(-0.174716 1.99536e-08 -0.002196)
(-0.17113 2.07063e-08 -0.00222858)
(-0.1675 2.14759e-08 -0.00225793)
(-0.163831 2.22672e-08 -0.00228409)
(-0.160129 2.3067e-08 -0.00230713)
(-0.156398 2.38853e-08 -0.0023271)
(-0.152643 2.47154e-08 -0.00234409)
(-0.14887 2.5554e-08 -0.00235816)
(-0.145082 2.63978e-08 -0.00236938)
(-0.141284 2.7245e-08 -0.00237784)
(-0.13748 2.81008e-08 -0.00238362)
(-0.133675 2.896e-08 -0.0023868)
(-0.129872 2.98212e-08 -0.00238747)
(-0.126076 3.06758e-08 -0.00238571)
(-0.122289 3.15372e-08 -0.00238163)
(-0.118516 3.23939e-08 -0.0023753)
(-0.11476 3.32523e-08 -0.00236683)
(-0.111024 3.4096e-08 -0.00235631)
(-0.107311 3.49365e-08 -0.00234383)
(-0.103623 3.57689e-08 -0.00232949)
(-0.0999643 3.65997e-08 -0.00231338)
(-0.0963364 3.74124e-08 -0.0022956)
(-0.092742 3.82203e-08 -0.00227623)
(-0.0891833 3.90184e-08 -0.00225537)
(-0.0856624 3.97899e-08 -0.0022331)
(-0.0821812 4.056e-08 -0.00220952)
(-0.0787414 4.13085e-08 -0.00218471)
(-0.0753449 4.20339e-08 -0.00215874)
(-0.0719931 4.27544e-08 -0.0021317)
(-0.0686874 4.3445e-08 -0.00210366)
(-0.0654293 4.41091e-08 -0.00207469)
(-0.0622198 4.47634e-08 -0.00204486)
(-0.0590602 4.53877e-08 -0.00201421)
(-0.0559513 4.59805e-08 -0.00198282)
(-0.0528943 4.65501e-08 -0.00195073)
(-0.0498899 4.70964e-08 -0.00191798)
(-0.046939 4.76011e-08 -0.0018846)
(-0.0440424 4.80725e-08 -0.00185064)
(-0.0412008 4.85257e-08 -0.00181612)
(-0.0384148 4.89289e-08 -0.00178105)
(-0.0356852 4.93155e-08 -0.00174544)
(-0.0330127 4.96521e-08 -0.00170931)
(-0.0303978 4.99754e-08 -0.00167264)
(-0.0278414 5.02587e-08 -0.00163543)
(-0.025344 5.04954e-08 -0.00159766)
(-0.0229066 5.06919e-08 -0.00155931)
(-0.0205297 5.08518e-08 -0.00152035)
(-0.0182144 5.09717e-08 -0.00148074)
(-0.0159614 5.10648e-08 -0.00144045)
(-0.0137718 5.11179e-08 -0.00139943)
(-0.0116465 5.11309e-08 -0.00135762)
(-0.00958675 5.11205e-08 -0.00131498)
(-0.0075937 5.10366e-08 -0.00127145)
(-0.00566865 5.09024e-08 -0.00122697)
(-0.00381297 5.07282e-08 -0.00118153)
(-0.00202801 5.0497e-08 -0.00113543)
(-0.000314717 5.00547e-08 -0.00108832)
(0.00132554 4.93947e-08 -0.00103917)
(0.00288914 4.87244e-08 -0.00098818)
(0.00437543 4.81513e-08 -0.000935981)
(0.00578194 4.75983e-08 -0.000882586)
(0.00710679 4.70586e-08 -0.00082797)
(0.00834792 4.65088e-08 -0.000772112)
(0.00950327 4.59723e-08 -0.000714994)
(0.0105707 4.54325e-08 -0.000656611)
(0.0115482 4.49194e-08 -0.000596973)
(0.0124335 4.43962e-08 -0.000536105)
(0.0132246 4.38695e-08 -0.000474046)
(0.0139196 4.33495e-08 -0.000410858)
(0.0145164 4.28295e-08 -0.000346619)
(0.0150133 4.23295e-08 -0.000281433)
(0.0154086 4.18664e-08 -0.000215428)
(0.0157009 4.142e-08 -0.000148763)
(0.015889 4.09904e-08 -8.16286e-05)
(0.0159719 4.05573e-08 -1.42313e-05)
(0.0159492 4.02312e-08 5.32783e-05)
(0.0158204 4.00501e-08 0.000120684)
(0.0155855 3.98892e-08 0.000187671)
(0.0152449 3.97721e-08 0.000253936)
(0.0147998 3.97055e-08 0.000319128)
(0.0142515 3.97163e-08 0.00038286)
(0.0136022 3.97811e-08 0.000444712)
(0.0128548 3.99571e-08 0.000504227)
(0.0120127 4.01602e-08 0.00056091)
(0.0110804 4.04746e-08 0.000614221)
(0.0100629 4.08735e-08 0.000663578)
(0.00896643 4.14109e-08 0.000708348)
(0.00779814 4.20632e-08 0.000747846)
(0.00656629 4.28609e-08 0.000781325)
(0.00528038 4.38007e-08 0.000807974)
(0.00395129 4.48491e-08 0.000826902)
(0.00259122 4.5959e-08 0.000837136)
(0.00121473 4.7063e-08 0.000837581)
(-0.000163681 4.78103e-08 0.000826398)
(-0.00152436 4.82006e-08 0.000801766)
(-0.00284666 4.85241e-08 0.000762692)
(-0.00410831 4.88755e-08 0.000708244)
(-0.00528293 4.93358e-08 0.000636631)
(-0.00634138 5.00609e-08 0.000545363)
(-0.00725024 5.10918e-08 0.000432121)
(-0.00797194 5.23072e-08 0.000294453)
(-0.00846433 5.34576e-08 0.000129982)
(-0.00868115 5.44487e-08 -6.29324e-05)
(-0.00857281 5.53376e-08 -0.000283403)
(-0.00809186 5.6886e-08 -0.000526382)
(-0.00719906 6.02178e-08 -0.000778193)
(-0.00588023 6.60592e-08 -0.00100567)
(-0.00417867 7.51628e-08 -0.00113679)
(-0.0022657 8.52125e-08 -0.00102271)
(-0.000557189 1.09177e-07 -0.000481864)
(0.000109733 6.13394e-08 0.000119548)
(0.00137797 1.6376e-06 -0.00141802)
(0.0071295 5.82699e-07 -0.00410376)
(0.0133106 2.83526e-07 -0.00407077)
(0.0176814 1.75033e-07 -0.00263197)
(0.0197965 1.36256e-07 -0.00105419)
(0.0198892 1.18381e-07 0.000329605)
(0.0182864 1.09689e-07 0.00145222)
(0.0153356 1.05606e-07 0.00232974)
(0.0113251 1.0239e-07 0.00300672)
(0.00649176 9.83591e-08 0.00352717)
(0.00101948 9.29921e-08 0.00392204)
(-0.0049502 8.62123e-08 0.00421066)
(-0.0112784 7.95453e-08 0.00441678)
(-0.0178887 7.3931e-08 0.00456432)
(-0.0247035 6.92468e-08 0.00466608)
(-0.0316659 6.55181e-08 0.00473158)
(-0.038729 6.26849e-08 0.00476809)
(-0.0458543 6.05487e-08 0.0047812)
(-0.0530103 5.88312e-08 0.00477527)
(-0.0601705 5.72844e-08 0.00475366)
(-0.0673125 5.57492e-08 0.00471905)
(-0.0744172 5.41319e-08 0.00467351)
(-0.0814682 5.23907e-08 0.00461868)
(-0.088451 5.05556e-08 0.00455588)
(-0.0953529 4.86466e-08 0.00448614)
(-0.102162 4.66954e-08 0.0044103)
(-0.108869 4.47136e-08 0.00432903)
(-0.115464 4.27479e-08 0.00424287)
(-0.121938 4.08015e-08 0.00415227)
(-0.128283 3.89045e-08 0.0040576)
(-0.134491 3.70533e-08 0.00395916)
(-0.140556 3.52931e-08 0.00385722)
(-0.146471 3.36253e-08 0.00375201)
(-0.15223 3.20832e-08 0.00364373)
(-0.157826 3.06668e-08 0.00353258)
(-0.163254 2.93976e-08 0.00341873)
(-0.168508 2.82689e-08 0.00330234)
(-0.173584 2.7284e-08 0.00318358)
(-0.178477 2.64395e-08 0.00306261)
(-0.183182 2.57169e-08 0.00293959)
(-0.187695 2.5088e-08 0.00281467)
(-0.192012 2.45217e-08 0.00268804)
(-0.196131 2.39907e-08 0.00255984)
(-0.200046 2.34573e-08 0.00243027)
(-0.203757 2.289e-08 0.00229948)
(-0.20726 2.22711e-08 0.00216767)
(-0.210552 2.15875e-08 0.00203501)
(-0.213633 2.08432e-08 0.00190169)
(-0.2165 2.00416e-08 0.0017679)
(-0.219153 1.92068e-08 0.00163383)
(-0.221591 1.83597e-08 0.00149966)
(-0.223813 1.75269e-08 0.00136559)
(-0.225819 1.67308e-08 0.00123182)
(-0.227609 1.59923e-08 0.00109853)
(-0.229185 1.53247e-08 0.000965917)
(-0.230547 1.47363e-08 0.000834168)
(-0.231697 1.42204e-08 0.000703472)
(-0.232636 1.37704e-08 0.000574013)
(-0.233366 1.33871e-08 0.000445961)
(-0.23389 1.30529e-08 0.000319448)
(-0.23421 1.27704e-08 0.00019454)
(-0.23433 1.2513e-08 7.12526e-05)
(-0.234252 1.23172e-08 -4.99578e-05)
(-0.23398 1.21855e-08 -0.000168684)
(-0.233519 1.20614e-08 -0.00028501)
(-0.232871 1.19623e-08 -0.000398927)
(-0.232041 1.18873e-08 -0.000510327)
(-0.231033 1.18432e-08 -0.000619081)
(-0.229853 1.18258e-08 -0.000725066)
(-0.228504 1.18334e-08 -0.000828171)
(-0.226992 1.18801e-08 -0.000928297)
(-0.225323 1.19502e-08 -0.00102536)
(-0.223501 1.20587e-08 -0.00111927)
(-0.221531 1.22046e-08 -0.00120996)
(-0.21942 1.2393e-08 -0.00129737)
(-0.217174 1.2624e-08 -0.00138146)
(-0.214797 1.28916e-08 -0.00146216)
(-0.212295 1.32026e-08 -0.00153945)
(-0.209675 1.35578e-08 -0.00161328)
(-0.206943 1.39564e-08 -0.00168365)
(-0.204104 1.43949e-08 -0.00175053)
(-0.201164 1.48719e-08 -0.00181392)
(-0.198129 1.53972e-08 -0.0018738)
(-0.195005 1.5951e-08 -0.0019302)
(-0.191797 1.65381e-08 -0.00198311)
(-0.188513 1.71704e-08 -0.00203255)
(-0.185157 1.78227e-08 -0.00207856)
(-0.181735 1.85084e-08 -0.00212115)
(-0.178253 1.92142e-08 -0.00216037)
(-0.174716 1.99535e-08 -0.00219625)
(-0.17113 2.07063e-08 -0.00222884)
(-0.1675 2.14758e-08 -0.00225819)
(-0.163831 2.22671e-08 -0.00228435)
(-0.160128 2.3067e-08 -0.00230739)
(-0.156397 2.38852e-08 -0.00232737)
(-0.152643 2.47153e-08 -0.00234437)
(-0.148869 2.55539e-08 -0.00235844)
(-0.145081 2.63977e-08 -0.00236966)
(-0.141283 2.72449e-08 -0.00237813)
(-0.13748 2.81007e-08 -0.00238391)
(-0.133674 2.896e-08 -0.00238709)
(-0.129872 2.98211e-08 -0.00238776)
(-0.126075 3.06757e-08 -0.00238601)
(-0.122289 3.15371e-08 -0.00238193)
(-0.118516 3.23937e-08 -0.00237561)
(-0.11476 3.32522e-08 -0.00236715)
(-0.111024 3.40959e-08 -0.00235663)
(-0.10731 3.49364e-08 -0.00234415)
(-0.103623 3.57687e-08 -0.00232982)
(-0.099964 3.65996e-08 -0.00231371)
(-0.0963362 3.74123e-08 -0.00229593)
(-0.0927418 3.82202e-08 -0.00227656)
(-0.0891831 3.90183e-08 -0.0022557)
(-0.0856621 3.97898e-08 -0.00223344)
(-0.0821809 4.05598e-08 -0.00220987)
(-0.0787412 4.13084e-08 -0.00218505)
(-0.0753446 4.20337e-08 -0.00215909)
(-0.0719928 4.27542e-08 -0.00213206)
(-0.0686872 4.34449e-08 -0.00210402)
(-0.065429 4.4109e-08 -0.00207505)
(-0.0622196 4.47632e-08 -0.00204522)
(-0.0590599 4.53876e-08 -0.00201458)
(-0.0559511 4.59804e-08 -0.00198319)
(-0.0528941 4.65499e-08 -0.0019511)
(-0.0498897 4.70962e-08 -0.00191835)
(-0.0469388 4.76009e-08 -0.00188498)
(-0.0440422 4.80724e-08 -0.00185102)
(-0.0412005 4.85256e-08 -0.0018165)
(-0.0384146 4.89288e-08 -0.00178143)
(-0.035685 4.93154e-08 -0.00174583)
(-0.0330124 4.96519e-08 -0.00170969)
(-0.0303976 4.99753e-08 -0.00167303)
(-0.0278411 5.02586e-08 -0.00163582)
(-0.0253438 5.04952e-08 -0.00159805)
(-0.0229063 5.06918e-08 -0.0015597)
(-0.0205295 5.08517e-08 -0.00152074)
(-0.0182142 5.09715e-08 -0.00148113)
(-0.0159612 5.10647e-08 -0.00144084)
(-0.0137715 5.11178e-08 -0.00139982)
(-0.0116463 5.11308e-08 -0.00135802)
(-0.00958652 5.11204e-08 -0.00131538)
(-0.00759347 5.10365e-08 -0.00127185)
(-0.00566842 5.09023e-08 -0.00122737)
(-0.00381274 5.07281e-08 -0.00118193)
(-0.00202779 5.04969e-08 -0.00113583)
(-0.000314489 5.00546e-08 -0.00108872)
(0.00132576 4.93945e-08 -0.00103957)
(0.00288937 4.87243e-08 -0.000988578)
(0.00437566 4.81512e-08 -0.000936378)
(0.00578217 4.75982e-08 -0.000882982)
(0.00710702 4.70585e-08 -0.000828366)
(0.00834816 4.65087e-08 -0.000772507)
(0.0095035 4.59722e-08 -0.000715388)
(0.010571 4.54324e-08 -0.000657005)
(0.0115484 4.49193e-08 -0.000597366)
(0.0124337 4.43961e-08 -0.000536497)
(0.0132249 4.38694e-08 -0.000474438)
(0.0139198 4.33494e-08 -0.000411248)
(0.0145166 4.28294e-08 -0.000347009)
(0.0150135 4.23294e-08 -0.000281822)
(0.0154088 4.18663e-08 -0.000215817)
(0.0157011 4.14199e-08 -0.000149152)
(0.0158893 4.09903e-08 -8.20169e-05)
(0.0159722 4.05573e-08 -1.46192e-05)
(0.0159495 4.02311e-08 5.28905e-05)
(0.0158207 4.005e-08 0.000120296)
(0.0155857 3.98892e-08 0.000187283)
(0.0152452 3.9772e-08 0.000253548)
(0.0148 3.97054e-08 0.000318738)
(0.0142517 3.97163e-08 0.00038247)
(0.0136024 3.9781e-08 0.000444321)
(0.012855 3.9957e-08 0.000503835)
(0.0120129 4.01601e-08 0.000560516)
(0.0110806 4.04746e-08 0.000613825)
(0.0100631 4.08735e-08 0.000663179)
(0.00896661 4.14108e-08 0.000707947)
(0.00779831 4.20631e-08 0.000747442)
(0.00656645 4.28608e-08 0.000780917)
(0.00528053 4.38006e-08 0.000807562)
(0.00395143 4.48491e-08 0.000826486)
(0.00259135 4.5959e-08 0.000836715)
(0.00121485 4.7063e-08 0.000837155)
(-0.000163572 4.78102e-08 0.000825968)
(-0.00152426 4.82005e-08 0.000801331)
(-0.00284658 4.85241e-08 0.000762251)
(-0.00410824 4.88754e-08 0.000707795)
(-0.00528287 4.93358e-08 0.000636174)
(-0.00634133 5.00608e-08 0.000544896)
(-0.00725021 5.10917e-08 0.000431643)
(-0.00797192 5.23072e-08 0.000293961)
(-0.00846433 5.34575e-08 0.000129474)
(-0.00868116 5.44486e-08 -6.34602e-05)
(-0.00857284 5.53374e-08 -0.000283953)
(-0.00809191 5.68858e-08 -0.000526957)
(-0.00719912 6.02176e-08 -0.000778796)
(-0.0058803 6.6059e-08 -0.00100631)
(-0.00417876 7.51625e-08 -0.00113746)
(-0.00226581 8.52122e-08 -0.0010234)
(-0.000557499 1.09176e-07 -0.000482547)
(0.000109464 6.13392e-08 0.000119027)
(0.00390825 6.4729e-07 -0.00754363)
(0.00880877 -5.39418e-09 -0.00924804)
(0.0114034 -2.77319e-08 -0.00734275)
(0.0125405 -4.01776e-08 -0.0042286)
(0.0122136 -3.92321e-08 -0.0010974)
(0.010638 -3.57835e-08 0.00164908)
(0.00797161 -3.12551e-08 0.0039162)
(0.00437517 -2.66237e-08 0.00573358)
(2.11946e-07 -2.25905e-08 0.00717011)
(-0.00501176 -1.94487e-08 0.00829537)
(-0.0105358 -1.70627e-08 0.00916926)
(-0.0164721 -1.50762e-08 0.00983889)
(-0.0227333 -1.32727e-08 0.0103465)
(-0.0292485 -1.15838e-08 0.0107279)
(-0.035956 -9.9483e-09 0.0110075)
(-0.0428055 -8.38447e-09 0.0112049)
(-0.049755 -6.91051e-09 0.0113351)
(-0.0567688 -5.5746e-09 0.0114097)
(-0.063817 -4.41741e-09 0.0114381)
(-0.0708741 -3.46878e-09 0.0114276)
(-0.0779182 -2.73355e-09 0.011384)
(-0.0849302 -2.19246e-09 0.0113118)
(-0.0918936 -1.81296e-09 0.0112149)
(-0.0987938 -1.55087e-09 0.0110961)
(-0.105618 -1.37661e-09 0.0109579)
(-0.112354 -1.2498e-09 0.0108023)
(-0.118991 -1.15711e-09 0.0106308)
(-0.125521 -1.07691e-09 0.0104447)
(-0.131933 -1.00172e-09 0.0102452)
(-0.13822 -9.20717e-10 0.0100332)
(-0.144374 -8.33077e-10 0.00980948)
(-0.150388 -7.28825e-10 0.0095747)
(-0.156254 -6.07134e-10 0.00932952)
(-0.161968 -4.66762e-10 0.00907449)
(-0.167521 -3.05218e-10 0.00881014)
(-0.17291 -1.19182e-10 0.00853698)
(-0.178128 8.05395e-11 0.00825549)
(-0.18317 2.93531e-10 0.00796614)
(-0.188031 5.11484e-10 0.00766943)
(-0.192708 7.23186e-10 0.00736582)
(-0.197195 9.17426e-10 0.00705582)
(-0.201489 1.08299e-09 0.00673991)
(-0.205586 1.21284e-09 0.0064186)
(-0.209483 1.29659e-09 0.00609242)
(-0.213178 1.33798e-09 0.0057619)
(-0.216667 1.33745e-09 0.00542757)
(-0.219948 1.30619e-09 0.00508999)
(-0.22302 1.25253e-09 0.00474972)
(-0.22588 1.1856e-09 0.00440732)
(-0.228527 1.12033e-09 0.00406337)
(-0.230962 1.06546e-09 0.00371843)
(-0.233182 1.02512e-09 0.00337308)
(-0.235188 1.0072e-09 0.0030279)
(-0.236981 1.01211e-09 0.00268345)
(-0.238559 1.03654e-09 0.00234031)
(-0.239926 1.08048e-09 0.00199903)
(-0.241081 1.13728e-09 0.00166017)
(-0.242026 1.20322e-09 0.00132427)
(-0.242762 1.27331e-09 0.000991863)
(-0.243294 1.34381e-09 0.000663471)
(-0.243621 1.4139e-09 0.000339588)
(-0.243748 1.48813e-09 2.071e-05)
(-0.243678 1.54868e-09 -0.000292821)
(-0.243413 1.5947e-09 -0.000600705)
(-0.242957 1.64612e-09 -0.000902524)
(-0.242314 1.6938e-09 -0.00119788)
(-0.241489 1.73568e-09 -0.00148638)
(-0.240484 1.77466e-09 -0.00176766)
(-0.239306 1.80865e-09 -0.0020414)
(-0.237958 1.841e-09 -0.0023073)
(-0.236446 1.8721e-09 -0.00256508)
(-0.234774 1.89988e-09 -0.0028145)
(-0.232947 1.92767e-09 -0.00305535)
(-0.230971 1.95421e-09 -0.00328743)
(-0.228851 1.97993e-09 -0.00351059)
(-0.226593 2.00648e-09 -0.00372468)
(-0.224201 2.0293e-09 -0.00392959)
(-0.221682 2.05337e-09 -0.00412523)
(-0.219041 2.07287e-09 -0.00431154)
(-0.216285 2.08865e-09 -0.00448846)
(-0.213418 2.10111e-09 -0.00465598)
(-0.210446 2.10859e-09 -0.00481409)
(-0.207375 2.11026e-09 -0.00496282)
(-0.204211 2.10447e-09 -0.0051022)
(-0.20096 2.08997e-09 -0.00523228)
(-0.197626 2.07049e-09 -0.00535316)
(-0.194217 2.03856e-09 -0.00546491)
(-0.190736 1.99916e-09 -0.00556766)
(-0.18719 1.94814e-09 -0.00566152)
(-0.183585 1.89131e-09 -0.00574663)
(-0.179925 1.82078e-09 -0.00582315)
(-0.176215 1.73946e-09 -0.00589125)
(-0.172461 1.64776e-09 -0.0059511)
(-0.168668 1.54693e-09 -0.0060029)
(-0.164841 1.43488e-09 -0.00604684)
(-0.160984 1.31287e-09 -0.00608314)
(-0.157102 1.18171e-09 -0.00611202)
(-0.1532 1.03976e-09 -0.0061337)
(-0.149282 8.87003e-10 -0.00614841)
(-0.145353 7.28424e-10 -0.00615639)
(-0.141415 5.5904e-10 -0.00615789)
(-0.137474 3.83831e-10 -0.00615315)
(-0.133534 1.94492e-10 -0.00614243)
(-0.129597 9.84828e-13 -0.00612597)
(-0.125668 -2.00428e-10 -0.00610403)
(-0.12175 -4.08502e-10 -0.00607688)
(-0.117846 -6.249e-10 -0.00604475)
(-0.113959 -8.46302e-10 -0.0060079)
(-0.110092 -1.07562e-09 -0.00596659)
(-0.106249 -1.31202e-09 -0.00592106)
(-0.102431 -1.54885e-09 -0.00587156)
(-0.0986411 -1.79402e-09 -0.00581832)
(-0.0948819 -2.04545e-09 -0.00576158)
(-0.0911556 -2.2994e-09 -0.00570155)
(-0.0874643 -2.55961e-09 -0.00563847)
(-0.0838099 -2.8211e-09 -0.00557254)
(-0.0801944 -3.08636e-09 -0.00550396)
(-0.0766195 -3.35248e-09 -0.00543292)
(-0.0730869 -3.6228e-09 -0.0053596)
(-0.0695981 -3.89647e-09 -0.00528418)
(-0.0661547 -4.17018e-09 -0.0052068)
(-0.0627578 -4.44394e-09 -0.00512761)
(-0.059409 -4.72022e-09 -0.00504674)
(-0.0561093 -4.99655e-09 -0.0049643)
(-0.0528599 -5.27375e-09 -0.0048804)
(-0.049662 -5.5485e-09 -0.00479511)
(-0.0465166 -5.82413e-09 -0.00470851)
(-0.0434247 -6.09732e-09 -0.00462064)
(-0.0403873 -6.36639e-09 -0.00453155)
(-0.0374054 -6.63135e-09 -0.00444125)
(-0.03448 -6.89637e-09 -0.00434975)
(-0.031612 -7.15312e-09 -0.00425702)
(-0.0288024 -7.40742e-09 -0.00416305)
(-0.0260523 -7.65596e-09 -0.00406777)
(-0.0233627 -7.90289e-09 -0.00397113)
(-0.0207347 -8.14322e-09 -0.00387306)
(-0.0181694 -8.37945e-09 -0.00377344)
(-0.015668 -8.60492e-09 -0.00367219)
(-0.0132318 -8.81963e-09 -0.00356919)
(-0.0108622 -9.02857e-09 -0.0034643)
(-0.0085605 -9.23175e-09 -0.00335741)
(-0.00632823 -9.4325e-09 -0.00324837)
(-0.00416693 -9.62415e-09 -0.00313708)
(-0.00207829 -9.80755e-09 -0.00302356)
(-6.36885e-05 -9.99267e-09 -0.00290779)
(0.00187445 -1.01779e-08 -0.00278921)
(0.00373385 -1.0309e-08 -0.00266713)
(0.00551267 -1.03902e-08 -0.0025416)
(0.00720877 -1.04498e-08 -0.00241284)
(0.00881984 -1.04911e-08 -0.00228076)
(0.0103436 -1.05224e-08 -0.00214528)
(0.0117776 -1.05397e-08 -0.00200632)
(0.0131194 -1.05394e-08 -0.00186381)
(0.0143666 -1.05259e-08 -0.00171772)
(0.0155167 -1.04983e-08 -0.00156805)
(0.0165673 -1.04623e-08 -0.00141481)
(0.0175158 -1.04173e-08 -0.0012581)
(0.0183599 -1.03631e-08 -0.00109801)
(0.0190974 -1.02955e-08 -0.000934722)
(0.019726 -1.02156e-08 -0.000768445)
(0.0202436 -1.01247e-08 -0.000599458)
(0.0206485 -1.00164e-08 -0.000428104)
(0.020939 -9.89313e-09 -0.000254793)
(0.0211136 -9.75981e-09 -8.00208e-05)
(0.0211713 -9.61139e-09 9.57664e-05)
(0.0211113 -9.45138e-09 0.000272063)
(0.0209334 -9.27468e-09 0.000448176)
(0.0206377 -9.08797e-09 0.000623334)
(0.0202248 -8.89123e-09 0.000796686)
(0.0196957 -8.69199e-09 0.000967292)
(0.0190524 -8.48774e-09 0.00113412)
(0.0182973 -8.28013e-09 0.00129603)
(0.0174335 -8.07168e-09 0.00145178)
(0.0164652 -7.86321e-09 0.00160003)
(0.0153971 -7.64721e-09 0.0017393)
(0.0142352 -7.42952e-09 0.00186797)
(0.0129864 -7.20427e-09 0.00198429)
(0.0116587 -6.98234e-09 0.00208633)
(0.0102615 -6.76541e-09 0.002172)
(0.00880527 -6.55682e-09 0.00223897)
(0.00730222 -6.3817e-09 0.00228466)
(0.00576615 -6.26353e-09 0.00230622)
(0.00421249 -6.1923e-09 0.00230014)
(0.00265861 -6.15125e-09 0.00226252)
(0.00112408 -6.12696e-09 0.00218964)
(-0.000369823 -6.13958e-09 0.0020771)
(-0.00179755 -6.13034e-09 0.0019198)
(-0.00313223 -6.08916e-09 0.00171207)
(-0.00434398 -6.06636e-09 0.00144765)
(-0.00539984 -6.1375e-09 0.00111962)
(-0.00626405 -6.42859e-09 0.000721145)
(-0.00689823 -6.96676e-09 0.000246633)
(-0.00726272 -7.61157e-09 -0.000305622)
(-0.00731683 -8.06597e-09 -0.000928862)
(-0.00702496 -7.99498e-09 -0.00160033)
(-0.00636018 -7.26076e-09 -0.00226282)
(-0.00530929 -5.43401e-09 -0.00279098)
(-0.00388864 -2.3683e-09 -0.00293067)
(-0.00217205 1.07557e-08 -0.00225737)
(-0.000470643 -3.07741e-08 -0.000605282)
(0.00390672 6.47279e-07 -0.00754502)
(0.00880781 -5.39401e-09 -0.00924877)
(0.0114029 -2.7731e-08 -0.0073431)
(0.0125401 -4.01764e-08 -0.0042288)
(0.0122133 -3.9231e-08 -0.00109755)
(0.0106378 -3.57827e-08 0.00164895)
(0.00797143 -3.12544e-08 0.00391608)
(0.00437502 -2.66232e-08 0.00573347)
(9.77401e-08 -2.25901e-08 0.00717)
(-0.00501185 -1.94484e-08 0.00829527)
(-0.0105359 -1.70624e-08 0.00916916)
(-0.0164721 -1.50759e-08 0.00983879)
(-0.0227333 -1.32725e-08 0.0103464)
(-0.0292484 -1.15836e-08 0.0107278)
(-0.0359559 -9.94814e-09 0.0110074)
(-0.0428054 -8.38434e-09 0.0112048)
(-0.0497548 -6.9104e-09 0.011335)
(-0.0567686 -5.57452e-09 0.0114097)
(-0.0638168 -4.41735e-09 0.0114381)
(-0.0708739 -3.46872e-09 0.0114275)
(-0.077918 -2.73351e-09 0.0113839)
(-0.08493 -2.19243e-09 0.0113117)
(-0.0918934 -1.81293e-09 0.0112148)
(-0.0987935 -1.55085e-09 0.011096)
(-0.105617 -1.37659e-09 0.0109579)
(-0.112354 -1.24978e-09 0.0108022)
(-0.118991 -1.15709e-09 0.0106307)
(-0.12552 -1.0769e-09 0.0104447)
(-0.131933 -1.00171e-09 0.0102452)
(-0.13822 -9.20704e-10 0.0100332)
(-0.144374 -8.33065e-10 0.00980942)
(-0.150387 -7.28815e-10 0.00957465)
(-0.156254 -6.07126e-10 0.00932947)
(-0.161967 -4.66755e-10 0.00907444)
(-0.167521 -3.05213e-10 0.00881009)
(-0.172909 -1.19181e-10 0.00853693)
(-0.178127 8.05384e-11 0.00825544)
(-0.183169 2.93527e-10 0.0079661)
(-0.188031 5.11477e-10 0.00766938)
(-0.192707 7.23176e-10 0.00736578)
(-0.197194 9.17413e-10 0.00705577)
(-0.201488 1.08298e-09 0.00673986)
(-0.205586 1.21282e-09 0.00641856)
(-0.209483 1.29657e-09 0.00609238)
(-0.213177 1.33797e-09 0.00576185)
(-0.216666 1.33743e-09 0.00542753)
(-0.219948 1.30618e-09 0.00508995)
(-0.223019 1.25252e-09 0.00474968)
(-0.225879 1.18558e-09 0.00440728)
(-0.228527 1.12032e-09 0.00406332)
(-0.230961 1.06544e-09 0.00371838)
(-0.233182 1.0251e-09 0.00337304)
(-0.235188 1.00719e-09 0.00302785)
(-0.23698 1.0121e-09 0.00268341)
(-0.238559 1.03653e-09 0.00234026)
(-0.239925 1.08047e-09 0.00199898)
(-0.24108 1.13727e-09 0.00166012)
(-0.242025 1.20321e-09 0.00132422)
(-0.242762 1.27329e-09 0.000991812)
(-0.243293 1.34379e-09 0.000663419)
(-0.243621 1.41388e-09 0.000339535)
(-0.243748 1.48812e-09 2.06565e-05)
(-0.243677 1.54866e-09 -0.000292875)
(-0.243412 1.59468e-09 -0.00060076)
(-0.242956 1.6461e-09 -0.00090258)
(-0.242314 1.69378e-09 -0.00119793)
(-0.241488 1.73566e-09 -0.00148643)
(-0.240484 1.77463e-09 -0.00176772)
(-0.239306 1.80863e-09 -0.00204146)
(-0.237958 1.84097e-09 -0.00230736)
(-0.236445 1.87207e-09 -0.00256514)
(-0.234773 1.89986e-09 -0.00281456)
(-0.232947 1.92764e-09 -0.00305541)
(-0.230971 1.95419e-09 -0.0032875)
(-0.228851 1.97991e-09 -0.00351065)
(-0.226592 2.00646e-09 -0.00372475)
(-0.224201 2.02928e-09 -0.00392966)
(-0.221682 2.05334e-09 -0.0041253)
(-0.219041 2.07285e-09 -0.00431161)
(-0.216284 2.08862e-09 -0.00448853)
(-0.213417 2.10108e-09 -0.00465605)
(-0.210445 2.10856e-09 -0.00481416)
(-0.207375 2.11024e-09 -0.00496289)
(-0.204211 2.10445e-09 -0.00510227)
(-0.200959 2.08994e-09 -0.00523236)
(-0.197626 2.07046e-09 -0.00535324)
(-0.194216 2.03853e-09 -0.00546499)
(-0.190736 1.99913e-09 -0.00556774)
(-0.18719 1.94812e-09 -0.00566159)
(-0.183584 1.89129e-09 -0.00574671)
(-0.179924 1.82076e-09 -0.00582323)
(-0.176215 1.73944e-09 -0.00589133)
(-0.172461 1.64774e-09 -0.00595119)
(-0.168668 1.54691e-09 -0.00600298)
(-0.164841 1.43486e-09 -0.00604693)
(-0.160984 1.31285e-09 -0.00608323)
(-0.157102 1.1817e-09 -0.00611211)
(-0.1532 1.03975e-09 -0.00613379)
(-0.149282 8.86994e-10 -0.0061485)
(-0.145352 7.28417e-10 -0.00615648)
(-0.141415 5.59035e-10 -0.00615798)
(-0.137474 3.83828e-10 -0.00615324)
(-0.133534 1.9449e-10 -0.00614252)
(-0.129597 9.84818e-13 -0.00612606)
(-0.125668 -2.00426e-10 -0.00610413)
(-0.12175 -4.08498e-10 -0.00607697)
(-0.117846 -6.24894e-10 -0.00604485)
(-0.113959 -8.46295e-10 -0.006008)
(-0.110092 -1.07561e-09 -0.00596669)
(-0.106248 -1.312e-09 -0.00592117)
(-0.102431 -1.54884e-09 -0.00587166)
(-0.0986408 -1.79401e-09 -0.00581842)
(-0.0948816 -2.04543e-09 -0.00576168)
(-0.0911553 -2.29938e-09 -0.00570166)
(-0.087464 -2.55959e-09 -0.00563858)
(-0.0838096 -2.82108e-09 -0.00557264)
(-0.0801941 -3.08633e-09 -0.00550407)
(-0.0766193 -3.35245e-09 -0.00543303)
(-0.0730867 -3.62277e-09 -0.00535971)
(-0.0695979 -3.89644e-09 -0.00528429)
(-0.0661544 -4.17015e-09 -0.00520691)
(-0.0627576 -4.4439e-09 -0.00512772)
(-0.0594087 -4.72019e-09 -0.00504685)
(-0.0561091 -4.99651e-09 -0.00496441)
(-0.0528597 -5.27371e-09 -0.00488051)
(-0.0496618 -5.54846e-09 -0.00479522)
(-0.0465164 -5.82409e-09 -0.00470862)
(-0.0434245 -6.09727e-09 -0.00462076)
(-0.0403871 -6.36634e-09 -0.00453167)
(-0.0374052 -6.63131e-09 -0.00444137)
(-0.0344798 -6.89632e-09 -0.00434986)
(-0.0316118 -7.15307e-09 -0.00425714)
(-0.0288022 -7.40737e-09 -0.00416316)
(-0.0260521 -7.65591e-09 -0.00406789)
(-0.0233625 -7.90284e-09 -0.00397125)
(-0.0207345 -8.14317e-09 -0.00387317)
(-0.0181692 -8.3794e-09 -0.00377356)
(-0.0156678 -8.60487e-09 -0.00367231)
(-0.0132316 -8.81957e-09 -0.00356931)
(-0.010862 -9.02852e-09 -0.00346442)
(-0.00856029 -9.2317e-09 -0.00335753)
(-0.00632801 -9.43245e-09 -0.00324849)
(-0.00416672 -9.6241e-09 -0.0031372)
(-0.00207808 -9.80749e-09 -0.00302368)
(-6.34749e-05 -9.99262e-09 -0.00290791)
(0.00187467 -1.01778e-08 -0.00278933)
(0.00373406 -1.03089e-08 -0.00266724)
(0.00551288 -1.03901e-08 -0.00254172)
(0.00720898 -1.04497e-08 -0.00241296)
(0.00882005 -1.0491e-08 -0.00228088)
(0.0103438 -1.05224e-08 -0.0021454)
(0.0117778 -1.05396e-08 -0.00200644)
(0.0131196 -1.05394e-08 -0.00186393)
(0.0143668 -1.05259e-08 -0.00171784)
(0.0155169 -1.04982e-08 -0.00156816)
(0.0165675 -1.04623e-08 -0.00141493)
(0.017516 -1.04172e-08 -0.00125821)
(0.0183602 -1.0363e-08 -0.00109813)
(0.0190976 -1.02955e-08 -0.000934837)
(0.0197262 -1.02155e-08 -0.00076856)
(0.0202439 -1.01247e-08 -0.000599572)
(0.0206487 -1.00164e-08 -0.000428217)
(0.0209392 -9.8931e-09 -0.000254907)
(0.0211138 -9.75978e-09 -8.01331e-05)
(0.0211715 -9.61136e-09 9.56546e-05)
(0.0211115 -9.45135e-09 0.000271952)
(0.0209337 -9.27465e-09 0.000448065)
(0.0206379 -9.08794e-09 0.000623223)
(0.020225 -8.89121e-09 0.000796576)
(0.0196959 -8.69197e-09 0.000967183)
(0.0190526 -8.48771e-09 0.00113401)
(0.0182975 -8.2801e-09 0.00129592)
(0.0174337 -8.07165e-09 0.00145167)
(0.0164654 -7.86319e-09 0.00159992)
(0.0153973 -7.64719e-09 0.00173919)
(0.0142354 -7.4295e-09 0.00186786)
(0.0129866 -7.20425e-09 0.00198418)
(0.0116589 -6.98233e-09 0.00208622)
(0.0102616 -6.76539e-09 0.00217189)
(0.0088054 -6.5568e-09 0.00223886)
(0.00730234 -6.38168e-09 0.00228455)
(0.00576627 -6.26352e-09 0.00230611)
(0.00421259 -6.19228e-09 0.00230002)
(0.0026587 -6.15123e-09 0.0022624)
(0.00112417 -6.12695e-09 0.00218952)
(-0.000369747 -6.13956e-09 0.00207698)
(-0.00179748 -6.13033e-09 0.00191967)
(-0.00313217 -6.08914e-09 0.00171194)
(-0.00434393 -6.06635e-09 0.00144751)
(-0.00539981 -6.13748e-09 0.00111947)
(-0.00626403 -6.42857e-09 0.000720978)
(-0.00689823 -6.96674e-09 0.00024645)
(-0.00726272 -7.61155e-09 -0.000305824)
(-0.00731685 -8.06595e-09 -0.000929088)
(-0.00702499 -7.99496e-09 -0.00160058)
(-0.00636022 -7.26074e-09 -0.00226312)
(-0.00530936 -5.434e-09 -0.00279132)
(-0.00388874 -2.36829e-09 -0.00293107)
(-0.00217232 1.07557e-08 -0.00225784)
(-0.000471024 -3.07741e-08 -0.000605777)
(0.00367893 3.84063e-07 -0.0139764)
(0.0067722 -2.16923e-08 -0.0119756)
(0.00729043 -1.01193e-08 -0.00788636)
(0.00665652 -1.35781e-08 -0.00345246)
(0.00499901 -1.22381e-08 0.000715984)
(0.00253756 -1.09666e-08 0.00436886)
(-0.000650935 -9.275e-09 0.00744562)