/*--------------------------------*- C++ -*----------------------------------*\
  =========                 |
  \\      /  F ield         | OpenFOAM: The Open Source CFD Toolbox
   \\    /   O peration     | Website:  https://openfoam.org
    \\  /    A nd           | Version:  8
     \\/     M anipulation  |
\*---------------------------------------------------------------------------*/
FoamFile
{
    version     2.0;
    format      ascii;
    class       volScalarField;
    location    "1100";
    object      alphat;
}
// * * * * * * * * * * * * * * * * * * * * * * * * * * * * * * * * * * * * * //

dimensions      [1 -1 -1 0 0 0 0];

internalField   nonuniform List<scalar> 
46000
(
4.27323e-08
2.09625e-07
4.48261e-07
7.07423e-07
9.81017e-07
1.26665e-06
1.55003e-06
1.82503e-06
2.09122e-06
2.34523e-06
2.5838e-06
2.80783e-06
3.01668e-06
3.20974e-06
3.3865e-06
3.54663e-06
3.68991e-06
3.81627e-06
3.92577e-06
4.01861e-06
4.0951e-06
4.15567e-06
4.20087e-06
4.23129e-06
4.24759e-06
4.251e-06
4.24743e-06
4.23381e-06
4.20996e-06
4.17653e-06
4.13449e-06
4.08487e-06
4.02874e-06
3.96713e-06
3.90108e-06
3.83155e-06
3.75947e-06
3.6857e-06
3.61103e-06
3.53618e-06
3.4618e-06
3.38846e-06
3.31666e-06
3.24684e-06
3.17935e-06
3.1145e-06
3.05252e-06
2.9936e-06
2.93788e-06
2.88546e-06
2.83638e-06
2.79068e-06
2.74834e-06
2.70936e-06
2.67367e-06
2.64122e-06
2.61194e-06
2.58575e-06
2.56255e-06
2.54225e-06
2.52477e-06
2.51054e-06
2.49956e-06
2.49113e-06
2.48512e-06
2.48144e-06
2.48004e-06
2.48086e-06
2.48384e-06
2.48892e-06
2.49607e-06
2.50524e-06
2.51639e-06
2.52947e-06
2.54446e-06
2.56132e-06
2.58002e-06
2.60054e-06
2.62285e-06
2.64694e-06
2.67278e-06
2.70035e-06
2.72965e-06
2.76065e-06
2.79334e-06
2.82772e-06
2.86377e-06
2.90148e-06
2.94085e-06
2.98185e-06
3.02449e-06
3.06874e-06
3.11461e-06
3.16206e-06
3.21109e-06
3.26168e-06
3.31381e-06
3.36746e-06
3.4226e-06
3.4792e-06
3.53724e-06
3.59669e-06
3.65751e-06
3.71965e-06
3.78309e-06
3.84778e-06
3.91368e-06
3.98075e-06
4.04893e-06
4.11819e-06
4.18847e-06
4.25974e-06
4.33195e-06
4.40506e-06
4.47902e-06
4.5538e-06
4.62937e-06
4.7057e-06
4.78276e-06
4.86053e-06
4.939e-06
5.01815e-06
5.09799e-06
5.17851e-06
5.25973e-06
5.34166e-06
5.42433e-06
5.50777e-06
5.59202e-06
5.67713e-06
5.76315e-06
5.85015e-06
5.93819e-06
6.02735e-06
6.11773e-06
6.2094e-06
6.30247e-06
6.39704e-06
6.49321e-06
6.5911e-06
6.69081e-06
6.79246e-06
6.89614e-06
7.00197e-06
7.11003e-06
7.2204e-06
7.33314e-06
7.44828e-06
7.56585e-06
7.68581e-06
7.8081e-06
7.93259e-06
8.05912e-06
8.18745e-06
8.31725e-06
8.44812e-06
8.57956e-06
8.71096e-06
8.84159e-06
8.9706e-06
9.097e-06
9.21968e-06
9.33734e-06
9.44859e-06
9.55184e-06
9.64541e-06
9.72744e-06
9.796e-06
9.84906e-06
9.88454e-06
9.90059e-06
9.89722e-06
9.87339e-06
9.82467e-06
9.7486e-06
9.64335e-06
9.50746e-06
9.33976e-06
9.13942e-06
8.90601e-06
8.63949e-06
8.34033e-06
8.00946e-06
7.64836e-06
7.25899e-06
6.84386e-06
6.40596e-06
5.94868e-06
5.47583e-06
4.99146e-06
4.49975e-06
4.0047e-06
3.50896e-06
3.00761e-06
2.51956e-06
2.0297e-06
1.5336e-06
1.04653e-06
5.36702e-07
1.13388e-07
4.27292e-08
2.09609e-07
4.4823e-07
7.07383e-07
9.80973e-07
1.2666e-06
1.54998e-06
1.82498e-06
2.09117e-06
2.34518e-06
2.58376e-06
2.80779e-06
3.01665e-06
3.20971e-06
3.38648e-06
3.54661e-06
3.68989e-06
3.81625e-06
3.92576e-06
4.0186e-06
4.09509e-06
4.15567e-06
4.20087e-06
4.23129e-06
4.24759e-06
4.25101e-06
4.24743e-06
4.23382e-06
4.20996e-06
4.17654e-06
4.1345e-06
4.08488e-06
4.02874e-06
3.96714e-06
3.90109e-06
3.83156e-06
3.75948e-06
3.6857e-06
3.61103e-06
3.53618e-06
3.46179e-06
3.38845e-06
3.31665e-06
3.24683e-06
3.17934e-06
3.11448e-06
3.0525e-06
2.99359e-06
2.93786e-06
2.88544e-06
2.83636e-06
2.79065e-06
2.74832e-06
2.70933e-06
2.67365e-06
2.6412e-06
2.61192e-06
2.58572e-06
2.56252e-06
2.54222e-06
2.52474e-06
2.51052e-06
2.49953e-06
2.4911e-06
2.48509e-06
2.48141e-06
2.48001e-06
2.48083e-06
2.48381e-06
2.48889e-06
2.49604e-06
2.50521e-06
2.51636e-06
2.52944e-06
2.54443e-06
2.56129e-06
2.57999e-06
2.60051e-06
2.62283e-06
2.64691e-06
2.67275e-06
2.70033e-06
2.72962e-06
2.76062e-06
2.79332e-06
2.8277e-06
2.86375e-06
2.90146e-06
2.94083e-06
2.98184e-06
3.02447e-06
3.06873e-06
3.11459e-06
3.16204e-06
3.21108e-06
3.26167e-06
3.3138e-06
3.36745e-06
3.42259e-06
3.47919e-06
3.53724e-06
3.59668e-06
3.6575e-06
3.71965e-06
3.78309e-06
3.84778e-06
3.91368e-06
3.98075e-06
4.04893e-06
4.11819e-06
4.18848e-06
4.25975e-06
4.33195e-06
4.40506e-06
4.47903e-06
4.55381e-06
4.62938e-06
4.70571e-06
4.78277e-06
4.86054e-06
4.93901e-06
5.01816e-06
5.098e-06
5.17852e-06
5.25974e-06
5.34168e-06
5.42435e-06
5.50779e-06
5.59204e-06
5.67715e-06
5.76317e-06
5.85017e-06
5.93821e-06
6.02737e-06
6.11775e-06
6.20942e-06
6.30249e-06
6.39706e-06
6.49323e-06
6.59112e-06
6.69083e-06
6.79248e-06
6.89616e-06
7.00199e-06
7.11005e-06
7.22042e-06
7.33316e-06
7.4483e-06
7.56587e-06
7.68583e-06
7.80812e-06
7.93261e-06
8.05914e-06
8.18747e-06
8.31727e-06
8.44814e-06
8.57958e-06
8.71098e-06
8.84161e-06
8.97062e-06
9.09702e-06
9.2197e-06
9.33737e-06
9.44861e-06
9.55187e-06
9.64543e-06
9.72747e-06
9.79603e-06
9.84908e-06
9.88457e-06
9.90062e-06
9.89725e-06
9.87342e-06
9.82471e-06
9.74864e-06
9.64339e-06
9.5075e-06
9.3398e-06
9.13947e-06
8.90605e-06
8.63954e-06
8.34038e-06
8.00951e-06
7.64841e-06
7.25904e-06
6.84391e-06
6.406e-06
5.94872e-06
5.47587e-06
4.9915e-06
4.49978e-06
4.00473e-06
3.50898e-06
3.00763e-06
2.51957e-06
2.02971e-06
1.53361e-06
1.04654e-06
5.36706e-07
1.13388e-07
1.97934e-07
8.33411e-06
1.79868e-05
2.53051e-05
3.13542e-05
3.62446e-05
4.04706e-05
4.41855e-05
4.74858e-05
5.04384e-05
5.30873e-05
5.54533e-05
5.75565e-05
5.94152e-05
6.10459e-05
6.24639e-05
6.36833e-05
6.47175e-05
6.55794e-05
6.6281e-05
6.68341e-05
6.72498e-05
6.75382e-05
6.77084e-05
6.77662e-05
6.77067e-05
6.75022e-05
6.72236e-05
6.6881e-05
6.64847e-05
6.60439e-05
6.55668e-05
6.50604e-05
6.45313e-05
6.39853e-05
6.34276e-05
6.28629e-05
6.22956e-05
6.17293e-05
6.11676e-05
6.06136e-05
6.00699e-05
5.9539e-05
5.9023e-05
5.85237e-05
5.80428e-05
5.75816e-05
5.71412e-05
5.67226e-05
5.63266e-05
5.59537e-05
5.56043e-05
5.52788e-05
5.49772e-05
5.46996e-05
5.4446e-05
5.4216e-05
5.40096e-05
5.38261e-05
5.36649e-05
5.35238e-05
5.33964e-05
5.32873e-05
5.31986e-05
5.31311e-05
5.30849e-05
5.30597e-05
5.30551e-05
5.30707e-05
5.3106e-05
5.31607e-05
5.32343e-05
5.33263e-05
5.34364e-05
5.3564e-05
5.37087e-05
5.38702e-05
5.40481e-05
5.42418e-05
5.44512e-05
5.46757e-05
5.49151e-05
5.51689e-05
5.54368e-05
5.57185e-05
5.60135e-05
5.63216e-05
5.66424e-05
5.69756e-05
5.73208e-05
5.76776e-05
5.80457e-05
5.84246e-05
5.88141e-05
5.92137e-05
5.96229e-05
6.00415e-05
6.04689e-05
6.09047e-05
6.13484e-05
6.17996e-05
6.22579e-05
6.27227e-05
6.31935e-05
6.367e-05
6.41515e-05
6.46377e-05
6.51281e-05
6.56222e-05
6.61196e-05
6.66198e-05
6.71226e-05
6.76274e-05
6.81341e-05
6.86422e-05
6.91515e-05
6.96618e-05
7.01728e-05
7.06845e-05
7.11966e-05
7.17091e-05
7.22221e-05
7.27354e-05
7.32491e-05
7.37635e-05
7.42785e-05
7.47944e-05
7.53115e-05
7.583e-05
7.63501e-05
7.68724e-05
7.73971e-05
7.79247e-05
7.84557e-05
7.89904e-05
7.95294e-05
8.00733e-05
8.06224e-05
8.11774e-05
8.17388e-05
8.23069e-05
8.28824e-05
8.34655e-05
8.40567e-05
8.46562e-05
8.52641e-05
8.58804e-05
8.65051e-05
8.71379e-05
8.77782e-05
8.84254e-05
8.90783e-05
8.97358e-05
9.03962e-05
9.10574e-05
9.17171e-05
9.23724e-05
9.30201e-05
9.36563e-05
9.42767e-05
9.48766e-05
9.54505e-05
9.59925e-05
9.64962e-05
9.69546e-05
9.73603e-05
9.77053e-05
9.79813e-05
9.81795e-05
9.82906e-05
9.83045e-05
9.8209e-05
9.7972e-05
9.75937e-05
9.70696e-05
9.63932e-05
9.55574e-05
9.45555e-05
9.33814e-05
9.203e-05
9.04969e-05
8.87793e-05
8.68752e-05
8.47841e-05
8.25064e-05
8.00437e-05
7.73983e-05
7.45729e-05
7.15703e-05
6.8392e-05
6.50368e-05
6.14982e-05
5.7761e-05
5.37954e-05
4.94276e-05
4.4359e-05
3.7922e-05
2.84336e-05
1.42543e-05
4.81192e-07
1.97919e-07
8.33294e-06
1.79845e-05
2.53023e-05
3.13513e-05
3.62416e-05
4.04675e-05
4.41825e-05
4.74828e-05
5.04355e-05
5.30844e-05
5.54506e-05
5.75539e-05
5.94127e-05
6.10435e-05
6.24616e-05
6.36811e-05
6.47154e-05
6.55774e-05
6.62792e-05
6.68324e-05
6.72481e-05
6.75366e-05
6.77069e-05
6.77648e-05
6.77054e-05
6.7501e-05
6.72224e-05
6.68798e-05
6.64835e-05
6.60428e-05
6.55657e-05
6.50593e-05
6.45303e-05
6.39842e-05
6.34265e-05
6.28618e-05
6.22944e-05
6.17282e-05
6.11664e-05
6.06124e-05
6.00686e-05
5.95377e-05
5.90216e-05
5.85223e-05
5.80414e-05
5.75801e-05
5.71397e-05
5.67211e-05
5.6325e-05
5.59521e-05
5.56026e-05
5.52771e-05
5.49755e-05
5.46979e-05
5.44442e-05
5.42142e-05
5.40078e-05
5.38243e-05
5.3663e-05
5.35219e-05
5.33945e-05
5.32854e-05
5.31967e-05
5.31292e-05
5.3083e-05
5.30577e-05
5.30531e-05
5.30687e-05
5.31041e-05
5.31588e-05
5.32323e-05
5.33244e-05
5.34344e-05
5.3562e-05
5.37068e-05
5.38683e-05
5.40461e-05
5.42399e-05
5.44492e-05
5.46738e-05
5.49131e-05
5.5167e-05
5.54349e-05
5.57165e-05
5.60116e-05
5.63197e-05
5.66406e-05
5.69738e-05
5.73189e-05
5.76758e-05
5.80438e-05
5.84228e-05
5.88123e-05
5.92119e-05
5.96212e-05
6.00397e-05
6.04672e-05
6.0903e-05
6.13467e-05
6.1798e-05
6.22563e-05
6.27211e-05
6.31919e-05
6.36684e-05
6.415e-05
6.46362e-05
6.51266e-05
6.56207e-05
6.61181e-05
6.66184e-05
6.71212e-05
6.7626e-05
6.81327e-05
6.86409e-05
6.91502e-05
6.96605e-05
7.01715e-05
7.06832e-05
7.11953e-05
7.17079e-05
7.22208e-05
7.27342e-05
7.3248e-05
7.37623e-05
7.42773e-05
7.47933e-05
7.53104e-05
7.58288e-05
7.6349e-05
7.68713e-05
7.7396e-05
7.79237e-05
7.84546e-05
7.89893e-05
7.95284e-05
8.00722e-05
8.06214e-05
8.11764e-05
8.17378e-05
8.2306e-05
8.28814e-05
8.34646e-05
8.40557e-05
8.46552e-05
8.52631e-05
8.58794e-05
8.65042e-05
8.71369e-05
8.77773e-05
8.84244e-05
8.90774e-05
8.97348e-05
9.03952e-05
9.10564e-05
9.17161e-05
9.23715e-05
9.30191e-05
9.36553e-05
9.42758e-05
9.48756e-05
9.54495e-05
9.59915e-05
9.64952e-05
9.69536e-05
9.73593e-05
9.77043e-05
9.79803e-05
9.81785e-05
9.82897e-05
9.83036e-05
9.82081e-05
9.79712e-05
9.7593e-05
9.70689e-05
9.63925e-05
9.55567e-05
9.45549e-05
9.33808e-05
9.20294e-05
9.04964e-05
8.87788e-05
8.68748e-05
8.47837e-05
8.25061e-05
8.00433e-05
7.73979e-05
7.45726e-05
7.157e-05
6.83917e-05
6.50365e-05
6.14979e-05
5.77607e-05
5.37951e-05
4.94273e-05
4.43587e-05
3.79217e-05
2.84333e-05
1.42543e-05
4.8119e-07
4.10963e-07
1.77005e-05
4.08402e-05
5.85634e-05
7.25511e-05
8.40102e-05
9.37463e-05
0.000102193
0.00010959
0.000116092
0.000121805
0.000126807
0.000131161
0.000134921
0.000138138
0.000140857
0.00014312
0.000144968
0.00014644
0.000147571
0.000148395
0.000148945
0.000149247
0.000149328
0.000149206
0.000148889
0.00014837
0.00014772
0.000146965
0.000146129
0.000145231
0.000144288
0.000143314
0.00014232
0.000141315
0.00014031
0.00013931
0.000138323
0.000137353
0.000136404
0.000135481
0.000134586
0.000133722
0.000132891
0.000132094
0.000131333
0.000130608
0.00012992
0.000129269
0.000128657
0.000128081
0.000127543
0.000127042
0.000126578
0.00012615
0.000125758
0.000125401
0.000125078
0.000124788
0.000124529
0.000124298
0.00012409
0.000123908
0.000123754
0.000123631
0.000123538
0.000123476
0.000123445
0.000123444
0.000123475
0.000123535
0.000123625
0.000123744
0.000123892
0.000124069
0.000124274
0.000124507
0.000124767
0.000125054
0.000125367
0.000125707
0.000126072
0.000126463
0.000126878
0.000127317
0.00012778
0.000128267
0.000128776
0.000129308
0.000129861
0.000130435
0.00013103
0.000131644
0.000132278
0.00013293
0.0001336
0.000134286
0.000134989
0.000135706
0.000136438
0.000137184
0.000137942
0.000138712
0.000139493
0.000140284
0.000141083
0.000141891
0.000142707
0.000143529
0.000144356
0.000145189
0.000146026
0.000146867
0.000147711
0.000148558
0.000149408
0.000150259
0.000151112
0.000151966
0.000152822
0.000153679
0.000154537
0.000155397
0.000156259
0.000157122
0.000157988
0.000158856
0.000159728
0.000160604
0.000161483
0.000162368
0.000163259
0.000164156
0.000165061
0.000165974
0.000166896
0.000167829
0.000168772
0.000169727
0.000170694
0.000171675
0.00017267
0.00017368
0.000174705
0.000175745
0.000176801
0.000177872
0.000178958
0.000180058
0.000181171
0.000182295
0.000183428
0.000184567
0.00018571
0.000186852
0.000187989
0.000189115
0.000190224
0.00019131
0.000192365
0.00019338
0.000194346
0.000195253
0.000196089
0.000196843
0.000197503
0.000198054
0.000198484
0.000198777
0.000198918
0.000198889
0.00019867
0.000198226
0.000197548
0.000196626
0.000195449
0.000194004
0.000192281
0.000190267
0.000187954
0.000185331
0.00018239
0.000179121
0.000175517
0.000171569
0.000167268
0.000162603
0.000157561
0.000152123
0.000146262
0.000139935
0.000133074
0.000125562
0.000117188
0.000107525
9.57937e-05
8.04913e-05
5.8848e-05
2.77777e-05
1.02066e-06
4.10937e-07
1.76984e-05
4.0835e-05
5.85565e-05
7.25434e-05
8.40021e-05
9.37382e-05
0.000102185
0.000109583
0.000116084
0.000121797
0.0001268
0.000131154
0.000134915
0.000138132
0.000140851
0.000143115
0.000144964
0.000146436
0.000147567
0.000148392
0.000148942
0.000149245
0.000149326
0.000149204
0.000148887
0.000148369
0.000147718
0.000146963
0.000146128
0.00014523
0.000144287
0.000143313
0.000142318
0.000141314
0.000140309
0.000139309
0.000138322
0.000137351
0.000136403
0.000135479
0.000134584
0.00013372
0.000132889
0.000132092
0.00013133
0.000130605
0.000129917
0.000129267
0.000128654
0.000128078
0.00012754
0.000127039
0.000126575
0.000126147
0.000125755
0.000125397
0.000125074
0.000124784
0.000124525
0.000124294
0.000124086
0.000123904
0.00012375
0.000123627
0.000123534
0.000123472
0.000123441
0.00012344
0.00012347
0.00012353
0.00012362
0.00012374
0.000123888
0.000124065
0.00012427
0.000124503
0.000124763
0.00012505
0.000125363
0.000125703
0.000126068
0.000126459
0.000126874
0.000127313
0.000127777
0.000128263
0.000128772
0.000129304
0.000129857
0.000130432
0.000131026
0.000131641
0.000132275
0.000132927
0.000133596
0.000134283
0.000134985
0.000135703
0.000136435
0.000137181
0.000137939
0.000138709
0.00013949
0.000140281
0.000141081
0.000141889
0.000142704
0.000143526
0.000144354
0.000145187
0.000146024
0.000146865
0.000147709
0.000148556
0.000149406
0.000150257
0.00015111
0.000151964
0.00015282
0.000153677
0.000154536
0.000155395
0.000156257
0.000157121
0.000157986
0.000158855
0.000159727
0.000160602
0.000161482
0.000162367
0.000163258
0.000164155
0.00016506
0.000165973
0.000166895
0.000167827
0.000168771
0.000169726
0.000170693
0.000171674
0.000172669
0.000173679
0.000174704
0.000175744
0.0001768
0.000177871
0.000178957
0.000180057
0.00018117
0.000182294
0.000183427
0.000184566
0.000185709
0.000186851
0.000187987
0.000189114
0.000190223
0.000191309
0.000192364
0.000193379
0.000194345
0.000195252
0.000196088
0.000196842
0.000197502
0.000198053
0.000198483
0.000198776
0.000198917
0.000198889
0.000198669
0.000198225
0.000197548
0.000196626
0.000195448
0.000194004
0.000192281
0.000190268
0.000187955
0.000185332
0.00018239
0.000179122
0.000175518
0.00017157
0.000167269
0.000162604
0.000157562
0.000152124
0.000146263
0.000139936
0.000133075
0.000125563
0.000117189
0.000107526
9.57943e-05
8.04915e-05
5.8848e-05
2.7778e-05
1.02066e-06
6.20792e-07
2.42627e-05
5.73678e-05
8.37802e-05
0.000104975
0.000122598
0.000137624
0.000150635
0.000161987
0.00017192
0.000180601
0.000188157
0.000194693
0.000200298
0.000205052
0.000209031
0.000212303
0.000214936
0.000216993
0.000218533
0.000219614
0.000220286
0.000220599
0.000220593
0.000220306
0.000219765
0.000218989
0.000218037
0.00021695
0.000215759
0.000214492
0.000213174
0.000211822
0.000210455
0.000209085
0.000207725
0.000206383
0.000205068
0.000203786
0.000202542
0.00020134
0.000200184
0.000199076
0.000198018
0.000197009
0.000196052
0.000195146
0.000194291
0.000193486
0.000192731
0.000192024
0.000191364
0.000190751
0.000190182
0.000189656
0.000189172
0.000188728
0.000188323
0.000187955
0.000187622
0.00018732
0.000187046
0.000186802
0.000186589
0.000186408
0.00018626
0.000186146
0.000186066
0.000186021
0.000186011
0.000186035
0.000186094
0.000186187
0.000186315
0.000186478
0.000186676
0.000186908
0.000187174
0.000187475
0.000187809
0.000188177
0.000188579
0.000189014
0.000189483
0.000189983
0.000190517
0.000191081
0.000191677
0.000192304
0.000192961
0.000193647
0.000194362
0.000195105
0.000195875
0.000196671
0.000197492
0.000198337
0.000199205
0.000200095
0.000201006
0.000201936
0.000202885
0.00020385
0.000204832
0.000205829
0.000206839
0.000207861
0.000208894
0.000209938
0.000210991
0.000212052
0.00021312
0.000214195
0.000215275
0.000216361
0.000217451
0.000218545
0.000219643
0.000220745
0.00022185
0.000222958
0.00022407
0.000225186
0.000226305
0.00022743
0.000228559
0.000229694
0.000230835
0.000231983
0.000233139
0.000234305
0.00023548
0.000236666
0.000237865
0.000239077
0.000240303
0.000241545
0.000242804
0.000244082
0.000245378
0.000246695
0.000248032
0.000249391
0.000250773
0.000252177
0.000253604
0.000255052
0.000256522
0.000258012
0.000259519
0.000261043
0.000262579
0.000264124
0.000265674
0.000267222
0.000268763
0.000270289
0.000271791
0.000273261
0.000274689
0.000276062
0.000277368
0.000278593
0.000279724
0.000280744
0.000281637
0.000282385
0.000282971
0.000283375
0.000283578
0.00028356
0.000283287
0.000282734
0.000281885
0.000280721
0.000279226
0.000277385
0.000275179
0.000272594
0.000269612
0.000266217
0.000262392
0.000258119
0.000253378
0.000248148
0.000242402
0.00023611
0.000229233
0.000221719
0.000213499
0.000204473
0.00019449
0.000183313
0.00017055
0.000155529
0.000137114
0.000113392
8.13535e-05
3.79947e-05
1.61531e-06
6.2076e-07
2.42603e-05
5.73611e-05
8.37709e-05
0.000104964
0.000122586
0.000137612
0.000150622
0.000161975
0.000171908
0.000180589
0.000188147
0.000194683
0.000200289
0.000205044
0.000209023
0.000212296
0.00021493
0.000216987
0.000218528
0.000219609
0.000220282
0.000220595
0.000220591
0.000220304
0.000219763
0.000218988
0.000218036
0.000216949
0.000215758
0.000214492
0.000213173
0.000211822
0.000210455
0.000209085
0.000207724
0.000206382
0.000205067
0.000203785
0.000202541
0.00020134
0.000200183
0.000199075
0.000198016
0.000197008
0.00019605
0.000195144
0.000194289
0.000193484
0.000192728
0.000192021
0.000191361
0.000190747
0.000190178
0.000189652
0.000189168
0.000188724
0.000188319
0.000187951
0.000187617
0.000187315
0.000187041
0.000186797
0.000186584
0.000186402
0.000186255
0.000186141
0.000186061
0.000186016
0.000186005
0.000186029
0.000186088
0.000186182
0.00018631
0.000186473
0.000186671
0.000186903
0.000187169
0.000187469
0.000187804
0.000188172
0.000188574
0.00018901
0.000189478
0.000189979
0.000190512
0.000191077
0.000191673
0.0001923
0.000192957
0.000193643
0.000194358
0.000195101
0.000195871
0.000196667
0.000197488
0.000198333
0.000199201
0.000200091
0.000201002
0.000201933
0.000202881
0.000203847
0.000204829
0.000205826
0.000206836
0.000207858
0.000208892
0.000209936
0.000210989
0.00021205
0.000213118
0.000214193
0.000215273
0.000216359
0.000217449
0.000218543
0.000219641
0.000220743
0.000221848
0.000222957
0.000224069
0.000225184
0.000226304
0.000227428
0.000228558
0.000229693
0.000230834
0.000231982
0.000233138
0.000234304
0.000235479
0.000236665
0.000237864
0.000239076
0.000240302
0.000241544
0.000242804
0.000244081
0.000245377
0.000246694
0.000248031
0.000249391
0.000250772
0.000252176
0.000253603
0.000255051
0.000256521
0.000258011
0.000259519
0.000261042
0.000262578
0.000264124
0.000265673
0.000267221
0.000268762
0.000270288
0.00027179
0.000273261
0.000274688
0.000276061
0.000277367
0.000278592
0.000279723
0.000280743
0.000281636
0.000282384
0.00028297
0.000283375
0.000283578
0.00028356
0.000283286
0.000282734
0.000281885
0.000280721
0.000279227
0.000277385
0.00027518
0.000272595
0.000269613
0.000266219
0.000262394
0.000258121
0.00025338
0.00024815
0.000242404
0.000236112
0.000229235
0.000221721
0.000213501
0.000204475
0.000194493
0.000183316
0.000170552
0.000155531
0.000137116
0.000113393
8.13541e-05
3.79954e-05
1.61531e-06
8.30345e-07
2.91784e-05
6.93402e-05
0.000102636
0.000129939
0.00015288
0.000172538
0.000189593
0.000204488
0.000217522
0.000228913
0.000238828
0.000247401
0.00025475
0.00026098
0.000266188
0.000270466
0.000273901
0.000276579
0.000278578
0.000279973
0.000280837
0.000281235
0.000281225
0.00028086
0.000280187
0.000279244
0.000278079
0.000276751
0.000275298
0.000273756
0.000272151
0.000270509
0.00026885
0.000267193
0.00026555
0.000263934
0.000262354
0.000260818
0.000259332
0.0002579
0.000256527
0.000255215
0.000253964
0.000252777
0.000251652
0.000250591
0.000249592
0.000248653
0.000247773
0.00024695
0.000246182
0.000245468
0.000244803
0.000244187
0.000243617
0.00024309
0.000242605
0.000242159
0.000241749
0.000241372
0.000241027
0.000240711
0.000240428
0.000240178
0.00023996
0.000239778
0.00023963
0.000239517
0.000239441
0.000239401
0.000239398
0.000239433
0.000239506
0.000239617
0.000239767
0.000239956
0.000240184
0.000240452
0.000240759
0.000241106
0.000241494
0.000241921
0.000242387
0.000242894
0.000243439
0.000244024
0.000244647
0.000245309
0.000246008
0.000246744
0.000247516
0.000248323
0.000249164
0.000250039
0.000250945
0.000251883
0.00025285
0.000253845
0.000254867
0.000255915
0.000256987
0.000258081
0.000259196
0.000260331
0.000261484
0.000262654
0.000263839
0.000265038
0.00026625
0.000267474
0.000268708
0.000269952
0.000271204
0.000272465
0.000273733
0.000275008
0.000276289
0.000277576
0.000278869
0.000280169
0.000281475
0.000282787
0.000284106
0.000285433
0.000286767
0.000288111
0.000289464
0.000290828
0.000292204
0.000293592
0.000294995
0.000296414
0.000297849
0.000299303
0.000300777
0.000302272
0.000303789
0.000305331
0.000306898
0.000308491
0.000310112
0.000311762
0.00031344
0.000315147
0.000316883
0.000318647
0.000320439
0.000322256
0.000324096
0.000325957
0.000327834
0.000329723
0.000331617
0.000333511
0.000335397
0.000337266
0.000339107
0.00034091
0.000342662
0.000344349
0.000345957
0.000347469
0.000348869
0.000350137
0.000351255
0.000352203
0.000352958
0.000353499
0.000353803
0.000353846
0.000353594
0.000353021
0.000352106
0.000350827
0.000349163
0.000347092
0.000344592
0.000341642
0.000338217
0.000334295
0.000329847
0.000324846
0.000319257
0.000313043
0.000306159
0.000298551
0.00029015
0.000280872
0.000270602
0.000259181
0.000246381
0.000231857
0.000215073
0.000195175
0.000170791
0.000139764
9.89572e-05
4.5898e-05
2.25279e-06
8.30306e-07
2.91757e-05
6.93329e-05
0.000102626
0.000129926
0.000152866
0.000172523
0.000189578
0.000204473
0.000217507
0.000228899
0.000238815
0.000247389
0.000254739
0.000260969
0.000266178
0.000270457
0.000273894
0.000276572
0.000278572
0.000279969
0.000280833
0.000281232
0.000281222
0.000280858
0.000280185
0.000279244
0.000278078
0.000276751
0.000275299
0.000273756
0.000272152
0.00027051
0.000268852
0.000267194
0.000265551
0.000263935
0.000262355
0.000260819
0.000259333
0.000257901
0.000256528
0.000255215
0.000253964
0.000252776
0.000251652
0.00025059
0.00024959
0.000248651
0.000247771
0.000246948
0.00024618
0.000245465
0.0002448
0.000244184
0.000243614
0.000243087
0.000242601
0.000242155
0.000241744
0.000241368
0.000241022
0.000240707
0.000240423
0.000240173
0.000239955
0.000239772
0.000239624
0.000239512
0.000239436
0.000239396
0.000239393
0.000239428
0.000239501
0.000239612
0.000239762
0.000239951
0.000240179
0.000240447
0.000240754
0.000241101
0.000241489
0.000241916
0.000242382
0.000242889
0.000243435
0.000244019
0.000244643
0.000245304
0.000246004
0.00024674
0.000247512
0.000248319
0.00024916
0.000250035
0.000250942
0.000251879
0.000252846
0.000253842
0.000254864
0.000255912
0.000256984
0.000258078
0.000259193
0.000260328
0.000261482
0.000262651
0.000263837
0.000265036
0.000266248
0.000267472
0.000268706
0.00026995
0.000271203
0.000272463
0.000273731
0.000275006
0.000276287
0.000277575
0.000278868
0.000280168
0.000281474
0.000282786
0.000284105
0.000285432
0.000286767
0.00028811
0.000289463
0.000290827
0.000292203
0.000293592
0.000294995
0.000296414
0.000297849
0.000299303
0.000300777
0.000302272
0.000303789
0.000305331
0.000306898
0.000308491
0.000310112
0.000311761
0.000313439
0.000315147
0.000316883
0.000318647
0.000320438
0.000322256
0.000324096
0.000325957
0.000327834
0.000329722
0.000331617
0.000333511
0.000335397
0.000337265
0.000339107
0.00034091
0.000342662
0.000344349
0.000345957
0.000347469
0.000348869
0.000350137
0.000351255
0.000352202
0.000352958
0.000353499
0.000353803
0.000353846
0.000353594
0.000353022
0.000352107
0.000350828
0.000349164
0.000347093
0.000344593
0.000341643
0.000338219
0.000334297
0.00032985
0.000324848
0.00031926
0.000313046
0.000306162
0.000298554
0.000290154
0.000280876
0.000270605
0.000259184
0.000246384
0.00023186
0.000215077
0.000195177
0.000170793
0.000139766
9.89583e-05
4.5899e-05
2.25278e-06
1.04273e-06
3.29691e-05
7.85528e-05
0.000117404
0.000149782
0.000177224
0.000200853
0.000221413
0.000239406
0.00025518
0.00026899
0.000281031
0.000291463
0.000300424
0.000308038
0.000314419
0.000319677
0.000323915
0.000327233
0.000329727
0.000331489
0.000332607
0.000333159
0.000333221
0.00033286
0.000332136
0.000331103
0.000329811
0.000328327
0.000326695
0.000324957
0.000323144
0.000321286
0.000319408
0.000317528
0.000315665
0.000313831
0.000312038
0.000310293
0.000308606
0.000306979
0.000305419
0.000303927
0.000302505
0.000301155
0.000299876
0.000298668
0.000297529
0.000296459
0.000295454
0.000294513
0.000293633
0.000292812
0.000292045
0.00029133
0.000290664
0.000290044
0.000289467
0.000288931
0.000288432
0.000287967
0.000287536
0.000287134
0.000286766
0.000286429
0.000286126
0.000285856
0.000285621
0.000285422
0.00028526
0.000285134
0.000285047
0.000284999
0.000284991
0.000285024
0.000285099
0.000285216
0.000285376
0.00028558
0.000285828
0.000286121
0.000286459
0.000286842
0.00028727
0.000287745
0.000288265
0.00028883
0.00028944
0.000290095
0.000290795
0.000291537
0.000292323
0.00029315
0.000294019
0.000294927
0.000295873
0.000296857
0.000297877
0.00029893
0.000300017
0.000301135
0.000302282
0.000303457
0.000304658
0.000305883
0.000307131
0.000308401
0.00030969
0.000310997
0.000312321
0.00031366
0.000315014
0.00031638
0.000317759
0.000319148
0.000320549
0.000321958
0.000323378
0.000324806
0.000326244
0.000327691
0.000329146
0.000330612
0.000332087
0.000333573
0.00033507
0.00033658
0.000338102
0.000339639
0.000341192
0.000342762
0.00034435
0.000345958
0.000347588
0.00034924
0.000350918
0.000352622
0.000354354
0.000356115
0.000357908
0.000359733
0.000361591
0.000363484
0.000365412
0.000367374
0.000369372
0.000371404
0.000373468
0.000375564
0.000377688
0.000379836
0.000382005
0.000384188
0.00038638
0.000388573
0.000390758
0.000392925
0.000395062
0.000397158
0.000399198
0.000401166
0.000403047
0.000404822
0.000406473
0.000407979
0.000409318
0.000410468
0.000411406
0.000412107
0.000412547
0.000412698
0.000412527
0.000412006
0.000411112
0.000409817
0.000408098
0.000405927
0.000403279
0.000400124
0.000396432
0.00039217
0.0003873
0.000381782
0.000375568
0.000368603
0.00036082
0.000352142
0.000342473
0.000331692
0.000319642
0.000306111
0.000290802
0.000273284
0.000252909
0.000228684
0.000199077
0.000161772
0.000113581
5.25815e-05
2.89029e-06
1.04269e-06
3.29663e-05
7.85451e-05
0.000117393
0.000149768
0.000177209
0.000200836
0.000221396
0.000239389
0.000255164
0.000268974
0.000281016
0.000291449
0.000300412
0.000308027
0.000314409
0.000319668
0.000323907
0.000327226
0.000329721
0.000331485
0.000332603
0.000333157
0.00033322
0.000332859
0.000332136
0.000331104
0.000329812
0.000328328
0.000326698
0.000324959
0.000323147
0.000321289
0.000319411
0.000317532
0.000315668
0.000313834
0.000312041
0.000310296
0.000308608
0.000306982
0.000305421
0.000303929
0.000302507
0.000301156
0.000299877
0.000298669
0.00029753
0.000296459
0.000295454
0.000294513
0.000293633
0.000292811
0.000292043
0.000291328
0.000290662
0.000290042
0.000289465
0.000288928
0.000288429
0.000287964
0.000287532
0.000287131
0.000286762
0.000286425
0.000286122
0.000285852
0.000285617
0.000285418
0.000285255
0.00028513
0.000285043
0.000284995
0.000284987
0.00028502
0.000285095
0.000285212
0.000285372
0.000285576
0.000285824
0.000286117
0.000286454
0.000286838
0.000287267
0.000287741
0.000288261
0.000288826
0.000289437
0.000290092
0.000290791
0.000291534
0.00029232
0.000293147
0.000294016
0.000294924
0.000295871
0.000296854
0.000297874
0.000298928
0.000300015
0.000301132
0.00030228
0.000303455
0.000304656
0.000305882
0.00030713
0.0003084
0.000309689
0.000310996
0.00031232
0.00031366
0.000315013
0.00031638
0.000317758
0.000319148
0.000320548
0.000321958
0.000323378
0.000324806
0.000326244
0.000327691
0.000329146
0.000330612
0.000332087
0.000333573
0.00033507
0.00033658
0.000338103
0.00033964
0.000341193
0.000342763
0.000344351
0.000345959
0.000347588
0.000349241
0.000350919
0.000352623
0.000354355
0.000356116
0.000357909
0.000359734
0.000361592
0.000363485
0.000365412
0.000367375
0.000369373
0.000371405
0.000373469
0.000375565
0.000377688
0.000379837
0.000382006
0.000384189
0.000386381
0.000388574
0.000390759
0.000392925
0.000395063
0.000397158
0.000399198
0.000401167
0.000403048
0.000404823
0.000406473
0.000407979
0.000409318
0.000410469
0.000411407
0.000412108
0.000412548
0.000412699
0.000412528
0.000412008
0.000411113
0.000409819
0.0004081
0.00040593
0.000403281
0.000400127
0.000396435
0.000392173
0.000387304
0.000381786
0.000375572
0.000368607
0.000360824
0.000352146
0.000342478
0.000331697
0.000319646
0.000306115
0.000290807
0.000273289
0.000252913
0.000228688
0.00019908
0.000161775
0.000113583
5.25827e-05
2.89029e-06
1.25679e-06
3.62336e-05
8.61699e-05
0.000129569
0.000166181
0.000197432
0.000224456
0.000248039
0.000268725
0.000286898
0.000302841
0.000316774
0.000328876
0.000339302
0.000348189
0.000355665
0.000361852
0.000366867
0.000370822
0.000373826
0.000375984
0.000377396
0.000378155
0.000378347
0.000378053
0.000377344
0.000376285
0.000374935
0.000373364
0.000371622
0.000369755
0.0003678
0.00036579
0.000363751
0.000361708
0.000359677
0.000357674
0.000355712
0.000353799
0.000351945
0.000350154
0.000348432
0.000346782
0.000345206
0.000343704
0.000342279
0.000340928
0.000339652
0.000338448
0.000337315
0.000336249
0.000335248
0.000334308
0.000333426
0.000332599
0.000331823
0.000331095
0.000330411
0.000329768
0.000329164
0.000328595
0.00032806