/*--------------------------------*- C++ -*----------------------------------*\
  =========                 |
  \\      /  F ield         | OpenFOAM: The Open Source CFD Toolbox
   \\    /   O peration     | Website:  https://openfoam.org
    \\  /    A nd           | Version:  8
     \\/     M anipulation  |
\*---------------------------------------------------------------------------*/
FoamFile
{
    version     2.0;
    format      ascii;
    class       volScalarField;
    location    "1100";
    object      epsilon;
}
// * * * * * * * * * * * * * * * * * * * * * * * * * * * * * * * * * * * * * //

dimensions      [0 2 -3 0 0 0 0];

internalField   nonuniform List<scalar> 
46000
(
0.786909
3.47572
7.41691
11.6842
16.1807
20.8659
25.5086
30.0093
34.3644
38.5168
42.4168
46.079
49.4933
52.6499
55.541
58.1611
60.5067
62.5768
64.3724
65.8966
67.1543
68.1527
68.9002
69.4065
69.6822
69.7471
69.6974
69.4832
69.1011
68.5621
67.8817
67.0767
66.1645
65.1622
64.0864
62.953
61.7772
60.573
59.3535
58.1304
56.9145
55.7151
54.5406
53.3981
52.2934
51.2316
50.2168
49.2518
48.3392
47.4804
46.6764
45.9277
45.2343
44.5957
44.0113
43.48
43.0006
42.572
42.1926
41.8607
41.5752
41.3434
41.1644
41.0275
40.9303
40.8715
40.8501
40.8651
40.9156
41.0008
41.1199
41.2722
41.4569
41.6735
41.9214
42.2
42.5088
42.8475
43.2156
43.6127
44.0387
44.493
44.9756
45.4861
46.0244
46.5903
47.1835
47.8039
48.4514
49.1257
49.8266
50.554
51.3077
52.0874
52.8928
53.7237
54.5797
55.4604
56.3655
57.2945
58.2469
59.2221
60.2197
61.2389
62.2791
63.3397
64.4198
65.5189
66.6361
67.7708
68.9221
70.0892
71.2716
72.4685
73.6792
74.9032
76.1398
77.3887
78.6492
79.9213
81.2045
82.4987
83.8039
85.1201
86.4475
87.7863
89.137
90.5001
91.8763
93.2662
94.6708
96.0912
97.5285
98.9839
100.459
101.955
103.473
105.016
106.585
108.182
109.808
111.466
113.157
114.883
116.645
118.445
120.283
122.161
124.078
126.034
128.028
130.058
132.122
134.215
136.332
138.467
140.612
142.757
144.889
146.996
149.06
151.065
152.989
154.809
156.499
158.033
159.379
160.507
161.383
161.974
162.248
162.206
161.831
161.052
159.826
158.125
155.925
153.205
149.952
146.158
141.823
136.953
131.563
125.676
119.323
112.546
105.392
97.9146
90.1765
82.2427
74.1809
66.0562
57.9125
49.664
41.6273
33.5533
25.3682
17.3236
8.89487
2.08689
0.786861
3.47553
7.41658
11.6838
16.1803
20.8654
25.5081
30.0088
34.3639
38.5164
42.4164
46.0787
49.493
52.6497
55.5409
58.161
60.5067
62.5769
64.3725
65.8967
67.1545
68.1529
68.9004
69.4067
69.6825
69.7474
69.6977
69.4835
69.1015
68.5625
67.8821
67.0771
66.1649
65.1625
64.0867
62.9533
61.7775
60.5733
59.3537
58.1306
56.9147
55.7153
54.5407
53.3981
52.2935
51.2317
50.2168
49.2518
48.3392
47.4803
46.6764
45.9277
45.2342
44.5956
44.0112
43.4799
43.0005
42.5719
42.1924
41.8606
41.5751
41.3432
41.1643
41.0274
40.9301
40.8713
40.8499
40.8649
40.9155
41.0007
41.1198
41.2721
41.4568
41.6734
41.9213
42.1999
42.5087
42.8474
43.2155
43.6127
44.0386
44.493
44.9756
45.4861
46.0244
46.5903
47.1835
47.804
48.4514
49.1257
49.8267
50.5541
51.3078
52.0875
52.8929
53.7238
54.5798
55.4606
56.3657
57.2947
58.2471
59.2224
60.2199
61.2391
62.2793
63.3399
64.4201
65.5192
66.6364
67.7711
68.9224
70.0896
71.272
72.4689
73.6796
74.9036
76.1402
77.3891
78.6497
79.9217
81.2049
82.4991
83.8043
85.1205
86.4479
87.7868
89.1375
90.5006
91.8768
93.2667
94.6713
96.0917
97.529
98.9844
100.459
101.955
103.474
105.017
106.586
108.183
109.809
111.467
113.158
114.884
116.646
118.445
120.284
122.161
124.078
126.034
128.028
130.059
132.122
134.215
136.333
138.468
140.613
142.757
144.89
146.996
149.061
151.066
152.99
154.809
156.5
158.033
159.38
160.508
161.384
161.974
162.249
162.207
161.832
161.053
159.827
158.126
155.926
153.206
149.953
146.159
141.824
136.954
131.564
125.677
119.325
112.547
105.393
97.9156
90.1774
82.2436
74.1817
66.0569
57.9131
49.6645
41.6277
33.5536
25.3684
17.3238
8.89504
2.08693
3.90541
3.25441
4.68945
6.38968
8.18257
10.045
11.9333
13.7888
15.6066
17.3764
19.0868
20.7332
22.3094
23.8085
25.2239
26.549
27.7776
28.9039
29.9228
30.8299
31.6217
32.2957
32.8505
33.2863
33.605
33.8146
33.9376
33.9626
33.8893
33.721
33.4638
33.1255
32.7147
32.2407
31.7128
31.1406
30.5334
29.9001
29.249
28.588
27.9244
27.2644
26.6139
25.9778
25.3602
24.7647
24.1941
23.6507
23.1362
22.6516
22.1979
21.7753
21.384
21.0237
20.694
20.3944
20.1241
19.8825
19.6686
19.4816
19.3214
19.189
19.0837
19.0024
18.9435
18.906
18.889
18.892
18.9143
18.9553
19.0146
19.0916
19.1859
19.2972
19.425
19.5692
19.7293
19.9051
20.0963
20.3029
20.5245
20.761
21.0123
21.2782
21.5587
21.8535
22.1627
22.4861
22.8237
23.1754
23.5411
23.9207
24.3141
24.7213
25.1422
25.5766
26.0245
26.4856
26.9598
27.447
27.9469
28.4594
28.9841
29.5209
30.0693
30.6292
31.2002
31.782
32.3742
32.9765
33.5885
34.2098
34.8401
35.4789
36.1261
36.7812
37.4438
38.1139
38.7909
39.4749
40.1654
40.8625
41.5661
42.276
42.9923
43.7151
44.4445
45.1807
45.924
46.6747
47.4332
48.2
48.9757
49.7608
50.556
51.3622
52.18
53.0104
53.8542
54.7124
55.586
56.4759
57.3831
58.3085
59.2531
60.2176
61.2026
62.2087
63.2361
64.2849
65.3547
66.4449
67.5542
68.6809
69.8227
70.9765
72.1384
73.3035
74.4661
75.6193
76.7551
77.864
78.9356
79.958
80.9178
81.8006
82.5906
83.2711
83.8246
84.2336
84.4821
84.5608
84.4588
84.1481
83.607
82.8176
81.7652
80.4383
78.8284
76.9306
74.7438
72.2711
69.5201
66.5027
63.2355
59.7392
56.0386
52.1618
48.1399
44.0058
39.7934
35.536
31.2628
26.9947
22.7928
18.6584
14.7198
11.1674
8.28252
9.54277
3.90518
3.25456
4.68981
6.3902
8.18322
10.0458
11.9342
13.7897
15.6076
17.3775
19.088
20.7344
22.3106
23.8097
25.2251
26.5502
27.7788
28.9051
29.924
30.8311
31.6228
32.2968
32.8517
33.2874
33.6061
33.8157
33.9386
33.9636
33.8903
33.7219
33.4648
33.1265
32.7157
32.2416
31.7137
31.1415
30.5343
29.9009
29.2499
28.5889
27.9252
27.2653
26.6148
25.9786
25.361
24.7655
24.195
23.6516
23.137
22.6525
22.1987
21.7761
21.3848
21.0245
20.6948
20.3952
20.125
19.8833
19.6694
19.4825
19.3222
19.1899
19.0845
19.0032
18.9443
18.9068
18.8899
18.8929
18.9152
18.9562
19.0154
19.0924
19.1868
19.2981
19.4259
19.5701
19.7302
19.906
20.0972
20.3038
20.5254
20.762
21.0133
21.2792
21.5596
21.8545
22.1637
22.4871
22.8247
23.1764
23.542
23.9217
24.3151
24.7223
25.1432
25.5776
26.0255
26.4866
26.9609
27.4481
27.948
28.4604
28.9852
29.5219
30.0704
30.6303
31.2013
31.7831
32.3753
32.9776
33.5896
34.2109
34.8411
35.48
36.1272
36.7823
37.4449
38.115
38.792
39.476
40.1665
40.8636
41.5672
42.2771
42.9934
43.7162
44.4456
45.1818
45.9251
46.6758
47.4343
48.2011
48.9768
49.7619
50.5571
51.3633
52.1811
53.0114
53.8553
54.7135
55.587
56.4769
57.3842
58.3096
59.2542
60.2186
61.2037
62.2098
63.2372
64.286
65.3559
66.446
67.5553
68.6821
69.8239
70.9777
72.1395
73.3047
74.4673
75.6206
76.7563
77.8653
78.9369
79.9593
80.9191
81.8019
82.5919
83.2724
83.826
84.2349
84.4835
84.5621
84.4601
84.1495
83.6083
82.8189
81.7665
80.4395
78.8296
76.9318
74.745
72.2723
69.5212
66.5038
63.2365
59.7402
56.0395
52.1627
48.1408
44.0066
39.7942
35.5367
31.2634
26.9952
22.7933
18.6588
14.7201
11.1675
8.28254
9.5427
7.93898
4.65136
5.19787
6.27611
7.52135
8.83921
10.1932
11.5554
12.9112
14.25
15.5628
16.8426
18.0832
19.2786
20.4226
21.5092
22.5325
23.4868
24.3664
25.1662
25.8815
26.5082
27.0432
27.4844
27.8315
28.0865
28.2554
28.3376
28.3332
28.2445
28.0757
27.8321
27.5204
27.1479
26.7223
26.2518
25.7444
25.2081
24.6507
24.0795
23.5012
22.9221
22.3477
21.7831
21.2324
20.6992
20.1867
19.6971
19.2323
18.7937
18.3823
17.9986
17.6428
17.315
17.0149
16.742
16.4957
16.2756
16.0808
15.9107
15.7648
15.643
15.5446
15.468
15.4121
15.3758
15.3586
15.3595
15.378
15.4136
15.4657
15.5339
15.6177
15.7168
15.8308
15.9593
16.1021
16.2589
16.4295
16.6137
16.8112
17.022
17.2458
17.4825
17.732
17.9942
18.269
18.5563
18.856
19.168
19.4924
19.8289
20.1776
20.5383
20.9109
21.2954
21.6917
22.0997
22.5191
22.9499
23.3919
23.8449
24.3087
24.7832
25.268
25.7629
26.2676
26.7819
27.3055
27.838
28.3792
28.9287
29.4862
30.0514
30.6239
31.2035
31.7899
32.3827
32.9818
33.5869
34.1979
34.8145
35.4366
36.0642
36.6973
37.3358
37.9799
38.6296
39.2852
39.9469
40.6149
41.2897
41.9717
42.6614
43.3593
44.066
44.7822
45.5086
46.246
46.9951
47.7567
48.5318
49.321
50.1252
50.9453
51.7817
52.6352
53.5063
54.3951
55.3018
56.2261
57.1675
58.1251
59.0975
60.0827
61.0784
62.0811
63.0871
64.0914
65.0884
66.0712
67.0322
67.9625
68.852
69.6898
70.4635
71.16
71.7653
72.2647
72.6435
72.8877
72.9853
72.922
72.68
72.2432
71.5972
70.7299
69.6315
68.2953
66.7172
64.8968
62.8368
60.544
58.0285
55.3043
52.3885
49.3016
46.0667
42.7095
39.2578
35.7412
32.1918
28.6449
25.1418
21.7412
18.5155
15.5964
13.2276
12.2743
19.9822
7.93864
4.65169
5.19847
6.27686
7.52221
8.84015
10.1942
11.5564
12.9124
14.2511
15.5639
16.8438
18.0844
19.2797
20.4237
21.5103
22.5336
23.4878
24.3674
25.1672
25.8824
26.5091
27.044
27.4852
27.8322
28.0872
28.2561
28.3382
28.3338
28.2451
28.0762
27.8326
27.5209
27.1484
26.7228
26.2523
25.7449
25.2086
24.6513
24.08
23.5017
22.9226
22.3483
21.7836
21.2329
20.6998
20.1873
19.6977
19.2329
18.7943
18.3829
17.9992
17.6435
17.3157
17.0155
16.7426
16.4964
16.2763
16.0815
15.9114
15.7655
15.6437
15.5453
15.4687
15.4128
15.3765
15.3593
15.3602
15.3787
15.4143
15.4665
15.5346
15.6185
15.7175
15.8315
15.96
16.1029
16.2597
16.4303
16.6145
16.812
17.0228
17.2466
17.4833
17.7328
17.995
18.2697
18.557
18.8568
19.1688
19.4931
19.8297
20.1783
20.539
20.9117
21.2962
21.6925
22.1004
22.5199
22.9507
23.3927
23.8457
24.3095
24.7839
25.2687
25.7636
26.2684
26.7827
27.3063
27.8388
28.38
28.9295
29.487
30.0521
30.6247
31.2042
31.7906
32.3834
32.9825
33.5876
34.1986
34.8152
35.4373
36.065
36.698
37.3365
37.9806
38.6303
39.2859
39.9475
40.6156
41.2904
41.9724
42.6621
43.36
44.0667
44.7829
45.5093
46.2466
46.9957
47.7574
48.5324
49.3217
50.1259
50.9459
51.7824
52.6359
53.5069
54.3958
55.3024
56.2268
57.1682
58.1258
59.0982
60.0835
61.0791
62.0819
63.0878
64.0922
65.0891
66.072
67.033
67.9633
68.8528
69.6906
70.4643
71.1608
71.7661
72.2655
72.6443
72.8885
72.9861
72.9227
72.6807
72.2439
71.5979
70.7305
69.6321
68.2958
66.7177
64.8972
62.8372
60.5444
58.0289
55.3046
52.3887
49.3018
46.0669
42.7097
39.2579
35.7413
32.192
28.645
25.1419
21.7413
18.5156
15.5965
13.2277
12.2742
19.9821
11.8089
6.2611
6.23017
6.99107
7.98763
9.0922
10.2528
11.4394
12.6331
13.8205
14.9914
16.1378
17.253
18.3311
19.3668
20.3548
21.29
22.1677
22.9828
23.7309
24.4074
25.0084
25.5304
25.9708
26.328
26.6018
26.7934
26.9036
26.9325
26.882
26.7551
26.556
26.2902
25.9637
25.5832
25.1561
24.6897
24.1915
23.6688
23.1288
22.5781
22.023
21.4693
20.922
20.3856
19.8641
19.3608
18.8783
18.4188
17.984
17.575
17.1928
16.8376
16.5097
16.209
15.9353
15.688
15.4667
15.2707
15.0994
14.9522
14.8286
14.7278
14.6489
14.5908
14.5526
14.5336
14.533
14.5502
14.5846
14.6356
14.7029
14.7858
14.8841
14.9973
15.1251
15.2672
15.4233
15.5931
15.7764
15.973
16.1827
16.4054
16.6409
16.889
17.1497
17.4228
17.7082
18.0059
18.3157
18.6376
18.9715
19.3173
19.6749
20.0442
20.4251
20.8175
21.2213
21.6364
22.0626
22.4997
22.9476
23.4061
23.8749
24.3539
24.8427
25.3412
25.849
26.3658
26.8914
27.4255
27.9677
28.5176
29.0751
29.6398
30.2113
30.7895
31.3739
31.9644
32.5607
33.1626
33.7699
34.3826
35.0005
35.6235
36.2517
36.885
37.5237
38.1678
38.8176
39.4733
40.1353
40.8039
41.4795
42.1628
42.8542
43.5544
44.264
44.9837
45.7143
46.4565
47.2112
47.979
48.7608
49.5573
50.3691
51.1968
52.0409
52.9015
53.7788
54.6726
55.5823
56.5071
57.4456
58.396
59.3559
60.3223
61.2913
62.2584
63.2181
64.1641
65.0889
65.9842
66.8405
67.6473
68.3932
69.0659
69.6521
70.1381
70.5102
70.7547
70.8585
70.8073
70.5864
70.1821
69.5818
68.775
67.7533
66.5109
65.0446
63.3542
61.4426
59.316
56.9835
54.4574
51.7527
48.8874
45.8817
42.7585
39.5434
36.2654
32.9584
29.6633
26.433
23.34
20.4883
18.052
16.4025
16.9019
31.4001
11.8085
6.26154
6.2309
6.99193
7.98858
9.09322
10.2538
11.4405
12.6343
13.8217
14.9926
16.1389
17.2541
18.3322
19.3678
20.3558
21.291
22.1686
22.9837
23.7317
24.4081
25.0091
25.531
25.9714
26.3285
26.6022
26.7938
26.9039
26.9329
26.8823
26.7554
26.5563
26.2904
25.9639
25.5835
25.1564
24.69
24.1918
23.6691
23.1291
22.5784
22.0233
21.4696
20.9223
20.386
19.8645
19.3612
18.8787
18.4192
17.9844
17.5755
17.1932
16.8381
16.5102
16.2095
15.9358
15.6885
15.4672
15.2712
15.0999
14.9527
14.8291
14.7284
14.6494
14.5913
14.5531
14.5341
14.5335
14.5507
14.5851
14.6362
14.7034
14.7864
14.8847
14.9979
15.1257
15.2678
15.4239
15.5937
15.777
15.9736
16.1834
16.406
16.6415
16.8896
17.1503
17.4234
17.7089
18.0065
18.3164
18.6382
18.9721
19.3179
19.6755
20.0448
20.4257
20.8181
21.2219
21.637
22.0632
22.5003
22.9482
23.4067
23.8755
24.3544
24.8433
25.3417
25.8495
26.3664
26.892
27.426
27.9682
28.5182
29.0757
29.6403
30.2119
30.79
31.3744
31.9649
32.5612
33.1631
33.7704
34.3831
35.0009
35.6239
36.2521
36.8855
37.5242
38.1683
38.818
39.4737
40.1357
40.8043
41.4799
42.1632
42.8546
43.5548
44.2644
44.9841
45.7147
46.4569
47.2116
47.9794
48.7612
49.5577
50.3695
51.1972
52.0413
52.9019
53.7792
54.673
55.5827
56.5075
57.446
58.3964
59.3564
60.3227
61.2918
62.2589
63.2186
64.1646
65.0894
65.9847
66.841
67.6478
68.3938
69.0664
69.6526
70.1386
70.5107
70.7551
70.8589
70.8077
70.5868
70.1824
69.5821
68.7752
67.7535
66.5111
65.0447
63.3543
61.4427
59.316
56.9834
54.4573
51.7526
48.8873
45.8816
42.7583
39.5432
36.2653
32.9582
29.6631
26.4329
23.3399
20.4882
18.0519
16.4024
16.9016
31.3998
15.61
7.97078
7.46869
7.9951
8.83811
9.82504
10.8868
11.9861
13.0991
14.2096
15.3055
16.3776
17.4191
18.4241
19.3881
20.3067
21.176
21.9925
22.7525
23.4523
24.0886
24.658
25.1575
25.5844
25.9368
26.2135
26.4141
26.5386
26.5872
26.561
26.4622
26.2941
26.0608
25.7675
25.42
25.0246
24.588
24.1172
23.6189
23.1002
22.5675
22.0271
21.4848
20.9458
20.415
19.8965
19.3939
18.9101
18.4477
18.0087
17.5944
17.2061
16.8443
16.5095
16.2018
15.9211
15.667
15.4391
15.2369
15.0598
14.9071
14.7783
14.6726
14.5892
14.5272
14.4857
14.4639
14.4612
14.4768
14.5103
14.5609
14.6282
14.7118
14.8111
14.9259
15.0556
15.2001
15.3589
15.5318
15.7186
15.919
16.1329
16.36
16.6002
16.8533
17.1192
17.3977
17.6889
17.9924
18.3084
18.6365
18.9768
19.3292
19.6936
20.0697
20.4577
20.8572
21.2682
21.6906
22.1242
22.5688
23.0242
23.4902
23.9667
24.4533
24.9498
25.456
25.9716
26.4962
27.0296
27.5715
28.1215
28.6793
29.2446
29.8171
30.3964
30.9824
31.5746
32.1728
32.7769
33.3865
34.0015
34.6218
35.2472
35.8777
36.5133
37.1539
37.7998
38.4509
39.1076
39.77
40.4385
41.1134
41.7952
42.4843
43.1813
43.8868
44.6015
45.3259
46.0609
46.8072
47.5655
48.3366
49.1213
49.9202
50.734
51.5632
52.4083
53.2694
54.1467
55.0399
55.9484
56.8714
57.8075
58.7549
59.7112
60.6733
61.6375
62.5992
63.553
64.4926
65.4107
66.2992
67.1487
67.9492
68.6894
69.3575
69.9407
70.4259
70.7998
71.0489
71.1601
71.1198
70.9149
70.5331
69.9635
69.1968
68.2257
67.0451
65.6526
64.0481
62.2344
60.2168
58.0033
55.6043
53.0326
50.3032
47.4338
44.4445
41.3591
38.206
35.0206
31.8489
28.7524
25.818
23.1762
21.0534
19.968
21.8953
43.5876
15.6095
7.97133
7.46952
7.99604
8.83913
9.82611
10.8879
11.9872
13.1003
14.2108
15.3066
16.3787
17.4201
18.4252
19.3891
20.3076
21.1769
21.9933
22.7532
23.453
24.0892
24.6586
25.158
25.5848
25.9372
26.2138
26.4143
26.5388
26.5874
26.5612
26.4623
26.2941
26.0609
25.7676
25.4201
25.0247
24.5881
24.1172
23.619
23.1002
22.5676
22.0272
21.4849
20.946
20.4152
19.8967
19.3941
18.9103
18.448
18.0089
17.5947
17.2064
16.8446
16.5099
16.2022
15.9214
15.6673
15.4395
15.2373
15.0602
14.9075
14.7787
14.673
14.5896
14.5276
14.4861
14.4643
14.4616
14.4773
14.5107
14.5613
14.6287
14.7123
14.8116
14.9263
15.0561
15.2005
15.3594
15.5323
15.7191
15.9195
16.1334
16.3605
16.6006
16.8537
17.1196
17.3982
17.6893
17.9929
18.3088
18.637
18.9773
19.3297
19.694
20.0702
20.4581
20.8577
21.2687
21.6911
22.1246
22.5692
23.0246
23.4907
23.9671
24.4537
24.9503
25.4564
25.972
26.4966
27.03
27.5718
28.1218
28.6796
29.2449
29.8174
30.3968
30.9827
31.5749
32.1732
32.7772
33.3868
34.0018
34.6221
35.2475
35.878
36.5135
37.1542
37.8
38.4512
39.1078
39.7702
40.4387
41.1136
41.7954
42.4845
43.1815
43.887
44.6017
45.3261
46.0611
46.8074
47.5657
48.3368
49.1215
49.9204
50.7342
51.5634
52.4085
53.2696
54.1469
55.0401
55.9486
56.8716
57.8078
58.7552
59.7115
60.6736
61.6378
62.5995
63.5533
64.4929
65.411
66.2995
67.1491
67.9495
68.6897
69.3578
69.941
70.4262
70.8
71.0492
71.1603
71.12
70.9151
70.5333
69.9636
69.1968
68.2257
67.0451
65.6525
64.048
62.2342
60.2166
58.0031
55.604
53.0323
50.3029
47.4335
44.4442
41.3588
38.2056
35.0203
31.8485
28.7521
25.8177
23.1759
21.0531
19.9677
21.8947
43.5874
19.4191
9.757
8.81722
9.1527
9.88266
10.7899
11.788
12.8314
13.8914
14.9487
15.9893
17.0034
17.9835
18.9245
19.8223
20.6739
21.4767
22.2286
22.9273
23.5708
24.1568
24.6831
25.1474
25.5476
25.8817
26.1482
26.3461
26.4747
26.5338
26.5238
26.446
26.3028
26.0973
25.8335
25.5162
25.1508
24.7432
24.2996
23.8263
23.3298
22.8164
22.2922
21.763
21.2342
20.7105
20.1965
19.6959
19.212
18.7476
18.305
17.8859
17.4917
17.1234
16.7815
16.4664
16.1781
15.9165
15.6813
15.472
15.2881
15.1291
14.9942
14.8828
14.7941
14.7273
14.6816
14.6563
14.6507
14.664
14.6957
14.7452
14.8119
14.8954
14.9953
15.111
15.2423
15.3887
15.55
15.7259
15.916
16.1202
16.3382
16.5699
16.815
17.0734
17.345
17.6296
17.927
18.2372
18.56
18.8954
19.2432
19.6033
19.9755
20.3599
20.7562
21.1643
21.5841
22.0155
22.4581
22.9119
23.3767
23.8522
24.3383
24.8346
25.3409
25.8569
26.3824
26.917
27.4605
28.0124
28.5726
29.1406
29.7162
30.2989
30.8886
31.4849
32.0875
32.6962
33.3107
33.9308
34.5563
35.187
35.8229
36.4639
37.11
37.7612
38.4175
39.0791
39.7461
40.4189
41.0977
41.7829
42.4749
43.1741
43.8812
44.5966
45.321
46.0551
46.7997
47.5553
48.3229
49.1031
49.8966
50.7042
51.5265
52.364
53.217
54.0858
54.9705
55.8707
56.7859
57.7152
58.6571
59.6098
60.5709
61.5373
62.5051
63.4699
64.4262
65.3678
66.2875
67.1772
68.0278
68.8294
69.5711
70.2414
70.828
71.3183
71.6994
71.9585
72.0827
72.0596
71.8774
71.525
70.9928
70.2727
69.3585
68.2459
66.9327
65.419
63.7068
61.8006
59.7065
57.4327
54.9891
52.3879
49.6431
46.7719
43.7958
40.7421
37.6471
34.5602
31.5503
28.7178
26.2184
24.3335
23.734
27.0198
55.7251
19.4186
9.75765
8.81813
9.15371
9.88374
10.791
11.7892
12.8326
13.8926
14.9498
15.9904
17.0044
17.9846
18.9255
19.8233
20.6748
21.4775
22.2293
22.9279
23.5713
24.1573
24.6835
25.1477
25.5478
25.8819
26.1483
26.3462
26.4747
26.5338
26.5237
26.4459
26.3027
26.0971
25.8333
25.516
25.1506
24.743
24.2994
23.8261
23.3297
22.8163
22.2922
21.763
21.2341
20.7105
20.1965
19.6959
19.212
18.7477
18.3051
17.886
17.4919
17.1235
16.7817
16.4666
16.1783
15.9167
15.6815
15.4722
15.2884
15.1293
14.9944
14.883
14.7944
14.7276
14.6819
14.6566
14.6509
14.6643
14.696
14.7455
14.8122
14.8958
14.9956
15.1114
15.2426
15.3891
15.5504
15.7262
15.9164
16.1206
16.3386
16.5702
16.8154
17.0738
17.3453
17.6299
17.9273
18.2375
18.5603
18.8957
19.2435
19.6036
19.9759
20.3602
20.7565
21.1647
21.5844
22.0158
22.4584
22.9122
23.377
23.8525
24.3385
24.8348
25.3411
25.8572
26.3826
26.9173
27.4607
28.0127
28.5728
29.1408
29.7164
30.2991
30.8888
31.4851
32.0877
32.6963
33.3108
33.9309
34.5564
35.1871
35.823
36.464
37.1101
37.7612
38.4175
39.0791
39.7462
40.419
41.0978
41.783
42.4749
43.1742
43.8812
44.5966
45.321
46.0552
46.7997
47.5553
48.3229
49.1031
49.8966
50.7042
51.5265
52.364
53.217
54.0858
54.9705
55.8707
56.7859
57.7152
58.6571
59.6099
60.571
61.5373
62.5052
63.47
64.4263
65.3679
66.2876
67.1773
68.0279
68.8295
69.5712
70.2415
70.8281
71.3184
71.6995
71.9585
72.0827
72.0596
71.8773
71.5249
70.9926
70.2726
69.3583
68.2457
66.9324
65.4186
63.7065
61.8002
59.7061
57.4322
54.9887
52.3874
49.6426
46.7714
43.7953
40.7416
37.6466
34.5597
31.5499
28.7173
26.2179
24.3331
23.7336
27.0189
55.7248
23.229
11.6032
10.237
10.4028
11.0393
11.8835
12.8319
13.8302
14.8452
15.8548
16.8434
17.8003
18.7182
19.5922
20.4194
21.1979
21.9266
22.6051
23.2327
23.809
24.3333
24.8045
25.2214
25.5826
25.8865
26.1316
26.3166
26.4405
26.5023
26.502
26.44
26.3176
26.137
25.901
25.6135
25.2786
24.9015
24.4875
24.0422
23.5717
23.0817
22.5782
22.0667
21.5525
21.0407
20.5357
20.0415
19.5616
19.0991
18.6565
18.2358
17.8387
17.4663
17.1195
16.7989
16.5047
16.2368
15.9952
15.7795
15.5893
15.4241
15.2832
15.166
15.0719
14.9999
14.9496
14.92
14.9105
14.9205
14.9493
14.9964
15.0613
15.1434
15.2422
15.3574
15.4886
15.6353
15.7973
15.9743
16.1659
16.372
16.5923
16.8266
17.0746
17.3363
17.6115
17.9
18.2017
18.5164
18.8441
19.1845
19.5376
19.9033
20.2813
20.6717
21.0742
21.4887
21.9151
22.3531
22.8026
23.2633
23.7352
24.2179
24.7112
25.2148
25.7285
26.252
26.785
27.3272
27.8783
28.4379
29.0057
29.5814
30.1647
30.7552
31.3527
31.9568
32.5673
33.1839
33.8063
34.4343
35.0678
35.7066
36.3506
36.9997
37.6539
38.3132
38.9777
39.6475
40.3228
41.0038
41.6909
42.3843
43.0845
43.792
44.5072
45.2308
45.9633
46.7056
47.4581
48.2217
48.9972
49.7851
50.5863
51.4015
52.2312
53.0759
53.936
54.8116
55.7029
56.6095
57.5307
58.4656
59.4129
60.3706
61.3362
62.3066
63.278
64.2459
65.205
66.149
67.0709
67.9627
68.8156
69.6199
70.3652
71.0404
71.6337
72.1333
72.5267
72.802
72.947
72.9507
72.8024
72.4924
72.0124
71.3555
70.5162
69.4909
68.2777
66.8763
65.2881
63.5158
61.5635
59.4368
57.1422
54.6881
52.0849
49.3463
46.4906
43.5433
40.5408
37.5347
34.6003
31.8497
29.4634
27.7767
27.6085
32.1502
67.6641
23.2284
11.604
10.238
10.4039
11.0404
11.8847
12.833
13.8313
14.8464
15.8559
16.8444
17.8013
18.7192
19.5931
20.4202
21.1986
21.9273
22.6056
23.2332
23.8094
24.3336
24.8047
25.2216
25.5826
25.8865
26.1316
26.3165
26.4403
26.5021
26.5017
26.4397
26.3173
26.1366
25.9007
25.6131
25.2783
24.9012
24.4871
24.0419
23.5713
23.0814
22.5779
22.0664
21.5523
21.0405
20.5355
20.0413
19.5615
19.099
18.6564
18.2357
17.8386
17.4663
17.1195
16.7989
16.5047
16.2369
15.9953
15.7796
15.5894
15.4242
15.2833
15.1661
15.072
15.0001
14.9497
14.9201
14.9106
14.9206
14.9495
14.9966
15.0615
15.1435
15.2424
15.3576
15.4888
15.6355
15.7975
15.9745
16.1661
16.3722
16.5925
16.8268
17.0748
17.3365
17.6117
17.9002
18.2019
18.5166
18.8442
19.1847
19.5378
19.9034
20.2815
20.6719
21.0744
21.4889
21.9152
22.3532
22.8027
23.2635
23.7353
24.218
24.7113
25.2149
25.7286
26.2521
26.7851
27.3273
27.8783
28.4379
29.0057
29.5814
30.1647
30.7553
31.3527
31.9568
32.5673
33.1838
33.8062
34.4343
35.0677
35.7065
36.3505
36.9996
37.6538
38.3131
38.9776
39.6474
40.3227
41.0037
41.6907
42.3841
43.0843
43.7918
44.507
45.2306
45.9632
46.7054
47.4579
48.2215
48.997
49.7849
50.5861
51.4013
52.231
53.0757
53.9358
54.8115
55.7027
56.6093
57.5305
58.4655
59.4127
60.3704
61.336
62.3064
63.2779
64.2458
65.2049
66.1489
67.0708
67.9626
68.8155
69.6198
70.3651
71.0402
71.6336
72.1331
72.5265
72.8017
72.9468
72.9505
72.8021
72.4921
72.0121
71.3551
70.5158
69.4905
68.2772
66.8758
65.2875
63.5152
61.563
59.4362
57.1416
54.6875
52.0843
49.3457
46.4899
43.5427
40.5402
37.5341
34.5997
31.8491
29.4628
27.7761
27.6078
32.1491
67.6638
27.0469
13.4588
11.6959
11.7071
12.2603
13.0485
13.9513
14.9063
15.8761
16.8359
17.7688
18.6637
19.5134
20.3136
21.0625
21.7595
22.4053
23.001
23.5477
24.0468
24.499
24.9046
25.2637
25.5755
25.8392
26.0535
26.217
26.3283
26.3861
26.3897
26.3388
26.2336
26.0753
25.8656
25.6073
25.3035
24.9582
24.576
24.1618
23.7207
23.2583
22.7799
22.2909
21.7965
21.3016
20.8107
20.3278
19.8568
19.4008
18.9625
18.5443
18.148
17.775
17.4264
17.1029
16.805
16.5329
16.2866
16.0659
15.8704
15.6997
15.5533
15.4307
15.331
15.2538
15.1982
15.1637
15.1495
15.1551
15.1799
15.2232
15.2845
15.3634
15.4593
15.5719
15.7007
15.8455
16.0058
16.1813
16.3718
16.577
16.7967
17.0307
17.2787
17.5406
17.8162
18.1054
18.408
18.7238
19.0528
19.3948
19.7496
20.1172
20.4973
20.8899
21.2948
21.7118
22.1407
22.5814
23.0337
23.4973
23.9721
24.4577
24.954
25.4607
25.9774
26.504
27.04
27.5852
28.1394
28.702
29.2729
29.8517
30.438
31.0316
31.6321
32.2393
32.8529
33.4725
34.0981
34.7293
35.366
36.008
36.6553
37.3077
37.9652
38.628
39.2959
39.9692
40.6481
41.3327
42.0233
42.7204
43.4242
44.1353
44.8542
45.5815
46.3177
47.0635
47.8196
48.5867
49.3656
50.1569
50.9614
51.7797
52.6124
53.46
54.3228
55.201
56.0945
57.0031
57.9261
58.8625
59.8109
60.7693
61.7354
62.706
63.6773
64.6449
65.6035
66.547
67.4686
68.3606
69.2144
70.0208
70.7699
71.4512
72.0536
72.5659
72.9768
73.275
73.4498
73.4913
73.3901
73.138
72.728
72.154
71.4117
70.4979
69.4106
68.149
66.7134
65.1047
63.3247
61.3754
59.26
56.9826
54.5494
51.9699
49.2589
46.4395
43.5468
40.6341
37.7814
35.1119
32.8291
31.3207
31.5491
37.2777
79.3544
27.0463
13.4596
11.697
11.7083
12.2615
13.0497
13.9525
14.9075
15.8773
16.837
17.7699
18.6647
19.5143
20.3144
21.0632
21.7601
22.4058
23.0014
23.5481
24.047
24.4991
24.9047
25.2637
25.5754
25.839
26.0533
26.2167
26.328
26.3858
26.3893
26.3383
26.2331
26.0748
25.8651
25.6068
25.303
24.9577
24.5755
24.1613
23.7203
23.2578
22.7795
22.2905
21.7961
21.3012
20.8103
20.3275
19.8565
19.4005
18.9623
18.5441
18.1478
17.7748
17.4262
17.1027
16.8049
16.5328
16.2865
16.0658
15.8703
15.6997
15.5533
15.4306
15.331
15.2538
15.1982
15.1637
15.1496
15.1551
15.1799
15.2232
15.2845
15.3634
15.4593
15.5719
15.7008
15.8455
16.0058
16.1814
16.3719
16.5771
16.7968
17.0307
17.2787
17.5406
17.8162
18.1054
18.408
18.7238
19.0528
19.3948
19.7497
20.1172
20.4974
20.8899
21.2948
21.7118
22.1407
22.5814
23.0337
23.4973
23.972
24.4577
24.9539
25.4606
25.9773
26.5039
27.0399
27.5851
28.1392
28.7019
29.2728
29.8515
30.4378
31.0314
31.6319
32.2391
32.8527
33.4723
34.0978
34.729
35.3657
36.0077
36.655
37.3074
37.965
38.6277
39.2956
39.9689
40.6477
41.3323
42.023
42.72
43.4239
44.135
44.8539
45.5811
46.3173
47.0631
47.8192
48.5863
49.3652
50.1565
50.961
51.7793
52.612
53.4596
54.3224
55.2006
56.0941
57.0027
57.9257
58.8621
59.8105
60.769
61.735
62.7056
63.6769
64.6445
65.6031
66.5467
67.4683
68.3602
69.2141
70.0205
70.7696
71.4508
72.0533
72.5656
72.9765
73.2746
73.4494
73.4908
73.3896
73.1375
72.7274
72.1535
71.4111
70.4972
69.4099
68.1483
66.7127
65.104
63.324
61.3747
59.2593
56.9819
54.5487
51.9691
49.2581
46.4387
43.5461
40.6334
37.7806
35.1112
32.8283
31.3199
31.5482
37.2763
79.3541
30.9431
15.3345
13.1786
13.0408
13.5145
14.2481
15.1046
16.014
16.9345
17.8392
18.7104
19.5366
20.3108
21.0297
21.6925
22.3002
22.8551
23.36
23.8179
24.2316
24.6036
24.9356
25.2288
25.4833
25.6991
25.8751
26.01
26.1023
26.1504
26.1527
26.1084
26.0167
25.8778
25.6925
25.4621
25.189
24.8761
24.5269
24.1456
23.7366
23.3048
22.8552
22.3926
21.9221
21.4484
20.976
20.5091
20.0513
19.6061
19.1763
18.7644
18.3725
18.0023
17.6549
17.3314
17.0324
16.7582
16.509
16.2847
16.0851
15.9099
15.7586
15.6308
15.5258
15.443
15.3819
15.3418
15.3221
15.3221
15.3414
15.3793
15.4354
15.5091
15.6
15.7077
15.8318
15.972
16.1278
16.299
16.4853
16.6865
16.9024
17.1326
17.377
17.6355
17.9078
18.1939
18.4935
18.8064
19.1327
19.472
19.8243
20.1894
20.5672
20.9575
21.3601
21.7749
22.2017
22.6403
23.0904
23.5519
24.0246
24.5081
25.0022
25.5067
26.0212
26.5455
27.0792
27.6221
28.1738
28.734
29.3023
29.8786
30.4623
31.0533
31.6512
32.2558
32.8667
33.4837
34.1066
34.7352
35.3694
36.0088
36.6536
37.3036
37.9587
38.6191
39.2847
39.9557
40.6324
41.3148
42.0033
42.6982
43.4
44.109
44.8259
45.551
46.2851
47.0288
47.7827
48.5476
49.3242
50.1131
50.9151
51.7307
52.5606
53.4052
54.2648
55.1396
56.0295
56.9342
57.8531
58.7851
59.7288
60.6824
61.6433
62.6086
63.5746
64.5368
65.4903
66.4292
67.3468
68.2359
69.0883
69.8954
70.6478
71.3358
71.9492
72.4778
72.9113
73.2394
73.453
73.5435
73.5031
73.3248
73.0028
72.5324
71.9098
71.1321
70.1973
69.104
67.8508
66.4369
64.8609
63.1217
61.2183
59.1503
56.9194
54.5305
51.9943
49.3306
46.573
43.7749
41.0201
38.4417
36.2646
34.9263
35.5252
42.3598
90.5125
30.9424
15.3354
13.1797
13.0421
13.5157
14.2494
15.1058
16.0151
16.9356
17.8403
18.7114
19.5374
20.3115
21.0303
21.693
22.3007
22.8555
23.3602
23.818
24.2317
24.6036
24.9355
25.2286
25.4831
25.6988
25.8747
26.0096
26.1019
26.1498
26.1522
26.1078
26.0161
25.8772
25.6918
25.4615
25.1884
24.8755
24.5263
24.145
23.736
23.3042
22.8545
22.392
21.9216
21.4479
20.9755
20.5086
20.0508
19.6056
19.1759
18.764
18.3722
18.0019
17.6546
17.3311
17.0321
16.7579
16.5087
16.2844
16.0849
15.9097
15.7584
15.6306
15.5256
15.4429
15.3818
15.3416
15.3219
15.322
15.3413
15.3792
15.4353
15.509
15.5999
15.7076
15.8317
15.9719
16.1277
16.2989
16.4852
16.6864
16.9023
17.1325
17.3769
17.6354
17.9077
18.1938
18.4934
18.8063
19.1325
19.4719
19.8242
20.1893
20.5671
20.9573
21.36
21.7748
22.2015
22.6401
23.0903
23.5518
24.0244
24.5079
25.002
25.5065
26.021
26.5452
27.079
27.6218
28.1735
28.7337
29.302
29.8783
30.462
31.053
31.6509
32.2554
32.8663
33.4834
34.1063
34.7348
35.369
36.0084
36.6532
37.3031
37.9583
38.6186
39.2842
39.9553
40.6319
41.3143
42.0028
42.6977
43.3995
44.1085
44.8253
45.5505
46.2846
47.0283
47.7822
48.5471
49.3236
50.1126
50.9145
51.7302
52.5601
53.4046
54.2642
55.139
56.0289
56.9336
57.8525
58.7845
59.7282
60.6818
61.6428
62.6081
63.574
64.5363
65.4898
66.4287
67.3463
68.2354
69.0878
69.8949
70.6473
71.3353
71.9487
72.4773
72.9107
73.2388
73.4524
73.5429
73.5024
73.3241
73.0021
72.5317
71.909
71.1313
70.1965
69.1032
67.85
66.4361
64.8601
63.1209
61.2175
59.1495
56.9186
54.5297
51.9934
49.3298
46.5721
43.774
41.0192
38.4408
36.2636
34.9253
35.5241
42.3582
90.5122
34.8737
17.2204
14.6715
14.386
14.78
15.4574
16.2645
17.1237
17.9896
18.8334
19.6364
20.3871
21.0792
21.7102
22.2807
22.793
23.2512
23.6596
24.0231
24.3462
24.6327
24.8858
25.1078
25.2997
25.4622
25.5945
25.6957
25.764
25.7975
25.7942
25.7524
25.6707
25.5481
25.3845
25.1802
24.9364
24.6551
24.3389
23.9911
23.6153
23.2158
22.7969
22.3633
21.9196
21.4703
21.0198
20.5721
20.131
19.7
19.2821
18.8799
18.4956
18.131
17.7875
17.4664
17.1684
16.894
16.6435
16.417
16.2143
16.0354
15.8798
15.747
15.6367
15.5482
15.4811
15.4346
15.4084
15.4017
15.4142
15.4451
15.4941
15.5607
15.6444
15.7448
15.8616
15.9944
16.1429
16.3068
16.4858
16.6797
16.8882
17.1111
17.3483
17.5995
17.8647
18.1435
18.4359
18.7418
19.0609
19.3931
19.7383
20.0964
20.4671
20.8502
21.2458
21.6534
22.073
22.5044
22.9472
23.4014
23.8666
24.3426
24.8291
25.3259
25.8326
26.349
26.8748
27.4096
27.9531
28.505
29.0651
29.6329
30.2082