/*--------------------------------*- C++ -*----------------------------------*\
  =========                 |
  \\      /  F ield         | OpenFOAM: The Open Source CFD Toolbox
   \\    /   O peration     | Website:  https://openfoam.org
    \\  /    A nd           | Version:  8
     \\/     M anipulation  |
\*---------------------------------------------------------------------------*/
FoamFile
{
    version     2.0;
    format      ascii;
    class       volScalarField;
    location    "1100";
    object      k;
}
// * * * * * * * * * * * * * * * * * * * * * * * * * * * * * * * * * * * * * //

dimensions      [0 2 -2 0 0 0 0];

internalField   nonuniform List<scalar> 
46000
(
0.000621896
0.00289255
0.00617264
0.00972397
0.0134653
0.0173641
0.0212275
0.0249731
0.0285972
0.0320534
0.0352993
0.0383472
0.0411889
0.0438162
0.0462225
0.0484033
0.0503558
0.052079
0.0535737
0.0548427
0.05589
0.0567215
0.0573443
0.0577664
0.0579968
0.0580517
0.0580113
0.0578341
0.0575172
0.0570698
0.0565046
0.0558358
0.0550777
0.0542446
0.0533502
0.0524079
0.0514303
0.0504289
0.0494146
0.0483973
0.0473859
0.0463881
0.0454109
0.0444602
0.0435409
0.0426572
0.0418125
0.0410092
0.0402494
0.0395343
0.0388648
0.0382412
0.0376636
0.0371315
0.0366445
0.0362017
0.0358021
0.0354447
0.0351282
0.0348513
0.034613
0.0344193
0.0342696
0.034155
0.0340734
0.0340238
0.0340053
0.0340171
0.0340585
0.0341288
0.0342273
0.0343534
0.0345066
0.0346863
0.034892
0.0351233
0.0353799
0.0356613
0.0359672
0.0362973
0.0366514
0.0370293
0.0374306
0.0378552
0.038303
0.0387738
0.0392673
0.0397836
0.0403224
0.0408836
0.041467
0.0420725
0.0426999
0.043349
0.0440196
0.0447115
0.0454243
0.0461577
0.0469115
0.0476853
0.0484786
0.049291
0.0501219
0.0509711
0.0518377
0.0527214
0.0536215
0.0545374
0.0554684
0.0564141
0.0573736
0.0583465
0.0593321
0.0603299
0.0613393
0.0623597
0.0633908
0.0644321
0.0654833
0.0665441
0.0676143
0.0686938
0.0697824
0.0708803
0.0719876
0.0731045
0.0742314
0.0753686
0.0765168
0.0776766
0.0788486
0.0800339
0.0812332
0.0824478
0.0836787
0.0849272
0.0861946
0.0874823
0.0887918
0.0901244
0.0914818
0.0928655
0.0942768
0.0957171
0.0971877
0.0986897
0.100224
0.101791
0.10339
0.105023
0.106686
0.10838
0.110102
0.111848
0.113614
0.115395
0.117184
0.118972
0.12075
0.122506
0.124228
0.125898
0.127501
0.129018
0.130426
0.131702
0.132823
0.133761
0.134489
0.134979
0.135205
0.135168
0.134853
0.1342
0.133176
0.131755
0.129918
0.127648
0.124934
0.12177
0.118155
0.114095
0.109601
0.104694
0.0994004
0.0937526
0.087791
0.0815614
0.0751146
0.0685053
0.0617896
0.0550218
0.0482378
0.0413681
0.0346739
0.0279482
0.02113
0.014429
0.00740746
0.00164995
0.000621854
0.00289236
0.00617229
0.00972353
0.0134648
0.0173635
0.021227
0.0249726
0.0285967
0.0320529
0.0352988
0.0383468
0.0411886
0.0438159
0.0462223
0.0484031
0.0503556
0.0520789
0.0535737
0.0548427
0.05589
0.0567216
0.0573444
0.0577665
0.0579969
0.0580519
0.0580115
0.0578343
0.0575174
0.05707
0.0565048
0.055836
0.0550779
0.0542447
0.0533504
0.0524081
0.0514304
0.050429
0.0494147
0.0483974
0.0473859
0.0463881
0.0454109
0.0444601
0.0435408
0.0426571
0.0418124
0.0410091
0.0402492
0.0395341
0.0388646
0.038241
0.0376634
0.0371313
0.0366443
0.0362015
0.0358019
0.0354445
0.035128
0.0348511
0.0346128
0.034419
0.0342694
0.0341547
0.0340731
0.0340235
0.034005
0.0340168
0.0340583
0.0341286
0.0342271
0.0343532
0.0345063
0.034686
0.0348918
0.0351231
0.0353797
0.0356611
0.035967
0.0362971
0.0366512
0.0370291
0.0374304
0.0378551
0.0383028
0.0387736
0.0392672
0.0397835
0.0403223
0.0408835
0.0414669
0.0420724
0.0426998
0.043349
0.0440196
0.0447114
0.0454242
0.0461577
0.0469115
0.0476853
0.0484786
0.049291
0.050122
0.0509711
0.0518378
0.0527215
0.0536216
0.0545375
0.0554685
0.0564142
0.0573738
0.0583467
0.0593323
0.0603301
0.0613395
0.0623599
0.063391
0.0644324
0.0654836
0.0665444
0.0676146
0.068694
0.0697827
0.0708806
0.0719879
0.0731048
0.0742317
0.0753689
0.0765171
0.0776769
0.078849
0.0800342
0.0812336
0.0824482
0.0836791
0.0849276
0.086195
0.0874827
0.0887921
0.0901248
0.0914822
0.0928658
0.0942771
0.0957175
0.0971881
0.09869
0.100224
0.101791
0.103391
0.105023
0.106687
0.108381
0.110102
0.111848
0.113615
0.115395
0.117184
0.118972
0.120751
0.122507
0.124228
0.125899
0.127502
0.129018
0.130426
0.131703
0.132824
0.133762
0.13449
0.13498
0.135206
0.135168
0.134853
0.1342
0.133176
0.131756
0.129918
0.127649
0.124935
0.121771
0.118156
0.114095
0.109602
0.104695
0.0994011
0.0937534
0.0877918
0.0815621
0.0751153
0.0685059
0.0617901
0.0550223
0.0482382
0.0413685
0.0346741
0.0279484
0.0211302
0.0144291
0.00740757
0.00164997
0.00296759
0.0175567
0.0309207
0.0427668
0.0538276
0.0640832
0.0737723
0.0828309
0.0913288
0.0992985
0.106752
0.113701
0.12015
0.126104
0.131564
0.136534
0.141016
0.145014
0.148534
0.151582
0.154166
0.156296
0.157985
0.159245
0.16009
0.160536
0.160602
0.160348
0.159785
0.158934
0.15782
0.156471
0.154914
0.153179
0.151294
0.149285
0.147179
0.145001
0.142774
0.140522
0.138264
0.136018
0.133801
0.131628
0.129511
0.127463
0.125491
0.123605
0.12181
0.120111
0.118512
0.117016
0.115623
0.114334
0.11315
0.112069
0.111091
0.110213
0.109434
0.10875
0.10816
0.107662
0.107256
0.106939
0.106706
0.106554
0.106481
0.106485
0.106564
0.106715
0.106937
0.107227
0.107585
0.108008
0.108494
0.109043
0.109653
0.110322
0.111049
0.111834
0.112674
0.113569
0.114518
0.11552
0.116573
0.117678
0.118833
0.120037
0.12129
0.12259
0.123937
0.12533
0.126768
0.128251
0.129776
0.131344
0.132952
0.134601
0.136289
0.138014
0.139776
0.141573
0.143404
0.145268
0.147162
0.149085
0.151037
0.153015
0.155018
0.157044
0.159093
0.161161
0.163249
0.165354
0.167475
0.169612
0.171762
0.173926
0.176101
0.178289
0.180487
0.182695
0.184914
0.187143
0.189382
0.191632
0.193893
0.196166
0.198452
0.200751
0.203066
0.205397
0.207746
0.210116
0.212507
0.214923
0.217365
0.219836
0.222339
0.224875
0.227448
0.230059
0.232712
0.235408
0.238149
0.240938
0.243774
0.246659
0.249593
0.252574
0.255601
0.258671
0.261779
0.264919
0.268084
0.271264
0.274448
0.277621
0.280766
0.283865
0.286895
0.289831
0.292645
0.295305
0.297777
0.300024
0.302005
0.303678
0.304998
0.30592
0.306401
0.306403
0.30586
0.304721
0.302939
0.300471
0.297279
0.293331
0.288598
0.283061
0.276708
0.269532
0.26154
0.252744
0.243167
0.232839
0.221801
0.210096
0.197777
0.184894
0.1715
0.157638
0.143332
0.128569
0.113269
0.097108
0.0797659
0.0601744
0.0367019
0.00724026
0.00296738
0.0175558
0.0309199
0.0427662
0.0538272
0.064083
0.0737722
0.0828309
0.0913289
0.0992987
0.106753
0.113701
0.120151
0.126104
0.131564
0.136534
0.141016
0.145015
0.148535
0.151583
0.154167
0.156297
0.157986
0.159246
0.160091
0.160537
0.160603
0.160349
0.159786
0.158935
0.157821
0.156471
0.154915
0.15318
0.151294
0.149285
0.147179
0.145001
0.142775
0.140523
0.138264
0.136018
0.133801
0.131628
0.129512
0.127463
0.125492
0.123606
0.121811
0.120112
0.118513
0.117016
0.115623
0.114335
0.113151
0.11207
0.111091
0.110213
0.109434
0.10875
0.108161
0.107662
0.107257
0.106939
0.106706
0.106555
0.106482
0.106486
0.106564
0.106716
0.106937
0.107228
0.107585
0.108008
0.108495
0.109044
0.109653
0.110322
0.11105
0.111834
0.112674
0.11357
0.114519
0.11552
0.116574
0.117679
0.118834
0.120038
0.121291
0.122591
0.123938
0.125331
0.126769
0.128251
0.129777
0.131344
0.132953
0.134602
0.13629
0.138015
0.139777
0.141574
0.143405
0.145268
0.147163
0.149086
0.151038
0.153016
0.155019
0.157045
0.159093
0.161162
0.16325
0.165355
0.167476
0.169613
0.171763
0.173927
0.176102
0.17829
0.180488
0.182696
0.184915
0.187144
0.189383
0.191633
0.193894
0.196167
0.198453
0.200752
0.203066
0.205398
0.207747
0.210116
0.212508
0.214924
0.217366
0.219837
0.222339
0.224876
0.227449
0.23006
0.232713
0.235409
0.23815
0.240939
0.243775
0.24666
0.249594
0.252575
0.255602
0.258672
0.26178
0.26492
0.268085
0.271265
0.274449
0.277621
0.280767
0.283866
0.286896
0.289832
0.292645
0.295306
0.297778
0.300025
0.302006
0.303679
0.304999
0.305921
0.306402
0.306405
0.305861
0.304722
0.30294
0.300472
0.29728
0.293332
0.2886
0.283063
0.276709
0.269534
0.261542
0.252746
0.243168
0.232841
0.221802
0.210098
0.197778
0.184895
0.171501
0.157639
0.143333
0.12857
0.11327
0.0971087
0.0797664
0.0601747
0.0367019
0.00724021
0.00607554
0.0304879
0.0489068
0.0643025
0.078302
0.0912999
0.103531
0.115059
0.12592
0.136133
0.145707
0.154649
0.162963
0.170653
0.177723
0.184178
0.190023
0.195262
0.199903
0.203954
0.207425
0.210327
0.212675
0.214482
0.215767
0.216547
0.216844
0.216708
0.216163
0.215237
0.213959
0.212362
0.210481
0.208351
0.206005
0.20348
0.200808
0.198021
0.195152
0.19223
0.189282
0.186333
0.183408
0.180526
0.177707
0.174967
0.17232
0.169778
0.167351
0.165046
0.162871
0.160829
0.158923
0.157156
0.155528
0.154039
0.152688
0.151472
0.15039
0.149439
0.148616
0.147918
0.147345
0.146891
0.146553
0.146326
0.146208
0.146194
0.146283
0.14647
0.146754
0.147131
0.147599
0.148155
0.148798
0.149524
0.150333
0.151221
0.152188
0.153231
0.154348
0.155538
0.1568
0.158132
0.159532
0.161
0.162534
0.164132
0.165794
0.167518
0.169303
0.171147
0.17305
0.17501
0.177026
0.179095
0.181218
0.183392
0.185616
0.187888
0.190207
0.19257
0.194976
0.197422
0.199908
0.202431
0.204989
0.20758
0.210202
0.212853
0.215531
0.218234
0.22096
0.223707
0.226475
0.22926
0.232062
0.23488
0.237712
0.240557
0.243414
0.246284
0.249165
0.252058
0.254962
0.257878
0.260806
0.263748
0.266704
0.269676
0.272665
0.275674
0.278704
0.281757
0.284836
0.287944
0.291083
0.294257
0.297468
0.30072
0.304016
0.307358
0.310751
0.314195
0.317695
0.321251
0.324865
0.328538
0.33227
0.336059
0.339902
0.343797
0.347737
0.351714
0.35572
0.359742
0.363765
0.367773
0.371743
0.375653
0.379475
0.383177
0.386726
0.390083
0.393205
0.396046
0.398559
0.40069
0.402386
0.403592
0.404253
0.404314
0.403703
0.402363
0.400237
0.397274
0.393426
0.388654
0.382922
0.376204
0.368481
0.359743
0.34999
0.339231
0.327483
0.314772
0.301131
0.286598
0.271216
0.255028
0.238076
0.220392
0.201993
0.182863
0.16292
0.141938
0.119432
0.0940589
0.0622557
0.0152264
0.00607522
0.0304872
0.0489064
0.0643026
0.0783023
0.0913004
0.103532
0.11506
0.125921
0.136134
0.145708
0.15465
0.162964
0.170654
0.177725
0.18418
0.190024
0.195263
0.199904
0.203955
0.207426
0.210329
0.212676
0.214483
0.215768
0.216548
0.216845
0.21671
0.216165
0.215238
0.21396
0.212363
0.210483
0.208352
0.206007
0.203481
0.200809
0.198022
0.195153
0.192231
0.189283
0.186334
0.183409
0.180527
0.177708
0.174968
0.172321
0.169779
0.167352
0.165047
0.162872
0.16083
0.158924
0.157157
0.155529
0.15404
0.152688
0.151473
0.150391
0.14944
0.148617
0.147919
0.147346
0.146892
0.146553
0.146327
0.146208
0.146195
0.146283
0.146471
0.146754
0.147132
0.1476
0.148156
0.148799
0.149525
0.150334
0.151222
0.152189
0.153232
0.154349
0.155539
0.156801
0.158133
0.159533
0.161001
0.162535
0.164133
0.165795
0.167519
0.169304
0.171148
0.173051
0.175011
0.177027
0.179097
0.181219
0.183393
0.185617
0.187889
0.190208
0.192571
0.194977
0.197424
0.199909
0.202432
0.20499
0.207581
0.210203
0.212854
0.215532
0.218235
0.220961
0.223709
0.226476
0.229261
0.232064
0.234881
0.237713
0.240558
0.243416
0.246285
0.249166
0.252059
0.254963
0.257879
0.260807
0.263749
0.266705
0.269677
0.272667
0.275675
0.278705
0.281758
0.284837
0.287945
0.291084
0.294258
0.297469
0.300721
0.304017
0.307359
0.310752
0.314196
0.317696
0.321252
0.324866
0.328539
0.332271
0.33606
0.339903
0.343798
0.347738
0.351716
0.355721
0.359743
0.363766
0.367774
0.371744
0.375654
0.379476
0.383179
0.386727
0.390084
0.393206
0.396047
0.39856
0.400691
0.402388
0.403594
0.404254
0.404315
0.403705
0.402364
0.400238
0.397275
0.393428
0.388656
0.382924
0.376205
0.368482
0.359745
0.349992
0.339233
0.327485
0.314774
0.301132
0.286599
0.271217
0.255029
0.238077
0.220393
0.201994
0.182864
0.162921
0.141939
0.119432
0.094059
0.0622557
0.0152263
0.00908394
0.0413185
0.0633325
0.0810291
0.0969077
0.111694
0.125632
0.138804
0.151239
0.162944
0.173923
0.184175
0.193705
0.202517
0.210616
0.21801
0.224709
0.230722
0.236061
0.240739
0.244768
0.248164
0.250942
0.253119
0.254715
0.25575
0.256245
0.256243
0.255772
0.254861
0.253543
0.251851
0.249823
0.247494
0.244903
0.242087
0.239083
0.235929
0.232661
0.229312
0.225914
0.222498
0.219093
0.215724
0.212414
0.209183
0.206051
0.203033
0.200141
0.197387
0.19478
0.192326
0.19003
0.187895
0.185924
0.184116
0.182471
0.180988
0.179664
0.178497
0.177484
0.176621
0.175907
0.175336
0.174904
0.174607
0.17444
0.1744
0.174483
0.174685
0.175002
0.175432
0.175971
0.176617
0.177365
0.178214
0.179162
0.180204
0.181339
0.182566
0.183881
0.185282
0.186769
0.188338
0.189989
0.191718
0.193526
0.19541
0.197368
0.1994
0.201503
0.203675
0.205916
0.208224
0.210596
0.213032
0.215529
0.218086
0.2207
0.223371
0.226095
0.228871
0.231696
0.234568
0.237485
0.240445
0.243445
0.246484
0.249557
0.252664
0.255802
0.258968
0.262161
0.265379
0.268618
0.271879
0.275158
0.278454
0.281767
0.285094
0.288436
0.29179
0.295158
0.298538
0.301931
0.305337
0.308757
0.312192
0.315642
0.31911
0.322597
0.326106
0.329638
0.333197
0.336785
0.340404
0.34406
0.347753
0.35149
0.355272
0.359103
0.362987
0.366927
0.370927
0.374988
0.379113
0.383304
0.38756
0.391883
0.39627
0.400718
0.405223
0.409779
0.414375
0.419003
0.423646
0.42829
0.432913
0.437492
0.442001
0.446407
0.450675
0.454767
0.458639
0.462242
0.465528
0.468439
0.470919
0.472907
0.474343
0.475164
0.475301
0.474687
0.473257
0.470952
0.467714
0.463494
0.458244
0.451928
0.444515
0.435981
0.426313
0.415505
0.40356
0.390486
0.376302
0.36103
0.344697
0.327331
0.308965
0.289628
0.269346
0.248133
0.225981
0.202822
0.178454
0.152351
0.12302
0.0853451
0.0239836
0.00908355
0.0413179
0.0633325
0.0810296
0.0969084
0.111695
0.125633
0.138805
0.15124
0.162945
0.173924
0.184177
0.193707
0.202518
0.210617
0.218011
0.22471
0.230723
0.236063
0.24074
0.244769
0.248165
0.250943
0.25312
0.254716
0.255751
0.256247
0.256245
0.255773
0.254862
0.253544
0.251852
0.249824
0.247495
0.244904
0.242088
0.239084
0.23593
0.232662
0.229313
0.225915
0.222499
0.219094
0.215725
0.212415
0.209184
0.206052
0.203034
0.200142
0.197388
0.194781
0.192327
0.190031
0.187896
0.185925
0.184117
0.182472
0.180989
0.179665
0.178498
0.177485
0.176622
0.175908
0.175337
0.174905
0.174608
0.174441
0.174401
0.174484
0.174686
0.175003
0.175433
0.175972
0.176618
0.177366
0.178215
0.179163
0.180205
0.18134
0.182567
0.183882
0.185283
0.18677
0.188339
0.18999
0.19172
0.193527
0.195411
0.197369
0.199401
0.201504
0.203676
0.205917
0.208225
0.210597
0.213033
0.21553
0.218087
0.220702
0.223372
0.226096
0.228872
0.231697
0.234569
0.237487
0.240446
0.243447
0.246485
0.249558
0.252665
0.255803
0.25897
0.262163
0.26538
0.26862
0.27188
0.275159
0.278456
0.281768
0.285095
0.288437
0.291791
0.295159
0.298539
0.301932
0.305338
0.308758
0.312193
0.315643
0.319111
0.322599
0.326107
0.329639
0.333198
0.336786
0.340405
0.344061
0.347754
0.351491
0.355273
0.359104
0.362988
0.366928
0.370927
0.374989
0.379114
0.383305
0.387561
0.391884
0.396271
0.400719
0.405224
0.40978
0.414376
0.419004
0.423647
0.428291
0.432914
0.437493
0.442002
0.446408
0.450676
0.454768
0.45864
0.462244
0.465529
0.46844
0.47092
0.472908
0.474344
0.475165
0.475302
0.474688
0.473258
0.470953
0.467716
0.463495
0.458246
0.45193
0.444516
0.435982
0.426314
0.415506
0.403561
0.390488
0.376304
0.361031
0.344698
0.327332
0.308966
0.289629
0.269347
0.248134
0.225982
0.202822
0.178455
0.152351
0.12302
0.085345
0.0239835
0.0120552
0.0510355
0.0761195
0.0957807
0.113274
0.129513
0.144802
0.159244
0.172869
0.18568
0.197675
0.208855
0.219221
0.22878
0.237544
0.245526
0.252744
0.259214
0.264956
0.269989
0.274334
0.278009
0.281035
0.283433
0.285223
0.286427
0.28707
0.287178
0.286788
0.285928
0.284629
0.282925
0.28085
0.278442
0.275736
0.272773
0.269589
0.266224
0.262715
0.259099
0.255411
0.251685
0.247952
0.244241
0.24058
0.236993
0.233501
0.230124
0.226877
0.223775
0.220828
0.218046
0.215436
0.213002
0.210748
0.208675
0.206783
0.205073
0.203541
0.202186
0.201005
0.199993
0.199149
0.198467
0.197942
0.197571
0.197349
0.19727
0.197332
0.197529
0.197858
0.198315
0.198896
0.199598
0.200417
0.20135
0.202394
0.203546
0.204804
0.206165
0.207626
0.209184
0.210839
0.212587
0.214426
0.216355
0.218371
0.220473
0.222659
0.224926
0.227273
0.229699
0.2322
0.234776
0.237425
0.240144
0.242931
0.245785
0.248703
0.251683
0.254722
0.257818
0.260969
0.264172
0.267425
0.270725
0.27407
0.277456
0.280882
0.284344
0.28784
0.291367
0.294924
0.298507
0.302116
0.305746
0.309398
0.313069
0.316757
0.320462
0.324182
0.327917
0.331665
0.335428
0.339205
0.342996
0.346803
0.350625
0.354465
0.358325
0.362205
0.366109
0.370038
0.373997
0.377987
0.382012
0.386077
0.390183
0.394336
0.398539
0.402796
0.40711
0.411486
0.415927
0.420435
0.425012
0.429662
0.434383
0.439175
0.444038
0.448967
0.453957
0.459001
0.464089
0.46921
0.474347
0.479482
0.484593
0.489655
0.494638
0.499507
0.504225
0.508749
0.513032
0.517024
0.520669
0.523908
0.526681
0.528923
0.530568
0.531552
0.531799
0.531243
0.529817
0.527461
0.524115
0.519727
0.51425
0.507643
0.499873
0.490914
0.480746
0.469357
0.456741
0.442896
0.427828
0.411542
0.39405
0.375363
0.355496
0.334462
0.312278
0.288953
0.264477
0.238787
0.21167
0.182523
0.149584
0.106679
0.0333448
0.0120548
0.0510349
0.0761196
0.0957814
0.113275
0.129514
0.144803
0.159245
0.17287
0.185681
0.197677
0.208856
0.219222
0.228781
0.237545
0.245528
0.252745
0.259215
0.264957
0.269991
0.274335
0.27801
0.281036
0.283434
0.285224
0.286428
0.287071
0.287179
0.286788
0.285929
0.28463
0.282926
0.280851
0.278442
0.275737
0.272774
0.26959
0.266225
0.262716
0.2591
0.255412
0.251686
0.247953
0.244242
0.240581
0.236994
0.233502
0.230125
0.226878
0.223776
0.220829
0.218047
0.215437
0.213003
0.210748
0.208676
0.206784
0.205074
0.203542
0.202187
0.201006
0.199994
0.199149
0.198467
0.197943
0.197572
0.19735
0.197271
0.197333
0.19753
0.197859
0.198316
0.198897
0.199598
0.200418
0.201351
0.202395
0.203547
0.204805
0.206166
0.207627
0.209185
0.21084
0.212588
0.214427
0.216356
0.218372
0.220474
0.22266
0.224927
0.227274
0.2297
0.232201
0.234777
0.237426
0.240145
0.242932
0.245786
0.248704
0.251684
0.254723
0.257819
0.26097
0.264173
0.267426
0.270726
0.274071
0.277457
0.280882
0.284345
0.287841
0.291368
0.294925
0.298508
0.302117
0.305747
0.309399
0.31307
0.316758
0.320463
0.324183
0.327917
0.331666
0.335429
0.339206
0.342997
0.346804
0.350626
0.354466
0.358326
0.362206
0.36611
0.370039
0.373998
0.377988
0.382013
0.386077
0.390184
0.394337
0.39854
0.402796
0.407111
0.411487
0.415927
0.420435
0.425013
0.429662
0.434384
0.439176
0.444039
0.448968
0.453958
0.459002
0.46409
0.469211
0.474348
0.479483
0.484594
0.489656
0.494639
0.499508
0.504226
0.50875
0.513033
0.517025
0.520669
0.523909
0.526682
0.528924
0.530569
0.531553
0.5318
0.531244
0.529818
0.527462
0.524116
0.519728
0.514251
0.507644
0.499874
0.490915
0.480747
0.469358
0.456742
0.442897
0.427829
0.411543
0.394051
0.375364
0.355496
0.334463
0.312279
0.288953
0.264478
0.238787
0.21167
0.182523
0.149584
0.106679
0.0333447
0.0150442
0.0599383
0.087923
0.109488
0.128477
0.146001
0.162437
0.177916
0.192478
0.206128
0.218866
0.23069
0.241608
0.251632
0.26078
0.269076
0.276546
0.283219
0.289123
0.294289
0.298743
0.302514
0.305627
0.308108
0.30998
0.311266
0.31199
0.312175
0.311855
0.311057
0.30981
0.308144
0.30609
0.303684
0.300959
0.297952
0.294701
0.291243
0.287615
0.283856
0.280002
0.276087
0.272147
0.268212
0.264312
0.260474
0.256724
0.253082
0.249568
0.246198
0.242986
0.239944
0.23708
0.234402
0.231913
0.229617
0.227515
0.225607
0.223893
0.222369
0.221034
0.219884
0.218916
0.218124
0.217506
0.217055
0.216767
0.216637
0.216661
0.216835
0.217153
0.217612
0.218208
0.218936
0.219793
0.220776
0.221881
0.223104
0.224444
0.225896
0.227458
0.229128
0.230902
0.232779
0.234756
0.236831
0.239001
0.241265
0.24362
0.246064
0.248596
0.251212
0.253912
0.256693
0.259552
0.262488
0.265497
0.268579
0.27173
0.274948
0.27823
0.281574
0.284978
0.288437
0.29195
0.295513
0.299125
0.302781
0.30648
0.310218
0.313992
0.317801
0.321641
0.32551
0.329405
0.333326
0.337268
0.341232
0.345214
0.349215
0.353232
0.357265
0.361314
0.365378
0.369458
0.373553
0.377665
0.381795
0.385944
0.390114
0.394307
0.398525
0.402772
0.40705
0.411362
0.415712
0.420104
0.424542
0.429029
0.43357
0.438169
0.442831
0.447558
0.452354
0.457223
0.462166
0.467185
0.472282
0.477454
0.482701
0.488018
0.4934
0.49884
0.504325
0.509844
0.51538
0.520913
0.526419
0.531872
0.537239
0.542486
0.547571
0.55245
0.557074
0.561391
0.565342
0.568867
0.571903
0.574384
0.576242
0.57741
0.577813
0.577384
0.576059
0.573776
0.570477
0.566111
0.560628
0.553988
0.546155
0.537097
0.52679
0.515213
0.502347
0.488179
0.472695
0.455883
0.437731
0.418229
0.397368
0.375144
0.351555
0.326597
0.300251
0.272438
0.242914
0.210982
0.174608
0.126765
0.0426807
0.0150437
0.0599377
0.0879233
0.109488
0.128478
0.146002
0.162438
0.177917
0.192479
0.20613
0.218867
0.230692
0.241609
0.251633
0.260781
0.269077
0.276547
0.28322
0.289124
0.294289
0.298744
0.302515
0.305628
0.308109
0.30998
0.311267
0.31199
0.312175
0.311856
0.311058
0.309811
0.308144
0.306091
0.303684
0.300959
0.297952
0.294701
0.291243
0.287616
0.283857
0.280002
0.276088
0.272147
0.268212
0.264312
0.260475
0.256724
0.253082
0.249568
0.246198
0.242987
0.239945
0.237081
0.234402
0.231913
0.229617
0.227515
0.225608
0.223893
0.22237
0.221035
0.219885
0.218916
0.218125
0.217506
0.217055
0.216767
0.216638
0.216662
0.216836
0.217154
0.217613
0.218208
0.218937
0.219794
0.220777
0.221882
0.223105
0.224445
0.225897
0.227459
0.229128
0.230903
0.23278
0.234757
0.236831
0.239002
0.241265
0.24362
0.246065
0.248596
0.251213
0.253913
0.256693
0.259553
0.262488
0.265498
0.26858
0.271731
0.274949
0.278231
0.281575
0.284978
0.288438
0.291951
0.295514
0.299125
0.302782
0.30648
0.310218
0.313993
0.317802
0.321642
0.325511
0.329406
0.333326
0.337269
0.341232
0.345215
0.349215
0.353232
0.357266
0.361315
0.365379
0.369458
0.373554
0.377666
0.381796
0.385945
0.390115
0.394308
0.398526
0.402773
0.40705
0.411362
0.415713
0.420104
0.424542
0.429029
0.433571
0.43817
0.442831
0.447558
0.452355
0.457223
0.462166
0.467186
0.472282
0.477455
0.482702
0.488019
0.493401
0.49884
0.504326
0.509845
0.51538
0.520913
0.52642
0.531872
0.53724
0.542486
0.547572
0.552451
0.557075
0.561391
0.565343
0.568868
0.571904
0.574385
0.576243
0.57741
0.577813
0.577385
0.57606
0.573777
0.570478
0.566112
0.560629
0.553989
0.546155
0.537098
0.526791
0.515213
0.502348
0.48818
0.472696
0.455884
0.437731
0.418229
0.397369
0.375145
0.351555
0.326597
0.300251
0.272438
0.242914
0.210982
0.174608
0.126765
0.0426806
0.0180414
0.068447
0.0991279
0.122516
0.142914
0.161603
0.179036
0.195376
0.210679
0.224958
0.238216
0.250458
0.261696
0.271951
0.281253
0.289635
0.297137
0.303799
0.309663
0.31477
0.319159
0.322865
0.325924
0.328364
0.330212
0.331496
0.332236
0.332455
0.332183
0.331443
0.33026
0.328661
0.326673
0.324325
0.321649
0.318677
0.315443
0.311983
0.308333
0.30453
0.300609
0.296606
0.292556
0.288493
0.284448
0.280449
0.276525
0.272698
0.268992
0.265424
0.262012
0.258767
0.255703
0.252826
0.250144
0.24766
0.245378
0.243299
0.241423
0.239747
0.238271
0.23699
0.235901
0.235
0.234283
0.233745
0.233381
0.233187
0.233158
0.233288
0.233574
0.234011
0.234594
0.23532
0.236185
0.237184
0.238314
0.239572
0.240954
0.242457
0.244079
0.245816
0.247665
0.249624
0.251691
0.253862
0.256136
0.258511
0.260983
0.26355
0.266211
0.268963
0.271804
0.274731
0.277741
0.280834
0.284005
0.287253
0.290575
0.293968
0.297429
0.300956
0.304545
0.308194
0.3119
0.31566
0.31947
0.323328
0.327231
0.331175
0.335159
0.339178
0.343231
0.347315
0.351428
0.355567
0.359729
0.363915
0.368121
0.372346
0.37659
0.380852
0.38513
0.389426
0.393738
0.398068
0.402416
0.406784
0.411173
0.415584
0.420021
0.424485
0.42898
0.433508
0.438073
0.442679
0.447329
0.452029
0.456781
0.461591
0.466462
0.471399
0.476406
0.481486
0.486642
0.491878
0.497193
0.50259
0.508067
0.513622
0.519251
0.524947
0.530704
0.536509
0.542349
0.548206
0.55406
0.559886
0.565657
0.571338
0.576894
0.582283
0.587459
0.592372
0.596968
0.60119
0.604976
0.608262
0.610982
0.613069
0.614455
0.615068
0.614844
0.61372
0.611637
0.608538
0.604373
0.599095
0.59266
0.585029
0.576169
0.566044
0.554625
0.54188
0.527775
0.512278
0.495352
0.476961
0.457066
0.435633
0.412631
0.388034
0.361819
0.333944
0.304305
0.272609
0.238055
0.19835
0.145669
0.0518756
0.0180408
0.0684466
0.0991283
0.122517
0.142915
0.161604
0.179037
0.195378
0.210681
0.22496
0.238217
0.250459
0.261697
0.271953
0.281254
0.289636
0.297138
0.3038
0.309664
0.314771
0.319159
0.322866
0.325924
0.328364
0.330213
0.331496
0.332236
0.332456
0.332183
0.331443
0.330261
0.328661
0.326673
0.324325
0.321649
0.318677
0.315443
0.311984
0.308334
0.30453
0.300609
0.296606
0.292557
0.288493
0.284448
0.28045
0.276525
0.272699
0.268992
0.265425
0.262012
0.258768
0.255703
0.252826
0.250144
0.247661
0.245379
0.2433
0.241423
0.239748
0.238271
0.23699
0.235901
0.235
0.234283
0.233745
0.233382
0.233188
0.233158
0.233289
0.233574
0.234011
0.234595
0.235321
0.236185
0.237184
0.238315
0.239572
0.240955
0.242458
0.24408
0.245816
0.247666
0.249625
0.251691
0.253863
0.256137
0.258511
0.260983
0.263551
0.266212
0.268964
0.271804
0.274731
0.277742
0.280834
0.284006
0.287254
0.290575
0.293968
0.29743
0.300956
0.304546
0.308195
0.311901
0.31566
0.319471
0.323329
0.327231
0.331176
0.335159
0.339179
0.343232
0.347316
0.351428
0.355567
0.35973
0.363915
0.368121
0.372347
0.376591
0.380852
0.385131
0.389426
0.393739
0.398068
0.402417
0.406785
0.411173
0.415585
0.420021
0.424486
0.42898
0.433508
0.438073
0.442679
0.44733
0.452029
0.456781
0.461591
0.466462
0.471399
0.476406
0.481486
0.486643
0.491878
0.497194
0.50259
0.508067
0.513622
0.519251
0.524948
0.530704
0.536509
0.542349
0.548206
0.55406
0.559887
0.565657
0.571339
0.576894
0.582283
0.587459
0.592372
0.596969
0.601191
0.604977
0.608263
0.610983
0.61307
0.614456
0.615069
0.614845
0.613721
0.611638
0.608539
0.604374
0.599095
0.59266
0.58503
0.576169
0.566045
0.554626
0.54188
0.527776
0.512278
0.495353
0.476961
0.457066
0.435633
0.412631
0.388034
0.361819
0.333944
0.304305
0.272608
0.238054
0.19835
0.145668
0.0518755
0.021049
0.0765922
0.109887
0.135021
0.156742
0.176492
0.194794
0.211848
0.227728
0.242458
0.256049
0.268516
0.27988
0.290173
0.299435
0.307714
0.315063
0.321537
0.327192
0.332082
0.336257
0.339764
0.342644
0.344935
0.346668
0.34787
0.348564
0.348772
0.348518
0.347822
0.346704
0.345186
0.343289
0.341038
0.338457
0.335576
0.332423
0.32903
0.325431
0.32166
0.317751
0.31374
0.309661
0.305548
0.301434
0.297349
0.293321
0.289378
0.285543
0.281836
0.278277
0.274881
0.27166
0.268626
0.265786
0.263147
0.260711
0.258483
0.256462
0.254648
0.253039
0.251632
0.250425
0.249414
0.248594
0.247961
0.24751
0.247238
0.247138
0.247206
0.247437
0.247828
0.248373
0.249068
0.249909
0.250892
0.252014
0.25327
0.254658
0.256173
0.257813
0.259575
0.261456
0.263453
0.265563
0.267784
0.270114
0.272549
0.275088
0.277727
0.280465
0.283299
0.286227
0.289245
0.292352
0.295545
0.298821
0.302177
0.305611
0.30912
0.3127
0.31635
0.320064
0.323842
0.327679
0.331572
0.335519
0.339515
0.343559
0.347647
0.351775
0.355942
0.360144
0.364378
0.368643
0.372936
0.377255
0.381598
0.385964
0.39035
0.394757
0.399183
0.403628
0.408091
0.412573
0.417075
0.421597
0.42614
0.430706
0.435297
0.439915
0.444563
0.449244
0.453961
0.458717
0.463517
0.468364
0.473263
0.478218
0.483234
0.488314
0.493464
0.498687
0.503986
0.509366
0.514828
0.520375
0.526006
0.53172
0.537516
0.54339
0.549334
0.55534
0.561397
0.567491
0.573603
0.579713
0.585795
0.591821
0.597757
0.603567
0.609208
0.614634
0.619796
0.62464
0.629109
0.633141
0.636675
0.639646
0.641987
0.643634
0.644518
0.644579
0.643759
0.642
0.63925
0.635459
0.630582
0.624573
0.617393
0.608998
0.599348
0.588398
0.5761
0.562402
0.547246
0.530569
0.512304
0.492384
0.470742
0.447317
0.422053
0.394899
0.365784
0.334565
0.300894
0.263866
0.220948
0.163605
0.0608898
0.0210484
0.0765918
0.109887
0.135022
0.156743
0.176493
0.194795
0.211849
0.227729
0.242459
0.25605
0.268517
0.279881
0.290174
0.299436
0.307715
0.315064
0.321538
0.327193
0.332082
0.336257
0.339764
0.342644
0.344935
0.346668
0.34787
0.348565
0.348773
0.348518
0.347822
0.346704
0.345186
0.343289
0.341038
0.338457
0.335576
0.332423
0.32903
0.325431
0.32166
0.317751
0.31374
0.309661
0.305548
0.301434
0.297349
0.293321
0.289378
0.285543
0.281837
0.278277
0.274881
0.27166
0.268626
0.265786
0.263147
0.260712
0.258483
0.256462
0.254648
0.253039
0.251633
0.250425
0.249414
0.248594
0.247961
0.247511
0.247238
0.247138
0.247206
0.247438
0.247828
0.248373
0.249068
0.249909
0.250893
0.252014
0.25327
0.254658
0.256173
0.257813
0.259575
0.261456
0.263453
0.265564
0.267785
0.270114
0.272549
0.275088
0.277728
0.280466
0.2833
0.286227
0.289246
0.292353
0.295545
0.298821
0.302178
0.305612
0.30912
0.312701
0.31635
0.320065
0.323842
0.327679
0.331573
0.335519
0.339516
0.343559
0.347647
0.351775
0.355942
0.360144
0.364379
0.368644
0.372937
0.377255
0.381598
0.385964
0.390351
0.394757
0.399183
0.403628
0.408091
0.412574
0.417075
0.421597
0.42614
0.430706
0.435297
0.439916
0.444564
0.449244
0.453961
0.458717
0.463517
0.468364
0.473263
0.478218
0.483234
0.488314
0.493464
0.498687
0.503986
0.509366
0.514828
0.520375
0.526006
0.53172
0.537516
0.54339
0.549334
0.55534
0.561397
0.567491
0.573603
0.579713
0.585795
0.591821
0.597758
0.603567
0.609208
0.614635
0.619797
0.62464
0.629109
0.633141
0.636675
0.639646
0.641988
0.643634
0.644518
0.64458
0.643759
0.642
0.63925
0.635459
0.630582
0.624574
0.617393
0.608999
0.599348
0.588398
0.5761
0.562402
0.547246
0.530569
0.512304
0.492384
0.470742
0.447316
0.422053
0.394899
0.365783
0.334564
0.300894
0.263866
0.220947
0.163604
0.0608897
0.0241194
0.0845161
0.120291
0.147077
0.170031
0.19074
0.209795
0.227431
0.243744
0.258773
0.272541
0.285072
0.2964
0.306568
0.315632
0.323654
0.3307
0.336843
0.342152
0.346696
0.350536
0.353732
0.356334
0.358385
0.359922
0.360975
0.361568
0.361721
0.361453
0.360781
0.35972
0.358286
0.356493
0.354359
0.351905
0.349151
0.346122
0.342846
0.339351
0.335669
0.331832
0.327873
0.323827
0.319726
0.315604
0.311491