/*--------------------------------*- C++ -*----------------------------------*\
  =========                 |
  \\      /  F ield         | OpenFOAM: The Open Source CFD Toolbox
   \\    /   O peration     | Website:  https://openfoam.org
    \\  /    A nd           | Version:  8
     \\/     M anipulation  |
\*---------------------------------------------------------------------------*/
FoamFile
{
    version     2.0;
    format      ascii;
    class       volScalarField;
    location    "1100";
    object      nut;
}
// * * * * * * * * * * * * * * * * * * * * * * * * * * * * * * * * * * * * * //

dimensions      [0 2 -1 0 0 0 0];

internalField   nonuniform List<scalar> 
46000
(
4.42337e-08
2.16651e-07
4.62339e-07
7.28332e-07
1.0085e-06
1.30049e-06
1.58984e-06
1.87039e-06
2.14181e-06
2.40072e-06
2.64384e-06
2.87215e-06
3.08501e-06
3.28181e-06
3.46207e-06
3.62543e-06
3.7717e-06
3.9008e-06
4.01279e-06
4.10787e-06
4.18636e-06
4.24869e-06
4.29539e-06
4.32707e-06
4.34438e-06
4.34857e-06
4.34562e-06
4.33242e-06
4.30877e-06
4.27534e-06
4.23309e-06
4.18307e-06
4.12637e-06
4.06405e-06
3.99714e-06
3.92663e-06
3.85347e-06
3.77852e-06
3.7026e-06
3.62645e-06
3.55073e-06
3.47602e-06
3.40285e-06
3.33165e-06
3.2628e-06
3.19661e-06
3.13332e-06
3.07314e-06
3.01621e-06
2.96262e-06
2.91244e-06
2.8657e-06
2.82239e-06
2.7825e-06
2.74597e-06
2.71276e-06
2.68278e-06
2.65596e-06
2.6322e-06
2.61141e-06
2.5935e-06
2.57893e-06
2.56767e-06
2.55903e-06
2.55287e-06
2.5491e-06
2.54766e-06
2.5485e-06
2.55155e-06
2.55677e-06
2.5641e-06
2.5735e-06
2.58493e-06
2.59835e-06
2.61372e-06
2.63101e-06
2.65019e-06
2.67123e-06
2.69411e-06
2.71881e-06
2.7453e-06
2.77358e-06
2.80362e-06
2.8354e-06
2.86893e-06
2.90418e-06
2.94114e-06
2.9798e-06
3.02015e-06
3.06219e-06
3.10589e-06
3.15126e-06
3.19826e-06
3.2469e-06
3.29715e-06
3.349e-06
3.40242e-06
3.45739e-06
3.51389e-06
3.57189e-06
3.63136e-06
3.69226e-06
3.75457e-06
3.81823e-06
3.88322e-06
3.94949e-06
4.01699e-06
4.08568e-06
4.15551e-06
4.22644e-06
4.29842e-06
4.3714e-06
4.44535e-06
4.52021e-06
4.59594e-06
4.67251e-06
4.74989e-06
4.82803e-06
4.90693e-06
4.98655e-06
5.06687e-06
5.1479e-06
5.22962e-06
5.31204e-06
5.39518e-06
5.47903e-06
5.56364e-06
5.64904e-06
5.73526e-06
5.82235e-06
5.91037e-06
5.99938e-06
6.08946e-06
6.18068e-06
6.27313e-06
6.36691e-06
6.4621e-06
6.55883e-06
6.65719e-06
6.75729e-06
6.85925e-06
6.96318e-06
7.06919e-06
7.17738e-06
7.28784e-06
7.40065e-06
7.51588e-06
7.63356e-06
7.7537e-06
7.87628e-06
8.00122e-06
8.12842e-06
8.25769e-06
8.38878e-06
8.52137e-06
8.65505e-06
8.78931e-06
8.92352e-06
9.05695e-06
9.18873e-06
9.31785e-06
9.44317e-06
9.5634e-06
9.67708e-06
9.78264e-06
9.87832e-06
9.96227e-06
1.00325e-05
1.0087e-05
1.01235e-05
1.01403e-05
1.01373e-05
1.01134e-05
1.00643e-05
9.98719e-06
9.88039e-06
9.74236e-06
9.5719e-06
9.36815e-06
9.13063e-06
8.85932e-06
8.55464e-06
8.21752e-06
7.84943e-06
7.45234e-06
7.02876e-06
6.58168e-06
6.11455e-06
5.63116e-06
5.13562e-06
4.63213e-06
4.12475e-06
3.61614e-06
3.10122e-06
2.59938e-06
2.09515e-06
1.58399e-06
1.08163e-06
5.55191e-07
1.17404e-07
4.42305e-08
2.16634e-07
4.62307e-07
7.28292e-07
1.00845e-06
1.30045e-06
1.58979e-06
1.87035e-06
2.14176e-06
2.40067e-06
2.6438e-06
2.87211e-06
3.08498e-06
3.28178e-06
3.46204e-06
3.62541e-06
3.77168e-06
3.90078e-06
4.01278e-06
4.10787e-06
4.18636e-06
4.24869e-06
4.29539e-06
4.32707e-06
4.34439e-06
4.34858e-06
4.34563e-06
4.33243e-06
4.30878e-06
4.27534e-06
4.23309e-06
4.18308e-06
4.12638e-06
4.06406e-06
3.99715e-06
3.92664e-06
3.85347e-06
3.77852e-06
3.7026e-06
3.62645e-06
3.55072e-06
3.47602e-06
3.40284e-06
3.33164e-06
3.26279e-06
3.19659e-06
3.13331e-06
3.07313e-06
3.01619e-06
2.9626e-06
2.91242e-06
2.86568e-06
2.82237e-06
2.78248e-06
2.74595e-06
2.71273e-06
2.68276e-06
2.65593e-06
2.63217e-06
2.61138e-06
2.59347e-06
2.5789e-06
2.56764e-06
2.559e-06
2.55284e-06
2.54907e-06
2.54764e-06
2.54847e-06
2.55153e-06
2.55674e-06
2.56407e-06
2.57348e-06
2.5849e-06
2.59832e-06
2.61369e-06
2.63098e-06
2.65016e-06
2.6712e-06
2.69408e-06
2.71878e-06
2.74528e-06
2.77355e-06
2.80359e-06
2.83538e-06
2.86891e-06
2.90415e-06
2.94111e-06
2.97978e-06
3.02013e-06
3.06217e-06
3.10587e-06
3.15124e-06
3.19825e-06
3.24688e-06
3.29714e-06
3.34898e-06
3.4024e-06
3.45738e-06
3.51388e-06
3.57188e-06
3.63135e-06
3.69226e-06
3.75456e-06
3.81823e-06
3.88322e-06
3.94948e-06
4.01698e-06
4.08568e-06
4.15551e-06
4.22644e-06
4.29842e-06
4.37141e-06
4.44535e-06
4.52021e-06
4.59595e-06
4.67252e-06
4.7499e-06
4.82804e-06
4.90694e-06
4.98656e-06
5.06688e-06
5.14791e-06
5.22964e-06
5.31206e-06
5.39519e-06
5.47905e-06
5.56366e-06
5.64905e-06
5.73527e-06
5.82237e-06
5.91039e-06
5.9994e-06
6.08948e-06
6.1807e-06
6.27315e-06
6.36693e-06
6.46212e-06
6.55885e-06
6.65721e-06
6.75731e-06
6.85927e-06
6.9632e-06
7.06921e-06
7.1774e-06
7.28786e-06
7.40067e-06
7.5159e-06
7.63358e-06
7.75372e-06
7.8763e-06
8.00124e-06
8.12844e-06
8.25771e-06
8.3888e-06
8.52139e-06
8.65507e-06
8.78933e-06
8.92354e-06
9.05697e-06
9.18875e-06
9.31787e-06
9.4432e-06
9.56342e-06
9.67711e-06
9.78266e-06
9.87835e-06
9.9623e-06
1.00325e-05
1.0087e-05
1.01235e-05
1.01403e-05
1.01373e-05
1.01135e-05
1.00643e-05
9.98722e-06
9.88043e-06
9.7424e-06
9.57194e-06
9.36819e-06
9.13068e-06
8.85937e-06
8.55469e-06
8.21757e-06
7.84948e-06
7.45239e-06
7.02881e-06
6.58173e-06
6.11459e-06
5.6312e-06
5.13566e-06
4.63217e-06
4.12478e-06
3.61616e-06
3.10124e-06
2.59939e-06
2.09516e-06
1.584e-06
1.08163e-06
5.55195e-07
1.17404e-07
2.02947e-07
8.52421e-06
1.83493e-05
2.57618e-05
3.18686e-05
3.67943e-05
4.10459e-05
4.47817e-05
4.81005e-05
5.10703e-05
5.37359e-05
5.61183e-05
5.82377e-05
6.01126e-05
6.17594e-05
6.31936e-05
6.44292e-05
6.54797e-05
6.63578e-05
6.70756e-05
6.76448e-05
6.80763e-05
6.83804e-05
6.85659e-05
6.86385e-05
6.85932e-05
6.84015e-05
6.81349e-05
6.78035e-05
6.74178e-05
6.69869e-05
6.65189e-05
6.6021e-05
6.54995e-05
6.49604e-05
6.44087e-05
6.38493e-05
6.32864e-05
6.27239e-05
6.21651e-05
6.16133e-05
6.10711e-05
6.0541e-05
6.00252e-05
5.95257e-05
5.90439e-05
5.85814e-05
5.81394e-05
5.77189e-05
5.73207e-05
5.69454e-05
5.65936e-05
5.62655e-05
5.59613e-05
5.56812e-05
5.54251e-05
5.51929e-05
5.49842e-05
5.47987e-05
5.46356e-05
5.44929e-05
5.4364e-05
5.42534e-05
5.41636e-05
5.40953e-05
5.40486e-05
5.40231e-05
5.40186e-05
5.40347e-05
5.40708e-05
5.41266e-05
5.42016e-05
5.42953e-05
5.44074e-05
5.45374e-05
5.46848e-05
5.48493e-05
5.50303e-05
5.52277e-05
5.54408e-05
5.56694e-05
5.59131e-05
5.61715e-05
5.64442e-05
5.67309e-05
5.70312e-05
5.73448e-05
5.76714e-05
5.80104e-05
5.83617e-05
5.87248e-05
5.90993e-05
5.94849e-05
5.98812e-05
6.02877e-05
6.0704e-05
6.11298e-05
6.15645e-05
6.20078e-05
6.24591e-05
6.2918e-05
6.3384e-05
6.38567e-05
6.43355e-05
6.48199e-05
6.53096e-05
6.58039e-05
6.63025e-05
6.68048e-05
6.73105e-05
6.78191e-05
6.83302e-05
6.88435e-05
6.93585e-05
6.98751e-05
7.03929e-05
7.09116e-05
7.14311e-05
7.19512e-05
7.24718e-05
7.29928e-05
7.35142e-05
7.4036e-05
7.45582e-05
7.5081e-05
7.56045e-05
7.61289e-05
7.66544e-05
7.71813e-05
7.771e-05
7.82407e-05
7.87739e-05
7.93099e-05
7.98494e-05
8.03926e-05
8.09402e-05
8.14925e-05
8.20503e-05
8.26139e-05
8.31839e-05
8.37607e-05
8.43449e-05
8.49368e-05
8.55368e-05
8.61451e-05
8.6762e-05
8.73873e-05
8.80211e-05
8.8663e-05
8.93124e-05
8.99688e-05
9.0631e-05
9.12977e-05
9.19674e-05
9.26379e-05
9.33069e-05
9.39715e-05
9.46283e-05
9.52737e-05
9.59031e-05
9.65119e-05
9.70945e-05
9.76451e-05
9.81571e-05
9.86235e-05
9.90369e-05
9.93893e-05
9.96722e-05
9.98768e-05
9.99939e-05
0.000100013
9.99219e-05
9.96883e-05
9.93122e-05
9.87891e-05
9.81125e-05
9.72753e-05
9.62708e-05
9.50927e-05
9.37357e-05
9.21955e-05
9.0469e-05
8.85541e-05
8.64501e-05
8.41571e-05
8.16764e-05
7.90099e-05
7.61599e-05
7.31285e-05
6.99163e-05
6.65213e-05
6.29356e-05
5.91425e-05
5.51106e-05
5.06604e-05
4.5486e-05
3.89022e-05
2.91821e-05
1.46372e-05
4.94397e-07
2.02931e-07
8.52301e-06
1.8347e-05
2.5759e-05
3.18655e-05
3.67912e-05
4.10427e-05
4.47786e-05
4.80975e-05
5.10674e-05
5.3733e-05
5.61155e-05
5.8235e-05
6.011e-05
6.1757e-05
6.31913e-05
6.4427e-05
6.54776e-05
6.63558e-05
6.70738e-05
6.76431e-05
6.80747e-05
6.83788e-05
6.85644e-05
6.86371e-05
6.85918e-05
6.84002e-05
6.81337e-05
6.78024e-05
6.74167e-05
6.69858e-05
6.65178e-05
6.60199e-05
6.54984e-05
6.49593e-05
6.44076e-05
6.38482e-05
6.32852e-05
6.27227e-05
6.21639e-05
6.1612e-05
6.10698e-05
6.05397e-05
6.00239e-05
5.95242e-05
5.90425e-05
5.858e-05
5.81379e-05
5.77174e-05
5.73191e-05
5.69438e-05
5.65919e-05
5.62638e-05
5.59596e-05
5.56794e-05
5.54233e-05
5.5191e-05
5.49823e-05
5.47968e-05
5.46337e-05
5.4491e-05
5.43621e-05
5.42515e-05
5.41617e-05
5.40934e-05
5.40466e-05
5.40211e-05
5.40166e-05
5.40327e-05
5.40688e-05
5.41246e-05
5.41996e-05
5.42933e-05
5.44054e-05
5.45354e-05
5.46828e-05
5.48473e-05
5.50283e-05
5.52257e-05
5.54388e-05
5.56674e-05
5.59111e-05
5.61695e-05
5.64422e-05
5.6729e-05
5.70293e-05
5.73429e-05
5.76695e-05
5.80085e-05
5.83598e-05
5.87229e-05
5.90975e-05
5.94831e-05
5.98793e-05
6.02859e-05
6.07022e-05
6.1128e-05
6.15628e-05
6.20061e-05
6.24574e-05
6.29163e-05
6.33824e-05
6.3855e-05
6.43338e-05
6.48183e-05
6.5308e-05
6.58023e-05
6.63009e-05
6.68033e-05
6.7309e-05
6.78176e-05
6.83288e-05
6.88421e-05
6.93571e-05
6.98737e-05
7.03915e-05
7.09102e-05
7.14298e-05
7.19499e-05
7.24705e-05
7.29915e-05
7.3513e-05
7.40348e-05
7.4557e-05
7.50798e-05
7.56033e-05
7.61277e-05
7.66533e-05
7.71802e-05
7.77089e-05
7.82396e-05
7.87728e-05
7.93089e-05
7.98483e-05
8.03915e-05
8.09391e-05
8.14915e-05
8.20492e-05
8.26129e-05
8.31828e-05
8.37597e-05
8.43439e-05
8.49358e-05
8.55358e-05
8.61442e-05
8.6761e-05
8.73863e-05
8.80201e-05
8.8662e-05
8.93114e-05
8.99678e-05
9.063e-05
9.12967e-05
9.19664e-05
9.26369e-05
9.33059e-05
9.39705e-05
9.46273e-05
9.52727e-05
9.59021e-05
9.65109e-05
9.70935e-05
9.7644e-05
9.81561e-05
9.86225e-05
9.90359e-05
9.93883e-05
9.96712e-05
9.98758e-05
9.99929e-05
0.000100012
9.99211e-05
9.96875e-05
9.93114e-05
9.87883e-05
9.81118e-05
9.72747e-05
9.62702e-05
9.50921e-05
9.37352e-05
9.2195e-05
9.04686e-05
8.85537e-05
8.64497e-05
8.41567e-05
8.1676e-05
7.90096e-05
7.61596e-05
7.31282e-05
6.9916e-05
6.6521e-05
6.29353e-05
5.91422e-05
5.51102e-05
5.06601e-05
4.54857e-05
3.89019e-05
2.91818e-05
1.46372e-05
4.94395e-07
4.18454e-07
1.79853e-05
4.14147e-05
5.92936e-05
7.33655e-05
8.4873e-05
9.46401e-05
0.00010311
0.000110526
0.000117046
0.000122777
0.000127798
0.000132173
0.000135955
0.000139194
0.000141937
0.000144226
0.000146101
0.000147601
0.000148761
0.000149615
0.000150194
0.000150527
0.000150639
0.000150548
0.000150262
0.000149774
0.000149153
0.000148426
0.000147618
0.000146748
0.000145831
0.000144882
0.000143912
0.000142931
0.000141947
0.000140968
0.000139999
0.000139047
0.000138114
0.000137205
0.000136323
0.000135471
0.00013465
0.000133861
0.000133107
0.000132389
0.000131706
0.000131059
0.000130449
0.000129876
0.00012934
0.00012884
0.000128376
0.000127948
0.000127555
0.000127197
0.000126873
0.000126582
0.000126323
0.000126091
0.000125882
0.000125699
0.000125545
0.000125421
0.000125327
0.000125266
0.000125235
0.000125235
0.000125267
0.000125328
0.00012542
0.000125542
0.000125693
0.000125873
0.000126082
0.000126319
0.000126583
0.000126875
0.000127194
0.00012754
0.000127911
0.000128308
0.00012873
0.000129176
0.000129647
0.000130141
0.000130659
0.000131199
0.000131761
0.000132344
0.000132948
0.000133572
0.000134216
0.000134878
0.000135558
0.000136255
0.000136968
0.000137697
0.00013844
0.000139197
0.000139966
0.000140747
0.00014154
0.000142342
0.000143154
0.000143973
0.000144801
0.000145635
0.000146474
0.000147319
0.000148169
0.000149022
0.000149878
0.000150738
0.000151599
0.000152463
0.000153328
0.000154195
0.000155063
0.000155932
0.000156803
0.000157676
0.00015855
0.000159426
0.000160304
0.000161185
0.000162069
0.000162957
0.000163849
0.000164747
0.00016565
0.00016656
0.000167477
0.000168403
0.000169338
0.000170283
0.000171239
0.000172207
0.000173187
0.000174181
0.000175189
0.000176212
0.00017725
0.000178303
0.000179372
0.000180456
0.000181556
0.000182669
0.000183795
0.000184933
0.000186079
0.000187232
0.000188388
0.000189544
0.000190694
0.000191834
0.000192957
0.000194057
0.000195125
0.000196153
0.000197133
0.000198053
0.000198902
0.000199669
0.000200341
0.000200905
0.000201347
0.000201652
0.000201805
0.000201787
0.000201579
0.000201145
0.000200476
0.000199563
0.000198393
0.000196955
0.000195237
0.000193229
0.00019092
0.000188299
0.000185359
0.000182089
0.000178481
0.000174527
0.000170216
0.000165536
0.000160473
0.000155006
0.000149105
0.000142726
0.000135796
0.000128194
0.0001197
0.000109878
9.79276e-05
8.23112e-05
6.01948e-05
2.84187e-05
1.04422e-06
4.18428e-07
1.79832e-05
4.14094e-05
5.92866e-05
7.33578e-05
8.48649e-05
9.46319e-05
0.000103102
0.000110518
0.000117038
0.00012277
0.000127791
0.000132166
0.000135949
0.000139189
0.000141932
0.000144221
0.000146097
0.000147596
0.000148757
0.000149611
0.000150191
0.000150525
0.000150637
0.000150546
0.00015026
0.000149772
0.000149151
0.000148425
0.000147617
0.000146747
0.00014583
0.000144881
0.000143911
0.00014293
0.000141946
0.000140967
0.000139998
0.000139045
0.000138112
0.000137204
0.000136322
0.000135469
0.000134648
0.000133859
0.000133105
0.000132386
0.000131703
0.000131056
0.000130446
0.000129873
0.000129337
0.000128836
0.000128373
0.000127944
0.000127552
0.000127194
0.00012687
0.000126579
0.000126319
0.000126087
0.000125878
0.000125695
0.000125541
0.000125416
0.000125323
0.000125261
0.000125231
0.000125231
0.000125262
0.000125324
0.000125416
0.000125538
0.000125689
0.000125869
0.000126078
0.000126315
0.000126579
0.000126871
0.00012719
0.000127535
0.000127907
0.000128304
0.000128726
0.000129172
0.000129643
0.000130138
0.000130655
0.000131195
0.000131757
0.000132341
0.000132945
0.000133569
0.000134213
0.000134875
0.000135555
0.000136252
0.000136965
0.000137694
0.000138437
0.000139194
0.000139963
0.000140745
0.000141537
0.000142339
0.000143151
0.000143971
0.000144798
0.000145632
0.000146472
0.000147317
0.000148166
0.00014902
0.000149876
0.000150736
0.000151597
0.000152461
0.000153326
0.000154193
0.000155061
0.000155931
0.000156802
0.000157674
0.000158548
0.000159424
0.000160302
0.000161183
0.000162068
0.000162956
0.000163848
0.000164746
0.000165649
0.000166559
0.000167476
0.000168402
0.000169337
0.000170282
0.000171238
0.000172205
0.000173186
0.00017418
0.000175188
0.000176211
0.000177249
0.000178302
0.000179371
0.000180455
0.000181555
0.000182668
0.000183794
0.000184931
0.000186078
0.000187231
0.000188387
0.000189543
0.000190693
0.000191833
0.000192956
0.000194055
0.000195124
0.000196152
0.000197132
0.000198051
0.000198901
0.000199668
0.00020034
0.000200904
0.000201346
0.000201651
0.000201804
0.000201787
0.000201578
0.000201144
0.000200476
0.000199562
0.000198392
0.000196955
0.000195237
0.000193229
0.00019092
0.0001883
0.000185359
0.00018209
0.000178482
0.000174528
0.000170216
0.000165537
0.000160474
0.000155007
0.000149106
0.000142727
0.000135797
0.000128195
0.000119701
0.000109878
9.79281e-05
8.23114e-05
6.01949e-05
2.8419e-05
1.04422e-06
6.28899e-07
2.45403e-05
5.79424e-05
8.45243e-05
0.000105813
0.00012349
0.000138548
0.000151581
0.000162951
0.0001729
0.000181598
0.000189174
0.000195732
0.000201361
0.000206142
0.00021015
0.000213455
0.000216123
0.000218217
0.000219796
0.000220917
0.000221632
0.000221988
0.000222028
0.000221786
0.000221291
0.00022056
0.000219653
0.000218611
0.000217464
0.000216241
0.000214965
0.000213655
0.000212327
0.000210996
0.000209672
0.000208365
0.000207083
0.000205832
0.000204617
0.000203442
0.000202311
0.000201225
0.000200187
0.000199197
0.000198256
0.000197365
0.000196522
0.000195728
0.000194982
0.000194283
0.00019363
0.000193022
0.000192457
0.000191935
0.000191454
0.000191012
0.000190609
0.000190242
0.000189909
0.000189608
0.000189334
0.00018909
0.000188877
0.000188696
0.000188549
0.000188436
0.000188357
0.000188313
0.000188304
0.00018833
0.000188391
0.000188487
0.000188618
0.000188785
0.000188986
0.000189223
0.000189494
0.0001898
0.00019014
0.000190515
0.000190923
0.000191366
0.000191841
0.00019235
0.000192892
0.000193466
0.000194071
0.000194707
0.000195374
0.000196071
0.000196796
0.00019755
0.000198331
0.000199139
0.000199971
0.000200829
0.000201709
0.000202612
0.000203535
0.000204478
0.00020544
0.000206419
0.000207414
0.000208424
0.000209448
0.000210484
0.000211532
0.000212589
0.000213656
0.000214732
0.000215814
0.000216903
0.000217998
0.000219098
0.000220203
0.000221312
0.000222424
0.000223541
0.00022466
0.000225783
0.00022691
0.000228041
0.000229175
0.000230315
0.000231459
0.000232609
0.000233765
0.000234928
0.000236099
0.00023728
0.00023847
0.000239672
0.000240886
0.000242113
0.000243355
0.000244612
0.000245887
0.000247179
0.000248491
0.000249824
0.000251177
0.000252552
0.00025395
0.00025537
0.000256812
0.000258277
0.000259763
0.000261269
0.000262793
0.000264333
0.000265886
0.000267447
0.000269013
0.000270578
0.000272136
0.000273678
0.000275198
0.000276685
0.000278129
0.000279519
0.000280843
0.000282085
0.000283233
0.00028427
0.000285181
0.000285947
0.00028655
0.000286973
0.000287194
0.000287193
0.000286938
0.000286404
0.000285572
0.000284426
0.000282949
0.000281125
0.000278937
0.000276369
0.000273403
0.000270024
0.000266213
0.000261953
0.000257222
0.000251998
0.000246254
0.000239957
0.000233065
0.000225525
0.000217264
0.000208176
0.000198106
0.000186807
0.000173876
0.000158625
0.000139891
0.00011572
8.30394e-05
3.87849e-05
1.6487e-06
6.28866e-07
2.45379e-05
5.79356e-05
8.45148e-05
0.000105802
0.000123478
0.000138536
0.000151568
0.000162939
0.000172888
0.000181587
0.000189163
0.000195722
0.000201351
0.000206134
0.000210142
0.000213448
0.000216117
0.000218211
0.000219791
0.000220913
0.000221628
0.000221985
0.000222025
0.000221784
0.000221289
0.000220559
0.000219652
0.00021861
0.000217463
0.000216241
0.000214964
0.000213654
0.000212327
0.000210995
0.000209671
0.000208365
0.000207082
0.000205831
0.000204616
0.000203442
0.00020231
0.000201224
0.000200186
0.000199196
0.000198255
0.000197363
0.00019652
0.000195726
0.000194979
0.00019428
0.000193627
0.000193018
0.000192454
0.000191931
0.00019145
0.000191008
0.000190604
0.000190237
0.000189905
0.000189603
0.00018933
0.000189085
0.000188872
0.000188691
0.000188544
0.00018843
0.000188351
0.000188307
0.000188298
0.000188324
0.000188385
0.000188482
0.000188613
0.000188779
0.000188981
0.000189217
0.000189488
0.000189794
0.000190135
0.000190509
0.000190918
0.000191361
0.000191837
0.000192345
0.000192887
0.000193461
0.000194066
0.000194703
0.00019537
0.000196066
0.000196792
0.000197546
0.000198327
0.000199135
0.000199968
0.000200825
0.000201705
0.000202608
0.000203532
0.000204475
0.000205437
0.000206416
0.000207411
0.000208421
0.000209445
0.000210481
0.000211529
0.000212587
0.000213654
0.000214729
0.000215812
0.000216901
0.000217996
0.000219096
0.000220201
0.00022131
0.000222423
0.000223539
0.000224659
0.000225782
0.000226909
0.000228039
0.000229174
0.000230313
0.000231457
0.000232607
0.000233764
0.000234927
0.000236098
0.000237279
0.000238469
0.000239671
0.000240885
0.000242112
0.000243354
0.000244611
0.000245886
0.000247179
0.000248491
0.000249823
0.000251176
0.000252551
0.000253949
0.000255369
0.000256811
0.000258276
0.000259762
0.000261268
0.000262792
0.000264332
0.000265885
0.000267446
0.000269012
0.000270577
0.000272135
0.000273677
0.000275197
0.000276684
0.000278128
0.000279518
0.000280842
0.000282084
0.000283232
0.00028427
0.00028518
0.000285946
0.00028655
0.000286972
0.000287193
0.000287193
0.000286938
0.000286403
0.000285572
0.000284426
0.00028295
0.000281126
0.000278938
0.00027637
0.000273404
0.000270025
0.000266215
0.000261955
0.000257224
0.000252
0.000246256
0.000239959
0.000233067
0.000225527
0.000217266
0.000208179
0.000198108
0.00018681
0.000173878
0.000158627
0.000139893
0.000115721
8.304e-05
3.87856e-05
1.64869e-06
8.37896e-07
2.94094e-05
6.98215e-05
0.00010327
0.00013066
0.000153651
0.000173338
0.000190412
0.00020532
0.000218368
0.000229774
0.000239707
0.000248302
0.000255677
0.000261936
0.000267178
0.000271493
0.00027497
0.000277691
0.000279737
0.000281183
0.000282099
0.000282551
0.000282597
0.000282289
0.000281674
0.00028079
0.000279683
0.000278413
0.000277019
0.000275534
0.000273985
0.000272398
0.000270793
0.000269187
0.000267594
0.000266026
0.000264492
0.000262999
0.000261553
0.00026016
0.000258821
0.000257541
0.000256321
0.00025516
0.000254061
0.000253021
0.000252041
0.00025112
0.000250255
0.000249446
0.00024869
0.000247985
0.000247329
0.00024672
0.000246156
0.000245634
0.000245153
0.00024471
0.000244302
0.000243928
0.000243584
0.00024327
0.000242988
0.000242738
0.000242522
0.00024234
0.000242193
0.000242082
0.000242008
0.00024197
0.00024197
0.000242007
0.000242083
0.000242198
0.000242352
0.000242545
0.000242778
0.000243051
0.000243365
0.000243718
0.000244112
0.000244546
0.000245021
0.000245536
0.00024609
0.000246684
0.000247317
0.000247988
0.000248698
0.000249445
0.000250228
0.000251046
0.0002519
0.000252786
0.000253705
0.000254656
0.000255636
0.000256644
0.00025768
0.000258742
0.000259827
0.000260936
0.000262065
0.000263215
0.000264383
0.000265567
0.000266767
0.000267982
0.000269209
0.000270448
0.000271698
0.000272957
0.000274225
0.000275502
0.000276785
0.000278076
0.000279373
0.000280676
0.000281986
0.000283302
0.000284624
0.000285952
0.000287288
0.000288631
0.000289982
0.000291342
0.000292712
0.000294092
0.000295485
0.00029689
0.00029831
0.000299746
0.000301198
0.000302669
0.00030416
0.000305672
0.000307206
0.000308765
0.00031035
0.00031196
0.000313599
0.000315266
0.000316961
0.000318686
0.00032044
0.000322222
0.000324032
0.000325867
0.000327726
0.000329605
0.000331501
0.000333408
0.000335322
0.000337235
0.000339139
0.000341027
0.000342888
0.00034471
0.000346482
0.00034819
0.000349818
0.000351351
0.000352772
0.000354062
0.000355202
0.000356172
0.00035695
0.000357515
0.000357843
0.000357912
0.000357685
0.000357139
0.000356252
0.000355001
0.000353365
0.000351323
0.000348853
0.000345933
0.000342539
0.000338647
0.000334229
0.000329254
0.00032369
0.000317496
0.000310626
0.000303023
0.000294617
0.000285317
0.000275005
0.000263515
0.000250612
0.000235941
0.00021895
0.000198766
0.000173988
0.000142416
0.000100851
4.67789e-05
2.29581e-06
8.37856e-07
2.94067e-05
6.98141e-05
0.000103259
0.000130647
0.000153637
0.000173323
0.000190396
0.000205305
0.000218353
0.00022976
0.000239694
0.00024829
0.000255665
0.000261926
0.000267168
0.000271484
0.000274962
0.000277684
0.000279731
0.000281178
0.000282095
0.000282547
0.000282594
0.000282287
0.000281672
0.000280789
0.000279683
0.000278414
0.00027702
0.000275534
0.000273986
0.0002724
0.000270795
0.000269189
0.000267596
0.000266027
0.000264493
0.000263
0.000261554
0.00026016
0.000258822
0.000257541
0.00025632
0.00025516
0.00025406
0.00025302
0.00025204
0.000251118
0.000250254
0.000249444
0.000248687
0.000247982
0.000247326
0.000246717
0.000246152
0.00024563
0.000245149
0.000244706
0.000244298
0.000243923
0.000243579
0.000243265
0.000242983
0.000242733
0.000242517
0.000242335
0.000242188
0.000242077
0.000242002
0.000241965
0.000241964
0.000242002
0.000242078
0.000242192
0.000242346
0.00024254
0.000242773
0.000243046
0.000243359
0.000243713
0.000244107
0.000244541
0.000245016
0.000245531
0.000246085
0.000246679
0.000247312
0.000247984
0.000248694
0.00024944
0.000250224
0.000251042
0.000251896
0.000252783
0.000253702
0.000254652
0.000255632
0.000256641
0.000257677
0.000258739
0.000259824
0.000260933
0.000262063
0.000263212
0.00026438
0.000265565
0.000266765
0.00026798
0.000269207
0.000270446
0.000271696
0.000272955
0.000274224
0.0002755
0.000276784
0.000278075
0.000279372
0.000280675
0.000281985
0.000283301
0.000284623
0.000285951
0.000287287
0.00028863
0.000289981
0.000291341
0.000292711
0.000294092
0.000295484
0.00029689
0.00029831
0.000299745
0.000301198
0.000302669
0.000304159
0.000305671
0.000307206
0.000308765
0.000310349
0.00031196
0.000313599
0.000315266
0.000316961
0.000318686
0.00032044
0.000322222
0.000324032
0.000325867
0.000327726
0.000329605
0.0003315
0.000333408
0.000335321
0.000337234
0.000339139
0.000341027
0.000342888
0.00034471
0.000346482
0.000348189
0.000349818
0.000351351
0.000352771
0.000354061
0.000355202
0.000356171
0.00035695
0.000357515
0.000357843
0.000357912
0.000357686
0.00035714
0.000356253
0.000355002
0.000353366
0.000351325
0.000348855
0.000345935
0.000342542
0.000338649
0.000334231
0.000329257
0.000323693
0.000317499
0.000310629
0.000303027
0.00029462
0.000285321
0.000275008
0.000263519
0.000250616
0.000235944
0.000218954
0.000198769
0.00017399
0.000142417
0.000100852
4.678e-05
2.2958e-06
1.04894e-06
3.31386e-05
7.89071e-05
0.000117876
0.000150322
0.000177802
0.000201451
0.000222023
0.000240025
0.000255809
0.00026963
0.000281687
0.00029214
0.000301126
0.000308771
0.000315188
0.000320487
0.00032477
0.000328137
0.000330685
0.000332505
0.000333682
0.000334298
0.000334425
0.000334131
0.000333475
0.000332511
0.000331289
0.000329874
0.000328313
0.000326643
0.000324898
0.000323107
0.000321294
0.000319477
0.000317675
0.0003159
0.000314162
0.000312471
0.000310834
0.000309255
0.000307738
0.000306287
0.000304904
0.000303588
0.00030234
0.000301161
0.000300048
0.000299001
0.000298017
0.000297095
0.00029623
0.000295422
0.000294668
0.000293963
0.000293306
0.000292694
0.000292123
0.000291592
0.000291097
0.000290637
0.000290208
0.000289809
0.000289442
0.000289108
0.000288806
0.000288538
0.000288305
0.000288107
0.000287946
0.000287823
0.000287738
0.000287693
0.000287688
0.000287725
0.000287803
0.000287925
0.00028809
0.000288299
0.000288553
0.000288852
0.000289196
0.000289587
0.000290023
0.000290505
0.000291034
0.000291608
0.000292228
0.000292893
0.000293603
0.000294357
0.000295154
0.000295993
0.000296873
0.000297794
0.000298753
0.000299749
0.000300782
0.00030185
0.00030295
0.000304082
0.000305243
0.000306433
0.000307648
0.000308889
0.000310152
0.000311437
0.000312742
0.000314064
0.000315404
0.000316759
0.000318129
0.000319511
0.000320906
0.000322312
0.000323729
0.000325155
0.000326591
0.000328037
0.000329491
0.000330955
0.000332427
0.00033391
0.000335402
0.000336906
0.00033842
0.000339947
0.000341487
0.000343042
0.000344612
0.0003462
0.000347806
0.000349432
0.000351079
0.00035275
0.000354445
0.000356168
0.000357918
0.000359698
0.000361509
0.000363352
0.000365229
0.00036714
0.000369087
0.000371068
0.000373085
0.000375136
0.00037722
0.000379335
0.000381478
0.000383646
0.000385835
0.000388038
0.00039025
0.000392464
0.000394669
0.000396857
0.000399016
0.000401133
0.000403195
0.000405187
0.000407091
0.00040889
0.000410566
0.000412097
0.000413462
0.00041464
0.000415607
0.000416338
0.000416809
0.000416993
0.000416855
0.00041637
0.000415512
0.000414257
0.000412577
0.000410448
0.000407842
0.000404731
0.000401084
0.000396866
0.000392041
0.000386565
0.00038039
0.000373459
0.000365703
0.000357041
0.000347375
0.000336577
0.000324486
0.000310882
0.000295459
0.000277773
0.000257162
0.00023261
0.000202555
0.000164637
0.000115612
5.35254e-05
2.94209e-06
1.04889e-06
3.31358e-05
7.88993e-05
0.000117864
0.000150308
0.000177786
0.000201434
0.000222006
0.000240009
0.000255792
0.000269615
0.000281672
0.000292126
0.000301114
0.00030876
0.000315178
0.000320478
0.000324762
0.000328131
0.00033068
0.000332501
0.000333679
0.000334295
0.000334423
0.00033413
0.000333475
0.000332512
0.00033129
0.000329876
0.000328315
0.000326645
0.000324901
0.00032311
0.000321297
0.000319481
0.000317678
0.000315903
0.000314165
0.000312474
0.000310836
0.000309257
0.000307741
0.00030629
0.000304905
0.000303589
0.000302342
0.000301162
0.000300049
0.000299001
0.000298017
0.000297094
0.00029623
0.000295422
0.000294666
0.000293962
0.000293304
0.000292692
0.000292121
0.000291589
0.000291094
0.000290634
0.000290205
0.000289806
0.000289439
0.000289104
0.000288802
0.000288534
0.000288301
0.000288103
0.000287942
0.000287819
0.000287734
0.000287689
0.000287684
0.000287721
0.000287799
0.00028792
0.000288085
0.000288294
0.000288548
0.000288847
0.000289192
0.000289582
0.000290019
0.000290502
0.00029103
0.000291605
0.000292225
0.00029289
0.0002936
0.000294354
0.000295151
0.00029599
0.00029687
0.000297791
0.00029875
0.000299747
0.00030078
0.000301847
0.000302948
0.00030408
0.000305241
0.000306431
0.000307647
0.000308887
0.000310151
0.000311436
0.00031274
0.000314063
0.000315403
0.000316758
0.000318128
0.000319511
0.000320905
0.000322312
0.000323728
0.000325155
0.000326591
0.000328036
0.000329491
0.000330955
0.000332428
0.00033391
0.000335403
0.000336906
0.000338421
0.000339948
0.000341488
0.000343043
0.000344613
0.000346201
0.000347806
0.000349432
0.00035108
0.000352751
0.000354446
0.000356168
0.000357919
0.000359698
0.000361509
0.000363353
0.00036523
0.000367141
0.000369088
0.000371069
0.000373086
0.000375137
0.00037722
0.000379335
0.000381479
0.000383647
0.000385835
0.000388039
0.000390251
0.000392464
0.00039467
0.000396858
0.000399016
0.000401134
0.000403196
0.000405187
0.000407091
0.000408891
0.000410566
0.000412097
0.000413463
0.000414641
0.000415608
0.000416339
0.00041681
0.000416994
0.000416856
0.000416372
0.000415514
0.000414258
0.000412579
0.000410451
0.000407845
0.000404734
0.000401087
0.00039687
0.000392044
0.000386569
0.000380394
0.000373463
0.000365707
0.000357046
0.000347379
0.000336582
0.00032449
0.000310886
0.000295463
0.000277778
0.000257166
0.000232614
0.000202558
0.00016464
0.000115613
5.35267e-05
2.94209e-06
1.26111e-06
3.63391e-05
8.63896e-05
0.000129861
0.000166514
0.000197786
0.000224818
0.000248404
0.000269092
0.000287268
0.000303219
0.000317165
0.000329285
0.000339736
0.000348653
0.000356166
0.000362396
0.000367459
0.000371468
0.000374531
0.000376751
0.000378229
0.000379057
0.000379322
0.000379103
0.00037847
0.00037749
0.000376218
0.000374726
0.000373063
0.000371274
0.000369397
0.000367463
0.000365499
0.000363528
0.000361568
0.000359633
0.000357735
0.000355884
0.000354088
0.000352353
0.000350683
0.00034908
0.000347549
0.000346089
0.000344701
0.000343385
0.00034214
0.000340964
0.000339856
0.000338812
0.00033783
0.000336908
0.000336041
0.000335228
0.000334463
0.000333745
0.000333069
0.000332434
0.000331835
0.000331272
0.00033074
0.000330239
0.00032977
0.000329332
0.000328927