/*--------------------------------*- C++ -*----------------------------------*\
  =========                 |
  \\      /  F ield         | OpenFOAM: The Open Source CFD Toolbox
   \\    /   O peration     | Website:  https://openfoam.org
    \\  /    A nd           | Version:  8
     \\/     M anipulation  |
\*---------------------------------------------------------------------------*/
FoamFile
{
    version     2.0;
    format      ascii;
    class       surfaceScalarField;
    location    "1100";
    object      phi;
}
// * * * * * * * * * * * * * * * * * * * * * * * * * * * * * * * * * * * * * //

dimensions      [1 0 -1 0 0 0 0];

internalField   nonuniform List<scalar> 
114370
(
-6.85305e-10
2.25555e-14
6.85283e-10
-1.61185e-09
1.21662e-14
9.26413e-10
-2.32636e-09
4.19289e-15
7.14414e-10
-2.64691e-09
1.80727e-15
3.20476e-10
-2.56028e-09
6.89066e-16
-8.66902e-11
-2.12585e-09
1.16668e-15
-4.34486e-10
-1.42065e-09
1.65994e-15
-7.05259e-10
-5.17479e-10
2.33836e-15
-9.0322e-10
5.19556e-10
3.6864e-15
-1.03708e-09
1.63568e-09
4.90078e-15
-1.11617e-09
2.78766e-09
5.29375e-15
-1.15202e-09
3.94223e-09
4.98857e-15
-1.1546e-09
5.07258e-09
4.464e-15
-1.13038e-09
6.15725e-09
3.91519e-15
-1.0847e-09
7.17919e-09
3.25887e-15
-1.02196e-09
8.12504e-09
2.36362e-15
-9.45867e-10
8.98463e-09
1.25069e-15
-8.59596e-10
9.75054e-09
5.8857e-17
-7.65925e-10
1.04178e-08
-1.03928e-15
-6.67305e-10
1.09838e-08
-1.92707e-15
-5.65919e-10
1.14475e-08
-2.56158e-15
-4.63717e-10
1.181e-08
-2.96015e-15
-3.62447e-10
1.20737e-08
-3.17614e-15
-2.63683e-10
1.22426e-08
-3.26288e-15
-1.6887e-10
1.2322e-08
-3.24467e-15
-7.93534e-11
1.23185e-08
-3.18998e-15
3.52937e-12
1.22386e-08
-3.108e-15
8.00141e-11
1.20882e-08
-2.96009e-15
1.50468e-10
1.18741e-08
-2.77533e-15
2.141e-10
1.16037e-08
-2.56411e-15
2.70567e-10
1.12841e-08
-2.34595e-15
3.19681e-10
1.09227e-08
-2.1343e-15
3.61398e-10
1.0527e-08
-1.95171e-15
3.95803e-10
1.0104e-08
-1.80729e-15
4.23091e-10
9.66057e-09
-1.70668e-15
4.4355e-10
9.20313e-09
-1.64988e-15
4.57546e-10
8.73773e-09
-1.63385e-15
4.65506e-10
8.26994e-09
-1.65252e-15
4.67901e-10
7.80482e-09
-1.69765e-15
4.65239e-10
7.34689e-09
-1.76838e-15
4.58044e-10
6.90017e-09
-1.86341e-15
4.46851e-10
6.46811e-09
-1.97579e-15
4.32194e-10
6.05365e-09
-2.10857e-15
4.14595e-10
5.65924e-09
-2.26e-15
3.94555e-10
5.28684e-09
-2.42966e-15
3.72555e-10
4.93795e-09
-2.61364e-15
3.4904e-10
4.61369e-09
-2.81106e-15
3.24426e-10
4.31476e-09
-3.01891e-15
2.99088e-10
4.04157e-09
-3.23326e-15
2.73365e-10
3.79419e-09
-3.45239e-15
2.47556e-10
3.57245e-09
-3.66805e-15
2.21921e-10
3.37595e-09
-3.87939e-15
1.96683e-10
3.20412e-09
-4.08074e-15
1.72028e-10
3.0562e-09
-4.26649e-15
1.48107e-10
2.93136e-09
-4.43359e-15
1.25043e-10
2.82863e-09
-4.57988e-15
1.02924e-10
2.74702e-09
-4.7023e-15
8.18125e-11
2.68549e-09
-4.80218e-15
6.17448e-11
2.64296e-09
-4.87863e-15
4.27285e-11
2.61843e-09
-4.94033e-15
2.47453e-11
2.6109e-09
-4.98251e-15
7.73935e-12
2.6193e-09
-4.96664e-15
-8.19239e-12
2.64246e-09
-4.89171e-15
-2.29484e-11
2.67926e-09
-4.81547e-15
-3.65972e-11
2.72867e-09
-4.72274e-15
-4.92074e-11
2.78972e-09
-4.61569e-15
-6.08456e-11
2.8615e-09
-4.49128e-15
-7.15749e-11
2.94315e-09
-4.34909e-15
-8.14553e-11
3.03389e-09
-4.19171e-15
-9.05443e-11
3.13298e-09
-4.02521e-15
-9.88972e-11
3.23974e-09
-3.84482e-15
-1.06567e-10
3.35352e-09
-3.65923e-15
-1.13604e-10
3.47375e-09
-3.46451e-15
-1.20057e-10
3.59989e-09
-3.26199e-15
-1.2597e-10
3.73145e-09
-3.04991e-15
-1.31388e-10
3.86795e-09
-2.83002e-15
-1.36349e-10
4.009e-09
-2.60058e-15
-1.40893e-10
4.15419e-09
-2.3642e-15
-1.45056e-10
4.3032e-09
-2.11828e-15
-1.4887e-10
4.45569e-09
-1.86107e-15
-1.52367e-10
4.61139e-09
-1.59518e-15
-1.55578e-10
4.77003e-09
-1.31888e-15
-1.5853e-10
4.93138e-09
-1.03477e-15
-1.61249e-10
5.09523e-09
-7.40688e-16
-1.63761e-10
5.2614e-09
-4.38794e-16
-1.66088e-10
5.42973e-09
-1.2909e-16
-1.6825e-10
5.60006e-09
1.8235e-16
-1.70269e-10
5.77227e-09
4.97695e-16
-1.72162e-10
5.94626e-09
8.16078e-16
-1.73944e-10
6.12192e-09
1.1336e-15
-1.7563e-10
6.29917e-09
1.45025e-15
-1.77232e-10
6.47794e-09
1.76473e-15
-1.7876e-10
6.65817e-09
2.07662e-15
-1.80222e-10
6.83978e-09
2.38373e-15
-1.81625e-10
7.02273e-09
2.68694e-15
-1.82971e-10
7.20696e-09
2.98322e-15
-1.84263e-10
7.39242e-09
3.27559e-15
-1.85499e-10
7.57904e-09
3.55755e-15
-1.86677e-10
7.76677e-09
3.83474e-15
-1.87794e-10
7.95554e-09
4.10456e-15
-1.88842e-10
8.14527e-09
4.36831e-15
-1.89814e-10
8.33587e-09
4.62469e-15
-1.90703e-10
8.52727e-09
4.87239e-15
-1.91497e-10
8.71934e-09
5.11445e-15
-1.92188e-10
8.91197e-09
5.3487e-15
-1.92765e-10
9.10505e-09
5.57515e-15
-1.93218e-10
9.29844e-09
5.79335e-15
-1.93538e-10
9.492e-09
6.00418e-15
-1.93715e-10
9.68557e-09
6.20721e-15
-1.93743e-10
9.87901e-09
6.40286e-15
-1.93615e-10
1.00721e-08
6.59113e-15
-1.93327e-10
1.02648e-08
6.77247e-15
-1.92875e-10
1.04569e-08
6.9486e-15
-1.9226e-10
1.06481e-08
7.11822e-15
-1.91483e-10
1.08385e-08
7.28307e-15
-1.90548e-10
1.10277e-08
7.44358e-15
-1.8946e-10
1.12157e-08
7.59845e-15
-1.88228e-10
1.14023e-08
7.75029e-15
-1.86862e-10
1.15874e-08
7.89518e-15
-1.85375e-10
1.17709e-08
8.03487e-15
-1.83781e-10
1.19527e-08
8.17108e-15
-1.82095e-10
1.21328e-08
8.29993e-15
-1.80335e-10
1.2311e-08
8.42226e-15
-1.78518e-10
1.24874e-08
8.53679e-15
-1.76663e-10
1.26619e-08
8.64481e-15
-1.7479e-10
1.28345e-08
8.74459e-15
-1.7292e-10
1.30053e-08
8.83222e-15
-1.7107e-10
1.31742e-08
8.91075e-15
-1.69262e-10
1.33414e-08
8.978e-15
-1.67515e-10
1.35069e-08
9.03072e-15
-1.65847e-10
1.36708e-08
9.07216e-15
-1.64277e-10
1.38333e-08
9.09604e-15
-1.62822e-10
1.39945e-08
9.10517e-15
-1.61499e-10
1.41544e-08
9.09674e-15
-1.60323e-10
1.43134e-08
9.07074e-15
-1.5931e-10
1.44715e-08
9.02804e-15
-1.58472e-10
1.4629e-08
8.96605e-15
-1.57823e-10
1.4786e-08
8.88779e-15
-1.57375e-10
1.49428e-08
8.79023e-15
-1.57138e-10
1.50995e-08
8.6751e-15
-1.57121e-10
1.52565e-08
8.54198e-15
-1.57333e-10
1.54139e-08
8.39065e-15
-1.5778e-10
1.5572e-08
8.22131e-15
-1.58468e-10
1.5731e-08
8.03593e-15
-1.59397e-10
1.58912e-08
7.8345e-15
-1.60569e-10
1.60528e-08
7.61811e-15
-1.6198e-10
1.62161e-08
7.39023e-15
-1.6362e-10
1.63812e-08
7.14934e-15
-1.65478e-10
1.65483e-08
6.89761e-15
-1.67534e-10
1.67177e-08
6.63547e-15
-1.69761e-10
1.68895e-08
6.36378e-15
-1.72122e-10
1.70637e-08
6.08321e-15
-1.7457e-10
1.72404e-08
5.7944e-15
-1.77046e-10
1.74195e-08
5.49519e-15
-1.79473e-10
1.76009e-08
5.18687e-15
-1.8176e-10
1.77843e-08
4.86814e-15
-1.83795e-10
1.79694e-08
4.5377e-15
-1.85444e-10
1.81556e-08
4.19729e-15
-1.86548e-10
1.83422e-08
3.84821e-15
-1.86922e-10
1.85282e-08
3.49089e-15
-1.8635e-10
1.87125e-08
3.12923e-15
-1.84585e-10
1.88935e-08
2.76714e-15
-1.81348e-10
1.90695e-08
2.40788e-15
-1.76325e-10
1.92383e-08
2.0575e-15
-1.69168e-10
1.93975e-08
1.72036e-15
-1.59495e-10
1.95441e-08
1.39905e-15
-1.46893e-10
1.96747e-08
1.09812e-15
-1.30925e-10
1.97856e-08
8.1584e-16
-1.11134e-10
1.98724e-08
5.47443e-16
-8.70595e-11
1.99303e-08
2.93576e-16
-5.82453e-11
1.99543e-08
-6.69376e-18
-2.4262e-11
1.99388e-08
-2.28308e-16
1.52935e-11
1.98773e-08
-3.67041e-16
6.12407e-11
1.97626e-08
-5.62571e-16
1.14418e-10
1.95871e-08
-7.75443e-16
1.75228e-10
1.93429e-08
-1.00848e-15
2.43997e-10
1.90217e-08
-1.2723e-15
3.20955e-10
1.86153e-08
-1.5758e-15
4.06208e-10
1.81153e-08
-1.92289e-15
4.99701e-10
1.75139e-08
-2.30531e-15
6.01172e-10
1.68036e-08
-2.69597e-15
7.10102e-10
1.59778e-08
-3.06017e-15
8.25653e-10
1.5031e-08
-3.36843e-15
9.46602e-10
1.39595e-08
-3.6114e-15
1.07126e-09
1.2762e-08
-3.83443e-15
1.19737e-09
1.14398e-08
-4.12835e-15
1.32201e-09
9.99828e-09
-4.617e-15
1.44138e-09
8.44743e-09
-5.4142e-15
1.55068e-09
6.80353e-09
-6.58415e-15
1.64375e-09
5.0907e-09
-8.14701e-15
1.71266e-09
3.34346e-09
-1.00789e-14
1.74708e-09
1.61024e-09
-1.22828e-14
1.73306e-09
-4.22714e-11
-1.46301e-14
1.65234e-09
-1.51357e-09
-1.65617e-14
1.47112e-09
-2.67332e-09
-1.79113e-14
1.15958e-09
-3.3657e-09
-1.93116e-14
6.92218e-10
-3.41615e-09
-2.06709e-14
5.02792e-11
-2.70409e-09
-2.14934e-14
-7.12225e-10
-1.34692e-09
-1.80661e-14
-1.35736e-09
-7.93959e-15
-1.34715e-09
-6.85312e-10
6.85287e-10
-1.61185e-09
9.26414e-10
-2.32635e-09
7.14403e-10
-2.64689e-09
3.20461e-10
-2.56026e-09
-8.67066e-11
-2.12583e-09
-4.34505e-10
-1.42062e-09
-7.05279e-10
-5.17441e-10
-9.03242e-10
5.19599e-10
-1.0371e-09
1.63573e-09
-1.11619e-09
2.78772e-09
-1.15205e-09
3.94229e-09
-1.15462e-09
5.07264e-09
-1.1304e-09
6.15732e-09
-1.08472e-09
7.17927e-09
-1.02198e-09
8.12512e-09
-9.45886e-10
8.98471e-09
-8.59614e-10
9.75063e-09
-7.65942e-10
1.04179e-08
-6.6732e-10
1.09839e-08
-5.65931e-10
1.14476e-08
-4.63727e-10
1.18101e-08
-3.62454e-10
1.20738e-08
-2.63687e-10
1.22427e-08
-1.68872e-10
1.23221e-08
-7.93522e-11
1.23187e-08
3.53334e-12
1.22387e-08
8.0021e-11
1.20883e-08
1.50477e-10
1.18743e-08
2.14112e-10
1.16038e-08
2.70581e-10
1.12842e-08
3.19697e-10
1.09229e-08
3.61416e-10
1.05271e-08
3.95822e-10
1.01041e-08
4.23112e-10
9.66068e-09
4.43572e-10
9.20324e-09
4.5757e-10
8.73784e-09
4.6553e-10
8.27004e-09
4.67926e-10
7.80492e-09
4.65265e-10
7.347e-09
4.58071e-10
6.90027e-09
4.46879e-10
6.46821e-09
4.32222e-10
6.05375e-09
4.14623e-10
5.65934e-09
3.94583e-10
5.28694e-09
3.72583e-10
4.93805e-09
3.49069e-10
4.61379e-09
3.24455e-10
4.31487e-09
2.99117e-10
4.04167e-09
2.73394e-10
3.79429e-09
2.47584e-10
3.57255e-09
2.21949e-10
3.37606e-09
1.96711e-10
3.20422e-09
1.72055e-10
3.05631e-09
1.48135e-10
2.93146e-09
1.2507e-10
2.82874e-09
1.02951e-10
2.74713e-09
8.18398e-11
2.68559e-09
6.17719e-11
2.64307e-09
4.27554e-11
2.61854e-09
2.4772e-11
2.61101e-09
7.76595e-12
2.61941e-09
-8.16604e-12
2.64256e-09
-2.29224e-11
2.67937e-09
-3.65715e-11
2.72878e-09
-4.91821e-11
2.78983e-09
-6.08207e-11
2.86161e-09
-7.15503e-11
2.94326e-09
-8.14312e-11
3.034e-09
-9.05207e-11
3.13308e-09
-9.88742e-11
3.23984e-09
-1.06545e-10
3.35362e-09
-1.13583e-10
3.47385e-09
-1.20036e-10
3.59999e-09
-1.2595e-10
3.73154e-09
-1.31369e-10
3.86805e-09
-1.36332e-10
4.00909e-09
-1.40877e-10
4.15429e-09
-1.4504e-10
4.30329e-09
-1.48855e-10
4.45578e-09
-1.52354e-10
4.61148e-09
-1.55566e-10
4.77012e-09
-1.58519e-10
4.93147e-09
-1.6124e-10
5.09532e-09
-1.63752e-10
5.26149e-09
-1.6608e-10
5.42981e-09
-1.68244e-10
5.60014e-09
-1.70264e-10
5.77235e-09
-1.72158e-10
5.94634e-09
-1.73941e-10
6.122e-09
-1.75629e-10
6.29925e-09
-1.77232e-10
6.47802e-09
-1.78761e-10
6.65825e-09
-1.80225e-10
6.83986e-09
-1.81629e-10
7.02281e-09
-1.82976e-10
7.20704e-09
-1.84269e-10
7.39249e-09
-1.85507e-10
7.57912e-09
-1.86687e-10
7.76685e-09
-1.87805e-10
7.95561e-09
-1.88855e-10
8.14534e-09
-1.89828e-10
8.33595e-09
-1.90718e-10
8.52734e-09
-1.91514e-10
8.71941e-09
-1.92206e-10
8.91204e-09
-1.92785e-10
9.10512e-09
-1.93239e-10
9.29851e-09
-1.9356e-10
9.49207e-09
-1.93739e-10
9.68564e-09
-1.93768e-10
9.87908e-09
-1.93641e-10
1.00722e-08
-1.93354e-10
1.02649e-08
-1.92904e-10
1.04569e-08
-1.9229e-10
1.06482e-08
-1.91514e-10
1.08385e-08
-1.9058e-10
1.10278e-08
-1.89493e-10
1.12158e-08
-1.88263e-10
1.14024e-08
-1.86898e-10
1.15875e-08
-1.85412e-10
1.1771e-08
-1.83819e-10
1.19528e-08
-1.82134e-10
1.21329e-08
-1.80374e-10
1.23111e-08
-1.78558e-10
1.24875e-08
-1.76704e-10
1.2662e-08
-1.74832e-10
1.28346e-08
-1.72962e-10
1.30053e-08
-1.71114e-10
1.31743e-08
-1.69306e-10
1.33414e-08
-1.6756e-10
1.3507e-08
-1.65892e-10
1.36709e-08
-1.64323e-10
1.38334e-08
-1.62869e-10
1.39945e-08
-1.61546e-10
1.41545e-08
-1.60371e-10
1.43135e-08
-1.59358e-10
1.44716e-08
-1.58521e-10
1.4629e-08
-1.57872e-10
1.4786e-08
-1.57425e-10
1.49428e-08
-1.57188e-10
1.50996e-08
-1.57171e-10
1.52565e-08
-1.57384e-10
1.54139e-08
-1.57831e-10
1.5572e-08
-1.58519e-10
1.57311e-08
-1.59449e-10
1.58913e-08
-1.60621e-10
1.60529e-08
-1.62032e-10
1.62161e-08
-1.63673e-10
1.63812e-08
-1.65531e-10
1.65484e-08
-1.67587e-10
1.67178e-08
-1.69813e-10
1.68895e-08
-1.72175e-10
1.70637e-08
-1.74623e-10
1.72404e-08
-1.77098e-10
1.74195e-08
-1.79525e-10
1.76009e-08
-1.81812e-10
1.77844e-08
-1.83847e-10
1.79695e-08
-1.85496e-10
1.81557e-08
-1.866e-10
1.83423e-08
-1.86974e-10
1.85283e-08
-1.86402e-10
1.87125e-08
-1.84637e-10
1.88935e-08
-1.814e-10
1.90696e-08
-1.76376e-10
1.92384e-08
-1.69219e-10
1.93976e-08
-1.59545e-10
1.95442e-08
-1.46943e-10
1.96748e-08
-1.30975e-10
1.97857e-08
-1.11184e-10
1.98724e-08
-8.71085e-11
1.99304e-08
-5.82938e-11
1.99544e-08
-2.43095e-11
1.99388e-08
1.52467e-11
1.98773e-08
6.1194e-11
1.97627e-08
1.14372e-10
1.95872e-08
1.75183e-10
1.9343e-08
2.43953e-10
1.90218e-08
3.20912e-10
1.86153e-08
4.06167e-10
1.81154e-08
4.99662e-10
1.7514e-08
6.01135e-10
1.68037e-08
7.10067e-10
1.59779e-08
8.25621e-10
1.50311e-08
9.46573e-10
1.39596e-08
1.07123e-09
1.27621e-08
1.19735e-09
1.14399e-08
1.32198e-09
9.99835e-09
1.44136e-09
8.4475e-09
1.55066e-09
6.80358e-09
1.64373e-09
5.09074e-09
1.71264e-09
3.34349e-09
1.74706e-09
1.61025e-09
1.73304e-09
-4.22791e-11
1.65232e-09
-1.51359e-09
1.4711e-09
-2.67336e-09
1.15955e-09
-3.36575e-09
6.92169e-10
-3.4162e-09
5.02143e-11
-2.70414e-09
-7.12306e-10
-1.34696e-09
-1.35745e-09
-1.34721e-09
-8.78911e-10
1.4797e-14
1.56406e-09
-1.57352e-09
1.65719e-15
1.62085e-09
-1.76484e-09
-3.19913e-15
9.05631e-10
-1.52463e-09
-4.02842e-15
8.01873e-11
-9.43462e-10
-4.75955e-15
-6.67926e-10
-1.01094e-10
-5.03207e-15
-1.27691e-09
9.35585e-10
-5.32888e-15
-1.74199e-09
2.10818e-09
-5.67015e-15
-2.07586e-09
3.36986e-09
-5.75514e-15
-2.2988e-09
4.68211e-09
-5.61367e-15
-2.42846e-09
6.01223e-09
-5.39556e-15
-2.48217e-09
7.33232e-09
-5.18066e-15
-2.47472e-09
8.61936e-09
-4.96619e-15
-2.41744e-09
9.8544e-09
-4.77397e-15
-2.31975e-09
1.10219e-08
-4.63166e-15
-2.18949e-09
1.21094e-08
-4.54968e-15
-2.03336e-09
1.3107e-08
-4.50051e-15
-1.8572e-09
1.40072e-08
-4.44035e-15
-1.66616e-09
1.48048e-08
-4.33028e-15
-1.46483e-09
1.54962e-08
-4.15307e-15
-1.25734e-09
1.60799e-08
-3.91284e-15
-1.04743e-09
1.6556e-08
-3.62685e-15
-8.38461e-10
1.69258e-08
-3.31557e-15
-6.33462e-10
1.71922e-08
-2.99484e-15
-4.35159e-10
1.73588e-08
-2.67898e-15
-2.45964e-10
1.74304e-08
-2.36443e-15
-6.79726e-11
1.74128e-08
-2.05181e-15
9.77157e-11
1.73128e-08
-1.74622e-15
2.50475e-10
1.71376e-08
-1.45188e-15
3.89411e-10
1.68944e-08
-1.17294e-15
5.13857e-10
1.65908e-08
-9.13936e-16
6.23394e-10
1.62344e-08
-6.77046e-16
7.17848e-10
1.58331e-08
-4.66281e-16
7.97279e-10
1.53943e-08
-2.83487e-16
8.61959e-10
1.49256e-08
-1.27145e-16
9.12346e-10
1.44342e-08
3.50045e-18
9.49063e-10
1.3927e-08
1.11485e-16
9.7287e-10
1.34104e-08
2.00602e-16
9.84635e-10
1.28904e-08
2.71935e-16
9.85312e-10
1.23727e-08
3.27868e-16
9.75916e-10
1.18622e-08
3.68833e-16
9.57501e-10
1.13634e-08
3.97324e-16
9.31134e-10
1.08803e-08
4.13883e-16
8.97879e-10
1.04162e-08
4.18617e-16
8.58782e-10
9.97408e-09
4.13803e-16
8.14851e-10
9.55625e-09
4.00525e-16
7.67044e-10
9.16459e-09
3.80843e-16
7.16262e-10
8.80052e-09
3.55517e-16
6.63338e-10
8.46504e-09
3.26715e-16
6.09034e-10
8.15876e-09
2.95846e-16
5.54033e-10
7.88193e-09
2.65731e-16
4.98943e-10
7.63452e-09
2.36152e-16
4.44293e-10
7.41622e-09
2.09713e-16
3.90537e-10
7.22648e-09
1.86847e-16
3.38054e-10
7.06458e-09
1.69834e-16
2.87156e-10
6.92963e-09
1.58673e-16
2.38089e-10
6.82062e-09
1.53366e-16
1.91037e-10
6.73645e-09
1.54889e-16
1.46129e-10
6.67596e-09
1.63352e-16
1.03441e-10
6.63791e-09
1.77346e-16
6.30079e-11
6.62105e-09
2.01862e-16
2.48255e-11
6.62411e-09
2.30739e-16
-1.10381e-11
6.64589e-09
2.61006e-16
-4.45075e-11
6.68514e-09
2.99191e-16
-7.56328e-11
6.74065e-09
3.39875e-16
-1.0451e-10
6.81126e-09
3.81974e-16
-1.31241e-10
6.89583e-09
4.26464e-16
-1.55939e-10
6.99329e-09
4.71828e-16
-1.78715e-10
7.10263e-09
5.1709e-16
-1.99685e-10
7.22289e-09
5.61057e-16
-2.18962e-10
7.35317e-09
6.04488e-16
-2.36656e-10
7.49262e-09
6.45542e-16
-2.52875e-10
7.64047e-09
6.85409e-16
-2.67723e-10
7.79597e-09
7.22789e-16
-2.81299e-10
7.95844e-09
7.57357e-16
-2.937e-10
8.12726e-09
7.89979e-16
-3.05014e-10
8.30184e-09
8.21198e-16
-3.15329e-10
8.48165e-09
8.49495e-16
-3.24726e-10
8.6662e-09
8.75737e-16
-3.33281e-10
8.85502e-09
8.99923e-16
-3.41069e-10
9.04771e-09
9.22704e-16
-3.48157e-10
9.2439e-09
9.4332e-16
-3.54612e-10
9.44323e-09
9.62638e-16
-3.60495e-10
9.64542e-09
9.79682e-16
-3.65863e-10
9.85018e-09
9.94669e-16
-3.70771e-10
1.00573e-08
1.00847e-15
-3.75269e-10
1.02664e-08
1.01847e-15
-3.79404e-10
1.04775e-08
1.02685e-15
-3.83218e-10
1.06904e-08
1.03176e-15
-3.86749e-10
1.09048e-08
1.03375e-15
-3.90031e-10
1.11207e-08
1.03249e-15
-3.93095e-10
1.13379e-08
1.02743e-15
-3.95965e-10
1.15563e-08
1.01902e-15
-3.98662e-10
1.17758e-08
1.00746e-15
-4.01202e-10
1.19964e-08
9.92539e-16
-4.03594e-10
1.2218e-08
9.74152e-16
-4.05846e-10
1.24404e-08
9.52297e-16
-4.07958e-10
1.26635e-08
9.27189e-16
-4.09929e-10
1.28874e-08
8.98721e-16
-4.11751e-10
1.31119e-08
8.67759e-16
-4.13414e-10
1.33369e-08
8.3452e-16
-4.14904e-10
1.35623e-08
7.98353e-16
-4.16205e-10
1.37879e-08
7.59584e-16
-4.17301e-10
1.40138e-08
7.19405e-16
-4.1817e-10
1.42397e-08
6.77598e-16
-4.18795e-10
1.44654e-08
6.34273e-16
-4.19156e-10
1.4691e-08
5.88996e-16
-4.19235e-10
1.49161e-08
5.44042e-16
-4.19014e-10
1.51406e-08
4.98112e-16
-4.1848e-10
1.53644e-08
4.51747e-16
-4.17622e-10
1.55873e-08
4.0549e-16
-4.1643e-10
1.58091e-08
3.59557e-16
-4.14901e-10
1.60297e-08
3.14164e-16
-4.13034e-10
1.62488e-08
2.69963e-16
-4.10834e-10
1.64663e-08
2.2652e-16
-4.0831e-10
1.6682e-08
1.84918e-16
-4.05474e-10
1.68959e-08
1.44833e-16
-4.02345e-10
1.71077e-08
1.06373e-16
-3.98944e-10
1.73173e-08
6.97548e-17
-3.95297e-10
1.75247e-08
3.51953e-17
-3.91435e-10
1.77297e-08
2.15244e-18
-3.8739e-10
1.79322e-08
-2.83979e-17
-3.83197e-10
1.81323e-08
-5.73231e-17
-3.78893e-10
1.83298e-08
-8.50569e-17
-3.74519e-10
1.85248e-08
-1.11382e-16
-3.70114e-10
1.87173e-08
-1.36191e-16
-3.65719e-10
1.89072e-08
-1.59807e-16
-3.61375e-10
1.90947e-08
-1.82666e-16
-3.57123e-10
1.92799e-08
-2.04984e-16
-3.53003e-10
1.94627e-08
-2.26869e-16
-3.49054e-10
1.96434e-08
-2.48754e-16
-3.45313e-10
1.9822e-08
-2.70207e-16
-3.41815e-10
1.99987e-08
-2.92202e-16
-3.38596e-10
2.01737e-08
-3.14523e-16
-3.35688e-10
2.03471e-08
-3.36736e-16
-3.3312e-10
2.05192e-08
-3.59383e-16
-3.30922e-10
2.06901e-08
-3.82572e-16
-3.29119e-10
2.08601e-08
-4.05654e-16
-3.27735e-10
2.10293e-08
-4.28736e-16
-3.26793e-10
2.11981e-08
-4.52468e-16
-3.26311e-10
2.13667e-08
-4.75442e-16
-3.26305e-10
2.15353e-08
-4.98632e-16
-3.26789e-10
2.17042e-08
-5.2063e-16
-3.27771e-10
2.18737e-08
-5.4241e-16
-3.29255e-10
2.20439e-08
-5.63215e-16
-3.31239e-10
2.22153e-08
-5.82501e-16
-3.33712e-10
2.23879e-08
-6.0016e-16
-3.36657e-10
2.25621e-08
-6.15758e-16
-3.40042e-10
2.2738e-08
-6.2962e-16
-3.43823e-10
2.29158e-08
-6.40988e-16
-3.47941e-10
2.30956e-08
-6.51053e-16
-3.52316e-10
2.32774e-08
-6.59056e-16
-3.56843e-10
2.34614e-08
-6.65757e-16
-3.61394e-10
2.36474e-08
-6.70939e-16
-3.65806e-10
2.38351e-08
-6.74709e-16
-3.69881e-10
2.40243e-08
-6.78477e-16
-3.73383e-10
2.42145e-08
-6.81268e-16
-3.76027e-10
2.44051e-08
-6.83623e-16
-3.77478e-10
2.45952e-08
-6.84241e-16
-3.77348e-10
2.47836e-08
-6.83231e-16
-3.75188e-10
2.49692e-08
-6.79292e-16
-3.70485e-10
2.51501e-08
-6.7058e-16
-3.6266e-10
2.53245e-08
-6.56771e-16
-3.51067e-10
2.549e-08
-6.35804e-16
-3.34991e-10
2.56439e-08
-6.06595e-16
-3.1365e-10
2.57829e-08
-5.68061e-16
-2.86199e-10
2.59033e-08
-5.19659e-16
-2.51737e-10
2.60012e-08
-4.61606e-16
-2.09316e-10
2.60718e-08
-3.94661e-16
-1.57957e-10
2.61099e-08
-3.16872e-16
-9.66563e-11
2.61098e-08
-2.21408e-16
-2.44226e-11
2.6065e-08
-1.23216e-16
5.97977e-11
2.59687e-08
-2.12413e-17
1.57256e-10
2.58137e-08
1.00355e-16
2.69135e-10
2.55924e-08
2.33119e-16
3.96335e-10
2.52966e-08
3.74666e-16
5.39567e-10
2.49179e-08
5.23043e-16
6.99325e-10
2.44481e-08
6.78901e-16
8.75832e-10
2.38786e-08
8.4571e-16
1.06898e-09
2.32013e-08
1.03149e-15
1.27823e-09
2.24086e-08
1.24958e-15
1.50254e-09
2.14938e-08
1.51277e-15
1.74024e-09
2.04513e-08
1.82942e-15
1.98891e-09
1.92772e-08
2.19203e-15
2.24522e-09
1.79696e-08
2.57458e-15
2.50475e-09
1.65297e-08
2.93458e-15
2.76177e-09
1.49619e-08
3.23169e-15
3.00897e-09
1.32753e-08
3.44444e-15
3.23711e-09
1.14844e-08
3.57371e-15
3.43446e-09
9.61071e-09
3.60952e-15
3.58618e-09
7.68426e-09
3.55155e-15
3.67334e-09
5.74595e-09
3.43973e-15
3.67119e-09
3.84993e-09
3.16738e-15
3.54816e-09
2.06182e-09
2.53311e-15
3.25904e-09
4.65331e-10
1.53204e-15
2.75588e-09
-8.30569e-10
3.73123e-16
1.98792e-09
-1.69502e-09
-6.94333e-16
9.14519e-10
-1.95431e-09
-1.41045e-15
-4.53163e-10
-1.36149e-09
1.00663e-15
-1.95048e-09
9.78571e-15
-2.70885e-09
-8.789e-10
1.56407e-09
-1.5735e-09
1.62086e-09
-1.76481e-09
9.05624e-10
-1.52459e-09
8.01673e-11
-9.43414e-10
-6.6795e-10
-1.01033e-10
-1.27694e-09
9.35659e-10
-1.74201e-09
2.10827e-09
-2.07589e-09
3.36996e-09
-2.29882e-09
4.68222e-09
-2.42847e-09
6.01234e-09
-2.48219e-09
7.33244e-09
-2.47474e-09
8.61949e-09
-2.41746e-09
9.85453e-09
-2.31977e-09
1.1022e-08
-2.18951e-09
1.21095e-08
-2.03338e-09
1.31071e-08
-1.85722e-09
1.40074e-08
-1.66617e-09
1.48049e-08
-1.46484e-09
1.54964e-08
-1.25735e-09
1.60801e-08
-1.04744e-09
1.65561e-08
-8.38472e-10
1.6926e-08
-6.33472e-10
1.71923e-08
-4.35167e-10
1.7359e-08
-2.4597e-10
1.74305e-08
-6.79773e-11
1.74129e-08
9.77129e-11
1.7313e-08
2.50474e-10
1.71378e-08
3.89412e-10
1.68945e-08
5.13859e-10
1.65909e-08
6.23397e-10
1.62346e-08
7.17853e-10
1.58332e-08
7.97285e-10
1.53944e-08
8.61965e-10
1.49258e-08
9.12353e-10
1.44344e-08
9.49071e-10
1.39271e-08
9.72878e-10
1.34105e-08
9.84642e-10
1.28906e-08
9.8532e-10
1.23728e-08
9.75925e-10
1.18623e-08
9.57509e-10
1.13635e-08
9.31141e-10
1.08804e-08
8.97887e-10
1.04163e-08
8.5879e-10
9.97422e-09
8.14858e-10
9.55639e-09
7.6705e-10
9.16473e-09
7.16268e-10
8.80067e-09
6.63344e-10
8.46519e-09
6.09039e-10
8.1589e-09
5.54038e-10
7.88208e-09
4.98947e-10
7.63467e-09
4.44297e-10
7.41637e-09
3.9054e-10
7.22663e-09
3.38057e-10
7.06473e-09
2.87159e-10
6.92978e-09
2.38092e-10
6.82077e-09
1.91039e-10
6.7366e-09
1.46131e-10
6.67611e-09
1.03443e-10
6.63806e-09
6.301e-11
6.6212e-09
2.48274e-11
6.62426e-09
-1.10362e-11
6.64604e-09
-4.45055e-11
6.68529e-09
-7.56308e-11
6.7408e-09
-1.04508e-10
6.81141e-09
-1.31239e-10
6.89598e-09
-1.55937e-10
6.99344e-09
-1.78713e-10
7.10278e-09
-1.99683e-10
7.22303e-09
-2.1896e-10
7.35331e-09
-2.36653e-10
7.49276e-09
-2.52872e-10
7.6406e-09
-2.6772e-10
7.7961e-09
-2.81297e-10
7.95858e-09
-2.93698e-10
8.12739e-09
-3.05013e-10
8.30198e-09
-3.15328e-10
8.48178e-09
-3.24724e-10
8.66632e-09
-3.3328e-10
8.85515e-09
-3.41068e-10
9.04784e-09
-3.48156e-10
9.24402e-09
-3.54611e-10
9.44336e-09
-3.60494e-10
9.64554e-09
-3.65862e-10
9.8503e-09
-3.7077e-10
1.00574e-08
-3.75268e-10
1.02666e-08
-3.79403e-10
1.04777e-08
-3.83217e-10
1.06905e-08
-3.86748e-10
1.09049e-08
-3.90031e-10
1.11208e-08
-3.93094e-10
1.1338e-08
-3.95965e-10
1.15564e-08
-3.98662e-10
1.1776e-08
-4.01201e-10
1.19965e-08
-4.03594e-10
1.22181e-08
-4.05846e-10
1.24405e-08
-4.07958e-10
1.26636e-08
-4.09929e-10
1.28875e-08
-4.11751e-10
1.3112e-08
-4.13414e-10
1.3337e-08
-4.14905e-10
1.35624e-08
-4.16207e-10
1.3788e-08
-4.17302e-10
1.40139e-08
-4.18172e-10
1.42398e-08
-4.18797e-10
1.44655e-08
-4.19158e-10
1.46911e-08
-4.19237e-10
1.49162e-08
-4.19017e-10
1.51407e-08
-4.18483e-10
1.53645e-08
-4.17624e-10
1.55874e-08
-4.16433e-10
1.58092e-08
-4.14904e-10
1.60297e-08
-4.13038e-10
1.62489e-08
-4.10838e-10
1.64664e-08
-4.08314e-10
1.66821e-08
-4.05478e-10
1.6896e-08
-4.02349e-10
1.71078e-08
-3.98948e-10
1.73174e-08
-3.95302e-10
1.75248e-08
-3.9144e-10
1.77298e-08
-3.87394e-10
1.79323e-08
-3.83201e-10
1.81324e-08
-3.78898e-10
1.83299e-08
-3.74524e-10
1.85249e-08
-3.70118e-10
1.87173e-08
-3.65724e-10
1.89073e-08
-3.6138e-10
1.90948e-08
-3.57128e-10
1.92799e-08
-3.53008e-10
1.94628e-08
-3.49059e-10
1.96435e-08
-3.45317e-10
1.98221e-08
-3.4182e-10
1.99988e-08
-3.38601e-10
2.01738e-08
-3.35693e-10
2.03472e-08
-3.33126e-10
2.05193e-08
-3.30927e-10
2.06902e-08
-3.29124e-10
2.08601e-08
-3.27741e-10
2.10294e-08
-3.26799e-10
2.11982e-08
-3.26317e-10
2.13668e-08
-3.26311e-10
2.15354e-08
-3.26795e-10
2.17043e-08
-3.27778e-10
2.18737e-08
-3.29262e-10
2.2044e-08
-3.31246e-10
2.22153e-08
-3.33719e-10
2.2388e-08
-3.36664e-10
2.25621e-08
-3.40049e-10
2.2738e-08
-3.43831e-10
2.29158e-08
-3.47949e-10
2.30956e-08
-3.52324e-10
2.32775e-08
-3.56852e-10
2.34615e-08
-3.61402e-10
2.36474e-08
-3.65815e-10
2.38352e-08
-3.69891e-10
2.40244e-08
-3.73393e-10
2.42146e-08
-3.76037e-10
2.44052e-08
-3.77489e-10
2.45952e-08
-3.77359e-10
2.47837e-08
-3.75199e-10
2.49693e-08
-3.70497e-10
2.51502e-08
-3.62672e-10
2.53246e-08
-3.5108e-10
2.54901e-08
-3.35004e-10
2.56439e-08
-3.13663e-10
2.57829e-08
-2.86212e-10
2.59034e-08
-2.51751e-10
2.60013e-08
-2.0933e-10
2.60719e-08
-1.57971e-10
2.611e-08
-9.6671e-11
2.61099e-08
-2.44374e-11
2.60651e-08
5.97829e-11
2.59688e-08
1.57241e-10
2.58138e-08
2.6912e-10
2.55925e-08
3.9632e-10
2.52966e-08
5.39554e-10
2.4918e-08
6.99312e-10
2.44482e-08
8.7582e-10
2.38787e-08
1.06897e-09
2.32014e-08
1.27822e-09
2.24087e-08
1.50253e-09
2.14939e-08
1.74024e-09
2.04514e-08
1.98891e-09
1.92773e-08
2.24522e-09
1.79697e-08
2.50475e-09
1.65297e-08
2.76177e-09
1.4962e-08
3.00898e-09
1.32754e-08
3.23711e-09
1.14845e-08
3.43446e-09
9.61075e-09
3.58619e-09
7.6843e-09
3.67334e-09
5.74597e-09
3.67119e-09
3.84995e-09
3.54816e-09
2.06183e-09
3.25904e-09
4.65331e-10
2.75587e-09
-8.30582e-10
1.9879e-09
-1.69504e-09
9.14482e-10
-1.95436e-09
-4.53217e-10
-1.36155e-09
-1.95054e-09
-2.7089e-09
-6.29636e-10
7.8887e-15
2.1936e-09
-7.90343e-10
-1.18629e-15
1.78145e-09
-5.05584e-10
-2.85256e-15
6.20824e-10
7.29229e-11
-2.99757e-15
-4.98351e-10
8.61243e-10
-3.22562e-15
-1.45627e-09
1.81003e-09
-3.23297e-15
-2.22572e-09
2.88178e-09
-3.47829e-15
-2.81376e-09
4.04446e-09
-3.78228e-15
-3.23856e-09
5.26846e-09
-3.80203e-15
-3.52281e-09
6.52756e-09
-3.61835e-15
-3.68757e-09
7.79783e-09
-3.44305e-15
-3.75245e-09
9.0576e-09
-3.34576e-15
-3.7345e-09
1.0288e-08
-3.27938e-15
-3.64789e-09
1.14729e-08
-3.20037e-15
-3.50467e-09
1.25986e-08
-3.10825e-15
-3.31515e-09
1.36536e-08
-3.02042e-15
-3.08832e-09
1.46285e-08
-2.94536e-15
-2.83211e-09
1.55159e-08
-2.87433e-15
-2.55365e-09
1.63105e-08
-2.79212e-15
-2.25935e-09
1.70082e-08
-2.68707e-15
-1.95505e-09
1.76068e-08
-2.55696e-15
-1.64606e-09
1.81056e-08
-2.40715e-15
-1.3372e-09
1.8505e-08
-2.24579e-15
-1.03284e-09
1.88067e-08
-2.07927e-15
-7.369e-10
1.90136e-08
-1.91214e-15
-4.52824e-10
1.91292e-08
-1.74831e-15
-1.83544e-10
1.91582e-08
-1.58674e-15
6.87039e-11
1.91065e-08
-1.42436e-15
3.02266e-10
1.89801e-08
-1.26467e-15
5.15822e-10
1.87856e-08
-1.11121e-15
7.08316e-10
1.853e-08
-9.66034e-16
8.7903e-10
1.82203e-08
-8.30721e-16
1.02759e-09
1.78637e-08
-7.07385e-16
1.15394e-09
1.74673e-08
-5.96188e-16
1.25835e-09
1.70383e-08
-4.97619e-16
1.34138e-09
1.65836e-08
-4.10595e-16
1.4038e-09
1.61099e-08
-3.35009e-16
1.44664e-09
1.56235e-08
-2.68638e-16
1.47109e-09
1.51303e-08
-2.11213e-16
1.47847e-09
1.46361e-08
-1.6203e-16
1.47023e-09
1.41457e-08
-1.21143e-16
1.44788e-09
1.36639e-08
-8.74699e-17
1.41297e-09
1.31948e-08
-6.14978e-17
1.36709e-09
1.27418e-08
-4.22519e-17
1.31177e-09
1.23082e-08
-2.92988e-17
1.24854e-09
1.18965e-08
-2.22592e-17
1.17884e-09
1.15087e-08
-2.06454e-17
1.10405e-09
1.11466e-08
-2.28311e-17
1.02546e-09
1.08115e-08
-2.85996e-17
9.44255e-10
1.05041e-08
-3.71375e-17
8.61505e-10
1.02249e-08
-4.68183e-17
7.78173e-10
9.97412e-09
-5.73707e-17
6.95108e-10
9.75167e-09
-6.74391e-17
6.13042e-10
9.55718e-09
-7.66436e-17
5.32601e-10
9.39009e-09
-8.43331e-17
4.54303e-10
9.24967e-09
-8.97483e-17
3.78566e-10
9.13505e-09
-9.28344e-17
3.05717e-10
9.04524e-09
-9.26149e-17
2.35997e-10
8.97917e-09
-8.91436e-17
1.69571e-10
8.9357e-09
-8.3179e-17
1.06542e-10
8.91362e-09
-7.38537e-17
4.69662e-11
8.91174e-09
-5.97027e-17
-9.0997e-12
8.9289e-09
-4.22437e-17
-6.16111e-11
8.96394e-09
-2.25057e-17
-1.10607e-10
9.01567e-09
-1.24777e-18
-1.56189e-10
9.08298e-09
2.15304e-17
-1.98485e-10
9.16474e-09
4.56119e-17
-2.37643e-10
9.2599e-09
7.08345e-17
-2.73817e-10
9.36744e-09
9.67103e-17
-3.07172e-10
9.4864e-09
1.22698e-16
-3.37871e-10
9.61587e-09
1.49013e-16
-3.66076e-10
9.755e-09
1.7479e-16
-3.9195e-10
9.90298e-09
2.00732e-16
-4.15647e-10
1.0059e-08
2.26081e-16
-4.3732e-10
1.02225e-08
2.50729e-16
-4.57113e-10
1.03927e-08
2.7462e-16
-4.75165e-10
1.0569e-08
2.97973e-16
-4.9161e-10
1.07509e-08
3.20027e-16
-5.06575e-10
1.09378e-08
3.41379e-16
-5.2018e-10
1.11294e-08
3.61541e-16
-5.32539e-10
1.1325e-08
3.80945e-16
-5.43762e-10
1.15244e-08
3.9943e-16
-5.53952e-10
1.17271e-08
4.16725e-16
-5.63205e-10
1.19329e-08
4.33424e-16
-5.71614e-10
1.21414e-08
4.48553e-16
-5.79265e-10
1.23524e-08
4.63033e-16
-5.86238e-10
1.25656e-08
4.75671e-16
-5.92606e-10
1.27808e-08
4.87442e-16
-5.98439e-10
1.29979e-08
4.9683e-16
-6.03796e-10
1.32166e-08
5.05244e-16
-6.08734e-10
1.34368e-08
5.11761e-16
-6.133e-10
1.36584e-08
5.16653e-16
-6.17534e-10
1.38812e-08
5.19703e-16
-6.21471e-10
1.41051e-08
5.21074e-16
-6.25136e-10
1.433e-08
5.20711e-16
-6.28548e-10
1.45559e-08
5.18343e-16
-6.31719e-10
1.47826e-08
5.14621e-16
-6.34654e-10
1.501e-08
5.09056e-16
-6.3735e-10
1.5238e-08
5.01648e-16
-6.39799e-10
1.54665e-08
4.92615e-16
-6.41987e-10
1.56955e-08
4.82335e-16
-6.43897e-10
1.59248e-08
4.70537e-16
-6.45507e-10
1.61542e-08
4.57275e-16
-6.46791e-10
1.63837e-08
4.42658e-16
-6.47724e-10
1.66132e-08
4.27445e-16
-6.48277e-10
1.68424e-08
4.11147e-16
-6.48423e-10
1.70713e-08
3.93981e-16
-6.48138e-10
1.72996e-08
3.76599e-16
-6.47397e-10
1.75272e-08
3.5889e-16
-6.46181e-10
1.7754e-08
3.40585e-16
-6.44474e-10
1.79798e-08
3.22551e-16
-6.42264e-10
1.82044e-08
3.04462e-16
-6.39548e-10
1.84276e-08
2.8659e-16
-6.36326e-10
1.86493e-08
2.68934e-16
-6.32605e-10
1.88693e-08
2.51873e-16
-6.28399e-10
1.90875e-08
2.35571e-16
-6.2373e-10
1.93037e-08
2.19757e-16
-6.18624e-10
1.95178e-08
2.04809e-16
-6.13115e-10
1.97296e-08
1.90837e-16
-6.07243e-10
1.99392e-08
1.77894e-16
-6.01052e-10
2.01463e-08
1.66089e-16
-5.94591e-10
2.03509e-08
1.55151e-16
-5.87914e-10
2.0553e-08
1.45133e-16
-5.81077e-10
2.07525e-08
1.36092e-16
-5.74138e-10
2.09495e-08
1.27917e-16
-5.67159e-10
2.11439e-08
1.20447e-16
-5.602e-10
2.13357e-08
1.13789e-16
-5.53323e-10
2.15251e-08
1.07456e-16
-5.4659e-10
2.1712e-08
1.01882e-16
-5.40058e-10
2.18966e-08
9.66328e-17
-5.33788e-10