/*--------------------------------*- C++ -*----------------------------------*\
  =========                 |
  \\      /  F ield         | OpenFOAM: The Open Source CFD Toolbox
   \\    /   O peration     | Website:  https://openfoam.org
    \\  /    A nd           | Version:  8
     \\/     M anipulation  |
\*---------------------------------------------------------------------------*/
FoamFile
{
    version     2.0;
    format      ascii;
    class       volScalarField;
    location    "1100";
    object      T;
}
// * * * * * * * * * * * * * * * * * * * * * * * * * * * * * * * * * * * * * //

dimensions      [0 0 0 1 0 0 0];

internalField   nonuniform List<scalar> 
46000
(
311.314
310.809
310.15
309.57
309.083
308.676
308.348
308.085
307.873
307.704
307.571
307.465
307.383
307.321
307.275
307.245
307.228
307.223
307.229
307.244
307.267
307.298
307.335
307.378
307.427
307.479
307.532
307.587
307.644
307.703
307.764
307.825
307.887
307.949
308.011
308.071
308.131
308.188
308.244
308.298
308.349
308.397
308.443
308.485
308.525
308.562
308.596
308.627
308.656
308.682
308.705
308.726
308.745
308.762
308.777
308.79
308.802
308.812
308.821
308.828
308.834
308.839
308.842
308.845
308.846
308.847
308.848
308.848
308.847
308.846
308.844
308.842
308.839
308.836
308.833
308.83
308.826
308.821
308.817
308.812
308.806
308.801
308.795
308.789
308.782
308.775
308.768
308.761
308.753
308.745
308.736
308.728
308.719
308.71
308.7
308.691
308.681
308.671
308.66
308.65
308.639
308.628
308.617
308.606
308.595
308.584
308.572
308.561
308.549
308.538
308.526
308.515
308.503
308.491
308.48
308.469
308.457
308.446
308.435
308.424
308.412
308.401
308.39
308.379
308.368
308.357
308.347
308.336
308.325
308.314
308.303
308.292
308.28
308.269
308.258
308.246
308.234
308.223
308.21
308.198
308.186
308.173
308.16
308.146
308.133
308.119
308.105
308.09
308.076
308.061
308.046
308.031
308.015
308
307.985
307.97
307.955
307.94
307.926
307.913
307.901
307.889
307.879
307.871
307.864
307.859
307.857
307.858
307.861
307.869
307.879
307.894
307.912
307.935
307.963
307.997
308.037
308.084
308.138
308.2
308.271
308.351
308.44
308.539
308.648
308.769
308.9
309.042
309.195
309.357
309.526
309.702
309.88
310.061
310.236
310.413
310.605
310.816
311.101
311.402
311.314
310.809
310.15
309.57
309.083
308.676
308.348
308.085
307.873
307.704
307.571
307.465
307.383
307.321
307.275
307.245
307.228
307.223
307.229
307.244
307.267
307.298
307.335
307.378
307.427
307.479
307.532
307.587
307.644
307.703
307.764
307.825
307.887
307.949
308.011
308.071
308.131
308.188
308.244
308.298
308.349
308.397
308.443
308.485
308.525
308.562
308.596
308.627
308.656
308.682
308.705
308.726
308.745
308.762
308.777
308.79
308.802
308.812
308.821
308.828
308.834
308.839
308.842
308.845
308.846
308.847
308.848
308.848
308.847
308.846
308.844
308.842
308.839
308.837
308.833
308.83
308.826
308.821
308.817
308.812
308.806
308.801
308.795
308.789
308.782
308.775
308.768
308.761
308.753
308.745
308.736
308.728
308.719
308.71
308.7
308.691
308.681
308.671
308.66
308.65
308.639
308.628
308.617
308.606
308.595
308.584
308.572
308.561
308.549
308.538
308.526
308.515
308.503
308.492
308.48
308.469
308.457
308.446
308.435
308.424
308.412
308.401
308.39
308.379
308.368
308.357
308.347
308.336
308.325
308.314
308.303
308.292
308.28
308.269
308.258
308.246
308.234
308.223
308.21
308.198
308.186
308.173
308.16
308.146
308.133
308.119
308.105
308.09
308.076
308.061
308.046
308.031
308.015
308
307.985
307.97
307.955
307.94
307.926
307.913
307.901
307.889
307.879
307.871
307.864
307.859
307.857
307.858
307.861
307.869
307.879
307.894
307.912
307.935
307.963
307.997
308.037
308.084
308.138
308.2
308.271
308.351
308.44
308.539
308.648
308.769
308.9
309.042
309.195
309.357
309.526
309.702
309.88
310.061
310.236
310.413
310.605
310.816
311.101
311.402
308.233
307.434
306.586
305.91
305.38
304.979
304.672
304.438
304.26
304.124
304.023
303.95
303.899
303.867
303.851
303.849
303.859
303.88
303.91
303.949
303.995
304.047
304.106
304.169
304.236
304.308
304.382
304.458
304.535
304.614
304.693
304.771
304.85
304.927
305.003
305.077
305.149
305.219
305.285
305.349
305.408
305.465
305.517
305.566
305.611
305.652
305.689
305.723
305.754
305.781
305.805
305.827
305.846
305.862
305.876
305.889
305.899
305.908
305.916
305.923
305.928
305.933
305.936
305.939
305.941
305.943
305.945
305.946
305.947
305.947
305.948
305.949
305.949
305.949
305.95
305.95
305.95
305.95
305.95
305.95
305.95
305.95
305.95
305.949
305.949
305.948
305.948
305.947
305.946
305.945
305.944
305.943
305.941
305.94
305.938
305.936
305.934
305.932
305.93
305.928
305.925
305.922
305.919
305.917
305.914
305.911
305.907
305.904
305.901
305.898
305.894
305.891
305.888
305.885
305.881
305.878
305.875
305.872
305.868
305.865
305.862
305.859
305.856
305.853
305.849
305.846
305.843
305.84
305.836
305.833
305.829
305.826
305.822
305.818
305.814
305.81
305.805
305.801
305.796
305.791
305.785
305.78
305.774
305.768
305.762
305.755
305.748
305.741
305.734
305.726
305.718
305.711
305.703
305.695
305.687
305.679
305.672
305.665
305.659
305.653
305.648
305.644
305.641
305.64
305.641
305.643
305.648
305.655
305.665
305.678
305.694
305.714
305.739
305.768
305.802
305.841
305.887
305.939
305.999
306.066
306.141
306.226
306.32
306.424
306.538
306.663
306.799
306.946
307.102
307.267
307.439
307.613
307.786
307.955
308.112
308.259
308.399
308.55
308.719
308.903
308.233
307.434
306.586
305.91
305.38
304.979
304.672
304.438
304.26
304.124
304.023
303.95
303.899
303.867
303.851
303.849
303.859
303.88
303.91
303.949
303.995
304.047
304.105
304.169
304.236
304.308
304.382
304.458
304.535
304.614
304.693
304.771
304.85
304.927
305.003
305.077
305.149
305.219
305.285
305.349
305.408
305.465
305.517
305.566
305.611
305.652
305.689
305.723
305.754
305.781
305.805
305.827
305.846
305.862
305.876
305.889
305.899
305.908
305.916
305.923
305.928
305.933
305.936
305.939
305.941
305.943
305.945
305.946
305.947
305.948
305.948
305.949
305.949
305.949
305.95
305.95
305.95
305.95
305.95
305.95
305.95
305.95
305.95
305.949
305.949
305.948
305.948
305.947
305.946
305.945
305.944
305.943
305.942
305.94
305.938
305.936
305.934
305.932
305.93
305.928
305.925
305.922
305.919
305.917
305.914
305.911
305.907
305.904
305.901
305.898
305.894
305.891
305.888
305.885
305.881
305.878
305.875
305.872
305.868
305.865
305.862
305.859
305.856
305.853
305.849
305.846
305.843
305.84
305.836
305.833
305.829
305.826
305.822
305.818
305.814
305.81
305.805
305.801
305.796
305.791
305.785
305.78
305.774
305.768
305.762
305.755
305.748
305.741
305.734
305.726
305.718
305.71
305.703
305.695
305.687
305.679
305.672
305.665
305.659
305.653
305.648
305.644
305.641
305.64
305.641
305.643
305.648
305.655
305.665
305.678
305.694
305.714
305.739
305.768
305.802
305.841
305.887
305.939
305.999
306.066
306.141
306.226
306.32
306.424
306.538
306.663
306.799
306.946
307.102
307.267
307.439
307.613
307.786
307.954
308.112
308.259
308.398
308.55
308.719
308.903
305.967
305.279
304.624
304.105
303.701
303.389
303.148
302.963
302.823
302.717
302.64
302.586
302.552
302.534
302.53
302.538
302.557
302.585
302.622
302.666
302.716
302.773
302.835
302.902
302.972
303.046
303.123
303.202
303.282
303.364
303.446
303.527
303.609
303.689
303.768
303.845
303.919
303.992
304.061
304.127
304.189
304.248
304.303
304.354
304.401
304.444
304.484
304.52
304.552
304.581
304.607
304.63
304.65
304.668
304.683
304.696
304.708
304.718
304.727
304.734
304.74
304.745
304.75
304.754
304.757
304.76
304.762
304.765
304.767
304.769
304.77
304.772
304.774
304.776
304.778
304.78
304.781
304.783
304.785
304.787
304.789
304.791
304.793
304.795
304.797
304.799
304.801
304.803
304.805
304.807
304.809
304.81
304.812
304.813
304.814
304.815
304.816
304.817
304.818
304.819
304.819
304.82
304.82
304.82
304.82
304.821
304.821
304.82
304.82
304.82
304.82
304.82
304.82
304.819
304.819
304.819
304.818
304.818
304.818
304.818
304.817
304.817
304.817
304.816
304.816
304.816
304.815
304.815
304.814
304.813
304.812
304.811
304.81
304.809
304.808
304.806
304.804
304.802
304.8
304.798
304.795
304.792
304.789
304.785
304.781
304.777
304.773
304.769
304.764
304.759
304.754
304.749
304.744
304.739
304.734
304.729
304.725
304.721
304.717
304.715
304.713
304.712
304.712
304.714
304.717
304.722
304.73
304.74
304.752
304.768
304.787
304.81
304.837
304.868
304.905
304.946
304.994
305.048
305.109
305.178
305.254
305.339
305.433
305.536
305.65
305.773
305.906
306.048
306.199
306.356
306.518
306.682
306.843
306.997
307.138
307.263
307.37
307.458
307.518
307.522
305.967
305.279
304.624
304.105
303.7
303.389
303.148
302.963
302.823
302.717
302.64
302.586
302.552
302.534
302.53
302.538
302.557
302.585
302.622
302.666
302.716
302.773
302.835
302.902
302.972
303.046
303.123
303.202
303.282
303.364
303.446
303.527
303.609
303.689
303.768
303.845
303.919
303.992
304.061
304.127
304.189
304.248
304.303
304.354
304.401
304.444
304.484
304.52
304.552
304.581
304.607
304.63
304.65
304.668
304.683
304.696
304.708
304.718
304.727
304.734
304.74
304.745
304.75
304.754
304.757
304.76
304.762
304.765
304.767
304.769
304.77
304.772
304.774
304.776
304.778
304.78
304.781
304.783
304.785
304.787
304.789
304.791
304.793
304.795
304.797
304.799
304.801
304.803
304.805
304.807
304.809
304.81
304.812
304.813
304.814
304.815
304.816
304.817
304.818
304.819
304.819
304.82
304.82
304.82
304.82
304.821
304.821
304.82
304.82
304.82
304.82
304.82
304.82
304.819
304.819
304.819
304.818
304.818
304.818
304.818
304.817
304.817
304.817
304.816
304.816
304.816
304.815
304.815
304.814
304.813
304.812
304.811
304.81
304.809
304.808
304.806
304.804
304.802
304.8
304.798
304.795
304.792
304.789
304.785
304.781
304.777
304.773
304.769
304.764
304.759
304.754
304.749
304.744
304.739
304.734
304.729
304.725
304.721
304.717
304.715
304.713
304.712
304.712
304.714
304.717
304.722
304.73
304.74
304.752
304.768
304.787
304.81
304.837
304.868
304.905
304.946
304.994
305.048
305.109
305.178
305.254
305.339
305.433
305.536
305.65
305.773
305.905
306.048
306.199
306.356
306.518
306.682
306.843
306.997
307.138
307.263
307.37
307.458
307.518
307.522
304.297
303.771
303.305
302.934
302.64
302.407
302.223
302.08
301.971
301.89
301.831
301.792
301.769
301.759
301.762
301.776
301.799
301.831
301.87
301.915
301.967
302.025
302.087
302.153
302.224
302.297
302.374
302.453
302.533
302.614
302.695
302.777
302.858
302.939
303.018
303.096
303.171
303.244
303.314
303.381
303.444
303.504
303.56
303.613
303.661
303.706
303.747
303.785
303.819
303.849
303.876
303.901
303.922
303.942
303.958
303.973
303.986
303.997
304.007
304.015
304.023
304.029
304.034
304.039
304.043
304.047
304.05
304.053
304.056
304.059
304.062
304.064
304.067
304.07
304.072
304.075
304.078
304.081
304.083
304.086
304.089
304.092
304.095
304.099
304.102
304.105
304.108
304.111
304.114
304.117
304.12
304.123
304.126
304.128
304.131
304.133
304.136
304.138
304.14
304.142
304.144
304.146
304.148
304.15
304.151
304.153
304.154
304.156
304.157
304.158
304.16
304.161
304.162
304.163
304.164
304.166
304.167
304.168
304.169
304.17
304.171
304.172
304.173
304.174
304.175
304.176
304.177
304.178
304.179
304.179
304.18
304.18
304.18
304.18
304.18
304.18
304.179
304.179
304.178
304.176
304.175
304.173
304.172
304.169
304.167
304.164
304.162
304.159
304.155
304.152
304.149
304.145
304.141
304.138
304.135
304.132
304.129
304.126
304.125
304.123
304.123
304.124
304.126
304.13
304.135
304.142
304.152
304.164
304.178
304.196
304.217
304.242
304.271
304.304
304.342
304.386
304.435
304.491
304.553
304.622
304.699
304.785
304.879
304.981
305.093
305.214
305.343
305.481
305.626
305.776
305.93
306.084
306.234
306.376
306.506
306.617
306.706
306.767
306.791
306.749
304.297
303.771
303.305
302.934
302.64
302.407
302.223
302.08
301.971
301.889
301.831
301.792
301.768
301.759
301.762
301.776
301.799
301.831
301.87
301.915
301.967
302.025
302.087
302.153
302.224
302.297
302.374
302.453
302.533
302.614
302.695
302.777
302.858
302.939
303.018
303.096
303.171
303.244
303.314
303.381
303.444
303.504
303.56
303.613
303.661
303.706
303.747
303.785
303.819
303.849
303.876
303.901
303.922
303.942
303.958
303.973
303.986
303.997
304.007
304.015
304.023
304.029
304.034
304.039
304.043
304.047
304.05
304.053
304.056
304.059
304.062
304.064
304.067
304.07
304.072
304.075
304.078
304.081
304.083
304.086
304.089
304.092
304.095
304.099
304.102
304.105
304.108
304.111
304.114
304.117
304.12
304.123
304.126
304.128
304.131
304.133
304.136
304.138
304.14
304.142
304.144
304.146
304.148
304.15
304.151
304.153
304.154
304.156
304.157
304.158
304.16
304.161
304.162
304.163
304.164
304.166
304.167
304.168
304.169
304.17
304.171
304.172
304.173
304.174
304.175
304.176
304.177
304.178
304.179
304.179
304.18
304.18
304.18
304.18
304.18
304.18
304.179
304.179
304.178
304.176
304.175
304.173
304.172
304.169
304.167
304.164
304.162
304.159
304.155
304.152
304.149
304.145
304.141
304.138
304.135
304.131
304.129
304.126
304.125
304.123
304.123
304.124
304.126
304.13
304.135
304.142
304.152
304.164
304.178
304.196
304.217
304.242
304.271
304.304
304.342
304.386
304.435
304.491
304.553
304.622
304.699
304.785
304.879
304.981
305.093
305.214
305.343
305.481
305.626
305.776
305.93
306.084
306.234
306.376
306.506
306.617
306.706
306.767
306.791
306.749
303.004
302.619
302.298
302.046
301.84
301.673
301.539
301.433
301.352
301.292
301.249
301.223
301.21
301.208
301.217
301.235
301.261
301.295
301.335
301.382
301.434
301.491
301.552
301.618
301.687
301.76
301.835
301.912
301.991
302.071
302.151
302.232
302.312
302.392
302.47
302.547
302.622
302.694
302.764
302.831
302.895
302.955
303.011
303.064
303.114
303.159
303.201
303.24
303.275
303.307
303.335
303.361
303.384
303.404
303.422
303.438
303.452
303.464
303.475
303.484
303.492
303.499
303.506
303.511
303.516
303.521
303.525
303.529
303.532
303.536
303.539
303.542
303.545
303.548
303.552
303.555
303.558
303.562
303.565
303.568
303.572
303.576
303.579
303.583
303.587
303.591
303.594
303.598
303.602
303.605
303.609
303.613
303.616
303.62
303.623
303.626
303.63
303.633
303.636
303.639
303.642
303.644
303.647
303.65
303.652
303.655
303.657
303.659
303.661
303.664
303.666
303.668
303.67
303.672
303.674
303.676
303.678
303.68
303.682
303.684
303.686
303.688
303.69
303.692
303.694
303.695
303.697
303.699
303.7
303.701
303.703
303.704
303.705
303.706
303.707
303.707
303.707
303.708
303.708
303.707
303.707
303.706
303.705
303.704
303.702
303.701
303.699
303.697
303.694
303.692
303.69
303.687
303.685
303.682
303.68
303.678
303.677
303.675
303.675
303.675
303.677
303.679
303.683
303.688
303.695
303.703
303.715
303.728
303.745
303.764
303.787
303.813
303.844
303.879
303.919
303.964
304.015
304.072
304.136
304.206
304.284
304.369
304.463
304.565
304.675
304.794
304.92
305.053
305.193
305.337
305.483
305.628
305.769
305.902
306.022
306.125
306.206
306.259
306.277
306.246
303.004
302.618
302.298
302.046
301.84
301.673
301.538
301.433
301.352
301.292
301.249
301.223
301.21
301.208
301.217
301.235
301.261
301.295
301.335
301.382
301.434
301.491
301.552
301.618
301.687
301.76
301.835
301.912
301.991
302.071
302.151
302.232
302.312
302.392
302.47
302.547
302.622
302.694
302.764
302.831
302.895
302.955
303.011
303.064
303.114
303.159
303.201
303.24
303.275
303.307
303.335
303.361
303.384
303.404
303.422
303.438
303.452
303.464
303.475
303.484
303.492
303.499
303.506
303.511
303.516
303.521
303.525
303.529
303.532
303.536
303.539
303.542
303.545
303.548
303.552
303.555
303.558
303.562
303.565
303.568
303.572
303.576
303.579
303.583
303.587
303.591
303.594
303.598
303.602
303.605
303.609
303.613
303.616
303.62
303.623
303.626
303.63
303.633
303.636
303.639
303.642
303.644
303.647
303.65
303.652
303.655
303.657
303.659
303.661
303.664
303.666
303.668
303.67
303.672
303.674
303.676
303.678
303.68
303.682
303.684
303.686
303.688
303.69
303.692
303.694
303.695
303.697
303.699
303.7
303.701
303.703
303.704
303.705
303.706
303.707
303.707
303.707
303.708
303.708
303.707
303.707
303.706
303.705
303.704
303.702
303.701
303.699
303.697
303.694
303.692
303.69
303.687
303.685
303.682
303.68
303.678
303.677
303.675
303.675
303.675
303.677
303.679
303.683
303.688
303.695
303.703
303.715
303.728
303.745
303.764
303.787
303.813
303.844
303.879
303.919
303.964
304.015
304.072
304.135
304.206
304.284
304.369
304.463
304.565
304.675
304.794
304.92
305.053
305.193
305.337
305.483
305.628
305.769
305.902
306.022
306.125
306.206
306.259
306.277
306.246
301.972
301.705
301.497
301.333
301.197
301.083
300.99
300.916
300.86
300.819
300.792
300.777
300.772
300.778
300.792
300.813
300.842
300.878
300.919
300.966
301.018
301.075
301.135
301.2
301.268
301.338
301.412
301.487
301.564
301.642
301.721
301.8
301.878
301.957
302.034
302.109
302.183
302.254
302.323
302.389
302.452
302.512
302.569
302.622
302.671
302.717
302.76
302.799
302.834
302.867
302.896
302.922
302.946
302.967
302.986
303.003
303.018
303.031
303.042
303.052
303.061
303.069
303.076
303.083
303.088
303.093
303.098
303.102
303.106
303.11
303.114
303.118
303.121
303.125
303.129
303.132
303.136
303.14
303.143
303.147
303.151
303.155
303.159
303.164
303.168
303.172
303.176
303.18
303.184
303.189
303.193
303.197
303.201
303.205
303.209
303.213
303.216
303.22
303.224
303.227
303.231
303.234
303.237
303.241
303.244
303.247
303.25
303.253
303.255
303.258
303.261
303.264
303.266
303.269
303.272
303.274
303.277
303.28
303.282
303.285
303.287
303.29
303.293
303.295
303.297
303.3
303.302
303.304
303.306
303.308
303.31
303.312
303.314
303.315
303.316
303.318
303.318
303.319
303.32
303.32
303.32
303.32
303.32
303.319
303.318
303.317
303.316
303.315
303.313
303.312
303.31
303.309
303.307
303.306
303.304
303.303
303.303
303.303
303.303
303.305
303.307
303.311
303.316
303.323
303.331
303.341
303.354
303.369
303.387
303.408
303.433
303.461
303.494
303.53
303.572
303.619
303.671
303.73
303.795
303.866
303.945
304.031
304.124
304.225
304.334
304.451
304.574
304.703
304.838
304.976
305.115
305.253
305.387
305.513
305.626
305.724
305.801
305.854
305.878
305.869
301.972
301.705
301.496
301.333
301.196
301.083
300.99
300.916
300.86
300.819
300.792
300.777
300.772
300.778
300.792
300.813
300.842
300.878
300.919
300.966
301.018
301.075
301.135
301.2
301.268
301.338
301.412
301.487
301.564
301.642
301.721
301.8
301.878
301.957
302.034
302.109
302.183
302.254
302.323
302.389
302.452
302.512
302.569
302.622
302.671
302.717
302.76
302.799
302.834
302.867
302.896
302.922
302.946
302.967
302.986
303.003
303.018
303.031
303.042
303.052
303.061
303.069
303.076
303.083
303.088
303.093
303.098
303.102
303.106
303.11
303.114
303.118
303.121
303.125
303.129
303.132
303.136
303.14
303.143
303.147
303.151
303.155
303.159
303.164
303.168
303.172
303.176
303.18
303.184
303.189
303.193
303.197
303.201
303.205
303.209
303.213
303.216
303.22
303.224
303.227
303.231
303.234
303.237
303.241
303.244
303.247
303.25
303.253
303.255
303.258
303.261
303.264
303.266
303.269
303.272
303.274
303.277
303.28
303.282
303.285
303.287
303.29
303.293
303.295
303.297
303.3
303.302
303.304
303.306
303.308
303.31
303.312
303.314
303.315
303.316
303.318
303.318
303.319
303.32
303.32
303.32
303.32
303.32
303.319
303.318
303.317
303.316
303.315
303.313
303.312
303.31
303.309
303.307
303.305
303.304
303.303
303.303
303.303
303.303
303.305
303.307
303.311
303.316
303.323
303.331
303.341
303.354
303.369
303.387
303.408
303.433
303.461
303.494
303.53
303.572
303.619
303.671
303.73
303.795
303.866
303.945
304.031
304.124
304.225
304.334
304.451
304.574
304.703
304.838
304.976
305.115
305.253
305.387
305.513
305.626
305.724
305.801
305.854
305.878
305.869
301.141
300.968
300.848
300.751
300.667
300.596
300.537
300.49
300.454
300.43
300.416
300.411
300.414
300.425
300.444
300.469
300.501
300.538
300.58
300.627
300.678
300.734
300.794
300.857
300.923
300.992
301.064
301.137
301.212
301.288
301.364
301.441
301.518
301.594
301.669
301.743
301.815
301.885
301.953
302.018
302.08
302.139
302.195
302.247
302.296
302.342
302.385
302.424
302.459
302.492
302.522
302.549
302.573
302.594
302.614
302.631
302.647
302.66
302.673
302.683
302.693
302.702
302.709
302.716
302.722
302.728
302.733
302.738
302.742
302.746
302.751
302.755
302.758
302.762
302.766
302.77
302.774
302.778
302.782
302.787
302.791
302.795
302.799
302.804
302.808
302.813
302.817
302.822
302.826
302.831
302.835
302.84
302.844
302.849
302.853
302.857
302.861
302.865
302.869
302.873
302.877
302.881
302.885
302.888
302.892
302.896
302.899
302.902
302.906
302.909
302.912
302.915
302.919
302.922
302.925
302.928
302.931
302.934
302.937
302.941
302.944
302.947
302.95
302.952
302.955
302.958
302.961
302.963
302.966
302.969
302.971
302.973
302.975
302.977
302.979
302.98
302.982
302.983
302.984
302.985
302.986
302.986
302.986
302.986
302.986
302.985
302.985
302.984
302.983
302.982
302.981
302.98
302.98
302.979
302.978
302.978
302.979
302.98
302.982
302.984
302.988
302.993
302.999
303.007
303.017
303.028
303.043
303.059
303.079
303.102
303.128
303.158
303.192
303.231
303.274
303.323
303.377
303.437
303.503
303.576
303.655
303.741
303.835
303.935
304.043
304.157
304.278
304.404
304.534
304.667
304.8
304.933
305.06
305.18
305.289
305.383
305.46
305.517
305.55
305.558
301.141
300.968
300.848
300.751
300.667
300.596
300.537
300.49
300.454
300.43
300.416
300.411
300.414
300.425
300.444
300.469
300.501
300.538
300.58
300.627
300.679
300.734
300.794
300.857
300.923
300.992
301.064
301.137
301.212
301.288
301.364
301.441
301.518
301.594
301.669
301.743
301.815
301.885
301.953
302.018
302.08
302.139
302.195
302.247
302.296
302.342
302.385
302.424
302.459
302.492
302.522
302.549
302.573
302.594
302.614
302.631
302.647
302.66
302.673
302.683
302.693
302.702
302.709
302.716
302.722
302.728
302.733
302.738
302.742
302.746
302.751
302.755
302.758
302.762
302.766
302.77
302.774
302.778
302.782
302.787
302.791
302.795
302.799
302.804
302.808
302.813
302.817
302.822
302.826
302.831
302.835
302.84
302.844
302.849
302.853
302.857
302.861
302.865
302.869
302.873
302.877
302.881
302.885
302.888
302.892
302.896
302.899
302.902
302.906
302.909
302.912
302.915
302.919
302.922
302.925
302.928
302.931
302.934
302.937
302.941
302.944
302.947
302.95
302.952
302.955
302.958
302.961
302.963
302.966
302.969
302.971
302.973
302.975
302.977
302.979
302.98
302.982
302.983
302.984
302.985
302.986
302.986
302.986
302.986
302.986
302.985
302.985
302.984
302.983
302.982
302.981
302.98
302.98
302.979
302.978
302.978
302.979
302.98
302.982
302.984
302.988
302.993
302.999
303.007
303.017
303.028
303.043
303.059
303.079
303.102
303.128
303.158
303.192
303.231
303.274
303.323
303.377
303.437
303.503
303.576
303.655
303.741
303.835
303.935
304.043
304.157
304.278
304.404
304.534
304.667
304.8
304.933
305.06
305.18
305.289
305.383
305.46
305.517
305.55
305.558
300.48
300.384
300.325
300.275
300.23
300.191
300.158
300.132
300.114
300.103
300.1
300.103
300.114
300.13
300.153
300.181
300.214
300.252
300.295
300.342
300.393
300.448
300.507
300.568
300.633
300.7
300.769
300.84
300.913
300.986
301.061
301.135
301.21
301.284
301.357
301.429
301.499
301.567
301.633
301.696
301.757
301.815
301.87
301.921
301.97
302.015
302.057
302.095
302.131
302.164
302.193
302.22
302.245
302.267
302.287
302.304
302.32
302.334
302.347
302.358
302.368
302.377
302.385
302.392
302.399
302.405
302.41
302.415
302.42
302.425
302.429
302.433
302.438
302.442
302.446
302.45
302.454
302.459
302.463
302.467
302.472
302.476
302.481
302.485
302.49
302.495
302.499
302.504
302.509
302.514
302.518
302.523
302.528
302.533
302.537
302.542
302.546
302.551
302.555
302.559
302.564
302.568
302.572
302.576
302.58
302.584
302.587
302.591
302.595
302.599
302.602
302.606
302.609
302.613
302.617
302.62
302.624
302.627
302.631
302.634
302.637
302.641
302.644
302.647
302.651
302.654
302.657
302.66
302.663
302.666
302.669
302.671
302.674
302.676
302.678
302.68
302.682
302.683
302.685
302.686
302.687
302.688
302.688
302.689
302.689
302.689
302.689
302.689
302.688
302.688
302.688
302.687
302.687
302.687
302.688
302.688
302.69
302.692
302.694
302.698
302.703
302.709
302.716
302.726
302.737
302.75
302.766
302.784
302.805
302.83
302.858
302.89
302.926
302.966
303.011
303.062
303.117
303.179
303.246
303.32
303.4
303.486
303.58
303.68
303.786
303.899
304.017
304.14
304.266
304.395
304.524
304.651
304.774
304.889
304.995
305.088
305.166
305.227
305.269
305.288
300.48
300.384
300.325
300.275
300.23
300.191
300.158
300.132
300.114
300.103
300.1
300.103
300.114
300.13
300.153
300.181
300.214
300.252
300.295
300.342
300.393
300.448
300.507
300.568
300.633
300.7
300.769
300.84
300.913
300.986
301.061
301.135
301.21
301.284
301.357
301.429
301.499
301.567
301.633
301.696
301.757
301.815
301.87
301.921
301.97
302.015
302.057
302.095
302.131
302.164
302.193
302.22
302.245
302.267
302.287
302.304
302.32
302.334
302.347
302.358
302.368
302.377
302.385
302.392
302.399
302.405
302.41
302.415
302.42
302.425
302.429
302.433
302.438
302.442
302.446
302.45
302.454
302.459
302.463
302.467
302.472
302.476
302.481
302.485
302.49
302.495
302.499
302.504
302.509
302.514
302.518
302.523
302.528
302.533
302.537
302.542
302.546
302.551
302.555
302.559
302.564
302.568
302.572
302.576
302.58
302.584
302.587
302.591
302.595
302.599
302.602
302.606
302.609
302.613
302.617
302.62
302.624
302.627
302.631
302.634
302.637
302.641
302.644
302.647
302.651
302.654
302.657
302.66
302.663
302.666
302.669
302.671
302.674
302.676
302.678
302.68
302.682
302.683
302.685
302.686
302.687
302.688
302.688
302.689
302.689
302.689
302.689
302.689
302.688
302.688
302.688
302.687
302.687
302.687
302.688
302.688
302.69
302.692
302.694
302.698
302.703
302.709
302.716
302.726
302.737
302.75
302.766
302.784
302.805
302.83
302.858
302.89
302.926
302.966
303.011
303.062
303.117
303.179
303.246
303.32
303.4
303.486
303.58
303.68
303.786
303.899
304.017
304.14
304.266
304.395
304.524
304.651
304.774
304.889
304.995
305.088
305.166
305.227
305.27
305.289
299.959
299.924
299.906
299.888
299.87
299.854
299.841
299.831
299.826
299.826
299.832
299.843
299.858
299.879
299.905
299.935
299.97
300.009
300.052
300.099
300.15
300.203
300.261
300.321
300.383
300.448
300.515
300.584
300.654
300.726
300.797
300.87
300.942
301.013
301.084
301.153
301.221
301.287
301.351
301.413
301.472
301.528
301.582
301.632
301.679
301.724
301.765
301.803
301.838
301.87
301.9
301.927
301.951
301.973
301.993
302.011
302.027
302.041
302.054
302.065
302.076
302.085
302.093
302.101
302.107
302.114
302.119
302.125
302.13
302.135
302.139
302.144
302.148
302.152
302.157
302.161
302.165
302.17
302.174
302.179
302.183
302.188
302.193
302.197
302.202
302.207
302.212
302.217
302.222
302.227
302.232
302.237
302.241
302.246
302.251
302.256
302.261
302.265
302.27
302.275
302.279
302.284
302.288
302.292
302.296
302.301
302.305
302.309
302.313
302.317
302.321
302.325
302.329
302.333
302.337
302.34
302.344
302.348
302.352
302.356
302.359
302.363
302.367
302.37
302.374
302.377
302.381
302.384
302.387
302.391
302.394
302.397
302.399
302.402
302.404
302.407
302.409
302.411
302.412
302.414
302.415
302.416
302.417
302.418
302.419
302.419
302.42
302.42
302.42
302.42
302.42
302.421
302.421
302.422
302.423
302.424
302.427
302.429
302.433
302.438
302.444
302.451
302.46
302.47
302.483
302.498
302.515
302.535
302.558
302.584
302.614
302.647
302.685
302.727
302.774
302.826
302.884
302.946
303.015
303.09
303.171
303.258
303.351
303.451
303.557
303.668
303.784
303.904
304.027
304.152
304.277
304.4
304.519
304.631
304.735
304.827
304.907
304.972
305.023
305.057
299.958
299.924
299.906
299.888
299.87
299.854
299.841
299.831
299.826
299.826
299.832
299.843
299.858
299.879
299.905
299.935
299.97
300.009
300.052
300.099
300.15
300.203
300.261
300.321
300.383
300.448
300.515
300.584
300.654
300.726
300.797
300.87
300.942
301.013
301.084
301.153
301.221
301.287
301.351
301.413
301.472
301.528
301.582
301.632
301.679
301.724
301.765
301.803
301.838
301.87
301.9
301.927
301.951
301.973
301.993
302.011
302.027
302.041
302.054
302.065
302.076
302.085
302.093
302.101
302.107
302.114
302.119
302.125
302.13
302.135
302.139
302.144
302.148
302.152
302.157
302.161
302.165
302.17
302.174
302.179
302.183
302.188
302.193
302.197
302.202
302.207
302.212
302.217
302.222
302.227
302.232
302.237
302.241
302.246
302.251
302.256
302.261
302.265
302.27
302.275
302.279
302.284
302.288
302.292
302.296
302.301
302.305
302.309
302.313
302.317
302.321
302.325
302.329
302.333
302.337
302.34
302.344
302.348
302.352
302.356
302.359
302.363
302.367
302.37
302.374
302.377
302.381
302.384
302.387
302.391
302.394
302.397
302.399
302.402
302.404
302.407
302.409
302.411
302.412
302.414
302.415
302.416
302.417
302.418
302.419
302.419
302.42
302.42
302.42
302.42
302.42
302.421
302.421
302.422
302.423
302.424
302.427
302.429
302.433
302.438
302.444
302.451
302.46
302.47
302.483
302.497
302.515
302.535
302.558
302.584
302.614
302.647
302.685
302.727
302.774
302.826
302.884
302.946
303.015
303.09
303.171
303.258
303.351
303.451
303.557
303.668
303.784
303.904
304.027
304.152
304.277
304.4
304.519
304.631
304.735
304.827
304.907
304.972
305.023
305.057
299.566
299.567
299.573
299.575
299.576
299.575
299.575
299.578
299.583
299.592
299.604
299.62
299.64
299.664
299.692
299.724
299.76
299.8
299.843
299.889
299.939
299.992
300.047
300.106
300.166
300.229
300.294
300.36
300.428
300.497
300.566
300.636
300.705
300.774
300.842
300.909
300.975
301.038
301.1
301.16
301.217
301.272
301.323
301.372
301.418
301.461
301.502
301.539
301.573
301.605
301.634
301.66
301.684
301.706
301.726
301.744
301.76
301.774
301.787
301.798
301.809
301.818
301.827
301.834
301.841
301.847
301.853
301.859
301.864
301.869
301.874
301.878
301.883
301.887
301.892
301.896
301.9
301.905
301.909
301.914
301.919
301.923
301.928
301.933
301.938
301.943
301.948
301.953
301.958
301.963
301.968
301.973
301.978
301.983
301.988
301.993
301.998
302.003
302.008
302.013
302.017
302.022
302.027
302.031
302.036
302.04
302.045
302.049
302.053
302.058
302.062
302.066
302.07
302.075
302.079
302.083
302.087
302.091
302.095