/*--------------------------------*- C++ -*----------------------------------*\
  =========                 |
  \\      /  F ield         | OpenFOAM: The Open Source CFD Toolbox
   \\    /   O peration     | Website:  https://openfoam.org
    \\  /    A nd           | Version:  8
     \\/     M anipulation  |
\*---------------------------------------------------------------------------*/
FoamFile
{
    version     2.0;
    format      ascii;
    class       volVectorField;
    location    "1100";
    object      U;
}
// * * * * * * * * * * * * * * * * * * * * * * * * * * * * * * * * * * * * * //

dimensions      [0 1 -1 0 0 0 0];

internalField   nonuniform List<vector> 
46000
(
(-0.00206198 2.71653e-07 0.00223617)
(-0.00914387 1.37745e-07 0.00371373)
(-0.0160854 2.85454e-08 0.00365712)
(-0.0202034 -7.57188e-09 0.00227048)
(-0.0210039 -2.3378e-08 0.000507539)
(-0.0187995 -2.10025e-08 -0.00113374)
(-0.0141999 -1.84815e-08 -0.00248002)
(-0.00783139 -1.19368e-08 -0.00352194)
(-0.00017697 3.58926e-10 -0.00425737)
(0.00828306 1.03421e-08 -0.00469654)
(0.017133 1.29982e-08 -0.00490387)
(0.0261321 9.57677e-09 -0.00494609)
(0.0350312 4.10658e-09 -0.00485677)
(0.0436499 -2.66539e-09 -0.00466267)
(0.0518407 -1.15133e-08 -0.00438609)
(0.0594879 -2.31303e-08 -0.00404576)
(0.0665016 -3.65353e-08 -0.00365766)
(0.072815 -4.98327e-08 -0.00323561)
(0.078381 -6.11608e-08 -0.00279168)
(0.0831704 -6.94374e-08 -0.00233649)
(0.0871696 -7.44071e-08 -0.00187939)
(0.0903793 -7.64596e-08 -0.00142868)
(0.092813 -7.63004e-08 -0.000991804)
(0.0944953 -7.45476e-08 -0.00057562)
(0.0954631 -7.13755e-08 -0.000186744)
(0.095755 -6.7765e-08 0.000168826)
(0.0954409 -6.3824e-08 0.000493917)
(0.0945502 -5.90539e-08 0.000791742)
(0.0931386 -5.39391e-08 0.00105873)
(0.0912604 -4.8769e-08 0.00129325)
(0.0889716 -4.38396e-08 0.00149461)
(0.0863294 -3.93197e-08 0.0016628)
(0.0833909 -3.5472e-08 0.00179841)
(0.080212 -3.24117e-08 0.00190259)
(0.0768468 -3.01728e-08 0.00197687)
(0.0733471 -2.87354e-08 0.00202314)
(0.0697612 -2.80665e-08 0.00204352)
(0.0661345 -2.80583e-08 0.00204032)
(0.0625081 -2.85831e-08 0.00201595)
(0.0589196 -2.96344e-08 0.00197288)
(0.055402 -3.11584e-08 0.00191358)
(0.0519846 -3.30742e-08 0.00184048)
(0.0486924 -3.53685e-08 0.00175593)
(0.0455463 -3.80143e-08 0.00166216)
(0.0425636 -4.09915e-08 0.00156125)
(0.039758 -4.4192e-08 0.00145513)
(0.0371395 -4.76159e-08 0.00134556)
(0.0347155 -5.11887e-08 0.0012341)
(0.0324903 -5.48429e-08 0.00112215)
(0.0304657 -5.85311e-08 0.00101089)
(0.0286415 -6.21452e-08 0.000901367)
(0.0270154 -6.56378e-08 0.000794424)
(0.0255837 -6.8948e-08 0.000690756)
(0.0243411 -7.19675e-08 0.000590908)
(0.0232816 -7.46693e-08 0.000495285)
(0.0223981 -7.69924e-08 0.000404167)
(0.0216829 -7.8903e-08 0.000317713)
(0.0211281 -8.04417e-08 0.000235964)
(0.0207254 -8.15474e-08 0.000158837)
(0.020467 -8.23622e-08 8.60983e-05)
(0.020344 -8.27644e-08 1.73674e-05)
(0.0203501 -8.23695e-08 -4.67098e-05)
(0.0204763 -8.11687e-08 -0.000105625)
(0.0207122 -7.98053e-08 -0.000159844)
(0.0210504 -7.82049e-08 -0.000209693)
(0.0214829 -7.63339e-08 -0.00025554)
(0.0220023 -7.41719e-08 -0.000297699)
(0.022602 -7.17596e-08 -0.000336461)
(0.0232753 -6.9124e-08 -0.000372093)
(0.0240164 -6.63327e-08 -0.000404846)
(0.0248198 -6.33451e-08 -0.000434953)
(0.0256804 -6.02966e-08 -0.000462635)
(0.0265933 -5.71262e-08 -0.000488094)
(0.0275542 -5.38543e-08 -0.000511523)
(0.0285591 -5.04606e-08 -0.000533099)
(0.0296042 -4.6979e-08 -0.000552986)
(0.0306862 -4.33824e-08 -0.000571338)
(0.0318019 -3.96843e-08 -0.000588296)
(0.0329485 -3.58781e-08 -0.000603994)
(0.0341234 -3.19029e-08 -0.000618554)
(0.0353242 -2.78264e-08 -0.000632091)
(0.0365488 -2.36012e-08 -0.000644711)
(0.0377953 -1.9268e-08 -0.000656515)
(0.039062 -1.47997e-08 -0.000667595)
(0.0403474 -1.02505e-08 -0.000678036)
(0.04165 -5.57971e-09 -0.000687917)
(0.0429687 -8.956e-10 -0.000697311)
(0.0443024 3.82212e-09 -0.000706283)
(0.0456502 8.57344e-09 -0.00071489)
(0.0470113 1.33043e-08 -0.000723184)
(0.048385 1.80079e-08 -0.000731206)
(0.0497706 2.26504e-08 -0.000738993)
(0.0511677 2.72386e-08 -0.000746569)
(0.0525757 3.17455e-08 -0.000753952)
(0.0539943 3.61778e-08 -0.000761151)
(0.0554228 4.04815e-08 -0.000768165)
(0.056861 4.47105e-08 -0.000774985)
(0.0583084 4.87704e-08 -0.000781593)
(0.0597645 5.27557e-08 -0.000787965)
(0.0612289 5.66191e-08 -0.000794067)
(0.0627009 6.03809e-08 -0.000799862)
(0.0641799 6.40411e-08 -0.000805306)
(0.0656653 6.75524e-08 -0.000810353)
(0.0671563 7.09823e-08 -0.000814954)
(0.068652 7.42904e-08 -0.000819059)
(0.0701516 7.74902e-08 -0.000822619)
(0.071654 8.05681e-08 -0.000825588)
(0.0731581 8.35445e-08 -0.000827922)
(0.0746628 8.64058e-08 -0.000829585)
(0.0761669 8.91656e-08 -0.000830544)
(0.0776693 9.18374e-08 -0.000830775)
(0.0791686 9.44078e-08 -0.000830263)
(0.0806635 9.69238e-08 -0.000829002)
(0.0821529 9.93655e-08 -0.000826995)
(0.0836354 1.01739e-07 -0.000824255)
(0.0851099 1.04093e-07 -0.000820808)
(0.0865751 1.06372e-07 -0.000816687)
(0.0880301 1.08631e-07 -0.000811937)
(0.0894738 1.10808e-07 -0.00080661)
(0.0909053 1.12938e-07 -0.000800769)
(0.0923238 1.15041e-07 -0.000794484)
(0.0937288 1.17069e-07 -0.000787828)
(0.0951197 1.19017e-07 -0.000780883)
(0.0964961 1.20876e-07 -0.000773734)
(0.0978579 1.22648e-07 -0.000766468)
(0.0992049 1.24331e-07 -0.000759175)
(0.100537 1.2586e-07 -0.000751943)
(0.101855 1.2726e-07 -0.000744864)
(0.103159 1.28508e-07 -0.000738023)
(0.10445 1.2956e-07 -0.000731508)
(0.105727 1.3046e-07 -0.0007254)
(0.106993 1.31121e-07 -0.00071978)
(0.108248 1.31582e-07 -0.000714723)
(0.109493 1.31801e-07 -0.000710302)
(0.110729 1.31776e-07 -0.000706582)
(0.111958 1.31526e-07 -0.000703629)
(0.11318 1.31012e-07 -0.000701501)
(0.114399 1.30272e-07 -0.000700253)
(0.115614 1.29279e-07 -0.000699935)
(0.116828 1.2805e-07 -0.000700591)
(0.118043 1.26592e-07 -0.000702263)
(0.11926 1.2488e-07 -0.000704984)
(0.120482 1.2294e-07 -0.000708779)
(0.121709 1.2078e-07 -0.000713666)
(0.122945 1.18418e-07 -0.00071965)
(0.12419 1.15854e-07 -0.000726722)
(0.125447 1.13128e-07 -0.000734858)
(0.126717 1.10223e-07 -0.000744008)
(0.128003 1.07171e-07 -0.0007541)
(0.129305 1.03963e-07 -0.000765024)
(0.130624 1.00628e-07 -0.000776635)
(0.131963 9.71679e-08 -0.000788736)
(0.13332 9.35971e-08 -0.000801077)
(0.134697 8.98851e-08 -0.000813339)
(0.136092 8.60589e-08 -0.000825126)
(0.137504 8.21016e-08 -0.000835953)
(0.13893 7.80066e-08 -0.000845233)
(0.140368 7.37907e-08 -0.000852266)
(0.141812 6.94709e-08 -0.000856226)
(0.143256 6.50505e-08 -0.000856147)
(0.144691 6.057e-08 -0.000850915)
(0.146108 5.60867e-08 -0.00083926)
(0.147495 5.16376e-08 -0.000819747)
(0.148835 4.73037e-08 -0.000790775)
(0.150111 4.31488e-08 -0.000750587)
(0.151303 3.92134e-08 -0.000697275)
(0.152385 3.55715e-08 -0.000628814)
(0.153331 3.22332e-08 -0.000543109)
(0.154109 2.91614e-08 -0.000438068)
(0.154684 2.63729e-08 -0.000311651)
(0.155017 2.29443e-08 -0.000161662)
(0.155067 2.09234e-08 1.36777e-05)
(0.154791 2.04164e-08 0.000218025)
(0.154131 1.92426e-08 0.000455846)
(0.153032 1.80386e-08 0.000729519)
(0.151432 1.68213e-08 0.00104067)
(0.149268 1.54389e-08 0.00139043)
(0.146477 1.37632e-08 0.00177936)
(0.142993 1.17332e-08 0.0022073)
(0.138752 9.36548e-09 0.00267309)
(0.133694 6.95665e-09 0.00317438)
(0.127761 4.91141e-09 0.0037073)
(0.120907 3.68558e-09 0.00426609)
(0.113092 3.56334e-09 0.00484273)
(0.104295 4.23833e-09 0.00542642)
(0.0945121 4.84307e-09 0.00600293)
(0.0837659 3.87669e-09 0.00655384)
(0.0721117 -2.79294e-10 0.00705537)
(0.0596469 -8.91177e-09 0.00747683)
(0.0465221 -2.27793e-08 0.00777828)
(0.0329626 -4.20939e-08 0.00790663)
(0.0192639 -6.64854e-08 0.00779074)
(0.00596091 -9.47896e-08 0.00732628)
(-0.00660482 -1.23921e-07 0.00626044)
(-0.0170731 -1.51604e-07 0.00449012)
(-0.0246618 -1.8107e-07 0.00199441)
(-0.0279109 -2.09771e-07 -0.00122599)
(-0.0253487 -2.30165e-07 -0.00464299)
(-0.0168458 -1.8254e-07 -0.00654429)
(-0.00475638 -7.58255e-08 -0.00501546)
(-0.00206182 2.71654e-07 0.00223639)
(-0.00914381 1.37747e-07 0.00371389)
(-0.0160854 2.85459e-08 0.00365719)
(-0.0202033 -7.57202e-09 0.00227058)
(-0.0210037 -2.33785e-08 0.000507674)
(-0.0187993 -2.10029e-08 -0.00113357)
(-0.0141997 -1.84819e-08 -0.00247982)
(-0.00783114 -1.1937e-08 -0.00352172)
(-0.000176675 3.58933e-10 -0.00425714)
(0.00828339 1.03422e-08 -0.00469629)
(0.0171334 1.29984e-08 -0.00490362)
(0.0261325 9.57691e-09 -0.00494584)
(0.0350317 4.10663e-09 -0.00485654)
(0.0436504 -2.66542e-09 -0.00466245)
(0.0518413 -1.15134e-08 -0.00438589)
(0.0594885 -2.31305e-08 -0.00404557)
(0.0665023 -3.65356e-08 -0.00365748)
(0.0728157 -4.98331e-08 -0.00323544)
(0.0783818 -6.11612e-08 -0.00279152)
(0.0831712 -6.94378e-08 -0.00233633)
(0.0871704 -7.44075e-08 -0.00187923)
(0.0903802 -7.64599e-08 -0.00142852)
(0.0928139 -7.63007e-08 -0.000991645)
(0.0944961 -7.45479e-08 -0.000575458)
(0.095464 -7.13757e-08 -0.000186579)
(0.0957559 -6.77652e-08 0.000168997)
(0.0954419 -6.38242e-08 0.000494096)
(0.0945511 -5.90541e-08 0.000791929)
(0.0931395 -5.39393e-08 0.00105892)
(0.0912613 -4.87691e-08 0.00129346)
(0.0889725 -4.38397e-08 0.00149482)
(0.0863303 -3.93197e-08 0.00166301)
(0.0833918 -3.54721e-08 0.00179863)
(0.0802128 -3.24118e-08 0.00190282)
(0.0768477 -3.01728e-08 0.00197711)
(0.0733479 -2.87355e-08 0.00202338)
(0.0697621 -2.80665e-08 0.00204377)
(0.0661353 -2.80584e-08 0.00204057)
(0.062509 -2.85832e-08 0.0020162)
(0.0589204 -2.96345e-08 0.00197314)
(0.0554028 -3.11585e-08 0.00191385)
(0.0519854 -3.30743e-08 0.00184076)
(0.0486932 -3.53686e-08 0.00175621)
(0.0455471 -3.80145e-08 0.00166244)
(0.0425644 -4.09917e-08 0.00156154)
(0.0397588 -4.41922e-08 0.00145542)
(0.0371403 -4.76161e-08 0.00134585)
(0.0347163 -5.1189e-08 0.00123439)
(0.0324911 -5.48432e-08 0.00112244)
(0.0304665 -5.85315e-08 0.00101118)
(0.0286423 -6.21456e-08 0.000901659)
(0.0270162 -6.56382e-08 0.000794716)
(0.0255845 -6.89484e-08 0.000691047)
(0.024342 -7.1968e-08 0.000591197)
(0.0232824 -7.46698e-08 0.000495572)
(0.0223989 -7.69929e-08 0.000404452)
(0.0216837 -7.89036e-08 0.000317995)
(0.0211289 -8.04423e-08 0.000236244)
(0.0207263 -8.1548e-08 0.000159113)
(0.0204678 -8.23628e-08 8.63698e-05)
(0.0203448 -8.2765e-08 1.76341e-05)
(0.0203509 -8.23702e-08 -4.64483e-05)
(0.0204771 -8.11694e-08 -0.000105369)
(0.020713 -7.9806e-08 -0.000159594)
(0.0210512 -7.82056e-08 -0.00020945)
(0.0214837 -7.63345e-08 -0.000255303)
(0.0220032 -7.41726e-08 -0.000297469)
(0.0226028 -7.17602e-08 -0.000336239)
(0.0232761 -6.91246e-08 -0.000371879)
(0.0240172 -6.63332e-08 -0.000404641)
(0.0248206 -6.33457e-08 -0.000434758)
(0.0256811 -6.02971e-08 -0.000462449)
(0.026594 -5.71267e-08 -0.000487919)
(0.0275549 -5.38548e-08 -0.000511359)
(0.0285598 -5.04611e-08 -0.000532945)
(0.0296049 -4.69794e-08 -0.000552844)
(0.0306869 -4.33827e-08 -0.000571207)
(0.0318026 -3.96846e-08 -0.000588178)
(0.0329492 -3.58784e-08 -0.000603887)
(0.0341241 -3.19032e-08 -0.000618459)
(0.0353249 -2.78266e-08 -0.000632008)
(0.0365495 -2.36014e-08 -0.000644641)
(0.037796 -1.92682e-08 -0.000656457)
(0.0390627 -1.47998e-08 -0.000667548)
(0.040348 -1.02506e-08 -0.000678001)
(0.0416507 -5.57976e-09 -0.000687894)
(0.0429693 -8.95606e-10 -0.0006973)
(0.044303 3.82215e-09 -0.000706283)
(0.0456508 8.5735e-09 -0.000714902)
(0.0470119 1.33044e-08 -0.000723208)
(0.0483856 1.8008e-08 -0.000731242)
(0.0497713 2.26505e-08 -0.00073904)
(0.0511683 2.72388e-08 -0.000746628)
(0.0525764 3.17457e-08 -0.000754023)
(0.0539949 3.6178e-08 -0.000761234)
(0.0554234 4.04817e-08 -0.000768259)
(0.0568616 4.47108e-08 -0.000775091)
(0.058309 4.87707e-08 -0.000781711)
(0.0597651 5.2756e-08 -0.000788094)
(0.0612294 5.66194e-08 -0.000794208)
(0.0627014 6.03812e-08 -0.000800014)
(0.0641805 6.40414e-08 -0.000805469)
(0.0656659 6.75527e-08 -0.000810527)
(0.0671569 7.09826e-08 -0.000815139)
(0.0686526 7.42907e-08 -0.000819255)
(0.0701521 7.74905e-08 -0.000822826)
(0.0716545 8.05684e-08 -0.000825805)
(0.0731586 8.35448e-08 -0.00082815)
(0.0746633 8.64062e-08 -0.000829823)
(0.0761675 8.9166e-08 -0.000830792)
(0.0776698 9.18378e-08 -0.000831033)
(0.0791691 9.44081e-08 -0.000830531)
(0.0806641 9.69242e-08 -0.000829279)
(0.0821534 9.93658e-08 -0.000827282)
(0.0836359 1.0174e-07 -0.000824552)
(0.0851104 1.04093e-07 -0.000821113)
(0.0865756 1.06372e-07 -0.000817001)
(0.0880306 1.08631e-07 -0.000812259)
(0.0894743 1.10808e-07 -0.000806941)
(0.0909058 1.12938e-07 -0.000801108)
(0.0923244 1.15041e-07 -0.00079483)
(0.0937293 1.1707e-07 -0.000788182)
(0.0951202 1.19017e-07 -0.000781244)
(0.0964967 1.20876e-07 -0.000774103)
(0.0978584 1.22648e-07 -0.000766844)
(0.0992054 1.24332e-07 -0.000759557)
(0.100538 1.2586e-07 -0.000752332)
(0.101856 1.2726e-07 -0.000745259)
(0.10316 1.28508e-07 -0.000738425)
(0.10445 1.2956e-07 -0.000731915)
(0.105728 1.3046e-07 -0.000725814)
(0.106994 1.31121e-07 -0.0007202)
(0.108248 1.31582e-07 -0.000715149)
(0.109493 1.31801e-07 -0.000710733)
(0.110729 1.31776e-07 -0.00070702)
(0.111958 1.31526e-07 -0.000704072)
(0.113181 1.31012e-07 -0.00070195)
(0.114399 1.30272e-07 -0.000700707)
(0.115615 1.29279e-07 -0.000700394)
(0.116829 1.2805e-07 -0.000701056)
(0.118044 1.26592e-07 -0.000702733)
(0.119261 1.24881e-07 -0.000705458)
(0.120482 1.2294e-07 -0.000709258)
(0.12171 1.2078e-07 -0.00071415)
(0.122945 1.18418e-07 -0.000720138)
(0.12419 1.15854e-07 -0.000727215)
(0.125447 1.13128e-07 -0.000735355)
(0.126718 1.10224e-07 -0.000744509)
(0.128003 1.07171e-07 -0.000754605)
(0.129305 1.03963e-07 -0.000765533)
(0.130625 1.00628e-07 -0.000777148)
(0.131963 9.7168e-08 -0.000789253)
(0.133321 9.35972e-08 -0.000801598)
(0.134697 8.98852e-08 -0.000813863)
(0.136092 8.60589e-08 -0.000825653)
(0.137504 8.21016e-08 -0.000836483)
(0.138931 7.80066e-08 -0.000845767)
(0.140368 7.37908e-08 -0.000852803)
(0.141812 6.94709e-08 -0.000856765)
(0.143256 6.50506e-08 -0.000856689)
(0.144692 6.05701e-08 -0.000851459)
(0.146109 5.60868e-08 -0.000839806)
(0.147495 5.16377e-08 -0.000820295)
(0.148835 4.73037e-08 -0.000791325)
(0.150112 4.31488e-08 -0.000751139)
(0.151303 3.92134e-08 -0.000697829)
(0.152386 3.55715e-08 -0.00062937)
(0.153332 3.22332e-08 -0.000543667)
(0.15411 2.91614e-08 -0.000438628)
(0.154685 2.63729e-08 -0.000312212)
(0.155018 2.29444e-08 -0.000162223)
(0.155068 2.09235e-08 1.31148e-05)
(0.154792 2.04165e-08 0.000217457)
(0.154132 1.92426e-08 0.000455272)
(0.153032 1.80386e-08 0.000728941)
(0.151432 1.68213e-08 0.00104008)
(0.149269 1.54389e-08 0.00138984)
(0.146477 1.37632e-08 0.00177878)
(0.142993 1.17332e-08 0.00220671)
(0.138753 9.36547e-09 0.0026725)
(0.133694 6.95664e-09 0.00317379)
(0.127762 4.91141e-09 0.0037067)
(0.120907 3.68557e-09 0.00426549)
(0.113093 3.56333e-09 0.00484212)
(0.104296 4.23833e-09 0.0054258)
(0.0945127 4.84306e-09 0.0060023)
(0.0837665 3.87668e-09 0.00655318)
(0.0721122 -2.79294e-10 0.00705469)
(0.0596473 -8.91176e-09 0.00747611)
(0.0465225 -2.27793e-08 0.00777752)
(0.0329629 -4.20939e-08 0.00790583)
(0.0192641 -6.64853e-08 0.00778989)
(0.00596092 -9.47896e-08 0.00732539)
(-0.00660496 -1.23921e-07 0.00625952)
(-0.0170733 -1.51604e-07 0.00448918)
(-0.0246621 -1.8107e-07 0.0019934)
(-0.0279113 -2.09771e-07 -0.00122708)
(-0.0253491 -2.30164e-07 -0.00464417)
(-0.0168463 -1.82538e-07 -0.0065455)
(-0.00475681 -7.58251e-08 -0.0050164)
(-0.00325174 1.74626e-07 0.00947318)
(-0.0105983 6.54292e-09 0.0116406)
(-0.0137917 -5.42944e-08 0.00786307)
(-0.013424 -6.22621e-08 0.00256303)
(-0.0100563 -6.77919e-08 -0.00252064)
(-0.00444804 -6.85935e-08 -0.00673388)
(0.00291888 -7.00605e-08 -0.00996863)
(0.0114976 -7.15707e-08 -0.0122887)
(0.0209229 -7.09288e-08 -0.0138368)
(0.0308657 -6.8868e-08 -0.0147361)
(0.0410563 -6.64031e-08 -0.0151192)
(0.0512674 -6.41608e-08 -0.0150979)
(0.0613044 -6.22184e-08 -0.0147508)
(0.0710093 -6.08878e-08 -0.0141427)
(0.0802517 -6.02665e-08 -0.0133266)
(0.0889256 -6.02111e-08 -0.0123472)
(0.0969464 -6.02355e-08 -0.0112428)
(0.104248 -5.98334e-08 -0.010047)
(0.110782 -5.86152e-08 -0.00878935)
(0.116516 -5.64606e-08 -0.00749639)
(0.121429 -5.34804e-08 -0.00619184)
(0.125517 -4.98924e-08 -0.00489696)
(0.128783 -4.59323e-08 -0.00363093)
(0.131246 -4.17813e-08 -0.00241115)
(0.132928 -3.76024e-08 -0.00125334)
(0.133863 -3.33239e-08 -0.000172167)
(0.134087 -2.89634e-08 0.000829813)
(0.133654 -2.46342e-08 0.00175279)
(0.132614 -2.03995e-08 0.00258962)
(0.131022 -1.63496e-08 0.00333608)
(0.128935 -1.25546e-08 0.00398971)
(0.126411 -9.04639e-09 0.00454967)
(0.12351 -5.882e-09 0.00501666)
(0.12029 -3.07336e-09 0.0053927)
(0.116809 -6.14094e-10 0.00568099)
(0.113124 1.51556e-09 0.00588571)
(0.109289 3.34205e-09 0.00601185)
(0.105354 4.91023e-09 0.00606505)
(0.101369 6.22824e-09 0.00605142)
(0.0973786 7.32763e-09 0.00597739)
(0.0934226 8.21157e-09 0.00584959)
(0.0895383 8.90833e-09 0.0056747)
(0.0857584 9.42281e-09 0.00545932)
(0.0821113 9.75655e-09 0.00520989)
(0.0786214 9.94126e-09 0.0049326)
(0.075309 9.98189e-09 0.00463328)
(0.0721907 9.9152e-09 0.00431741)
(0.0692793 9.74451e-09 0.00399)
(0.0665842 9.50161e-09 0.00365561)
(0.0641117 9.2049e-09 0.00331831)
(0.0618653 8.89291e-09 0.00298169)
(0.0598459 8.56229e-09 0.00264887)
(0.0580522 8.25159e-09 0.00232247)
(0.056481 7.97423e-09 0.00200469)
(0.0551273 7.75535e-09 0.00169731)
(0.053985 7.6e-09 0.00140168)
(0.0530468 7.51493e-09 0.00111881)
(0.0523046 7.50684e-09 0.00084934)
(0.0517496 7.58415e-09 0.000593584)
(0.0513726 7.72845e-09 0.000351544)
(0.0511639 8.00678e-09 0.000122891)
(0.0511135 8.34912e-09 -9.16257e-05)
(0.0512127 8.7146e-09 -0.00029107)
(0.0514512 9.17222e-09 -0.000475955)
(0.0518199 9.66509e-09 -0.00064707)
(0.0523096 1.01698e-08 -0.000805159)
(0.0529113 1.07013e-08 -0.000950984)
(0.0536165 1.12363e-08 -0.00108529)
(0.0544173 1.1763e-08 -0.00120881)
(0.055306 1.22697e-08 -0.00132225)
(0.0562754 1.27565e-08 -0.00142631)
(0.0573189 1.32064e-08 -0.00152166)
(0.05843 1.36347e-08 -0.00160893)
(0.059603 1.40146e-08 -0.00168874)
(0.0608324 1.4356e-08 -0.00176165)
(0.0621131 1.46656e-08 -0.00182822)
(0.0634405 1.49452e-08 -0.00188897)
(0.0648102 1.51914e-08 -0.00194438)
(0.0662183 1.53992e-08 -0.0019949)
(0.0676612 1.55886e-08 -0.00204099)
(0.0691354 1.57579e-08 -0.00208304)
(0.0706379 1.59022e-08 -0.00212145)
(0.0721661 1.60281e-08 -0.00215657)
(0.0737173 1.6129e-08 -0.00218874)
(0.0752894 1.62064e-08 -0.0022183)
(0.0768803 1.62671e-08 -0.00224552)
(0.0784882 1.62826e-08 -0.00227069)
(0.0801115 1.62763e-08 -0.00229404)
(0.0817489 1.62266e-08 -0.00231582)
(0.083399 1.614e-08 -0.00233621)
(0.0850607 1.60099e-08 -0.00235538)
(0.0867332 1.58312e-08 -0.00237349)
(0.0884154 1.56057e-08 -0.00239065)
(0.0901066 1.53417e-08 -0.00240694)
(0.0918061 1.50307e-08 -0.00242243)
(0.0935131 1.46713e-08 -0.00243714)
(0.0952271 1.42699e-08 -0.00245107)
(0.0969474 1.38217e-08 -0.00246421)
(0.0986733 1.33283e-08 -0.0024765)
(0.100404 1.2803e-08 -0.00248788)
(0.102139 1.22459e-08 -0.00249824)
(0.103878 1.16553e-08 -0.0025075)
(0.105619 1.10296e-08 -0.00251553)
(0.107362 1.03804e-08 -0.0025222)
(0.109106 9.71782e-09 -0.0025274)
(0.110849 9.03345e-09 -0.00253101)
(0.112591 8.3273e-09 -0.00253289)
(0.11433 7.62618e-09 -0.00253295)
(0.116066 6.91501e-09 -0.00253109)
(0.117796 6.20383e-09 -0.00252723)
(0.11952 5.49433e-09 -0.00252133)
(0.121236 4.79822e-09 -0.00251334)
(0.122944 4.11048e-09 -0.00250328)
(0.12464 3.44784e-09 -0.00249115)
(0.126325 2.80028e-09 -0.00247701)
(0.127997 2.18954e-09 -0.00246094)
(0.129655 1.60057e-09 -0.00244306)
(0.131297 1.04675e-09 -0.00242348)
(0.132923 5.2306e-10 -0.00240237)
(0.134532 3.62002e-11 -0.00237992)
(0.136123 -4.18855e-10 -0.00235633)
(0.137695 -8.38758e-10 -0.0023318)
(0.139249 -1.22686e-09 -0.00230659)
(0.140782 -1.58985e-09 -0.00228092)
(0.142296 -1.92439e-09 -0.00225505)
(0.143791 -2.23382e-09 -0.00222923)
(0.145266 -2.52484e-09 -0.00220371)
(0.146721 -2.79746e-09 -0.00217874)
(0.148158 -3.06003e-09 -0.00215458)
(0.149577 -3.31424e-09 -0.00213146)
(0.150979 -3.56511e-09 -0.00210962)
(0.152364 -3.80761e-09 -0.00208927)
(0.153734 -4.05681e-09 -0.00207063)
(0.155089 -4.306e-09 -0.00205389)
(0.156432 -4.5552e-09 -0.00203925)
(0.157763 -4.80607e-09 -0.00202687)
(0.159084 -5.06866e-09 -0.00201692)
(0.160398 -5.32454e-09 -0.00200955)
(0.161704 -5.58377e-09 -0.0020049)
(0.163006 -5.84633e-09 -0.00200308)
(0.164305 -6.10219e-09 -0.00200419)
(0.165603 -6.36138e-09 -0.00200832)
(0.166903 -6.60549e-09 -0.00201552)
(0.168205 -6.84958e-09 -0.00202583)
(0.169513 -7.08026e-09 -0.00203924)
(0.170827 -7.29418e-09 -0.00205569)
(0.172151 -7.48966e-09 -0.00207509)
(0.173485 -7.66335e-09 -0.00209724)
(0.174832 -7.81525e-09 -0.00212192)
(0.176192 -7.94202e-09 -0.00214875)
(0.177568 -8.04867e-09 -0.00217727)
(0.17896 -8.13187e-09 -0.00220686)
(0.180367 -8.19327e-09 -0.00223675)
(0.181791 -8.23456e-09 -0.00226598)
(0.183229 -8.25742e-09 -0.00229335)
(0.18468 -8.2702e-09 -0.00231743)
(0.186141 -8.26623e-09 -0.00233651)
(0.187608 -8.24718e-09 -0.00234855)
(0.189074 -8.20469e-09 -0.00235118)
(0.190534 -8.13541e-09 -0.00234167)
(0.191977 -8.02429e-09 -0.00231688)
(0.193392 -7.8479e-09 -0.00227326)
(0.194766 -7.60459e-09 -0.00220682)
(0.196082 -7.27093e-09 -0.00211317)
(0.19732 -6.82182e-09 -0.00198747)
(0.198457 -6.25057e-09 -0.0018245)
(0.199469 -5.54044e-09 -0.00161869)
(0.200324 -4.69644e-09 -0.00136421)
(0.20099 -3.71184e-09 -0.00105507)
(0.201428 -2.56653e-09 -0.000685228)
(0.201596 -1.15833e-09 -0.000248933)
(0.201448 2.75377e-10 0.000259765)
(0.200932 1.74258e-09 0.000850041)
(0.199994 3.49458e-09 0.00153088)
(0.198577 5.39932e-09 0.00230782)
(0.19662 7.41342e-09 0.00318535)
(0.194059 9.51024e-09 0.00416669)
(0.19083 1.16765e-08 0.0052535)
(0.186866 1.39326e-08 0.00644545)
(0.182103 1.63558e-08 0.0077397)
(0.176479 1.90837e-08 0.0091302)
(0.169936 2.22812e-08 0.0106071)
(0.162427 2.60864e-08 0.0121556)
(0.153911 3.04666e-08 0.0137556)
(0.144365 3.51845e-08 0.0153796)
(0.133782 3.97593e-08 0.016992)
(0.122179 4.36388e-08 0.0185465)
(0.109605 4.64023e-08 0.0199839)
(0.0961471 4.7852e-08 0.0212284)
(0.0819374 4.77792e-08 0.0221822)
(0.0671713 4.61375e-08 0.0227176)
(0.052113 4.33047e-08 0.0226624)
(0.037141 3.82765e-08 0.0217941)
(0.0226894 2.96728e-08 0.0197481)
(0.00937853 1.71395e-08 0.0161538)
(-0.00212023 1.95911e-09 0.0106432)
(-0.0107769 -1.33686e-08 0.00295037)
(-0.0154637 -2.45767e-08 -0.00655404)
(-0.0149514 8.70363e-09 -0.0158501)
(-0.00611636 9.83751e-08 -0.0178023)
(-0.00325147 1.74628e-07 0.00947329)
(-0.0105981 6.54324e-09 0.0116407)
(-0.0137915 -5.42981e-08 0.00786305)
(-0.0134238 -6.22663e-08 0.00256294)
(-0.0100559 -6.77962e-08 -0.00252076)
(-0.00444762 -6.85976e-08 -0.00673401)
(0.00291941 -7.00642e-08 -0.00996876)
(0.0114982 -7.15741e-08 -0.0122889)
(0.0209236 -7.09319e-08 -0.0138369)
(0.0308665 -6.88708e-08 -0.0147362)
(0.0410571 -6.64056e-08 -0.0151193)
(0.0512683 -6.41631e-08 -0.015098)
(0.0613053 -6.22204e-08 -0.0147509)
(0.0710103 -6.08896e-08 -0.0141428)
(0.0802527 -6.02682e-08 -0.0133267)
(0.0889267 -6.02127e-08 -0.0123473)
(0.0969474 -6.02369e-08 -0.0112429)
(0.104249 -5.98347e-08 -0.0100471)
(0.110783 -5.86164e-08 -0.00878944)
(0.116517 -5.64616e-08 -0.00749648)
(0.12143 -5.34813e-08 -0.00619191)
(0.125518 -4.98932e-08 -0.00489702)
(0.128785 -4.5933e-08 -0.00363098)
(0.131247 -4.17819e-08 -0.00241118)
(0.132929 -3.76029e-08 -0.00125337)
(0.133865 -3.33243e-08 -0.000172173)
(0.134089 -2.89638e-08 0.000829824)
(0.133655 -2.46344e-08 0.00175282)
(0.132615 -2.03997e-08 0.00258966)
(0.131023 -1.63497e-08 0.00333614)
(0.128936 -1.25547e-08 0.00398978)
(0.126412 -9.04648e-09 0.00454975)
(0.123511 -5.88206e-09 0.00501675)
(0.120291 -3.07339e-09 0.0053928)
(0.11681 -6.141e-10 0.00568109)
(0.113125 1.51558e-09 0.00588582)
(0.10929 3.34208e-09 0.00601197)
(0.105355 4.91028e-09 0.00606517)
(0.10137 6.22831e-09 0.00605154)
(0.0973796 7.32771e-09 0.00597752)
(0.0934237 8.21167e-09 0.00584972)
(0.0895394 8.90845e-09 0.00567482)
(0.0857595 9.42294e-09 0.00545944)
(0.0821124 9.75669e-09 0.00521001)
(0.0786225 9.94141e-09 0.00493272)
(0.0753101 9.98204e-09 0.0046334)
(0.0721918 9.91536e-09 0.00431753)
(0.0692804 9.74467e-09 0.00399012)
(0.0665853 9.50177e-09 0.00365572)
(0.0641128 9.20507e-09 0.00331842)
(0.0618664 8.89307e-09 0.0029818)
(0.0598471 8.56246e-09 0.00264897)
(0.0580534 8.25176e-09 0.00232257)
(0.0564821 7.97439e-09 0.00200479)
(0.0551285 7.75551e-09 0.0016974)
(0.0539862 7.60017e-09 0.00140177)
(0.053048 7.51509e-09 0.0011189)
(0.0523058 7.50701e-09 0.000849428)
(0.0517508 7.58432e-09 0.00059367)
(0.0513737 7.72863e-09 0.000351629)
(0.0511651 8.00697e-09 0.000122975)
(0.0511147 8.34932e-09 -9.15429e-05)
(0.0512139 8.7148e-09 -0.000290988)
(0.0514523 9.17244e-09 -0.000475874)
(0.0518211 9.66533e-09 -0.00064699)
(0.0523107 1.017e-08 -0.00080508)
(0.0529124 1.07016e-08 -0.000950905)
(0.0536177 1.12366e-08 -0.00108521)
(0.0544184 1.17633e-08 -0.00120873)
(0.0553071 1.22701e-08 -0.00132218)
(0.0562765 1.27568e-08 -0.00142624)
(0.0573199 1.32068e-08 -0.00152159)
(0.0584311 1.36351e-08 -0.00160887)
(0.059604 1.40149e-08 -0.00168867)
(0.0608334 1.43563e-08 -0.00176159)
(0.0621141 1.4666e-08 -0.00182817)
(0.0634415 1.49456e-08 -0.00188892)
(0.0648112 1.51918e-08 -0.00194433)
(0.0662193 1.53996e-08 -0.00199486)
(0.0676621 1.5589e-08 -0.00204095)
(0.0691363 1.57583e-08 -0.002083)
(0.0706389 1.59026e-08 -0.00212141)
(0.072167 1.60285e-08 -0.00215654)
(0.0737182 1.61293e-08 -0.00218872)
(0.0752903 1.62067e-08 -0.00221827)
(0.0768812 1.62674e-08 -0.0022455)
(0.0784891 1.62829e-08 -0.00227067)
(0.0801124 1.62767e-08 -0.00229403)
(0.0817498 1.62269e-08 -0.00231581)
(0.0833999 1.61403e-08 -0.0023362)
(0.0850616 1.60102e-08 -0.00235538)
(0.086734 1.58316e-08 -0.00237349)
(0.0884162 1.5606e-08 -0.00239065)
(0.0901074 1.5342e-08 -0.00240694)
(0.0918069 1.5031e-08 -0.00242243)
(0.0935139 1.46715e-08 -0.00243715)
(0.0952279 1.42702e-08 -0.00245109)
(0.0969482 1.38219e-08 -0.00246423)
(0.0986741 1.33285e-08 -0.00247653)
(0.100405 1.28032e-08 -0.00248791)
(0.10214 1.22461e-08 -0.00249828)
(0.103879 1.16555e-08 -0.00250754)
(0.10562 1.10298e-08 -0.00251557)
(0.107363 1.03806e-08 -0.00252225)
(0.109106 9.71797e-09 -0.00252746)
(0.11085 9.03359e-09 -0.00253106)
(0.112592 8.32743e-09 -0.00253295)
(0.114331 7.62629e-09 -0.00253301)
(0.116067 6.91511e-09 -0.00253115)
(0.117797 6.20392e-09 -0.0025273)
(0.119521 5.4944e-09 -0.0025214)
(0.121237 4.79828e-09 -0.00251342)
(0.122944 4.11053e-09 -0.00250336)
(0.124641 3.44789e-09 -0.00249124)
(0.126326 2.80031e-09 -0.0024771)
(0.127998 2.18957e-09 -0.00246104)
(0.129655 1.60059e-09 -0.00244316)
(0.131298 1.04676e-09 -0.00242358)
(0.132924 5.23066e-10 -0.00240248)
(0.134533 3.62006e-11 -0.00238003)
(0.136124 -4.1886e-10 -0.00235644)
(0.137696 -8.38766e-10 -0.00233192)
(0.139249 -1.22687e-09 -0.0023067)
(0.140783 -1.58986e-09 -0.00228103)
(0.142297 -1.92441e-09 -0.00225516)
(0.143791 -2.23384e-09 -0.00222935)
(0.145266 -2.52487e-09 -0.00220383)
(0.146722 -2.79748e-09 -0.00217887)
(0.148159 -3.06006e-09 -0.00215471)
(0.149578 -3.31427e-09 -0.00213159)
(0.150979 -3.56514e-09 -0.00210975)
(0.152364 -3.80764e-09 -0.0020894)
(0.153734 -4.05684e-09 -0.00207076)
(0.15509 -4.30604e-09 -0.00205402)
(0.156432 -4.55524e-09 -0.00203938)
(0.157764 -4.80611e-09 -0.00202701)
(0.159085 -5.0687e-09 -0.00201706)
(0.160398 -5.32458e-09 -0.00200969)
(0.161705 -5.58381e-09 -0.00200504)
(0.163007 -5.84638e-09 -0.00200322)
(0.164306 -6.10223e-09 -0.00200433)
(0.165604 -6.36143e-09 -0.00200847)
(0.166903 -6.60554e-09 -0.00201567)
(0.168206 -6.84963e-09 -0.00202598)
(0.169513 -7.08031e-09 -0.00203939)
(0.170828 -7.29423e-09 -0.00205585)
(0.172151 -7.48971e-09 -0.00207524)
(0.173486 -7.6634e-09 -0.0020974)
(0.174832 -7.81531e-09 -0.00212208)
(0.176193 -7.94208e-09 -0.00214891)
(0.177569 -8.04873e-09 -0.00217743)
(0.17896 -8.13192e-09 -0.00220703)
(0.180368 -8.19332e-09 -0.00223692)
(0.181791 -8.23462e-09 -0.00226615)
(0.183229 -8.25747e-09 -0.00229353)
(0.18468 -8.27026e-09 -0.00231761)
(0.186141 -8.26629e-09 -0.00233669)
(0.187608 -8.24724e-09 -0.00234873)
(0.189075 -8.20474e-09 -0.00235137)
(0.190535 -8.13546e-09 -0.00234186)
(0.191978 -8.02434e-09 -0.00231707)
(0.193393 -7.84795e-09 -0.00227345)
(0.194767 -7.60464e-09 -0.00220702)
(0.196082 -7.27098e-09 -0.00211336)
(0.19732 -6.82187e-09 -0.00198766)
(0.198458 -6.25061e-09 -0.00182469)
(0.199469 -5.54048e-09 -0.00161889)
(0.200325 -4.69647e-09 -0.00136441)
(0.20099 -3.71186e-09 -0.00105528)
(0.201428 -2.56654e-09 -0.000685432)
(0.201596 -1.15833e-09 -0.000249135)
(0.201449 2.75379e-10 0.000259563)
(0.200932 1.74258e-09 0.000849836)
(0.199995 3.4946e-09 0.00153067)
(0.198578 5.39934e-09 0.00230762)
(0.196621 7.41345e-09 0.00318515)
(0.19406 9.51027e-09 0.0041665)
(0.190831 1.16766e-08 0.00525332)
(0.186867 1.39327e-08 0.00644529)
(0.182103 1.63558e-08 0.00773954)
(0.176479 1.90838e-08 0.00913006)
(0.169937 2.22813e-08 0.0106069)
(0.162428 2.60864e-08 0.0121555)
(0.153912 3.04666e-08 0.0137555)
(0.144366 3.51846e-08 0.0153796)
(0.133782 3.97594e-08 0.0169919)
(0.12218 4.36388e-08 0.0185464)
(0.109606 4.64024e-08 0.0199838)
(0.0961475 4.78521e-08 0.0212284)
(0.0819378 4.77792e-08 0.0221821)
(0.0671716 4.61376e-08 0.0227175)
(0.0521132 4.33048e-08 0.0226623)
(0.0371412 3.82765e-08 0.0217939)
(0.0226895 2.96729e-08 0.019748)
(0.00937858 1.71395e-08 0.0161536)
(-0.00212027 1.95912e-09 0.0106428)
(-0.0107771 -1.33687e-08 0.00294989)
(-0.0154639 -2.45768e-08 -0.0065547)
(-0.0149519 8.7036e-09 -0.0158509)
(-0.00611701 9.83748e-08 -0.0178031)
(-0.00302319 8.41109e-08 0.0160119)
(-0.00657702 -3.19802e-08 0.0147637)
(-0.00560756 -5.11266e-08 0.00687854)
(-0.00211938 -4.94247e-08 -0.00126534)
(0.00324354 -5.01467e-08 -0.00837206)
(0.00997094 -4.98332e-08 -0.0140783)
(0.0177687 -5.18722e-08 -0.0184177)
(0.0263673 -5.35293e-08 -0.0215346)
(0.0355389 -5.2505e-08 -0.0236127)
(0.0450704 -5.01744e-08 -0.0248171)
(0.0547733 -4.82008e-08 -0.0253009)
(0.0644741 -4.69606e-08 -0.0251951)
(0.0740186 -4.59709e-08 -0.0246057)
(0.0832745 -4.4913e-08 -0.0236213)
(0.0921284 -4.38207e-08 -0.0223166)
(0.100485 -4.28131e-08 -0.0207557)
(0.108265 -4.19008e-08 -0.0189949)
(0.115406 -4.0942e-08 -0.0170842)