/*--------------------------------*- C++ -*----------------------------------*\
  =========                 |
  \\      /  F ield         | OpenFOAM: The Open Source CFD Toolbox
   \\    /   O peration     | Website:  https://openfoam.org
    \\  /    A nd           | Version:  8
     \\/     M anipulation  |
\*---------------------------------------------------------------------------*/
FoamFile
{
    version     2.0;
    format      ascii;
    class       volScalarField;
    location    "2100";
    object      epsilon;
}
// * * * * * * * * * * * * * * * * * * * * * * * * * * * * * * * * * * * * * //

dimensions      [0 2 -3 0 0 0 0];

internalField   nonuniform List<scalar> 
48000
(
0.596531
2.33805
4.43278
6.66016
8.9631
11.2548
13.5365
15.8675
18.2007
20.547
22.9081
25.2831
27.6711
30.0707
32.4801
34.8971
37.3191
39.7429
42.1653
44.5825
46.9909
49.3865
51.7653
54.1233
56.4564
58.7606
61.032
63.2669
65.4617
67.6129
69.7174
71.7721
73.7742
75.7214
77.6111
79.4416
81.211
82.9179
84.5609
86.1391
87.6516
89.0981
90.478
91.7913
93.0379
94.218
95.3318
96.3794
97.3643
98.2947
99.1635
99.9703
100.716
101.402
102.029
102.599
103.114
103.574
103.982
104.338
104.645
104.904
105.116
105.284
105.407
105.489
105.53
105.532
105.496
105.424
105.317
105.176
105.003
104.799
104.564
104.301
104.01
103.693
103.35
102.982
102.591
102.177
101.742
101.285
100.809
100.313
99.7982
99.2658
98.7161
98.1498
97.5675
96.9697
96.3571
95.7301
95.0892
94.4348
93.7674
93.0874
92.3952
91.6911
90.9754
90.2485
89.5106
88.762
88.0031
87.2339
86.4548
85.6659
84.8675
84.0597
83.2427
82.4167
81.5818
80.7381
79.8858
79.0251
78.156
77.2787
76.3932
75.4997
74.5984
73.6893
72.7725
71.8482
70.9164
69.9774
69.0312
68.0779
67.1178
66.1509
65.1775
64.1976
63.2115
62.2193
61.2213
60.2176
59.2085
58.1942
57.175
56.1512
55.1229
54.0906
53.0545
52.0149
50.9722
49.9268
48.879
47.8292
46.7778
45.7252
44.6719
43.6183
42.5649
41.512
40.4603
39.4102
38.3621
37.3167
36.2743
35.2356
34.201
33.1711
32.1463
31.1273
30.1144
29.1083
28.1093
27.1181
26.135
25.1605
24.1951
23.2391
22.2929
21.357
20.4316
19.517
18.6135
17.7212
16.8405
15.9713
15.1139
14.2683
13.435
12.6149
11.8135
11.0246
10.2438
9.47062
8.70384
7.942
7.18346
6.42595
5.66725
4.91427
4.15564
3.3834
2.5873
1.74925
0.86982
0.171873
0.596566
2.33816
4.43295
6.66039
8.96335
11.2551
13.5368
15.8678
18.201
20.5473
22.9084
25.2834
27.6714
30.071
32.4804
34.8975
37.3194
39.7433
42.1656
44.5828
46.9912
49.3868
51.7656
54.1236
56.4566
58.7608
61.0323
63.2672
65.4619
67.6132
69.7176
71.7723
73.7744
75.7215
77.6113
79.4418
81.2112
82.918
84.561
86.1392
87.6518
89.0982
90.4781
91.7914
93.038
94.2181
95.3318
96.3795
97.3643
98.2947
99.1635
99.9703
100.716
101.402
102.029
102.599
103.114
103.574
103.982
104.338
104.645
104.904
105.116
105.283
105.407
105.489
105.53
105.532
105.496
105.424
105.317
105.176
105.003
104.799
104.564
104.301
104.01
103.693
103.35
102.982
102.591
102.177
101.742
101.285
100.809
100.313
99.7982
99.2657
98.716
98.1497
97.5674
96.9697
96.357
95.73
95.0891
94.4348
93.7674
93.0874
92.3951
91.691
90.9753
90.2484
89.5105
88.762
88.003
87.2338
86.4547
85.6658
84.8674
84.0596
83.2427
82.4166
81.5817
80.738
79.8858
79.025
78.1559
77.2786
76.3931
75.4997
74.5983
73.6892
72.7724
71.8481
70.9164
69.9773
69.0311
68.0779
67.1178
66.1509
65.1774
64.1975
63.2114
62.2193
61.2212
60.2176
59.2085
58.1942
57.175
56.1511
55.1229
54.0906
53.0544
52.0149
50.9722
49.9268
48.879
47.8292
46.7778
45.7252
44.6719
43.6183
42.5648
41.512
40.4603
39.4101
38.3621
37.3166
36.2743
35.2356
34.201
33.1711
32.1463
31.1273
30.1144
29.1083
28.1093
27.1181
26.135
25.1605
24.195
23.2391
22.2929
21.357
20.4316
19.517
18.6135
17.7212
16.8405
15.9713
15.1139
14.2683
13.435
12.6149
11.8135
11.0246
10.2438
9.47063
8.70385
7.942
7.18346
6.42595
5.66725
4.91428
4.15565
3.38344
2.58748
1.74969
0.869456
0.171681
2.74856
2.36728
3.04347
3.87822
4.78369
5.71766
6.66723
7.63565
8.61875
9.61623
10.6279
11.6533
12.6917
13.7422
14.8036
15.8746
16.9536
18.0387
19.128
20.2195
21.311
22.4003
23.4851
24.5632
25.6324
26.6904
27.7351
28.7645
29.7766
30.7696
31.7416
32.6912
33.6167
34.5169
35.3906
36.2366
37.0541
37.8421
38.6002
39.3276
40.0241
40.6892
41.3228
41.9248
42.4952
43.0341
43.5417
44.0185
44.466
44.8856
45.2764
45.6381
45.971
46.2756
46.5525
46.8024
47.026
47.2239
47.3969
47.5458
47.6713
47.7741
47.855
47.9148
47.9541
47.9738
47.9746
47.9571
47.922
47.8701
47.802
47.7184
47.6198
47.507
47.3804
47.2407
47.0883
46.924
46.748
46.561
46.3635
46.1557
45.9383
45.7116
45.476
45.2318
44.9795
44.7194
44.4517
44.1769
43.8951
43.6067
43.3119
43.0109
42.7041
42.3916
42.0735
41.7502
41.4218
41.0884
40.7502
40.4074
40.0601
39.7084
39.3525
38.9924
38.6283
38.2602
37.8883
37.5127
37.1333
36.7504
36.3639
35.9739
35.5805
35.1838
34.7838
34.3806
33.9742
33.5646
33.152
32.7363
32.3177
31.8962
31.4717
31.0445
30.6145
30.1819
29.7466
29.3087
28.8683
28.4255
27.9803
27.5329
27.0833
26.6317
26.178
25.7225
25.2651
24.8062
24.3457
23.8838
23.4206
22.9563
22.491
22.0249
21.5582
21.0909
20.6234
20.1557
19.6881
19.2208
18.7539
18.2877
17.8223
17.3581
16.8951
16.4337
15.974
15.5163
15.0609
14.6078
14.1574
13.7099
13.2655
12.8245
12.3869
11.9532
11.5234
11.0977
10.6763
10.2595
9.84736
9.44002
9.03764
8.64035
8.24824
7.8614
7.47991
7.10382
6.73318
6.36804
6.00854
5.65484
5.30731
4.9651
4.62706
4.29374
3.96459
3.63913
3.3171
2.99827
2.68296
2.37307
2.06685
1.76432
1.46716
1.17749
0.876814
0.291457
2.7487
2.36726
3.04341
3.87813
4.78357
5.71753
6.66708
7.6355
8.61859
9.61605
10.6277
11.6531
12.6915
13.7419
14.8034
15.8744
16.9533
18.0384
19.1278
20.2193
21.3108
22.4
23.4849
24.563
25.6321
26.6901
27.7348
28.7642
29.7763
30.7693
31.7413
32.6908
33.6164
34.5166
35.3902
36.2363
37.0537
37.8418
38.5998
39.3273
40.0237
40.6889
41.3225
41.9245
42.4948
43.0337
43.5413
44.0181
44.4656
44.8853
45.276
45.6377
45.9706
46.2752
46.5522
46.8021
47.0256
47.2236
47.3966
47.5455
47.6709
47.7737
47.8547
47.9144
47.9538
47.9735
47.9742
47.9567
47.9217
47.8698
47.8017
47.7181
47.6195
47.5066
47.3801
47.2403
47.088
46.9236
46.7477
46.5607
46.3631
46.1554
45.938
45.7113
45.4757
45.2315
44.9792
44.7191
44.4514
44.1765
43.8948
43.6064
43.3116
43.0106
42.7038
42.3913
42.0733
41.7499
41.4215
41.0881
40.75
40.4072
40.0598
39.7082
39.3522
38.9921
38.628
38.26
37.8881
37.5124
37.1331
36.7501
36.3636
35.9737
35.5803
35.1836
34.7836
34.3803
33.9739
33.5644
33.1517
32.7361
32.3175
31.8959
31.4715
31.0443
30.6143
30.1816
29.7463
29.3085
28.8681
28.4253
27.9802
27.5327
27.0832
26.6315
26.1778
25.7223
25.265
24.806
24.3455
23.8836
23.4204
22.9561
22.4908
22.0247
21.558
21.0908
20.6232
20.1556
19.688
19.2206
18.7537
18.2875
17.8222
17.3579
16.895
16.4336
15.9739
15.5162
15.0607
14.6077
14.1573
13.7098
13.2654
12.8244
12.3868
11.9531
11.5233
11.0976
10.6763
10.2594
9.84727
9.43994
9.03757
8.64027
8.24817
7.86133
7.47984
7.10375
6.73311
6.36798
6.00848
5.65478
5.30726
4.96505
4.62701
4.2937
3.96455
3.6391
3.31707
2.99824
2.68293
2.37306
2.06685
1.76439
1.4675
1.17849
0.876772
0.291501
5.04202
3.18167
3.40018
3.90206
4.50625
5.16243
5.85075
6.56295
7.29412
8.04158
8.80364
9.5791
10.3669
11.1659
11.9751
12.7931
13.6186
14.4502
15.2862
16.125
16.9647
17.8037
18.6399
19.4717
20.2972
21.1145
21.9219
22.7178
23.5005
24.2685
25.0203
25.7547
26.4704
27.1663
27.8414
28.4947
29.1257
29.7334
30.3175
30.8774
31.4129
31.9235
32.4093
32.87
33.3058
33.7167
34.1028
34.4647
34.8029
35.1181
35.4102
35.6793
35.9259
36.1502
36.3527
36.5339
36.6944
36.8347
36.9554
37.0571
37.1404
37.2059
37.2542
37.286
37.3017
37.3021
37.2876
37.259
37.2166
37.1612
37.0931
37.013
36.9214
36.8186
36.7053
36.5819
36.4488
36.3065
36.1553
35.9957
35.828
35.6526
35.4699
35.2802
35.0837
34.8809
34.6719
34.4571
34.2367
34.011
33.7801
33.5444
33.304
33.0591
32.8099
32.5565
32.2992
32.0381
31.7733
31.505
31.2332
30.9582
30.68
30.3987
30.1144
29.8272
29.5372
29.2444
28.949
28.651
28.3505
28.0475
27.7421
27.4343
27.1243
26.8119
26.4973
26.1806
25.8617
25.5408
25.2177
24.8927
24.5657
24.2368
23.906
23.5733
23.2389
22.9027
22.5648
22.2253
21.8841
21.5414
21.1973
20.8517
20.5048
20.1566
19.8072
19.4566
19.1051
18.7526
18.3992
18.0451
17.6903
17.335
16.9793
16.6232
16.267
15.9107
15.5545
15.1985
14.8429
14.4878
14.1334
13.7797
13.4271
13.0756
12.7254
12.3767
12.0297
11.6844
11.3412
11.0001
10.6613
10.3251
9.99148
9.66072
9.33296
9.00834
8.68703
8.36916
8.05489
7.74433
7.43762
7.13487
6.83618
6.54165
6.25137
5.96541
5.68383
5.40669
5.13406
4.86597
4.6025
4.34371
4.08963
3.84007
3.59483
3.35393
3.11728
2.88497
2.65733
2.43464
2.21766
2.00779
1.80664
1.61773
1.44931
1.32249
1.31078
2.16514
5.04223
3.18162
3.40006
3.90191
4.50608
5.16225
5.85055
6.56274
7.29391
8.04135
8.80341
9.57887
10.3666
11.1657
11.9748
12.7928
13.6184
14.45
15.286
16.1247
16.9645
17.8034
18.6397
19.4715
20.2969
21.1142
21.9217
22.7175
23.5002
24.2682
25.0201
25.7545
26.4701
27.166
27.8411
28.4945
29.1254
29.7332
30.3173
30.8772
31.4127
31.9233
32.4091
32.8698
33.3056
33.7165
34.1026
34.4645
34.8027
35.1179
35.41
35.6792
35.9257
36.15
36.3525
36.5337
36.6942
36.8345
36.9552
37.0569
37.1402
37.2057
37.2541
37.2858
37.3016
37.3019
37.2875
37.2588
37.2165
37.161
37.093
37.0129
36.9212
36.8185
36.7052
36.5818
36.4487
36.3064
36.1552
35.9956
35.8279
35.6525
35.4698
35.2801
35.0836
34.8808
34.6718
34.457
34.2366
34.0109
33.78
33.5443
33.3039
33.059
32.8098
32.5564
32.2991
32.038
31.7732
31.5049
31.2331
30.9581
30.6799
30.3986
30.1143
29.8271
29.5371
29.2443
28.9489
28.651
28.3504
28.0474
27.742
27.4343
27.1242
26.8118
26.4973
26.1805
25.8616
25.5407
25.2177
24.8926
24.5656
24.2367
23.9059
23.5733
23.2388
22.9026
22.5648
22.2252
21.8841
21.5414
21.1972
20.8516
20.5047
20.1565
19.8071
19.4566
19.105
18.7525
18.3991
18.045
17.6903
17.3349
16.9792
16.6232
16.2669
15.9106
15.5544
15.1985
14.8429
14.4878
14.1333
13.7797
13.4271
13.0756
12.7254
12.3767
12.0296
11.6844
11.3412
11.0001
10.6613
10.325
9.99145
9.66069
9.33293
9.00831
8.687
8.36914
8.05486
7.74431
7.4376
7.13484
6.83616
6.54163
6.25135
5.96539
5.68381
5.40667
5.13404
4.86595
4.60249
4.3437
4.08961
3.84006
3.59482
3.35392
3.11727
2.88496
2.65732
2.43463
2.21766
2.00778
1.80664
1.61772
1.44933
1.32252
1.31014
2.16463
7.38058
4.17288
4.04639
4.35514
4.8146
5.34947
5.92983
6.54119
7.17551
7.828
8.49562
9.17625
9.86831
10.5705
11.2815
12.0001
12.7251
13.4551
14.1887
14.9246
15.6611
16.3966
17.1297
17.8588
18.5821
19.2982
20.0056
20.7026
21.388
22.0604
22.7185
23.3612
23.9873
24.5958
25.1859
25.7568
26.3078
26.8382
27.3476
27.8356
28.3018
28.7461
29.1682
29.5681
29.9458
30.3014
30.635
30.947
31.2377
31.5075
31.7567
31.9854
32.194
32.3829
32.5524
32.703
32.8352
32.9495
33.0463
33.1263
33.1899
33.2378
33.2703
33.2882
33.2918
33.2818
33.2587
33.223
33.1751
33.1157
33.0451
32.9638
32.8724
32.7712
32.6606
32.5412
32.4132
32.2771
32.1332
31.982
31.8237
31.6587
31.4872
31.3097
31.1263
30.9373
30.7431
30.5438
30.3397
30.131
29.9179
29.7006
29.4793
29.2542
29.0254
28.7931
28.5575
28.3186
28.0767
27.8318
27.584
27.3335
27.0803
26.8246
26.5664
26.3058
26.0429
25.7778
25.5105
25.2411
24.9697
24.6962
24.4208
24.1435
23.8644
23.5834
23.3007
23.0163
22.7302
22.4424
22.153
21.862
21.5695
21.2755
20.9801
20.6832
20.385
20.0854
19.7845
19.4824
19.1791
18.8746
18.5691
18.2625
17.955
17.6465
17.3372
17.0271
16.7163
16.4049
16.093
15.7806
15.4679
15.1549
14.8418
14.5286
14.2154
13.9025
13.5898
13.2775
12.9658
12.6548
12.3445
12.0352
11.7269
11.4199
11.1142
10.8101
10.5076
10.2068
9.90807
9.6114
9.31697
9.02493
8.73543
8.4486
8.16458
7.88352
7.60554
7.33077
7.05933
6.79134
6.5269
6.26613
6.00911
5.75593
5.50669
5.26145
5.02029
4.78328
4.55049
4.32198
4.09783
3.8781
3.66285
3.45212
3.24593
3.04441
2.84775
2.65626
2.47044
2.29101
2.11932
1.95729
1.80815
1.678
1.57996
1.54835
1.71452
3.24094
7.38083
4.17281
4.04625
4.35497
4.8144
5.34926
5.92961
6.54096
7.17527
7.82776
8.49537
9.176
9.86806
10.5702
11.2812
11.9998
12.7248
13.4548
14.1885
14.9243
15.6608
16.3964
17.1295
17.8585
18.5819
19.298
20.0053
20.7024
21.3878
22.0602
22.7183
23.361
23.987
24.5956
25.1857
25.7566
26.3076
26.838
27.3475
27.8354
28.3017
28.7459
29.168
29.5679
29.9456
30.3012
30.6349
30.9469
31.2376
31.5074
31.7566
31.9853
32.1939
32.3828
32.5523
32.7029
32.8351
32.9493
33.0462
33.1262
33.1898
33.2377
33.2702
33.2881
33.2917
33.2818
33.2586
33.2229
33.1751
33.1156
33.045
32.9637
32.8723
32.7711
32.6605
32.5411
32.4131
32.277
32.1332
31.9819
31.8236
31.6586
31.4872
31.3096
31.1262
30.9373
30.7431
30.5438
30.3397
30.131
29.9179
29.7006
29.4793
29.2542
29.0254
28.7931
28.5575
28.3186
28.0766
27.8317
27.584
27.3334
27.0803
26.8246
26.5664
26.3058
26.0429
25.7778
25.5105
25.2411
24.9696
24.6962
24.4208
24.1435
23.8644
23.5834
23.3007
23.0163
22.7301
22.4423
22.153
21.862
21.5695
21.2755
20.9801
20.6832
20.385
20.0854
19.7845
19.4824
19.1791
18.8746
18.5691
18.2625
17.9549
17.6465
17.3372
17.0271
16.7163
16.4049
16.093
15.7806
15.4679
15.1549
14.8418
14.5286
14.2154
13.9025
13.5898
13.2775
12.9658
12.6548
12.3445
12.0352
11.7269
11.4199
11.1142
10.8101
10.5075
10.2068
9.90806
9.61139
9.31696
9.02492
8.73542
8.44859
8.16458
7.88352
7.60554
7.33077
7.05933
6.79133
6.5269
6.26612
6.0091
5.75593
5.50669
5.26145
5.02029
4.78328
4.55049
4.32198
4.09782
3.8781
3.66285
3.45212
3.24593
3.04441
2.84775
2.65625
2.47044
2.29101
2.11932
1.95729
1.80815
1.678
1.57996
1.54835
1.71437
3.24075
9.70431
5.249
4.81912
4.9816
5.34542
5.80773
6.3279
6.88593
7.47063
8.07521
8.69529
9.32792
9.97097
10.6228
11.2819
11.9472
12.6174
13.2913
13.9676
14.6452
15.3225
15.9984
16.6715
17.3402
18.0033
18.6594
19.3071
19.9451
20.5722
21.1871
21.7887
22.376
22.9479
23.5036
24.0423
24.5632
25.0657
25.5493
26.0135
26.4579
26.8822
27.2862
27.6698
28.0329
28.3754
28.6976
28.9995
29.2813
29.5433
29.7858
30.0092
30.2135
30.3993
30.5667
30.7162
30.8483
30.9632
31.0616
31.1438
31.2104
31.2619
31.2987
31.3213
31.3303
31.3261
31.3092
31.2802
31.2394
31.1874
31.1247
31.0516
30.9686
30.8761
30.7746
30.6644
30.546
30.4197
30.2858
30.1448
29.997
29.8426
29.682
29.5155
29.3433
29.1658
28.9831
28.7956
28.6035
28.4069
28.2061
28.0013
27.7926
27.5803
27.3645
27.1454
26.9231
26.6978
26.4696
26.2385
26.0048
25.7685
25.5298
25.2887
25.0453
24.7998
24.5521
24.3023
24.0506
23.797
23.5415
23.2842
23.0252
22.7645
22.5022
22.2382
21.9727
21.7056
21.4371
21.1671
20.8958
20.623
20.349
20.0736
19.797
19.5191
19.2401
18.9599
18.6787
18.3964
18.113
17.8287
17.5435
17.2574
16.9705
16.6829
16.3945
16.1055
15.816
15.526
15.2355
14.9447
14.6537
14.3624
14.0711
13.7798
13.4886
13.1977
12.907
12.6167
12.327
12.038
11.7497
11.4623
11.1759
10.8907
10.6067
10.3242
10.0431
9.7638
9.48626
9.21066
8.93714
8.66583
8.39686
8.13036
7.86647
7.60531
7.347
7.09166
6.83942
6.59039
6.34466
6.10235
5.86356
5.62838
5.39691
5.16922
4.94541
4.72555
4.50974
4.29806
4.09061
3.88748
3.68878
3.49464
3.30519
3.12062
2.94119
2.76725
2.59934
2.43821
2.28498
2.14137
2.01006
1.89556
1.8064
1.76053
1.80511
2.123
4.29507
9.7046
5.2489
4.81895
4.98141
5.3452
5.8075
6.32766
6.88568
7.47037
8.07494
8.69503
9.32765
9.97069
10.6225
11.2817
11.9469
12.6171
13.291
13.9674
14.6449
15.3223
15.9982
16.6712
17.34
18.0031
18.6592
19.3069
19.9449
20.572
21.1869
21.7885
22.3758
22.9477
23.5034
24.0421
24.563
25.0655
25.5491
26.0133
26.4577
26.882
27.286
27.6696
28.0327
28.3753
28.6975
28.9993
29.2812
29.5432
29.7857
30.009
30.2134
30.3992
30.5666
30.7161
30.8482
30.9631
31.0615
31.1438
31.2104
31.2618
31.2986
31.3212
31.3302
31.326
31.3092
31.2801
31.2394
31.1874
31.1246
31.0515
30.9685
30.876
30.7745
30.6644
30.5459
30.4196
30.2858
30.1448
29.9969
29.8425
29.682
29.5154
29.3433
29.1657
28.9831
28.7956
28.6034
28.4068
28.206
28.0012
27.7926
27.5803
27.3645
27.1454
26.9231
26.6978
26.4695
26.2385
26.0048
25.7685
25.5298
25.2887
25.0453
24.7997
24.5521
24.3023
24.0506
23.797
23.5415
23.2842
23.0252
22.7645
22.5021
22.2382
21.9727
21.7056
21.4371
21.1671
20.8957
20.623
20.3489
20.0736
19.797
19.5191
19.2401
18.9599
18.6787
18.3964
18.113
17.8287
17.5435
17.2574
16.9705
16.6829
16.3945
16.1055
15.816
15.526
15.2355
14.9447
14.6537
14.3624
14.0711
13.7798
13.4886
13.1977
12.907
12.6167
12.327
12.038
11.7497
11.4623
11.1759
10.8907
10.6067
10.3242
10.0431
9.7638
9.48626
9.21066
8.93714
8.66583
8.39686
8.13036
7.86647
7.60531
7.347
7.09167
6.83942
6.59039
6.34466
6.10236
5.86356
5.62839
5.39691
5.16922
4.94541
4.72555
4.50974
4.29807
4.09061
3.88748
3.68878
3.49464
3.3052
3.12062
2.94119
2.76725
2.59934
2.43821
2.28498
2.14137
2.01006
1.89556
1.8064
1.76053
1.80512
2.12299
4.29503
12.0263
6.36903
5.66959
5.71176
6.00377
6.4161
6.89766
7.42327
7.97878
8.55552
9.14791
9.75218
10.3657
10.9864
11.6129
12.2438
12.878
13.5143
14.1517
14.789
15.4252
16.059
16.6894
17.315
17.9347
18.5472
19.1515
19.7463
20.3306
20.9032
21.4632
22.0096
22.5415
23.0581
23.5587
24.0426
24.5093
24.9582
25.3889
25.8011
26.1944
26.5688
26.924
27.2599
27.5767
27.8743
28.1529
28.4126
28.6537
28.8764
29.0809
29.2677
29.4368
29.5888
29.7239
29.8425
29.9451
30.032
30.1037
30.1607
30.2033
30.2321
30.2475
30.2501
30.2401
30.2182
30.1847
30.1402
30.085
30.0196
29.9444
29.8598
29.7662
29.664
29.5537
29.4355
29.3098
29.1769
29.0373
28.8911
28.7388
28.5805
28.4166
28.2474
28.0731
27.8939
27.7101
27.522
27.3296
27.1332
26.9331
26.7293
26.522
26.3115
26.0979
25.8812
25.6617
25.4394
25.2146
24.9872
24.7574
24.5254
24.2911
24.0547
23.8162
23.5758
23.3335
23.0894
22.8435
22.596
22.3467
22.0959
21.8435
21.5896
21.3343
21.0776
20.8194
20.56
20.2992
20.0372
19.774
19.5096
19.2441
18.9774
18.7097
18.4409
18.1712
17.9004
17.6288
17.3563
17.083
16.8089
16.5341
16.2587
15.9826
15.7059
15.4288
15.1512
14.8733
14.5951
14.3167
14.0381
13.7595
13.4809
13.2025
12.9242
12.6463
12.3688
12.0917
11.8154
11.5397
11.2649
10.991
10.7182
10.4466
10.1763
9.9075
9.64022
9.37461
9.11082
8.84897
8.58918
8.33157
8.07628
7.82342
7.57312
7.32548
7.08064
6.83871
6.59979
6.36399
6.13142
5.90219
5.67638
5.4541
5.23544
5.02051
4.80938
4.60217
4.39898
4.19991
4.00509
3.81466
3.62877
3.44761
3.27141
3.10046
2.93514
2.77598
2.6237
2.4793
2.34423
2.22069
2.11209
2.02418
1.96766
1.96539
2.07738
2.53677
5.34587
12.0266
6.36892
5.6694
5.71154
6.00353
6.41585
6.89739
7.423
7.9785
8.55524
9.14763
9.75189
10.3654
10.9861
11.6126
12.2435
12.8777
13.514
14.1514
14.7887
15.4249
16.0588
16.6891
17.3147
17.9344
18.547
19.1513
19.7461
20.3304
20.903
21.463
22.0094
22.5413
23.0579
23.5585
24.0424
24.5091
24.958
25.3887
25.8009
26.1943
26.5686
26.9238
27.2598
27.5766
27.8742
28.1528
28.4125
28.6536
28.8762
29.0808
29.2676
29.4367
29.5887
29.7238
29.8424
29.945
30.0319
30.1036
30.1606
30.2032
30.232
30.2475
30.25
30.2401
30.2181
30.1847
30.1401
30.0849
30.0195
29.9443
29.8597
29.7662
29.664
29.5536
29.4354
29.3097
29.1769
29.0372
28.8911
28.7387
28.5805
28.4166
28.2474
28.0731
27.8939
27.7101
27.5219
27.3296
27.1332
26.933
26.7293
26.522
26.3115
26.0978
25.8812
25.6617
25.4394
25.2145
24.9872
24.7574
24.5253
24.2911
24.0547
23.8162
23.5758
23.3335
23.0894
22.8435
22.5959
22.3467
22.0959
21.8435
21.5896
21.3343
21.0776
20.8194
20.56
20.2992
20.0372
19.774
19.5096
19.2441
18.9774
18.7097
18.4409
18.1711
17.9004
17.6288
17.3563
17.083
16.8089
16.5341
16.2587
15.9826
15.7059
15.4288
15.1512
14.8733
14.5951
14.3167
14.0381
13.7595
13.4809
13.2025
12.9242
12.6463
12.3688
12.0918
11.8154
11.5397
11.2649
10.991
10.7182
10.4466
10.1764
9.90751
9.64022
9.37462
9.11083
8.84897
8.58918
8.33158
8.07628
7.82342
7.57312
7.32549
7.08065
6.83871
6.59979
6.364
6.13143
5.90219
5.67638
5.4541
5.23545
5.02051
4.80939
4.60218
4.39898
4.19992
4.0051
3.81466
3.62877
3.44761
3.27141
3.10046
2.93514
2.77599
2.6237
2.4793
2.34423
2.22069
2.11209
2.02419
1.96766
1.96539
2.07739
2.53679
5.34587
14.469
7.54065
6.58322
6.51954
6.75355
7.1287
7.58355
8.08793
8.62486
9.18396
9.75852
10.344
10.9374
11.5363
12.1392
12.7446
13.3516
13.959
14.566
15.1715
15.7747
16.3746
16.9702
17.5605
18.1444
18.721
19.2892
19.848
20.3965
20.9338
21.4588
21.9709
22.4691
22.9528
23.4214
23.8741
24.3106
24.7303
25.1329
25.518
25.8853
26.2348
26.5662
26.8795
27.1748
27.4519
27.7111
27.9524
28.1762
28.3825
28.5716
28.7439
28.8996
29.0389
29.1623
29.27
29.3625
29.4402
29.5035
29.5527
29.5883
29.6107
29.6204
29.6178
29.6033
29.5774
29.5404
29.4929
29.4351
29.3676
29.2907
29.2049
29.1104
29.0076
28.897
28.7789
28.6535
28.5213
28.3825
28.2375
28.0865
27.9299
27.7678
27.6005
27.4284
27.2516
27.0703
26.8848
26.6952
26.5018
26.3047
26.1042
25.9003
25.6932
25.4831
25.2702
25.0545
24.8361
24.6153
24.392
24.1665
23.9387
23.7088
23.4769
23.243
23.0073
22.7698
22.5305
22.2896
22.047
21.8029
21.5573
21.3102
21.0617
20.8118
20.5607
20.3082
20.0545
19.7996
19.5435
19.2863
19.028
18.7687
18.5083
18.247
17.9847
17.7216
17.4575
17.1927
16.9271
16.6608
16.3937
16.1261
15.8579
15.5892
15.32
15.0504
14.7805
14.5103
14.2399
13.9694
13.6988
13.4283
13.1578
12.8876
12.6176
12.3481
12.079
11.8105
11.5426
11.2756
11.0094
10.7442
10.4801
10.2173
9.95575
9.69568
9.43718
9.18037
8.92536
8.67228
8.42124
8.17236
7.92577
7.68156
7.43987
7.2008
6.96447
6.73098
6.50044
6.27296
6.04865
5.8276
5.60991
5.3957
5.18506
4.97809
4.77491
4.57563
4.38037
4.18927
4.00249
3.82019
3.64259
3.46994
3.30253
3.14077
2.98516
2.83635
2.69525
2.56311
2.4417
2.33368
2.24319
2.17722
2.14868
2.18527
2.35993
2.95598
6.40003
14.4694
7.54051
6.58301
6.5193
6.75328
7.12843
7.58327
8.08764
8.62457
9.18367
9.75822
10.3437
10.9371
11.536
12.1389
12.7443
13.3513
13.9587
14.5657
15.1712
15.7745
16.3744
16.9699
17.5602
18.1442
18.7207
19.289
19.8478
20.3963
20.9335
21.4586
21.9707
22.4689
22.9526
23.4212
23.874
24.3104
24.7302
25.1327
25.5178
25.8852
26.2347
26.5661
26.8794
27.1746
27.4518
27.711
27.9523
28.176
28.3824
28.5715
28.7438
28.8995
29.0388
29.1622
29.2699
29.3625
29.4401
29.5034
29.5526
29.5882
29.6106
29.6203
29.6177
29.6033
29.5773
29.5404
29.4928
29.4351
29.3676
29.2907
29.2048
29.1103
29.0076
28.897
28.7788
28.6535
28.5213
28.3825
28.2375
28.0865
27.9298
27.7678
27.6005
27.4284
27.2515
27.0703
26.8847
26.6952
26.5018
26.3047
26.1041
25.9003
25.6932
25.4831
25.2702
25.0545
24.8361
24.6153
24.392
24.1664
23.9387
23.7088
23.4769
23.243
23.0073
22.7698
22.5305
22.2896
22.047
21.8029
21.5573
21.3102
21.0617
20.8118
20.5607
20.3082
20.0545
19.7996
19.5435
19.2863
19.028
18.7687
18.5083
18.247
17.9847
17.7216
17.4575
17.1927
16.9271
16.6608
16.3937
16.1261
15.8579
15.5892
15.32
15.0504
14.7805
14.5103
14.2399
13.9694
13.6988
13.4283
13.1578
12.8876
12.6177
12.3481
12.079
11.8105
11.5426
11.2756
11.0094
10.7442
10.4801
10.2173
9.95575
9.69569
9.43719
9.18037
8.92537
8.67228
8.42125
8.17237
7.92577
7.68157
7.43987
7.2008
6.96447
6.73098
6.50044
6.27297
6.04865
5.8276
5.60992
5.3957
5.18506
4.9781
4.77492
4.57564
4.38038
4.18928
4.00249
3.8202
3.6426
3.46994
3.30254
3.14078
2.98516
2.83635
2.69525
2.56311
2.4417
2.33368
2.24319
2.17722
2.14868
2.18528
2.35994
2.95601
6.40003
16.9903
8.76195
7.55413
7.39395
7.5789
7.92504
8.36055
8.85036
9.3748
9.92189
10.4839
11.0556
11.6336
12.2153
12.799
13.3833
13.9673
14.55
15.1305
15.7083
16.2824
16.8521
17.4167
17.9752
18.5269
19.071
19.6065
20.1327
20.6487
21.1537
21.6469
22.1276
22.5951
23.0488
23.488
23.9123
24.3212
24.7143
25.0911
25.4515
25.7952
26.122
26.4317
26.7245
27.0001
27.2587
27.5003
27.7251
27.9332
28.1248
28.3002
28.4596
28.6032
28.7313
28.8443
28.9425
29.0262
29.0958
29.1516
29.1941
29.2236
29.2406
29.2454
29.2384
29.2201
29.1908
29.1509
29.1009
29.0411
28.9719
28.8937
28.8068
28.7116
28.6085
28.4977
28.3797
28.2547
28.1231
27.9852
27.8411
27.6913
27.536
27.3754
27.2098
27.0395
26.8645
26.6853
26.5019
26.3146
26.1235
25.9289
25.7308
25.5295
25.3252
25.1178
24.9077
24.6948
24.4794
24.2616
24.0414
23.819
23.5944
23.3677
23.1391
22.9086
22.6762
22.4421
22.2063
21.9689
21.73
21.4895
21.2475
21.0042
20.7595
20.5135
20.2662
20.0177
19.768
19.5172
19.2652
19.0122
18.7582
18.5031
18.2471
17.9902
17.7324
17.4738
17.2144
16.9542
16.6933
16.4318
16.1697
15.9069
15.6437
15.3801
15.116
14.8516
14.5869
14.322
14.057
13.7918
13.5267
13.2617
12.9969
12.7323
12.468
12.2041
11.9408
11.678
11.416
11.1548
10.8945
10.6352
10.377
10.1201
9.86451
9.61036
9.35777
9.10686
8.85773
8.61051
8.3653
8.12222
7.88137
7.64288
7.40685
7.17338
6.9426
6.7146
6.48949
6.26738
6.04837
5.83256
5.62007
5.41099
5.20545
5.00355
4.80542
4.61119
4.42101
4.23504
4.05346
3.87649
3.70439
3.53746
3.37609
3.22076
3.07207
2.93084
2.79812
2.67541
2.56479
2.46939
2.39409
2.34709
2.34362
2.41617
2.65106
3.38311
7.46688
16.9907
8.76178
7.55389
7.39368
7.57862
7.92475
8.36025
8.85005
9.37449
9.92158
10.4836
11.0553
11.6333
12.215
12.7987
13.383
13.967
14.5497
15.1302
15.708
16.2821
16.8518
17.4164
17.975
18.5267
19.0708
19.6063
20.1325
20.6485
21.1535
21.6467
22.1274
22.5949
23.0486
23.4878
23.9121
24.321
24.7141
25.091
25.4513
25.795
26.1218
26.4316
26.7243
27
27.2586
27.5002
27.725
27.9331
28.1247
28.3001
28.4595
28.6031
28.7313
28.8443
28.9424
29.0261
29.0957
29.1516
29.194
29.2236
29.2405
29.2453
29.2383
29.22
29.1907
29.1509
29.1008
29.041
28.9718
28.8936
28.8067
28.7116
28.6084
28.4977
28.3797
28.2547
28.1231
27.9851
27.8411
27.6913
27.536
27.3754
27.2098
27.0394
26.8645
26.6853
26.5019
26.3146
26.1235
25.9289
25.7308
25.5295
25.3251
25.1178
24.9077
24.6948
24.4794
24.2616
24.0414
23.8189
23.5944
23.3677
23.1391
22.9085
22.6762
22.4421
22.2063
21.9689
21.73
21.4895
21.2475
21.0042
20.7595
20.5135
20.2662
20.0177
19.768
19.5172
19.2652
19.0122
18.7582
18.5031
18.2471
17.9902
17.7324
17.4738
17.2144
16.9542
16.6933
16.4318
16.1697
15.9069
15.6437
15.3801
15.116
14.8516
14.5869
14.322
14.057
13.7918
13.5267
13.2617
12.9969
12.7323
12.468
12.2041
11.9408
11.6781
11.416
11.1548
10.8945
10.6352
10.377
10.1201
9.86451
9.61036
9.35777
9.10686
8.85774
8.61051
8.3653
8.12222
7.88138
7.64288
7.40685
7.17339
6.9426
6.7146
6.48949
6.26738
6.04837
5.83256
5.62007
5.411
5.20545
5.00356
4.80543
4.6112
4.42102
4.23504
4.05346
3.8765
3.70439
3.53747
3.3761
3.22076
3.07208
2.93084
2.79812
2.67541
2.56479
2.46939
2.39409
2.34709
2.34362
2.41618
2.65108
3.38315
7.46689
19.6014
10.0361
8.58146
8.33108
8.47318
8.79587
9.2169
9.69632
10.2119
10.7501
11.3023
11.8628
12.4276
12.9942
13.5607
14.1258
14.6885
15.2481
15.8039
16.3554
16.902
17.4431
17.9781
18.5064
19.0274
19.5404
20.0446
20.5395
21.0242
21.4983
21.9609
22.4115
22.8494
23.2742
23.6853
24.0823
24.4646
24.832
25.1842
25.5209
25.8418
26.1468
26.4359
26.7088
26.9657
27.2066
27.4314
27.6404
27.8337
28.0113
28.1736
28.3208
28.4531
28.5707
28.674
28.7632
28.8386
28.9007
28.9497
28.986
29.0099
29.0218
29.0222
29.0113
28.9895
28.9572
28.9148
28.8626
28.8011
28.7305
28.6512
28.5635
28.4679
28.3646
28.2539
28.1361
28.0116
27.8807
27.7436
27.6006
27.452
27.298
27.1389
26.9749
26.8062
26.6331
26.4558
26.2743
26.0891
25.9001
25.7077
25.5119
25.3129
25.1109
24.9059
24.6982
24.4879
24.275
24.0597
23.8421
23.6223
23.4004
23.1764
22.9505
22.7227
22.4931
22.2618
22.0288
21.7943
21.5582
21.3206
21.0816
20.8412
20.5995
20.3565
20.1122
19.8668
19.6202
19.3725
19.1237
18.8739
18.623
18.3713
18.1186
17.865
17.6106
17.3554
17.0994
16.8427
16.5854
16.3274
16.0689
15.8098
15.5503
15.2903
15.03
14.7694
14.5086
14.2476
13.9864
13.7253
13.4642
13.2032
12.9424
12.6818
12.4217
12.1619
11.9027
11.6442
11.3863
11.1293
10.8732
10.6181
10.3641
10.1113
9.8599
9.6099
9.36145
9.11463
8.86958
8.62639
8.38517
8.14603
7.90908
7.67443
7.44218
7.21244
6.98531
6.7609
6.53931
6.32066
6.10504
5.89257
5.68336
5.47751
5.27516
5.07642
4.88144
4.69037
4.50337
4.32063
4.14238
3.96886
3.80039
3.63733
3.48012
3.32934
3.1857
3.05013
2.92388
2.80865
2.70685
2.62207
2.55991
2.52983
2.54937
2.656
2.94927
3.81562
8.53762
19.6018
10.0359
8.58118
8.33078
8.47286
8.79555
9.21656
9.69598
10.2116
10.7498
11.302
11.8624
12.4273
12.9939
13.5604
14.1254
14.6882
15.2478
15.8036
16.3551
16.9017
17.4428
17.9779
18.5062
19.0272
19.5401
20.0444
20.5392
21.024
21.4981
21.9607
22.4113
22.8493
23.274
23.6851
24.0821
24.4645
24.8319
25.1841
25.5207
25.8417
26.1467
26.4357
26.7087
26.9656
27.2065
27.4313
27.6403
27.8336
28.0112
28.1736
28.3207
28.453
28.5706
28.6739
28.7631
28.8386
28.9006
28.9496
28.9859
29.0098
29.0218
29.0221
29.0112
28.9894
28.9572
28.9148
28.8626
28.801
28.7304
28.6511
28.5635
28.4679
28.3645
28.2538
28.1361
28.0116
27.8807
27.7436
27.6006
27.452
27.298
27.1389
26.9749
26.8062
26.6331
26.4557
26.2743
26.0891
25.9001
25.7077
25.5119
25.3129
25.1109
24.9059
24.6982
24.4879
24.275
24.0597
23.8421
23.6223
23.4003
23.1764
22.9505
22.7227
22.4931
22.2618
22.0288
21.7943
21.5582
21.3206
21.0816
20.8412
20.5995
20.3565
20.1122
19.8668
19.6202
19.3725
19.1237
18.8738
18.623
18.3712
18.1186
17.865
17.6106
17.3554
17.0994
16.8427
16.5854
16.3274
16.0689
15.8098
15.5503
15.2903
15.03
14.7694
14.5086
14.2476
13.9864
13.7253
13.4642
13.2032
12.9424
12.6818
12.4217
12.1619
11.9027
11.6442
11.3863
11.1293
10.8732
10.6181
10.3641
10.1113
9.85991
9.60991
9.36145
9.11464
8.86958
8.62639
8.38517
8.14604
7.90909
7.67443
7.44218
7.21244
6.98531
6.7609
6.53932
6.32067
6.10505
5.89258
5.68336
5.47752
5.27516
5.07643
4.88145
4.69037
4.50337
4.32064
4.14238
3.96887
3.80039
3.63733
3.48012
3.32934
3.1857
3.05013
2.92388
2.80865
2.70686
2.62207
2.55991
2.52983
2.54937
2.656
2.94928
3.81566
8.53763
22.3008
11.3656
9.66653
9.33072
9.43459
9.73787
10.1477
10.6194
11.1282
11.6592
12.2028
12.7529
13.3053
13.8573
14.407
14.9531
15.4949
16.0316
16.563
17.0884
17.6077
18.1204
18.6261
19.1244
19.6149
20.0969
20.5701
21.0339
21.4877
21.9311
22.3633
22.7841
23.1927
23.5889
23.9721
24.3419
24.698
25.04
25.3677
25.6808
25.9792
26.2627
26.5312
26.7847
27.023
27.2463
27.4546
27.648
27.8266
27.9906
28.14
28.2752
28.3964
28.5037
28.5975
28.6779
28.7454
28.8002
28.8425
28.8728
28.8914
28.8986
28.8946
28.88
28.855
28.8199
28.7752
28.7211
28.6579
28.5861
28.5059
28.4177
28.3217
28.2183
28.1078
27.9905
27.8667
27.7365
27.6004
27.4586
27.3113
27.1587
27.0011
26.8388
26.6718
26.5005
26.3251
26.1457
25.9624
25.7756
25.5853
25.3917
25.195
24.9952
24.7926
24.5873
24.3793
24.1688
23.9559
23.7407
23.5234
23.3039
23.0824
22.859
22.6337
22.4066
22.1778
21.9474
21.7153
21.4818
21.2468
21.0103
20.7725
20.5334
20.293
20.0513