/*--------------------------------*- C++ -*----------------------------------*\
  =========                 |
  \\      /  F ield         | OpenFOAM: The Open Source CFD Toolbox
   \\    /   O peration     | Website:  https://openfoam.org
    \\  /    A nd           | Version:  8
     \\/     M anipulation  |
\*---------------------------------------------------------------------------*/
FoamFile
{
    version     2.0;
    format      ascii;
    class       volScalarField;
    location    "2100";
    object      k;
}
// * * * * * * * * * * * * * * * * * * * * * * * * * * * * * * * * * * * * * //

dimensions      [0 2 -2 0 0 0 0];

internalField   nonuniform List<scalar> 
48000
(
0.022167
0.0415427
0.0636348
0.083474
0.10175
0.118428
0.133936
0.1489
0.163162
0.176899
0.190204
0.203133
0.21573
0.228028
0.240051
0.251817
0.263337
0.274619
0.285667
0.296482
0.307065
0.317414
0.327526
0.337397
0.347024
0.356402
0.365528
0.374397
0.383005
0.39135
0.399428
0.407236
0.414774
0.422039
0.429031
0.435749
0.442195
0.448368
0.45427
0.459904
0.465271
0.470375
0.475218
0.479804
0.484138
0.488222
0.492061
0.495658
0.499029
0.502202
0.505156
0.507891
0.510413
0.512726
0.514837
0.516752
0.518478
0.520019
0.521382
0.522572
0.523595
0.524458
0.525164
0.52572
0.526132
0.526403
0.526539
0.526544
0.526425
0.526184
0.525827
0.525357
0.52478
0.524098
0.523316
0.522437
0.521465
0.520402
0.519254
0.518021
0.516708
0.515318
0.513852
0.512313
0.510704
0.509027
0.507285
0.505478
0.50361
0.501682
0.499696
0.497652
0.495554
0.493401
0.491196
0.48894
0.486633
0.484278
0.481874
0.479422
0.476924
0.47438
0.47179
0.469156
0.466478
0.463756
0.46099
0.458181
0.45533
0.452436
0.4495
0.446521
0.4435
0.440437
0.437332
0.434185
0.430996
0.427764
0.42449
0.421174
0.417815
0.414414
0.410969
0.407482
0.403951
0.400378
0.39676
0.393099
0.389395
0.385646
0.381854
0.378017
0.374136
0.370211
0.366241
0.362227
0.35817
0.354068
0.349921
0.345732
0.341498
0.337221
0.332901
0.328538
0.324133
0.319686
0.315198
0.310669
0.306099
0.30149
0.296843
0.292157
0.287434
0.282675
0.27788
0.273051
0.268189
0.263294
0.258369
0.253413
0.248428
0.243415
0.238376
0.233312
0.228223
0.223111
0.217978
0.212823
0.207648
0.202454
0.197242
0.192012
0.186764
0.1815
0.176219
0.17092
0.165604
0.160269
0.154914
0.149537
0.144136
0.138709
0.133255
0.127776
0.122305
0.116798
0.111216
0.105547
0.0997703
0.0938601
0.0877844
0.0814992
0.0749509
0.0681557
0.060948
0.0531468
0.044476
0.0344423
0.022231
0.0150405
0.0221674
0.041544
0.0636364
0.0834757
0.101751
0.11843
0.133938
0.148902
0.163164
0.176901
0.190206
0.203135
0.215732
0.22803
0.240053
0.251819
0.263339
0.27462
0.285668
0.296484
0.307067
0.317415
0.327527
0.337398
0.347025
0.356403
0.365529
0.374397
0.383006
0.39135
0.399428
0.407237
0.414775
0.42204
0.429032
0.43575
0.442195
0.448368
0.454271
0.459904
0.465272
0.470375
0.475218
0.479805
0.484138
0.488222
0.492061
0.495658
0.499029
0.502202
0.505156
0.507891
0.510413
0.512726
0.514837
0.516752
0.518478
0.520019
0.521381
0.522572
0.523595
0.524458
0.525164
0.52572
0.526131
0.526402
0.526538
0.526544
0.526425
0.526184
0.525827
0.525357
0.52478
0.524098
0.523316
0.522437
0.521464
0.520402
0.519253
0.518021
0.516708
0.515317
0.513851
0.512313
0.510704
0.509027
0.507284
0.505478
0.50361
0.501682
0.499695
0.497652
0.495553
0.493401
0.491196
0.48894
0.486633
0.484277
0.481873
0.479422
0.476924
0.474379
0.47179
0.469156
0.466477
0.463755
0.46099
0.458181
0.45533
0.452436
0.449499
0.446521
0.4435
0.440437
0.437332
0.434185
0.430995
0.427764
0.42449
0.421174
0.417815
0.414413
0.410969
0.407482
0.403951
0.400377
0.39676
0.393099
0.389395
0.385646
0.381853
0.378017
0.374136
0.37021
0.366241
0.362227
0.358169
0.354067
0.349921
0.345731
0.341498
0.337221
0.332901
0.328538
0.324133
0.319686
0.315198
0.310668
0.306099
0.30149
0.296842
0.292157
0.287434
0.282675
0.27788
0.273051
0.268189
0.263294
0.258368
0.253413
0.248428
0.243415
0.238376
0.233312
0.228223
0.223111
0.217978
0.212823
0.207648
0.202454
0.197242
0.192011
0.186764
0.1815
0.176218
0.17092
0.165604
0.160269
0.154914
0.149537
0.144136
0.138709
0.133255
0.127776
0.122305
0.116798
0.111216
0.105547
0.0997703
0.0938601
0.0877844
0.0814993
0.074951
0.0681557
0.0609482
0.0531473
0.0444772
0.0344444
0.022232
0.0150453
0.041912
0.105571
0.150981
0.191107
0.22799
0.262523
0.295203
0.326489
0.356638
0.385844
0.414253
0.441971
0.469077
0.495625
0.521657
0.547197
0.572263
0.596861
0.620994
0.644659
0.667849
0.690554
0.712764
0.734467
0.75565
0.776301
0.796408
0.815958
0.834943
0.853352
0.871178
0.888413
0.905051
0.92109
0.936527
0.95136
0.965589
0.979216
0.992244
1.00468
1.01652
1.02778
1.03846
1.04857
1.05812
1.06712
1.07558
1.0835
1.0909
1.09779
1.1042
1.11012
1.11557
1.12057
1.12513
1.12926
1.13297
1.13627
1.13919
1.14172
1.14389
1.14571
1.14718
1.14832
1.14915
1.14967
1.14989
1.14983
1.14949
1.14889
1.14803
1.14692
1.14558
1.14401
1.14222
1.14022
1.13802
1.13562
1.13303
1.13026
1.12731
1.1242
1.12092
1.11748
1.11389
1.11015
1.10626
1.10224
1.09809
1.0938
1.08939
1.08486
1.0802
1.07543
1.07055
1.06555
1.06045
1.05524
1.04992
1.0445
1.03899
1.03337
1.02766
1.02185
1.01594
1.00994
1.00385
0.997663
0.991386
0.985018
0.978558
0.972008
0.965368
0.958638
0.951817
0.944907
0.937906
0.930815
0.923633
0.916361
0.908998
0.901544
0.893999
0.886362
0.878632
0.870811
0.862897
0.85489
0.84679
0.838596
0.830309
0.821928
0.813453
0.804885
0.796223
0.787466
0.778617
0.769673
0.760637
0.751508
0.742287
0.732975
0.723572
0.714079
0.704496
0.694827
0.68507
0.675228
0.665302
0.655293
0.645204
0.635036
0.624791
0.614471
0.604078
0.593614
0.583082
0.572484
0.561822
0.5511
0.540319
0.529482
0.518593
0.507653
0.496665
0.485631
0.474555
0.463437
0.452282
0.441089
0.429862
0.4186
0.407307
0.395981
0.384622
0.373231
0.361806
0.350345
0.338844
0.3273
0.315706
0.304056
0.292341
0.280552
0.268675
0.256686
0.244545
0.232248
0.219753
0.207012
0.193966
0.180537
0.166622
0.152069
0.136741
0.120376
0.102614
0.0829292
0.0601846
0.0331639
0.0419132
0.105573
0.150982
0.191109
0.227991
0.262525
0.295204
0.32649
0.356639
0.385845
0.414254
0.441973
0.469078
0.495626
0.521657
0.547198
0.572263
0.596862
0.620995
0.64466
0.667849
0.690555
0.712765
0.734467
0.75565
0.776301
0.796408
0.815958
0.834943
0.853352
0.871177
0.888412
0.905051
0.92109
0.936526
0.951359
0.965588
0.979215
0.992243
1.00468
1.01652
1.02778
1.03846
1.04857
1.05812
1.06712
1.07558
1.0835
1.0909
1.09779
1.10419
1.11012
1.11557
1.12057
1.12513
1.12926
1.13296
1.13627
1.13918
1.14172
1.14389
1.1457
1.14718
1.14832
1.14915
1.14967
1.14989
1.14982
1.14949
1.14888
1.14803
1.14692
1.14558
1.14401
1.14222
1.14022
1.13802
1.13562
1.13303
1.13026
1.12731
1.1242
1.12091
1.11748
1.11388
1.11015
1.10626
1.10224
1.09809
1.0938
1.08939
1.08485
1.0802
1.07543
1.07054
1.06555
1.06044
1.05523
1.04992
1.0445
1.03898
1.03337
1.02765
1.02184
1.01594
1.00994
1.00385
0.997661
0.991384
0.985016
0.978557
0.972007
0.965367
0.958636
0.951816
0.944905
0.937904
0.930813
0.923632
0.91636
0.908997
0.901543
0.893997
0.88636
0.878631
0.870809
0.862895
0.854888
0.846788
0.838595
0.830308
0.821927
0.813452
0.804884
0.796221
0.787465
0.778615
0.769672
0.760636
0.751507
0.742286
0.732974
0.72357
0.714077
0.704495
0.694825
0.685069
0.675227
0.665301
0.655292
0.645203
0.635035
0.62479
0.61447
0.604076
0.593613
0.583081
0.572483
0.561821
0.551099
0.540318
0.529482
0.518592
0.507652
0.496664
0.48563
0.474554
0.463437
0.452281
0.441088
0.429861
0.4186
0.407306
0.39598
0.384622
0.373231
0.361806
0.350344
0.338843
0.327299
0.315705
0.304055
0.29234
0.280551
0.268675
0.256685
0.244544
0.232248
0.219753
0.207011
0.193965
0.180537
0.166621
0.152069
0.136741
0.120375
0.102614
0.0829306
0.0601922
0.033164
0.062804
0.150631
0.20768
0.256298
0.301134
0.34353
0.384076
0.423139
0.46096
0.497721
0.533557
0.568573
0.60285
0.636447
0.669404
0.70175
0.733502
0.764669
0.79525
0.825242
0.854635
0.883417
0.911574
0.93909
0.96595
0.992136
1.01764
1.04243
1.06651
1.08986
1.11247
1.13433
1.15544
1.17578
1.19536
1.21418
1.23223
1.24951
1.26604
1.2818
1.29682
1.31109
1.32464
1.33745
1.34956
1.36096
1.37167
1.38171
1.39109
1.39981
1.40792
1.41541
1.42231
1.42862
1.43437
1.43958
1.44425
1.44841
1.45206
1.45524
1.45794
1.4602
1.46202
1.46341
1.46441
1.46501
1.46523
1.46508
1.46459
1.46376
1.4626
1.46113
1.45936
1.4573
1.45495
1.45234
1.44947
1.44634
1.44298
1.43938
1.43556
1.43153
1.42728
1.42284
1.4182
1.41337
1.40836
1.40318
1.39782
1.3923
1.38662
1.38079
1.3748
1.36866
1.36238
1.35596
1.3494
1.34271
1.33589
1.32894
1.32186
1.31465
1.30732
1.29988
1.29231
1.28462
1.27682
1.2689
1.26086
1.25271
1.24444
1.23606
1.22757
1.21897
1.21025
1.20141
1.19247
1.18341
1.17424
1.16495
1.15556
1.14604
1.13642
1.12667
1.11682
1.10684
1.09676
1.08655
1.07623
1.06579
1.05524
1.04457
1.03378
1.02287
1.01185
1.00071
0.989457
0.978085
0.966597
0.954993
0.943276
0.931444
0.9195
0.907444
0.895278
0.883002
0.87062
0.858131
0.845539
0.832844
0.82005
0.807158
0.794171
0.781092
0.767923
0.754667
0.741327
0.727906
0.714408
0.700834
0.68719
0.673477
0.6597
0.645861
0.631964
0.618012
0.604008
0.589955
0.575856
0.561712
0.547527
0.533301
0.519036
0.504732
0.490391
0.47601
0.461589
0.447124
0.432613
0.418049
0.403427
0.388738
0.37397
0.359112
0.344146
0.329046
0.313785
0.298331
0.28264
0.266663
0.250345
0.233598
0.216315
0.198345
0.179511
0.159535
0.13796
0.113857
0.0843858
0.0363654
0.0628056
0.150633
0.207682
0.256299
0.301134
0.34353
0.384077
0.423139
0.460961
0.497721
0.533557
0.568573
0.60285
0.636447
0.669404
0.70175
0.733502
0.764668
0.79525
0.825242
0.854634
0.883416
0.911573
0.939089
0.965949
0.992136
1.01763
1.04243
1.06651
1.08986
1.11247
1.13433
1.15544
1.17578
1.19536
1.21418
1.23223
1.24951
1.26603
1.2818
1.29682
1.31109
1.32463
1.33745
1.34955
1.36096
1.37167
1.38171
1.39108
1.39981
1.40792
1.41541
1.42231
1.42862
1.43437
1.43958
1.44425
1.4484
1.45206
1.45523
1.45794
1.4602
1.46201
1.46341
1.4644
1.465
1.46523
1.46508
1.46459
1.46376
1.4626
1.46113
1.45936
1.45729
1.45495
1.45234
1.44946
1.44634
1.44298
1.43938
1.43556
1.43153
1.42728
1.42284
1.4182
1.41337
1.40836
1.40318
1.39782
1.3923
1.38662
1.38078
1.3748
1.36866
1.36238
1.35596
1.3494
1.34271
1.33589
1.32893
1.32185
1.31465
1.30732
1.29987
1.29231
1.28462
1.27681
1.26889
1.26086
1.25271
1.24444
1.23606
1.22757
1.21896
1.21024
1.20141
1.19247
1.18341
1.17424
1.16495
1.15555
1.14604
1.13641
1.12667
1.11681
1.10684
1.09675
1.08655
1.07623
1.06579
1.05524
1.04457
1.03378
1.02287
1.01185
1.00071
0.989455
0.978083
0.966595
0.954992
0.943274
0.931443
0.919498
0.907442
0.895276
0.883001
0.870618
0.85813
0.845537
0.832843
0.820049
0.807157
0.79417
0.781091
0.767922
0.754666
0.741326
0.727905
0.714406
0.700833
0.687189
0.673476
0.659699
0.64586
0.631963
0.618011
0.604007
0.589954
0.575855
0.561711
0.547526
0.5333
0.519035
0.504731
0.49039
0.476009
0.461588
0.447123
0.432612
0.418048
0.403426
0.388737
0.37397
0.359112
0.344145
0.329046
0.313785
0.298331
0.282639
0.266663
0.250345
0.233598
0.216314
0.198344
0.17951
0.159534
0.137958
0.113855
0.0843872
0.0363638
0.0809655
0.188847
0.255268
0.310396
0.360898
0.408701
0.454571
0.498901
0.541929
0.583822
0.624705
0.664675
0.703809
0.742162
0.779779
0.816689
0.85291
0.888453
0.923319
0.957504
0.991001
1.0238
1.05588
1.08722
1.11782
1.14766
1.17671
1.20496
1.23239
1.259
1.28476
1.30968
1.33374
1.35693
1.37925
1.40071
1.42129
1.441
1.45984
1.47783
1.49496
1.51125
1.5267
1.54132
1.55513
1.56815
1.58037
1.59183
1.60253
1.6125
1.62175
1.6303
1.63817
1.64537
1.65193
1.65786
1.66319
1.66792
1.67208
1.67568
1.67875
1.68131
1.68336
1.68492
1.68603
1.68668
1.68689
1.68669
1.68609
1.68509
1.68372
1.68199
1.67992
1.67751
1.67478
1.67173
1.66839
1.66476
1.66086
1.65668
1.65225
1.64757
1.64265
1.6375
1.63213
1.62654
1.62074
1.61474
1.60854
1.60215
1.59558
1.58883
1.58191
1.57481
1.56755
1.56013
1.55255
1.54482
1.53694
1.52891
1.52073
1.51241
1.50395
1.49535
1.48662
1.47774
1.46874
1.4596
1.45033
1.44092
1.43139
1.42173
1.41194
1.40201
1.39196
1.38179
1.37148
1.36104
1.35047
1.33978
1.32895
1.318
1.30692
1.2957
1.28435
1.27288
1.26127
1.24953
1.23766
1.22565
1.21352
1.20125
1.18885
1.17631
1.16364
1.15085
1.13791
1.12485
1.11166
1.09833
1.08488
1.0713
1.05759
1.04376
1.0298
1.01572
1.00151
0.987191
0.972752
0.958198
0.943532
0.928757
0.913875
0.898889
0.883803
0.868619
0.853341
0.837972
0.822516
0.806977
0.791359
0.775664
0.759897
0.744062
0.728162
0.7122
0.696181
0.680107
0.663982
0.647807
0.631586
0.615321
0.599012
0.582661
0.566268
0.549833
0.533353
0.516826
0.500248
0.483614
0.466918
0.450149
0.433298
0.41635
0.399286
0.382085
0.364718
0.347153
0.329348
0.311254
0.292807
0.273922
0.254502
0.234396
0.213392
0.191187
0.167198
0.14013
0.105951
0.0468132
0.0809673
0.188849
0.25527
0.310397
0.360899
0.408701
0.454571
0.498901
0.541929
0.583821
0.624704
0.664675
0.703808
0.742162
0.779779
0.816688
0.85291
0.888452
0.923318
0.957503
0.991
1.0238
1.05588
1.08722
1.11782
1.14766
1.1767
1.20495
1.23239
1.259
1.28476
1.30968
1.33373
1.35693
1.37925
1.4007
1.42128
1.441
1.45984
1.47783
1.49496
1.51124
1.52669
1.54132
1.55513
1.56814
1.58037
1.59183
1.60253
1.6125
1.62175
1.6303
1.63817
1.64537
1.65193
1.65786
1.66318
1.66792
1.67208
1.67568
1.67875
1.6813
1.68335
1.68492
1.68602
1.68667
1.68689
1.68669
1.68608
1.68509
1.68372
1.68199
1.67992
1.67751
1.67477
1.67173
1.66839
1.66476
1.66085
1.65668
1.65225
1.64757
1.64265
1.6375
1.63213
1.62654
1.62074
1.61473
1.60854
1.60215
1.59558
1.58883
1.5819
1.57481
1.56755
1.56013
1.55255
1.54482
1.53694
1.52891
1.52073
1.51241
1.50395
1.49535
1.48661
1.47774
1.46874
1.4596
1.45033
1.44092
1.43139
1.42173
1.41193
1.40201
1.39196
1.38178
1.37148
1.36104
1.35047
1.33978
1.32895
1.318
1.30691
1.2957
1.28435
1.27288
1.26127
1.24953
1.23766
1.22565
1.21352
1.20125
1.18884
1.17631
1.16364
1.15084
1.13791
1.12485
1.11166
1.09833
1.08488
1.0713
1.05759
1.04376
1.0298
1.01571
1.00151
0.987189
0.97275
0.958197
0.943531
0.928756
0.913874
0.898888
0.883801
0.868617
0.853339
0.837971
0.822515
0.806976
0.791358
0.775663
0.759896
0.744061
0.728161
0.712199
0.69618
0.680106
0.663981
0.647806
0.631585
0.61532
0.599011
0.582661
0.566268
0.549832
0.533352
0.516825
0.500247
0.483614
0.466917
0.450149
0.433297
0.416349
0.399286
0.382085
0.364718
0.347153
0.329348
0.311254
0.292807
0.273922
0.254501
0.234396
0.213391
0.191186
0.167198
0.140131
0.105953
0.0468131
0.0971747
0.223723
0.298991
0.360183
0.415693
0.46806
0.518287
0.566851
0.614016
0.659955
0.704789
0.748611
0.791496
0.833501
0.874671
0.915038
0.954624
0.993443
1.0315
1.0688
1.10533
1.14108
1.17604
1.21019
1.24353
1.27603
1.30767
1.33844
1.36833
1.39731
1.42538
1.45253
1.47875
1.50403
1.52836
1.55175
1.5742
1.5957
1.61626
1.63589
1.65459
1.67237
1.68924
1.70521
1.7203
1.73452
1.74789
1.76042
1.77212
1.78302
1.79314
1.8025
1.81111
1.819
1.82618
1.83267
1.8385
1.84368
1.84823
1.85218
1.85554
1.85833
1.86057
1.86228
1.86348
1.86418
1.86441
1.86417
1.86349
1.86239
1.86087
1.85895
1.85665
1.85399
1.85097
1.8476
1.84391
1.8399
1.83558
1.83097
1.82607
1.8209
1.81546
1.80977
1.80383
1.79765
1.79125
1.78461
1.77777
1.77071
1.76345
1.75599
1.74833
1.74049
1.73247
1.72427
1.7159
1.70735
1.69864
1.68977
1.68073
1.67154
1.66219
1.65269
1.64303
1.63323
1.62328
1.61318
1.60294
1.59255
1.58202
1.57135
1.56053
1.54957
1.53847
1.52723
1.51585
1.50432
1.49266
1.48085
1.4689
1.4568
1.44457
1.43219
1.41967
1.40701
1.3942
1.38124
1.36815
1.35491
1.34152
1.32799
1.31431
1.30049
1.28653
1.27242
1.25816
1.24377
1.22923
1.21455
1.19973
1.18476
1.16966
1.15443
1.13905
1.12355
1.10791
1.09214
1.07625
1.06023
1.04409
1.02783
1.01146
0.994972
0.978375
0.961673
0.944869
0.927967
0.91097
0.893883
0.876709
0.859453
0.842119
0.82471
0.80723
0.789684
0.772075
0.754407
0.736682
0.718904
0.701075
0.683197
0.665273
0.647302
0.629286
0.611224
0.593114
0.574954
0.55674
0.538468
0.52013
0.501718
0.483221
0.464626
0.445914
0.427065
0.408052
0.388844
0.369401
0.349675
0.329603
0.309104
0.288069
0.266342
0.243682
0.219729
0.193762
0.164129
0.125755
0.0564358
0.0971767
0.223725
0.298992
0.360184
0.415693
0.46806
0.518287
0.56685
0.614016
0.659954
0.704788
0.748611
0.791495
0.833501
0.87467
0.915037
0.954623
0.993442
1.0315
1.0688
1.10532
1.14108
1.17604
1.21019
1.24353
1.27603
1.30767
1.33844
1.36832
1.39731
1.42538
1.45253
1.47875
1.50403
1.52836
1.55175
1.5742
1.5957
1.61626
1.63589
1.65458
1.67236
1.68924
1.70521
1.7203
1.73452
1.74789
1.76041
1.77212
1.78302
1.79314
1.8025
1.81111
1.819
1.82618
1.83267
1.8385
1.84368
1.84823
1.85218
1.85554
1.85833
1.86057
1.86228
1.86348
1.86418
1.86441
1.86417
1.86349
1.86239
1.86087
1.85895
1.85665
1.85399
1.85096
1.8476
1.84391
1.83989
1.83558
1.83096
1.82607
1.8209
1.81546
1.80977
1.80383
1.79765
1.79124
1.78461
1.77776
1.77071
1.76344
1.75599
1.74833
1.74049
1.73247
1.72427
1.7159
1.70735
1.69864
1.68977
1.68073
1.67154
1.66219
1.65269
1.64303
1.63323
1.62328
1.61318
1.60294
1.59255
1.58202
1.57135
1.56053
1.54957
1.53847
1.52723
1.51585
1.50432
1.49265
1.48085
1.4689
1.4568
1.44457
1.43219
1.41967
1.407
1.3942
1.38124
1.36815
1.3549
1.34152
1.32799
1.31431
1.30049
1.28653
1.27242
1.25816
1.24377
1.22923
1.21455
1.19972
1.18476
1.16966
1.15443
1.13905
1.12355
1.10791
1.09214
1.07625
1.06023
1.04409
1.02783
1.01146
0.994971
0.978375
0.961672
0.944868
0.927966
0.910969
0.893882
0.876708
0.859452
0.842118
0.824709
0.807229
0.789683
0.772074
0.754406
0.736681
0.718903
0.701074
0.683197
0.665272
0.647302
0.629285
0.611223
0.593113
0.574953
0.55674
0.538468
0.52013
0.501718
0.483221
0.464625
0.445913
0.427064
0.408052
0.388843
0.369401
0.349675
0.329603
0.309104
0.288069
0.266342
0.243682
0.219729
0.193762
0.16413
0.125755
0.0564359
0.112116
0.25648
0.340529
0.40771
0.468033
0.524635
0.578779
0.631058
0.681787
0.73116
0.779307
0.826325
0.872292
0.917267
0.961301
1.00443
1.04668
1.08808
1.12862
1.16833
1.2072
1.24521
1.28238
1.31867
1.35408
1.38859
1.42219
1.45486
1.48659
1.51737
1.54718
1.57602
1.60386
1.63072
1.65658
1.68144
1.7053
1.72816
1.75004
1.77092
1.79082
1.80975
1.82771
1.84473
1.86082
1.87598
1.89023
1.9036
1.91609
1.92774
1.93855
1.94855
1.95775
1.96619
1.97387
1.98082
1.98706
1.99261
1.9975
2.00173
2.00534
2.00833
2.01075
2.01259
2.01388
2.01465
2.0149
2.01466
2.01394
2.01276
2.01114
2.0091
2.00664
2.00378
2.00054
1.99694
1.99298
1.98867
1.98404
1.97909
1.97383
1.96828
1.96244
1.95632
1.94994
1.9433
1.9364
1.92927
1.9219
1.91431
1.9065
1.89847
1.89023
1.88179
1.87315
1.86432
1.8553
1.8461
1.83672
1.82716
1.81742
1.80752
1.79744
1.7872
1.7768
1.76624
1.75551
1.74463
1.73359
1.72239
1.71104
1.69953
1.68787
1.67606
1.6641
1.65198
1.63971
1.62728
1.61471
1.60198
1.5891
1.57606
1.56287
1.54953
1.53604
1.52239
1.50859
1.49463
1.48051
1.46625
1.45182
1.43724
1.42251
1.40762
1.39258
1.37738
1.36203
1.34652
1.33087
1.31506
1.2991
1.28299
1.26673
1.25033
1.23378
1.21709
1.20026
1.18329
1.16619
1.14895
1.13158
1.11409
1.09647
1.07874
1.06088
1.04291
1.02484
1.00666
0.988374
0.969994
0.951521
0.93296
0.914315
0.895589
0.876788
0.857914
0.838971
0.819964
0.800896
0.781769
0.762587
0.743351
0.724064
0.704727
0.685339
0.665901
0.646412
0.626869
0.607269
0.587608
0.567879
0.548073
0.528181
0.50819
0.488084
0.467842
0.44744
0.426848
0.406027
0.38493
0.363494
0.341635
0.319237
0.296127
0.272038
0.246515
0.218701
0.186607
0.144213
0.0652974
0.112118
0.256482
0.34053
0.407711
0.468033
0.524635
0.578779
0.631057
0.681787
0.731159
0.779306
0.826324
0.872291
0.917266
0.9613
1.00443
1.04668
1.08808
1.12862
1.16833
1.2072
1.24521
1.28237
1.31867
1.35408
1.38859
1.42219
1.45486
1.48659
1.51737
1.54718
1.57601
1.60386
1.63072
1.65658
1.68144
1.7053
1.72816
1.75003
1.77092
1.79082
1.80975
1.82771
1.84473
1.86081
1.87598
1.89023
1.9036
1.91609
1.92773
1.93855
1.94854
1.95775
1.96619
1.97387
1.98082
1.98706
1.99261
1.99749
2.00173
2.00533
2.00833
2.01074
2.01259
2.01388
2.01465
2.0149
2.01466
2.01394
2.01276
2.01114
2.00909
2.00664
2.00378
2.00054
1.99694
1.99298
1.98867
1.98404
1.97909
1.97383
1.96828
1.96243
1.95632
1.94993
1.94329
1.9364
1.92927
1.9219
1.91431
1.90649
1.89847
1.89023
1.88179
1.87315
1.86432
1.8553
1.8461
1.83671
1.82715
1.81742
1.80751
1.79744
1.7872
1.7768
1.76623
1.75551
1.74463
1.73359
1.72239
1.71104
1.69953
1.68787
1.67606
1.66409
1.65198
1.6397
1.62728
1.61471
1.60198
1.5891
1.57606
1.56287
1.54953
1.53604
1.52239
1.50858
1.49463
1.48051
1.46625
1.45182
1.43724
1.42251
1.40762
1.39258
1.37738
1.36203
1.34652
1.33087
1.31506
1.2991
1.28299
1.26673
1.25033
1.23378
1.21709
1.20026
1.18329
1.16619
1.14895
1.13158
1.11409
1.09647
1.07874
1.06088
1.04291
1.02484
1.00666
0.988373
0.969993
0.951521
0.93296
0.914314
0.895589
0.876787
0.857913
0.838971
0.819964
0.800895
0.781769
0.762586
0.743351
0.724064
0.704726
0.685338
0.665901
0.646411
0.626869
0.607269
0.587608
0.567878
0.548073
0.528181
0.50819
0.488084
0.467842
0.44744
0.426848
0.406027
0.38493
0.363494
0.341635
0.319237
0.296127
0.272038
0.246515
0.218701
0.186608
0.144213
0.0652974
0.126822
0.288045
0.380748
0.453887
0.518954
0.579646
0.637479
0.693176
0.747119
0.799536
0.850575
0.900346
0.948933
0.996405
1.04282
1.08822
1.13264
1.1761
1.21864
1.26025
1.30094
1.34072
1.37958
1.41752
1.45451
1.49056
1.52565
1.55976
1.59289
1.62502
1.65615
1.68625
1.71533
1.74338
1.7704
1.79637
1.82131
1.84522
1.86809
1.88993
1.91076
1.93058
1.94939
1.96723
1.98408
1.99998
2.01494
2.02897
2.04209
2.05432
2.06569
2.07621
2.0859
2.09478
2.10288
2.11021
2.1168
2.12266
2.12782
2.13231
2.13613
2.13932
2.14189
2.14386
2.14525
2.14608
2.14638
2.14616
2.14543
2.14421
2.14253
2.1404
2.13783
2.13484
2.13145
2.12767
2.12351
2.11899
2.11411
2.1089
2.10336
2.09751
2.09136
2.08491
2.07817
2.07116
2.06389
2.05635
2.04857
2.04055
2.03229
2.0238
2.01509
2.00616
1.99702
1.98768
1.97813
1.96839
1.95845
1.94833
1.93801
1.92752
1.91685
1.906
1.89497
1.88378
1.87241
1.86087
1.84916
1.83729
1.82525
1.81305
1.80069
1.78816
1.77546
1.76261
1.74959
1.73641
1.72307
1.70956
1.6959
1.68207
1.66808
1.65392
1.6396
1.62512
1.61047
1.59566
1.58069
1.56555
1.55024
1.53478
1.51914
1.50335
1.48739
1.47126
1.45498
1.43853
1.42192
1.40515
1.38822
1.37114
1.35389
1.3365
1.31895
1.30124
1.2834
1.2654
1.24726
1.22898
1.21057
1.19202
1.17333
1.15453
1.13559
1.11654
1.09737
1.07809
1.0587
1.03921
1.01962
0.999934
0.980158
0.960295
0.940349
0.920326
0.900227
0.880059
0.859822
0.839522
0.81916
0.798739
0.778261
0.757726
0.737137
0.716491
0.69579
0.67503
0.654209
0.633322
0.612365
0.591328
0.570203
0.548978
0.527638
0.506163
0.484531
0.462712
0.440669
0.418352
0.395697
0.372614
0.348976
0.324589
0.299145
0.272114
0.24249
0.207976
0.161671
0.0736213
0.126825
0.288047
0.380749
0.453887
0.518954
0.579645
0.637479
0.693175
0.747118
0.799535
0.850574
0.900345
0.948932
0.996404
1.04282
1.08822
1.13263
1.1761
1.21863
1.26025
1.30094
1.34072
1.37958
1.41751
1.45451
1.49056
1.52565
1.55976
1.59289
1.62502
1.65615
1.68625
1.71533
1.74338
1.7704
1.79637
1.82131
1.84522
1.86809
1.88993
1.91076
1.93058
1.94939
1.96722
1.98408
1.99998
2.01494
2.02897
2.04209
2.05432
2.06569
2.07621
2.0859
2.09478
2.10288
2.11021
2.11679
2.12266
2.12782
2.13231
2.13613
2.13932
2.14188
2.14386
2.14525
2.14608
2.14638
2.14615
2.14543
2.14421
2.14253
2.1404
2.13783
2.13484
2.13145
2.12767
2.12351
2.11898
2.11411
2.1089
2.10336
2.09751
2.09135
2.0849
2.07817
2.07116
2.06389
2.05635
2.04857
2.04055
2.03229
2.0238
2.01509
2.00616
1.99702
1.98767
1.97813
1.96839
1.95845
1.94832
1.93801
1.92752
1.91685
1.906
1.89497
1.88377
1.87241
1.86087
1.84916
1.83729
1.82525
1.81305
1.80068
1.78815
1.77546
1.76261
1.74959
1.73641
1.72307
1.70956
1.6959
1.68207
1.66807
1.65392
1.6396
1.62512
1.61047
1.59566
1.58069
1.56555
1.55024
1.53478
1.51914
1.50335
1.48739
1.47126
1.45498
1.43853
1.42192
1.40515
1.38822
1.37114
1.35389
1.33649
1.31894
1.30124
1.28339
1.2654
1.24726
1.22898
1.21057
1.19202
1.17333
1.15452
1.13559
1.11654
1.09737
1.07809
1.0587
1.03921
1.01962
0.999934
0.980157
0.960294
0.940349
0.920325
0.900227
0.880058
0.859822
0.839521
0.819159
0.798738
0.77826
0.757726
0.737136
0.716491
0.69579
0.67503
0.654209
0.633322
0.612364
0.591328
0.570203
0.548978
0.527637
0.506163
0.484531
0.462712
0.440668
0.418352
0.395697
0.372614
0.348976
0.324589
0.299146
0.272114
0.24249
0.207976
0.161671
0.0736213
0.141161
0.318905
0.42014
0.499212
0.568993
0.633695
0.695082
0.754007
0.810927
0.866113
0.919742
0.97194
1.02281
1.07242
1.12084
1.16813
1.21434
1.25949
1.30362
1.34675
1.38888
1.43003
1.4702
1.50939
1.54759
1.5848
1.621
1.65619
1.69036
1.7235
1.7556
1.78665
1.81665
1.84558
1.87346
1.90027
1.92601
1.95069
1.97432
1.99689
2.01842
2.03891
2.05837
2.07683
2.09428
2.11075
2.12625
2.1408
2.15442
2.16712
2.17893
2.18987
2.19995
2.2092
2.21763
2.22528
2.23216
2.23829
2.24369
2.2484
2.25241
2.25577
2.25848
2.26058
2.26207
2.26299
2.26334
2.26315
2.26243
2.26121
2.2595
2.25732
2.25469
2.25161
2.24812
2.24421
2.23991
2.23522
2.23017
2.22477
2.21902
2.21294
2.20654
2.19983
2.19283
2.18553
2.17795
2.1701
2.16199
2.15362
2.145
2.13614
2.12705
2.11773
2.10818
2.09842
2.08844
2.07826
2.06787
2.05728
2.04649
2.03551
2.02434
2.01299
2.00144
1.98972
1.97781
1.96573
1.95346
1.94103
1.92841
1.91562
1.90266
1.88953
1.87622
1.86275
1.8491
1.83528
1.82128
1.80712
1.79279
1.77828
1.7636
1.74875
1.73373
1.71854
1.70317
1.68763
1.67192
1.65603
1.63998
1.62375
1.60734
1.59077
1.57402
1.5571
1.54001
1.52275
1.50532
1.48773
1.46996
1.45203
1.43394
1.41568
1.39726
1.37869
1.35996
1.34108
1.32204
1.30286
1.28353
1.26406
1.24446
1.22472
1.20484
1.18485
1.16472
1.14448
1.12413
1.10366
1.08309
1.06242
1.04165
1.02078
0.99983
0.978791
0.957671
0.936473
0.9152
0.893856
0.872443
0.850964
0.829421
0.807814
0.786146
0.764415
0.742622
0.720764
0.698839
0.676843
0.654771
0.632617
0.61037
0.588021
0.565555
0.542954
0.520195
0.497249
0.474078
0.450632
0.42684
0.402605
0.377785
0.352164
0.325392
0.296864
0.26542
0.22848
0.178326
0.0815907
0.141164
0.318907
0.420141
0.499212
0.568993
0.633695
0.695081
0.754006
0.810926
0.866112
0.919741
0.971939
1.0228
1.07242
1.12084
1.16813
1.21434
1.25949
1.30362
1.34675
1.38888
1.43003
1.4702
1.50939
1.54759
1.5848
1.621
1.65619
1.69036
1.7235
1.7556
1.78665
1.81665
1.84558
1.87346
1.90027
1.92601
1.95069
1.97432
1.99689
2.01841
2.03891
2.05837
2.07682
2.09428
2.11075
2.12625
2.1408
2.15442
2.16712
2.17893
2.18987
2.19995
2.2092
2.21763
2.22528
2.23216
2.23829
2.24369
2.24839
2.25241
2.25577
2.25848
2.26058
2.26207
2.26298
2.26334
2.26315
2.26243
2.26121
2.2595
2.25732
2.25469
2.25161
2.24811
2.24421
2.23991
2.23522
2.23017
2.22477
2.21902
2.21294
2.20654
2.19983
2.19282
2.18553
2.17795
2.1701
2.16199
2.15362
2.145
2.13614
2.12705
2.11773
2.10818
2.09842
2.08844
2.07826
2.06787
2.05728
2.04649
2.03551
2.02434
2.01298
2.00144
1.98972
1.97781
1.96573
1.95346
1.94102
1.92841
1.91562
1.90266
1.88953
1.87622
1.86274
1.8491
1.83527
1.82128
1.80712
1.79278
1.77828
1.7636
1.74875
1.73373
1.71854
1.70317
1.68763
1.67192
1.65603
1.63998
1.62375
1.60734
1.59077
1.57402
1.5571
1.54001
1.52275
1.50532
1.48772
1.46996
1.45203
1.43394
1.41568
1.39726
1.37869
1.35996
1.34108
1.32204
1.30286
1.28353
1.26406
1.24446
1.22472
1.20484
1.18485
1.16472
1.14448
1.12413
1.10366
1.08309
1.06242
1.04165
1.02078
0.99983
0.978791
0.95767
0.936472
0.915199
0.893855
0.872442
0.850963
0.82942
0.807814
0.786145
0.764415
0.742621
0.720763
0.698839
0.676843
0.654771
0.632616
0.61037
0.588021
0.565555
0.542954
0.520195
0.497249
0.474078
0.450632
0.42684
0.402605
0.377785
0.352164
0.325392
0.296864
0.26542
0.228481
0.178326
0.0815908
0.155278
0.349314
0.459008
0.544
0.618479
0.687141
0.751988
0.814003
0.873724
0.93147
0.987454
1.04182
1.0947
1.14616
1.19631
1.24519
1.29288
1.33941
1.38482
1.42914
1.4724
1.5146
1.55577
1.5959
1.63499
1.67305
1.71007
1.74604
1.78096
1.81482
1.84762
1.87934
1.90999
1.93956
1.96805
1.99545
2.02177
2.04701
2.07118
2.09428
2.11632
2.1373
2.15725
2.17616
2.19406
2.21096
2.22688
2.24183
2.25583
2.26889
2.28105
2.29231
2.3027
2.31225
2.32096
2.32886
2.33598
2.34234
2.34795
2.35284
2.35702
2.36053
2.36338
2.3656
2.36719
2.36819
2.36861
2.36846
2.36778
2.36658
2.36487
2.36267
2.36
2.35688
2.35332
2.34933
2.34493
2.34014
2.33497
2.32942
2.32352
2.31727
2.31069
2.30379
2.29658
2.28906
2.28125
2.27315
2.26478
2.25615
2.24725
2.2381
2.2287
2.21906
2.20919
2.19909
2.18876
2.17822
2.16746
2.15649
2.14532
2.13394
2.12236
2.11058
2.09861
2.08645
2.0741
2.06156
2.04883
2.03592
2.02282
2.00955
1.99608
1.98244
1.96862
1.95462
1.94043
1.92607
1.91153
1.89681
1.8819
1.86682
1.85156
1.83612
1.8205
1.8047
1.78871
1.77255
1.75621
1.73968
1.72298
1.70609
1.68903
1.67178
1.65436
1.63675
1.61897
1.60101
1.58287
1.56456
1.54607
1.52741
1.50858
1.48957
1.4704
1.45107
1.43157
1.41191
1.3921
1.37213
1.352
1.33173
1.31132
1.29076
1.27006
1.24923
1.22827
1.20718
1.18598
1.16465
1.14321
1.12166
1.1
1.07825
1.05639
1.03444
1.01241
0.990285
0.968079
0.945793
0.92343
0.900993
0.878482
0.8559
0.833248
0.810524
0.78773
0.764864
0.741923
0.718904
0.695803
0.672613
0.649325
0.62593
0.602414
0.578759
0.554942
0.530934
0.506695
0.482171
0.457286
0.431935
0.405958
0.379114
0.35101
0.320969
0.287697
0.248328
0.194376
0.0892151
0.155281
0.349316
0.459009
0.544
0.618479
0.687141
0.751987
0.814002
0.873723
0.931469
0.987453
1.04182
1.09469
1.14616
1.19631
1.24519
1.29288
1.33941
1.38482
1.42914
1.4724
1.5146
1.55577
1.5959
1.63499
1.67305
1.71007
1.74604
1.78096
1.81482
1.84762
1.87934
1.90999
1.93956
1.96805
1.99545
2.02177
2.04701
2.07118
2.09428
2.11632
2.1373
2.15725
2.17616
2.19406
2.21096
2.22688
2.24183
2.25582
2.26889
2.28105
2.29231
2.3027
2.31224
2.32096
2.32886
2.33598
2.34234
2.34795
2.35283
2.35702
2.36053
2.36338
2.36559
2.36719
2.36819
2.3686
2.36846
2.36778
2.36658
2.36487
2.36267
2.36
2.35688
2.35332
2.34933
2.34493
2.34014
2.33496
2.32942
2.32352
2.31727
2.31069
2.30379
2.29658
2.28906
2.28125
2.27315
2.26478
2.25615
2.24725
2.2381
2.2287
2.21906
2.20919
2.19909
2.18876
2.17822
2.16746
2.15649
2.14531
2.13394
2.12236
2.11058
2.09861
2.08645
2.0741
2.06156
2.04883
2.03592
2.02282
2.00955
1.99608
1.98244
1.96862
1.95462
1.94043
1.92607
1.91153
1.8968
1.8819
1.86682