/*--------------------------------*- C++ -*----------------------------------*\
  =========                 |
  \\      /  F ield         | OpenFOAM: The Open Source CFD Toolbox
   \\    /   O peration     | Website:  https://openfoam.org
    \\  /    A nd           | Version:  8
     \\/     M anipulation  |
\*---------------------------------------------------------------------------*/
FoamFile
{
    version     2.0;
    format      ascii;
    class       surfaceScalarField;
    location    "2100";
    object      phi;
}
// * * * * * * * * * * * * * * * * * * * * * * * * * * * * * * * * * * * * * //

dimensions      [1 0 -1 0 0 0 0];

internalField   nonuniform List<scalar> 
119360
(
-3.01314e-07
-1.25771e-11
3.01327e-07
-4.91339e-07
-1.87588e-12
1.90147e-07
-5.51556e-07
-1.16213e-12
6.02633e-08
-5.05494e-07
-1.36448e-12
-4.60241e-08
-3.8687e-07
-1.66519e-12
-1.18588e-07
-2.22056e-07
-1.85948e-12
-1.64779e-07
-2.92335e-08
-1.90451e-12
-1.92787e-07
1.78785e-07
-1.77533e-12
-2.07985e-07
3.93096e-07
-1.5675e-12
-2.14278e-07
6.08205e-07
-1.40913e-12
-2.1508e-07
8.20475e-07
-1.31607e-12
-2.12243e-07
1.02749e-06
-1.27369e-12
-2.06991e-07
1.22766e-06
-1.27502e-12
-2.00142e-07
1.41993e-06
-1.3048e-12
-1.92255e-07
1.60367e-06
-1.34269e-12
-1.83721e-07
1.77851e-06
-1.36834e-12
-1.74821e-07
1.94429e-06
-1.36296e-12
-1.65755e-07
2.10098e-06
-1.31463e-12
-1.56671e-07
2.24867e-06
-1.2224e-12
-1.47675e-07
2.38754e-06
-1.09525e-12
-1.38846e-07
2.5178e-06
-9.51675e-13
-1.30239e-07
2.63971e-06
-8.12787e-13
-1.21895e-07
2.75357e-06
-6.96991e-13
-1.13841e-07
2.85969e-06
-6.17555e-13
-1.06094e-07
2.95837e-06
-5.81306e-13
-9.86646e-08
3.04994e-06
-5.87274e-13
-9.15578e-08
3.13473e-06
-6.25216e-13
-8.47735e-08
3.21306e-06
-6.78146e-13
-7.83081e-08
3.28523e-06
-7.28801e-13
-7.21558e-08
3.35155e-06
-7.62552e-13
-6.63087e-08
3.41233e-06
-7.6974e-13
-6.07574e-08
3.46784e-06
-7.45066e-13
-5.54919e-08
3.51836e-06
-6.89277e-13
-5.05013e-08
3.56415e-06
-6.09647e-13
-4.57745e-08
3.60547e-06
-5.18442e-13
-4.13002e-08
3.64255e-06
-4.29125e-13
-3.70674e-08
3.67563e-06
-3.53269e-13
-3.3065e-08
3.70493e-06
-2.97175e-13
-2.92823e-08
3.73066e-06
-2.64063e-13
-2.5709e-08
3.75301e-06
-2.53044e-13
-2.2335e-08
3.77217e-06
-2.60316e-13
-1.91506e-08
3.78833e-06
-2.79093e-13
-1.61467e-08
3.80166e-06
-3.00118e-13
-1.33144e-08
3.81232e-06
-3.13801e-13
-1.06453e-08
3.82046e-06
-3.12358e-13
-8.1314e-09
3.82624e-06
-2.92985e-13
-5.76518e-09
3.82979e-06
-2.56764e-13
-3.53951e-09
3.83125e-06
-2.08525e-13
-1.44736e-09
3.83075e-06
-1.54651e-13
5.1813e-10
3.82839e-06
-1.01652e-13
2.3623e-09
3.82431e-06
-5.53833e-14
4.09066e-09
3.81861e-06
-2.04252e-14
5.70957e-09
3.8114e-06
-1.49825e-16
7.22458e-09
3.80276e-06
3.61101e-15
8.64085e-09
3.79281e-06
-9.53131e-15
9.96322e-09
3.78162e-06
-3.7842e-14
1.11963e-08
3.76928e-06
-7.75326e-14
1.23446e-08
3.75587e-06
-1.24162e-13
1.34124e-08
3.74147e-06
-1.72332e-13
1.44039e-08
3.72615e-06
-2.1799e-13
1.5323e-08
3.70998e-06
-2.58416e-13
1.61736e-08
3.69303e-06
-2.92722e-13
1.69595e-08
3.67535e-06
-3.22129e-13
1.76841e-08
3.657e-06
-3.48372e-13
1.83509e-08
3.63805e-06
-3.74393e-13
1.89631e-08
3.61853e-06
-4.02398e-13
1.9524e-08
3.5985e-06
-4.3422e-13
2.00366e-08
3.578e-06
-4.7058e-13
2.05038e-08
3.55708e-06
-5.11658e-13
2.09284e-08
3.53577e-06
-5.56414e-13
2.1313e-08
3.51412e-06
-6.04251e-13
2.16604e-08
3.49216e-06
-6.52823e-13
2.19728e-08
3.46991e-06
-7.01132e-13
2.22528e-08
3.44742e-06
-7.47567e-13
2.25025e-08
3.42471e-06
-7.90838e-13
2.27242e-08
3.40181e-06
-8.29293e-13
2.29198e-08
3.37873e-06
-8.62142e-13
2.30915e-08
3.3555e-06
-8.8776e-13
2.3241e-08
3.33215e-06
-9.0558e-13
2.33703e-08
3.30869e-06
-9.14642e-13
2.34809e-08
3.28513e-06
-9.13865e-13
2.35745e-08
3.2615e-06
-9.03359e-13
2.36526e-08
3.23781e-06
-8.82904e-13
2.37168e-08
3.21406e-06
-8.53233e-13
2.37683e-08
3.19027e-06
-8.15347e-13
2.38086e-08
3.16646e-06
-7.70993e-13
2.38388e-08
3.14262e-06
-7.22643e-13
2.38601e-08
3.11877e-06
-6.72239e-13
2.38735e-08
3.09492e-06
-6.2214e-13
2.38802e-08
3.07106e-06
-5.74789e-13
2.38811e-08
3.0472e-06
-5.31518e-13
2.38771e-08
3.02336e-06
-4.93188e-13
2.38691e-08
2.99952e-06
-4.60298e-13
2.38578e-08
2.9757e-06
-4.31737e-13
2.38441e-08
2.95189e-06
-4.0648e-13
2.38287e-08
2.9281e-06
-3.82527e-13
2.38123e-08
2.90433e-06
-3.57824e-13
2.37956e-08
2.88057e-06
-3.30513e-13
2.37792e-08
2.85682e-06
-2.98927e-13
2.37636e-08
2.83309e-06
-2.62539e-13
2.37495e-08
2.80937e-06
-2.2135e-13
2.37375e-08
2.78566e-06
-1.76525e-13
2.3728e-08
2.76195e-06
-1.3034e-13
2.37216e-08
2.73825e-06
-8.58197e-14
2.37188e-08
2.71454e-06
-4.61293e-14
2.372e-08
2.69083e-06
-1.46822e-14
2.37257e-08
2.6671e-06
5.02418e-15
2.37364e-08
2.64336e-06
1.13524e-14
2.37525e-08
2.6196e-06
3.05349e-15
2.37744e-08
2.59581e-06
-1.93175e-14
2.38026e-08
2.57198e-06
-5.40398e-14
2.38375e-08
2.54811e-06
-9.80324e-14
2.38796e-08
2.52418e-06
-1.47659e-13
2.39291e-08
2.50021e-06
-1.98036e-13
2.39867e-08
2.47616e-06
-2.45137e-13
2.40526e-08
2.45204e-06
-2.84411e-13
2.41274e-08
2.42784e-06
-3.1311e-13
2.42113e-08
2.40354e-06
-3.29403e-13
2.43049e-08
2.37914e-06
-3.329e-13
2.44084e-08
2.35462e-06
-3.24907e-13
2.45224e-08
2.32999e-06
-3.08309e-13
2.46471e-08
2.30521e-06
-2.86576e-13
2.47831e-08
2.28029e-06
-2.63955e-13
2.49307e-08
2.25521e-06
-2.45054e-13
2.50903e-08
2.22995e-06
-2.33952e-13
2.52622e-08
2.20452e-06
-2.33036e-13
2.5447e-08
2.17888e-06
-2.44193e-13
2.56449e-08
2.15303e-06
-2.67231e-13
2.58563e-08
2.12696e-06
-3.00843e-13
2.60817e-08
2.10065e-06
-3.41616e-13
2.63214e-08
2.07408e-06
-3.8608e-13
2.65758e-08
2.04724e-06
-4.30017e-13
2.68452e-08
2.02012e-06
-4.69985e-13
2.713e-08
1.9927e-06
-5.02792e-13
2.74306e-08
1.96496e-06
-5.26912e-13
2.77472e-08
1.93689e-06
-5.42122e-13
2.80801e-08
1.90847e-06
-5.49116e-13
2.84297e-08
1.87969e-06
-5.47756e-13
2.87962e-08
1.85052e-06
-5.39374e-13
2.91798e-08
1.82095e-06
-5.23748e-13
2.95808e-08
1.79097e-06
-5.001e-13
2.99993e-08
1.76054e-06
-4.6832e-13
3.04355e-08
1.72967e-06
-4.29629e-13
3.08896e-08
1.69832e-06
-3.8583e-13
3.13617e-08
1.66648e-06
-3.41671e-13
3.18517e-08
1.63413e-06
-3.02258e-13
3.23597e-08
1.60126e-06
-2.72282e-13
3.28857e-08
1.56784e-06
-2.54519e-13
3.34294e-08
1.53387e-06
-2.47746e-13
3.39907e-08
1.49931e-06
-2.4733e-13
3.45694e-08
1.46415e-06
-2.46969e-13
3.5165e-08
1.42839e-06
-2.41279e-13
3.57772e-08
1.39199e-06
-2.27873e-13
3.64054e-08
1.35496e-06
-2.085e-13
3.7049e-08
1.31726e-06
-1.86934e-13
3.77072e-08
1.27889e-06
-1.6645e-13
3.83791e-08
1.23984e-06
-1.46105e-13
3.90635e-08
1.20009e-06
-1.20431e-13
3.97592e-08
1.15963e-06
-8.30724e-14
4.04647e-08
1.11846e-06
-3.13638e-14
4.11784e-08
1.07657e-06
2.87825e-14
4.18984e-08
1.03395e-06
8.55427e-14
4.26225e-08
9.90613e-07
1.27426e-13
4.3348e-08
9.46547e-07
1.51545e-13
4.40721e-08
9.0176e-07
1.67089e-13
4.47915e-08
8.56261e-07
1.88877e-13
4.55026e-08
8.10063e-07
2.24515e-13
4.62012e-08
7.63183e-07
2.67342e-13
4.68825e-08
7.15644e-07
2.98817e-13
4.7541e-08
6.67473e-07
3.05533e-13
4.81705e-08
6.18709e-07
2.92932e-13
4.87639e-08
5.69394e-07
2.84134e-13
4.9313e-08
5.19583e-07
2.984e-13
4.98087e-08
4.6934e-07
3.28959e-13
5.02404e-08
4.1874e-07
3.46667e-13
5.05958e-08
3.67875e-07
3.31069e-13
5.08605e-08
3.16852e-07
2.98261e-13
5.1018e-08
2.65797e-07
2.89269e-13
5.10492e-08
2.14859e-07
3.19966e-13
5.09319e-08
1.64213e-07
3.49665e-13
5.06394e-08
1.14067e-07
3.20688e-13
5.014e-08
6.46656e-08
2.34424e-13
4.93937e-08
1.6303e-08
1.59817e-13
4.83552e-08
-3.06509e-08
1.43774e-13
4.69467e-08
-7.5748e-08
1.40332e-13
4.509e-08
-1.18479e-07
8.98171e-14
4.27233e-08
-1.58261e-07
4.11338e-14
3.97746e-08
-1.944e-07
8.9595e-14
3.61315e-08
-2.26039e-07
1.72307e-13
3.16328e-08
-2.52151e-07
1.0647e-13
2.61051e-08
-2.71489e-07
-9.64784e-14
1.9332e-08
-2.82547e-07
-2.31204e-13
1.10527e-08
-2.83528e-07
-2.86604e-13
9.76259e-10
-2.72425e-07
-3.329e-13
-1.11087e-08
-2.47138e-07
-1.34504e-13
-2.52905e-08
-2.05833e-07
1.72029e-13
-4.13054e-08
-1.48107e-07
-3.14193e-14
-5.77256e-08
-7.78282e-08
4.81837e-14
-7.02781e-08
-1.44378e-08
1.93601e-12
-6.33873e-08
3.14726e-12
-1.44333e-08
-3.0129e-07
3.01343e-07
-4.91333e-07
1.9015e-07
-5.5155e-07
6.02652e-08
-5.05486e-07
-4.60225e-08
-3.86862e-07
-1.18586e-07
-2.22047e-07
-1.64777e-07
-2.9225e-08
-1.92785e-07
1.78793e-07
-2.07983e-07
3.93102e-07
-2.14276e-07
6.0821e-07
-2.15078e-07
8.20479e-07
-2.12242e-07
1.02749e-06
-2.0699e-07
1.22766e-06
-2.00141e-07
1.41993e-06
-1.92254e-07
1.60367e-06
-1.8372e-07
1.77851e-06
-1.74819e-07
1.94429e-06
-1.65754e-07
2.10098e-06
-1.56669e-07
2.24867e-06
-1.47673e-07
2.38754e-06
-1.38844e-07
2.5178e-06
-1.30237e-07
2.63971e-06
-1.21893e-07
2.75357e-06
-1.13839e-07
2.85968e-06
-1.06092e-07
2.95836e-06
-9.8663e-08
3.04994e-06
-9.15563e-08
3.13473e-06
-8.4772e-08
3.21305e-06
-7.83066e-08
3.28522e-06
-7.21543e-08
3.35155e-06
-6.63071e-08
3.41232e-06
-6.07558e-08
3.46783e-06
-5.54902e-08
3.51835e-06
-5.04996e-08
3.56414e-06
-4.57728e-08
3.60546e-06
-4.12985e-08
3.64255e-06
-3.70657e-08
3.67563e-06
-3.30634e-08
3.70493e-06
-2.92808e-08
3.73065e-06
-2.57075e-08
3.753e-06
-2.23335e-08
3.77217e-06
-1.91493e-08
3.78833e-06
-1.61454e-08
3.80166e-06
-1.33131e-08
3.81232e-06
-1.06441e-08
3.82046e-06
-8.13018e-09
3.82624e-06
-5.76399e-09
3.82979e-06
-3.53836e-09
3.83125e-06
-1.44627e-09
3.83074e-06
5.19161e-10
3.82839e-06
2.36325e-09
3.82431e-06
4.09152e-09
3.81861e-06
5.71033e-09
3.81139e-06
7.22524e-09
3.80276e-06
8.64141e-09
3.7928e-06
9.9637e-09
3.78161e-06
1.11967e-08
3.76928e-06
1.2345e-08
3.75587e-06
1.34128e-08
3.74147e-06
1.44042e-08
3.72615e-06
1.53233e-08
3.70998e-06
1.6174e-08
3.69303e-06
1.69598e-08
3.67535e-06
1.76844e-08
3.657e-06
1.83512e-08
3.63804e-06
1.89636e-08
3.61852e-06
1.95245e-08
3.59849e-06
2.00372e-08
3.578e-06
2.05044e-08
3.55708e-06
2.09291e-08
3.53577e-06
2.13138e-08
3.51412e-06
2.16612e-08
3.49216e-06
2.19738e-08
3.46991e-06
2.22538e-08
3.44742e-06
2.25037e-08
3.42471e-06
2.27255e-08
3.4018e-06
2.29213e-08
3.37873e-06
2.30931e-08
3.3555e-06
2.32427e-08
3.33215e-06
2.33721e-08
3.30869e-06
2.34828e-08
3.28513e-06
2.35765e-08
3.2615e-06
2.36548e-08
3.2378e-06
2.37191e-08
3.21406e-06
2.37707e-08
3.19027e-06
2.3811e-08
3.16646e-06
2.38413e-08
3.14262e-06
2.38626e-08
3.11877e-06
2.38761e-08
3.09491e-06
2.38827e-08
3.07106e-06
2.38836e-08
3.0472e-06
2.38795e-08
3.02336e-06
2.38714e-08
2.99952e-06
2.38601e-08
2.9757e-06
2.38464e-08
2.95189e-06
2.38309e-08
2.9281e-06
2.38144e-08
2.90432e-06
2.37976e-08
2.88056e-06
2.37811e-08
2.85682e-06
2.37655e-08
2.83309e-06
2.37514e-08
2.80937e-06
2.37393e-08
2.78566e-06
2.37298e-08
2.76195e-06
2.37233e-08
2.73825e-06
2.37204e-08
2.71454e-06
2.37215e-08
2.69083e-06
2.37271e-08
2.6671e-06
2.37376e-08
2.64336e-06
2.37536e-08
2.6196e-06
2.37754e-08
2.59581e-06
2.38035e-08
2.57198e-06
2.38384e-08
2.54811e-06
2.38803e-08
2.52418e-06
2.39299e-08
2.5002e-06
2.39874e-08
2.47616e-06
2.40534e-08
2.45204e-06
2.41281e-08
2.42784e-06
2.42121e-08
2.40354e-06
2.43057e-08
2.37914e-06
2.44092e-08
2.35462e-06
2.45232e-08
2.32998e-06
2.4648e-08
2.30521e-06
2.4784e-08
2.28029e-06
2.49316e-08
2.25521e-06
2.50911e-08
2.22995e-06
2.52631e-08
2.20452e-06
2.54478e-08
2.17888e-06
2.56456e-08
2.15303e-06
2.58571e-08
2.12696e-06
2.60824e-08
2.10064e-06
2.63221e-08
2.07408e-06
2.65765e-08
2.04724e-06
2.6846e-08
2.02012e-06
2.71308e-08
1.9927e-06
2.74315e-08
1.96496e-06
2.77481e-08
1.93689e-06
2.80812e-08
1.90847e-06
2.84308e-08
1.87969e-06
2.87974e-08
1.85052e-06
2.9181e-08
1.82095e-06
2.9582e-08
1.79097e-06
3.00006e-08
1.76054e-06
3.04368e-08
1.72967e-06
3.08909e-08
1.69832e-06
3.13629e-08
1.66648e-06
3.1853e-08
1.63413e-06
3.2361e-08
1.60126e-06
3.28869e-08
1.56784e-06
3.34306e-08
1.53387e-06
3.39919e-08
1.49931e-06
3.45705e-08
1.46415e-06
3.51661e-08
1.42839e-06
3.57782e-08
1.39199e-06
3.64065e-08
1.35496e-06
3.70501e-08
1.31726e-06
3.77083e-08
1.27889e-06
3.83801e-08
1.23984e-06
3.90644e-08
1.20009e-06
3.97601e-08
1.15963e-06
4.04655e-08
1.11846e-06
4.11792e-08
1.07657e-06
4.18992e-08
1.03396e-06
4.26232e-08
9.90614e-07
4.33486e-08
9.46547e-07
4.40726e-08
9.01761e-07
4.47919e-08
8.56262e-07
4.55029e-08
8.10064e-07
4.62014e-08
7.63184e-07
4.68826e-08
7.15644e-07
4.75411e-08
6.67474e-07
4.81704e-08
6.18709e-07
4.87636e-08
5.69395e-07
4.93127e-08
5.19584e-07
4.98084e-08
4.69341e-07
5.024e-08
4.18741e-07
5.05953e-08
3.67876e-07
5.08599e-08
3.16853e-07
5.10173e-08
2.65798e-07
5.10486e-08
2.1486e-07
5.09313e-08
1.64214e-07
5.06388e-08
1.14067e-07
5.01393e-08
6.46662e-08
4.93929e-08
1.63038e-08
4.83543e-08
-3.065e-08
4.6946e-08
-7.57472e-08
4.50891e-08
-1.18478e-07
4.27224e-08
-1.5826e-07
3.97738e-08
-1.94398e-07
3.61311e-08
-2.26038e-07
3.16323e-08
-2.5215e-07
2.61044e-08
-2.71489e-07
1.93315e-08
-2.82547e-07
1.10528e-08
-2.83528e-07
9.76028e-10
-2.72424e-07
-1.11096e-08
-2.47137e-07
-2.52919e-08
-2.05833e-07
-4.1308e-08
-1.48108e-07
-5.77293e-08
-7.78278e-08
-7.02821e-08
-1.44366e-08
-6.33918e-08
-1.44313e-08
-1.65129e-07
-1.43532e-12
4.66573e-07
-1.82144e-07
6.11456e-13
2.07236e-07
-1.34105e-07
4.96591e-13
1.22624e-08
-4.49379e-08
3.92484e-13
-1.35157e-07
7.61843e-08
3.2323e-13
-2.39678e-07
2.21424e-07
2.85493e-13
-3.09989e-07
3.83498e-07
2.74459e-13
-3.54831e-07
5.56427e-07
2.69336e-13
-3.80886e-07
7.35504e-07
2.58587e-13
-3.9333e-07
9.16884e-07
2.411e-13
-3.96436e-07
1.09766e-06
2.14517e-13
-3.93001e-07
1.2757e-06
1.81702e-13
-3.85009e-07
1.44943e-06
1.46494e-13
-3.73858e-07
1.61775e-06
1.13534e-13
-3.60549e-07
1.77985e-06
8.72487e-14
-3.45809e-07
1.93522e-06
7.15318e-14
-3.30174e-07
2.08353e-06
6.92139e-14
-3.14041e-07
2.22458e-06
8.05726e-14
-2.97705e-07
2.35831e-06
1.02569e-13
-2.81389e-07
2.48474e-06
1.29859e-13
-2.65257e-07
2.60395e-06
1.5683e-13
-2.49433e-07
2.71608e-06
1.78799e-13
-2.34007e-07
2.8213e-06
1.92156e-13
-2.19044e-07
2.91981e-06
1.94987e-13
-2.0459e-07
3.01184e-06
1.87652e-13
-1.90674e-07
3.09761e-06
1.72976e-13
-1.77313e-07
3.17736e-06
1.55331e-13
-1.64516e-07
3.25135e-06
1.39225e-13
-1.52283e-07
3.31982e-06
1.28185e-13
-1.4061e-07
3.38302e-06
1.24501e-13
-1.29486e-07
3.44117e-06
1.29042e-13
-1.18898e-07
3.49453e-06
1.41293e-13
-1.08833e-07
3.54332e-06
1.59035e-13
-9.92717e-08
3.58775e-06
1.78808e-13
-9.01974e-08
3.62806e-06
1.96842e-13
-8.15912e-08
3.66444e-06
2.10081e-13
-7.34341e-08
3.6971e-06
2.16687e-13
-6.57072e-08
3.72622e-06
2.16201e-13
-5.83919e-08
3.752e-06
2.09168e-13
-5.14697e-08
3.7746e-06
1.96984e-13
-4.4923e-08
3.7942e-06
1.81586e-13
-3.87343e-08
3.81095e-06
1.65419e-13
-3.28871e-08
3.82501e-06
1.5094e-13
-2.73655e-08
3.83653e-06
1.40199e-13
-2.21541e-08
3.84565e-06
1.34037e-13
-1.72384e-08
3.8525e-06
1.32198e-13
-1.26044e-08
3.85721e-06
1.33263e-13
-8.23883e-09
3.8599e-06
1.35512e-13
-4.12895e-09
3.86069e-06
1.36924e-13
-2.62627e-10
3.85969e-06
1.3599e-13
3.37079e-09
3.85701e-06
1.31993e-13
6.78205e-09
3.85275e-06
1.24482e-13
9.98241e-09
3.84699e-06
1.13394e-13
1.29821e-08
3.83985e-06
9.91481e-14
1.5791e-08
3.8314e-06
8.2637e-14
1.84183e-08
3.82173e-06
6.50469e-14
2.08729e-08
3.81091e-06
4.77828e-14
2.31633e-08
3.79903e-06
3.22744e-14
2.52978e-08
3.78616e-06
1.97254e-14
2.72841e-08
3.77235e-06
1.08991e-14
2.913e-08
3.75769e-06
5.93425e-15
3.08427e-08
3.74222e-06
4.56725e-15
3.24293e-08
3.72602e-06
6.05561e-15
3.38965e-08
3.70912e-06
9.5389e-15
3.5251e-08
3.69159e-06
1.41463e-14
3.64989e-08
3.67347e-06
1.92463e-14
3.76464e-08
3.65482e-06
2.43776e-14
3.86993e-08
3.63566e-06
2.9273e-14
3.96632e-08
3.61606e-06
3.40053e-14
4.05435e-08
3.59603e-06
3.86057e-14
4.13454e-08
3.57563e-06
4.32617e-14
4.20738e-08
3.55488e-06
4.81362e-14
4.27335e-08
3.53381e-06
5.33369e-14
4.33291e-08
3.51246e-06
5.8947e-14
4.38649e-08
3.49085e-06
6.49734e-14
4.43452e-08
3.46901e-06
7.14647e-14
4.47738e-08
3.44696e-06
7.85145e-14
4.51547e-08
3.42473e-06
8.60189e-14
4.54914e-08
3.40233e-06
9.41235e-14
4.57875e-08
3.37978e-06
1.02794e-13
4.60462e-08
3.3571e-06
1.12008e-13
4.62707e-08
3.33431e-06
1.21706e-13
4.6464e-08
3.31142e-06
1.31673e-13
4.66289e-08
3.28844e-06
1.41783e-13
4.67681e-08
3.26538e-06
1.51532e-13
4.68841e-08
3.24226e-06
1.60636e-13
4.69795e-08
3.21909e-06
1.68709e-13
4.70563e-08
3.19587e-06
1.75371e-13
4.71169e-08
3.17261e-06
1.80374e-13
4.71633e-08
3.14931e-06
1.83614e-13
4.71974e-08
3.12599e-06
1.85109e-13
4.7221e-08
3.10264e-06
1.85168e-13
4.7236e-08
3.07927e-06
1.84114e-13
4.72439e-08
3.05589e-06
1.82479e-13
4.72462e-08
3.03249e-06
1.80762e-13
4.72446e-08
3.00908e-06
1.79464e-13
4.72404e-08
2.98566e-06
1.78923e-13
4.72349e-08
2.96223e-06
1.79229e-13
4.72294e-08
2.93878e-06
1.80346e-13
4.72252e-08
2.91532e-06
1.81872e-13
4.72233e-08
2.89185e-06
1.8326e-13
4.72248e-08
2.86836e-06
1.83794e-13
4.72309e-08
2.84485e-06
1.82677e-13
4.72426e-08
2.82132e-06
1.79228e-13
4.72608e-08
2.79777e-06
1.72855e-13
4.72866e-08
2.77418e-06
1.63304e-13
4.73208e-08
2.75056e-06
1.50675e-13
4.73644e-08
2.72691e-06
1.35416e-13
4.74184e-08
2.70321e-06
1.18232e-13
4.74836e-08
2.67946e-06
1.00212e-13
4.75609e-08
2.65565e-06
8.25661e-14
4.76512e-08
2.63178e-06
6.64574e-14
4.77554e-08
2.60784e-06
5.29439e-14
4.78743e-08
2.58383e-06
4.29241e-14
4.80086e-08
2.55973e-06
3.69914e-14
4.81593e-08
2.53553e-06
3.52289e-14
4.83271e-08
2.51124e-06
3.74493e-14
4.85128e-08
2.48683e-06
4.30108e-14
4.87171e-08
2.46231e-06
5.09697e-14
4.89408e-08
2.43765e-06
6.02297e-14
4.91847e-08
2.41286e-06
6.95694e-14
4.94495e-08
2.38791e-06
7.78059e-14
4.9736e-08
2.36281e-06
8.40544e-14
5.0045e-08
2.33753e-06
8.7562e-14
5.03772e-08
2.31207e-06
8.80165e-14
5.07334e-08
2.28641e-06
8.54872e-14
5.11144e-08
2.26054e-06
8.03524e-14
5.1521e-08
2.23445e-06
7.34482e-14
5.19538e-08
2.20812e-06
6.57114e-14
5.24137e-08
2.18155e-06
5.82798e-14
5.29013e-08
2.15472e-06
5.21389e-14
5.34174e-08
2.12761e-06
4.81768e-14
5.39625e-08
2.10021e-06
4.68792e-14
5.45374e-08
2.0725e-06
4.83988e-14
5.51426e-08
2.04448e-06
5.25275e-14
5.57786e-08
2.01613e-06
5.89182e-14
5.64461e-08
1.98742e-06
6.68424e-14
5.71453e-08
1.95835e-06
7.58005e-14
5.78768e-08
1.9289e-06
8.52721e-14
5.8641e-08
1.89905e-06
9.49657e-14
5.94382e-08
1.8688e-06
1.04694e-13
6.02686e-08
1.83811e-06
1.1418e-13
6.11326e-08
1.80698e-06
1.2286e-13
6.20301e-08
1.77539e-06
1.30035e-13
6.29614e-08
1.74333e-06
1.34837e-13
6.39263e-08
1.71078e-06
1.36439e-13
6.49247e-08
1.67772e-06
1.3449e-13
6.59565e-08
1.64414e-06
1.29424e-13
6.70212e-08
1.61002e-06
1.22451e-13
6.81184e-08
1.57535e-06
1.15227e-13
6.92473e-08
1.54012e-06
1.09218e-13
7.04071e-08
1.50431e-06
1.05242e-13
7.15967e-08
1.46791e-06
1.03008e-13
7.28149e-08
1.43091e-06
1.01488e-13
7.40603e-08
1.39329e-06
9.94899e-14
7.53309e-08
1.35505e-06
9.66866e-14
7.66248e-08
1.31618e-06
9.39179e-14
7.79395e-08
1.27668e-06
9.25787e-14
7.92724e-08
1.23653e-06
9.35294e-14
8.06202e-08
1.19574e-06
9.61176e-14
8.19795e-08
1.1543e-06
9.77898e-14
8.33462e-08
1.11221e-06
9.57082e-14
8.47157e-08
1.06948e-06
8.85958e-14
8.60827e-08
1.02611e-06
7.82846e-14
8.74414e-08
9.82122e-07
6.8591e-14
8.87852e-08
9.3752e-07
6.24223e-14
9.01065e-08
8.92326e-07
5.9161e-14
9.1397e-08
8.46563e-07
5.47826e-14
9.2647e-08
8.00258e-07
4.50057e-14
9.38457e-08
7.53447e-07
3.00454e-14
9.49809e-08
7.0617e-07
1.50574e-14
9.60388e-08
6.58478e-07
6.23113e-15
9.70035e-08
6.10426e-07
3.69149e-15
9.78573e-08
5.62083e-07
6.59196e-16
9.85798e-08
5.13528e-07
-9.79772e-15
9.91475e-08
4.6485e-07
-2.56115e-14
9.95337e-08
4.16155e-07
-3.5992e-14
9.97075e-08
3.67566e-07
-3.36328e-14
9.96335e-08
3.19222e-07
-2.64372e-14
9.92701e-08
2.71287e-07
-3.18356e-14
9.8569e-08
2.23947e-07
-5.49352e-14
9.74732e-08
1.77422e-07
-7.89646e-14
9.59134e-08
1.31961e-07
-8.66529e-14
9.38097e-08
8.78501e-08
-8.51749e-14
9.10515e-08
4.54133e-08
-9.45494e-14
8.75204e-08
5.02395e-09
-1.06692e-13
8.31062e-08
-3.28672e-08
-9.06775e-14
7.76599e-08
-6.77466e-08
-5.44217e-14
7.10055e-08
-9.90541e-08
-5.24858e-14
6.29349e-08
-1.26156e-07
-8.71109e-14
5.32018e-08
-1.4835e-07
-8.55982e-14
4.15214e-08
-1.64881e-07
-5.81479e-14
2.75802e-08
-1.74985e-07
-1.11536e-13
1.10762e-08
-1.77908e-07
-1.93234e-13
-8.18786e-09
-1.73038e-07
-2.04586e-13
-3.01627e-08
-1.60064e-07
-2.91128e-13
-5.42811e-08
-1.39062e-07
-3.38965e-13
-7.87282e-08
-1.09892e-07
-3.39173e-13
-9.9446e-08
-6.79455e-08
-3.75144e-13
-1.05332e-07
2.64013e-13
-8.23669e-08
-1.65119e-07
4.66572e-07
-1.8214e-07
2.07233e-07
-1.34101e-07
1.22593e-08
-4.49335e-08
-1.3516e-07
7.61884e-08
-2.3968e-07
2.21428e-07
-3.0999e-07
3.83501e-07
-3.54833e-07
5.56429e-07
-3.80888e-07
7.35506e-07
-3.93331e-07
9.16885e-07
-3.96437e-07
1.09766e-06
-3.93002e-07
1.2757e-06
-3.8501e-07
1.44943e-06
-3.73858e-07
1.61774e-06
-3.60549e-07
1.77985e-06
-3.4581e-07
1.93522e-06
-3.30175e-07
2.08352e-06
-3.14042e-07
2.22458e-06
-2.97706e-07
2.35831e-06
-2.81389e-07
2.48474e-06
-2.65257e-07
2.60395e-06
-2.49433e-07
2.71608e-06
-2.34007e-07
2.8213e-06
-2.19044e-07
2.91981e-06
-2.0459e-07
3.01183e-06
-1.90674e-07
3.0976e-06
-1.77313e-07
3.17736e-06
-1.64516e-07
3.25135e-06
-1.52284e-07
3.31982e-06
-1.4061e-07
3.38301e-06
-1.29486e-07
3.44117e-06
-1.18899e-07
3.49453e-06
-1.08833e-07
3.54331e-06
-9.92719e-08
3.58775e-06
-9.01976e-08
3.62806e-06
-8.15914e-08
3.66444e-06
-7.34343e-08
3.6971e-06
-6.57074e-08
3.72622e-06
-5.83921e-08
3.752e-06
-5.14699e-08
3.7746e-06
-4.49232e-08
3.79419e-06
-3.87345e-08
3.81095e-06
-3.28873e-08
3.82501e-06
-2.73657e-08
3.83653e-06
-2.21543e-08
3.84565e-06
-1.72386e-08
3.8525e-06
-1.26046e-08
3.85721e-06
-8.23902e-09
3.8599e-06
-4.12915e-09
3.86069e-06
-2.62828e-10
3.85969e-06
3.37058e-09
3.85701e-06
6.78185e-09
3.85274e-06
9.9822e-09
3.84699e-06
1.29819e-08
3.83985e-06
1.57908e-08
3.8314e-06
1.84181e-08
3.82173e-06
2.08727e-08
3.81091e-06
2.31631e-08
3.79903e-06
2.52976e-08
3.78616e-06
2.7284e-08
3.77235e-06
2.91298e-08
3.75769e-06
3.08425e-08
3.74222e-06
3.24291e-08
3.72601e-06
3.38964e-08
3.70912e-06
3.52508e-08
3.69159e-06
3.64987e-08
3.67347e-06
3.76462e-08
3.65482e-06
3.86991e-08
3.63566e-06
3.9663e-08
3.61605e-06
4.05433e-08
3.59603e-06
4.13452e-08
3.57563e-06
4.20736e-08
3.55487e-06
4.27333e-08
3.53381e-06
4.33289e-08
3.51246e-06
4.38647e-08
3.49085e-06
4.4345e-08
3.46901e-06
4.47736e-08
3.44696e-06
4.51545e-08
3.42473e-06
4.54913e-08
3.40233e-06
4.57873e-08
3.37978e-06
4.60461e-08
3.3571e-06
4.62706e-08
3.33431e-06
4.64639e-08
3.31142e-06
4.66288e-08
3.28844e-06
4.6768e-08
3.26538e-06
4.6884e-08
3.24226e-06
4.69794e-08
3.21909e-06
4.70562e-08
3.19587e-06
4.71168e-08
3.1726e-06
4.71632e-08
3.14931e-06
4.71973e-08
3.12599e-06
4.72209e-08
3.10264e-06
4.72359e-08
3.07927e-06
4.72438e-08
3.05589e-06
4.72461e-08
3.03249e-06
4.72445e-08
3.00908e-06
4.72403e-08
2.98566e-06
4.72348e-08
2.96222e-06
4.72293e-08
2.93878e-06
4.72251e-08
2.91532e-06
4.72232e-08
2.89185e-06
4.72248e-08
2.86836e-06
4.72309e-08
2.84485e-06
4.72425e-08
2.82132e-06
4.72608e-08
2.79777e-06
4.72865e-08
2.77418e-06
4.73207e-08
2.75056e-06
4.73643e-08
2.72691e-06
4.74183e-08
2.70321e-06
4.74835e-08
2.67946e-06
4.75608e-08
2.65565e-06
4.76511e-08
2.63178e-06
4.77553e-08
2.60784e-06
4.78742e-08
2.58383e-06
4.80086e-08
2.55973e-06
4.81593e-08
2.53553e-06
4.83271e-08
2.51124e-06
4.85127e-08
2.48683e-06
4.87171e-08
2.46231e-06
4.89408e-08
2.43765e-06
4.91846e-08
2.41286e-06
4.94494e-08
2.38791e-06
4.97359e-08
2.36281e-06
5.00449e-08
2.33753e-06
5.03771e-08
2.31207e-06
5.07333e-08
2.28641e-06
5.11143e-08
2.26054e-06
5.15208e-08
2.23445e-06
5.19537e-08
2.20812e-06
5.24135e-08
2.18155e-06
5.29012e-08
2.15472e-06
5.34172e-08
2.12761e-06
5.39624e-08
2.10021e-06
5.45373e-08
2.0725e-06
5.51425e-08
2.04448e-06
5.57785e-08
2.01613e-06
5.64459e-08
1.98742e-06
5.71452e-08
1.95835e-06
5.78767e-08
1.9289e-06
5.86409e-08
1.89905e-06
5.94381e-08
1.8688e-06
6.02685e-08
1.83811e-06
6.11324e-08
1.80698e-06
6.20299e-08
1.77539e-06
6.29612e-08
1.74333e-06
6.39261e-08
1.71078e-06
6.49246e-08
1.67772e-06
6.59564e-08
1.64414e-06
6.70211e-08
1.61002e-06
6.81182e-08
1.57535e-06
6.92471e-08
1.54012e-06
7.04069e-08
1.50431e-06
7.15966e-08
1.46791e-06
7.28148e-08
1.43091e-06
7.40602e-08
1.39329e-06
7.53308e-08
1.35505e-06
7.66247e-08
1.31618e-06
7.79394e-08
1.27668e-06
7.92723e-08
1.23653e-06
8.06201e-08
1.19574e-06
8.19795e-08
1.1543e-06
8.33461e-08
1.11221e-06
8.47156e-08
1.06948e-06
8.60826e-08
1.02611e-06
8.74413e-08
9.82122e-07
8.87851e-08
9.3752e-07
9.01065e-08
8.92326e-07
9.13969e-08
8.46563e-07
9.26469e-08
8.00258e-07
9.38456e-08
7.53447e-07
9.49809e-08
7.0617e-07
9.60387e-08
6.58478e-07
9.70035e-08
6.10427e-07
9.78573e-08
5.62084e-07
9.85797e-08
5.13528e-07
9.91474e-08
4.6485e-07
9.95336e-08
4.16156e-07
9.97075e-08
3.67566e-07
9.96335e-08
3.19223e-07
9.92702e-08
2.71287e-07
9.85691e-08
2.23948e-07
9.74732e-08
1.77422e-07
9.59134e-08
1.31961e-07
9.38097e-08
8.78503e-08
9.10515e-08
4.54135e-08
8.75204e-08
5.02426e-09
8.31062e-08
-3.28668e-08
7.766e-08
-6.77462e-08
7.10055e-08
-9.90539e-08
6.2935e-08
-1.26156e-07
5.32018e-08
-1.4835e-07
4.15215e-08
-1.64881e-07
2.75803e-08
-1.74985e-07
1.10764e-08
-1.77908e-07
-8.18744e-09
-1.73037e-07
-3.01623e-08
-1.60063e-07
-5.42807e-08
-1.39062e-07
-7.87277e-08
-1.09893e-07
-9.94454e-08
-6.79426e-08
-1.05332e-07
-8.23706e-08
-2.2094e-08
7.72277e-13
4.88707e-07
4.06081e-08
6.75983e-13
1.44564e-07
1.35216e-07
3.78859e-13
-8.23372e-08
2.45166e-07
2.90816e-13
-2.451e-07
3.68011e-07
2.60212e-13
-3.62517e-07
5.02378e-07
2.47671e-13
-4.4435e-07
6.46145e-07
2.41654e-13
-4.98594e-07
7.9695e-07
2.35734e-13
-5.31686e-07
9.52441e-07
2.25592e-13
-5.48817e-07
1.11021e-06
2.1018e-13
-5.54204e-07
1.26819e-06
1.89755e-13
-5.50978e-07
1.42467e-06
1.66111e-13
-5.41484e-07
1.57829e-06
1.41602e-13
-5.27472e-07
1.728e-06
1.18964e-13
-5.1025e-07
1.873e-06
1.00631e-13
-4.90806e-07
2.01271e-06
8.93311e-14
-4.69886e-07
2.14673e-06
8.65137e-14
-4.48059e-07
2.27479e-06
9.09059e-14
-4.25761e-07
2.39673e-06
1.00134e-13
-4.03323e-07
2.51248e-06
1.11976e-13
-3.81e-07
2.62203e-06
1.23973e-13
-3.58985e-07
2.72545e-06
1.33146e-13
-3.37423e-07
2.82283e-06
1.37094e-13
-3.16422e-07
2.91431e-06
1.35283e-13
-2.96059e-07
3.00002e-06
1.28739e-13
-2.76389e-07
3.08016e-06
1.19153e-13
-2.57448e-07
3.1549e-06
1.08547e-13
-2.39256e-07
3.22445e-06
9.90927e-14
-2.21822e-07
3.28899e-06
9.27991e-14
-2.05147e-07
3.34873e-06
9.09116e-14
-1.89223e-07
3.40387e-06
9.36177e-14
-1.74036e-07
3.45461e-06
1.00099e-13
-1.59571e-07
3.50115e-06
1.08989e-13
-1.45807e-07
3.54367e-06
1.18518e-13
-1.32722e-07
3.58238e-06
1.26801e-13
-1.20292e-07
3.61744e-06
1.32224e-13
-1.08493e-07
3.64904e-06
1.33802e-13
-9.73008e-08
3.67734e-06
1.31304e-13
-8.669e-08
3.70251e-06
1.25184e-13
-7.66362e-08
3.7247e-06
1.16403e-13
-6.71155e-08
3.74408e-06
1.0614e-13
-5.81044e-08
3.76077e-06
9.56434e-14
-4.95802e-08
3.77493e-06
8.61232e-14
-4.15209e-08
3.78668e-06
7.85668e-14
-3.39056e-08
3.79616e-06
7.33764e-14
-2.67139e-08
3.80349e-06
7.03892e-14
-1.99265e-08
3.80877e-06
6.88297e-14
-1.35248e-08
3.81214e-06
6.7709e-14
-7.49104e-09
3.81369e-06
6.60246e-14
-1.80824e-09
3.81352e-06
6.30651e-14
3.53909e-09
3.81174e-06
5.85826e-14
8.56622e-09
3.80843e-06
5.2518e-14
1.32885e-08
3.8037e-06
4.50569e-14
1.77205e-08
3.79761e-06
3.64891e-14
2.1876e-08
3.79027e-06
2.73141e-14
2.57682e-08
3.78173e-06
1.80541e-14
2.94098e-08
3.77208e-06
9.46203e-15
3.28131e-08
3.76139e-06
2.26464e-15
3.59896e-08
3.74973e-06
-2.9673e-15
3.89508e-08
3.73715e-06
-5.84176e-15
4.17074e-08
3.72372e-06
-6.27893e-15
4.42701e-08
3.70951e-06
-4.4731e-15
4.66488e-08
3.69455e-06
-8.82242e-16
4.88534e-08
3.67891e-06
3.98537e-15
5.08932e-08
3.66263e-06
9.55208e-15
5.27774e-08
3.64576e-06
1.54102e-14
5.45145e-08
3.62835e-06
2.11851e-14
5.61131e-08
3.61044e-06
2.67483e-14
5.75812e-08
3.59205e-06
3.19074e-14
5.89266e-08
3.57324e-06
3.6664e-14
6.01568e-08
3.55404e-06
4.09904e-14
6.1279e-08
3.53448e-06
4.48831e-14
6.23e-08
3.51458e-06
4.83629e-14
6.32265e-08
3.49438e-06
5.1442e-14
6.40648e-08
3.47391e-06
5.41516e-14
6.4821e-08
3.45318e-06
5.65525e-14
6.55008e-08
3.43223e-06
5.87139e-14
6.61099e-08
3.41107e-06
6.07661e-14
6.66535e-08
3.38973e-06
6.27402e-14
6.71366e-08
3.36821e-06
6.47368e-14
6.75641e-08
3.34655e-06
6.68167e-14
6.79406e-08
3.32475e-06
6.89799e-14
6.82704e-08
3.30282e-06
7.11691e-14
6.85576e-08
3.28079e-06
7.33566e-14
6.88063e-08
3.25866e-06
7.5433e-14
6.90201e-08
3.23644e-06
7.72788e-14
6.92025e-08
3.21414e-06
7.88469e-14
6.93571e-08
3.19178e-06
8.00994e-14
6.94868e-08
3.16935e-06
8.10656e-14
6.95948e-08
3.14687e-06
8.18393e-14
6.9684e-08
3.12433e-06
8.26546e-14
6.97569e-08
3.10176e-06
8.36399e-14
6.98163e-08
3.07914e-06
8.50537e-14
6.98645e-08
3.05649e-06
8.7033e-14
6.99039e-08
3.0338e-06
8.96542e-14
6.99367e-08
3.01108e-06
9.28322e-14
6.99649e-08
2.98833e-06
9.6371e-14
6.99905e-08
2.96554e-06
9.99098e-14
7.00156e-08
2.94273e-06
1.02944e-13
7.00417e-08
2.91989e-06
1.04975e-13
7.00708e-08
2.89701e-06
1.05423e-13
7.01044e-08
2.8741e-06
1.03874e-13
7.01441e-08
2.85115e-06
1.00042e-13
7.01915e-08
2.82817e-06
9.38417e-14
7.02481e-08
2.80514e-06
8.54682e-14
7.03152e-08
2.78207e-06
7.53287e-14
7.03945e-08
2.75895e-06
6.40912e-14
7.04871e-08
2.73577e-06
5.24859e-14
7.05946e-08
2.71254e-06
4.13663e-14
7.07182e-08
2.68925e-06
3.15148e-14
7.08592e-08
2.66588e-06
2.36096e-14
7.10189e-08
2.64244e-06
1.80741e-14
7.11986e-08
2.61891e-06
1.5165e-14
7.13996e-08
2.5953e-06
1.48181e-14
7.16229e-08
2.57159e-06
1.68043e-14
7.187e-08
2.54778e-06
2.0638e-14
7.21418e-08
2.52385e-06
2.56826e-14
7.24395e-08
2.49981e-06
3.1258e-14
7.27644e-08
2.47563e-06
3.66461e-14
7.31175e-08
2.45132e-06
4.12257e-14
7.34999e-08
2.42686e-06
4.44645e-14
7.39129e-08
2.40224e-06
4.60708e-14
7.43574e-08
2.37745e-06
4.58783e-14
7.48347e-08
2.35248e-06
4.39891e-14
7.53458e-08
2.32732e-06
4.06567e-14
7.58919e-08
2.30197e-06
3.63581e-14
7.6474e-08
2.2764e-06
3.15997e-14
7.70932e-08
2.2506e-06
2.70235e-14
7.77507e-08
2.22457e-06
2.32002e-14
7.84474e-08
2.19829e-06
2.06137e-14
7.91843e-08
2.17174e-06
1.96249e-14
7.99624e-08
2.14493e-06
2.03899e-14
8.07825e-08
2.11782e-06
2.28602e-14
8.16457e-08
2.09041e-06
2.68119e-14
8.25526e-08
2.06269e-06
3.17905e-14
8.3504e-08
2.03463e-06
3.74631e-14
8.45006e-08
2.00624e-06
4.32709e-14
8.55431e-08
1.97749e-06
4.89435e-14
8.66319e-08
1.94836e-06
5.4165e-14
8.77677e-08
1.91885e-06
5.88835e-14
8.89506e-08
1.88894e-06
6.30052e-14
9.01811e-08
1.85862e-06